/*--------------------------------*- C++ -*----------------------------------*\
| =========                 |                                                 |
| \\      /  F ield         | OpenFOAM: The Open Source CFD Toolbox           |
|  \\    /   O peration     | Version:  2212                                  |
|   \\  /    A nd           | Website:  www.openfoam.com                      |
|    \\/     M anipulation  |                                                 |
\*---------------------------------------------------------------------------*/
FoamFile
{
    version     2.0;
    format      ascii;
    arch        "LSB;label=32;scalar=64";
    class       volScalarField;
    location    "0.03";
    object      alphat;
}
// * * * * * * * * * * * * * * * * * * * * * * * * * * * * * * * * * * * * * //

dimensions      [1 -1 -1 0 0 0 0];

internalField   nonuniform List<scalar> 
3072
(
0.000346196
0.000730149
0.000755049
0.000751201
0.000722482
0.000695352
0.000763856
0.00125975
0.00180231
0.00199907
0.00208593
0.00215455
0.000563063
0.00144859
0.00197005
0.00185463
0.00117995
0.00101682
0.00185356
0.00231065
0.00357587
0.00499135
0.0070205
0.00912862
0.000736654
0.00264806
0.00318618
0.00273493
0.00242553
0.00268178
0.00414788
0.00611136
0.00889971
0.0121146
0.0151882
0.0179764
0.000926235
0.00376693
0.00363763
0.00324747
0.00356947
0.00526458
0.00809076
0.0112872
0.0149335
0.0185799
0.0218384
0.0246825
0.00107027
0.00460549
0.00472111
0.00466676
0.0060274
0.00899286
0.012407
0.0160787
0.019892
0.0235152
0.0267474
0.0295586
0.00119665
0.00570177
0.00647394
0.00694638
0.00917652
0.0124988
0.0161057
0.019819
0.0235342
0.0270215
0.0301534
0.0328911
0.00129127
0.0064744
0.0079433
0.00936422
0.0122144
0.015687
0.0192356
0.0228271
0.0263071
0.0295494
0.0324755
0.0350577
0.0013931
0.00768026
0.00984939
0.0123644
0.0155992
0.0190026
0.0223732
0.025665
0.0287608
0.0316042
0.0341673
0.0364302
0.00151741
0.00900506
0.012855
0.016361
0.019689
0.022758
0.0256109
0.0282734
0.0307181
0.0329508
0.0350014
0.0368559
0.00169209
0.0106942
0.0160342
0.0199233
0.0230231
0.0255657
0.0277693
0.0297731
0.031604
0.0333145
0.0349464
0.0364892
0.00193957
0.0104652
0.0176034
0.021736
0.0245584
0.0268493
0.028766
0.0304328
0.0319479
0.0333589
0.0347059
0.0360093
0.00343467
0.0104116
0.0187878
0.023285
0.0258548
0.0280669
0.0298036
0.0312476
0.0325229
0.0336844
0.034772
0.0358106
0.00218997
0.00221182
0.00221416
0.00221411
0.00219606
0.00215638
0.00209363
0.0020026
0.00187564
0.00171352
0.00148186
0.000718026
0.0111761
0.0128539
0.0138618
0.0140947
0.013733
0.0128903
0.011562
0.00978087
0.00754958
0.00459933
0.00219288
0.00121992
0.0202964
0.0219554
0.0228018
0.0229016
0.0223968
0.0212005
0.0193053
0.0166627
0.0132448
0.00904169
0.00402947
0.00160347
0.027004
0.0287268
0.029774
0.0301612
0.029854
0.0287671
0.0268019
0.0237852
0.0195577
0.0140048
0.00693813
0.00195944
0.0318901
0.0336951
0.0349333
0.0355705
0.0355492
0.034782
0.0331064
0.0302377
0.0256501
0.0190964
0.0101999
0.00230955
0.0352008
0.0370571
0.0384404
0.0393238
0.0396761
0.0394057
0.0382836
0.0358834
0.0315568
0.0244261
0.0139997
0.00267428
0.0372682
0.0390855
0.0405032
0.0415348
0.0421958
0.0424315
0.0420275
0.040468
0.0368031
0.0296452
0.0180316
0.00305488
0.0383782
0.0400067
0.0413326
0.0424069
0.0432702
0.0439257
0.0442386
0.0437148
0.0411748
0.0344757
0.0217542
0.00348058
0.0385004
0.03993
0.0411648
0.0422384
0.0432119
0.0441497
0.0450369
0.0455406
0.0444702
0.0389037
0.0251617
0.00394622
0.0379171
0.0391974
0.040357
0.0414068
0.0424207
0.0434917
0.0447
0.0459774
0.046436
0.0428658
0.0290187
0.00444181
0.0372409
0.0383912
0.0394614
0.0404417
0.0413717
0.0423447
0.0436099
0.0451727
0.0466343
0.0454574
0.0334593
0.00498739
0.0368033
0.0377503
0.0386562
0.0395469
0.0404672
0.0413316
0.0422259
0.0437112
0.0456863
0.046652
0.0381412
0.00561397
0.000324616
0.000687729
0.000716569
0.000712788
0.000692142
0.000657065
0.000692643
0.00102165
0.00163952
0.00187465
0.00196838
0.00203715
0.000528028
0.00136454
0.00189328
0.00187669
0.00128964
0.000831768
0.00161348
0.00201342
0.00297572
0.00434809
0.00613561
0.00806759
0.000688933
0.00245928
0.0031383
0.00278209
0.00246192
0.00237604
0.00343089
0.00516907
0.0076011
0.0106151
0.0135212
0.0161539
0.000866359
0.00363806
0.00359425
0.0031431
0.00319532
0.00421624
0.006789
0.00975701
0.0130983
0.0165693
0.0196837
0.0224066
0.00100453
0.00431789
0.00432348
0.00410682
0.00492311
0.00744878
0.0107919
0.014173
0.017758
0.0212088
0.0242953
0.0269911
0.00112721
0.00522238
0.00573214
0.00590702
0.00775094
0.0109216
0.0143255
0.0178099
0.0212333
0.0245358
0.0275169
0.0301354
0.00122717
0.00599338
0.00711576
0.00824181
0.0108544
0.014144
0.0174794
0.0207892
0.0240255
0.027049
0.029787
0.0322167
0.00133652
0.00724588
0.00915213
0.0115064
0.0144764
0.0176053
0.0206743
0.0236519
0.0264907
0.029103
0.0314583
0.0335495
0.00146588
0.00877901
0.0123456
0.0156244
0.0186276
0.0213671
0.0238958
0.0262486
0.0284252
0.0304608
0.0322927
0.0339513
0.00165178
0.0105936
0.0154433
0.0189337
0.021725
0.0239578
0.0258925
0.0276323
0.029242
0.030788
0.0322352
0.0335925
0.00189551
0.0101107
0.016704
0.0205034
0.0230548
0.0250832
0.0267546
0.0281956
0.0295075
0.0307532
0.03195
0.0331074
0.00333945
0.00983775
0.0176787
0.0218363
0.0240782
0.0260129
0.0275111
0.0287662
0.0298914
0.030939
0.0319408
0.0329146
0.00207579
0.00209884
0.00210431
0.00210479
0.00209493
0.00205846
0.00200472
0.00192042
0.00180529
0.00165135
0.00143046
0.000690702
0.0100337
0.0116728
0.0127091
0.0130072
0.0126512
0.0119026
0.0106953
0.00908758
0.00703081
0.0043127
0.00208621
0.00117776
0.0184134
0.020045
0.020925
0.0210954
0.0206543
0.0195873
0.017867
0.0154523
0.0123197
0.00844439
0.00379553
0.00155142
0.0246654
0.0263507
0.027419
0.0278569
0.0276363
0.0266814
0.0248994
0.0221357
0.0182451
0.0131308
0.00653895
0.00189554
0.0292499
0.0310184
0.0322628
0.0329447
0.0330055
0.0323609
0.0308623
0.0282487
0.0239712
0.0178945
0.00960309
0.0022355
0.0323639
0.0341771
0.035555
0.0364677
0.0368751
0.0366934
0.03571
0.0335296
0.0295544
0.0229176
0.0132158
0.002589
0.0343209
0.0360817
0.0374874
0.0385393
0.0392454
0.0395551
0.0392661
0.0378911
0.0345367
0.0278882
0.0170636
0.00295835
0.0353762
0.036943
0.0382516
0.0393349
0.0402314
0.0409441
0.0413463
0.0409688
0.0386955
0.0325155
0.0206892
0.00337
0.0354563
0.0368324
0.0380556
0.0391392
0.0401368
0.0411169
0.04207
0.0426821
0.0418243
0.0367401
0.0239651
0.00382599
0.0348849
0.0361278
0.0372631
0.0383186
0.0393471
0.0404573
0.0417174
0.0430718
0.0437119
0.0404728
0.0277158
0.00431456
0.0342691
0.0353892
0.0364577
0.0374608
0.0384062
0.0393915
0.0406922
0.0423853
0.043955
0.0432119
0.0321859
0.00486167
0.0338809
0.0348333
0.0357626
0.0367371
0.0377168
0.0385697
0.0395111
0.0409882
0.0430479
0.0443753
0.0370429
0.00551178
0.000346183
0.000730124
0.00075503
0.000751183
0.000722468
0.000695337
0.000763827
0.00125967
0.00180227
0.00199905
0.0020859
0.00215453
0.000563044
0.00144856
0.00197005
0.0018547
0.00118001
0.00101676
0.00185347
0.00231053
0.00357566
0.00499114
0.00702024
0.00912833
0.000736631
0.00264799
0.00318625
0.00273504
0.00242569
0.00268164
0.00414758
0.00611101
0.00889925
0.0121141
0.0151877
0.0179759
0.000926206
0.00376695
0.00363766
0.00324743
0.00356935
0.00526404
0.00809021
0.0112866
0.0149329
0.0185793
0.0218378
0.0246819
0.00107024
0.00460546
0.00472097
0.00466651
0.00602681
0.00899203
0.0124063
0.0160779
0.0198912
0.0235145
0.0267468
0.0295579
0.00119661
0.00570155
0.00647356
0.00694576
0.00917561
0.0124979
0.0161049
0.0198183
0.0235334
0.0270207
0.0301527
0.0328904
0.00129124
0.00647412
0.00794274
0.00936336
0.0122135
0.0156862
0.0192348
0.0228264
0.0263063
0.0295487
0.0324749
0.035057
0.00139308
0.00768
0.00984889
0.0123638
0.0155986
0.0190019
0.0223725
0.0256643
0.0287601
0.0316036
0.0341666
0.0364296
0.0015174
0.00900507
0.0128549
0.0163608
0.0196888
0.0227577
0.0256105
0.0282729
0.0307176
0.0329503
0.0350008
0.0368553
0.00169209
0.0106944
0.0160344
0.0199233
0.0230231
0.0255655
0.0277691
0.0297728
0.0316036
0.033314
0.0349459
0.0364888
0.00193959
0.0104654
0.0176036
0.0217361
0.0245584
0.0268493
0.0287659
0.0304327
0.0319477
0.0333586
0.0347056
0.036009
0.00343467
0.0104117
0.0187879
0.0232851
0.0258549
0.028067
0.0298037
0.0312476
0.0325229
0.0336843
0.0347718
0.0358104
0.00218995
0.0022118
0.00221415
0.0022141
0.00219605
0.00215637
0.00209362
0.00200259
0.00187563
0.00171351
0.00148185
0.000718023
0.0111758
0.0128536
0.0138616
0.0140946
0.0137328
0.0128902
0.0115619
0.00978079
0.00754953
0.0045993
0.00219287
0.00121991
0.020296
0.021955
0.0228015
0.0229013
0.0223965
0.0212003
0.0193051
0.0166625
0.0132447
0.00904162
0.00402945
0.00160347
0.0270035
0.0287263
0.0297736
0.0301608
0.0298536
0.0287668
0.0268017
0.0237849
0.0195575
0.0140047
0.00693809
0.00195943
0.0318896
0.0336945
0.0349328
0.03557
0.0355488
0.0347816
0.033106
0.0302374
0.0256499
0.0190962
0.0101999
0.00230954
0.0352002
0.0370566
0.0384399
0.0393233
0.0396757
0.0394053
0.0382833
0.0358831
0.0315566
0.0244259
0.0139996
0.00267427
0.0372675
0.0390849
0.0405026
0.0415343
0.0421953
0.0424311
0.0420271
0.0404677
0.0368028
0.029645
0.0180315
0.00305487
0.0383776
0.0400061
0.0413321
0.0424064
0.0432697
0.0439252
0.0442381
0.0437145
0.0411745
0.0344755
0.0217541
0.00348057
0.0384999
0.0399295
0.0411643
0.0422379
0.0432114
0.0441493
0.0450365
0.0455402
0.0444698
0.0389035
0.0251615
0.00394621
0.0379167
0.039197
0.0403565
0.0414064
0.0424203
0.0434913
0.0446996
0.045977
0.0464357
0.0428655
0.0290185
0.0044418
0.0372406
0.0383908
0.0394611
0.0404414
0.0413713
0.0423444
0.0436096
0.0451723
0.046634
0.0454572
0.0334592
0.00498738
0.0368031
0.0377501
0.0386559
0.0395466
0.040467
0.0413313
0.0422256
0.0437109
0.045686
0.0466517
0.038141
0.00561396
0.000324617
0.000687732
0.000716571
0.000712789
0.000692143
0.000657067
0.000692644
0.00102165
0.00163953
0.00187465
0.00196839
0.00203715
0.00052803
0.00136454
0.00189328
0.00187669
0.00128963
0.000831767
0.00161348
0.00201343
0.00297573
0.0043481
0.00613563
0.00806761
0.000688935
0.00245928
0.0031383
0.00278208
0.00246192
0.00237604
0.0034309
0.00516908
0.00760111
0.0106151
0.0135212
0.0161539
0.000866361
0.00363805
0.00359424
0.0031431
0.00319532
0.00421624
0.00678902
0.00975703
0.0130983
0.0165694
0.0196837
0.0224066
0.00100453
0.00431788
0.00432347
0.00410681
0.00492312
0.00744881
0.010792
0.014173
0.0177581
0.0212088
0.0242953
0.0269912
0.00112722
0.00522239
0.00573216
0.00590705
0.00775098
0.0109216
0.0143256
0.01781
0.0212333
0.0245358
0.0275169
0.0301355
0.00122717
0.0059934
0.0071158
0.00824186
0.0108544
0.0141441
0.0174794
0.0207892
0.0240256
0.0270491
0.0297871
0.0322167
0.00133652
0.00724591
0.00915217
0.0115065
0.0144764
0.0176054
0.0206744
0.023652
0.0264908
0.0291031
0.0314584
0.0335495
0.00146588
0.00877903
0.0123456
0.0156244
0.0186276
0.0213671
0.0238958
0.0262487
0.0284253
0.0304608
0.0322928
0.0339514
0.00165178
0.0105936
0.0154433
0.0189337
0.021725
0.0239579
0.0258925
0.0276323
0.0292421
0.030788
0.0322353
0.0335925
0.00189551
0.0101107
0.016704
0.0205034
0.0230548
0.0250832
0.0267546
0.0281957
0.0295075
0.0307533
0.0319501
0.0331075
0.00333945
0.00983773
0.0176787
0.0218363
0.0240782
0.0260129
0.0275111
0.0287663
0.0298915
0.030939
0.0319408
0.0329146
0.00207579
0.00209885
0.00210431
0.00210479
0.00209493
0.00205847
0.00200473
0.00192042
0.00180529
0.00165135
0.00143046
0.000690704
0.0100337
0.0116729
0.0127092
0.0130072
0.0126513
0.0119027
0.0106953
0.00908759
0.00703082
0.0043127
0.00208622
0.00117776
0.0184134
0.020045
0.020925
0.0210955
0.0206543
0.0195873
0.017867
0.0154524
0.0123197
0.00844441
0.00379554
0.00155142
0.0246655
0.0263508
0.027419
0.027857
0.0276364
0.0266814
0.0248994
0.0221357
0.0182451
0.0131308
0.00653896
0.00189555
0.0292499
0.0310184
0.0322629
0.0329448
0.0330055
0.032361
0.0308624
0.0282487
0.0239712
0.0178946
0.0096031
0.0022355
0.032364
0.0341772
0.0355551
0.0364678
0.0368752
0.0366934
0.03571
0.0335297
0.0295545
0.0229177
0.0132158
0.002589
0.034321
0.0360817
0.0374875
0.0385394
0.0392455
0.0395551
0.0392662
0.0378912
0.0345367
0.0278883
0.0170636
0.00295836
0.0353762
0.0369431
0.0382517
0.039335
0.0402315
0.0409442
0.0413464
0.0409689
0.0386956
0.0325155
0.0206892
0.00337
0.0354564
0.0368325
0.0380557
0.0391393
0.0401369
0.041117
0.0420701
0.0426822
0.0418244
0.0367402
0.0239651
0.00382599
0.034885
0.0361279
0.0372632
0.0383187
0.0393472
0.0404574
0.0417175
0.0430719
0.0437121
0.0404729
0.0277158
0.00431457
0.0342692
0.0353893
0.0364578
0.0374609
0.0384063
0.0393916
0.0406923
0.0423854
0.0439551
0.043212
0.0321859
0.00486168
0.033881
0.0348334
0.0357627
0.0367371
0.0377169
0.0385698
0.0395113
0.0409883
0.0430481
0.0443755
0.037043
0.00551179
0.0209887
0.021988
0.0238936
0.0260182
0.0280185
0.0298479
0.031253
0.0324279
0.0334748
0.0343921
0.0352224
0.0359942
0.0329098
0.0307633
0.0303167
0.0307196
0.0315712
0.0324088
0.0330315
0.0338418
0.0346727
0.0352931
0.0358176
0.0362971
0.0404677
0.0383292
0.0368408
0.0359368
0.0355895
0.035523
0.0355894
0.0357137
0.0358429
0.0359711
0.0361018
0.0362976
0.0430142
0.0415101
0.0401046
0.0389172
0.0379998
0.0372865
0.0367283
0.0364221
0.0361504
0.0358932
0.0356768
0.0354325
0.0367181
0.0374069
0.0380685
0.0387204
0.0394258
0.040316
0.0412281
0.0422437
0.0439991
0.0463835
0.047444
0.0221546
0.036724
0.0371305
0.0375337
0.0379604
0.0384365
0.0390074
0.0398629
0.0407267
0.042026
0.0444134
0.0493358
0.0363744
0.0363965
0.0365135
0.0366647
0.0369054
0.0372495
0.0377163
0.0383893
0.0393321
0.0404859
0.0422633
0.0468102
0.0426946
0.0352498
0.0352052
0.0353245
0.0357111
0.0362367
0.0368985
0.0377155
0.0388284
0.0400766
0.0414056
0.0443216
0.0440642
0.0197736
0.0203915
0.0221085
0.0240006
0.0257455
0.0272856
0.0285025
0.0295788
0.0305689
0.03146
0.0322912
0.0330883
0.0313949
0.0288979
0.0280893
0.0281894
0.0287109
0.0293036
0.0299322
0.0307455
0.0315762
0.0322406
0.0328658
0.0334488
0.0390974
0.0364617
0.0343968
0.0332102
0.0325891
0.0323926
0.0324363
0.0326165
0.0328818
0.0330989
0.0333374
0.0336131
0.0418576
0.0397683
0.0379689
0.0364307
0.0352667
0.0345097
0.0339951
0.0336127
0.0334378
0.0333171
0.0332239
0.0331553
0.0338666
0.0346277
0.0353642
0.0360984
0.0368727
0.0377861
0.0385606
0.0397149
0.0416057
0.0442896
0.0466646
0.0226682
0.0340153
0.0345588
0.0350672
0.0355652
0.0360744
0.0367664
0.0375155
0.0383188
0.0398454
0.0425096
0.0483344
0.0372364
0.0339483
0.0342398
0.0344599
0.0346741
0.0349378
0.0353868
0.0360897
0.0368512
0.0383257
0.0402738
0.0453209
0.043278
0.0330965
0.0330123
0.0329873
0.0330484
0.0332593
0.0338394
0.0346215
0.0355774
0.03722
0.0388864
0.0426546
0.043817
0.0209886
0.021988
0.0238936
0.0260182
0.0280186
0.0298479
0.0312531
0.032428
0.0334749
0.0343921
0.0352223
0.0359942
0.0329096
0.0307631
0.0303166
0.0307195
0.0315711
0.0324088
0.0330315
0.0338418
0.0346727
0.0352931
0.0358175
0.0362971
0.0404675
0.0383289
0.0368406
0.0359366
0.0355894
0.0355229
0.0355893
0.0357137
0.0358429
0.0359711
0.0361018
0.0362976
0.0430138
0.0415098
0.0401044
0.0389169
0.0379996
0.0372863
0.0367281
0.036422
0.0361503
0.0358932
0.0356767
0.0354324
0.036718
0.0374068
0.0380684
0.0387202
0.0394256
0.0403158
0.0412279
0.0422435
0.0439988
0.0463832
0.0474438
0.0221546
0.0367239
0.0371304
0.0375336
0.0379603
0.0384363
0.0390073
0.0398628
0.0407266
0.0420258
0.0444132
0.0493355
0.0363743
0.0363965
0.0365134
0.0366646
0.0369053
0.0372494
0.0377162
0.0383892
0.039332
0.0404857
0.0422632
0.04681
0.0426944
0.0352498
0.0352052
0.0353245
0.0357111
0.0362366
0.0368985
0.0377154
0.0388283
0.0400765
0.0414055
0.0443214
0.044064
0.0197735
0.0203914
0.0221084
0.0240006
0.0257455
0.0272857
0.0285025
0.0295788
0.0305689
0.03146
0.0322913
0.0330884
0.0313949
0.0288979
0.0280893
0.0281894
0.0287109
0.0293037
0.0299322
0.0307455
0.0315763
0.0322406
0.0328658
0.0334488
0.0390973
0.0364617
0.0343968
0.0332102
0.0325891
0.0323926
0.0324363
0.0326166
0.0328819
0.033099
0.0333374
0.0336132
0.0418575
0.0397682
0.0379688
0.0364307
0.0352667
0.0345098
0.0339952
0.0336127
0.0334379
0.0333172
0.0332239
0.0331554
0.0338666
0.0346277
0.0353643
0.0360985
0.0368729
0.0377862
0.0385607
0.039715
0.0416059
0.0442898
0.0466648
0.0226683
0.0340154
0.0345589
0.0350673
0.0355653
0.0360745
0.0367666
0.0375156
0.038319
0.0398456
0.0425098
0.0483346
0.0372366
0.0339484
0.0342399
0.03446
0.0346742
0.0349379
0.035387
0.0360899
0.0368514
0.0383259
0.0402741
0.0453212
0.0432783
0.0330966
0.0330125
0.0329874
0.0330486
0.0332595
0.0338397
0.0346218
0.0355777
0.0372203
0.0388868
0.042655
0.0438174
0.0413426
0.0400635
0.0388024
0.0377112
0.036829
0.0361043
0.035493
0.0350331
0.0345712
0.0340877
0.0336317
0.0333304
0.0391378
0.0380334
0.0368902
0.0358615
0.0349786
0.0342163
0.0335361
0.0329152
0.0322339
0.0314409
0.0305701
0.029936
0.0368042
0.0358651
0.0348299
0.0338529
0.0329703
0.032165
0.0313969
0.0306083
0.0296643
0.0284027
0.0266456
0.0247361
0.0345288
0.0337397
0.0328102
0.0318824
0.031
0.030152
0.0292928
0.0283367
0.0270942
0.0251648
0.0216463
0.0161194
0.0335095
0.034209
0.0350772
0.0361084
0.0372226
0.0382659
0.0393513
0.0403982
0.0413694
0.0422974
0.042803
0.0422615
0.0304783
0.0323369
0.0341369
0.0358126
0.0373838
0.0387092
0.0398448
0.0407567
0.0414206
0.0416813
0.0416238
0.0407327
0.0253536
0.0295801
0.0327325
0.0350672
0.0369295
0.0383941
0.0395238
0.0403048
0.040647
0.0406432
0.0402952
0.0390646
0.0161501
0.0256944
0.0308874
0.033924
0.0360137
0.0375455
0.0386514
0.0392563
0.0394441
0.0393286
0.0387412
0.0373642
0.0402524
0.0383098
0.0366705
0.035306
0.034264
0.0335033
0.0328898
0.0323629
0.0319563
0.0315838
0.0312672
0.0310556
0.0387171
0.0368292
0.0351979
0.0338161
0.0326849
0.0317514
0.0309226
0.0301486
0.0294197
0.0286833
0.0279828
0.0274924
0.0371557
0.035276
0.0335874
0.0321061
0.0308203
0.0296814
0.0286171
0.0275707
0.0264882
0.025259
0.0238095
0.0224879
0.0355391
0.0336668
0.0319172
0.0303284
0.0288921
0.0275679
0.0262924
0.0249897
0.0235381
0.0216478
0.0186557
0.0143279
0.0309891
0.0310147
0.0311239
0.0314229
0.0320137
0.0329836
0.0342331
0.0357124
0.0375334
0.0394431
0.0414601
0.0420208
0.0275354
0.0280105
0.0284499
0.0290354
0.0299245
0.0311649
0.0326728
0.0343684
0.0362098
0.0379829
0.0393184
0.0396893
0.0225862
0.0244547
0.0256327
0.0266201
0.0277749
0.0291861
0.0308012
0.0325401
0.0343079
0.035888
0.0369189
0.0372228
0.0143215
0.0201961
0.0228404
0.0243791
0.0257782
0.0272809
0.0289043
0.0305959
0.0322557
0.0336546
0.034543
0.0348336
0.0413422
0.0400631
0.0388021
0.0377109
0.0368288
0.0361041
0.0354928
0.035033
0.0345711
0.0340877
0.0336317
0.0333303
0.0391374
0.038033
0.0368898
0.0358612
0.0349784
0.0342161
0.0335359
0.0329151
0.0322338
0.0314409
0.03057
0.029936
0.0368038
0.0358647
0.0348295
0.0338526
0.03297
0.0321648
0.0313967
0.0306082
0.0296642
0.0284027
0.0266456
0.0247362
0.0345282
0.0337392
0.0328097
0.031882
0.0309997
0.0301517
0.0292926
0.0283365
0.027094
0.0251646
0.0216463
0.0161194
0.0335094
0.034209
0.0350771
0.0361084
0.0372225
0.0382658
0.0393512
0.0403981
0.0413693
0.0422973
0.0428029
0.0422614
0.0304783
0.0323369
0.0341368
0.0358125
0.0373837
0.038709
0.0398447
0.0407566
0.0414205
0.0416812
0.0416238
0.0407327
0.0253536
0.02958
0.0327324
0.035067
0.0369294
0.038394
0.0395237
0.0403047
0.0406469
0.0406431
0.0402952
0.0390646
0.0161501
0.0256943
0.0308872
0.0339238
0.0360135
0.0375453
0.0386513
0.0392562
0.039444
0.0393285
0.0387411
0.0373643
0.0402524
0.0383098
0.0366705
0.0353061
0.0342641
0.0335034
0.0328899
0.032363
0.0319564
0.0315839
0.0312673
0.0310558
0.0387171
0.0368293
0.035198
0.0338162
0.0326851
0.0317516
0.0309228
0.0301488
0.0294199
0.0286834
0.0279829
0.0274926
0.0371558
0.0352761
0.0335875
0.0321063
0.0308205
0.0296816
0.0286174
0.027571
0.0264885
0.0252593
0.0238097
0.0224881
0.0355392
0.0336669
0.0319174
0.0303286
0.0288924
0.0275683
0.0262928
0.0249901
0.0235385
0.0216481
0.0186559
0.0143279
0.0309893
0.031015
0.0311242
0.0314233
0.0320142
0.032984
0.0342335
0.0357128
0.0375338
0.0394435
0.0414606
0.0420212
0.0275356
0.0280109
0.0284504
0.0290361
0.0299252
0.0311655
0.0326734
0.0343689
0.0362103
0.0379834
0.0393189
0.0396898
0.0225864
0.0244553
0.0256335
0.026621
0.0277758
0.029187
0.030802
0.0325408
0.0343085
0.0358886
0.0369195
0.0372234
0.0143217
0.0201967
0.0228414
0.0243804
0.0257795
0.0272821
0.0289053
0.0305968
0.0322564
0.0336553
0.0345436
0.0348342
0.0323833
0.0317255
0.0308923
0.0300126
0.0291339
0.0282483
0.0273053
0.0261958
0.0246739
0.0220125
0.0159537
0.00352835
0.0303829
0.0298348
0.0290876
0.0282549
0.0273843
0.0264697
0.0254568
0.0242227
0.022491
0.0195578
0.013706
0.00245075
0.0285152
0.0280568
0.0273853
0.0265983
0.0257409
0.0248076
0.0237431
0.0224218
0.0205762
0.0176139
0.0122967
0.00200258
0.0267516
0.0263664
0.0257612
0.0250189
0.0241804
0.0232401
0.0221443
0.0207735
0.01889
0.0160237
0.011247
0.00178408
0.0250464
0.024722
0.0241762
0.023479
0.0226662
0.0217319
0.0206259
0.0192403
0.0173743
0.0146615
0.0103511
0.0016277
0.0233284
0.023057
0.0225666
0.0219172
0.0211392
0.0202262
0.0191323
0.017764
0.0159568
0.0134241
0.00951563
0.00149274
0.0214822
0.0212606
0.020826
0.0202311
0.0195012
0.0186285
0.0175724
0.0162541
0.014542
0.01221
0.00867736
0.00136773
0.019319
0.0191486
0.0187754
0.018248
0.017586
0.0167802
0.0157948
0.0145663
0.0129919
0.0108966
0.00776907
0.00124519
0.0165322
0.0164175
0.0161178
0.0156798
0.0151164
0.0144161
0.013549
0.0124676
0.0110956
0.00930978
0.00669013
0.00111646
0.0126436
0.0125881
0.0123796
0.012064
0.0116454
0.0111094
0.0104336
0.00958997
0.00851752
0.00716854
0.005261
0.00096798
0.00702069
0.00701533
0.00691416
0.0067613
0.00654902
0.0062604
0.0058855
0.00542031
0.00479641
0.00405709
0.0031097
0.000779434
0.000751091
0.000746253
0.000733356
0.000715251
0.000691673
0.000662701
0.000627375
0.000582566
0.000525815
0.000454068
0.000360606
0.000164408
0.00366025
0.0209384
0.0288169
0.032507
0.0347761
0.0363379
0.0373794
0.0378775
0.0380261
0.0378042
0.037022
0.0356398
0.0028713
0.0187936
0.0269372
0.0309418
0.0333278
0.034907
0.0358645
0.036317
0.0364222
0.036114
0.0352483
0.033904
0.00254174
0.0173361
0.0251992
0.0292998
0.0317397
0.0333076
0.0342162
0.034637
0.0346938
0.0343213
0.0334442
0.0321647
0.00235066
0.0161287
0.0235547
0.0276107
0.0300507
0.0315892
0.0324606
0.0328642
0.0328729
0.032456
0.0316099
0.0304129
0.00220323
0.0150077
0.0219471
0.0258704
0.0282661
0.0297595
0.0306023
0.0309777
0.0309453
0.0305148
0.0297191
0.028612
0.00207082
0.0138875
0.0203149
0.0240412
0.0263492
0.0277813
0.0285891
0.0289286
0.0288622
0.0284362
0.0277007
0.0266833
0.00193998
0.0127043
0.0185789
0.0220425
0.0242112
0.025557
0.0263094
0.0266062
0.0265114
0.0260975
0.0254171
0.0244944
0.0018022
0.0113775
0.0166186
0.0197249
0.0216827
0.0228956
0.023563
0.0238053
0.0236847
0.0232846
0.0226523
0.0218391
0.00165434
0.00977633
0.0142148
0.0168182
0.018458
0.0194679
0.0200082
0.0201799
0.0200395
0.0196579
0.0190821
0.0184149
0.00148016
0.0077061
0.0109802
0.0128526
0.0140268
0.0147428
0.0151075
0.0152024
0.0150597
0.0147203
0.0142617
0.013776
0.00125819
0.00468085
0.00624728
0.00713839
0.00770922
0.00805605
0.00821643
0.00825913
0.00815436
0.00796226
0.00770662
0.00742909
0.000297171
0.000517225
0.000659319
0.000747391
0.000807352
0.000848027
0.000871987
0.000881767
0.000877731
0.000865422
0.000847106
0.000823962
0.0338932
0.0320505
0.0302699
0.028605
0.0270564
0.0255915
0.0241494
0.0226329
0.0208494
0.0182726
0.0130744
0.00295638
0.0322459
0.0304642
0.0286966
0.0270038
0.0253949
0.0238439
0.0222907
0.0206244
0.0186217
0.0157432
0.0105838
0.00180118
0.0306085
0.0289173
0.0272059
0.0255348
0.0239187
0.0223368
0.0207311
0.0189877
0.0168882
0.0139706
0.00922222
0.0013536
0.0289676
0.0273886
0.0257668
0.0241585
0.0225806
0.0210164
0.0194124
0.0176607
0.0155679
0.0127709
0.00854755
0.00118338
0.0272791
0.0258246
0.0243134
0.0227962
0.0212907
0.0197831
0.0182254
0.0165212
0.0145085
0.011908
0.00817522
0.0011085
0.0254655
0.0241372
0.0227465
0.0213388
0.0199302
0.0185089
0.017033
0.0154179
0.0135307
0.0111496
0.00781904
0.00105612
0.0234006
0.0221944
0.0209307
0.0196472
0.0183566
0.0170482
0.0156845
0.0141924
0.0124619
0.0103057
0.00736365
0.00101691
0.0208879
0.0198063
0.0186825
0.0175443
0.0163984
0.0152338
0.0140167
0.0126835
0.0111443
0.00922863
0.00672335
0.000970445
0.0176332
0.0167052
0.0157532
0.0147984
0.0138387
0.0128619
0.0118386
0.0107134
0.00942001
0.0077874
0.00579655
0.000911773
0.013186
0.012496
0.0117728
0.0110639
0.0103523
0.00962609
0.00886148
0.00801151
0.0070462
0.0057658
0.00437743
0.000828452
0.0071144
0.00678025
0.00641986
0.00604809
0.00567024
0.00528282
0.00487306
0.00440258
0.00389912
0.00314089
0.00244905
0.000708401
0.000795875
0.000764086
0.000729215
0.000692774
0.000655466
0.000616917
0.000576864
0.000533174
0.000485906
0.000422277
0.000359648
0.000220063
0.00318877
0.0153253
0.0201842
0.0223557
0.0239719
0.0255094
0.0270849
0.0286874
0.0302266
0.0314873
0.0322971
0.0325955
0.00230858
0.0129499
0.0180447
0.0205905
0.0223393
0.0238702
0.0253716
0.0268722
0.0282962
0.0294493
0.0302091
0.0305208
0.00188411
0.0113837
0.0163331
0.0190292
0.0208377
0.0223339
0.0237539
0.0251565
0.0264794
0.0275468
0.02827
0.0285943
0.0016313
0.0102065
0.0149047
0.0176079
0.0194112
0.0208534
0.0221954
0.0235138
0.0247545
0.0257545
0.0264491
0.026784
0.00145072
0.00923224
0.0136355
0.0162526
0.0179958
0.0193674
0.0206382
0.0218907
0.0230713
0.0240217
0.0246955
0.0250408
0.00131113
0.00834232
0.0124326
0.0148883
0.0165194
0.0178002
0.0190027
0.0202064
0.0213501
0.0222694
0.0229305
0.0232892
0.00119109
0.00749036
0.011216
0.0134357
0.0148991
0.0160598
0.0171857
0.0183488
0.0194739
0.0203773
0.0210322
0.0214103
0.00107838
0.00663306
0.00989959
0.0117995
0.0130337
0.0140326
0.0150554
0.016166
0.0172753
0.0181652
0.0188109
0.0192136
0.0009638
0.00569395
0.00835949
0.00984559
0.0107875
0.0115731
0.0124421
0.013455
0.0145163
0.0153668
0.0159756
0.0163958
0.000835464
0.00451393
0.00637754
0.00733219
0.00791631
0.00842734
0.00905648
0.00987334
0.0108102
0.0115837
0.0121016
0.0124907
0.000674779
0.00274223
0.0036161
0.00399569
0.00421406
0.0044237
0.0047469
0.00525355
0.0058401
0.00633373
0.00667984
0.00691123
0.000142606
0.000314584
0.000389921
0.000433355
0.000466999
0.000505377
0.000554174
0.000610622
0.000660497
0.000699248
0.000728066
0.000745518
0.0323827
0.0317249
0.0308918
0.0300122
0.0291335
0.0282479
0.027305
0.0261956
0.0246737
0.0220123
0.0159536
0.00352835
0.0303822
0.0298341
0.029087
0.0282544
0.0273838
0.0264692
0.0254564
0.0242224
0.0224907
0.0195575
0.0137059
0.00245074
0.0285144
0.0280561
0.0273846
0.0265976
0.0257403
0.0248071
0.0237426
0.0224214
0.0205757
0.0176135
0.0122964
0.00200255
0.0267506
0.0263655
0.0257604
0.0250182
0.0241798
0.0232395
0.0221437
0.0207729
0.0188894
0.0160232
0.0112466
0.00178403
0.0250454
0.024721
0.0241753
0.0234781
0.0226654
0.0217311
0.0206251
0.0192396
0.0173735
0.0146608
0.0103506
0.00162762
0.0233273
0.0230559
0.0225656
0.0219162
0.0211383
0.0202253
0.0191314
0.0177631
0.0159559
0.0134232
0.00951499
0.00149263
0.0214811
0.0212595
0.020825
0.0202302
0.0195002
0.0186276
0.0175715
0.0162532
0.014541
0.012209
0.00867663
0.00136758
0.0193179
0.0191475
0.0187744
0.0182471
0.0175851
0.0167792
0.0157939
0.0145653
0.012991
0.0108956
0.00776833
0.00124501
0.0165313
0.0164167
0.016117
0.015679
0.0151156
0.0144154
0.0135482
0.0124668
0.0110948
0.00930895
0.00668951
0.00111623
0.0126429
0.0125875
0.0123791
0.0120635
0.0116449
0.0111089
0.0104331
0.00958942
0.00851695
0.00716799
0.00526059
0.000967707
0.00702037
0.00701503
0.00691387
0.00676103
0.00654876
0.00626014
0.00588523
0.00542004
0.00479612
0.00405681
0.00310949
0.000779113
0.000751047
0.00074621
0.000733315
0.00071521
0.000691633
0.00066266
0.000627331
0.000582518
0.00052576
0.000454004
0.000360531
0.000164293
0.00366026
0.0209383
0.0288167
0.0325067
0.0347758
0.0363377
0.0373792
0.0378773
0.038026
0.0378041
0.0370219
0.0356398
0.0028713
0.0187935
0.026937
0.0309416
0.0333275
0.0349067
0.0358643
0.0363168
0.0364221
0.0361139
0.0352482
0.033904
0.00254173
0.0173359
0.025199
0.0292995
0.0317394
0.0333072
0.0342159
0.0346368
0.0346936
0.0343212
0.0334441
0.0321647
0.00235064
0.0161285
0.0235544
0.0276103
0.0300504
0.0315888
0.0324603
0.032864
0.0328726
0.0324559
0.0316098
0.0304129
0.0022032
0.0150075
0.0219468
0.02587
0.0282658
0.0297591
0.030602
0.0309774
0.030945
0.0305146
0.029719
0.028612
0.00207079
0.0138873
0.0203145
0.0240408
0.0263488
0.0277809
0.0285887
0.0289283
0.0288619
0.028436
0.0277005
0.0266832
0.00193995
0.012704
0.0185785
0.0220422
0.0242108
0.0255566
0.0263091
0.0266059
0.0265111
0.0260973
0.025417
0.0244943
0.00180216
0.0113773
0.0166183
0.0197245
0.0216823
0.0228953
0.0235627
0.023805
0.0236844
0.0232844
0.0226522
0.021839
0.0016543
0.00977614
0.0142146
0.016818
0.0184577
0.0194677
0.0200079
0.0201796
0.0200393
0.0196578
0.019082
0.0184148
0.00148012
0.00770595
0.01098
0.0128524
0.0140266
0.0147426
0.0151073
0.0152023
0.0150595
0.0147202
0.0142616
0.013776
0.00125816
0.00468076
0.00624718
0.00713828
0.00770911
0.00805594
0.00821633
0.00825905
0.00815429
0.0079622
0.00770657
0.00742907
0.000297162
0.000517211
0.000659304
0.000747376
0.000807337
0.000848013
0.000871973
0.000881755
0.000877719
0.000865412
0.000847098
0.000823957
0.0338933
0.0320507
0.0302702
0.0286053
0.0270568
0.0255919
0.0241499
0.0226335
0.02085
0.0182731
0.0130748
0.00295642
0.032246
0.0304643
0.0286968
0.0270041
0.0253954
0.0238444
0.0222914
0.0206252
0.0186225
0.0157441
0.0105845
0.00180131
0.0306086
0.0289175
0.0272062
0.0255352
0.0239193
0.0223374
0.0207319
0.0189887
0.0168893
0.0139718
0.00922321
0.00135384
0.0289677
0.0273887
0.0257671
0.0241589
0.0225812
0.0210172
0.0194134
0.0176619
0.0155693
0.0127724
0.00854883
0.0011837
0.0272791
0.0258248
0.0243137
0.0227967
0.0212913
0.0197839
0.0182265
0.0165226
0.0145101
0.0119098
0.00817659
0.00110887
0.0254656
0.0241374
0.0227468
0.0213393
0.0199308
0.0185098
0.0170341
0.0154194
0.0135324
0.0111515
0.0078204
0.00105652
0.0234006
0.0221945
0.020931
0.0196476
0.0183572
0.017049
0.0156856
0.0141938