/*--------------------------------*- C++ -*----------------------------------*\
| =========                 |                                                 |
| \\      /  F ield         | OpenFOAM: The Open Source CFD Toolbox           |
|  \\    /   O peration     | Version:  2212                                  |
|   \\  /    A nd           | Website:  www.openfoam.com                      |
|    \\/     M anipulation  |                                                 |
\*---------------------------------------------------------------------------*/
FoamFile
{
    version     2.0;
    format      ascii;
    arch        "LSB;label=32;scalar=64";
    class       volScalarField;
    location    "0.03";
    object      epsilon;
}
// * * * * * * * * * * * * * * * * * * * * * * * * * * * * * * * * * * * * * //

dimensions      [0 2 -3 0 0 0 0];

internalField   nonuniform List<scalar> 
3072
(
3927.79
3279.98
3626.87
3571.91
3177.01
2831.17
3747.61
16780
49128.2
67024.2
76117.5
83889.2
10794.5
8935.68
6925.22
6718.31
9568.2
23247.2
33821.3
36476.8
49297.2
54757.8
57315.5
59162
16159.1
12279.1
14559.9
20636.6
26551.7
28566.6
32850.8
37765.6
43532.4
45563.4
47848.5
49445.1
22231.3
17908.6
20139.1
21749.7
25012.9
27851.3
32785
37186.6
40242.4
41980.5
43703.1
44988.6
24474.6
20669.6
21953.8
21974.4
24902.7
28427.2
33134.6
36733.9
38979.7
40458.3
41800.1
42849.4
25035.8
20876.5
21942.7
22318.4
25535.9
29666.6
33828.8
36748.3
38486.1
39729.6
40857.9
41846.5
23529.5
19157.4
20934.4
22800.1
26813
31080.9
34807.7
37308.6
38906.6
40095.5
41171
42175.4
22527.3
17407.5
20686.6
24459.2
29675.1
34123.7
37498.4
39711.4
41186.5
42317.5
43349.3
44368.4
22558.4
17759.2
23482.8
30351.2
37253.2
42005.4
45019
46768.2
47824.4
48580.9
49246.5
49940.8
24602.8
22345.6
36185.7
47991.7
56535
60949.2
62639.7
62757.8
62221.5
61495.3
60811.2
60306.7
29559
43057.2
72671.7
89926.7
96999.1
97196.1
94108.6
89842.6
85487.6
81524.8
78136.2
75354.2
133059
136025
151332
155322
151331
141569
131011
120981
111990
104201
97616.7
92125.4
88059.7
90676.5
90886.7
90764.8
88430
83601.4
76391.5
66773.3
54818.3
41802.8
27052.6
34646.8
60343.4
61226.4
61550.4
61664.4
61878.1
63043.1
65824.4
70578.5
76924.5
84592.3
89545.9
108689
50429.4
50999.7
51252.9
51516.7
52250.2
54170.9
57986
64590.1
75265.2
91395
115165
165357
45874.4
46488.2
46929.8
47407.1
48348.1
50375.9
54316.8
61312.4
73230.5
93549.3
130912
209353
43649.1
44282.3
44807.3
45433.8
46533.6
48655.6
52621.2
59655.7
71937
94165.4
140029
244773
42706
43461.6
44163.2
44986.3
46237.9
48426.9
52365
59355.1
71762.9
94737.7
145949
278023
43128.3
44047.8
44974.7
46026.1
47439.5
49669
53492.9
60246.9
72452.2
95581.3
149552
309554
45401.6
46456.3
47549.3
48740.4
50223.7
52394.4
55987
62357.9
74185.8
97291.2
153071
348196
50703.6
51542.7
52457.7
53497.7
54804.5
56698.8
59846.6
65594.9
76764.2
99549.5
156881
392066
60025.1
59995.7
60172
60580.2
61303.8
62585.2
64996.7
69794.5
79861.4
101665
160223
438440
73139.3
71454
70236
69453.2
69227.3
69681.9
71037.8
74486.2
82794.1
103143
163418
493525
87589.9
83923.2
81011.7
78768.5
77163.2
76357.9
76690.5
78466
84309.1
102354
164538
567396
3237.73
2740.61
3099.64
3051.18
2792.79
2388.83
2795.09
8946.69
36995.4
55297.3
63987.2
70934.8
8901.58
7532.75
5821.42
5338.2
7142.78
16580.9
28584.2
30671.7
41227.8
46865.2
49207.6
51186.9
13218.4
9949.84
11051.9
15891.6
23077.1
25139.8
27834.6
31724.5
37091.4
39189.1
41264.9
42942.1
18195.3
14526.1
16617.4
18622.3
21881.3
23582.5
27390.5
31491.4
34622.4
36269.3
37857.8
39121.6
20241.2
16946.1
18422.2
18634.1
20992.8
23915.6
27942.4
31541.4
33792.8
35159.1
36363.5
37335.2
20929.7
17479.6
18460.2
18795.6
21541.4
25118.3
29053.8
31900.9
33678.6
34757.4
35689.2
36510.2
20204.5
16193.6
17665.2
19286.3
22949.4
26900.8
30386.9
32810.1
34264.9
35249.2
36092.9
36877.4
19902
15168.5
17805.6
21209
26132.5
30299.8
33438.4
35469
36686.8
37528.4
38261.3
38992
20347
15849.5
20943.1
27433.5
34021.7
38458.8
41147.3
42573.2
43273.8
43615.8
43928.2
44296.2
22899.8
20633.7
33566.1
44914.8
53137.6
57222.6
58460.4
58137.4
57143.9
55965
54885.2
54044.7
27608
40203.4
68617
85377.7
92094.2
91884.3
88316.9
83623.5
78896.2
74621.5
70987.6
68029.1
122339
128495
144059
147733
143337
133006
122024
111739
102662
94922.7
88474.9
83197.6
75024.9
77518.8
78066.9
78032.5
76835.1
72798.9
67145.8
58962.9
48947.5
37471.2
24370.3
30884.3
52444.2
53379.1
53918.8
54278.3
54872.8
56130.7
58902
63355.4
69372.2
76631.8
81026.5
97937
43999.2
44661.9
45068.5
45467.6
46312.1
48240.7
51926.9
58200.1
68191.2
83155.6
104535
149945
39995.7
40660.8
41161.1
41712.5
42697.3
44702.4
48522.9
55203.4
66446.2
85367
119630
189741
38057.9
38655.7
39170.9
39795.1
40876.8
42933
46743.3
53452.4
65092.8
86007.3
128546
222221
37222.3
37871.7
38498
39261.1
40455.7
42557.5
46331.9
53001.5
64779
86454.5
134244
252559
37627.7
38374.9
39157.5
40088.8
41393.9
43495.4
47123.9
53533
65097
86929.4
137633
281487
39756.7
40570.7
41460.2
42489.2
43831.7
45853.8
49240.6
55260.7
66431.7
88175.4
140545
316508
44756.2
45306
45985.9
46846.6
48013.3
49770.3
52733.3
58159.9
68694.9
90116.4
143940
357879
53482.2
53192
53207.7
53493.6
54138.7
55331.1
57619.5
62181
71723
92427.5
147225
402514
65703.5
63938.1
62684.8
61903.3
61726.5
62238.9
63609.3
66999.4
75098
94459.6
151038
457900
78926.7
75515
72844.4
70840
69480.5
69021.6
69645.2
71748.7
77689.7
95260.5
154440
537728
3927.32
3279.63
3626.6
3571.66
3176.83
2830.97
3747.17
16776.6
49124.8
67021.8
76115.1
83887
10793.3
8934.88
6924.68
6717.77
9567.37
23245.3
33820.2
36475.4
49295.7
54756.4
57314.1
59160.7
16157.5
12278
14558.4
20635.4
26551.5
28566.2
32849.8
37764.3
43531.1
45562.2
47847.2
49443.9
22229.1
17907.1
20138.2
21749.6
25012.7
27850.1
32783.6
37185.2
40241.2
41979.2
43701.9
44987.5
24472.4
20668.2
21953
21973.9
24901.6
28425.9
33133.1
36732.6
38978.5
40457.1
41798.9
42848.3
25033.6
20875.2
21941.7
22317.4
25534.6
29665
33827.3
36747
38484.9
39728.5
40856.8
41845.4
23527.8
19156.3
20933.3
22799
26811.7
31079.6
34806.5
37307.5
38905.5
40094.4
41170
42174.4
22526.2
17406.8
20685.8
24458.3
29674.2
34122.8
37497.5
39710.6
41185.6
42316.6
43348.4
44367.5
22557.8
17758.8
23482.6
30351.1
37253.2
42005.3
45018.8
46767.9
47823.9
48580.4
49245.9
49940.1
24603.2
22346
36186.6
47993
56536.4
60950.5
62640.7
62758.4
62221.8
61495.4
60811.1
60306.5
29560
43058.6
72673.8
89929.4
97002
97198.6
94110.6
89844.2
85488.7
81525.5
78136.7
75354.4
133060
136026
151333
155324
151334
141572
131013
120982
111992
104202
97617.6
92126.1
88057.5
90674.6
90884.9
90763.1
88428.6
83600.1
76390.4
66772.5
54817.7
41802.3
27052.3
34646.4
60342.1
61225.2
61549.2
61663.4
61877.2
63042.3
65823.7
70577.8
76923.7
84591.5
89545
108687
50428.3
50998.6
51251.9
51515.8
52249.4
54170.2
57985.3
64589.4
75264.4
91394.2
115164
165355
45873.3
46487.2
46928.9
47406.3
48347.3
50375.2
54316.1
61311.7
73229.8
93548.5
130910
209351
43648
44281.3
44806.3
45432.9
46532.8
48654.8
52620.5
59655
71936.3
94164.6
140027
244770
42704.9
43460.6
44162.3
44985.5
46237.1
48426.1
52364.3
59354.4
71762.2
94736.8
145948
278021
43127.3
44046.8
44973.8
46025.2
47438.7
49668.2
53492.3
60246.2
72451.5
95580.5
149550
309551
45400.7
46455.5
47548.4
48739.6
50223
52393.7
55986.4
62357.3
74185.1
97290.3
153070
348193
50702.9
51542
52457.1
53497
54803.9
56698.2
59846
65594.3
76763.6
99548.8
156880
392062
60024.7
59995.3
60171.5
60579.7
61303.3
62584.7
64996.3
69794.1
79860.9
101664
160222
438437
73139.4
71453.9
70235.9
69453
69227.1
69681.6
71037.5
74485.9
82793.8
103142
163417
493522
87590.4
83923.5
81011.9
78768.6
77163.3
76357.9
76690.5
78465.9
84309
102354
164538
567392
3237.78
2740.65
3099.67
3051.21
2792.81
2388.85
2795.11
8946.77
36995.6
55297.5
63987.5
70935.1
8901.69
7532.83
5821.46
5338.21
7142.8
16581
28584.3
30671.8
41228
46865.4
49207.8
51187.1
13218.5
9949.91
11052
15891.6
23077.1
25139.9
27834.7
31724.6
37091.6
39189.3
41265
42942.3
18195.5
14526.1
16617.5
18622.3
21881.3
23582.6
27390.6
31491.6
34622.6
36269.4
37857.9
39121.8
20241.4
16946.2
18422.3
18634.2
20992.8
23915.7
27942.6
31541.5
33793
35159.2
36363.7
37335.4
20929.8
17479.7
18460.3
18795.7
21541.5
25118.4
29054
31901.1
33678.8
34757.5
35689.4
36510.4
20204.7
16193.7
17665.3
19286.4
22949.5
26900.9
30387.1
32810.3
34265
35249.3
36093
36877.5
19902.1
15168.5
17805.7
21209.1
26132.6
30299.9
33438.5
35469.1
36686.9
37528.5
38261.4
38992.1
20347.1
15849.6
20943.1
27433.5
34021.7
38458.9
41147.4
42573.2
43273.8
43615.9
43928.2
44296.3
22899.8
20633.7
33566.1
44914.8
53137.5
57222.6
58460.3
58137.4
57143.9
55965
54885.3
54044.7
27608
40203.3
68616.8
85377.4
92093.9
91884
88316.7
83623.3
78896.1
74621.5
70987.6
68029.1
122339
128495
144059
147732
143336
133006
122024
111739
102662
94922.5
88474.8
83197.6
75025.2
77519.2
78067.3
78032.8
76835.4
72799.2
67146.1
58963.1
48947.7
37471.4
24370.4
30884.4
52444.4
53379.3
53919
54278.6
54873.1
56130.9
58902.2
63355.6
69372.5
76632.1
81026.9
97937.5
43999.4
44662.1
45068.7
45467.7
46312.3
48240.9
51927.1
58200.3
68191.5
83156
104536
149945
39995.9
40661
41161.2
41712.7
42697.4
44702.6
48523.1
55203.6
66446.4
85367.4
119631
189742
38058
38655.8
39171
39795.3
40877
42933.2
46743.5
53452.6
65093
86007.7
128547
222222
37222.5
37871.8
38498.1
39261.3
40455.9
42557.7
46332.1
53001.7
64779.3
86454.8
134245
252560
37627.8
38375
39157.6
40088.9
41394.1
43495.6
47124.1
53533.2
65097.2
86929.8
137634
281488
39756.9
40570.8
41460.3
42489.3
43831.9
45854
49240.7
55260.8
66431.9
88175.8
140545
316510
44756.3
45306.1
45986
46846.8
48013.4
49770.4
52733.5
58160
68695.1
90116.8
143940
357881
53482.3
53192
53207.7
53493.7
54138.8
55331.2
57619.7
62181.2
71723.2
92427.8
147226
402516
65703.5
63938.1
62684.8
61903.4
61726.6
62239.1
63609.4
66999.6
75098.2
94459.9
151038
457902
78926.6
75515
72844.4
70840.1
69480.5
69021.7
69645.3
71748.8
77689.8
95260.8
154440
537730
215817
207855
195364
183905
172662
161029
149680
138868
128751
119615
111584
104598
139880
144628
146498
146642
145449
142858
139097
133613
126845
120070
113588
107355
99948.7
104031
107407
110265
112525
114040
114026
112866
110713
107862
104218
99668.8
79066
81928.3
84357.5
86496
88379
89952.5
90918.5
90790.3
89919.3
88335.6
86140.1
83528.7
98586.6
93488.3
89212.4
85674.9
82779.4
80580.6
79411.5
79902.3
82781.6
93222.1
125331
244004
101550
96298.6
91631.6
87512.9
83876.3
80815.9
78375.7
77236.8
77734.5
81553.4
94008.6
127933
95162.6
90745.7
86466.6
82291.7
78305.4
74676.8
71597.9
69345.9
68565.8
69304.7
73811.5
85408.6
80408.5
76841.9
72967.9
68841.2
64988.7
61631.4
59032
57248.2
56773.4
57122.7
59719.8
64708
219461
203482
186811
172880
160192
147815
136152
125385
115666
107156
99859.9
93705.1
135920
136234
134531
132186
129274
125962
121799
116479
110581
104914
99667.9
94934.8
90465
92766.7
93991.9
94864.6
95555.5
96005.1
95826.3
95058.3
93645.5
91898.6
89844.8
87478.9
67731.3
69638
71011.5
72138
73202.3
74291
75205.9
75897.6
75978
75635.8
74897.7
73713.1
88542
84221.7
80616.9
77691.7
75412.8
73871.8
73546.3
74532.9
78103.2
89239.4
121590
233517
90604.1
86653
83086.7
79966.7
77322.8
75296.9
74096.8
74297.7
75970.8
81304.1
95763.6
130841
84712.9
81829
78932.8
76145.7
73569.5
71414.3
69803.9
69327
70139.3
72663.7
79915.1
93974.7
71996.8
69941.9
67575
65070
62656.6
60596.2
59187.7
58801.4
60094.9
62235.1
67402.5
74924.2
215817
207854
195364
183905
172663
161030
149682
138870
128753
119617
111585
104599
139879
144628
146498
146642
145449
142859
139098
133614
126846
120071
113589
107356
99948.4
104031
107407
110264
112524
114040
114026
112866
110714
107862
104218
99669.4
79065.8
81927.9
84357.1
86495.6
88378.6
89952.2
90918.3
90790.3
89919.4
88335.8
86140.3
83529
98587.3
93488.9
89212.8
85675.2
82779.6
80580.8
79411.6
79902.4
82781.6
93222
125331
244003
101551
96299.2
91632.1
87513.3
83876.7
80816.2
78376
77237
77734.7
81553.5
94008.6
127933
95163.1
90746.2
86467.1
82292.2
78305.9
74677.1
71598.2
69346.2
68566.1
69304.9
73811.6
85408.7
80408.9
76842.3
72968.4
68841.7
64989.1
61631.8
59032.3
57248.5
56773.6
57122.9
59720.1
64708.1
219460
203481
186811
172879
160191
147815
136152
125385
115666
107156
99859.8
93705.1
135919
136233
134531
132186
129274
125962
121799
116479
110581
104914
99667.9
94934.8
90465
92766.7
93991.9
94864.5
95555.5
96005.1
95826.3
95058.3
93645.5
91898.6
89844.8
87478.9
67731.4
69638.1
71011.6
72138.1
73202.4
74291
75206
75897.7
75978.1
75635.9
74897.8
73713.2
88542
84221.8
80617
77691.8
75412.9
73871.9
73546.4
74533
78103.4
89239.6
121591
233518
90604.2
86653
83086.8
79966.8
77322.9
75297
74097
74297.9
75970.9
81304.3
95763.9
130841
84713
81829.1
78932.9
76145.7
73569.5
71414.4
69804
69327.1
70139.4
72663.8
79915.3
93974.9
71996.9
69942
67575
65070.1
62656.7
60596.3
59187.7
58801.5
60095
62235.2
67402.6
74924.4
65107.1
66332.3
67409.4
68298.2
68991.7
69369.3
69230.4
68331.4
66815.3
64769.5
62328
59581.2
49820.4
50227.6
50535.2
50722.7
50765
50532.1
49882.6
48721.2
47115
45214.9
43256
41329.8
37118.6
37192.7
37139.4
36983.9
36698.5
36187.3
35357.7
34171.4
32700.6
31181.5
30090.2
29781
27446.7
27405.6
27204.3
26903.4
26483.6
25878.2
25028
23920.3
22636.1
21484.3
21394.5
24417.7
56523.1
53323.4
50389.8
48045.7
46435.5
45597.2
45553.2
46223.8
47695.7
49661.4
52591.6
54792.2
39050.1
36661
35157.5
34570.7
34707.4
35471.9
36771.9
38487.6
40573.6
42733.5
44524.5
45448.4
28540.5
26019.8
25352.9
25769.9
26833.6
28337.5
30156.4
32156.9
34123.8
35673.8
36672.6
36760.5
24600.7
19363.8
18851.2
19691.8
21101.2
22813
24688.2
26558.7
28086.7
29111.6
29541.8
29051.8
55757.2
56379.6
56901.2
57353.6
57809.6
58214.1
58411.8
58282.9
57667.1
56772.1
55652.6
54071.7
45126.8
44694.4
44300.9
43887
43468
42961.4
42251.9
41279.7
40054.4
38820.7
37753.6
36600.8
35707.4
34619.6
33584
32557.6
31536.5
30459.7
29257.7
27923.8
26540.5
25350.5
24732.1
24635.3
27694.6
26295.6
24943.1
23629.3
22351
21070.3
19746.8
18386.6
17067.5
16017.4
15938.6
18170.6
51683.3
48844.7
46347.2
44369.6
43105.1
42810.6
43734.1
46001.7
49754.5
54146.1
59621.7
63477.4
34505
31591.2
29448
28145.9
27740.6
28394.5
30248.5
33343.3
37562.8
42243.3
46533.2
49039.4
23378.3
20184.5
18433.4
17677.6
17770
18777.5
20782.5
23786
27596.5
31643.7
34841.6
36631.9
18249.8
13136.8
11630.6
11243.2
11559.5
12592.9
14399.4
16966.8
20108.2
23335.2
25735.8
27076.5
65106.8
66331.9
67409
68297.9
68991.4
69369.1
69230.3
68331.4
66815.4
64769.7
62328.3
59581.5
49820
50227.2
50534.8
50722.3
50764.7
50532
49882.6
48721.2
47115.2
45215.1
43256.2
41330.1
37118.3
37192.4
37139
36983.5
36698.2
36187.1
35357.6
34171.4
32700.7
31181.6
30090.4
29781.2
27446.3
27405.2
27204
26903.1
26483.3
25878.1
25028
23920.3
22636.1
21484.4
21394.7
24417.8
56523.4
53323.8
50390.2
48046
46435.8
45597.4
45553.4
46224
47695.9
49661.6
52591.8
54792.4
39050.4
36661.3
35157.7
34571
34707.6
35472.1
36772.1
38487.8
40573.7
42733.6
44524.6
45448.6
28540.7
26020
25353
25770.1
26833.7
28337.6
30156.5
32157
34123.9
35673.9
36672.7
36760.6
24600.8
19363.9
18851.3
19691.9
21101.3
22813
24688.3
26558.7
28086.8
29111.7
29541.8
29051.9
55757.3
56379.7
56901.3
57353.7
57809.7
58214.2
58411.9
58283.1
57667.2
56772.2
55652.7
54071.8
45126.9
44694.5
44301
43887.1
43468.1
42961.6
42252
41279.8
40054.6
38820.8
37753.7
36600.9
35707.5
34619.7
33584.2
32557.8
31536.7
30459.9
29257.8
27924
26540.7
25350.6
24732.3
24635.6
27694.7
26295.7
24943.2
23629.5
22351.1
21070.4
19747
18386.7
17067.7
16017.6
15938.8
18170.9
51683.4
48844.8
46347.4
44369.7
43105.3
42810.8
43734.2
46001.9
49754.7
54146.3
59621.9
63477.7
34505.2
31591.4
29448.3
28146.2
27740.9
28394.8
30248.8
33343.5
37563
42243.5
46533.5
49039.7
23378.6
20184.9
18433.8
17678
17770.3
18777.9
20782.8
23786.2
27596.8
31643.9
34841.9
36632.3
18250.3
13137.3
11631.1
11243.6
11559.9
12593.4
14399.7
16967.1
20108.5
23335.4
25736.1
27076.9
20308.4
20240
19998.1
19655.2
19203.2
18597.8
17799.7
16804.4
15672.9
14703.4
15211.1
31402
15089.3
15026.3
14792
14457.7
14024.3
13462.9
12746.8
11871.1
10866.7
9839.5
9032.05
9172.86
11274.9
11226
11017.8
10714.4
10322
9822.53
9197.31
8439.98
7558.25
6564.77
5431.46
4382.54
8478.94
8443.15
8265.44
8000.17
7656.39
7223.06
6687.38
6043.22
5289.13
4415.78
3397.17
2724.92
6422.16
6395.77
6246.66
6019.51
5724.11
5354.27
4901.57
4361.72
3732.88
3010.74
2208.97
1826.8
4906.06
4885.26
4760.58
4567.97
4316.92
4004.43
3625.46
3178.12
2663.4
2086.48
1483.24
1248.48
3790.87
3772.65
3667.6
3504.45
3291.85
3028.89
2712.98
2344.39
1927.15
1472.62
1021.44
853.862
2980.2
2962.38
2872.19
2732.71
2551.63
2329.39
2065.12
1760.47
1421.5
1061.8
717.745
574.69
2413.3
2394.2
2314.01
2191.65
2034.07
1842.62
1617.48
1361.01
1080.04
787.851
513.939
370.536
2072.37
2049.96
1973.67
1859.65
1714.65
1540.98
1339.33
1112.05
866.879
614.604
378.66
216.551
2065.5
2033.96
1948.53
1823.59
1667.58
1484.81
1276.01
1042.4
795.175
542.59
306.022
101.547
3737.18
3664.11
3476.63
3225.08
2916.5
2565.44
2177.07
1743.54
1282.35
825.912
413.566
38.8441
35033
14964.2
14273.5
15266.2
16718.2
18365.6
20076.8
21610.2
22712.8
23348.2
23379.4
22584.2
14736.5
10555.7
10837.4
11923.6
13283.2
14746.4
16191.2
17365.5
18144.1
18485.4
18256.5
17373.4
8949.05
7556.79
8278.92
9352.79
10562.3
11805.9
12961.1
13833.1
14364
14498.2
14138.9
13294.1
6224
5542.11
6366.55
7357.4
8398.95
9424.32
10322.1
10959.3
11304.5
11304.8
10909
10165.8
4524.38
4141.45
4925.03
5800.97
6679.47
7508.47
8197.11
8661.31
8872.24
8795.42
8420.54
7803.22
3329.33
3130.94
3828.13
4584.72
5317.9
5982.54
6511.5
6848.66
6967.5
6856.86
6533.42
6039.35
2434.69
2379.94
2988.05
3637.18
4249.35
4785.24
5195.62
5441.38
5502.71
5387.29
5123.15
4734.95
1742.08
1810.91
2345.89
2908.94
3427.39
3867.87
4193.79
4377.85
4406.29
4300.8
4090.85
3786.25
1206.58
1375.67
1867.29
2372
2826.33
3202.61
3473.18
3618.25
3629.54
3538.37
3369.97
3124.62
776.203
1051.43
1545.06
2031.7
2458.89
2804.65
3047.44
3170.38
3172.43
3092.53
2944.24
2735.02
429.459
863.087
1459.91
2018.71
2492.31
2866.08
3121.8
3235.91
3227.73
3131.35
2971.73
2760.95
232.117
1223.21
2531.18
3685.49
4644.63
5382.14
5851.21
6050.34
5967.67
5720.09
5364.51
4936.79
21177
19716.8
18302.4
16951.4
15664.1
14415.9
13179.8
11952.3
10769.4
9768.21
9724.81
18557.8
16062.1
14698.3
13381.5
12140.8
10979
9878.4
8815.93
7775.56
6751.54
5743.27
4744.36
3659.11
12151.1
10963.8
9822.02
8757.11
7772.74
6855.01
5982.99
5134.49
4286.12
3396.34
2388.18
1358.79
9213.93
8227.37
7281.66
6405.02
5601.23
4859.43
4161.62
3485.8
2808.07
2092.97
1335.01
797.606
7034.38
6238.73
5477.3
4772.97
4129.44
3538.73
2986.61
2454.52
1924.49
1373.84
845.311
578.299
5429.03
4798.68
4194.72
3634.93
3123.19
2654.26
2217.78
1799.33
1387.3
967.369
598.013
442.85
4254.85
3758.93
3281.23
2835.92
2427.32
2052.57
1704.74
1373.01
1050.69
726.423
457.368
351.336
3407.77
3015.49
2633.72
2274.73
1943.45
1638.96
1357.02
1089.45
833.039
576.15
368.813
272.258
2821.31
2503.4
2189.39
1891.1
1614.21
1359.17
1123.69
901.212
691.028
479.793
309.894
201.968
2481.59
2208.57
1933.59
1669.79
1423.96
1197.42
989.08
793.092
610.268
426.147
274.778
135.893
2508.24
2233.69
1953.26
1683
1431.68
1200.75
989.519
791.649
609.21
424.634
272.149
76.3977
4449.01
3937.04
3422.46
2934.97
2486.28
2073.33
1695.53
1339.02
1013.69
665.276
410.995
93.9051
23277.6
8740.39
7437.06
7305.07
7691.59
8611.42
10110.5
12177.2
14654
17146.4
18968.1
19999.4
7700.38
5181.99
4797.67
4859.09
5247.65
6014.87
7208.51
8821.53
10729.7
12631.5
14022.2
14824.9
3665.9
3141.85
3159.77
3318.41
3673.14
4293.02
5223.97
6463.15
7916.22
9360.53
10423.9
11050.4
2092.7
1988.46
2138.13
2327.87
2636.65
3130.8
3850.8
4796.31
5897.02
6991.9
7804.36
8291.72
1299.71
1310.23
1487.46
1675.79
1939
2332.45
2889.5
3610.59
4443.6
5273.22
5892.62
6269.48
850.409
891.915
1061.48
1235.71
1459.14
1774.91
2209.28
2762.16
3394.45
4023.62
4494.95
4784.35
567.019
621.512
774.686
931.789
1122.68
1380.06
1724.02
2153.18
2636.98
3115.91
3474.88
3695.87
375.406
440.144
577.477
718.565
883.798
1098.23
1377.34
1718.05
2094.47
2462.69
2738.51
2907.28
239.759
316.065
441.636
569.606
715.242
899.118
1134.22
1415.81
1718.76
2008.5
2226.48
2357.71
140.041
233.095
354.024
474.823
608.02
773.708
986.089
1238.74
1499.17
1735.46
1919.21
2029.24
66.2833
189.563
321.959
446.968
577.433
739.679
955.587
1222.38
1491.18
1723.13
1908.72
2026.11
25.5332
276.2
526.271
722.541
903.951
1144.75
1507.85
2015.03
2547.89
3020.84
3407.58
3656.33
20308.1
20239.6
19997.8
19654.9
19203
18597.6
17799.7
16804.3
15672.9
14703.4
15211.2
31402.2
15088.9
15026
14791.7
14457.5
14024.1
13462.8
12746.7
11871.1
10866.7
9839.49
9032.04
9172.74
11274.6
11225.7
11017.5
10714.1
10321.8
9822.37
9197.2
8439.91
7558.2
6564.72
5431.38
4382.34
8478.65
8442.86
8265.17
7999.93
7656.19
7222.9
6687.26
6043.12
5289.04
4415.69
3397.05
2724.68
6421.86
6395.48
6246.4
6019.27
5723.9
5354.09
4901.42
4361.59
3732.75
3010.61
2208.82
1826.53
4905.77
4884.98
4760.31
4567.73
4316.71
4004.24
3625.29
3177.96
2663.25
2086.32
1483.06
1248.2
3790.58
3772.36
3667.33
3504.2
3291.63
3028.68
2712.79
2344.21
1926.97
1472.44
1021.24
853.58
2979.9
2962.09
2871.92
2732.45
2551.39
2329.17
2064.91
1760.27
1421.3
1061.6
717.543
574.424
2413
2393.9
2313.73
2191.39
2033.82
1842.38
1617.25
1360.79
1079.83
787.638
513.736
370.3
2072.04
2049.65
1973.37
1859.37
1714.38
1540.73
1339.08
1111.81
866.647
614.381
378.46
216.361
2065.12
2033.6
1948.19
1823.26
1667.27
1484.52
1275.74
1042.13
794.916
542.349
305.822
101.417
3736.49
3663.46
3476.03
3224.51
2915.97
2564.95
2176.6
1743.1
1281.93
825.547
413.297
38.7609
35033.2
14964.2
14273.5
15266.2
16718.2
18365.6
20076.8
21610.2
22712.9
23348.2
23379.5
22584.3
14736.4
10555.7
10837.3
11923.5
13283.2
14746.3
16191.1
17365.5
18144.1
18485.3
18256.5
17373.5
8948.91
7556.73
8278.86
9352.73
10562.3
11805.9
12961
13833.1
14364
14498.2
14138.8
13294.1
6223.84
5542.03
6366.47
7357.31
8398.86
9424.23
10322
10959.2
11304.4
11304.7
10909
10165.8
4524.22
4141.35
4924.94
5800.87
6679.36
7508.37
8197.01
8661.21
8872.15
8795.34
8420.48
7803.18
3329.18
3130.84
3828.03
4584.61
5317.79
5982.43
6511.39
6848.55
6967.4
6856.77
6533.35
6039.31
2434.56
2379.84
2987.95
3637.07
4249.23
4785.12
5195.5
5441.27
5502.6
5387.19
5123.07
4734.9
1741.97
1810.82
2345.79
2908.83
3427.27
3867.74
4193.66
4377.73
4406.19
4300.71
4090.77
3786.2
1206.49
1375.59
1867.2
2371.89
2826.21
3202.48
3473.05
3618.13
3629.43
3538.27
3369.9
3124.57
776.14
1051.36
1544.96
2031.59
2458.76
2804.52
3047.31
3170.25
3172.31
3092.43
2944.16
2734.97
429.421
863.018
1459.81
2018.58
2492.17
2865.93
3121.65
3235.76
3227.6
3131.24
2971.65
2760.89
232.094
1223.11
2531.01
3685.26
4644.36
5381.86
5850.93
6050.08
5967.43
5719.9
5364.35
4936.69
21177.1
19716.8
18302.5
16951.5
15664.3
14416.1
13180
11952.5
10769.6
9768.45
9725.11
18558.5
16062.1
14698.3
13381.6
12140.9
10979.2
9878.58
8816.14
7775.8
6751.8
5743.57
4744.74
3659.9
12151.1
10963.8
9822.1
8757.23
7772.89
6855.2
5983.21
5134.74
4286.4
3396.67
2388.6
1359.52
9213.93
8227.41
7281.73
6405.13
5601.38
4859.62
4161.84
3486.06
2808.37
2093.32
1335.42
798.268
7034.37
6238.76
5477.37
4773.07
4129.58
3538.91
2986.83
2454.78
1924.79
1374.19
845.709
578.884
5429.02
4798.7
4194.77
3635.02
3123.33
2654.44
2217.99
1799.59
1387.59
967.706
598.383
443.369
4254.83
3758.95
3281.28
2836.01
2427.44
2052.73
1704.94
1373.26
1050.97
726.744
457.711
351.782
3407.76
3015.5
2633.77
2274.81
1943.57
1639.12
1357.22
1089.69
833.313
576.455
369.13
272.634
2821.29
2503.4
2189.43
1891.17
1614.32
1359.32
1123.88
901.442
691.293
480.085
310.191
202.27
2481.56
2208.57
1933.63
1669.87
1424.07
1197.57
989.269
793.323
610.532
426.436
275.061
136.118
2508.22
2233.7
1953.31
1683.08
1431.8
1200.91
989.726
791.901
609.493
424.939
272.431
76.5442
4448.98
3937.07
3422.55
2935.11
2486.5
2073.62
1695.88
1339.44
1014.14
665.751
411.363
94.0619
23278.6
8740.91
7437.58
7305.59
7692.09
8611.86
10110.9
12177.5
14654.3
17146.6
18968.4
19999.7
7701.27
5182.55
4798.21
4859.64
5248.18
6015.33
7208.91
8821.87
10730
12631.8
14022.5
14825.3
3666.76
3142.41
3160.33
3318.97
3673.67
4293.5
5224.38
6463.5
7916.53
9360.83
10424.2
11050.7
2093.52
1989.02
2138.69
2328.44
2637.19
3131.29
3851.22
4796.67
5897.34
6992.2
7804.66
8292.02
1300.5
1310.79
1488.02
1676.36
1939.54
2332.93
2889.92
3610.95
4443.92
5273.52
5892.92
6269.78
851.138
892.457
1062.03
1236.27
1459.67
1775.39
2209.7
2762.53
3394.78
4023.92
4495.25
4784.65
567.689
622.037
775.231
932.343
1123.21
1380.54
1724.44
2153.55
2637.31
3116.22
3475.19
3696.17
376.004
440.646
578.01
719.11
884.318
1098.7
1377.75
1718.42
2094.8
2463.01
2738.82
2907.59
240.266
316.54
442.157
570.142
715.756
899.584
1134.63
1416.18
1719.1
2008.82
2226.79
2358.02
140.431
233.54
354.541
475.364
608.541
774.182
986.51
1239.12
1499.52
1735.79
1919.54
2029.57
66.5305
189.999
322.504
447.546
577.99
740.187
956.045
1222.8
1491.57
1723.51
1909.1
2026.48
25.6703
276.816
527.116
723.44
904.815
1145.55
1508.6
2015.72
2548.54
3021.5
3408.25
3657
)
;

boundaryField
{
    rotor
    {
        type            epsilonWallFunction;
        blending        stepwise;
        value           nonuniform List<scalar> 
192
(
3927.79
3279.98
3626.87
3571.91
3177.01
2831.17
3747.61
16780
49128.2
67024.2
76117.5
83889.2
88059.7
90676.5
90886.7
90764.8
88430
83601.4
76391.5
66773.3
54818.3
41802.8
27052.6
34646.8
3237.73
2740.61
3099.64
3051.18
2792.79
2388.83
2795.09
8946.69
36995.4
55297.3
63987.2
70934.8
75024.9
77518.8
78066.9
78032.5
76835.1
72798.9
67145.8
58962.9
48947.5
37471.2
24370.3
30884.3
3927.32
3279.63
3626.6
3571.66
3176.83
2830.97
3747.17
16776.6
49124.8
67021.8
76115.1
83887
88057.5
90674.6
90884.9
90763.1
88428.6
83600.1
76390.4
66772.5
54817.7
41802.3
27052.3
34646.4
3237.78
2740.65
3099.67
3051.21
2792.81
2388.85
2795.11
8946.77
36995.6
55297.5
63987.5
70935.1
75025.2
77519.2
78067.3
78032.8
76835.4
72799.2
67146.1
58963.1
48947.7
37471.4
24370.4
30884.4
3927.79
10794.5
16159.1
22231.3
24474.6
25035.8
23529.5
22527.3
22558.4
24602.8
29559
133059
30884.4
97937.5
149945
189742
222222
252560
281488
316510
357881
402516
457902
537730
3237.73
8901.58
13218.4
18195.3
20241.2
20929.7
20204.5
19902
20347
22899.8
27608
122339
34646.8
108689
165357
209353
244773
278023
309554
348196
392066
438440
493525
567396
3927.32
10793.3
16157.5
22229.1
24472.4
25033.6
23527.8
22526.2
22557.8
24603.2
29560
133060
30884.3
97937
149945
189741
222221
252559
281487
316508
357879
402514
457900
537728
3237.78
8901.69
13218.5
18195.5
20241.4
20929.8
20204.7
19902.1
20347.1
22899.8
27608
122339
34646.4
108687
165355
209351
244770
278021
309551
348193
392062
438437
493522
567392
)
;
    }
    stator
    {
        type            epsilonWallFunction;
        blending        stepwise;
        value           nonuniform List<scalar> 
192
(
3737.18
3664.11
3476.63
3225.08
2916.5
2565.44
2177.07
1743.54
1282.35
825.912
413.566
38.8441
232.117
1223.21
2531.18
3685.49
4644.63
5382.14
5851.21
6050.34
5967.67
5720.09
5364.51
4936.79
4449.01
3937.04
3422.46
2934.97
2486.28
2073.33
1695.53
1339.02
1013.69
665.276
410.995
93.9051
25.5332
276.2
526.271
722.541
903.951
1144.75
1507.85
2015.03
2547.89
3020.84
3407.58
3656.33
3736.49
3663.46
3476.03
3224.51
2915.97
2564.95
2176.6
1743.1
1281.93
825.547
413.297
38.7609
232.094
1223.11
2531.01
3685.26
4644.36
5381.86
5850.93
6050.08
5967.43
5719.9
5364.35
4936.69
4448.98
3937.07
3422.55
2935.11
2486.5
2073.62
1695.88
1339.44
1014.14
665.751
411.363
94.0619
25.6703
276.816
527.116
723.44
904.815
1145.55
1508.6
2015.72
2548.54
3021.5
3408.25
3657
35033
14736.5
8949.05
6224
4524.38
3329.33
2434.69
1742.08
1206.58
776.203
429.459
232.117
31402
9172.86
4382.54
2724.92
1826.8
1248.48
853.862
574.69
370.536
216.551
101.547
38.8441
23277.6
7700.38
3665.9
2092.7
1299.71
850.409
567.019
375.406
239.759
140.041
66.2833
25.5332
18557.8
3659.11
1358.79
797.606
578.299
442.85
351.336
272.258
201.968
135.893
76.3977
93.9051
35033.2
14736.4
8948.91
6223.84
4524.22
3329.18
2434.56
1741.97
1206.49
776.14
429.421
232.094
31402.2
9172.74
4382.34
2724.68
1826.53
1248.2
853.58
574.424
370.3
216.361
101.417
38.7609
23278.6
7701.27
3666.76
2093.52
1300.5
851.138
567.689
376.004
240.266
140.431
66.5305
25.6703
18558.5
3659.9
1359.52
798.268
578.884
443.369
351.782
272.634
202.27
136.118
76.5442
94.0619
)
;
    }
    front
    {
        type            empty;
    }
    back
    {
        type            empty;
    }
}


// ************************************************************************* //
