/*--------------------------------*- C++ -*----------------------------------*\
| =========                 |                                                 |
| \\      /  F ield         | OpenFOAM: The Open Source CFD Toolbox           |
|  \\    /   O peration     | Version:  2212                                  |
|   \\  /    A nd           | Website:  www.openfoam.com                      |
|    \\/     M anipulation  |                                                 |
\*---------------------------------------------------------------------------*/
FoamFile
{
    version     2.0;
    format      ascii;
    arch        "LSB;label=32;scalar=64";
    class       volScalarField;
    location    "0.03";
    object      k;
}
// * * * * * * * * * * * * * * * * * * * * * * * * * * * * * * * * * * * * * //

dimensions      [0 2 -2 0 0 0 0];

internalField   nonuniform List<scalar> 
3072
(
3.59489
4.77125
5.10228
5.05068
4.67132
4.32578
5.21463
14.1641
28.9945
35.6677
38.8251
41.4252
7.59519
11.086
11.3811
10.8757
10.3502
14.9756
24.3826
28.262
40.8533
50.8525
61.6895
71.4616
10.624
17.5631
20.9758
23.1333
24.7073
26.9412
35.9182
46.7322
60.5282
72.2315
82.8658
91.6321
13.9623
25.2782
26.3385
25.8579
29.0646
37.2356
50.0675
62.9637
75.3225
85.7973
94.8938
102.346
15.7366
30.0031
31.302
31.1294
37.6511
49.1231
62.2772
74.6297
85.4934
94.6884
102.637
109.234
16.8165
33.5212
36.6143
38.2413
47.0035
59.1126
71.6395
82.8144
92.3401
100.522
107.677
113.805
16.9222
34.1887
39.5806
44.8393
55.5228
67.7325
79.3604
89.4938
98.1011
105.542
112.113
117.894
17.1857
35.4652
43.7766
53.3232
65.9605
78.0571
88.7785
97.8449
105.48
112.077
117.944
123.209
17.934
38.7563
53.2443
68.2788
82.974
94.719
104.019
111.393
117.413
122.564
127.184
131.428
19.763
47.3442
73.7698
94.6891
110.473
120.869
127.706
132.36
135.788
138.603
141.169
143.655
23.1786
64.9732
109.483
135.321
149.383
156.354
159.252
160.052
159.971
159.639
159.417
159.472
65.4434
115.138
163.142
183.989
191.368
192.854
191.187
188.132
184.676
181.302
178.301
175.789
42.7872
43.6309
43.6984
43.6594
42.9076
41.3311
38.9194
35.5799
31.1952
26.038
19.4809
15.3505
79.8487
86.2528
89.8026
90.6315
89.6078
87.6211
84.7883
80.748
74.0634
60.6239
43.0789
35.4221
98.3229
102.832
105.048
105.54
105.101
104.11
102.78
100.777
96.9943
88.3173
66.1971
50.0837
108.091
112.221
114.782
116.106
116.648
116.878
117.144
117.25
116.206
111.159
92.573
62.2735
114.507
118.548
121.415
123.366
124.81
126.238
128.081
130.335
131.832
130.162
116.023
73.059
118.931
123.098
126.378
129.004
131.368
133.98
137.323
141.546
145.962
147.562
138.676
83.717
122.917
127.21
130.849
134.042
137.159
140.732
145.347
151.356
158.284
163.172
159.185
94.3168
127.923
132.116
135.856
139.319
142.85
146.997
152.483
159.955
169.306
177.399
176.73
106.645
135.35
138.976
142.354
145.616
149.065
153.243
158.996
167.361
178.876
190.484
192.24
120.334
146.099
148.51
150.91
153.372
156.154
159.741
165.013
173.386
186.343
201.933
208.453
134.829
159.779
160.349
161.176
162.249
163.827
166.268
170.341
177.484
190.064
209.353
225.896
151.402
173.773
172.274
171.279
170.821
171.018
171.914
174.116
179.15
189.79
211.217
241.931
172.088
3.16059
4.23282
4.59516
4.54716
4.28684
3.86272
4.289
9.31422
23.9996
31.3758
34.5827
37.0428
6.67934
9.87902
10.2297
9.75237
9.34972
11.4393
20.916
24.196
34.0884
43.9171
53.4449
62.4977
9.29274
15.2364
18.1382
20.4757
23.208
23.7925
30.0744
39.3983
51.6436
62.7166
72.6202
80.962
12.2172
22.3748
23.784
23.5416
25.7238
30.668
41.928
53.881
65.4427
75.3214
83.8623
90.9465
13.8657
26.3072
27.4432
26.8952
31.2475
41.0138
53.347
64.9377
75.2234
83.8415
91.2499
97.4484
14.9241
29.3583
31.6046
32.3664
39.6823
50.8534
62.6245
73.155
82.0612
89.6049
96.1491
101.765
15.288
30.2459
34.4167
38.6941
48.4295
59.8424
70.6935
80.1022
87.9924
94.6908
100.546
105.693
15.8229
32.1592
39.1541
47.9057
59.6359
70.8064
80.5987
88.781
95.5534
101.294
106.335
110.855
16.7417
36.1543
49.281
63.4423
77.1344
87.8279
96.0675
102.414
107.449
111.669
115.391
118.813
18.8397
45.2842
69.734
89.3074
104.047
113.383
119.14
122.739
125.184
127.123
128.819
130.496
22.1464
61.7159
103.639
128.069
141.039
146.946
148.792
148.639
147.705
146.656
145.804
145.302
61.879
108.787
154.413
173.775
179.739
179.967
177.282
173.485
169.523
165.851
162.701
160.17
38.4536
39.3012
39.4863
39.4747
39.07
37.6895
35.7123
32.7485
28.9263
24.2068
18.1711
14.2182
70.5423
76.7578
80.4928
81.6976
81.0062
79.463
77.1576
73.7598
67.8901
55.8879
39.9793
33.0461
87.4894
91.9623
94.3801
95.1756
95.038
94.4515
93.5869
92.1405
89.0597
81.4297
61.2233
46.9214
96.4728
100.532
103.173
104.683
105.487
106.052
106.737
107.348
106.934
102.839
85.9279
58.3213
102.415
106.286
109.112
111.131
112.733
114.399
116.572
119.267
121.252
120.44
107.882
68.4998
106.48
110.369
113.495
116.074
118.48
121.218
124.773
129.316
134.229
136.567
129.245
78.524
110.192
114.097
117.476
120.518
123.578
127.172
131.882
138.078
145.367
150.958
148.584
88.526
114.943
118.657
122.054
125.294
128.696
132.785
138.267
145.795
155.342
164.043
165.183
100.073
122.047
125.155
128.166
131.185
134.484
138.574
144.269
152.588
164.13
176.156
179.749
113.233
132.291
134.262
136.374
138.66
141.345
144.882
150.113
158.425
171.364
187.125
195.327
127.359
145.284
145.645
146.371
147.439
149.066
151.577
155.723
163.076
175.766
195.372
213.046
144.025
158.284
156.99
156.234
156.151
156.686
157.909
160.523
165.911
176.875
198.766
231.038
166.035
3.59461
4.77091
5.10202
5.05044
4.67114
4.32558
5.21423
14.1622
28.9931
35.6669
38.8243
41.4245
7.59466
11.0854
11.3807
10.8754
10.3501
14.9746
24.3816
28.2607
40.8514
50.8508
61.6876
71.4596
10.6233
17.5621
20.9749
23.1331
24.7081
26.9403
35.9164
46.73
60.5258
72.2291
82.8634
91.6298
13.9614
25.2772
26.338
25.8576
29.0641
37.233
50.0648
62.9609
75.3198
85.7946
94.8912
102.344
15.7356
30.0019
31.301
31.1283
37.6485
49.1196
62.274
74.6267
85.4905
94.6856
102.635
109.231
16.8155
33.5195
36.6124
38.2388
47
59.1091
71.6362
82.8113
92.3373
100.519
107.674
113.803
16.9214
34.187
39.5782
44.8362
55.5194
67.7292
79.3574
89.491
98.0984
105.539
112.111
117.892
17.1852
35.4639
43.7747
53.3209
65.9581
78.0547
88.7761
97.8426
105.478
112.075
117.941
123.207
17.9337
38.756
53.2438
68.2784
82.9734
94.7182
104.017
111.392
117.411
122.562
127.182
131.426
19.7632
47.3451
73.7712
94.6905
110.474
120.87
127.706
132.36
135.788
138.602
141.168
143.654
23.1791
64.9751
109.485
135.323
149.385
156.356
159.254
160.053
159.972
159.64
159.417
159.471
65.4435
115.139
163.143
183.991
191.37
192.856
191.189
188.134
184.677
181.303
178.301
175.789
42.7865
43.6303
43.6978
43.6588
42.9072
41.3307
38.919
35.5796
31.1949
26.0378
19.4808
15.3504
79.8469
86.2511
89.8011
90.6302
89.6067
87.6201
84.7874
80.7472
74.0627
60.6234
43.0785
35.4219
98.3207
102.83
105.047
105.538
105.1
104.108
102.779
100.776
96.9935
88.3165
66.1966
50.0834
108.089
112.218
114.78
116.104
116.646
116.877
117.143
117.248
116.205
111.158
92.5724
62.2731
114.505
118.546
121.413
123.364
124.808
126.236
128.079
130.334
131.831
130.161
116.022
73.0586
118.929
123.095
126.376
129.002
131.366
133.979
137.321
141.544
145.96
147.561
138.675
83.7165
122.914
127.208
130.847
134.04
137.157
140.73
145.345
151.354
158.283
163.17
159.184
94.3163
127.921
132.114
135.854
139.317
142.848
146.995
152.481
159.954
169.305
177.397
176.729
106.645
135.349
138.974
142.352
145.614
149.063
153.242
158.995
167.36
178.875
190.482
192.238
120.334
146.098
148.508
150.908
153.371
156.152
159.74
165.011
173.385
186.342
201.931
208.452
134.828
159.778
160.348
161.175
162.248
163.826
166.267
170.34
177.483
190.063
209.352
225.895
151.401
173.773
172.274
171.278
170.821
171.018
171.914
174.115
179.149
189.789
211.216
241.93
172.087
3.16062
4.23286
4.59519
4.54719
4.28686
3.86274
4.28901
9.31428
23.9997
31.3759
34.5828
37.0429
6.67939
9.87908
10.2297
9.75236
9.34972
11.4393
20.9161
24.1961
34.0885
43.9172
53.4451
62.4979
9.29279
15.2364
18.1382
20.4757
23.208
23.7925
30.0745
39.3984
51.6438
62.7168
72.6204
80.9622
12.2172
22.3749
23.784
23.5416
25.7239
30.6681
41.9281
53.8812
65.4429
75.3217
83.8626
90.9467
13.8657
26.3073
27.4432
26.8952
31.2476
41.014
53.3472
64.938
75.2236
83.8418
91.2502
97.4487
14.9242
29.3584
31.6047
32.3665
39.6825
50.8536
62.6247
73.1553
82.0614
89.6051
96.1494
101.765
15.2881
30.246
34.4169
38.6943
48.4297
59.8427
70.6937
80.1025
87.9926
94.6911
100.546
105.693
15.823
32.1593
39.1543
47.906
59.6361
70.8066
80.5989
88.7812
95.5537
101.294
106.335
110.856
16.7418
36.1545
49.2811
63.4424
77.1345
87.828
96.0676
102.414
107.449
111.669
115.391
118.813
18.8397
45.2842
69.734
89.3074
104.047
113.383
119.14
122.739
125.184
127.123
128.819
130.496
22.1464
61.7158
103.639
128.069
141.039
146.946
148.792
148.639
147.705
146.656
145.804
145.302
61.8788
108.786
154.412
173.774
179.739
179.967
177.281
173.485
169.522
165.851
162.701
160.17
38.4537
39.3013
39.4864
39.4748
39.0701
37.6896
35.7124
32.7486
28.9264
24.2069
18.1712
14.2182
70.5425
76.758
80.493
81.6978
81.0064
79.4632
77.1578
73.76
67.8903
55.8881
39.9794
33.0462
87.4897
91.9626
94.3804
95.1759
95.0383
94.4518
93.5872
92.1408
89.06
81.43
61.2235
46.9215
96.473
100.533
103.173
104.683
105.487
106.052
106.737
107.348
106.934
102.84
85.9282
58.3214
102.415
106.286
109.113
111.131
112.733
114.399
116.572
119.267
121.252
120.44
107.883
68.5
106.48
110.369
113.496
116.074
118.481
121.218
124.773
129.316
134.23
136.567
129.246
78.5242
110.192
114.097
117.476
120.519
123.579
127.172
131.882
138.079
145.367
150.958
148.585
88.5262
114.944
118.657
122.055
125.295
128.696
132.786
138.268
145.795
155.342
164.044
165.183
100.073
122.048
125.155
128.166
131.185
134.484
138.575
144.269
152.589
164.131
176.157
179.749
113.234
132.291
134.262
136.375
138.66
141.345
144.882
150.114
158.425
171.364
187.125
195.328
127.36
145.285
145.645
146.371
147.439
149.066
151.577
155.724
163.076
175.767
195.373
213.047
144.025
158.284
156.991
156.234
156.151
156.686
157.91
160.523
165.912
176.876
198.767
231.039
166.036
205.797
206.708
208.919
211.531
212.709
212.032
209.196
205.268
200.83
196.222
191.806
187.74
207.449
203.965
203.779
205.226
207.204
208.063
207.28
205.642
202.825
199.105
195.103
190.951
194.455
193.082
192.338
192.47
193.49
194.609
194.783
194.135
192.631
190.484
187.589
183.956
178.312
178.31
177.842
177.393
177.186
177.071
176.684
175.825
174.331
172.178
169.518
166.363
184.096
180.952
178.324
176.241
174.801
174.386
175.041
177.695
184.541
200.998
235.63
224.553
186.814
182.931
179.414
176.33
173.703
171.756
170.971
171.526
174.767
183.973
208.145
208.457
180.002
176.065
172.225
168.57
165.201
162.331
160.352
159.718
161.107
165.456
179.678
184.572
162.811
159.067
155.275
151.649
148.428
145.857
144.317
144.193
145.871
148.704
157.292
163.236
201.433
196.964
196.52
196.984
196.4
194.235
190.541
186.289
181.909
177.638
173.748
170.385
199.723
191.86
187.968
186.653
186.287
185.78
184.643
183.016
180.73
177.895
175.078
172.392
181.826
177.823
173.85
171.616
170.623
170.512
170.474
170.27
169.697
168.673
167.389
165.864
162.783
160.892
158.754
156.735
155.347
154.812
154.602
154.441
154.129
153.513
152.558
151.201
167.57
165.262
163.4
162.063
161.366
161.663
162.932
166.427
174.332
192.197
230.208
222.235
169.845
167.429
165.153
163.17
161.591
160.974
161.289
163.204
168.254
179.737
207.963
213.318
164.043
161.925
159.549
157.195
155.099
153.784
153.534
154.598
158.56
165.406
183.985
194.948
149.306
146.979
144.42
141.852
139.641
138.517
138.467
139.899
144.646
150.439
163.952
175.18
205.796
206.708
208.919
211.531
212.71
212.033
209.198
205.27
200.831
196.223
191.807
187.74
207.448
203.964
203.778
205.226
207.204
208.063
207.28
205.643
202.826
199.106
195.104
190.951
194.454
193.081
192.337
192.469
193.489
194.608
194.783
194.135
192.632
190.485
187.589
183.956
178.311
178.309
177.841
177.392
177.186
177.071
176.684
175.825
174.331
172.178
169.518
166.363
184.097
180.952
178.324
176.241
174.801
174.386
175.04
177.695
184.54
200.997
235.63
224.552
186.815
182.931
179.414
176.33
173.703
171.756
170.971
171.526
174.767
183.973
208.145
208.456
180.003
176.066
172.226
168.571
165.202
162.331
160.352
159.718
161.107
165.456
179.678
184.572
162.811
159.067
155.275
151.649
148.428
145.858
144.317
144.193
145.871
148.704
157.292
163.236
201.433
196.963
196.519
196.984
196.4
194.235
190.541
186.289
181.909
177.638
173.748
170.385
199.722
191.859
187.967
186.652
186.287
185.78
184.643
183.016
180.73
177.895
175.078
172.392
181.826
177.823
173.85
171.616
170.623
170.512
170.474
170.27
169.697
168.673
167.39
165.865
162.783
160.892
158.754
156.735
155.347
154.813
154.602
154.442
154.129
153.513
152.558
151.201
167.57
165.263
163.4
162.064
161.367
161.664
162.932
166.427
174.333
192.198
230.209
222.235
169.845
167.429
165.154
163.17
161.591
160.974
161.29
163.204
168.255
179.738
207.964
213.319
164.043
161.925
159.549
157.195
155.099
153.784
153.534
154.598
158.56
165.407
183.986
194.949
149.307
146.98
144.421
141.853
139.642
138.518
138.468
139.9
144.647
150.44
163.953
175.181
158.634
157.619
156.37
155.166
154.115
153.008
151.556
149.592
146.948
143.669
139.993
136.262
135.016
133.636
132.011
130.396
128.833
127.128
125.047
122.435
119.149
115.279
111.184
107.549
113.013
111.669
109.964
108.181
106.347
104.306
101.865
98.8773
95.2243
90.989
86.5748
82.9858
94.1292
92.9741
91.3442
89.542
87.6014
85.4016
82.7823
79.599
75.7177
71.0925
65.7983
60.6591
133.079
130.605
128.567
127.377
127.144
127.746
129.482
132.151
135.838
140.143
145.069
147.122
105.485
105.28
105.932
107.593
110.146
113.309
117.046
121.105
125.349
129.042
131.626
131.552
82.2463
84.8258
88.0814
91.9157
96.2516
100.854
105.559
110.075
113.871
116.423
117.537
115.869
60.9417
68.1992
73.7784
79.0249
84.2855
89.4814
94.4473
98.7236
101.767
103.458
103.441
100.744
144.842
142.092
139.663
137.587
136.083
135.038
134.028
132.809
131.279
129.503
127.583
125.339
127.805
124.055
120.745
117.801
115.265
112.948
110.545
107.895
104.994
102.068
99.4227
97.0359
111.377
106.862
102.706
98.8738
95.3466
91.9615
88.5024
84.8705
81.1051
77.4087
74.2353
72.0067
95.9354
90.9895
86.2893
81.873
77.7229
73.7175
69.6978
65.5708
61.316
56.9676
52.7562
49.3662
122.414
119.059
116.181
114.221
113.634
114.946
118.355
123.974
132.17
141.33
152.037
157.919
94.2947
91.0037
88.55
87.4558
88.141
90.9997
96.164
103.543
112.797
122.5
130.8
134.899
70.3014
67.9738
66.5049
66.3686
67.9673
71.6169
77.3953
85.0977
94.1098
103.06
109.675
112.911
49.4636
49.8377
49.8693
50.6552
52.8137
56.7047
62.4091
69.6932
77.895
85.7051
91.1781
93.9087
158.633
157.618
156.369
155.165
154.114
153.008
151.556
149.592
146.948
143.669
139.993
136.263
135.015
133.635
132.01
130.395
128.832
127.127
125.047
122.434
119.149
115.279
111.184
107.549
113.012
111.668
109.963
108.18
106.346
104.305
101.865
98.8771
95.2243
90.9891
86.575
82.9861
94.128
92.9728
91.343
89.541
87.6006
85.4009
82.7819
79.5987
75.7176
71.0926
65.7984
60.6594
133.079
130.605
128.567
127.377
127.144
127.746
129.482
132.152
135.838
140.143
145.069
147.123
105.485
105.281
105.932
107.593
110.146
113.309
117.046
121.105
125.349
129.043
131.626
131.553
82.2466
84.826
88.0815
91.9157
96.2516
100.854
105.559
110.075
113.871
116.423
117.537
115.869
60.942
68.1993
73.7783
79.0248
84.2853
89.4812
94.4471
98.7235
101.767
103.458
103.441
100.745
144.842
142.092
139.663
137.587
136.083
135.038
134.028
132.809
131.28
129.503
127.583
125.339
127.805
124.055
120.745
117.802
115.265
112.948
110.545
107.895
104.995
102.068
99.4232
97.0364
111.378
106.862
102.707
98.8743
95.3472
91.9621
88.5031
84.8711
81.1058
77.4093
74.2359
72.0073
95.9356
90.9898
86.2898
81.8736
77.7236
73.7182
69.6986
65.5717
61.3168
56.9685
52.7569
49.3668
122.415
119.06
116.182
114.222
113.635
114.947
118.356
123.975
132.171
141.331
152.038
157.92
94.2954
91.0048
88.5513
87.4572
88.1425
91.001
96.1652
103.544
112.798
122.501
130.801
134.9
70.3022
67.9751
66.5066
66.3705
67.9692
71.6187
77.3968
85.0991
94.111
103.061
109.676
112.913
49.4645
49.8393
49.8715
50.6576
52.8161
56.7069
62.4109
69.6948
77.8964
85.7064
91.1794
93.9101
78.4139
77.4791
75.9943
74.2578
72.3158
70.0766
67.4033
64.1485
60.1261
55.0077
47.6325
32.1854
65.4711
64.7394
63.4212
61.7952
59.9164
57.7163
55.0762
51.8476
47.8011
42.4176
34.0225
14.499
54.8281
54.265
53.1105
51.6149
49.8375
47.7275
45.1827
42.0622
38.1324
32.8819
24.9917
9.0601
46.0534
45.6218
44.6167
43.2571
41.6022
39.6147
37.2088
34.2602
30.5652
25.7234
18.9037
6.7436
38.7827
38.4496
37.5757
36.3499
34.8278
32.9828
30.745
28.0125
24.6272
20.3185
14.6246
5.27434
32.7146
32.4531
31.6928
30.5947
29.2096
27.5187
25.4671
22.9768
19.9365
16.1859
11.4906
4.17587
27.5963
27.3862
26.724
25.7467
24.4994
22.9691
21.1139
18.8777
16.19
12.9692
9.10632
3.30586
23.2041
23.0312
22.4552
21.5931
20.4837
19.1181
17.4652
15.4866
13.1434
10.4039
7.22329
2.58792
19.3165
19.1721
18.675
17.9257
16.9563
15.7608
14.3163
12.5981
10.5879
8.284
5.67231
1.96777
15.6542
15.5345
15.1155
14.484
13.6647
12.653
11.4322
9.98776
8.31124
6.42066
4.31783
1.40079
11.6459
11.5517
11.2244
10.7378
10.1059
9.32385
8.38111
7.27009
5.9736
4.53867
2.98443
0.860797
5.12388
5.05694
4.88299
4.6446
4.34349
3.98763
3.57437
3.08262
2.51181
1.87343
1.18152
0.244521
34.6208
54.1201
62.0086
68.1108
73.7216
78.9842
83.7573
87.4751
89.8566
90.8411
89.9604
86.7552
19.8883
43.0639
52.2402
58.7274
64.3305
69.3681
73.6777
76.784
78.6022
79.0045
77.5708
74.2181
14.5824
34.9962
44.1628
50.6145
55.9824
60.6307
64.3889
66.9291
68.2593
68.2111
66.4971
63.2376
11.6956
28.9087
37.4437
43.5798
48.5761
52.7568
55.9697
58.03
58.9465
58.5746
56.7878
53.7736
9.65436
24.1071
31.7906
37.4586
42.0148
45.7077
48.43
50.088
50.6693
50.0991
48.3784
45.6975
8.02947
20.1642
26.9665
32.1035
36.1968
39.4219
41.7221
43.0429
43.3661
42.7032
41.1426
38.8245
6.64638
16.8157
22.785
27.3812
31.0174
33.8178
35.7535
36.7959
36.9376
36.2627
34.8995
32.9376
5.41916
13.8821
19.095
23.1651
26.363
28.7787
30.4006
31.2204
31.2428
30.6054
29.4416
27.8119
4.3214
11.2166
15.7569
19.3166
22.0893
24.1485
25.4947
26.1334
26.0834
25.5078
24.5265
23.2006
3.27886
8.70673
12.5979
15.629
17.9617
19.6665
20.7522
21.2333
21.1404
20.6362
19.8194
18.7744
2.2489
6.14861
9.23759
11.6109
13.4069
14.6968
15.4904
15.812
15.6916
15.2725
14.6375
13.8526
0.803661
2.43356
3.95187
5.07679
5.92327
6.53479
6.90917
7.06503
7.00051
6.80552
6.52046
6.16908
81.9288
76.8785
71.9866
67.3498
62.9684
58.7525
54.5744
50.3156
45.8432
40.8758
34.5014
22.6653
69.599
64.7164
59.9343
55.3815
51.0748
46.9469
42.8841
38.7421
34.3057
29.0948
21.6838
7.85724
58.9803
54.4575
49.9979
45.7392
41.708
37.8531
34.0708
30.2083
26.0313
21.0777
14.3616
4.15102
49.9653
45.9118
41.8962
38.0491
34.4018
30.9149
27.4974
24.0053
20.2304
15.8204
10.3378
2.97372
42.3668
38.8223
35.2972
31.9066
28.6824
25.5959
22.5712
19.4833
16.1682
12.3772
8.04512
2.4507
35.962
32.9174
29.8777
26.9396
24.1342
21.442
18.8033
16.115
13.2569
10.05
6.61776
2.0933
30.5189
27.937
25.3484
22.8327
20.4192
18.0964
15.8196
13.5061
11.0721
8.37291
5.61644
1.82956
25.8049
23.638
21.4559
19.3238
17.269
15.2859
13.3428
11.3733
9.3231
7.05636
4.81924
1.57332
21.5732
19.7799
17.9635
16.1817
14.4579
12.7907
11.1584
9.50694
7.80682
5.91518
4.10181
1.31349
17.4965
16.0686
14.5939
13.1476
11.7448
10.3861
9.05729
7.71226
6.34509
4.79683
3.35649
1.027
12.9208
11.9035
10.8316
9.75921
8.71573
7.70481
6.71805
5.71194
4.71594
3.53411
2.49856
0.712063
5.75573
5.30523
4.83227
4.36177
3.90509
3.45979
3.02564
2.58517
2.14746
1.62197
1.17664
0.439997
26.3612
35.414
37.4897
39.1021
41.5463
45.3451
50.6243
57.1729
64.3728
71.0627
75.6911
78.0737
12.902
25.0677
28.4722
30.6074
33.1291
36.6608
41.3733
47.0984
53.2966
58.9879
62.9413
65.046
8.04277
18.3018
21.9845
24.3172
26.7703
29.9599
34.0804
39.007
44.2858
49.1127
52.4985
54.3579
5.65475
13.7875
17.2766
19.5926
21.8918
24.7234
28.2851
32.4879
36.9577
41.0433
43.9392
45.5725
4.20284
10.6449
13.7835
15.9716
18.0768
20.566
23.6271
27.198
30.9725
34.4245
36.8936
38.317
3.2322
8.34923
11.1188
13.1274
15.0248
17.1998
19.8248
22.8559
26.0416
28.9535
31.0503
32.2812
2.51574
6.60455
9.02252
10.8294
12.5167
14.4064
16.655
19.2302
21.9216
24.3732
26.1468
27.2044
1.94789
5.23055
7.31884
8.91251
10.3874
12.0134
13.9337
16.1239
18.4015
20.4589
21.9521
22.8574
1.47177
4.10688
5.88177
7.24872
8.50156
9.87179
11.4949
13.3538
15.2809
16.9939
18.2415
19.0151
1.04732
3.14038
4.5999
5.71156
6.71505
7.81467
9.14449
10.7002
12.3158
13.7153
14.7406
15.3977
0.647582
2.20743
3.30328
4.09096
4.77473
5.53612
6.51737
7.7537
9.02828
10.1058
10.9218
11.4449
0.18478
0.902535
1.38689
1.71304
1.98884
2.32794
2.79736
3.39404
3.96888
4.44606
4.81793
5.04968
78.4125
77.4778
75.9931
74.2568
72.3149
70.0759
67.4028
64.1481
60.1259
55.0076
47.6324
32.1855
65.4697
64.738
63.4199
61.794
59.9155
57.7156
55.0756
51.8472
47.8008
42.4173
34.0223
14.4989
54.8266
54.2636
53.1091
51.6137
49.8365
47.7266
45.182
42.0616
38.1319
32.8815
24.9913
9.05981
46.0518
45.6203
44.6153
43.2558
41.601
39.6137
37.2079
34.2594
30.5645
25.7227
18.903
6.7432
38.781
38.448
37.5742
36.3485
34.8265
32.9817
30.7439
28.0116
24.6262
20.3176
14.6237
5.27383
32.7129
32.4515
31.6912
30.5932
29.2082
27.5175
25.4659
22.9757
19.9354
16.1848
11.4896
4.17525
27.5945
27.3844
26.7223
25.7452
24.4979
22.9678
21.1126
18.8764
16.1887
12.9678
9.10507
3.30514
23.2022
23.0295
22.4536
21.5916
20.4822
19.1167
17.4638
15.4852
13.1419
10.4024
7.22193
2.58713
19.3148
19.1704
18.6734
17.9242
16.9548
15.7594
14.3148
12.5967
10.5864
8.28251
5.67093
1.96694
15.6526
15.5329
15.114
14.4826
13.6633
12.6516
11.4309
9.98641
8.30985
6.41926
4.31652
1.39998
11.6446
11.5504
11.2232
10.7367
10.1048
9.32276
8.38002
7.26898
5.97245
4.53751
2.98336
0.86007
5.12326
5.05635
4.88244
4.64406
4.34297
3.98712
3.57386
3.0821
2.51128
1.87288
1.18101
0.244174
34.6209
54.12
62.0085
68.1106
73.7214
78.984
83.7571
87.4749
89.8565
90.841
89.9604
86.7552
19.8882
43.0637
52.24
58.7271
64.3302
69.3678
73.6773
76.7837
78.602
79.0044
77.5707
74.2181
14.5823
34.9959
44.1624
50.6141
55.9819
60.6302
64.3885
66.9287
68.259
68.2108
66.497
63.2376
11.6954
28.9084
37.4433
43.5793
48.5755
52.7562
55.9692
58.0296
58.9461
58.5743
56.7876
53.7735
9.65414
24.1066
31.79
37.458
42.0142
45.7071
48.4294
50.0874
50.6688
50.0988
48.3781
45.6973
8.02923
20.1638
26.9659
32.1029
36.1962
39.4213
41.7214
43.0424
43.3656
42.7027
41.1423
38.8243
6.64614
16.8152
22.7844
27.3805
31.0168
33.8171
35.7529
36.7953
36.937
36.2623
34.8992
32.9373
5.41893
13.8816
19.0944
23.1645
26.3623
28.778
30.4
31.2198
31.2423
30.605
29.4413
27.8116
4.32119
11.2161
15.7564
19.316
22.0887
24.1479
25.4941
26.1329
26.0829
25.5073
24.5262
23.2004
3.27869
8.70635
12.5974
15.6285
17.9611
19.6659
20.7516
21.2328
21.14
20.6358
19.8191
18.7742
2.24877
6.14831
9.23719
11.6105
13.4064
14.6964
15.49
15.8116
15.6912
15.2722
14.6372
13.8524
0.80361
2.43342
3.95169
5.07658
5.92304
6.53456
6.90894
7.06483
7.00033
6.80536
6.52034
6.169
81.929
76.8789
71.9871
67.3504
62.9692
58.7533
54.5754
50.3167
45.8443
40.8769
34.5024
22.6659
69.5992
64.7167
59.9347
55.3822
51.0756
46.9479
42.8852
38.7434
34.3071
29.0963
21.6853
7.85836
58.9804
54.4578
49.9984
45.7398
41.7089
37.8542
34.0722
30.2098
26.033
21.0796
14.3636
4.1525
49.9653
45.912
41.8966
38.0497
34.4027
30.916
27.4988
24.007
20.2323
15.8226
10.3402
2.97535
42.3669
38.8225
35.2976
31.9072
28.6833
25.5971
22.5727
19.4851
16.1703
12.3797
8.04769
2.45234
35.962
32.9176
29.8781
26.9402
24.1351
21.4432
18.8048
16.1169
13.2592
10.0526
6.62038
2.09492
30.5188
27.9372
25.3488
22.8333
20.4201
18.0975
15.8211
13.5079
11.0743
8.37551
5.61903
1.83109
25.8048
23.6381
21.4562
19.3244
17.2698
15.287
13.3442
11.3751
9.32527
7.05886
4.82172
1.57476
21.5732
19.78
17.9638
16.1822
14.4587
12.7917
11.1598
9.50862
7.80883
5.9175
4.10411
1.31478
17.4965
16.0687
14.5941
13.1481
11.7455
10.3869
9.05846
7.71374
6.34685
4.79887
3.35851
1.02813
12.9208
11.9036
10.8318
9.75955
8.71624
7.70551
6.71896
5.71313
4.71733
3.53571
2.50009
0.712966
5.75569
5.30525
4.83235
4.36191
3.90531
3.4601
3.02605
2.58571
2.1481
1.62273
1.17734
0.440483
26.362
35.416
37.4924
39.105
41.549
45.3476
50.6264
57.1748
64.3744
71.0641
75.6925
78.0752
12.9029
25.0702
28.4753
30.6107
33.1323
36.6636
41.3757
47.1004
53.2983
58.9895
62.9428
65.0476
8.044
18.3046
21.988
24.3209
26.7739
29.963
34.0831
39.0092
44.2877
49.1144
52.5001
54.3595
5.65622
13.7906
17.2804
19.5966
21.8957
24.7268
28.288
32.4903
36.9598
41.0451
43.9409
45.5742
4.20452
10.6484
13.7877
15.976
18.0809
20.5696
23.6302
27.2005
30.9747
34.4265
36.8954
38.3188
3.23403
8.35296
11.1232
13.1319
15.029
17.2035
19.8279
22.8585
26.0438
28.9555
31.0522
32.2831
2.5177
6.60843
9.02702
10.834
12.5209
14.4101
16.6581
19.2329
21.9239
24.3753
26.1487
27.2063
1.94994
5.23446
7.32333
8.91701
10.3916
12.017
13.9367
16.1265
18.4037
20.461
21.954
22.8593
1.47383
4.11068
5.8861
7.25301
8.50548
9.87518
11.4978
13.3562
15.283
16.9958
18.2434
19.0169
1.04925
3.14386
4.60383
5.71541
6.71854
7.81768
9.14702
10.7024
12.3177
13.7171
14.7422
15.3993
0.649181
2.21028
3.30647
4.09404
4.77748
5.53848
6.51936
7.7554
9.02977
10.1072
10.9231
11.4462
0.185438
0.903866
1.38836
1.71445
1.9901
2.32902
2.79828
3.39481
3.96955
4.4467
4.81855
5.05029
)
;

boundaryField
{
    rotor
    {
        type            kqRWallFunction;
        value           nonuniform List<scalar> 
192
(
3.59489
4.77125
5.10228
5.05068
4.67132
4.32578
5.21463
14.1641
28.9945
35.6677
38.8251
41.4252
42.7872
43.6309
43.6984
43.6594
42.9076
41.3311
38.9194
35.5799
31.1952
26.038
19.4809
15.3505
3.16059
4.23282
4.59516
4.54716
4.28684
3.86272
4.289
9.31422
23.9996
31.3758
34.5827
37.0428
38.4536
39.3012
39.4863
39.4747
39.07
37.6895
35.7123
32.7485
28.9263
24.2068
18.1711
14.2182
3.59461
4.77091
5.10202
5.05044
4.67114
4.32558
5.21423
14.1622
28.9931
35.6669
38.8243
41.4245
42.7865
43.6303
43.6978
43.6588
42.9072
41.3307
38.919
35.5796
31.1949
26.0378
19.4808
15.3504
3.16062
4.23286
4.59519
4.54719
4.28686
3.86274
4.28901
9.31428
23.9997
31.3759
34.5828
37.0429
38.4537
39.3013
39.4864
39.4748
39.0701
37.6896
35.7124
32.7486
28.9264
24.2069
18.1712
14.2182
3.59489
7.59519
10.624
13.9623
15.7366
16.8165
16.9222
17.1857
17.934
19.763
23.1786
65.4434
14.2182
33.0462
46.9215
58.3214
68.5
78.5242
88.5262
100.073
113.234
127.36
144.025
166.036
3.16059
6.67934
9.29274
12.2172
13.8657
14.9241
15.288
15.8229
16.7417
18.8397
22.1464
61.879
15.3505
35.4221
50.0837
62.2735
73.059
83.717
94.3168
106.645
120.334
134.829
151.402
172.088
3.59461
7.59466
10.6233
13.9614
15.7356
16.8155
16.9214
17.1852
17.9337
19.7632
23.1791
65.4435
14.2182
33.0461
46.9214
58.3213
68.4998
78.524
88.526
100.073
113.233
127.359
144.025
166.035
3.16062
6.67939
9.29279
12.2172
13.8657
14.9242
15.2881
15.823
16.7418
18.8397
22.1464
61.8788
15.3504
35.4219
50.0834
62.2731
73.0586
83.7165
94.3163
106.645
120.334
134.828
151.401
172.087
)
;
    }
    stator
    {
        type            kqRWallFunction;
        value           nonuniform List<scalar> 
192
(
5.12388
5.05694
4.88299
4.6446
4.34349
3.98763
3.57437
3.08262
2.51181
1.87343
1.18152
0.244521
0.803661
2.43356
3.95187
5.07679
5.92327
6.53479
6.90917
7.06503
7.00051
6.80552
6.52046
6.16908
5.75573
5.30523
4.83227
4.36177
3.90509
3.45979
3.02564
2.58517
2.14746
1.62197
1.17664
0.439997
0.18478
0.902535
1.38689
1.71304
1.98884
2.32794
2.79736
3.39404
3.96888
4.44606
4.81793
5.04968
5.12326
5.05635
4.88244
4.64406
4.34297
3.98712
3.57386
3.0821
2.51128
1.87288
1.18101
0.244174
0.80361
2.43342
3.95169
5.07658
5.92304
6.53456
6.90894
7.06483
7.00033
6.80536
6.52034
6.169
5.75569
5.30525
4.83235
4.36191
3.90531
3.4601
3.02605
2.58571
2.1481
1.62273
1.17734
0.440483
0.185438
0.903866
1.38836
1.71445
1.9901
2.32902
2.79828
3.39481
3.96955
4.4467
4.81855
5.05029
34.6208
19.8883
14.5824
11.6956
9.65436
8.02947
6.64638
5.41916
4.3214
3.27886
2.2489
0.803661
32.1854
14.499
9.0601
6.7436
5.27434
4.17587
3.30586
2.58792
1.96777
1.40079
0.860797
0.244521
26.3612
12.902
8.04277
5.65475
4.20284
3.2322
2.51574
1.94789
1.47177
1.04732
0.647582
0.18478
22.6653
7.85724
4.15102
2.97372
2.4507
2.0933
1.82956
1.57332
1.31349
1.027
0.712063
0.439997
34.6209
19.8882
14.5823
11.6954
9.65414
8.02923
6.64614
5.41893
4.32119
3.27869
2.24877
0.80361
32.1855
14.4989
9.05981
6.7432
5.27383
4.17525
3.30514
2.58713
1.96694
1.39998
0.86007
0.244174
26.362
12.9029
8.044
5.65622
4.20452
3.23403
2.5177
1.94994
1.47383
1.04925
0.649181
0.185438
22.6659
7.85836
4.1525
2.97535
2.45234
2.09492
1.83109
1.57476
1.31478
1.02813
0.712966
0.440483
)
;
    }
    front
    {
        type            empty;
    }
    back
    {
        type            empty;
    }
}


// ************************************************************************* //
