/*--------------------------------*- C++ -*----------------------------------*\
| =========                 |                                                 |
| \\      /  F ield         | OpenFOAM: The Open Source CFD Toolbox           |
|  \\    /   O peration     | Version:  2212                                  |
|   \\  /    A nd           | Website:  www.openfoam.com                      |
|    \\/     M anipulation  |                                                 |
\*---------------------------------------------------------------------------*/
FoamFile
{
    version     2.0;
    format      ascii;
    arch        "LSB;label=32;scalar=64";
    class       volScalarField;
    location    "0.03";
    object      nut;
}
// * * * * * * * * * * * * * * * * * * * * * * * * * * * * * * * * * * * * * //

dimensions      [0 2 -1 0 0 0 0];

internalField   nonuniform List<scalar> 
3072
(
0.000296119
0.000624648
0.00064601
0.000642749
0.000618162
0.000594847
0.000653033
0.00107604
0.00154008
0.00170829
0.00178231
0.00184105
0.000480971
0.00123784
0.00168337
0.00158451
0.00100766
0.000868246
0.00158202
0.00197075
0.00304701
0.00425031
0.00597576
0.00776864
0.000628639
0.00226089
0.00271971
0.00233388
0.0020692
0.00228675
0.00353448
0.00520448
0.00757434
0.0103057
0.0129159
0.0152832
0.000789212
0.00321124
0.00310017
0.00276678
0.00303955
0.00448038
0.00688144
0.00959482
0.0126884
0.0157813
0.0185441
0.0209548
0.000910641
0.00391959
0.00401678
0.00396889
0.00512333
0.00763975
0.0105346
0.0136458
0.016876
0.0199447
0.0226818
0.0250618
0.0010166
0.00484422
0.00549863
0.00589718
0.00778666
0.0106007
0.0136541
0.0167964
0.0199398
0.0228901
0.0255396
0.0278554
0.00109532
0.00549126
0.00673515
0.00793641
0.0103476
0.0132844
0.0162845
0.0193206
0.0222622
0.0250031
0.0274768
0.0296598
0.00117996
0.00650297
0.00833756
0.0104624
0.0131953
0.0160698
0.0189167
0.0216972
0.0243124
0.0267149
0.0288808
0.0307932
0.00128318
0.00761211
0.0108652
0.0138242
0.0166327
0.0192226
0.0216306
0.0238785
0.0259431
0.0278292
0.0295617
0.0311286
0.00142877
0.00902783
0.0135351
0.0168142
0.0194283
0.0215727
0.0234322
0.0251239
0.0266703
0.0281154
0.0294943
0.0307979
0.0016358
0.008824
0.0148447
0.0183266
0.020705
0.0226367
0.024254
0.0256616
0.0269417
0.0281341
0.0292726
0.0303741
0.00289687
0.00877128
0.0158286
0.0196153
0.0217797
0.0236446
0.0251103
0.0263302
0.0274084
0.0283907
0.0293106
0.0301889
0.00187108
0.00188945
0.00189092
0.00189008
0.00187375
0.00183901
0.00178455
0.00170628
0.00159769
0.00145966
0.00126256
0.000612105
0.00950931
0.0109358
0.0117921
0.0119885
0.0116788
0.0109603
0.0098294
0.00831445
0.00641778
0.0039102
0.0018652
0.00103898
0.0172531
0.0186609
0.0193777
0.0194594
0.019027
0.0180077
0.016396
0.0141513
0.0112497
0.00768089
0.00342453
0.00136525
0.0229219
0.0243806
0.0252662
0.025592
0.025329
0.0244054
0.0227378
0.0201798
0.0165963
0.0118875
0.0058916
0.00166714
0.0270355
0.0285628
0.02961
0.0301479
0.0301283
0.0294773
0.0280575
0.0256281
0.0217436
0.0161926
0.0086519
0.00196258
0.029809
0.0313788
0.0325481
0.0332944
0.0335911
0.033361
0.0324107
0.0303794
0.026719
0.0206856
0.0118589
0.00226876
0.0315284
0.0330644
0.0342622
0.0351332
0.0356903
0.0358873
0.0355431
0.0342221
0.031122
0.0250703
0.0152495
0.00258633
0.0324393
0.0338151
0.0349346
0.0358407
0.0365673
0.0371172
0.0373762
0.0369273
0.034775
0.0291119
0.0183642
0.0029397
0.032518
0.0337253
0.0347672
0.0356718
0.0364901
0.0372763
0.038017
0.038431
0.0375136
0.0328034
0.0212011
0.00332401
0.0320041
0.033085
0.0340629
0.0349467
0.0357981
0.0366949
0.0377038
0.0387661
0.039132
0.0360982
0.0244081
0.00373163
0.0314145
0.0323854
0.0332878
0.0341126
0.0348927
0.035706
0.0367614
0.0380616
0.0392684
0.038244
0.0281034
0.00418018
0.0310278
0.0318274
0.0325912
0.0333407
0.0341128
0.0348346
0.0355775
0.0368124
0.0384516
0.0392278
0.0320154
0.0046974
0.000277676
0.000588376
0.000613101
0.000609896
0.000592214
0.000562139
0.000592322
0.000872716
0.00140121
0.00160225
0.00168216
0.00174097
0.000451068
0.00116605
0.00161784
0.0016035
0.00110147
0.000710288
0.00137745
0.00171788
0.00253668
0.00370389
0.00522424
0.00686771
0.000587966
0.00209985
0.00267913
0.0023744
0.00210057
0.00202656
0.0029245
0.00440354
0.00647147
0.0090332
0.0115021
0.0137379
0.000738283
0.0031018
0.00306371
0.00267844
0.00272171
0.00358942
0.0057763
0.00829701
0.0111329
0.014078
0.0167194
0.0190282
0.000854843
0.00367556
0.00367934
0.00349368
0.00418605
0.00633025
0.0091664
0.0120325
0.0150704
0.0179938
0.0206083
0.0228915
0.000957758
0.00443787
0.00486974
0.00501619
0.00657901
0.00926598
0.0121486
0.0150983
0.0179955
0.0207902
0.0233129
0.0255285
0.00104111
0.00508431
0.00603479
0.00698685
0.00919796
0.0119811
0.0148018
0.0176004
0.0203368
0.0228933
0.0252085
0.0272631
0.00113219
0.00613635
0.00774889
0.0097386
0.0122484
0.0148918
0.0174845
0.0200001
0.0223988
0.0246065
0.0265972
0.0283648
0.00123977
0.00742244
0.0104366
0.0132044
0.0157392
0.0180514
0.0201861
0.022173
0.0240116
0.0257316
0.0272797
0.0286815
0.00139495
0.00894454
0.0130386
0.0159819
0.0183359
0.0202194
0.0218522
0.0233214
0.0246814
0.0259879
0.0272113
0.0283585
0.00159888
0.00852654
0.0140883
0.0172897
0.0194398
0.0211503
0.0225609
0.0237782
0.0248871
0.0259405
0.0269526
0.0279312
0.00281685
0.00828907
0.014896
0.0183967
0.0202847
0.0219158
0.0231806
0.0242415
0.0251934
0.0260799
0.0269279
0.0277519
0.00177382
0.00179327
0.0017975
0.00179723
0.00178801
0.00175614
0.00170946
0.00163699
0.0015385
0.00140741
0.00121939
0.000589106
0.00853974
0.00993381
0.0108148
0.0110671
0.0107627
0.0101245
0.0090964
0.00772855
0.00597957
0.00366834
0.00177535
0.00100354
0.015657
0.0170422
0.0177882
0.0179305
0.0175527
0.0166436
0.0151803
0.0131287
0.0104683
0.00717656
0.0032271
0.00132146
0.020943
0.0223707
0.0232748
0.0236442
0.0234552
0.0226436
0.0211313
0.0187873
0.0154884
0.0111499
0.00555481
0.00161338
0.0248042
0.0263014
0.0273544
0.0279308
0.0279812
0.0274343
0.0261645
0.0239506
0.0203277
0.0151791
0.00814862
0.00190036
0.0274141
0.028948
0.0301134
0.0308849
0.0312288
0.0310742
0.0302414
0.0283961
0.0250323
0.0194154
0.011199
0.00219727
0.0290425
0.0305312
0.0317194
0.0326081
0.033204
0.0334641
0.0332179
0.0320533
0.0292155
0.0235932
0.0144366
0.00250568
0.0299089
0.031233
0.0323384
0.0332526
0.0340082
0.0346073
0.0349429
0.0346185
0.0326922
0.027467
0.0174726
0.00284768
0.0299534
0.0311159
0.0321485
0.0330621
0.0339017
0.0347247
0.0355225
0.0360298
0.0352936
0.0309909
0.020202
0.00322445
0.0294506
0.0305003
0.0314582
0.0323474
0.033212
0.0341431
0.0351974
0.036327
0.0368486
0.034096
0.0233231
0.00362679
0.0289129
0.0298588
0.0307602
0.0316047
0.0323988
0.0332235
0.0343107
0.0357232
0.0370242
0.0363681
0.0270462
0.00407707
0.028569
0.0293735
0.0301575
0.030978
0.031801
0.0325142
0.0332984
0.0345286
0.0362421
0.0373262
0.0311065
0.00461404
0.000296108
0.000624626
0.000645994
0.000642734
0.00061815
0.000594833
0.000653008
0.00107597
0.00154004
0.00170827
0.00178229
0.00184103
0.000480954
0.00123781
0.00168337
0.00158457
0.00100771
0.000868197
0.00158194
0.00197065
0.00304683
0.00425014
0.00597553
0.00776839
0.000628619
0.00226083
0.00271976
0.00233397
0.00206933
0.00228662
0.00353423
0.00520418
0.00757396
0.0103053
0.0129155
0.0152828
0.000789188
0.00321126
0.0031002
0.00276674
0.00303945
0.00447992
0.00688098
0.00959431
0.0126879
0.0157808
0.0185436
0.0209544
0.000910615
0.00391957
0.00401666
0.00396868
0.00512283
0.00763904
0.010534
0.0136452
0.0168754
0.0199442
0.0226812
0.0250613
0.00101657
0.00484404
0.0054983
0.00589665
0.0077859
0.0106
0.0136534
0.0167958
0.0199391
0.0228895
0.025539
0.0278548
0.0010953
0.00549102
0.00673468
0.00793568
0.0103468
0.0132837
0.0162838
0.0193199
0.0222616
0.0250025
0.0274762
0.0296592
0.00117995
0.00650275
0.00833714
0.0104619
0.0131947
0.0160693
0.0189161
0.0216966
0.0243119
0.0267144
0.0288803
0.0307926
0.00128317
0.00761211
0.0108651
0.013824
0.0166325
0.0192223
0.0216302
0.0238781
0.0259427
0.0278287
0.0295612
0.0311281
0.00142878
0.00902802
0.0135353
0.0168143
0.0194283
0.0215726
0.023432
0.0251236
0.02667
0.028115
0.0294939
0.0307975
0.00163581
0.00882423
0.0148449
0.0183267
0.0207051
0.0226367
0.024254
0.0256614
0.0269415
0.0281339
0.0292723
0.0303738
0.00289687
0.00877137
0.0158287
0.0196154
0.0217798
0.0236447
0.0251104
0.0263302
0.0274084
0.0283907
0.0293105
0.0301887
0.00187107
0.00188944
0.00189091
0.00189007
0.00187374
0.001839
0.00178455
0.00170627
0.00159768
0.00145965
0.00126256
0.000612103
0.00950907
0.0109356
0.0117919
0.0119884
0.0116786
0.0109602
0.00982931
0.00831438
0.00641773
0.00391017
0.00186519
0.00103898
0.0172528
0.0186606
0.0193774
0.0194591
0.0190267
0.0180075
0.0163958
0.0141512
0.0112496
0.00768083
0.00342451
0.00136525
0.0229214
0.0243802
0.0252659
0.0255917
0.0253287
0.0244051
0.0227376
0.0201796
0.0165962
0.0118874
0.00589157
0.00166713
0.027035
0.0285624
0.0296095
0.0301475
0.0301279
0.029477
0.0280572
0.0256278
0.0217434
0.0161925
0.00865185
0.00196257
0.0298085
0.0313783
0.0325477
0.0332939
0.0335907
0.0333607
0.0324104
0.0303791
0.0267188
0.0206855
0.0118588
0.00226875
0.0315279
0.0330639
0.0342618
0.0351328
0.0356899
0.0358869
0.0355428
0.0342218
0.0311218
0.0250701
0.0152495
0.00258633
0.0324388
0.0338146
0.0349341
0.0358402
0.0365669
0.0371168
0.0373759
0.036927
0.0347747
0.0291117
0.0183641
0.0029397
0.0325175
0.0337248
0.0347668
0.0356714
0.0364897
0.0372759
0.0380166
0.0384307
0.0375134
0.0328032
0.021201
0.003324
0.0320037
0.0330846
0.0340625
0.0349463
0.0357977
0.0366945
0.0377035
0.0387657
0.0391317
0.0360979
0.024408
0.00373162
0.0314142
0.0323851
0.0332875
0.0341123
0.0348924
0.0357057
0.0367611
0.0380613
0.0392682
0.0382438
0.0281033
0.00418017
0.0310276
0.0318272
0.032591
0.0333405
0.0341126
0.0348344
0.0355773
0.0368122
0.0384514
0.0392276
0.0320153
0.00469739
0.000277677
0.000588378
0.000613103
0.000609897
0.000592215
0.00056214
0.000592324
0.000872719
0.00140122
0.00160225
0.00168217
0.00174097
0.00045107
0.00116605
0.00161784
0.00160349
0.00110147
0.000710287
0.00137745
0.00171788
0.00253669
0.0037039
0.00522425
0.00686772
0.000587967
0.00209985
0.00267912
0.00237439
0.00210056
0.00202656
0.00292451
0.00440355
0.00647148
0.00903322
0.0115021
0.0137379
0.000738285
0.0031018
0.0030637
0.00267844
0.00272171
0.00358943
0.00577632
0.00829703
0.0111329
0.014078
0.0167195
0.0190282
0.000854845
0.00367555
0.00367933
0.00349367
0.00418606
0.00633027
0.00916643
0.0120325
0.0150704
0.0179938
0.0206083
0.0228915
0.00095776
0.00443787
0.00486975
0.00501621
0.00657904
0.00926601
0.0121487
0.0150983
0.0179955
0.0207903
0.0233129
0.0255286
0.00104111
0.00508433
0.00603483
0.0069869
0.009198
0.0119811
0.0148018
0.0176005
0.0203369
0.0228934
0.0252086
0.0272631
0.0011322
0.00613638
0.00774893
0.00973864
0.0122484
0.0148918
0.0174845
0.0200002
0.0223989
0.0246065
0.0265972
0.0283649
0.00123977
0.00742245
0.0104367
0.0132044
0.0157392
0.0180514
0.0201862
0.0221731
0.0240117
0.0257316
0.0272798
0.0286816
0.00139495
0.00894454
0.0130386
0.0159819
0.0183359
0.0202194
0.0218522
0.0233214
0.0246814
0.0259879
0.0272113
0.0283585
0.00159888
0.00852654
0.0140883
0.0172897
0.0194398
0.0211503
0.0225609
0.0237783
0.0248871
0.0259405
0.0269527
0.0279313
0.00281684
0.00828906
0.014896
0.0183967
0.0202847
0.0219158
0.0231806
0.0242416
0.0251934
0.02608
0.0269279
0.0277519
0.00177383
0.00179327
0.0017975
0.00179724
0.00178801
0.00175614
0.00170946
0.00163699
0.0015385
0.00140741
0.0012194
0.000589107
0.00853976
0.00993383
0.0108148
0.0110671
0.0107627
0.0101245
0.00909642
0.00772856
0.00597957
0.00366834
0.00177536
0.00100354
0.015657
0.0170422
0.0177882
0.0179305
0.0175527
0.0166436
0.0151803
0.0131287
0.0104683
0.00717658
0.0032271
0.00132146
0.020943
0.0223707
0.0232748
0.0236443
0.0234552
0.0226437
0.0211313
0.0187874
0.0154884
0.0111499
0.00555482
0.00161338
0.0248042
0.0263014
0.0273545
0.0279309
0.0279812
0.0274343
0.0261645
0.0239506
0.0203277
0.0151791
0.00814863
0.00190037
0.0274141
0.0289481
0.0301134
0.030885
0.0312289
0.0310743
0.0302415
0.0283961
0.0250324
0.0194154
0.011199
0.00219728
0.0290425
0.0305313
0.0317195
0.0326082
0.033204
0.0334642
0.033218
0.0320533
0.0292155
0.0235932
0.0144366
0.00250569
0.0299089
0.031233
0.0323385
0.0332527
0.0340083
0.0346074
0.0349429
0.0346186
0.0326923
0.0274671
0.0174726
0.00284769
0.0299535
0.031116
0.0321486
0.0330622
0.0339018
0.0347248
0.0355226
0.0360299
0.0352937
0.030991
0.020202
0.00322445
0.0294507
0.0305004
0.0314583
0.0323475
0.0332121
0.0341432
0.0351975
0.0363271
0.0368487
0.0340961
0.0233232
0.0036268
0.028913
0.0298589
0.0307602
0.0316048
0.0323988
0.0332236
0.0343108
0.0357233
0.0370243
0.0363683
0.0270462
0.00407707
0.028569
0.0293736
0.0301576
0.0309781
0.031801
0.0325143
0.0332985
0.0345288
0.0362423
0.0373264
0.0311065
0.00461405
0.0176618
0.0185011
0.0201073
0.0218977
0.0235839
0.0251271
0.026314
0.0273076
0.0281935
0.0289702
0.0296734
0.030327
0.0276892
0.0258881
0.025511
0.0258493
0.0265662
0.0272726
0.0277996
0.0284852
0.0291885
0.0297149
0.0301603
0.0305677
0.0340489
0.0322524
0.0309983
0.0302366
0.0299441
0.0298887
0.0299461
0.030053
0.0301646
0.0302756
0.0303888
0.0305569
0.036192
0.0349269
0.0337432
0.0327432
0.0319709
0.0313708
0.0309019
0.0306455
0.0304184
0.0302039
0.030024
0.0298208
0.0309396
0.0315218
0.0320802
0.0326288
0.0332206
0.0339652
0.0347246
0.035566
0.0370249
0.0390037
0.03987
0.0185987
0.0309302
0.0312749
0.0316161
0.0319758
0.0323755
0.0328525
0.0335665
0.0342831
0.035363
0.0373517
0.0414771
0.0305696
0.030643
0.0307442
0.0308737
0.0310776
0.0313673
0.0317585
0.0323213
0.0331077
0.0340694
0.0355506
0.039365
0.0358982
0.0296694
0.0296348
0.0297381
0.0300657
0.0305094
0.0310668
0.0317533
0.0326864
0.0337315
0.0348399
0.0372854
0.0370609
0.0166398
0.0171589
0.0186059
0.0202004
0.0216713
0.0229709
0.0239992
0.0249098
0.0257481
0.0265032
0.0272077
0.027883
0.0264128
0.0243179
0.0236367
0.0237205
0.0241599
0.0246603
0.0251922
0.0258805
0.0265841
0.027148
0.0276789
0.0281741
0.0328908
0.030678
0.0289403
0.0279419
0.0274198
0.0272558
0.0272946
0.027449
0.0276759
0.0278627
0.0280676
0.0283039
0.0352105
0.0334552
0.031942
0.0306486
0.0296703
0.0290347
0.0286036
0.028284
0.0281398
0.0280416
0.0279669
0.027913
0.0285419
0.0291855
0.0298071
0.0304255
0.0310759
0.0318409
0.0324857
0.0334457
0.035021
0.0372545
0.0392271
0.0190348
0.0286549
0.0291153
0.0295451
0.0299649
0.0303927
0.0309724
0.0315976
0.0322646
0.0335374
0.0357607
0.0406458
0.0313008
0.0285897
0.0288378
0.029025
0.0292062
0.029428
0.0298043
0.0303927
0.0310274
0.0322601
0.0338865
0.0381224
0.0363974
0.0278667
0.0277983
0.0277788
0.0278314
0.0280094
0.0284974
0.0291545
0.0299561
0.0313343
0.0327286
0.0358924
0.0368628
0.0176617
0.018501
0.0201073
0.0218977
0.023584
0.0251271
0.026314
0.0273076
0.0281935
0.0289702
0.0296734
0.030327
0.0276891
0.025888
0.0255109
0.0258492
0.0265662
0.0272726
0.0277996
0.0284851
0.0291885
0.0297149
0.0301603
0.0305677
0.0340487
0.0322522
0.0309981
0.0302364
0.0299439
0.0298886
0.0299461
0.030053
0.0301645
0.0302756
0.0303888
0.0305569
0.0361917
0.0349266
0.0337429
0.032743
0.0319707
0.0313707
0.0309018
0.0306454
0.0304184
0.0302039
0.030024
0.0298208
0.0309395
0.0315217
0.0320801
0.0326287
0.0332204
0.033965
0.0347244
0.0355658
0.0370247
0.0390035
0.0398699
0.0185987
0.0309301
0.0312748
0.031616
0.0319757
0.0323754
0.0328524
0.0335664
0.034283
0.0353629
0.0373515
0.0414769
0.0305695
0.030643
0.0307442
0.0308737
0.0310776
0.0313673
0.0317585
0.0323212
0.0331076
0.0340693
0.0355505
0.0393649
0.0358981
0.0296694
0.0296348
0.029738
0.0300656
0.0305094
0.0310668
0.0317532
0.0326864
0.0337314
0.0348398
0.0372853
0.0370608
0.0166397
0.0171588
0.0186059
0.0202004
0.0216713
0.0229709
0.0239992
0.0249098
0.0257481
0.0265032
0.0272077
0.0278831
0.0264128
0.0243179
0.0236367
0.0237205
0.0241599
0.0246603
0.0251922
0.0258806
0.0265842
0.0271481
0.027679
0.0281742
0.0328907
0.030678
0.0289403
0.0279419
0.0274198
0.0272558
0.0272946
0.0274491
0.027676
0.0278628
0.0280677
0.0283039
0.0352105
0.0334552
0.031942
0.0306486
0.0296703
0.0290348
0.0286036
0.0282841
0.0281398
0.0280417
0.0279669
0.0279131
0.028542
0.0291855
0.0298072
0.0304256
0.031076
0.031841
0.0324858
0.0334458
0.0350211
0.0372547
0.0392272
0.0190348
0.0286549
0.0291153
0.0295452
0.029965
0.0303928
0.0309726
0.0315978
0.0322648
0.0335375
0.0357609
0.040646
0.031301
0.0285897
0.0288379
0.0290251
0.0292063
0.0294281
0.0298045
0.0303929
0.0310276
0.0322604
0.0338867
0.0381226
0.0363977
0.0278668
0.0277984
0.0277789
0.0278315
0.0280096
0.0284977
0.0291548
0.0299564
0.0313346
0.0327289
0.0358927
0.0368631
0.0347861
0.0337083
0.0326459
0.0317268
0.030984
0.0303742
0.0298603
0.0294742
0.0290867
0.0286812
0.028299
0.0280469
0.032931
0.0319997
0.0310361
0.0301694
0.0294259
0.0287843
0.0282124
0.0276907
0.0271185
0.0264523
0.0257206
0.025188
0.0309678
0.0301754
0.0293026
0.0284793
0.027736
0.0270584
0.0264124
0.0257497
0.0249564
0.0238959
0.0224182
0.0208119
0.0290537
0.0283875
0.0276036
0.0268218
0.0260788
0.0253653
0.0246428
0.0238392
0.0227948
0.0211723
0.0182125
0.0135622
0.0281991
0.0287901
0.0295228
0.0303925
0.0313316
0.0322105
0.0331238
0.0340033
0.0348181
0.035593
0.0360143
0.0355534
0.0256449
0.0272103
0.0287261
0.0301371
0.0314597
0.032575
0.0335302
0.0342963
0.034853
0.0350703
0.0350211
0.0342706
0.0213311
0.0248883
0.0275412
0.0295059
0.0310728
0.0323048
0.0332548
0.0339114
0.0341988
0.0341955
0.0339038
0.0328699
0.013587
0.0216178
0.0259873
0.028542
0.0302999
0.0315883
0.0325186
0.0330277
0.0331863
0.0330903
0.0325982
0.031442
0.0338634
0.03223
0.030852
0.0297054
0.0288303
0.0281921
0.0276779
0.0272368
0.0268972
0.0265867
0.0263233
0.0261482
0.0325763
0.0309897
0.029619
0.0284582
0.0275084
0.026725
0.0260298
0.0253808
0.0247698
0.0241521
0.0235643
0.0231535
0.0312664
0.0296871
0.0282685
0.0270241
0.0259442
0.0249878
0.0240942
0.0232156
0.0223064
0.0212733
0.020054
0.0189422
0.0299092
0.0283363
0.0268662
0.0255313
0.0243245
0.023212
0.0221404
0.0210457
0.0198253
0.0182351
0.0157159
0.0120707
0.026095
0.0261185
0.0262116
0.0264637
0.0269608
0.0277765
0.0288269
0.0300697
0.031599
0.0332006
0.0348928
0.0353583
0.0231918
0.0235937
0.0239643
0.0244571
0.0252048
0.0262475
0.0275146
0.0289387
0.0304845
0.0319711
0.03309
0.0333974
0.0190264
0.0206019
0.0215946
0.0224257
0.0233968
0.0245831
0.0259402
0.0274004
0.028884
0.0302087
0.0310712
0.0313226
0.0120658
0.0170164
0.0192445
0.0205401
0.021717
0.0229802
0.0243441
0.0257646
0.0271574
0.0283299
0.0290727
0.0293131
0.0347858
0.033708
0.0326456
0.0317266
0.0309838
0.0303741
0.0298602
0.0294741
0.0290866
0.0286812
0.028299
0.0280469
0.0329306
0.0319994
0.0310359
0.0301692
0.0294257
0.0287841
0.0282122
0.0276906
0.0271184
0.0264523
0.0257206
0.025188
0.0309674
0.030175
0.0293023
0.0284791
0.0277358
0.0270582
0.0264123
0.0257496
0.0249564
0.0238958
0.0224182
0.0208119
0.0290533
0.0283871
0.0276033
0.0268215
0.0260786
0.025365
0.0246426
0.023839
0.0227947
0.0211723
0.0182124
0.0135622
0.0281991
0.0287901
0.0295228
0.0303925
0.0313315
0.0322104
0.0331237
0.0340032
0.034818
0.0355929
0.0360142
0.0355534
0.0256449
0.0272103
0.0287261
0.030137
0.0314596
0.0325749
0.0335301
0.0342962
0.0348529
0.0350702
0.035021
0.0342706
0.0213311
0.0248882
0.0275411
0.0295058
0.0310726
0.0323046
0.0332547
0.0339113
0.0341987
0.0341955
0.0339038
0.0328699
0.0135871
0.0216177
0.0259871
0.0285419
0.0302997
0.0315881
0.0325184
0.0330276
0.0331862
0.0330903
0.0325981
0.0314421
0.0338634
0.03223
0.030852
0.0297055
0.0288304
0.0281922
0.027678
0.0272369
0.0268973
0.0265868
0.0263234
0.0261483
0.0325763
0.0309897
0.029619
0.0284583
0.0275085
0.0267252
0.02603
0.025381
0.0247699
0.0241522
0.0235645
0.0231537
0.0312665
0.0296872
0.0282686
0.0270243
0.0259443
0.024988
0.0240945
0.0232159
0.0223066
0.0212735
0.0200542
0.0189423
0.0299093
0.0283364
0.0268664
0.0255315
0.0243248
0.0232123
0.0221407
0.021046
0.0198257
0.0182354
0.0157161
0.0120708
0.0260952
0.0261188
0.0262118
0.026464
0.0269612
0.0277769
0.0288273
0.0300701
0.0315994
0.033201
0.0348931
0.0353587
0.023192
0.023594
0.0239647
0.0244576
0.0252053
0.026248
0.0275151
0.0289391
0.0304849
0.0319715
0.0330904
0.0333978
0.0190266
0.0206023
0.0215952
0.0224264
0.0233976
0.0245838
0.0259408
0.027401
0.0288845
0.0302091
0.0310717
0.0313231
0.0120659
0.017017
0.0192454
0.0205412
0.021718
0.0229812
0.024345
0.0257653
0.027158
0.0283304
0.0290732
0.0293136
0.0272491
0.0266933
0.0259906
0.0252493
0.0245095
0.0237645
0.0229716
0.022039
0.0207596
0.0185214
0.0134242
0.00296895
0.0255667
0.0251031
0.0244728
0.0237712
0.0230383
0.022269
0.0214175
0.0203802
0.0189243
0.0164574
0.0115342
0.0020626
0.0239958
0.0236079
0.0230413
0.0223782
0.0216566
0.0208717
0.0199768
0.0188662
0.0173145
0.014823
0.0103495
0.00168571
0.0225125
0.0221862
0.0216756
0.0210503
0.0203447
0.0195539
0.0186328
0.0174805
0.0158969
0.0134863
0.00946713
0.00150201
0.0210783
0.0208033
0.0203427
0.0197555
0.0190715
0.0182859
0.0173562
0.0161916
0.0146227
0.012341
0.00871404
0.00137053
0.0196333
0.019403
0.0189891
0.0184421
0.0177876
0.0170199
0.0161005
0.0149504
0.0134309
0.0113006
0.00801159
0.00125705
0.0180802
0.017892
0.0175252
0.0170242
0.0164101
0.0156764
0.0147888
0.0136807
0.0122411
0.0102796
0.00730661
0.00115192
0.0162602
0.0161152
0.0158002
0.0153561
0.0147992
0.0141218
0.0132936
0.012261
0.0109373
0.00917466
0.00654248
0.00104884
0.0139151
0.0138173
0.0135643
0.0131954
0.0127215
0.0121329
0.0114042
0.0104952
0.00934157
0.00783932
0.00563444
0.000940505
0.0106424
0.0105947
0.0104187
0.0101529
0.00980092
0.0093504
0.00878247
0.00807335
0.00717159
0.0060368
0.00443123
0.000815508
0.00590969
0.00590462
0.00581917
0.00569046
0.00551198
0.00526943
0.00495439
0.00456341
0.0040388
0.00341687
0.00261947
0.000656714
0.000632262
0.000628129
0.000617244
0.000602003
0.000582181
0.000557839
0.000528163
0.000490512
0.000442805
0.000382457
0.000303792
0.000138532
0.00307922
0.0176159
0.0242448
0.0273491
0.0292578
0.0305716
0.031448
0.0318678
0.0319942
0.0318094
0.0311538
0.0299935
0.0024157
0.0158119
0.0226636
0.0260326
0.0280397
0.0293682
0.0301742
0.0305559
0.0306462
0.0303892
0.0296634
0.0285349
0.00213858
0.0145864
0.0212022
0.024652
0.0267045
0.0280237
0.0287888
0.0291442
0.0291938
0.0288827
0.0281471
0.0270729
0.00197798
0.0135714
0.0198197
0.0232321
0.025285
0.0265796
0.0273136
0.0276545
0.0276636
0.0273149
0.0266051
0.0256
0.00185409
0.0126293
0.0184684
0.0217694
0.0237852
0.025042
0.0257519
0.0260691
0.0260434
0.025683
0.0250153
0.0240854
0.00174285
0.0116878
0.0170964
0.0202318
0.0221739
0.0233793
0.0240598
0.0243467
0.0242922
0.0239352
0.0233177
0.0224628
0.00163293
0.0106931
0.015637
0.0185516
0.0203766
0.0215095
0.0221433
0.022394
0.0223153
0.0219682
0.0213966
0.020621
0.00151718
0.00957757
0.0139886
0.0166026
0.0182503
0.0192713
0.0198336
0.0200382
0.0199374
0.0196015
0.0190701
0.0183863
0.00139295
0.00823087
0.0119666
0.0141576
0.0155376
0.0163878
0.0168429
0.0169878
0.0168702
0.0165495
0.0160652
0.015504
0.00124656
0.00648893
0.00924471
0.0108204
0.0118086
0.0124114
0.0127185
0.0127987
0.0126788
0.0123933
0.0120075
0.0115988
0.0010599
0.00394223
0.00526056
0.0060104
0.00649075
0.00678268
0.00691774
0.00695377
0.00686565
0.00670398
0.00648882
0.00625524
0.000250428
0.000435738
0.000555295
0.000629397
0.000679852
0.000714086
0.000734257
0.00074249
0.00073909
0.000728722
0.000713295
0.000693808
0.0285267
0.0269785
0.0254822
0.024083
0.0227815
0.0215503
0.0203382
0.0190632
0.0175631
0.0153943
0.0110163
0.00249138
0.0271423
0.0256451
0.0241595
0.0227366
0.0213842
0.0200803
0.0187744
0.0173731
0.0156881
0.0132652
0.00891938
0.00151847
0.0257656
0.0243444
0.0229058
0.021501
0.0201423
0.0188121
0.0174618
0.0159955
0.0142289
0.0117727
0.00777285
0.0011413
0.0243856
0.0230584
0.0216951
0.0203428
0.0190161
0.0177008
0.0163518
0.0148783
0.0131172
0.0107625
0.00720471
0.000997822
0.0229651
0.0217425
0.0204718
0.0191962
0.0179301
0.0166623
0.0153523
0.0139188
0.012225
0.0100357
0.00689114
0.000934695
0.0214391
0.0203223
0.0191529
0.0179692
0.0167846
0.0155894
0.014348
0.0129895
0.0114014
0.00939682
0.00659105
0.000890529
0.0197013
0.0186869
0.0176242
0.0165448
0.0154594
0.0143591
0.0132122
0.0119571
0.0105009
0.00868573
0.00620724
0.000857459
0.0175863
0.0166765
0.0157313
0.014774
0.0138103
0.0128309
0.0118073
0.0106858
0.0093907
0.007778
0.00566754
0.000818273
0.0148464
0.0140657
0.0132649
0.0124617
0.0116546
0.0108331
0.00997247
0.00902604
0.00793771
0.00656333
0.0048863
0.000768794
0.0111024
0.0105217
0.00991331
0.00931698
0.00871843
0.00810768
0.00746463
0.00674967
0.00593741
0.0048595
0.00369005
0.000698535
0.00599038
0.00570916
0.00540591
0.00509317
0.00477535
0.00444953
0.00410492
0.00370917
0.00328557
0.00264721
0.00206451
0.000597309
0.00067016
0.0006434
0.000614053
0.000583397
0.000552019
0.000519604
0.000485927
0.000449193
0.000409438
0.000355898
0.000303175
0.000185547
0.0026868
0.012914
0.0170085
0.0188373
0.0201971
0.0214897
0.0228133
0.0241588
0.0254502
0.0265066
0.0271836
0.0274307
0.00194555
0.0109138
0.0152074
0.0173517
0.0188233
0.0201103
0.0213716
0.0226314
0.023826
0.0247921
0.0254272
0.0256857
0.00158808
0.00959502
0.0137664
0.0160376
0.0175595
0.0188174
0.0200102
0.0211877
0.0222973
0.0231916
0.023796
0.0240653
0.00137519
0.0086039
0.0125639
0.0148411
0.0163589
0.0175713
0.0186985
0.0198052
0.0208459
0.0216836
0.0222643
0.0225426
0.00122315
0.00778358
0.0114952
0.0137
0.0151673
0.0163203
0.0173877
0.018439
0.0194295
0.0202257
0.0207891
0.0210763
0.00110563
0.00703416
0.0104822
0.0125511
0.013924
0.0150007
0.0160107
0.0170212
0.0179808
0.0187511
0.0193041
0.0196029
0.00100456
0.00631655
0.00945742
0.0113276
0.0125592
0.0135349
0.0144806
0.0154572
0.0164014
0.0171587
0.0177067
0.0180221
0.000909638
0.00559425
0.00834818
0.00994892
0.0109876
0.0118272
0.0126863
0.0136191
0.0145504
0.0152967
0.0158373
0.0161737
0.000813109
0.00480274
0.00705009
0.00830216
0.00909468
0.00975478
0.0104847
0.0113357
0.0122271
0.0129407
0.0134508
0.0138022
0.00070493
0.00380781
0.00537906
0.00618329
0.00667457
0.00710374
0.00763212
0.00831852
0.00910577
0.00975529
0.0101894
0.0105153
0.000569414
0.00231348
0.00305023
0.00336989
0.00355334
0.00372916
0.00400053
0.00442642
0.00491951
0.00533419
0.00562456
0.00581837
0.000120351
0.000265428
0.00032894
0.000365525
0.00039382
0.000426067
0.000467069
0.000514513
0.000556414
0.000588933
0.00061308
0.000627661
0.0272486
0.0266928
0.0259902
0.0252489
0.0245092
0.0237642
0.0229713
0.0220388
0.0207595
0.0185212
0.0134241
0.00296896
0.0255661
0.0251026
0.0244723
0.0237708
0.023038
0.0222687
0.0214172
0.0203799
0.0189241
0.0164572
0.0115341
0.00206259
0.0239952
0.0236073
0.0230407
0.0223777
0.0216561
0.0208712
0.0199764
0.0188658
0.0173142
0.0148227
0.0103493
0.00168568
0.0225117
0.0221855
0.0216749
0.0210497
0.0203441
0.0195534
0.0186322
0.01748
0.0158965
0.0134858
0.0094668
0.00150196
0.0210775
0.0208025
0.020342
0.0197548
0.0190709
0.0182853
0.0173556
0.016191
0.0146221
0.0123404
0.00871361
0.00137047
0.0196324
0.0194021
0.0189883
0.0184414
0.0177869
0.0170192
0.0160997
0.0149496
0.0134301
0.0112999
0.00801105
0.00125696
0.0180793
0.0178911
0.0175243
0.0170234
0.0164093
0.0156757
0.014788
0.0136799
0.0122403
0.0102788
0.007306
0.0011518
0.0162593
0.0161143
0.0157994
0.0153553
0.0147985
0.014121
0.0132928
0.0122602
0.0109364
0.00917385
0.00654187
0.00104869
0.0139144
0.0138165
0.0135636
0.0131947
0.0127209
0.0121323
0.0114035
0.0104945
0.00934087
0.00783863
0.00563392
0.000940313
0.0106419
0.0105943
0.0104182
0.0101525
0.00980048
0.00934997
0.00878203
0.00807289
0.00717112
0.00603635
0.00443089
0.000815278
0.00590943
0.00590437
0.00581893
0.00569024
0.00551176
0.00526921
0.00495417
0.00456319
0.00403856
0.00341663
0.0026193
0.000656443
0.000632224
0.000628094
0.00061721
0.00060197
0.000582147
0.000557805
0.000528127
0.000490472
0.000442759
0.000382403
0.000303729
0.000138435
0.00307922
0.0176159
0.0242446
0.0273489
0.0292576
0.0305714
0.0314479
0.0318676
0.0319941
0.0318093
0.0311537
0.0299936
0.0024157
0.0158118
0.0226634
0.0260324
0.0280394
0.0293679
0.030174
0.0305558
0.0306461
0.0303891
0.0296633
0.0285349
0.00213858
0.0145862
0.021202
0.0246517
0.0267043
0.0280235
0.0287886
0.029144
0.0291936
0.0288826
0.0281471
0.0270729
0.00197796
0.0135713
0.0198194
0.0232318
0.0252847
0.0265793
0.0273133
0.0276543
0.0276634
0.0273148
0.026605
0.0256
0.00185407
0.0126291
0.0184682
0.0217691
0.0237848
0.0250417
0.0257517
0.0260688
0.0260432
0.0256829
0.0250152
0.0240853
0.00174282
0.0116876
0.0170961
0.0202315
0.0221736
0.023379
0.0240596
0.0243465
0.024292
0.0239351
0.0233176
0.0224627
0.00163291
0.0106929
0.0156367
0.0185513
0.0203763
0.0215091
0.022143
0.0223938
0.0223151
0.021968
0.0213965
0.0206209
0.00151715
0.0095774
0.0139883
0.0166024
0.01825
0.0192711
0.0198333
0.020038
0.0199372
0.0196014
0.01907
0.0183862
0.00139292
0.00823072
0.0119664
0.0141574
0.0155374
0.0163875
0.0168426
0.0169876
0.01687
0.0165494
0.0160652
0.015504
0.00124653
0.0064888
0.00924455
0.0108203
0.0118084
0.0124112
0.0127184
0.0127986
0.0126787
0.0123932
0.0120074
0.0115988
0.00105986
0.00394216
0.00526048
0.00601031
0.00649067
0.0067826
0.00691766
0.0069537
0.00686558
0.00670393
0.00648878
0.00625523
0.00025042
0.000435726
0.000555283
0.000629384
0.000679839
0.000714074
0.000734245
0.00074248
0.00073908
0.000728714
0.000713288
0.000693803
0.0285267
0.0269786
0.0254824
0.0240832
0.0227818
0.0215507
0.0203386
0.0190636
0.0175636
0.0153948
0.0110166
0.00249141
0.0271424
0.0256452
0.0241597
0.0227369
0.0213846
0.0200807
0.018775
0.0173737
0.0156888
0.0132658
0.00891991
0.00151858
0.0257657
0.0243445
0.022906
0.0215013
0.0201427
0.0188127
0.0174625
0.0159963
0.0142298
0.0117737
0.00777367
0.0011415
0.0243857
0.0230585
0.0216953
0.0203432
0.0190166
0.0177014
0.0163526
0.0148793
0.0131184
0.0107638
0.00720579
0.000998088
0.0229652
0.0217426
0.0204721
0.0191965
0.0179307
0.016663
0.0153532
0.0139199
0.0122263
0.0100372
0.00689229
0.000935
0.0214392
0.0203224
0.0191532
0.0179696
0.0167851
0.0155901
0.014349
0.0129907
0.0114028
0.0093984
0.00659219
0.000890865