/*--------------------------------*- C++ -*----------------------------------*\
| =========                 |                                                 |
| \\      /  F ield         | OpenFOAM: The Open Source CFD Toolbox           |
|  \\    /   O peration     | Version:  2212                                  |
|   \\  /    A nd           | Website:  www.openfoam.com                      |
|    \\/     M anipulation  |                                                 |
\*---------------------------------------------------------------------------*/
FoamFile
{
    version     2.0;
    format      ascii;
    arch        "LSB;label=32;scalar=64";
    class       volScalarField;
    location    "0.03";
    object      nut;
}
// * * * * * * * * * * * * * * * * * * * * * * * * * * * * * * * * * * * * * //

dimensions      [0 2 -1 0 0 0 0];

internalField   nonuniform List<scalar> 
3072
(
0.000237337
0.000511573
0.000551505
0.000552146
0.00054861
0.000527039
0.000513227
0.000573948
0.000986319
0.0013545
0.00147885
0.00153372
0.000383083
0.00111489
0.00159402
0.00179438
0.00154751
0.000905117
0.000786883
0.00139391
0.00169921
0.00271692
0.00371565
0.00519121
0.000491113
0.00183116
0.00248582
0.00262656
0.00229694
0.00209269
0.00205061
0.0028589
0.00437129
0.00641713
0.00861474
0.0107331
0.000620244
0.00288295
0.00316113
0.00276054
0.00259546
0.00260347
0.00338569
0.00551525
0.00784256
0.0104958
0.013007
0.0152273
0.000732887
0.00340745
0.0034634
0.00311863
0.00311247
0.00377621
0.00565503
0.0084493
0.0111374
0.013867
0.0163809
0.0185971
0.00084288
0.00386552
0.00390594
0.00367939
0.00407615
0.00563838
0.00832185
0.0110695
0.0137314
0.0163532
0.0187662
0.0209219
0.000938671
0.0043647
0.00472565
0.00475586
0.00578525
0.00812614
0.0107144
0.0132426
0.0157239
0.0180891
0.0203234
0.0223771
0.00105722
0.0055315
0.00653757
0.00734793
0.00910542
0.011201
0.0133197
0.0154581
0.0176101
0.0196607
0.021594
0.0233796
0.00119607
0.00753971
0.00984685
0.0117482
0.0134824
0.015049
0.0165611
0.0180823
0.0196434
0.0211714
0.0226518
0.0240703
0.00138886
0.00905931
0.0125304
0.0149001
0.016623
0.0179321
0.0190559
0.0201035
0.0211265
0.0221489
0.0231904
0.0242771
0.00156739
0.00843589
0.0135198
0.0164504
0.0183702
0.0195412
0.0205988
0.0213452
0.0220229
0.0227024
0.023423
0.024217
0.00260567
0.00792537
0.014236
0.0176472
0.0193148
0.0207839
0.0217086
0.022355
0.0228637
0.023341
0.023849
0.0244327
0.00157704
0.00159802
0.00161063
0.00161269
0.0016135
0.00158897
0.00155097
0.00148656
0.00139791
0.00127734
0.00109831
0.000522569
0.00664852
0.00799706
0.0089449
0.0093582
0.00918358
0.00870228
0.00787182
0.00672951
0.00521048
0.00318829
0.00156116
0.000907634
0.0125575
0.0139597
0.0148401
0.0151874
0.0150102
0.0143532
0.0131655
0.0114439
0.00914205
0.00626792
0.00279569
0.0012095
0.017109
0.0185879
0.0196183
0.0201708
0.0202047
0.0196677
0.0184806
0.0165382
0.0136626
0.00987409
0.00492732
0.00147701
0.0205059
0.0220751
0.0232744
0.0240688
0.0243986
0.0241565
0.0231924
0.0212952
0.0181007
0.0134795
0.00725958
0.00174309
0.0228193
0.0244426
0.0257708
0.0267719
0.027388
0.0275265
0.0270088
0.0255113
0.0225413
0.0174069
0.0100777
0.00201549
0.0242159
0.0258353
0.0272293
0.0283819
0.0292695
0.0298345
0.0298855
0.0290121
0.0265208
0.0213926
0.0130726
0.00230101
0.0250133
0.0265079
0.0278577
0.0290646
0.030155
0.0311133
0.0317966
0.0317757
0.0301106
0.0252364
0.0159941
0.00261575
0.0253942
0.0266223
0.0278317
0.0290315
0.0302273
0.0314626
0.0326766
0.0335397
0.0330137
0.0288618
0.0186806
0.00296477
0.0253488
0.0263517
0.0273708
0.0285418
0.0298348
0.0312462
0.0327855
0.0343499
0.035036
0.0322632
0.0218137
0.00333635
0.0251513
0.0262292
0.0271384
0.0280731
0.0293519
0.0308696
0.0325269
0.0344037
0.0360052
0.0351388
0.0255799
0.00374789
0.0251855
0.0263122
0.0273635
0.0281861
0.0292285
0.0306831
0.0322409
0.0340874
0.0359943
0.0367749
0.029554
0.00422655
0.000237341
0.000511581
0.000551513
0.000552153
0.000548617
0.000527045
0.000513234
0.000573959
0.000986345
0.00135452
0.00147886
0.00153373
0.00038309
0.0011149
0.00159404
0.0017944
0.00154751
0.000905106
0.000786902
0.00139394
0.00169924
0.00271699
0.00371574
0.00519132
0.000491122
0.0018312
0.00248586
0.00262655
0.0022969
0.00209268
0.00205063
0.00285901
0.00437142
0.00641733
0.00861495
0.0107333
0.000620257
0.002883
0.00316117
0.00276056
0.0025955
0.00260352
0.00338586
0.00551548
0.00784283
0.010496
0.0130073
0.0152276
0.000732902
0.00340753
0.00346345
0.0031187
0.00311253
0.00377633
0.00565534
0.00844961
0.0111377
0.0138674
0.0163812
0.0185975
0.000842891
0.00386559
0.00390603
0.0036795
0.00407629
0.00563873
0.00832223
0.0110699
0.0137318
0.0163536
0.0187666
0.0209223
0.00093868
0.00436478
0.00472579
0.00475605
0.00578554
0.00812657
0.0107148
0.0132431
0.0157243
0.0180895
0.0203238
0.0223776
0.00105723
0.00553158
0.00653773
0.00734821
0.00910587
0.0112015
0.0133202
0.0154586
0.0176105
0.0196612
0.0215945
0.0233801
0.00119607
0.00753974
0.00984699
0.0117484
0.0134827
0.0150493
0.0165615
0.0180828
0.0196439
0.0211719
0.0226523
0.0240708
0.00138886
0.00905934
0.0125305
0.0149003
0.0166232
0.0179323
0.0190562
0.0201039
0.0211269
0.0221493
0.0231909
0.0242775
0.00156739
0.00843591
0.0135199
0.0164505
0.0183704
0.0195414
0.0205991
0.0213455
0.0220232
0.0227028
0.0234234
0.0242174
0.00260568
0.00792539
0.014236
0.0176473
0.0193149
0.020784
0.0217088
0.0223552
0.0228639
0.0233413
0.0238493
0.0244331
0.00157705
0.00159803
0.00161064
0.0016127
0.00161351
0.00158898
0.00155097
0.00148656
0.00139791
0.00127734
0.00109831
0.000522571
0.00664866
0.00799721
0.00894505
0.00935834
0.00918371
0.0087024
0.00787192
0.00672958
0.00521053
0.00318831
0.00156117
0.000907637
0.0125577
0.01396
0.0148403
0.0151876
0.0150104
0.0143533
0.0131657
0.0114441
0.00914215
0.00626798
0.00279571
0.00120951
0.0171093
0.0185882
0.0196187
0.0201711
0.020205
0.019668
0.0184808
0.0165384
0.0136628
0.00987418
0.00492736
0.00147701
0.0205063
0.0220755
0.0232748
0.0240692
0.0243989
0.0241568
0.0231927
0.0212955
0.0181009
0.0134796
0.00725964
0.0017431
0.0228197
0.024443
0.0257713
0.0267723
0.0273884
0.0275269
0.0270091
0.0255116
0.0225416
0.0174071
0.0100778
0.0020155
0.0242163
0.0258357
0.0272298
0.0283824
0.02927
0.0298349
0.0298859
0.0290124
0.026521
0.0213928
0.0130727
0.00230102
0.0250139
0.0265084
0.0278582
0.0290651
0.0301554
0.0311138
0.0317971
0.0317761
0.0301109
0.0252366
0.0159942
0.00261575
0.0253947
0.0266228
0.0278322
0.0290319
0.0302277
0.031463
0.032677
0.03354
0.0330141
0.028862
0.0186807
0.00296478
0.0253492
0.0263522
0.0273712
0.0285423
0.0298353
0.0312466
0.0327859
0.0343503
0.0350363
0.0322635
0.0218138
0.00333636
0.0251517
0.0262296
0.0271388
0.0280736
0.0293523
0.03087
0.0325273
0.0344041
0.0360055
0.0351391
0.02558
0.0037479
0.0251858
0.0263126
0.0273639
0.0281865
0.0292289
0.0306835
0.0322412
0.0340877
0.0359947
0.0367752
0.0295541
0.00422656
0.000237336
0.000511571
0.000551503
0.000552145
0.000548609
0.000527039
0.000513227
0.000573949
0.000986321
0.0013545
0.00147885
0.00153372
0.000383082
0.00111488
0.00159403
0.00179439
0.00154752
0.000905123
0.000786894
0.00139392
0.00169921
0.00271693
0.00371565
0.00519122
0.000491112
0.00183117
0.00248583
0.00262658
0.00229696
0.00209271
0.00205062
0.00285891
0.0043713
0.00641715
0.00861476
0.0107331
0.000620243
0.00288297
0.00316115
0.00276056
0.00259548
0.00260349
0.00338571
0.00551527
0.00784259
0.0104958
0.013007
0.0152273
0.000732887
0.00340747
0.00346342
0.00311865
0.00311249
0.00377623
0.00565506
0.00844933
0.0111374
0.0138671
0.0163809
0.0185972
0.00084288
0.00386554
0.00390596
0.00367941
0.00407617
0.00563839
0.00832187
0.0110696
0.0137314
0.0163533
0.0187662
0.0209219
0.000938671
0.0043647
0.00472566
0.00475585
0.00578524
0.00812613
0.0107144
0.0132427
0.015724
0.0180891
0.0203234
0.0223772
0.00105722
0.00553149
0.00653754
0.00734788
0.00910537
0.011201
0.0133198
0.0154581
0.0176101
0.0196608
0.0215941
0.0233797
0.00119607
0.00753969
0.0098468
0.0117481
0.0134824
0.015049
0.0165611
0.0180824
0.0196435
0.0211715
0.0226519
0.0240704
0.00138887
0.00905933
0.0125304
0.0149001
0.016623
0.0179321
0.0190559
0.0201036
0.0211266
0.022149
0.0231905
0.0242771
0.0015674
0.00843593
0.0135198
0.0164504
0.0183703
0.0195413
0.0205989
0.0213453
0.022023
0.0227025
0.0234232
0.0242171
0.00260568
0.00792541
0.0142361
0.0176473
0.0193149
0.020784
0.0217088
0.0223551
0.0228638
0.0233412
0.0238491
0.0244329
0.00157704
0.00159802
0.00161063
0.00161269
0.0016135
0.00158897
0.00155097
0.00148656
0.00139791
0.00127734
0.00109831
0.000522569
0.00664854
0.00799708
0.00894492
0.00935822
0.00918359
0.00870229
0.00787183
0.00672952
0.00521049
0.00318829
0.00156116
0.000907634
0.0125575
0.0139598
0.0148401
0.0151874
0.0150102
0.0143532
0.0131656
0.011444
0.00914206
0.00626793
0.00279569
0.0012095
0.017109
0.0185879
0.0196184
0.0201708
0.0202048
0.0196677
0.0184806
0.0165382
0.0136626
0.0098741
0.00492732
0.00147701
0.0205059
0.0220752
0.0232745
0.0240689
0.0243986
0.0241565
0.0231925
0.0212953
0.0181008
0.0134795
0.00725959
0.00174309
0.0228193
0.0244426
0.0257709
0.0267719
0.027388
0.0275265
0.0270088
0.0255114
0.0225414
0.0174069
0.0100777
0.0020155
0.0242159
0.0258353
0.0272294
0.028382
0.0292696
0.0298346
0.0298856
0.0290121
0.0265208
0.0213926
0.0130726
0.00230101
0.0250134
0.0265079
0.0278578
0.0290646
0.030155
0.0311134
0.0317967
0.0317757
0.0301106
0.0252364
0.0159942
0.00261575
0.0253943
0.0266224
0.0278318
0.0290315
0.0302273
0.0314626
0.0326766
0.0335397
0.0330137
0.0288618
0.0186806
0.00296477
0.0253489
0.0263518
0.0273709
0.0285419
0.0298349
0.0312462
0.0327855
0.0343499
0.0350359
0.0322632
0.0218137
0.00333635
0.0251514
0.0262293
0.0271385
0.0280732
0.0293519
0.0308696
0.032527
0.0344037
0.0360052
0.0351388
0.0255799
0.00374789
0.0251856
0.0263123
0.0273636
0.0281862
0.0292286
0.0306832
0.0322409
0.0340874
0.0359943
0.0367749
0.029554
0.00422655
0.000237341
0.000511581
0.000551514
0.000552154
0.000548617
0.000527045
0.000513233
0.000573954
0.000986328
0.00135451
0.00147885
0.00153372
0.00038309
0.0011149
0.00159404
0.0017944
0.00154751
0.000905118
0.000786895
0.00139392
0.00169922
0.00271695
0.00371568
0.00519125
0.000491121
0.00183119
0.00248585
0.00262656
0.00229692
0.00209269
0.00205061
0.00285895
0.00437134
0.00641721
0.00861482
0.0107332
0.000620254
0.00288299
0.00316116
0.00276056
0.00259548
0.00260349
0.00338577
0.00551536
0.00784269
0.0104959
0.0130071
0.0152274
0.000732899
0.00340751
0.00346343
0.00311868
0.0031125
0.00377627
0.00565519
0.00844947
0.0111375
0.0138672
0.0163811
0.0185973
0.000842889
0.00386556
0.003906
0.00367946
0.00407622
0.00563858
0.00832208
0.0110698
0.0137316
0.0163534
0.0187664
0.0209221
0.000938677
0.00436475
0.00472574
0.00475598
0.00578543
0.00812642
0.0107146
0.0132429
0.0157242
0.0180893
0.0203236
0.0223774
0.00105722
0.00553154
0.00653767
0.00734811
0.00910573
0.0112013
0.0133201
0.0154584
0.0176104
0.019661
0.0215943
0.0233799
0.00119607
0.0075397
0.00984692
0.0117483
0.0134826
0.0150492
0.0165614
0.0180826
0.0196437
0.0211717
0.0226521
0.0240706
0.00138886
0.0090593
0.0125305
0.0149002
0.0166231
0.0179322
0.019056
0.0201038
0.0211267
0.0221491
0.0231907
0.0242773
0.00156739
0.00843588
0.0135198
0.0164504
0.0183703
0.0195413
0.0205989
0.0213454
0.0220231
0.0227026
0.0234233
0.0242172
0.00260567
0.00792537
0.014236
0.0176472
0.0193148
0.0207839
0.0217087
0.0223551
0.0228638
0.0233412
0.0238492
0.0244329
0.00157704
0.00159802
0.00161063
0.00161269
0.0016135
0.00158897
0.00155097
0.00148655
0.00139791
0.00127734
0.0010983
0.000522568
0.00664857
0.00799711
0.00894495
0.00935824
0.00918362
0.00870231
0.00787184
0.00672952
0.00521049
0.00318829
0.00156116
0.000907633
0.0125575
0.0139598
0.0148402
0.0151875
0.0150102
0.0143532
0.0131656
0.011444
0.00914207
0.00626793
0.00279569
0.0012095
0.0171091
0.018588
0.0196184
0.0201709
0.0202048
0.0196678
0.0184807
0.0165383
0.0136626
0.00987411
0.00492732
0.00147701
0.0205061
0.0220753
0.0232746
0.024069
0.0243987
0.0241566
0.0231925
0.0212953
0.0181008
0.0134795
0.00725959
0.00174309
0.0228195
0.0244428
0.025771
0.026772
0.0273881
0.0275266
0.0270089
0.0255114
0.0225414
0.017407
0.0100777
0.00201549
0.0242161
0.0258355
0.0272296
0.0283821
0.0292697
0.0298347
0.0298856
0.0290122
0.0265208
0.0213926
0.0130726
0.00230101
0.0250136
0.0265081
0.027858
0.0290648
0.0301552
0.0311135
0.0317968
0.0317758
0.0301106
0.0252364
0.0159942
0.00261574
0.0253945
0.0266226
0.027832
0.0290317
0.0302275
0.0314628
0.0326767
0.0335397
0.0330138
0.0288618
0.0186806
0.00296476
0.025349
0.026352
0.027371
0.0285421
0.029835
0.0312463
0.0327856
0.03435
0.035036
0.0322632
0.0218137
0.00333634
0.0251515
0.0262294
0.0271386
0.0280733
0.029352
0.0308697
0.032527
0.0344037
0.0360052
0.0351388
0.0255799
0.00374788
0.0251857
0.0263124
0.0273637
0.0281863
0.0292287
0.0306832
0.0322409
0.0340874
0.0359943
0.0367749
0.029554
0.00422654
0.0156758
0.0162674
0.017733
0.0192873
0.0206304
0.0218952
0.0227444
0.0233365
0.0237734
0.0241671
0.024574
0.0250412
0.0252913
0.0230718
0.022358
0.0224299
0.0228847
0.0233438
0.0237672
0.0243099
0.0248029
0.025199
0.0255806
0.0260049
0.0319055
0.0293828
0.027551
0.0264644
0.0259471
0.0257271
0.0258095
0.0259671
0.0261412
0.0263484
0.0267546
0.02725
0.0338926
0.0321534
0.0305598
0.0292315
0.0283732
0.0278522
0.0276237
0.0275483
0.0277131
0.0279446
0.0282743
0.0287776
0.0257324
0.0268451
0.0279317
0.0287706
0.0297133
0.0309364
0.0322364
0.0337636
0.0355931
0.037771
0.0379901
0.017564
0.0267919
0.0278543
0.0288404
0.0297302
0.0306768
0.0315319
0.0324887
0.0335708
0.0349759
0.0370027
0.0405862
0.0294059
0.0282251
0.0290543
0.0299067
0.0306738
0.0314249
0.0320841
0.0328439
0.033628
0.0345472
0.0359421
0.03921
0.0350528
0.0298059
0.0305298
0.031198
0.0318165
0.0322977
0.0327971
0.033343
0.0338588
0.0344706
0.0351839
0.0369283
0.0358889
0.0156758
0.0162674
0.017733
0.0192874
0.0206306
0.0218954
0.0227446
0.0233368
0.0237737
0.0241674
0.0245743
0.0250415
0.0252911
0.0230721
0.0223582
0.0224302
0.0228849
0.023344
0.0237675
0.0243102
0.0248031
0.0251992
0.0255809
0.0260052
0.0319058
0.0293832
0.0275514
0.0264648
0.0259475
0.0257275
0.0258098
0.0259674
0.0261415
0.0263487
0.0267548
0.0272502
0.033893
0.0321539
0.0305606
0.0292321
0.0283737
0.0278525
0.027624
0.0275486
0.0277134
0.0279448
0.0282745
0.0287777
0.0257327
0.0268454
0.027932
0.028771
0.0297136
0.0309366
0.0322366
0.0337639
0.0355934
0.0377713
0.0379902
0.017564
0.0267922
0.0278545
0.0288406
0.0297304
0.030677
0.0315321
0.032489
0.033571
0.0349762
0.037003
0.0405864
0.029406
0.0282252
0.0290545
0.0299069
0.030674
0.0314251
0.0320843
0.0328441
0.0336282
0.0345474
0.0359423
0.0392102
0.0350529
0.029806
0.0305299
0.0311981
0.0318166
0.0322978
0.0327972
0.0333431
0.0338589
0.0344707
0.0351841
0.0369284
0.035889
0.0156758
0.0162674
0.0177331
0.0192874
0.0206306
0.0218954
0.0227446
0.0233367
0.0237736
0.0241673
0.0245742
0.0250413
0.0252912
0.0230721
0.0223583
0.0224302
0.022885
0.023344
0.0237675
0.0243102
0.0248031
0.0251992
0.0255808
0.0260051
0.0319059
0.0293833
0.0275515
0.0264648
0.0259476
0.0257275
0.0258098
0.0259674
0.0261415
0.0263487
0.0267548
0.0272502
0.0338931
0.032154
0.0305607
0.0292321
0.0283737
0.0278525
0.027624
0.0275486
0.0277134
0.0279447
0.0282744
0.0287777
0.0257326
0.0268452
0.0279318
0.0287707
0.0297133
0.0309364
0.0322363
0.0337636
0.035593
0.037771
0.03799
0.0175639
0.026792
0.0278544
0.0288405
0.0297302
0.0306768
0.0315319
0.0324887
0.0335707
0.0349758
0.0370026
0.0405861
0.0294058
0.0282251
0.0290543
0.0299067
0.0306738
0.0314249
0.0320841
0.0328439
0.033628
0.0345472
0.035942
0.0392099
0.0350527
0.0298059
0.0305297
0.031198
0.0318164
0.0322976
0.032797
0.0333429
0.0338587
0.0344704
0.0351838
0.0369281
0.0358887
0.0156758
0.0162674
0.017733
0.0192873
0.0206305
0.0218953
0.0227445
0.0233366
0.0237735
0.0241673
0.0245741
0.0250413
0.0252911
0.023072
0.0223581
0.0224301
0.0228848
0.0233439
0.0237673
0.0243101
0.024803
0.0251991
0.0255807
0.0260051
0.0319057
0.0293831
0.0275513
0.0264647
0.0259474
0.0257274
0.0258097
0.0259672
0.0261414
0.0263485
0.0267546
0.0272501
0.0338929
0.0321538
0.0305605
0.0292319
0.0283736
0.0278524
0.0276239
0.0275484
0.0277132
0.0279446
0.0282743
0.0287776
0.0257326
0.0268452
0.0279318
0.0287707
0.0297134
0.0309364
0.0322364
0.0337635
0.035593
0.0377709
0.0379899
0.0175639
0.026792
0.0278543
0.0288404
0.0297302
0.0306768
0.0315318
0.0324887
0.0335707
0.0349758
0.0370026
0.0405859
0.0294055
0.0282251
0.0290543
0.0299067
0.0306737
0.0314248
0.032084
0.0328438
0.0336279
0.034547
0.0359419
0.0392098
0.0350522
0.0298058
0.0305296
0.0311978
0.0318163
0.0322975
0.0327969
0.0333427
0.0338586
0.0344703
0.0351836
0.036928
0.0358882
0.0315705
0.0304428
0.0295011
0.0288609
0.0285177
0.0283849
0.0283348
0.0283963
0.0286934
0.0290998
0.029793
0.0308472
0.0300439
0.029319
0.0287242
0.0283909
0.0281987
0.028007
0.0277711
0.0276495
0.0275766
0.0276108
0.0279958
0.0290287
0.0285634
0.027986
0.0275457
0.0272077
0.0267492
0.0261482
0.0255345
0.0248083
0.0239671
0.0231207
0.0225902
0.0231185
0.0267154
0.0262159
0.0255973
0.0249132
0.0240058
0.0229455
0.0216931
0.0201605
0.0183921
0.0164998
0.014826
0.013879
0.0321662
0.0330302
0.0330927
0.0333288
0.0334865
0.0336966
0.0338811
0.0340487
0.0342059
0.0343688
0.0339659
0.0330669
0.0306925
0.0331752
0.0329987
0.0330506
0.0331017
0.0331554
0.0331818
0.0331542
0.0329686
0.0325598
0.0320374
0.0311339
0.0256174
0.0314322
0.0318687
0.0319042
0.0319299
0.0319304
0.0318777
0.0316158
0.0312373
0.0308346
0.0303068
0.0293688
0.0147294
0.0284935
0.0302268
0.0303111
0.0303339
0.0302408
0.030018
0.0296648
0.029373
0.0289721
0.0283269
0.0274299
0.0315712
0.0304433
0.0295016
0.0288614
0.028518
0.0283851
0.028335
0.0283964
0.0286935
0.0290999
0.0297931
0.0308473
0.0300443
0.0293194
0.0287246
0.0283913
0.0281989
0.0280072
0.0277713
0.0276496
0.0275767
0.0276109
0.0279958
0.0290288
0.0285638
0.0279864
0.027546
0.0272079
0.0267493
0.0261483
0.0255346
0.0248083
0.0239671
0.0231207
0.0225903
0.0231185
0.0267158
0.0262161
0.0255975
0.0249133
0.0240059
0.0229456
0.0216931
0.0201606
0.0183922
0.0164998
0.014826
0.013879
0.0321663
0.0330303
0.0330928
0.0333289
0.0334866
0.0336967
0.0338811
0.0340488
0.034206
0.0343689
0.033966
0.033067
0.0306925
0.0331753
0.0329988
0.0330507
0.0331018
0.0331554
0.0331818
0.0331542
0.0329686
0.0325598
0.0320374
0.0311339
0.0256175
0.0314322
0.0318688
0.0319042
0.0319299
0.0319304
0.0318777
0.0316158
0.0312373
0.0308347
0.0303068
0.0293688
0.0147295
0.0284935
0.0302268
0.0303111
0.0303339
0.0302408
0.030018
0.0296648
0.029373
0.0289721
0.0283269
0.0274299
0.0315712
0.0304433
0.0295016
0.0288614
0.028518
0.0283851
0.028335
0.0283964
0.0286935
0.0290998
0.029793
0.0308472
0.0300443
0.0293193
0.0287246
0.0283912
0.0281989
0.0280071
0.0277712
0.0276496
0.0275766
0.0276108
0.0279957
0.0290286
0.0285637
0.0279863
0.027546
0.0272079
0.0267493
0.0261483
0.0255345
0.0248083
0.0239671
0.0231206
0.0225902
0.0231184
0.0267157
0.0262161
0.0255975
0.0249133
0.0240058
0.0229456
0.0216931
0.0201605
0.0183921
0.0164998
0.014826
0.013879
0.0321661
0.0330301
0.0330926
0.0333287
0.0334864
0.0336965
0.0338809
0.0340486
0.0342058
0.0343687
0.0339658
0.0330668
0.0306924
0.0331751
0.0329986
0.0330505
0.0331016
0.0331552
0.0331816
0.033154
0.0329684
0.0325596
0.0320372
0.0311337
0.0256173
0.031432
0.0318686
0.031904
0.0319297
0.0319302
0.0318775
0.0316156
0.0312372
0.0308345
0.0303067
0.0293687
0.0147294
0.0284933
0.0302266
0.0303109
0.0303337
0.0302406
0.0300178
0.0296646
0.0293729
0.028972
0.0283267
0.0274297
0.0315711
0.0304431
0.0295015
0.0288612
0.0285178
0.028385
0.0283349
0.0283963
0.0286934
0.0290997
0.0297929
0.0308471
0.0300442
0.0293192
0.0287245
0.0283911
0.0281987
0.028007
0.0277711
0.0276495
0.0275765
0.0276107
0.0279956
0.0290285
0.0285636
0.0279862
0.0275458
0.0272078
0.0267492
0.0261482
0.0255344
0.0248082
0.023967
0.0231206
0.0225901
0.0231183
0.0267156
0.026216
0.0255973
0.0249132
0.0240057
0.0229455
0.021693
0.0201605
0.0183921
0.0164997
0.0148259
0.0138789
0.032166
0.03303
0.0330924
0.0333285
0.0334862
0.0336963
0.0338807
0.0340484
0.0342055
0.0343685
0.0339656
0.0330664
0.0306923
0.0331749
0.0329984
0.0330503
0.0331014
0.033155
0.0331814
0.0331538
0.0329681
0.0325593
0.0320369
0.0311333
0.0256172
0.0314318
0.0318684
0.0319038
0.0319295
0.03193
0.0318773
0.0316154
0.0312369
0.0308342
0.0303064
0.0293684
0.0147294
0.0284932
0.0302264
0.0303107
0.0303335
0.0302403
0.0300176
0.0296643
0.0293726
0.0289717
0.0283265
0.0274297
0.0243831
0.0236527
0.0226972
0.0216136
0.0202886
0.0187091
0.0168056
0.0145237
0.0118748
0.00893715
0.00545706
0.00282606
0.0213311
0.0202964
0.0190316
0.0175742
0.0158302
0.0137832
0.011382
0.00862649
0.00549731
0.0026662
0.001233
0.001199
0.0176417
0.0162972
0.0147035
0.0128637
0.0107064
0.00822968
0.00531437
0.00239951
0.000759054
0.000392896
0.000413984
0.000519785
0.0133632
0.0116941
0.00975827
0.00753013
0.00487924
0.00218709
0.000566807
0.000239962
0.000206657
0.000297439
0.000262465
0.000275711
0.00855822
0.00653337
0.00417462
0.00186323
0.000511083
0.000234149
0.000226127
0.000255622
0.000246093
0.000243734
0.000240708
0.000235963
0.00321775
0.00139711
0.000446426
0.000273165
0.000248765
0.000256879
0.000253362
0.000249709
0.000247978
0.000245459
0.000243523
0.00024153
0.000362207
0.000524804
0.000264225
0.000264259
0.000262965
0.000259541
0.000258133
0.000255674
0.000253769
0.000251653
0.000250584
0.000248773
0.000276502
0.000276434
0.000272427
0.000269734
0.000267938
0.00026598
0.000264123
0.000262239
0.000260372
0.000259002
0.000257809
0.000256096
0.000280735
0.000278145
0.000276472
0.000274789
0.000273077
0.000271432
0.000269756
0.000268101
0.000266472
0.000264956
0.000263805
0.000262357
0.000278151
0.000276925
0.000275657
0.000274438
0.000273159
0.000271901
0.000270595
0.00026929
0.000267937
0.000266582
0.00026521
0.000263915
0.000236875
0.000238166
0.000239459
0.000240551
0.000241742
0.000242932
0.000244277
0.000245723
0.000247344
0.000249037
0.00025078
0.00025213
7.37859e-05
7.30369e-05
7.314e-05
7.25862e-05
7.26654e-05
7.22762e-05
7.23512e-05
7.21461e-05
7.22273e-05
7.2238e-05
7.23325e-05
7.24612e-05
0.00431794
0.0246349
0.0283699
0.0283782
0.0283241
0.0280725
0.0277914
0.0275608
0.0272569
0.0267716
0.0259808
0.0251254
0.00415542
0.0226282
0.0263534
0.0260236
0.0258509
0.0256208
0.0254416
0.0252078
0.0247708
0.0240763
0.0231869
0.0222525
0.00404824
0.0206775
0.0237499
0.0233796
0.0232209
0.0230705
0.0228167
0.022409
0.0217525
0.0208444
0.0198614
0.0188022
0.00392877
0.0184981
0.0207968
0.0206579
0.0204862
0.020179
0.0197709
0.0190781
0.0181928
0.0171813
0.0160575
0.0147988
0.00377391
0.0161618
0.0178747
0.0177342
0.0174159
0.0168881
0.0161699
0.0152986
0.0142769
0.0131022
0.0117815
0.0102804
0.00355479
0.0137748
0.0150157
0.0145056
0.0139138
0.0131411
0.01226
0.0111897
0.0100224
0.00864931
0.00707728
0.00524502
0.00328715
0.0108401
0.0118828
0.010697
0.0101805
0.00912287
0.00811257
0.00675653
0.00534988
0.00370703
0.00219057
0.000906526
0.00293143
0.00765202
0.00835538
0.0067017
0.00620526
0.00465496
0.00362126
0.0022033
0.00126138
0.000528574
0.000299025
0.00038286
0.00239721
0.00386187
0.00424408
0.00257894
0.00226268
0.00100275
0.00072728
0.000404287
0.000309266
0.000293061
0.000283175
0.00028323
0.00179171
0.000974945
0.00112137
0.00049181
0.000450948
0.000315883
0.000287192
0.00027674
0.000282288
0.000280787
0.000280758
0.000279479
0.00117288
0.00018466
0.000234057
0.000193896
0.000213757
0.000208552
0.000223397
0.000225344
0.000228384
0.000231168
0.000233278
0.000235128
0.00040837
8.65645e-05
8.6297e-05
8.09206e-05
8.04855e-05
7.76389e-05
7.78511e-05
7.55985e-05
7.59592e-05
7.44379e-05
7.46768e-05
7.36312e-05
0.0243833
0.0236529
0.0226974
0.0216137
0.0202887
0.0187092
0.0168057
0.0145238
0.0118748
0.00893716
0.00545706
0.00282606
0.0213314
0.0202966
0.0190317
0.0175743
0.0158302
0.0137833
0.011382
0.00862652
0.00549732
0.00266621
0.00123299
0.001199
0.0176419
0.0162973
0.0147036
0.0128638
0.0107065
0.00822971
0.00531439
0.00239952
0.000759054
0.000392898
0.000413983
0.000519785
0.0133634
0.0116942
0.00975835
0.00753018
0.00487928
0.00218711
0.000566814
0.000239979
0.000206657
0.000297462
0.000262473
0.000275717
0.00855831
0.00653344
0.00417468
0.00186326
0.000511087
0.000234176
0.000226105
0.000255627
0.000246099
0.000243743
0.000240715
0.000235971
0.00321779
0.00139715
0.000446436
0.000273057
0.000248763
0.000256876
0.000253361
0.00024971
0.00024798
0.00024546
0.000243524
0.000241531
0.000362137
0.000524421
0.000264225
0.000264257
0.000262964
0.00025954
0.000258132
0.000255673
0.000253768
0.000251652
0.000250583
0.000248772
0.0002765
0.00027643
0.000272426
0.000269733
0.000267937
0.000265979
0.000264122
0.000262238
0.00026037
0.000259
0.000257808
0.000256095
0.000280734
0.000278144
0.000276471
0.000274789
0.000273076
0.000271431
0.000269755
0.0002681
0.000266471
0.000264955
0.000263805
0.000262357
0.00027815
0.000276925
0.000275657
0.000274438
0.000273159
0.000271901
0.000270595
0.00026929
0.000267937
0.000266581
0.00026521
0.000263915
0.000236875
0.000238166
0.000239459
0.000240551
0.000241742
0.000242932
0.000244277
0.000245724
0.000247344
0.000249037
0.00025078
0.00025213
7.37859e-05
7.30369e-05
7.314e-05
7.25862e-05
7.26655e-05
7.22762e-05
7.23512e-05
7.21461e-05
7.22274e-05
7.2238e-05
7.23325e-05
7.24612e-05
0.00431795
0.0246349
0.0283699
0.0283782
0.0283241
0.0280724
0.0277914
0.0275608
0.0272569
0.0267715
0.0259807
0.0251253
0.00415542
0.0226282
0.0263534
0.0260236
0.0258509
0.0256208
0.0254416
0.0252078
0.0247707
0.0240763
0.0231869
0.0222525
0.00404823
0.0206775
0.0237498
0.0233796
0.0232208
0.0230705
0.0228167
0.022409
0.0217525
0.0208443
0.0198613
0.0188022
0.00392877
0.018498
0.0207967
0.0206578
0.0204861
0.0201789
0.0197709
0.019078
0.0181927
0.0171813
0.0160574
0.0147988
0.00377391
0.0161617
0.0178746
0.0177341
0.0174158
0.016888
0.0161699
0.0152985
0.0142768
0.0131021
0.0117815
0.0102803
0.00355479
0.0137747
0.0150156
0.0145055
0.0139137
0.013141
0.0122599
0.0111896
0.0100223
0.00864923
0.00707721
0.00524495
0.00328714
0.01084
0.0118827
0.0106968
0.0101804
0.00912277
0.00811246
0.00675643
0.00534979
0.00370695
0.00219051
0.000906499
0.00293141
0.0076519
0.00835525
0.00670156
0.00620513
0.00465483
0.00362116
0.00220321
0.00126133
0.000528559
0.00029902
0.000382853
0.00239719
0.0038617
0.00424392
0.00257883
0.00226258
0.0010027
0.000727246
0.000404284
0.000309263
0.00029306
0.000283176
0.000283231
0.00179168
0.000974875
0.00112129
0.000491784
0.000450927
0.00031588
0.000287192
0.00027674
0.000282289
0.000280789
0.000280759
0.00027948
0.00117287
0.000184652
0.000234049
0.000193896
0.000213758
0.000208553
0.000223398
0.000225345
0.000228384
0.000231169
0.000233279
0.000235129
0.000408364
8.65652e-05
8.62964e-05
8.09207e-05
8.04856e-05
7.7639e-05
7.78512e-05
7.55986e-05
7.59594e-05
7.4438e-05
7.46769e-05
7.36313e-05
0.0243833
0.0236528
0.0226973
0.0216137
0.0202887
0.0187092
0.0168056
0.0145237
0.0118747
0.00893712
0.00545704
0.00282605
0.0213313
0.0202965
0.0190317
0.0175743
0.0158302
0.0137833
0.0113819
0.00862648
0.00549729
0.00266619
0.00123299
0.00119899
0.0176418
0.0162972
0.0147036
0.0128637
0.0107065
0.00822967
0.00531434
0.00239949
0.000759046
0.000392896
0.000413982
0.000519782
0.0133633
0.0116941
0.0097583
0.00753013
0.00487923
0.00218708
0.000566806
0.00023998
0.00020666
0.000297463
0.000262475
0.000275718
0.00855825
0.00653338
0.00417463
0.00186323
0.00051108
0.000234177
0.000226105
0.000255626
0.0002461
0.000243744
0.000240717
0.000235972
0.00321773
0.00139712
0.000446428
0.000273061
0.000248764
0.000256877
0.000253362
0.000249711
0.00024798
0.000245461
0.000243524
0.000241531
0.00036213
0.000524434
0.000264226
0.000264258
0.000262965
0.000259541
0.000258133
0.000255674
0.000253769
0.000251653
0.000250584
0.000248773
0.0002765
0.000276431
0.000272427
0.000269734
0.000267938
0.00026598
0.000264123
0.000262238
0.000260371
0.000259001
0.000257809
0.000256095
0.000280735
0.000278145
0.000276472
0.000274789
0.000273077
0.000271432
0.000269756
0.0002681
0.000266472
0.000264956
0.000263805
0.000262357
0.000278151
0.000276925
0.000275657
0.000274439
0.00027316
0.000271901
0.000270595
0.000269291
0.000267937
0.000266582
0.000265211
0.000263916
0.000236876
0.000238167
0.00023946
0.000240551
0.000241743
0.000242933
0.000244278
0.000245724
0.000247345
0.000249038
0.000250781
0.000252131
7.37861e-05
7.30371e-05
7.31401e-05
7.25863e-05
7.26656e-05
7.22764e-05
7.23514e-05
7.21462e-05
7.22275e-05
7.22381e-05
7.23326e-05
7.24614e-05
0.00431793
0.0246347
0.0283698
0.028378
0.0283239
0.0280723
0.0277912
0.0275606
0.0272567
0.0267714
0.0259806
0.0251252
0.00415541
0.0226281
0.0263532
0.0260234
0.0258508
0.0256206
0.0254415
0.0252077
0.0247706
0.0240762
0.0231868
0.0222524
0.00404822
0.0206774
0.0237497
0.0233794
0.0232207
0.0230703
0.0228166
0.0224089
0.0217523
0.0208442
0.0198612
0.0188021
0.00392876
0.0184979
0.0207966
0.0206577
0.020486
0.0201788
0.0197707
0.0190779
0.0181926
0.0171812
0.0160573
0.0147987
0.00377389
0.0161616
0.0178745
0.0177339
0.0174157
0.0168879
0.0161697
0.0152984
0.0142767
0.013102
0.0117814
0.0102802
0.00355477
0.0137746
0.0150155
0.0145054
0.0139135
0.0131409
0.0122597
0.0111895
0.0100222
0.00864913
0.00707712
0.00524486
0.00328712
0.0108399
0.0118825
0.0106967
0.0101802
0.00912265
0.00811234
0.00675632
0.00534968
0.00370686
0.00219044
0.000906466
0.00293139
0.00765175
0.00835508
0.00670142
0.00620499
0.00465471
0.00362106
0.00220313
0.00126128
0.000528541
0.000299015
0.000382844
0.00239716
0.00386152
0.00424374
0.00257871
0.00226247
0.00100265
0.000727213
0.000404282
0.00030926
0.000293058
0.000283176
0.000283231
0.00179165
0.0009748
0.00112121
0.000491757
0.000450905
0.000315877
0.000287191
0.00027674
0.000282289
0.000280789
0.000280759
0.00027948
0.00117284
0.000184643
0.000234041
0.000193896
0.000213758
0.000208554
0.000223398
0.000225345
0.000228384
0.000231169
0.000233279
0.000235129
0.000408354
8.65655e-05
8.62953e-05
8.09204e-05
8.04854e-05
7.76388e-05
7.7851e-05
7.55985e-05
7.59592e-05
7.44379e-05
7.46768e-05