/*--------------------------------*- C++ -*----------------------------------*\
| =========                 |                                                 |
| \\      /  F ield         | OpenFOAM: The Open Source CFD Toolbox           |
|  \\    /   O peration     | Version:  2212                                  |
|   \\  /    A nd           | Website:  www.openfoam.com                      |
|    \\/     M anipulation  |                                                 |
\*---------------------------------------------------------------------------*/
FoamFile
{
    version     2.0;
    format      ascii;
    arch        "LSB;label=32;scalar=64";
    class       volScalarField;
    location    "0.03";
    object      p;
}
// * * * * * * * * * * * * * * * * * * * * * * * * * * * * * * * * * * * * * //

dimensions      [1 -1 -2 0 0 0 0];

internalField   nonuniform List<scalar> 
3072
(
97927
97915.5
97907.3
97899.1
97897.2
97896.3
97898.3
97897.6
97913.2
97940.1
97936.3
97898.6
98018.3
97985.9
97976
97966.7
97968.4
97973
97991.1
98019.9
98072
98159
98202.2
98216.7
98078
98029.6
98019.3
98014.1
98027.7
98052.8
98093.9
98147.3
98198.1
98249.5
98286.6
98313.2
98179.3
98124.5
98116.1
98117.9
98146.6
98195.3
98256.1
98313.9
98364.7
98407.6
98438.8
98463.7
98286.9
98241.5
98238.7
98253.1
98296.2
98356.4
98421.2
98477.7
98525.5
98563
98590.5
98611.5
98418.5
98382.8
98389
98415.8
98467.7
98529.8
98589.1
98638.1
98677.2
98707.8
98730.7
98748
98546.9
98532.6
98547.9
98586.1
98642
98700.7
98751.5
98791.1
98822.1
98845.9
98863.7
98876.8
98681.9
98687.4
98711.2
98756.1
98809.7
98860.6
98901.8
98933.1
98956.8
98974.5
98987.5
98996.8
98812.2
98846
98873.3
98920.3
98966.8
99008
99039.9
99063.4
99080.6
99092.9
99101.7
99107.7
98942.8
98996.8
99029.5
99076.5
99114.8
99145.5
99167.8
99183.5
99194.4
99202
99207
99210
99083
99160
99185.3
99224
99252
99271.5
99284.3
99292.6
99297.9
99301.4
99303.5
99304.1
99196.8
99316.5
99332.5
99353.9
99368.8
99378
99383.4
99386.4
99388.3
99389.5
99390.1
99389.4
97865.8
97849.4
97852.4
97874.8
97913.3
97965.5
98027.5
98092.5
98150.2
98191.9
98218.1
98194.6
98225.9
98225.2
98227.1
98230.6
98239.9
98254.1
98272.6
98292.2
98308
98327.1
98338.8
98254.9
98329.6
98338.9
98347.2
98356.1
98367.4
98378.7
98389.1
98394.8
98392.7
98391.4
98379.5
98253.9
98481.7
98494.7
98504.9
98512.4
98517.4
98519.6
98518.4
98510.2
98492
98469.6
98439.8
98278.7
98626.4
98636.7
98643.6
98647.6
98648.6
98646.2
98639.3
98626
98602
98568.6
98528.3
98351.6
98760.3
98768.6
98773.6
98775.7
98774.8
98770.7
98762
98747.6
98724.2
98688.8
98645.3
98471.7
98886
98891.9
98895.1
98895.9
98894.4
98890.4
98883.3
98871.8
98853.8
98825.3
98791.1
98637.5
99003
99006.8
99008.5
99008.5
99007.1
99004.6
99000.7
98995
98986.5
98971.9
98958.4
98845.2
99111.4
99113.1
99113.5
99112.8
99111.9
99111.2
99111.4
99112.8
99116.2
99120.6
99138.1
99089.6
99211.4
99211.2
99210.2
99208.8
99207.8
99208.6
99212.4
99220.6
99235.4
99259.6
99317.4
99355.1
99303.4
99301.1
99298.5
99295.7
99294
99295.1
99301
99314
99336.8
99376.5
99477.6
99612.2
99387.5
99382.9
99378.1
99373.1
99369.6
99369.3
99374.7
99388.7
99413.4
99459.2
99575.2
99835.9
97927
97915.5
97907.2
97899.1
97897.2
97896.3
97898.3
97897.6
97913.2
97940.1
97936.3
97898.6
98018.3
97985.9
97976
97966.7
97968.4
97973
97991.1
98019.9
98072
98159
98202.2
98216.7
98078
98029.6
98019.3
98014.1
98027.7
98052.8
98093.9
98147.3
98198.1
98249.5
98286.6
98313.2
98179.3
98124.5
98116.1
98117.9
98146.6
98195.3
98256.1
98313.9
98364.7
98407.6
98438.8
98463.7
98286.9
98241.5
98238.7
98253.1
98296.2
98356.4
98421.2
98477.7
98525.5
98563
98590.5
98611.5
98418.5
98382.9
98389
98415.8
98467.7
98529.8
98589.1
98638.1
98677.2
98707.8
98730.7
98748
98546.9
98532.6
98547.9
98586.1
98642
98700.7
98751.5
98791.1
98822.1
98845.9
98863.7
98876.8
98681.9
98687.4
98711.2
98756.1
98809.7
98860.6
98901.8
98933.1
98956.8
98974.5
98987.5
98996.8
98812.2
98846.1
98873.3
98920.3
98966.8
99008
99039.9
99063.4
99080.6
99092.9
99101.7
99107.7
98942.8
98996.8
99029.5
99076.5
99114.8
99145.5
99167.8
99183.5
99194.4
99202
99207
99210
99083
99160
99185.3
99224
99252
99271.5
99284.3
99292.6
99297.9
99301.4
99303.5
99304.1
99196.8
99316.5
99332.5
99353.9
99368.8
99378
99383.4
99386.4
99388.3
99389.5
99390.1
99389.4
97865.8
97849.4
97852.4
97874.8
97913.3
97965.5
98027.5
98092.5
98150.2
98191.9
98218.1
98194.6
98225.9
98225.2
98227.1
98230.6
98239.9
98254.1
98272.6
98292.2
98308
98327.1
98338.8
98254.9
98329.6
98338.9
98347.2
98356.1
98367.4
98378.7
98389.1
98394.8
98392.7
98391.4
98379.5
98253.9
98481.7
98494.7
98504.9
98512.4
98517.4
98519.6
98518.4
98510.2
98492
98469.6
98439.8
98278.7
98626.4
98636.7
98643.6
98647.6
98648.6
98646.2
98639.3
98626
98602
98568.6
98528.3
98351.6
98760.3
98768.6
98773.6
98775.7
98774.8
98770.7
98762
98747.6
98724.2
98688.8
98645.3
98471.7
98886
98891.9
98895.1
98895.9
98894.4
98890.4
98883.3
98871.8
98853.8
98825.3
98791.1
98637.5
99003
99006.8
99008.5
99008.5
99007.1
99004.6
99000.7
98995
98986.5
98971.9
98958.4
98845.2
99111.4
99113.1
99113.5
99112.9
99111.9
99111.2
99111.4
99112.8
99116.2
99120.6
99138.1
99089.6
99211.4
99211.2
99210.2
99208.8
99207.8
99208.6
99212.4
99220.6
99235.4
99259.6
99317.4
99355.1
99303.4
99301.1
99298.5
99295.7
99294
99295.1
99301
99314
99336.8
99376.5
99477.6
99612.2
99387.5
99382.9
99378.1
99373.1
99369.6
99369.4
99374.7
99388.7
99413.4
99459.2
99575.2
99835.9
97927
97915.5
97907.3
97899.1
97897.2
97896.3
97898.3
97897.6
97913.2
97940.1
97936.3
97898.6
98018.3
97985.9
97976
97966.7
97968.4
97973
97991.1
98019.9
98072
98159
98202.2
98216.7
98078
98029.6
98019.3
98014.1
98027.7
98052.8
98093.9
98147.3
98198.1
98249.5
98286.6
98313.2
98179.3
98124.5
98116.1
98117.9
98146.6
98195.3
98256.1
98313.9
98364.7
98407.6
98438.8
98463.7
98286.9
98241.5
98238.7
98253.1
98296.2
98356.4
98421.2
98477.7
98525.5
98563
98590.5
98611.5
98418.5
98382.8
98389
98415.8
98467.7
98529.8
98589.1
98638.1
98677.2
98707.8
98730.7
98748
98546.9
98532.6
98547.9
98586.1
98642
98700.7
98751.5
98791.1
98822.1
98845.9
98863.7
98876.8
98681.9
98687.4
98711.2
98756.1
98809.7
98860.6
98901.8
98933.1
98956.8
98974.5
98987.5
98996.8
98812.2
98846
98873.3
98920.3
98966.8
99008
99039.9
99063.4
99080.6
99092.9
99101.7
99107.7
98942.8
98996.8
99029.5
99076.5
99114.8
99145.5
99167.8
99183.5
99194.4
99202
99207
99210
99083
99160
99185.3
99224
99252
99271.5
99284.3
99292.6
99297.9
99301.4
99303.5
99304.1
99196.8
99316.5
99332.5
99353.9
99368.8
99378
99383.4
99386.4
99388.3
99389.5
99390.1
99389.4
97865.8
97849.4
97852.4
97874.8
97913.3
97965.5
98027.5
98092.5
98150.2
98191.9
98218.1
98194.6
98225.9
98225.2
98227.1
98230.6
98239.9
98254.1
98272.6
98292.2
98308
98327.1
98338.8
98254.9
98329.6
98338.9
98347.2
98356.1
98367.4
98378.7
98389.1
98394.8
98392.7
98391.4
98379.5
98253.9
98481.7
98494.7
98504.9
98512.4
98517.4
98519.6
98518.4
98510.2
98492
98469.6
98439.8
98278.7
98626.4
98636.7
98643.6
98647.6
98648.6
98646.2
98639.3
98626
98602
98568.6
98528.3
98351.6
98760.3
98768.6
98773.6
98775.7
98774.8
98770.7
98762
98747.6
98724.2
98688.8
98645.3
98471.7
98886
98891.9
98895.1
98895.9
98894.4
98890.4
98883.3
98871.8
98853.8
98825.3
98791.1
98637.5
99003
99006.8
99008.5
99008.5
99007.1
99004.6
99000.7
98995
98986.5
98971.9
98958.4
98845.2
99111.4
99113.1
99113.5
99112.9
99111.9
99111.2
99111.4
99112.8
99116.2
99120.6
99138.1
99089.6
99211.4
99211.2
99210.2
99208.8
99207.8
99208.6
99212.4
99220.6
99235.4
99259.6
99317.4
99355.1
99303.4
99301.1
99298.5
99295.7
99294
99295.1
99301
99314
99336.8
99376.5
99477.6
99612.2
99387.5
99382.9
99378.1
99373.1
99369.6
99369.4
99374.7
99388.7
99413.4
99459.2
99575.2
99835.9
97927
97915.5
97907.2
97899.1
97897.2
97896.3
97898.3
97897.6
97913.2
97940.1
97936.3
97898.6
98018.3
97985.9
97976
97966.7
97968.4
97973
97991.1
98019.9
98072
98159
98202.2
98216.7
98078
98029.6
98019.3
98014.1
98027.7
98052.8
98093.9
98147.3
98198.1
98249.5
98286.6
98313.2
98179.3
98124.5
98116.1
98117.9
98146.6
98195.3
98256.1
98313.9
98364.7
98407.6
98438.8
98463.7
98286.9
98241.5
98238.7
98253.1
98296.2
98356.4
98421.2
98477.7
98525.5
98563
98590.5
98611.5
98418.5
98382.9
98389
98415.8
98467.7
98529.8
98589.1
98638.1
98677.2
98707.8
98730.7
98748
98546.9
98532.6
98547.9
98586.1
98642
98700.7
98751.5
98791.1
98822.1
98845.9
98863.7
98876.8
98681.9
98687.4
98711.2
98756.1
98809.7
98860.6
98901.8
98933.1
98956.8
98974.5
98987.5
98996.8
98812.2
98846.1
98873.3
98920.3
98966.8
99008
99039.9
99063.4
99080.6
99092.9
99101.7
99107.7
98942.8
98996.8
99029.5
99076.5
99114.8
99145.5
99167.8
99183.5
99194.4
99202
99207
99210
99083
99160
99185.3
99224
99252
99271.5
99284.3
99292.6
99297.9
99301.4
99303.5
99304.1
99196.8
99316.5
99332.5
99353.9
99368.8
99378
99383.4
99386.4
99388.3
99389.5
99390.1
99389.4
97865.8
97849.4
97852.4
97874.8
97913.3
97965.5
98027.5
98092.5
98150.2
98191.9
98218.1
98194.6
98225.9
98225.2
98227.1
98230.6
98239.9
98254.1
98272.6
98292.2
98308
98327.1
98338.8
98254.9
98329.6
98338.9
98347.2
98356.1
98367.4
98378.7
98389.1
98394.8
98392.7
98391.4
98379.5
98253.9
98481.7
98494.7
98504.9
98512.4
98517.4
98519.6
98518.4
98510.2
98492
98469.6
98439.8
98278.7
98626.4
98636.7
98643.6
98647.6
98648.6
98646.2
98639.3
98626
98602
98568.6
98528.3
98351.6
98760.3
98768.6
98773.6
98775.7
98774.8
98770.7
98762
98747.6
98724.2
98688.8
98645.3
98471.7
98886
98891.9
98895.1
98895.9
98894.4
98890.4
98883.3
98871.8
98853.8
98825.3
98791.1
98637.5
99003
99006.8
99008.5
99008.5
99007.1
99004.6
99000.7
98995
98986.5
98971.9
98958.4
98845.2
99111.4
99113.1
99113.5
99112.8
99111.9
99111.2
99111.4
99112.8
99116.2
99120.6
99138.1
99089.6
99211.4
99211.2
99210.2
99208.8
99207.8
99208.6
99212.4
99220.6
99235.4
99259.6
99317.4
99355.1
99303.4
99301.1
99298.5
99295.7
99294
99295.1
99301
99314
99336.8
99376.5
99477.6
99612.2
99387.5
99382.9
99378.1
99373.1
99369.6
99369.4
99374.7
99388.7
99413.4
99459.2
99575.2
99835.9
99458.8
99461.1
99454.5
99453.5
99455.9
99458.7
99460.4
99461.8
99463.4
99465.1
99466
99465.7
99498.7
99481.3
99488.1
99495.8
99503.3
99509.7
99514.6
99519.2
99523.8
99528.5
99532
99533.9
99515.9
99510.3
99517.8
99525.9
99534.6
99543.8
99553.1
99562.8
99572.8
99582.9
99591.1
99597.8
99529.4
99532.1
99537.9
99545.2
99554.7
99566.8
99580.9
99597
99614.7
99633.1
99650.4
99666.5
99463.6
99456.6
99449.1
99440.7
99433.9
99430.3
99432.2
99442.9
99462
99494.3
99533
99633.2
99532.4
99522.1
99511.6
99498.5
99486.8
99477.6
99473.5
99478.1
99490
99513.4
99527.2
99568.8
99596.7
99580.5
99566.5
99547.2
99528.7
99511.2
99498.5
99494.3
99497.7
99514
99521.5
99544.8
99665.8
99637.2
99618.2
99589.9
99562.8
99534.6
99510.4
99493.2
99485.6
99494.5
99502.6
99528.4
99458.8
99461.1
99454.5
99453.5
99455.9
99458.7
99460.4
99461.8
99463.4
99465.1
99466
99465.7
99498.7
99481.3
99488.1
99495.8
99503.3
99509.7
99514.6
99519.2
99523.8
99528.5
99532
99533.9
99515.9
99510.3
99517.8
99525.9
99534.6
99543.8
99553.1
99562.8
99572.8
99582.9
99591.1
99597.8
99529.4
99532.1
99537.9
99545.2
99554.7
99566.8
99580.9
99597
99614.7
99633.1
99650.4
99666.5
99463.6
99456.6
99449.1
99440.7
99433.9
99430.3
99432.2
99442.9
99462
99494.3
99533
99633.2
99532.4
99522.1
99511.6
99498.5
99486.8
99477.6
99473.5
99478.1
99490
99513.4
99527.2
99568.8
99596.7
99580.5
99566.5
99547.2
99528.7
99511.2
99498.5
99494.3
99497.7
99514
99521.5
99544.8
99665.8
99637.2
99618.1
99589.9
99562.8
99534.6
99510.4
99493.2
99485.6
99494.5
99502.6
99528.4
99458.8
99461.1
99454.5
99453.5
99455.9
99458.7
99460.5
99461.8
99463.4
99465.1
99466
99465.7
99498.7
99481.3
99488.1
99495.8
99503.3
99509.7
99514.6
99519.2
99523.8
99528.5
99532
99533.9
99515.9
99510.3
99517.8
99525.9
99534.6
99543.8
99553.1
99562.8
99572.8
99582.9
99591.1
99597.8
99529.4
99532.1
99537.9
99545.2
99554.7
99566.8
99580.9
99597
99614.7
99633.1
99650.4
99666.5
99463.6
99456.6
99449.1
99440.7
99433.9
99430.3
99432.2
99442.9
99462
99494.3
99533
99633.2
99532.4
99522.1
99511.6
99498.5
99486.8
99477.6
99473.5
99478.1
99490
99513.4
99527.2
99568.8
99596.7
99580.5
99566.5
99547.2
99528.7
99511.2
99498.5
99494.3
99497.7
99514
99521.5
99544.8
99665.8
99637.2
99618.2
99589.9
99562.8
99534.6
99510.4
99493.2
99485.6
99494.5
99502.6
99528.4
99458.8
99461.1
99454.5
99453.5
99455.9
99458.7
99460.4
99461.8
99463.4
99465.1
99466
99465.7
99498.7
99481.3
99488.1
99495.8
99503.3
99509.7
99514.6
99519.2
99523.8
99528.5
99532
99533.9
99515.9
99510.3
99517.8
99525.9
99534.6
99543.8
99553.1
99562.8
99572.8
99582.9
99591.1
99597.8
99529.4
99532.1
99537.9
99545.2
99554.7
99566.8
99580.9
99597
99614.7
99633.1
99650.4
99666.5
99463.6
99456.6
99449.1
99440.7
99433.9
99430.3
99432.2
99442.9
99462
99494.3
99533
99633.2
99532.4
99522.1
99511.6
99498.5
99486.8
99477.6
99473.5
99478.1
99490
99513.4
99527.2
99568.8
99596.7
99580.5
99566.5
99547.2
99528.7
99511.2
99498.5
99494.3
99497.7
99514
99521.5
99544.8
99665.8
99637.2
99618.1
99589.9
99562.8
99534.6
99510.4
99493.2
99485.6
99494.5
99502.6
99528.4
99546.8
99555
99560.5
99566.8
99575
99585.7
99598.6
99613.6
99630.1
99647.7
99665.1
99683.7
99570.7
99577.7
99583.1
99589.1
99595.7
99603.3
99611.5
99620.3
99629.1
99638.7
99647.3
99661.7
99590.4
99595.6
99600
99604.8
99609.6
99614.7
99619.6
99624.4
99628.2
99633.6
99637.8
99643.4
99605.1
99608.7
99611.8
99615
99617.8
99620.8
99623.1
99625.2
99626
99628.9
99625.6
99600.1
99697.3
99670.6
99651.7
99621.2
99593.8
99563.7
99537.2
99515.7
99503.3
99505.1
99509.8
99532.8
99697
99668.6
99658.7
99634.1
99614.5
99592
99573
99557.7
99548.7
99548.4
99550.6
99562.9
99718.1
99668.6
99667.4
99645.5
99630.7
99612.6
99598.1
99586.1
99579
99577.7
99578.9
99585.8
99762.9
99666.8
99674.3
99655.1
99643.2
99628.2
99616.5
99606.6
99600.5
99598.5
99598.4
99602.2
99546.8
99555
99560.5
99566.8
99575
99585.7
99598.6
99613.6
99630.1
99647.7
99665.1
99683.7
99570.7
99577.7
99583.1
99589.1
99595.7
99603.3
99611.5
99620.3
99629.1
99638.7
99647.3
99661.7
99590.4
99595.6
99600
99604.8
99609.6
99614.7
99619.6
99624.4
99628.2
99633.6
99637.8
99643.4
99605.1
99608.7
99611.8
99615
99617.8
99620.8
99623.1
99625.2
99626
99628.9
99625.6
99600.1
99697.3
99670.6
99651.7
99621.2
99593.8
99563.7
99537.2
99515.7
99503.3
99505.1
99509.8
99532.8
99697
99668.6
99658.7
99634.1
99614.5
99592
99573
99557.7
99548.7
99548.4
99550.6
99562.9
99718.1
99668.6
99667.4
99645.5
99630.7
99612.6
99598.1
99586.1
99579
99577.7
99578.9
99585.8
99762.9
99666.8
99674.3
99655.1
99643.2
99628.2
99616.5
99606.6
99600.5
99598.5
99598.4
99602.2
99546.8
99555
99560.5
99566.8
99575
99585.7
99598.6
99613.6
99630.1
99647.7
99665.1
99683.7
99570.7
99577.7
99583.1
99589.1
99595.7
99603.3
99611.5
99620.3
99629.1
99638.7
99647.3
99661.7
99590.4
99595.6
99600
99604.8
99609.6
99614.7
99619.6
99624.4
99628.2
99633.6
99637.8
99643.4
99605.1
99608.7
99611.8
99615
99617.8
99620.8
99623.1
99625.2
99626
99628.9
99625.6
99600.1
99697.3
99670.6
99651.7
99621.2
99593.8
99563.7
99537.2
99515.7
99503.3
99505.1
99509.8
99532.8
99697
99668.6
99658.7
99634.1
99614.5
99592
99573
99557.7
99548.7
99548.4
99550.6
99562.9
99718.1
99668.6
99667.4
99645.5
99630.7
99612.6
99598.1
99586.1
99579
99577.7
99578.9
99585.8
99762.9
99666.8
99674.3
99655.1
99643.2
99628.2
99616.5
99606.6
99600.5
99598.5
99598.4
99602.2
99546.8
99555
99560.5
99566.8
99575
99585.7
99598.6
99613.6
99630.1
99647.7
99665.1
99683.7
99570.7
99577.7
99583.1
99589.1
99595.7
99603.3
99611.5
99620.3
99629.1
99638.7
99647.3
99661.7
99590.4
99595.6
99600
99604.8
99609.6
99614.7
99619.6
99624.4
99628.2
99633.6
99637.8
99643.4
99605.1
99608.7
99611.8
99615
99617.8
99620.8
99623.1
99625.2
99626
99628.9
99625.6
99600.1
99697.3
99670.6
99651.7
99621.2
99593.8
99563.7
99537.2
99515.7
99503.3
99505.1
99509.8
99532.8
99697
99668.6
99658.7
99634.1
99614.5
99592
99573
99557.7
99548.7
99548.4
99550.6
99562.9
99718.1
99668.6
99667.4
99645.5
99630.7
99612.6
99598.1
99586.1
99579
99577.7
99578.9
99585.8
99762.9
99666.8
99674.3
99655.1
99643.2
99628.2
99616.5
99606.6
99600.5
99598.5
99598.4
99602.2
99615.2
99617.3
99618.9
99620.5
99621.6
99622.6
99622.6
99622
99618.5
99613.4
99602.1
99548.7
99621.5
99622.2
99622.4
99622.7
99622.3
99621.9
99620.1
99617.3
99612.3
99609.3
99604.6
99579.8
99624.8
99624.4
99623.6
99623.1
99621.7
99619.9
99617
99615.6
99613.1
99608.5
99603
99584.3
99626.2
99625.2
99623.6
99622.1
99620
99619.2
99618
99616.1
99613
99608.7
99604.4
99592.2
99626.6
99624.8
99622.9
99622.2
99621.2
99619.9
99617.7
99615.3
99612.3
99608.3
99604.3
99595.9
99626.5
99625.2
99623.9
99622.7
99621
99619.4
99617.6
99615.4
99612.4
99608.9
99605.4
99599.3
99627.5
99625.9
99624
99622.6
99621
99619.3
99617.2
99614.9
99612.1
99608.9
99605.8
99601.4
99627.8
99626
99624.3
99622.7
99621
99619.3
99617.2
99615
99612.2
99609.3
99606.4
99603
99628.1
99626.3
99624.3
99622.8
99620.9
99619.1
99616.9
99614.8
99612.1
99609.4
99606.7
99604.2
99628.5
99626.3
99624.5
99622.7
99621
99619.1
99617
99614.7
99612.2
99609.6
99607.1
99604.9
99628.5
99626.5
99624.5
99622.8
99620.9
99619.1
99616.9
99614.7
99612.1
99609.7
99607.3
99605.4
99628.8
99626.4
99624.7
99622.7
99621
99619
99617
99614.6
99612.2
99609.7
99607.4
99605.6
99860.9
99661.6
99677.9
99661.8
99652.1
99639.4
99629.8
99621.5
99616.1
99613.3
99612.1
99613.8
99835
99656.8
99678.9
99665.5
99657.9
99647.1
99639
99631.8
99626.6
99623.2
99621.2
99621.3
99816.4
99656.1
99679.3
99667
99661.4
99652.2
99645
99638.3
99633.1
99629.3
99626.7
99625.7
99780.9
99653.1
99678.3
99667.1
99663.3
99655.3
99648.4
99642.1
99636.8
99632.8
99629.7
99627.9
99747.6
99650.9
99677.3
99667
99663.7
99656.9
99650.1
99644
99638.7
99634.6
99631.2
99628.9
99718.6
99651.4
99676.5
99667.3
99663.4
99657.5
99650.8
99645
99639.6
99635.4
99631.6
99628.8
99691.6
99655.3
99675.6
99668.2
99663.3
99657.6
99650.9
99645.2
99639.8
99635.6
99632
99629.7
99669.5
99666.1
99675.4
99669.6
99663.2
99657.7
99650.9
99645.6
99640.4
99636.4
99632.9
99630.2
99648.9
99677
99674.9
99671.4
99663.7
99658.3
99651.6
99646.5
99641
99637.1
99633.3
99630.7
99644.7
99692.2
99677.3
99673.7
99665.5
99658.9
99652.4
99646.7
99641.6
99637.4
99633.9
99630.9
99599.2
99701.3
99678
99675.5
99666.6
99659.6
99652.8
99647.3
99641.8
99637.8
99633.9
99631.2
99674.4
99740.9
99684.3
99678
99668.4
99659.8
99653.5
99647.3
99642.4
99637.8
99634.4
99631.1
99615.2
99617.3
99618.9
99620.5
99621.6
99622.6
99622.6
99622
99618.5
99613.4
99602.1
99548.6
99621.5
99622.2
99622.4
99622.7
99622.3
99621.9
99620.1
99617.3
99612.3
99609.3
99604.6
99579.8
99624.8
99624.4
99623.6
99623.1
99621.7
99619.9
99617
99615.6
99613.1
99608.5
99603
99584.3
99626.2
99625.2
99623.6
99622.1
99620
99619.2
99618
99616.1
99613
99608.7
99604.4
99592.2
99626.6
99624.8
99622.9
99622.2
99621.2
99619.9
99617.7
99615.3
99612.3
99608.3
99604.3
99595.9
99626.5
99625.2
99623.9
99622.7
99621
99619.4
99617.6
99615.4
99612.4
99608.9
99605.4
99599.3
99627.5
99625.9
99624
99622.6
99621
99619.3
99617.2
99614.9
99612.1
99608.9
99605.8
99601.4
99627.8
99626
99624.3
99622.7
99621
99619.3
99617.2
99615
99612.2
99609.3
99606.4
99603
99628.1
99626.3
99624.3
99622.8
99620.9
99619.1
99616.9
99614.8
99612.1
99609.4
99606.7
99604.2
99628.5
99626.3
99624.5
99622.7
99621
99619.1
99617
99614.7
99612.2
99609.6
99607.1
99604.9
99628.5
99626.5
99624.5
99622.8
99620.9
99619.1
99616.9
99614.7
99612.1
99609.7
99607.3
99605.4
99628.8
99626.4
99624.7
99622.7
99621
99619
99617
99614.6
99612.2
99609.7
99607.4
99605.6
99860.9
99661.6
99677.9
99661.8
99652.1
99639.4
99629.8
99621.5
99616.1
99613.3
99612.1
99613.8
99835
99656.8
99678.9
99665.5
99657.9
99647.1
99639
99631.8
99626.6
99623.2
99621.2
99621.3
99816.4
99656.1
99679.3
99667
99661.4
99652.2
99645
99638.3
99633.1
99629.3
99626.7
99625.7
99780.9
99653.1
99678.3
99667.1
99663.3
99655.3
99648.4
99642.1
99636.8
99632.8
99629.7
99627.9
99747.6
99650.9
99677.3
99667
99663.7
99656.9
99650.1
99644
99638.7
99634.6
99631.2
99628.9
99718.6
99651.4
99676.5
99667.3
99663.4
99657.5
99650.8
99645
99639.6
99635.4
99631.6
99628.8
99691.6
99655.3
99675.6
99668.2
99663.3
99657.6
99650.9
99645.2
99639.8
99635.6
99632
99629.7
99669.5
99666.1
99675.4
99669.6
99663.2
99657.7
99650.9
99645.6
99640.4
99636.4
99632.9
99630.2
99648.9
99677
99674.9
99671.4
99663.7
99658.3
99651.6
99646.5
99641
99637.1
99633.3
99630.7
99644.7
99692.2
99677.3
99673.7
99665.5
99658.9
99652.4
99646.7
99641.6
99637.4
99633.9
99630.9
99599.2
99701.3
99678
99675.5
99666.6
99659.6
99652.8
99647.3
99641.8
99637.8
99633.9
99631.2
99674.4
99740.9
99684.3
99678
99668.4
99659.8
99653.5
99647.3
99642.4
99637.8
99634.4
99631.1
99615.2
99617.3
99618.9
99620.5
99621.6
99622.6
99622.6
99622
99618.5
99613.4
99602.1
99548.7
99621.5
99622.2
99622.4
99622.7
99622.3
99621.9
99620.1
99617.3
99612.3
99609.3
99604.6
99579.8
99624.8
99624.4
99623.6
99623.1
99621.7
99619.9
99617
99615.6
99613.1
99608.5
99603
99584.3
99626.2
99625.2
99623.6
99622.1
99620
99619.2
99618
99616.1
99613
99608.7
99604.4
99592.2
99626.6
99624.8
99622.9
99622.2
99621.2
99619.9
99617.7
99615.3
99612.3
99608.3
99604.3
99595.9
99626.5
99625.2
99623.9
99622.7
99621
99619.4
99617.6
99615.4
99612.4
99608.9
99605.4
99599.3
99627.5
99625.9
99624
99622.6
99621
99619.3
99617.2
99614.9
99612.1
99608.9
99605.8
99601.4
99627.8
99626
99624.3
99622.7
99621
99619.3
99617.2
99615
99612.2
99609.3
99606.4
99603
99628.1
99626.3
99624.3
99622.8
99620.9
99619.1
99616.9
99614.8
99612.1
99609.4
99606.7
99604.2
99628.5
99626.3
99624.5
99622.7
99621
99619.1
99617
99614.7
99612.2
99609.6
99607.1
99604.9
99628.5
99626.5
99624.5
99622.8
99620.9
99619.1
99616.9
99614.7
99612.1
99609.7
99607.3
99605.4
99628.8
99626.4
99624.7
99622.7
99621
99619
99617
99614.6
99612.2
99609.7
99607.4
99605.6
99860.9
99661.6
99677.9
99661.8
99652.1
99639.4
99629.8
99621.5
99616.1
99613.3
99612.1
99613.8
99835
99656.8
99678.9
99665.5
99657.9
99647.1
99639
99631.8
99626.6
99623.2
99621.2
99621.3
99816.4
99656.1
99679.3
99667
99661.4
99652.2
99645
99638.3
99633.1
99629.3
99626.7
99625.7
99780.9
99653.1
99678.3
99667.1
99663.3
99655.3
99648.4
99642.1
99636.8
99632.8
99629.7
99627.9
99747.6
99650.9
99677.3
99667
99663.7
99656.9
99650.1
99644
99638.7
99634.6
99631.2
99628.9
99718.6
99651.4
99676.5
99667.3
99663.4
99657.5
99650.8
99645
99639.6
99635.4
99631.6
99628.8
99691.6
99655.3
99675.6
99668.2
99663.3
99657.6
99650.9
99645.2
99639.8
99635.6
99632
99629.7
99669.5
99666.1
99675.4
99669.6
99663.2
99657.7
99650.9
99645.6
99640.4
99636.4
99632.9
99630.2
99648.9
99677
99674.9
99671.4
99663.7
99658.3
99651.6
99646.5
99641
99637.1
99633.3
99630.7
99644.7
99692.2
99677.3
99673.7
99665.5
99658.9
99652.4
99646.7
99641.6
99637.4
99633.9
99630.9
99599.2
99701.3
99678
99675.5
99666.6
99659.6
99652.8
99647.3
99641.8
99637.8
99633.9
99631.2
99674.4
99740.9
99684.3
99678
99668.4
99659.8
99653.5
99647.3
99642.4
99637.8
99634.4
99631.1
99615.2
99617.3
99618.9
99620.5
99621.6
99622.6
99622.6
99622
99618.5
99613.4
99602.1
99548.7
99621.5
99622.2
99622.4
99622.7
99622.3
99621.9
99620.1
99617.3
99612.3
99609.3
99604.6
99579.8
99624.8
99624.4
99623.6
99623.1
99621.7
99619.9
99617
99615.6
99613.1
99608.5
99603
99584.3
99626.2
99625.2
99623.6
99622.1
99620
99619.2
99618
99616.1
99613
99608.7
99604.4
99592.2
99626.6
99624.8
99622.9
99622.2
99621.2
99619.9
99617.7
99615.3
99612.3
99608.3
99604.3
99595.9
99626.5
99625.2
99623.9
99622.7
99621
99619.4
99617.6
99615.4
99612.4
99608.9
99605.4
99599.3
99627.5
99625.9
99624
99622.6
99621
99619.3
99617.2
99614.9
99612.1
99608.9
99605.8
99601.4
99627.8
99626
99624.3
99622.7
99621
99619.3
99617.2
99615
99612.2
99609.3
99606.4
99603
99628.1
99626.3
99624.3
99622.8
99620.9
99619.1
99616.9
99614.8
99612.1
99609.4
99606.7
99604.2
99628.5
99626.3
99624.5
99622.7
99621
99619.1
99617
99614.7
99612.2
99609.6
99607.1
99604.9
99628.5
99626.5
99624.5
99622.8
99620.9
99619.1
99616.9
99614.7
99612.1
99609.7
99607.3
99605.4
99628.8
99626.4
99624.7
99622.7
99621
99619
99617
99614.6
99612.2
99609.7
99607.4
99605.6
99860.9
99661.6
99677.9
99661.8
99652.1
99639.4
99629.8
99621.5
99616.1
99613.3
99612.1
99613.8
99835
99656.8
99678.9
99665.5
99657.9
99647.1
99639
99631.8
99626.6
99623.2
99621.2
99621.3
99816.4
99656.1
99679.3
99667
99661.4
99652.2
99645
99638.3
99633.1
99629.3
99626.7
99625.7
99780.9
99653.1
99678.3
99667.1
99663.3
99655.3
99648.4
99642.1
99636.8
99632.8
99629.7
99627.9
99747.6
99650.9
99677.3
99667
99663.7
99656.9
99650.1
99644
99638.7
99634.6
99631.2
99628.9
99718.6
99651.4
99676.5
99667.3
99663.4
99657.5
99650.8
99645
99639.6
99635.4
99631.6
99628.8
99691.6
99655.3
99675.6
99668.2
99663.3
99657.6
99650.9
99645.2
99639.8
99635.6
99632
99629.7
99669.5
99666.1
99675.4
99669.6
99663.2
99657.7
99650.9
99645.6
99640.4
99636.4
99632.9
99630.2
99648.9
99677
99674.9
99671.4
99663.7
99658.3
99651.6
99646.5
99641
99637.1
99633.3
99630.7
99644.7
99692.2
99677.3
99673.7
99665.5
99658.9
99652.4
99646.7
99641.6
99637.4
99633.9
99630.9
99599.2
99701.3
99678
99675.5
99666.6
99659.6
99652.8
99647.3
99641.8
99637.8
99633.9
99631.2
99674.4
99740.9
99684.3
99678
99668.4
99659.8
99653.5
99647.3
99642.4
99637.8
99634.4
99631.1
)
;

boundaryField
{
    rotor
    {
        type            zeroGradient;
    }
    stator
    {
        type            zeroGradient;
    }
    front
    {
        type            empty;
    }
    back
    {
        type            empty;
    }
}


// ************************************************************************* //
