/*--------------------------------*- C++ -*----------------------------------*\
| =========                 |                                                 |
| \\      /  F ield         | OpenFOAM: The Open Source CFD Toolbox           |
|  \\    /   O peration     | Version:  2212                                  |
|   \\  /    A nd           | Website:  www.openfoam.com                      |
|    \\/     M anipulation  |                                                 |
\*---------------------------------------------------------------------------*/
FoamFile
{
    version     2.0;
    format      ascii;
    arch        "LSB;label=32;scalar=64";
    class       volScalarField;
    location    "0.03";
    object      p;
}
// * * * * * * * * * * * * * * * * * * * * * * * * * * * * * * * * * * * * * //

dimensions      [1 -1 -2 0 0 0 0];

internalField   nonuniform List<scalar> 
3072
(
98331.2
98311.7
98300.2
98292
98289.2
98290.7
98290.8
98304.2
98335.4
98333.6
98288.3
98242.3
98413.8
98370.1
98359.1
98352.6
98357.5
98380.5
98414
98464.8
98564.9
98619.2
98634.9
98642.5
98475.3
98416
98409.5
98415.5
98442.9
98488.3
98548.1
98603.5
98660.9
98702.3
98730.4
98750.1
98595.4
98539.9
98541.6
98562.6
98613.3
98674.1
98733.3
98786.3
98831.4
98864.2
98889.9
98910.1
98720.7
98688.1
98700.9
98736.1
98792.9
98852.7
98908.2
98956.7
98995.7
99024.2
99045.8
99061.8
98856.2
98841.9
98865.2
98910.3
98968.8
99024.3
99074.1
99113.8
99145
99168.4
99186
99198.9
98980.5
98991.5
99022.5
99075.7
99133.8
99185.8
99228
99260.5
99285
99302.9
99315.8
99324.9
99108.7
99140
99177.6
99235.2
99289.5
99335.3
99370.3
99395.7
99413.7
99425.9
99434.1
99439.5
99236.7
99295.6
99333.2
99390.4
99437.4
99474.9
99501.5
99519.4
99530.7
99537.4
99541
99542.6
99366.3
99442.4
99483.7
99539.1
99577.4
99604.6
99621.9
99631.7
99636.2
99637.4
99636.5
99634.5
99509.7
99606.7
99637.1
99680.2
99706.7
99721.9
99729
99730.6
99728.6
99724.6
99719.7
99714.5
99615.4
99765
99781.7
99802.6
99814.2
99817.8
99816.3
99811.3
99804.5
99796.8
99789
99781.5
98207.9
98199.2
98212.3
98249
98303.9
98375.5
98457.7
98543.6
98621.3
98683.3
98723.4
98696.2
98643.4
98644.7
98649.7
98660.3
98677.4
98700.9
98729.6
98759.1
98784.3
98816.5
98835.6
98738.7
98759.5
98767.5
98777.3
98790.8
98807.5
98825.2
98842.2
98854.1
98857
98860.5
98851.1
98710.3
98925.2
98937.6
98947.8
98956.7
98964.2
98969.8
98972.2
98967.9
98952
98929.2
98900.8
98721.7
99073.5
99082.5
99089.2
99094
99096.7
99096.5
99092.2
99081.6
99059.8
99025.6
98985.3
98792.7
99208.2
99215
99219.5
99222.3
99223
99221.2
99215.5
99204.4
99183.7
99150.1
99107.8
98920.1
99331.3
99335.7
99338.7
99340.4
99341.1
99340.3
99337.2
99330.4
99316.9
99292.2
99262.7
99101.7
99442.9
99445.2
99447
99448.6
99450.4
99452.5
99454.5
99455.6
99454.7
99447.8
99445
99331.9
99543.2
99543.6
99544.4
99546.2
99549.7
99555.4
99563.5
99574.3
99588.4
99604.7
99639.3
99603.5
99632.4
99630.8
99630.6
99632.5
99637.5
99646.6
99660.7
99681
99709.6
99749.8
99832.6
99897.8
99709.9
99706.6
99705.2
99706.8
99712.6
99724
99742.5
99770
99809.5
99868.3
100001
100175
99775.1
99770.3
99767.8
99768.8
99774.3
99786.4
99806.5
99837.3
99880.6
99947.8
100097
100417
98325.4
98308.4
98297.9
98290
98288.2
98288.4
98290.3
98297.2
98320.4
98332.7
98299
98254.5
98411.2
98371
98360
98353
98356.9
98373
98404.5
98442.8
98535.2
98603.2
98621.3
98632.2
98470.8
98414.2
98406.4
98408.6
98433.3
98471.4
98528.6
98581.9
98637.3
98683.2
98712
98734.3
98585
98528.2
98526.8
98542
98588.1
98647.8
98708.2
98762
98808.7
98844
98870.6
98891.6
98705.4
98669
98677.2
98707.3
98762.1
98823.4
98881.4
98931.2
98972
99002.3
99024.8
99041.5
98841.2
98820.9
98840
98880.7
98938.6
98995.9
99047.2
99088.5
99121
99145.6
99163.9
99177.2
98966.3
98970.9
98998.1
99048
99105.9
99158.7
99201.9
99235.5
99261
99279.6
99293
99302.4
99096.3
99120.9
99155
99209.6
99263.3
99309.5
99345
99371.1
99389.7
99402.5
99411
99416.5
99224.4
99277.4
99312.1
99366.7
99412.8
99450.3
99477.2
99495.5
99507.1
99514.1
99517.8
99519.6
99353.9
99424.6
99463.7
99517
99554.7
99581.8
99599.1
99608.9
99613.5
99614.6
99613.6
99611.5
99496.5
99589
99617.9
99660
99686.1
99701
99707.9
99709.2
99706.9
99702.5
99697.2
99691.7
99602.5
99745.8
99762.7
99783.5
99795.2
99798.7
99796.6
99791
99783.6
99775.2
99766.7
99758.7
98219.8
98207.8
98217.1
98248.4
98297.5
98362.5
98438.3
98518.2
98590.5
98647.3
98684.5
98658.1
98634.3
98635.2
98638.4
98646.5
98660.2
98680.2
98704.9
98731.1
98753.1
98781.8
98799.8
98705.6
98744.9
98752.8
98761.2
98772.9
98787.5
98803
98817.7
98827.6
98828.8
98830.6
98821.6
98683.9
98906.6
98919
98928.8
98936.8
98943.1
98947.2
98948.2
98942.4
98925.6
98902.3
98874.8
98698.9
99053.2
99062.1
99068.4
99072.6
99074.5
99073.4
99068.2
99056.8
99034.2
98999.8
98960.7
98769.8
99186.7
99193.3
99197.7
99200
99200.3
99197.8
99191.2
99179.3
99157.8
99123.1
99081.5
98894.4
99308.9
99313.3
99316.1
99317.6
99317.8
99316.4
99312.5
99304.8
99290.2
99264
99233.7
99070.7
99420.1
99422.4
99424.1
99425.5
99426.9
99428.3
99429.4
99429.3
99426.7
99417.4
99411.6
99294
99520.2
99520.6
99521.3
99523
99526
99531
99538.1
99547.4
99559.4
99572.6
99601.8
99558.4
99609.4
99607.8
99607.6
99609.4
99614
99622.4
99635.3
99653.9
99680.3
99717
99792.3
99847.6
99686.9
99683.6
99682.3
99684
99689.5
99700.4
99717.8
99743.6
99781
99836.4
99960.9
100125
99752
99747.2
99745
99746.2
99751.8
99763.6
99782.9
99812.3
99854.2
99918.9
100063
100377
98331.2
98311.7
98300.2
98292
98289.2
98290.7
98290.8
98304.2
98335.4
98333.6
98288.3
98242.3
98413.8
98370.1
98359.1
98352.7
98357.5
98380.5
98414
98464.8
98564.9
98619.2
98634.9
98642.5
98475.3
98416
98409.5
98415.5
98442.9
98488.3
98548.1
98603.5
98660.9
98702.3
98730.4
98750.1
98595.4
98539.9
98541.5
98562.6
98613.3
98674.1
98733.3
98786.3
98831.4
98864.2
98889.9
98910.1
98720.7
98688.1
98700.9
98736.1
98792.9
98852.7
98908.2
98956.7
98995.7
99024.2
99045.8
99061.8
98856.2
98841.9
98865.2
98910.3
98968.8
99024.3
99074.1
99113.8
99145
99168.4
99186
99198.9
98980.5
98991.5
99022.5
99075.6
99133.8
99185.8
99228
99260.5
99285
99302.9
99315.8
99324.9
99108.7
99139.9
99177.6
99235.1
99289.5
99335.3
99370.3
99395.7
99413.7
99425.9
99434.1
99439.5
99236.7
99295.6
99333.2
99390.4
99437.4
99474.9
99501.5
99519.4
99530.7
99537.4
99541
99542.6
99366.3
99442.4
99483.7
99539.1
99577.4
99604.6
99621.9
99631.7
99636.2
99637.4
99636.5
99634.5
99509.7
99606.7
99637.1
99680.2
99706.7
99721.9
99729
99730.6
99728.6
99724.6
99719.7
99714.5
99615.4
99765
99781.7
99802.6
99814.2
99817.8
99816.3
99811.3
99804.5
99796.8
99789
99781.5
98207.9
98199.2
98212.3
98249
98303.9
98375.5
98457.7
98543.6
98621.3
98683.3
98723.4
98696.2
98643.4
98644.7
98649.7
98660.3
98677.4
98700.9
98729.6
98759.1
98784.3
98816.5
98835.6
98738.7
98759.5
98767.5
98777.3
98790.8
98807.5
98825.2
98842.2
98854.1
98857
98860.5
98851.1
98710.3
98925.2
98937.6
98947.8
98956.7
98964.2
98969.8
98972.2
98967.9
98952
98929.2
98900.8
98721.7
99073.5
99082.5
99089.2
99094
99096.7
99096.5
99092.2
99081.6
99059.8
99025.6
98985.3
98792.7
99208.2
99215
99219.5
99222.3
99223
99221.2
99215.5
99204.4
99183.7
99150.1
99107.8
98920.1
99331.3
99335.7
99338.7
99340.4
99341.1
99340.3
99337.2
99330.4
99316.9
99292.2
99262.7
99101.7
99442.9
99445.2
99447
99448.6
99450.4
99452.5
99454.5
99455.6
99454.7
99447.8
99445
99331.9
99543.2
99543.6
99544.4
99546.2
99549.7
99555.4
99563.5
99574.3
99588.4
99604.7
99639.3
99603.5
99632.4
99630.8
99630.6
99632.5
99637.5
99646.6
99660.7
99681
99709.6
99749.8
99832.6
99897.8
99709.9
99706.6
99705.2
99706.8
99712.6
99724
99742.5
99770
99809.5
99868.3
100001
100175
99775.1
99770.3
99767.8
99768.8
99774.3
99786.4
99806.5
99837.3
99880.6
99947.8
100097
100417
98325.4
98308.4
98297.9
98290
98288.2
98288.4
98290.3
98297.2
98320.4
98332.7
98299
98254.5
98411.2
98371
98360
98353
98356.9
98373
98404.5
98442.8
98535.2
98603.2
98621.3
98632.2
98470.8
98414.2
98406.4
98408.6
98433.3
98471.4
98528.6
98581.9
98637.3
98683.2
98712
98734.3
98585
98528.2
98526.8
98542
98588.1
98647.8
98708.2
98762
98808.7
98844
98870.6
98891.6
98705.4
98669
98677.2
98707.3
98762.1
98823.4
98881.4
98931.2
98972
99002.3
99024.8
99041.5
98841.2
98820.9
98839.9
98880.7
98938.6
98995.9
99047.2
99088.5
99121
99145.6
99163.9
99177.2
98966.3
98970.9
98998.1
99048
99105.9
99158.7
99201.9
99235.5
99261
99279.6
99293
99302.4
99096.3
99120.9
99155
99209.6
99263.3
99309.5
99345
99371.1
99389.7
99402.5
99411
99416.5
99224.4
99277.4
99312.1
99366.7
99412.8
99450.3
99477.2
99495.5
99507.1
99514.1
99517.8
99519.6
99353.9
99424.6
99463.7
99517
99554.7
99581.8
99599.1
99608.9
99613.5
99614.6
99613.6
99611.5
99496.5
99589
99617.9
99660
99686.1
99701
99707.9
99709.2
99706.9
99702.5
99697.1
99691.7
99602.5
99745.8
99762.7
99783.5
99795.2
99798.7
99796.6
99791
99783.6
99775.2
99766.7
99758.7
98219.8
98207.8
98217.1
98248.4
98297.5
98362.5
98438.3
98518.2
98590.5
98647.3
98684.5
98658.1
98634.3
98635.2
98638.4
98646.5
98660.2
98680.2
98704.9
98731.1
98753.1
98781.8
98799.8
98705.6
98744.9
98752.8
98761.1
98772.9
98787.5
98803
98817.7
98827.6
98828.8
98830.6
98821.6
98683.9
98906.6
98919
98928.8
98936.8
98943.1
98947.2
98948.2
98942.4
98925.6
98902.3
98874.8
98698.9
99053.2
99062.1
99068.4
99072.6
99074.5
99073.4
99068.2
99056.8
99034.2
98999.8
98960.7
98769.8
99186.6
99193.3
99197.7
99200
99200.2
99197.8
99191.2
99179.3
99157.8
99123.1
99081.5
98894.4
99308.9
99313.3
99316.1
99317.6
99317.8
99316.4
99312.5
99304.8
99290.2
99264
99233.7
99070.7
99420.1
99422.4
99424.1
99425.5
99426.9
99428.3
99429.4
99429.3
99426.7
99417.4
99411.6
99294
99520.2
99520.6
99521.3
99523
99526
99531
99538.1
99547.4
99559.4
99572.6
99601.8
99558.4
99609.4
99607.8
99607.6
99609.4
99614
99622.4
99635.3
99653.9
99680.3
99717
99792.3
99847.6
99686.9
99683.6
99682.3
99684
99689.5
99700.4
99717.7
99743.6
99781
99836.4
99960.9
100125
99752
99747.2
99745
99746.2
99751.8
99763.6
99782.9
99812.3
99854.2
99918.9
100063
100377
99910.6
99916.6
99903.8
99896.4
99891.6
99886.5
99879.6
99871.1
99862
99852.7
99843.6
99835.1
99945
99924.2
99926.2
99927.8
99927.5
99924.4
99918.6
99911
99902.5
99893.6
99884.9
99876.4
99952.1
99943.2
99946.6
99948.4
99948.4
99946.3
99942.2
99936.7
99930.1
99922.9
99915.5
99907.9
99955.5
99954.4
99957.1
99958.6
99959.1
99958.2
99956
99952.7
99948.6
99944
99939
99933.3
99827.8
99822
99818.6
99818.5
99823
99834
99852.6
99881.8
99919.6
99970.1
100021
100137
99869
99862.8
99858.3
99856.8
99859.5
99868
99883
99907.4
99938.1
99978.1
100002
100043
99901
99894.5
99888.7
99885.1
99884.9
99889.4
99899.1
99916.6
99939.2
99970.9
99987.5
100005
99927.7
99919.8
99912
99905.5
99901.1
99899.9
99902.3
99910.9
99923.7
99947.1
99961.4
99982.7
99898.9
99900.7
99888
99879.8
99874.6
99868.9
99861.1
99851.9
99841.8
99831.5
99821.3
99811.9
99941.1
99914.9
99914.2
99913.8
99912.4
99908.4
99901.6
99892.8
99882.9
99872.4
99861.9
99852
99955.8
99941.1
99941
99939.9
99937.7
99933.8
99928
99920.5
99911.5
99901.6
99891.5
99881.7
99968.3
99963.2
99962.1
99960.2
99957.5
99953.9
99949
99942.7
99935.1
99926.2
99916.4
99906.2
99804
99798.3
99795.5
99796.1
99801.1
99812
99830.5
99858.9
99896.2
99946.5
99999.7
100120
99843.6
99837.6
99834.3
99834.1
99837.9
99846.9
99862.4
99886.9
99918.2
99959.2
99987.6
100033
99873.2
99867.2
99863.5
99862.4
99864.1
99870.1
99880.9
99899
99922.5
99955.1
99974.9
99994.3
99897.4
99891.8
99888.1
99885.9
99885
99886.6
99890.5
99899.3
99911.6
99933.4
99948.3
99967.9
99910.6
99916.6
99903.8
99896.4
99891.6
99886.5
99879.6
99871.1
99862
99852.7
99843.6
99835.1
99945
99924.2
99926.2
99927.8
99927.5
99924.4
99918.6
99911
99902.5
99893.6
99884.9
99876.4
99952.1
99943.2
99946.6
99948.4
99948.4
99946.3
99942.2
99936.7
99930.1
99922.9
99915.5
99907.9
99955.5
99954.4
99957.1
99958.6
99959.1
99958.2
99956
99952.7
99948.6
99944
99939
99933.3
99827.8
99822
99818.6
99818.5
99823
99834
99852.6
99881.8
99919.6
99970.1
100021
100137
99869
99862.8
99858.3
99856.8
99859.5
99868
99883
99907.4
99938.1
99978.1
100002
100043
99901
99894.5
99888.7
99885.1
99884.9
99889.4
99899.1
99916.6
99939.2
99970.9
99987.5
100005
99927.7
99919.8
99912
99905.5
99901.1
99899.9
99902.3
99910.9
99923.7
99947.1
99961.4
99982.7
99898.9
99900.7
99888
99879.8
99874.6
99868.9
99861.1
99851.9
99841.8
99831.5
99821.3
99811.9
99941.1
99914.9
99914.2
99913.8
99912.4
99908.4
99901.6
99892.8
99882.9
99872.4
99861.9
99852
99955.8
99941.1
99941
99939.9
99937.7
99933.8
99928
99920.5
99911.5
99901.6
99891.5
99881.7
99968.3
99963.2
99962.1
99960.2
99957.5
99953.9
99949
99942.7
99935.1
99926.2
99916.4
99906.2
99804
99798.3
99795.5
99796.1
99801.1
99812
99830.5
99858.9
99896.2
99946.5
99999.7
100120
99843.6
99837.6
99834.3
99834.1
99837.9
99846.9
99862.4
99886.9
99918.2
99959.2
99987.6
100033
99873.2
99867.2
99863.5
99862.4
99864.1
99870.1
99880.9
99899
99922.5
99955.1
99974.9
99994.3
99897.4
99891.8
99888.1
99885.8
99885
99886.6
99890.5
99899.3
99911.6
99933.4
99948.3
99967.9
99956.4
99960.8
99964.7
99967.4
99969
99969.4
99968.6
99966.9
99964.4
99961.5
99958.1
99954.3
99958.7
99964.8
99970.1
99974.2
99977.1
99978.6
99978.8
99977.9
99976.1
99973.9
99971.5
99969.1
99960.1
99967.1
99973.3
99978.2
99981.7
99983.7
99984.3
99983.8
99982.4
99980.7
99979.1
99978.1
99960.7
99968.6
99975.3
99980.6
99984.3
99986.5
99987.3
99986.8
99985.6
99984.1
99983.1
99982.8
99950.9
99944.8
99938.8
99933.3
99928.7
99925.6
99924.5
99926.4
99930.6
99943.1
99951.3
99965.2
99968.3
99964.3
99961.1
99958.2
99955.9
99954.4
99953.8
99954.8
99957.1
99959.7
99960.3
99961.9
99980.7
99977.8
99976.3
99975.1
99974.1
99973.2
99972.4
99971.3
99970.1
99968.1
99964
99959.4
99990.5
99987.6
99986.4
99985.9
99985.2
99984.2
99982.3
99979.4
99975.4
99970.3
99963.4
99956.1
99965.7
99964.6
99962.1
99958.7
99954.7
99950.2
99945
99939.2
99932.8
99924.3
99915.5
99906
99958.1
99954.3
99949.7
99944.7
99939.5
99933.9
99928
99921.6
99914.8
99908.5
99901.7
99893.6
99952.2
99946.2
99940.4
99934.7
99929.1
99923.4
99917.9
99912.2
99906.4
99900.7
99895.1
99887.8
99947.9
99941
99934.7
99928.8
99923.3
99918.1
99912.8
99907.8
99902.7
99897.6
99892.9
99885.7
99897.4
99892.2
99889.5
99888.3
99888.3
99889.9
99893.2
99899.4
99908.3
99923
99935.7
99952.3
99885.4
99881
99879.6
99879.9
99881.7
99885.3
99891
99899.4
99910.7
99926.2
99939.2
99952.2
99879
99875.2
99874.5
99875.5
99878.1
99882.6
99889.2
99898.7
99910.9
99925.8
99939.7
99952.2
99876.2
99872.9
99872.5
99873.7
99876.4
99881.1
99888.1
99897.8
99910.1
99924.7
99938.8
99951.5
99956.4
99960.8
99964.7
99967.4
99969
99969.4
99968.6
99966.9
99964.4
99961.5
99958.1
99954.3
99958.7
99964.8
99970.1
99974.2
99977.1
99978.6
99978.8
99977.9
99976.1
99973.9
99971.5
99969.1
99960.1
99967.1
99973.3
99978.2
99981.7
99983.7
99984.3
99983.8
99982.4
99980.7
99979.1
99978.1
99960.7
99968.6
99975.3
99980.6
99984.4
99986.5
99987.3
99986.8
99985.6
99984.1
99983.1
99982.8
99950.9
99944.8
99938.8
99933.3
99928.7
99925.6
99924.5
99926.4
99930.6
99943.1
99951.3
99965.2
99968.3
99964.3
99961.1
99958.2
99955.9
99954.4
99953.8
99954.8
99957.1
99959.7
99960.3
99961.9
99980.7
99977.8
99976.3
99975.1
99974.1
99973.2
99972.4
99971.3
99970.1
99968.1
99964
99959.4
99990.5
99987.6
99986.4
99985.9
99985.2
99984.2
99982.3
99979.4
99975.4
99970.3
99963.4
99956.1
99965.7
99964.6
99962.1
99958.7
99954.7
99950.2
99945
99939.2
99932.8
99924.3
99915.5
99906
99958.1
99954.3
99949.7
99944.7
99939.5
99933.9
99928
99921.6
99914.8
99908.5
99901.7
99893.6
99952.2
99946.2
99940.4
99934.7
99929.1
99923.4
99917.9
99912.2
99906.4
99900.7
99895.1
99887.8
99947.9
99941
99934.7
99928.8
99923.3
99918.1
99912.8
99907.8
99902.7
99897.6
99892.9
99885.7
99897.4
99892.2
99889.5
99888.3
99888.3
99889.9
99893.2
99899.4
99908.3
99923
99935.7
99952.3
99885.4
99881
99879.6
99879.9
99881.7
99885.3
99891
99899.4
99910.7
99926.2
99939.2
99952.2
99879
99875.2
99874.5
99875.5
99878.1
99882.6
99889.2
99898.7
99910.9
99925.8
99939.7
99952.2
99876.2
99872.9
99872.5
99873.7
99876.4
99881.1
99888.1
99897.8
99910.1
99924.7
99938.8
99951.5
99961
99969.6
99976.7
99982.2
99986.1
99988.3
99989
99988.5
99987.1
99985.4
99983
99980.8
99961.3
99970.4
99977.8
99983.4
99987.2
99989.4
99990
99989.3
99987.7
99985.7
99982.9
99983.4
99961.6
99971.1
99978.7
99984.3
99988.1
99990.1
99990.5
99989.7
99988
99986
99983.4
99984.2
99961.8
99971.7
99979.4
99985.1
99988.8
99990.6
99990.8
99989.8
99988
99986
99984
99984.8
99962.1
99972.2
99980.1
99985.8
99989.3
99990.9
99990.9
99989.8
99987.9
99986
99984.4
99985.1
99962.3
99972.7
99980.7
99986.4
99989.8
99991.2
99991
99989.6
99987.7
99985.9
99984.7
99985.2
99962.6
99973.2
99981.3
99987
99990.2
99991.4
99991
99989.4
99987.5
99985.8
99984.8
99985.2
99962.9
99973.8
99982
99987.5
99990.6
99991.6
99990.9
99989.2
99987.3
99985.6
99984.9
99985.2
99963.3
99974.4
99982.6
99988.1
99991
99991.8
99990.8
99989
99987
99985.5
99984.9
99985.1
99963.7
99975
99983.4
99988.8
99991.5
99992
99990.8
99988.7
99986.7
99985.3
99984.8
99985.1
99964.3
99975.8
99984.2
99989.5
99992
99992.2
99990.8
99988.5
99986.3
99985
99984.7
99985.1
99965.1
99977
99985.4
99990.5
99992.6
99992.3
99990.4
99987.8
99985.6
99984.6
99984.7
99985.2
100001
99995.3
99993.1
99992.5
99991.6
99990
99987.1
99982.7
99976.9
99969.8
99961.5
99953.1
100002
99999.3
99997.1
99996.2
99994.8
99992.4
99988.6
99983.1
99976.2
99968.1
99959.3
99950.7
100003
100001
99998.9
99997.6
99995.7
99992.6
99987.9
99981.7
99974.2
99965.9
99957.3
99949.1
100003
100001
99999.3
99997.6
99995.1
99991.2
99985.9
99979.2
99971.7
99963.6
99955.5
99948.1
100003
100000
99998.8
99996.6
99993.4
99988.9
99983.1
99976.3
99968.9
99961.3
99954.1
99947.6
100002
99999.5
99997.8
99995
99991.1
99986.1
99979.9
99973.2
99966.1
99959.3
99953
99947.5
100002
99998.3
99996.4
99993
99988.5
99982.9
99976.6
99970
99963.5
99957.5
99952.2
99947.7
100001
99997.1
99994.8
99990.7
99985.7
99979.7
99973.3
99967
99961
99955.9
99951.5
99948
99999.6
99995.8
99993.1
99988.3
99982.8
99976.6
99970.2
99964.1
99958.8
99954.4
99951
99948.4
99998.5
99994.6
99991.4
99986.1
99980.1
99973.7
99967.3
99961.5
99956.7
99953.1
99950.5
99948.7
99997.8
99993.6
99989.9
99984.1
99977.8
99971.2
99964.8
99959.3
99955.1
99952
99949.9
99948.8
99996.4
99991.3
99987
99980.4
99973.6
99966.6
99960.3
99955.2
99951.6
99949.5
99948.7
99948.7
99944.7
99937.7
99931.4
99925.7
99920.5
99915.6
99910.9
99906.3
99901.7
99896.8
99892.4
99883.1
99942.7
99935.9
99930
99924.6
99919.8
99915.3
99911
99906.7
99902.5
99897.7
99894.1
99885.2
99941.7
99935.5
99930
99925.1
99920.7
99916.5
99912.5
99908.5
99904.5
99899.8
99897
99887.9
99941.6
99936
99931.1
99926.7
99922.7
99918.8
99915
99911.1
99907.3
99902.5
99900.3
99890.9
99942
99937.2
99933
99929.1
99925.4
99921.7
99918
99914.1
99910.4
99905.5
99903.5
99894
99942.9
99938.9
99935.3
99931.8
99928.5
99924.9
99921.3
99917.4
99913.6
99908.7
99906.7
99897.2
99944
99940.7
99937.7
99934.8
99931.7
99928.3
99924.7
99920.7
99916.9
99911.8
99909.6
99900.4
99945.2
99942.7
99940.2
99937.7
99934.9
99931.7
99928.2
99924.1
99920.1
99914.8
99912.4
99903.7
99946.3
99944.5
99942.7
99940.6
99938.1
99935.1
99931.6
99927.4
99923.3
99917.8
99915.1
99906.8
99947.3
99946.2
99944.9
99943.2
99941
99938.2
99934.8
99930.6
99926.4
99920.7
99917.6
99909.9
99948.2
99947.6
99946.8
99945.4
99943.5
99940.8
99937.4
99933.1
99928.6
99922.8
99919.2
99912
99949
99949.3
99949.3
99948.8
99947.5
99945.3
99942.4
99938.2
99933.9
99927.5
99923.6
99915.8
99876.9
99872.7
99871.7
99872.7
99875.4
99880.1
99887.1
99896.9
99909.2
99923.6
99937.8
99950.9
99874.3
99872.9
99871.4
99872.1
99874.6
99879.2
99886.2
99896
99908.4
99922.7
99937.2
99950.5
99873.7
99872.8
99871.3
99871.7
99874
99878.4
99885.4
99895.2
99907.6
99922
99936.6
99950.2
99873
99872.6
99871.2
99871.4
99873.4
99877.6
99884.5
99894.3
99906.8
99921.2
99936.1
99950
99872.5
99872.4
99871.1
99871.1
99872.8
99876.9
99883.6
99893.4
99905.9
99920.5
99935.6
99949.8
99872.2
99872.2
99871
99870.8
99872.3
99876.1
99882.7
99892.4
99905
99919.8
99935.1
99949.7
99872.1
99872
99870.9
99870.6
99871.7
99875.3
99881.7
99891.4
99904.1
99919
99934.7
99949.6
99872
99871.9
99870.9
99870.3
99871.2
99874.4
99880.6
99890.2
99903
99918.2
99934.2
99949.5
99872
99871.9
99870.9
99870.1
99870.6
99873.4
99879.4
99888.9
99901.9
99917.4
99933.8
99949.5
99872
99871.9
99870.9
99869.9
99870
99872.4
99878.1
99887.5
99900.6
99916.5
99933.4
99949.6
99872.1
99872
99870.9
99869.7
99869.4
99871.4
99876.7
99886.1
99899.4
99915.8
99933.2
99949.8
99872.1
99872.3
99871.5
99869.9
99868.9
99870
99874.5
99883.5
99897
99913.9
99932.4
99950
99961
99969.6
99976.7
99982.2
99986.1
99988.3
99989
99988.5
99987.1
99985.4
99983
99980.8
99961.3
99970.4
99977.8
99983.4
99987.2
99989.4
99990
99989.3
99987.7
99985.7
99982.9
99983.4
99961.6
99971.1
99978.7
99984.3
99988.1
99990.1
99990.5
99989.7
99988
99986
99983.4
99984.2
99961.9
99971.7
99979.4
99985.1
99988.8
99990.6
99990.8
99989.8
99988
99986
99984
99984.8
99962.1
99972.2
99980.1
99985.8
99989.3
99990.9
99990.9
99989.8
99987.9
99986
99984.4
99985.1
99962.3
99972.7
99980.7
99986.4
99989.8
99991.2
99991
99989.6
99987.7
99985.9
99984.7
99985.2
99962.6
99973.2
99981.3
99987
99990.2
99991.4
99991
99989.5
99987.5
99985.8
99984.8
99985.2
99962.9
99973.8
99982
99987.5
99990.6
99991.6
99990.9
99989.2
99987.3
99985.6
99984.9
99985.2
99963.3
99974.4
99982.6
99988.1
99991
99991.8
99990.8
99989
99987
99985.5
99984.9
99985.1
99963.7
99975
99983.4
99988.8
99991.5
99992
99990.8
99988.7
99986.7
99985.3
99984.8
99985.1
99964.3
99975.8
99984.2
99989.5
99992
99992.2
99990.8
99988.5
99986.3
99985
99984.7
99985.1
99965.1
99977
99985.4
99990.5
99992.6
99992.3
99990.4
99987.8
99985.6
99984.6
99984.7
99985.2
100001
99995.3
99993.1
99992.5
99991.6
99990
99987.1
99982.7
99976.9
99969.8
99961.5
99953.1
100002
99999.3
99997.1
99996.2
99994.8
99992.4
99988.6
99983.1
99976.2
99968.1
99959.3
99950.7
100003
100001
99998.9
99997.6
99995.7
99992.6
99987.9
99981.7
99974.2
99965.9
99957.3
99949.1
100003
100001
99999.3
99997.6
99995.1
99991.2
99985.9
99979.2
99971.7
99963.6
99955.5
99948.1
100003
100000
99998.8
99996.6
99993.4
99988.9
99983.1
99976.3
99968.9
99961.3
99954.1
99947.6
100002
99999.5
99997.8
99995
99991.1
99986.1
99979.9
99973.2
99966.1
99959.3
99953
99947.6
100002
99998.3
99996.4
99993
99988.5
99982.9
99976.6
99970
99963.5
99957.5
99952.2
99947.7
100001
99997.1
99994.8
99990.7
99985.7
99979.7
99973.3
99967
99961
99955.9
99951.5
99948
99999.6
99995.8
99993.1
99988.3
99982.8
99976.6
99970.2
99964.1
99958.8
99954.4
99951
99948.4
99998.5
99994.6
99991.4
99986.1
99980.1
99973.7
99967.3
99961.5
99956.7
99953.1
99950.5
99948.7
99997.8
99993.6
99989.9
99984.1
99977.8
99971.2
99964.8
99959.3
99955.1
99952
99949.9
99948.8
99996.4
99991.3
99987
99980.4
99973.6
99966.6
99960.3
99955.2
99951.6
99949.5
99948.7
99948.7
99944.7
99937.7
99931.4
99925.7
99920.5
99915.6
99910.9
99906.3
99901.7
99896.8
99892.4
99883.1
99942.7
99935.9
99930
99924.6
99919.8
99915.3
99911
99906.7
99902.5
99897.7
99894.1
99885.2
99941.7
99935.5
99930
99925.1
99920.7
99916.5
99912.5
99908.5
99904.5
99899.8
99897
99887.9
99941.6
99936
99931.1
99926.7
99922.7
99918.8
99915
99911.1
99907.3
99902.5
99900.3
99890.9
99942
99937.2
99933
99929.1
99925.4
99921.7
99918
99914.1
99910.4
99905.5
99903.5
99894
99942.9
99938.9
99935.3
99931.8
99928.5
99924.9
99921.3
99917.4
99913.6
99908.7
99906.7
99897.2
99944
99940.7
99937.7
99934.8
99931.7
99928.3
99924.7
99920.7
99916.9
99911.8
99909.6
99900.4
99945.2
99942.7
99940.2
99937.7
99934.9
99931.7
99928.2
99924.1
99920.1
99914.8
99912.4
99903.7
99946.3
99944.5
99942.7
99940.6
99938.1
99935.1
99931.6
99927.4
99923.3
99917.8
99915.1
99906.8
99947.3
99946.2
99944.9
99943.2
99941
99938.2
99934.8
99930.6
99926.4
99920.7
99917.6
99909.9
99948.2
99947.6
99946.8
99945.4
99943.5
99940.8
99937.4
99933.1
99928.6
99922.8
99919.2
99912
99949
99949.3
99949.3
99948.8
99947.5
99945.3
99942.4
99938.2
99933.9
99927.5
99923.6
99915.8
99876.9
99872.7
99871.7
99872.7
99875.4
99880.1
99887.1
99896.9
99909.2
99923.6
99937.8
99950.9
99874.3
99872.9
99871.4
99872.1
99874.6
99879.2
99886.2
99896
99908.4
99922.7
99937.2
99950.5
99873.7
99872.8
99871.3
99871.7
99874
99878.4
99885.4
99895.2
99907.6
99922
99936.6
99950.2
99873
99872.6
99871.2
99871.4
99873.4
99877.6
99884.5
99894.3
99906.8
99921.2
99936.1
99950
99872.5
99872.4
99871.1
99871.1
99872.8
99876.9
99883.6
99893.4
99905.9
99920.5
99935.6
99949.8
99872.2
99872.2
99871
99870.8
99872.3
99876.1
99882.7
99892.4
99905
99919.8
99935.1
99949.7
99872.1
99872
99870.9
99870.6
99871.7
99875.3
99881.7
99891.4
99904.1
99919
99934.7
99949.6
99872
99871.9
99870.9
99870.3
99871.2
99874.4
99880.6
99890.2
99903
99918.2
99934.2
99949.5
99872
99871.9
99870.9
99870.1
99870.6
99873.4
99879.4
99888.9
99901.9
99917.4
99933.8
99949.5
99872
99871.9
99870.9
99869.9
99870
99872.4
99878.1
99887.5
99900.6
99916.5
99933.4
99949.6
99872.1
99872
99870.9
99869.7
99869.4
99871.4
99876.7
99886.1
99899.4
99915.8
99933.2
99949.8
99872.1
99872.3
99871.5
99869.9
99868.9
99870
99874.5
99883.5
99897
99913.9
99932.4
99950
)
;

boundaryField
{
    rotor
    {
        type            zeroGradient;
    }
    stator
    {
        type            zeroGradient;
    }
    front
    {
        type            empty;
    }
    back
    {
        type            empty;
    }
}


// ************************************************************************* //
