/*--------------------------------*- C++ -*----------------------------------*\
| =========                 |                                                 |
| \\      /  F ield         | OpenFOAM: The Open Source CFD Toolbox           |
|  \\    /   O peration     | Version:  2212                                  |
|   \\  /    A nd           | Website:  www.openfoam.com                      |
|    \\/     M anipulation  |                                                 |
\*---------------------------------------------------------------------------*/
FoamFile
{
    version     2.0;
    format      ascii;
    arch        "LSB;label=32;scalar=64";
    class       surfaceScalarField;
    location    "0.03";
    object      phi;
}
// * * * * * * * * * * * * * * * * * * * * * * * * * * * * * * * * * * * * * //

dimensions      [1 0 -1 0 0 0 0];

oriented        oriented;

internalField   nonuniform List<scalar> 
5952
(
6.64588e-05
-6.64576e-05
0.000124934
-5.84745e-05
0.000156141
-3.12061e-05
0.000169407
-1.3265e-05
0.000167368
2.04042e-06
0.000130912
3.64574e-05
5.48726e-05
7.60411e-05
-8.4671e-05
0.000139545
-0.000297819
0.00021315
-0.000471056
0.000173238
-0.000600134
0.000129079
9.76628e-05
-0.000697796
5.25904e-05
-0.000119047
7.93504e-05
-8.52335e-05
7.25089e-05
-2.43636e-05
3.00629e-05
2.91821e-05
-5.63015e-05
8.84062e-05
-0.000190951
0.000171109
-0.000353552
0.000238643
-0.000476315
0.000262311
-0.000518806
0.000255642
-0.000557131
0.000211564
-0.000596069
0.000168019
0.000130563
-0.000628968
2.07292e-05
-0.000139774
1.28782e-05
-7.73812e-05
-2.99505e-05
1.84667e-05
-0.000116581
0.000115814
-0.000241855
0.000213682
-0.000352725
0.000281979
-0.000418453
0.000304374
-0.000453309
0.000297168
-0.000465424
0.000267759
-0.000477664
0.000223806
-0.000491846
0.000182203
0.000141757
-0.000503039
-3.65557e-05
-0.000103217
-8.30796e-05
-3.08556e-05
-0.000148978
8.43666e-05
-0.000229215
0.000196053
-0.000300302
0.000284771
-0.000342326
0.000324006
-0.000362486
0.000324535
-0.000369898
0.000304582
-0.000371649
0.000269512
-0.000374293
0.000226451
-0.000376464
0.000184376
0.000142809
-0.000377514
-6.09571e-05
-4.22579e-05
-0.000124413
3.26021e-05
-0.000185786
0.000145742
-0.000237696
0.000247965
-0.000267869
0.000314946
-0.000276906
0.000333044
-0.000275772
0.000323404
-0.000267791
0.000296603
-0.000259123
0.000260846
-0.000253342
0.000220673
-0.000249257
0.000180293
0.000139984
-0.00024643
-6.66566e-05
2.44007e-05
-0.000126338
9.22859e-05
-0.000172714
0.000192121
-0.000197544
0.000272796
-0.000200655
0.00031806
-0.000191395
0.000323787
-0.000175776
0.000307787
-0.000159348
0.000280176
-0.000144929
0.000246429
-0.000133796
0.000209542
-0.000125371
0.00017187
0.000133805
-0.000119189
-6.57842e-05
9.01871e-05
-0.000116505
0.000143009
-0.00014369
0.000219308
-0.000144462
0.00027357
-0.000126797
0.000300397
-0.000101913
0.000298905
-7.61349e-05
0.000282011
-5.25129e-05
0.000256557
-3.2484e-05
0.000226403
-1.64724e-05
0.000193533
-3.97372e-06
0.000159374
0.000124302
5.53136e-06
-6.68867e-05
0.000157076
-0.000103025
0.00017915
-0.000108977
0.000225263
-8.83228e-05
0.000252918
-5.33933e-05
0.00026547
-1.56839e-05
0.000261198
1.97648e-05
0.000246565
5.08617e-05
0.000225462
7.70126e-05
0.000200254
9.83157e-05
0.000172232
0.000115359
0.000142333
0.000110935
0.000128729
-5.59655e-05
0.000213043
-8.11073e-05
0.000204294
-6.59055e-05
0.000210064
-2.74516e-05
0.000214466
2.15161e-05
0.000216504
7.04732e-05
0.000212243
0.000115082
0.000201958
0.000153774
0.000186773
0.000186412
0.000167618
0.000213424
0.000145223
0.0002355
0.000120259
9.31536e-05
0.000253284
-5.95592e-05
0.000272605
-4.84607e-05
0.000193198
-3.2378e-06
0.000164844
5.35713e-05
0.00015766
0.000114281
0.000155797
0.000171722
0.000154804
0.000223016
0.000150667
0.000267361
0.000142431
0.000305023
0.000129959
0.000336649
0.000113599
0.000362996
9.39144e-05
7.14374e-05
0.000384715
8.05459e-06
0.000264554
5.74745e-05
0.000143781
0.000125996
9.63245e-05
0.000193902
8.97574e-05
0.000257323
9.23787e-05
0.000314394
9.77357e-05
0.000364699
0.000100365
0.000408453
9.86794e-05
0.000446218
9.21961e-05
0.000478627
8.1193e-05
0.000506313
6.62311e-05
4.79898e-05
0.000529763
0.000219162
4.53948e-05
0.000314516
4.84303e-05
0.000381692
2.91505e-05
0.000434619
3.68329e-05
0.000478989
4.80121e-05
0.000518943
5.77833e-05
0.000555618
6.36926e-05
0.000589197
6.51029e-05
0.000619719
6.16766e-05
0.000647207
5.37078e-05
0.000671785
4.16553e-05
0.000693503
2.62746e-05
-0.000765801
6.80062e-05
-0.000806251
4.04516e-05
-0.000822667
1.64175e-05
-0.000815759
-6.907e-06
-0.000787532
-2.82256e-05
-0.000736875
-5.06559e-05
-0.000662213
-7.46612e-05
-0.000561715
-0.000100497
-0.000433224
-0.00012849
-0.000276994
-0.000156229
-0.000112168
-0.000164825
-0.000112167
-0.000651831
9.08709e-05
-0.000666242
5.48636e-05
-0.000670832
2.10085e-05
-0.000666332
-1.14049e-05
-0.000650567
-4.39892e-05
-0.000621902
-7.93199e-05
-0.000578432
-0.00011813
-0.000517749
-0.000161178
-0.000436864
-0.000209373
-0.000333014
-0.000260078
-0.000197746
-0.000300091
-0.000309911
-0.0005124
0.000100233
-0.000518252
6.07175e-05
-0.000519533
2.22911e-05
-0.000514504
-1.64324e-05
-0.000501315
-5.71772e-05
-0.000479088
-0.000101545
-0.000446362
-0.000150855
-0.000401745
-0.000205794
-0.000343445
-0.000267671
-0.000266416
-0.000337105
-0.000159991
-0.000406515
-0.000469901
-0.000378743
0.000101463
-0.000379006
6.09831e-05
-0.000376913
2.01997e-05
-0.000371295
-2.20492e-05
-0.000361277
-6.71933e-05
-0.000346078
-0.000116742
-0.000324464
-0.000172467
-0.000295466
-0.000234791
-0.000256784
-0.000306351
-0.000203905
-0.000389983
-0.000124837
-0.000485581
-0.000594737
-0.000244622
9.96573e-05
-0.000242846
5.92084e-05
-0.000240342
1.76976e-05
-0.000236442
-2.59466e-05
-0.000230616
-7.30175e-05
-0.000222279
-0.000125078
-0.000210869
-0.000183875
-0.000195134
-0.000250524
-0.000173
-0.000328483
-0.000141682
-0.0004213
-8.96753e-05
-0.000537586
-0.000684411
-0.000114801
9.52712e-05
-0.000111558
5.59677e-05
-0.000108985
1.51264e-05
-0.000106722
-2.82075e-05
-0.000104517
-7.52205e-05
-0.000102242
-0.000127351
-9.9873e-05
-0.000186242
-9.66105e-05
-0.000253785
-9.16842e-05
-0.000333407
-8.26833e-05
-0.000430299
-6.02817e-05
-0.000559985
-0.000744691
1.25168e-05
8.82881e-05
1.74291e-05
5.10577e-05
2.05287e-05
1.20291e-05
2.18995e-05
-2.9576e-05
2.14433e-05
-7.47622e-05
1.88977e-05
-0.000124803
1.39184e-05
-0.00018126
6.3729e-06
-0.000246237
-3.63875e-06
-0.000323394
-1.47727e-05
-0.000419163
-2.22093e-05
-0.000552547
-0.000766898
0.000138906
7.81136e-05
0.000146223
4.37425e-05
0.00015078
7.47488e-06
0.000152427
-3.12206e-05
0.000150743
-7.30757e-05
0.000145031
-0.000119089
0.000134312
-0.000170539
0.000117417
-0.000229339
9.2992e-05
-0.000298967
6.0383e-05
-0.000386552
2.23494e-05
-0.000514511
-0.000744547
0.000267274
6.41263e-05
0.000277752
3.32663e-05
0.000284716
5.13277e-07
0.000287852
-3.43534e-05
0.000286474
-7.16952e-05
0.000279491
-0.000112104
0.000265253
-0.000156299
0.000241539
-0.000205623
0.000205179
-0.000262604
0.000152569
-0.00033394
8.142e-05
-0.00044336
-0.000663125
0.000402302
4.65415e-05
0.000416012
1.95593e-05
0.000425772
-9.24417e-06
0.000431158
-3.97364e-05
0.000431298
-7.18335e-05
0.000424821
-0.000105625
0.000409505
-0.00014098
0.000382205
-0.000178321
0.000337776
-0.000218172
0.000269523
-0.000265684
0.000164888
-0.000338724
-0.000498234
0.000549361
2.69455e-05
0.000565266
3.65691e-06
0.000577311
-2.12867e-05
0.000584978
-4.74001e-05
0.000587262
-7.41156e-05
0.000582648
-0.000101007
0.000568624
-0.000126954
0.000541622
-0.000151317
0.000494871
-0.000171419
0.000419809
-0.00019062
0.000288518
-0.00020743
-0.000209714
0.000712468
7.983e-06
0.000728621
-1.24933e-05
0.000741617
-3.42801e-05
0.000750808
-5.65891e-05
0.000755121
-7.84264e-05
0.000753022
-9.89052e-05
0.000742022
-0.000115952
0.000718899
-0.000128192
0.000677142
-0.000129659
0.000604529
-0.000118005
0.000452435
-5.53338e-05
0.000242723
6.14946e-05
-6.14934e-05
0.00011773
-5.6234e-05
0.000149214
-3.14832e-05
0.000161614
-1.23991e-05
0.000162897
-1.2816e-06
0.00013825
2.46484e-05
7.32777e-05
6.49737e-05
-3.7841e-05
0.00011112
-0.000238099
0.000200259
-0.00042065
0.000182552
-0.000551818
0.00013117
0.000102519
-0.000654336
5.10283e-05
-0.00011252
7.93539e-05
-8.45583e-05
7.69056e-05
-2.90336e-05
4.44961e-05
2.00116e-05
-2.68827e-05
7.00988e-05
-0.000145118
0.000142885
-0.000300291
0.000220149
-0.000440073
0.000250903
-0.000494099
0.000254287
-0.000528212
0.000216668
-0.000567755
0.000170713
0.000135138
-0.000600372
2.6113e-05
-0.000138632
2.59603e-05
-8.4404e-05
-6.37397e-06
3.30225e-06
-7.84334e-05
9.20725e-05
-0.000194666
0.000186333
-0.000315565
0.000263786
-0.000391357
0.000295942
-0.000432625
0.000292174
-0.000446179
0.000267842
-0.00045615
0.00022664
-0.000469916
0.00018448
0.000145622
-0.000480398
-2.67928e-05
-0.000111837
-6.32832e-05
-4.79118e-05
-0.000120385
6.0406e-05
-0.000197226
0.000168916
-0.00027426
0.000263368
-0.000323643
0.000313171
-0.000346787
0.000319088
-0.000355442
0.000300831
-0.000356909
0.000269312
-0.000358438
0.00022817
-0.000360532
0.000186576
0.000146225
-0.000361133
-5.291e-05
-5.89247e-05
-0.00011114
1.03206e-05
-0.000170733
0.000120001
-0.000225128
0.000223313
-0.000260015
0.000298257
-0.000270227
0.000323385
-0.000267691
0.000316554
-0.000259455
0.000292597
-0.000249396
0.000259255
-0.000242096
0.000220871
-0.00023711
0.000181592
0.000142565
-0.000233448
-6.39378e-05
5.0156e-06
-0.000122345
6.87304e-05
-0.000170037
0.000167696
-0.000197255
0.000250533
-0.000201238
0.000302243
-0.000190505
0.000312654
-0.000173326
0.000299377
-0.000155239
0.000274512
-0.000139085
0.000243103
-0.000126389
0.000208177
-0.000116895
0.000172101
0.000135665
-0.000109993
-6.69923e-05
7.20103e-05
-0.000119484
0.000121225
-0.000148836
0.00019705
-0.000150814
0.000252513
-0.000132301
0.000283733
-0.000105501
0.000285856
-7.7856e-05
0.000271735
-5.23296e-05
0.000248988
-3.05247e-05
0.000221301
-1.30181e-05
0.000190673
5.22017e-07
0.000158563
0.000125554
1.06351e-05
-7.01659e-05
0.000142179
-0.000109626
0.000160687
-0.000118082
0.000205509
-9.85022e-05
0.000232936
-6.27987e-05
0.000248032
-2.34485e-05
0.000246508
1.38225e-05
0.000234466
4.67837e-05
0.00021603
7.46328e-05
0.000193454
9.73363e-05
0.000167972
0.000115359
0.000140543
0.000111654
0.000129263
-6.04001e-05
0.000202581
-8.95845e-05
0.000189874
-7.72566e-05
0.000193183
-4.04789e-05
0.00019616
8.56492e-06
0.00019899
5.86407e-05
0.000196435
0.000104786
0.000188324
0.000145138
0.00017568
0.000179325
0.00015927
0.000207609
0.000139691
0.000230578
0.000117577
9.33972e-05
0.000248837
-6.45673e-05
0.000267151
-5.73358e-05
0.000182646
-1.57303e-05
0.000151581
3.87678e-05
0.000141665
9.88591e-05
0.000138902
0.000156756
0.000138541
0.000209001
0.000136081
0.000254511
0.000130172
0.000293348
0.000120436
0.000325984
0.000107057
0.000353054
9.05091e-05
7.12958e-05
0.000375159
3.67427e-06
0.00026348
4.75539e-05
0.000138769
0.000112734
8.64038e-05
0.000178415
7.59868e-05
0.00024081
7.65094e-05
0.000297531
8.18232e-05
0.000347911
8.57037e-05
0.000392053
8.60325e-05
0.000430397
8.20949e-05
0.00046343
7.40277e-05
0.000491609
6.23326e-05
4.75772e-05
0.000515331
0.000211779
5.17045e-05
0.000302621
4.79301e-05
0.000368036
2.09919e-05
0.000419404
2.46217e-05
0.000462094
3.38216e-05
0.000500642
4.32785e-05
0.000536371
4.9977e-05
0.000569516
5.28905e-05
0.00060004
5.15733e-05
0.000627823
4.6247e-05
0.000652747
3.74113e-05
0.000674718
2.56093e-05
-0.000725185
7.08508e-05
-0.000769249
4.40647e-05
-0.00078859
1.93421e-05
-0.000784829
-3.75916e-06
-0.000759483
-2.53448e-05
-0.000712199
-4.72827e-05
-0.000640763
-7.14354e-05
-0.000543844
-9.69174e-05
-0.000418867
-0.000124975
-0.000266474
-0.000152392
-0.000106116
-0.000160357
-0.000106115
-0.000624244
9.47241e-05
-0.000639315
5.91369e-05
-0.000645146
2.51746e-05
-0.000641877
-7.02741e-06
-0.000628102
-3.91176e-05
-0.000601458
-7.39255e-05
-0.000560571
-0.000112322
-0.000502549
-0.000154938
-0.000424688
-0.000202835
-0.00032409
-0.000252989
-0.00019237
-0.000292076
-0.000298484
-0.000490237
0.000104565
-0.000496575
6.54765e-05
-0.00049882
2.74203e-05
-0.000495155
-1.06904e-05
-0.000483568
-5.07029e-05
-0.000463216
-9.42762e-05
-0.000432597
-0.000142939
-0.000390502
-0.000197031
-0.000335092
-0.000258243
-0.000261016
-0.000327063
-0.000157716
-0.000395374
-0.000456199
-0.000361949
0.000105383
-0.000362152
6.56812e-05
-0.000360562
2.58319e-05
-0.000355877
-1.53735e-05
-0.000347164
-5.94142e-05
-0.000333643
-0.000107795
-0.000313966
-0.000162614
-0.00028708
-0.000223916
-0.000250617
-0.000294705
-0.000199604
-0.000378075
-0.000122278
-0.000472698
-0.000578475
-0.000231346
0.000103283
-0.000229725
6.40621e-05
-0.000227793
2.39025e-05
-0.000224837
-1.83275e-05
-0.000220271
-6.3979e-05
-0.000213421
-0.000114643
-0.000203747
-0.000172286
-0.000189803
-0.000237857
-0.00016943
-0.000315077
-0.000140071
-0.000407433
-8.96479e-05
-0.000523119
-0.000668122
-0.000105402
9.86938e-05
-0.000102397
6.10596e-05
-0.000100444
2.19521e-05
-9.91268e-05
-1.96428e-05
-9.81286e-05
-6.49751e-05
-9.72156e-05
-0.000115554
-9.63524e-05
-0.000173147
-9.4537e-05
-0.000239671
-9.09108e-05
-0.000318701
-8.296e-05
-0.000415381
-6.0946e-05
-0.000545131
-0.000729066
1.77354e-05
9.15958e-05
2.23336e-05
5.64638e-05
2.4759e-05
1.95291e-05
2.51656e-05
-2.00471e-05
2.35311e-05
-6.33382e-05
1.96838e-05
-0.000111705
1.33708e-05
-0.000166832
4.62669e-06
-0.000230924
-6.27532e-06
-0.000307797
-1.78199e-05
-0.000403835
-2.49863e-05
-0.000537962
-0.00075405
0.000139498
8.13629e-05
0.000146454
4.95107e-05
0.000150304
1.5682e-05
0.000150984
-2.07253e-05
0.000148167
-6.05187e-05
0.000141259
-0.000104794
0.000129403
-0.000154974
0.000111614
-0.000213133
8.67924e-05
-0.000282974
5.46082e-05
-0.000371648
1.80621e-05
-0.000501414
-0.000735986
0.000262853
6.73493e-05
0.000272946
3.94203e-05
0.000279193
9.4383e-06
0.000281384
-2.2914e-05
0.000278948
-5.80803e-05
0.000270911
-9.67539e-05
0.000255761
-0.000139821
0.000231459
-0.000188829
0.000195114
-0.000246625
0.000143441
-0.000319973
7.49407e-05
-0.000432912
-0.000661043
0.000392728
4.97828e-05
0.000406028
2.61232e-05
0.00041507
3.99303e-07
0.000419554
-2.73953e-05
0.000418741
-5.72647e-05
0.000411398
-8.94087e-05
0.000395472
-0.000123891
0.000368003
-0.000161358
0.000324096
-0.000202716
0.000257302
-0.000253177
0.000156345
-0.000331953
-0.000504697
0.000534844
3.02722e-05
0.000550298
1.06716e-05
0.000561623
-1.09225e-05
0.000568446
-3.42158e-05
0.000569912
-5.87273e-05
0.000564677
-8.41712e-05
0.000550456
-0.000109668
0.000523861
-0.000134761
0.000478337
-0.00015719
0.000405447
-0.000180285
0.000278503
-0.000205007
-0.000226191
0.000693594
1.13987e-05
0.000709275
-5.0067e-06
0.000721541
-2.31859e-05
0.000729954
-4.26259e-05
0.000733641
-6.24117e-05
0.000731317
-8.18443e-05
0.000720824
-9.91722e-05
0.000699115
-0.000113049
0.00065982
-0.000117892
0.000590404
-0.000110866
0.000443797
-5.83979e-05
0.000217609
6.6455e-05
-6.64539e-05
0.000124928
-5.84726e-05
0.000156136
-3.12063e-05
0.000169402
-1.32653e-05
0.000167365
2.0379e-06
0.000130915
3.64511e-05
5.48803e-05
7.60366e-05
-8.46527e-05
0.000139534
-0.0002978
0.000213149
-0.000471042
0.000173244
-0.000600122
0.000129081
9.76655e-05
-0.000697787
5.25888e-05
-0.000119041
7.93489e-05
-8.52317e-05
7.25099e-05
-2.43662e-05
3.00691e-05
2.91765e-05
-5.62886e-05
8.83969e-05
-0.000190933
0.000171097
-0.000353534
0.000238639
-0.000476306
0.000262309
-0.000518801
0.000255645
-0.000557125
0.000211569
-0.000596064
0.000168022
0.000130567
-0.000628964
2.0733e-05
-0.000139773
1.28868e-05
-7.73842e-05
-2.99359e-05
1.8458e-05
-0.00011656
0.000115802
-0.000241832
0.000213671
-0.000352709
0.000281976
-0.000418444
0.000304376
-0.000453305
0.000297171
-0.000465421
0.000267764
-0.000477661
0.00022381
-0.000491844
0.000182207
0.000141761
-0.000503037
-3.65476e-05
-0.000103224
-8.30643e-05
-3.08658e-05
-0.000148958
8.43535e-05
-0.000229196
0.000196042
-0.00030029
0.000284766
-0.00034232
0.000324009
-0.000362482
0.00032454
-0.000369896
0.000304586
-0.000371648
0.000269517
-0.000374292
0.000226456
-0.000376463
0.00018438
0.000142813
-0.000377513
-6.09497e-05
-4.22719e-05
-0.000124401
3.25879e-05
-0.000185775
0.000145729
-0.000237688
0.000247957
-0.000267866
0.000314946
-0.000276905
0.000333049
-0.000275772
0.000323409
-0.000267792
0.000296608
-0.000259123
0.000260851
-0.000253342
0.000220677
-0.000249257
0.000180297
0.000139987
-0.00024643
-6.66535e-05
2.43837e-05
-0.000126334
9.22706e-05
-0.000172712
0.000192109
-0.000197544
0.000272792
-0.000200658
0.000318062
-0.000191398
0.000323792
-0.000175778
0.000307792
-0.000159349
0.000280181
-0.00014493
0.000246434
-0.000133797
0.000209546
-0.000125371
0.000171873
0.000133807
-0.000119189
-6.57852e-05
9.01711e-05
-0.000116508
0.000142996
-0.000143695
0.000219299
-0.000144468
0.000273567
-0.000126802
0.000300398
-0.000101916
0.000298908
-7.61376e-05
0.000282016
-5.25148e-05
0.000256561
-3.24851e-05
0.000226406
-1.6473e-05
0.000193536
-3.97397e-06
0.000159377
0.000124304
5.53138e-06
-6.68903e-05
0.000157064
-0.000103031
0.000179139
-0.000108986
0.000225256
-8.83307e-05
0.000252914
-5.33997e-05
0.00026547
-1.56886e-05
0.0002612
1.97615e-05
0.000246568
5.08595e-05
0.000225465
7.70111e-05
0.000200257
9.83148e-05
0.000172235
0.000115359
0.000142335
0.000110937
0.000128729
-5.59711e-05
0.000213037
-8.1116e-05
0.000204286
-6.5915e-05
0.000210057
-2.74605e-05
0.000214462
2.15088e-05
0.000216503
7.04676e-05
0.000212243
0.000115078
0.00020196
0.000153771
0.000186775
0.00018641
0.00016762
0.000213423
0.000145225
0.000235499
0.000120261
9.31555e-05
0.000253283
-5.95644e-05
0.000272604
-4.84677e-05
0.000193193
-3.24605e-06
0.000164838
5.3563e-05
0.000157655
0.000114274
0.000155795
0.000171716
0.000154803
0.000223012
0.000150667
0.000267357
0.000142432
0.00030502
0.00012996
0.000336647
0.0001136
0.000362995
9.39159e-05
7.14389e-05
0.000384714
8.05233e-06
0.000264554
5.747e-05
0.000143778
0.00012599
9.63206e-05
0.000193895
8.97534e-05
0.000257317
9.23757e-05
0.000314389
9.77338e-05
0.000364694
0.000100364
0.000408449
9.86792e-05
0.000446215
9.21965e-05
0.000478624
8.11938e-05
0.000506311
6.6232e-05
4.7991e-05
0.000529761
0.000219162
4.53956e-05
0.000314514
4.84285e-05
0.000381689
2.91479e-05
0.000434616
3.68298e-05
0.000478984
4.80094e-05
0.000518939
5.77814e-05
0.000555614
6.36913e-05
0.000589194
6.51023e-05
0.000619716
6.16765e-05
0.000647204
5.37081e-05
0.000671783
4.16559e-05
0.000693501
2.62754e-05
-0.000765794
6.80082e-05
-0.000806245
4.0453e-05
-0.000822663
1.64186e-05
-0.000815755
-6.90626e-06
-0.000787529
-2.82249e-05
-0.000736873
-5.06554e-05
-0.000662211
-7.46607e-05
-0.000561713
-0.000100497
-0.000433222
-0.000128489
-0.000276993
-0.000156229
-0.000112167
-0.000164824
-0.000112166
-0.000651828
9.08734e-05
-0.000666239
5.48656e-05
-0.000670829
2.101e-05
-0.00066633
-1.14038e-05
-0.000650565
-4.39883e-05
-0.0006219
-7.93191e-05
-0.00057843
-0.00011813
-0.000517748
-0.000161177
-0.000436863
-0.000209373
-0.000333013
-0.000260077
-0.000197746
-0.000300091
-0.00030991
-0.000512398
0.000100236
-0.00051825
6.07197e-05
-0.000519531
2.22927e-05
-0.000514503
-1.64311e-05
-0.000501313
-5.71762e-05
-0.000479087
-0.000101544
-0.000446361
-0.000150854
-0.000401744
-0.000205793
-0.000343444
-0.000267671
-0.000266416
-0.000337104
-0.000159991
-0.000406514
-0.0004699
-0.000378741
0.000101466
-0.000379005
6.09852e-05
-0.000376912
2.02014e-05
-0.000371294
-2.20478e-05
-0.000361276
-6.71921e-05
-0.000346077
-0.000116741
-0.000324464
-0.000172466
-0.000295465
-0.00023479
-0.000256784
-0.00030635
-0.000203904
-0.000389982
-0.000124837
-0.00048558
-0.000594736
-0.000244622
9.96598e-05
-0.000242845
5.92105e-05
-0.000240341
1.76993e-05
-0.000236442
-2.59452e-05
-0.000230616
-7.30163e-05
-0.000222278
-0.000125077
-0.000210868
-0.000183874
-0.000195133
-0.000250523
-0.000173
-0.000328482
-0.000141681
-0.000421299
-8.96752e-05
-0.000537584
-0.000684409
-0.000114801
9.52736e-05
-0.000111558
5.59696e-05
-0.000108985
1.51281e-05
-0.000106722
-2.82061e-05
-0.000104517
-7.52193e-05
-0.000102242
-0.00012735
-9.98727e-05
-0.000186241
-9.66102e-05
-0.000253784
-9.1684e-05
-0.000333406
-8.26832e-05
-0.000430298
-6.02817e-05
-0.000559984
-0.000744689
1.2517e-05
8.82902e-05
1.74294e-05
5.10595e-05
2.0529e-05
1.20307e-05
2.18998e-05
-2.95746e-05
2.14436e-05
-7.47609e-05
1.88978e-05
-0.000124802
1.39185e-05
-0.000181259
6.37293e-06
-0.000246236
-3.63876e-06
-0.000323393
-1.47728e-05
-0.000419162
-2.22093e-05
-0.000552545
-0.000766897
0.000138906
7.81155e-05
0.000146223
4.37442e-05
0.00015078
7.47645e-06
0.000152427
-3.12192e-05
0.000150743
-7.30743e-05
0.000145031
-0.000119088
0.000134312
-0.000170538
0.000117417
-0.000229338
9.29918e-05
-0.000298966
6.03829e-05
-0.000386551
2.23492e-05
-0.00051451
-0.000744545
0.000267273
6.4128e-05
0.000277752
3.3268e-05
0.000284716
5.14786e-07
0.000287851
-3.4352e-05
0.000286473
-7.16939e-05
0.000279491
-0.000112103
0.000265253
-0.000156297
0.000241539
-0.000205622
0.000205179
-0.000262603
0.000152568
-0.000333939
8.14197e-05
-0.000443359
-0.000663124
0.000402302
4.6543e-05
0.000416011
1.95607e-05
0.000425771
-9.24275e-06
0.000431157
-3.9735e-05
0.000431298
-7.18321e-05
0.00042482
-0.000105623
0.000409504
-0.000140979
0.000382205
-0.00017832
0.000337775
-0.000218171
0.000269522
-0.000265683
0.000164888
-0.000338723
-0.000498233
0.00054936
2.69467e-05
0.000565265
3.65818e-06
0.00057731
-2.12854e-05
0.000584977
-4.73988e-05
0.000587262
-7.41143e-05
0.000582647
-0.000101006
0.000568623
-0.000126953
0.000541621
-0.000151316
0.00049487
-0.000171418
0.000419809
-0.000190619
0.000288518
-0.00020743
-0.000209713
0.000712466
7.98397e-06
0.000728619
-1.24922e-05
0.000741615
-3.42789e-05
0.000750807
-5.65879e-05
0.00075512
-7.84252e-05
0.000753021
-9.8904e-05
0.000742021
-0.00011595
0.000718898
-0.000128191
0.000677141
-0.000129658
0.000604528
-0.000118004
0.000452434
-5.53332e-05
0.000242723
6.1495e-05
-6.14938e-05
0.00011773
-5.62343e-05
0.000149215
-3.14832e-05
0.000161615
-1.2399e-05
0.000162897
-1.28143e-06
0.00013825
2.46486e-05
7.32777e-05
6.4974e-05
-3.78414e-05
0.000111121
-0.0002381
0.00020026
-0.000420651
0.000182552
-0.000551819
0.00013117
0.000102519
-0.000654337
5.10286e-05
-0.000112521
7.93544e-05
-8.45588e-05
7.69061e-05
-2.90337e-05
4.44965e-05
2.00119e-05
-2.68827e-05
7.00992e-05
-0.000145118
0.000142886
-0.000300292
0.000220149
-0.000440073
0.000250904
-0.000494099
0.000254287
-0.000528213
0.000216668
-0.000567755
0.000170713
0.000135138
-0.000600373
2.61131e-05
-0.000138632
2.59603e-05
-8.44045e-05
-6.37413e-06
3.30232e-06
-7.84337e-05
9.2073e-05
-0.000194666
0.000186333
-0.000315565
0.000263787
-0.000391357
0.000295943
-0.000432626
0.000292174
-0.00044618
0.000267842
-0.00045615
0.00022664
-0.000469916
0.000184481
0.000145622
-0.000480398
-2.67931e-05
-0.000111837
-6.32838e-05
-4.7912e-05
-0.000120386
6.04063e-05
-0.000197227
0.000168916
-0.00027426
0.000263368
-0.000323643
0.000313171
-0.000346787
0.000319089
-0.000355442
0.000300831
-0.00035691
0.000269312
-0.000358438
0.00022817
-0.000360532
0.000186576
0.000146226
-0.000361134
-5.29105e-05
-5.89245e-05
-0.000111141
1.03208e-05
-0.000170734
0.000120002
-0.000225129
0.000223313
-0.000260016
0.000298257
-0.000270228
0.000323385
-0.000267691
0.000316554
-0.000259455
0.000292597
-0.000249397
0.000259255
-0.000242096
0.000220872
-0.00023711
0.000181593
0.000142565
-0.000233448
-6.39381e-05
5.01606e-06
-0.000122346
6.87308e-05
-0.000170038
0.000167696
-0.000197255
0.000250533
-0.000201239
0.000302243
-0.000190505
0.000312654
-0.000173326
0.000299377
-0.000155239
0.000274513
-0.000139085
0.000243104
-0.000126389
0.000208177
-0.000116895
0.000172101
0.000135665
-0.000109993
-6.69925e-05
7.20109e-05
-0.000119484
0.000121225
-0.000148836
0.00019705
-0.000150814
0.000252513
-0.000132301
0.000283733
-0.000105501
0.000285856
-7.78559e-05
0.000271735
-5.23295e-05
0.000248989
-3.05246e-05
0.000221301
-1.3018e-05
0.000190673
5.22095e-07
0.000158563
0.000125554
1.06352e-05
-7.01658e-05
0.000142179
-0.000109626
0.000160688
-0.000118082
0.000205509
-9.85019e-05
0.000232936
-6.27984e-05
0.000248032
-2.34483e-05
0.000246508
1.38227e-05
0.000234466
4.67839e-05
0.00021603
7.4633e-05
0.000193455
9.73365e-05
0.000167972
0.00011536
0.000140543
0.000111654
0.000129263
-6.03998e-05
0.000202581
-8.9584e-05
0.000189874
-7.72562e-05
0.000193183
-4.04785e-05
0.000196161
8.56528e-06
0.00019899
5.8641e-05
0.000196435
0.000104786
0.000188324
0.000145138
0.00017568
0.000179326
0.00015927
0.00020761
0.000139691
0.000230578
0.000117577
9.33973e-05
0.000248837
-6.45669e-05
0.000267151
-5.73353e-05
0.000182646
-1.57298e-05
0.000151581
3.87682e-05
0.000141665
9.88595e-05
0.000138902
0.000156756
0.000138541
0.000209001
0.000136081
0.000254512
0.000130172
0.000293348
0.000120437
0.000325984
0.000107058
0.000353055
9.05093e-05
7.12959e-05
0.000375159
3.67449e-06
0.00026348
4.75542e-05
0.000138769
0.000112734
8.64039e-05
0.000178415
7.5987e-05
0.00024081
7.65097e-05
0.000297531
8.18235e-05
0.000347911
8.5704e-05
0.000392053
8.60328e-05
0.000430398
8.20951e-05
0.00046343
7.40279e-05
0.000491609
6.23327e-05
4.75772e-05
0.000515331
0.000211779
5.17045e-05
0.000302621
4.79302e-05
0.000368035
2.0992e-05
0.000419403
2.46219e-05
0.000462094
3.38218e-05
0.000500641
4.32787e-05
0.000536371
4.99772e-05
0.000569516
5.28907e-05
0.00060004
5.15734e-05
0.000627823
4.62471e-05
0.000652748
3.74113e-05
0.000674718
2.56093e-05
-0.000725186
7.08509e-05
-0.00076925
4.40648e-05
-0.000788591
1.93421e-05
-0.00078483
-3.75917e-06
-0.000759484
-2.53449e-05
-0.0007122
-4.72827e-05
-0.000640763
-7.14355e-05
-0.000543845
-9.69175e-05
-0.000418868
-0.000124976
-0.000266474
-0.000152393
-0.000106116
-0.000160357
-0.000106115
-0.000624245
9.47242e-05
-0.000639316
5.9137e-05
-0.000645147
2.51747e-05
-0.000641877
-7.02741e-06
-0.000628103
-3.91177e-05
-0.000601459
-7.39255e-05
-0.000560571
-0.000112322
-0.000502549
-0.000154938
-0.000424688
-0.000202835
-0.000324091
-0.000252989
-0.000192371
-0.000292076
-0.000298484
-0.000490238
0.000104565
-0.000496576
6.54766e-05
-0.00049882
2.74203e-05
-0.000495155
-1.06904e-05
-0.000483569
-5.07029e-05
-0.000463216
-9.42762e-05
-0.000432597
-0.00014294
-0.000390502
-0.000197031
-0.000335092
-0.000258244
-0.000261016
-0.000327064
-0.000157716
-0.000395374
-0.0004562
-0.000361949
0.000105383
-0.000362152
6.56812e-05
-0.000360562
2.58319e-05
-0.000355877
-1.53735e-05
-0.000347164
-5.94142e-05
-0.000333643
-0.000107795
-0.000313967
-0.000162615
-0.000287081
-0.000223916
-0.000250617
-0.000294705
-0.000199604
-0.000378076
-0.000122278
-0.000472698
-0.000578476
-0.000231346
0.000103283
-0.000229725
6.40621e-05
-0.000227794
2.39025e-05
-0.000224838
-1.83275e-05
-0.000220271
-6.3979e-05
-0.000213421
-0.000114643
-0.000203747
-0.000172286
-0.000189804
-0.000237858
-0.00016943
-0.000315077
-0.000140071
-0.000407433
-8.9648e-05
-0.000523119
-0.000668123
-0.000105402
9.86939e-05
-0.000102397
6.10597e-05
-0.000100444
2.19521e-05
-9.91269e-05
-1.96428e-05
-9.81287e-05
-6.49751e-05
-9.72157e-05
-0.000115554
-9.63525e-05
-0.000173147
-9.45371e-05
-0.000239671
-9.09109e-05
-0.000318701
-8.29601e-05
-0.000415382
-6.09461e-05
-0.000545132
-0.000729067
1.77355e-05
9.15959e-05
2.23337e-05
5.64639e-05
2.47591e-05
1.95291e-05
2.51656e-05
-2.0047e-05
2.35311e-05
-6.33382e-05
1.96839e-05
-0.000111705
1.33708e-05
-0.000166832
4.62668e-06
-0.000230924
-6.27536e-06
-0.000307797
-1.78199e-05
-0.000403835
-2.49863e-05
-0.000537963
-0.000754051
0.000139498
8.13629e-05
0.000146454
4.95108e-05
0.000150304
1.56821e-05
0.000150984
-2.07252e-05
0.000148167
-6.05187e-05
0.000141259
-0.000104794
0.000129403
-0.000154974
0.000111614
-0.000213133
8.67925e-05
-0.000282974
5.46082e-05
-0.000371649
1.80621e-05
-0.000501415
-0.000735987
0.000262853
6.73494e-05
0.000272946
3.94203e-05
0.000279193
9.43834e-06
0.000281384
-2.29139e-05
0.000278948
-5.80803e-05
0.000270911
-9.67539e-05
0.000255761
-0.000139821
0.00023146
-0.000188829
0.000195114
-0.000246626
0.000143441
-0.000319974
7.49407e-05
-0.000432912
-0.000661044
0.000392728
4.97828e-05
0.000406028
2.61232e-05
0.00041507
3.99338e-07
0.000419554
-2.73953e-05
0.000418741
-5.72647e-05
0.000411398
-8.94087e-05
0.000395472
-0.000123891
0.000368003
-0.000161358
0.000324096
-0.000202716
0.000257302
-0.000253177
0.000156345
-0.000331953
-0.000504698
0.000534844
3.02723e-05
0.000550299
1.06716e-05
0.000561623
-1.09225e-05
0.000568447
-3.42158e-05
0.000569912
-5.87273e-05
0.000564677
-8.41712e-05
0.000550456
-0.000109668
0.000523861
-0.000134761
0.000478337
-0.00015719
0.000405448
-0.000180285
0.000278503
-0.000205007
-0.000226192
0.000693595
1.13986e-05
0.000709276
-5.00676e-06
0.000721542
-2.31859e-05
0.000729955
-4.2626e-05
0.000733642
-6.24118e-05
0.000731317
-8.18443e-05
0.000720825
-9.91723e-05
0.000699116
-0.000113049
0.000659821
-0.000117892
0.000590404
-0.000110867
0.000443798
-5.83982e-05
0.000217608
0.000818024
9.53031e-05
-0.00086793
0.000798827
6.76298e-05
0.000775007
5.2973e-05
0.00076483
4.70122e-05
0.000765838
4.70067e-05
0.00077476
4.88634e-05
0.00078868
4.97746e-05
0.000805401
4.8384e-05
0.000823363
4.37177e-05
0.000841513
3.55596e-05
0.000859296
2.3875e-05
9.36768e-06
0.000876205
0.00108727
9.16025e-05
-0.00108357
0.00107622
7.8678e-05
0.0010601
6.90998e-05
0.00104536
6.17494e-05
0.00103539
5.69864e-05
0.00103081
5.34394e-05
0.00103103
4.95545e-05
0.00103508
4.4341e-05
0.00104197
3.68255e-05
0.00105089
2.66437e-05
0.0010613
1.34723e-05
-1.81224e-06
0.00107248
0.00128412
8.38484e-05
-0.00127637
0.00128403
7.87709e-05
0.00127969
7.34424e-05
0.00127332
6.81196e-05
0.00126698
6.3328e-05
0.00126196
5.84647e-05
0.00125888
5.26361e-05
0.00125797
4.52501e-05
0.00125924
3.5564e-05
0.00126259
2.32899e-05
0.00126797
8.09473e-06
-8.74411e-06
0.00127491
0.0014731
-0.00146875
7.95055e-05
0.00147602
7.58511e-05
0.00147693
7.25316e-05
0.00147612
6.89353e-05
0.00147423
6.52122e-05
0.001472
6.06966e-05
0.00147006
5.45789e-05
0.00146895
4.63648e-05
0.00146904
3.54794e-05
0.00147063
2.16961e-05
0.00147396