/*--------------------------------*- C++ -*----------------------------------*\
| =========                 |                                                 |
| \\      /  F ield         | OpenFOAM: The Open Source CFD Toolbox           |
|  \\    /   O peration     | Version:  2212                                  |
|   \\  /    A nd           | Website:  www.openfoam.com                      |
|    \\/     M anipulation  |                                                 |
\*---------------------------------------------------------------------------*/
FoamFile
{
    version     2.0;
    format      ascii;
    arch        "LSB;label=32;scalar=64";
    class       volScalarField;
    location    "0.03";
    object      rho;
}
// * * * * * * * * * * * * * * * * * * * * * * * * * * * * * * * * * * * * * //

dimensions      [1 -3 0 0 0 0 0];

internalField   nonuniform List<scalar> 
3072
(
1.16911
1.1689
1.16879
1.16873
1.16876
1.16896
1.16971
1.17073
1.17027
1.17022
1.17035
1.17028
1.17068
1.17026
1.1703
1.17048
1.17098
1.17112
1.17165
1.17247
1.17357
1.17435
1.17483
1.17506
1.17182
1.17125
1.17152
1.17184
1.17221
1.17275
1.17355
1.17425
1.17498
1.17552
1.17593
1.17622
1.17362
1.17304
1.17336
1.17374
1.17434
1.17503
1.17574
1.17639
1.17694
1.17734
1.17765
1.17789
1.17529
1.17499
1.17535
1.17584
1.17646
1.17711
1.17774
1.17829
1.17871
1.17902
1.17925
1.17943
1.17711
1.17702
1.17737
1.17792
1.17849
1.17905
1.17955
1.17996
1.18027
1.18049
1.18065
1.18078
1.17889
1.17904
1.17938
1.17991
1.18041
1.18086
1.18122
1.18149
1.18169
1.18183
1.18192
1.18199
1.18063
1.18104
1.18133
1.18179
1.18218
1.1825
1.18272
1.18287
1.18296
1.18302
1.18304
1.18306
1.18254
1.18299
1.18313
1.18351
1.18375
1.18392
1.18401
1.18405
1.18406
1.18404
1.18401
1.18399
1.18429
1.18458
1.18464
1.18491
1.18503
1.18509
1.18509
1.18505
1.18499
1.18492
1.18485
1.1848
1.18571
1.18599
1.18584
1.18603
1.18611
1.18609
1.18603
1.18593
1.18582
1.18571
1.18561
1.18553
1.18565
1.18701
1.18695
1.18708
1.1871
1.18703
1.18691
1.18676
1.1866
1.18646
1.18633
1.18622
1.17043
1.17061
1.17094
1.17144
1.17201
1.17258
1.1732
1.17366
1.17397
1.17391
1.17369
1.17304
1.17528
1.1754
1.17552
1.17568
1.17589
1.17609
1.17627
1.17637
1.17635
1.17624
1.17568
1.17414
1.17639
1.17654
1.1767
1.1769
1.17711
1.1773
1.17744
1.17747
1.17735
1.17717
1.17665
1.17449
1.17809
1.17826
1.17841
1.17854
1.17865
1.17872
1.17874
1.17866
1.17844
1.17812
1.17763
1.17533
1.17957
1.17968
1.17978
1.17987
1.17993
1.17996
1.17995
1.17987
1.17966
1.17933
1.17892
1.17679
1.18088
1.18096
1.18103
1.1811
1.18115
1.18119
1.18121
1.18118
1.18106
1.18082
1.18053
1.17874
1.18205
1.1821
1.18215
1.18221
1.18228
1.18236
1.18244
1.18251
1.18254
1.18249
1.18243
1.18116
1.18308
1.1831
1.18314
1.18321
1.1833
1.18343
1.1836
1.18381
1.18404
1.18425
1.1846
1.18399
1.18397
1.18398
1.18401
1.18409
1.18421
1.18439
1.18465
1.185
1.18544
1.18597
1.18681
1.18719
1.18476
1.18475
1.18478
1.18486
1.185
1.18523
1.18556
1.18602
1.18665
1.18748
1.1889
1.19031
1.18547
1.18545
1.18546
1.18554
1.18568
1.18593
1.1863
1.18683
1.18758
1.18862
1.19058
1.19311
1.18614
1.18609
1.18609
1.18615
1.18628
1.18651
1.18687
1.1874
1.18815
1.18926
1.19134
1.19512
1.16904
1.16886
1.16876
1.1687
1.16874
1.16887
1.16937
1.17065
1.17007
1.17001
1.17015
1.17012
1.17062
1.17023
1.17025
1.17038
1.17083
1.17103
1.17135
1.17204
1.17308
1.17392
1.17445
1.17471
1.17172
1.17117
1.17139
1.1717
1.17203
1.17245
1.17315
1.17384
1.17456
1.17512
1.17554
1.17586
1.17348
1.17288
1.17317
1.17348
1.17401
1.17463
1.17532
1.17597
1.17654
1.17697
1.1773
1.17755
1.17511
1.17476
1.17507
1.1755
1.17607
1.1767
1.17734
1.17789
1.17834
1.17867
1.17891
1.17909
1.17693
1.17678
1.17709
1.17759
1.17813
1.17867
1.17919
1.1796
1.17992
1.18016
1.18033
1.18046
1.17871
1.1788
1.17912
1.17962
1.18009
1.18053
1.18089
1.18117
1.18138
1.18152
1.18162
1.1817
1.18047
1.18081
1.18109
1.18153
1.1819
1.18222
1.18244
1.18259
1.18268
1.18274
1.18277
1.18278
1.18238
1.18277
1.18291
1.18327
1.18351
1.18368
1.18377
1.18381
1.18381
1.18379
1.18376
1.18373
1.18411
1.18436
1.18443
1.1847
1.18483
1.1849
1.18489
1.18485
1.18478
1.1847
1.18463
1.18457
1.18552
1.18579
1.18566
1.18587
1.18596
1.18595
1.18588
1.18577
1.18565
1.18553
1.18542
1.18532
1.18553
1.18683
1.18681
1.18697
1.18701
1.18694
1.18681
1.18665
1.18648
1.18631
1.18616
1.18603
1.17023
1.1704
1.17069
1.17113
1.17165
1.17215
1.17272
1.17314
1.17341
1.17333
1.17309
1.17246
1.17495
1.17506
1.17517
1.1753
1.17547
1.17563
1.17577
1.17584
1.17581
1.17565
1.1751
1.1736
1.17605
1.1762
1.17634
1.17651
1.1767
1.17687
1.17698
1.17699
1.17685
1.17666
1.17614
1.17402
1.17774
1.17791
1.17805
1.17817
1.17826
1.17832
1.17832
1.17822
1.17799
1.17766
1.17717
1.17489
1.17923
1.17935
1.17944
1.17951
1.17956
1.17958
1.17955
1.17946
1.17924
1.17889
1.17849
1.17635
1.18056
1.18064
1.1807
1.18076
1.1808
1.18083
1.18083
1.18078
1.18065
1.18039
1.18009
1.17828
1.18175
1.1818
1.18184
1.18189
1.18195
1.18201
1.18208
1.18213
1.18214
1.18205
1.18197
1.18066
1.1828
1.18282
1.18286
1.18291
1.18299
1.18311
1.18326
1.18343
1.18363
1.1838
1.18409
1.18342
1.18372
1.18372
1.18374
1.18381
1.18392
1.18408
1.18432
1.18463
1.18504
1.18551
1.18627
1.18656
1.18452
1.18451
1.18453
1.1846
1.18473
1.18493
1.18524
1.18567
1.18626
1.18703
1.18834
1.18964
1.18525
1.18522
1.18523
1.18529
1.18542
1.18565
1.18599
1.18649
1.1872
1.18818
1.19003
1.19244
1.18593
1.18588
1.18586
1.18591
1.18603
1.18624
1.18658
1.18708
1.18779
1.18885
1.19084
1.19457
1.16911
1.1689
1.16879
1.16873
1.16876
1.16896
1.16971
1.17073
1.17027
1.17022
1.17035
1.17028
1.17068
1.17026
1.1703
1.17048
1.17098
1.17112
1.17165
1.17247
1.17357
1.17435
1.17483
1.17506
1.17182
1.17125
1.17152
1.17184
1.17221
1.17275
1.17355
1.17425
1.17498
1.17552
1.17593
1.17622
1.17362
1.17304
1.17336
1.17374
1.17434
1.17503
1.17573
1.17639
1.17694
1.17734
1.17765
1.17789
1.17529
1.17499
1.17535
1.17583
1.17646
1.17711
1.17774
1.17829
1.17871
1.17902
1.17925
1.17942
1.17711
1.17702
1.17737
1.17792
1.17849
1.17905
1.17955
1.17996
1.18027
1.18049
1.18065
1.18078
1.17889
1.17904
1.17938
1.17991
1.18041
1.18086
1.18122
1.18149
1.18169
1.18183
1.18192
1.18199
1.18063
1.18104
1.18133
1.18179
1.18218
1.1825
1.18272
1.18287
1.18296
1.18302
1.18304
1.18306
1.18254
1.18299
1.18313
1.18351
1.18375
1.18392
1.18401
1.18405
1.18406
1.18404
1.18401
1.18399
1.18429
1.18458
1.18464
1.18491
1.18503
1.18509
1.18509
1.18505
1.18499
1.18492
1.18485
1.1848
1.18571
1.18599
1.18584
1.18603
1.18611
1.18609
1.18603
1.18593
1.18582
1.18571
1.18561
1.18553
1.18565
1.18701
1.18695
1.18708
1.1871
1.18703
1.18691
1.18676
1.1866
1.18646
1.18633
1.18622
1.17043
1.17061
1.17094
1.17144
1.17201
1.17258
1.1732
1.17366
1.17397
1.17391
1.17369
1.17304
1.17528
1.17539
1.17552
1.17568
1.17589
1.17609
1.17627
1.17637
1.17635
1.17624
1.17568
1.17414
1.17639
1.17654
1.1767
1.1769
1.17711
1.1773
1.17744
1.17747
1.17734
1.17717
1.17665
1.17449
1.17809
1.17826
1.17841
1.17854
1.17865
1.17872
1.17874
1.17866
1.17844
1.17812
1.17763
1.17533
1.17957
1.17968
1.17978
1.17987
1.17993
1.17996
1.17995
1.17987
1.17966
1.17933
1.17892
1.17679
1.18088
1.18096
1.18103
1.1811
1.18115
1.18119
1.18121
1.18118
1.18106
1.18082
1.18053
1.17874
1.18205
1.1821
1.18215
1.18221
1.18228
1.18236
1.18244
1.18251
1.18254
1.18249
1.18243
1.18116
1.18308
1.1831
1.18314
1.18321
1.1833
1.18343
1.1836
1.18381
1.18404
1.18425
1.1846
1.18399
1.18397
1.18398
1.18401
1.18409
1.18421
1.18439
1.18465
1.185
1.18544
1.18597
1.18681
1.18719
1.18476
1.18475
1.18478
1.18486
1.185
1.18523
1.18556
1.18602
1.18665
1.18748
1.18889
1.19031
1.18547
1.18545
1.18546
1.18553
1.18568
1.18593
1.1863
1.18683
1.18758
1.18862
1.19058
1.19311
1.18614
1.18609
1.18609
1.18615
1.18627
1.18651
1.18687
1.1874
1.18815
1.18926
1.19134
1.19512
1.16904
1.16886
1.16876
1.1687
1.16874
1.16887
1.16937
1.17065
1.17007
1.17001
1.17015
1.17012
1.17062
1.17023
1.17025
1.17038
1.17083
1.17103
1.17135
1.17204
1.17308
1.17392
1.17445
1.17471
1.17172
1.17117
1.17139
1.1717
1.17203
1.17245
1.17315
1.17384
1.17456
1.17512
1.17554
1.17586
1.17348
1.17288
1.17317
1.17348
1.17401
1.17463
1.17532
1.17597
1.17654
1.17697
1.1773
1.17755
1.17511
1.17476
1.17507
1.1755
1.17607
1.1767
1.17734
1.17789
1.17834
1.17867
1.17891
1.17909
1.17693
1.17678
1.17709
1.17759
1.17813
1.17867
1.17919
1.1796
1.17992
1.18016
1.18033
1.18046
1.17871
1.1788
1.17912
1.17962
1.18009
1.18053
1.18089
1.18117
1.18138
1.18152
1.18162
1.1817
1.18047
1.18081
1.18109
1.18153
1.1819
1.18222
1.18244
1.18259
1.18268
1.18274
1.18277
1.18278
1.18238
1.18277
1.18291
1.18327
1.18351
1.18368
1.18377
1.18381
1.18381
1.18379
1.18376
1.18373
1.18411
1.18436
1.18443
1.1847
1.18483
1.1849
1.18489
1.18485
1.18478
1.1847
1.18463
1.18457
1.18552
1.18579
1.18566
1.18587
1.18596
1.18595
1.18588
1.18577
1.18565
1.18553
1.18542
1.18532
1.18553
1.18683
1.18681
1.18697
1.18701
1.18694
1.18681
1.18665
1.18648
1.18631
1.18616
1.18603
1.17023
1.1704
1.17069
1.17113
1.17165
1.17215
1.17272
1.17314
1.17341
1.17333
1.17309
1.17246
1.17495
1.17506
1.17517
1.1753
1.17547
1.17563
1.17577
1.17584
1.17581
1.17565
1.1751
1.1736
1.17605
1.1762
1.17634
1.17651
1.1767
1.17687
1.17698
1.17699
1.17685
1.17666
1.17614
1.17402
1.17774
1.17791
1.17805
1.17817
1.17826
1.17832
1.17832
1.17822
1.17799
1.17766
1.17717
1.17489
1.17923
1.17935
1.17944
1.17951
1.17956
1.17958
1.17955
1.17946
1.17924
1.17889
1.17849
1.17635
1.18056
1.18064
1.1807
1.18076
1.1808
1.18083
1.18083
1.18078
1.18065
1.18039
1.18009
1.17828
1.18175
1.1818
1.18184
1.18189
1.18195
1.18201
1.18208
1.18213
1.18214
1.18205
1.18197
1.18066
1.1828
1.18282
1.18286
1.18291
1.18299
1.18311
1.18326
1.18343
1.18363
1.1838
1.18409
1.18342
1.18372
1.18372
1.18374
1.18381
1.18392
1.18408
1.18432
1.18463
1.18504
1.18551
1.18627
1.18656
1.18452
1.18451
1.18453
1.1846
1.18473
1.18493
1.18524
1.18567
1.18626
1.18703
1.18834
1.18964
1.18525
1.18522
1.18523
1.18529
1.18542
1.18565
1.18599
1.18649
1.1872
1.18818
1.19003
1.19244
1.18593
1.18588
1.18586
1.18591
1.18603
1.18624
1.18658
1.18708
1.18779
1.18885
1.19084
1.19457
1.18837
1.18847
1.1883
1.18817
1.18803
1.18788
1.1877
1.18751
1.18732
1.18715
1.187
1.18687
1.18854
1.18832
1.18838
1.18841
1.1884
1.18833
1.1882
1.18805
1.18789
1.18773
1.18757
1.18743
1.18852
1.18841
1.18848
1.18852
1.18853
1.18851
1.18845
1.18836
1.18825
1.18812
1.188
1.18787
1.1885
1.18849
1.18853
1.18856
1.18858
1.18857
1.18854
1.1885
1.18844
1.18836
1.18827
1.18818
1.18677
1.1867
1.18667
1.18669
1.18679
1.18698
1.18729
1.18776
1.18837
1.18921
1.18997
1.19119
1.18732
1.18723
1.18717
1.18716
1.18721
1.18735
1.18758
1.18795
1.18842
1.18906
1.18947
1.18989
1.18776
1.18765
1.18757
1.18752
1.18752
1.18759
1.18774
1.188
1.18834
1.18882
1.18913
1.18932
1.18809
1.18797
1.18786
1.18777
1.18772
1.18772
1.18777
1.18791
1.18811
1.18845
1.18871
1.18897
1.18833
1.18839
1.18825
1.18812
1.188
1.18784
1.18764
1.18744
1.18723
1.18703
1.18684
1.18668
1.18862
1.18834
1.18838
1.1884
1.18837
1.18829
1.18815
1.18798
1.18778
1.18759
1.18739
1.18722
1.1887
1.18853
1.18854
1.18855
1.18852
1.18847
1.18838
1.18826
1.1881
1.18793
1.18775
1.18758
1.18878
1.1887
1.18868
1.18866
1.18862
1.18857
1.18849
1.1884
1.18828
1.18813
1.18797
1.18781
1.18656
1.18647
1.18643
1.18645
1.18654
1.18671
1.187
1.18744
1.18802
1.18884
1.1896
1.19088
1.18707
1.18696
1.1869
1.18689
1.18694
1.18707
1.18729
1.18764
1.18809
1.18872
1.18916
1.18963
1.18743
1.18732
1.18725
1.18722
1.18723
1.1873
1.18744
1.1877
1.18802
1.18849
1.18883
1.18904
1.18767
1.18757
1.1875
1.18745
1.18743
1.18746
1.18752
1.18765
1.18783
1.18815
1.1884
1.18865
1.18837
1.18847
1.1883
1.18817
1.18803
1.18788
1.1877
1.18751
1.18732
1.18715
1.187
1.18687
1.18854
1.18832
1.18838
1.18841
1.1884
1.18833
1.1882
1.18805
1.18789
1.18773
1.18757
1.18743
1.18852
1.18841
1.18848
1.18852
1.18853
1.18851
1.18845
1.18836
1.18825
1.18812
1.188
1.18787
1.1885
1.18849
1.18853
1.18856
1.18857
1.18857
1.18854
1.1885
1.18844
1.18836
1.18827
1.18818
1.18677
1.1867
1.18667
1.18669
1.18679
1.18698
1.18729
1.18776
1.18837
1.18921
1.18997
1.19119
1.18732
1.18723
1.18717
1.18716
1.18721
1.18735
1.18758
1.18795
1.18842
1.18906
1.18947
1.18989
1.18776
1.18765
1.18757
1.18752
1.18752
1.18759
1.18774
1.188
1.18834
1.18882
1.18913
1.18932
1.18809
1.18797
1.18786
1.18777
1.18772
1.18772
1.18777
1.18791
1.18811
1.18845
1.18871
1.18897
1.18833
1.18839
1.18825
1.18812
1.188
1.18784
1.18764
1.18744
1.18723
1.18703
1.18684
1.18668
1.18862
1.18834
1.18838
1.1884
1.18837
1.18829
1.18815
1.18798
1.18778
1.18759
1.18739
1.18722
1.1887
1.18853
1.18854
1.18855
1.18852
1.18847
1.18838
1.18826
1.1881
1.18793
1.18775
1.18758
1.18878
1.1887
1.18868
1.18866
1.18862
1.18857
1.18849
1.1884
1.18828
1.18813
1.18797
1.18781
1.18656
1.18647
1.18643
1.18645
1.18654
1.18671
1.187
1.18744
1.18802
1.18884
1.1896
1.19088
1.18707
1.18696
1.1869
1.18689
1.18694
1.18707
1.18729
1.18764
1.18809
1.18872
1.18916
1.18963
1.18743
1.18732
1.18725
1.18722
1.18723
1.1873
1.18744
1.1877
1.18802
1.18849
1.18883
1.18904
1.18767
1.18757
1.1875
1.18745
1.18743
1.18746
1.18752
1.18765
1.18784
1.18815
1.1884
1.18865
1.18848
1.18853
1.18858
1.18862
1.18865
1.18865
1.18863
1.1886
1.18856
1.1885
1.18844
1.18838
1.18848
1.18855
1.18862
1.18867
1.1887
1.18871
1.1887
1.18867
1.18863
1.18859
1.18855
1.1885
1.18847
1.18856
1.18863
1.18868
1.18872
1.18873
1.18872
1.18869
1.18864
1.1886
1.18857
1.18856
1.18845
1.18854
1.18862
1.18867
1.1887
1.18871
1.18869
1.18866
1.18861
1.18857
1.18854
1.18855
1.18832
1.18822
1.18814
1.18807
1.18802
1.188
1.18801
1.18807
1.18816
1.18836
1.1885
1.18868
1.18848
1.18841
1.18836
1.18832
1.18831
1.18831
1.18833
1.18837
1.18844
1.18851
1.18854
1.18856
1.18858
1.18852
1.18849
1.18848
1.18849
1.1885
1.18851
1.18853
1.18855
1.18855
1.18852
1.18846
1.18864
1.18858
1.18856
1.18856
1.18858
1.18859
1.18859
1.18859
1.18857
1.18852
1.18845
1.18835
1.18867
1.18864
1.18859
1.18854
1.18847
1.18839
1.1883
1.1882
1.18809
1.18795
1.18782
1.18768
1.1885
1.18844
1.18836
1.18827
1.18818
1.18808
1.18797
1.18785
1.18772
1.18761
1.1875
1.1874
1.18836
1.18826
1.18816
1.18805
1.18795
1.18783
1.18772
1.18759
1.18747
1.18736
1.18727
1.18719
1.18823
1.18812
1.188
1.18789
1.18778
1.18766
1.18753
1.1874
1.18727
1.18715
1.18706
1.18699
1.18755
1.18746
1.18741
1.1874
1.18742
1.18746
1.18754
1.18765
1.1878
1.18802
1.18822
1.18843
1.18729
1.18721
1.18718
1.1872
1.18726
1.18735
1.18747
1.18763
1.18781
1.18804
1.18823
1.1884
1.18709
1.18701
1.187
1.18704
1.18712
1.18724
1.1874
1.18758
1.18778
1.188
1.1882
1.18837
1.18695
1.18686
1.18685
1.1869
1.18701
1.18715
1.18732
1.18752
1.18773
1.18796
1.18816
1.18833
1.18848
1.18853
1.18858
1.18862
1.18865
1.18865
1.18863
1.1886
1.18856
1.1885
1.18844
1.18838
1.18848
1.18855
1.18862
1.18867
1.1887
1.18871
1.1887
1.18867
1.18863
1.18859
1.18855
1.1885
1.18847
1.18855
1.18863
1.18868
1.18872
1.18873
1.18872
1.18869
1.18864
1.1886
1.18857
1.18856
1.18845
1.18854
1.18862
1.18867
1.1887
1.18871
1.18869
1.18866
1.18861
1.18857
1.18854
1.18855
1.18832
1.18822
1.18814
1.18807
1.18802
1.188
1.18801
1.18807
1.18816
1.18836
1.1885
1.18868
1.18848
1.1884
1.18836
1.18832
1.18831
1.18831
1.18833
1.18837
1.18844
1.18851
1.18854
1.18856
1.18858
1.18851
1.18849
1.18848
1.18849
1.1885
1.18851
1.18853
1.18855
1.18855
1.18852
1.18846
1.18864
1.18858
1.18856
1.18856
1.18858
1.18859
1.18859
1.18859
1.18857
1.18852
1.18845
1.18835
1.18867
1.18864
1.18859
1.18854
1.18847
1.1884
1.1883
1.1882
1.18809
1.18795
1.18782
1.18768
1.1885
1.18844
1.18836
1.18827
1.18818
1.18808
1.18797
1.18785
1.18772
1.18761
1.1875
1.1874
1.18836
1.18826
1.18816
1.18805
1.18795
1.18783
1.18772
1.18759
1.18747
1.18736
1.18727
1.18719
1.18823
1.18812
1.18801
1.18789
1.18778
1.18766
1.18753
1.1874
1.18727
1.18715
1.18706
1.18699
1.18755
1.18746
1.18741
1.1874
1.18742
1.18746
1.18754
1.18765
1.1878
1.18802
1.18822
1.18843
1.18729
1.18721
1.18718
1.1872
1.18726
1.18735
1.18747
1.18763
1.18781
1.18804
1.18823
1.1884
1.1871
1.18701
1.187
1.18704
1.18712
1.18724
1.1874
1.18758
1.18778
1.18801
1.1882
1.18837
1.18695
1.18686
1.18685
1.1869
1.18701
1.18715
1.18732
1.18752
1.18773
1.18796
1.18816
1.18833
1.18842
1.18852
1.1886
1.18865
1.18868
1.18868
1.18865
1.18861
1.18855
1.18849
1.18843
1.18842
1.18838
1.18849
1.18857
1.18862
1.18864
1.18863
1.1886
1.18854
1.18847
1.18839
1.18829
1.18818
1.18834
1.18845
1.18853
1.18858
1.18859
1.18858
1.18853
1.18847
1.18838
1.18828
1.18815
1.18797
1.1883
1.18841
1.18849
1.18853
1.18854
1.18852
1.18846
1.18838
1.18828
1.18815
1.18801
1.1878
1.18825
1.18837
1.18844
1.18848
1.18848
1.18845
1.18838
1.18829
1.18817
1.18803
1.18787
1.18764
1.18821
1.18832
1.1884
1.18843
1.18842
1.18838
1.18831
1.1882
1.18807
1.18791
1.18773
1.18749
1.18816
1.18828
1.18835
1.18838
1.18836
1.18831
1.18823
1.18811
1.18796
1.18779
1.1876
1.18734
1.18812
1.18823
1.1883
1.18832
1.18831
1.18825
1.18815
1.18802
1.18786
1.18768
1.18748
1.18721
1.18807
1.18819
1.18825
1.18827
1.18825
1.18818
1.18808
1.18794
1.18777
1.18757
1.18736
1.18708
1.18804
1.18815
1.18821
1.18823
1.1882
1.18812
1.18801
1.18786
1.18768
1.18747
1.18726
1.18697
1.188
1.18811
1.18817
1.18818
1.18814
1.18806
1.18794
1.18778
1.18758
1.18737
1.18715
1.18687
1.18794
1.18806
1.18811
1.18812
1.18807
1.18798
1.18784
1.18767
1.18746
1.18724
1.18702
1.18679
1.1887
1.1886
1.18858
1.18859
1.18861
1.18862
1.18861
1.18858
1.18853
1.18846
1.18836
1.18825
1.1886
1.18858
1.18857
1.18858
1.1886
1.1886
1.18858
1.18854
1.18847
1.18838
1.18828
1.18816
1.18851
1.18851
1.18852
1.18854
1.18855
1.18855
1.18852
1.18847
1.18839
1.1883
1.18819
1.18808
1.18842
1.18843
1.18845
1.18847
1.18848
1.18847
1.18844
1.18839
1.18831
1.18822
1.18811
1.18801
1.18831
1.18833
1.18836
1.18838
1.18839
1.18838
1.18835
1.18829
1.18822
1.18813
1.18804
1.18794
1.18818
1.18821
1.18825
1.18828
1.1883
1.18828
1.18825
1.18819
1.18813
1.18805
1.18797
1.18789
1.18804
1.18808
1.18814
1.18817
1.18819
1.18818
1.18814
1.18809
1.18804
1.18797
1.1879
1.18784
1.18786
1.18793
1.18801
1.18805
1.18807
1.18807
1.18804
1.188
1.18795
1.1879
1.18784
1.18779
1.18765
1.18776
1.18787
1.18793
1.18796
1.18796
1.18793
1.1879
1.18786
1.18783
1.18779
1.18775
1.18739
1.18758
1.18773
1.18781
1.18784
1.18785
1.18783
1.18781
1.18778
1.18776
1.18773
1.18771
1.18709
1.18736
1.18757
1.18767
1.18772
1.18774
1.18773
1.18772
1.1877
1.18769
1.18768
1.18766
1.18665
1.18701
1.18733
1.18747
1.18754
1.18757
1.18758
1.18758
1.18758
1.18759
1.1876
1.18759
1.18812
1.188
1.18789
1.18777
1.18765
1.18752
1.18739
1.18726
1.18712
1.18697
1.18683
1.18664
1.18803
1.18791
1.1878
1.18768
1.18755
1.18743
1.18729
1.18715
1.18699
1.18681
1.18661
1.18618
1.18796
1.18784
1.18773
1.18761
1.18749
1.18736
1.18722
1.18707
1.1869
1.1867
1.18647
1.18601
1.1879
1.18779
1.18768
1.18757
1.18745
1.18732
1.18717
1.18701
1.18683
1.18661
1.18638
1.18597
1.18785
1.18775
1.18765
1.18754
1.18742
1.18729
1.18714
1.18698
1.18679
1.18656
1.18634
1.18595
1.18781
1.18772
1.18763
1.18753
1.18741
1.18728
1.18713
1.18696
1.18676
1.18653
1.18631
1.18595
1.18777
1.18769
1.18761
1.18752
1.1874
1.18727
1.18712
1.18695
1.18675
1.18651
1.1863
1.18596
1.18774
1.18767
1.1876
1.18751
1.1874
1.18727
1.18712
1.18694
1.18674
1.1865
1.18629
1.18597
1.18771
1.18765
1.18759
1.18751
1.1874
1.18728
1.18713
1.18694
1.18674
1.1865
1.18629
1.18598
1.18767
1.18764
1.18758
1.1875
1.1874
1.18728
1.18713
1.18695
1.18675
1.1865
1.18628
1.18599
1.18764
1.18761
1.18756
1.18749
1.1874
1.18728
1.18713
1.18694
1.18674
1.18649
1.18626
1.18599
1.18759
1.18758
1.18754
1.18748
1.1874
1.18728
1.18714
1.18696
1.18676
1.18651
1.18627
1.18602
1.18683
1.18671
1.18671
1.18678
1.1869
1.18706
1.18724
1.18745
1.18768
1.1879
1.18811
1.18829
1.18659
1.18656
1.18658
1.18666
1.18679
1.18696
1.18717
1.18739
1.18762
1.18785
1.18806
1.18824
1.18641
1.18641
1.18645
1.18654
1.18669
1.18688
1.18709
1.18732
1.18756
1.1878
1.18801
1.1882
1.18623
1.18626
1.18632
1.18643
1.18659
1.18679
1.18702
1.18725
1.1875
1.18774
1.18796
1.18815
1.18605
1.18612
1.18619
1.18632
1.18649
1.18671
1.18694
1.18719
1.18744
1.18769
1.18791
1.1881
1.18587
1.18597
1.18607
1.18621
1.1864
1.18663
1.18687
1.18713
1.18738
1.18763
1.18786
1.18805
1.18568
1.18583
1.18595
1.18611
1.18631
1.18655
1.18681
1.18707
1.18733
1.18758
1.18781
1.188
1.1855
1.18569
1.18584
1.18601
1.18622
1.18647
1.18674
1.18701
1.18728
1.18753
1.18776
1.18796
1.18533
1.18556
1.18573
1.18591
1.18613
1.1864
1.18668
1.18696
1.18723
1.18748
1.18771
1.18791
1.18517
1.18544
1.18562
1.18581
1.18604
1.18632
1.18663
1.18691
1.18718
1.18743
1.18766
1.18787
1.18504
1.18533
1.18552
1.1857
1.18594
1.18625
1.18657
1.18686
1.18713
1.18738
1.18762
1.18783
1.18491
1.1852
1.18539
1.18557
1.18582
1.18615
1.18649
1.1868
1.18706
1.18731
1.18756
1.18777
1.18842
1.18852
1.1886
1.18865
1.18868
1.18868
1.18865
1.18861
1.18855
1.18849
1.18843
1.18842
1.18838
1.18849
1.18857
1.18862
1.18864
1.18863
1.1886
1.18854
1.18847
1.18839
1.18829
1.18818
1.18834
1.18845
1.18853
1.18858
1.18859
1.18858
1.18853
1.18847
1.18838
1.18828
1.18815
1.18797
1.1883
1.18841
1.18849
1.18853
1.18854
1.18852
1.18846
1.18838
1.18828
1.18815
1.18801
1.1878
1.18825
1.18837
1.18844
1.18848
1.18848
1.18845
1.18838
1.18829
1.18817
1.18803
1.18787
1.18764
1.18821
1.18832
1.18839
1.18843
1.18842
1.18838
1.18831
1.1882
1.18807
1.18791
1.18773
1.18749
1.18816
1.18828
1.18835
1.18838
1.18836
1.18831
1.18823
1.18811
1.18796
1.18779
1.1876
1.18734
1.18812
1.18823
1.1883
1.18832
1.18831
1.18825
1.18815
1.18802
1.18786
1.18768
1.18748
1.18721
1.18807
1.18819
1.18825
1.18827
1.18825
1.18818
1.18808
1.18793
1.18777
1.18757
1.18736
1.18708
1.18803
1.18815
1.18821
1.18823
1.1882
1.18812
1.18801
1.18785
1.18767
1.18747
1.18725
1.18697
1.188
1.18811
1.18817
1.18818
1.18814
1.18806
1.18794
1.18778
1.18758
1.18737
1.18715
1.18687
1.18794
1.18806
1.18811
1.18812
1.18807
1.18798
1.18784
1.18767
1.18746
1.18724
1.18701
1.18679
1.1887
1.1886
1.18858
1.18859
1.18861
1.18862
1.18861
1.18858
1.18853
1.18846
1.18836
1.18825
1.1886
1.18858
1.18857
1.18858
1.1886
1.1886
1.18858
1.18854
1.18847
1.18838
1.18828
1.18816
1.18851
1.18851
1.18852
1.18854
1.18855
1.18855
1.18852
1.18847
1.1884
1.1883
1.18819
1.18808
1.18842
1.18843
1.18845
1.18847
1.18848
1.18847
1.18844
1.18839
1.18831
1.18822
1.18811
1.18801
1.18831
1.18833
1.18836
1.18838
1.18839
1.18838
1.18835
1.18829
1.18822
1.18813
1.18804
1.18794
1.18818
1.18821
1.18825
1.18828
1.18829
1.18828
1.18825
1.18819
1.18813
1.18805
1.18797
1.18789
1.18804
1.18808
1.18814
1.18817
1.18819
1.18818
1.18814
1.18809
1.18804
1.18797
1.1879
1.18784
1.18786
1.18793
1.18801
1.18805
1.18807
1.18807
1.18804
1.188
1.18795
1.1879
1.18784
1.18779
1.18765
1.18776
1.18787
1.18793
1.18796
1.18796
1.18793
1.1879
1.18786
1.18783
1.18779
1.18775
1.18739
1.18758
1.18773
1.18781
1.18784
1.18785
1.18783
1.18781
1.18778
1.18776
1.18773
1.18771
1.18709
1.18736
1.18757
1.18767
1.18772
1.18774
1.18773
1.18772
1.1877
1.18769
1.18768
1.18766
1.18665
1.18701
1.18733
1.18747
1.18754
1.18757
1.18758
1.18758
1.18758
1.18759
1.1876
1.18759
1.18812
1.188
1.18789
1.18777
1.18765
1.18752
1.18739
1.18726
1.18712
1.18697
1.18683
1.18665
1.18803
1.18791
1.1878
1.18768
1.18756
1.18743
1.18729
1.18715
1.18699
1.18681
1.18661
1.18618
1.18796
1.18784
1.18773
1.18761
1.18749
1.18736
1.18722
1.18707
1.1869
1.1867
1.18647
1.18602
1.1879
1.18779
1.18768
1.18757
1.18745
1.18732
1.18717
1.18701
1.18683
1.18661
1.18638
1.18597
1.18785
1.18775
1.18765
1.18754
1.18742
1.18729
1.18714
1.18698
1.18679
1.18656
1.18634
1.18595
1.18781
1.18772
1.18763
1.18753
1.18741
1.18728
1.18713
1.18696
1.18676
1.18653
1.18631
1.18595
1.18777
1.18769
1.18761
1.18752
1.1874
1.18727
1.18712
1.18695
1.18675
1.18651
1.1863
1.18596
1.18774
1.18767
1.1876
1.18751
1.1874
1.18727
1.18712
1.18694
1.18674
1.18651
1.18629
1.18597
1.18771
1.18766
1.18759
1.18751
1.1874
1.18728
1.18713
1.18695
1.18674
1.1865
1.18629
1.18598
1.18767
1.18764
1.18758
1.1875
1.1874
1.18728
1.18713
1.18695
1.18675
1.1865
1.18628
1.18599
1.18764
1.18761
1.18756
1.18749
1.1874
1.18728
1.18713
1.18694
1.18674
1.18649
1.18626
1.18599
1.18759
1.18758
1.18754
1.18748
1.1874
1.18728
1.18714
1.18696
1.18676
1.18651
1.18627
1.18602
1.18683
1.18672
1.18671
1.18678
1.1869
1.18706
1.18724
1.18745
1.18768
1.1879
1.18811
1.18829
1.1866
1.18657
1.18658
1.18666
1.18679
1.18696
1.18717
1.18739
1.18762
1.18785
1.18806
1.18824
1.18641
1.18641
1.18645
1.18654
1.18669
1.18688
1.18709
1.18732
1.18756
1.1878
1.18801
1.1882
1.18623
1.18626
1.18632
1.18643
1.18659
1.18679
1.18702
1.18726
1.1875
1.18774
1.18796
1.18815
1.18605
1.18612
1.18619
1.18632
1.18649
1.18671
1.18694
1.18719
1.18744
1.18769
1.18791
1.1881
1.18587
1.18597
1.18607
1.18621
1.1864
1.18663
1.18687
1.18713
1.18738
1.18763
1.18786
1.18805
1.18568
1.18583
1.18595
1.18611
1.18631
1.18655
1.18681
1.18707
1.18733
1.18758
1.18781
1.188
1.1855
1.18569
1.18584
1.18601
1.18622
1.18647
1.18675
1.18702
1.18728
1.18753
1.18776
1.18796
1.18533
1.18556
1.18573
1.18591
1.18613
1.1864
1.18669
1.18696
1.18723
1.18748
1.18771
1.18791
1.18517
1.18544
1.18563
1.18581
1.18604
1.18633
1.18663
1.18691
1.18718
1.18743
1.18766
1.18787
1.18504
1.18533
1.18552
1.1857
1.18594
1.18625
1.18657
1.18686
1.18713
1.18739
1.18762
1.18783
1.18491
1.1852
1.18539
1.18557
1.18582
1.18615
1.18649
1.1868
1.18706
1.18731
1.18756
1.18777
)
;

boundaryField
{
    rotor
    {
        type            calculated;
        value           nonuniform List<scalar> 
192
(
1.16911
1.1689
1.16879
1.16873
1.16876
1.16896
1.16971
1.17073
1.17027
1.17022
1.17035
1.17028
1.17043
1.17061
1.17094
1.17144
1.17201
1.17258
1.1732
1.17366
1.17397
1.17391
1.17369
1.17304
1.16904
1.16886
1.16876
1.1687
1.16874
1.16887
1.16937
1.17065
1.17007
1.17001
1.17015
1.17012
1.17023
1.1704
1.17069
1.17113
1.17165
1.17215
1.17272
1.17314
1.17341
1.17333
1.17309
1.17246
1.16911
1.1689
1.16879
1.16873
1.16876
1.16896
1.16971
1.17073
1.17027
1.17022
1.17035
1.17028
1.17043
1.17061
1.17094
1.17144
1.17201
1.17258
1.1732
1.17366
1.17397
1.17391
1.17369
1.17304
1.16904
1.16886
1.16876
1.1687
1.16874
1.16887
1.16937
1.17065
1.17007
1.17001
1.17015
1.17012
1.17023
1.1704
1.17069
1.17113
1.17165
1.17215
1.17272
1.17314
1.17341
1.17333
1.17309
1.17246
1.16911
1.17068
1.17182
1.17362
1.17529
1.17711
1.17889
1.18063
1.18254
1.18429
1.18571
1.18565
1.17246
1.1736
1.17402
1.17489
1.17635
1.17828
1.18066
1.18342
1.18656
1.18964
1.19244
1.19457
1.16904
1.17062
1.17172
1.17348
1.17511
1.17693
1.17871
1.18047
1.18238
1.18411
1.18552
1.18553
1.17304
1.17414
1.17449
1.17533
1.17679
1.17874
1.18116
1.18399
1.18719
1.19031
1.19311
1.19512
1.16911
1.17068
1.17182
1.17362
1.17529
1.17711
1.17889
1.18063
1.18254
1.18429
1.18571
1.18565
1.17246
1.1736
1.17402
1.17489
1.17635
1.17828
1.18066
1.18342
1.18656
1.18964
1.19244
1.19457
1.16904
1.17062
1.17172
1.17348
1.17511
1.17693
1.17871
1.18047
1.18238
1.18411
1.18552
1.18553
1.17304
1.17414
1.17449
1.17533
1.17679
1.17874
1.18116
1.18399
1.18719
1.19031
1.19311
1.19512
)
;
    }
    stator
    {
        type            calculated;
        value           nonuniform List<scalar> 
192
(
1.18794
1.18806
1.18811
1.18812
1.18807
1.18798
1.18784
1.18767
1.18746
1.18724
1.18702
1.18679
1.18665
1.18701
1.18733
1.18747
1.18754
1.18757
1.18758
1.18758
1.18758
1.18759
1.1876
1.18759
1.18759
1.18758
1.18754
1.18748
1.1874
1.18728
1.18714
1.18696
1.18676
1.18651
1.18627
1.18602
1.18491
1.1852
1.18539
1.18557
1.18582
1.18615
1.18649
1.1868
1.18706
1.18731
1.18756
1.18777
1.18794
1.18806
1.18811
1.18812
1.18807
1.18798
1.18784
1.18767
1.18746
1.18724
1.18701
1.18679
1.18665
1.18701
1.18733
1.18747
1.18754
1.18757
1.18758
1.18758
1.18758
1.18759
1.1876
1.18759
1.18759
1.18758
1.18754
1.18748
1.1874
1.18728
1.18714
1.18696
1.18676
1.18651
1.18627
1.18602
1.18491
1.1852
1.18539
1.18557
1.18582
1.18615
1.18649
1.1868
1.18706
1.18731
1.18756
1.18777
1.1887
1.1886
1.18851
1.18842
1.18831
1.18818
1.18804
1.18786
1.18765
1.18739
1.18709
1.18665
1.18842
1.18818
1.18797
1.1878
1.18764
1.18749
1.18734
1.18721
1.18708
1.18697
1.18687
1.18679
1.18683
1.18659
1.18641
1.18623
1.18605
1.18587
1.18568
1.1855
1.18533
1.18517
1.18504
1.18491
1.18664
1.18618
1.18601
1.18597
1.18595
1.18595
1.18596
1.18597
1.18598
1.18599
1.18599
1.18602
1.1887
1.1886
1.18851
1.18842
1.18831
1.18818
1.18804
1.18786
1.18765
1.18739
1.18709
1.18665
1.18842
1.18818
1.18797
1.1878
1.18764
1.18749
1.18734
1.18721
1.18708
1.18697
1.18687
1.18679
1.18683
1.1866
1.18641
1.18623
1.18605
1.18587
1.18568
1.1855
1.18533
1.18517
1.18504
1.18491
1.18665
1.18618
1.18602
1.18597
1.18595
1.18595
1.18596
1.18597
1.18598
1.18599
1.18599
1.18602
)
;
    }
    front
    {
        type            empty;
    }
    back
    {
        type            empty;
    }
}


// ************************************************************************* //
