/*--------------------------------*- C++ -*----------------------------------*\
| =========                 |                                                 |
| \\      /  F ield         | OpenFOAM: The Open Source CFD Toolbox           |
|  \\    /   O peration     | Version:  2212                                  |
|   \\  /    A nd           | Website:  www.openfoam.com                      |
|    \\/     M anipulation  |                                                 |
\*---------------------------------------------------------------------------*/
FoamFile
{
    version     2.0;
    format      ascii;
    arch        "LSB;label=32;scalar=64";
    class       volScalarField;
    location    "0.03";
    object      T;
}
// * * * * * * * * * * * * * * * * * * * * * * * * * * * * * * * * * * * * * //

dimensions      [0 0 0 1 0 0 0];

internalField   nonuniform List<scalar> 
3072
(
292.347
292.343
292.336
292.326
292.311
292.264
292.079
291.864
292.069
292.078
291.911
291.791
292.2
292.176
292.132
292.07
291.958
291.992
291.96
291.905
291.929
291.896
291.822
291.788
292.098
292.066
291.979
291.916
291.906
291.905
291.884
291.874
291.862
291.851
291.832
291.819
292.006
291.986
291.911
291.88
291.88
291.889
291.889
291.884
291.88
291.878
291.877
291.877
291.961
291.94
291.889
291.872
291.885
291.899
291.909
291.916
291.925
291.934
291.94
291.944
291.912
291.89
291.872
291.871
291.9
291.926
291.948
291.965
291.981
291.995
292.005
292.012
291.836
291.832
291.839
291.865
291.913
291.954
291.989
292.017
292.04
292.059
292.073
292.083
291.784
291.775
291.814
291.869
291.932
291.988
292.036
292.074
292.104
292.127
292.144
292.156
291.69
291.75
291.826
291.902
291.979
292.048
292.103
292.146
292.178
292.202
292.219
292.23
291.637
291.789
291.897
291.993
292.075
292.14
292.19
292.229
292.258
292.278
292.292
292.3
291.71
291.925
292.051
292.13
292.189
292.236
292.274
292.303
292.324
292.34
292.35
292.355
292.034
292.137
292.201
292.23
292.258
292.287
292.313
292.335
292.353
292.367
292.376
292.381
291.651
291.58
291.537
291.522
291.542
291.614
291.704
291.842
291.996
292.193
292.368
292.449
291.737
291.711
291.695
291.686
291.685
291.705
291.746
291.807
291.886
292.01
292.205
292.3
291.803
291.79
291.778
291.771
291.767
291.772
291.788
291.816
291.855
291.909
292.01
292.131
291.872
291.865
291.859
291.853
291.849
291.847
291.85
291.856
291.865
291.877
291.914
291.954
291.943
291.941
291.936
291.93
291.922
291.914
291.904
291.893
291.879
291.862
291.842
291.802
292.015
292.015
292.011
292.003
291.992
291.976
291.956
291.93
291.898
291.858
291.806
291.695
292.088
292.089
292.084
292.075
292.06
292.039
292.01
291.971
291.924
291.865
291.792
291.631
292.162
292.163
292.158
292.147
292.129
292.103
292.067
292.019
291.96
291.887
291.793
291.611
292.235
292.235
292.229
292.217
292.197
292.168
292.128
292.074
292.006
291.925
291.818
291.621
292.303
292.301
292.293
292.28
292.259
292.23
292.189
292.135
292.063
291.978
291.872
291.714
292.355
292.352
292.343
292.33
292.311
292.284
292.247
292.196
292.128
292.045
291.949
291.839
292.381
292.379
292.372
292.361
292.346
292.324
292.294
292.252
292.195
292.119
292.044
292.049
292.347
292.342
292.336
292.327
292.313
292.281
292.161
291.862
292.074
292.126
291.992
291.867
292.209
292.186
292.147
292.096
291.993
291.992
292.005
291.947
291.964
291.954
291.876
291.843
292.109
292.08
292.002
291.93
291.923
291.93
291.924
291.911
291.898
291.894
291.874
291.861
292.011
291.991
291.915
291.883
291.888
291.911
291.918
291.916
291.911
291.91
291.907
291.907
291.963
291.941
291.888
291.87
291.89
291.916
291.929
291.938
291.947
291.955
291.962
291.966
291.911
291.889
291.867
291.864
291.901
291.935
291.959
291.979
291.995
292.009
292.02
292.027
291.838
291.831
291.831
291.856
291.909
291.956
291.993
292.023
292.046
292.066
292.08
292.091
291.788
291.775
291.807
291.859
291.924
291.983
292.032
292.072
292.103
292.127
292.145
292.157
291.692
291.752
291.819
291.891
291.966
292.035
292.092
292.136
292.17
292.195
292.213
292.225
291.646
291.791
291.889
291.979
292.057
292.121
292.173
292.212
292.243
292.265
292.28
292.29
291.716
291.923
292.038
292.109
292.165
292.21
292.248
292.278
292.301
292.319
292.331
292.339
292.026
292.125
292.179
292.202
292.226
292.252
292.278
292.302
292.323
292.339
292.352
292.36
291.736
291.659
291.614
291.599
291.612
291.681
291.764
291.897
292.045
292.234
292.403
292.481
291.792
291.766
291.749
291.741
291.739
291.757
291.796
291.855
291.93
292.052
292.244
292.337
291.845
291.832
291.821
291.813
291.809
291.813
291.829
291.855
291.894
291.946
292.048
292.169
291.903
291.897
291.891
291.886
291.882
291.88
291.883
291.889
291.898
291.911
291.951
291.996
291.967
291.964
291.96
291.954
291.948
291.94
291.931
291.921
291.908
291.893
291.876
291.844
292.031
292.031
292.027
292.021
292.011
291.996
291.978
291.954
291.924
291.887
291.838
291.734
292.096
292.098
292.094
292.086
292.073
292.053
292.026
291.99
291.946
291.891
291.822
291.665
292.164
292.165
292.162
292.152
292.136
292.112
292.078
292.034
291.978
291.909
291.819
291.641
292.231
292.232
292.228
292.217
292.199
292.172
292.135
292.085
292.021
291.942
291.84
291.644
292.294
292.294
292.288
292.276
292.258
292.231
292.194
292.142
292.075
291.993
291.891
291.734
292.342
292.34
292.335
292.324
292.307
292.283
292.249
292.203
292.138
292.059
291.967
291.856
292.365
292.365
292.362
292.354
292.341
292.323
292.297
292.259
292.207
292.135
292.066
292.071
292.347
292.343
292.336
292.326
292.311
292.264
292.079
291.864
292.069
292.078
291.911
291.791
292.2
292.176
292.132
292.07
291.958
291.992
291.96
291.905
291.93
291.896
291.822
291.788
292.098
292.066
291.979
291.916
291.906
291.905
291.884
291.874
291.862
291.851
291.832
291.819
292.006
291.986
291.911
291.88
291.88
291.889
291.889
291.884
291.88
291.878
291.877
291.877
291.961
291.94
291.889
291.872
291.885
291.899
291.909
291.916
291.925
291.934
291.941
291.944
291.912
291.89
291.872
291.871
291.9
291.926
291.948
291.965
291.981
291.995
292.005
292.012
291.836
291.832
291.839
291.865
291.913
291.954
291.989
292.017
292.04
292.059
292.073
292.083
291.784
291.775
291.814
291.869
291.932
291.988
292.036
292.074
292.104
292.127
292.144
292.156
291.69
291.75
291.826
291.902
291.979
292.048
292.103
292.146
292.178
292.202
292.219
292.23
291.637
291.789
291.897
291.994
292.075
292.14
292.19
292.229
292.258
292.278
292.292
292.301
291.71
291.925
292.051
292.13
292.189
292.236
292.274
292.303
292.324
292.34
292.35
292.355
292.034
292.137
292.201
292.23
292.258
292.287
292.313
292.335
292.353
292.367
292.376
292.381
291.651
291.58
291.537
291.522
291.542
291.614
291.704
291.842
291.996
292.193
292.368
292.449
291.737
291.711
291.695
291.686
291.685
291.705
291.746
291.807
291.886
292.01
292.205
292.3
291.803
291.79
291.778
291.771
291.767
291.772
291.788
291.816
291.855
291.909
292.01
292.131
291.872
291.865
291.859
291.853
291.849
291.847
291.85
291.856
291.865
291.877
291.914
291.954
291.943
291.941
291.936
291.93
291.922
291.914
291.904
291.893
291.879
291.862
291.842
291.802
292.015
292.015
292.011
292.003
291.992
291.976
291.956
291.93
291.898
291.858
291.806
291.695
292.088
292.089
292.084
292.075
292.06
292.039
292.01
291.972
291.924
291.866
291.792
291.631
292.162
292.163
292.158
292.147
292.129
292.103
292.067
292.019
291.96
291.887
291.793
291.611
292.235
292.235
292.229
292.217
292.197
292.168
292.128
292.074
292.006
291.925
291.819
291.621
292.303
292.301
292.293
292.28
292.259
292.23
292.189
292.135
292.063
291.978
291.872
291.714
292.355
292.352
292.343
292.33
292.311
292.284
292.247
292.196
292.128
292.045
291.949
291.839
292.381
292.379
292.372
292.361
292.346
292.324
292.294
292.252
292.195
292.119
292.044
292.049
292.347
292.342
292.336
292.327
292.313
292.281
292.161
291.862
292.074
292.126
291.992
291.867
292.209
292.186
292.147
292.096
291.993
291.992
292.005
291.947
291.964
291.954
291.876
291.843
292.109
292.08
292.002
291.93
291.923
291.93
291.924
291.911
291.898
291.894
291.874
291.861
292.011
291.991
291.915
291.883
291.888
291.911
291.918
291.916
291.911
291.91
291.907
291.907
291.963
291.941
291.888
291.87
291.89
291.916
291.929
291.938
291.947
291.955
291.962
291.966
291.911
291.889
291.867
291.864
291.901
291.935
291.959
291.979
291.995
292.009
292.02
292.027
291.838
291.831
291.831
291.856
291.909
291.956
291.993
292.023
292.046
292.066
292.08
292.091
291.788
291.775
291.807
291.859
291.924
291.983
292.032
292.072
292.103
292.127
292.145
292.157
291.692
291.752
291.819
291.891
291.966
292.035
292.092
292.136
292.17
292.195
292.213
292.225
291.646
291.791
291.889
291.979
292.057
292.121
292.173
292.212
292.243
292.265
292.28
292.29
291.716
291.923
292.038
292.109
292.165
292.21
292.248
292.278
292.301
292.319
292.331
292.339
292.026
292.125
292.18
292.202
292.226
292.252
292.278
292.302
292.323
292.339
292.352
292.36
291.736
291.659
291.614
291.599
291.612
291.681
291.764
291.897
292.045
292.234
292.403
292.481
291.792
291.766
291.749
291.741
291.739
291.757
291.796
291.855
291.93
292.052
292.244
292.337
291.845
291.832
291.821
291.813
291.809
291.813
291.829
291.855
291.894
291.946
292.048
292.169
291.903
291.897
291.891
291.886
291.882
291.88
291.883
291.889
291.898
291.911
291.951
291.996
291.967
291.964
291.96
291.954
291.948
291.94
291.931
291.921
291.908
291.893
291.876
291.844
292.031
292.031
292.027
292.021
292.011
291.996
291.978
291.954
291.924
291.887
291.838
291.734
292.096
292.098
292.094
292.086
292.073
292.053
292.026
291.99
291.946
291.891
291.822
291.665
292.164
292.165
292.162
292.152
292.136
292.112
292.078
292.034
291.978
291.909
291.819
291.641
292.231
292.232
292.228
292.217
292.199
292.172
292.135
292.085
292.021
291.942
291.84
291.644
292.294
292.294
292.288
292.276
292.258
292.231
292.194
292.142
292.075
291.993
291.891
291.734
292.342
292.341
292.335
292.324
292.307
292.283
292.249
292.203
292.138
292.059
291.967
291.856
292.365
292.365
292.362
292.354
292.341
292.323
292.297
292.259
292.207
292.135
292.066
292.071
292.229
292.221
292.225
292.236
292.256
292.28
292.304
292.325
292.344
292.359
292.37
292.377
292.288
292.282
292.272
292.269
292.272
292.28
292.294
292.309
292.324
292.338
292.35
292.359
292.314
292.313
292.308
292.302
292.299
292.299
292.302
292.308
292.317
292.326
292.335
292.344
292.329
292.329
292.327
292.323
292.32
292.318
292.319
292.32
292.324
292.329
292.335
292.342
292.381
292.381
292.379
292.373
292.362
292.347
292.326
292.295
292.256
292.197
292.16
292.197
292.366
292.37
292.371
292.369
292.365
292.356
292.343
292.322
292.298
292.256
292.227
292.243
292.352
292.358
292.362
292.363
292.362
292.358
292.35
292.336
292.321
292.294
292.267
292.271
292.349
292.355
292.359
292.361
292.361
292.359
292.353
292.344
292.332
292.315
292.293
292.293
292.204
292.194
292.193
292.199
292.215
292.238
292.263
292.287
292.309
292.328
292.343
292.355
292.255
292.249
292.237
292.231
292.234
292.242
292.256
292.273
292.292
292.31
292.327
292.341
292.279
292.279
292.275
292.271
292.27
292.273
292.277
292.285
292.297
292.311
292.325
292.338
292.297
292.301
292.303
292.303
292.305
292.307
292.311
292.316
292.323
292.333
292.344
292.354
292.364
292.368
292.368
292.366
292.36
292.348
292.331
292.306
292.272
292.218
292.186
292.223
292.353
292.361
292.366
292.368
292.367
292.363
292.354
292.339
292.32
292.284
292.26
292.276
292.35
292.359
292.366
292.371
292.373
292.373
292.37
292.361
292.35
292.329
292.305
292.309
292.363
292.371
292.378
292.383
292.384
292.384
292.38
292.373
292.364
292.35
292.331
292.327
292.229
292.221
292.225
292.236
292.256
292.28
292.304
292.326
292.344
292.359
292.37
292.377
292.288
292.282
292.272
292.269
292.272
292.28
292.294
292.309
292.324
292.338
292.35
292.359
292.314
292.313
292.308
292.302
292.299
292.299
292.302
292.308
292.317
292.326
292.335
292.344
292.329
292.329
292.327
292.324
292.32
292.318
292.319
292.321
292.324
292.329
292.335
292.342
292.381
292.381
292.379
292.373
292.362
292.347
292.326
292.296
292.256
292.197
292.16
292.197
292.366
292.37
292.371
292.369
292.365
292.356
292.343
292.322
292.298
292.256
292.227
292.243
292.352
292.358
292.362
292.363
292.362
292.358
292.35
292.336
292.321
292.294
292.267
292.271
292.349
292.355
292.359
292.361
292.361
292.359
292.353
292.344
292.332
292.315
292.293
292.293
292.204
292.194
292.193
292.2
292.215
292.238
292.263
292.287
292.309
292.328
292.343
292.355
292.255
292.249
292.237
292.231
292.234
292.242
292.256
292.273
292.292
292.31
292.327
292.341
292.279
292.279
292.275
292.271
292.27
292.273
292.277
292.285
292.297
292.311
292.325
292.338
292.297
292.301
292.303
292.303
292.305
292.307
292.311
292.316
292.323
292.333
292.344
292.354
292.364
292.368
292.368
292.366
292.36
292.348
292.331
292.306
292.272
292.218
292.186
292.223
292.353
292.361
292.366
292.368
292.367
292.363
292.354
292.339
292.32
292.284
292.26
292.276
292.35
292.359
292.366
292.371
292.373
292.373
292.37
292.361
292.35
292.329
292.305
292.309
292.363
292.371
292.378
292.383
292.384
292.384
292.38
292.373
292.364
292.35
292.331
292.327
292.336
292.336
292.334
292.333
292.332
292.332
292.334
292.337
292.34
292.345
292.35
292.355
292.343
292.342
292.341
292.341
292.342
292.343
292.347
292.351
292.356
292.36
292.364
292.367
292.349
292.349
292.349
292.35
292.352
292.355
292.36
292.365
292.371
292.377
292.379
292.38
292.357
292.356
292.357
292.359
292.362
292.367
292.373
292.381
292.389
292.395
292.398
292.395
292.36
292.365
292.369
292.369
292.368
292.364
292.359
292.35
292.339
292.326
292.315
292.313
292.372
292.377
292.38
292.379
292.377
292.372
292.366
292.358
292.348
292.339
292.333
292.332
292.383
292.39
292.392
292.39
292.386
292.381
292.374
292.367
292.359
292.352
292.349
292.349
292.396
292.403
292.404
292.401
292.396
292.39
292.383
292.376
292.37
292.366
292.365
292.366
292.316
292.321
292.325
292.328
292.333
292.339
292.346
292.353
292.362
292.371
292.379
292.386
292.335
292.341
292.346
292.353
292.36
292.369
292.379
292.389
292.4
292.41
292.416
292.418
292.354
292.36
292.368
292.377
292.387
292.398
292.411
292.425
292.438
292.449
292.455
292.453
292.372
292.38
292.389
292.4
292.412
292.426
292.442
292.458
292.476
292.491
292.5
292.495
292.392
292.399
292.403
292.403
292.398
292.391
292.383
292.372
292.362
292.351
292.34
292.337
292.422
292.429
292.431
292.427
292.418
292.406
292.393
292.379
292.367
292.356
292.348
292.344
292.45
292.459
292.461
292.454
292.441
292.424
292.406
292.389
292.375
292.363
292.355
292.351
292.478
292.491
292.492
292.482
292.465
292.443
292.421
292.401
292.385
292.372
292.363
292.359
292.336
292.336
292.334
292.333
292.332
292.332
292.334
292.337
292.34
292.345
292.35
292.355
292.343
292.342
292.341
292.341
292.342
292.343
292.347
292.351
292.356
292.36
292.364
292.367
292.349
292.349
292.349
292.35
292.352
292.355
292.36
292.365
292.371
292.377
292.379
292.38
292.357
292.356
292.357
292.359
292.362
292.367
292.373
292.381
292.389
292.395
292.398
292.395
292.36
292.365
292.369
292.369
292.368
292.364
292.359
292.35
292.339
292.326
292.316
292.313
292.372
292.377
292.38
292.379
292.377
292.372
292.366
292.358
292.348
292.339
292.333
292.332
292.384
292.39
292.392
292.39
292.386
292.381
292.374
292.367
292.359
292.352
292.349
292.349
292.396
292.403
292.404
292.401
292.396
292.39
292.383
292.376
292.37
292.366
292.365
292.366
292.316
292.321
292.325
292.328
292.333
292.339
292.345
292.353
292.362
292.371
292.379
292.386
292.335
292.341
292.346
292.353
292.36
292.369
292.379
292.389
292.4
292.409
292.416
292.418
292.354
292.36
292.368
292.377
292.387
292.398
292.411
292.424
292.438
292.449
292.455
292.453
292.372
292.38
292.389
292.4
292.412
292.426
292.442
292.458
292.475
292.491
292.5
292.495
292.392
292.399
292.403
292.403
292.398
292.391
292.383
292.372
292.362
292.351
292.34
292.337
292.422
292.429
292.431
292.427
292.418
292.406
292.393
292.379
292.367
292.356
292.348
292.344
292.45
292.459
292.461
292.454
292.441
292.424
292.406
292.389
292.375
292.363
292.355
292.351
292.478
292.491
292.491
292.482
292.464
292.443
292.421
292.401
292.385
292.372
292.363
292.359
292.365
292.365
292.366
292.369
292.374
292.38
292.388
292.398
292.408
292.418
292.425
292.423
292.375
292.375
292.377
292.381
292.387
292.395
292.405
292.416
292.43
292.444
292.46
292.487
292.385
292.386
292.389
292.394
292.401
292.41
292.422
292.437
292.453
292.473
292.497
292.542
292.396
292.397
292.401
292.407
292.416
292.427
292.441
292.458
292.478
292.502
292.533
292.586
292.408
292.41
292.414
292.421
292.431
292.444
292.46
292.48
292.504
292.533
292.568
292.626
292.42
292.422
292.428
292.436
292.447
292.462
292.48
292.502
292.529
292.562
292.603
292.664
292.432
292.435
292.441
292.451
292.463
292.479
292.499
292.524
292.555
292.591
292.635
292.7
292.444
292.448
292.455
292.465
292.479
292.496
292.518
292.545
292.578
292.618
292.665
292.733
292.456
292.46
292.468
292.479
292.494
292.513
292.536
292.565
292.601
292.644
292.694
292.764
292.467
292.472
292.48
292.493
292.508
292.528
292.553
292.584
292.623
292.668
292.721
292.792
292.478
292.484
292.493
292.506
292.523
292.544
292.57
292.603
292.644
292.693
292.747
292.816
292.493
292.5
292.511
292.525
292.542
292.564
292.592
292.627
292.671
292.724
292.779
292.837
292.412
292.419
292.418
292.414
292.407
292.401
292.394
292.387
292.383
292.38
292.38
292.383
292.439
292.437
292.434
292.427
292.42
292.412
292.405
292.399
292.395
292.394
292.395
292.399
292.463
292.457
292.45
292.442
292.433
292.425
292.418
292.412
292.409
292.408
292.409
292.414
292.488
292.478
292.469
292.459
292.449
292.439
292.431
292.426
292.423
292.422
292.424
292.428
292.514
292.502
292.49
292.477
292.465
292.455
292.446
292.44
292.437
292.436
292.438
292.442
292.543
292.528
292.512
292.497
292.483
292.471
292.462
292.455
292.451
292.45
292.452
292.456
292.577
292.557
292.537
292.518
292.502
292.488
292.478
292.47
292.466
292.464
292.465
292.469
292.617
292.59
292.564
292.541
292.521
292.506
292.494
292.486
292.48
292.478
292.478
292.481
292.666
292.628
292.593
292.564
292.541
292.524
292.51
292.501
292.494
292.491
292.49
292.493
292.727
292.67
292.623
292.588
292.562
292.542
292.527
292.516
292.508
292.503
292.502
292.504
292.799
292.72
292.658
292.615
292.585
292.562
292.545
292.532
292.523
292.517
292.515
292.516
292.903
292.8
292.709
292.654
292.617
292.59
292.569
292.554
292.543
292.535
292.531
292.531
292.389
292.398
292.409
292.421
292.435
292.452
292.47
292.49
292.512
292.534
292.556
292.573
292.406
292.415
292.427
292.441
292.456
292.475
292.495
292.519
292.545
292.575
292.614
292.694
292.421
292.431
292.443
292.458
292.475
292.495
292.517
292.544
292.574
292.61
292.658
292.743
292.436
292.446
292.458
292.473
292.491
292.512
292.536
292.565
292.598
292.638
292.688
292.763
292.449
292.459
292.472
292.487
292.505
292.527
292.552
292.582
292.618
292.659
292.709
292.776
292.462
292.472
292.484
292.499
292.517
292.54
292.566
292.597
292.634
292.676
292.724
292.786
292.474
292.483
292.495
292.51
292.528
292.551
292.578
292.609
292.647
292.69
292.736
292.793
292.486
292.494
292.505
292.52
292.538
292.561
292.588
292.62
292.658
292.701
292.746
292.801
292.497
292.504
292.515
292.529
292.547
292.57
292.597
292.629
292.667
292.71
292.755
292.807
292.507
292.514
292.524
292.538
292.556
292.578
292.605
292.637
292.675
292.719
292.764
292.814
292.519
292.524
292.533
292.547
292.565
292.587
292.614
292.646
292.683
292.728
292.774
292.82
292.533
292.538
292.546
292.559
292.576
292.598
292.625
292.657
292.693
292.737
292.784
292.822
292.509
292.525
292.523
292.51
292.489
292.463
292.438
292.415
292.396
292.382
292.373
292.367
292.56
292.563
292.556
292.538
292.512
292.483
292.454
292.428
292.408
292.392
292.382
292.377
292.603
292.6
292.588
292.566
292.536
292.503
292.47
292.442
292.42
292.404
292.393
292.387
292.645
292.637
292.619
292.593
292.559
292.522
292.486
292.456
292.432
292.415
292.404
292.399
292.688
292.672
292.65
292.619
292.581
292.54
292.501
292.469
292.444
292.426
292.416
292.41
292.733
292.707
292.679
292.645
292.603
292.558
292.516
292.481
292.455
292.438
292.427
292.422
292.778
292.742
292.708
292.669
292.623
292.574
292.529
292.492
292.466
292.448
292.438
292.433
292.823
292.775
292.736
292.694
292.644
292.59
292.541
292.503
292.476
292.459
292.449
292.445
292.866
292.807
292.763
292.717
292.664
292.606
292.553
292.512
292.485
292.468
292.459
292.456
292.904
292.837
292.789
292.741
292.684
292.621
292.563
292.521
292.493
292.477
292.469
292.466
292.937
292.866
292.816
292.766
292.706
292.637
292.574
292.528
292.501
292.487
292.48
292.477
292.968
292.899
292.85
292.8
292.736
292.658
292.585
292.537
292.511
292.499
292.493
292.491
292.365
292.365
292.367
292.37
292.374
292.38
292.388
292.398
292.408
292.418
292.425
292.423
292.375
292.375
292.377
292.381
292.387
292.395
292.405
292.417
292.43
292.444
292.46
292.488
292.385
292.386
292.389
292.394
292.401
292.41
292.422
292.437
292.453
292.473
292.497
292.542
292.397
292.397
292.401
292.407
292.416
292.427
292.441
292.458
292.478
292.502
292.533
292.586
292.408
292.41
292.414
292.421
292.431
292.444
292.46
292.48
292.504
292.533
292.569
292.626
292.42
292.423
292.428
292.436
292.447
292.462
292.48
292.502
292.53
292.562
292.603
292.664
292.432
292.435
292.442
292.451
292.463
292.479
292.499
292.524
292.555
292.591
292.635
292.7
292.444
292.448
292.455
292.465
292.479
292.496
292.518
292.545
292.579
292.618
292.665
292.733
292.456
292.46
292.468
292.479
292.494
292.513
292.536
292.565
292.601
292.644
292.694
292.764
292.467
292.472
292.481
292.493
292.508
292.528
292.553
292.584
292.623
292.668
292.721
292.793
292.478
292.484
292.494
292.507
292.523
292.544
292.57
292.603
292.644
292.693
292.747
292.816
292.493
292.5
292.511
292.525
292.542
292.564
292.592
292.628
292.671
292.724
292.78
292.837
292.412
292.419
292.418
292.414
292.407
292.401
292.394
292.387
292.383
292.38
292.38
292.383
292.439
292.437
292.434
292.427
292.42
292.412
292.405
292.399
292.395
292.394
292.395
292.399
292.464
292.457
292.45
292.442
292.433
292.425
292.418
292.412
292.409
292.408
292.409
292.414
292.488
292.478
292.469
292.459
292.449
292.439
292.431
292.426
292.423
292.422
292.424
292.428
292.514
292.502
292.49
292.477
292.465
292.455
292.446
292.44
292.437
292.436
292.438
292.442
292.543
292.528
292.512
292.497
292.483
292.471
292.462
292.455
292.451
292.45
292.452
292.456
292.577
292.557
292.537
292.518
292.502
292.488
292.478
292.47
292.466
292.464
292.465
292.468
292.618
292.59
292.564
292.541
292.521
292.506
292.494
292.486
292.48
292.478
292.478
292.481
292.666
292.628
292.593
292.564
292.542
292.524
292.51
292.501
292.494
292.491
292.49
292.493
292.727
292.67
292.623
292.589
292.562
292.542
292.527
292.516
292.508
292.504
292.502
292.504
292.799
292.721
292.658
292.616
292.585
292.562
292.545
292.532
292.523
292.517
292.515
292.516
292.903
292.8
292.709
292.654
292.617
292.59
292.569
292.554
292.543
292.535
292.531
292.531
292.389
292.398
292.409
292.421
292.435
292.452
292.47
292.49
292.512
292.534
292.556
292.573
292.406
292.415
292.427
292.44
292.456
292.474
292.495
292.518
292.545
292.575
292.614
292.694
292.421
292.431
292.443
292.458
292.475
292.494
292.517
292.543
292.574
292.61
292.658
292.743
292.436
292.446
292.458
292.473
292.491
292.512
292.536
292.565
292.598
292.637
292.688
292.763
292.449
292.459
292.472
292.487
292.505
292.527
292.552
292.582
292.618
292.659
292.709
292.776
292.462
292.472
292.484
292.499
292.517
292.539
292.566
292.597
292.633
292.676
292.724
292.785
292.474
292.483
292.495
292.51
292.528
292.551
292.577
292.609
292.646
292.69
292.736
292.793
292.486
292.494
292.505
292.52
292.538
292.561
292.588
292.62
292.657
292.701
292.746
292.8
292.497
292.504
292.515
292.529
292.547
292.569
292.596
292.629
292.666
292.71
292.755
292.807
292.507
292.514
292.524
292.538
292.556
292.578
292.605
292.637
292.675
292.719
292.764
292.814
292.519
292.524
292.533
292.547
292.564
292.586
292.613
292.646
292.683
292.728
292.773
292.82
292.533
292.538
292.545
292.559
292.576
292.598
292.624
292.656
292.692
292.736
292.783
292.822
292.509
292.525
292.523
292.51
292.488
292.463
292.437
292.415
292.396
292.382
292.372
292.367
292.56
292.563
292.555
292.538
292.512
292.483
292.454
292.428
292.408
292.392
292.382
292.377
292.603
292.6
292.587
292.565
292.536
292.502
292.47
292.442
292.42
292.403
292.393
292.387
292.645
292.636
292.619
292.592
292.559
292.521
292.486
292.456
292.432
292.415
292.404
292.398
292.688
292.672
292.649
292.619
292.581
292.54
292.501
292.469
292.444
292.426
292.415
292.41
292.732
292.707
292.679
292.644
292.602
292.557
292.515
292.481
292.455
292.437
292.427
292.422
292.778
292.741
292.708
292.669
292.623
292.574
292.529
292.492
292.466
292.448
292.438
292.433
292.823
292.775
292.736
292.693
292.643
292.59
292.541
292.503
292.476
292.459
292.449
292.445
292.866
292.807
292.763
292.717
292.663
292.605
292.552
292.512
292.485
292.468
292.459
292.455
292.904
292.837
292.789
292.741
292.683
292.62
292.563
292.52
292.493
292.477
292.469
292.466
292.937
292.866
292.816
292.766
292.706
292.637
292.573
292.528
292.501
292.487
292.479
292.477
292.968
292.899
292.849
292.8
292.735
292.657
292.585
292.537
292.511
292.499
292.493
292.491
)
;

boundaryField
{
    rotor
    {
        type            zeroGradient;
    }
    stator
    {
        type            zeroGradient;
    }
    front
    {
        type            empty;
    }
    back
    {
        type            empty;
    }
}


// ************************************************************************* //
