/*--------------------------------*- C++ -*----------------------------------*\
| =========                 |                                                 |
| \\      /  F ield         | OpenFOAM: The Open Source CFD Toolbox           |
|  \\    /   O peration     | Version:  2212                                  |
|   \\  /    A nd           | Website:  www.openfoam.com                      |
|    \\/     M anipulation  |                                                 |
\*---------------------------------------------------------------------------*/
FoamFile
{
    version     2.0;
    format      ascii;
    arch        "LSB;label=32;scalar=64";
    class       volScalarField;
    location    "0.03";
    object      tracer0;
}
// * * * * * * * * * * * * * * * * * * * * * * * * * * * * * * * * * * * * * //

dimensions      [0 0 0 0 0 0 0];

internalField   nonuniform List<scalar> 
3072
(
1.06779e-05
1.06607e-05
1.06116e-05
1.05191e-05
1.04286e-05
1.03669e-05
1.05442e-05
1.24718e-05
1.40565e-05
1.41931e-05
1.42227e-05
1.4249e-05
1.10124e-05
1.0947e-05
1.07427e-05
1.05162e-05
1.06704e-05
1.15403e-05
1.30515e-05
1.37085e-05
1.39369e-05
1.38301e-05
1.35223e-05
1.31938e-05
1.11599e-05
1.10605e-05
1.07335e-05
1.09811e-05
1.20655e-05
1.30832e-05
1.34396e-05
1.35357e-05
1.32532e-05
1.22936e-05
1.09146e-05
9.9788e-06
1.13222e-05
1.14033e-05
1.14163e-05
1.21259e-05
1.28932e-05
1.31654e-05
1.32275e-05
1.27147e-05
1.11144e-05
9.13319e-06
8.01161e-06
6.85284e-06
1.14284e-05
1.18549e-05
1.20801e-05
1.26776e-05
1.29346e-05
1.30046e-05
1.25376e-05
1.09198e-05
8.85113e-06
7.24389e-06
6.20844e-06
5.18645e-06
1.14799e-05
1.2062e-05
1.23838e-05
1.27326e-05
1.28393e-05
1.2611e-05
1.14684e-05
9.41461e-06
7.43119e-06
6.1117e-06
5.1521e-06
4.37885e-06
1.15028e-05
1.21374e-05
1.24832e-05
1.26547e-05
1.26216e-05
1.20562e-05
1.04756e-05
8.48389e-06
6.87508e-06
5.78685e-06
4.95533e-06
4.29149e-06
1.15638e-05
1.21792e-05
1.24429e-05
1.25392e-05
1.24034e-05
1.16112e-05
1.02755e-05
8.54695e-06
7.02588e-06
5.96708e-06
5.16698e-06
4.51848e-06
1.36523e-05
1.3911e-05
1.23681e-05
1.2273e-05
1.21333e-05
1.16079e-05
1.04701e-05
8.97386e-06
7.59672e-06
6.56677e-06
5.80838e-06
5.18408e-06
1.70647e-05
1.59843e-05
1.41363e-05
1.23023e-05
1.21129e-05
1.1745e-05
1.09894e-05
9.96406e-06
8.92996e-06
7.95323e-06
7.25613e-06
6.62705e-06
1.89689e-05
2.03856e-05
1.96411e-05
1.50079e-05
1.33531e-05
1.2659e-05
1.21586e-05
1.15327e-05
1.08389e-05
1.01437e-05
9.54269e-06
9.09644e-06
2.3047e-05
2.37301e-05
2.55203e-05
2.45177e-05
2.23901e-05
2.05749e-05
1.90925e-05
1.79821e-05
1.69519e-05
1.62246e-05
1.55039e-05
1.50882e-05
1.42694e-05
1.43001e-05
1.43252e-05
1.43701e-05
1.44146e-05
1.44872e-05
1.45778e-05
1.46809e-05
1.47793e-05
1.48458e-05
1.48761e-05
1.48632e-05
1.28302e-05
1.25649e-05
1.24114e-05
1.24284e-05
1.25817e-05
1.28654e-05
1.32796e-05
1.38023e-05
1.43524e-05
1.47782e-05
1.49832e-05
1.50646e-05
8.98887e-06
8.57287e-06
8.22432e-06
8.22328e-06
8.41161e-06
8.95092e-06
9.76853e-06
1.10004e-05
1.24876e-05
1.4036e-05
1.48362e-05
1.51333e-05
6.1557e-06
5.68169e-06
5.43755e-06
5.41759e-06
5.56531e-06
5.98855e-06
6.70863e-06
7.89723e-06
9.79426e-06
1.24563e-05
1.44645e-05
1.51837e-05
4.73541e-06
4.33833e-06
4.20589e-06
4.19116e-06
4.35956e-06
4.71562e-06
5.34706e-06
6.41271e-06
8.09581e-06
1.08495e-05
1.39698e-05
1.52411e-05
4.0317e-06
3.75646e-06
3.66627e-06
3.66065e-06
3.82948e-06
4.15547e-06
4.71594e-06
5.70397e-06
7.2822e-06
1.00489e-05
1.35821e-05
1.52971e-05
3.94195e-06
3.67268e-06
3.50681e-06
3.52392e-06
3.6696e-06
3.9827e-06
4.50922e-06
5.45853e-06
6.97308e-06
9.71127e-06
1.3362e-05
1.53576e-05
4.14305e-06
3.88751e-06
3.74523e-06
3.78896e-06
3.91523e-06
4.17973e-06
4.66273e-06
5.56383e-06
6.99003e-06
9.69015e-06
1.33029e-05
1.54164e-05
4.78756e-06
4.51423e-06
4.42437e-06
4.51636e-06
4.70512e-06
5.06139e-06
5.67168e-06
6.73308e-06
8.30869e-06
1.08946e-05
1.39478e-05
1.55437e-05
6.27572e-06
5.94168e-06
5.93796e-06
6.11314e-06
6.40143e-06
6.8799e-06
7.62036e-06
8.77289e-06
1.02953e-05
1.2558e-05
1.4715e-05
1.57247e-05
8.75634e-06
8.64766e-06
8.79234e-06
9.15641e-06
9.66514e-06
1.03887e-05
1.1348e-05
1.25797e-05
1.40497e-05
1.51427e-05
1.57871e-05
1.5935e-05
1.46912e-05
1.46084e-05
1.47547e-05
1.5036e-05
1.53683e-05
1.56765e-05
1.59366e-05
1.61172e-05
1.61958e-05
1.61985e-05
1.6154e-05
1.60189e-05
1.21018e-05
1.2087e-05
1.20374e-05
1.19305e-05
1.18362e-05
1.17479e-05
1.18657e-05
1.32906e-05
1.57837e-05
1.60196e-05
1.60599e-05
1.60853e-05
1.24839e-05
1.24094e-05
1.21874e-05
1.19165e-05
1.19532e-05
1.26591e-05
1.44532e-05
1.53367e-05
1.5679e-05
1.56108e-05
1.5172e-05
1.47299e-05
1.26505e-05
1.25237e-05
1.21246e-05
1.22367e-05
1.31506e-05
1.45808e-05
1.51073e-05
1.52498e-05
1.51614e-05
1.43329e-05
1.31997e-05
1.23107e-05
1.28182e-05
1.2782e-05
1.27166e-05
1.33019e-05
1.44118e-05
1.48568e-05
1.49668e-05
1.46728e-05
1.34617e-05
1.12783e-05
9.73778e-06
8.24307e-06
1.29806e-05
1.33247e-05
1.34644e-05
1.41858e-05
1.46261e-05
1.47474e-05
1.44985e-05
1.32328e-05
1.09733e-05
8.79844e-06
7.17546e-06
5.60267e-06
1.30639e-05
1.36126e-05
1.39369e-05
1.44025e-05
1.45565e-05
1.44774e-05
1.35889e-05
1.15895e-05
9.04952e-06
7.03456e-06
5.45689e-06
4.13663e-06
1.31227e-05
1.37985e-05
1.41283e-05
1.43576e-05
1.43984e-05
1.39755e-05
1.25742e-05
1.04143e-05
8.24541e-06
6.54638e-06
5.1776e-06
4.03093e-06
1.31759e-05
1.38296e-05
1.41148e-05
1.42463e-05
1.41532e-05
1.35409e-05
1.2284e-05
1.04622e-05
8.44792e-06
6.83192e-06
5.53736e-06
4.43545e-06
1.31703e-05
1.38019e-05
1.40222e-05
1.40576e-05
1.39392e-05
1.34663e-05
1.24459e-05
1.0925e-05
9.2135e-06
7.74448e-06
6.58222e-06
5.58079e-06
1.31729e-05
1.37229e-05
1.38647e-05
1.38926e-05
1.38098e-05
1.35521e-05
1.30045e-05
1.21045e-05
1.10224e-05
9.84792e-06
8.8963e-06
8.03543e-06
1.30472e-05
1.35361e-05
1.35605e-05
1.3557e-05
1.35316e-05
1.34785e-05
1.33579e-05
1.30882e-05
1.27307e-05
1.22423e-05
1.17694e-05
1.13068e-05
1.30413e-05
1.31473e-05
1.32027e-05
1.32186e-05
1.32238e-05
1.32277e-05
1.32432e-05
1.31853e-05
1.31291e-05
1.29666e-05
1.28468e-05
1.26779e-05
1.61125e-05
1.61428e-05
1.61846e-05
1.62182e-05
1.62827e-05
1.63568e-05
1.64366e-05
1.62664e-05
1.62335e-05
1.6196e-05
1.63157e-05
1.65598e-05
1.42537e-05
1.39511e-05
1.37473e-05
1.3746e-05
1.3862e-05
1.4062e-05
1.4246e-05
1.42571e-05
1.43118e-05
1.43819e-05
1.44512e-05
1.45302e-05
1.14095e-05
1.09184e-05
1.05615e-05
1.05723e-05
1.08349e-05
1.15512e-05
1.24024e-05
1.29029e-05
1.33591e-05
1.3629e-05
1.37501e-05
1.37937e-05
7.04517e-06
6.25823e-06
5.77756e-06
5.71564e-06
5.88052e-06
6.55915e-06
7.70996e-06
9.97048e-06
1.1527e-05
1.26906e-05
1.32215e-05
1.34125e-05
4.64946e-06
3.99726e-06
3.74022e-06
3.70059e-06
3.92911e-06
4.48027e-06
5.39069e-06
6.80868e-06
9.03498e-06
1.13943e-05
1.25402e-05
1.29806e-05
3.45561e-06
3.01014e-06
2.84639e-06
2.82635e-06
3.08331e-06
3.61315e-06
4.49203e-06
5.8316e-06
7.74238e-06
1.02339e-05
1.19293e-05
1.26702e-05
3.37077e-06
2.91822e-06
2.6232e-06
2.60459e-06
2.81958e-06
3.33241e-06
4.19112e-06
5.51254e-06
7.4223e-06
9.67248e-06
1.15838e-05
1.24782e-05
3.7423e-06
3.29967e-06
3.02372e-06
3.08552e-06
3.28076e-06
3.69469e-06
4.44677e-06
5.65443e-06
7.46509e-06
9.66028e-06
1.1575e-05
1.25687e-05
4.8796e-06
4.41978e-06
4.21729e-06
4.35165e-06
4.62396e-06
5.11789e-06
5.91881e-06
7.15717e-06
8.82104e-06
1.05527e-05
1.19526e-05
1.26021e-05
7.44719e-06
6.97558e-06
6.83718e-06
6.99103e-06
7.29683e-06
7.75222e-06
8.38874e-06
9.27242e-06
1.03573e-05
1.13828e-05
1.22587e-05
1.27426e-05
1.09355e-05
1.06625e-05
1.05117e-05
1.05685e-05
1.07521e-05
1.10012e-05
1.13217e-05
1.17117e-05
1.218e-05
1.2555e-05
1.28266e-05
1.28514e-05
1.25853e-05
1.2465e-05
1.24647e-05
1.2523e-05
1.26278e-05
1.27482e-05
1.28639e-05
1.29603e-05
1.30318e-05
1.30552e-05
1.30436e-05
1.29433e-05
4.01817e-05
4.03303e-05
4.08897e-05
4.1729e-05
4.27145e-05
4.31349e-05
4.05844e-05
2.22675e-05
9.65814e-06
8.90976e-06
8.9043e-06
8.92993e-06
3.69331e-05
3.7784e-05
3.99318e-05
4.20058e-05
4.06545e-05
3.30043e-05
1.77119e-05
1.11265e-05
8.77942e-06
8.4753e-06
8.24879e-06
7.89222e-06
3.55074e-05
3.7023e-05
4.02705e-05
3.81828e-05
2.91688e-05
1.61814e-05
1.06379e-05
8.55507e-06
7.72268e-06
6.98727e-06
5.84155e-06
5.0143e-06
3.39133e-05
3.43125e-05
3.4565e-05
2.79399e-05
1.72003e-05
1.05942e-05
8.11568e-06
7.00678e-06
5.8743e-06
4.66118e-06
3.63817e-06
2.99707e-06
3.2251e-05
2.92237e-05
2.72708e-05
1.95595e-05
1.14104e-05
8.18031e-06
6.76538e-06
5.72155e-06
4.38738e-06
3.2627e-06
2.47041e-06
1.94119e-06
3.1407e-05
2.69566e-05
2.21578e-05
1.3237e-05
8.93059e-06
7.00374e-06
5.96385e-06
4.75026e-06
3.39021e-06
2.45933e-06
1.81406e-06
1.39305e-06
2.69043e-05
2.20189e-05
1.67678e-05
1.04317e-05
7.74585e-06
6.37114e-06
5.34348e-06
4.15103e-06
3.01615e-06
2.25236e-06
1.70283e-06
1.33007e-06
2.34522e-05
1.83554e-05
1.38476e-05
9.02647e-06
7.09557e-06
6.02344e-06
5.21901e-06
4.19202e-06
3.12903e-06
2.38484e-06
1.8443e-06
1.47108e-06
2.24064e-05
1.65919e-05
1.16043e-05
8.18798e-06
6.88172e-06
6.04714e-06
5.33152e-06
4.46499e-06
3.53434e-06
2.81944e-06
2.287e-06
1.9016e-06
2.04699e-05
1.41237e-05
1.07218e-05
8.24853e-06
7.04427e-06
6.26714e-06
5.68344e-06
5.0451e-06
4.40202e-06
3.78039e-06
3.3115e-06
2.89153e-06
2.01361e-05
1.4563e-05
1.16244e-05
9.4265e-06
8.17318e-06
7.30461e-06
6.69372e-06
6.20166e-06
5.71612e-06
5.25341e-06
4.85266e-06
4.55647e-06
1.95498e-05
1.80213e-05
1.64353e-05
1.50715e-05
1.38553e-05
1.27604e-05
1.16541e-05
1.07955e-05
9.9794e-06
9.42597e-06
8.86809e-06
8.5904e-06
8.95125e-06
8.97781e-06
9.00316e-06
9.04569e-06
9.08769e-06
9.15772e-06
9.24892e-06
9.35518e-06
9.46826e-06
9.54911e-06
9.58694e-06
9.58731e-06
7.55435e-06
7.27537e-06
7.14726e-06
7.14573e-06
7.2875e-06
7.5157e-06
7.88649e-06
8.35292e-06
8.90874e-06
9.41162e-06
9.672e-06
9.77078e-06
4.34764e-06
4.00214e-06
3.77993e-06
3.77616e-06
3.89916e-06
4.27048e-06
4.8494e-06
5.75962e-06
6.96579e-06
8.43984e-06
9.46093e-06
9.83361e-06
2.47433e-06
2.23272e-06
2.06986e-06
2.06142e-06
2.17338e-06
2.44803e-06
2.92132e-06
3.69271e-06
4.90843e-06
6.78306e-06
8.986e-06
9.88503e-06
1.55816e-06
1.37805e-06
1.27908e-06
1.27265e-06
1.39547e-06
1.63342e-06
2.05258e-06
2.73532e-06
3.90074e-06
5.63541e-06
8.33452e-06
9.94358e-06
1.11544e-06
9.82518e-07
9.2714e-07
9.264e-07
1.0458e-06
1.26898e-06
1.65384e-06
2.26774e-06
3.36858e-06
5.08745e-06
7.85668e-06
1.00051e-05
1.07434e-06
9.23168e-07
8.22048e-07
8.36944e-07
9.38893e-07
1.15408e-06
1.52547e-06
2.10863e-06
3.17927e-06
4.85566e-06
7.62239e-06
1.00684e-05
1.21482e-06
1.05903e-06
9.79551e-07
1.01333e-06
1.1052e-06
1.29188e-06
1.64423e-06
2.18584e-06
3.20421e-06
4.84676e-06
7.56752e-06
1.01315e-05
1.65139e-06
1.47486e-06
1.43542e-06
1.50297e-06
1.63748e-06
1.88331e-06
2.3027e-06
2.94631e-06
4.08932e-06
5.66276e-06
8.07246e-06
1.02739e-05
2.66481e-06
2.45784e-06
2.46458e-06
2.58592e-06
2.78255e-06
3.10143e-06
3.58737e-06
4.29947e-06
5.43159e-06
6.83537e-06
8.82511e-06
1.05211e-05
4.3291e-06
4.26329e-06
4.36618e-06
4.61497e-06
4.94578e-06
5.39991e-06
6.02546e-06
6.86674e-06
8.02849e-06
9.20235e-06
1.03702e-05
1.09131e-05
8.29179e-06
8.30794e-06
8.49585e-06
8.81742e-06
9.19133e-06
9.62443e-06
1.00756e-05
1.05021e-05
1.08499e-05
1.10482e-05
1.11991e-05
1.10952e-05
1.23039e-05
1.22894e-05
1.22469e-05
1.21506e-05
1.20627e-05
1.19773e-05
1.20882e-05
1.34388e-05
1.58221e-05
1.60557e-05
1.60979e-05
1.61252e-05
1.26561e-05
1.26027e-05
1.24159e-05
1.21566e-05
1.2182e-05
1.28489e-05
1.45696e-05
1.53702e-05
1.56973e-05
1.55966e-05
1.5118e-05
1.46274e-05
1.28073e-05
1.27268e-05
1.23762e-05
1.24789e-05
1.33835e-05
1.4619e-05
1.50523e-05
1.51701e-05
1.48319e-05
1.35062e-05
1.14231e-05
1.01536e-05
1.29536e-05
1.29946e-05
1.29569e-05
1.3495e-05
1.43941e-05
1.47219e-05
1.47944e-05
1.41413e-05
1.20496e-05
9.24791e-06
7.74154e-06
6.24833e-06
1.30641e-05
1.34308e-05
1.35816e-05
1.41643e-05
1.44543e-05
1.45319e-05
1.39625e-05
1.18734e-05
9.07227e-06
6.83401e-06
5.51267e-06
4.13519e-06
1.31206e-05
1.36435e-05
1.39039e-05
1.42376e-05
1.43441e-05
1.40619e-05
1.25703e-05
9.84906e-06
7.14221e-06
5.33088e-06
4.10337e-06
3.04176e-06
1.31575e-05
1.37343e-05
1.40037e-05
1.41595e-05
1.4094e-05
1.33017e-05
1.12346e-05
8.60897e-06
6.41565e-06
4.93587e-06
3.87267e-06
2.96198e-06
1.31939e-05
1.37368e-05
1.39467e-05
1.39968e-05
1.37404e-05
1.27069e-05
1.09645e-05
8.69275e-06
6.62867e-06
5.18666e-06
4.1589e-06
3.27981e-06
1.31879e-05
1.36837e-05
1.3808e-05
1.37919e-05
1.34731e-05
1.27167e-05
1.12234e-05
9.28132e-06
7.43859e-06
6.03224e-06
5.0406e-06
4.21262e-06
1.31807e-05
1.35735e-05
1.36355e-05
1.36064e-05
1.34198e-05
1.29778e-05
1.20665e-05
1.08073e-05
9.43516e-06
8.10773e-06
7.10515e-06
6.26032e-06
1.31149e-05
1.33989e-05
1.34104e-05
1.33813e-05
1.33165e-05
1.31799e-05
1.29678e-05
1.25174e-05
1.20373e-05
1.13556e-05
1.08115e-05
1.02134e-05
1.28661e-05
1.29611e-05
1.29194e-05
1.28859e-05
1.28748e-05
1.28605e-05
1.28091e-05
1.27357e-05
1.264e-05
1.24883e-05
1.23148e-05
1.21534e-05
1.61548e-05
1.61881e-05
1.62248e-05
1.62791e-05
1.63491e-05
1.64506e-05
1.65893e-05
1.67518e-05
1.69146e-05
1.70303e-05
1.70844e-05
1.70883e-05
1.40307e-05
1.35937e-05
1.32967e-05
1.33021e-05
1.34818e-05
1.3869e-05
1.44386e-05
1.52178e-05
1.60834e-05
1.68207e-05
1.71816e-05
1.73177e-05
8.69379e-06
8.1647e-06
7.65729e-06
7.62854e-06
7.81019e-06
8.44212e-06
9.39893e-06
1.09367e-05
1.30328e-05
1.54793e-05
1.68796e-05
1.7398e-05
5.29144e-06
4.73802e-06
4.39148e-06
4.35683e-06
4.52032e-06
5.05492e-06
5.91499e-06
7.27359e-06
9.29447e-06
1.28173e-05
1.62069e-05
1.74654e-05
3.52501e-06
2.98945e-06
2.80065e-06
2.77416e-06
2.97992e-06
3.45769e-06
4.28435e-06
5.6161e-06
7.46527e-06
1.06561e-05
1.53037e-05
1.75429e-05
2.57125e-06
2.19589e-06
2.06714e-06
2.05238e-06
2.26437e-06
2.70456e-06
3.46822e-06
4.79657e-06
6.50433e-06
9.62707e-06
1.45219e-05
1.76251e-05
2.48476e-06
2.12276e-06
1.88915e-06
1.87365e-06
2.0468e-06
2.46512e-06
3.18453e-06
4.50537e-06
6.15198e-06
9.18314e-06
1.41264e-05
1.77122e-05
2.76385e-06
2.42028e-06
2.20611e-06
2.25694e-06
2.41772e-06
2.76544e-06
3.39732e-06
4.67071e-06
6.164e-06
9.14512e-06
1.40115e-05
1.77972e-05
3.66098e-06
3.29871e-06
3.14933e-06
3.26552e-06
3.50325e-06
3.95212e-06
4.70838e-06
6.12038e-06
7.55927e-06
1.05416e-05
1.44117e-05
1.78884e-05
5.74477e-06
5.31329e-06
5.2743e-06
5.47441e-06
5.82755e-06
6.38631e-06
7.19696e-06
8.48346e-06
9.41564e-06
1.1763e-05
1.35249e-05
1.67631e-05
9.8537e-06
9.50077e-06
9.42093e-06
9.56133e-06
9.80502e-06
1.00805e-05
1.03618e-05
1.06665e-05
1.08255e-05
1.18673e-05
1.31786e-05
1.6243e-05
1.19827e-05
1.18708e-05
1.17546e-05
1.1681e-05
1.15671e-05
1.15055e-05
1.13893e-05
1.13368e-05
1.11859e-05
1.18532e-05
1.27917e-05
1.55284e-05
1.52985e-05
1.61448e-05
1.8615e-05
1.89621e-05
1.93333e-05
1.94464e-05
1.93194e-05
1.91858e-05
1.90401e-05
1.88266e-05
1.86176e-05
1.84144e-05
1.2888e-05
1.33713e-05
1.50078e-05
1.51733e-05
1.53368e-05
1.55023e-05
1.57325e-05
1.59564e-05
1.61122e-05
1.6242e-05
1.62756e-05
1.6224e-05
9.25517e-06
1.07361e-05
1.09375e-05
1.11366e-05
1.12982e-05
1.14702e-05
1.16058e-05
1.17541e-05
1.18531e-05
1.1948e-05
1.19736e-05
1.19305e-05
6.84552e-06
6.99037e-06
7.10701e-06
7.25427e-06
7.36606e-06
7.51155e-06
7.61671e-06
7.74979e-06
7.82609e-06
7.91087e-06
7.90144e-06
7.82589e-06
1.82618e-05
1.81072e-05
1.79478e-05
1.77549e-05
1.75585e-05
1.73251e-05
1.70927e-05
1.68261e-05
1.65783e-05
1.63247e-05
1.61535e-05
1.60389e-05
1.61102e-05
1.59409e-05
1.57164e-05
1.54394e-05
1.51216e-05
1.47803e-05
1.4417e-05
1.4047e-05
1.36983e-05
1.34461e-05
1.32533e-05
1.37062e-05
1.1825e-05
1.16544e-05
1.14228e-05
1.11406e-05
1.08232e-05
1.04857e-05
1.01315e-05
9.80803e-06
9.56388e-06
9.45543e-06
9.3332e-06
9.62032e-06
7.67229e-06
7.45246e-06
7.19982e-06
6.94432e-06
6.71458e-06
6.5364e-06
6.41842e-06
6.34961e-06
6.31323e-06
6.3267e-06
6.30502e-06
6.44749e-06
1.59033e-05
1.55686e-05
1.54101e-05
1.52455e-05
1.50805e-05
1.48873e-05
1.47125e-05
1.453e-05
1.43932e-05
1.42758e-05
1.41776e-05
1.4078e-05
1.41278e-05
1.42912e-05
1.43722e-05
1.43913e-05
1.43766e-05
1.43446e-05
1.43002e-05
1.42443e-05
1.41817e-05
1.41144e-05
1.40438e-05
1.39646e-05
9.96825e-06
1.02816e-05
1.05613e-05
1.0774e-05
1.09605e-05
1.10985e-05
1.12294e-05
1.13119e-05
1.13875e-05
1.14012e-05
1.13641e-05
1.12869e-05
6.62448e-06
6.80938e-06
6.97006e-06
7.13141e-06
7.25616e-06
7.38086e-06
7.46267e-06
7.53885e-06
7.5577e-06
7.52028e-06
7.4195e-06
7.25975e-06
1.39992e-05
1.39243e-05
1.38611e-05
1.37818e-05
1.37138e-05
1.36241e-05
1.35442e-05
1.34349e-05
1.3339e-05
1.32155e-05
1.31316e-05
1.30217e-05
1.38694e-05
1.37564e-05
1.36229e-05
1.34703e-05
1.32984e-05
1.31049e-05
1.28887e-05
1.26567e-05
1.24236e-05
1.22201e-05
1.20702e-05
1.22201e-05
1.11754e-05
1.10262e-05
1.08356e-05
1.06034e-05
1.03356e-05
1.00437e-05
9.70146e-06
9.35763e-06
9.0646e-06
8.90018e-06
8.74717e-06
8.99252e-06
7.05213e-06
6.79669e-06
6.50633e-06
6.21064e-06
5.94978e-06
5.74626e-06
5.62599e-06
5.57008e-06
5.54636e-06
5.56151e-06
5.52954e-06
5.63527e-06
1.31844e-05
1.36654e-05
1.3808e-05
1.38923e-05
1.38283e-05
1.37577e-05
1.36128e-05
1.34164e-05
1.31884e-05
1.29564e-05
1.27455e-05
1.25513e-05
1.22693e-05
1.23408e-05
1.24415e-05
1.24802e-05
1.25603e-05
1.2622e-05
1.26749e-05
1.26876e-05
1.26656e-05
1.26222e-05
1.25643e-05
1.24973e-05
9.26781e-06
9.45757e-06
9.61167e-06
9.75463e-06
9.86755e-06
9.99142e-06
1.0087e-05
1.01971e-05
1.02624e-05
1.03291e-05
1.03192e-05
1.02623e-05
5.75095e-06
5.88925e-06
5.99932e-06
6.13325e-06
6.23569e-06
6.365e-06
6.45928e-06
6.57538e-06
6.64288e-06
6.71494e-06
6.70511e-06
6.63819e-06
1.2418e-05
1.23077e-05
1.22202e-05
1.21185e-05
1.20423e-05
1.1944e-05
1.18717e-05
1.1767e-05
1.16941e-05
1.1583e-05
1.1527e-05
1.13898e-05
1.24114e-05
1.23057e-05
1.21862e-05
1.20494e-05
1.18919e-05
1.17145e-05
1.15192e-05
1.13156e-05
1.11182e-05
1.0953e-05
1.08371e-05
1.09417e-05
1.01618e-05
1.00154e-05
9.82541e-06
9.59811e-06
9.34382e-06
9.06254e-06
8.7672e-06
8.49371e-06
8.28606e-06
8.1915e-06
8.06448e-06
8.35636e-06
6.50401e-06
6.3132e-06
6.09491e-06
5.87395e-06
5.6749e-06
5.52876e-06
5.43327e-06
5.37857e-06
5.34959e-06
5.36195e-06
5.34003e-06
5.46902e-06
1.1419e-05
1.1513e-05
1.15279e-05
1.15381e-05
1.15493e-05
1.15809e-05
1.16206e-05
1.16752e-05
1.17217e-05
1.17445e-05
1.17313e-05
1.16983e-05
1.09552e-05
1.09792e-05
1.09803e-05
1.09731e-05
1.09631e-05
1.09536e-05
1.09449e-05
1.09364e-05
1.09239e-05
1.09033e-05
1.08717e-05
1.08268e-05
8.64713e-06
8.86536e-06
9.02157e-06
9.14676e-06
9.22817e-06
9.30068e-06
9.33838e-06
9.37487e-06
9.37346e-06
9.35263e-06
9.31013e-06
9.24469e-06
5.62141e-06
5.7848e-06
5.9174e-06
6.05389e-06
6.15263e-06
6.2549e-06
6.31679e-06
6.37758e-06
6.38862e-06
6.35829e-06
6.28434e-06
6.1723e-06
1.1648e-05
1.15903e-05
1.1525e-05
1.14488e-05
1.13616e-05
1.12605e-05
1.11473e-05
1.10194e-05
1.08243e-05
1.1204e-05
1.21348e-05
1.30641e-05
1.07673e-05
1.06911e-05
1.05963e-05
1.04811e-05
1.03481e-05
1.02002e-05
1.00363e-05
9.86133e-06
9.67062e-06
9.92402e-06
1.08277e-05
1.1375e-05
9.156e-06
9.04191e-06
8.90069e-06
8.73319e-06
8.54368e-06
8.30164e-06
8.04201e-06
7.78723e-06
7.56386e-06
7.39257e-06
7.64189e-06
8.83242e-06
6.03075e-06
5.87037e-06
5.70138e-06
5.54502e-06
5.40958e-06
5.34271e-06
5.3259e-06
5.3501e-06
5.36676e-06
5.40114e-06
5.37137e-06
5.71619e-06
6.52126e-06
6.48748e-06
6.3267e-06
6.13464e-06
5.80779e-06
5.41997e-06
4.90949e-06
4.37128e-06
3.79581e-06
3.3132e-06
2.95088e-06
2.8456e-06
5.75012e-06
5.46033e-06
5.10646e-06
4.65345e-06
4.10567e-06
3.5094e-06
2.87896e-06
2.31655e-06
1.8437e-06
1.5472e-06
1.40652e-06
1.44841e-06
4.83477e-06
4.47348e-06
3.99976e-06
3.45845e-06
2.86771e-06
2.27229e-06
1.71691e-06
1.27509e-06
9.52748e-07
7.81412e-07
7.44974e-07
7.97824e-07
4.00981e-06
3.63439e-06
3.11666e-06
2.58164e-06
2.02609e-06
1.50297e-06
1.0524e-06
7.20455e-07
4.94092e-07
3.73389e-07
3.46084e-07
3.80347e-07
2.85829e-06
3.0042e-06
3.31231e-06
3.69817e-06
4.10828e-06
4.60547e-06
5.00698e-06
5.29265e-06
5.47903e-06
5.59977e-06
5.61653e-06
5.52e-06
1.62748e-06
1.9869e-06
2.33072e-06
2.76763e-06
3.14288e-06
3.4719e-06
3.7284e-06
3.92047e-06
4.05522e-06
4.06497e-06
3.78565e-06
3.37606e-06
1.02538e-06
1.38428e-06
1.64693e-06
1.95705e-06
2.18322e-06
2.35942e-06
2.49163e-06
2.56757e-06
2.53792e-06
2.30665e-06
1.9832e-06
1.57585e-06
6.25032e-07
1.01727e-06
1.24335e-06
1.41725e-06
1.53182e-06
1.60872e-06
1.63608e-06
1.56554e-06
1.40045e-06
1.16352e-06
8.88768e-07
6.18805e-07
5.174e-06
4.80922e-06
4.38021e-06
3.94019e-06
3.47556e-06
3.01232e-06
2.54166e-06
2.10559e-06
1.71073e-06
1.44408e-06
1.30698e-06
1.20118e-06
2.7477e-06
2.34219e-06
1.81088e-06
1.46779e-06
1.06838e-06
8.17078e-07
5.46992e-07
4.02697e-07
2.76623e-07
2.49773e-07
2.02518e-07
2.04083e-07
1.13974e-06
8.67533e-07
5.5858e-07
4.18445e-07
2.2936e-07
1.74632e-07
8.35469e-08
7.14407e-08
4.02943e-08
4.01248e-08
3.01329e-08
3.35096e-08
3.90576e-07
2.60538e-07
1.34799e-07
9.69637e-08
4.07068e-08
3.06039e-08
1.36379e-08
1.18435e-08
5.95967e-09
5.82491e-09
4.21555e-09
5.39001e-09
1.16872e-06
1.18569e-06
1.36537e-06
1.76833e-06
2.45458e-06
3.36714e-06
4.21111e-06
4.73266e-06
5.05637e-06
5.25001e-06
5.36031e-06
5.4254e-06
2.09044e-07
2.49665e-07
3.60231e-07
6.13829e-07
1.14629e-06
2.16196e-06
3.22549e-06
4.02018e-06
4.48504e-06
4.75474e-06
4.88603e-06
4.92862e-06
4.03325e-08
5.49252e-08
9.73575e-08
2.06787e-07
4.73205e-07
1.05603e-06
2.08534e-06
3.13768e-06
3.7406e-06
4.07873e-06
4.23306e-06
4.24859e-06
8.46309e-09
1.28188e-08
2.81028e-08
7.36027e-08
2.03309e-07
5.38274e-07
1.26016e-06
2.27826e-06
2.99078e-06
3.37591e-06
3.55049e-06
3.5575e-06
5.45574e-06
5.43287e-06
5.29713e-06
5.1377e-06
4.85782e-06
4.5294e-06
4.09247e-06
3.63495e-06
3.14518e-06
2.73756e-06
2.43578e-06
2.35754e-06
4.76309e-06
4.51252e-06
4.21167e-06
3.82492e-06
3.35433e-06
2.84724e-06
2.30932e-06
1.8329e-06
1.43517e-06
1.18862e-06
1.08044e-06
1.13108e-06
3.93309e-06
3.62215e-06
3.22044e-06
2.76e-06
2.25658e-06
1.7558e-06
1.29044e-06
9.24096e-07
6.62908e-07
5.2476e-07
5.01046e-07
5.49379e-07
3.17996e-06
2.86104e-06
2.42933e-06
1.98259e-06
1.51909e-06
1.09032e-06
7.28313e-07
4.68277e-07
3.01075e-07
2.16647e-07
1.98365e-07
2.22276e-07
2.37729e-06
2.52758e-06
2.80373e-06
3.14574e-06
3.51052e-06
3.94233e-06
4.28498e-06
4.52854e-06
4.68808e-06
4.79042e-06
4.81525e-06
4.76914e-06
1.31257e-06
1.66505e-06
1.96566e-06
2.36264e-06
2.70747e-06
3.01372e-06
3.24662e-06
3.41843e-06
3.5445e-06
3.56772e-06
3.36563e-06
3.02636e-06
7.5551e-07
1.12263e-06
1.38629e-06
1.6702e-06
1.88974e-06
2.05802e-06
2.1826e-06
2.26451e-06
2.26645e-06
2.07674e-06
1.81277e-06
1.46241e-06
3.91393e-07
7.7302e-07
1.03038e-06
1.2049e-06
1.32194e-06
1.39943e-06
1.43846e-06
1.40504e-06
1.26767e-06
1.0718e-06
8.32751e-07
5.96866e-07
4.51547e-06
4.22733e-06
3.90279e-06
3.55746e-06
3.20343e-06
2.84716e-06
2.49248e-06
2.17083e-06
1.88914e-06
1.72439e-06
1.67276e-06
1.69196e-06
2.49907e-06
2.17535e-06
1.72924e-06
1.44496e-06
1.10748e-06
8.93077e-07
6.61106e-07
5.36874e-07
4.30058e-07
4.2681e-07
4.25299e-07
5.05538e-07
1.09033e-06
8.52047e-07
5.78331e-07
4.48671e-07
2.75504e-07
2.17743e-07
1.25373e-07
1.15824e-07
8.28579e-08
8.71296e-08
9.52069e-08
1.38255e-07
3.90324e-07
2.70911e-07
1.51563e-07
1.12113e-07
5.36964e-08
4.3193e-08
2.3191e-08
2.1831e-08
1.40801e-08
1.50652e-08
1.74172e-08
3.10143e-08
1.76793e-06
2.02532e-06
2.39978e-06
2.94601e-06
3.75349e-06
4.5272e-06
5.1392e-06
5.49778e-06
5.7004e-06
5.88548e-06
6.02526e-06
6.31e-06
6.28928e-07
8.30733e-07
1.18444e-06
1.70851e-06
2.3476e-06
3.16671e-06
4.15152e-06
4.97021e-06
5.42996e-06
5.70067e-06
5.85724e-06
5.94692e-06
2.16888e-07
3.33366e-07
5.86471e-07
1.0537e-06
1.65414e-06
2.28734e-06
3.03839e-06
4.06818e-06
4.72478e-06
5.07519e-06
5.23598e-06
5.2005e-06
7.41407e-08
1.31136e-07
2.81331e-07
6.08972e-07
1.17869e-06
1.83475e-06
2.38773e-06
3.11105e-06
3.91164e-06
4.31689e-06
4.49494e-06
4.45325e-06
3.28228e-06
2.92465e-06
2.41668e-06
1.9312e-06
1.44025e-06
1.00626e-06
6.52943e-07
4.07806e-07
2.49135e-07
1.61222e-07
1.14262e-07
8.66653e-08
2.6285e-06
2.30398e-06
1.84251e-06
1.4267e-06
1.01332e-06
6.67992e-07
4.01062e-07
2.26271e-07
1.20821e-07
6.42751e-08
3.36833e-08
1.74186e-08
2.03824e-06
1.75262e-06
1.36044e-06
1.02224e-06
6.92989e-07
4.30957e-07
2.39233e-07
1.21321e-07
5.61722e-08
2.41465e-08
9.63706e-09
3.84736e-09
1.54066e-06
1.2888e-06
9.70032e-07
7.04842e-07
4.56927e-07
2.6866e-07
1.38432e-07
6.3447e-08
2.56795e-08
9.02879e-09
2.90634e-09
9.82926e-10
1.18101e-06
9.49935e-07
6.89203e-07
4.7875e-07
2.96106e-07
1.65663e-07
8.02135e-08
3.38965e-08
1.22831e-08
3.73366e-09
1.00327e-09
2.94136e-10
9.62702e-07
7.43453e-07
5.17588e-07
3.3826e-07
1.97696e-07
1.05903e-07
4.89205e-08
1.94883e-08
6.47406e-09
1.76634e-09
4.08488e-10
1.02842e-10
8.24266e-07
6.20768e-07
4.16561e-07
2.5378e-07
1.39275e-07
7.14401e-08
3.16442e-08
1.1876e-08
3.64972e-09
9.06567e-10
1.84435e-10
4.02201e-11
6.81024e-07
5.07159e-07
3.32113e-07
1.89482e-07
9.85883e-08
4.82916e-08
2.03999e-08
7.15502e-09
2.02716e-09
4.59206e-10
8.42759e-11
1.63247e-11
4.979e-07
3.66912e-07
2.37943e-07
1.2832e-07
6.45589e-08
3.027e-08
1.21523e-08
3.98683e-09
1.04432e-09
2.166e-10
3.64743e-11
6.43024e-12
3.0593e-07
2.22692e-07
1.4481e-07
7.43288e-08
3.68944e-08
1.67193e-08
6.41832e-09
1.99491e-09
4.8929e-10
9.43562e-11
1.46899e-11
2.35785e-12
1.57281e-07
1.13473e-07
7.47933e-08
3.66888e-08
1.83053e-08
8.15047e-09
3.04486e-09
9.16393e-10
2.16096e-10
3.93138e-11
5.59771e-12
8.11661e-13
8.09709e-08
5.8351e-08
3.93526e-08
1.85805e-08
9.46561e-09
4.23156e-09
1.5836e-09
4.75104e-10
1.11332e-10
1.92879e-11
2.42335e-12
3.18352e-13
3.73713e-07
7.54118e-07
9.48729e-07
1.05393e-06
1.11066e-06
1.12534e-06
1.05302e-06
9.15781e-07
7.40522e-07
5.47192e-07
3.62393e-07
2.17543e-07
2.67258e-07
5.80002e-07
7.40534e-07
8.08448e-07
8.35823e-07
7.98915e-07
6.83762e-07
5.4457e-07
3.93509e-07
2.55465e-07
1.4583e-07
7.47275e-08
1.90154e-07
4.48216e-07
5.87506e-07
6.3796e-07
6.4764e-07
5.82563e-07
4.64476e-07
3.42168e-07
2.23498e-07
1.28714e-07
6.50192e-08
2.99625e-08
1.31865e-07
3.36829e-07
4.68023e-07
5.12344e-07
5.14697e-07
4.43223e-07
3.37781e-07
2.36512e-07
1.457e-07
7.95978e-08
3.90255e-08
1.8804e-08
8.63467e-08
2.36815e-07
3.64359e-07
4.12312e-07
4.17795e-07
3.56445e-07
2.66845e-07
1.85448e-07
1.15389e-07
6.62358e-08
3.62525e-08
1.98523e-08
5.1989e-08
1.49347e-07
2.62722e-07
3.2006e-07
3.36371e-07
2.98315e-07
2.28038e-07
1.63007e-07
1.07699e-07
6.74126e-08
4.06815e-08
2.44743e-08
2.82663e-08
8.25021e-08
1.64325e-07
2.24414e-07
2.51531e-07
2.36582e-07
1.96742e-07
1.46568e-07
1.025e-07
6.82484e-08
4.38711e-08
2.71577e-08
1.36787e-08
3.89969e-08
8.63417e-08
1.3348e-07
1.62704e-07
1.63064e-07
1.45485e-07
1.17947e-07
8.6773e-08
6.03721e-08
3.94812e-08
2.43123e-08
5.87691e-09
1.52624e-08
3.70934e-08
6.47925e-08
8.62823e-08
9.29677e-08
8.59929e-08
7.43985e-08
5.89198e-08
4.17151e-08
2.75979e-08
1.70498e-08
2.18699e-09
4.90999e-09
1.27452e-08
2.50417e-08
3.63305e-08
4.24727e-08
4.06428e-08
3.57272e-08
2.98848e-08
2.29675e-08
1.53855e-08
9.58876e-09
6.84268e-10
1.29807e-09
3.44314e-09
7.57621e-09
1.1909e-08
1.53487e-08
1.52916e-08
1.38383e-08
1.17254e-08
9.54229e-09
7.17583e-09
4.57532e-09
1.96836e-10
3.16713e-10
7.98263e-10
1.99699e-09
3.43041e-09
4.99514e-09
5.47337e-09
5.2201e-09
4.62887e-09
3.98369e-09
3.2434e-09
2.29364e-09
1.17885e-07
6.78794e-08
2.93986e-08
1.95269e-08
7.50104e-09
5.60774e-09
2.34606e-09
1.93225e-09
8.86908e-10
8.16726e-10
5.3193e-10
6.36348e-10
3.44799e-08
1.76913e-08
6.91304e-09
4.30361e-09
1.63869e-09
1.11723e-09
4.46051e-10
3.27378e-10
1.38213e-10
1.13125e-10
6.38333e-11
6.56254e-11
1.27251e-08
6.0799e-09
2.58795e-09
1.43585e-09
5.74818e-10
3.09386e-10
1.18137e-10
6.65686e-11
2.52669e-11
1.65241e-11
7.90267e-12
6.48336e-12
8.88579e-09
4.5577e-09
2.18519e-09
1.08462e-09
4.53951e-10
1.93157e-10
6.80837e-11
2.49708e-11
7.61157e-12
3.09106e-12
1.12937e-12
6.44975e-13
1.0893e-08
5.92718e-09
2.99658e-09
1.39018e-09
5.73133e-10
2.11288e-10
6.85768e-11
2.01749e-11
5.01732e-12
1.17585e-12
2.5848e-13
7.34406e-14
1.42589e-08
7.77875e-09
3.88012e-09
1.74733e-09
7.01057e-10
2.48972e-10
7.76015e-11
2.11077e-11
4.82975e-12
9.07307e-13
1.3889e-13
1.65222e-14
1.58085e-08
8.52995e-09
4.20687e-09
1.87321e-09
7.44259e-10
2.61287e-10
8.02435e-11
2.13055e-11
4.79041e-12
8.71226e-13
1.2175e-13
1.0787e-14
1.40181e-08
7.48313e-09
3.65571e-09
1.6161e-09
6.39399e-10
2.24093e-10
6.88586e-11
1.83354e-11
4.15885e-12
7.6641e-13
1.10897e-13
1.04363e-14
9.80762e-09
5.21852e-09
2.5459e-09
1.12773e-09
4.48907e-10
1.59007e-10
4.96185e-11
1.3485e-11
3.14728e-12
6.00062e-13
9.12675e-14
9.15548e-15
5.55346e-09
2.97622e-09
1.46498e-09
6.56524e-10
2.6536e-10
9.58726e-11
3.06941e-11
8.6141e-12
2.10021e-12
4.22256e-13
6.86695e-14
7.68982e-15
2.70697e-09
1.47936e-09
7.41573e-10
3.3855e-10
1.39754e-10
5.18075e-11
1.71466e-11
5.02005e-12
1.29757e-12
2.8365e-13
5.13588e-14
7.09686e-15
1.41816e-09
7.96742e-10
4.07052e-10
1.89106e-10
7.98091e-11
3.05378e-11
1.05711e-11
3.29787e-12
9.25121e-13
2.29977e-13
4.81053e-14
7.92766e-15
2.1152e-09
3.30019e-09
8.95943e-09
2.83713e-08
9.16183e-08
2.7823e-07
7.39211e-07
1.54017e-06
2.29026e-06
2.6942e-06
2.88309e-06
2.89923e-06
6.98282e-10
9.62291e-10
3.15695e-09
1.17538e-08
4.29627e-08
1.44697e-07
4.22215e-07
9.84893e-07
1.67324e-06
2.06322e-06
2.25467e-06
2.28785e-06
2.62013e-10
3.16111e-10
1.20522e-09
5.1297e-09
2.07224e-08
7.59073e-08
2.37284e-07
6.01342e-07
1.15414e-06
1.50772e-06
1.68689e-06
1.735e-06
1.03243e-10
1.1229e-10
4.83189e-10
2.30746e-09
1.01782e-08
3.96754e-08
1.31394e-07
3.56572e-07
7.45134e-07
1.04621e-06
1.20031e-06
1.25524e-06
4.03717e-11
4.13149e-11
1.97161e-10
1.04797e-09
5.03353e-09
2.07086e-08
7.16614e-08
2.03846e-07
4.5408e-07
6.85416e-07
8.08803e-07
8.60093e-07
1.52365e-11
1.5202e-11
7.97123e-11
4.70579e-10
2.45297e-09
1.0709e-08
3.8587e-08
1.13387e-07
2.63179e-07
4.2219e-07
5.12093e-07
5.53983e-07
5.46594e-12
5.4445e-12
3.12889e-11
2.06428e-10
1.17489e-09
5.46504e-09
2.04825e-08
6.16306e-08
1.46272e-07
2.44221e-07
3.02958e-07
3.33311e-07
1.84599e-12
1.88283e-12
1.1707e-11
8.75101e-11
5.48489e-10
2.73395e-09
1.06675e-08
3.27071e-08
7.83343e-08
1.32668e-07
1.66933e-07
1.86385e-07