/*--------------------------------*- C++ -*----------------------------------*\
| =========                 |                                                 |
| \\      /  F ield         | OpenFOAM: The Open Source CFD Toolbox           |
|  \\    /   O peration     | Version:  2212                                  |
|   \\  /    A nd           | Website:  www.openfoam.com                      |
|    \\/     M anipulation  |                                                 |
\*---------------------------------------------------------------------------*/
FoamFile
{
    version     2.0;
    format      ascii;
    arch        "LSB;label=32;scalar=64";
    class       volScalarField;
    location    "0.03";
    object      tracer0;
}
// * * * * * * * * * * * * * * * * * * * * * * * * * * * * * * * * * * * * * //

dimensions      [0 0 0 0 0 0 0];

internalField   nonuniform List<scalar> 
3072
(
8.5649e-06
8.55976e-06
8.51881e-06
8.42099e-06
8.34302e-06
8.22153e-06
8.21938e-06
8.5335e-06
1.12583e-05
1.30246e-05
1.31649e-05
1.3206e-05
8.97066e-06
8.88818e-06
8.67785e-06
8.44923e-06
8.30046e-06
8.58936e-06
9.80202e-06
1.17639e-05
1.26294e-05
1.28987e-05
1.27954e-05
1.24953e-05
9.15019e-06
8.98564e-06
8.63332e-06
8.41016e-06
8.77375e-06
1.02802e-05
1.18088e-05
1.23328e-05
1.24663e-05
1.22127e-05
1.12465e-05
9.9844e-06
9.31508e-06
9.03967e-06
8.69297e-06
8.92055e-06
1.01095e-05
1.15422e-05
1.20348e-05
1.21394e-05
1.1678e-05
1.01054e-05
8.19312e-06
7.2328e-06
9.50452e-06
9.51397e-06
9.40978e-06
1.00087e-05
1.12306e-05
1.17645e-05
1.18949e-05
1.15108e-05
9.90595e-06
7.84776e-06
6.39293e-06
5.50724e-06
9.67885e-06
9.95818e-06
1.01417e-05
1.09071e-05
1.15101e-05
1.16865e-05
1.15584e-05
1.04472e-05
8.41367e-06
6.50835e-06
5.37915e-06
4.55411e-06
9.84338e-06
1.0358e-05
1.06929e-05
1.12452e-05
1.14691e-05
1.151e-05
1.09919e-05
9.42625e-06
7.43175e-06
5.91516e-06
4.98942e-06
4.27062e-06
1.00803e-05
1.05479e-05
1.08985e-05
1.12368e-05
1.13616e-05
1.1249e-05
1.05405e-05
9.19031e-06
7.47334e-06
6.02531e-06
5.10933e-06
4.41248e-06
1.35496e-05
1.28429e-05
1.098e-05
1.11012e-05
1.1154e-05
1.10445e-05
1.05278e-05
9.37387e-06
7.8487e-06
6.48928e-06
5.56055e-06
4.87786e-06
1.73783e-05
1.53843e-05
1.31581e-05
1.11576e-05
1.09907e-05
1.09016e-05
1.06114e-05
9.88579e-06
8.79804e-06
7.6359e-06
6.68904e-06
5.94847e-06
1.9527e-05
2.1196e-05
2.03953e-05
1.45215e-05
1.24227e-05
1.16502e-05
1.12108e-05
1.07711e-05
1.00735e-05
9.19661e-06
8.39669e-06
7.69792e-06
2.39478e-05
2.47652e-05
2.70032e-05
2.58895e-05
2.32966e-05
2.0755e-05
1.84355e-05
1.64945e-05
1.48946e-05
1.36232e-05
1.25191e-05
1.17693e-05
1.32267e-05
1.32654e-05
1.32849e-05
1.33273e-05
1.33634e-05
1.3429e-05
1.35116e-05
1.3609e-05
1.3701e-05
1.37665e-05
1.37949e-05
1.37581e-05
1.21931e-05
1.18906e-05
1.17194e-05
1.16808e-05
1.17826e-05
1.20253e-05
1.23839e-05
1.28577e-05
1.33451e-05
1.37429e-05
1.39285e-05
1.40022e-05
9.16015e-06
8.36779e-06
8.09321e-06
7.94419e-06
8.04819e-06
8.51126e-06
9.23489e-06
1.03662e-05
1.16604e-05
1.30814e-05
1.38187e-05
1.40858e-05
6.17174e-06
5.65742e-06
5.27007e-06
5.18275e-06
5.24574e-06
5.626e-06
6.25865e-06
7.39324e-06
9.21538e-06
1.15692e-05
1.3466e-05
1.41384e-05
4.65316e-06
4.30191e-06
4.04916e-06
4.00093e-06
4.06158e-06
4.37897e-06
4.92293e-06
5.90498e-06
7.53424e-06
1.00786e-05
1.30076e-05
1.42031e-05
3.92736e-06
3.65278e-06
3.48106e-06
3.44517e-06
3.55644e-06
3.82435e-06
4.30316e-06
5.17569e-06
6.71328e-06
9.25063e-06
1.25909e-05
1.42612e-05
3.73964e-06
3.46118e-06
3.28082e-06
3.24676e-06
3.38938e-06
3.6451e-06
4.09263e-06
4.90478e-06
6.37347e-06
8.90011e-06
1.23561e-05
1.43289e-05
3.89065e-06
3.59807e-06
3.40646e-06
3.41588e-06
3.50194e-06
3.70843e-06
4.11721e-06
4.90379e-06
6.34892e-06
8.85084e-06
1.22806e-05
1.43904e-05
4.36744e-06
4.05579e-06
3.87541e-06
3.93088e-06
4.07695e-06
4.38068e-06
4.92831e-06
5.89775e-06
7.44368e-06
9.82887e-06
1.28366e-05
1.45123e-05
5.45771e-06
5.09122e-06
4.96833e-06
5.09513e-06
5.33776e-06
5.77089e-06
6.47147e-06
7.60225e-06
9.19505e-06
1.13746e-05
1.36118e-05
1.47049e-05
7.25431e-06
6.94334e-06
7.02208e-06
7.32872e-06
7.79817e-06
8.48877e-06
9.50795e-06
1.09813e-05
1.25884e-05
1.39706e-05
1.47296e-05
1.49442e-05
1.11608e-05
1.10542e-05
1.1423e-05
1.19557e-05
1.26427e-05
1.34781e-05
1.42805e-05
1.47978e-05
1.50736e-05
1.51714e-05
1.51601e-05
1.50519e-05
1.051e-05
1.05044e-05
1.04627e-05
1.03612e-05
1.02808e-05
1.0154e-05
1.01541e-05
1.0488e-05
1.3382e-05
1.52413e-05
1.53868e-05
1.542e-05
1.09391e-05
1.08555e-05
1.06374e-05
1.03951e-05
1.02428e-05
1.05529e-05
1.18503e-05
1.38557e-05
1.47357e-05
1.50022e-05
1.47151e-05
1.42021e-05
1.11305e-05
1.0965e-05
1.05974e-05
1.03622e-05
1.07469e-05
1.23413e-05
1.38806e-05
1.43997e-05
1.453e-05
1.41834e-05
1.31295e-05
1.20634e-05
1.13064e-05
1.10365e-05
1.06678e-05
1.09045e-05
1.21614e-05
1.35977e-05
1.4079e-05
1.41778e-05
1.36295e-05
1.18628e-05
9.69523e-06
8.26854e-06
1.1504e-05
1.15344e-05
1.14292e-05
1.20488e-05
1.32736e-05
1.37973e-05
1.39213e-05
1.34648e-05
1.1597e-05
9.0719e-06
7.04296e-06
5.50494e-06
1.16779e-05
1.19932e-05
1.21744e-05
1.29506e-05
1.35397e-05
1.37111e-05
1.35403e-05
1.2205e-05
9.68278e-06
7.13492e-06
5.323e-06
3.90331e-06
1.18435e-05
1.239e-05
1.27356e-05
1.32782e-05
1.34885e-05
1.35125e-05
1.28447e-05
1.09202e-05
8.40784e-06
6.27025e-06
4.72357e-06
3.48542e-06
1.19861e-05
1.26436e-05
1.29581e-05
1.32585e-05
1.33625e-05
1.3207e-05
1.23272e-05
1.06774e-05
8.47468e-06
6.44644e-06
4.94842e-06
3.75338e-06
1.20071e-05
1.26604e-05
1.29563e-05
1.31459e-05
1.31678e-05
1.29906e-05
1.23388e-05
1.09258e-05
8.99918e-06
7.15026e-06
5.72024e-06
4.58803e-06
1.20135e-05
1.26121e-05
1.28445e-05
1.29461e-05
1.29817e-05
1.28798e-05
1.25468e-05
1.1765e-05
1.03821e-05
8.83153e-06
7.45969e-06
6.32931e-06
1.18817e-05
1.24172e-05
1.25099e-05
1.25068e-05
1.25654e-05
1.26046e-05
1.25237e-05
1.23386e-05
1.19332e-05
1.11819e-05
1.04273e-05
9.58051e-06
1.18922e-05
1.20088e-05
1.20839e-05
1.21124e-05
1.21399e-05
1.21665e-05
1.2205e-05
1.22133e-05
1.21486e-05
1.18977e-05
1.16904e-05
1.1327e-05
1.54509e-05
1.54822e-05
1.55274e-05
1.55619e-05
1.56258e-05
1.5702e-05
1.57865e-05
1.55948e-05
1.55571e-05
1.55445e-05
1.57684e-05
1.61116e-05
1.37186e-05
1.33175e-05
1.30896e-05
1.30272e-05
1.31197e-05
1.33048e-05
1.34815e-05
1.34415e-05
1.34711e-05
1.35235e-05
1.35983e-05
1.36967e-05
1.12057e-05
1.04722e-05
1.01438e-05
1.00656e-05
1.0239e-05
1.09511e-05
1.17293e-05
1.21814e-05
1.25146e-05
1.27152e-05
1.28011e-05
1.28384e-05
6.76489e-06
5.87722e-06
5.24639e-06
5.10815e-06
5.22878e-06
5.88847e-06
7.03788e-06
9.34878e-06
1.08342e-05
1.1825e-05
1.22624e-05
1.24079e-05
4.16971e-06
3.54794e-06
3.15592e-06
3.0848e-06
3.22402e-06
3.7494e-06
4.60718e-06
6.01104e-06
8.29147e-06
1.05526e-05
1.15699e-05
1.19385e-05
2.91237e-06
2.46144e-06
2.20817e-06
2.16097e-06
2.39057e-06
2.87219e-06
3.69001e-06
4.98892e-06
6.88323e-06
9.3716e-06
1.09445e-05
1.15931e-05
2.6273e-06
2.16326e-06
1.87069e-06
1.82721e-06
2.10356e-06
2.57724e-06
3.37447e-06
4.65362e-06
6.54164e-06
8.78147e-06
1.05915e-05
1.13859e-05
2.89808e-06
2.41349e-06
2.11249e-06
2.15569e-06
2.32835e-06
2.71663e-06
3.45609e-06
4.66836e-06
6.53521e-06
8.75318e-06
1.05872e-05
1.1479e-05
3.74888e-06
3.23066e-06
2.97678e-06
3.09387e-06
3.36392e-06
3.87784e-06
4.75585e-06
6.06587e-06
7.81292e-06
9.58981e-06
1.09511e-05
1.15102e-05
5.57198e-06
4.98386e-06
4.87629e-06
5.09706e-06
5.46802e-06
6.04691e-06
6.89843e-06
7.97422e-06
9.26888e-06
1.04108e-05
1.12428e-05
1.16457e-05
9.02156e-06
8.52942e-06
8.41561e-06
8.58397e-06
8.87953e-06
9.29122e-06
9.82058e-06
1.05305e-05
1.11219e-05
1.15074e-05
1.17463e-05
1.17417e-05
1.11278e-05
1.08879e-05
1.08847e-05
1.10048e-05
1.1188e-05
1.14039e-05
1.16343e-05
1.18124e-05
1.1927e-05
1.1947e-05
1.19344e-05
1.18336e-05
4.34179e-05
4.3518e-05
4.42348e-05
4.53581e-05
4.62929e-05
4.73552e-05
4.66166e-05
4.28459e-05
2.02789e-05
7.76267e-06
7.05031e-06
7.04706e-06
3.92735e-05
4.11902e-05
4.3991e-05
4.63888e-05
4.76326e-05
4.43577e-05
3.30352e-05
1.70244e-05
9.40649e-06
6.94199e-06
6.6323e-06
6.45404e-06
3.73427e-05
4.13404e-05
4.54591e-05
4.75683e-05
4.38308e-05
3.10519e-05
1.50981e-05
9.06882e-06
6.7099e-06
5.83962e-06
5.3114e-06
4.33344e-06
3.52835e-05
4.18774e-05
4.559e-05
4.33038e-05
3.31233e-05
1.63217e-05
9.24225e-06
6.4355e-06
5.22423e-06
4.35759e-06
3.3733e-06
2.58551e-06
3.29589e-05
3.76394e-05
3.92791e-05
3.35183e-05
1.91714e-05
1.02549e-05
6.63295e-06
5.04678e-06
4.14397e-06
3.13553e-06
2.22871e-06
1.69721e-06
2.90772e-05
3.2143e-05
3.12449e-05
2.16902e-05
1.21732e-05
7.44502e-06
5.35069e-06
4.30445e-06
3.3834e-06
2.34065e-06
1.62868e-06
1.22643e-06
2.27383e-05
2.40743e-05
2.25539e-05
1.44764e-05
8.77497e-06
6.12842e-06
4.69068e-06
3.77202e-06
2.86185e-06
1.99183e-06
1.42229e-06
1.08452e-06
2.04548e-05
1.99303e-05
1.67224e-05
1.02544e-05
7.26722e-06
5.41161e-06
4.33262e-06
3.6302e-06
2.87339e-06
2.05696e-06
1.49541e-06
1.15416e-06
1.95415e-05
1.69207e-05
1.22043e-05
8.10834e-06
6.39689e-06
5.17409e-06
4.35021e-06
3.70832e-06
3.04389e-06
2.3204e-06
1.76284e-06
1.40038e-06
1.75566e-05
1.32241e-05
9.85607e-06
7.49605e-06
6.41906e-06
5.33211e-06
4.55206e-06
3.97696e-06
3.43247e-06
2.88919e-06
2.39605e-06
1.99465e-06
1.7231e-05
1.3343e-05
1.05519e-05
8.47614e-06
7.33758e-06
6.29853e-06
5.42793e-06
4.76575e-06
4.24561e-06
3.75522e-06
3.32169e-06
2.9458e-06
1.6626e-05
1.55547e-05
1.43689e-05
1.32478e-05
1.21863e-05
1.0997e-05
9.70495e-06
8.40499e-06
7.24806e-06
6.32875e-06
5.56368e-06
5.10845e-06
7.09303e-06
7.10926e-06
7.14828e-06
7.17023e-06
7.21275e-06
7.27206e-06
7.35089e-06
7.44727e-06
7.5466e-06
7.62294e-06
7.65633e-06
7.62618e-06
6.14947e-06
5.90014e-06
5.72918e-06
5.70566e-06
5.78459e-06
5.97222e-06
6.26042e-06
6.66009e-06
7.12252e-06
7.5627e-06
7.78562e-06
7.87203e-06
3.72905e-06
3.26951e-06
3.07436e-06
2.99131e-06
3.05323e-06
3.32229e-06
3.76721e-06
4.49799e-06
5.4865e-06
6.75131e-06
7.63773e-06
7.95714e-06
2.15753e-06
1.7957e-06
1.66952e-06
1.61584e-06
1.65517e-06
1.86652e-06
2.20917e-06
2.81299e-06
3.76446e-06
5.27152e-06
7.21135e-06
8.01367e-06
1.3395e-06
1.1003e-06
1.00893e-06
9.88199e-07
1.03683e-06
1.21047e-06
1.51018e-06
2.03456e-06
2.94047e-06
4.32145e-06
6.63412e-06
8.08293e-06
9.32847e-07
7.74961e-07
7.09177e-07
6.94885e-07
7.64361e-07
9.15355e-07
1.18474e-06
1.64152e-06
2.48393e-06
3.80711e-06
6.16794e-06
8.1483e-06
8.32009e-07
6.8388e-07
6.03961e-07
5.91821e-07
6.7288e-07
8.17931e-07
1.07462e-06
1.49938e-06
2.31301e-06
3.59128e-06
5.94073e-06
8.22104e-06
9.06347e-07
7.56262e-07
6.69927e-07
6.82284e-07
7.33798e-07
8.5426e-07
1.09411e-06
1.50047e-06
2.30581e-06
3.56645e-06
5.87674e-06
8.28846e-06
1.1514e-06
9.94417e-07
9.1941e-07
9.55571e-07
1.04157e-06
1.21394e-06
1.52441e-06
2.01773e-06
2.91898e-06
4.13281e-06
6.26989e-06
8.4218e-06
1.74325e-06
1.55117e-06
1.50854e-06
1.58183e-06
1.7196e-06
1.96303e-06
2.35527e-06
2.93647e-06
3.88813e-06
5.08985e-06
6.96362e-06
8.67123e-06
2.70687e-06
2.54863e-06
2.59599e-06
2.76757e-06
3.0393e-06
3.45192e-06
4.03456e-06
4.79374e-06
5.9015e-06
7.08293e-06
8.3712e-06
9.06941e-06
4.7447e-06
4.73826e-06
4.97263e-06
5.35105e-06
5.87396e-06
6.53046e-06
7.32694e-06
8.16139e-06
8.84176e-06
9.21614e-06
9.50636e-06
9.42246e-06
1.06314e-05
1.06257e-05
1.05927e-05
1.05053e-05
1.04311e-05
1.03144e-05
1.03168e-05
1.06282e-05
1.33235e-05
1.50624e-05
1.52007e-05
1.52346e-05
1.1034e-05
1.09734e-05
1.07953e-05
1.05663e-05
1.04246e-05
1.07199e-05
1.19942e-05
1.37903e-05
1.45787e-05
1.48297e-05
1.45487e-05
1.40546e-05
1.12117e-05
1.10982e-05
1.07887e-05
1.05649e-05
1.09201e-05
1.24668e-05
1.37303e-05
1.41257e-05
1.42223e-05
1.35366e-05
1.18115e-05
1.00805e-05
1.13685e-05
1.12127e-05
1.08762e-05
1.10915e-05
1.23057e-05
1.34102e-05
1.37253e-05
1.37745e-05
1.2816e-05
1.01091e-05
7.78587e-06
6.37418e-06
1.15376e-05
1.16515e-05
1.16007e-05
1.2159e-05
1.30738e-05
1.34155e-05
1.34777e-05
1.26402e-05
9.96911e-06
7.21024e-06
5.44923e-06
4.16693e-06
1.16527e-05
1.20147e-05
1.21845e-05
1.27935e-05
1.31773e-05
1.32883e-05
1.28935e-05
1.09511e-05
7.86073e-06
5.50654e-06
4.06526e-06
2.93034e-06
1.1782e-05
1.22927e-05
1.25635e-05
1.29529e-05
1.30962e-05
1.29828e-05
1.19243e-05
9.42285e-06
6.63424e-06
4.78752e-06
3.57486e-06
2.59519e-06
1.18798e-05
1.24385e-05
1.2697e-05
1.28887e-05
1.29218e-05
1.25781e-05
1.13242e-05
9.20644e-06
6.72281e-06
4.93918e-06
3.74929e-06
2.79861e-06
1.18882e-05
1.24262e-05
1.26455e-05
1.27321e-05
1.27056e-05
1.2322e-05
1.13805e-05
9.53241e-06
7.29904e-06
5.56865e-06
4.37979e-06
3.45569e-06
1.18918e-05
1.23604e-05
1.24979e-05
1.25325e-05
1.25124e-05
1.22998e-05
1.1763e-05
1.05898e-05
8.82488e-06
7.06489e-06
5.81957e-06
4.86746e-06
1.18273e-05
1.21748e-05
1.22034e-05
1.22202e-05
1.22343e-05
1.2186e-05
1.20456e-05
1.17292e-05
1.11273e-05
1.01292e-05
9.17797e-06
8.15034e-06
1.15481e-05
1.16556e-05
1.16047e-05
1.15867e-05
1.15866e-05
1.16663e-05
1.17291e-05
1.16615e-05
1.15563e-05
1.13498e-05
1.10669e-05
1.0724e-05
1.52625e-05
1.52958e-05
1.53338e-05
1.53849e-05
1.54488e-05
1.55426e-05
1.56802e-05
1.58368e-05
1.60023e-05
1.61117e-05
1.61618e-05
1.61525e-05
1.35107e-05
1.29945e-05
1.26785e-05
1.26027e-05
1.27473e-05
1.30954e-05
1.36415e-05
1.43857e-05
1.52271e-05
1.59358e-05
1.62806e-05
1.64104e-05
8.7507e-06
7.79473e-06
7.36285e-06
7.19791e-06
7.33206e-06
7.89855e-06
8.80117e-06
1.02863e-05
1.22941e-05
1.46579e-05
1.6002e-05
1.64999e-05
5.10659e-06
4.47307e-06
4.03566e-06
3.95246e-06
4.0489e-06
4.56709e-06
5.36305e-06
6.67493e-06
8.62e-06
1.20158e-05
1.5321e-05
1.65682e-05
3.18711e-06
2.72285e-06
2.42761e-06
2.37639e-06
2.50801e-06
2.97213e-06
3.76493e-06
5.03666e-06
6.8205e-06
9.87929e-06
1.44168e-05
1.66522e-05
2.21344e-06
1.83582e-06
1.63726e-06
1.59872e-06
1.78715e-06
2.19387e-06
2.91865e-06
4.21748e-06
5.83805e-06
8.84967e-06
1.35759e-05
1.67377e-05
1.96976e-06
1.59098e-06
1.35954e-06
1.32308e-06
1.5438e-06
1.93373e-06
2.61262e-06
3.9153e-06
5.46392e-06
8.38954e-06
1.31626e-05
1.68333e-05
2.16673e-06
1.7842e-06
1.54657e-06
1.58023e-06
1.71927e-06
2.04045e-06
2.6485e-06
3.95671e-06
5.44651e-06
8.32894e-06
1.30335e-05
1.69223e-05
2.81263e-06
2.41115e-06
2.21798e-06
2.31579e-06
2.5469e-06
3e-06
3.77877e-06
5.31439e-06
6.68125e-06
9.53351e-06
1.34018e-05
1.70182e-05
4.26004e-06
3.79267e-06
3.747e-06
3.9644e-06
4.33655e-06
4.93387e-06
5.85019e-06
7.35944e-06
8.25051e-06
1.05954e-05
1.23496e-05
1.57938e-05
7.59725e-06
7.04945e-06
7.07952e-06
7.35984e-06
7.75803e-06
8.30643e-06
8.84395e-06
9.28892e-06
9.43246e-06
1.05569e-05
1.19457e-05
1.52308e-05
1.0425e-05
1.02071e-05
1.0083e-05
1.00436e-05
9.98782e-06
9.97632e-06
9.89047e-06
9.85355e-06
9.72265e-06
1.04606e-05
1.1487e-05
1.44573e-05
1.45409e-05
1.55533e-05
1.84634e-05
1.88656e-05
1.95448e-05
1.97569e-05
1.95802e-05
1.93402e-05
1.88422e-05
1.83509e-05
1.7769e-05
1.73383e-05
1.21576e-05
1.27752e-05
1.46537e-05
1.48994e-05
1.51719e-05
1.55325e-05
1.6089e-05
1.66269e-05
1.70662e-05
1.73192e-05
1.72977e-05
1.72065e-05
9.7477e-06
1.13453e-05
1.15554e-05
1.1788e-05
1.2019e-05
1.22912e-05
1.25793e-05
1.29199e-05
1.32476e-05
1.35859e-05
1.39284e-05
1.40797e-05
8.95628e-06
9.07834e-06
9.23375e-06
9.39494e-06
9.60882e-06
9.83529e-06
1.01383e-05
1.04377e-05
1.07998e-05
1.10524e-05
1.12503e-05
1.11165e-05
1.69242e-05
1.67612e-05
1.66143e-05
1.64735e-05
1.63324e-05
1.61806e-05
1.6012e-05
1.58215e-05
1.56149e-05
1.54102e-05
1.52371e-05
1.51364e-05
1.70652e-05
1.6884e-05
1.66436e-05
1.6341e-05
1.59664e-05
1.55555e-05
1.50661e-05
1.45922e-05
1.41229e-05
1.37408e-05
1.3458e-05
1.36466e-05
1.39252e-05
1.36318e-05
1.32455e-05
1.27852e-05
1.22601e-05
1.17192e-05
1.11022e-05
1.05789e-05
1.00788e-05
9.78864e-06
9.60022e-06
9.83147e-06
1.06357e-05
1.01085e-05
9.55276e-06
8.99721e-06
8.5781e-06
8.11005e-06
7.87126e-06
7.67134e-06
7.60892e-06
7.58819e-06
7.5554e-06
7.63688e-06
1.49728e-05
1.46186e-05
1.44515e-05
1.4246e-05
1.40276e-05
1.37418e-05
1.34802e-05
1.31839e-05
1.29642e-05
1.27807e-05
1.26161e-05
1.24615e-05
1.38825e-05
1.39537e-05
1.39612e-05
1.39347e-05
1.38838e-05
1.38015e-05
1.37244e-05
1.36471e-05
1.35542e-05
1.34409e-05
1.33399e-05
1.32375e-05
1.01755e-05
1.05192e-05
1.08513e-05
1.11649e-05
1.1489e-05
1.18096e-05
1.21382e-05
1.24049e-05
1.25859e-05
1.26999e-05
1.27295e-05
1.26843e-05
7.75517e-06
7.89958e-06
8.05167e-06
8.24241e-06
8.4525e-06
8.7188e-06
9.01259e-06
9.35725e-06
9.74366e-06
1.00772e-05
1.03157e-05
1.02011e-05
1.23334e-05
1.22741e-05
1.23009e-05
1.23459e-05
1.23717e-05
1.23746e-05
1.23286e-05
1.22522e-05
1.21841e-05
1.20797e-05
1.20128e-05
1.19024e-05
1.31588e-05
1.30775e-05
1.29705e-05
1.28445e-05
1.26853e-05
1.25034e-05
1.2294e-05
1.20666e-05
1.18238e-05
1.16231e-05
1.14464e-05
1.14851e-05
1.25375e-05
1.23328e-05
1.20656e-05
1.17347e-05
1.13666e-05
1.09191e-05
1.04853e-05
1.00133e-05
9.6275e-06
9.3649e-06
9.21348e-06
9.37186e-06
9.78174e-06
9.32091e-06
8.82447e-06
8.37674e-06
7.91849e-06
7.60961e-06
7.323e-06
7.20023e-06
7.14369e-06
7.12692e-06
7.09532e-06
7.17702e-06
1.20324e-05
1.23582e-05
1.24604e-05
1.24808e-05
1.24219e-05
1.23273e-05
1.205e-05
1.1764e-05
1.12311e-05
1.07685e-05
1.01705e-05
9.78328e-06
1.14945e-05
1.1548e-05
1.16149e-05
1.16648e-05
1.17229e-05
1.18152e-05
1.18059e-05
1.17511e-05
1.16884e-05
1.1586e-05
1.14545e-05
1.13098e-05
9.60304e-06
9.77145e-06
9.91354e-06
1.00662e-05
1.02064e-05
1.03828e-05
1.05641e-05
1.077e-05
1.09046e-05
1.10036e-05
1.1002e-05
1.09542e-05
7.29293e-06
7.42447e-06
7.55491e-06
7.71038e-06
7.8775e-06
8.07978e-06
8.30582e-06
8.55999e-06
8.84173e-06
9.08805e-06
9.23808e-06
9.14064e-06
9.37695e-06
9.32271e-06
9.43761e-06
9.61969e-06
9.80057e-06
9.93952e-06
1.00191e-05
1.00432e-05
1.00445e-05
9.97492e-06
9.94611e-06
9.78965e-06
1.12051e-05
1.1113e-05
1.10087e-05
1.08985e-05
1.07707e-05
1.06321e-05
1.04751e-05
1.03127e-05
1.01473e-05
1.00114e-05
9.90718e-06
9.82998e-06
1.08362e-05
1.06829e-05
1.04832e-05
1.02345e-05
9.97102e-06
9.63419e-06
9.31511e-06
8.96494e-06
8.6711e-06
8.47656e-06
8.36062e-06
8.46875e-06
8.81223e-06
8.45815e-06
8.0919e-06
7.7361e-06
7.45704e-06
7.14592e-06
6.99018e-06
6.86305e-06
6.82692e-06
6.81311e-06
6.78765e-06
6.84076e-06
9.8055e-06
9.91622e-06
9.91904e-06
9.95993e-06
9.98503e-06
1.00848e-05
1.02067e-05
1.04207e-05
1.05796e-05
1.07459e-05
1.07533e-05
1.06992e-05
9.77208e-06
9.74205e-06
9.7181e-06
9.70265e-06
9.6951e-06
9.69475e-06
9.7058e-06
9.72909e-06
9.77164e-06
9.80849e-06
9.85132e-06
9.87132e-06
8.64332e-06
8.75909e-06
8.86542e-06
8.9466e-06
9.01434e-06
9.0731e-06
9.12793e-06
9.18114e-06
9.2267e-06
9.26817e-06
9.28375e-06
9.25186e-06
6.9194e-06
7.00773e-06
7.09387e-06
7.20077e-06
7.3202e-06
7.46294e-06
7.61718e-06
7.78918e-06
7.94678e-06
8.08735e-06
8.13759e-06
8.07206e-06
1.06373e-05
1.05634e-05
1.04549e-05
1.03493e-05
1.021e-05
1.00848e-05
9.92666e-06
9.79333e-06
9.5574e-06
9.99355e-06
1.10236e-05
1.20261e-05
9.82426e-06
9.74778e-06
9.65103e-06
9.53031e-06
9.38684e-06
9.22162e-06
9.03992e-06
8.85686e-06
8.61339e-06
8.94631e-06
9.91217e-06
1.05561e-05
9.16498e-06
9.05298e-06
8.914e-06
8.75159e-06
8.55906e-06
8.32745e-06
8.09683e-06
7.88432e-06
7.76682e-06
7.6635e-06
8.01995e-06
9.17458e-06
7.90525e-06
7.73071e-06
7.56278e-06
7.41133e-06
7.29774e-06
7.2407e-06
7.2439e-06
7.2555e-06
7.28348e-06
7.28587e-06
7.28021e-06
7.68869e-06
8.00585e-06
7.83334e-06
7.70573e-06
7.4508e-06
7.22357e-06
6.85522e-06
6.50706e-06
6.02976e-06
5.61054e-06
5.11199e-06
4.78549e-06
4.60224e-06
5.51134e-06
5.33029e-06
5.03346e-06
4.78006e-06
4.44465e-06
4.14277e-06
3.80981e-06
3.52844e-06
3.28628e-06
3.1306e-06
3.0838e-06
3.14599e-06
3.34856e-06
3.16766e-06
2.94338e-06
2.73763e-06
2.49564e-06
2.29136e-06
2.06899e-06
1.90604e-06
1.75033e-06
1.67375e-06
1.63949e-06
1.71389e-06
1.88522e-06
1.76446e-06
1.60811e-06
1.47418e-06
1.31581e-06
1.19053e-06
1.05311e-06
9.60631e-07
8.68828e-07
8.33012e-07
8.16017e-07
8.841e-07
4.69539e-06
4.86743e-06
5.1699e-06
5.54923e-06
5.95705e-06
6.33852e-06
6.63542e-06
6.85187e-06
7.00405e-06
7.11197e-06
7.1606e-06
7.18165e-06
3.35814e-06
3.65236e-06
3.91901e-06
4.22417e-06
4.52193e-06
4.81012e-06
5.06904e-06
5.28877e-06
5.47167e-06
5.57332e-06
5.58836e-06
5.4383e-06
1.88556e-06
2.16421e-06
2.37972e-06
2.61478e-06
2.84754e-06
3.06987e-06
3.2701e-06
3.45072e-06
3.57494e-06
3.62826e-06
3.58271e-06
3.4486e-06
1.01167e-06
1.24449e-06
1.37583e-06
1.52291e-06
1.6698e-06
1.8132e-06
1.94864e-06
2.06185e-06
2.1346e-06
2.15914e-06
2.10739e-06
2.02016e-06
7.15331e-06
7.09445e-06
6.9875e-06
6.81729e-06
6.61804e-06
6.34702e-06
6.03702e-06
5.66441e-06
5.28159e-06
4.89735e-06
4.62276e-06
4.45637e-06
5.23925e-06
5.02907e-06
4.78845e-06
4.56096e-06
4.28105e-06
4.01279e-06
3.72302e-06
3.47364e-06
3.25405e-06
3.11885e-06
3.06894e-06
3.13336e-06
3.29181e-06
3.11841e-06
2.92467e-06
2.72537e-06
2.51234e-06
2.30972e-06
2.11003e-06
1.94303e-06
1.80137e-06
1.71645e-06
1.68916e-06
1.75164e-06
1.90119e-06
1.78144e-06
1.63746e-06
1.50187e-06
1.3547e-06
1.22374e-06
1.0962e-06
9.95038e-07
9.12639e-07
8.67828e-07
8.60631e-07
9.24301e-07
4.54446e-06
4.70559e-06
4.9875e-06
5.33625e-06
5.69892e-06
6.03803e-06
6.29876e-06
6.48906e-06
6.62209e-06
6.71833e-06
6.76332e-06
6.78506e-06
3.32726e-06
3.60525e-06
3.85475e-06
4.14161e-06
4.42001e-06
4.68831e-06
4.92812e-06
5.13034e-06
5.29964e-06
5.39594e-06
5.41446e-06
5.2908e-06
1.92353e-06
2.18419e-06
2.38892e-06
2.6125e-06
2.83404e-06
3.04574e-06
3.2364e-06
3.40815e-06
3.52694e-06
3.57923e-06
3.54093e-06
3.41516e-06
1.05842e-06
1.28672e-06
1.41374e-06
1.55593e-06
1.69755e-06
1.83563e-06
1.9663e-06
2.07386e-06
2.14231e-06
2.16428e-06
2.11083e-06
2.02609e-06
6.76665e-06
6.71355e-06
6.62374e-06
6.47564e-06
6.30991e-06
6.07646e-06
5.81877e-06
5.50176e-06
5.1875e-06
4.86839e-06
4.62261e-06
4.50595e-06
5.11514e-06
4.93652e-06
4.72525e-06
4.52633e-06
4.27479e-06
4.03474e-06
3.77109e-06
3.54267e-06
3.34005e-06
3.21386e-06
3.17202e-06
3.24418e-06
3.26865e-06
3.10413e-06
2.91792e-06
2.72502e-06
2.51527e-06
2.31471e-06
2.11284e-06
1.94308e-06
1.79591e-06
1.70755e-06
1.67793e-06
1.74382e-06
1.90608e-06
1.78836e-06
1.64235e-06
1.50777e-06
1.35734e-06
1.22663e-06
1.09532e-06
9.94717e-07
9.0928e-07
8.65932e-07
8.56609e-07
9.21384e-07
4.58605e-06
4.78512e-06
5.0672e-06
5.3891e-06
5.71646e-06
5.99815e-06
6.21484e-06
6.37148e-06
6.48009e-06
6.55744e-06
6.59965e-06
6.62839e-06
3.44939e-06
3.73938e-06
3.99816e-06
4.29275e-06
4.57499e-06
4.84305e-06
5.07858e-06
5.27443e-06
5.43577e-06
5.53136e-06
5.55591e-06
5.45682e-06
1.92418e-06
2.19994e-06
2.417e-06
2.65363e-06
2.88747e-06
3.11014e-06
3.30979e-06
3.4888e-06
3.61189e-06
3.6656e-06
3.62498e-06
3.49365e-06
1.05409e-06
1.2875e-06
1.41836e-06
1.56503e-06
1.71159e-06
1.85469e-06
1.99003e-06
2.10232e-06
2.17398e-06
2.19731e-06
2.14277e-06
2.05427e-06
6.64145e-06
6.64335e-06
6.61666e-06
6.56871e-06
6.47425e-06
6.32743e-06
6.10284e-06
5.8877e-06
5.6222e-06
5.41817e-06
5.23147e-06
5.23037e-06
5.28944e-06
5.11664e-06
4.87796e-06
4.63273e-06
4.33861e-06
4.0609e-06
3.79219e-06
3.51909e-06
3.29149e-06
3.11898e-06
3.04905e-06
3.09805e-06
3.33757e-06
3.16247e-06
2.96264e-06
2.75967e-06
2.54214e-06
2.33724e-06
2.13386e-06
1.95962e-06
1.8181e-06
1.72818e-06
1.70561e-06
1.76522e-06
1.93131e-06
1.80887e-06
1.6601e-06
1.52147e-06
1.3692e-06
1.23486e-06
1.1019e-06
9.97242e-07
9.10574e-07
8.622e-07
8.51919e-07
9.12763e-07
5.42468e-06
5.7787e-06
6.14474e-06
6.51667e-06
6.85161e-06
7.13643e-06
7.36439e-06
7.54366e-06
7.67737e-06
7.77155e-06
7.84194e-06
7.91703e-06
3.32327e-06
3.66514e-06
3.99908e-06
4.3768e-06
4.75259e-06
5.1097e-06
5.42261e-06
5.68337e-06
5.89689e-06
6.01484e-06
6.03187e-06
5.81478e-06
1.9397e-06
2.20522e-06
2.41755e-06
2.65508e-06
2.89588e-06
3.13112e-06
3.34701e-06
3.54501e-06
3.67998e-06
3.73629e-06
3.67796e-06
3.52706e-06
1.04545e-06
1.27276e-06
1.40047e-06
1.54439e-06
1.68876e-06
1.83072e-06
1.96655e-06
2.07813e-06
2.14867e-06
2.16952e-06
2.10655e-06
2.01684e-06
8.3791e-07
7.63242e-07
6.48364e-07
5.67998e-07
4.55937e-07
3.83824e-07
2.88011e-07
2.3564e-07
1.65865e-07
1.40282e-07
1.08346e-07
1.14907e-07
2.70023e-07
2.2982e-07
1.76389e-07
1.42282e-07
9.52132e-08
7.42911e-08
3.95619e-08
3.41495e-08
1.59037e-08
1.80707e-08
1.36831e-08
1.49405e-08
6.03804e-08
4.54332e-08
3.12635e-08
2.17484e-08
1.16066e-08
8.88196e-09
3.6052e-09
3.95042e-09
2.41289e-09
2.78486e-09
2.48979e-09
2.65134e-09
8.64361e-09
5.82083e-09
3.34034e-09
2.11067e-09
9.37039e-10
9.88775e-10
5.66058e-10
6.44863e-10
5.33614e-10
5.85016e-10
5.82074e-10
5.95869e-10
8.07331e-10
5.00584e-10
2.79344e-10
2.2678e-10
1.50684e-10
1.68329e-10
1.34257e-10
1.48098e-10
1.43536e-10
1.4878e-10
1.51225e-10
1.53681e-10
7.75086e-11
5.38724e-11
4.7308e-11
4.17777e-11
4.06191e-11
4.08603e-11
3.89419e-11
4.03382e-11
4.06715e-11
4.15104e-11
4.23314e-11
4.29094e-11
1.38359e-11
1.12683e-11
1.1871e-11
1.13249e-11
1.15323e-11
1.15395e-11
1.15558e-11
1.17099e-11
1.18743e-11
1.20966e-11
1.23248e-11
1.24621e-11
3.38703e-12
3.25686e-12
3.34041e-12
3.33488e-12
3.36158e-12
3.37921e-12
3.40541e-12
3.44469e-12
3.49412e-12
3.55238e-12
3.6102e-12
3.64102e-12
9.44681e-13
9.50212e-13
9.60637e-13
9.66161e-13
9.73021e-13
9.79633e-13
9.88157e-13
9.9866e-13
1.01142e-12
1.02529e-12
1.03871e-12
1.04503e-12
2.66262e-13
2.68903e-13
2.71418e-13
2.73202e-13
2.75105e-13
2.76931e-13
2.79121e-13
2.81585e-13
2.84455e-13
2.87376e-13
2.90149e-13
2.91309e-13
7.46302e-14
7.52551e-14
7.58442e-14
7.6277e-14
7.67324e-14
7.71488e-14
7.76244e-14
7.81132e-14
7.866e-14
7.91792e-14
7.9659e-14
7.98269e-14
2.53309e-14
2.54647e-14
2.55864e-14
2.56963e-14
2.58001e-14
2.58958e-14
2.59842e-14
2.60618e-14
2.61267e-14
2.61748e-14
2.62055e-14
2.62187e-14
4.56017e-07
5.53941e-07
6.17243e-07
6.97977e-07
7.8233e-07
8.69232e-07
9.48503e-07
1.01047e-06
1.04629e-06
1.05085e-06
9.97932e-07
9.43404e-07
2.30201e-07
2.17872e-07
2.36334e-07
2.65172e-07
2.96949e-07
3.30624e-07
3.60297e-07
3.82436e-07
3.92609e-07
3.83722e-07
3.53346e-07
3.20488e-07
1.04787e-07
6.78196e-08
7.40381e-08
8.11987e-08
8.92456e-08
9.77078e-08
1.04483e-07
1.08572e-07
1.08903e-07
1.01026e-07
9.05055e-08
7.56625e-08
4.42514e-08
1.68173e-08
1.83327e-08
1.9401e-08
2.06475e-08
2.188e-08
2.25909e-08
2.26181e-08
2.10671e-08
1.9198e-08
1.57185e-08
1.23429e-08
1.82502e-08
3.2686e-09
3.59387e-09
3.64288e-09
3.71588e-09
3.74479e-09
3.58678e-09
3.30343e-09
2.88734e-09
2.42939e-09
1.8754e-09
1.32023e-09
7.73389e-09
5.27568e-10
5.84308e-10
5.53714e-10
5.50876e-10
4.99038e-10
4.54504e-10
3.78108e-10
3.14843e-10
2.3594e-10
1.77425e-10
1.21346e-10
3.40761e-09
7.89292e-11
8.28026e-11
7.42778e-11
7.23976e-11
5.98139e-11
5.46208e-11
4.20255e-11
3.72266e-11
2.7222e-11
2.51279e-11
1.92335e-11
1.576e-09
1.27604e-11
1.00697e-11
1.04733e-11
9.42174e-12
8.18792e-12
7.57883e-12
6.34855e-12
6.25949e-12
5.34554e-12
5.52815e-12
5.16303e-12
7.31069e-10
3.50502e-12
1.31596e-12
1.64072e-12
1.58349e-12
1.49327e-12
1.49472e-12
1.43341e-12
1.46783e-12
1.46657e-12
1.50205e-12
1.5168e-12
3.42795e-10
1.3528e-12
2.80334e-13
3.38024e-13
3.56164e-13
3.62717e-13
3.75295e-13
3.84878e-13
3.98245e-13
4.08452e-13
4.19383e-13
4.26886e-13
1.37617e-10
5.64449e-13
7.56238e-14
8.78588e-14
9.48237e-14
9.83829e-14
1.02507e-13
1.05722e-13
1.09066e-13
1.11633e-13
1.14079e-13
1.15777e-13
9.01702e-11
6.50295e-13
3.18972e-14
3.21082e-14
3.31e-14
3.38595e-14
3.45527e-14
3.51449e-14
3.56629e-14
3.60915e-14
3.64548e-14
3.67513e-14
8.49524e-07
7.72238e-07
6.62954e-07
5.78107e-07
4.70567e-07
3.91975e-07
3.00105e-07
2.40049e-07
1.74349e-07
1.41359e-07
1.13977e-07
1.18385e-07
2.71468e-07
2.31939e-07
1.79056e-07
1.43982e-07
9.79182e-08
7.473e-08
4.17031e-08
3.34504e-08
1.59488e-08
1.82191e-08
1.40243e-08
1.51476e-08
6.02165e-08
4.57647e-08
3.14401e-08
2.20034e-08
1.18844e-08
8.79801e-09
3.61471e-09
3.96777e-09
2.46945e-09
2.84366e-09
2.55669e-09
2.71086e-09
8.6462e-09
5.88566e-09
3.39743e-09
2.18599e-09
9.9875e-10
1.03282e-09
6.17464e-10
6.96096e-10
5.87477e-10
6.38114e-10
6.3582e-10
6.49372e-10
8.38184e-10
5.35902e-10
3.14427e-10
2.63067e-10
1.82037e-10
2.00196e-10
1.66499e-10
1.80152e-10
1.75902e-10
1.81291e-10
1.84117e-10
1.86866e-10
9.27748e-11
6.9637e-11
6.25933e-11
5.76432e-11
5.47977e-11
5.57433e-11
5.38452e-11
5.52925e-11
5.57628e-11
5.68113e-11
5.78722e-11
5.86137e-11
1.95894e-11
1.71536e-11
1.77143e-11
1.71884e-11
1.73067e-11
1.73457e-11
1.73873e-11
1.75903e-11
1.78283e-11
1.81468e-11
1.84755e-11
1.86725e-11
5.33107e-12
5.24837e-12
5.32403e-12
5.32804e-12
5.35454e-12
5.38226e-12
5.423e-12
5.48306e-12
5.55983e-12
5.65029e-12
5.74021e-12
5.78802e-12
1.54393e-12
1.5568e-12
1.57184e-12
1.58095e-12
1.59118e-12
1.60181e-12
1.61558e-12
1.63255e-12
1.65326e-12
1.67578e-12
1.69759e-12
1.70783e-12
4.33897e-13
4.38378e-13
4.42463e-13
4.45384e-13
4.48474e-13
4.51474e-13
4.55079e-13
4.59138e-13
4.63867e-13
4.68682e-13
4.73256e-13
4.75164e-13
1.17324e-13
1.18355e-13
1.1932e-13
1.20032e-13
1.20779e-13
1.21463e-13
1.22244e-13
1.23046e-13
1.23941e-13
1.2479e-13
1.25573e-13
1.25847e-13
3.70071e-14
3.72245e-14
3.74223e-14
3.76011e-14
3.777e-14
3.79259e-14
3.807e-14
3.81966e-14
3.83024e-14
3.83811e-14
3.84314e-14
3.84531e-14
4.78819e-07
5.81498e-07
6.46319e-07
7.27845e-07
8.12142e-07
8.98825e-07
9.76113e-07
1.03549e-06
1.06853e-06
1.0705e-06
1.01287e-06
9.58788e-07
2.41471e-07
2.29286e-07
2.48182e-07
2.78245e-07
3.11106e-07
3.45642e-07
3.75677e-07
3.97606e-07
4.06929e-07
3.95161e-07
3.63996e-07
3.28781e-07
1.09591e-07
7.12185e-08
7.78528e-08
8.55225e-08
9.40474e-08
1.02916e-07
1.09903e-07
1.13961e-07
1.13986e-07
1.04994e-07
9.40828e-08
7.81637e-08
4.59804e-08
1.75436e-08
1.91854e-08
2.0386e-08
2.17537e-08
2.3082e-08
2.3832e-08
2.38305e-08
2.20957e-08
2.00475e-08
1.63871e-08
1.27588e-08
1.88112e-08
3.37088e-09
3.72582e-09
3.80195e-09
3.89594e-09
3.9392e-09
3.78358e-09
3.4617e-09
3.02894e-09
2.52089e-09
1.95448e-09
1.34629e-09
7.90425e-09
5.37848e-10
5.99732e-10
5.79637e-10
5.74443e-10
5.27073e-10
4.75824e-10
3.9727e-10
3.28382e-10
2.44752e-10
1.8441e-10
1.2361e-10
3.45334e-09
8.08918e-11
8.54671e-11
7.89145e-11
7.62971e-11
6.46147e-11
5.80676e-11
4.58224e-11
3.98943e-11
3.00183e-11
2.74312e-11
2.15258e-11
1.58255e-09
1.35836e-11
1.11514e-11
1.16553e-11
1.08465e-11
9.55757e-12
8.98371e-12
7.75693e-12
7.6352e-12
6.77116e-12
6.9425e-12
6.61109e-12