/*--------------------------------*- C++ -*----------------------------------*\
| =========                 |                                                 |
| \\      /  F ield         | OpenFOAM: The Open Source CFD Toolbox           |
|  \\    /   O peration     | Version:  2212                                  |
|   \\  /    A nd           | Website:  www.openfoam.com                      |
|    \\/     M anipulation  |                                                 |
\*---------------------------------------------------------------------------*/
FoamFile
{
    version     2.0;
    format      ascii;
    arch        "LSB;label=32;scalar=64";
    class       volVectorField;
    location    "0.03";
    object      U;
}
// * * * * * * * * * * * * * * * * * * * * * * * * * * * * * * * * * * * * * //

dimensions      [0 1 -1 0 0 0 0];

internalField   nonuniform List<vector> 
3072
(
(0.295 21.7137 0)
(0.909057 18.6433 0)
(2.62658 17.0896 4.45105e-19)
(4.0375 16.0993 -7.57238e-15)
(5.39473 15.4287 1.21398e-14)
(6.22976 15.4462 -5.67409e-15)
(7.78709 17.4421 -2.69825e-15)
(14.9649 16.8618 -1.38887e-14)
(27.7193 15.7999 2.2636e-14)
(32.7603 21.6505 -8.45655e-15)
(35.1473 23.6752 5.56173e-15)
(38.7616 25.4868 2.64714e-15)
(-5.77934 25.658 -3.30823e-16)
(-3.23131 22.1214 -2.53494e-15)
(0.740746 22.5644 1.29688e-15)
(3.78536 22.2888 0)
(7.29933 24.211 5.27866e-15)
(14.1631 25.0021 -7.81497e-15)
(23.3515 27.5054 0)
(29.6195 29.0973 0)
(32.1779 29.0278 0)
(32.8948 29.9578 7.64052e-18)
(33.3762 30.1101 -1.1658e-14)
(34.7878 30.2818 5.21695e-18)
(-5.53582 29.2047 3.05589e-16)
(-1.59434 26.2154 0)
(4.31301 27.544 0)
(10.4734 27.7616 -6.85832e-15)
(18.3097 29.6572 4.59605e-15)
(25.6253 30.8782 -6.79514e-15)
(30.37 31.2526 8.5961e-15)
(32.9326 30.682 0)
(34.1239 29.5539 0)
(34.4285 28.8929 -2.97061e-15)
(34.9107 28.2146 -2.83294e-15)
(35.6049 27.5553 8.30086e-15)
(-5.3059 32.7893 -1.11971e-15)
(0.372617 31.5422 -2.08124e-15)
(7.98468 33.428 2.05157e-15)
(15.6484 33.7312 -2.06572e-15)
(22.8828 34.2551 8.11901e-15)
(27.8548 33.588 -7.70606e-15)
(30.6043 32.5392 -3.35917e-15)
(32.2826 31.062 -8.90724e-15)
(33.0368 29.7551 -2.19651e-18)
(33.3346 28.7326 5.22694e-15)
(33.6985 27.791 4.95209e-15)
(34.0724 26.8794 -4.80136e-15)
(-1.45333 34.8822 0)
(3.74898 35.4504 9.4191e-16)
(11.2656 36.9215 -1.84931e-15)
(18.4928 36.7777 3.67122e-15)
(24.359 36.0643 4.11475e-18)
(27.7596 34.5207 3.17907e-15)
(29.8257 32.8087 2.86678e-15)
(30.8236 31.115 2.76038e-15)
(31.3272 29.5598 -5.16096e-15)
(31.65 28.2478 4.81494e-15)
(32.0057 27.0772 -6.8131e-15)
(32.391 25.9984 8.66294e-15)
(0.617031 37.1881 -9.47769e-16)
(6.24996 38.1805 8.57777e-16)
(13.2126 39.0782 3.31711e-15)
(19.4663 38.3873 0)
(24.0942 36.8719 -6.16611e-15)
(26.7644 34.8645 5.58084e-15)
(28.2612 32.8725 0)
(29.1255 30.939 -4.94968e-15)
(29.6585 29.2172 4.62718e-15)
(30.0483 27.7246 0)
(30.4282 26.4005 2.40967e-18)
(30.8215 25.2056 3.98018e-15)
(3.60442 39.0906 0)
(8.41441 40.7413 -1.57942e-15)
(14.3974 40.8124 1.50987e-15)
(19.4647 39.6701 0)
(23.0747 37.5859 -2.73818e-15)
(25.216 35.2443 4.16208e-18)
(26.5402 32.9642 4.78619e-15)
(27.3825 30.8519 4.49783e-15)
(27.9717 28.9662 -4.24722e-15)
(28.4373 27.3053 4.04131e-15)
(28.8662 25.8314 -3.86658e-15)
(29.2877 24.5118 -1.11796e-14)
(5.33045 41.4472 0)
(9.74316 43.2405 1.45141e-15)
(14.7009 42.5201 -2.72988e-15)
(18.7003 40.9512 2.59624e-15)
(21.6073 38.4201 0)
(23.5029 35.7712 -4.5987e-15)
(24.7736 33.23 4.35119e-15)
(25.6624 30.9053 9.02262e-19)
(26.3276 28.8258 -7.88544e-15)
(26.8639 26.9835 -3.78415e-15)
(27.3362 25.3486 -2.29537e-18)
(27.777 23.8917 7.08316e-15)
(7.6288 43.0055 0)
(10.7609 45.5959 -1.3365e-15)
(14.382 44.0113 -2.46393e-15)
(17.4422 42.1087 -2.3111e-15)
(19.852 39.2605 4.3775e-15)
(21.6361 36.3457 0)
(22.9405 33.5556 0)
(23.9138 31.0048 0)
(24.6627 28.7182 0)
(25.2613 26.6865 3.58607e-15)
(25.7653 24.884 -3.49041e-15)
(26.2112 23.2825 3.40638e-15)
(8.18356 46.1516 0)
(10.7181 47.7476 1.17611e-15)
(13.2047 45.088 -3.36071e-18)
(15.675 42.6479 2.09065e-15)
(17.7773 39.5331 2.00344e-15)
(19.5131 36.4274 -3.84683e-15)
(20.8859 33.4795 0)
(21.9607 30.7786 -1.69543e-18)
(22.8009 28.3477 -1.0578e-14)
(23.4639 26.179 0)
(24.0003 24.2505 6.74535e-15)
(24.4501 22.5369 -3.30543e-15)
(10.9407 46.8053 0)
(9.90492 47.4323 1.08818e-15)
(11.1332 43.9856 4.0425e-15)
(13.1747 41.1281 -3.88301e-15)
(15.1262 38.0518 -5.61927e-15)
(16.8951 35.0558 9.06434e-15)
(18.3829 32.2327 -1.50326e-18)
(19.5891 29.6229 -3.4555e-15)
(20.544 27.2446 3.37909e-15)
(21.2919 25.0974 -6.64409e-15)
(21.8796 23.1687 -9.79053e-15)
(22.3504 21.4415 9.63869e-15)
(4.77242 43.2887 -5.71178e-16)
(6.68728 41.9812 -4.12728e-15)
(7.82147 38.3696 9.49034e-16)
(9.82445 35.9227 0)
(11.8846 33.6417 0)
(13.7928 31.3848 2.83733e-18)
(15.4262 29.1736 1.00702e-14)
(16.7703 27.0373 6.58572e-15)
(17.8429 25.0133 0)
(18.6835 23.127 6.38557e-15)
(19.3348 21.3892 0)
(19.8427 19.8008 3.76452e-18)
(41.3621 25.0573 -1.85965e-14)
(43.7761 24.6749 8.03033e-15)
(45.0765 23.1744 -8.11465e-15)
(45.9248 21.753 -2.72402e-15)
(45.7464 19.8105 -2.69343e-15)
(45.1071 17.8872 0)
(43.4134 15.7797 0)
(41.0588 13.7637 5.33558e-15)
(37.688 11.8052 -5.38323e-15)
(33.418 9.70735 0)
(27.7936 6.36434 0)
(25.3108 -0.0971025 -3.69323e-16)
(35.7898 30.1318 6.94311e-15)
(37.0477 29.5861 0)
(38.1897 28.5793 -9.74786e-18)
(39.2718 27.2015 3.36892e-15)
(40.0705 25.5166 1.69081e-15)
(40.4051 23.7846 6.89191e-15)
(40.1653 22.1051 -1.06621e-14)
(39.3423 20.628 1.86697e-15)
(37.9559 19.4894 0)
(35.2715 18.5769 0)
(31.8692 17.4621 0)
(31.8709 14.2627 -4.02156e-23)
(36.2236 26.8333 2.71274e-15)
(36.9241 26.0177 -7.92139e-15)
(37.5916 25.0856 2.61074e-15)
(38.1393 24.0964 5.23343e-15)
(38.4552 23.1074 -5.29334e-15)
(38.4731 22.198 0)
(38.1537 21.4544 0)
(37.4938 20.9766 -1.59384e-18)
(36.5283 20.9 1.59781e-15)
(34.8533 21.1141 0)
(32.271 21.1778 0)
(33.5752 21.0394 0)
(34.4608 26.0176 3.1634e-18)
(34.9487 25.1665 6.79932e-15)
(35.4343 24.2969 4.45167e-15)
(35.8567 23.4415 -4.42283e-15)
(36.1528 22.6584 0)
(36.2806 22.0234 2.24862e-15)
(36.214 21.6263 0)
(35.9527 21.5144 3.74017e-15)
(35.5655 21.8073 -1.32397e-15)
(34.7647 22.6507 0)
(32.7214 23.9038 -7.7345e-16)
(35.7439 25.8273 -1.02913e-15)
(32.8119 25.0047 -4.16512e-15)
(33.2691 24.071 0)
(33.7169 23.1971 0)
(34.1241 22.4086 0)
(34.4626 21.7494 0)
(34.7164 21.2869 -3.80676e-15)
(34.8666 21.1041 -1.31073e-18)
(34.9516 21.2346 -2.14632e-15)
(34.9559 21.8356 0)
(34.8515 23.019 -1.17217e-15)
(33.5221 24.9221 7.29519e-16)
(37.5221 28.0207 9.49437e-16)
(31.2394 24.1225 -2.22394e-18)
(31.6792 23.1351 -7.48314e-15)
(32.121 22.2475 3.66923e-15)
(32.551 21.4811 6.39574e-20)
(32.9603 20.8727 2.13529e-18)
(33.3508 20.4736 5.43635e-15)
(33.7401 20.3444 -1.36848e-18)
(34.1491 20.5532 -5.72742e-15)
(34.5962 21.2186 -2.04265e-15)
(35.1291 22.517 1.14893e-15)
(34.6761 24.8949 -1.37784e-15)
(39.2754 29.067 -4.4e-16)
(29.7163 23.3272 1.08449e-14)
(30.1563 22.2651 3.52876e-15)
(30.6052 21.3278 0)
(31.0651 20.5311 0)
(31.5445 19.9033 2.02471e-18)
(32.062 19.4855 -3.38247e-15)
(32.6491 19.3278 5.10719e-15)
(33.3455 19.4917 -1.1761e-18)
(34.1866 20.0853 1.83039e-15)
(35.2759 21.301 0)
(35.6581 23.6283 -2.09415e-18)
(40.5857 28.5555 4.09831e-16)
(28.2063 22.5917 -3.45188e-15)
(28.6373 21.4355 -3.37831e-15)
(29.0811 20.4212 3.32536e-15)
(29.5533 19.5578 -3.2797e-15)
(30.0775 18.8641 -6.315e-20)
(30.688 18.3689 6.44407e-15)
(31.4341 18.1092 -3.2104e-15)
(32.3801 18.1359 1.62047e-15)
(33.5888 18.5398 0)
(35.2338 19.524 9.18497e-16)
(36.5067 21.6501 5.55895e-16)
(41.5936 26.879 -1.53062e-15)
(26.6258 21.8595 3.33522e-15)
(27.0313 20.5987 -3.27574e-15)
(27.4499 19.4923 -3.22456e-15)
(27.9086 18.541 -6.37007e-15)
(28.4434 17.7525 6.29516e-15)
(29.1022 17.1414 -6.22566e-15)
(29.9518 16.7266 0)
(31.0826 16.5394 -1.53529e-15)
(32.5917 16.6376 0)
(34.7236 17.201 0)
(36.9062 18.8264 0)
(42.0379 23.6638 1.42327e-15)
(24.8465 21.016 3.24714e-15)
(25.2193 19.6685 -6.39495e-15)
(25.6 18.481 6.30599e-15)
(26.0247 17.4459 6.22605e-15)
(26.539 16.5594 3.0759e-15)
(27.2007 15.8211 0)
(28.0914 15.2262 0)
(29.322 14.7791 2.96235e-15)
(31.03 14.4884 0)
(33.5473 14.4835 -7.77257e-16)
(36.4461 15.223 4.61853e-16)
(41.773 18.8847 -2.00043e-15)
(22.742 19.9001 -6.33065e-15)
(23.0901 18.5263 6.23967e-15)
(23.4334 17.3048 -6.16151e-15)
(23.814 16.2223 -1.52324e-14)
(24.2856 15.265 -1.76353e-18)
(24.9104 14.4179 1.09394e-18)
(25.7813 13.6534 -2.93948e-15)
(27.01 12.9416 -2.88947e-15)
(28.7733 12.2184 0)
(31.4816 11.5551 2.19187e-15)
(34.7103 10.9492 4.24323e-16)
(40.331 12.0645 -3.2668e-19)
(20.2457 18.361 -3.63644e-18)
(20.5824 17.0591 0)
(20.8966 15.8823 0)
(21.234 14.817 2.97662e-15)
(21.6527 13.8454 8.84383e-15)
(22.2113 12.9414 -2.91789e-15)
(23.0115 12.054 -1.59493e-18)
(24.1433 11.1245 -1.42088e-15)
(25.8083 10.0032 -1.3939e-15)
(28.3112 8.6522 -1.39306e-15)
(32.0466 6.36792 0)
(37.2681 -1.47272 5.49341e-16)
(21.7697 -0.601538 -3.81109e-16)
(18.8361 -1.12181 0)
(17.3621 -2.75723 -4.70255e-19)
(16.2599 -4.23773 0)
(15.6922 -5.51567 6.08468e-15)
(15.4106 -6.61604 -5.72907e-15)
(16.7337 -7.4888 0)
(17.6954 -12.3573 -1.11388e-14)
(14.6975 -25.0288 1.98794e-14)
(19.7538 -31.9914 -1.41355e-14)
(22.546 -34.0418 -2.8295e-15)
(24.2663 -37.721 -2.66154e-15)
(25.5966 5.43708 -1.65716e-15)
(22.1724 3.07374 -1.27229e-15)
(22.5328 -0.698464 3.89874e-15)
(22.0269 -3.75893 0)
(23.5389 -6.72283 -5.27555e-15)
(24.5939 -12.1051 5.27453e-15)
(26.0762 -21.181 0)
(28.3859 -28.3651 4.56761e-15)
(28.1119 -31.6327 -1.28613e-14)
(28.9775 -32.6864 7.9753e-15)
(29.2685 -32.919 8.0387e-15)
(29.3476 -34.3293 -1.11002e-14)
(28.9985 5.21211 3.05545e-16)
(25.9606 1.70434 0)
(27.0022 -3.76041 -2.27883e-15)
(27.0554 -9.24796 0)
(28.4715 -16.2787 0)
(30.0127 -24.0323 -4.59099e-15)
(30.4102 -29.3576 1.76362e-14)
(30.2486 -32.3731 -1.09134e-14)
(28.9602 -33.7633 3.42398e-15)
(28.2285 -34.1881 0)
(27.5588 -34.5519 5.88737e-15)
(26.856 -35.226 -2.83398e-15)
(32.6521 5.58108 -1.123e-15)
(31.0776 0.343328 1.04557e-15)
(32.7697 -6.79361 2.05751e-15)
(32.9835 -14.1315 4.15112e-15)
(33.5492 -21.512 -4.12241e-15)
(33.135 -27.0954 -3.96636e-15)
(32.0865 -30.1931 0)
(30.7348 -31.8944 0)
(29.3292 -32.7824 2.90601e-15)
(28.2529 -33.1237 0)
(27.2961 -33.4424 4.08567e-18)
(26.3648 -33.8392 2.46954e-15)
(34.7947 1.97496 1.54378e-15)
(35.1162 -2.8734 -9.49265e-16)
(36.6088 -10.1546 -1.87165e-15)
(36.5321 -17.3547 0)
(35.9438 -23.5865 0)
(34.4588 -27.3554 3.31989e-15)
(32.675 -29.4809 0)
(30.9451 -30.5899 -5.72617e-15)
(29.3182 -31.1419 -2.69419e-15)
(27.9362 -31.4762 5.03089e-15)
(26.7225 -31.8108 -7.11968e-15)
(25.6065 -32.1887 4.5241e-15)
(37.2888 0.16571 -6.28184e-19)
(38.0815 -5.31505 -8.67238e-16)
(39.1421 -12.2374 1.68852e-15)
(38.5366 -18.6078 1.80871e-18)
(37.0676 -23.5462 3.18549e-15)
(35.003 -26.407 -5.79996e-15)
(32.9358 -27.9828 5.51971e-15)
(30.9312 -28.9186 4.84496e-18)
(29.1231 -29.4933 0)
(27.5529 -29.9006 0)
(26.1711 -30.2809 8.65606e-15)
(24.9274 -30.6784 4.76711e-19)
(39.2364 -2.95364 -8.84698e-16)
(40.8501 -7.60879 -7.99414e-16)
(41.1046 -13.6118 0)
(40.0454 -18.7764 -2.97079e-15)
(37.9572 -22.5906 2.81815e-15)
(35.543 -24.8689 7.91165e-15)
(33.1834 -26.2763 4.94968e-15)
(30.9879 -27.1888 6.64053e-18)
(29.0144 -27.8245 -8.82376e-15)
(27.2734 -28.3211 4.19942e-15)
(25.732 -28.7711 4.03092e-15)
(24.3534 -29.2151 2.39097e-18)
(41.6155 -4.7531 -5.37123e-19)
(43.4512 -9.08497 1.46448e-15)
(42.9163 -14.0566 0)
(41.441 -18.1079 -2.6427e-15)
(38.9145 -21.1561 -2.49474e-15)
(36.2114 -23.1689 4.46485e-18)
(33.5976 -24.5281 -8.95015e-15)
(31.1896 -25.4916 3.34109e-18)
(29.0227 -26.2155 -2.29094e-18)
(27.097 -26.7985 3.92703e-15)
(25.3865 -27.311 -3.78924e-15)
(23.86 -27.7924 2.03458e-18)
(43.1648 -7.24139 -3.85974e-16)
(45.8569 -10.2704 6.70196e-16)
(44.4461 -13.8734 -3.73262e-15)
(42.662 -16.9555 2.34408e-15)
(39.8505 -19.4558 0)
(36.9121 -21.3362 0)
(34.0653 -22.7271 4.09598e-15)
(31.4396 -23.7802 7.90156e-15)
(29.0683 -24.6 -3.82403e-15)
(26.9511 -25.2614 -3.7125e-15)
(25.0662 -25.8238 -3.61829e-15)
(23.3849 -26.3278 0)
(46.3379 -7.95167 -7.1777e-16)
(47.993 -10.3814 1.77336e-15)
(45.5278 -12.8211 4.43586e-15)
(43.2263 -15.2873 0)
(40.1789 -17.4418 4.08012e-15)
(37.0804 -19.2511 0)
(34.1004 -20.7072 2.55083e-18)
(31.343 -21.8688 -3.72342e-15)
(28.8387 -22.7934 3.64391e-15)
(26.5881 -23.5366 0)
(24.5743 -24.1492 0)
(22.7735 -24.6737 -6.86409e-15)
(46.8738 -10.8569 1.90605e-23)
(47.7165 -9.69973 1.10058e-15)
(44.4255 -10.8981 3.07747e-18)
(41.701 -12.8975 -3.95611e-15)
(38.7043 -14.8506 -1.91299e-15)
(35.7452 -16.673 -1.85913e-15)
(32.9222 -18.2431 -3.63211e-15)
(30.2839 -19.544 -1.06758e-14)
(27.8529 -20.5961 -3.49052e-15)
(25.6344 -21.4393 -6.87365e-15)
(23.622 -22.1189 6.76571e-15)
(21.8029 -22.6786 6.65974e-15)
(43.5098 -4.80379 -1.14695e-15)
(42.3159 -6.64347 -5.19083e-16)
(38.8429 -7.64173 2.60078e-18)
(36.4692 -9.58689 3.74115e-15)
(34.2776 -11.6505 0)
(32.0882 -13.6181 -3.53374e-15)
(29.9115 -15.341 3.4596e-15)
(27.7764 -16.7872 3.39806e-15)
(25.7215 -17.9655 -1.00596e-14)
(23.7761 -18.9095 6.61136e-15)
(21.9571 -19.6621 -6.52683e-15)
(20.2727 -20.2669 0)
(24.1241 -40.3421 8.01971e-15)
(23.7406 -42.7948 -2.15552e-14)
(22.4303 -44.1602 5.42681e-15)
(21.0381 -45.0499 1.36993e-14)
(19.2681 -44.9204 -1.35685e-14)
(17.3951 -44.3434 2.69321e-15)
(15.423 -42.7267 -1.38526e-18)
(13.4535 -40.4538 -2.68004e-15)
(11.5752 -37.1868 -5.4083e-15)
(9.51438 -33.048 0)
(6.18045 -27.517 0)
(-0.175499 -25.1399 -5.53087e-16)
(29.3502 -35.237 -1.10793e-19)
(28.8455 -36.4575 7.00376e-15)
(27.9267 -37.5649 -9.68099e-18)
(26.6217 -38.6319 0)
(24.9758 -39.4626 5.24439e-15)
(23.2848 -39.8374 0)
(21.6436 -39.6517 3.64844e-15)
(20.2034 -38.8869 5.72921e-15)
(19.1066 -37.5702 -4.08666e-15)
(18.22 -35.0006 0)
(17.0742 -31.6434 0)
(13.6005 -31.7448 -4.62906e-20)
(26.152 -35.8246 2.80508e-15)
(25.3568 -36.5094 -2.74624e-15)
(24.4551 -37.1605 2.71573e-15)
(23.4965 -37.7139 0)
(22.5415 -38.0476 -2.74713e-15)
(21.6621 -38.0936 5.63288e-15)
(20.9493 -37.8112 -7.33076e-15)
(20.4933 -37.1963 -7.75287e-15)
(20.4354 -36.2997 4.87707e-15)
(20.6441 -34.7138 0)
(20.6778 -32.1674 8.97094e-16)
(20.4903 -33.5634 1.0289e-20)
(25.4907 -34.1828 2.42895e-15)
(24.6381 -34.6408 -4.73466e-15)
(23.7742 -35.116 4.64337e-15)
(22.9238 -35.5453 -4.60753e-15)
(22.1433 -35.8619 0)
(21.5075 -36.0212 2.31936e-15)
(21.1178 -35.9926 2.39401e-15)
(20.9953 -35.7806 1.28304e-15)
(21.2835 -35.4364 -2.68579e-15)
(22.1365 -34.6863 0)
(23.3488 -32.6303 -7.93039e-16)
(25.089 -35.7372 1.29236e-15)
(24.5865 -32.5912 4.35359e-15)
(23.6336 -33.0479 -2.11555e-15)
(22.7431 -33.5065 0)
(21.9395 -33.9338 0)
(21.2654 -34.3 2.04348e-15)
(20.7849 -34.5887 -1.97954e-15)
(20.5914 -34.7708 -2.49769e-18)
(20.7077 -34.893 0)
(21.3001 -34.9332 -1.1902e-15)
(22.4868 -34.8504 1.19765e-15)
(24.3592 -33.534 -1.48894e-15)
(27.3804 -37.5989 0)
(23.8067 -31.1003 -8.0157e-15)
(22.7872 -31.5559 3.90056e-15)
(21.8692 -32.0218 7.64916e-15)
(21.0732 -32.4822 4.88383e-20)
(20.4352 -32.9256 -9.38541e-15)
(20.0068 -33.3507 -3.76788e-15)
(19.8509 -33.7725 -2.35535e-18)
(20.0349 -34.2095 0)
(20.682 -34.6738 0)
(21.9663 -35.2288 -1.17944e-15)
(24.3305 -34.7166 -7.01367e-16)
(28.4343 -39.3788 4.41841e-16)
(23.1182 -29.6686 3.76775e-15)
(22.0101 -30.1407 -7.35463e-15)
(21.029 -30.6268 -3.60448e-15)
(20.1893 -31.1266 -1.90623e-18)
(19.5195 -31.6461 3.52189e-15)
(19.0611 -32.2008 3.50938e-15)
(18.8676 -32.8188 1.76522e-15)
(19.002 -33.5365 1.79994e-15)
(19.5775 -34.383 -1.89048e-15)
(20.7892 -35.4704 0)
(23.1212 -35.7827 1.25414e-15)
(28.0681 -40.7531 -8.23721e-16)
(22.4963 -28.2646 0)
(21.2805 -28.7423 3.5159e-15)
(20.2092 -29.2348 0)
(19.2903 -29.7554 -1.89414e-18)
(18.5429 -30.3246 -4.76835e-20)
(17.997 -30.9736 6.6863e-15)
(17.6932 -31.7476 -1.66242e-15)
(17.6868 -32.7073 -3.35188e-15)
(18.0745 -33.9072 -1.73133e-15)
(19.0629 -35.5272 9.43574e-16)
(21.2046 -36.7051 -1.70229e-15)
(26.5271 -41.7927 7.67972e-16)
(21.8849 -26.8017 3.46814e-15)
(20.5505 -27.2674 -3.40637e-15)
(19.3738 -27.7455 -3.35489e-15)
(18.3548 -28.2599 3.30932e-15)
(17.5016 -28.8434 3.2673e-15)
(16.8304 -29.5405 -9.68651e-15)
(16.3646 -30.4138 0)
(16.142 -31.5498 1.58774e-15)
(16.229 -33.0365 1.61041e-15)
(16.8132 -35.1223 0)
(18.4937 -37.2072 1.54789e-15)
(23.5166 -42.2722 -3.58113e-16)
(21.164 -25.1442 0)
(19.73 -25.5904 -6.64301e-15)
(18.4594 -26.0406 -3.27687e-15)
(17.345 -26.5274 -6.45953e-15)
(16.3835 -27.0929 3.19022e-15)
(15.577 -27.7913 3.14753e-15)
(14.9255 -28.6991 0)
(14.4407 -29.9234 0)
(14.1438 -31.5922 0)
(14.1708 -34.0409 0)
(15.0134 -36.8421 -4.69902e-16)
(18.9693 -42.0274 -6.69179e-16)
(20.1635 -23.1579 3.28288e-15)
(18.6923 -23.5913 3.23492e-15)
(17.3768 -24.0132 1.27813e-14)
(16.2052 -24.461 3.15825e-15)
(15.1645 -24.9846 1.24805e-14)
(14.2426 -25.6428 -3.08216e-15)
(13.4173 -26.5211 -3.0385e-15)
(12.6677 -27.7273 0)
(11.9433 -29.4288 -2.94136e-15)
(11.3247 -32.0441 -1.49831e-15)
(10.8646 -35.1552 -8.62427e-16)
(12.408 -40.5946 0)
(18.7253 -20.767 0)
(17.3154 -21.1983 0)
(16.0357 -21.5988 -1.24537e-14)
(14.8741 -22.0072 -9.234e-15)
(13.8136 -22.4769 -3.04295e-15)
(12.8308 -23.0601 0)
(11.8837 -23.8499 2.97654e-15)
(10.9194 -24.9301 0)
(9.80206 -26.4937 -1.65953e-18)
(8.5043 -28.8668 1.42638e-15)
(6.41813 -32.462 3.85729e-16)
(-0.909283 -37.3928 -1.63401e-19)
(-0.295217 -21.7137 -1.9007e-16)
(-0.90921 -18.6434 -2.96942e-15)
(-2.62667 -17.0899 3.02826e-15)
(-4.03758 -16.0994 -3.0299e-15)
(-5.39473 -15.4289 0)
(-6.22983 -15.4463 2.83835e-15)
(-7.78684 -17.4419 0)
(-14.9638 -16.8621 2.77961e-15)
(-27.7185 -15.7993 -8.48261e-15)
(-32.7603 -21.6498 8.46458e-15)
(-35.1471 -23.6747 1.66637e-14)
(-38.7614 -25.4865 -5.26514e-15)
(5.77906 -25.6579 0)
(3.23115 -22.1214 -2.53494e-15)
(-0.740742 -22.5644 2.59283e-15)
(-3.78533 -22.2887 2.59888e-15)
(-7.29905 -24.2107 -5.27865e-15)
(-14.1622 -25.0019 -8.01569e-19)
(-23.3508 -27.5049 -4.89145e-15)
(-29.6193 -29.0971 -1.10699e-14)
(-32.1779 -29.0275 1.29637e-14)
(-32.8949 -29.9575 -4.03997e-15)
(-33.3762 -30.1099 8.80848e-18)
(-34.7878 -30.2815 5.52735e-18)
(5.53553 -29.2045 0)
(1.59432 -26.2152 0)
(-4.31268 -27.5437 0)
(-10.4727 -27.7612 -2.28701e-15)
(-18.3087 -29.6566 0)
(-25.6247 -30.8777 -2.26919e-15)
(-30.3699 -31.2522 4.29643e-15)
(-32.9327 -30.6818 7.02797e-15)
(-34.124 -29.5537 -3.29192e-15)
(-34.4286 -28.8927 -5.93889e-15)
(-34.9108 -28.2144 -8.50314e-15)
(-35.605 -27.5551 8.3009e-15)
(5.30609 -32.7891 0)
(-0.372191 -31.5418 -1.04115e-15)
(-7.98396 -33.4275 2.05322e-15)
(-15.6477 -33.7307 2.06153e-15)
(-22.8823 -34.2547 0)
(-27.8548 -33.5877 -7.71335e-15)
(-30.6044 -32.539 6.71053e-15)
(-32.2827 -31.0619 0)
(-33.037 -29.7549 5.57239e-15)
(-33.3348 -28.7324 -7.83876e-15)
(-33.6986 -27.7909 4.9482e-15)
(-34.0725 -26.8793 4.1208e-18)
(1.45376 -34.8821 -6.12182e-23)
(-3.74843 -35.4501 1.88527e-15)
(-11.265 -36.9212 3.03075e-18)
(-18.4924 -36.7775 0)
(-24.3589 -36.0641 -3.52982e-15)
(-27.7597 -34.5206 6.36017e-15)
(-29.8259 -32.8086 0)
(-30.8238 -31.1149 -2.76499e-15)
(-31.3274 -29.5597 -2.58306e-15)
(-31.6501 -28.2476 4.815e-15)
(-32.0058 -27.0771 0)
(-32.3911 -25.9983 -4.32685e-15)
(-0.616358 -37.1882 4.73557e-16)
(-6.24934 -38.1803 1.89667e-18)
(-13.2121 -39.0781 -1.65722e-15)
(-19.4661 -38.3874 -6.49919e-15)
(-24.0943 -36.872 -1.77719e-18)
(-26.7646 -34.8645 5.58092e-15)
(-28.2614 -32.8725 0)
(-29.1257 -30.939 7.42509e-15)
(-29.6586 -29.2171 -4.62852e-15)
(-30.0484 -27.7245 4.36098e-15)
(-30.4283 -26.4004 2.40969e-18)
(-30.8216 -25.2055 -4.44857e-19)
(-3.60384 -39.0907 -1.32308e-15)
(-8.41389 -40.7414 -7.87965e-16)
(-14.3971 -40.8126 0)
(-19.4647 -39.6703 5.80325e-15)
(-23.0748 -37.586 -8.21459e-15)
(-25.2162 -35.2444 -1.28874e-18)
(-26.5404 -32.9643 -9.57692e-15)
(-27.3827 -30.8519 3.91923e-18)
(-27.9719 -28.9661 -4.24727e-15)
(-28.4374 -27.3052 -4.04135e-15)
(-28.8663 -25.8313 3.87208e-15)
(-29.2878 -24.5118 -3.72722e-15)
(-5.32995 -41.4474 1.23338e-15)
(-9.74277 -43.2406 -7.26146e-16)
(-14.7007 -42.5204 0)
(-18.7003 -40.9515 2.59627e-15)
(-21.6074 -38.4203 2.4404e-15)
(-23.503 -35.7713 2.29816e-15)
(-24.7737 -33.2301 -3.70617e-18)
(-25.6625 -30.9053 -9.02292e-19)
(-26.3278 -28.8258 -3.94571e-15)
(-26.864 -26.9834 -4.85591e-18)
(-27.3363 -25.3486 2.04678e-18)
(-27.7771 -23.8917 0)
(-7.6285 -43.0057 3.8473e-16)
(-10.7607 -45.5962 0)
(-14.3818 -44.0116 0)
(-17.4421 -42.109 -2.31111e-15)
(-19.852 -39.2608 2.18559e-15)
(-21.6362 -36.3459 -4.16694e-15)
(-22.9406 -33.5558 0)
(-23.9139 -31.0049 3.83279e-15)
(-24.6629 -28.7182 -1.9877e-18)
(-25.2614 -26.6865 3.58609e-15)
(-25.7653 -24.884 -3.49207e-15)
(-26.2113 -23.2825 6.81598e-15)
(-8.18346 -46.1519 -2.38134e-19)
(-10.7179 -47.7478 -5.88268e-16)
(-13.2046 -45.0883 -2.20145e-15)
(-15.675 -42.6482 -4.17917e-15)
(-17.7774 -39.5334 0)
(-19.5132 -36.4276 3.84207e-15)
(-20.886 -33.4796 -7.44439e-15)
(-21.9608 -30.7787 3.61421e-15)
(-22.801 -28.3477 3.52828e-15)
(-23.464 -26.179 0)
(-24.0004 -24.2505 -3.37572e-15)
(-24.4502 -22.5369 -6.60789e-15)
(-10.9407 -46.8054 -6.38865e-16)
(-9.90481 -47.4324 5.43396e-16)
(-11.1331 -43.9858 2.01973e-15)
(-13.1746 -41.1283 1.93985e-15)
(-15.1262 -38.052 -3.91176e-19)
(-16.8952 -35.056 -5.44094e-15)
(-18.3829 -32.2328 7.05856e-15)
(-19.5892 -29.623 1.3805e-14)
(-20.544 -27.2447 -1.01438e-14)
(-21.292 -25.0974 -6.64411e-15)
(-21.8797 -23.1687 6.52619e-15)
(-22.3505 -21.4415 0)
(-4.77246 -43.2887 1.1408e-15)
(-6.68722 -41.9812 5.17663e-16)
(-7.8214 -38.3697 9.46501e-16)
(-9.82439 -35.9228 3.66489e-15)
(-11.8846 -33.6418 0)
(-13.7928 -31.385 3.43248e-15)
(-15.4262 -29.1738 -6.71518e-15)
(-16.7703 -27.0374 -3.29163e-15)
(-17.843 -25.0134 -3.24104e-15)
(-18.6835 -23.1271 6.38558e-15)
(-19.3349 -21.3892 3.15309e-15)
(-19.8427 -19.8008 9.33671e-15)
(-41.362 -25.057 -2.65507e-15)
(-43.776 -24.6748 2.68854e-15)
(-45.0764 -23.1743 -8.10487e-15)
(-45.9247 -21.7529 2.44169e-14)
(-45.7463 -19.8104 -1.07507e-14)
(-45.1071 -17.8871 0)
(-43.4133 -15.7797 -5.31711e-15)
(-41.0587 -13.7637 3.99778e-15)
(-37.688 -11.8052 0)
(-33.418 -9.70734 9.11799e-19)
(-27.7936 -6.36432 0)
(-25.3108 0.0971102 3.69323e-16)
(-35.7898 -30.1316 -1.38979e-14)
(-37.0476 -29.586 6.79762e-15)
(-38.1897 -28.5792 6.73713e-15)
(-39.2717 -27.2014 -3.37355e-15)
(-40.0705 -25.5165 0)
(-40.405 -23.7845 0)
(-40.1653 -22.1051 3.55474e-15)
(-39.3423 -20.6279 -3.73628e-15)
(-37.9559 -19.4894 0)
(-35.2715 -18.5768 1.03107e-15)
(-31.8692 -17.4621 -2.47397e-19)
(-31.8709 -14.2627 -1.35007e-15)
(-36.2236 -26.8332 2.71316e-15)
(-36.9241 -26.0175 -5.28019e-15)
(-37.5916 -25.0855 0)
(-38.1393 -24.0963 -5.23343e-15)
(-38.4552 -23.1073 -5.2943e-15)
(-38.4731 -22.1979 1.08657e-14)
(-38.1537 -21.4543 -8.5077e-15)
(-37.4937 -20.9766 0)
(-36.5282 -20.9 0)
(-34.8532 -21.1141 0)
(-32.2709 -21.1777 -8.83138e-16)
(-33.5752 -21.0394 0)
(-34.4609 -26.0175 -2.33671e-15)
(-34.9488 -25.1664 -3.61568e-18)
(-35.4343 -24.2968 0)
(-35.8567 -23.4415 -3.39405e-18)
(-36.1528 -22.6583 0)
(-36.2806 -22.0233 0)
(-36.214 -21.6262 2.328e-15)
(-35.9527 -21.5144 -2.4928e-15)
(-35.5655 -21.8072 2.64945e-15)
(-34.7647 -22.6507 0)
(-32.7214 -23.9038 -7.73452e-16)
(-35.7439 -25.8272 1.02913e-15)
(-32.812 -25.0046 8.33964e-15)
(-33.2692 -24.0709 -2.02698e-15)
(-33.717 -23.197 3.97533e-15)
(-34.1241 -22.4085 1.96767e-15)
(-34.4626 -21.7493 -5.87993e-15)
(-34.7164 -21.2868 0)
(-34.8666 -21.1041 -1.9644e-15)
(-34.9516 -21.2345 0)
(-34.9559 -21.8356 0)
(-34.8515 -23.019 1.17218e-15)
(-33.5221 -24.922 3.9415e-19)
(-37.5221 -28.0207 1.27181e-18)
(-31.2395 -24.1225 -3.8391e-15)
(-31.6792 -23.135 -2.37596e-18)
(-32.121 -22.2474 0)
(-32.551 -21.4811 0)
(-32.9603 -20.8726 -5.41736e-15)
(-33.3508 -20.4735 3.62513e-15)
(-33.7401 -20.3444 3.68527e-15)
(-34.1491 -20.5532 1.90892e-15)
(-34.5962 -21.2186 -4.08418e-15)
(-35.1291 -22.517 -1.14893e-15)
(-34.6761 -24.8949 0)
(-39.2754 -29.067 4.4e-16)
(-29.7164 -23.3272 -7.23361e-15)
(-30.1563 -22.265 3.52479e-15)
(-30.6052 -21.3277 3.46414e-15)
(-31.0651 -20.531 1.87142e-18)
(-31.5445 -19.9033 -3.8841e-18)
(-32.062 -19.4854 -3.38437e-15)
(-32.6491 -19.3278 -5.10622e-15)
(-33.3455 -19.4917 -1.74047e-15)
(-34.1867 -20.0852 1.8304e-15)
(-35.2759 -21.301 0)
(-35.6581 -23.6283 1.85115e-15)
(-40.5857 -28.5555 -1.23092e-15)
(-28.2064 -22.5917 6.90201e-15)
(-28.6373 -21.4355 -3.38371e-15)
(-29.0811 -20.4212 -3.32539e-15)
(-29.5533 -19.5577 -6.55762e-15)
(-30.0775 -18.864 6.48937e-15)
(-30.6881 -18.3689 -1.87003e-18)
(-31.4341 -18.1091 9.63679e-15)
(-32.3801 -18.1359 1.61849e-15)
(-33.5888 -18.5397 1.67771e-15)
(-35.2338 -19.5239 0)
(-36.5067 -21.65 -1.11349e-15)
(-41.5936 -26.879 3.82804e-16)
(-26.6259 -21.8595 0)
(-27.0314 -20.5987 3.27413e-15)
(-27.4499 -19.4922 3.22458e-15)
(-27.9086 -18.541 -3.1844e-15)
(-28.4434 -17.7525 -1.42965e-18)
(-29.1022 -17.1414 -3.11512e-15)
(-29.9518 -16.7265 -3.08249e-15)
(-31.0826 -16.5394 0)
(-32.5917 -16.6376 -1.56082e-15)
(-34.7236 -17.201 -8.39809e-16)
(-36.9062 -18.8264 2.53271e-15)
(-42.0379 -23.6637 -3.544e-16)
(-24.8465 -21.016 0)
(-25.2193 -19.6685 0)
(-25.6001 -18.481 0)
(-26.0247 -17.4458 -9.34021e-15)
(-26.5391 -16.5593 6.15155e-15)
(-27.2007 -15.8211 6.07611e-15)
(-28.0914 -15.2262 0)
(-29.322 -14.779 -2.96236e-15)
(-31.03 -14.4884 0)
(-33.5474 -14.4835 -1.55479e-15)
(-36.4461 -15.223 -4.61801e-16)
(-41.773 -18.8847 -6.64783e-16)
(-22.7421 -19.9001 0)
(-23.0901 -18.5263 0)
(-23.4334 -17.3048 6.16579e-15)
(-23.8141 -16.2223 9.13746e-15)
(-24.2856 -15.265 3.08165e-18)
(-24.9104 -14.4179 2.97976e-15)
(-25.7813 -13.6534 -1.46948e-15)
(-27.01 -12.9416 4.33467e-15)
(-28.7733 -12.2184 2.85609e-15)
(-31.4816 -11.5551 1.45967e-15)
(-34.7103 -10.9492 -8.4863e-16)
(-40.331 -12.0645 -1.24329e-15)
(-20.2458 -18.3611 0)
(-20.5824 -17.0591 0)
(-20.8967 -15.8823 -6.01591e-15)
(-21.234 -14.817 2.97997e-15)
(-21.6527 -13.8454 -2.94684e-15)
(-22.2114 -12.9414 -2.9179e-15)
(-23.0115 -12.054 2.88666e-15)
(-24.1433 -11.1245 0)
(-25.8083 -10.0032 -2.78741e-15)
(-28.3112 -8.65218 -1.39378e-15)
(-32.0467 -6.3679 1.14486e-15)
(-37.2681 1.47272 2.07903e-19)
(-21.7697 0.60152 -1.63174e-19)
(-18.836 1.12179 0)
(-17.3621 2.75722 0)
(-16.2599 4.23772 -6.06783e-15)
(-15.6921 5.51567 9.1281e-15)
(-15.4105 6.61605 0)
(-16.7337 7.48881 0)
(-17.6954 12.3573 2.7864e-15)
(-14.6975 25.0288 2.84609e-15)
(-19.7538 31.9914 8.48935e-15)
(-22.546 34.0419 1.40996e-14)
(-24.2663 37.721 -2.64394e-15)
(-25.5966 -5.43711 -2.45892e-19)
(-22.1724 -3.07376 0)
(-22.5328 0.698461 0)
(-22.0269 3.75894 -2.60248e-15)
(-23.5389 6.72284 5.2775e-15)
(-24.5939 12.1051 -1.58261e-14)
(-26.0762 21.181 1.00144e-14)
(-28.3859 28.3652 2.28711e-15)
(-28.1119 31.6327 -4.28061e-15)
(-28.9775 32.6865 7.16464e-18)
(-29.2685 32.919 0)
(-29.3476 34.3294 -7.39024e-15)
(-28.9985 -5.21215 3.05545e-16)
(-25.9606 -1.70437 0)
(-27.0022 3.7604 0)
(-27.0554 9.24798 -2.18419e-18)
(-28.4715 16.2787 2.69057e-18)
(-30.0127 24.0323 -4.59643e-15)
(-30.4102 29.3577 0)
(-30.2486 32.3732 -1.09174e-14)
(-28.9602 33.7633 1.02783e-14)
(-28.2285 34.1882 -3.07389e-15)
(-27.5588 34.5519 -5.88707e-15)
(-26.8561 35.226 8.49315e-15)
(-32.6521 -5.58111 1.123e-15)
(-31.0776 -0.343339 1.04557e-15)
(-32.7697 6.79363 0)
(-32.9835 14.1316 2.07365e-15)
(-33.5492 21.5121 -2.06005e-15)
(-33.135 27.0955 3.96636e-15)
(-32.0865 30.1931 0)
(-30.7348 31.8944 -3.06731e-15)
(-29.3292 32.7824 -8.7094e-15)
(-28.2529 33.1237 5.44819e-15)
(-27.2961 33.4424 5.16218e-15)
(-26.3648 33.8392 -9.88929e-15)
(-34.7948 -1.97496 -5.14e-16)
(-35.1162 2.87341 -9.49812e-16)
(-36.6088 10.1546 1.87165e-15)
(-36.5321 17.3547 0)
(-35.9438 23.5865 -7.27318e-15)
(-34.4588 27.3554 6.63589e-15)
(-32.675 29.4809 3.10886e-15)
(-30.9451 30.5899 2.86001e-15)
(-29.3182 31.1419 0)
(-27.9362 31.4762 0)
(-26.7225 31.8108 0)
(-25.6065 32.1887 -6.53246e-18)
(-37.2888 -0.165696 6.28185e-19)
(-38.0816 5.31507 0)
(-39.1421 12.2374 -1.68852e-15)
(-38.5366 18.6078 3.33508e-15)
(-37.0676 23.5462 3.18528e-15)
(-35.003 26.407 -5.79994e-15)
(-32.9358 27.9828 2.76019e-15)
(-30.9312 28.9186 -1.02956e-14)
(-29.1231 29.4933 -1.38881e-18)
(-27.5529 29.9006 -3.60124e-18)
(-26.1711 30.2809 2.49123e-18)
(-24.9274 30.6784 1.24443e-14)
(-39.2364 2.95366 4.42911e-16)
(-40.8501 7.60881 1.59759e-15)
(-41.1046 13.6118 -3.07153e-15)
(-40.0454 18.7764 -2.97078e-15)
(-37.9572 22.5906 -5.63021e-15)
(-35.543 24.8689 -2.64129e-15)
(-33.1834 26.2763 -4.94698e-15)
(-30.9879 27.1888 9.31371e-15)
(-29.0144 27.8245 0)
(-27.2734 28.3211 8.39933e-15)
(-25.732 28.7711 -1.2077e-14)
(-24.3534 29.2151 3.88548e-15)
(-41.6155 4.75312 -8.23745e-16)
(-43.4512 9.08498 -2.19762e-15)
(-42.9163 14.0566 4.15438e-15)
(-41.441 18.1079 0)
(-38.9145 21.1561 -2.4986e-15)
(-36.2114 23.1689 4.71563e-15)
(-33.5976 24.5281 -2.3587e-18)
(-31.1896 25.4916 9.60102e-19)
(-29.0227 26.2155 -4.08107e-15)
(-27.097 26.7985 -7.84941e-15)
(-25.3865 27.311 3.79115e-15)
(-23.86 27.7924 -3.68375e-15)
(-43.1648 7.2414 -7.70532e-16)
(-45.8569 10.2704 0)
(-44.4461 13.8734 0)
(-42.662 16.9555 0)
(-39.8505 19.4558 2.22642e-15)
(-36.9121 21.3362 0)
(-34.0653 22.7271 -3.1244e-18)
(-31.4396 23.7802 7.89897e-15)
(-29.0683 24.6 2.24806e-18)
(-26.9511 25.2614 3.7125e-15)
(-25.0662 25.8238 -3.62029e-15)
(-23.3849 26.3278 1.06198e-14)
(-46.3378 7.95167 -1.43579e-15)
(-47.993 10.3814 2.95841e-15)
(-45.5278 12.8211 -1.10875e-15)
(-43.2263 15.2873 0)
(-40.1789 17.4418 0)
(-37.0803 19.2511 0)
(-34.1004 20.7072 0)
(-31.343 21.8688 3.72592e-15)
(-28.8387 22.7934 -1.45631e-14)
(-26.5881 23.5366 -7.12906e-15)
(-24.5743 24.1492 6.98975e-15)
(-22.7735 24.6736 3.43657e-15)
(-46.8738 10.8569 -6.40662e-16)
(-47.7165 9.69973 -1.64909e-15)
(-44.4255 10.8981 -1.02634e-15)
(-41.701 12.8975 0)
(-38.7043 14.8506 0)
(-35.7452 16.673 3.72035e-15)
(-32.9222 18.2432 -7.26263e-15)
(-30.2839 19.544 1.42334e-14)
(-27.8529 20.5961 1.04809e-14)
(-25.6344 21.4393 6.86811e-15)
(-23.622 22.1189 -6.7605e-15)
(-21.8029 22.6786 4.92288e-18)
(-43.5098 4.80379 -1.15265e-18)
(-42.3159 6.64347 0)
(-38.843 7.64174 1.91857e-15)
(-36.4692 9.5869 -5.61713e-15)
(-34.2776 11.6505 5.44032e-15)
(-32.0882 13.6182 2.97515e-18)
(-29.9115 15.341 3.4596e-15)
(-27.7764 16.7872 -3.40037e-15)
(-25.7215 17.9655 -1.6762e-14)
(-23.7761 18.9095 0)