/*--------------------------------*- C++ -*----------------------------------*\
| =========                 |                                                 |
| \\      /  F ield         | OpenFOAM: The Open Source CFD Toolbox           |
|  \\    /   O peration     | Version:  2206                                  |
|   \\  /    A nd           | Website:  www.openfoam.com                      |
|    \\/     M anipulation  |                                                 |
\*---------------------------------------------------------------------------*/
FoamFile
{
    version     2.0;
    format      ascii;
    arch        "LSB;label=32;scalar=64";
    class       volScalarField;
    location    "200";
    object      epsilon;
}
// * * * * * * * * * * * * * * * * * * * * * * * * * * * * * * * * * * * * * //

dimensions      [0 2 -3 0 0 0 0];

internalField   nonuniform List<scalar> 
12940
(
31.2091
1.01628
0.217638
0.147475
0.134351
0.131077
0.13004
0.129585
119.6
6.81292
0.70224
0.226829
0.156112
0.139677
0.134786
0.133001
235.1
20.3697
2.29673
0.457681
0.209041
0.157349
0.142598
0.137503
368.182
44.654
6.29025
1.10395
0.339495
0.194755
0.156758
0.144222
501.47
80.5399
13.8776
2.65152
0.657574
0.275742
0.183819
0.1554
607.128
124.879
25.579
5.57248
1.35198
0.448429
0.236305
0.175071
656.798
170.355
40.8044
10.0222
2.61138
0.788738
0.336228
0.210073
640.592
208.987
57.9638
15.8386
4.51385
1.37885
0.516639
0.271343
574.231
235.962
75.4322
22.739
7.03255
2.27353
0.817424
0.375057
486.11
250.052
92.2104
30.5125
10.131
3.49373
1.27639
0.542667
399.89
251.962
107.699
39.0834
13.8312
5.05289
1.92348
0.799198
327.033
243.414
121.149
48.4187
18.218
6.98848
2.78447
1.17072
269.306
227.081
131.454
58.3495
23.4023
9.37687
3.89225
1.6835
224.299
206.241
137.496
68.4138
29.4593
12.3274
5.29951
2.36697
189.165
184.017
138.738
77.8354
36.3525
15.9608
7.08604
3.26037
161.931
162.832
135.607
85.7147
43.8746
20.3796
9.35821
4.42131
141.517
144.382
129.41
91.3858
51.6579
25.6421
12.2441
5.93405
127.325
129.832
121.963
94.7487
59.2957
31.766
15.8962
7.91999
118.717
119.831
115.132
96.3559
66.5336
38.7863
20.5257
10.5627
114.67
114.306
110.374
97.1965
73.3528
46.8342
26.4935
14.1827
113.827
112.421
108.306
98.3041
79.8336
56.022
34.3889
19.4071
114.842
112.939
108.632
100.361
86.0595
66.035
44.7135
27.3157
116.645
114.685
110.527
103.461
92.1882
76.1269
57.0318
38.8136
118.505
116.776
113.121
107.221
98.305
85.7523
69.9779
53.1463
119.962
118.628
115.724
111.091
104.245
94.6946
82.3748
68.2555
120.752
119.887
117.867
114.577
109.672
102.763
93.6313
82.6031
120.741
120.358
119.255
117.312
114.241
109.71
103.452
95.4765
119.886
119.955
119.727
119.059
117.686
115.302
111.626
106.522
118.211
118.672
119.222
119.695
119.838
119.363
117.99
115.518
115.79
116.562
117.752
119.185
120.621
121.796
122.44
122.332
112.73
113.721
115.391
117.571
120.049
122.592
124.955
126.921
109.164
110.281
112.261
114.962
118.214
121.83
125.6
129.335
105.241
106.395
108.524
111.526
115.285
119.672
124.528
129.713
101.113
102.232
104.371
107.475
111.491
116.354
121.971
128.267
96.9286
97.9623
100.005
103.048
107.097
112.157
118.208
125.254
92.824
93.7443
95.6198
98.4778
102.373
107.373
113.534
120.94
88.9177
89.7128
91.3784
93.9626
97.5523
102.261
108.214
115.567
85.311
85.9756
87.4027
89.6458
92.8041
97.0178
102.464
109.357
82.0941
82.6209
83.7832
85.6265
88.241
91.7691
96.4261
102.519
79.3584
79.7393
80.613
82.0045
83.9699
86.6108
90.1391
95.0999
77.4696
77.7259
78.3468
79.3338
80.6862
82.3791
84.3046
86.0634
76.2855
76.4456
76.8734
77.5586
78.4753
79.5592
80.667
81.5058
75.5986
75.6807
75.9537
76.4053
77.0058
77.6937
78.3589
78.8317
75.4283
75.4518
75.6085
75.8904
76.2744
76.7144
77.136
77.4391
75.781
75.7626
75.8356
75.9981
76.2368
76.5214
76.8034
77.0184
76.6518
76.6045
76.6182
76.6973
76.8378
77.0231
77.2216
77.3876
78.0284
77.9616
77.9328
77.9523
78.0247
78.1442
78.2915
78.4303
79.8944
79.8139
79.7529
79.7274
79.7497
79.824
79.941
80.069
82.2317
82.1402
82.0518
81.9877
81.9691
82.0111
82.1159
82.255
85.0226
84.92
84.8031
84.6993
84.6393
84.6539
84.7687
84.9732
88.6484
88.53
88.3741
88.2134
88.0884
88.0503
88.1802
88.6479
93.2896
93.1454
92.9275
92.6692
92.4077
92.1804
92.0238
91.9602
98.5321
98.3538
98.0563
97.6716
97.2306
96.7583
96.2713
95.7724
104.371
104.151
103.761
103.231
102.59
101.856
101.044
100.165
110.801
110.533
110.041
109.357
108.507
107.508
106.374
105.125
117.809
117.49
116.893
116.055
114.999
113.737
112.279
110.645
125.37
125
124.305
123.329
122.088
120.58
118.796
116.74
133.438
133.024
132.252
131.175
129.801
128.1
126.011
123.478
141.931
141.488
140.68
139.575
138.175
136.41
134.126
131.077
150.727
150.278
149.489
148.46
147.208
145.657
143.562
140.269
159.663
159.232
158.515
157.658
156.744
155.817
154.923
154.209
168.569
168.17
167.542
166.872
166.277
165.833
165.58
165.506
177.3
176.937
176.392
175.874
175.51
175.359
175.406
175.528
185.747
185.417
184.938
184.529
184.311
184.325
184.513
184.707
193.834
193.53
193.1
192.762
192.634
192.738
192.996
193.221
201.509
201.226
200.829
200.537
200.461
200.615
200.91
201.149
208.739
208.472
208.097
207.833
207.789
207.971
208.284
208.53
215.503
215.247
214.887
214.641
214.615
214.813
215.136
215.385
221.788
221.54
221.191
220.956
220.94
221.147
221.475
221.724
227.587
227.346
227.003
226.775
226.766
226.977
227.307
227.555
232.898
232.661
232.323
232.1
232.094
232.307
232.638
232.885
237.719
237.486
237.152
236.931
236.928
237.142
237.473
237.718
242.054
241.823
241.492
241.274
241.271
241.486
241.816
242.059
245.905
245.677
245.347
245.13
245.129
245.343
245.672
245.914
249.277
249.05
248.721
248.506
248.505
248.719
249.047
249.288
252.173
251.947
251.62
251.406
251.405
251.618
251.946
252.185
254.599
254.374
254.048
253.834
253.833
254.046
254.373
254.611
256.557
256.333
256.008
255.795
255.795
256.007
256.332
256.57
258.052
257.829
257.505
257.292
257.292
257.504
257.828
258.065
259.086
258.863
258.541
258.329
258.328
258.54
258.863
259.099
259.661
259.439
259.117
258.906
258.906
259.116
259.438
259.673
259.776
259.555
259.235
259.024
259.024
259.234
259.555
259.789
259.432
259.212
258.893
258.683
258.682
258.891
259.211
259.445
258.626
258.407
258.089
257.88
257.879
258.087
258.406
258.638
257.356
257.138
256.82
256.612
256.611
256.818
257.135
257.367
255.616
255.399
255.083
254.875
254.874
255.08
255.395
255.626
253.403
253.186
252.871
252.664
252.662
252.867
253.181
253.41
250.71
250.493
250.179
249.972
249.97
250.173
250.485
250.714
247.531
247.314
247.001
246.794
246.791
246.992
247.302
247.53
243.862
243.644
243.33
243.123
243.118
243.317
243.625
243.851
239.697
239.477
239.163
238.954
238.946
239.142
239.446
239.672
235.032
234.81
234.492
234.28
234.268
234.459
234.759
234.983
229.865
229.639
229.317
229.099
229.079
229.262
229.556
229.778
224.198
223.965
223.636
223.407
223.375
223.545
223.83
224.049
218.037
217.795
217.453
217.206
217.153
217.303
217.572
217.785
211.393
211.138
210.777
210.502
210.413
210.527
210.77
210.973
204.288
204.016
203.627
203.307
203.158
203.209
203.405
203.589
196.755
196.465
196.039
195.65
195.403
195.342
195.441
195.582
188.849
188.542
188.072
187.59
187.19
186.927
186.821
186.836
180.649
180.333
179.823
179.235
178.629
178.037
177.484
177.056
172.265
171.957
171.433
170.765
169.963
168.963
167.563
165.209
163.834
163.557
163.069
162.416
161.598
160.568
159.225
157.419
155.493
155.268
154.866
154.321
153.642
152.824
151.866
150.797
147.349
147.187
146.905
146.527
146.073
145.573
145.077
144.679
139.476
139.381
139.231
139.044
138.85
138.694
138.65
138.835
131.922
131.89
131.87
131.876
131.94
132.116
132.488
133.176
124.716
124.739
124.838
125.024
125.33
125.812
126.555
127.678
117.874
117.944
118.148
118.496
119.019
119.775
120.848
122.352
111.409
111.518
111.813
112.302
113.018
114.018
115.384
117.227
105.329
105.47
105.842
106.455
107.343
108.56
110.19
112.339
99.6407
99.8078
100.247
100.969
102.01
103.425
105.296
107.731
94.352
94.5412
95.0389
95.8586
97.0381
98.6357
100.733
103.439
89.4686
89.6784
90.2303
91.1409
92.451
94.2212
96.5353
99.5022
84.9927
85.2225
85.8263
86.8241
88.2597
90.1971
92.7224
95.9469
80.9243
81.1743
81.8293
82.9127
84.4721
86.5745
89.3096
92.7919
77.2607
77.5318
78.2388
79.4082
81.0915
83.3597
86.3059
90.0487
73.9966
74.2905
75.051
76.3082
78.1174
80.5536
83.7141
87.7217
71.1247
71.443
72.2594
73.607
75.5449
78.1523
81.5309
85.8079
68.6348
68.9795
69.8544
71.2953
73.3651
76.147
79.7472
84.2973
66.5148
66.8879
67.8237
69.3608
71.5654
74.5246
78.3485
83.1717
64.7504
65.1535
66.1526
67.7881
70.1293
73.2667
77.3137
82.4075
63.3252
63.7599
64.8238
66.559
69.0373
72.3522
76.6195
81.9782
62.2218
62.689
63.8185
65.6535
68.2678
71.7571
76.2393
81.8538
61.4213
61.9215
63.1165
65.0501
67.7975
71.456
76.1444
82.0019
60.9045
61.4376
62.697
64.7265
67.602
71.4217
76.3048
82.3886
60.6518
61.2173
62.5388
64.6599
67.6565
71.6271
76.69
82.9801
60.6441
61.2406
62.621
64.8277
67.9364
72.0449
77.2698
83.7432
60.8627
61.4884
62.9232
65.2082
68.418
72.6487
78.0154
84.6468
61.2902
61.9426
63.4264
65.7808
69.0783
73.4139
78.9004
85.6625
61.9105
62.5866
64.1128
66.5258
69.8966
74.3182
79.9008
86.765
62.7088
63.4052
64.966
67.4262
70.8545
75.342
80.9958
87.9324
63.6722
64.3844
65.9717
68.4666
71.936
76.4682
82.1676
89.1465
64.789
65.5127
67.1177
69.6344
73.1272
77.6825
83.4014
90.3926
66.0499
66.7802
68.3936
70.9184
74.417
78.9732
84.6856
91.6592
67.4466
68.1786
69.7907
72.3097
75.7959
80.3309
86.0109
92.9377
68.9722
69.7007
71.3017
73.8007
77.2564
81.7485
87.3707
94.2222
70.6208
71.3404
72.9204
75.3853
78.7926
83.2203
88.7601
95.5089
72.387
73.0925
74.6415
77.0585
80.3999
84.7425
90.1762
96.7959
74.2659
74.952
76.4604
78.8159
82.0746
86.312
91.6169
98.0828
76.2529
76.9146
78.373
80.6539
83.8135
87.9268
93.0817
99.3703
78.3435
78.9758
80.375
82.5689
85.6142
89.5856
94.5703
100.66
80.5329
81.1311
82.4627
84.5579
87.4743
91.2872
96.0832
101.954
82.8163
83.3759
84.6318
86.6173
89.3917
93.0306
97.621
103.254
85.1883
85.7053
86.8781
88.7438
91.3638
94.8148
99.1842
104.563
87.6432
88.1138
89.1968
90.9335
93.3882
96.6388
100.773
105.883
90.175
90.5957
91.5828
93.1825
95.462
98.5011
102.389
107.217
92.7769
93.1449
94.0307
95.4862
97.582
100.4
104.03
108.566
95.442
95.7545
96.5346
97.8398
99.7445
102.333
105.697
109.931
98.1626
98.4176
99.0881
100.238
101.945
104.298
107.389
111.313
100.931
101.127
101.684
102.675
104.18
106.292
109.103
112.712
103.739
103.873
104.316
105.144
106.444
108.31
110.839
114.128
106.577
106.65
106.977
107.64
108.732
110.35
112.594
115.561
109.437
109.449
109.657
110.155
111.038
112.408
114.364
117.009
112.311
112.26
112.351
112.682
113.357
114.477
116.147
118.469
115.188
115.075
115.049
115.215
115.681
116.554
117.939
119.94
118.061
117.886
117.744
117.746
118.006
118.633
119.736
121.42
120.92
120.684
120.427
120.268
120.324
120.709
121.533
122.904
123.756
123.46
123.091
122.774
122.629
122.776
123.327
124.39
126.561
126.207
125.728
125.256
124.916
124.83
125.113
125.874
129.327
128.916
128.331
127.708
127.177
126.864
126.885
127.353
132.046
131.58
130.892
130.122
129.407
128.874
128.641
128.822
134.711
134.192
133.404
132.494
131.6
130.853
130.375
130.278
137.314
136.744
135.861
134.816
133.751
132.798
132.082
131.717
139.851
139.232
138.258
137.083
135.854
134.704
133.759
133.136
142.314
141.65
140.589
139.291
137.904
136.565
135.401
134.529
144.7
143.991
142.849
141.433
139.897
138.378
137.005
135.895
147.003
146.253
145.033
143.507
141.829
140.139
138.566
137.23
149.22
148.432
147.139
145.509
143.697
141.845
140.083
138.53
151.348
150.523
149.163
147.435
145.497
143.492
141.551
139.793
153.384
152.526
151.102
149.283
147.227
145.079
142.968
141.016
155.327
154.437
152.955
151.051
148.886
146.602
144.332
142.197
157.175
156.257
154.72
152.738
150.47
148.061
145.642
143.334
158.927
157.983
156.397
154.342
151.98
149.453
146.895
144.426
160.585
159.616
157.985
155.864
153.414
150.779
148.091
145.47
162.147
161.157
159.484
157.303
154.772
152.038
149.229
146.467
163.615
162.606
160.896
158.659
156.056
153.229
150.308
147.414
164.991
163.964
162.221
159.935
157.264
154.352
151.329
148.313
166.277
165.234
163.461
161.13
158.399
155.41
152.292
149.163
167.474
166.418
164.618
162.247
159.461
156.402
153.197
149.964
168.586
167.517
165.695
163.288
160.452
157.329
154.045
150.716
169.615
168.536
166.693
164.254
161.375
158.195
154.838
151.421
170.564
169.476
167.616
165.149
162.231
158.999
155.577
152.079
171.437
170.342
168.466
165.976
163.023
159.745
156.263
152.691
172.237
171.136
169.248
166.737
163.754
160.434
156.898
153.259
172.969
171.862
169.964
167.435
164.425
161.068
157.485
153.784
173.635
172.525
170.617
168.073
165.041
161.651
158.024
154.268
174.24
173.126
171.212
168.656
165.603
162.185
158.519
154.713
174.787
173.671
171.752
169.185
166.115
162.672
158.972
155.12
175.281
174.163
172.24
169.664
166.581
163.116
159.385
155.492
175.724
174.606
172.679
170.097
167.002
163.518
159.759
155.829
176.121
175.003
173.074
170.487
167.381
163.881
160.098
156.135
176.475
175.357
173.428
170.837
167.723
164.208
160.404
156.411
176.789
175.672
173.742
171.149
168.029
164.502
160.679
156.66
177.067
175.951
174.022
171.427
168.301
164.765
160.926
156.883
177.312
176.197
174.269
171.674
168.544
164.999
161.146
157.083
177.526
176.413
174.487
171.892
168.759
165.208
161.343
157.262
177.713
176.601
174.678
172.083
168.95
165.394
161.52
157.423
177.874
176.765
174.844
172.251
169.118
165.559
161.678
157.571
178.012
176.905
174.988
172.398
169.266
165.706
161.822
157.709
178.131
177.027
175.114
172.527
169.397
165.839
161.956
157.842
157.988
152.646
149.978
151.152
157.374
169.972
190.401
220.099
260.197
311.186
372.704
443.452
521.097
602.029
681.063
152.836
148.78
147.622
150.188
157.38
170.218
189.834
217.364
253.757
299.533
354.619
418.298
489.173
565.225
644.122
147.688
144.769
144.73
148.229
156.014
168.953
188.02
214.208
248.374
291.032
342.206
401.383
467.438
538.952
614.675
142.591
140.604
141.416
145.603
153.841
166.924
185.746
211.218
244.123
284.933
333.672
389.882
452.464
520.265
592.376
137.539
136.318
137.821
142.587
151.26
164.598
183.447
208.658
240.937
280.691
327.901
382.05
442.059
506.899
575.738
132.535
131.973
134.085
139.399
148.545
162.264
181.364
206.636
238.71
277.907
324.144
376.751
434.773
497.206
563.233
127.605
127.641
130.332
136.206
145.888
160.105
179.63
205.191
237.332
276.285
321.835
373.238
429.629
490.026
553.622
122.789
123.398
126.671
133.138
143.423
158.238
178.318
204.323
236.703
275.591
320.572
370.978
425.954
484.548
545.983
118.14
119.32
123.194
130.293
141.245
156.74
177.47
204.02
236.744
275.582
320.086
369.597
423.275
480.206
539.652
113.71
115.474
119.974
127.749
139.421
155.658
177.101
204.253
237.323
276.107
320.165
368.82
421.256
476.599
534.163
109.55
111.917
117.073
125.562
137.998
155.021
177.211
204.972
238.321
277.039
320.64
368.441
419.651
473.444
529.186
105.708
108.697
114.536
123.771
137.004
154.84
177.786
206.071
239.662
278.271
321.378
368.301
418.28
470.537
524.49
102.222
105.853
112.397
122.402
136.454
155.108
178.743
207.497
241.267
279.706
322.267
368.277
417.007
467.728
519.911
99.1203
103.409
110.677
121.469
136.344
155.772
180.03
209.187
243.063
281.26
323.216
368.269
415.728
464.91
515.337
96.424
101.383
109.386
120.969
136.64
156.779
181.597
211.077
244.976
282.855
324.145
368.2
414.365
462.005
510.686
94.1439
99.7799
108.521
120.878
137.292
158.084
183.386
213.104
246.939
284.425
324.989
368.008
412.858
458.955
505.904
92.2831
98.5968
108.064
121.153
138.26
159.637
185.338
215.205
248.891
285.911
325.695
367.642
411.164
455.72
500.954
90.8359
97.8171
107.978
121.757
139.497
161.382
187.394
217.319
250.774
287.261
326.218
367.064
409.25
452.272
495.813
89.7868
97.4102
108.231
122.65
140.954
163.263
189.497
219.393
252.54
288.434
326.522
366.247
407.091
448.593
490.466
89.1093
97.3461
108.783
123.783
142.578
165.226
191.593
221.377
254.147
289.395
326.579
365.168
404.674
444.673
484.907
88.7764
97.5904
109.594
125.109
144.316
167.217
193.633
223.229
255.56
290.116
326.371
363.814
401.989
440.507
479.137
88.7568
98.105
110.619
126.58
146.118
169.19
195.575
224.913
256.749
290.577
325.882
362.177
399.033
436.095
473.159
89.0157
98.8494
111.812
128.147
147.938
171.1
197.381
226.401
257.695
290.763
325.104
360.253
395.807
431.443
466.979
89.5161
99.7825
113.131
129.765
149.734
172.912
199.022
227.667
258.38
290.664
324.033
358.043
392.316
426.557
460.607
90.2208
100.864
114.532
131.396
151.468
174.594
200.473
228.697
258.795
290.277
322.671
355.551
388.566
421.447
454.055
91.0927
102.055
115.978
133.003
153.11
176.121
201.715
229.476
258.932
289.6
321.019
352.785
384.568
416.125
447.335
92.0969
103.321
117.436
134.555
154.635
177.473
202.736
229.999
258.791
288.635
319.085
349.754
380.332
410.602
440.461
93.2012
104.63
118.876
136.029
156.021
178.635
203.526
230.262
258.373
287.389
316.878
346.469
375.873
404.895
433.447
94.3766
105.956
120.274
137.402
157.255
179.599
204.081
230.264
257.681
285.869
314.408
342.942
371.203
399.015
426.308
95.5981
107.274
121.611
138.661
158.325
180.358
204.399
230.009
256.723
284.085
311.687
339.187
366.337
392.979
419.058
96.8446
108.567
122.871
139.794
159.224
180.909
204.482
229.503
255.507
282.048
308.727
335.219
361.29
386.802
411.712
98.099
109.821
124.044
140.794
159.95
181.254
204.335
228.752
254.044
279.771
305.544
331.052
356.077
380.498
404.284
99.3477
111.024
125.122
141.657
160.503
181.396
203.964
227.766
252.345
277.266
302.151
326.702
350.715
374.083
396.789
100.581
112.171
126.101
142.383
160.884
181.34
203.377
226.556
250.422
274.548
298.564
322.184
345.217
367.572
389.24
101.792
113.255
126.98
142.973
161.1
181.095
202.585
225.134
248.289
271.631
294.797
317.513
339.599
360.979
381.652
102.975
114.276
127.761
143.432
161.156
180.669
201.599
223.512
245.961
268.53
290.866
312.704
333.877
354.318
374.037
104.13
115.235
128.446
143.765
161.061
180.072
200.43
221.704
243.451
265.26
286.787
307.774
328.065
347.604
366.408
105.257
116.134
129.041
143.98
160.824
179.316
199.092
219.724
240.775
261.837
282.574
302.737
322.177
340.849
358.777
106.355
116.976
129.551
144.085
160.456
178.413
197.597
217.587
237.947
258.277
278.244
297.608
316.228
334.067
351.156
107.429
117.766
129.984
144.09
159.968
177.376
195.961
215.307
234.983
254.593
273.81
292.401
310.231
327.27
343.556
108.481
118.51
130.347
144.004
159.372
176.218
194.197
212.899
231.898
250.802
269.289
287.13
304.199
320.471
335.988
109.516
119.214
130.649
143.837
158.68
174.953
192.32
210.378
228.707
246.917
264.693
281.809
298.145
313.68
328.462
110.537
119.885
130.898
143.601
157.904
173.593
190.344
207.759
225.424
242.955
260.038
276.452
292.081
306.909
320.987
111.549
120.528
131.103
143.305
157.056
172.153
188.283
205.057
222.065
238.928
255.336
271.071
286.02
300.169
313.573
112.556
121.15
131.272
142.961
156.149
170.646
186.151
202.285
218.644
234.852
250.601
265.678
279.971
293.469
306.228
113.562
121.756
131.413
142.577
155.193
169.084
183.962
199.457
215.173
230.738
245.847
260.286
273.947
286.819
298.961
114.571
122.354
131.533
142.163
154.2
167.48
181.728
196.588
211.668
226.601
241.084
254.905
267.956
280.228
291.78
115.586
122.946
131.641
141.729
153.18
165.845
179.464
193.69
208.141
222.453
236.325
249.547
262.01
273.705
284.69
116.609
123.539
131.741
141.283
152.144
164.192
177.18
190.775
204.604
218.305
231.582
244.222
256.117
267.257
277.7
117.643
124.136
131.84
140.831
151.101
162.53
174.889
187.856
201.068
214.17
226.863
238.938
250.285
260.891
270.815
118.689
124.74
131.943
140.382
150.059
160.87
172.601
184.944
197.546
210.057
222.181
233.707
244.523
254.616
264.04
119.747
125.353
132.054
139.94
149.025
159.22
170.325
182.049
194.047
205.977
217.543
228.535
238.838
248.436
257.382
120.819
125.978
132.177
139.512
148.008
157.589
168.072
179.181
190.582
201.939
212.96
223.431
233.237
242.359
250.845
121.903
126.615
132.315
139.102
147.012
155.983
165.849
176.348
187.159
197.953
208.438
218.403
227.728
236.389
244.433
122.999
127.266
132.469
138.713
146.042
154.41
163.664
173.56
183.787
194.025
203.987
213.457
222.314
230.531
238.15
124.105
127.931
132.642
138.349
145.104
152.875
161.524
170.822
180.474
190.165
199.612
208.6
217.003
224.79
232
125.22
128.608
132.833
138.011
144.201
151.382
159.434
168.142
177.225
186.378
195.32
203.837
211.799
219.17
225.985
126.342
129.298
133.045
137.701
143.335
149.937
157.399
165.526
174.048
182.67
191.117
199.173
206.705
213.674
220.108
127.468
129.999
133.275
137.421
142.509
148.541
155.424
162.978
170.948
179.048
187.008
194.613
201.727
208.305
214.371
128.595
130.709
133.525
137.17
141.724
147.197
153.512
160.502
167.928
175.515
182.998
190.161
196.868
203.066
208.776
129.721
131.426
133.792
136.948
140.98
145.908
151.666
158.103
164.994
172.076
179.089
185.821
192.129
197.959
203.324
130.843
132.148
134.075
136.756
140.279
144.673
149.886
155.781
162.148
168.734
175.287
181.595
187.515
192.986
198.016
131.957
132.873
134.374
136.591
139.62
143.495
148.176
153.54
159.392
165.491
171.592
177.485
183.026
188.147
192.854
133.06
133.598
134.685
136.453
139.001
142.372
146.535
151.381
156.729
162.35
168.008
173.495
178.664
183.445
187.837
134.15
134.322
135.007
136.341
138.423
141.304
144.963
149.304
154.16
159.313
164.536
169.624
174.43
178.879
182.965
135.222
135.04
135.338
136.251
137.884
140.291
143.461
147.31
151.684
156.38
161.177
165.875
170.326
174.451
178.238
136.275
135.751
135.675
136.184
137.382
139.331
142.027
145.398
149.303
153.552
157.932
162.247
166.35
170.159
173.655
137.305
136.453
136.017
136.136
136.916
138.422
140.66
143.567
147.016
150.828
154.8
158.741
162.504
166.003
169.216
138.31
137.142
136.361
136.105
136.483
137.563
139.358
141.817
144.823
148.209
151.782
155.357
158.786
161.983
164.919
139.287
137.816
136.705
136.09
136.082
136.752
138.12
140.145
142.72
145.692
148.876
152.093
155.196
158.097
160.763
140.234
138.475
137.047
136.088
135.709
135.986
136.944
138.549
140.708
143.277
146.081
148.948
151.733
154.344
156.747
141.149
139.114
137.385
136.097
135.364
135.264
135.827
137.028
138.784
140.962
143.397
145.922
148.395
150.723
152.868
142.031
139.733
137.716
136.115
135.044
134.583
134.767
135.58
136.946
138.745
140.82
143.012
145.18
147.232
149.125
142.877
140.33
138.04
136.14
134.747
133.94
133.762
134.201
135.192
136.623
138.349
140.216
142.087
143.868
145.514
143.687
140.904
138.354
136.171
134.47
133.334
132.809
132.888
133.518
134.595
135.982
137.532
139.113
140.63
142.035
144.459
141.453
138.657
136.205
134.211
132.762
131.904
131.64
131.922
132.656
133.715
134.958
136.256
137.514
138.684
145.193
141.977
138.948
136.24
133.969
132.221
131.047
130.454
130.402
130.805
131.546
132.49
133.512
134.518
135.458
145.889
142.474
139.225
136.276
133.742
131.71
130.234
129.326
128.953
129.039
129.472
130.126
130.88
131.64
132.354
146.547
142.945
139.489
136.311
133.527
131.225
129.462
128.254
127.574
127.353
127.49
127.863
128.356
128.876
129.37
147.165
143.388
139.737
136.344
133.324
130.766
128.73
127.235
126.261
125.746
125.596
125.697
125.936
126.223
126.503
147.746
143.804
139.97
136.374
133.13
130.33
128.034
126.266
125.011
124.214
123.788
123.626
123.619
123.678
123.748
148.288
144.193
140.186
136.399
132.945
129.915
127.373
125.345
123.821
122.754
122.062
121.645
121.4
121.238
121.104
148.794
144.554
140.386
136.419
132.767
129.52
126.744
124.468
122.688
121.362
120.415
119.752
119.275
118.899
118.565
149.263
144.889
140.57
136.434
132.595
129.143
126.145
123.634
121.61
120.035
118.843
117.943
117.243
116.657
116.13
149.697
145.198
140.737
136.443
132.428
128.783
125.575
122.841
120.583
118.771
117.343
116.216
115.298
114.51
113.794
150.097
145.482
140.889
136.446
132.265
128.437
125.031
122.085
119.606
117.567
115.912
114.565
113.438
112.453
111.554
150.465
145.74
141.024
136.442
132.105
128.106
124.512
121.365
118.675
116.419
114.548
112.989
111.659
110.484
109.406
150.8
145.975
141.144
136.431
131.949
127.788
124.017
120.679
117.788
115.325
113.246
111.483
109.959
108.599
107.348
151.106
146.187
141.248
136.414
131.795
127.481
123.543
120.025
116.943
114.283
112.004
110.045
108.332
106.794
105.374
151.384
146.378
141.339
136.391
131.643
127.186
123.091
119.402
116.138
113.289
110.82
108.672
106.777
105.066
103.484
151.635
146.548
141.415
136.361
131.494
126.902
122.658
118.807
115.371
112.342
109.69
107.361
105.291
103.412
101.671
151.86
146.698
141.48
136.327
131.347
126.629
122.245
118.241
114.641
111.44
108.613
106.11
103.87
101.829
99.9347
152.063
146.831
141.532
136.287
131.203
126.367
121.851
117.703
113.947
110.583
107.588
104.917
102.513
100.315
98.2706
152.244
146.948
141.575
136.245
131.063
126.118
121.478
117.194
113.29
109.77
106.614
103.782
101.22
98.8688
96.6777
152.405
147.051
141.61
136.202
130.931
125.883
121.128
116.716
112.672
109.004
105.695
102.707
99.991
97.4907
95.1562
152.551
147.144
141.641
136.162
130.809
125.668
120.806
116.274
112.1
108.291
104.835
101.698
98.8322
96.1858
93.7101
152.683
147.229
141.673
136.131
130.705
125.48
120.522
115.88
111.585
107.645
104.05
100.769
97.758
94.9682
92.3528
152.807
147.314
141.712
136.118
130.631
125.334
120.293
115.555
111.151
107.092
103.368
99.9513
96.8018
93.8726
91.1194
152.927
147.405
141.77
136.137
130.605
125.254
120.148
115.334
110.842
106.683
102.849
99.3127
96.0376
92.9792
90.095
153.053
147.514
141.862
136.211
130.656
125.279
120.139
115.283
110.739
106.517
102.61
98.9911
95.625
92.4687
89.4815
762.157
830.825
907.95
992.865
1081.81
1169.71
1250.9
1319.85
1371.73
1402.96
1411.65
1397.79
1363.34
1312.07
1249.28
1181.36
1115.2
1057.55
1014.34
990.227
988.242
1009.74
1054.43
1120.45
1204.55
1302.42
1409.06
1519.24
1627.96
1730.76
1823.9
1904.53
1970.68
2021.33
2056.33
2076.38
2082.98
2078.34
2065.32
2047.25
721.291
796.895
878.564
964.801
1052.15
1136.24
1212.29
1275.73
1322.59
1350.08
1356.79
1343.01
1310.72
1263.54
1206.44
1145.33
1086.59
1036.38
1000.11
981.969
984.655
1009.29
1055.42
1121.14
1203.24
1297.51
1399.15
1503.21
1604.97
1700.24
1785.58
1858.4
1916.99
1960.54
1989.1
2003.58
2005.61
1997.57
1982.43
1963.65
690.983
770.311
853.853
939.697
1024.57
1104.6
1175.74
1234.13
1276.55
1300.76
1305.81
1292.2
1261.95
1218.55
1166.65
1111.79
1059.82
1016.39
986.411
973.645
980.465
1007.76
1054.95
1120.06
1199.92
1290.46
1387.08
1485.08
1580.02
1668
1745.85
1811.23
1862.68
1899.6
1922.22
1931.61
1929.56
1918.55
1901.64
1882.39
668.012
749.13
832.855
917.144
998.909
1074.71
1141.06
1194.71
1233.03
1254.26
1257.82
1244.39
1216.04
1176.12
1129.04
1079.93
1034.19
996.979
972.739
964.832
975.318
1004.87
1052.77
1117
1194.45
1281.16
1372.75
1464.76
1553.03
1633.95
1704.6
1762.91
1807.61
1838.32
1855.46
1860.21
1854.51
1840.9
1822.51
1802.89
650.333
731.8
814.519
896.443
974.691
1046.19
1107.92
1157.13
1191.68
1210.21
1212.44
1199.23
1172.68
1136.01
1093.38
1049.58
1009.57
978.05
959.029
955.491
969.202
1000.62
1048.92
1112.04
1186.91
1269.72
1356.29
1442.41
1524.2
1598.3
1662.06
1713.65
1752.01
1776.94
1789.02
1789.58
1780.62
1764.77
1745.15
1725.28
636.409
717.15
798.025
877.043
951.532
1018.74
1076.04
1121.12
1152.21
1168.31
1169.4
1156.47
1131.63
1098.01
1059.52
1020.62
985.868
959.546
945.251
945.617
962.132
995.064
1043.46
1105.25
1177.41
1256.27
1337.86
1418.22
1493.72
1561.26
1618.46
1663.69
1696.12
1715.7
1723.15
1719.92
1708.08
1690.3
1669.68
1649.7
625.09
704.323
782.776
858.545
929.161
992.164
1045.26
1086.48
1114.41
1128.35
1128.46
1115.87
1092.69
1061.93
1027.3
992.92
962.999
941.41
931.377
935.206
954.13
988.233
1036.46
1096.72
1166.06
1240.96
1317.63
1392.37
1461.79
1523.06
1574.03
1613.28
1640.16
1654.8
1658.05
1651.42
1637.05
1617.62
1596.21
1576.23
615.533
692.702
768.346
840.666
907.387
966.307
1015.42
1053.07
1078.13
1090.13
1089.43
1077.25
1055.68
1027.62
996.574
966.379
940.88
923.59
917.382
924.263
945.225
980.183
1028
1086.56
1152.99
1223.92
1295.76
1365.03
1428.61
1483.9
1528.97
1562.62
1584.36
1594.47
1593.89
1584.23
1567.67
1546.86
1524.85
1504.96
607.132
681.851
754.44
823.213
886.082
941.075
986.443
1020.8
1043.24
1053.54
1052.17
1040.45
1020.44
994.937
967.234
940.894
919.439
906.04
903.25
912.796
935.449
970.974
1018.15
1074.87
1138.33
1205.31
1272.42
1336.41
1394.38
1443.99
1483.5
1511.91
1528.9
1534.86
1530.84
1518.5
1500.04
1478.09
1455.65
1435.96
599.463
671.472
740.861
806.064
865.167
916.407
958.261
989.568
1009.65
1018.44
1016.55
1005.33
986.844
963.753
939.163
916.375
898.608
888.721
888.968
900.818
924.843
960.667
1007
1061.76
1122.21
1185.28
1247.78
1306.67
1359.29
1403.51
1437.81
1461.34
1473.95
1476.13
1469.03
1454.34
1434.26
1411.4
1388.7
1369.27
592.228
661.361
727.482
789.143
844.595
892.265
930.832
959.333
977.277
984.743
982.451
971.786
954.771
933.957
912.262
892.74
878.33
871.598
874.526
888.348
913.448
949.33
994.653
1047.34
1104.76
1163.98
1222
1275.99
1323.52
1362.65
1392.07
1411.08
1419.67
1418.44
1408.59
1391.85
1370.41
1346.85
1324.01
1304.92
585.225
651.386
714.224
772.407
824.343
868.63
904.127
930.048
946.06
952.372
949.784
939.706
924.114
905.447
886.44
869.916
858.551
854.643
859.922
875.405
901.31
937.033
981.189
1031.73
1086.11
1141.55
1195.23
1244.54
1287.23
1321.58
1346.44
1361.28
1366.2
1361.89
1349.61
1331.11
1308.56
1284.48
1261.63
1242.93
578.312
641.459
701.041
755.837
804.402
845.493
878.128
901.678
915.948
921.255
918.465
908.998
894.779
878.13
861.615
847.837
839.226
837.832
845.155
862.014
888.478
923.847
966.705
1015.04
1066.4
1118.15
1167.64
1212.47
1250.59
1280.45
1301.08
1312.08
1313.66
1306.6
1292.19
1272.19
1248.75
1224.32
1201.58
1183.32
571.396
631.526
687.908
739.425
784.773
822.85
852.822
874.195
886.896
891.332
888.42
879.58
866.679
851.926
837.714
826.443
820.312
821.146
830.229
848.204
875.002
909.844
951.294
997.375
1045.75
1093.9
1139.37
1179.94
1213.74
1239.41
1256.11
1263.6
1262.17
1252.66
1236.4
1215.14
1191.01
1166.38
1143.84
1126.07
564.413
621.555
674.814
723.175
765.461
800.704
828.198
847.574
858.862
862.547
859.581
851.376
839.737
826.757
814.67
805.68
801.776
804.569
815.151
834.002
860.933
895.098
935.048
978.855