/*--------------------------------*- C++ -*----------------------------------*\
| =========                 |                                                 |
| \\      /  F ield         | OpenFOAM: The Open Source CFD Toolbox           |
|  \\    /   O peration     | Version:  2206                                  |
|   \\  /    A nd           | Website:  www.openfoam.com                      |
|    \\/     M anipulation  |                                                 |
\*---------------------------------------------------------------------------*/
FoamFile
{
    version     2.0;
    format      ascii;
    arch        "LSB;label=32;scalar=64";
    class       volScalarField;
    location    "200";
    object      k;
}
// * * * * * * * * * * * * * * * * * * * * * * * * * * * * * * * * * * * * * //

dimensions      [0 2 -2 0 0 0 0];

internalField   nonuniform List<scalar> 
12940
(
1.162
0.424895
0.386776
0.385555
0.385094
0.384799
0.384426
0.384014
2.79574
0.533973
0.401005
0.394352
0.392576
0.391808
0.39101
0.390163
4.85956
0.8026
0.428542
0.401113
0.398633
0.398165
0.397332
0.396207
7.374
1.3452
0.504204
0.410858
0.403112
0.403034
0.402631
0.401587
10.2154
2.24452
0.682317
0.436831
0.407786
0.406222
0.406374
0.405778
13.0261
3.50536
1.01733
0.501592
0.417679
0.408485
0.408464
0.408459
15.2714
5.02344
1.53472
0.63065
0.44193
0.412028
0.409392
0.409669
16.5286
6.62012
2.22134
0.842627
0.492132
0.42073
0.410285
0.409814
16.7579
8.12126
3.04457
1.14693
0.579921
0.440054
0.412951
0.409577
16.2678
9.40098
3.97252
1.54935
0.716418
0.476839
0.42009
0.409907
15.4517
10.3801
4.97266
2.05671
0.913369
0.539341
0.435597
0.412214
14.5754
11.023
5.99657
2.67463
1.18417
0.637564
0.464893
0.418712
13.7483
11.3444
6.97331
3.39916
1.54319
0.783583
0.515253
0.432835
13.0002
11.4058
7.82527
4.20754
2.00274
0.991495
0.596114
0.459647
12.3538
11.2988
8.50001
5.05648
2.56825
1.27663
0.719303
0.506241
11.8585
11.1323
8.99821
5.89526
3.23463
1.65417
0.89919
0.582177
11.6018
11.0365
9.38667
6.69398
3.98989
2.13866
1.15317
0.700142
11.6994
11.1664
9.79815
7.47735
4.8321
2.74849
1.50411
0.877591
12.2571
11.6795
10.4137
8.34684
5.79987
3.52201
1.98939
1.14185
13.3152
12.6763
11.4072
9.46473
6.99726
4.54719
2.685
1.54578
14.8214
14.1495
12.8623
10.9771
8.56782
5.97632
3.74593
2.20881
16.6557
15.9948
14.7336
12.9202
10.5983
7.957
5.40464
3.38016
18.6761
18.0657
16.8895
15.2054
13.0435
10.4986
7.81624
5.38656
20.7519
20.2197
19.1776
17.6827
15.7572
13.447
10.8799
8.32071
22.7767
22.3387
21.4633
20.2006
18.5669
16.5834
14.3116
11.9037
24.6703
24.3332
23.6411
22.6335
21.3203
19.7087
17.8245
15.7458
26.3768
26.1403
25.6343
24.8865
23.8993
22.6704
21.2052
19.5383
27.8626
27.7203
27.3924
26.894
26.2205
25.3618
24.3106
23.0765
29.1132
29.0545
28.8876
28.6169
28.231
27.7142
27.0508
26.2354
30.1309
30.1417
30.1121
30.0382
29.9041
29.6901
29.3757
28.9464
30.9323
30.9963
31.0756
31.1613
31.2359
31.2783
31.2659
31.1796
31.546
31.6455
31.8027
32.0072
32.2428
32.4904
32.7274
32.9344
32.0093
32.1272
32.3311
32.6127
32.9601
33.3585
33.7888
34.2341
32.3658
32.4869
32.7092
33.0285
33.4393
33.9336
34.4982
35.1217
32.6623
32.7748
32.9921
33.3149
33.7449
34.2817
34.9201
35.6567
32.9448
33.0414
33.2372
33.5372
33.9486
34.4786
35.1305
35.9101
33.2559
33.3332
33.4982
33.7576
34.1218
34.6026
35.2107
35.9596
33.6317
33.6891
33.8194
34.0287
34.3271
34.7269
35.2416
35.888
34.1002
34.1382
34.2335
34.3899
34.6142
34.9149
35.3018
35.7872
34.6821
34.7016
34.7633
34.8689
35.0211
35.2217
35.4705
35.7676
35.3091
35.314
35.3492
35.4161
35.5149
35.6423
35.7867
35.916
35.9445
35.9382
35.9538
35.9928
36.0554
36.1376
36.2285
36.3041
36.6793
36.6637
36.6628
36.6791
36.714
36.7649
36.8237
36.8747
37.5165
37.4932
37.4782
37.4757
37.4884
37.5159
37.5534
37.5902
38.4585
38.4285
38.4009
38.3813
38.3743
38.3819
38.4025
38.4291
39.5073
39.4711
39.4311
39.3944
39.3675
39.355
39.3589
39.376
40.6652
40.6226
40.5694
40.5137
40.4639
40.4279
40.4117
40.4172
41.9347
41.8851
41.8168
41.7387
41.6608
41.5938
41.5493
41.5372
43.319
43.2615
43.1756
43.0705
42.9568
42.8475
42.7592
42.7148
44.8222
44.7557
44.6495
44.5124
44.3545
44.1874
44.0285
43.9131
46.6498
46.5721
46.4409
46.2636
46.048
45.799
45.5161
45.1826
48.8646
48.7738
48.6128
48.3889
48.1078
47.772
47.3779
46.9127
51.2706
51.1662
50.975
50.7043
50.3596
49.9434
49.4552
48.8916
53.8714
53.7531
53.5312
53.2136
52.8061
52.3121
51.7342
51.076
56.6669
56.534
56.2812
55.9168
55.4466
54.8742
54.2036
53.442
59.6524
59.5051
59.2223
58.8131
58.282
57.6306
56.8611
55.9809
62.8182
62.6579
62.3492
61.902
61.3176
60.5916
59.7179
58.6977
66.1464
65.9771
65.6523
65.183
64.5652
63.7825
62.8089
61.6206
69.6075
69.4362
69.1123
68.6496
68.04
67.2508
66.2175
64.8414
73.1566
72.9931
72.6923
72.2768
71.7439
71.058
70.1192
68.6636
76.7346
76.5873
76.3286
75.997
75.6139
75.1938
74.7598
74.3936
80.2774
80.1499
79.9374
79.6905
79.4438
79.2246
79.0584
78.9689
83.7294
83.6208
83.4484
83.2685
83.1181
83.0196
82.9788
82.9767
87.0489
86.9559
86.814
86.6808
86.5914
86.5602
86.5789
86.61
90.207
90.126
90.0055
89.9029
89.8502
89.8562
89.9043
89.9498
93.1853
93.1132
93.0072
92.9239
92.8929
92.9193
92.9825
93.0348
95.9729
95.9071
95.8108
95.7395
95.7213
95.759
95.83
95.8854
98.564
98.5026
98.4127
98.3489
98.3382
98.3822
98.4572
98.5137
100.956
100.898
100.812
100.753
100.747
100.794
100.871
100.928
103.148
103.092
103.009
102.953
102.95
102.999
103.076
103.133
105.142
105.087
105.007
104.953
104.95
105
105.078
105.134
106.938
106.885
106.806
106.753
106.752
106.802
106.88
106.936
108.541
108.489
108.411
108.359
108.358
108.408
108.486
108.541
109.952
109.901
109.823
109.772
109.772
109.822
109.899
109.954
111.175
111.124
111.047
110.996
110.996
111.046
111.123
111.177
112.212
112.161
112.085
112.035
112.035
112.084
112.16
112.214
113.066
113.016
112.94
112.89
112.89
112.939
113.015
113.069
113.739
113.689
113.614
113.564
113.564
113.614
113.689
113.742
114.234
114.184
114.109
114.06
114.06
114.109
114.184
114.237
114.552
114.502
114.428
114.379
114.378
114.427
114.502
114.555
114.693
114.644
114.57
114.521
114.521
114.569
114.644
114.696
114.659
114.61
114.536
114.487
114.487
114.536
114.609
114.662
114.448
114.399
114.326
114.277
114.277
114.325
114.399
114.451
114.06
114.011
113.939
113.89
113.89
113.938
114.011
114.063
113.493
113.445
113.372
113.324
113.324
113.372
113.444
113.495
112.745
112.697
112.625
112.577
112.577
112.624
112.696
112.747
111.813
111.766
111.694
111.646
111.646
111.692
111.764
111.814
110.695
110.647
110.576
110.528
110.527
110.573
110.644
110.694
109.386
109.339
109.267
109.219
109.218
109.263
109.333
109.383
107.883
107.836
107.764
107.715
107.713
107.758
107.827
107.876
106.183
106.135
106.062
106.013
106.009
106.052
106.12
106.168
104.281
104.232
104.158
104.107
104.101
104.142
104.207
104.255
102.176
102.125
102.048
101.994
101.984
102.021
102.084
102.13
99.8642
99.8104
99.7297
99.6694
99.6532
99.6835
99.7412
99.7852
97.3461
97.2879
97.2001
97.1302
97.1028
97.1222
97.1715
97.2115
94.6237
94.5588
94.4599
94.374
94.3275
94.3279
94.3623
94.395
91.7032
91.6289
91.5127
91.401
91.3221
91.2887
91.2954
91.3138
88.5974
88.5104
88.3689
88.2171
88.0844
87.9901
87.9418
87.9288
85.3284
85.2259
85.0506
84.8405
84.6222
84.4186
84.2549
84.1603
81.9306
81.8116
81.5971
81.313
80.9728
80.586
80.174
79.8192
78.4518
78.3197
78.0703
77.7141
77.2407
76.6108
75.7244
74.3186
74.9491
74.8121
74.5467
74.1548
73.6214
72.9112
71.9623
70.6853
71.4765
71.3441
71.0845
70.6972
70.172
69.4905
68.63
67.5758
68.0757
67.9548
67.7177
67.3634
66.8876
66.2851
65.5544
64.7057
64.7745
64.669
64.4635
64.1574
63.7504
63.2448
62.6489
61.9808
61.5901
61.501
61.3305
61.0781
60.7456
60.3394
59.8716
59.3626
58.5323
58.4588
58.3229
58.1237
57.8644
57.5529
57.203
56.835
55.6065
55.5472
55.4432
55.2938
55.1027
54.8785
54.6353
54.3928
52.816
52.769
52.6936
52.5892
52.4601
52.315
52.1678
52.0377
50.1632
50.1266
50.0764
50.0121
49.9385
49.8647
49.8041
49.7753
47.65
47.6222
47.5939
47.5652
47.5415
47.5318
47.5498
47.6136
45.2789
45.2585
45.2492
45.2521
45.2731
45.3217
45.4116
45.5608
43.0523
43.0388
43.0469
43.0786
43.1404
43.2426
43.3989
43.6273
40.9719
40.9647
40.9889
41.0472
41.1471
41.2991
41.5175
41.8206
39.0389
39.0378
39.0772
39.1606
39.2962
39.4953
39.7725
40.1466
37.2538
37.2588
37.3129
37.4203
37.59
37.8341
38.1677
38.61
35.617
35.6282
35.6966
35.8273
36.0301
36.3176
36.7056
37.2138
34.1278
34.1454
34.2282
34.3818
34.6168
34.9464
35.3872
35.9592
32.785
32.8093
32.9065
33.0828
33.3493
33.72
34.212
34.8459
31.5867
31.618
31.7297
31.9284
32.2259
32.6366
33.1782
33.8715
30.53
30.5686
30.6948
30.9158
31.2434
31.6929
32.282
33.032
29.6112
29.6573
29.7981
30.0407
30.3977
30.8843
31.5188
32.3223
28.8258
28.8795
29.0346
29.2984
29.6834
30.2052
30.8821
31.7352
28.1686
28.2298
28.3988
28.6827
29.0942
29.6488
30.3647
31.2629
27.6334
27.702
27.8842
28.1871
28.6229
29.2073
29.9584
30.8967
27.2135
27.2892
27.4838
27.8039
28.2618
28.8726
29.6543
30.627
26.9019
26.9843
27.19
27.5255
28.0025
28.636
29.4435
30.4443
26.6911
26.7795
26.9951
27.3437
27.8366
28.4886
29.3165
30.3389
26.5736
26.6672
26.891
27.2503
27.7558
28.4217
29.2644
30.3015
26.5418
26.6399
26.8701
27.2373
27.7517
28.4268
29.2784
30.3235
26.5886
26.69
26.9249
27.2971
27.8165
28.4959
29.3506
30.397
26.7068
26.8107
27.048
27.4223
27.9427
28.6216
29.4737
30.5148
26.89
26.9951
27.2329
27.6062
28.1237
28.7973
29.6412
30.6708
27.1321
27.2374
27.4734
27.8427
28.3534
29.0171
29.8475
30.8597
27.4275
27.5318
27.764
28.1263
28.6265
29.2758
30.0876
31.0767
27.7713
27.8734
28.0997
28.4521
28.9383
29.569
30.3574
31.3181
28.1588
28.2577
28.476
28.8158
29.2845
29.8926
30.6532
31.5807
28.5859
28.6804
28.8889
29.2135
29.6615
30.2433
30.972
31.8619
29.0487
29.1378
29.3347
29.6416
30.066
30.6182
31.3112
32.1594
29.5437
29.6265
29.81
30.0971
30.4951
31.0145
31.6686
32.4715
30.0676
30.1431
30.3118
30.5769
30.9461
31.4301
32.0421
32.7966
30.6172
30.6847
30.8371
31.0784
31.4166
31.8628
32.4301
33.1334
31.1896
31.2482
31.3832
31.5991
31.9045
32.3107
32.8311
33.4808
31.7818
31.831
31.9474
32.1366
32.4075
32.7719
33.2436
33.8377
32.3912
32.4304
32.5274
32.6885
32.9237
33.2449
33.6663
34.2032
33.0149
33.0437
33.1205
33.2528
33.4511
33.7279
34.0978
34.5763
33.6505
33.6685
33.7245
33.8271
33.9877
34.2194
34.5369
34.9562
34.2953
34.3022
34.3369
34.4095
34.5319
34.7178
34.9824
35.342
34.9468
34.9424
34.9557
34.9978
35.0817
35.2215
35.433
35.7326
35.6027
35.5869
35.5786
35.5902
35.6354
35.7291
35.8875
36.1273
36.2606
36.2333
36.2034
36.1845
36.1912
36.2391
36.3446
36.5249
36.9182
36.8795
36.8282
36.779
36.7475
36.7499
36.8032
36.9247
37.5734
37.5234
37.4509
37.3718
37.3026
37.2602
37.2619
37.3255
38.2242
38.163
38.0696
37.9612
37.855
37.7686
37.7197
37.7264
38.8685
38.7963
38.6826
38.5454
38.4031
38.2736
38.1753
38.1264
39.5046
39.4217
39.2881
39.123
38.9454
38.7741
38.6276
38.5246
40.1307
40.0375
39.8846
39.6924
39.4806
39.2686
39.0755
38.9198
40.7452
40.642
40.4706
40.2522
40.0074
39.7562
39.5178
39.3113
41.3467
41.2339
41.0446
40.8011
40.5246
40.2355
39.9536
39.6981
41.9339
41.8118
41.6055
41.338
41.0311
40.7057
40.3819
40.0793
42.5056
42.3747
42.1522
41.8616
41.5257
41.1657
40.8019
40.454
43.0607
42.9214
42.6835
42.3712
42.0077
41.6146
41.2126
40.8216
43.5984
43.4512
43.1987
42.8658
42.4761
42.0516
41.6134
41.1812
44.1178
43.9631
43.6969
43.3446
42.9302
42.4761
42.0034
41.5322
44.6183
44.4567
44.1776
43.8071
43.3695
42.8874
42.3822
41.874
45.0995
44.9313
44.6403
44.2527
43.7933
43.285
42.7492
42.2061
45.5609
45.3866
45.0844
44.681
44.2013
43.6684
43.1038
42.5279
46.0022
45.8222
45.5098
45.0917
44.5931
44.0373
43.4458
42.839
46.4233
46.2382
45.9162
45.4846
44.9685
44.3914
43.7748
43.1391
46.8241
46.6342
46.3037
45.8595
45.3274
44.7305
44.0906
43.428
47.2048
47.0105
46.672
46.2165
45.6695
45.0544
44.3929
43.7053
47.5654
47.3672
47.0215
46.5556
45.9951
45.3633
44.6818
43.9709
47.9062
47.7044
47.3523
46.877
46.3041
45.657
44.9572
44.2248
48.2275
48.0225
47.6646
47.1808
46.5968
45.9357
45.219
44.4669
48.5296
48.3218
47.9587
47.4674
46.8733
46.1995
45.4675
44.6972
48.8132
48.6028
48.2351
47.7371
47.1339
46.4487
45.7028
44.9158
49.0785
48.866
48.4943
47.9903
47.3791
46.6836
45.9249
45.1228
49.3264
49.1119
48.7367
48.2274
47.6091
46.9044
46.1343
45.3184
49.5572
49.341
48.9629
48.4491
47.8245
47.1116
46.3312
45.5028
49.7717
49.5541
49.1734
48.6557
48.0256
47.3055
46.5159
45.6762
49.9705
49.7518
49.3689
48.8479
48.2131
47.4866
46.6888
45.8389
50.1544
49.9347
49.5501
49.0263
48.3874
47.6553
46.8503
45.9912
50.324
50.1035
49.7175
49.1914
48.549
47.8122
47.0008
46.1335
50.4801
50.259
49.8719
49.3439
48.6987
47.9577
47.1407
46.2661
50.6234
50.4019
50.014
49.4845
48.8369
48.0924
47.2705
46.3895
50.7546
50.5328
50.1444
49.6138
48.9642
48.2167
47.3906
46.5039
50.8745
50.6525
50.2637
49.7323
49.0813
48.3313
47.5016
46.6098
50.9837
50.7616
50.3727
49.8408
49.1886
48.4366
47.6038
46.7077
51.0829
50.8609
50.472
49.9398
49.2868
48.5332
47.6978
46.7978
51.1729
50.951
50.5623
50.03
49.3764
48.6216
47.784
46.8807
51.2542
51.0325
50.6441
50.1119
49.458
48.7022
47.8628
46.9566
51.3274
51.106
50.7179
50.1861
49.5321
48.7756
47.9347
47.0261
51.3931
51.172
50.7845
50.253
49.5991
48.8422
48.0002
47.0895
51.4519
51.2312
50.8442
50.3133
49.6596
48.9025
48.0595
47.1472
51.5042
51.2839
50.8976
50.3673
49.714
48.9568
48.1133
47.1995
51.5506
51.3307
50.945
50.4154
49.7626
49.0056
48.1617
47.247
51.5913
51.3719
50.987
50.4581
49.806
49.0493
48.2053
47.2899
51.6268
51.4079
51.0238
50.4957
49.8443
49.0882
48.2444
47.3287
51.6574
51.439
51.0558
50.5286
49.8781
49.1226
48.2793
47.3639
51.6835
51.4658
51.0835
50.5573
49.9075
49.153
48.3106
47.3961
70.5336
67.1204
64.1421
61.8466
60.439
60.1094
61.0441
63.4088
67.3051
72.7223
79.5118
87.3962
95.9872
104.788
113.18
67.9335
64.8627
62.3435
60.5192
59.5211
59.4815
60.5361
62.8087
66.3808
71.257
77.345
84.4621
92.35
100.697
109.174
65.3487
62.6379
60.5017
59.039
58.3488
58.5368
59.7139
61.9824
65.4107
70.0054
75.6953
82.3371
89.7233
97.6242
105.836
62.8269
60.4408
58.623
57.4537
57.0177
57.4083
58.7232
61.051
64.448
68.9153
74.3865
80.7336
87.7673
95.2999
103.178
60.3727
58.2703
56.7243
55.8073
55.5982
56.184
57.6538
60.085
63.5218
67.9556
73.3172
79.4793
86.2645
93.508
101.077
57.9823
56.1301
54.825
54.1367
54.1417
54.923
56.5627
59.1276
62.6486
67.1059
72.4239
78.4656
85.0714
92.0878
99.3923
55.6544
54.0287
52.9453
52.4731
52.6872
53.667
55.4884
58.2066
61.8389
66.3533
71.6615
77.6231
84.0924
90.9247
98.0056
53.3923
51.9778
51.1051
50.8428
51.2649
52.4473
54.4584
57.3413
61.0995
65.6878
70.9996
76.9044
83.2628
89.9385
96.826
51.2033
49.9909
49.323
49.2682
49.8989
51.2869
53.4921
56.5452
60.4351
65.0962
70.419
76.2773
82.5379
89.0736
95.7872
49.0971
48.0819
47.6162
47.768
48.6079
50.2033
52.6037
55.8268
59.8432
64.5717
69.9049
75.7186
81.8867
88.2906
94.8424
47.0845
46.2641
45.9995
46.3579
47.4074
49.2094
51.8026
55.1897
59.3194
64.1078
69.4454
75.2113
81.2867
87.5622
93.9585
45.1762
44.5497
44.4856
45.0502
46.3084
48.3143
51.0943
54.6296
58.8608
63.6978
69.0303
74.742
80.7216
86.8684
93.1119
43.3828
42.9493
43.0848
43.8541
45.3186
47.5228
50.4756
54.1448
58.463
63.3348
68.6509
74.3001
80.1787
86.1949
92.2861
41.7125
41.4711
41.8048
42.7765
44.4423
46.8333
49.9437
53.7311
58.1198
63.0115
68.2989
73.8766
79.6484
85.531
91.4693
40.172
40.1212
40.6505
41.8205
43.6785
46.2421
49.4943
53.3824
57.8242
62.7205
67.9669
73.4639
79.123
84.8687
90.653
38.7662
38.9034
39.6244
40.9858
43.0234
45.7446
49.1211
53.0912
57.5686
62.4543
67.6477
73.0554
78.5962
84.202
89.831
37.4978
37.8194
38.7264
40.2683
42.472
45.334
48.8159
52.8493
57.3451
62.2057
67.3349
72.6456
78.063
83.5261
88.9989
36.3676
36.868
37.9524
39.663
42.0173
45.002
48.5701
52.6481
57.1458
61.9678
67.0229
72.2293
77.5191
82.8374
88.1536
35.3745
36.0465
37.2977
39.1629
41.6509
44.7393
48.3743
52.4789
56.963
61.7344
66.7062
71.8026
76.9612
82.1333
87.2927
34.5148
35.3495
36.7552
38.7595
41.3632
44.536
48.219
52.3333
56.7898
61.4996
66.3805
71.3617
76.3865
81.4115
86.4147
33.7839
34.7704
36.3165
38.4433
41.1439
44.3821
48.0952
52.2035
56.6198
61.2585
66.0418
70.9039
75.793
80.6707
85.5187
33.1754
34.301
35.9723
38.2039
40.9828
44.2679
47.9944
52.0824
56.4472
61.0065
65.6869
70.4268
75.1791
79.9098
84.604
32.6814
33.9322
35.7123
38.0308
40.8697
44.1844
47.9087
51.9638
56.2672
60.7402
65.3131
69.9287
74.5437
79.1283
83.6704
32.2929
33.6539
35.5261
37.9138
40.7951
44.1231
47.8312
51.8421
56.0757
60.4565
64.9186
69.4082
73.886
78.3257
82.7182
32.0002
33.456
35.4035
37.8432
40.7503
44.0766
47.756
51.7127
55.8692
60.1531
64.5016
68.8645
73.2057
77.5024
81.7475
31.7934
33.3283
35.3345
37.8098
40.7273
44.0384
47.6779
51.5718
55.6452
59.8282
64.0613
68.2972
72.5028
76.6584
80.759
31.6625
33.261
35.3101
37.8055
40.7193
44.0031
47.5929
51.4165
55.4015
59.4807
63.597
67.7062
71.7777
75.7945
79.7536
31.598
33.245
35.3219
37.8231
40.7204
43.966
47.4974
51.2444
55.1367
59.1096
63.1086
67.0916
71.0307
74.9113
78.7319
31.5908
33.272
35.3627
37.8566
40.7258
43.9235
47.3889
51.0538
54.8499
58.7148
62.5961
66.454
70.2627
74.0097
77.6951
31.6326
33.3344
35.426
37.9008
40.7315
43.8727
47.2655
50.8435
54.5407
58.2963
62.06
65.7941
69.4745
73.0908
76.6444
31.716
33.426
35.5066
37.9514
40.7343
43.8115
47.1259
50.6131
54.2089
57.8544
61.501
65.1127
68.6673
72.1557
75.5808
31.8344
33.5412
35.6
38.0052
40.7319
43.7384
46.9693
50.3623
53.8549
57.3898
60.92
64.411
67.8421
71.2058
74.5057
31.9823
33.6754
35.7027
38.0595
40.7227
43.6524
46.7955
50.0914
53.4792
56.9034
60.3181
63.6902
67.0003
70.2422
73.4205
32.1551
33.8249
35.8119
38.1125
40.7055
43.5532
46.6045
49.8009
53.0828
56.3962
59.6965
62.9516
66.1433
69.2665
72.3263
32.3486
33.9867
35.9255
38.1629
40.6799
43.4408
46.397
49.4916
52.6667
55.8695
59.0565
62.1966
65.2725
68.28
71.2248
32.5599
34.1584
36.042
38.21
40.6456
43.3156
46.1735
49.1646
52.2322
55.3248
58.3997
61.4268
64.3894
67.2841
70.1171
32.7862
34.3384
36.1604
38.2534
40.6028
43.1782
45.9353
48.8211
51.7807
54.7634
57.7276
60.6436
63.4956
66.2805
69.0049
33.0255
34.5252
36.2801
38.2931
40.5522
43.0296
45.6834
48.4626
51.3138
54.1872
57.0418
59.8488
62.5925
65.2704
67.8894
33.2763
34.7179
36.4007
38.3294
40.4945
42.8709
45.4193
48.0907
50.8331
53.5976
56.3441
59.0439
61.6818
64.2556
66.7721
33.5372
34.916
36.5223
38.3628
40.4306
42.7034
45.1445
47.707
50.3403
52.9966
55.6361
58.2307
60.7651
63.2374
65.6544
33.8072
35.1189
36.6449
38.3939
40.3615
42.5285
44.8605
47.3132
49.8372
52.3858
54.9196
57.4107
59.844
62.2174
64.5377
34.0856
35.3265
36.769
38.4235
40.2885
42.3475
44.5692
46.9111
49.3257
51.7671
54.1964
56.5858
58.92
61.197
63.4233
34.3716
35.5386
36.8948
38.4525
40.2128
42.1621
44.2721
46.5026
48.8077
51.1424
53.4682
55.7574
57.9948
60.1777
62.3126
34.6647
35.7551
37.0227
38.4816
40.1355
41.9738
43.971
46.0894
48.2849
50.5133
52.7368
54.9275
57.0698
59.161
61.2069
34.9643
35.976
37.1531
38.5117
40.0579
41.784
43.6676
45.6734
47.7592
49.8819
52.0039
54.0975
56.1466
58.1481
60.1074
35.2699
36.2012
37.2865
38.5436
39.9811
41.5943
43.3635
45.2563
47.2324
49.2498
51.2713
53.269
55.2268
57.1406
59.0155
35.5811
36.4306
37.4232
38.5781
39.9063
41.4059
43.0604
44.84
46.7063
48.6188
50.5406
52.4438
54.3116
56.1397
57.9323
35.8973
36.6641
37.5634
38.6158
39.8344
41.2202
42.7597
44.426
46.1827
47.9906
49.8135
51.6232
53.4027
55.1468
56.859
36.218
36.9016
37.7074
38.6573
39.7664
41.0385
42.463
44.0159
45.6632
47.3669
49.0915
50.8089
52.5013
54.163
55.7967
36.5425
37.1428
37.8553
38.703
39.7032
40.8618
42.1716
43.6113
45.1493
46.7493
48.3763
50.0022
51.6089
53.1897
54.7465
36.8701
37.3873
38.007
38.7534
39.6453
40.6912
41.8868
43.2136
44.6427
46.1392
47.6692
49.2045
50.7266
52.2279
53.7095
37.2004
37.6349
38.1626
38.8087
39.5933
40.5276
41.6096
42.8241
44.1446
45.5382
46.9717
48.4172
49.8557
51.2788
52.6866
37.5324
37.885
38.322
38.869
39.5479
40.3716
41.3411
42.444
43.6565
44.9476
46.2852
47.6416
48.9974
50.3434
51.6788
37.8655
38.1372
38.4848
38.9345
39.5091
40.2238
41.0821
42.0743
43.1795
44.3686
45.6109
46.8789
48.1529
49.4228
50.687
38.1988
38.3911
38.6509
39.005
39.4774
40.0849
40.8333
41.7161
42.7147
43.8025
44.9499
46.1301
47.3231
48.5179
49.712
38.5317
38.6459
38.8198
39.0805
39.4528
39.9551
40.5955
41.37
42.2631
43.2502
44.3035
45.3965
46.509
47.6296
48.7546
38.8633
38.9012
38.9912
39.1607
39.4353
39.8346
40.3689
41.0369
41.8255
42.7128
43.6725
44.6788
45.7116
46.7587
47.8156
39.1928
39.1562
39.1646
39.2454
39.4249
39.7237
40.1541
40.7172
41.4027
42.1912
43.0579
43.9781
44.9318
45.9061
46.8956
39.5195
39.4105
39.3395
39.3343
39.4213
39.6222
39.9511
40.4113
40.9953
41.6859
42.4604
43.2952
44.1703
45.0724
45.9953
39.8425
39.6632
39.5155
39.4269
39.4243
39.5302
39.7601
40.1197
40.6038
41.1978
41.8809
42.6308
43.4278
44.2583
45.1152
40.1612
39.9139
39.692
39.5229
39.4336
39.4474
39.5812
39.8424
40.2284
40.7272
41.3199
41.9856
42.705
43.4644
44.2559
40.4749
40.1619
39.8684
39.6217
39.4488
39.3737
39.4141
39.5795
39.8696
40.2746
40.7779
41.3601
42.0025
42.6912
43.4178
40.7828
40.4066
40.0442
39.7229
39.4696
39.3086
39.2587
39.331
39.5273
39.8402
40.2553
40.7547
41.3207
41.9392
42.6014
41.0843
40.6474
40.2189
39.826
39.4954
39.2518
39.1148
39.0967
39.2016
39.4242
39.7525
40.17
40.66
41.2088
41.8071
41.379
40.8838
40.392
39.9304
39.5258
39.2029
38.9819
38.8765
38.8924
39.0268
39.2695
39.6061
40.0208
40.5003
41.035
41.6661
41.1153
40.563
40.0358
39.5604
39.1614
38.8596
38.6699
38.5995
38.6477
38.8066
39.0633
39.4034
39.814
40.2855
41.9453
41.3413
40.7313
40.1416
39.5985
39.1268
38.7476
38.4766
38.3227
38.287
38.3636
38.5416
38.8079
39.1502
39.5588
42.2161
41.5615
40.8966
40.2473
39.6397
39.0986
38.6452
38.2962
38.0616
37.9443
37.9405
38.0411
38.2344
38.5089
38.855
42.4781
41.7755
41.0584
40.3524
39.6835
39.0762
38.5521
38.1282
37.8158
37.6194
37.5372
37.5618
37.683
37.8902
38.1742
42.731
41.9829
41.2162
40.4565
39.7294
39.0592
38.4675
37.9719
37.5848
37.3119
37.1533
37.1034
37.1536
37.2942
37.5164
42.9746
42.1834
41.3699
40.5593
39.7769
39.0469
38.3909
37.827
37.368
37.0213
36.7884
36.6657
36.646
36.7207
36.8816
43.2087
42.3768
41.5189
40.6602
39.8256
39.0389
38.3218
37.6926
37.1649
36.7471
36.4423
36.2485
36.16
36.1696
36.2697
43.433
42.5628
41.6632
40.759
39.8749
39.0346
38.2596
37.5683
36.9748
36.4887
36.1143
35.8513
35.6955
35.6408
35.6806
43.6475
42.7412
41.8023
40.8553
39.9246
39.0336
38.2037
37.4533
36.7972
36.2455
35.804
35.4736
35.2519
35.134
35.114
43.8521
42.912
41.9361
40.9488
39.9742
39.0354
38.1535
37.3471
36.6313
36.0169
35.5107
35.1151
34.829
34.6488
34.5697
44.0469
43.0751
42.0645
41.0393
40.0234
39.0394
38.1085
37.2491
36.4765
35.8022
35.2339
34.7751
34.4262
34.1849
34.0475
44.2319
43.2303
42.1873
41.1266
40.0717
39.0453
38.0682
37.1586
36.3322
35.6008
34.9728
34.453
34.0431
33.7419
33.5469
44.407
43.3778
42.3044
41.2104
40.1191
39.0527
38.032
37.0751
36.1976
35.4118
34.7267
34.1482
33.679
33.3193
33.0676
44.5726
43.5176
42.4157
41.2905
40.165
39.0613
37.9995
36.9979
36.0721
35.2346
34.495
33.86
33.3333
32.9165
32.6091
44.7287
43.6497
42.5213
41.367
40.2095
39.0705
37.9702
36.9266
35.955
35.0685
34.2769
33.5876
33.0055
32.533
32.1709
44.8755
43.7742
42.6211
41.4396
40.2522
39.0802
37.9437
36.8605
35.8458
34.9128
34.0717
33.3304
32.6947
32.1682
31.7525
45.0133
43.8912
42.7152
41.5083
40.2929
39.0901
37.9197
36.7991
35.7439
34.7668
33.8786
33.0877
32.4004
31.8214
31.3534
45.1423
44.001
42.8036
41.5731
40.3316
39.1
37.8977
36.7421
35.6486
34.6299
33.697
32.8586
32.1217
31.4919
30.9728
45.2627
44.1036
42.8865
41.634
40.3681
39.1095
37.8774
36.689
35.5594
34.5014
33.5261
32.6424
31.858
31.1791
30.6102
45.375
44.1994
42.9638
41.6909
40.4023
39.1185
37.8585
36.6393
35.4758
34.3808
33.3652
32.4385
31.6085
30.8821
30.2649
45.4793
44.2885
43.0359
41.7439
40.4342
39.1269
37.8408
36.5927
35.3973
34.2674
33.2138
32.246
31.3725
30.6004
29.9362
45.5761
44.3712
43.1027
41.7931
40.4637
39.1345
37.8241
36.5489
35.3235
34.1606
33.0711
32.0644
31.1492
30.3332
29.6235
45.6655
44.4477
43.1646
41.8386
40.4909
39.1413
37.8081
36.5075
35.254
34.0601
32.9365
31.8928
30.9379
30.0797
29.326
45.7481
44.5182
43.2216
41.8804
40.5157
39.1471
37.7926
36.4683
35.1884
33.9652
32.8094
31.7307
30.7378
29.8393
29.043
45.8241
44.5831
43.2739
41.9187
40.5382
39.1519
37.7776
36.4311
35.1264
33.8756
32.6893
31.5773
30.5484
29.6113
28.774
45.8939
44.6426
43.3218
41.9536
40.5585
39.1558
37.763
36.3957
35.0677
33.7908
32.5758
31.4322
30.3691
29.395
28.5182
45.9577
44.697
43.3656
41.9853
40.5768
39.1588
37.7488
36.3621
35.0122
33.7107
32.4686
31.2952
30.1993
29.1897
28.2749
46.0161
44.7467
43.4054
42.0141
40.5931
39.1611
37.7351
36.3302
34.9597
33.6353
32.3676
31.1658
30.0387
28.995
28.0435
46.0692
44.7919
43.4416
42.0402
40.6078
39.1629
37.7221
36.3004
34.9107
33.5648
32.2729
31.0442
29.8873
28.8109
27.8238
46.1176
44.833
43.4746
42.0641
40.6214
39.1646
37.7104
36.2731
34.8656
33.4996
32.185
30.9308
29.7454
28.6376
27.6162
46.1615
44.8705
43.5049
42.0862
40.6343
39.1671
37.7007
36.2493
34.8255
33.4409
32.105
30.8267
29.6142
28.4762
27.4216
46.2016
44.9049
43.533
42.1075
40.6477
39.1715
37.6945
36.2305
34.7923
33.3907
32.0352
30.7343
29.4963
28.3295
27.2429
46.2382
44.9368
43.5599
42.1289
40.6629
39.1794
37.6938
36.2195
34.7689
33.3527
31.9798
30.6587
29.3971
28.2034
27.0865
46.2719
44.9671
43.5867
42.152
40.682
39.1937
37.7022
36.2206
34.7609
33.3334
31.9466
30.6087
29.3272
28.1101
26.9664
46.3035
44.9968
43.6149
42.179
40.7079
39.2184
37.7252
36.2408
34.7772
33.344
31.9495
30.6014
29.3069
28.0739
26.9111
121.532
128.2
135.329
142.865
150.495
157.825
164.448
169.989
174.142
176.693
177.546
176.726
174.386
170.798
166.346
161.496
156.766
152.678
149.71
148.247
148.547
150.721
154.735
160.414
167.467
175.525
184.178
193.02
201.674
209.821
217.203
223.632
228.983
233.193
236.255
238.216
239.168
239.245
238.618
237.485
117.18
124.572
132.236
140.038
147.698
154.884
161.257
166.512
170.402
172.764
173.534
172.757
170.592
167.306
163.262
158.902
154.708
151.163
148.705
147.682
148.323
150.718
154.821
160.453
167.33
175.097
183.362
191.739
199.875
207.472
214.29
220.157
224.964
228.662
231.258
232.807
233.415
233.225
232.42
231.208
113.802
121.622
129.57
137.475
145.073
152.072
158.19
163.174
166.825
169.019
169.72
168.99
166.991
163.985
160.32
156.412
152.712
149.666
147.674
147.05
147.994
150.578
154.743
160.309
166.998
174.466
182.342
190.26
197.889
204.95
211.222
216.55
220.839
224.053
226.209
227.376
227.668
227.238
226.277
225.006
111.119
119.185
127.255
135.145
142.606
149.385
155.238
159.955
163.378
165.413
166.05
165.362
163.517
160.771
157.457
153.968
150.725
148.139
146.574
146.313
147.529
150.274
154.48
159.963
166.452
173.618
181.106
188.571
195.703
202.243
207.988
212.798
216.592
219.346
221.09
221.901
221.902
221.256
220.158
218.831
108.954
117.126
125.199
132.987
140.261
146.793
152.375
156.832
160.037
161.923
162.5
161.852
160.152
157.648
154.661
151.562
148.741
146.579
145.406
145.473
146.93
149.81
154.035
159.421
165.702
172.561
179.663
186.683
193.331
199.365
204.601
208.914
212.237
214.558
215.915
216.397
216.133
215.291
214.071
212.699
107.167
115.34
123.329
130.954
138.003
144.272
149.582
153.787
156.785
158.533
159.055
158.447
156.883
154.607
151.925
149.188
146.758
144.985
144.169
144.533
146.2
149.191
153.416
158.69
164.754
171.306
178.026
184.61
190.785
196.331
201.078
204.917
207.794
209.706
210.703
210.88
210.374
209.356
208.031
206.622
105.65
113.746
121.589
129.008
135.807
141.805
146.846
150.807
153.609
155.228
155.702
155.135
153.701
151.639
149.243
146.841
144.773
143.358
142.867
143.495
145.346
148.423
152.629
157.778
163.62
169.864
176.207
182.364
188.082
193.157
197.436
200.824
203.279
204.808
205.471
205.368
204.641
203.467
202.049
200.613
104.32
112.283
119.936
127.121
133.656
139.379
144.155
147.882
150.501
152.001
152.432
151.906
150.597
148.738
146.609
144.52
142.785
141.698
141.5
142.364
144.372
147.513
151.682
156.697
162.311
168.246
174.219
179.96
185.236
189.858
193.692
196.652
198.709
199.88
200.233
199.873
198.947
197.634
196.137
194.681
103.118
110.906
118.339
125.271
131.534
136.984
141.503
145.007
147.452
148.843
149.238
148.754
147.564
145.897
144.018
142.219
140.792
140.004
140.071
141.142
143.283
146.467
150.585
155.454
160.836
166.466
172.075
177.412
182.262
186.451
189.86
192.416
194.099
194.938
195.004
194.41
193.306
191.87
190.307
188.838
101.999
109.584
116.778
123.445
129.434
134.614
138.885
142.177
144.459
145.75
146.114
145.672
144.599
143.112
141.468
139.938
138.794
138.277
138.582
139.836
142.085
145.293
149.345
154.06
159.207
164.534
169.788
174.735
179.174
182.951
185.956
188.13
189.465
189.994
189.797
188.991
187.727
186.185
184.567
183.093
100.933
108.294
115.236
121.634
127.349
132.266
136.297
139.388
141.519
142.717
143.055
142.658
141.695
140.379
138.954
137.674
136.79
136.52
137.037
138.448
140.784
143.998
147.972
152.525
157.436
162.464
167.372
171.941
175.988
179.371
181.994
183.811
184.82
185.064
184.626
183.628
182.222
180.589
178.928
177.454
99.8987
107.023
113.706
119.832
125.276
129.937
133.739
136.638
138.628
139.742
140.059
139.706
138.85
137.696
136.475
135.426
134.779
134.732
135.438
136.983
139.386
142.59
146.474
150.86
155.534
160.269
164.84
169.045
172.716
175.725
177.989
179.47
180.177
180.158
179.501
178.331
176.802
175.091
173.396
171.929
98.8799
105.759
112.179
118.035
123.214
127.627
131.209
133.928
135.785
136.823
137.124
136.814
136.06
135.059
134.029
133.193
132.763
132.917
133.787
135.446
137.897
141.077
144.861
149.074
153.512
157.959
162.204
166.061
169.373
172.028
173.953
175.122
175.548
175.288
174.434
173.111
171.473
169.698
167.98
166.524
97.8666
104.496
110.652
116.241
121.162
125.336
128.708
131.257
132.991
133.958
134.246
133.981
133.324
132.466
131.614
130.974
130.741
131.074
132.089
133.841
136.323
139.466
143.141
147.178
151.382
155.548
159.478
162.999
165.971
168.292
169.9
170.777
170.945
170.465
169.433
167.975
166.245
164.418
162.685
161.246
96.8515
103.228
109.123
114.45
119.12
123.064
126.237
128.624
130.243
131.146
131.424
131.203
130.64
129.916
129.228
128.769
128.713