/*--------------------------------*- C++ -*----------------------------------*\
| =========                 |                                                 |
| \\      /  F ield         | OpenFOAM: The Open Source CFD Toolbox           |
|  \\    /   O peration     | Version:  2206                                  |
|   \\  /    A nd           | Website:  www.openfoam.com                      |
|    \\/     M anipulation  |                                                 |
\*---------------------------------------------------------------------------*/
FoamFile
{
    version     2.0;
    format      ascii;
    arch        "LSB;label=32;scalar=64";
    class       volScalarField;
    location    "200";
    object      nut;
}
// * * * * * * * * * * * * * * * * * * * * * * * * * * * * * * * * * * * * * //

dimensions      [0 2 -1 0 0 0 0];

internalField   nonuniform List<scalar> 
12940
(
0.00389378
0.015988
0.0618623
0.0907185
0.0993421
0.101667
0.10228
0.102419
0.00588175
0.00376659
0.020609
0.061704
0.0888495
0.0989156
0.102088
0.10301
0.00904035
0.00284615
0.00719646
0.0316383
0.0684158
0.0906788
0.0996406
0.102748
0.0132919
0.00364719
0.00363737
0.0137618
0.0430785
0.0750652
0.0930735
0.10064
0.0187286
0.00562959
0.00301927
0.006477
0.0227595
0.0538599
0.0808548
0.0953608
0.0251529
0.00885561
0.00364155
0.00406345
0.0116133
0.033489
0.0635444
0.0857679
0.031957
0.0133318
0.00519508
0.00357154
0.00673101
0.0193715
0.044863
0.0719015
0.0383825
0.0188737
0.00766153
0.00403457
0.00482901
0.011554
0.0293242
0.0557054
0.0440146
0.0251563
0.0110595
0.00520645
0.00430395
0.00766576
0.0187755
0.0402546
0.0489966
0.0318096
0.0154026
0.00708046
0.00455955
0.00585729
0.0124436
0.0278663
0.0537345
0.0384869
0.0206637
0.00974079
0.00542843
0.00518119
0.00887817
0.0191352
0.0584647
0.044926
0.0267134
0.0132971
0.00692734
0.00523488
0.00698564
0.0134779
0.0631675
0.0510061
0.0332924
0.0178216
0.00915842
0.00589325
0.00613878
0.0100156
0.0678132
0.0567701
0.0400822
0.0232892
0.0122538
0.00717717
0.00603483
0.00803339
0.0726105
0.0624374
0.046869
0.0295639
0.0163298
0.00919009
0.00657147
0.00707439
0.0781582
0.0684971
0.053737
0.0364917
0.0214624
0.012084
0.00777593
0.00689925
0.0856021
0.0759259
0.0612769
0.0441299
0.027735
0.0160536
0.00977462
0.00743469
0.0967515
0.0864344
0.0708442
0.0531085
0.0354398
0.0214027
0.0128088
0.0087519
0.113895
0.102452
0.0847722
0.0650741
0.0455028
0.0287836
0.0173535
0.0111092
0.139152
0.126519
0.106104
0.0829484
0.0600734
0.0397343
0.0244901
0.0151628
0.173691
0.160278
0.137475
0.110318
0.0827556
0.0573788
0.0367235
0.0226255
0.217404
0.203871
0.179847
0.149697
0.117467
0.0862913
0.0587945
0.0376448
0.269121
0.256121
0.232276
0.201123
0.166096
0.130307
0.0964099
0.0672792
0.327057
0.315092
0.292609
0.262458
0.227313
0.189778
0.152242
0.117244
0.389207
0.378591
0.358272
0.330594
0.297624
0.261375
0.22378
0.186839
0.453622
0.444497
0.426764
0.402393
0.373021
0.340191
0.305389
0.27013
0.518601
0.510962
0.495919
0.475147
0.449977
0.421614
0.391192
0.359847
0.5828
0.57653
0.56404
0.546753
0.525776
0.502071
0.476508
0.449924
0.645304
0.640209
0.629953
0.615757
0.598554
0.579132
0.558162
0.53625
0.705662
0.701491
0.693036
0.681347
0.667238
0.651377
0.634299
0.61644
0.763888
0.760362
0.753196
0.743316
0.731461
0.718234
0.704091
0.689367
0.820445
0.817274
0.810851
0.802015
0.791477
0.779826
0.767499
0.754793
0.87621
0.873108
0.866879
0.858304
0.848098
0.836881
0.825127
0.813161
0.932414
0.929124
0.922575
0.913504
0.902646
0.890684
0.878169
0.865521
0.990567
0.986881
0.97958
0.969349
0.956931
0.943068
0.92842
0.91355
1.05234
1.04813
1.03979
1.02791
1.01321
0.996436
0.978333
0.959639
1.11942
1.11466
1.1052
1.09152
1.07416
1.05378
1.03112
1.00702
1.19326
1.18808
1.17774
1.16253
1.14274
1.11872
1.0909
1.05997
1.27481
1.26951
1.25889
1.24307
1.22203
1.19555
1.16316
1.12433
1.36414
1.35915
1.34921
1.33438
1.31456
1.28911
1.25621
1.21071
1.44839
1.44401
1.43543
1.42294
1.40691
1.3879
1.36721
1.34897
1.52428
1.52056
1.51341
1.50329
1.4909
1.47731
1.46436
1.45535
1.60166
1.59857
1.59274
1.58474
1.57537
1.56575
1.55743
1.55238
1.6794
1.67679
1.67197
1.66554
1.65827
1.65118
1.64545
1.64222
1.75658
1.75426
1.75006
1.74453
1.73844
1.73266
1.72815
1.72572
1.83263
1.8304
1.82637
1.82109
1.81527
1.80977
1.80547
1.80316
1.90737
1.90501
1.90073
1.89504
1.88863
1.88238
1.87733
1.87452
1.98095
1.97826
1.97332
1.96659
1.9587
1.95059
1.94357
1.93934
2.05381
2.05065
2.04471
2.03635
2.02608
2.01475
2.00389
1.99636
2.12664
2.1229
2.11575
2.10535
2.09192
2.07584
2.05814
2.04244
2.20938
2.20498
2.19643
2.18367
2.16643
2.14399
2.11447
2.07261
2.30355
2.29855
2.28876
2.27404
2.25406
2.22818
2.1953
2.15389
2.40105
2.39562
2.38496
2.36899
2.34749
2.32012
2.28649
2.24631
2.50253
2.4968
2.48556
2.46875
2.44629
2.41803
2.3839
2.34402
2.6083
2.60237
2.59069
2.57324
2.54997
2.52081
2.48579
2.44513
2.71844
2.71238
2.70038
2.68241
2.65837
2.62812
2.59164
2.54913
2.83281
2.82672
2.81459
2.79633
2.77167
2.74025
2.70178
2.65623
2.95104
2.9451
2.9332
2.91514
2.89042
2.85823
2.81757
2.76762
3.07239
3.06687
3.05578
3.03886
3.01538
2.98395
2.94223
2.88683
3.19565
3.19089
3.18133
3.16687
3.14689
3.11988
3.08232
3.02505
3.3191
3.31532
3.30787
3.297
3.28289
3.26582
3.24685
3.23002
3.44073
3.43795
3.43257
3.4251
3.4161
3.40637
3.39728
3.39111
3.55869
3.55675
3.55304
3.54815
3.54269
3.53733
3.53291
3.53028
3.67153
3.67022
3.66772
3.66459
3.66134
3.65844
3.65628
3.65507
3.77827
3.77741
3.77572
3.77371
3.7718
3.77026
3.76924
3.76868
3.87831
3.87776
3.87659
3.87528
3.87416
3.87338
3.87296
3.87271
3.97133
3.97098
3.97014
3.96927
3.9686
3.96825
3.96816
3.96806
4.05719
4.05697
4.05634
4.05573
4.05534
4.05523
4.0553
4.05529
4.13587
4.13573
4.13524
4.13478
4.13455
4.13458
4.13475
4.13477
4.20743
4.20734
4.20693
4.20657
4.20643
4.20654
4.20675
4.20679
4.27195
4.2719
4.27154
4.27125
4.27116
4.27131
4.27155
4.2716
4.32958
4.32954
4.32922
4.32896
4.32891
4.32908
4.32933
4.32938
4.38044
4.38041
4.38012
4.37988
4.37985
4.38003
4.38028
4.38034
4.42468
4.42466
4.42438
4.42416
4.42414
4.42432
4.42458
4.42463
4.46244
4.46243
4.46215
4.46194
4.46193
4.46212
4.46237
4.46243
4.49386
4.49385
4.49358
4.49338
4.49337
4.49356
4.49381
4.49387
4.51906
4.51905
4.51879
4.51859
4.51858
4.51877
4.51902
4.51908
4.53815
4.53813
4.53788
4.53768
4.53768
4.53786
4.53811
4.53817
4.5512
4.55118
4.55093
4.55075
4.55074
4.55092
4.55117
4.55123
4.55828
4.55826
4.55802
4.55784
4.55784
4.55801
4.55825
4.55831
4.55943
4.55942
4.55918
4.559
4.559
4.55917
4.55941
4.55946
4.55466
4.55465
4.55442
4.55425
4.55425
4.55441
4.55464
4.55469
4.54394
4.54394
4.54372
4.54356
4.54355
4.54371
4.54393
4.54397
4.52724
4.52725
4.52704
4.52688
4.52687
4.52703
4.52723
4.52727
4.50448
4.5045
4.5043
4.50414
4.50413
4.50428
4.50447
4.50449
4.47556
4.47558
4.4754
4.47524
4.47523
4.47536
4.47554
4.47555
4.44035
4.44039
4.4402
4.44005
4.44003
4.44015
4.44031
4.4403
4.3987
4.39875
4.39857
4.39842
4.39839
4.39849
4.39862
4.3986
4.35045
4.3505
4.35033
4.35016
4.35011
4.35018
4.35029
4.35024
4.29541
4.29547
4.29528
4.29508
4.295
4.29503
4.29509
4.29502
4.23339
4.23343
4.23321
4.23297
4.23282
4.23279
4.2328
4.23269
4.16417
4.16418
4.1639
4.16358
4.16333
4.16319
4.16311
4.16295
4.08757
4.08752
4.08713
4.08665
4.08622
4.08591
4.08569
4.08545
4.0034
4.00325
4.00267
4.00193
4.00119
4.00058
4.00012
3.99975
3.91155
3.91122
3.91031
3.90912
3.90786
3.90674
3.90587
3.90526
3.81198
3.81136
3.80991
3.80795
3.8058
3.80378
3.80216
3.80114
3.70484
3.70376
3.70143
3.69821
3.69454
3.69091
3.6879
3.68605
3.59053
3.58877
3.58509
3.57987
3.57362
3.5671
3.56137
3.55776
3.46989
3.46718
3.46157
3.45334
3.44293
3.4312
3.41985
3.4119
3.34426
3.34039
3.33232
3.32002
3.30346
3.28286
3.2595
3.23851
3.21553
3.21044
3.19978
3.18305
3.15922
3.1263
3.0799
3.00888
3.08582
3.07976
3.06709
3.04713
3.01866
2.97969
2.92712
2.85655
2.95704
2.95038
2.93654
2.91489
2.88444
2.84381
2.79132
2.7254
2.8306
2.82366
2.80938
2.78723
2.75653
2.71639
2.66592
2.60448
2.70739
2.70042
2.68618
2.6643
2.63428
2.59558
2.54771
2.49034
2.58789
2.58104
2.56715
2.54593
2.51707
2.4802
2.43505
2.38146
2.47237
2.46571
2.4523
2.43195
2.40442
2.3695
2.32703
2.27697
2.36089
2.35446
2.34159
2.32215
2.29599
2.26298
2.22306
2.17627
2.25349
2.24727
2.23495
2.2164
2.19155
2.16034
2.12277
2.07899
2.15014
2.14413
2.1323
2.11459
2.09094
2.06138
2.02597
1.9849
2.05084
2.04502
2.03363
2.01665
1.99409
1.96601
1.93254
1.89393
1.95561
1.94994
1.93894
1.9226
1.90099
1.87422
1.84248
1.8061
1.86451
1.85898
1.8483
1.83253
1.81176
1.78615
1.75596
1.72158
1.7776
1.77218
1.76179
1.74651
1.72647
1.70189
1.6731
1.64056
1.69495
1.68964
1.6795
1.66464
1.64524
1.62159
1.59408
1.56326
1.61669
1.61147
1.60154
1.58705
1.56824
1.54544
1.51913
1.48993
1.54292
1.53779
1.52806
1.51391
1.49564
1.47364
1.44847
1.42083
1.4738
1.46875
1.4592
1.44538
1.42761
1.40639
1.38233
1.35624
1.40945
1.40448
1.39512
1.38161
1.36435
1.3439
1.32095
1.29638
1.34999
1.34513
1.33596
1.32277
1.30602
1.28633
1.26449
1.24147
1.29555
1.29079
1.28182
1.26896
1.25274
1.23384
1.21313
1.19164
1.24617
1.24153
1.23278
1.22027
1.20459
1.1865
1.16692
1.14696
1.20189
1.19738
1.18885
1.17672
1.16159
1.1443
1.12584
1.10736
1.16266
1.15829
1.15
1.13824
1.12368
1.10718
1.08979
1.0727
1.12839
1.12417
1.11612
1.10474
1.09071
1.07497
1.05859
1.0428
1.09892
1.09484
1.08704
1.07602
1.06251
1.04746
1.032
1.01737
1.07404
1.0701
1.06253
1.05185
1.0388
1.02438
1.00974
0.996104
1.05348
1.04967
1.04232
1.03194
1.01931
1.00544
0.991487
0.978656
1.03694
1.03326
1.02609
1.01598
1.00371
0.990297
0.976881
0.964671
1.02409
1.02053
1.01353
1.00365
0.991669
0.978597
0.965574
0.953798
1.01462
1.01115
1.0043
0.994598
0.982832
0.969996
0.957223
0.945702
1.00818
1.0048
0.998056
0.988488
0.976862
0.96416
0.951504
0.94007
1.00444
1.00113
0.994471
0.98499
0.973437
0.960776
0.948114
0.936615
1.00308
0.999827
0.993232
0.983798
0.972258
0.959556
0.946779
0.93508
1.00382
1.00061
0.994048
0.984626
0.973049
0.960235
0.94725
0.935234
1.00638
1.0032
0.996655
0.987216
0.97556
0.962575
0.949305
0.936873
1.0105
1.00735
1.00081
0.99133
0.979563
0.966362
0.952744
0.939817
1.01598
1.01284
1.00629
0.996758
0.984855
0.971404
0.957392
0.943907
1.0226
1.01947
1.0129
1.00331
0.991253
0.977529
0.963089
0.949001
1.03019
1.02706
1.02047
1.0108
0.99859
0.984581
0.969694
0.954973
1.03857
1.03544
1.02883
1.01909
1.00672
0.992421
0.977079
0.96171
1.04761
1.04447
1.03784
1.02803
1.0155
1.00092
0.985128
0.969108
1.05717
1.05403
1.04738
1.0375
1.02482
1.00997
0.993736
0.977075
1.06714
1.06399
1.05732
1.04738
1.03457
1.01946
1.00281
0.985523
1.0774
1.07424
1.06756
1.05757
1.04464
1.0293
1.01225
0.994371
1.08787
1.08471
1.07801
1.06798
1.05495
1.03939
1.02198
1.00355
1.09846
1.09529
1.08859
1.07853
1.06541
1.04967
1.03193
1.01298
1.1091
1.10593
1.09922
1.08914
1.07595
1.06006
1.04202
1.0226
1.11973
1.11654
1.10983
1.09975
1.08651
1.07049
1.0522
1.03235
1.13028
1.12709
1.12038
1.1103
1.09703
1.08091
1.0624
1.04218
1.1407
1.13751
1.13081
1.12074
1.10745
1.09126
1.07258
1.05203
1.15096
1.14776
1.14108
1.13102
1.11774
1.10149
1.08268
1.06185
1.16102
1.15781
1.15114
1.14111
1.12784
1.11157
1.09266
1.07161
1.17084
1.16762
1.16098
1.15097
1.13774
1.12147
1.10248
1.08126
1.1804
1.17718
1.17055
1.16059
1.14739
1.13114
1.11212
1.09076
1.18968
1.18646
1.17985
1.16993
1.15678
1.14057
1.12154
1.10009
1.19866
1.19544
1.18886
1.17898
1.16589
1.14973
1.13072
1.10922
1.20734
1.20411
1.19755
1.18773
1.17471
1.15861
1.13965
1.11813
1.21569
1.21246
1.20593
1.19616
1.18321
1.1672
1.1483
1.12679
1.22373
1.22049
1.21399
1.20427
1.1914
1.17548
1.15666
1.1352
1.23143
1.22819
1.22172
1.21206
1.19927
1.18345
1.16473
1.14334
1.23881
1.23557
1.22912
1.21952
1.20682
1.1911
1.17249
1.1512
1.24585
1.24261
1.2362
1.22665
1.21404
1.19844
1.17995
1.15877
1.25258
1.24934
1.24295
1.23347
1.22095
1.20546
1.18711
1.16605
1.25898
1.25574
1.24939
1.23997
1.22754
1.21217
1.19396
1.17305
1.26508
1.26184
1.25551
1.24615
1.23382
1.21857
1.2005
1.17974
1.27086
1.26763
1.26133
1.25203
1.23979
1.22467
1.20675
1.18615
1.27635
1.27312
1.26685
1.25761
1.24546
1.23047
1.2127
1.19228
1.28155
1.27832
1.27208
1.26291
1.25085
1.23598
1.21837
1.19812
1.28647
1.28324
1.27704
1.26792
1.25596
1.24121
1.22376
1.20369
1.29112
1.28789
1.28172
1.27266
1.26079
1.24617
1.22887
1.20898
1.29551
1.29229
1.28614
1.27714
1.26536
1.25087
1.23372
1.21402
1.29965
1.29643
1.29032
1.28138
1.26969
1.25531
1.23832
1.2188
1.30355
1.30033
1.29425
1.28537
1.27377
1.25951
1.24267
1.22333
1.30722
1.30401
1.29796
1.28913
1.27761
1.26347
1.24679
1.22762
1.31067
1.30746
1.30144
1.29267
1.28124
1.26722
1.25067
1.23169
1.31391
1.31071
1.30472
1.296
1.28465
1.27074
1.25434
1.23554
1.31695
1.31376
1.3078
1.29914
1.28787
1.27407
1.25781
1.23917
1.3198
1.31662
1.31068
1.30208
1.29089
1.27719
1.26107
1.2426
1.32247
1.3193
1.31339
1.30484
1.29372
1.28013
1.26415
1.24584
1.32497
1.32181
1.31593
1.30743
1.29639
1.2829
1.26704
1.24889
1.32731
1.32416
1.31831
1.30985
1.29889
1.2855
1.26976
1.25177
1.3295
1.32635
1.32053
1.31213
1.30123
1.28793
1.27232
1.25448
1.33154
1.3284
1.32261
1.31425
1.30342
1.29022
1.27473
1.25702
1.33345
1.33032
1.32455
1.31624
1.30548
1.29236
1.27698
1.25942
1.33523
1.33211
1.32637
1.3181
1.3074
1.29437
1.2791
1.26167
1.33689
1.33377
1.32806
1.31983
1.3092
1.29625
1.28108
1.26378
1.33843
1.33532
1.32963
1.32145
1.31088
1.29801
1.28294
1.26576
1.33986
1.33676
1.3311
1.32296
1.31244
1.29965
1.28467
1.26761
1.34119
1.3381
1.33246
1.32436
1.3139
1.30118
1.2863
1.26935
1.34242
1.33934
1.33373
1.32566
1.31525
1.3026
1.28781
1.27097
1.34356
1.34049
1.3349
1.32687
1.31651
1.30393
1.28922
1.27248
1.34461
1.34155
1.33598
1.32798
1.31767
1.30515
1.29053
1.27389
1.34557
1.34252
1.33697
1.32901
1.31875
1.30629
1.29174
1.2752
1.34645
1.3434
1.33788
1.32995
1.31973
1.30733
1.29286
1.27641
1.34725
1.34421
1.3387
1.3308
1.32063
1.30829
1.29388
1.27752
1.34796
1.34493
1.33944
1.33158
1.32144
1.30915
1.29481
1.27853
1.34859
1.34557
1.3401
1.33226
1.32216
1.30992
1.29564
1.27943
1.34914
1.34613
1.34068
1.33286
1.32279
1.31059
1.29636
1.28021
1.34961
1.34661
1.34117
1.33337
1.32333
1.31116
1.29697
1.28086
2.83407
2.65623
2.46889
2.27751
2.08902
1.91315
1.76141
1.64408
1.56689
1.52953
1.52666
1.55018
1.59129
1.64153
1.69275
2.71759
2.54501
2.3696
2.1948
2.02598
1.87069
1.73739
1.6334
1.56282
1.52564
1.51826
1.5349
1.56911
1.61456
1.66538
2.60238
2.43917
2.27624
2.11635
1.96401
1.8253
1.70683
1.61414
1.55036
1.51553
1.50693
1.52011
1.54999
1.5915
1.64007
2.49139
2.33833
2.18716
2.04036
1.90191
1.77695
1.67088
1.58817
1.53128
1.50014
1.49249
1.50459
1.53223
1.57109
1.61739
2.38505
2.24172
2.10119
1.96582
1.83925
1.72601
1.63075
1.55719
1.50725
1.48069
1.4754
1.48809
1.51505
1.55245
1.59705
2.28298
2.14857
2.01753
1.8922
1.77602
1.67312
1.58763
1.5227
1.47977
1.45836
1.45636
1.47077
1.49812
1.53501
1.57856
2.18461
2.05827
1.93573
1.81936
1.7125
1.61903
1.54266
1.48603
1.45014
1.4342
1.43609
1.45291
1.48137
1.5184
1.56146
2.08949
1.97046
1.85563
1.74743
1.64916
1.56451
1.49684
1.44831
1.41943
1.40911
1.41523
1.43482
1.46481
1.50244
1.54542
1.9973
1.88499
1.77727
1.67669
1.58654
1.51035
1.4511
1.41046
1.38849
1.38389
1.3943
1.41679
1.44853
1.48701
1.53018
1.90791
1.80186
1.70084
1.60753
1.5252
1.45725
1.40622
1.37328
1.35811
1.3591
1.37368
1.39905
1.43259
1.47204
1.51556
1.82131
1.72122
1.62664
1.5404
1.46576
1.40588
1.36287
1.33741
1.32884
1.33513
1.35366
1.38179
1.41708
1.45749
1.50143
1.73762
1.64329
1.55503
1.47577
1.40873
1.35678
1.32157
1.30341
1.30106
1.31227
1.33446
1.36511
1.40202
1.44335
1.4877
1.65704
1.56839
1.4864
1.41408
1.3546
1.31042
1.28285
1.27159
1.27499
1.2907
1.31619
1.34911
1.38745
1.42959
1.4743
1.57984
1.49684
1.42114
1.35578
1.30376
1.26725
1.24698
1.24211
1.25075
1.2705
1.29891
1.3338
1.37337
1.41619
1.46118
1.50628
1.42898
1.35961
1.30121
1.25661
1.22752
1.21407
1.21506
1.2284
1.25169
1.28262
1.31919
1.35977
1.40311
1.44828
1.43667
1.36513
1.30213
1.25073
1.21341
1.19133
1.18417
1.19041
1.20788
1.23424
1.2673
1.30524
1.34662
1.39033
1.43558
1.3713
1.30559
1.24903
1.20458
1.17423
1.15866
1.15718
1.16807
1.18912
1.21807
1.25289
1.29192
1.33388
1.37781
1.42303
1.31043
1.25063
1.20056
1.16283
1.13903
1.12941
1.13299
1.14792
1.172
1.20309
1.23931
1.27917
1.32151
1.36551
1.4106
1.25432
1.2005
1.15679
1.12545
1.10768
1.1034
1.1114
1.12977
1.15637
1.18919
1.22649
1.26692
1.30946
1.35341
1.39827
1.20318
1.15529
1.11768
1.09229
1.07999
1.08041
1.09219
1.11344
1.14208
1.17624
1.21432
1.25511
1.29769
1.34145
1.38599
1.15708
1.11495
1.08309
1.06315
1.0557
1.06017
1.07514
1.09873
1.12898
1.16413
1.20273
1.24366
1.28613
1.3296
1.37374
1.11603
1.07936
1.05281
1.03775
1.03453
1.04243
1.06001
1.08545
1.11691
1.15275
1.19163
1.23253
1.27476
1.31784
1.3615
1.07989
1.04832
1.02657
1.0158
1.01617
1.0269
1.04656
1.07341
1.10573
1.14197
1.18092
1.22165
1.26351
1.30612
1.34924
1.04847
1.02155
1.00406
0.996963
1.00032
1.01332
1.03458
1.06244
1.0953
1.13172
1.17055
1.21096
1.25236
1.29442
1.33694
1.0215
0.998746
0.984935
0.980924
0.986695
1.00145
1.02386
1.05239
1.08551
1.12188
1.16044
1.20042
1.24127
1.28271
1.32459
0.998692
0.979566
0.968867
0.967363
0.975012
0.991051
1.01423
1.04311
1.07625
1.11239
1.15054
1.18998
1.23021
1.27098
1.31217
0.979689
0.963661
0.955519
0.955984
0.965021
0.981924
1.00553
1.03448
1.06742
1.10318
1.1408
1.1796
1.21915
1.2592
1.29967
0.964141
0.950687
0.944577
0.946515
0.956498
0.973889
0.997613
1.02639
1.05895
1.09418
1.13117
1.16927
1.20808
1.24737
1.28709
0.951699
0.940319
0.935753
0.938712
0.949246
0.966792
0.990362
1.01876
1.05078
1.08535
1.12161
1.15895
1.19696
1.23546
1.2744
0.942026
0.932253
0.928786
0.932363
0.943093
0.9605
0.983678
1.01151
1.04284
1.07665
1.11211
1.14862
1.1858
1.22348
1.26162
0.934809
0.926217
0.923447
0.92728
0.937895
0.954901
0.977477
1.00457
1.03509
1.06805
1.10264
1.13827
1.17459
1.21142
1.24874
0.929762
0.921965
0.919537
0.923305
0.933529
0.949904
0.971692
0.997907
1.0275
1.05952
1.09317
1.12789
1.16331
1.19928
1.23576
0.926627
0.919284
0.916881
0.920304
0.929894
0.945434
0.966268
0.991472
1.02004
1.05105
1.08371
1.11747
1.15197
1.18706
1.22269
0.925178
0.917988
0.915334
0.918165
0.926906
0.941431
0.961163
0.985238
1.01269
1.04262
1.07424
1.10701
1.14057
1.17475
1.20953
0.925215
0.917916
0.914772
0.916796
0.924499
0.937848
0.956344
0.979185
1.00544
1.03422
1.06477
1.09652
1.12911
1.16238
1.19629
0.926561
0.918929
0.915089
0.916119
0.922619
0.934649
0.951791
0.973299
0.998282
1.02586
1.05529
1.08599
1.1176
1.14994
1.18298
0.929066
0.920909
0.916196
0.916072
0.921225
0.931808
0.947486
0.967573
0.991213
1.01754
1.0458
1.07543
1.10604
1.13744
1.1696
0.932595
0.923753
0.91802
0.916603
0.920283
0.929307
0.943423
0.962007
0.984236
1.00926
1.03633
1.06485
1.09444
1.1249
1.15617
0.93703
0.927372
0.920496
0.917671
0.919768
0.927132
0.939598
0.956602
0.977359
1.00103
1.02687
1.05426
1.08282
1.11232
1.1427
0.942269
0.931688
0.923569
0.919241
0.919663
0.925279
0.936012
0.951366
0.970592
0.992868
1.01743
1.04368
1.07119
1.09973
1.1292
0.948217
0.936632
0.927192
0.921284
0.919952
0.923743
0.93267
0.946307
0.963947
0.98478
1.00804
1.03312
1.05956
1.08712
1.1157
0.95479
0.94214
0.931322
0.923773
0.920625
0.922524
0.929581
0.941439
0.957437
0.976784
0.998714
1.02259
1.04795
1.07452
1.10219
0.961911
0.948155
0.935919
0.926688
0.921674
0.921626
0.926753
0.936776
0.951081
0.968898
0.989459
1.01211
1.03637
1.06195
1.0887
0.969509
0.954622
0.940947
0.930006
0.923091
0.921051
0.924197
0.932332
0.944896
0.961141
0.980299
1.0017
1.02485
1.04941
1.07524
0.977515
0.961492
0.946371
0.933709
0.92487
0.920804
0.921925
0.928125
0.9389
0.95353
0.971251
0.99138
1.01339
1.03693
1.06183
0.985867
0.968715
0.952157
0.937776
0.927004
0.920888
0.919949
0.92417
0.933112
0.946088
0.962336
0.981163
1.00202
1.02453
1.04848
0.994505
0.976244
0.958271
0.942187
0.929485
0.921306
0.918279
0.920484
0.927553
0.938833
0.953575
0.971071
0.99075
1.01221
1.03521
1.00337
0.984033
0.96468
0.946921
0.932304
0.922061
0.916927
0.917085
0.922241
0.931787
0.944987
0.961125
0.979606
1
1.02204
1.01241
0.992038
0.971349
0.951956
0.935452
0.923152
0.915901
0.913986
0.917195
0.924971
0.936594
0.951343
0.968602
0.987915
1.00898
1.02158
1.00022
0.978245
0.957269
0.938915
0.924579
0.91521
0.911203
0.912435
0.918404
0.928416
0.941747
0.95776
0.975972
0.996055
1.03082
1.00852
0.985335
0.962835
0.94268
0.926338
0.914859
0.908748
0.907977
0.912107
0.920474
0.932355
0.947097
0.964189
0.983274
1.04009
1.01692
0.992583
0.968629
0.946732
0.928423
0.914851
0.906632
0.903837
0.906099
0.912788
0.923188
0.936632
0.952583
0.970654
1.04935
1.02538
0.999958
0.974624
0.951052
0.930827
0.915188
0.904865
0.900032
0.900397
0.905376
0.914264
0.926384
0.941172
0.958213
1.05856
1.03384
1.00743
0.980794
0.955622
0.933538
0.91587
0.903454
0.896573
0.89502
0.898259
0.905604
0.916371
0.929974
0.945966
1.06768
1.04229
1.01495
0.98711
0.960419
0.936545
0.916892
0.902404
0.893472
0.889981
0.891453
0.897225
0.90661
0.919004
0.933929
1.07669
1.05069
1.02251
0.993544
0.965423
0.939833
0.918249
0.901717
0.890739
0.885297
0.884975
0.889145
0.897121
0.908279
0.922118
1.08554
1.05901
1.03007
1.00007
0.970609
0.943385
0.919932
0.901393
0.888381
0.880978
0.878842
0.881381
0.887918
0.897816
0.910547
1.09423
1.06721
1.0376
1.00666
0.975954
0.947182
0.92193
0.901429
0.886402
0.877035
0.873067
0.873949
0.879019
0.88763
0.899231
1.10272
1.07529
1.04508
1.01329
0.981433
0.951206
0.924231
0.901821
0.884806
0.873478
0.867662
0.866863
0.870438
0.877736
0.888185
1.11099
1.08322
1.05248
1.01993
0.987022
0.955435
0.926819
0.90256
0.883591
0.870313
0.86264
0.860138
0.862192
0.868149
0.877421
1.11904
1.09097
1.05978
1.02656
0.992696
0.959847
0.929678
0.903638
0.882757
0.867544
0.858009
0.853786
0.854292
0.858883
0.866954
1.12684
1.09853
1.06697
1.03315
0.99843
0.96442
0.932789
0.905041
0.882297
0.865172
0.853776
0.847817
0.846753
0.849951
0.856796
1.13439
1.10589
1.07401
1.03968
1.0042
0.969129
0.936132
0.906756
0.882205
0.863198
0.849948
0.842241
0.839585
0.841365
0.84696
1.14169
1.11303
1.0809
1.04614
1.00999
0.973953
0.939686
0.908766
0.882471
0.861619
0.846527
0.837066
0.8328
0.833136
0.837455
1.14871
1.11995
1.08762
1.05251
1.01577
0.978867
0.94343
0.911054
0.883083
0.86043
0.843515
0.832298
0.826405
0.825275
0.828294
1.15547
1.12664
1.09417
1.05876
1.02153
0.983851
0.947341
0.913601
0.884028
0.859624
0.84091
0.82794
0.820408
0.817792
0.819486
1.16196
1.1331
1.10052
1.06489
1.02723
0.988882
0.951397
0.916387
0.88529
0.859191
0.83871
0.823995
0.814816
0.810693
0.811039
1.16818
1.13932
1.10668
1.07089
1.03288
0.993938
0.955576
0.919389
0.886852
0.85912
0.836909
0.820464
0.809632
0.803988
0.802963
1.17414
1.14529
1.11264
1.07673
1.03845
0.999
0.959855
0.922588
0.888695
0.859397
0.835499
0.817344
0.80486
0.79768
0.795265
1.17983
1.15103
1.11839
1.08242
1.04392
1.00405
0.964212
0.925959
0.890799
0.860007
0.834472
0.814631
0.800501
0.791774
0.787949
1.18526
1.15653
1.12393
1.08794
1.04929
1.00907
0.968627
0.929482
0.893145
0.860934
0.833816
0.812321
0.796553
0.786273
0.781022
1.19043
1.16179
1.12927
1.09328
1.05454
1.01404
0.97308
0.933134
0.895709
0.862158
0.833516
0.810404
0.793013
0.781178
0.774487
1.19536
1.16682
1.13439
1.09846
1.05966
1.01895
0.97755
0.936893
0.898471
0.86366
0.83356
0.808872
0.789878
0.776489
0.768346
1.20005
1.17161
1.1393
1.10345
1.06465
1.02378
0.982021
0.940738
0.901407
0.865421
0.833929
0.807713
0.787141
0.772204
0.762601
1.2045
1.17619
1.14401
1.10826
1.06949
1.02853
0.986474
0.944649
0.904497
0.867419
0.834606
0.806913
0.784794
0.76832
0.757251
1.20873
1.18054
1.1485
1.11289
1.07419
1.03318
0.990894
0.948605
0.907718
0.869632
0.835572
0.806458
0.782827
0.76483
0.752295
1.21273
1.18468
1.1528
1.11733
1.07873
1.03772
0.995267
0.952588
0.911049
0.872038
0.836807
0.806332
0.781229
0.761728
0.747729
1.21653
1.18862
1.1569
1.12159
1.08312
1.04215
0.99958
0.95658
0.914469
0.874616
0.83829
0.806518
0.779986
0.759007
0.74355
1.22012
1.19235
1.1608
1.12567
1.08735
1.04645
1.00382
0.960565
0.917957
0.877343
0.84
0.806996
0.779084
0.756655
0.739752
1.22352
1.19589
1.16451
1.12957
1.09142
1.05062
1.00798
0.964527
0.921495
0.880199
0.841916
0.807748
0.778508
0.754661
0.736326
1.22672
1.19924
1.16804
1.1333
1.09533
1.05466
1.01204
0.968452
0.925065
0.883162
0.844016
0.808753
0.77824
0.753013
0.733264
1.22975
1.20241
1.17139
1.13685
1.09908
1.05856
1.016
0.972327
0.928649
0.886213
0.846278
0.80999
0.778262
0.751696
0.730556
1.23261
1.20541
1.17457
1.14023
1.10266
1.06232
1.01986
0.976141
0.932231
0.889331
0.848683
0.81144
0.778556
0.750695
0.728192
1.2353
1.20824
1.17758
1.14344
1.10609
1.06595
1.0236
0.979884
0.935797
0.892499
0.851208
0.813081
0.779103
0.749993
0.726157
1.23783
1.21092
1.18043
1.1465
1.10937
1.06942
1.02723
0.983546
0.939332
0.895699
0.853834
0.814892
0.779882
0.749575
0.724438
1.24022
1.21344
1.18312
1.14939
1.11249
1.07276
1.03073
0.987119
0.942825
0.898915
0.856542
0.816852
0.780875
0.749421
0.723022
1.24246
1.21581
1.18566
1.15214
1.11546
1.07595
1.03411
0.990597
0.946265
0.902131
0.859313
0.818943
0.78206
0.749514
0.721892
1.24456
1.21804
1.18805
1.15473
1.11828
1.07901
1.03736
0.993973
0.949642
0.905334
0.862131
0.821144
0.783418
0.749836
0.721032
1.24654
1.22013
1.19031
1.15719
1.12096
1.08192
1.04049
0.997244
0.952946
0.908511
0.864977
0.823435
0.784931
0.750368
0.720428
1.24839
1.2221
1.19243
1.1595
1.1235
1.0847
1.04348
1.00041
0.956172
0.911649
0.867835
0.825798
0.786579
0.751096
0.720065
1.25012
1.22395
1.19443
1.16169
1.12591
1.08734
1.04636
1.00346
0.959313
0.914738
0.870695
0.828222
0.788346
0.751998
0.719926
1.25174
1.22567
1.1963
1.16374
1.12818
1.08985
1.0491
1.0064
0.962366
0.917775
0.873551
0.830695
0.790218
0.753057
0.719991
1.25325
1.22729
1.19805
1.16567
1.13033
1.09224
1.05172
1.00923
0.96533
0.92076
0.876398
0.833208
0.792184
0.754263
0.720248
1.25466
1.22879
1.19969
1.16749
1.13235
1.0945
1.05423
1.01195
0.968208
0.923691
0.879233
0.835758
0.794238
0.755609
0.720693
1.25596
1.23018
1.20121
1.16918
1.13425
1.09664
1.05662
1.01457
0.971005
0.926572
0.882056
0.838346
0.796383
0.757098
0.721329
1.25715
1.23147
1.20262
1.17076
1.13603
1.09866
1.05889
1.01709
0.97372
0.929403
0.884872
0.840976
0.798628
0.758744
0.722174
1.25824
1.23264
1.20391
1.1722
1.13769
1.10055
1.06104
1.01949
0.976343
0.932176
0.887679
0.843655
0.800987
0.760574
0.723267
1.25922
1.23368
1.20506
1.17351
1.13918
1.10227
1.06302
1.02174
0.97884
0.93486
0.89045
0.84637
0.803466
0.762617
0.724667
1.26006
1.23458
1.20605
1.17463
1.14048
1.10378
1.06478
1.02375
0.981115
0.937355
0.893089
0.849039
0.806012
0.76486
0.726417
1.26075
1.23531
1.20684
1.17551
1.14148
1.10496
1.06615
1.02536
0.982951
0.939413
0.895328
0.851389
0.808372
0.767103
0.728402
1.74413
1.78035
1.81536
1.85014
1.88424
1.91654
1.9457
1.97042
1.98967
2.00281
2.00974
2.01096
2.00752
2.00103
1.99346
1.98694
1.98331
1.98378
1.98864
1.99746
2.00958
2.0248
2.04363
2.06697
2.09544
2.12896
2.16667
2.20709
2.24853
2.2893
2.32795
2.36333
2.39459
2.42122
2.44293
2.45967
2.47152
2.47863
2.4812
2.47938
1.71333
1.7526
1.7913
1.82936
1.86602
1.90014
1.93051
1.95603
1.97589
1.98971
1.99755
2.00003
1.99824
1.99376
1.98842
1.98412
1.98244
1.98433
1.98997
1.99895
2.01083
2.02563
2.04397
2.06669
2.0943
2.12661
2.16269
2.20111
2.24024
2.2785
2.31454
2.3473
2.37602
2.40025
2.41979
2.43461
2.44485
2.4507
2.45239
2.45011
1.68685
1.72822
1.76958
1.81011
1.84872
1.88424
1.91554
1.94171
1.96213
1.9766
1.98533
1.98901
1.98878
1.98613
1.98279
1.98044
1.98041
1.98348
1.98971
1.9988
2.01047
2.02493
2.04284
2.06499
2.09176
2.12285
2.15731
2.19375
2.23062
2.26643
2.29993
2.33016
2.35644
2.37839
2.39585
2.40887
2.41762
2.42232
2.42323
2.42058
1.66355
1.70658
1.74993
1.79226
1.83229
1.8688
1.90077
1.92741
1.94829
1.96334
1.97289
1.97769
1.97888
1.97789
1.97632
1.97565
1.97703
1.98105
1.98775
1.9969
2.0084
2.02257
2.04011
2.06171
2.08764
2.11752
2.15038
2.18487
2.21952
2.25295
2.28399
2.31178
2.33572
2.35548
2.37099
2.38232
2.38967
2.39332
2.39353
2.39052
1.64282
1.68717
1.73197
1.77558
1.81656
1.85371
1.88609
1.91306
1.93429
1.94985
1.96014
1.96597
1.96845
1.96896
1.96894
1.96973
1.97228
1.97708
1.98415
1.99334
2.00469
2.01862
2.03582
2.05689
2.08199
2.11067
2.14195
2.17452
2.207
2.23811
2.26678
2.29222
2.31392
2.33161
2.34527
2.35502
2.36109
2.36377
2.36334
2.36001
1.62415
1.66954
1.71536
1.75979
1.80134
1.83884
1.87143
1.89858
1.92008
1.93607
1.94703
1.95379
1.95744
1.95927
1.96063
1.96266
1.9662
1.97163
1.97898
1.98819
1.99942
2.01315
2.03004
2.05059
2.07487
2.10235
2.13206
2.16275
2.19313
2.22199
2.24838
2.27157
2.29114
2.30687
2.31879
2.32706
2.33194
2.33374
2.33273
2.32913
1.60707
1.65327
1.69977
1.74467
1.78648
1.82408
1.85671
1.88392
1.9056
1.92195
1.93351
1.9411
1.94579
1.94881
1.95135
1.95446
1.95882
1.96476
1.97233
1.98156
1.9927
2.00625
2.02284
2.04288
2.06632
2.09261
2.12078
2.14964
2.17797
2.20468
2.22887
2.24992
2.26746
2.28134
2.29163
2.29853
2.30232
2.30331
2.30178
2.29795
1.59121
1.63803
1.68493
1.73002
1.77184
1.80935
1.84187
1.86903
1.89081
1.90745
1.91953
1.92786
1.93349
1.93754
1.94112
1.94513
1.95018
1.95654
1.96429
1.97353
1.98459
1.99799
2.01429
2.0338
2.05641
2.08152
2.10818
2.13526
2.16161
2.18624
2.20833
2.22734
2.24296
2.25511
2.26388
2.26951
2.2723
2.27257
2.27058
2.26655
1.57626
1.62353
1.67061
1.71566
1.75729
1.79456
1.82685
1.85389
1.87569
1.89256
1.90508
1.91407
1.92052
1.92548
1.92995
1.93473
1.94034
1.94703
1.95493
1.96419
1.97519
1.98845
2.00445
2.02344
2.04521
2.06915
2.09433
2.11968
2.14413
2.16676
2.18685
2.20393
2.21774
2.22826
2.23563
2.24009
2.24197
2.24158
2.2392
2.23502
1.56198
1.60955
1.65663
1.70146
1.74276
1.77966
1.81163
1.83846
1.86022
1.87725
1.89015
1.89971
1.90687
1.91262
1.91785
1.92328
1.92936
1.93633
1.94434
1.95363
1.96458
1.97769
1.9934
2.01185
2.03279
2.05558
2.07931
2.10298
2.12559
2.14632
2.16451
2.17976
2.19188
2.20089
2.20695
2.21035
2.21141
2.21045
2.20773
2.20343
1.54819
1.59594
1.64286
1.68732
1.72816
1.76459
1.79616
1.82273
1.84439
1.86153
1.87473
1.88478
1.89257
1.89899
1.90487
1.91084
1.9173
1.9245
1.93262
1.94192
1.95283
1.9658
1.98121
1.99911