/*--------------------------------*- C++ -*----------------------------------*\
| =========                 |                                                 |
| \\      /  F ield         | OpenFOAM: The Open Source CFD Toolbox           |
|  \\    /   O peration     | Version:  2206                                  |
|   \\  /    A nd           | Website:  www.openfoam.com                      |
|    \\/     M anipulation  |                                                 |
\*---------------------------------------------------------------------------*/
FoamFile
{
    version     2.0;
    format      ascii;
    arch        "LSB;label=32;scalar=64";
    class       volScalarField;
    location    "200";
    object      p;
}
// * * * * * * * * * * * * * * * * * * * * * * * * * * * * * * * * * * * * * //

dimensions      [0 2 -2 0 0 0 0];

internalField   nonuniform List<scalar> 
12940
(
772.16
760.415
760.804
759.646
758.286
756.959
755.646
754.354
767.85
762
761.996
760.059
758.438
757.006
755.646
754.336
766.123
762.559
762.296
760.163
758.495
756.985
755.577
754.254
765.501
762.841
762.03
759.955
758.367
756.837
755.407
754.089
764.519
762.599
761.395
759.488
758.021
756.543
755.137
753.846
762.751
761.543
760.315
758.707
757.422
756.082
754.77
753.538
760.358
759.784
758.867
757.66
756.618
755.48
754.321
753.188
757.841
757.793
757.339
756.537
755.748
754.827
753.843
752.834
755.747
756.101
756.051
755.562
754.981
754.245
753.414
752.527
754.369
754.984
755.182
754.885
754.44
753.833
753.112
752.319
753.685
754.416
754.735
754.548
754.174
753.64
752.983
752.25
753.513
754.244
754.619
754.511
754.171
753.67
753.043
752.342
753.664
754.335
754.738
754.704
754.392
753.905
753.287
752.599
754
754.605
755.024
755.064
754.792
754.32
753.703
753.017
754.432
755
755.435
755.548
755.336
754.888
754.273
753.587
754.894
755.47
755.935
756.124
755.992
755.588
754.984
754.301
755.319
755.954
756.486
756.766
756.734
756.397
755.82
755.148
755.636
756.381
757.027
757.436
757.532
757.294
756.766
756.117
755.783
756.674
757.476
758.062
758.335
758.241
757.799
757.194
755.721
756.771
757.745
758.544
759.052
759.172
758.877
758.354
755.444
756.644
757.774
758.783
759.563
759.966
759.912
759.536
754.975
756.299
757.55
758.725
759.757
760.479
760.749
760.607
754.355
755.772
757.106
758.382
759.591
760.592
761.215
761.356
753.625
755.106
756.491
757.811
759.105
760.282
761.188
761.596
752.825
754.343
755.758
757.086
758.391
759.63
760.681
761.274
751.995
753.53
754.958
756.273
757.548
758.766
759.834
760.505
751.177
752.711
754.143
755.432
756.658
757.812
758.821
759.486
750.417
751.938
753.364
754.622
755.788
756.862
757.783
758.389
749.768
751.266
752.677
753.898
755.002
755.992
756.814
757.33
749.291
750.754
752.138
753.315
754.354
755.262
755.984
756.382
749.047
750.457
751.798
752.922
753.895
754.725
755.351
755.598
749.093
750.425
751.7
752.759
753.664
754.423
754.961
755.025
749.471
750.69
751.868
752.849
753.687
754.39
754.855
754.708
750.193
751.255
752.302
753.193
753.971
754.642
755.064
754.696
751.222
752.081
752.964
753.759
754.495
755.175
755.609
755.053
752.453
753.072
753.768
754.474
755.2
755.951
756.488
755.865
753.693
754.06
754.569
755.206
755.969
756.865
757.641
757.224
754.666
754.811
755.158
755.754
756.592
757.695
758.864
759.126
755.054
755.052
755.283
755.843
756.734
758.009
759.615
761.023
754.616
754.568
754.727
755.208
756.021
757.228
758.874
761.078
753.442
753.417
753.497
753.769
754.187
754.683
755.015
754.503
752.066
752.105
752.169
752.326
752.524
752.664
752.496
751.786
750.44
750.552
750.63
750.726
750.809
750.81
750.581
750.079
748.643
748.823
748.924
748.988
749.007
748.943
748.719
748.31
746.735
746.972
747.097
747.143
747.121
747.024
746.825
746.496
744.764
745.045
745.188
745.214
745.152
745.02
744.836
744.567
742.774
743.088
743.234
743.224
743.099
742.899
742.689
742.421
740.827
741.155
741.282
741.204
740.97
740.632
740.283
739.866
739
739.313
739.388
739.204
738.792
738.166
737.311
736.127
737.384
737.639
737.632
737.315
736.669
735.563
733.491
729.762
735.88
736.017
735.924
735.574
734.967
734.054
732.5
729.217
734.636
734.598
734.418
734.133
733.759
733.311
732.668
731.455
733.514
733.264
732.968
732.732
732.559
732.47
732.413
732.185
732.196
731.734
731.314
731.114
731.109
731.299
731.628
731.93
730.361
729.713
729.187
729.029
729.187
729.633
730.297
731.052
727.692
726.905
726.31
726.225
726.572
727.302
728.34
729.628
723.855
722.993
722.391
722.428
723.018
724.101
725.618
727.657
718.492
717.647
717.114
717.327
718.211
719.722
721.872
725.038
711.249
710.539
710.158
710.574
711.762
713.759
716.795
721.812
701.885
701.446
701.287
701.877
703.302
705.793
709.878
716.94
690.362
690.237
690.141
690.395
690.965
691.777
692.437
691.309
677.424
677.632
677.664
677.725
677.754
677.516
676.411
674.156
663.683
664.156
664.345
664.391
664.283
663.88
662.88
661.395
649.458
650.09
650.395
650.467
650.335
649.935
649.118
647.917
634.894
635.597
635.971
636.081
635.976
635.633
634.972
633.985
620.035
620.748
621.149
621.29
621.221
620.94
620.395
619.561
604.885
605.571
605.972
606.128
606.089
605.857
605.392
604.662
589.442
590.084
590.467
590.625
590.605
590.41
590.002
589.349
573.711
574.3
574.656
574.809
574.8
574.631
574.267
573.678
557.705
558.239
558.563
558.706
558.702
558.554
558.228
557.697
541.442
541.921
542.212
542.342
542.341
542.21
541.919
541.443
524.945
525.369
525.628
525.744
525.744
525.628
525.37
524.948
508.238
508.609
508.836
508.938
508.938
508.837
508.611
508.24
491.346
491.666
491.862
491.949
491.95
491.862
491.667
491.348
474.295
474.565
474.73
474.804
474.804
474.73
474.566
474.296
457.109
457.33
457.465
457.525
457.525
457.465
457.33
457.11
439.813
439.985
440.091
440.138
440.138
440.091
439.986
439.813
422.43
422.555
422.632
422.666
422.666
422.632
422.555
422.43
404.985
405.063
405.111
405.133
405.133
405.111
405.063
404.985
387.5
387.532
387.552
387.561
387.561
387.552
387.532
387.5
370
369.985
369.977
369.973
369.973
369.977
369.985
370
352.506
352.446
352.409
352.392
352.392
352.409
352.446
352.506
335.043
334.936
334.871
334.841
334.841
334.87
334.936
335.043
317.633
317.479
317.385
317.343
317.343
317.385
317.479
317.633
300.3
300.098
299.975
299.92
299.92
299.975
300.098
300.299
283.068
282.817
282.665
282.596
282.596
282.664
282.817
283.067
265.961
265.661
265.478
265.395
265.395
265.477
265.66
265.959
249.003
248.652
248.438
248.342
248.342
248.437
248.651
249.002
232.221
231.817
231.571
231.461
231.461
231.571
231.816
232.219
215.639
215.181
214.902
214.777
214.778
214.904
215.183
215.64
199.283
198.768
198.456
198.318
198.322
198.464
198.779
199.292
183.175
182.604
182.259
182.11
182.118
182.282
182.635
183.208
167.337
166.71
166.336
166.18
166.198
166.388
166.787
167.427
151.783
151.108
150.712
150.556
150.592
150.817
151.275
151.996
136.522
135.814
135.413
135.268
135.33
135.603
136.142
136.972
121.555
120.849
120.468
120.348
120.442
120.775
121.43
122.419
106.89
106.244
105.923
105.835
105.951
106.338
107.151
108.361
92.5703
92.0697
91.8566
91.7903
91.8785
92.2667
93.2646
94.7706
78.7335
78.4863
78.4272
78.3467
78.3002
78.526
79.6341
81.9066
65.6805
65.7649
65.8441
65.5895
65.0295
64.2582
63.703
64.8876
53.9909
54.4109
54.5886
54.047
52.7129
50.4236
46.7529
39.9677
44.3714
45.1046
45.5341
45.1693
44.0334
42.1035
39.1168
33.947
36.843
37.7802
38.4166
38.2828
37.4526
35.9752
33.7727
30.2413
31.2105
32.2512
33.0278
33.1096
32.5877
31.5313
29.9469
27.5302
27.1645
28.2337
29.0838
29.3311
29.0661
28.3564
27.2445
25.6186
24.3899
25.4391
26.3097
26.6662
26.5904
26.1396
25.3709
24.2991
22.6128
23.6139
24.468
24.8858
24.9382
24.6701
24.143
23.4593
21.6114
22.5492
23.3631
23.8058
23.9383
23.7939
23.4346
23.0231
21.2113
22.0782
22.8372
23.279
23.4557
23.3915
23.1464
22.9238
21.2762
22.069
22.7647
23.1875
23.3826
23.3669
23.1975
23.1023
21.6992
22.417
23.0448
23.4368
23.6321
23.6422
23.52
23.5064
22.3953
23.0382
23.596
23.9491
24.1315
24.1508
24.0554
24.0893
23.2973
23.8665
24.3539
24.663
24.8236
24.8402
24.7567
24.8135
24.3523
24.8497
25.2679
25.5305
25.6635
25.6693
25.5867
25.6482
25.5175
25.9452
26.296
26.5111
26.6128
26.602
26.5127
26.5661
26.7587
27.1191
27.4049
27.5724
27.6408
27.6095
27.5083
27.5453
28.0493
28.3448
28.5682
28.6888
28.723
28.6691
28.5525
28.568
29.3681
29.6012
29.7651
29.8403
29.8403
29.7627
29.6291
29.6207
30.6992
30.8724
30.9795
31.0111
30.9778
30.8764
30.7254
30.6926
32.0302
32.1459
32.1993
32.1893
32.124
31.9998
31.8321
31.7756
33.3518
33.4125
33.4151
33.3659
33.2706
33.125
32.9419
32.8634
34.6569
34.6652
34.6201
34.5342
34.4111
34.246
34.0492
33.9507
35.9403
35.8988
35.8089
35.6893
35.5407
35.3583
35.1498
35.0335
37.1977
37.1092
36.9779
36.8273
36.656
36.4587
36.2407
36.1096
38.4257
38.2934
38.1238
37.9451
37.7539
37.5442
37.3192
37.1763
39.6215
39.4487
39.244
39.0403
38.8318
38.6122
38.383
38.2306
40.7822
40.5724
40.3361
40.1103
39.8872
39.6605
39.4293
39.2696
41.9054
41.662
41.3975
41.1525
40.9178
40.6864
40.455
40.2899
42.988
42.715
42.4255
42.1644
41.9207
41.6863
41.4564
41.2876
44.0273
43.7282
43.4173
43.1429
42.892
42.6565
42.4295
42.2585
45.0198
44.6986
44.3695
44.084
43.828
43.5928
43.37
43.1981
45.9623
45.6226
45.2783
44.9841
44.7247
44.4911
44.2734
44.1016
46.8511
46.4963
46.1397
45.8389
45.5778
45.3469
45.135
44.9643
47.6828
47.3163
46.9501
46.6447
46.3831
46.1557
45.9503
45.7813
48.4539
48.0788
47.7056
47.3973
47.1365
46.9133
46.7147
46.5481
49.1614
48.7805
48.4026
48.0931
47.834
47.6155
47.4239
47.2603
49.8021
49.4181
49.0377
48.7283
48.4718
48.2584
48.074
47.9137
50.3734
49.9888
49.6078
49.2998
49.0466
48.8386
48.6614
48.5049
50.8731
50.49
50.1103
49.8048
49.5555
49.353
49.183
49.0306
51.2993
50.9196
50.5427
50.2408
49.996
49.799
49.6362
49.488
51.6504
51.2759
50.9034
50.6059
50.3659
50.1747
50.0187
49.875
51.9257
51.5578
51.1909
50.8986
50.6638
50.4783
50.3291
50.1899
52.1245
51.7646
51.4044
51.1179
50.8887
50.7088
50.5661
50.4316
52.2468
51.8959
51.5435
51.2635
51.04
50.8657
50.7291
50.5993
52.293
51.9521
51.6082
51.3351
51.1176
50.9488
50.8182
50.6929
52.2638
51.9336
51.599
51.3332
51.1219
50.9584
50.8334
50.7128
52.1604
51.8414
51.5167
51.2587
51.0535
50.8954
50.7757
50.6595
51.9842
51.677
51.3626
51.1126
50.9138
50.7608
50.6462
50.5343
51.7369
51.4418
51.1383
50.8964
50.704
50.5561
50.4463
50.3386
51.4207
51.138
50.8455
50.6121
50.426
50.2831
50.1777
50.0741
51.0378
50.7675
50.4864
50.2615
50.0819
49.9438
49.8427
49.743
50.5906
50.3329
50.0632
49.8469
49.6739
49.5405
49.4435
49.3475
50.0818
49.8366
49.5785
49.3709
49.2043
49.0757
48.9825
48.8901
49.5141
49.2814
49.0349
48.836
48.6759
48.5519
48.4624
48.3734
48.8904
48.67
48.4351
48.245
48.0914
47.9719
47.8859
47.8003
48.2136
48.0054
47.782
47.6006
47.4534
47.3385
47.2559
47.1736
47.4867
47.2904
47.0785
46.9058
46.765
46.6546
46.5753
46.4962
46.7127
46.5281
46.3275
46.1634
46.0291
45.9231
45.8469
45.771
45.8945
45.7214
45.532
45.3764
45.2484
45.1469
45.0739
45.001
45.0351
44.8733
44.6949
44.5477
44.426
44.329
44.259
44.1892
44.1376
43.9866
43.819
43.6801
43.5647
43.4721
43.4052
43.3384
43.2047
43.0643
42.9073
42.7766
42.6674
42.5791
42.5153
42.4515
42.2394
42.1092
41.9626
41.8398
41.7367
41.6529
41.592
41.5312
41.2443
41.1241
40.9875
40.8726
40.7755
40.696
40.6382
40.5804
40.2221
40.1115
39.9847
39.8775
39.7864
39.7112
39.6563
39.6015
39.1755
39.0741
38.9568
38.857
38.7718
38.7009
38.649
38.5971
38.1068
38.0143
37.9062
37.8137
37.7342
37.6675
37.6186
37.5697
37.0185
36.9345
36.8353
36.7499
36.6759
36.6135
36.5675
36.5216
35.9128
35.837
35.7463
35.6678
35.5993
35.5409
35.4978
35.4549
34.7919
34.7239
34.6415
34.5695
34.5063
34.452
34.4118
34.3718
33.6578
33.5972
33.5227
33.4571
33.399
33.3487
33.3114
33.2742
32.5124
32.4589
32.3919
32.3325
32.2794
32.2329
32.1984
32.1641
31.3576
31.3108
31.251
31.1974
31.1491
31.1064
31.0746
31.0431
30.1949
30.1545
30.1015
30.0536
30.0099
29.9709
29.9418
29.913
29.0261
28.9917
28.9452
28.9026
28.8634
28.8279
28.8014
28.7752
27.8526
27.8238
27.7834
27.7459
27.7109
27.6788
27.6549
27.6313
26.6756
26.6521
26.6175
26.5848
26.5538
26.5251
26.5036
26.4825
25.4966
25.478
25.4488
25.4207
25.3935
25.3679
25.3487
25.33
24.3165
24.3025
24.2784
24.2545
24.231
24.2084
24.1915
24.175
23.1366
23.1268
23.1074
23.0875
23.0674
23.0476
23.0329
23.0185
21.9576
21.9517
21.9368
21.9206
21.9036
21.8865
21.8738
21.8615
20.7805
20.7782
20.7673
20.7546
20.7406
20.726
20.7152
20.7048
19.606
19.607
19.5998
19.5902
19.5791
19.5668
19.5578
19.5491
18.4349
18.4388
18.435
18.4284
18.4197
18.4097
18.4023
18.3953
17.2677
17.2743
17.2735
17.2695
17.2632
17.2552
17.2493
17.2437
16.105
16.1139
16.1159
16.1143
16.1101
16.1039
16.0994
16.0951
14.9473
14.9582
14.9626
14.9632
14.9608
14.9563
14.953
14.9499
13.7949
13.8076
13.8141
13.8165
13.8159
13.8128
13.8106
13.8085
12.6483
12.6625
12.6708
12.6748
12.6756
12.6738
12.6725
12.6712
11.5077
11.523
11.5329
11.5383
11.5403
11.5396
11.5391
11.5383
10.3733
10.3896
10.4007
10.4072
10.4102
10.4105
10.4105
10.4102
9.24554
9.26248
9.27452
9.28184
9.28567
9.28662
9.28702
9.28701
8.1245
8.14181
8.15447
8.16234
8.16672
8.16818
8.16885
8.16895
7.01037
7.0278
7.0408
7.04897
7.05359
7.0553
7.05603
7.05608
5.90332
5.92059
5.93365
5.94184
5.94647
5.94818
5.9487
5.94849
4.80348
4.82035
4.83314
4.84104
4.8454
4.84691
4.84704
4.84635
3.71123
3.72737
3.73952
3.74674
3.7505
3.75154
3.75114
3.74983
2.62703
2.64182
2.65268
2.65859
2.66122
2.66144
2.66021
2.65787
1.55047
1.56174
1.56909
1.57199
1.57234
1.57091
1.56811
1.56432
0.496715
0.502006
0.504314
0.505099
0.505467
0.505518
0.50506
0.505826
29.4062
23.292
22.1884
20.3589
17.9167
14.9832
11.4511
7.28757
2.51251
-2.83702
-8.68733
-14.9231
-21.3722
-26.5921
-25.7918
29.9386
23.734
21.4095
19.0992
16.6363
13.9787
11.0355
7.76107
4.11432
0.0442461
-4.48264
-9.47686
-15.0188
-20.6305
-22.4046
27.5013
22.6082
20.4795
18.3239
16.1249
13.8467
11.4245
8.80806
5.93413
2.72402
-0.890794
-4.95422
-9.59003
-14.8348
-17.5288
25.3656
21.7382
19.9457
18.0736
16.2015
14.2914
12.2866
10.1349
7.77058
5.11465
2.09262
-1.35333
-5.32228
-9.97657
-12.7712
23.8066
21.1747
19.7027
18.1518
16.6103
15.0331
13.3713
11.5773
9.59127
7.34317
4.76273
1.78972
-1.66219
-5.74927
-8.35969
22.7087
20.8892
19.7326
18.4949
17.2515
15.9574
14.5725
13.0558
11.3575
9.41883
7.17801
4.58297
1.55345
-2.03018
-4.30571
22.0294
20.8787
20.0105
19.0486
18.0575
16.9947
15.8284
14.5257
13.0469
11.3442
9.37124
7.07924
4.396
1.24125
-0.636957
21.7283
21.1158
20.4934
19.7614
18.9755
18.0968
17.1005
15.9624
14.6521
13.1342
11.3739
9.33037
6.93261
4.13357
2.64866
21.7523
21.5605
21.1385
20.5914
19.9674
19.232
18.3666
17.3546
16.175
14.8063
13.2167
11.3776
9.2181
6.7139
5.57804
22.0463
22.1728
21.9092
21.5069
21.0071
20.3804
19.6146
18.6994
17.6268
16.3759
14.9261
13.2558
11.2964
9.03618
8.19298
22.5586
22.9171
22.7748
22.4823
22.0757
21.5299
20.8394
20.0037
19.0163
17.8606
16.5255
14.9949
13.2036
11.147
10.5341
23.2425
23.7624
23.7105
23.4985
23.16
22.6744
22.044
21.2735
20.3529
19.2755
18.0352
16.6206
14.9703
13.0841
12.6434
24.0593
24.6842
24.6971
24.5421
24.2521
23.8137
23.2339
22.5126
21.647
20.6347
19.4731
18.1547
16.6228
14.8784
14.558
24.976
25.6616
25.7186
25.6034
25.3497
24.9507
24.4094
23.7279
22.9083
21.9503
20.8541
19.6155
18.1822
16.5569
16.3109
25.9651
26.6783
26.7632
26.6765
26.4529
26.0845
25.5734
24.9257
24.1449
23.2325
22.1907
21.0179
19.6669
18.1403
17.9311
27.0047
27.7219
27.8246
27.7599
27.5599
27.2149
26.7296
26.111
25.3634
24.4892
23.4926
22.3738
21.0909
19.6464
19.4423
28.0777
28.7831
28.8991
28.8513
28.6686
28.3435
27.881
27.2879
26.5686
25.7265
24.767
23.6924
22.4657
21.0888
20.8646
29.1721
29.8574
29.9823
29.9466
29.7786
29.4715
29.0296
28.4588
27.7636
26.9483
26.0192
24.9803
23.7996
22.4782
22.2142
30.2792
30.9404
31.0704
31.0446
30.8901
30.5996
30.1761
29.6248
28.9502
28.157
27.2525
26.2424
25.0988
23.823
23.5035
31.3925
32.027
32.1608
32.1443
32.0025
31.7273
31.3203
30.7859
30.1286
29.3535
28.4688
27.4809
26.3678
25.1282
24.7427
32.5071
33.1145
33.252
33.2444
33.1146
32.8534
32.4611
31.9411
31.298
30.5375
29.668
28.6977
27.6084
26.3984
25.939
33.6195
34.201
34.3421
34.3432
34.2246
33.9759
33.5962
33.0883
32.4566
31.7074
30.8496
29.8923
28.8222
27.6357
27.0973
34.7265
35.2842
35.429
35.4382
35.3298
35.0921
34.7229
34.2247
33.6019
32.8611
32.0119
31.0643
30.0089
28.841
28.2215
35.8263
36.3618
36.51
36.5266
36.427
36.1984
35.8378
35.347
34.7307
33.9959
33.1527
32.2117
31.1677
30.0145
29.3129
36.9169
37.4312
37.582
37.6048
37.5123
37.291
36.9368
36.4514
35.8395
35.1086
34.2691
33.3321
32.2972
31.1549
30.3733
37.9954
38.4888
38.6412
38.6689
38.5817
38.3656
38.0159
37.5339
36.9245
36.1957
35.3578
34.4235
33.3946
32.2618
31.4012
39.0588
39.5309
39.6836
39.7142
39.6305
39.4177
39.0705
38.5901
37.9816
37.2532
36.4158
35.4821
34.4582
33.3323
32.3969
40.1033
40.5534
40.7044
40.7363
40.6541
40.4425
40.0961
39.6158
39.0068
38.2776
37.4392
36.5054
35.4849
34.3647
33.3583
41.1247
41.5514
41.6989
41.73
41.6474
41.4354
41.0883
40.6067
39.996
39.2649
38.425
37.49
36.4721
35.3566
34.2838
42.1184
42.5201
42.6621
42.6906
42.6057
42.3917
42.0424
41.5585
40.9452
40.2117
39.3693
38.433
37.4169
36.3055
35.1714
43.0796
43.4545
43.5891
43.6129
43.5242
43.3069
42.9543
42.4671
41.8507
41.1141
40.2693
39.331
38.3166
37.2088
36.0188
44.0032
44.3496
44.4747
44.4923
44.3983
44.1765
43.8199
43.3288
42.7087
41.969
41.1213
40.1814
39.1683
38.0643
36.8237
44.8842
45.2004
45.3143
45.3241
45.2236
44.9964
44.6351
44.1398
43.5159
42.7728
41.9228
40.9812
39.9696
38.8693
37.5839
45.7175
46.0022
46.1032
46.104
45.9961
45.7628
45.3964
44.8968
44.2691
43.5232
42.6707
41.728
40.718
39.6218
38.2971
46.4986
46.7504
46.8373
46.8279
46.7118
46.4721
46.1006
45.5967
44.9656
44.217
43.3628
42.4194
41.4112
40.3196
38.9611
47.2229
47.441
47.5126
47.4923
47.3675
47.1213
46.7447
46.2368
45.6028
44.8519
43.9966
43.053
42.0475
40.9608
39.5739
47.8864
48.0702
48.1256
48.0936
47.9602
47.7074
47.3261
46.8148
46.1782
45.4261
44.5702
43.6275
42.625
41.5441
40.1344
48.4856
48.6349
48.6732
48.6295
48.487
48.2281
47.8426
47.3285
46.6904
45.9375
45.0822
44.141
43.1423
42.068
40.6403
49.0172
49.132
49.153
49.097
48.946
48.6812
48.2923
47.7763
47.1374
46.385
45.5311
44.5925
43.5984
42.5314
41.0907
49.4788
49.5594
49.5628
49.4947
49.3352
49.0654
48.6737
48.1567
47.5183
46.7673
45.916
44.981
43.9923
42.9333
41.4843
49.8682
49.9152
49.9009
49.8209
49.6535
49.3792
48.9857
48.469
47.832
47.0837
46.236
45.3058
44.3233
43.2733
41.8203
50.1839
50.1981
50.1663
50.0747
49.8998
49.622
49.2277
48.7122
48.0781
47.3336
46.4909
45.5664
44.5912
43.551
42.0982
50.425
50.4074
50.3584
50.2554
50.0739
49.7932
49.3993
48.8863
48.2562
47.5171
46.6804
45.7629
44.7958
43.7662
42.3178
50.5908
50.5426
50.4767
50.3631
50.1755
49.893
49.5005
48.9913
48.3666
47.6339
46.8047
45.8955
44.9373
43.9194
42.4785
50.6814
50.6039
50.5217
50.3979
50.205
49.9215
49.5317
49.0275
48.4095
47.6847
46.8642
45.9643
45.0163
44.0107
42.581
50.6972
50.5919
50.494
50.3606
50.1631
49.8797
49.4934
48.9956
48.3855
47.67
46.8595
45.9702
45.0332
44.0409
42.6255
50.6391
50.5074
50.3946
50.2521
50.0509
49.7683
49.3868
48.8964
48.2959
47.5907
46.7916
45.914
44.9891
44.0109
42.6126
50.5083
50.352
50.2248
50.074
49.8695
49.5888
49.213
48.7314
48.1414
47.4482
46.6615
45.7969
44.8851
43.9217
42.5432
50.3065
50.1271
49.9864
49.8279
49.621
49.3426
48.9737
48.5019
47.9238
47.2436
46.4707
45.6202
44.7223
43.7746
42.4182
50.0356
49.8348
49.6814
49.5158
49.3069
49.0319
48.6704
48.2095
47.6445
46.9786
46.2206
45.3853
44.5023
43.571
42.2389
49.6978
49.4773
49.312
49.1398
48.9297
48.6584
48.3054
47.8563
47.3053
46.6547
45.9128
45.0938
44.2267
43.3125
42.0066
49.2954
49.057
48.8806
48.7025
48.4916
48.2247
47.8807
47.4441
46.9081
46.274
45.5493
44.7476
43.8972
43.0008
41.7228
48.831
48.5764
48.3899
48.2065
47.9952
47.7332
47.3986
46.9753
46.4552
45.8385
45.1319
44.3485
43.5157
42.6378
41.3892
48.3075
48.0384
47.8426
47.6544
47.4433
47.1864
46.8618
46.4523
45.9488
45.3503
44.6628
43.8985
43.0841
42.2254
41.0075
47.7277
47.4458
47.2415
47.0492
46.8384
46.587
46.2726
45.8774
45.3911
44.8117
44.144
43.3997
42.6045
41.7655
40.5795
47.0944
46.8014
46.5897
46.3936
46.1836
45.9378
45.6339
45.2533
44.7847
44.2249
43.5779
42.8543
42.079
41.2602
40.1071
46.4108
46.1083
45.8899
45.6907
45.4817
45.2417
44.9484
44.5826
44.132
43.5924
42.9666
42.2645
41.5097
40.7117
39.5922
45.6798
45.3694
45.1452
44.9433
44.7357
44.5015
44.2188
43.8679
43.4356
42.9166
42.3126
41.6325
40.8988
40.1221
39.0369
44.9044
44.5876
44.3585
44.1546
43.9484
43.7201
43.4479
43.1119
42.6981
42.1999
41.6181
40.9605
40.2485
39.4935
38.4431
44.0876
43.7659
43.5329
43.3272
43.1228
42.9003
42.6385
42.3173
41.9219
41.4447
40.8855
40.2509
39.5611
38.8281
37.813
43.2323
42.9072
42.671
42.4643
42.2617
42.045
41.7934
41.4868
41.1097
40.6537
40.1171
39.5059
38.8387
38.128
37.1484
42.3415
42.0143
41.7758
41.5684
41.3679
41.157
40.9154
40.623
40.2641
39.829
39.3154
38.7277
38.0834
37.3955
36.4516
41.4178
41.0899
40.8499
40.6424
40.4442
40.2389
40.0069
39.7285
39.3874
38.9733
38.4825
37.9186
37.2975
36.6325
35.7244
40.4641
40.1367
39.8961
39.6889
39.4931
39.2934
39.0708
38.8059
38.4823
38.0888
37.6208
37.0808
36.4831
35.8412
34.9688
39.483
39.1572
38.9167
38.7104
38.5173
38.323
38.1094
37.8577
37.5511
37.1779
36.7325
36.2163
35.6422
35.0236
34.1867
38.4769
38.1538
37.9143
37.7093
37.519
37.3301
37.1253
36.8861
36.596
36.2427
35.8197
35.3273
34.7768
34.1816
33.3801
37.4484
37.1291
36.8911
36.6879
36.5007
36.317
36.1206
35.8936
35.6195
35.2856
34.8846
34.4157
33.8889
33.3171
32.5508
36.3996
36.085
35.8494
35.6484
35.4645
35.286
35.0977
34.8823
34.6236
34.3086
33.9292
33.4836
32.9803
32.432
31.7005
35.3328
35.0238
34.7912
34.5929
34.4125
34.2392
34.0586
33.8544
33.6105
33.3137
32.9554
32.5328
32.053
31.528
30.8309
34.2501
33.9475
33.7185
33.5234
33.3466
33.1784
33.0054
32.8118
32.5821
32.3029
31.9652
31.5652
31.1086
30.6069
29.9437
33.1534
32.858
32.6331
32.4416
32.2687
32.1057
31.9398
31.7564
31.5402
31.2781
30.9603
30.5824
30.1488
29.6702
29.0404
32.0446
31.7569
31.5369
31.3493
31.1806
31.0226
30.8638
30.69
30.4867
30.2409
29.9425
29.5862
29.1752
28.7195
28.1225
30.9254
30.6461
30.4313
30.2481
30.0837
29.9309
29.7788
29.6142
29.4233
29.1931
28.9133
28.5781
28.1894
27.7563
27.1915
29.7974
29.527
29.3179
29.1394
28.9796
28.8319
28.6864
28.5306
28.3515
28.1362
27.8744
27.5596
27.1927
26.782
26.2487
28.6622
28.4011
28.1982
28.0247
27.8697
27.7271
27.588
27.4407
27.2727
27.0716
26.8271
26.5322
26.1866
25.7979
25.2953
27.5211
27.2698
27.0734
26.9052
26.7552
26.6179
26.4849
26.3457
26.1883
26.0008
25.7728
25.4971
25.1723
24.8053
24.3327
26.3754
26.1342
25.9447
25.7822
25.6373
25.5052
25.3784
25.2469
25.0996
24.925
24.7129
24.4556
24.1511
23.8052
23.3618
25.2264
24.9955
24.8131
24.6566
24.517
24.3903
24.2694
24.1454
24.0077
23.8454
23.6484
23.4089
23.1241
22.7989
22.3839
24.0751
23.8548
23.6799
23.5294
23.3954
23.274
23.1591
23.0422
22.9137
22.763
22.5804
22.358
22.0923
21.7874
21.3999
22.9226
22.7129
22.5457
22.4016
22.2732
22.1573
22.0481
21.9382
21.8184
21.6788
21.51
21.304
21.0567
20.7716
20.4107
21.7696
21.5709
21.4115
21.2739
21.1513
21.0408
20.9375
20.8343
20.7228
20.5937
20.438
20.2477
20.0183
19.7523
19.4173
20.6172
20.4294
20.278
20.1471
20.0304
19.9255
19.8278
19.7311
19.6276
19.5085
19.3653
19.19
18.9778
18.7304
18.4203
19.466
19.2891
19.1459
19.0218
18.9111
18.8117
18.7197
18.6293
18.5334
18.4239
18.2926
18.1317
17.936
17.7067
17.4205
18.3166
18.1507
18.0157
17.8985
17.7939
17.7001
17.6137
17.5294
17.4409
17.3405
17.2204
17.0733
16.8935
16.6818
16.4187
17.1697
17.0147
16.888
16.7778
16.6794
16.5912
16.5103
16.432
16.3505
16.2588
16.1495
16.0154
15.851
15.6564
15.4154
16.0258
15.8816
15.7633
15.66
15.5678
15.4853
15.4098
15.3374
15.2626
15.1791
15.0801
14.9586
14.809
14.6309
14.4112
14.8852
14.7519
14.6418
14.5456
14.4596
14.3827
14.3127
14.2459
14.1776
14.1019
14.0126
13.9031
13.7679
13.6058
13.4067
13.7485
13.6258
13.524
13.4349
13.355
13.2837
13.219
13.1577
13.0956
13.0273
12.9472
12.8493
12.7281
12.5818
12.4022
12.6159
12.5037
12.4102
12.328
12.2544
12.1886
12.1291
12.0731
12.0168
11.9554
11.8838
11.7969
11.6897
11.5595
11.3985
11.4877
11.3858
11.3005
11.2252
11.1577
11.0974
11.043
10.9921
10.9413
10.8863
10.823
10.7473
10.653
10.5376
10.3955
10.3642
10.2724
10.1951
10.1267
10.0653
10.0104
9.96097
9.91499
9.86945
9.82073
9.76655
9.7011
9.61807
9.51569
9.39146
9.24556
9.16368
9.0943
9.03269
8.97717
8.92756
8.88299
8.84174
8.80121
8.75948
8.71379
8.65729
8.58503
8.49522
8.38692
8.13195
8.05974
7.99813
7.94316
7.89347
7.84901
7.80913
7.77241
7.73681
7.70219
7.66345
7.61535
7.55368
7.47639
7.38343
7.02353
6.96074
6.90675
6.85828
6.81427
6.77477
6.73934
6.70689
6.67638
6.64758
6.61502
6.57491
6.52345
6.45848
6.38054
5.92033
5.86677
5.82027
5.77817
5.73967
5.7049
5.67359
5.64496
5.61942
5.5951
5.56807
5.53536
5.49354
5.44048
5.37711
4.82244
4.77803
4.73896
4.70312
4.66996
4.63967
4.61214
4.58686
4.56527
4.54446
4.52214
4.49597
4.46302
4.42134
4.37206
3.73004
3.69466
3.66297
3.63332
3.60539
3.57938
3.55533
3.53298
3.514
3.49584
3.47721
3.45648
3.4314
3.40035
3.36454
2.64157
2.61474
2.59013
2.56652
2.54369
2.5218
2.50089
2.48096
2.46348
2.44683
2.43054
2.41381
2.39527
2.37385
2.35076
1.55307
1.53621
1.51904
1.50103
1.48224
1.46271
1.44257
1.42212
1.40258
1.38365
1.36588
1.34959
1.33474
1.32124
1.31039
0.513109
0.522005
0.522482
0.514326
0.499289
0.478846
0.45442
0.427499
0.399823
0.372881
0.348504
0.328438
0.3142
0.307173
0.308697
-32.9559
-29.9409
-28.6186
-27.6298
-26.3948
-24.8703
-23.0529
-20.9506
-18.5914
-16.0159
-13.2635
-10.3754
-7.38826
-4.33947
-1.26962
1.77526
4.74175
7.57313
10.2136
12.6178
14.7584
16.6285
18.2366
19.5992
20.7332
21.6535
22.3694
22.8867
23.2113
23.3491
23.3087
23.1004
22.7366
22.23
21.591
20.8278
19.9469
18.9365
17.679
16.5523
-30.2993
-28.6869
-29.2114
-29.6954
-29.6892
-29.2194
-28.2831
-26.8744
-25.0098
-22.7226
-20.0571
-17.0664
-13.8097
-10.352
-6.76393
-3.12142
0.495392
4.00591
7.33447
10.4182
13.2129
15.6952
17.8582
19.7059
21.2462
22.488
23.4392
24.1073
24.5018
24.6349
24.5224
24.1827
23.6366
22.9054
22.0081
20.9616
19.7811
18.4629
16.9149
15.5923
-25.2444
-23.5748
-24.2038
-24.7548
-24.8571
-24.5562
-23.8499
-22.7301
-21.2057
-19.2989
-17.0404
-14.4692
-11.6309
-8.57831
-5.37154
-2.07828
1.22699
4.46625
7.56376
10.4537
13.0867
15.4315
17.4729
19.2064
20.6341
21.7614
22.5959
23.1477
23.4299
23.4592
23.2553
22.84
22.2364
21.4672
20.5523
19.5091
18.3533
17.0819
15.6109
14.3614
-19.9433
-18.3175
-18.9229
-19.4292
-19.5233
-19.2572
-18.6346
-17.6525
-16.3223
-14.6648
-12.7076
-10.4843
-8.03436
-5.40285
-2.64139
0.191715
3.03222
5.81282
8.46849
10.943
13.1942
15.1951
16.9319
18.3997
19.5991
20.5342
21.2113
21.6393
21.8303
21.7992
21.564
21.1443
20.5608
19.8332
18.979
18.013
16.9485
15.7807
14.4277
13.3033
-15.1256
-13.6402
-14.2775
-14.8035
-14.9459
-14.7602
-14.2535
-13.4261
-12.2898
-10.8643
-9.17461
-7.25117
-5.12914
-2.84889
-0.456385
1.99663
4.45352
6.85558
9.14669
11.2788
13.2161
14.9351
16.4235
17.676
18.6922
19.4744
20.0278
20.3598
20.481
20.4048
20.1472
19.7261
19.16
18.4665
17.6611
16.7567
15.7649
14.6795
13.4239
12.4046
-10.7837
-9.40268
-10.0663
-10.6182
-10.814
-10.7118
-10.3211
-9.64396
-8.69213
-7.48376
-6.04161
-4.39278
-2.56864
-0.605099
1.45704
3.57198
5.68989
7.75951
9.73226
11.5668
13.232
14.7072
15.9807
17.0467
17.9036
18.5526
18.9976
19.2451
19.3044
19.1878
18.91
18.4872
17.9362
17.2728
16.5108
15.6616
14.7352
13.7248
12.5581
11.6345
-6.8721
-5.5444
-6.21742
-6.78502
-7.0233
-6.99267
-6.70436
-6.16139
-5.37539
-4.36324
-3.14559
-1.74677
-0.19472
1.47874
3.23758
5.04161
6.84739
8.61062
10.2897
11.8493
13.2629
14.5122
15.5864
16.4795
17.1891
17.7156
18.0617
18.233
18.2378
18.0871
17.7941
17.3735
16.8404
16.2087
15.4906
14.6958
13.8329
12.8944
11.8128
10.9774
-3.35503
-2.04918
-2.71984
-3.29371
-3.56483
-3.59527
-3.39717
-2.97411
-2.33736
-1.50254
-0.488427
0.683177
1.98743
3.39623
4.87796
6.39761
7.91768
9.40031
10.8102
12.1177
13.3002
14.342
15.233
15.9676
16.5427
16.9579
17.2152
17.3192
17.277
17.0985
16.7953
16.3805
15.8674
15.2683
14.5935
13.8514
13.0492
12.1788
11.1765
10.4224
-0.187166
1.10899
0.450299
-0.121473
-0.417144
-0.499567
-0.381153
-0.0657045
0.4361
1.10991
1.93877
2.90328
3.9815
5.14882
6.37775
7.63812
8.89789
10.1251
11.2902
12.3683
13.3407
14.1937
14.9184
15.5091
15.9627
16.278
16.4564
16.5014
16.4191
16.2181
15.9087
15.5023
15.0104
14.4437
13.811
13.1191
12.3741
11.5673
10.639
9.95798
2.67606
3.96463
3.32469
2.76177
2.44847
2.32193
2.36991
2.58862
2.96811
3.49535
4.15521
4.93058
5.8023
6.74907
7.74732
8.77137
9.79424
10.7893
11.7321
12.6022
13.384
14.066
14.6401
15.101
15.4453
15.6713
15.7798
15.7733
15.6572
15.4385
15.1261
14.7301
14.2601
13.7253
13.133
12.4887
11.7972
11.0495
10.1892
9.57475
5.27887
6.55248
5.93607
5.38657
5.06063
4.8962
4.8814
5.01263
5.28077
5.67413
6.17937
6.78162
7.46442
8.20961
8.99731
9.80602
10.6134
11.3977
12.139
12.8208
13.4302
13.9576
14.3958
14.7399
14.9861
15.1327
15.1796
15.1287
14.9841
14.7518
14.4394
14.0552
13.6076
13.104
12.5502
11.9506
11.3089
10.6158
9.81841
9.26298
7.65876
8.90745
8.31624
7.78242
7.44685
7.24895
7.17732
7.22867
7.39472
7.66516
8.02844
8.47185
8.98149
9.54226
10.1377
10.7503
11.3619
11.955
12.5139
13.0255
13.4792
13.8672
14.1832
14.4225
14.5813
14.6575
14.6505
14.5613
14.3932
14.151
13.8409
13.4698
13.0445
12.571
12.0537
11.496
10.9004
10.2575
9.51723
9.01511
9.85039
11.0611
10.4952
9.97718
9.63314
9.40445
9.28034
9.2578
9.32948
9.4864
9.71876
10.016
10.3666
10.7584
11.1783
11.6122
12.0459
12.4658
12.8598
13.2177
13.5312
13.7939
14.0002
14.1458
14.2269
14.241
14.187
14.0653
13.8781
13.6291
13.3233
12.966
12.5628
12.1181
11.6353
11.1164
10.5633
9.96621
9.27849
8.823
11.8826
13.0429
12.5002
11.9963
11.6434
11.3852
11.2115
11.1196
11.1032
11.1546
11.2657
11.4279
11.6322
11.869
12.1283
12.3994
12.6715
12.9346
13.1797
13.399
13.5864
13.7366
13.8448
13.9069
13.9192
13.8788
13.7842
13.635
13.4326
13.1795
12.8794
12.5365
12.1549
11.7377
11.2871
10.8042
10.29
9.7347
9.09426
8.68047
13.7809
14.8783
14.3555
13.8628