/*--------------------------------*- C++ -*----------------------------------*\
| =========                 |                                                 |
| \\      /  F ield         | OpenFOAM: The Open Source CFD Toolbox           |
|  \\    /   O peration     | Version:  2206                                  |
|   \\  /    A nd           | Website:  www.openfoam.com                      |
|    \\/     M anipulation  |                                                 |
\*---------------------------------------------------------------------------*/
FoamFile
{
    version     2.0;
    format      ascii;
    arch        "LSB;label=32;scalar=64";
    class       surfaceScalarField;
    location    "200";
    object      phi;
}
// * * * * * * * * * * * * * * * * * * * * * * * * * * * * * * * * * * * * * //

dimensions      [0 3 -1 0 0 0 0];

oriented        oriented;

internalField   nonuniform List<scalar> 
25506
(
0.000201062
0.037299
0.000444855
0.0372563
0.000744603
0.0372003
0.000814128
0.0374305
0.000831749
0.0374824
0.00083146
0.0375003
0.000820986
0.0375105
0.0375156
0.00080539
0.00172912
0.0355699
0.00194023
0.0370452
0.00193818
0.0372024
0.0019094
0.0374593
0.00187443
0.0375174
0.00183448
0.0375403
0.00179271
0.0375523
0.0375566
0.00175171
0.00261501
0.032955
0.00316895
0.0364913
0.00314419
0.0372272
0.00305308
0.0375505
0.00295473
0.0376158
0.00286047
0.0376346
0.00277597
0.0376368
0.0376306
0.00270197
0.00351703
0.029438
0.00434127
0.0356671
0.00432785
0.0372406
0.0041876
0.0376908
0.00402768
0.0377757
0.00387908
0.0377833
0.0037504
0.0377655
0.0377393
0.00364172
0.00417012
0.0252679
0.00539939
0.0344379
0.00546747
0.0371726
0.00528347
0.0378748
0.00506166
0.0379976
0.00486216
0.0379828
0.00469396
0.0379337
0.0378786
0.00455472
0.00441035
0.0208576
0.00613403
0.0327143
0.00642635
0.0368803
0.0062678
0.0380334
0.00601356
0.0382519
0.00577861
0.0382178
0.00558321
0.0381292
0.0380379
0.00542386
0.00418255
0.0166751
0.00640634
0.0304905
0.00706843
0.0362183
0.00705232
0.0380496
0.00683321
0.038471
0.0065984
0.0384527
0.00639763
0.03833
0.0382011
0.00623446
0.0035877
0.0130874
0.00621963
0.0278586
0.00734343
0.0350945
0.0075879
0.0378052
0.00748794
0.038571
0.00730323
0.0386374
0.00712644
0.0385068
0.0383483
0.0069793
0.00283497
0.0102525
0.00570204
0.0249916
0.00729708
0.0334995
0.00788378
0.0372185
0.00797721
0.0384777
0.00789312
0.0387216
0.00777148
0.0386285
0.0384593
0.00766047
0.00211903
0.00813349
0.00501896
0.0220917
0.0070224
0.0314961
0.00798585
0.0362551
0.00832445
0.0381391
0.0083826
0.0386635
0.00834402
0.0386672
0.0385161
0.00828726
0.00154502
0.0065885
0.00430181
0.019335
0.00660621
0.0291917
0.00794271
0.0349187
0.00855775
0.0375242
0.00879017
0.0384312
0.00885829
0.0385991
0.038503
0.00887138
0.00113242
0.00545611
0.00363061
0.0168368
0.00610872
0.0267137
0.00778705
0.0332405
0.00869603
0.0366153
0.00912905
0.0379983
0.00932534
0.0384029
0.0384055
0.00942291
0.000852565
0.00460358
0.00304388
0.0146456
0.00556922
0.0241884
0.00753592
0.0312739
0.00874578
0.0354055
0.00940339
0.0373409
0.00974994
0.0380565
0.038208
0.0099476
0.000662685
0.00394091
0.0025503
0.012758
0.00501594
0.0217229
0.00719903
0.0290909
0.00870444
0.0339003
0.00960873
0.0364368
0.0101298
0.0375356
0.0378918
0.0104461
0.000525371
0.00341555
0.00213827
0.0111452
0.00446907
0.0193922
0.00678583
0.0267744
0.00856556
0.0321208
0.00973433
0.0352682
0.0104564
0.0368137
0.0374348
0.0109136
0.000415697
0.00299981
0.0017862
0.00977478
0.00393884
0.0172397
0.00630734
0.0244061
0.00832322
0.0301052
0.00976586
0.0338258
0.0107159
0.0358639
0.0368105
0.0113403
0.000321986
0.00267777
0.00147364
0.00862318
0.00342484
0.0152887
0.00577348
0.0220577
0.00797351
0.0279054
0.00968753
0.0321122
0.0108902
0.0346615
0.0359896
0.0117113
0.000243616
0.00243404
0.00119182
0.00767503
0.00292258
0.013558
0.00518896
0.0197916
0.00751259
0.0255821
0.00948198
0.0301431
0.0109571
0.0331867
0.0349405
0.0120062
0.000185529
0.00224843
0.000948038
0.0069125
0.00243736
0.0120688
0.00455682
0.0176724
0.00693275
0.0232064
0.00912693
0.0279493
0.0108878
0.0314261
0.0336304
0.0121982
0.000149608
0.0020987
0.000757197
0.00630489
0.00199552
0.0108305
0.00389623
0.0157719
0.00622986
0.020873
0.008592
0.0255873
0.0106408
0.0293775
0.0320239
0.0122471
0.000131485
0.00196716
0.000625958
0.00581031
0.00163484
0.00982168
0.00326324
0.0141436
0.00543534
0.018701
0.00785771
0.0231652
0.01016
0.0270753
0.0300912
0.0120931
0.000124033
0.00184305
0.000547227
0.00538705
0.00137887
0.00899004
0.00273571
0.0127868
0.00464833
0.0167884
0.00697396
0.0208396
0.00941452
0.0246347
0.027849
0.0116564
0.000122282
0.00172072
0.000507405
0.00500183
0.00122384
0.0082736
0.00236474
0.0116459
0.00399773
0.0151554
0.0060944
0.0187429
0.00848648
0.0222425
0.0254252
0.0109106
0.000123746
0.00159691
0.000494105
0.00463141
0.00114847
0.00761921
0.00214889
0.0106454
0.00355664
0.0137476
0.0053915
0.0169079
0.00758912
0.0200448
0.023019
0.00999501
0.00012746
0.0014694
0.000498096
0.00426068
0.00112815
0.00698914
0.00205347
0.00971995
0.00331583
0.0124851
0.0049415
0.0152821
0.00691582
0.0180704
0.0207674
0.00916764
0.000132718
0.00133661
0.000512718
0.00388061
0.00114199
0.00635982
0.00203746
0.00882438
0.00322254
0.0113
0.00471553
0.013789
0.00651626
0.0162696
0.0186915
0.00859194
0.000138812
0.00119774
0.000532537
0.0034868
0.00117346
0.00571883
0.00206536
0.0079324
0.00321777
0.0101475
0.00463917
0.0123675
0.00632912
0.0145796
0.0167521
0.00826862
0.000144784
0.00105289
0.000552707
0.0030788
0.00120917
0.0050623
0.00210897
0.00703251
0.00325202
0.00900437
0.00463861
0.0109808
0.00626449
0.0129537
0.0149026
0.00811392
0.000149563
0.000903273
0.000568585
0.0026597
0.00123771
0.0043931
0.00214595
0.0061242
0.00328699
0.00786326
0.00465562
0.0096121
0.00624396
0.0113652
0.0131094
0.00803719
0.000151921
0.000751297
0.000575525
0.00223602
0.00124867
0.00371989
0.00215733
0.00521547
0.00329206
0.00672847
0.00464482
0.00825927
0.0062059
0.00980414
0.0113543
0.00796087
0.000150489
0.00060076
0.000568628
0.00181782
0.00123169
0.00305676
0.00212537
0.00432174
0.00323997
0.00561381
0.00456736
0.00693184
0.006098
0.00827345
0.00963354
0.00781875
0.000143766
0.000456952
0.000542774
0.00141876
0.00117634
0.00242315
0.00203268
0.00346535
0.00310476
0.00454168
0.004387
0.00564956
0.00587232
0.00678809
0.00795584
0.00754997
0.000130282
0.000326636
0.000493114
0.00105589
0.00107287
0.00184334
0.00186314
0.00267504
0.00286225
0.00354253
0.00406989
0.00444189
0.00548388
0.00537406
0.00634202
0.00709766
0.00010894
0.000217669
0.000416226
0.00074857
0.000914434
0.0013451
0.00160495
0.00198449
0.00249375
0.0026537
0.0035882
0.00334742
0.00489376
0.00406846
0.00482503
0.00641072
7.96111e-05
0.000138038
0.000312061
0.000516095
0.000700746
0.000956382
0.00125621
0.001429
0.00199315
0.00191673
0.00292816
0.00241238
0.00407702
0.00291957
0.00345143
0.00545058
4.39376e-05
9.40866e-05
0.00018654
0.000373475
0.000443186
0.000699716
0.000832994
0.00103917
0.00137826
0.00137144
0.00210426
0.00168635
0.00303842
0.00198537
0.00228345
0.0042064
6.11979e-06
8.79589e-05
5.40091e-05
0.000325574
0.000169797
0.000583916
0.000378104
0.000830849
0.000704838
0.00104469
0.00117988
0.00121128
0.00183978
0.00132545
0.00139627
0.00272692
-2.69606e-05
0.000114916
-6.24645e-05
0.000361072
-7.3547e-05
0.000594991
-3.48506e-05
0.000792137
7.71606e-05
0.000932658
0.000289399
0.000999013
0.000639078
0.000975726
0.000854336
0.001181
-4.72149e-05
0.000162127
-0.000136124
0.000449978
-0.000232243
0.000691103
-0.000313147
0.000873026
-0.00036165
0.000981144
-0.000360222
0.000997558
-0.000282344
0.000897813
0.000642113
-7.01335e-05
-4.95755e-05
0.000211699
-0.000149872
0.000550268
-0.000269355
0.000810581
-0.000387734
0.00099139
-0.000490558
0.00108396
-0.000564784
0.00107176
-0.000591888
0.000924905
0.000581883
-0.00053166
-2.83693e-05
0.000240066
-8.75821e-05
0.000609477
-0.000156812
0.000879806
-0.000218723
0.0010533
-0.000256616
0.00112185
-0.000251557
0.00106669
-0.000178248
0.00085159
0.000403634
-1.90988e-05
0.000259162
-5.97447e-05
0.000650119
-0.000105923
0.000925981
-0.000142579
0.00108995
-0.000155349
0.00113461
-0.000131521
0.00104286
-6.71672e-05
0.000787233
0.000336466
-1.10726e-05
0.000270232
-3.52213e-05
0.000674265
-6.21237e-05
0.000952879
-8.14464e-05
0.00110926
-8.41609e-05
0.00113732
-6.50444e-05
0.00102374
-2.89126e-05
0.000751098
0.000307552
-4.83928e-06
0.000275069
-1.59905e-05
0.000685413
-2.84486e-05
0.000965334
-3.68043e-05
0.00111762
-3.67091e-05
0.00113722
-2.67074e-05
0.00101374
-1.08773e-05
0.000735266
0.000296674
-4.94013e-08
0.000275116
-1.12978e-06
0.000686491
-2.76056e-06
0.000966961
-3.81248e-06
0.00111866
-3.45842e-06
0.00113686
-1.84795e-06
0.00101212
-2.82748e-07
0.000733698
0.00029639
3.92876e-06
0.000271186
1.11385e-05
0.000679279
1.83392e-05
0.000959758
2.3151e-05
0.00111385
2.35926e-05
0.00113642
1.83291e-05
0.00101738
8.32343e-06
0.000743702
0.000304714
7.54516e-06
0.00026364
2.2064e-05
0.000664759
3.72025e-05
0.000944617
4.79119e-05
0.00110314
4.9801e-05
0.00113453
3.9659e-05
0.00102752
1.86729e-05
0.000764688
0.000323386
1.0746e-05
0.000252894
3.13913e-05
0.000644112
5.3483e-05
0.000922525
7.05406e-05
0.00108608
7.65214e-05
0.00112855
6.54037e-05
0.00103864
3.43895e-05
0.000795702
0.000357777
1.27536e-05
0.000240139
3.66549e-05
0.00062021
6.26561e-05
0.000896521
8.47815e-05
0.00106395
9.74342e-05
0.00111589
9.30508e-05
0.00104302
6.00423e-05
0.000828713
0.00041782
1.20345e-05
0.000228104
3.30316e-05
0.000599212
5.50153e-05
0.000874534
7.42575e-05
0.00104471
8.82327e-05
0.00110191
9.32318e-05
0.00103802
8.06094e-05
0.000841337
0.000498429
8.01643e-06
0.000220087
1.63887e-05
0.000590837
1.73005e-05
0.000873621
6.79518e-06
0.00105521
-2.05143e-05
0.00112922
-7.82114e-05
0.00109572
-0.00020111
0.000964234
0.000764655
-0.000467339
-7.17922e-06
0.000227267
-3.42528e-05
0.00061791
-8.35515e-05
0.000922917
-0.000156568
0.00112822
-0.000257568
0.00123022
-0.00039729
0.00123544
-0.000596432
0.00116337
0.00105449
-0.000886272
-2.44515e-05
0.000251718
-9.13264e-05
0.000684784
-0.000194355
0.00102594
-0.000328268
0.00126213
-0.000489976
0.00139192
-0.00067919
0.00142465
-0.000896846
0.00138103
0.00129421
-0.00113657
-4.08274e-05
0.000292546
-0.00014508
0.000789035
-0.000296629
0.00117749
-0.000481295
0.00144679
-0.000686564
0.00159719
-0.000901007
0.00163909
-0.00111254
0.00159255
0.00148619
-0.00130452
-5.51934e-05
0.000347739
-0.00019182
0.000925661
-0.000384143
0.00136982
-0.00060904
0.00167169
-0.000844992
0.00183314
-0.00107132
0.00186542
-0.00126756
0.0017888
0.00163201
-0.00141339
-6.7267e-05
0.000415006
-0.000230447
0.00108884
-0.000455354
0.00159472
-0.00071112
0.00192745
-0.000968471
0.00209049
-0.00119876
0.00209571
-0.00137419
0.00196422
0.00172795
-0.00147012
-7.65313e-05
0.000491538
-0.00025917
0.00127148
-0.000507259
0.00184281
-0.000784296
0.00220449
-0.00105497
0.00236117
-0.00128338
0.00232411
-0.00143309
0.00211393
0.00176615
-0.00147129
-8.1519e-05
0.000573056
-0.000273366
0.00146333
-0.000531516
0.00210096
-0.000816947
0.00248992
-0.00109088
0.00263511
-0.00131118
0.0025444
-0.00143046
0.00223321
0.00173542
-0.00139972
-7.96969e-05
0.000652753
-0.000265298
0.00164893
-0.000513726
0.00234939
-0.000787383
0.00276358
-0.00104789
0.00289561
-0.00124988
0.0027464
-0.00133401
0.00231734
0.00161817
-0.00121676
-6.8569e-05
0.000721321
-0.00022716
0.00180752
-0.000438122
0.00256035
-0.000668181
0.00299364
-0.000882915
0.00311034
-0.00103931
0.00290279
-0.00106984
0.00234787
0.00139313
-0.000844803
-4.67882e-05
0.000768109
-0.000156106
0.00191684
-0.000296581
0.00270083
-0.00043527
0.00313233
-0.000534733
0.00320981
-0.000548293
0.00291635
-0.000409137
0.00220872
0.000983995
-2.61621e-05
0.00079427
-8.89107e-05
0.00197959
-0.000166449
0.00277837
-0.000233147
0.00319903
-0.000261725
0.00323838
-0.000226943
0.00288157
-0.0001191
0.00210087
0.000864894
-1.22681e-05
0.000806538
-4.33776e-05
0.00201069
-8.11317e-05
0.00281612
-0.000110071
0.00322797
-0.000115688
0.003244
-8.98541e-05
0.00285573
-4.02876e-05
0.0020513
0.000824607
-4.54811e-06
0.000811085
-1.76451e-05
0.00202379
-3.37802e-05
0.00283226
-4.51531e-05
0.00323934
-4.52463e-05
0.0032441
-3.23788e-05
0.00284287
-1.2889e-05
0.00203181
0.000811717
-1.00045e-06
0.000812086
-5.30793e-06
0.0020281
-1.10898e-05
0.00283804
-1.50148e-05
0.00324327
-1.44949e-05
0.00324358
-9.47719e-06
0.00283785
-3.16432e-06
0.0020255
0.000808553
2.82146e-07
0.000811803
-3.94683e-07
0.00202878
-1.82213e-06
0.00283947
-2.87245e-06
0.00324432
-2.66365e-06
0.00324337
-1.35387e-06
0.00283654
-1.56324e-07
0.0020243
0.000808397
5.47007e-07
0.000811256
1.0292e-06
0.00202829
1.12932e-06
0.00283937
1.05449e-06
0.00324439
1.02022e-06
0.0032434
9.40596e-07
0.00283662
5.3718e-07
0.00202471
0.000808934
4.51746e-07
0.000810804
1.09093e-06
0.00202765
1.54881e-06
0.00283891
1.72686e-06
0.00324421
1.61631e-06
0.00324351
1.19829e-06
0.00283704
5.27119e-07
0.00202538
0.000809461
2.86767e-07
0.000810517
7.72098e-07
0.00202717
1.1848e-06
0.00283849
1.37545e-06
0.00324402
1.27949e-06
0.00324361
9.02084e-07
0.00283741
3.66268e-07
0.00202591
0.000809827
1.50979e-07
0.000810365
4.46687e-07
0.00202687
7.26979e-07
0.00283821
8.70979e-07
0.00324388
8.15088e-07
0.00324366
5.65182e-07
0.00283766
2.21628e-07
0.00202626
0.000810048
6.36486e-08
0.000810301
2.17001e-07
0.00202672
3.81527e-07
0.00283805
4.79158e-07
0.00324378
4.59681e-07
0.00324368
3.20992e-07
0.0028378
1.25499e-07
0.00202645
0.000810173
1.48075e-08
0.000810286
8.07078e-08
0.00202665
1.69142e-07
0.00283796
2.33836e-07
0.00324371
2.38104e-07
0.00324368
1.73228e-07
0.00283786
7.01596e-08
0.00202655
0.000810243
-8.39492e-09
0.000810294
1.08579e-08
0.00202663
5.50744e-08
0.00283791
9.95167e-08
0.00324367
1.16713e-07
0.00324366
9.31988e-08
0.00283789
4.1076e-08
0.0020266
0.000810284
-1.77155e-08
0.000810311
-2.01401e-08
0.00202663
1.82707e-09
0.00283789
3.41984e-08
0.00324364
5.62236e-08
0.00324363
5.32651e-08
0.00283789
2.66172e-08
0.00202663
0.000810311
-1.93691e-08
0.00081033
-2.98652e-08
0.00202664
-1.89006e-08
0.00283788
6.25038e-09
0.00324361
2.88628e-08
0.00324361
3.41747e-08
0.00283788
1.93735e-08
0.00202664
0.00081033
-1.8023e-08
0.000810347
-3.00723e-08
0.00202665
-2.35007e-08
0.00283787
-3.40414e-09
0.00324359
1.70039e-08
0.00324359
2.47928e-08
0.00283787
1.52614e-08
0.00202665
0.000810345
-1.49365e-08
0.000810361
-2.56666e-08
0.00202666
-2.15151e-08
0.00283787
-5.38016e-09
0.00324357
1.19336e-08
0.00324357
1.91832e-08
0.00283786
1.22347e-08
0.00202666
0.000810357
-1.16673e-08
0.000810372
-2.00974e-08
0.00202667
-1.68234e-08
0.00283786
-4.49764e-09
0.00324356
8.84662e-09
0.00324356
1.47302e-08
0.00283786
9.41878e-09
0.00202666
0.000810366
-7.90972e-09
0.000810379
-1.37074e-08
0.00202668
-1.16683e-08
0.00283786
-3.0307e-09
0.00324355
6.37895e-09
0.00324355
1.02879e-08
0.00283785
6.48473e-09
0.00202666
0.000810372
-4.39132e-09
0.000810383
-7.55567e-09
0.00202668
-6.19946e-09
0.00283786
-1.4657e-09
0.00324354
3.57642e-09
0.00324354
5.66658e-09
0.00283785
3.39436e-09
0.00202667
0.000810375
-5.03261e-10
0.000810383
-9.67254e-10
0.00202668
-8.96382e-10
0.00283785
-3.03735e-11
0.00324354
8.41608e-10
0.00324354
8.28451e-10
0.00283785
1.84581e-10
0.00202667
0.000810375
3.16778e-09
0.000810378
5.42049e-09
0.00202667
4.74912e-09
0.00283785
1.56062e-09
0.00324354
-2.09598e-09
0.00324354
-4.00751e-09
0.00283785
-3.05594e-09
0.00202666
0.000810371
7.22901e-09
0.00081037
1.22889e-08
0.00202667
1.02862e-08
0.00283785
3.11176e-09
0.00324355
-4.8155e-09
0.00324355
-8.87683e-09
0.00283785
-6.29288e-09
0.00202666
0.000810365
1.09863e-08
0.000810358
1.86603e-08
0.00202666
1.56541e-08
0.00283786
4.22881e-09
0.00324356
-8.19028e-09
0.00324356
-1.39258e-08
0.00283786
-9.55673e-09
0.00202665
0.000810355
1.47669e-08
0.000810343
2.4298e-08
0.00202665
1.88532e-08
0.00283786
2.91709e-09
0.00324357
-1.33734e-08
0.00324357
-2.01867e-08
0.00283786
-1.31473e-08
0.00202665
0.000810342
1.71648e-08
0.000810325
2.61378e-08
0.00202664
1.65058e-08
0.00283787
-5.0842e-09
0.00324359
-2.46752e-08
0.00324359
-2.99912e-08
0.00283787
-1.78585e-08
0.00202663
0.000810323
1.70881e-08
0.000810307
1.98515e-08
0.00202663
1.28779e-10
0.00283789
-2.92055e-08
0.00324362
-4.98517e-08
0.00324361
-4.8693e-08
0.00283786
-2.55547e-08
0.00202661
0.000810297
1.03885e-08
0.000810295
-4.99511e-09
0.00202665
-4.48407e-08
0.00283793
-8.64525e-08
0.00324366
-1.04683e-07
0.00324363
-8.6308e-08
0.00283784
-3.99488e-08
0.00202656
0.000810257
-8.52517e-09
0.000810303
-6.41252e-08
0.0020267
-1.43603e-07
0.00283801
-2.05012e-07
0.00324372
-2.14037e-07
0.00324364
-1.60196e-07
0.00283779
-6.77891e-08
0.00202647
0.000810189
-5.01518e-08
0.000810352
-1.821e-07
0.00202683
-3.29537e-07
0.00283815
-4.22256e-07
0.00324381
-4.12988e-07
0.00324363
-2.95276e-07
0.00283767
-1.1969e-07
0.00202629
0.000810069
-1.2618e-07
0.000810477
-3.82947e-07
0.00202709
-6.32947e-07
0.0028384
-7.68938e-07
0.00324395
-7.31047e-07
0.00324359
-5.17209e-07
0.00283746
-2.08932e-07
0.00202598
0.00080986
-2.45416e-07
0.000810721
-6.67482e-07
0.00202751
-1.03252e-06
0.00283876
-1.21092e-06
0.00324412
-1.14269e-06
0.00324352
-8.2132e-07
0.00283713
-3.42473e-07
0.0020255
0.000809517
-3.90149e-07
0.000811111
-9.39789e-07
0.00202806
-1.33368e-06
0.00283916
-1.49713e-06
0.00324429
-1.42436e-06
0.00324344
-1.08148e-06
0.00283679
-4.89901e-07
0.00202491
0.000809026
-4.68498e-07
0.000811578
-8.50017e-07
0.00202844
-8.8924e-07
0.00283919
-8.08443e-07
0.0032442
-8.17336e-07
0.00324345
-8.14374e-07
0.00283678
-4.94231e-07
0.00202459
0.000808532
-2.10275e-07
0.000811787
5.22309e-07
0.0020277
1.94736e-06
0.00283777
2.96052e-06
0.00324319
2.7143e-06
0.00324369
1.3816e-06
0.00283811
1.66852e-07
0.0020258
0.000808698
1.00197e-06
0.000810784
5.18674e-06
0.00202352
1.07632e-05
0.00283219
1.45219e-05
0.00323943
1.39811e-05
0.00324423
9.11214e-06
0.00284298
3.02529e-06
0.00203189
0.000811723
4.35107e-06
0.000806432
1.68992e-05
0.00201097
3.23653e-05
0.00281672
4.32561e-05
0.00322854
4.33141e-05
0.00324417
3.09528e-05
0.00285534
1.22965e-05
0.00205054
0.000824019
1.16786e-05
0.000794752
4.1465e-05
0.00198118
7.77051e-05
0.00278048
0.000105504
0.00320074
0.000110878
0.0032388
8.60552e-05
0.00288016
3.85527e-05
0.00209804
0.000862572
2.49949e-05
0.000769757
8.5372e-05
0.0019208
0.000160218
0.00270563
0.000224633
0.00313632
0.000252113
0.00321132
0.000218377
0.0029139
0.000114475
0.00220194
0.000977047
4.50913e-05
0.000724664
0.000151283
0.00181461
0.000288186
0.00256873
0.000423232
0.00300127
0.000519318
0.00311523
0.000530833
0.00290238
0.000394146
0.00233863
0.00137119
6.70726e-05
0.000657591
0.000223681
0.001658
0.000432768
0.00235964
0.000660386
0.00277365
0.000870632
0.00290498
0.00101829
0.00275473
0.0010336
0.00232331
0.00161523
0.000789572
8.03263e-05
0.000577264
0.000269492
0.00146883
0.000524648
0.00210448
0.000807434
0.00249086
0.0010783
0.00263411
0.00129078
0.00254225
0.00138451
0.00222959
0.00172771
0.00127202
8.54087e-05
0.000491855
0.00028918
0.00126506
0.000566504
0.00182716
0.000876944
0.00218042
0.00118026
0.00233079
0.0014332
0.00228931
0.00158756
0.00207523
0.00172264
0.00159264
8.44776e-05
0.000407377
0.000289323
0.00106021
0.000571337
0.00154514
0.000891035
0.00186072
0.0012104
0.00201142
0.00149166
0.00200804
0.00169777
0.00186912
0.00162384
0.00179657
8.00838e-05
0.000327292
0.000277633
0.000862662
0.000553287
0.00126949
0.000870588
0.00154342
0.00119522
0.00168679
0.00149497
0.0017083
0.00174083
0.00162326
0.0014544
0.00191027
7.41089e-05
0.000253182
0.000259947
0.000676822
0.000522894
0.00100654
0.000830462
0.00123585
0.00115243
0.00136481
0.00146133
0.00139939
0.00173356
0.00135105
0.00123648
0.00195147
6.76552e-05
0.000185526
0.000239811
0.000504665
0.000486593
0.000759754
0.000779627
0.000942812
0.00109257
0.00105187
0.00140178
0.00109019
0.00168718
0.00106564
0.000990053
0.00193361
6.12517e-05
0.000124272
0.000219046
0.000346868
0.000447813
0.000530984
0.000722977
0.000667643
0.00102162
0.000753221
0.00132311
0.000788688
0.00160979
0.000778965
0.000732127
0.00186771
5.50971e-05
6.91729e-05
0.000198447
0.000203515
0.000408187
0.00032124
0.000663068
0.000412759
0.000943074
0.000473211
0.00122998
0.000501778
0.00150784
0.000501107
0.000476547
0.00176342
4.92292e-05
1.99407e-05
0.00017829
7.44505e-05
0.000368442
0.000131084
0.000601265
0.000179933
0.000859184
0.000215288
0.00112592
0.000235033
0.00138685
0.000240177
0.000234136
0.00162926
4.36303e-05
-2.36927e-05
0.00015864
-4.05635e-05
0.000328909
-3.91888e-05
0.000538401
-2.95617e-05
0.000771595
-1.79089e-05
0.00101385
-7.21708e-06
0.00125162
2.40166e-06
1.30738e-05
0.00147268
3.82833e-05
-6.19794e-05
0.000139532
-0.000141816
0.000289818
-0.000189478
0.000475122
-0.000214868
0.000681674
-0.000224462
0.000896224
-0.00022177
0.00110623
-0.000207605
-0.000180659
0.00129996
3.31708e-05
-9.51537e-05
0.00012099
-0.00022964
0.000251379
-0.000319871
0.000412034
-0.000375526
0.000590688
-0.000403118
0.000775323
-0.000406406
0.000954299
-0.000386584
-0.000342794
0.00111643
2.82649e-05
-0.000123422
0.000102999
-0.000304378
0.000213704
-0.000430581
0.000349555
-0.000511379
0.000499595
-0.000553161
0.000652905
-0.000559717
0.000798692
-0.000532373
-0.000470448
0.000926341
2.35583e-05
-0.000146985
8.55749e-05
-0.0003664
0.000176919
-0.00052193
0.00028805
-0.000622514
0.000409174
-0.000674288
0.00053036
-0.000680906
0.000641617
-0.000643632
-0.000561751
0.000732919
1.90436e-05
-0.000166033
6.87277e-05
-0.00041609
0.000141111
-0.000594319
0.000227787
-0.000709195
0.000319996
-0.000766501
0.000408714
-0.000769628
0.000484707
-0.000719627
-0.000615586
0.000538537
1.47107e-05
-0.000180749
5.24497e-05
-0.000453835
0.000106321
-0.000648196
0.000168923
-0.000771803
0.000232433
-0.000830016
0.000288663
-0.000825861
0.000329094
-0.000760062
-0.000631381
0.000344886
1.05453e-05
-0.0001913
3.6714e-05
-0.00048001
7.25368e-05
-0.000684026
0.000111517
-0.000810789
0.000146683
-0.000865187
0.000170621
-0.000849804
0.000175502
-0.000764947
-0.000608957
0.000153072
6.52923e-06
-0.000197835
2.14776e-05
-0.000494966
3.97098e-05
-0.000702265
5.55512e-05
-0.000826638
6.28146e-05
-0.000872456
5.48161e-05
-0.000841811
2.43926e-05
-0.000734529
-0.000548479
-3.60898e-05
2.64208e-06
-0.000200483
6.68784e-06
-0.000499019
7.76618e-06
-0.000703351
9.61625e-07
-0.00081984
-1.91771e-05
-0.000852325
-5.86298e-05
-0.000802365
-0.000123887
-0.000669277
-0.000450451
-0.000221922
-1.13625e-06
-0.000199353
-7.70956e-06
-0.000492454
-2.33732e-05
-0.000687695
-5.2324e-05
-0.000790897
-9.93043e-05
-0.000805352
-0.000169598
-0.000732078
-0.000269009
-0.000569873
-0.00031565
-0.000403816
-4.82224e-06
-0.000194537
-2.17576e-05
-0.000475527
-5.37648e-05
-0.000655696
-0.000104343
-0.000740327
-0.000177538
-0.000732165
-0.000277938
-0.000631685
-0.000410645
-0.000437173
-0.000145091
-0.000581211
-8.42684e-06
-0.000186117
-3.54807e-05
-0.000448482
-8.34325e-05
-0.000607753
-0.000155091
-0.000668677
-0.000253807
-0.000633456
-0.000383467
-0.000502032
-0.000548452
-0.000272196
6e-05
-0.000753552
-1.19541e-05
-0.00017417
-4.88823e-05
-0.000411562
-0.000112362
-0.000544281
-0.00020451
-0.000576538
-0.000327975
-0.000509999
-0.00048593
-0.000344084
-0.000682017
-7.6119e-05
0.000298128
-0.000920154
-1.54001e-05
-0.000158777
-6.19401e-05
-0.000365031
-0.000140491
-0.000465738
-0.000252467
-0.000464571
-0.000399805
-0.00036267
-0.000584945
-0.000158953
-0.000810723
0.000149649
0.000567561
-0.00108017
-1.8753e-05
-0.00014003
-7.46049e-05
-0.000309188
-0.000167705
-0.000372646
-0.000298751
-0.000333534
-0.000468954
-0.000192474
-0.000679998
5.20842e-05
-0.000933838
0.000403478
0.000866407
-0.0012327
-2.19941e-05
-0.000118043
-8.68062e-05
-0.000244384
-0.000193849
-0.000265611
-0.000343094
-0.000184297
-0.000535021
-5.5549e-07
-0.000770464
0.00028752
-0.00105057
0.000683577
0.0011926
-0.00137678
-2.51004e-05
-9.29482e-05
-9.84581e-05
-0.000171034
-0.000218741
-0.000145335
-0.000385191
-1.78549e-05
-0.000597483
0.00021173
-0.000855656
0.000545686
-0.00116012
0.000988028
0.00154395
-0.00151147
-2.80443e-05
-6.49096e-05
-0.000109461
-8.96258e-05
-0.000242174
-1.2628e-05
-0.000424655
0.000164619
-0.000655804
0.000442871
-0.000934948
0.000824823
-0.00126172
0.00131479
0.00191814
-0.00163591
-3.07963e-05
-3.41188e-05
-0.000119709
-7.20339e-07
-0.000263909
0.000131566
-0.000461119
0.000361821
-0.000709542
0.000691288
-0.00100777
0.00112305
-0.0013547
0.0016617
0.00231279
-0.00174936
-3.33264e-05
-7.9754e-07
-0.000129091
9.50367e-05
-0.000283737
0.000286206
-0.000494306
0.000572384
-0.000758313
0.000955289
-0.00107365
0.00143839
-0.00143851
0.00202654
0.0027255
-0.00185122
-3.56066e-05
3.4804e-05
-0.000137519
0.000196942
-0.000301518
0.0004502
-0.000523996
0.000794855
-0.000801817
0.0012331
-0.00113223
0.00176879
-0.00151275
0.00240705
0.00315383
-0.00194109
-3.7619e-05
7.24182e-05
-0.000144946
0.000304262
-0.000317151
0.0006224
-0.000550028
0.00102772
-0.000839843
0.00152291
-0.00118325
0.00211218
-0.00157717
0.00280096
0.00359538
-0.00201873
-3.93543e-05
0.000111768
-0.000151335
0.000416235
-0.000330567
0.000801627
-0.000572304
0.00126945
-0.000872276
0.00182288
-0.0012266
0.0024665
-0.00163167
0.00320602
0.0040478
-0.0020841
-4.08062e-05
0.000152569
-0.000156668
0.000532091
-0.000341736
0.000986689
-0.000590792
0.0015185
-0.000899095
0.00213118
-0.00126229
0.00282969
-0.00167632
0.00362003
0.0045088
-0.00213733
-4.19743e-05
0.000194539
-0.000160948
0.000651057
-0.000350671
0.00117641
-0.000605527
0.00177335
-0.00092037
0.00244601
-0.00129045
0.00319976
-0.0017113
0.00404087
0.00497619
-0.00217869
-4.28629e-05
0.000237398
-0.000164193
0.000772381
-0.000357421
0.00136963
-0.000616599
0.00203252
-0.00093625
0.00276566
-0.00131129
0.00357478
-0.00173691
0.00446648
0.00544784
-0.00220858
-4.34813e-05
0.000280875
-0.000166441
0.000895334
-0.000362065
0.00156525
-0.000624149
0.0022946
-0.000946951
0.00308846
-0.00132511
0.00395294
-0.00175358
0.00489493
0.00592178
-0.00222752
-4.38425e-05
0.000324713
-0.00016774
0.00101923
-0.000364708
0.00176221
-0.000628356
0.00255824
-0.000952743
0.00341284
-0.0013323
0.00433249
-0.00176176
0.00532438
0.00639611
-0.00223611
-4.39624e-05
0.000368672
-0.000168148
0.0011434
-0.000365475
0.00195953
-0.00062943
0.00282218
-0.000953933
0.00373733
-0.00133327
0.00471182
-0.00176202
0.00575312
0.00686909
-0.002235
-4.38589e-05
0.000412526
-0.000167732
0.00126727
-0.000364503
0.0021563
-0.000627599
0.00308527
-0.000950859
0.00406059
-0.00132848
0.00508943
-0.00175492
0.00617955
0.00733906
-0.00222491
-4.35512e-05
0.000456072
-0.000166561
0.00139027
-0.000361939
0.00235167
-0.000623106
0.00334643
-0.000943874
0.00438135
-0.00131839
0.00546394
-0.00174107
0.00660222
0.00780454
-0.00220656
-4.30589e-05
0.000499126
-0.000164707
0.00151191
-0.000357932
0.00254489
-0.000616199
0.00360469
-0.000933338
0.00469848
-0.0013035
0.00583408
-0.00172107
0.00701978
0.00826415
-0.00218068
-4.24022e-05
0.000541523
-0.000162242
0.00163175
-0.000352632
0.00273527
-0.000607125
0.00385917
-0.000919611
0.00501096
-0.00128428
0.00619874
-0.00169554
0.00743103
0.00871663
-0.00214803
-4.16002e-05
0.000583117
-0.000159237
0.00174937
-0.000346186
0.00292222
-0.000596126
0.0041091
-0.000903045
0.00531788
-0.0012612
0.00655689
-0.00166506
0.00783488
0.00916086
-0.00210931
-4.06721e-05
0.000623784
-0.00015576
0.00186445
-0.000338736
0.00310519
-0.000583438
0.00435379
-0.000883982
0.00561841
-0.00123473
0.00690762
-0.00163023
0.00823037
0.00959584
-0.00206522
-3.96352e-05
0.000663413
-0.000151875
0.00197668
-0.000330417
0.00328372
-0.000569283
0.00459265
-0.000862745
0.00591187
-0.00120529
0.00725016
-0.00159158
0.00861666
0.0100207
-0.00201644
-3.85067e-05
0.000701914
-0.000147645
0.00208581
-0.000321356
0.00345742
-0.000553873
0.00482516
-0.000839644
0.00619763
-0.00117331
0.00758382
-0.00154965
0.00899299
0.0104346
-0.0019636
-3.73019e-05
0.000739211
-0.000143125
0.00219163
-0.000311673
0.00362597
-0.000537406
0.00505088
-0.000814966
0.00647519
-0.00113916
0.00790801
-0.00150492
0.00935874
0.010837
-0.0019073
-3.60353e-05
0.000775241
-0.000138368
0.00229395
-0.000301477
0.00378907
-0.000520064
0.00526946
-0.00078898
0.0067441
-0.00110322
0.00822224
-0.00145786
0.00971338
0.0112272
-0.00184811
-3.47198e-05
0.000809956
-0.000133422
0.00239265
-0.000290871
0.00394652
-0.000502017
0.0054806
-0.000761934
0.00700401
-0.00106581
0.0085261
-0.0014089
0.0100565
0.0116049
-0.00178655
-3.33676e-05
0.00084332
-0.000128332
0.00248761
-0.000279948
0.00409813
-0.00048342
0.00568407
-0.000734055
0.00725464
-0.00102724
0.00881928
-0.00135842
0.0103876
0.0119695
-0.00172309
-3.19892e-05
0.000875305
-0.000123138
0.00257875
-0.000268791
0.00424377
-0.000464416
0.00587968
-0.000705554
0.00749578
-0.000987806
0.00910153
-0.0013068
0.0107066
0.0123209
-0.0016582
-3.05944e-05
0.000905896
-0.000117875
0.00266603
-0.000257477
0.00438337
-0.000445132
0.00606733
-0.000676619
0.00772726
-0.000947756
0.00937266
-0.00125437
0.0110132
0.0126588
-0.00159229
-2.91917e-05
0.000935084
-0.000112576
0.00274941
-0.000246075
0.00451687
-0.000425685
0.00624694
-0.000647425
0.00794899
-0.000907329
0.00963256
-0.00120142
0.0113073
0.0129831
-0.00152571
-2.77891e-05
0.00096287
-0.00010727
0.00282888
-0.000234648
0.00464424
-0.00040618
0.00641846
-0.000618125
0.00816093
-0.000866739
0.00988116
-0.00114824
0.0115888
0.0132937
-0.00145883
-2.63929e-05
0.00098926
-0.000101982
0.00290447
-0.000223251
0.00476551
-0.000386712
0.00658192
-0.000588862
0.00836308
-0.000826176
0.0101185
-0.00109508
0.0118577
0.0135906
-0.00139194
-2.50096e-05
0.00101427
-9.67359e-05
0.00297619
-0.000211933
0.0048807
-0.000367364
0.00673734
-0.000559761
0.00855547
-0.000785816
0.0103445
-0.00104215
0.012114
0.0138737
-0.00132533
-2.36441e-05
0.00103791
-9.15517e-05
0.00304409
-0.000200738
0.00498988
-0.000348212
0.00688481
-0.000530935
0.00873819
-0.000745814
0.0105594
-0.000989672
0.0123579
0.0141433
-0.00125925
-2.23013e-05
0.00106021
-8.64471e-05
0.00310823
-0.000189706
0.00509314
-0.000329322
0.00702442
-0.000502485
0.00891135
-0.000706309