/*--------------------------------*- C++ -*----------------------------------*\
| =========                 |                                                 |
| \\      /  F ield         | OpenFOAM: The Open Source CFD Toolbox           |
|  \\    /   O peration     | Version:  2206                                  |
|   \\  /    A nd           | Website:  www.openfoam.com                      |
|    \\/     M anipulation  |                                                 |
\*---------------------------------------------------------------------------*/
FoamFile
{
    version     2.0;
    format      ascii;
    arch        "LSB;label=32;scalar=64";
    class       volVectorField;
    location    "200";
    object      U;
}
// * * * * * * * * * * * * * * * * * * * * * * * * * * * * * * * * * * * * * //

dimensions      [0 1 -1 0 0 0 0];

internalField   nonuniform List<vector> 
12940
(
(9.92371 -1.17184 0)
(10.0208 0.481222 0)
(9.9679 0.101474 0)
(9.99353 0.146902 0)
(9.99757 0.158136 0)
(9.9993 0.159102 0)
(10.0005 0.15759 0)
(10.0012 0.155334 0)
(9.78208 -0.633334 0)
(9.91579 0.772824 0)
(9.91725 0.290509 0)
(9.9823 0.368616 0)
(9.99696 0.363208 0)
(10.0027 0.353913 0)
(10.0062 0.345496 0)
(10.0078 0.338294 0)
(9.23624 -0.235094 0)
(9.81855 0.923108 0)
(9.91728 0.505795 0)
(9.99708 0.600527 0)
(10.0142 0.573791 0)
(10.0198 0.553764 0)
(10.0222 0.536487 0)
(10.0226 0.522598 0)
(8.38747 0.0972987 0)
(9.65088 1.03936 0)
(9.93172 0.7478 0)
(10.0293 0.829966 0)
(10.0487 0.781728 0)
(10.0524 0.751897 0)
(10.0507 0.725896 0)
(10.047 0.705001 0)
(7.32721 0.340222 0)
(9.38008 1.12762 0)
(9.93199 0.989045 0)
(10.0743 1.04751 0)
(10.0997 0.982972 0)
(10.0993 0.942896 0)
(10.0909 0.908711 0)
(10.0804 0.881833 0)
(6.14387 0.456852 0)
(8.9831 1.16628 0)
(9.89073 1.18503 0)
(10.1242 1.23501 0)
(10.1649 1.16764 0)
(10.158 1.12043 0)
(10.1402 1.07977 0)
(10.1211 1.04915 0)
(4.96293 0.443138 0)
(8.45006 1.13663 0)
(9.77026 1.30101 0)
(10.1548 1.37381 0)
(10.2324 1.32289 0)
(10.2228 1.27748 0)
(10.1943 1.23485 0)
(10.1651 1.2037 0)
(3.9108 0.34395 0)
(7.79511 1.03787 0)
(9.53682 1.32793 0)
(10.1319 1.45537 0)
(10.2808 1.44082 0)
(10.2821 1.40913 0)
(10.2465 1.37171 0)
(10.2077 1.34412 0)
(3.05823 0.225498 0)
(7.05375 0.890185 0)
(9.17492 1.28177 0)
(10.0265 1.48416 0)
(10.2869 1.52166 0)
(10.3217 1.515 0)
(10.2885 1.49053 0)
(10.2434 1.4711 0)
(2.41028 0.133046 0)
(6.27516 0.72395 0)
(8.69106 1.18922 0)
(9.82206 1.47179 0)
(10.233 1.57099 0)
(10.3283 1.59841 0)
(10.3119 1.59348 0)
(10.267 1.58671 0)
(1.93417 0.0770002 0)
(5.51146 0.566644 0)
(8.10906 1.07376 0)
(9.51482 1.42957 0)
(10.1079 1.59514 0)
(10.2919 1.66355 0)
(10.3098 1.68346 0)
(10.274 1.69334 0)
(1.58653 0.0475536 0)
(4.80457 0.435413 0)
(7.4623 0.950822 0)
(9.11006 1.36543 0)
(9.9057 1.59824 0)
(10.205 1.71325 0)
(10.2762 1.76266 0)
(10.2604 1.79297 0)
(1.3282 0.0324873 0)
(4.17753 0.335454 0)
(6.78667 0.829562 0)
(8.61958 1.28464 0)
(9.62326 1.58192 0)
(10.0611 1.74825 0)
(10.2054 1.83186 0)
(10.2222 1.88659 0)
(1.13021 0.0242705 0)
(3.6351 0.262763 0)
(6.11478 0.715593 0)
(8.06069 1.19143 0)
(9.2603 1.54635 0)
(9.85424 1.76749 0)
(10.0914 1.89034 0)
(10.1551 1.97404 0)
(0.974316 0.0194742 0)
(3.17099 0.209145 0)
(5.47147 0.61187 0)
(7.45487 1.08958 0)
(8.8202 1.49153 0)
(9.5788 1.76885 0)
(9.92748 1.9361 0)
(10.0536 2.05399 0)
(0.850424 0.0168016 0)
(2.77568 0.166741 0)
(4.87214 0.518535 0)
(6.82508 0.982216 0)
(8.31102 1.418 0)
(9.23091 1.74985 0)
(9.70632 1.96621 0)
(9.91133 2.12403 0)
(0.753222 0.0159019 0)
(2.44118 0.130669 0)
(4.32458 0.43364 0)
(6.19238 0.871263 0)
(7.74534 1.32672 0)
(8.80955 1.70816 0)
(9.42091 1.97709 0)
(9.7207 2.18073 0)
(0.678878 0.0165743 0)
(2.1624 0.0998031 0)
(3.83311 0.355524 0)
(5.57413 0.757489 0)
(7.1387 1.21822 0)
(8.31737 1.64144 0)
(9.06524 1.96458 0)
(9.4736 2.21964 0)
(0.622717 0.018154 0)
(1.93555 0.0756582 0)
(3.40259 0.285488 0)
(4.98567 0.642488 0)
(6.50812 1.0925 0)
(7.7607 1.54649 0)
(8.63509 1.9233 0)
(9.16158 2.23481 0)
(0.578899 0.0195079 0)
(1.75478 0.0595575 0)
(3.03852 0.227768 0)
(4.44479 0.532052 0)
(5.8737 0.95195 0)
(7.14968 1.4197 0)
(8.12815 1.84573 0)
(8.7761 2.21734 0)
(0.54195 0.0198153 0)
(1.61022 0.0506879 0)
(2.74084 0.185847 0)
(3.97119 0.436552 0)
(5.26417 0.807412 0)
(6.50305 1.26277 0)
(7.54541 1.72381 0)
(8.30781 2.15384 0)
(0.508129 0.0189633 0)
(1.49007 0.0467863 0)
(2.49915 0.15947 0)
(3.57463 0.365029 0)
(4.71381 0.678621 0)
(5.85763 1.09323 0)
(6.90189 1.55981 0)
(7.7486 2.03004 0)
(0.475391 0.0173359 0)
(1.38392 0.0457955 0)
(2.29652 0.145524 0)
(3.24617 0.319529 0)
(4.24195 0.582581 0)
(5.26035 0.942233 0)
(6.24247 1.37994 0)
(7.11206 1.85092 0)
(0.442638 0.01538 0)
(1.28426 0.0464527 0)
(2.11664 0.140311 0)
(2.96548 0.2959 0)
(3.84147 0.523418 0)
(4.73691 0.833334 0)
(5.62278 1.22397 0)
(6.45216 1.65981 0)
(0.40917 0.0134313 0)
(1.18609 0.0481027 0)
(1.94726 0.140754 0)
(2.71232 0.28781 0)
(3.49066 0.494752 0)
(4.28054 0.769902 0)
(5.0678 1.11649 0)
(5.82515 1.5086 0)
(0.374477 0.0116665 0)
(1.08632 0.0503525 0)
(1.78039 0.144578 0)
(2.47175 0.28945 0)
(3.16805 0.486831 0)
(3.8696 0.741922 0)
(4.569 1.05765 0)
(5.24983 1.4159 0)
(0.338229 0.0101585 0)
(0.98321 0.0528636 0)
(1.61144 0.150028 0)
(2.23453 0.296182 0)
(2.85849 0.490657 0)
(3.48422 0.735994 0)
(4.1075 1.03357 0)
(4.71807 1.3707 0)
(0.300322 0.00890625 0)
(0.876158 0.0552665 0)
(1.4384 0.155622 0)
(1.99591 0.304349 0)
(2.5533 0.49908 0)
(3.11148 0.740403 0)
(3.66782 1.02827 0)
(4.21579 1.35322 0)
(0.260923 0.00787493 0)
(0.765531 0.0571534 0)
(1.26121 0.160015 0)
(1.75451 0.310953 0)
(2.24877 0.506547 0)
(2.74465 0.746117 0)
(3.24043 1.02863 0)
(3.73184 1.34616 0)
(0.220507 0.00700702 0)
(0.652612 0.0580719 0)
(1.08147 0.161898 0)
(1.51145 0.313337 0)
(1.94469 0.508487 0)
(2.3815 0.746032 0)
(2.8207 1.02446 0)
(3.25946 1.33602 0)
(0.179891 0.00623093 0)
(0.539599 0.0575161 0)
(0.902191 0.15992 0)
(1.26988 0.308925 0)
(1.64356 0.500717 0)
(2.02316 0.733948 0)
(2.40785 1.00713 0)
(2.79584 1.31152 0)
(0.140283 0.00546401 0)
(0.42965 0.0549362 0)
(0.727867 0.152679 0)
(1.03485 0.295143 0)
(1.35026 0.479185 0)
(1.67358 0.704016 0)
(2.00437 0.968657 0)
(2.34172 1.26235 0)
(0.103302 0.00462052 0)
(0.326895 0.0497982 0)
(0.564372 0.138864 0)
(0.81323 0.269608 0)
(1.07185 0.440137 0)
(1.33935 0.650786 0)
(1.61571 0.901593 0)
(1.90106 1.17887 0)
(0.0709334 0.0036263 0)
(0.236291 0.0417135 0)
(0.418785 0.117558 0)
(0.613481 0.230626 0)
(0.817488 0.380769 0)
(1.02959 0.569924 0)
(1.25029 0.799637 0)
(1.481 1.05265 0)
(0.0453728 0.00244444 0)
(0.163198 0.0306593 0)
(0.298816 0.0887676 0)
(0.445096 0.178086 0)
(0.597955 0.300469 0)
(0.755775 0.4597 0)
(0.919509 0.659212 0)
(1.09199 0.878094 0)
(0.0286598 0.00110925 0)
(0.112517 0.0172718 0)
(0.211654 0.0541234 0)
(0.317399 0.114685 0)
(0.424637 0.202649 0)
(0.531132 0.323425 0)
(0.637772 0.482357 0)
(0.748452 0.655714 0)
(0.0220831 -0.000239279 0)
(0.087299 0.00312504 0)
(0.162082 0.0175387 0)
(0.237375 0.0471754 0)
(0.307389 0.0968498 0)
(0.368915 0.1727 0)
(0.421727 0.281264 0)
(0.469441 0.398253 0)
(0.0254178 -0.00134986 0)
(0.0870085 -0.00923696 0)
(0.149965 -0.0147061 0)
(0.206442 -0.01327 0)
(0.250662 -8.58246e-05 0)
(0.278289 0.0302588 0)
(0.286754 0.0838587 0)
(0.276917 0.139942 0)
(0.0362502 -0.00190745 0)
(0.106008 -0.016864 0)
(0.167813 -0.0353124 0)
(0.216606 -0.0531513 0)
(0.24762 -0.066322 0)
(0.255946 -0.0712368 0)
(0.236309 -0.0640053 0)
(0.183802 -0.0566034 0)
(0.0502021 -0.00173506 0)
(0.134031 -0.0178967 0)
(0.200972 -0.0395549 0)
(0.249458 -0.0630698 0)
(0.276634 -0.0848207 0)
(0.278185 -0.102186 0)
(0.247327 -0.113329 0)
(0.172204 -0.120974 0)
(0.0607155 -0.000913154 0)
(0.15574 -0.0135735 0)
(0.22688 -0.0304337 0)
(0.274445 -0.0478442 0)
(0.296261 -0.0613363 0)
(0.287343 -0.0663254 0)
(0.237335 -0.0576484 0)
(0.122156 -0.0347731 0)
(0.0670589 -0.000304487 0)
(0.169061 -0.00922502 0)
(0.242156 -0.0207981 0)
(0.287148 -0.032037 0)
(0.301943 -0.0390161 0)
(0.281579 -0.0380599 0)
(0.217446 -0.0271403 0)
(0.0970818 -0.00909762 0)
(0.0709815 0.000157938 0)
(0.177477 -0.00541523 0)
(0.251547 -0.0123092 0)
(0.294061 -0.0186779 0)
(0.303213 -0.0218861 0)
(0.274963 -0.0198642 0)
(0.203596 -0.0125674 0)
(0.0842234 -0.0034076 0)
(0.0730035 0.00047673 0)
(0.181966 -0.00242651 0)
(0.256509 -0.00565267 0)
(0.297432 -0.00854746 0)
(0.303295 -0.00977406 0)
(0.27106 -0.00841996 0)
(0.197123 -0.00488267 0)
(0.0797351 -0.00165475 0)
(0.0735874 0.000692008 0)
(0.183447 -0.000113431 0)
(0.25821 -0.000509589 0)
(0.298534 -0.000888217 0)
(0.303173 -0.000999738 0)
(0.269611 -0.000680707 0)
(0.195084 -0.000191638 0)
(0.0785562 -0.000751645 0)
(0.0730336 0.000857942 0)
(0.182547 0.00180529 0)
(0.257383 0.00372958 0)
(0.297994 0.00538998 0)
(0.303104 0.00615402 0)
(0.270194 0.00560356 0)
(0.196289 0.00362208 0)
(0.0796263 -4.85256e-05 0)
(0.0714781 0.00101464 0)
(0.179591 0.00352989 0)
(0.254359 0.00749152 0)
(0.295952 0.0110369 0)
(0.302916 0.0128477 0)
(0.272405 0.0119348 0)
(0.200467 0.00797729 0)
(0.0831054 0.000850867 0)
(0.0689892 0.00117048 0)
(0.174787 0.00502627 0)
(0.249292 0.0106852 0)
(0.292258 0.0159764 0)
(0.302072 0.0192048 0)
(0.275641 0.0188911 0)
(0.207826 0.013912 0)
(0.0903485 0.0025628 0)
(0.0657361 0.00129071 0)
(0.168569 0.00592456 0)
(0.242549 0.0124514 0)
(0.286786 0.0188266 0)
(0.299595 0.0235457 0)
(0.278137 0.0252022 0)
(0.216931 0.0214998 0)
(0.102263 0.00632275 0)
(0.0622165 0.00129341 0)
(0.162059 0.00551936 0)
(0.235384 0.011087 0)
(0.280236 0.0164593 0)
(0.294601 0.0208974 0)
(0.275817 0.0240966 0)
(0.218801 0.0237334 0)
(0.109533 0.00857158 0)
(0.059025 0.00107555 0)
(0.156818 0.00277132 0)
(0.230352 0.00384341 0)
(0.276451 0.00308207 0)
(0.293075 -0.000278311 0)
(0.279157 -0.00730477 0)
(0.235321 -0.0218805 0)
(0.16781 -0.0653404 0)
(0.0586456 0.000449968 0)
(0.158667 -0.00310111 0)
(0.236008 -0.0106548 0)
(0.286922 -0.0227944 0)
(0.310089 -0.0398707 0)
(0.306664 -0.0629497 0)
(0.281351 -0.0952758 0)
(0.245594 -0.149946 0)
(0.0628587 -0.000215322 0)
(0.171223 -0.00980376 0)
(0.25652 -0.0269047 0)
(0.315101 -0.0508422 0)
(0.346338 -0.08051 0)
(0.352515 -0.115405 0)
(0.339207 -0.155923 0)
(0.316085 -0.207173 0)
(0.0716693 -0.000807133 0)
(0.194327 -0.0161733 0)
(0.290952 -0.0421515 0)
(0.358314 -0.0764602 0)
(0.396266 -0.116063 0)
(0.407473 -0.158482 0)
(0.397316 -0.201644 0)
(0.373673 -0.246401 0)
(0.0846128 -0.00129426 0)
(0.226807 -0.0217626 0)
(0.337334 -0.0553628 0)
(0.413573 -0.098212 0)
(0.455795 -0.145365 0)
(0.466876 -0.192528 0)
(0.452106 -0.235794 0)
(0.418845 -0.273372 0)
(0.101101 -0.0016848 0)
(0.267189 -0.0264409 0)
(0.393521 -0.0662279 0)
(0.47826 -0.115801 0)
(0.522119 -0.168574 0)
(0.52821 -0.218701 0)
(0.502043 -0.260723 0)
(0.451543 -0.290352 0)
(0.12049 -0.00197529 0)
(0.313833 -0.0299935 0)
(0.457287 -0.0742428 0)
(0.550004 -0.128538 0)
(0.593105 -0.185096 0)
(0.589799 -0.236808 0)
(0.5458 -0.276687 0)
(0.470132 -0.297138 0)
(0.141892 -0.00211647 0)
(0.364562 -0.0318537 0)
(0.525816 -0.0781176 0)
(0.626027 -0.134388 0)
(0.666538 -0.192334 0)
(0.650104 -0.244044 0)
(0.581916 -0.280993 0)
(0.471749 -0.290647 0)
(0.163861 -0.00200124 0)
(0.416026 -0.0310701 0)
(0.594859 -0.0756989 0)
(0.70215 -0.129763 0)
(0.739151 -0.185249 0)
(0.707267 -0.234236 0)
(0.609604 -0.267067 0)
(0.454957 -0.264297 0)
(0.184234 -0.00153629 0)
(0.463445 -0.0267031 0)
(0.658419 -0.0647887 0)
(0.772504 -0.110578 0)
(0.806941 -0.15701 0)
(0.761454 -0.196873 0)
(0.635068 -0.220743 0)
(0.428721 -0.209166 0)
(0.199873 -0.000517591 0)
(0.499799 -0.0183618 0)
(0.706115 -0.044495 0)
(0.822468 -0.0740976 0)
(0.848871 -0.0999187 0)
(0.780837 -0.113469 0)
(0.605021 -0.103728 0)
(0.285507 -0.0633372 0)
(0.209326 0.000345788 0)
(0.521988 -0.0104116 0)
(0.733834 -0.0254095 0)
(0.847587 -0.0410975 0)
(0.862429 -0.0518751 0)
(0.773737 -0.052073 0)
(0.572021 -0.0383466 0)
(0.242462 -0.0128165 0)
(0.214055 0.000836261 0)
(0.533519 -0.0049945 0)
(0.747755 -0.0125258 0)
(0.858479 -0.019918 0)
(0.8649 -0.0239433 0)
(0.763957 -0.0219711 0)
(0.550965 -0.0140985 0)
(0.222392 -0.00391972 0)
(0.215998 0.00103565 0)
(0.538703 -0.00193983 0)
(0.754031 -0.00523 0)
(0.862987 -0.00831607 0)
(0.865173 -0.00967287 0)
(0.759141 -0.00825304 0)
(0.543198 -0.00473032 0)
(0.217214 -0.00190493 0)
(0.216555 0.00105331 0)
(0.540594 -0.000500888 0)
(0.756441 -0.00169943 0)
(0.864615 -0.00278989 0)
(0.865001 -0.00319196 0)
(0.757086 -0.00251494 0)
(0.540476 -0.00126334 0)
(0.215725 -0.00119308 0)
(0.216559 0.000985166 0)
(0.541039 4.5479e-05 0)
(0.75715 -0.000260178 0)
(0.865103 -0.000526172 0)
(0.864896 -0.00061897 0)
(0.756437 -0.000389242 0)
(0.539789 -0.000122637 0)
(0.215492 -0.0009344 0)
(0.216409 0.000888059 0)
(0.540969 0.000180259 0)
(0.757217 0.000186645 0)
(0.865184 0.000211296 0)
(0.864886 0.000207927 0)
(0.75637 0.000244363 0)
(0.539814 0.000167359 0)
(0.215618 -0.00081587 0)
(0.216264 0.000788593 0)
(0.540785 0.000162046 0)
(0.757102 0.000237259 0)
(0.865147 0.00033471 0)
(0.864915 0.000352658 0)
(0.756476 0.000332619 0)
(0.540004 0.000181857 0)
(0.215784 -0.000735873 0)
(0.216165 0.000696505 0)
(0.540627 0.000107846 0)
(0.756975 0.000169292 0)
(0.865091 0.000263589 0)
(0.864946 0.000284111 0)
(0.756595 0.000262956 0)
(0.540177 0.000130109 0)
(0.215908 -0.000665652 0)
(0.216108 0.000613462 0)
(0.540524 5.98835e-05 0)
(0.756882 9.14197e-05 0)
(0.865046 0.000164075 0)
(0.864967 0.000182852 0)
(0.75668 0.000175316 0)
(0.540294 7.916e-05 0)
(0.215986 -0.000597953 0)
(0.216082 0.000538499 0)
(0.540468 2.79168e-05 0)
(0.756825 3.51741e-05 0)
(0.865015 8.71952e-05 0)
(0.864977 0.000103751 0)
(0.75673 0.000108893 0)
(0.540363 4.40487e-05 0)
(0.21603 -0.000531779 0)
(0.216073 0.000469868 0)
(0.540442 9.64039e-06 0)
(0.756794 2.3289e-06 0)
(0.864994 3.93779e-05 0)
(0.864978 5.38582e-05 0)
(0.756755 6.67669e-05 0)
(0.540401 2.33981e-05 0)
(0.216055 -0.00046758 0)
(0.216074 0.000406219 0)
(0.540432 6.45814e-07 0)
(0.756778 -1.35565e-05 0)
(0.86498 1.35302e-05 0)
(0.864975 2.62023e-05 0)
(0.756765 4.24118e-05 0)
(0.540419 1.24196e-05 0)
(0.216069 -0.000405821 0)
(0.216077 0.00034638 0)
(0.540431 -3.14991e-06 0)
(0.756769 -1.9247e-05 0)
(0.86497 1.36412e-06 0)
(0.864969 1.23205e-05 0)
(0.756767 2.88118e-05 0)
(0.540428 6.9945e-06 0)
(0.216077 -0.000346671 0)
(0.216082 0.000289644 0)
(0.540433 -4.15268e-06 0)
(0.756765 -1.94996e-05 0)
(0.864962 -3.40687e-06 0)
(0.864962 5.9489e-06 0)
(0.756766 2.10234e-05 0)
(0.540433 4.40289e-06 0)
(0.216083 -0.000290049 0)
(0.216087 0.000235334 0)
(0.540435 -3.99491e-06 0)
(0.756762 -1.72239e-05 0)
(0.864955 -4.53903e-06 0)
(0.864956 3.21095e-06 0)
(0.756763 1.60194e-05 0)
(0.540436 3.10932e-06 0)
(0.216087 -0.000235702 0)
(0.216091 0.000183038 0)
(0.540438 -3.27182e-06 0)
(0.756761 -1.39012e-05 0)
(0.86495 -4.15705e-06 0)
(0.86495 2.03966e-06 0)
(0.756761 1.22408e-05 0)
(0.540437 2.3224e-06 0)
(0.216091 -0.000183294 0)
(0.216095 0.000132249 0)
(0.54044 -2.465e-06 0)
(0.756759 -1.02712e-05 0)
(0.864946 -3.19562e-06 0)
(0.864945 1.41357e-06 0)
(0.756758 8.89036e-06 0)
(0.540438 1.69163e-06 0)
(0.216093 -0.000132442 0)
(0.216097 8.26244e-05 0)
(0.540442 -1.56242e-06 0)
(0.756758 -6.57875e-06 0)
(0.864942 -2.12344e-06 0)
(0.864942 9.28898e-07 0)
(0.756757 5.67705e-06 0)
(0.540439 1.07184e-06 0)
(0.216095 -8.27457e-05 0)
(0.216098 3.36947e-05 0)
(0.540442 -7.29173e-07 0)
(0.756757 -2.92474e-06 0)
(0.86494 -1.01751e-06 0)
(0.864939 4.34181e-07 0)
(0.756755 2.45891e-06 0)
(0.54044 4.31937e-07 0)
(0.216096 -3.37919e-05 0)
(0.216099 -1.48804e-05 0)
(0.540442 1.74049e-07 0)
(0.756756 7.36535e-07 0)
(0.864939 5.97717e-08 0)
(0.864938 -6.70283e-08 0)
(0.756755 -7.55278e-07 0)
(0.540439 -2.31556e-07 0)
(0.216097 1.48327e-05 0)
(0.216098 -6.35742e-05 0)
(0.540442 1.03644e-06 0)
(0.756756 4.41749e-06 0)
(0.864939 1.18493e-06 0)
(0.864938 -5.7067e-07 0)
(0.756754 -3.9942e-06 0)
(0.540439 -8.99171e-07 0)
(0.216096 6.3553e-05 0)
(0.216096 -0.000112739 0)
(0.54044 1.99809e-06 0)
(0.756756 8.16829e-06 0)
(0.864939 2.30206e-06 0)
(0.864939 -1.06764e-06 0)
(0.756755 -7.24757e-06 0)
(0.540438 -1.57508e-06 0)
(0.216095 0.000112794 0)
(0.216093 -0.000162868 0)
(0.540438 2.90481e-06 0)
(0.756756 1.19073e-05 0)
(0.864942 3.3546e-06 0)
(0.864942 -1.69124e-06 0)
(0.756756 -1.06462e-05 0)
(0.540437 -2.28615e-06 0)
(0.216092 0.000162993 0)
(0.21609 -0.000214341 0)
(0.540435 3.7816e-06 0)
(0.756757 1.54282e-05 0)
(0.864945 3.9294e-06 0)
(0.864945 -2.7926e-06 0)
(0.756757 -1.44494e-05 0)
(0.540435 -3.16539e-06 0)
(0.216089 0.000214587 0)
(0.216085 -0.000267706 0)
(0.540432 4.199e-06 0)
(0.756758 1.80871e-05 0)
(0.864949 3.20686e-06 0)
(0.864949 -5.28177e-06 0)
(0.756758 -1.93768e-05 0)
(0.540432 -4.52917e-06 0)
(0.216085 0.000268016 0)
(0.21608 -0.000323439 0)
(0.54043 3.63575e-06 0)
(0.756761 1.85769e-05 0)
(0.864955 -6.99658e-07 0)
(0.864955 -1.09975e-05 0)
(0.756759 -2.68308e-05 0)
(0.540428 -7.09668e-06 0)
(0.216079 0.000323692 0)
(0.216075 -0.000382271 0)
(0.54043 6.41729e-07 0)
(0.756768 1.43214e-05 0)
(0.864964 -1.11303e-05 0)
(0.86496 -2.34032e-05 0)
(0.756757 -3.95359e-05 0)
(0.540419 -1.22577e-05 0)
(0.21607 0.000381972 0)
(0.216073 -0.000444986 0)
(0.540437 -6.93988e-06 0)
(0.756782 1.08539e-06 0)
(0.864977 -3.36818e-05 0)
(0.864963 -4.80922e-05 0)
(0.756748 -6.19419e-05 0)
(0.540401 -2.24792e-05 0)
(0.216057 0.000443089 0)
(0.216079 -0.000512811 0)
(0.540459 -2.27554e-05 0)
(0.756809 -2.71448e-05 0)
(0.864996 -7.57221e-05 0)
(0.864963 -9.26032e-05 0)
(0.756726 -0.000100352 0)
(0.540367 -4.14996e-05 0)
(0.216033 0.000507082 0)
(0.2161 -0.000587184 0)
(0.540507 -5.07805e-05 0)
(0.756859 -7.60354e-05 0)
(0.865025 -0.000143397 0)
(0.864956 -0.000162995 0)
(0.756683 -0.000160558 0)
(0.540305 -7.36558e-05 0)
(0.21599 0.000573775 0)
(0.216147 -0.000669929 0)
(0.540596 -9.29911e-05 0)
(0.756941 -0.00014358 0)
(0.865066 -0.00023023 0)
(0.86494 -0.000252175 0)
(0.756609 -0.000239335 0)
(0.540198 -0.000120092 0)
(0.215917 0.000643087 0)
(0.216233 -0.000762252 0)
(0.540732 -0.000140295 0)
(0.757053 -0.000200091 0)
(0.865118 -0.000288061 0)
(0.864917 -0.000308319 0)
(0.756508 -0.000299661 0)
(0.540043 -0.000166586 0)
(0.215801 0.000716421 0)
(0.216358 -0.000862959 0)
(0.540889 -0.000153336 0)
(0.757149 -0.000143746 0)
(0.86515 -0.000160799 0)
(0.864899 -0.000161468 0)
(0.756423 -0.000209744 0)
(0.539877 -0.000149988 0)
(0.215647 0.000801277 0)
(0.216484 -0.0009635 0)
(0.540932 -2.28165e-05 0)
(0.757067 0.000286403 0)
(0.865069 0.000547054 0)
(0.86492 0.000631111 0)
(0.756508 0.000396483 0)
(0.539872 0.000127569 0)
(0.215532 0.000925922 0)
(0.216465 -0.00103951 0)
(0.540485 0.000494751 0)
(0.756373 0.00165463 0)
(0.8646 0.00270116 0)
(0.865032 0.00308047 0)
(0.757148 0.00241904 0)
(0.540545 0.0012132 0)
(0.215757 0.00118879 0)
(0.215925 -0.00103803 0)
(0.538663 0.00185689 0)
(0.754059 0.00501207 0)
(0.863041 0.0079662 0)
(0.865206 0.00926014 0)
(0.75913 0.0078899 0)
(0.543156 0.00452009 0)
(0.217176 0.00189303 0)
(0.214077 -0.000867721 0)
(0.533707 0.00476414 0)
(0.748047 0.0119893 0)
(0.858722 0.0190849 0)
(0.864948 0.0229457 0)
(0.763745 0.0210401 0)
(0.550582 0.0134989 0)
(0.222122 0.00386497 0)
(0.209576 -0.000421213 0)
(0.522662 0.0099705 0)
(0.734671 0.024436 0)
(0.848245 0.0395854 0)
(0.86257 0.049978 0)
(0.773121 0.0501206 0)
(0.570721 0.0368797 0)
(0.241314 0.0124567 0)
(0.200528 0.000390556 0)
(0.501263 0.0177397 0)
(0.707852 0.043192 0)
(0.823937 0.0720496 0)
(0.849509 0.0971255 0)
(0.780062 0.110057 0)
(0.602519 0.100315 0)
(0.282696 0.0607479 0)
(0.185397 0.00137659 0)
(0.465811 0.0261929 0)
(0.661228 0.0639113 0)
(0.775262 0.109298 0)
(0.809238 0.155078 0)
(0.762747 0.193756 0)
(0.634259 0.215942 0)
(0.422962 0.198509 0)
(0.165237 0.00190907 0)
(0.418438 0.0314011 0)
(0.597425 0.0770743 0)
(0.704597 0.132761 0)
(0.741518 0.190251 0)
(0.709669 0.241447 0)
(0.61188 0.276497 0)
(0.45574 0.272441 0)
(0.142725 0.0021345 0)
(0.36505 0.033476 0)
(0.525103 0.0828758 0)
(0.624072 0.143629 0)
(0.663658 0.207084 0)
(0.646645 0.26514 0)
(0.577984 0.309054 0)
(0.467107 0.322719 0)
(0.119793 0.00214013 0)
(0.309882 0.0332251 0)
(0.449618 0.0831572 0)
(0.539099 0.14525 0)
(0.579773 0.211064 0)
(0.574715 0.273089 0)
(0.529194 0.324056 0)
(0.451818 0.353303 0)
(0.0976963 0.00203656 0)
(0.25583 0.0316063 0)
(0.374712 0.0800564 0)
(0.453551 0.141125 0)
(0.493276 0.207007 0)
(0.496557 0.271015 0)
(0.467982 0.327156 0)
(0.414457 0.368611 0)
(0.0770677 0.00189618 0)
(0.204509 0.0293397 0)
(0.302585 0.0751972 0)
(0.369836 0.133834 0)
(0.406572 0.19826 0)
(0.414758 0.262617 0)
(0.397959 0.321888 0)
(0.361354 0.371897 0)
(0.0581439 0.00175616 0)
(0.156686 0.0268551 0)
(0.234445 0.0695734 0)
(0.289481 0.124949 0)
(0.321515 0.186827 0)
(0.331757 0.250092 0)
(0.322744 0.310432 0)
(0.298197 0.365508 0)
(0.0409564 0.00163028 0)
(0.11266 0.0243644 0)
(0.170937 0.0637048 0)
(0.213522 0.115317 0)
(0.239638 0.173816 0)
(0.249818 0.234717 0)
(0.24572 0.294218 0)
(0.22992 0.351278 0)
(0.0254514 0.00152046 0)
(0.0724999 0.0219516 0)
(0.112409 0.0578264 0)
(0.142701 0.105355 0)
(0.162216 0.159828 0)
(0.17094 0.217285 0)
(0.169837 0.274304 0)
(0.160634 0.33077 0)
(0.0115513 0.00142342 0)
(0.0361822 0.0196374 0)
(0.0590535 0.0520286 0)
(0.0775647 0.0952629 0)
(0.0902823 0.14521 0)
(0.0967842 0.198346 0)
(0.0975193 0.251548 0)
(0.0936064 0.30536 0)
(-0.000820186 0.00133498 0)
(0.00364816 0.017419 0)
(0.0109771 0.046341 0)
(0.018514 0.0851439 0)
(0.0246469 0.130192 0)
(0.0286695 0.178332 0)
(0.0306696 0.226681 0)
(0.031347 0.276254 0)
(-0.0117324 0.00125236 0)
(-0.0251746 0.015292 0)
(-0.0317739 0.040781 0)
(-0.0341806 0.0750731 0)
(-0.0341036 0.114958 0)
(-0.0324293 0.157601 0)
(-0.0293054 0.20033 0)
(-0.0243032 0.244485 0)
(-0.02125 0.00117279 0)
(-0.0503665 0.0132519 0)
(-0.0691903 0.035363 0)
(-0.080329 0.0651199 0)
(-0.0855271 0.0996808 0)
(-0.0857698 0.136489 0)
(-0.0813436 0.173062 0)
(-0.0719826 0.210952 0)
(-0.0294326 0.00109285 0)
(-0.0720222 0.01129 0)
(-0.101323 0.0300899 0)
(-0.119869 0.0553276 0)
(-0.12939 0.0844853 0)
(-0.130904 0.115253 0)
(-0.124762 0.145321 0)
(-0.110777 0.176372 0)
(-0.0363334 0.00101116 0)
(-0.0902355 0.0094043 0)
(-0.128244 0.0249703 0)
(-0.152792 0.0457376 0)
(-0.165557 0.0694766 0)
(-0.167543 0.0940997 0)
(-0.159104 0.117456 0)
(-0.140069 0.1413 0)
(-0.042005 0.00092627 0)
(-0.105108 0.00759249 0)
(-0.15005 0.0200099 0)
(-0.179148 0.0363796 0)
(-0.193997 0.0547317 0)
(-0.195544 0.07318 0)
(-0.184106 0.0897229 0)
(-0.159476 0.106143 0)
(-0.0464975 0.000836853 0)
(-0.116743 0.00585122 0)
(-0.166857 0.0152089 0)
(-0.199027 0.0272693 0)
(-0.214743 0.0402985 0)
(-0.214866 0.0525949 0)
(-0.19964 0.0622971 0)
(-0.168786 0.0711895 0)
(-0.0498577 0.00074166 0)
(-0.125244 0.00417534 0)
(-0.178789 0.0105615 0)
(-0.212544 0.0184083 0)
(-0.227876 0.0261986 0)
(-0.225539 0.0324009 0)
(-0.205675 0.0352873 0)
(-0.167903 0.0366245 0)
(-0.0521281 0.000639614 0)
(-0.130708 0.00255814 0)
(-0.185971 0.00605705 0)
(-0.219824 0.00978747 0)
(-0.233505 0.0124341 0)
(-0.22764 0.0126237 0)
(-0.202249 0.00875721 0)
(-0.156829 0.00257303 0)
(-0.053346 0.000529917 0)
(-0.133224 0.000992027 0)
(-0.188521 0.00168173 0)
(-0.221 0.00139118 0)
(-0.231757 -0.00100467 0)
(-0.221279 -0.0067288 0)
(-0.189455 -0.0172512 0)
(-0.135651 -0.0308684 0)
(-0.053543 0.000412256 0)
(-0.132873 -0.000530621 0)
(-0.186553 -0.00257881 0)
(-0.216202 -0.00679787 0)
(-0.222771 -0.0141294 0)
(-0.206605 -0.0256498 0)
(-0.167451 -0.042698 0)
(-0.104548 -0.0636079 0)
(-0.0527457 0.000286995 0)
(-0.129726 -0.00201606 0)
(-0.180175 -0.00673575 0)
(-0.205567 -0.014791 0)
(-0.206708 -0.0269433 0)
(-0.183796 -0.0441242 0)
(-0.136442 -0.0675385 0)
(-0.0637611 -0.0955616 0)
(-0.0509767 0.000155216 0)
(-0.123848 -0.0034683 0)
(-0.16949 -0.010795 0)
(-0.189235 -0.0225919 0)
(-0.183741 -0.0394409 0)
(-0.153065 -0.0621286 0)
(-0.0966805 -0.0917222 0)
(-0.0135882 -0.126643 0)
(-0.0482569 1.87403e-05 0)
(-0.115305 -0.00488873 0)
(-0.154608 -0.0147568 0)
(-0.167356 -0.0301949 0)
(-0.154066 -0.0516049 0)
(-0.114651 -0.0796266 0)
(-0.0484571 -0.115185 0)
(0.0456203 -0.156748 0)
(-0.0446068 -0.000119973 0)
(-0.104161 -0.00627567 0)
(-0.135642 -0.018614 0)
(-0.140097 -0.0375819 0)
(-0.1179 -0.0633998 0)
(-0.0688281 -0.0965578 0)
(0.00789108 -0.137834 0)
(0.113412 -0.185723 0)
(-0.0400492 -0.000257994 0)
(-0.0904908 -0.00762424 0)
(-0.112721 -0.0223518 0)
(-0.107643 -0.044722 0)
(-0.0754931 -0.0747724 0)
(-0.0159173 -0.112841 0)
(0.0719514 -0.159541 0)
(0.189315 -0.213407 0)
(-0.0346111 -0.000392219 0)
(-0.0743807 -0.008927 0)
(-0.0859955 -0.0259494 0)
(-0.0702134 -0.0515749 0)
(-0.0271332 -0.0856576 0)
(0.0437229 -0.128375 0)
(0.143264 -0.180162 0)
(0.272795 -0.239626 0)
(-0.0283249 -0.000519652 0)
(-0.055932 -0.0101746 0)
(-0.0556387 -0.0293819 0)
(-0.0280537 -0.0580933 0)
(0.0268621 -0.0959764 0)
(0.109648 -0.143033 0)
(0.221335 -0.199549 0)
(0.363283 -0.2642 0)
(-0.0212302 -0.000637567 0)
(-0.0352644 -0.0113563 0)
(-0.0218519 -0.0326206 0)
(0.0185535 -0.0642207 0)
(0.0860845 -0.105631 0)
(0.181408 -0.156701 0)
(0.305635 -0.217563 0)
(0.460176 -0.286963 0)
(-0.013374 -0.000743765 0)
(-0.0125178 -0.0124606 0)
(0.0151357 -0.0356332 0)
(0.0692631 -0.0698941 0)
(0.150133 -0.114543 0)
(0.258517 -0.169279 0)
(0.395603 -0.234081 0)
(0.562848 -0.307769 0)
(-0.00481143 -0.000836493 0)
(0.0121484 -0.0134747 0)
(0.0550484 -0.0383871 0)
(0.123724 -0.0750656 0)
(0.21857 -0.122645 0)
(0.340458 -0.180679 0)
(0.490652 -0.248998 0)
(0.670656 -0.326499 0)
(0.00439377 -0.000914248 0)
(0.0385483 -0.0143875 0)
(0.0976055 -0.0408605 0)
(0.181559 -0.0796997 0)
(0.29093 -0.129885 0)
(0.426693 -0.190834 0)
(0.590182 -0.262237 0)
(0.782953 -0.343068 0)
(0.0141721 -0.000976485 0)
(0.0664926 -0.0151931 0)
(0.142507 -0.0430388 0)
(0.242371 -0.0837699 0)
(0.366734 -0.136226 0)
(0.516669 -0.199699 0)
(0.693586 -0.273747 0)
(0.899094 -0.357425 0)
(0.0244507 -0.00102361 0)
(0.0957807 -0.0158875 0)
(0.189441 -0.0449116 0)
(0.305752 -0.0872593 0)
(0.445491 -0.141645 0)
(0.609833 -0.207248 0)
(0.800262 -0.283506 0)
(1.01844 -0.369554 0)
(0.0351546 -0.00105621 0)
(0.126207 -0.0164682 0)
(0.23809 -0.0464739 0)
(0.371289 -0.0901615 0)
(0.526711 -0.146137 0)
(0.705633 -0.21348 0)
(0.909615 -0.291521 0)
(1.14038 -0.379469 0)
(0.0462077 -0.00107522 0)
(0.157565 -0.016935 0)
(0.288136 -0.0477267 0)
(0.438573 -0.0924801 0)
(0.609911 -0.149711 0)
(0.803529 -0.218413 0)
(1.02107 -0.297821 0)
(1.26431 -0.387217 0)
(0.0575346 -0.00108177 0)
(0.189651 -0.0172899 0)
(0.339268 -0.048676 0)
(0.507203 -0.0942286 0)
(0.69462 -0.152391 0)
(0.902998 -0.222083 0)
(1.13406 -0.30246 0)
(1.38965 -0.392868 0)
(0.0690619 -0.0010772 0)
(0.222267 -0.0175365 0)
(0.391184 -0.0493326 0)
(0.576792 -0.0954281 0)
(0.780384 -0.15421 0)
(1.00354 -0.224542 0)
(1.24806 -0.305508 0)
(1.51586 -0.396514 0)
(0.0807189 -0.00106289 0)
(0.255222 -0.0176802 0)
(0.443594 -0.0497108 0)
(0.646972 -0.0961063 0)
(0.866774 -0.155214 0)
(1.10468 -0.225854 0)
(1.36256 -0.307051 0)
(1.64241 -0.398265 0)
(0.092439 -0.00104029 0)
(0.288337 -0.0177272 0)
(0.496227 -0.0498279 0)
(0.717396 -0.0962956 0)
(0.953383 -0.155454 0)
(1.20596 -0.22609 0)
(1.47709 -0.307183 0)
(1.76883 -0.39824 0)
(0.10416 -0.00101075 0)
(0.321447 -0.0176848 0)
(0.548828 -0.049703 0)
(0.78774 -0.0960318 0)
(1.03984 -0.154985 0)
(1.30698 -0.225329 0)
(1.59121 -0.306008 0)
(1.89466 -0.396569 0)
(0.115825 -0.000975616 0)
(0.354396 -0.0175606 0)
(0.601165 -0.0493566 0)
(0.857705 -0.095353 0)
(1.12578 -0.153866 0)
(1.40735 -0.223654 0)
(1.70452 -0.303633 0)
(2.01948 -0.393388 0)
(0.127382 -0.000936096 0)
(0.387045 -0.0173624 0)
(0.653023 -0.0488095 0)
(0.927021 -0.0942979 0)
(1.2109 -0.152158 0)
(1.50672 -0.221148 0)
(1.81663 -0.300168 0)
(2.14291 -0.388831 0)
(0.138785 -0.000893327 0)
(0.419267 -0.0170983 0)
(0.704212 -0.0480829 0)
(0.99544 -0.0929054 0)
(1.29492 -0.149921 0)
(1.60476 -0.217896 0)
(1.92722 -0.295722 0)
(2.2646 -0.383036 0)
(0.149992 -0.000848277 0)
(0.450952 -0.0167759 0)
(0.754558 -0.0471973 0)
(1.06274 -0.0912137 0)
(1.37756 -0.147213 0)
(1.7012 -0.213979 0)
(2.03596 -0.2904 0)
(2.38423 -0.376134 0)
(0.160967 -0.000801839 0)
(0.482 -0.0164029 0)
(0.803912 -0.0461727 0)
(1.12873 -0.0892595 0)
(1.4586 -0.144092 0)
(1.79577 -0.209476 0)
(2.1426 -0.284306 0)
(2.50152 -0.368255 0)
(0.171679 -0.000754736 0)
(0.512326 -0.0159863 0)
(0.85214 -0.0450281 0)
(1.19324 -0.087078 0)
(1.53784 -0.140612 0)
(1.88825 -0.204463 0)
(2.24689 -0.277539 0)
(2.61622 -0.359522 0)
(0.182101 -0.000707624 0)
(0.541855 -0.0155328 0)
(0.899128 -0.0437811 0)
(1.25612 -0.0847023 0)
(1.61511 -0.136824 0)
(1.97845 -0.199013 0)
(2.34862 -0.270192 0)
(2.7281 -0.350053 0)
(0.192212 -0.000660998 0)
(0.570527 -0.0150487 0)
(0.94478 -0.0424486 0)
(1.31725 -0.0821633 0)
(1.69025 -0.132776 0)
(2.0662 -0.193191 0)
(2.4476 -0.262352 0)
(2.83699 -0.339957 0)
(0.201992 -0.000615303 0)
(0.598289 -0.0145396 0)
(0.989016 -0.041046 0)
(1.37651 -0.0794897 0)
(1.76314 -0.128513 0)
(2.15135 -0.187061 0)
(2.54368 -0.254102 0)
(2.9427 -0.329337 0)
(0.211427 -0.000570844 0)
(0.625099 -0.0140108 0)
(1.03177 -0.0395873 0)
(1.43382 -0.0767079 0)
(1.83367 -0.124077 0)
(2.23379 -0.180681 0)
(2.63674 -0.245518 0)
(3.04511 -0.31829 0)
(0.220507 -0.000527897 0)
(0.650925 -0.0134672 0)
(1.07299 -0.0380855 0)
(1.48911 -0.0738422 0)
(1.90175 -0.119504 0)
(2.31341 -0.174104 0)
(2.72666 -0.236669 0)
(3.1441 -0.306904 0)
(0.229221 -0.000486617 0)
(0.675743 -0.012913 0)
(1.11263 -0.0365524 0)
(1.54233 -0.0709146 0)
(1.96733 -0.114831 0)
(2.39015 -0.167379 0)
(2.81336 -0.227621 0)
(3.2396 -0.295261 0)
(0.237565 -0.000447149 0)
(0.699535 -0.012352 0)
(1.15066 -0.0349985 0)
(1.59344 -0.067945 0)
(2.03036 -0.110087 0)
(2.46394 -0.160551 0)
(2.89679 -0.218431 0)
(3.33151 -0.283434 0)
(0.245536 -0.000409539 0)
(0.722289 -0.0117878 0)
(1.18708 -0.0334334 0)
(1.64241 -0.0649516 0)
(2.09079 -0.105302 0)
(2.53475 -0.153659 0)
(2.97688 -0.209155 0)
(3.41981 -0.271493 0)
(0.253132 -0.000373842 0)
(0.744003 -0.0112235 0)
(1.22186 -0.0318657 0)
(1.68923 -0.0619507 0)
(2.14862 -0.100502 0)
(2.60255 -0.146742 0)
(3.05363 -0.199839 0)
(3.50446 -0.259499 0)