/*--------------------------------*- C++ -*----------------------------------*\
| =========                 |                                                 |
| \\      /  F ield         | OpenFOAM: The Open Source CFD Toolbox           |
|  \\    /   O peration     | Version:  2212                                  |
|   \\  /    A nd           | Website:  www.openfoam.com                      |
|    \\/     M anipulation  |                                                 |
\*---------------------------------------------------------------------------*/
FoamFile
{
    version     2.0;
    format      ascii;
    arch        "LSB;label=32;scalar=64";
    class       volScalarField;
    location    "0.07";
    object      alphat;
}
// * * * * * * * * * * * * * * * * * * * * * * * * * * * * * * * * * * * * * //

dimensions      [1 -1 -1 0 0 0 0];

internalField   nonuniform List<scalar> 
3072
(
0.000343084
0.000724089
0.000749926
0.000746429
0.000718396
0.000691236
0.000757954
0.00124557
0.0017951
0.00199495
0.00208202
0.00215112
0.00055855
0.00143843
0.0019616
0.00185645
0.00118578
0.00100378
0.00183756
0.00229168
0.00353924
0.00495691
0.00697633
0.00907955
0.000731469
0.00262555
0.00318304
0.00273898
0.00244891
0.00266111
0.00410112
0.00605277
0.00882457
0.0120364
0.0151103
0.0178975
0.000920288
0.00376971
0.00364666
0.00324794
0.00355185
0.00518256
0.00800242
0.0111883
0.0148298
0.0184789
0.0217418
0.0245905
0.001064
0.00459663
0.00469485
0.00462293
0.00593785
0.00886086
0.0122895
0.0159569
0.0197744
0.0234031
0.0266411
0.0294583
0.00119003
0.00566345
0.00640565
0.00683879
0.00903798
0.0123661
0.0159773
0.019694
0.0234109
0.0269043
0.0300428
0.0327871
0.0012858
0.00642807
0.0078527
0.00923384
0.0120783
0.015561
0.0191149
0.0227094
0.0261935
0.0294407
0.0323718
0.0349589
0.00138915
0.00764086
0.00977472
0.0122829
0.015513
0.018912
0.02228
0.0255699
0.028666
0.0315106
0.0340753
0.0363408
0.00151537
0.00901911
0.0128491
0.0163601
0.0196707
0.0227195
0.0255597
0.028211
0.0306478
0.0328772
0.0349252
0.0367794
0.00169384
0.0107633
0.0160872
0.0199525
0.0230351
0.0255543
0.0277479
0.0297351
0.0315583
0.033263
0.0348902
0.0364309
0.00194341
0.0105115
0.0176425
0.0217625
0.0245802
0.0268668
0.0287792
0.0304305
0.0319366
0.0333391
0.034675
0.0359756
0.00343482
0.0104274
0.0188087
0.0233102
0.0258885
0.0280963
0.029834
0.0312699
0.0325374
0.033691
0.0347697
0.0358018
0.00218679
0.00220891
0.00221142
0.00221144
0.00219375
0.00215414
0.00209163
0.00200069
0.00187395
0.00171188
0.00148045
0.000717301
0.0111289
0.0128133
0.0138284
0.0140695
0.0137089
0.0128712
0.0115468
0.00976938
0.00754104
0.0045941
0.00219072
0.00121882
0.020224
0.0218926
0.0227518
0.0228565
0.0223563
0.0211668
0.019278
0.0166414
0.0132297
0.00903215
0.00402592
0.00160218
0.0269198
0.0286484
0.0297054
0.0301
0.0298004
0.0287218
0.026765
0.023755
0.0195361
0.0139913
0.00693219
0.00195794
0.0317969
0.033609
0.0348553
0.0355002
0.035487
0.0347283
0.0330613
0.0302015
0.0256224
0.0190786
0.0101917
0.00230787
0.0351039
0.0369674
0.0383583
0.0392495
0.0396095
0.0393472
0.0382336
0.0358423
0.0315252
0.0244046
0.0139888
0.00267239
0.0371747
0.0389979
0.0404219
0.0414603
0.0421282
0.0423712
0.0419748
0.0404235
0.0367676
0.0296204
0.0180184
0.00305281
0.0382922
0.0399251
0.041256
0.0423358
0.0432049
0.0438667
0.0441862
0.0436696
0.0411377
0.0344489
0.0217386
0.00347829
0.0384255
0.0398583
0.0410971
0.0421749
0.0431525
0.0440953
0.0449878
0.0454973
0.044433
0.0388749
0.0251447
0.00394373
0.0378585
0.0391411
0.0403027
0.0413546
0.0423702
0.043445
0.0446571
0.0459388
0.0464038
0.0428371
0.0290003
0.00443909
0.0372048
0.0383544
0.039427
0.0404063
0.0413366
0.0423102
0.043575
0.045143
0.0466057
0.0454332
0.0334395
0.00498445
0.0367895
0.037733
0.0386373
0.0395248
0.0404461
0.0413144
0.042208
0.0436905
0.045665
0.0466317
0.0381204
0.00561088
0.000322312
0.000683058
0.000713195
0.000709484
0.000689982
0.000654512
0.00068925
0.00101112
0.00163328
0.00187132
0.00196579
0.00203465
0.000524526
0.00135824
0.00189477
0.00188364
0.00129923
0.000817731
0.00160239
0.0020004
0.00295482
0.00432409
0.00610195
0.00803104
0.000684632
0.00244794
0.00314217
0.00280429
0.00247455
0.00237803
0.00339823
0.00513109
0.00754517
0.0105532
0.0134588
0.0160915
0.000861557
0.00363271
0.00360355
0.00314078
0.0031878
0.0041686
0.00671723
0.00968006
0.0130136
0.0164845
0.0196021
0.022328
0.000999878
0.00431721
0.00431774
0.00409
0.00486907
0.00733465
0.0106945
0.0140707
0.0176574
0.0211112
0.0242019
0.0269021
0.00112266
0.00519717
0.00567996
0.00582782
0.00763697
0.0108061
0.0142143
0.0176996
0.0211236
0.0244305
0.0274164
0.0300398
0.00122303
0.00595471
0.00703215
0.00812649
0.0107318
0.0140279
0.0173679
0.0206792
0.0239181
0.0269451
0.0296868
0.0321205
0.00133332
0.00721489
0.00909083
0.0114243
0.0143894
0.0175122
0.0205792
0.0235559
0.0263962
0.02901
0.031367
0.0334603
0.00146473
0.00879089
0.0123386
0.0156067
0.0185927
0.0213157
0.0238345
0.0261818
0.0283571
0.0303895
0.032219
0.0338761
0.00165374
0.010646
0.0154667
0.0189441
0.0217162
0.0239359
0.0258611
0.0275943
0.0292031
0.0307428
0.0321839
0.0335364
0.00189878
0.0101462
0.0167317
0.0205223
0.0230739
0.0250931
0.0267568
0.0281895
0.029495
0.0307341
0.0319245
0.0330762
0.00333884
0.00984892
0.017699
0.0218573
0.0241028
0.0260392
0.0275338
0.0287826
0.0299017
0.0309431
0.0319389
0.0329071
0.0020736
0.00209675
0.00210244
0.00210294
0.00209341
0.00205697
0.00200348
0.0019192
0.00180424
0.00165036
0.00142974
0.000690377
0.00999813
0.0116393
0.0126812
0.0129849
0.0126298
0.011885
0.0106808
0.00907699
0.00702358
0.00430837
0.00208474
0.0011772
0.0183544
0.0199896
0.0208751
0.0210546
0.0206193
0.0195581
0.0178428
0.015434
0.0123067
0.00843668
0.00379243
0.00155066
0.0245914
0.0262819
0.0273564
0.0278013
0.0275875
0.0266395
0.0248646
0.0221091
0.0182253
0.0131185
0.006534
0.00189461
0.0291658
0.0309399
0.0321906
0.0328794
0.0329474
0.0323104
0.03082
0.028215
0.0239452
0.0178781
0.00959635
0.00223439
0.0322735
0.0340923
0.0354763
0.0363956
0.0368099
0.0366356
0.0356603
0.0334891
0.029524
0.0228971
0.0132068
0.00258771
0.0342291
0.0359948
0.0374062
0.0384644
0.0391771
0.0394938
0.0392127
0.0378465
0.034502
0.0278648
0.0170524
0.00295691
0.0352896
0.0368595
0.0381727
0.0392611
0.0401634
0.0408825
0.0412916
0.0409221
0.0386582
0.0324895
0.0206759
0.00336836
0.0353805
0.0367564
0.0379832
0.0390713
0.0400736
0.0410588
0.0420173
0.0426359
0.041786
0.0367126
0.0239508
0.00382414
0.0348251
0.0360648
0.0372027
0.0382614
0.039293
0.0404068
0.0416703
0.0430291
0.043675
0.0404444
0.0277005
0.00431252
0.0342312
0.0353492
0.0364172
0.0374216
0.0383676
0.0393534
0.0406541
0.0423495
0.0439241
0.0431861
0.0321698
0.00485939
0.0338678
0.0348162
0.0357427
0.0367148
0.0376956
0.0385488
0.0394891
0.040965
0.043022
0.0443516
0.0370259
0.00550931
0.00034308
0.000724082
0.000749919
0.000746422
0.00071839
0.000691229
0.000757943
0.00124555
0.00179509
0.00199494
0.00208201
0.00215111
0.000558545
0.00143842
0.0019616
0.00185647
0.00118579
0.00100375
0.00183753
0.00229165
0.00353919
0.00495685
0.00697625
0.00907946
0.000731464
0.00262554
0.00318306
0.002739
0.00244894
0.00266106
0.00410104
0.00605266
0.00882444
0.0120362
0.0151102
0.0178973
0.00092028
0.00376974
0.00364669
0.00324795
0.0035518
0.00518241
0.00800226
0.0111881
0.0148296
0.0184787
0.0217417
0.0245903
0.00106399
0.0045966
0.00469479
0.00462283
0.00593766
0.00886062
0.0122893
0.0159567
0.0197742
0.0234029
0.0266409
0.0294581
0.00119001
0.00566335
0.00640549
0.00683855
0.00903769
0.0123659
0.015977
0.0196937
0.0234106
0.026904
0.0300425
0.0327869
0.00128578
0.00642794
0.00785246
0.00923352
0.012078
0.0155607
0.0191146
0.0227091
0.0261933
0.0294405
0.0323715
0.0349586
0.00138914
0.00764072
0.00977447
0.0122825
0.0155127
0.0189117
0.0222797
0.0255696
0.0286657
0.0315103
0.0340751
0.0363405
0.00151536
0.00901903
0.0128489
0.0163599
0.0196705
0.0227192
0.0255594
0.0282108
0.0306475
0.0328769
0.034925
0.0367792
0.00169384
0.0107633
0.0160871
0.0199524
0.023035
0.0255541
0.0277477
0.0297349
0.0315581
0.0332627
0.0348899
0.0364307
0.00194341
0.0105115
0.0176425
0.0217625
0.0245801
0.0268667
0.0287791
0.0304304
0.0319364
0.0333389
0.0346747
0.0359754
0.00343482
0.0104274
0.0188087
0.0233102
0.0258884
0.0280963
0.0298339
0.0312698
0.0325373
0.0336909
0.0347695
0.0358016
0.00218678
0.00220891
0.00221141
0.00221143
0.00219375
0.00215413
0.00209162
0.00200069
0.00187394
0.00171188
0.00148045
0.0007173
0.0111288
0.0128133
0.0138283
0.0140694
0.0137088
0.0128711
0.0115467
0.00976933
0.00754101
0.00459408
0.00219072
0.00121882
0.0202238
0.0218925
0.0227517
0.0228564
0.0223562
0.0211667
0.0192779
0.0166414
0.0132296
0.00903212
0.00402591
0.00160218
0.0269196
0.0286482
0.0297053
0.0300999
0.0298003
0.0287216
0.0267649
0.0237549
0.019536
0.0139912
0.00693217
0.00195794
0.0317967
0.0336087
0.034855
0.0355
0.0354868
0.0347281
0.0330611
0.0302014
0.0256223
0.0190786
0.0101917
0.00230786
0.0351036
0.0369672
0.0383581
0.0392492
0.0396093
0.039347
0.0382334
0.0358422
0.0315251
0.0244045
0.0139888
0.00267239
0.0371745
0.0389976
0.0404217
0.04146
0.042128
0.042371
0.0419746
0.0404233
0.0367675
0.0296203
0.0180184
0.00305281
0.0382919
0.0399248
0.0412558
0.0423356
0.0432046
0.0438664
0.044186
0.0436694
0.0411375
0.0344488
0.0217386
0.00347828
0.0384252
0.039858
0.0410969
0.0421746
0.0431522
0.044095
0.0449875
0.0454971
0.0444328
0.0388748
0.0251446
0.00394372
0.0378582
0.0391408
0.0403024
0.0413543
0.04237
0.0434448
0.0446568
0.0459386
0.0464036
0.0428369
0.0290002
0.00443909
0.0372046
0.0383542
0.0394268
0.0404061
0.0413364
0.0423099
0.0435747
0.0451428
0.0466054
0.045433
0.0334395
0.00498444
0.0367894
0.0377328
0.0386371
0.0395246
0.0404459
0.0413142
0.0422078
0.0436902
0.0456648
0.0466315
0.0381203
0.00561087
0.000322312
0.000683059
0.000713196
0.000709484
0.000689982
0.000654512
0.00068925
0.00101112
0.00163328
0.00187132
0.00196579
0.00203465
0.000524526
0.00135824
0.00189477
0.00188364
0.00129923
0.000817728
0.00160239
0.0020004
0.00295482
0.00432409
0.00610195
0.00803105
0.000684632
0.00244794
0.00314217
0.00280429
0.00247454
0.00237803
0.00339823
0.00513109
0.00754517
0.0105532
0.0134588
0.0160915
0.000861557
0.00363271
0.00360355
0.00314078
0.0031878
0.0041686
0.00671723
0.00968006
0.0130136
0.0164845
0.0196021
0.022328
0.000999878
0.00431721
0.00431773
0.00409
0.00486907
0.00733465
0.0106945
0.0140707
0.0176574
0.0211112
0.0242019
0.0269021
0.00112266
0.00519717
0.00567996
0.00582782
0.00763697
0.0108061
0.0142143
0.0176996
0.0211236
0.0244305
0.0274164
0.0300398
0.00122303
0.00595471
0.00703215
0.00812649
0.0107318
0.0140278
0.0173679
0.0206792
0.0239181
0.0269451
0.0296868
0.0321205
0.00133333
0.00721489
0.00909084
0.0114243
0.0143894
0.0175122
0.0205792
0.0235559
0.0263962
0.02901
0.031367
0.0334603
0.00146473
0.0087909
0.0123386
0.0156067
0.0185927
0.0213157
0.0238345
0.0261818
0.0283571
0.0303895
0.032219
0.0338762
0.00165374
0.0106461
0.0154667
0.0189441
0.0217162
0.0239359
0.0258611
0.0275943
0.0292031
0.0307428
0.032184
0.0335364
0.00189878
0.0101462
0.0167317
0.0205223
0.0230739
0.0250931
0.0267568
0.0281895
0.029495
0.0307341
0.0319245
0.0330762
0.00333884
0.00984891
0.017699
0.0218573
0.0241028
0.0260392
0.0275338
0.0287826
0.0299017
0.0309431
0.0319389
0.0329071
0.0020736
0.00209675
0.00210244
0.00210294
0.00209341
0.00205697
0.00200348
0.0019192
0.00180424
0.00165036
0.00142974
0.000690378
0.00999813
0.0116393
0.0126812
0.0129849
0.0126298
0.011885
0.0106808
0.009077
0.00702359
0.00430837
0.00208474
0.0011772
0.0183544
0.0199896
0.0208751
0.0210546
0.0206193
0.0195581
0.0178428
0.015434
0.0123067
0.00843669
0.00379243
0.00155066
0.0245914
0.0262819
0.0273564
0.0278014
0.0275875
0.0266395
0.0248646
0.0221091
0.0182253
0.0131185
0.00653401
0.00189461
0.0291658
0.0309399
0.0321906
0.0328794
0.0329474
0.0323104
0.03082
0.028215
0.0239453
0.0178781
0.00959636
0.00223439
0.0322735
0.0340924
0.0354763
0.0363957
0.0368099
0.0366356
0.0356603
0.0334891
0.029524
0.0228972
0.0132068
0.00258771
0.0342291
0.0359948
0.0374063
0.0384644
0.0391771
0.0394938
0.0392127
0.0378465
0.034502
0.0278648
0.0170524
0.00295691
0.0352896
0.0368595
0.0381727
0.0392612
0.0401635
0.0408825
0.0412917
0.0409221
0.0386583
0.0324895
0.0206759
0.00336837
0.0353805
0.0367565
0.0379833
0.0390713
0.0400737
0.0410589
0.0420174
0.0426359
0.0417861
0.0367126
0.0239508
0.00382414
0.0348251
0.0360648
0.0372028
0.0382614
0.0392931
0.0404069
0.0416704
0.0430292
0.0436751
0.0404445
0.0277006
0.00431252
0.0342312
0.0353492
0.0364172
0.0374216
0.0383676
0.0393534
0.0406541
0.0423496
0.0439242
0.0431862
0.0321698
0.00485939
0.0338679
0.0348163
0.0357428
0.0367148
0.0376957
0.0385489
0.0394891
0.040965
0.0430221
0.0443516
0.0370259
0.00550932
0.0209785
0.0219834
0.0238897
0.0260248
0.0280385
0.0298666
0.0312818
0.032453
0.0334978
0.0344106
0.0352348
0.0360014
0.0328962
0.0307544
0.0303119
0.0307128
0.0315749
0.0324297
0.0330489
0.0338518
0.0346915
0.0353109
0.0358323
0.0363103
0.0404504
0.0383159
0.0368275
0.0359258
0.0355813
0.0355213
0.0355957
0.0357216
0.0358531
0.0359835
0.0361116
0.0363129
0.0429914
0.0414894
0.040087
0.0389035
0.0379898
0.0372829
0.0367252
0.0364239
0.0361562
0.035902
0.0356869
0.035445
0.0367206
0.0374056
0.0380647
0.0387138
0.0394177
0.0403065
0.0412225
0.0422363
0.0439901
0.0463718
0.0474208
0.0221404
0.0367345
0.0371384
0.0375398
0.0379648
0.0384399
0.0390104
0.0398652
0.0407323
0.0420294
0.0444136
0.0493254
0.0363628
0.0364102
0.0365265
0.0366777
0.0369183
0.0372626
0.0377297
0.0384019
0.0393465
0.0404983
0.0422751
0.0468162
0.0426932
0.0352648
0.0352228
0.0353441
0.0357319
0.0362588
0.0369206
0.0377363
0.0388494
0.040096
0.041424
0.0443367
0.0440705
0.0197585
0.020379
0.0221129
0.024004
0.025756
0.0273136
0.0285301
0.0296029
0.0305909
0.0314786
0.0323057
0.0330986
0.0313834
0.0288875
0.028087
0.0281896
0.0287243
0.0293271
0.0299543
0.0307646
0.0316019
0.0322652
0.0328885
0.0334694
0.0390958
0.0364593
0.034398
0.0332119
0.0326023
0.0324072
0.0324542
0.0326366
0.0329049
0.033125
0.0333628
0.0336383
0.0418614
0.0397749
0.0379757
0.036438
0.0352781
0.0345252
0.034014
0.0336351
0.0334601
0.0333424
0.0332508
0.033183
0.0338726
0.03463
0.0353633
0.0360946
0.036866
0.037779
0.0385526
0.0397027
0.0415899
0.0442712
0.0466436
0.0226571
0.0340335
0.0345745
0.03508
0.035575
0.0360816
0.0367687
0.0375199
0.0383184
0.0398378
0.0424997
0.0483173
0.0372228
0.0339726
0.0342636
0.0344807
0.0346923
0.0349537
0.0353969
0.0360977
0.0368554
0.0383261
0.04027
0.0453085
0.0432624
0.0331238
0.0330386
0.0330113
0.0330692
0.0332759
0.0338468
0.0346282
0.035582
0.0372194
0.0388816
0.0426416
0.0438006
0.0209785
0.0219833
0.0238897
0.0260248
0.0280385
0.0298666
0.0312817
0.032453
0.0334977
0.0344105
0.0352347
0.0360013
0.0328961
0.0307543
0.0303118
0.0307127
0.0315748
0.0324296
0.0330488
0.0338517
0.0346914
0.0353108
0.0358322
0.0363102
0.0404503
0.0383158
0.0368274
0.0359258
0.0355812
0.0355213
0.0355957
0.0357215
0.035853
0.0359834
0.0361115
0.0363128
0.0429913
0.0414893
0.0400869
0.0389035
0.0379897
0.0372828
0.0367251
0.0364239
0.0361561
0.0359019
0.0356869
0.0354449
0.0367205
0.0374054
0.0380645
0.0387137
0.0394175
0.0403063
0.0412223
0.0422361
0.0439899
0.0463716
0.0474206
0.0221404
0.0367344
0.0371383
0.0375397
0.0379646
0.0384398
0.0390102
0.039865
0.0407322
0.0420292
0.0444134
0.0493252
0.0363627
0.0364101
0.0365264
0.0366776
0.0369182
0.0372625
0.0377296
0.0384018
0.0393464
0.0404981
0.0422749
0.046816
0.042693
0.0352648
0.0352227
0.0353441
0.0357318
0.0362587
0.0369205
0.0377362
0.0388493
0.0400958
0.0414238
0.0443365
0.0440704
0.0197585
0.020379
0.0221129
0.024004
0.025756
0.0273136
0.0285301
0.0296029
0.0305909
0.0314786
0.0323057
0.0330986
0.0313833
0.0288874
0.0280869
0.0281895
0.0287242
0.029327
0.0299543
0.0307646
0.0316019
0.0322652
0.0328885
0.0334694
0.0390957
0.0364592
0.034398
0.0332119
0.0326022
0.0324072
0.0324541
0.0326366
0.0329049
0.033125
0.0333628
0.0336383
0.0418612
0.0397748
0.0379756
0.0364379
0.0352781
0.0345251
0.034014
0.0336351
0.0334601
0.0333424
0.0332508
0.033183
0.0338726
0.03463
0.0353633
0.0360946
0.036866
0.0377791
0.0385526
0.0397027
0.04159
0.0442713
0.0466437
0.0226572
0.0340335
0.0345745
0.03508
0.035575
0.0360817
0.0367688
0.03752
0.0383185
0.0398379
0.0424998
0.0483174
0.0372229
0.0339726
0.0342636
0.0344808
0.0346923
0.0349538
0.035397
0.0360978
0.0368555
0.0383262
0.0402702
0.0453087
0.0432625
0.0331238
0.0330386
0.0330114
0.0330693
0.033276
0.0338469
0.0346283
0.0355821
0.0372195
0.0388818
0.0426417
0.0438007
0.0413183
0.0400399
0.0387826
0.0376966
0.03682
0.0361019
0.0354931
0.0350385
0.0345811
0.034101
0.0336475
0.0333491
0.0391101
0.0380067
0.036868
0.0358456
0.0349702
0.0342145
0.0335393
0.0329244
0.0322483
0.031459
0.030591
0.0299599
0.0367723
0.0358351
0.0348053
0.0338356
0.0329613
0.0321639
0.0314026
0.030621
0.0296824
0.0284236
0.0266678
0.0247605
0.0344919
0.0337061
0.0327827
0.0318631
0.0309901
0.0301511
0.0293004
0.0283519
0.0271146
0.0251848
0.0216633
0.016141
0.033532
0.0342356
0.0351052
0.036136
0.0372494
0.0382907
0.0393743
0.04042
0.0413895
0.0423161
0.0428182
0.0422726
0.0305068
0.0323712
0.0341718
0.0358451
0.0374133
0.0387362
0.0398692
0.0407791
0.041441
0.0417001
0.0416417
0.0407452
0.0253815
0.0296181
0.0327709
0.0351022
0.0369605
0.0384218
0.0395484
0.0403269
0.0406671
0.0406634
0.0403129
0.0390778
0.0161694
0.0257319
0.0309259
0.033959
0.0360443
0.0375723
0.0386749
0.0392776
0.039464
0.0393477
0.0387567
0.0373775
0.0402612
0.0383199
0.0366817
0.0353194
0.0342816
0.0335249
0.0329149
0.0323895
0.0319836
0.0316127
0.0312966
0.0310844
0.0387291
0.0368424
0.0352129
0.0338339
0.0327066
0.0317768
0.0309509
0.0301782
0.0294499
0.0287138
0.0280123
0.0275198
0.0371693
0.0352909
0.0336045
0.0321264
0.0308444
0.029709
0.0286475
0.0276026
0.0265204
0.0252901
0.0238374
0.0225112
0.0355526
0.0336817
0.0319344
0.030349
0.0289166
0.0275963
0.0263239
0.0250232
0.0235719
0.0216793
0.0186805
0.0143419
0.0310157
0.0310373
0.0311413
0.0314343
0.0320187
0.0329817
0.0342288
0.0357056
0.0375228
0.0394289
0.0414393
0.042
0.0275594
0.0280281
0.0284591
0.029036
0.0299173
0.0311517
0.0326571
0.0343509
0.0361901
0.0379605
0.0392928
0.0396629
0.022606
0.0244653
0.0256317
0.0266075
0.0277534
0.0291592
0.0307728
0.0325115
0.0342789
0.0358581
0.0368876
0.037191
0.014335
0.0201975
0.0228268
0.0243509
0.0257399
0.027238
0.0288613
0.0305549
0.0322166
0.0336166
0.0345051
0.0347959
0.0413181
0.0400397
0.0387825
0.0376965
0.03682
0.0361019
0.0354931
0.0350384
0.034581
0.034101
0.0336475
0.0333491
0.0391099
0.0380065
0.0368678
0.0358455
0.0349701
0.0342144
0.0335392
0.0329244
0.0322483
0.031459
0.0305909
0.0299599
0.0367721
0.0358349
0.0348052
0.0338355
0.0329612
0.0321638
0.0314025
0.0306209
0.0296824
0.0284236
0.0266677
0.0247605
0.0344917
0.0337059
0.0327826
0.031863
0.0309899
0.030151
0.0293003
0.0283518
0.0271145
0.0251847
0.0216632
0.016141
0.033532
0.0342355
0.0351051
0.0361359
0.0372493
0.0382906
0.0393742
0.0404198
0.0413894
0.042316
0.042818
0.0422725
0.0305067
0.0323712
0.0341717
0.035845
0.0374132
0.0387361
0.0398691
0.040779
0.0414409
0.0417
0.0416416
0.0407451
0.0253814
0.029618
0.0327708
0.035102
0.0369604
0.0384216
0.0395483
0.0403268
0.040667
0.0406633
0.0403128
0.0390777
0.0161693
0.0257318
0.0309258
0.0339589
0.0360442
0.0375721
0.0386748
0.0392774
0.0394639
0.0393476
0.0387566
0.0373774
0.0402611
0.0383198
0.0366817
0.0353193
0.0342816
0.0335249
0.0329149
0.0323895
0.0319836
0.0316127
0.0312966
0.0310844
0.038729
0.0368424
0.0352129
0.0338339
0.0327067
0.0317769
0.030951
0.0301783
0.0294499
0.0287139
0.0280123
0.0275199
0.0371693
0.0352909
0.0336045
0.0321264
0.0308444
0.0297091
0.0286476
0.0276027
0.0265205
0.0252902
0.0238375
0.0225112
0.0355525
0.0336817
0.0319345
0.0303491
0.0289167
0.0275964
0.0263241
0.0250234
0.0235721
0.0216794
0.0186806
0.0143419
0.0310158
0.0310374
0.0311414
0.0314344
0.0320189
0.0329819
0.034229
0.0357058
0.037523
0.0394291
0.0414394
0.0420002
0.0275595
0.0280283
0.0284594
0.0290363
0.0299177
0.031152
0.0326573
0.0343512
0.0361903
0.0379608
0.039293
0.0396631
0.0226061
0.0244656
0.0256321
0.026608
0.0277538
0.0291597
0.0307731
0.0325118
0.0342792
0.0358583
0.0368878
0.0371912
0.0143351
0.0201979
0.0228273
0.0243515
0.0257405
0.0272386
0.0288618
0.0305553
0.0322169
0.0336169
0.0345054
0.0347961
0.0323407
0.0316873
0.0308612
0.0299906
0.0291222
0.0282471
0.0273138
0.0262127
0.0246961
0.0220293
0.0159548
0.00353339
0.0303338
0.0297911
0.0290518
0.0282292
0.0273701
0.0264672
0.0254654
0.0242404
0.0225135
0.0195753
0.0137081
0.00245441
0.0284585
0.0280067
0.027344
0.0265681
0.0257234
0.0248031
0.0237508
0.0224395
0.0205992
0.0176337
0.0123051
0.00200537
0.0266867
0.026309
0.0257137
0.0249836
0.0241589
0.0232328
0.0221504
0.0207907
0.0189136
0.0160463
0.0112612
0.00178708
0.0249733
0.0246573
0.0241222
0.0234382
0.0226402
0.0217213
0.0206299
0.0192566
0.0173985
0.014687
0.0103707
0.00163127
0.0232483
0.0229859
0.0225069
0.0218714
0.0211091
0.0202123
0.0191341
0.0177793
0.0159816
0.0134524
0.00953974
0.00149711
0.0213981
0.0211857
0.0207627
0.020182
0.0194681
0.0186123
0.0175725
0.0162686
0.0145672
0.0122405
0.00870459
0.00137324
0.0192361
0.0190745
0.0187126
0.018199
0.0175527
0.0167634
0.0157943
0.0145803
0.013017
0.0109277
0.00779701
0.00125237
0.0164587
0.0163515
0.0160617
0.0156358
0.0150867
0.0144016
0.0135494
0.0124812
0.0111193
0.00933869
0.00671519
0.00112605
0.012589
0.0125392
0.012338
0.0120315
0.011624
0.0111
0.0104357
0.0096023
0.00853756
0.00719094
0.00527899
0.000981146
0.00699325
0.00699102
0.00689366
0.00674509
0.00653878
0.00625682
0.00588792
0.00542804
0.00480905
0.00406948
0.00311888
0.000798012
0.000748141
0.000743623
0.000731108
0.000713485
0.000690495
0.000662056
0.000627341
0.00058319
0.000527085
0.000456001
0.000363384
0.000172919
0.00366542
0.0209689
0.0288525
0.0325397
0.0348044
0.0363623
0.0374004
0.037896
0.0380443
0.0378205
0.0370346
0.035651
0.00287647
0.0188188
0.0269682
0.0309703
0.0333521
0.0349275
0.0358814
0.0363317
0.0364358
0.0361254
0.0352569
0.0339111
0.00254615
0.0173558
0.0252239
0.0293223
0.0317583
0.0333225
0.0342277
0.0346463
0.0347015
0.0343264
0.0334469
0.032166
0.00235417
0.016143
0.023572
0.027626
0.0300625
0.0315973
0.0324656
0.0328667
0.0328733
0.0324538
0.0316055
0.030407
0.00220575
0.0150166
0.0219566
0.0258779
0.0282706
0.0297603
0.0306
0.0309728
0.0309379
0.0305049
0.0297072
0.0285985
0.00207233
0.0138909
0.0203168
0.0240413
0.0263465
0.0277753
0.0285801
0.0289169
0.0288478
0.0284194
0.0276819
0.026663
0.0019405
0.0127023
0.0185744
0.0220366
0.0242031
0.025546
0.0262956
0.0265896
0.026492
0.0260759
0.0253938
0.0244696
0.00180179
0.0113709
0.0166099
0.0197157
0.0216722
0.0228828
0.0235477
0.0237872
0.023664
0.0232618
0.0226281
0.0218135
0.0016532
0.00976637
0.0142055
0.0168099
0.0184492
0.0194574
0.0199955
0.0201643
0.0200221
0.0196383
0.0190612
0.0183928
0.00147849
0.00769625
0.0109745
0.0128485
0.0140228
0.0147376
0.0151005
0.0151929
0.0150487
0.0147071
0.014247
0.0137606
0.00125656
0.00467622
0.00624611
0.00713758
0.00770789
0.00805387
0.00821323
0.00825435
0.00814879
0.007955
0.00769873
0.00742089
0.000296998
0.000516015
0.000658394
0.00074657
0.000806523
0.000847149
0.000871034
0.000880683
0.000876551
0.000864168
0.00084579
0.000822609
0.0339045
0.0320632
0.0302852
0.0286238
0.0270794
0.025619
0.0241809
0.0226674
0.0208851
0.0183057
0.0130968
0.00295952
0.0322531
0.0304726
0.0287075
0.0270184
0.0254143
0.0238686
0.0223208
0.0206594
0.01866
0.0157809
0.0106113
0.00180632
0.0306096
0.0289195
0.0272106
0.0255434
0.0239326
0.022357
0.0207584
0.0190224
0.0169294
0.0140149
0.00925841
0.00136191
0.0289613
0.0273832
0.0257639
0.0241597
0.0225876
0.0210308
0.0194357
0.0176942
0.0156118
0.0128224
0.0085926
0.00119429
0.027265
0.0258114
0.0243026
0.0227897
0.0212904
0.0197912
0.0182442
0.0165527
0.014554
0.0119655
0.00822509
0.00112114
0.0254446
0.0241172
0.022729
0.0213256
0.0199234
0.0185113
0.0170471
0.0154468
0.0135765
0.0112108
0.00787165
0.0010703
0.0233753
0.0221699
0.0209087
0.0196294
0.0183453
0.0170461
0.0156947
0.0142182
0.0125065
0.0103677
0.00741752
0.00103214
0.0208619
0.0197811
0.0186595
0.0175252
0.0163854
0.0152293
0.014024
0.0127062
0.0111857
0.00928818
0.00677678
0.00098673
0.0176109
0.0166834
0.0157331
0.0147814
0.0138268
0.0128573
0.0118441
0.0107325
0.00945582
0.00784057
0.00584668
0.0009289
0.0131703
0.0124805
0.0117584
0.0110517
0.0103436
0.00962259
0.00886537
0.0080259
0.00707279
0.0058059
0.0044185
0.0008464
0.00710619
0.00677236
0.00641247
0.00604185
0.00566574
0.00528088
0.0048748
0.00441057
0.0039129
0.00316275
0.00247171
0.000726721
0.000794512
0.000762748
0.00072794
0.000691615
0.000654508
0.000616263
0.000576638
0.000533587
0.000487118
0.000424861
0.00036292
0.000225112
0.00319149
0.0153142
0.0201539
0.0223096
0.0239148
0.0254484
0.0270257
0.0286327
0.0301761
0.0314401
0.0322517
0.0325512
0.0023094
0.0129273
0.0179968
0.0205246
0.0222618
0.0237896
0.0252947
0.0268023
0.0282332
0.0293919
0.0301551
0.030469
0.00188303
0.0113494
0.0162678
0.0189437
0.0207396
0.0222332
0.0236587
0.0250707
0.026403
0.0274782
0.0282063
0.028534
0.0016285
0.0101605
0.0148239
0.017504
0.0192941
0.020734
0.0220828
0.0234124
0.0246645
0.0256741
0.0263753
0.0267146
0.00144661
0.00917625
0.0135411
0.0161333
0.0178628
0.0192323
0.0205106
0.0217756
0.0229691
0.0239305
0.024612
0.0249625
0.00130648
0.00827833
0.012328
0.014758
0.0163754
0.0176545
0.018865
0.0200817
0.0212389
0.0221695
0.0228391
0.0232034
0.00118662
0.00742127
0.0111055
0.0133002
0.0147511
0.0159107
0.0170449
0.0182208
0.019359
0.0202736
0.0209368
0.0213205
0.00107521
0.00656174
0.00978871
0.0116664
0.0128904
0.0138894
0.0149204
0.0160433
0.0171647
0.0180649
0.0187181
0.0191256
0.000963414
0.00562363
0.00825576
0.00972488
0.0106599
0.0114471
0.0123243
0.0133482
0.0144201
0.0152794
0.0158944
0.0163181
0.000839574
0.00445119
0.00629347
0.00723954
0.00782154
0.00833553
0.00897154
0.00979605
0.0107405
0.0115203
0.0120424
0.0124334
0.000685187
0.00270471
0.00357139
0.00394772
0.00416454
0.00437534
0.00470247
0.00521292
0.00580502
0.00630266
0.00665046
0.00688282
0.000148385
0.000313881
0.000387383
0.000429526
0.000462339
0.000500443
0.000549412
0.000606451
0.000656862
0.000695878
0.00072486
0.000742439
0.0323405
0.0316871
0.030861
0.0299904
0.029122
0.0282469
0.0273137
0.0262126
0.0246959
0.0220292
0.0159547
0.00353338
0.0303335
0.0297908
0.0290516
0.028229
0.0273699
0.0264671
0.0254652
0.0242403
0.0225134
0.0195752
0.013708
0.0024544
0.0284582
0.0280064
0.0273437
0.0265679
0.0257231
0.0248029
0.0237506
0.0224393
0.020599
0.0176335
0.012305
0.00200535
0.0266863
0.0263087
0.0257134
0.0249833
0.0241586
0.0232325
0.0221502
0.0207905
0.0189133
0.016046
0.011261
0.00178706
0.0249729
0.024657
0.0241219
0.0234378
0.0226399
0.021721
0.0206296
0.0192563
0.0173982
0.0146867
0.0103705
0.00163124
0.0232479
0.0229855
0.0225066
0.021871
0.0211087
0.020212
0.0191338
0.017779
0.0159812
0.0134521
0.00953952
0.00149706
0.0213977
0.0211854
0.0207624
0.0201817
0.0194678
0.018612
0.0175722
0.0162683
0.0145668
0.0122402
0.00870439
0.00137318
0.0192358
0.0190742
0.0187123
0.0181987
0.0175524
0.0167632
0.015794
0.01458
0.0130167
0.0109274
0.00779688
0.00125229
0.0164584
0.0163513
0.0160615
0.0156356
0.0150865
0.0144014
0.0135492
0.012481
0.0111191
0.00933857
0.00671518
0.00112594
0.0125889
0.012539
0.0123378
0.0120314
0.0116239
0.0110999
0.0104356
0.00960223
0.00853751
0.00719095
0.0052791
0.000981019
0.00699317
0.00699094
0.00689359
0.00674503
0.00653872
0.00625677
0.00588788
0.005428
0.00480903
0.0040695
0.00311898
0.000797852
0.000748122
0.000743605
0.000731091
0.000713469
0.000690479
0.00066204
0.000627324
0.000583172
0.000527064
0.000455977
0.000363356
0.000172852
0.00366542
0.0209688
0.0288524
0.0325396
0.0348043
0.0363622
0.0374002
0.0378958
0.0380442
0.0378203
0.0370345
0.035651
0.00287646
0.0188187
0.0269681
0.0309702
0.0333519
0.0349273
0.0358813
0.0363315
0.0364357
0.0361253
0.0352568
0.0339111
0.00254614
0.0173557
0.0252238
0.0293221
0.0317581
0.0333223
0.0342276
0.0346461
0.0347013
0.0343263
0.0334468
0.032166
0.00235416
0.0161429
0.0235718
0.0276258
0.0300624
0.0315971
0.0324654
0.0328666
0.0328731
0.0324537
0.0316054
0.030407
0.00220574
0.0150165
0.0219565
0.0258778
0.0282705
0.0297601
0.0305999
0.0309726
0.0309378
0.0305048
0.0297071
0.0285985
0.00207232
0.0138909
0.0203167
0.0240411
0.0263464
0.0277751
0.02858
0.0289168
0.0288477
0.0284193
0.0276819
0.0266629
0.00194049
0.0127023
0.0185743
0.0220365
0.024203
0.0255459
0.0262955
0.0265895
0.0264919
0.0260758
0.0253938
0.0244696
0.00180177
0.0113708
0.0166099
0.0197156
0.0216721
0.0228828
0.0235476
0.0237871
0.023664
0.0232617
0.022628
0.0218135
0.00165318
0.00976634
0.0142054
0.0168099
0.0184492
0.0194574
0.0199955
0.0201643
0.0200221
0.0196383
0.0190612
0.0183928
0.00147847
0.00769624
0.0109745
0.0128485
0.0140228
0.0147376
0.0151004
0.0151928
0.0150487
0.0147071
0.014247
0.0137606
0.00125654
0.00467622
0.0062461
0.00713756
0.00770788
0.00805385
0.00821321
0.00825433
0.00814878
0.007955
0.00769872
0.00742089
0.000296992
0.000516009
0.000658389
0.000746564
0.000806517
0.000847144
0.000871029
0.000880679
0.000876547
0.000864164
0.000845787
0.000822606
0.0339045
0.0320633
0.0302852
0.0286239
0.0270796
0.0256191
0.0241811
0.0226676
0.0208854
0.0183059
0.0130969
0.00295954
0.0322531
0.0304726
0.0287076
0.0270186
0.0254145
0.0238688
0.0223211
0.0206597
0.0186603
0.0157812
0.0106115
0.00180638
0.0306096
0.0289195
0.0272106
0.0255436
0.0239328
0.0223572
0.0207587
0.0190228
0.0169299
0.0140154
0.00925879
0.00136203
0.0289613
0.0273832
0.025764
0.0241598
0.0225878
0.0210311
0.0194361
0.0176947
0.0156123
0.012823
0.00859302
0.00119444
0.027265
0.0258115
0.0243027
0.0227899
0.0212906
0.0197915
0.0182445
0.0165532
0.0145546
0.0119661
0.00822543
0.00112132
0.0254446
0.0241172
0.022729
0.0213257
0.0199236
0.0185115
0.0170474
0.0154472
0.0135771
0.0112113
0.00787183
0.00107049
0.0233753
0.02217
0.0209087
0.0196296
0.0183455
0.0170463
0.015695
0.0142187
0.0125069
0.0103681