/*--------------------------------*- C++ -*----------------------------------*\
| =========                 |                                                 |
| \\      /  F ield         | OpenFOAM: The Open Source CFD Toolbox           |
|  \\    /   O peration     | Version:  2212                                  |
|   \\  /    A nd           | Website:  www.openfoam.com                      |
|    \\/     M anipulation  |                                                 |
\*---------------------------------------------------------------------------*/
FoamFile
{
    version     2.0;
    format      ascii;
    arch        "LSB;label=32;scalar=64";
    class       volScalarField;
    location    "0.07";
    object      alphat;
}
// * * * * * * * * * * * * * * * * * * * * * * * * * * * * * * * * * * * * * //

dimensions      [1 -1 -1 0 0 0 0];

internalField   nonuniform List<scalar> 
3072
(
0.000277263
0.000597303
0.000642296
0.000641812
0.000637108
0.000610938
0.000595813
0.000671651
0.00116641
0.00158375
0.00172478
0.001789
0.000448717
0.0012971
0.00184102
0.00206353
0.0017685
0.00102891
0.000922421
0.00163685
0.00200357
0.00321392
0.00439444
0.00613113
0.000576607
0.00213971
0.00288753
0.00301418
0.00260891
0.00241257
0.00239651
0.00340811
0.00519109
0.0076233
0.0101926
0.0126781
0.00073003
0.00336878
0.00367242
0.00319403
0.00303
0.00305403
0.00406879
0.00659829
0.00934672
0.0124523
0.015394
0.0179974
0.000863344
0.00400267
0.00404402
0.00366156
0.00365927
0.00449009
0.00682835
0.0100956
0.0132551
0.0164525
0.0193992
0.0219986
0.000989956
0.00453584
0.00459991
0.00434962
0.00485523
0.00685627
0.0100127
0.0132119
0.0163388
0.0194132
0.0222436
0.024774
0.00110129
0.00514324
0.00559004
0.0056869
0.00700671
0.00982734
0.012836
0.0157994
0.0187132
0.021491
0.0241176
0.0265291
0.00123706
0.00649542
0.0077249
0.00877616
0.0109443
0.0134081
0.0159054
0.0184239
0.0209554
0.0233678
0.0256409
0.0277393
0.00139934
0.00881342
0.0115856
0.0139016
0.015968
0.0178447
0.0196612
0.0214793
0.0233323
0.025142
0.0268922
0.0285643
0.00162417
0.0106159
0.0147348
0.0175705
0.0196237
0.021197
0.0225493
0.0238146
0.0250439
0.0262687
0.0275168
0.0288031
0.00183776
0.00991153
0.015903
0.0193575
0.0216355
0.0230404
0.0243162
0.0252268
0.0260562
0.0268853
0.0277605
0.0287149
0.00306824
0.00934332
0.0167535
0.0207707
0.0227457
0.0244918
0.0255937
0.0263792
0.0270078
0.0276004
0.0282275
0.0289394
0.00183866
0.00186318
0.00187766
0.00188035
0.00188182
0.00185302
0.00180919
0.00173401
0.00163056
0.00148918
0.00128011
0.000608949
0.0078483
0.00942557
0.0105287
0.0110009
0.0107912
0.0102231
0.00924345
0.00789628
0.00610971
0.00373431
0.00182541
0.0010586
0.0148186
0.0164531
0.0174769
0.0178749
0.0176584
0.0168781
0.0154799
0.0134454
0.010735
0.00735425
0.00327621
0.00141139
0.0202021
0.0219303
0.0231317
0.0237703
0.0237989
0.0231552
0.0217463
0.0194476
0.0160586
0.0115948
0.00577815
0.00172512
0.0242359
0.0260723
0.0274727
0.0283956
0.0287704
0.028471
0.0273208
0.0250714
0.0212917
0.0158468
0.00852354
0.00203851
0.027
0.0289019
0.0304552
0.0316219
0.0323337
0.0324813
0.0318534
0.0300689
0.0265487
0.020486
0.0118451
0.00236093
0.028687
0.0305854
0.0322177
0.0335647
0.0345985
0.0352501
0.0352923
0.0342407
0.0312775
0.0252081
0.0153872
0.00270061
0.0296592
0.0314133
0.0329967
0.0344114
0.0356869
0.0368043
0.0375934
0.0375467
0.035556
0.0297779
0.0188529
0.00307682
0.030121
0.0315686
0.0329961
0.0344055
0.0358087
0.0372573
0.038677
0.0396775
0.0390333
0.0341019
0.0220555
0.00349583
0.0300653
0.0312535
0.0324649
0.033846
0.0353716
0.0370288
0.0388389
0.0406759
0.0414728
0.0381742
0.0257921
0.00394333
0.0298349
0.0311082
0.0321686
0.03328
0.0348095
0.0365955
0.0385463
0.0407627
0.0426465
0.0416057
0.0302754
0.00443911
0.0298484
0.0311936
0.0324141
0.0333904
0.034646
0.0363601
0.0382027
0.0403884
0.0426656
0.0435807
0.035
0.00501358
0.000277264
0.000597305
0.000642298
0.000641813
0.000637109
0.000610939
0.000595814
0.000671653
0.00116641
0.00158375
0.00172478
0.001789
0.000448719
0.0012971
0.00184101
0.00206353
0.00176849
0.0010289
0.000922425
0.00163686
0.00200357
0.00321393
0.00439447
0.00613116
0.00057661
0.00213972
0.00288753
0.00301416
0.00260889
0.00241256
0.00239652
0.00340813
0.00519113
0.00762335
0.0101926
0.0126782
0.000730033
0.00336879
0.00367242
0.00319402
0.00303001
0.00305404
0.00406883
0.00659834
0.00934679
0.0124523
0.0153941
0.0179975
0.000863348
0.00400268
0.00404402
0.00366157
0.00365928
0.00449013
0.00682843
0.0100957
0.0132552
0.0164526
0.0193993
0.0219987
0.000989959
0.00453585
0.00459993
0.00434964
0.00485527
0.00685636
0.0100128
0.013212
0.0163389
0.0194133
0.0222437
0.0247741
0.00110129
0.00514326
0.00559008
0.00568696
0.00700683
0.00982747
0.0128361
0.0157995
0.0187133
0.0214911
0.0241177
0.0265293
0.00123706
0.00649545
0.00772497
0.00877626
0.0109445
0.0134082
0.0159056
0.018424
0.0209556
0.0233679
0.025641
0.0277394
0.00139934
0.00881345
0.0115857
0.0139017
0.0159681
0.0178448
0.0196613
0.0214795
0.0233324
0.0251422
0.0268923
0.0285644
0.00162417
0.0106159
0.0147349
0.0175706
0.0196238
0.021197
0.0225494
0.0238147
0.0250439
0.0262688
0.0275169
0.0288032
0.00183776
0.00991153
0.015903
0.0193575
0.0216355
0.0230404
0.0243162
0.0252269
0.0260563
0.0268854
0.0277606
0.028715
0.00306824
0.00934333
0.0167535
0.0207707
0.0227457
0.0244918
0.0255937
0.0263792
0.0270078
0.0276004
0.0282275
0.0289394
0.00183867
0.00186318
0.00187766
0.00188035
0.00188183
0.00185302
0.00180919
0.00173401
0.00163056
0.00148918
0.00128011
0.000608949
0.00784833
0.0094256
0.0105287
0.0110009
0.0107913
0.0102231
0.00924348
0.00789629
0.00610972
0.00373432
0.00182541
0.0010586
0.0148186
0.0164531
0.017477
0.017875
0.0176585
0.0168781
0.0154799
0.0134454
0.010735
0.00735427
0.00327622
0.00141139
0.0202022
0.0219304
0.0231318
0.0237704
0.0237989
0.0231552
0.0217463
0.0194477
0.0160586
0.0115948
0.00577816
0.00172513
0.024236
0.0260724
0.0274728
0.0283957
0.0287705
0.0284711
0.0273209
0.0250715
0.0212917
0.0158468
0.00852355
0.00203851
0.0270001
0.028902
0.0304553
0.031622
0.0323338
0.0324814
0.0318535
0.030069
0.0265487
0.020486
0.0118451
0.00236093
0.0286871
0.0305855
0.0322178
0.0335648
0.0345987
0.0352502
0.0352924
0.0342408
0.0312775
0.0252081
0.0153872
0.00270061
0.0296594
0.0314134
0.0329968
0.0344115
0.035687
0.0368045
0.0375936
0.0375468
0.0355561
0.029778
0.0188529
0.00307682
0.0301212
0.0315687
0.0329963
0.0344056
0.0358088
0.0372574
0.0386771
0.0396776
0.0390334
0.0341019
0.0220556
0.00349584
0.0300654
0.0312536
0.0324651
0.0338461
0.0353718
0.0370289
0.038839
0.040676
0.0414729
0.0381743
0.0257921
0.00394333
0.029835
0.0311083
0.0321687
0.0332801
0.0348096
0.0365956
0.0385464
0.0407628
0.0426466
0.0416058
0.0302755
0.00443912
0.0298485
0.0311937
0.0324142
0.0333905
0.034646
0.0363602
0.0382028
0.0403885
0.0426657
0.0435808
0.0350001
0.00501358
0.000277265
0.000597306
0.0006423
0.000641816
0.000637111
0.000610942
0.000595816
0.000671655
0.00116641
0.00158375
0.00172478
0.001789
0.00044872
0.00129711
0.00184103
0.00206354
0.0017685
0.00102891
0.000922426
0.00163686
0.00200357
0.00321393
0.00439447
0.00613116
0.000576611
0.00213973
0.00288755
0.00301418
0.00260891
0.00241257
0.00239652
0.00340813
0.00519113
0.00762335
0.0101926
0.0126782
0.000730034
0.0033688
0.00367244
0.00319404
0.00303002
0.00305404
0.00406883
0.00659835
0.0093468
0.0124523
0.0153941
0.0179975
0.000863349
0.00400269
0.00404404
0.00366159
0.00365929
0.00449013
0.00682843
0.0100957
0.0132552
0.0164526
0.0193993
0.0219987
0.000989961
0.00453586
0.00459995
0.00434966
0.00485528
0.00685636
0.0100128
0.013212
0.0163389
0.0194133
0.0222437
0.0247741
0.00110129
0.00514327
0.0055901
0.00568697
0.00700683
0.00982747
0.0128361
0.0157995
0.0187134
0.0214911
0.0241178
0.0265293
0.00123706
0.00649547
0.00772499
0.00877628
0.0109445
0.0134082
0.0159056
0.018424
0.0209556
0.0233679
0.025641
0.0277394
0.00139934
0.00881346
0.0115857
0.0139017
0.0159681
0.0178448
0.0196613
0.0214795
0.0233325
0.0251422
0.0268923
0.0285644
0.00162418
0.0106159
0.0147349
0.0175706
0.0196238
0.0211971
0.0225494
0.0238147
0.025044
0.0262688
0.0275169
0.0288032
0.00183776
0.00991154
0.0159031
0.0193575
0.0216356
0.0230404
0.0243162
0.0252269
0.0260563
0.0268854
0.0277606
0.028715
0.00306824
0.00934334
0.0167535
0.0207707
0.0227457
0.0244918
0.0255937
0.0263792
0.0270079
0.0276005
0.0282275
0.0289395
0.00183867
0.00186318
0.00187766
0.00188035
0.00188183
0.00185302
0.00180919
0.00173401
0.00163056
0.00148918
0.00128011
0.000608948
0.00784833
0.0094256
0.0105287
0.0110009
0.0107913
0.0102231
0.00924347
0.00789629
0.00610972
0.00373432
0.00182541
0.0010586
0.0148186
0.0164531
0.017477
0.017875
0.0176585
0.0168781
0.0154799
0.0134454
0.010735
0.00735426
0.00327621
0.00141139
0.0202022
0.0219304
0.0231318
0.0237704
0.0237989
0.0231552
0.0217463
0.0194477
0.0160586
0.0115948
0.00577815
0.00172512
0.024236
0.0260724
0.0274728
0.0283957
0.0287705
0.0284711
0.0273209
0.0250714
0.0212917
0.0158468
0.00852354
0.00203851
0.0270001
0.028902
0.0304553
0.031622
0.0323338
0.0324814
0.0318535
0.0300689
0.0265487
0.020486
0.0118451
0.00236093
0.0286871
0.0305855
0.0322178
0.0335648
0.0345986
0.0352502
0.0352924
0.0342407
0.0312775
0.0252081
0.0153872
0.00270061
0.0296594
0.0314134
0.0329968
0.0344115
0.035687
0.0368044
0.0375935
0.0375468
0.0355561
0.0297779
0.0188529
0.00307682
0.0301212
0.0315687
0.0329962
0.0344056
0.0358088
0.0372574
0.0386771
0.0396776
0.0390334
0.0341019
0.0220555
0.00349583
0.0300654
0.0312536
0.0324651
0.0338461
0.0353717
0.0370289
0.038839
0.040676
0.0414729
0.0381742
0.0257921
0.00394333
0.029835
0.0311083
0.0321687
0.0332801
0.0348096
0.0365955
0.0385464
0.0407628
0.0426465
0.0416058
0.0302755
0.00443911
0.0298485
0.0311937
0.0324142
0.0333905
0.034646
0.0363601
0.0382027
0.0403884
0.0426657
0.0435807
0.035
0.00501358
0.000277264
0.000597304
0.000642297
0.000641812
0.000637108
0.000610939
0.000595813
0.000671651
0.00116641
0.00158375
0.00172478
0.001789
0.000448718
0.0012971
0.00184102
0.00206353
0.00176849
0.00102891
0.00092242
0.00163685
0.00200357
0.00321392
0.00439445
0.00613114
0.000576608
0.00213971
0.00288753
0.00301417
0.0026089
0.00241256
0.00239651
0.00340812
0.00519111
0.00762332
0.0101926
0.0126781
0.000730031
0.00336878
0.00367242
0.00319402
0.00303
0.00305403
0.0040688
0.00659831
0.00934675
0.0124523
0.0153941
0.0179974
0.000863346
0.00400267
0.00404401
0.00366157
0.00365928
0.00449011
0.00682839
0.0100956
0.0132552
0.0164525
0.0193992
0.0219986
0.000989958
0.00453584
0.00459992
0.00434963
0.00485525
0.00685632
0.0100128
0.0132119
0.0163388
0.0194132
0.0222437
0.0247741
0.00110129
0.00514325
0.00559007
0.00568694
0.00700679
0.00982742
0.0128361
0.0157994
0.0187133
0.021491
0.0241177
0.0265292
0.00123706
0.00649544
0.00772495
0.00877623
0.0109444
0.0134082
0.0159055
0.018424
0.0209555
0.0233679
0.025641
0.0277394
0.00139934
0.00881344
0.0115857
0.0139016
0.0159681
0.0178447
0.0196613
0.0214794
0.0233324
0.0251421
0.0268923
0.0285643
0.00162417
0.0106159
0.0147348
0.0175705
0.0196237
0.021197
0.0225494
0.0238146
0.0250439
0.0262687
0.0275168
0.0288032
0.00183776
0.00991152
0.015903
0.0193575
0.0216355
0.0230404
0.0243162
0.0252269
0.0260562
0.0268853
0.0277605
0.028715
0.00306824
0.00934333
0.0167535
0.0207707
0.0227457
0.0244918
0.0255937
0.0263792
0.0270078
0.0276004
0.0282275
0.0289394
0.00183866
0.00186318
0.00187766
0.00188035
0.00188182
0.00185302
0.00180919
0.00173401
0.00163056
0.00148918
0.0012801
0.000608948
0.00784831
0.00942558
0.0105287
0.0110009
0.0107912
0.0102231
0.00924346
0.00789628
0.00610971
0.00373432
0.00182541
0.0010586
0.0148186
0.0164531
0.017477
0.0178749
0.0176584
0.0168781
0.0154799
0.0134454
0.010735
0.00735425
0.00327621
0.00141139
0.0202021
0.0219303
0.0231317
0.0237704
0.0237989
0.0231552
0.0217463
0.0194476
0.0160586
0.0115948
0.00577815
0.00172512
0.024236
0.0260723
0.0274727
0.0283957
0.0287704
0.0284711
0.0273209
0.0250714
0.0212917
0.0158468
0.00852354
0.00203851
0.027
0.0289019
0.0304553
0.0316219
0.0323338
0.0324814
0.0318535
0.0300689
0.0265487
0.020486
0.0118451
0.00236093
0.028687
0.0305855
0.0322178
0.0335647
0.0345986
0.0352501
0.0352924
0.0342407
0.0312775
0.0252081
0.0153872
0.00270061
0.0296593
0.0314134
0.0329968
0.0344115
0.035687
0.0368044
0.0375935
0.0375468
0.035556
0.0297779
0.0188529
0.00307682
0.0301211
0.0315686
0.0329962
0.0344055
0.0358087
0.0372574
0.0386771
0.0396776
0.0390333
0.0341019
0.0220555
0.00349583
0.0300654
0.0312535
0.032465
0.0338461
0.0353717
0.0370289
0.038839
0.0406759
0.0414728
0.0381742
0.0257921
0.00394333
0.0298349
0.0311082
0.0321687
0.03328
0.0348096
0.0365955
0.0385463
0.0407627
0.0426465
0.0416058
0.0302754
0.00443911
0.0298484
0.0311937
0.0324142
0.0333904
0.034646
0.0363601
0.0382027
0.0403884
0.0426657
0.0435807
0.035
0.00501358
0.0185039
0.0191949
0.0209176
0.0227476
0.0243444
0.0258297
0.0268112
0.0275276
0.0280659
0.0285557
0.0290601
0.0296324
0.0298825
0.0272462
0.026401
0.0264861
0.0270091
0.0275399
0.0280519
0.0287089
0.0293018
0.029778
0.0302427
0.0307571
0.0377313
0.0347313
0.0325553
0.0312686
0.030649
0.0303926
0.0304805
0.0306708
0.0308827
0.0311392
0.031631
0.0322232
0.0400946
0.0380202
0.0361215
0.0345469
0.0335244
0.0329084
0.0326361
0.0325461
0.0327558
0.0330291
0.0334227
0.0340299
0.0304689
0.0317971
0.0330639
0.0340549
0.0351882
0.0366334
0.0381741
0.0400013
0.0421846
0.0447692
0.0449623
0.0207725
0.0317068
0.032961
0.0341184
0.0351732
0.0362906
0.0373088
0.0384509
0.0397445
0.0414323
0.0438449
0.0480632
0.0347871
0.0333834
0.0343615
0.0353714
0.0362756
0.0371713
0.0379486
0.0388649
0.0397884
0.0409005
0.0425688
0.0464449
0.0414896
0.0352512
0.0361093
0.0369072
0.0376364
0.0382096
0.0387909
0.0394498
0.0400423
0.0407837
0.0416411
0.0437218
0.0424799
0.0185039
0.0191949
0.0209177
0.0227477
0.0243445
0.0258297
0.0268112
0.0275276
0.0280659
0.0285557
0.0290601
0.0296325
0.0298824
0.0272463
0.0264011
0.0264861
0.0270091
0.0275399
0.0280519
0.0287089
0.0293018
0.0297781
0.0302427
0.0307571
0.0377314
0.0347314
0.0325554
0.0312687
0.0306491
0.0303927
0.0304806
0.0306708
0.0308827
0.0311392
0.031631
0.0322232
0.0400946
0.0380204
0.0361216
0.034547
0.0335244
0.0329084
0.0326362
0.0325461
0.0327558
0.0330291
0.0334227
0.03403
0.030469
0.0317971
0.033064
0.034055
0.0351883
0.0366334
0.0381742
0.0400013
0.0421847
0.0447693
0.0449624
0.0207725
0.0317068
0.032961
0.0341185
0.0351733
0.0362906
0.0373089
0.0384509
0.0397446
0.0414324
0.043845
0.0480632
0.0347872
0.0333834
0.0343615
0.0353714
0.0362756
0.0371713
0.0379487
0.038865
0.0397884
0.0409005
0.0425688
0.0464449
0.0414897
0.0352512
0.0361093
0.0369073
0.0376364
0.0382096
0.0387909
0.0394498
0.0400423
0.0407837
0.0416412
0.0437219
0.04248
0.0185039
0.0191949
0.0209177
0.0227477
0.0243445
0.0258297
0.0268112
0.0275276
0.028066
0.0285558
0.0290601
0.0296325
0.0298825
0.0272464
0.0264012
0.0264862
0.0270092
0.0275399
0.0280519
0.0287089
0.0293018
0.0297781
0.0302427
0.0307572
0.0377314
0.0347314
0.0325554
0.0312688
0.0306491
0.0303927
0.0304806
0.0306708
0.0308827
0.0311392
0.031631
0.0322232
0.0400947
0.0380204
0.0361217
0.034547
0.0335245
0.0329084
0.0326362
0.0325461
0.0327558
0.0330291
0.0334227
0.03403
0.030469
0.0317971
0.033064
0.034055
0.0351883
0.0366334
0.0381742
0.0400013
0.0421846
0.0447692
0.0449623
0.0207725
0.0317068
0.032961
0.0341185
0.0351733
0.0362906
0.0373089
0.0384509
0.0397445
0.0414323
0.0438449
0.0480632
0.0347871
0.0333834
0.0343615
0.0353714
0.0362756
0.0371713
0.0379486
0.0388649
0.0397884
0.0409005
0.0425688
0.0464449
0.0414896
0.0352512
0.0361093
0.0369073
0.0376364
0.0382096
0.0387909
0.0394498
0.0400423
0.0407837
0.0416411
0.0437218
0.0424799
0.0185039
0.0191949
0.0209177
0.0227477
0.0243445
0.0258297
0.0268112
0.0275276
0.0280659
0.0285557
0.0290601
0.0296325
0.0298824
0.0272463
0.0264011
0.0264862
0.0270092
0.0275399
0.0280519
0.0287089
0.0293018
0.0297781
0.0302427
0.0307571
0.0377314
0.0347314
0.0325554
0.0312687
0.0306491
0.0303927
0.0304806
0.0306708
0.0308827
0.0311392
0.031631
0.0322232
0.0400947
0.0380204
0.0361216
0.034547
0.0335245
0.0329084
0.0326362
0.0325461
0.0327558
0.0330291
0.0334227
0.0340299
0.030469
0.0317971
0.033064
0.034055
0.0351882
0.0366334
0.0381742
0.0400013
0.0421846
0.0447692
0.0449623
0.0207725
0.0317068
0.032961
0.0341184
0.0351732
0.0362906
0.0373088
0.0384509
0.0397445
0.0414323
0.0438449
0.0480631
0.034787
0.0333834
0.0343615
0.0353714
0.0362756
0.0371713
0.0379486
0.0388649
0.0397884
0.0409005
0.0425688
0.0464448
0.0414895
0.0352512
0.0361093
0.0369072
0.0376363
0.0382096
0.0387909
0.0394498
0.0400422
0.0407836
0.0416411
0.0437218
0.0424798
0.0373264
0.0359824
0.0348574
0.0341135
0.0336957
0.0335361
0.0334744
0.0335503
0.0339112
0.034395
0.0352257
0.03649
0.0355079
0.0346463
0.0339531
0.0335538
0.0333086
0.0330793
0.0327979
0.0326559
0.0325742
0.0326193
0.033085
0.0343205
0.03375
0.0330824
0.0325557
0.0321403
0.0315774
0.0308707
0.030142
0.0292843
0.028292
0.0272998
0.0266826
0.0273077
0.0315769
0.0309817
0.0302293
0.0294084
0.0283244
0.0270774
0.025593
0.023785
0.0216932
0.0194719
0.0175019
0.0163726
0.0380596
0.0390865
0.0391677
0.0394418
0.0396312
0.0398622
0.0400825
0.04027
0.0404613
0.0406584
0.0401807
0.0391118
0.0363136
0.039253
0.0390591
0.0391205
0.0391759
0.0392306
0.0392594
0.0392224
0.0390011
0.0385143
0.0378969
0.0368165
0.0303142
0.0371913
0.0377273
0.0377675
0.0377918
0.0377853
0.0377168
0.0374024
0.0369505
0.0364788
0.0358513
0.0347187
0.0174356
0.0337102
0.0357893
0.035884
0.0359041
0.0357843
0.0355127
0.0350928
0.0347483
0.0342728
0.0334974
0.0324279
0.0373265
0.0359825
0.0348575
0.0341136
0.0336957
0.0335362
0.0334744
0.0335503
0.0339112
0.034395
0.0352257
0.03649
0.035508
0.0346464
0.0339532
0.0335539
0.0333086
0.0330793
0.0327979
0.0326559
0.0325742
0.0326193
0.033085
0.0343206
0.03375
0.0330825
0.0325558
0.0321403
0.0315774
0.0308708
0.030142
0.0292843
0.028292
0.0272998
0.0266826
0.0273077
0.031577
0.0309818
0.0302294
0.0294084
0.0283244
0.0270774
0.0255931
0.023785
0.0216932
0.0194719
0.0175019
0.0163726
0.0380596
0.0390865
0.0391677
0.0394418
0.0396312
0.0398622
0.0400826
0.04027
0.0404613
0.0406584
0.0401807
0.0391118
0.0363136
0.0392531
0.0390591
0.0391205
0.0391759
0.0392306
0.0392594
0.0392225
0.0390011
0.0385143
0.037897
0.0368165
0.0303142
0.0371913
0.0377273
0.0377675
0.0377918
0.0377853
0.0377168
0.0374024
0.0369505
0.0364788
0.0358513
0.0347187
0.0174356
0.0337102
0.0357893
0.035884
0.0359041
0.0357843
0.0355127
0.0350928
0.0347483
0.0342728
0.0334974
0.0324279
0.0373265
0.0359825
0.0348575
0.0341136
0.0336957
0.0335362
0.0334744
0.0335503
0.0339112
0.034395
0.0352257
0.03649
0.035508
0.0346464
0.0339532
0.0335539
0.0333086
0.0330793
0.0327979
0.0326559
0.0325742
0.0326193
0.033085
0.0343205
0.03375
0.0330825
0.0325558
0.0321403
0.0315774
0.0308707
0.030142
0.0292843
0.028292
0.0272998
0.0266826
0.0273077
0.031577
0.0309818
0.0302294
0.0294084
0.0283244
0.0270774
0.025593
0.023785
0.0216932
0.0194719
0.0175019
0.0163726
0.0380596
0.0390865
0.0391677
0.0394418
0.0396312
0.0398622
0.0400825
0.04027
0.0404613
0.0406584
0.0401807
0.0391118
0.0363136
0.039253
0.039059
0.0391205
0.0391759
0.0392306
0.0392594
0.0392224
0.0390011
0.0385143
0.0378969
0.0368164
0.0303142
0.0371913
0.0377273
0.0377674
0.0377918
0.0377853
0.0377168
0.0374024
0.0369505
0.0364788
0.0358513
0.0347187
0.0174356
0.0337101
0.0357893
0.035884
0.035904
0.0357843
0.0355126
0.0350928
0.0347483
0.0342728
0.0334973
0.0324279
0.0373265
0.0359825
0.0348575
0.0341136
0.0336957
0.0335362
0.0334744
0.0335503
0.0339112
0.0343949
0.0352257
0.03649
0.035508
0.0346464
0.0339532
0.0335539
0.0333086
0.0330793
0.0327979
0.0326559
0.0325742
0.0326193
0.033085
0.0343205
0.03375
0.0330825
0.0325557
0.0321403
0.0315774
0.0308707
0.030142
0.0292842
0.028292
0.0272998
0.0266826
0.0273077
0.031577
0.0309817
0.0302293
0.0294084
0.0283244
0.0270774
0.025593
0.023785
0.0216932
0.0194719
0.0175019
0.0163726
0.0380596
0.0390864
0.0391677
0.0394418
0.0396312
0.0398622
0.0400825
0.0402699
0.0404612
0.0406583
0.0401806
0.0391117
0.0363136
0.039253
0.039059
0.0391205
0.0391759
0.0392305
0.0392593
0.0392224
0.039001
0.0385142
0.0378969
0.0368164
0.0303142
0.0371912
0.0377273
0.0377674
0.0377918
0.0377853
0.0377168
0.0374024
0.0369505
0.0364787
0.0358512
0.0347187
0.0174356
0.0337101
0.0357893
0.035884
0.035904
0.0357843
0.0355126
0.0350927
0.0347482
0.0342728
0.0334973
0.0324278
0.0288027
0.027928
0.0267826
0.0255
0.0239273
0.022064
0.0198132
0.0171229
0.0139998
0.010542
0.00643895
0.00333278
0.0251824
0.023947
0.0224435
0.0207193
0.0186551
0.0162402
0.0134053
0.0101597
0.00647467
0.00314588
0.00145367
0.00141446
0.0208095
0.0192106
0.0173236
0.0151488
0.0126004
0.00968042
0.00624123
0.0028115
0.000880768
0.000448189
0.000476242
0.000604696
0.0157425
0.0137633
0.0114758
0.00884328
0.00570884
0.00252981
0.000627865
0.000234661
0.000200372
0.000315347
0.000270636
0.000294067
0.0100523
0.00765171
0.00485573
0.00211677
0.000545398
0.000219466
0.000204859
0.000261924
0.00024398
0.000242807
0.00023778
0.000233187
0.00370199
0.00154534
0.000470225
0.000345392
0.000233691
0.000254208
0.000250273
0.000248273
0.000247093
0.000243626
0.00024144
0.000238983
0.000365214
0.000918277
0.000250105
0.00025875
0.000257918
0.000256999
0.000255762
0.000254029
0.000251923
0.000249616
0.000247692
0.00024586
0.000262574
0.000267677
0.000263511
0.000263599
0.000263335
0.000262479
0.000261369
0.000260021
0.000258263
0.000256187
0.000254506
0.000252821
0.000268412
0.000267682
0.000267177
0.000266803
0.00026644
0.000266012
0.000265372
0.000264467
0.000263259
0.00026166
0.00025987
0.000258138
0.000265415
0.000265155
0.000264995
0.000265
0.000264964
0.000264883
0.000264547
0.000263927
0.000262928
0.000261578
0.000259897
0.000258236
0.000226298
0.000228035
0.000230038
0.000231919
0.000234078
0.000236079
0.000238095
0.000239838
0.000241485
0.000242926
0.000244122
0.000244865
7.27479e-05
7.17512e-05
7.18646e-05
7.10884e-05
7.11756e-05
7.0587e-05
7.06688e-05
7.02911e-05
7.03786e-05
7.02636e-05
7.03578e-05
7.04393e-05
0.00511153
0.0291424
0.0335868
0.0335962
0.03352
0.0332145
0.0328818
0.0326117
0.0322507
0.0316647
0.0307106
0.0296897
0.00491727
0.0267655
0.0311892
0.0308005
0.030587
0.0303208
0.030106
0.0298208
0.0292971
0.0284569
0.0273912
0.0262742
0.0047887
0.0244518
0.0280967
0.0276645
0.0274787
0.0272989
0.0269884
0.0264977
0.0257053
0.0246146
0.023448
0.0221856
0.0046445
0.0218682
0.0245968
0.0244411
0.0242323
0.0238619
0.0233713
0.0225346
0.0214803
0.0202721
0.0189393
0.017443
0.00445831
0.0190993
0.0211358
0.020968
0.0205873
0.0199501
0.0190903
0.018051
0.0168352
0.0154371
0.0138722
0.0120904
0.00419622
0.0162688
0.0177446
0.0171303
0.016423
0.015501
0.0144491
0.0131765
0.0117898
0.0101568
0.00829268
0.00611232
0.00387665
0.012783
0.0140168
0.012604
0.0119881
0.0107292
0.00952105
0.00790926
0.00623562
0.00428231
0.00248405
0.000975277
0.00345295
0.00899222
0.00981805
0.00784454
0.0072528
0.00539997
0.0041733
0.00248215
0.00138537
0.000521695
0.000288978
0.000565504
0.00281425
0.00444337
0.00489943
0.00292277
0.00254765
0.00106685
0.000755144
0.000413894
0.000278625
0.000286838
0.000267335
0.00027055
0.00209203
0.00103918
0.00120153
0.000478163
0.000434485
0.000332939
0.000262787
0.00026056
0.000267011
0.000266227
0.000266649
0.000265968
0.00136167
0.000183403
0.000222443
0.000185772
0.00020128
0.0001976
0.000213108
0.000213668
0.000217137
0.00021983
0.000222252
0.000223982
0.000472603
8.84249e-05
8.58936e-05
8.13427e-05
8.06242e-05
7.77198e-05
7.7746e-05
7.51241e-05
7.54991e-05
7.36495e-05
7.39069e-05
7.25783e-05
0.0288027
0.027928
0.0267826
0.0255
0.0239273
0.022064
0.0198132
0.0171229
0.0139999
0.010542
0.00643895
0.00333279
0.0251824
0.0239471
0.0224436
0.0207193
0.0186551
0.0162402
0.0134053
0.0101597
0.00647469
0.00314588
0.00145367
0.00141446
0.0208095
0.0192107
0.0173236
0.0151489
0.0126004
0.00968044
0.00624126
0.00281152
0.000880773
0.000448194
0.000476246
0.000604699
0.0157426
0.0137633
0.0114758
0.00884331
0.00570887
0.00252983
0.000627875
0.000234667
0.000200376
0.000315352
0.000270641
0.000294071
0.0100524
0.00765174
0.00485577
0.0021168
0.000545407
0.000219469
0.00020486
0.000261926
0.000243983
0.00024281
0.000237783
0.00023319
0.00370202
0.00154536
0.000470231
0.000345401
0.000233689
0.000254207
0.000250271
0.000248272
0.000247093
0.000243626
0.00024144
0.000238982
0.000365198
0.000918367
0.000250103
0.000258749
0.000257916
0.000256998
0.000255761
0.000254028
0.000251922
0.000249615
0.000247691
0.000245858
0.000262572
0.000267675
0.00026351
0.000263598
0.000263333
0.000262478
0.000261368
0.00026002
0.000258262
0.000256186
0.000254505
0.00025282
0.000268411
0.000267681
0.000267176
0.000266802
0.000266439
0.000266011
0.000265371
0.000264467
0.000263258
0.000261659
0.00025987
0.000258137
0.000265415
0.000265154
0.000264995
0.000265
0.000264963
0.000264882
0.000264547
0.000263927
0.000262927
0.000261577
0.000259896
0.000258235
0.000226291
0.000228035
0.000230037
0.000231919
0.000234078
0.000236078
0.000238094
0.000239838
0.000241485
0.000242926
0.000244122
0.000244865
7.27479e-05
7.17511e-05
7.18645e-05
7.10883e-05
7.11755e-05
7.05869e-05
7.06687e-05
7.0291e-05
7.03786e-05
7.02636e-05
7.03578e-05
7.04392e-05
0.00511154
0.0291424
0.0335868
0.0335962
0.03352
0.0332145
0.0328818
0.0326117
0.0322507
0.0316647
0.0307106
0.0296897
0.00491727
0.0267655
0.0311892
0.0308005
0.030587
0.0303208
0.030106
0.0298208
0.0292971
0.0284569
0.0273911
0.0262741
0.0047887
0.0244518
0.0280967
0.0276644
0.0274787
0.0272988
0.0269884
0.0264977
0.0257053
0.0246146
0.023448
0.0221856
0.0046445
0.0218682
0.0245968
0.0244411
0.0242323
0.0238619
0.0233713
0.0225346
0.0214803
0.020272
0.0189393
0.0174429
0.00445831
0.0190993
0.0211358
0.020968
0.0205873
0.0199501
0.0190903
0.018051
0.0168352
0.0154371
0.0138721
0.0120904
0.00419622
0.0162688
0.0177445
0.0171302
0.016423
0.015501
0.014449
0.0131765
0.0117897
0.0101567
0.00829263
0.00611227
0.00387664
0.0127829
0.0140168
0.0126039
0.011988
0.0107292
0.00952098
0.00790919
0.00623556
0.00428225
0.00248401
0.000975257
0.00345295
0.00899218
0.009818
0.00784447
0.00725272
0.00539989
0.00417323
0.00248209
0.00138534
0.000521677
0.00028898
0.000565487
0.00281424
0.00444331
0.00489937
0.00292271
0.00254759
0.00106681
0.000755121
0.000413896
0.000278624
0.000286838
0.000267336
0.000270551
0.00209202
0.00103916
0.0012015
0.000478153
0.000434476
0.000332936
0.000262788
0.00026056
0.000267012
0.000266228
0.000266649
0.000265968
0.00136166
0.000183401
0.000222442
0.000185772
0.000201281
0.0001976
0.000213108
0.000213668
0.000217138
0.000219831
0.000222253
0.000223983
0.000472599
8.8425e-05
8.58935e-05
8.13428e-05
8.06242e-05
7.77198e-05
7.77461e-05
7.51243e-05
7.54992e-05
7.36496e-05
7.3907e-05
7.25785e-05
0.0288027
0.027928
0.0267826
0.0255
0.0239273
0.022064
0.0198132
0.0171229
0.0139998
0.010542
0.00643895
0.00333279
0.0251824
0.023947
0.0224435
0.0207192
0.0186551
0.0162402
0.0134053
0.0101597
0.00647467
0.00314588
0.00145367
0.00141446
0.0208095
0.0192106
0.0173236
0.0151488
0.0126004
0.00968041
0.00624122
0.00281151
0.000880771
0.000448194
0.000476245
0.000604698
0.0157425
0.0137633
0.0114758
0.00884328
0.00570883
0.0025298
0.000627867
0.000234667
0.000200378
0.000315349
0.000270642
0.000294071
0.0100523
0.0076517
0.00485573
0.00211677
0.0005454
0.000219467
0.000204863
0.000261927
0.000243983
0.000242811
0.000237783
0.000233191
0.00370198
0.00154533
0.000470226
0.000345407
0.000233691
0.000254207
0.000250272
0.000248272
0.000247094
0.000243627
0.000241441
0.000238983
0.000365195
0.000918367
0.000250104
0.000258749
0.000257917
0.000256998
0.000255761
0.000254028
0.000251923
0.000249615
0.000247692
0.000245859
0.000262573
0.000267676
0.00026351
0.000263598
0.000263334
0.000262479
0.000261368
0.000260021
0.000258263
0.000256187
0.000254506
0.000252821
0.000268412
0.000267682
0.000267177
0.000266803
0.00026644
0.000266012
0.000265372
0.000264467
0.000263259
0.00026166
0.00025987
0.000258138
0.000265415
0.000265155
0.000264995
0.000265
0.000264964
0.000264883
0.000264547
0.000263927
0.000262928
0.000261578
0.000259897
0.000258236
0.000226291
0.000228035
0.000230038
0.000231919
0.000234079
0.000236079
0.000238095
0.000239838
0.000241485
0.000242927
0.000244123
0.000244866
7.2748e-05
7.17513e-05
7.18647e-05
7.10885e-05
7.11757e-05
7.05871e-05
7.06689e-05
7.02912e-05
7.03788e-05
7.02638e-05
7.0358e-05
7.04394e-05
0.00511153
0.0291424
0.0335867
0.0335961
0.03352
0.0332144
0.0328818
0.0326117
0.0322507
0.0316647
0.0307106
0.0296897
0.00491727
0.0267654
0.0311892
0.0308005
0.030587
0.0303208
0.030106
0.0298207
0.029297
0.0284569
0.0273911
0.0262741
0.0047887
0.0244517
0.0280967
0.0276644
0.0274787
0.0272988
0.0269884
0.0264977
0.0257053
0.0246146
0.0234479
0.0221855
0.0046445
0.0218682
0.0245967
0.0244411
0.0242323
0.0238619
0.0233712
0.0225346
0.0214802
0.020272
0.0189393
0.0174429
0.00445831
0.0190993
0.0211357
0.020968
0.0205872
0.0199501
0.0190903
0.018051
0.0168352
0.0154371
0.0138721
0.0120904
0.00419622
0.0162687
0.0177445
0.0171302
0.016423
0.015501
0.014449
0.0131765
0.0117897
0.0101567
0.00829262
0.00611226
0.00387664
0.0127829
0.0140168
0.0126039
0.011988
0.0107292
0.00952097
0.00790919
0.00623556
0.00428225
0.00248402
0.000975259
0.00345295
0.00899217
0.00981799
0.00784445
0.00725271
0.00539988
0.00417323
0.00248209
0.00138534
0.000521673
0.000288985
0.000565482
0.00281424
0.0044433
0.00489936
0.0029227
0.00254758
0.00106681
0.00075512
0.000413894
0.000278624
0.000286838
0.000267336
0.000270551
0.00209202
0.00103915
0.00120149
0.000478151
0.000434474
0.000332936
0.000262787
0.00026056
0.000267012
0.000266228
0.000266649
0.000265968
0.00136167
0.0001834
0.000222441
0.000185772
0.000201281
0.0001976
0.000213108
0.000213668
0.000217138
0.00021983
0.000222252
0.000223982
0.000472601
8.84252e-05
8.58935e-05
8.13428e-05
8.06243e-05
7.77199e-05
7.77461e-05
7.51243e-05
7.54992e-05
7.36496e-05
7.3907e-05
7.25784e-05
0.0288027
0.027928
0.0267826
0.0255
0.0239273
0.022064
0.0198132
0.0171229
0.0139998
0.010542
0.00643894
0.00333278
0.0251824