/*--------------------------------*- C++ -*----------------------------------*\
| =========                 |                                                 |
| \\      /  F ield         | OpenFOAM: The Open Source CFD Toolbox           |
|  \\    /   O peration     | Version:  2212                                  |
|   \\  /    A nd           | Website:  www.openfoam.com                      |
|    \\/     M anipulation  |                                                 |
\*---------------------------------------------------------------------------*/
FoamFile
{
    version     2.0;
    format      ascii;
    arch        "LSB;label=32;scalar=64";
    class       volScalarField;
    location    "0.07";
    object      epsilon;
}
// * * * * * * * * * * * * * * * * * * * * * * * * * * * * * * * * * * * * * //

dimensions      [0 2 -3 0 0 0 0];

internalField   nonuniform List<scalar> 
3072
(
3825.17
3201.32
3557.39
3508.42
3127.64
2784.8
3664.87
16214
48583.1
66691.4
75783
83594.6
10544.7
8756.63
6800.86
6597.89
9397.14
22876.9
33657.8
36275.7
49083.4
54579.7
57129.9
58993.8
15834.1
12059.3
14247.5
20393.5
26537.7
28523.6
32708.6
37580.4
43363.9
45403.7
47682.9
49292.8
21825
17639.9
19969.4
21733.4
25011.3
27697.1
32577.6
37000.3
40078.4
41821.4
43547.2
44843.7
24069.5
20390.5
21816.2
21907.5
24751.8
28234.5
32920.4
36550.9
38819.2
40306
41654.5
42714.1
24645.6
20646.5
21790.9
22188.8
25353.9
29442.6
33628.6
36581.4
38344.3
39594.9
40727.7
41722.9
23258.3
18970.7
20766.2
22638.1
26633.2
30900.8
34648.4
37172.3
38783.7
39978.1
41057
42066
22367.4
17311.5
20582.8
24339.4
29565.9
34028.8
37412.4
39632.2
41109.2
42239.2
43269.4
44288.3
22505.4
17732.9
23481.1
30388.1
37315.5
42073.6
45071.9
46802.6
47841.7
48580.2
49231.5
49915
24732.8
22472.7
36409.9
48304.5
56878.5
61286.1
62920.2
62986.5
62394.1
61620.9
60897.2
60363.4
29806.4
43374.4
73150.7
90538.5
97636.2
97770.4
94599.2
90247.2
85811.6
81779.1
78331.4
75502.3
133315
136379
151776
155882
151928
142149
131538
121441
112381
104526
97881.3
92337.8
87789.5
90438.5
90669.5
90556.8
88270.9
83455
76276.9
66675.3
54745.7
41741.4
27013.2
34589.6
60181.1
61071.8
61410.1
61541.3
61781.1
62954.2
65740.6
70494
76836.2
84492.3
89428.9
108541
50288.6
50868.6
51137.9
51425.1
52173.7
54104.3
57924.5
64528.4
75196.7
91310.6
115043
165180
45739.3
46371.1
46827.9
47322.8
48278.3
50316.9
54264.3
61261
73173.5
93475.3
130801
209150
43523.7
44170.8
44710.7
45352.5
46466.2
48599.3
52572.4
59609.8
71887.4
94101
139929
244564
42590.3
43356.9
44071.2
44907.6
46172
48371.8
52317.9
59311.7
71717
94679.5
145856
277802
43025
43953.1
44890.6
45953.3
47378.1
49617.7
53449.6
60208.2
72412.4
95531
149465
309334
45323.4
46382.4
47481.9
48681
50172.9
52351.5
55950.7
62325.7
74152.6
97246.7
152991
347969
50670.6
51505.7
52420.4
53462.4
54772.8
56670.8
59822
65572.4
76740.1
99515.7
156810
391833
60059.9
60013.2
60180.1
60581.8
61301.9
62579.6
64989.2
69785.5
79848.4
101642
160162
438207
73250.3
71535.6
70295.8
69496
69255.7
69701.5
71052.2
74494.7
82796.6
103130
163366
493285
87758.5
84055.2
81114.3
78847.1
77222.7
76399.9
76723.2
78493
84326.2
102354
164494
567177
3172.42
2687.84
3060.33
3013.27
2771.37
2364.84
2758.22
8677.06
36611.3
55071.6
63816.8
70766.3
8734.68
7415.5
5750.58
5271.15
7036.02
16261.8
28527.2
30651.3
41014.1
46768.2
49119.6
51103.3
12987.1
9808.21
10875.3
15691.4
23086.8
25235.7
27786.6
31603.8
36976.8
39105.6
41171.7
42855.1
17914.9
14341.4
16484.5
18630.8
21919.6
23558
27246.5
31363.7
34514.9
36172.4
37760.5
39030.5
19985.5
16771.7
18354.8
18619.1
20933.5
23828
27784.7
31412.4
33682.3
35058.5
36266.2
37243.6
20702.4
17335.9
18379.4
18742.9
21442
24964.8
28908.3
31781.4
33578.2
34662.7
35596.2
36419.9
20025.6
16078.6
17579.8
19200.7
22836.1
26775.8
30270.4
32710
34174.1
35161.2
36004.8
36789.9
19786.4
15117.2
17742.7
21143.8
26064.1
30234.8
33372.3
35403.5
36618.8
37456.6
38185.3
38913
20332.5
15852.9
20964.5
27479.3
34079.4
38509.2
41174.4
42576.5
43255.6
43582
43881.5
44240.3
23028.6
20749.2
33753.1
45165.6
53413.2
57464.4
58643.4
58262.1
57219.7
56002.8
54894.4
54033
27813.4
40450.8
68992.3
85840.4
92540.8
92284.9
88636.7
83864.4
79069.2
74740.2
71064.4
68074.3
122495
128725
144371
148122
143738
133391
122359
112016
102882
95092.2
88602.3
83291.3
74886.3
77389.3
77962.6
77930.7
76771.7
72738.6
67112
58930.4
48928.7
37455
24367.4
30883.5
52365.5
53304.6
53855.1
54226
54840.9
56105.9
58886.5
63342.9
69362.7
76616
81011.2
97928.4
43919.4
44591.7
45009.5
45418
46273.3
48209.9
51902.3
58180.2
68174.3
83138.5
104517
149922
39911.5
40585.3
41095.5
41657
42651.3
44664.4
48491.6
55177.4
66424.4
85347.7
119612
189708
37971.9
38576.9
39100.5
39733.5
40823.7
42887.8
46705.1
53420.1
65065.4
85984.4
128525
222179
37135.6
37790.5
38423.7
39194.7
40397.7
42507.7
46289.6
52965.6
64747.9
86428.5
134219
252507
37542.1
38293.1
39081.1
40019.3
41332.2
43441.7
47077.9
53493.9
65063.4
86900.7
137606
281430
39677
40492.6
41385.9
42420.6
43770.1
45799.7
49193.9
55221
66397.7
88145.7
140514
316445
44694.6
45242.6
45922.7
46786.3
47957.8
49720.6
52690
58122.7
68662.9
90087.5
143908
357807
53456
53156
53167.8
53452.7
54098.8
55293.3
57585.1
62150.5
71695.9
92402.4
147195
402433
65725.2
63942.9
62678.5
61890.1
61709.1
62220.1
63590.7
66981
75079.3
94439.4
151008
457801
78993.7
75561.1
72874.9
70858.8
69490.9
69025.6
69646.7
71747.4
77685.1
95248.1
154409
537626
3825.03
3201.22
3557.3
3508.32
3127.56
2784.71
3664.72
16213.2
48582.2
66690.7
75782.2
83593.8
10544.4
8756.43
6800.69
6597.71
9396.86
22876.3
33657.5
36275.3
49083
54579.2
57129.4
58993.3
15833.7
12059
14247
20393.1
26537.6
28523.5
32708.3
37580
43363.5
45403.3
47682.4
49292.3
21824.5
17639.5
19969.2
21733.4
25011.2
27696.7
32577.2
36999.8
40078
41820.9
43546.8
44843.3
24068.8
20390
21815.9
21907.3
24751.4
28234
32919.9
36550.4
38818.8
40305.6
41654
42713.6
24644.8
20646.1
21790.6
22188.5
25353.5
29442.1
33628.1
36580.9
38343.9
39594.4
40727.2
41722.4
23257.5
18970.3
20765.8
22637.6
26632.7
30900.3
34647.9
37171.8
38783.2
39977.7
41056.5
42065.5
22366.8
17311.1
20582.4
24339
29565.4
34028.4
37412
39631.7
41108.7
42238.7
43268.9
44287.9
22504.9
17732.6
23480.8
30387.8
37315.2
42073.3
45071.5
46802.1
47841.3
48579.7
49231.1
49914.5
24732.5
22472.5
36409.8
48304.5
56878.4
61286
62920
62986.3
62393.8
61620.5
60896.9
60363
29806.3
43374.5
73151
90538.8
97636.5
97770.6
94599.3
90247.2
85811.5
81779
78331.2
75502.1
133315
136379
151776
155882
151929
142149
131538
121442
112381
104526
97881.3
92337.8
87788.7
90437.7
90668.8
90556.1
88270.4
83454.5
76276.5
66674.9
54745.4
41741.2
27013.1
34589.5
60180.7
61071.3
61409.6
61540.9
61780.8
62953.9
65740.3
70493.7
76836
84492
89428.6
108541
50288.2
50868.2
51137.5
51424.7
52173.4
54104
57924.2
64528.1
75196.4
91310.3
115042
165180
45738.9
46370.7
46827.5
47322.4
48277.9
50316.6
54263.9
61260.7
73173.1
93475
130801
209149
43523.2
44170.4
44710.2
45352.1
46465.8
48598.9
52572
59609.4
71887
94100.6
139928
244563
42589.8
43356.4
44070.7
44907.2
46171.6
48371.5
52317.5
59311.4
71716.6
94679.1
145856
277801
43024.6
43952.6
44890.1
45952.9
47377.7
49617.3
53449.3
60207.8
72412
95530.6
149464
309333
45322.9
46381.9
47481.4
48680.6
50172.5
52351.2
55950.3
62325.4
74152.3
97246.3
152990
347968
50670.1
51505.3
52420
53462
54772.5
56670.5
59821.6
65572.1
76739.8
99515.3
156810
391832
60059.5
60012.9
60179.8
60581.5
61301.6
62579.3
64988.9
69785.2
79848.1
101641
160162
438205
73250.1
71535.4
70295.6
69495.8
69255.5
69701.3
71052
74494.5
82796.4
103130
163366
493283
87758.4
84055.1
81114.2
78847
77222.6
76399.8
76723.1
78492.8
84326
102354
164493
567175
3172.43
2687.85
3060.33
3013.27
2771.37
2364.84
2758.22
8677.06
36611.4
55071.7
63816.9
70766.5
8734.68
7415.5
5750.58
5271.15
7036.02
16261.7
28527.2
30651.3
41014.1
46768.3
49119.7
51103.4
12987.1
9808.21
10875.3
15691.4
23086.9
25235.8
27786.6
31603.8
36976.9
39105.7
41171.8
42855.2
17914.9
14341.4
16484.5
18630.8
21919.6
23558
27246.5
31363.7
34515
36172.5
37760.6
39030.6
19985.5
16771.7
18354.8
18619.1
20933.6
23828.1
27784.8
31412.4
33682.3
35058.6
36266.3
37243.7
20702.5
17336
18379.4
18742.9
21442
24964.8
28908.4
31781.5
33578.3
34662.8
35596.3
36420
20025.7
16078.6
17579.8
19200.8
22836.1
26775.9
30270.5
32710
34174.1
35161.3
36004.9
36790
19786.5
15117.2
17742.7
21143.9
26064.2
30234.8
33372.3
35403.6
36618.9
37456.7
38185.3
38913.1
20332.6
15853
20964.5
27479.3
34079.4
38509.2
41174.4
42576.6
43255.7
43582
43881.5
44240.3
23028.7
20749.2
33753.1
45165.7
53413.2
57464.4
58643.4
58262.2
57219.7
56002.8
54894.4
54033
27813.4
40450.8
68992.2
85840.4
92540.8
92284.9
88636.7
83864.4
79069.2
74740.2
71064.3
68074.3
122495
128725
144371
148122
143738
133391
122359
112016
102882
95092.2
88602.2
83291.2
74886.4
77389.5
77962.8
77930.9
76771.9
72738.8
67112.1
58930.5
48928.8
37455.1
24367.5
30883.6
52365.6
53304.7
53855.2
54226.1
54841
56106
58886.6
63343
69362.8
76616.1
81011.4
97928.6
43919.5
44591.8
45009.7
45418.1
46273.4
48210
51902.5
58180.3
68174.5
83138.7
104517
149923
39911.6
40585.4
41095.6
41657.1
42651.4
44664.5
48491.7
55177.5
66424.6
85347.8
119612
189708
37972
38577
39100.6
39733.6
40823.8
42887.9
46705.3
53420.2
65065.5
85984.5
128525
222180
37135.7
37790.5
38423.8
39194.8
40397.7
42507.7
46289.7
52965.7
64748.1
86428.7
134219
252507
37542.2
38293.2
39081.1
40019.3
41332.3
43441.8
47078
53494
65063.5
86900.9
137606
281430
39677
40492.7
41385.9
42420.7
43770.1
45799.7
49194
55221.1
66397.8
88145.9
140515
316446
44694.7
45242.6
45922.7
46786.3
47957.8
49720.7
52690.1
58122.8
68663
90087.6
143908
357808
53456
53156
53167.9
53452.7
54098.8
55293.4
57585.2
62150.6
71696
92402.6
147195
402434
65725.2
63942.9
62678.5
61890.2
61709.1
62220.2
63590.8
66981.1
75079.4
94439.6
151009
457802
78993.7
75561.1
72874.9
70858.8
69490.9
69025.6
69646.8
71747.5
77685.2
95248.3
154409
537627
215792
207841
195439
184104
172965
161380
150048
139235
129092
119920
111848
104822
139849
144567
146442
146656
145522
142968
139262
133846
127081
120294
113799
107544
99937.1
103998
107359
110223
112507
114058
114081
112953
110813
107978
104354
99797
79061.5
81906.9
84322
86454.1
88342.3
89926.1
90923.9
90815.1
89960.2
88390
86200.2
83595.3
98772.8
93640.8
89335.8
85773.5
82857.7
80642.3
79457.2
79941.6
82812.3
93240.3
125325
243976
101714
96439.3
91750.9
87612.5
83959
80884.4
78432.8
77283.2
77777.1
81589.2
94033.3
127943
95279.8
90851.9
86562.9
82377.9
78382.2
74745.3
71659.9
69402.2
68619.6
69354.8
73854.8
85445
80479.6
76915.5
73042.4
68915.6
65060.4
61700.8
59098.9
57313
56836.2
57183.7
59777.3
64760.6
219415
203415
186831
172993
160377
148041
136385
125611
115869
107331
100006
93825.5
135918
136199
134512
132200
129332
126048
121920
116640
110743
105067
99809.1
95062.9
90496.6
92779
93998.6
94875
95582.3
96063.2
95904.3
95156.2
93758.2
92015.7
89965.9
87600.9
67779.2
69674.5
71040.3
72163.1
73231.4
74333
75262.9
75968.5
76068.6
75734.7
75002.8
73821.5
88640.2
84301.2
80680.6
77742.3
75452.4
73903.1
73568.4
74551
78114.8
89241.7
121575
233476
90719.2
86754.1
83174
80041.1
77385.1
75349.3
74137.3
74334.2
75999.8
81323.7
95769.1
130821
84832.4
81939.3
79032.4
76234.4
73647.1
71482
69860.7
69377.1
70178.2
72695.8
79934.3
93975.7
72103.9
70044.9
67671.2
65157.6
62734.8
60664.7
59246.8
58849.7
60135.4
62268.7
67425.5
74932.6
215792
207841
195439
184104
172965
161381
150048
139235
129093
119920
111848
104822
139848
144567
146442
146655
145522
142968
139262
133846
127081
120294
113799
107544
99936.9
103998
107358
110223
112507
114058
114081
112953
110813
107978
104354
99797.1
79061.4
81906.9
84321.9
86454
88342.2
89926
90923.8
90815.1
89960.1
88390
86200.2
83595.3
98772.9
93640.8
89335.8
85773.4
82857.7
80642.2
79457.2
79941.6
82812.3
93240.1
125325
243976
101715
96439.3
91750.9
87612.5
83959
80884.4
78432.8
77283.1
77777.1
81589.2
94033.2
127942
95279.9
90852
86563
82378
78382.3
74745.3
71659.9
69402.2
68619.6
69354.8
73854.8
85444.8
80479.7
76915.5
73042.4
68915.7
65060.5
61700.8
59098.9
57313
56836.2
57183.7
59777.3
64760.5
219415
203414
186831
172992
160377
148041
136385
125611
115869
107331
100006
93825.4
135918
136198
134512
132200
129332
126048
121920
116640
110743
105067
99809.1
95062.8
90496.4
92778.8
93998.4
94874.8
95582.1
96063.1
95904.2
95156.1
93758.2
92015.6
89965.8
87600.9
67779.1
69674.4
71040.1
72163
73231.3
74332.8
75262.8
75968.5
76068.5
75734.6
75002.7
73821.4
88640.2
84301.2
80680.6
77742.3
75452.5
73903.1
73568.5
74551.1
78114.9
89241.8
121576
233476
90719.2
86754.1
83174
80041.1
77385.1
75349.4
74137.3
74334.3
75999.9
81323.8
95769.3
130821
84832.4
81939.3
79032.4
76234.4
73647.2
71482
69860.7
69377.1
70178.3
72695.9
79934.4
93975.8
72103.9
70044.9
67671.2
65157.6
62734.8
60664.7
59246.8
58849.8
60135.5
62268.8
67425.6
74932.7
65083.5
66296.7
67367.8
68258
68960.2
69351.7
69236.1
68354.5
66852.8
64818.8
62383.7
59641.3
49787.7
50186.6
50492.2
50684.5
50737.3
50520.6
49890.2
48745.8
47154.6
45267.3
43318.2
41396.2
37083.7
37152.4
37099.3
36950.3
36676.5
36180.5
35367.8
34197.6
32741.5
31236.3
30157.4
29853.7
27413
27368.5
27169
26875.2
26466.5
25875
25039.6
23946
22675.2
21537.7
21464.2
24499.3
56588.9
53395
50464.2
48120.6
46508.9
45667.8
45620.8
46288.6
47757.7
49720.1
52644.8
54840.9
39119.9
36733.7
35230.8
34642.7
34777.3
35538.6
36836.1
38548.8
40631.8
42786.9
44572.3
45491.5
28615.1
26089.4
25420.1
25834.6
26896
28397.5
30214.4
32212.1
34174.9
35720.3
36714.8
36796.8
24688
19428.3
18909.8
19747.2
21154.7
22864.9
24738.6
26605.9
28130.1
29151.6
29577.4
29081.1
55798.6
56413.3
56931.7
57385.7
57848.7
58263.7
58471.9
58354.5
57749.8
56860.9
55745.4
54165.2
45161.4
44723.2
44328.8
43918
43505.4
43006.3
42303.7
41337.4
40117.8
38887.7
37823.7
36672.6
35736.1
34644
33608.3
32584.6
31568.2
30495.8
29297.6
27966.6
26585.5
25397
24781.4
24688.2
27717.9
26315.6
24963
23651.2
22375.9
21097.6
19776
18416.9
17098.2
16048.5
15972.1
18212
51770.3
48920.9
46413.9
44427.1
43153.8
42851.1
43768.3
46029.2
49775.5
54159.5
59623.8
63465.1
34570.5
31643
29489
28177.6
27764.6
28412.7
30262.9
33353.7
37568.6
42242.5
46520.5
49016.8
23426.1
20217.1
18455
17690.6
17776.8
18780.4
20783.4
23784.8
27592.2
31633.7
34822.1
36604.8
18287.1
13155.4
11639
11244
11555.4
12586.3
14391.7
16958.3
20097.9
23319.8
25713.4
27048.4
65083.5
66296.6
67367.7
68257.9
68960.1
69351.7
69236.1
68354.5
66852.8
64818.8
62383.7
59641.3
49787.7
50186.5
50492.1
50684.4
50737.2
50520.5
49890.2
48745.8
47154.6
45267.3
43318.2
41396.2
37083.6
37152.2
37099.2
36950.2
36676.4
36180.5
35367.8
34197.5
32741.5
31236.3
30157.4
29853.7
27412.8
27368.3
27168.9
26875.1
26466.4
25874.9
25039.5
23946
22675.1
21537.7
21464.2
24499.3
56588.9
53395.1
50464.2
48120.6
46508.9
45667.8
45620.8
46288.6
47757.6
49720.1
52644.7
54840.8
39120
36733.7
35230.8
34642.7
34777.3
35538.5
36836
38548.8
40631.8
42786.9
44572.2
45491.4
28615.1
26089.4
25420.1
25834.6
26896
28397.5
30214.4
32212.1
34174.9
35720.2
36714.7
36796.8
24688
19428.3
18909.7
19747.2
21154.7
22864.8
24738.6
26605.9
28130.1
29151.5
29577.3
29081
55798.5
56413.2
56931.7
57385.6
57848.7
58263.7
58471.9
58354.5
57749.8
56860.9
55745.4
54165.2
45161.4
44723.2
44328.8
43917.9
43505.4
43006.3
42303.7
41337.4
40117.8
38887.7
37823.7
36672.7
35736.1
34644
33608.3
32584.6
31568.2
30495.9
29297.7
27966.7
26585.5
25397.1
24781.5
24688.3
27717.9
26315.6
24963.1
23651.3
22375.9
21097.7
19776.1
18417
17098.3
16048.6
15972.3
18212.2
51770.4
48920.9
46414
44427.2
43153.9
42851.2
43768.4
46029.3
49775.6
54159.6
59623.9
63465.2
34570.6
31643.1
29489.2
28177.7
27764.8
28412.8
30263
33353.9
37568.7
42242.6
46520.7
49016.9
23426.3
20217.3
18455.2
17690.8
17777
18780.6
20783.6
23785
27592.3
31633.9
34822.2
36604.9
18287.4
13155.7
11639.2
11244.3
11555.6
12586.5
14391.9
16958.4
20098
23320
25713.5
27048.5
20277.1
20206.9
19967.6
19631.7
19189.9
18596.6
17811.2
16827.9
15707.1
14750.3
15280.2
31551.7
15060.7
14997.1
14765.7
14437.9
14013.6
13462.7
12757.3
11891.4
10895.2
9875.39
9074.32
9213.2
11248.8
11200.1
10994.9
10697.4
10313
9822.4
9206.05
8456.53
7580.78
6590.96
5457.27
4398.32
8455.01
8419.88
8245.19
7985.2
7648.31
7222.54
6694.18
6056.18
5306.31
4434.51
3413.83
2736.19
6399.95
6374.57
6228.39
6005.95
5716.52
5353.07
4906.43
4371.47
3745.69
3024.19
2220.48
1836.76
4885.17
4865.62
4743.73
4555.35
4309.49
4002.45
3628.53
3185.16
2672.84
2096.34
1491.88
1257.9
3770.91
3754.1
3651.72
3492.41
3284.37
3026.1
2714.51
2349.28
1934.09
1480.14
1028.54
863.171
2960.76
2944.48
2856.88
2720.94
2543.95
2325.86
2065.36
1763.73
1426.7
1067.88
724.119
584.115
2393.85
2376.42
2298.8
2179.82
2026.05
1838.39
1616.72
1363.09
1084.13
793.15
520.027
380.025
2051.88
2031.34
1957.75
1847.19
1705.99
1536.02
1337.79
1113.38
870.37
619.646
384.712
225.692
2040.92
2011.68
1929.5
1808.76
1657.21
1478.61
1273.74
1043.47
798.773
548.03
312.397
109.343
3687.48
3619.87
3439.39
3196.24
2897.06
2553.8
2173.06
1746.11
1289.39
835.18
422.869
45.6191
35199
15022.6
14321.9
15311.7
16762.4
18408.7
20118.7
21649.2
22748.6
23380.8
23407.8
22607
14819.2
10599.6
10875
11959.4
13318.2
14780.8
16224.2
17396.1
18172.3
18510.6
18277.7
17390.1
8994.69
7587.32
8306.6
9379.58
10588.7
11831.9
12985.6
13855.7
14384.6
14516.2
14153.3
13305.1
6249.08
5561.77
6385.59
7376.2
8417.47
9442.42
10338.9
10974.5
11317.9
11315.8
10917.3
10171.5
4536.29
4152.86
4936.91
5812.92
6691.16
7519.61
8207.03
8669.87
8879.14
8800.28
8423.33
7804.17
3332.66
3136.26
3834.25
4590.93
5323.74
5987.66
6515.52
6851.34
6968.66
6856.38
6531.49
6036.2
2432.7
2380.89
2989.63
3638.67
4250.28
4785.32
5194.58
5439.09
5499.03
5382.37
5117.28
4728.38
1737.23
1808.8
2343.95
2906.59
3424.25
3863.75
4188.53
4371.42
4398.66
4292.28
4081.78
3776.91
1200.91
1371.41
1862.6
2366.51
2819.81
3194.98
3464.4
3608.38
3618.65
3526.9
3358.27
3112.98
771.074
1045.63
1538
2023.46
2449.34
2793.85
3035.45
3157.33
3158.52
3078.31
2930.07
2721.15
426.139
855.718
1450.12
2007.24
2479.23
2851.48
3105.77
3218.68
3209.67
3113.22
2953.78
2743.56
230.672
1209.76
2512.78
3663.97
4620.08
5354.85
5821.49
6017.8
5933.92
5686.16
5331.02
4904.49
21195.1
19732.4
18317.9
16968
15682.5
14435.7
13200.6
11973.5
10790.4
9789.01
9747.59
18602.1
16075.2
14709.4
13392.3
12152.3
10991.7
9892.13
8830.42
7790.34
6766.26
5757.84
4760
3685.61
12159.4
10970.5
9828.49
8764.09
7780.64
6863.89
5992.73
5144.84
4296.91
3407.61
2401.26
1382.58
9217.61
8229.99
7284.14
6408.03
5605.19
4864.49
4167.79
3493.02
2816.3
2102.4
1346.76
819.436
7033.94
6237.65
5476.33
4772.68
4130.22
3540.82
2990.11
2459.48
1930.94
1382.04
856.062
598.211
5425.03
4794.46
4190.89
3631.98
3121.51
2654.08
2219.27
1802.59
1392.42
974.589
607.769
461.012
4247.91
3752.16
3275.12
2830.91
2423.74
2050.68
1704.72
1375.01
1054.8
732.839
466.231
367.511
3398.48
3006.68
2625.82
2268.12
1938.44
1635.79
1355.88
1090.51
836.38
581.928
376.914
286.401
2810.03
2492.89
2180.03
1883.2
1608.06
1355.01
1121.7
901.59
693.821
485.125
317.373
213.79
2468.39
2196.4
1922.8
1660.65
1416.75
1192.39
986.402
793.007
612.792
431.438
281.935
145.149
2491.85
2218.69
1940.01
1671.77
1422.77
1194.45
986.048
791.34
611.916
430.577
279.529
82.6871
4418.79
3909.62
3398.43
2914.69
2470.38
2062.32
1689.76
1339.1
1019.04
676.361
421.692
100.709
23327.3
8748.99
7436.61
7298.43
7680.99
8598.9
10097.5
12164.1
14639.9
17128.4
18945
19972
7701.43
5181.27
4791.72
4848.24
5233.38
5998.98
7192.37
8805.55
10713.3
12612.4
13999.4
14799
3654.36
3136.13
3150.89
3305.45
3657.04
4275.32
5206
6445.46
7898.45
9340.98
10401.8
11026
2077.96
1980.81
2128.07
2314.19
2619.91
3112.32
3831.88
4777.63
5878.46
6972.26
7782.96
8268.82
1285.64
1302.4
1477.43
1662.28
1922.36
2313.84
2870.2
3591.4
4424.6
5253.63
5871.89
6247.79
839.126
884.928
1052.18
1222.9
1443.04
1756.58
2189.98
2742.78
3375.22
4004.15
4474.76
4763.6
559.077
615.935
766.513
919.958
1107.35
1362.21
1704.92
2133.79
2617.67
3096.52
3455.07
3675.78
371.128
436.219
570.569
707.777
869.254
1080.87
1358.45
1698.67
2075.07
2443.26
2718.83
2887.52
238.996
313.775
435.92
559.713
701.293
882.035
1115.31
1396.2
1699.03
1988.71
2206.52
2337.8
142.031
232.134
349.126
465.245
593.877
755.941
966.08
1217.86
1478.19
1714.47
1898.02
2008.19
69.5279
189.279
316.842
436.269
561.419
719.362
932.356
1197.88
1466.44
1698.1
1883.26
2000.73
28.9629
273.737
514.274
700.694
873.414
1107.12
1464.47
1968.92
2500.79
2971.89
3357.03
3605.38
20277
20206.8
19967.5
19631.5
19189.8
18596.5
17811.2
16827.9
15707.1
14750.3
15280.2
31551.6
15060.5
14996.9
14765.6
14437.8
14013.5
13462.6
12757.2
11891.3
10895.2
9875.37
9074.28
9213.12
11248.7
11199.9
10994.8
10697.3
10312.9
9822.32
9205.99
8456.49
7580.74
6590.92
5457.22
4398.23
8454.86
8419.74
8245.06
7985.08
7648.21
7222.46
6694.11
6056.12
5306.26
4434.46
3413.76
2736.08
6399.79
6374.42
6228.25
6005.83
5716.41
5352.98
4906.35
4371.4
3745.63
3024.12
2220.4
1836.65
4885.01
4865.47
4743.59
4555.23
4309.38
4002.35
3628.44
3185.08
2672.76
2096.26
1491.79
1257.78
3770.75
3753.95
3651.58
3492.28
3284.25
3026
2714.41
2349.19
1934
1480.05
1028.45
863.049
2960.6
2944.33
2856.74
2720.81
2543.83
2325.75
2065.26
1763.62
1426.6
1067.78
724.015
584
2393.69
2376.26
2298.66
2179.69
2025.92
1838.28
1616.61
1362.98
1084.02
793.041
519.922
379.921
2051.71
2031.18
1957.61
1847.05
1705.86
1535.9
1337.67
1113.27
870.258
619.535
384.61
225.604
2040.74
2011.52
1929.34
1808.62
1657.07
1478.49
1273.62
1043.36
798.656
547.918
312.3
109.278
3687.2
3619.61
3439.15
3196.02
2896.86
2553.61
2172.88
1745.95
1289.24
835.047
422.77
45.5666
35198.9
15022.6
14321.9
15311.7
16762.4
18408.7
20118.7
21649.2
22748.5
23380.8
23407.8
22607
14819.2
10599.6
10875
11959.4
13318.2
14780.7
16224.1
17396
18172.2
18510.6
18277.7
17390.1
8994.63
7587.29
8306.57
9379.55
10588.6
11831.8
12985.6
13855.6
14384.6
14516.2
14153.3
13305.1
6249.03
5561.74
6385.55
7376.17
8417.43
9442.38
10338.9
10974.5
11317.9
11315.8
10917.3
10171.5
4536.23
4152.82
4936.87
5812.88
6691.12
7519.56
8206.99
8669.82
8879.1
8800.25
8423.3
7804.16
3332.6
3136.22
3834.21
4590.89
5323.7
5987.61
6515.47
6851.3
6968.61
6856.34
6531.46
6036.18
2432.66
2380.85
2989.59
3638.63
4250.23
4785.26
5194.53
5439.04
5498.98
5382.33
5117.25
4728.36
1737.19
1808.76
2343.9
2906.54
3424.19
3863.69
4188.48
4371.37
4398.61
4292.24
4081.75
3776.88
1200.88
1371.37
1862.55
2366.46
2819.75
3194.92
3464.34
3608.33
3618.6
3526.86
3358.23
3112.95
771.046
1045.59
1537.95
2023.41
2449.28
2793.79
3035.39
3157.28
3158.47
3078.26
2930.03
2721.12
426.12
855.684
1450.07
2007.18
2479.17
2851.42
3105.71
3218.62
3209.62
3113.17
2953.74
2743.53
230.659
1209.72
2512.72
3663.88
4619.99
5354.74
5821.39
6017.71
5933.84
5686.09
5330.96
4904.45
21195.1
19732.4
18317.9
16968
15682.6
14435.8
13200.7
11973.6
10790.5
9789.15
9747.75
18602.5
16075.2
14709.5
13392.4
12152.4
10991.8
9892.23
8830.53
7790.47
6766.4
5758
4760.2
3685.99
12159.4
10970.5
9828.53
8764.15
7780.72
6863.98
5992.84
5144.98
4297.06
3407.79
2401.48
1382.93
9217.61
8230.01
7284.18
6408.09
5605.26
4864.58
4167.91
3493.16
2816.47
2102.59
1346.98
819.75
7033.93
6237.67
5476.37
4772.73
4130.3
3540.91
2990.23
2459.61
1931.1
1382.23
856.278
598.488
5425.03
4794.47
4190.91
3632.03
3121.57
2654.17
2219.38
1802.73
1392.58
974.776
607.974
461.257
4247.91
3752.17
3275.14
2830.95
2423.8
2050.76
1704.83
1375.14
1054.95
733.019
466.423
367.725
3398.46
3006.68
2625.84
2268.16
1938.49
1635.86
1355.98
1090.63
836.53
582.1
377.095
286.584
2810.01
2492.89
2180.05
1883.23
1608.11
1355.08
1121.79
901.708
693.963
485.289
317.543
213.942
2468.37
2196.4
1922.81
1660.68
1416.79
1192.45
986.492
793.121
612.929
431.595
282.093
145.265
2491.83
2218.69
1940.02
1671.79
1422.82
1194.52
986.138
791.455
612.053
430.733
279.678
82.7624
4418.77
3909.62
3398.45
2914.73
2470.45
2062.42
1689.88
1339.26
1019.22
676.56
421.847
100.79
23327.8
8749.28
7436.9
7298.72
7681.26
8599.14
10097.8
12164.3
14640.1
17128.6
18945.2
19972.1
7701.9
5181.58
4792.03
4848.55
5233.68
5999.23
7192.59
8805.74
10713.5
12612.6
13999.5
14799.2
3654.8
3136.45
3151.22
3305.77
3657.34
4275.59
5206.23
6445.65
7898.62
9341.14
10401.9
11026.2
2078.37
1981.13
2128.4
2314.52
2620.22
3112.6
3832.12
4777.83
5878.64
6972.42
7783.12
8268.97
1286.04
1302.72
1477.76
1662.61
1922.67
2314.12
2870.44
3591.6
4424.78
5253.79
5872.05
6247.95
839.495
885.247
1052.51
1223.23
1443.35
1756.86
2190.22
2742.99
3375.4
4004.32
4474.92
4763.76
559.418
616.247
766.842
920.286
1107.66
1362.49
1705.15
2133.99
2617.85
3096.69
3455.23
3675.94
371.436
436.522
570.892
708.101
869.557
1081.14
1358.68
1698.87
2075.25
2443.43
2719
2887.69
239.263
314.063
436.235
560.031
701.59
882.298
1115.54
1396.4
1699.21
1988.88
2206.69
2337.96
142.245
232.403
349.433
465.557
594.169
756.199
966.303
1218.06
1478.37
1714.64
1898.19
2008.36
69.6758
189.532
317.147
436.582
561.711
719.621
932.582
1198.08
1466.63
1698.28
1883.44
2000.91
29.0645
274.025
514.66
701.093
873.787
1107.46
1464.78
1969.2
2501.06
2972.15
3357.3
3605.65
)
;

boundaryField
{
    rotor
    {
        type            epsilonWallFunction;
        blending        stepwise;
        value           nonuniform List<scalar> 
192
(
3825.17
3201.32
3557.39
3508.42
3127.64
2784.8
3664.87
16214
48583.1
66691.4
75783
83594.6
87789.5
90438.5
90669.5
90556.8
88270.9
83455
76276.9
66675.3
54745.7
41741.4
27013.2
34589.6
3172.42
2687.84
3060.33
3013.27
2771.37
2364.84
2758.22
8677.06
36611.3
55071.6
63816.8
70766.3
74886.3
77389.3
77962.6
77930.7
76771.7
72738.6
67112
58930.4
48928.7
37455
24367.4
30883.5
3825.03
3201.22
3557.3
3508.32
3127.56
2784.71
3664.72
16213.2
48582.2
66690.7
75782.2
83593.8
87788.7
90437.7
90668.8
90556.1
88270.4
83454.5
76276.5
66674.9
54745.4
41741.2
27013.1
34589.5
3172.43
2687.85
3060.33
3013.27
2771.37
2364.84
2758.22
8677.06
36611.4
55071.7
63816.9
70766.5
74886.4
77389.5
77962.8
77930.9
76771.9
72738.8
67112.1
58930.5
48928.8
37455.1
24367.5
30883.6
3825.17
10544.7
15834.1
21825
24069.5
24645.6
23258.3
22367.4
22505.4
24732.8
29806.4
133315
30883.6
97928.6
149923
189708
222180
252507
281430
316446
357808
402434
457802
537627
3172.42
8734.68
12987.1
17914.9
19985.5
20702.4
20025.6
19786.4
20332.5
23028.6
27813.4
122495
34589.6
108541
165180
209150
244564
277802
309334
347969
391833
438207
493285
567177
3825.03
10544.4
15833.7
21824.5
24068.8
24644.8
23257.5
22366.8
22504.9
24732.5
29806.3
133315
30883.5
97928.4
149922
189708
222179
252507
281430
316445
357807
402433
457801
537626
3172.43
8734.68
12987.1
17914.9
19985.5
20702.5
20025.7
19786.5
20332.6
23028.7
27813.4
122495
34589.5
108541
165180
209149
244563
277801
309333
347968
391832
438205
493283
567175
)
;
    }
    stator
    {
        type            epsilonWallFunction;
        blending        stepwise;
        value           nonuniform List<scalar> 
192
(
3687.48
3619.87
3439.39
3196.24
2897.06
2553.8
2173.06
1746.11
1289.39
835.18
422.869
45.6191
230.672
1209.76
2512.78
3663.97
4620.08
5354.85
5821.49
6017.8
5933.92
5686.16
5331.02
4904.49
4418.79
3909.62
3398.43
2914.69
2470.38
2062.32
1689.76
1339.1
1019.04
676.361
421.692
100.709
28.9629
273.737
514.274
700.694
873.414
1107.12
1464.47
1968.92
2500.79
2971.89
3357.03
3605.38
3687.2
3619.61
3439.15
3196.02
2896.86
2553.61
2172.88
1745.95
1289.24
835.047
422.77
45.5666
230.659
1209.72
2512.72
3663.88
4619.99
5354.74
5821.39
6017.71
5933.84
5686.09
5330.96
4904.45
4418.77
3909.62
3398.45
2914.73
2470.45
2062.42
1689.88
1339.26
1019.22
676.56
421.847
100.79
29.0645
274.025
514.66
701.093
873.787
1107.46
1464.78
1969.2
2501.06
2972.15
3357.3
3605.65
35199
14819.2
8994.69
6249.08
4536.29
3332.66
2432.7
1737.23
1200.91
771.074
426.139
230.672
31551.7
9213.2
4398.32
2736.19
1836.76
1257.9
863.171
584.115
380.025
225.692
109.343
45.6191
23327.3
7701.43
3654.36
2077.96
1285.64
839.126
559.077
371.128
238.996
142.031
69.5279
28.9629
18602.1
3685.61
1382.58
819.436
598.211
461.012
367.511
286.401
213.79
145.149
82.6871
100.709
35198.9
14819.2
8994.63
6249.03
4536.23
3332.6
2432.66
1737.19
1200.88
771.046
426.12
230.659
31551.6
9213.12
4398.23
2736.08
1836.65
1257.78
863.049
584
379.921
225.604
109.278
45.5666
23327.8
7701.9
3654.8
2078.37
1286.04
839.495
559.418
371.436
239.263
142.245
69.6758
29.0645
18602.5
3685.99
1382.93
819.75
598.488
461.257
367.725
286.584
213.942
145.265
82.7624
100.79
)
;
    }
    front
    {
        type            empty;
    }
    back
    {
        type            empty;
    }
}


// ************************************************************************* //
