/*--------------------------------*- C++ -*----------------------------------*\
| =========                 |                                                 |
| \\      /  F ield         | OpenFOAM: The Open Source CFD Toolbox           |
|  \\    /   O peration     | Version:  2212                                  |
|   \\  /    A nd           | Website:  www.openfoam.com                      |
|    \\/     M anipulation  |                                                 |
\*---------------------------------------------------------------------------*/
FoamFile
{
    version     2.0;
    format      ascii;
    arch        "LSB;label=32;scalar=64";
    class       volScalarField;
    location    "0.07";
    object      k;
}
// * * * * * * * * * * * * * * * * * * * * * * * * * * * * * * * * * * * * * //

dimensions      [0 2 -2 0 0 0 0];

internalField   nonuniform List<scalar> 
3072
(
2.34127
3.24176
3.74903
3.74381
3.68899
3.39188
3.22488
4.09285
12.3316
22.7501
26.9824
29.0219
4.89809
7.92067
8.42703
8.20586
8.35924
8.03471
12.1358
19.1811
21.9624
31.737
38.5415
46.3121
6.61074
11.2638
13.1106
14.7001
19.3098
21.6892
21.8863
26.9476
35.071
44.9802
52.9278
60.186
8.81109
16.6462
18.7287
19.5237
22.1477
23.283
27.0783
36.407
45.9246
54.6074
61.6661
67.7333
10.4051
20.0532
22.0796
21.9664
23.4529
26.6051
34.8222
45.059
53.8588
61.233
67.2683
72.4122
11.6939
22.2318
23.6765
23.5764
26.429
33.1599
42.8222
52.002
59.5351
65.6449
70.725
75.1101
12.5084
23.6479
25.657
27.0579
32.4764
41.2353
50.1553
57.835
64.0722
69.1153
73.3683
77.1161
13.7709
26.9212
30.854
35.7616
44.0745
52.0941
59.147
64.9189
69.5976
73.4217
76.721
79.739
15.501
33.3339
42.9359
53.3539
62.7829
69.2562
73.628
76.6274
78.8984
80.7942
82.5895
84.4625
18.5142
42.9718
62.9468
78.4241
88.598
93.2616
94.6211
94.2515
93.3575
92.55
92.1588
92.333
21.1613
56.5553
91.6497
111.494
120.5
122.348
120.45
116.427
112.088
108.207
105.166
103.106
53.0712
92.9358
130.643
146.978
150.975
149.768
144.649
138.002
131.093
124.758
119.454
115.351
30.6564
31.4701
31.9484
32.0215
32.0479
31.0537
29.5797
27.158
24.0087
20.0311
14.8092
11.2456
53.1735
58.9362
62.9248
64.9272
65.0112
64.3126
62.9515
60.4673
55.7791
45.8564
32.8017
27.1596
66.0919
70.4252
73.2549
74.7898
75.5295
75.8827
75.9001
75.2963
73.1411
67.0236
50.3218
39.49
72.648
76.4887
79.3844
81.491
83.1175
84.5712
86.0771
87.4869
87.822
85.0977
71.4103
49.1172
76.6597
80.1491
83.0176
85.4428
87.7112
90.1459
93.0373
96.3605
99.1047
99.3139
89.7662
57.9144
78.8747
82.1602
85.1069
87.9031
90.8364
94.2629
98.5157
103.67
109.161
112.385
107.752
66.3991
80.4833
83.61
86.6427
89.7786
93.3077
97.6102
103.086
109.942
117.754
124.157
124.097
75.0281
82.617
85.4864
88.496
91.8408
95.8019
100.775
107.243
115.603
125.667
135.011
138.178
84.8607
86.5153
88.8429
91.5882
94.9191
99.0697
104.416
111.496
120.974
133.098
145.5
150.892
96.202
93.1048
94.5204
96.7143
99.7746
103.844
109.216
116.384
126.295
139.905
155.588
164.691
108.296
102.35
102.951
104.373
106.808
110.537
115.597
122.238
131.592
145.358
164.052
180.279
122.267
112.982
112.906
113.969
115.879
118.911
123.279
128.747
136.461
148.067
168.01
194.467
139.93
2.34129
3.24178
3.74905
3.74383
3.68901
3.3919
3.22489
4.09288
12.3318
22.7502
26.9825
29.022
4.89813
7.92071
8.42706
8.20587
8.35925
8.03473
12.1359
19.1811
21.9625
31.7372
38.5417
46.3123
6.61079
11.2639
13.1107
14.7002
19.3098
21.6892
21.8863
26.9478
35.0712
44.9804
52.9281
60.1863
8.81117
16.6463
18.7288
19.5238
22.1477
23.2831
27.0785
36.4072
45.9248
54.6077
61.6664
67.7335
10.4052
20.0533
22.0796
21.9664
23.4529
26.6052
34.8224
45.0593
53.8591
61.2333
67.2686
72.4125
11.694
22.2319
23.6766
23.5765
26.4291
33.1602
42.8225
52.0024
59.5354
65.6452
70.7254
75.1105
12.5084
23.648
25.6572
27.0581
32.4768
41.2357
50.1557
57.8353
64.0725
69.1157
73.3687
77.1165
13.7709
26.9213
30.8542
35.7619
44.0749
52.0945
59.1474
64.9193
69.598
73.4221
76.7214
79.7393
15.501
33.334
42.9361
53.3542
62.7832
69.2565
73.6284
76.6278
78.8987
80.7945
82.5899
84.4629
18.5142
42.9719
62.9468
78.4242
88.5981
93.2618
94.6213
94.2517
93.3578
92.5503
92.1592
92.3333
21.1613
56.5553
91.6497
111.494
120.5
122.348
120.45
116.427
112.088
108.207
105.167
103.107
53.0712
92.936
130.644
146.978
150.975
149.768
144.649
138.003
131.093
124.758
119.455
115.351
30.6565
31.4702
31.9484
32.0216
32.048
31.0538
29.5798
27.1581
24.0087
20.0311
14.8092
11.2456
53.1737
58.9364
62.925
64.9274
65.0113
64.3128
62.9516
60.4675
55.7792
45.8565
32.8017
27.1596
66.0921
70.4254
73.2551
74.79
75.5297
75.8829
75.9003
75.2965
73.1413
67.0238
50.3219
39.4901
72.6483
76.489
79.3847
81.4913
83.1178
84.5714
86.0774
87.4871
87.8222
85.0978
71.4104
49.1173
76.66
80.1495
83.0179
85.4431
87.7115
90.1462
93.0376
96.3608
99.1049
99.3141
89.7664
57.9145
78.875
82.1606
85.1073
87.9035
90.8367
94.2632
98.516
103.67
109.161
112.385
107.752
66.3992
80.4837
83.6103
86.6431
89.7789
93.308
97.6105
103.086
109.942
117.754
124.158
124.098
75.0282
82.6174
85.4868
88.4964
91.8412
95.8022
100.776
107.244
115.603
125.667
135.011
138.179
84.8608
86.5157
88.8433
91.5886
94.9195
99.0701
104.416
111.497
120.975
133.098
145.5
150.892
96.2021
93.1051
94.5208
96.7146
99.7749
103.844
109.217
116.385
126.295
139.905
155.588
164.691
108.296
102.35
102.951
104.373
106.808
110.537
115.597
122.239
131.593
145.358
164.053
180.279
122.267
112.982
112.906
113.969
115.879
118.911
123.279
128.747
136.462
148.067
168.011
194.467
139.93
2.3413
3.2418
3.74908
3.74386
3.68903
3.39192
3.22491
4.0929
12.3318
22.7501
26.9825
29.022
4.89815
7.92075
8.42712
8.20594
8.35932
8.03477
12.1359
19.1811
21.9625
31.7371
38.5417
46.3123
6.61082
11.2639
13.1108
14.7003
19.3099
21.6892
21.8863
26.9478
35.0712
44.9804
52.928
60.1862
8.8112
16.6464
18.7289
19.5239
22.1477
23.2831
27.0785
36.4072
45.9248
54.6077
61.6663
67.7335
10.4052
20.0534
22.0797
21.9665
23.453
26.6052
34.8224
45.0592
53.8591
61.2333
67.2686
72.4125
11.6941
22.232
23.6767
23.5766
26.4291
33.1602
42.8225
52.0024
59.5354
65.6452
70.7253
75.1105
12.5085
23.6481
25.6572
27.0581
32.4768
41.2357
50.1557
57.8354
64.0725
69.1157
73.3687
77.1165
13.771
26.9214
30.8543
35.762
44.0749
52.0946
59.1475
64.9194
69.598
73.4222
76.7214
79.7394
15.5011
33.3341
42.9362
53.3543
62.7833
69.2566
73.6285
76.6279
78.8988
80.7946
82.59
84.463
18.5143
42.972
62.9469
78.4243
88.5982
93.2619
94.6215
94.2519
93.358
92.5505
92.1593
92.3334
21.1613
56.5554
91.6498
111.494
120.5
122.348
120.45
116.428
112.088
108.207
105.167
103.107
53.0713
92.9361
130.644
146.978
150.975
149.769
144.649
138.003
131.093
124.758
119.455
115.351
30.6564
31.4702
31.9484
32.0215
32.048
31.0537
29.5798
27.158
24.0087
20.0311
14.8092
11.2456
53.1736
58.9363
62.9249
64.9273
65.0113
64.3127
62.9515
60.4674
55.7791
45.8565
32.8016
27.1596
66.0921
70.4254
73.2551
74.7899
75.5296
75.8829
75.9003
75.2964
73.1412
67.0237
50.3218
39.49
72.6483
76.4889
79.3847
81.4912
83.1177
84.5713
86.0773
87.4871
87.8221
85.0977
71.4104
49.1172
76.66
80.1494
83.0179
85.4431
87.7114
90.1462
93.0375
96.3607
99.1048
99.314
89.7663
57.9144
78.875
82.1605
85.1072
87.9034
90.8367
94.2632
98.5159
103.67
109.161
112.385
107.752
66.3991
80.4837
83.6103
86.6431
89.7789
93.308
97.6105
103.086
109.942
117.754
124.157
124.097
75.0281
82.6174
85.4868
88.4964
91.8412
95.8022
100.776
107.243
115.603
125.667
135.011
138.178
84.8607
86.5157
88.8433
91.5886
94.9195
99.0701
104.416
111.497
120.975
133.098
145.5
150.892
96.2021
93.1052
94.5208
96.7147
99.7749
103.844
109.217
116.385
126.295
139.905
155.588
164.691
108.296
102.351
102.951
104.373
106.808
110.537
115.597
122.239
131.593
145.358
164.053
180.279
122.267
112.983
112.906
113.97
115.879
118.911
123.279
128.747
136.462
148.067
168.011
194.467
139.93
2.34128
3.24177
3.74904
3.74382
3.68899
3.39189
3.22488
4.09286
12.3317
22.7501
26.9824
29.0219
4.89811
7.92068
8.42703
8.20585
8.35923
8.0347
12.1358
19.1811
21.9624
31.737
38.5415
46.3121
6.61076
11.2638
13.1106
14.7001
19.3098
21.6891
21.8863
26.9477
35.0711
44.9802
52.9279
60.1861
8.81113
16.6462
18.7287
19.5237
22.1476
23.283
27.0783
36.407
45.9246
54.6075
61.6661
67.7333
10.4051
20.0533
22.0796
21.9664
23.4528
26.6051
34.8222
45.059
53.8589
61.2331
67.2684
72.4123
11.694
22.2318
23.6766
23.5764
26.429
33.16
42.8223
52.0022
59.5352
65.645
70.7251
75.1103
12.5084
23.6479
25.657
27.058
32.4766
41.2355
50.1555
57.8351
64.0723
69.1155
73.3685
77.1163
13.7709
26.9213
30.8541
35.7618
44.0747
52.0944
59.1472
64.9192
69.5978
73.4219
76.7212
79.7392
15.501
33.3339
42.936
53.3541
62.7831
69.2564
73.6283
76.6277
78.8986
80.7944
82.5898
84.4628
18.5142
42.9718
62.9468
78.4241
88.5981
93.2617
94.6213
94.2517
93.3578
92.5503
92.1591
92.3332
21.1613
56.5553
91.6497
111.494
120.5
122.348
120.45
116.427
112.088
108.207
105.167
103.107
53.0712
92.9359
130.644
146.978
150.975
149.768
144.649
138.003
131.093
124.758
119.455
115.351
30.6564
31.4701
31.9484
32.0215
32.0479
31.0537
29.5797
27.158
24.0086
20.0311
14.8092
11.2456
53.1735
58.9362
62.9248
64.9272
65.0112
64.3126
62.9515
60.4673
55.7791
45.8564
32.8016
27.1595
66.0919
70.4252
73.2549
74.7898
75.5295
75.8827
75.9002
75.2963
73.1411
67.0236
50.3218
39.49
72.6481
76.4888
79.3845
81.4911
83.1176
84.5712
86.0772
87.487
87.822
85.0977
71.4103
49.1172
76.6598
80.1492
83.0177
85.4429
87.7113
90.146
93.0374
96.3606
99.1047
99.3139
89.7662
57.9144
78.8748
82.1604
85.1071
87.9033
90.8365
94.263
98.5158
103.67
109.161
112.385
107.752
66.3991
80.4835
83.6101
86.6429
89.7787
93.3079
97.6103
103.086
109.942
117.754
124.157
124.097
75.0281
82.6172
85.4866
88.4962
91.841
95.8021
100.776
107.243
115.603
125.667
135.011
138.178
84.8607
86.5155
88.8431
91.5885
94.9194
99.07
104.416
111.496
120.974
133.098
145.5
150.892
96.202
93.1051
94.5207
96.7145
99.7748
103.844
109.217
116.384
126.295
139.905
155.588
164.691
108.296
102.35
102.951
104.373
106.808
110.537
115.597
122.239
131.592
145.358
164.052
180.279
122.267
112.982
112.906
113.969
115.879
118.911
123.279
128.747
136.462
148.067
168.011
194.467
139.93
164.554
161.713
162.451
163.79
163.608
161.673
157.047
150.885
143.96
137.191
131.152
126.125
164.819
158.34
155.632
155.427
155.976
155.693
154.216
151.25
146.846
142.056
137.302
133.036
152.826
148.901
145.665
144.128
143.956
144.29
144.446
143.961
142.786
140.758
138.226
135.972
139.977
138.332
136.429
134.87
134.325
134.566
135.216
135.869
136.303
136.301
136.018
135.781
123.15
122.898
123.848
125.455
127.813
130.919
134.425
139.393
147.516
163.418
192.244
183.837
131.07
131.386
132.268
133.359
134.454
135.427
136.797
139.25
143.588
152.479
172.804
172.315
135.957
136.557
136.837
136.615
135.921
134.952
134.443
134.722
136.543
140.819
152.722
155.366
136.691
136.273
134.705
132.65
130.25
128.519
127.686
127.786
129.147
131.532
137.916
140.954
164.553
161.714
162.452
163.79
163.608
161.673
157.047
150.885
143.96
137.192
131.152
126.125
164.819
158.341
155.633
155.428
155.976
155.693
154.216
151.25
146.847
142.056
137.302
133.036
152.826
148.902
145.666
144.128
143.956
144.291
144.446
143.961
142.786
140.758
138.226
135.972
139.978
138.333
136.429
134.871
134.326
134.566
135.216
135.869
136.303
136.301
136.018
135.782
123.15
122.898
123.848
125.455
127.814
130.919
134.425
139.393
147.516
163.419
192.244
183.837
131.07
131.386
132.268
133.359
134.455
135.427
136.797
139.25
143.588
152.479
172.805
172.315
135.957
136.557
136.837
136.615
135.921
134.952
134.443
134.722
136.544
140.819
152.723
155.366
136.691
136.273
134.705
132.651
130.25
128.519
127.686
127.786
129.147
131.532
137.916
140.954
164.554
161.714
162.452
163.791
163.608
161.673
157.047
150.885
143.96
137.192
131.152
126.125
164.819
158.341
155.633
155.428
155.976
155.693
154.217
151.25
146.847
142.056
137.302
133.036
152.826
148.902
145.666
144.128
143.956
144.291
144.446
143.961
142.786
140.758
138.226
135.972
139.978
138.333
136.429
134.871
134.326
134.566
135.216
135.869
136.303
136.301
136.018
135.782
123.15
122.898
123.848
125.455
127.814
130.919
134.425
139.393
147.516
163.418
192.244
183.837
131.07
131.386
132.268
133.359
134.455
135.427
136.797
139.25
143.588
152.479
172.804
172.315
135.957
136.557
136.837
136.615
135.921
134.952
134.443
134.722
136.543
140.819
152.722
155.366
136.691
136.273
134.705
132.65
130.25
128.519
127.686
127.786
129.147
131.532
137.916
140.954
164.553
161.714
162.452
163.79
163.608
161.673
157.047
150.885
143.96
137.192
131.152
126.125
164.819
158.341
155.633
155.428
155.976
155.693
154.216
151.25
146.847
142.056
137.302
133.036
152.826
148.902
145.666
144.128
143.956
144.291
144.446
143.961
142.786
140.758
138.226
135.972
139.978
138.333
136.429
134.871
134.326
134.566
135.216
135.869
136.303
136.301
136.018
135.782
123.15
122.898
123.848
125.455
127.814
130.919
134.425
139.393
147.516
163.418
192.244
183.837
131.07
131.386
132.268
133.359
134.455
135.427
136.797
139.25
143.588
152.479
172.804
172.315
135.957
136.557
136.837
136.615
135.921
134.952
134.443
134.722
136.543
140.819
152.722
155.366
136.691
136.273
134.705
132.65
130.25
128.519
127.686
127.786
129.147
131.532
137.916
140.954
128.931
128.074
127.489
127.488
127.876
128.475
128.971
129.176
128.903
128.17
127.368
126.935
121.6
121.569
121.711
122.072
122.389
122.407
121.614
119.982
117.459
114.506
111.94
111.07
114.96
115.114
115.214
115.226
114.686
113.371
111.033
107.716
103.621
99.5559
96.5501
96.3262
106.644
106.469
105.867
104.855
102.992
100.21
96.4505
91.9521
87.1975
83.1775
81.0686
80.9766
127.189
124.887
121.855
121.135
120.666
121.301
122.458
124.083
126.097
128.436
130.341
130.639
112.275
112.402
111.142
112.409
113.893
115.995
118.095
120.191
121.93
123.089
123.737
122.972
100.282
102.872
102.628
105.313
107.831
110.568
112.968
114.8
116.029
116.735
116.771
115.722
87.338
94.4626
94.9146
98.0896
100.956
103.663
105.761
107.272
108.303
108.687
108.285
107.266
128.931
128.074
127.489
127.488
127.877
128.475
128.971
129.176
128.903
128.17
127.368
126.935
121.6
121.57
121.711
122.072
122.389
122.407
121.614
119.982
117.46
114.506
111.94
111.07
114.96
115.114
115.214
115.226
114.686
113.371
111.033
107.716
103.621
99.556
96.5502
96.3262
106.644
106.469
105.867
104.855
102.992
100.21
96.4506
91.9522
87.1976
83.1776
81.0687
80.9766
127.189
124.887
121.855
121.135
120.666
121.301
122.458
124.084
126.097
128.436
130.341
130.639
112.276
112.402
111.142
112.409
113.893
115.995
118.095
120.191
121.93
123.089
123.737
122.972
100.282
102.872
102.628
105.313
107.831
110.568
112.968
114.8
116.029
116.735
116.771
115.722
87.338
94.4626
94.9146
98.0896
100.956
103.663
105.761
107.272
108.303
108.687
108.285
107.266
128.931
128.075
127.49
127.488
127.877
128.475
128.971
129.176
128.903
128.17
127.368
126.935
121.6
121.57
121.711
122.072
122.389
122.407
121.614
119.982
117.459
114.506
111.94
111.07
114.96
115.114
115.214
115.226
114.686
113.371
111.033
107.716
103.621
99.5559
96.5501
96.3262
106.644
106.469
105.867
104.855
102.992
100.21
96.4504
91.9521
87.1975
83.1775
81.0686
80.9766
127.189
124.886
121.855
121.135
120.666
121.301
122.458
124.083
126.097
128.436
130.341
130.639
112.275
112.402
111.142
112.409
113.893
115.995
118.095
120.191
121.93
123.089
123.737
122.972
100.282
102.871
102.628
105.313
107.831
110.568
112.968
114.8
116.029
116.735
116.771
115.722
87.338
94.4626
94.9146
98.0895
100.956
103.663
105.76
107.272
108.303
108.687
108.285
107.265
128.931
128.074
127.489
127.488
127.877
128.475
128.971
129.176
128.903
128.17
127.368
126.935
121.6
121.569
121.711
122.072
122.389
122.407
121.614
119.982
117.459
114.506
111.94
111.07
114.96
115.114
115.214
115.226
114.686
113.371
111.033
107.716
103.621
99.5559
96.55
96.3261
106.644
106.469
105.867
104.855
102.992
100.21
96.4504
91.9521
87.1974
83.1774
81.0686
80.9765
127.189
124.886
121.855
121.135
120.666
121.301
122.458
124.083
126.097
128.436
130.341
130.639
112.275
112.402
111.141
112.409
113.893
115.995
118.094
120.191
121.93
123.088
123.737
122.972
100.282
102.871
102.628
105.312
107.831
110.567
112.968
114.8
116.029
116.734
116.771
115.722
87.3379
94.4625
94.9145
98.0894
100.956
103.663
105.76
107.272
108.303
108.687
108.285
107.265
95.397
94.2928
92.4394
89.8944
86.25
81.4982
75.5477
68.4645
60.254
50.6301
38.9203
29.189
80.7434
78.2451
74.713
70.188
64.2545
56.8294
47.6306
36.484
23.4588
12.166
6.19153
4.90701
63.0308
58.8938
53.5084
46.8764
38.6536
28.8592
17.5243
7.45238
2.3187
0.961832
0.821983
0.83907
43.3387
37.6681
30.7556
22.646
13.4219
5.33866
1.21043
0.261327
0.194852
0.180897
0.18414
0.186014
23.4359
16.8663
9.74994
3.7791
0.816994
0.142907
0.128991
0.109948
0.113765
0.112308
0.11165
0.109872
6.34159
2.34091
0.580377
0.10242
0.121483
0.108223
0.109118
0.10878
0.108767
0.108575
0.10861
0.108609
0.393337
0.104737
0.11468
0.107438
0.107694
0.107809
0.107941
0.108035
0.108082
0.10815
0.108278
0.108379
0.109653
0.105884
0.106121
0.106397
0.106647
0.106887
0.107101
0.107328
0.107543
0.107776
0.108016
0.108235
0.103596
0.103855
0.104129
0.104424
0.104719
0.105024
0.105306
0.105576
0.105836
0.106095
0.106393
0.106734
0.097557
0.0978616
0.0981538
0.0984885
0.0988001
0.0991451
0.0994671
0.0998155
0.100137
0.100481
0.10083
0.101193
0.082204
0.082558
0.0829049
0.0832574
0.0836128
0.0839827
0.0843575
0.0847468
0.0851466
0.085555
0.0859627
0.0863199
0.0487498
0.0474254
0.0475776
0.0465573
0.0466736
0.0459068
0.0460155
0.0455272
0.0456433
0.0454967
0.0456212
0.0457287
68.2236
84.7343
86.8154
89.8847
92.5353
94.7721
96.4675
97.7577
98.4532
98.4656
97.6148
96.4421
58.9635
74.1061
77.6969
80.2965
82.408
84.1318
85.4682
86.3119
86.5071
85.838
84.4579
82.7286
52.3351
64.1751
67.4515
69.4894
71.0414
72.2633
73.0047
73.186
72.5507
71.0606
68.9505
66.3017
46.1891
54.0938
56.4824
58.0334
58.9695
59.4501
59.4567
58.6255
57.0647
54.7023
51.7029
47.9566
40.01
43.9483
45.459
46.2965
46.5056
46.0683
45.0658
43.2669
40.841
37.6239
33.7516
29.0341
33.3821
34.0751
34.6481
34.5737
33.88
32.4662
30.594
27.9752
24.8871
21.0042
16.5573
11.4453
26.8806
23.978
24.297
22.8631
21.6811
19.3966
16.9931
13.7574
10.4622
6.71156
3.58844
1.19725
20.1534
14.4063
14.5623
11.8246
10.7205
7.73464
5.7847
3.12547
1.68425
0.419437
0.28214
0.0904578
12.6705
5.65244
5.96504
3.2707
2.90995
1.00235
0.764477
0.156671
0.166941
0.096359
0.105166
0.103164
6.63473
0.960916
1.09374
0.302492
0.315338
0.0941045
0.113065
0.0947402
0.0973253
0.0967391
0.0970876
0.0973346
2.6677
0.0998994
0.13193
0.0762056
0.0837114
0.0790269
0.0805086
0.0807164
0.0808903
0.0811851
0.0814954
0.0818455
2.05697
0.0718204
0.0678754
0.0608834
0.0598257
0.055603
0.0556485
0.0519653
0.0524911
0.0499556
0.0503093
0.0485201
95.3971
94.293
92.4396
89.8945
86.2501
81.4984
75.5478
68.4646
60.2541
50.6301
38.9204
29.1891
80.7435
78.2453
74.7132
70.1881
64.2547
56.8295
47.6308
36.4841
23.4589
12.166
6.19155
4.90703
63.031
58.8939
53.5085
46.8765
38.6537
28.8594
17.5245
7.45244
2.31872
0.961844
0.821991
0.839079
43.3389
37.6683
30.7557
22.6461
13.422
5.33873
1.21045
0.261334
0.194857
0.180904
0.184145
0.18602
23.436
16.8664
9.75004
3.77916
0.81701
0.142911
0.128993
0.10995
0.113767
0.11231
0.111653
0.109876
6.34167
2.34093
0.580391
0.102419
0.121483
0.108222
0.109118
0.108779
0.108767
0.108575
0.108609
0.108609
0.393327
0.104733
0.11468
0.107437
0.107693
0.107808
0.10794
0.108034
0.108081
0.108149
0.108277
0.108378
0.109652
0.105884
0.106121
0.106396
0.106646
0.106886
0.1071
0.107327
0.107542
0.107775
0.108015
0.108234
0.103596
0.103855
0.104129
0.104424
0.104719
0.105024
0.105306
0.105576
0.105835
0.106094
0.106392
0.106734
0.0975568
0.0978614
0.0981537
0.0984883
0.0988
0.099145
0.0994669
0.0998154
0.100136
0.100481
0.100829
0.101193
0.082204
0.082558
0.0829049
0.0832574
0.0836128
0.0839827
0.0843575
0.0847468
0.0851466
0.085555
0.0859627
0.0863199
0.0487498
0.0474254
0.0475776
0.0465573
0.0466736
0.0459068
0.0460155
0.0455273
0.0456433
0.0454968
0.0456212
0.0457287
68.2236
84.7343
86.8154
89.8847
92.5352
94.7721
96.4675
97.7576
98.4531
98.4655
97.6147
96.442
58.9634
74.106
77.6968
80.2964
82.4079
84.1317
85.4681
86.3118
86.507
85.8379
84.4578
82.7285
52.3351
64.175
67.4514
69.4893
71.0413
72.2632
73.0046
73.1859
72.5505
71.0604
68.9504
66.3015
46.189
54.0937
56.4823
58.0333
58.9693
59.4499
59.4565
58.6253
57.0646
54.7021
51.7027
47.9564
40.0099
43.9481
45.4589
46.2964
46.5054
46.0681
45.0656
43.2667
40.8408
37.6237
33.7515
29.034
33.382
34.0749
34.648
34.5735
33.8798
32.466
30.5938
27.975
24.887
21.0041
16.5571
11.4452
26.8805
23.9779
24.2968
22.863
21.681
19.3964
16.9929
13.7572
10.4621
6.71144
3.58837
1.19722
20.1533
14.4062
14.5622
11.8245
10.7204
7.73449
5.78458
3.12537
1.6842
0.41942
0.282138
0.090458
12.6704
5.65234
5.96493
3.27061
2.90987
1.00231
0.764449
0.156665
0.166938
0.0963597
0.105166
0.103165
6.63465
0.960888
1.09371
0.302479
0.315327
0.094104
0.113065
0.0947406
0.0973255
0.0967395
0.0970879
0.097335
2.66766
0.0998983
0.131928
0.0762059
0.0837114
0.0790272
0.0805089
0.0807167
0.0808906
0.0811853
0.0814957
0.0818458
2.05694
0.0718205
0.0678752
0.0608834
0.0598257
0.055603
0.0556485
0.0519654
0.0524912
0.0499556
0.0503094
0.0485202
95.397
94.2928
92.4394
89.8944
86.2499
81.4982
75.5477
68.4645
60.254
50.6301
38.9203
29.1891
80.7434
78.2451
74.713
70.1879
64.2545
56.8294
47.6306
36.4839
23.4588
12.166
6.19154
4.90701
63.0308
58.8938
53.5083
46.8763
38.6535
28.8592
17.5243
7.45238
2.31871
0.961841
0.821986
0.839075
43.3387
37.6681
30.7556
22.6459
13.4219
5.33866
1.21043
0.261335
0.194857
0.180904
0.184145
0.18602
23.4359
16.8662
9.74992
3.7791
0.816994
0.142909
0.128995
0.10995
0.113768
0.112311
0.111654
0.109876
6.34157
2.34089
0.580381
0.102418
0.121483
0.108223
0.109118
0.10878
0.108767
0.108575
0.10861
0.108609
0.39332
0.104732
0.11468
0.107437
0.107694
0.107808
0.10794
0.108035
0.108082
0.108149
0.108278
0.108378
0.109652
0.105884
0.106121
0.106397
0.106646
0.106887
0.107101
0.107328
0.107543
0.107775
0.108015
0.108234
0.103596
0.103855
0.104129
0.104424
0.104719
0.105024
0.105306
0.105576
0.105836
0.106095
0.106393
0.106735
0.0975571
0.0978618
0.098154
0.0984887
0.0988004
0.0991453
0.0994673
0.0998158
0.100137
0.100481
0.10083
0.101194
0.0822043
0.0825583
0.0829052
0.0832577
0.0836132
0.083983
0.0843578
0.0847471
0.085147
0.0855554
0.0859631
0.0863203
0.0487499
0.0474256
0.0475777
0.0465575
0.0466737
0.045907
0.0460157
0.0455274
0.0456434
0.0454969
0.0456214
0.0457289
68.2236
84.7342
86.8153
89.8846
92.5352
94.772
96.4674
97.7575
98.453
98.4655
97.6147
96.442
58.9634
74.106
77.6968
80.2964
82.4079
84.1317
85.4681
86.3118
86.507
85.8378
84.4577
82.7284
52.3351
64.175
67.4513
69.4893
71.0413
72.2632
73.0045
73.1858
72.5505
71.0604
68.9503
66.3015
46.189
54.0937
56.4823
58.0333
58.9693
59.4499
59.4565
58.6253
57.0645
54.7021
51.7027
47.9564
40.0099
43.9481
45.4589
46.2964
46.5054
46.0681
45.0656
43.2667
40.8408
37.6237
33.7515
29.034
33.382
34.0749
34.648
34.5735
33.8798
32.466
30.5938
27.975
24.887
21.0041
16.5571
11.4452
26.8805
23.9779
24.2968
22.863
21.681
19.3964
16.9929
13.7572
10.4621
6.71144
3.58838
1.19722
20.1533
14.4062
14.5622
11.8245
10.7204
7.73449
5.78458
3.12538
1.68421
0.419419
0.282141
0.0904585
12.6704
5.65234
5.96493
3.2706
2.90987
1.00231
0.764449
0.156666
0.166938
0.09636
0.105167
0.103165
6.63468
0.960885
1.0937
0.302479
0.315326
0.094104
0.113065
0.0947406
0.0973256
0.0967396
0.097088
0.097335
2.66768
0.0998983
0.131928
0.0762059
0.0837113
0.0790272
0.0805088
0.0807167
0.0808906
0.0811853
0.0814956
0.0818457
2.05696
0.0718209
0.0678752
0.0608835
0.0598258
0.0556032
0.0556487
0.0519655
0.0524912
0.0499557
0.0503094
0.0485203
95.397
94.2928
92.4394
89.8943
86.2499
81.4982
75.5476
68.4645
60.254
50.63
38.9203
29.189
80.7433
78.2451
74.7129
70.1879
64.2545
56.8293
47.6306
36.4839
23.4588
12.166
6.19154
4.90702
63.0308
58.8937
53.5083
46.8763
38.6535
28.8592
17.5243
7.45239
2.31872
0.961847
0.821992
0.839081
43.3387
37.6681
30.7555
22.6459
13.4219
5.33866
1.21044
0.261339
0.194862
0.180908
0.18415
0.186024
23.4359
16.8662
9.74992
3.7791
0.816998
0.142911
0.128997
0.109952
0.11377
0.112313
0.111656
0.109879
6.34157
2.34089
0.580384
0.102419
0.121484
0.108223
0.109119
0.10878
0.108768
0.108576
0.108611
0.10861
0.393322
0.104733
0.114681
0.107438
0.107694
0.107809
0.107941
0.108035
0.108082
0.10815
0.108278
0.108379
0.109653
0.105884
0.106121
0.106397
0.106647
0.106887
0.107101
0.107328
0.107543
0.107776
0.108016
0.108235
0.103596
0.103856
0.104129
0.104424
0.10472
0.105024
0.105306
0.105576
0.105836
0.106095
0.106393
0.106735
0.0975572
0.0978618
0.0981541
0.0984888
0.0988004
0.0991454
0.0994673
0.0998158
0.100137
0.100481
0.10083
0.101194
0.0822042
0.0825582
0.0829052
0.0832577
0.0836131
0.0839829
0.0843577
0.084747
0.0851469
0.0855553
0.085963
0.0863202
0.0487499
0.0474255
0.0475777
0.0465575
0.0466737
0.045907
0.0460156
0.0455274
0.0456434
0.0454969
0.0456213
0.0457288
68.2236
84.7342
86.8153
89.8846
92.5351
94.772
96.4673
97.7575
98.453
98.4654
97.6146
96.442
58.9634
74.106
77.6968
80.2963
82.4078
84.1316
85.468
86.3118
86.5069
85.8378
84.4577
82.7285
52.3351
64.1749
67.4513
69.4893
71.0413
72.2632
73.0045
73.1858
72.5505
71.0604
68.9504
66.3015
46.1889
54.0937
56.4823
58.0332
58.9693
59.4499
59.4565
58.6253
57.0646
54.7021
51.7027
47.9564
40.0099
43.9481
45.4589
46.2964
46.5054
46.0681
45.0656
43.2667
40.8409
37.6237
33.7515
29.034
33.382
34.0749
34.648
34.5735
33.8798
32.4661
30.5939
27.9751
24.887
21.0041
16.5572
11.4452
26.8805
23.9779
24.2968
22.863
21.681
19.3965
16.993
13.7573
10.4622
6.71151
3.58842
1.19724
20.1533
14.4062
14.5622
11.8245
10.7204
7.73457
5.78466
3.12546
1.68426
0.419463
0.282162
0.0904706
12.6704
5.65241
5.965
3.27068
2.90994
1.00237
0.764502
0.156702
0.166971
0.0963871
0.105194
0.103192
6.63471
0.96094
1.09376
0.302521
0.315366
0.0941323
0.113093
0.0947671
0.0973526
0.0967665
0.0971148
0.0973617
2.6677
0.0999168
0.131952
0.0762254
0.0837327
0.079048
0.0805308
0.080739
0.0809132
0.0812082
0.0815188
0.0818688
2.05697
0.0718268
0.067886
0.0608908
0.0598337
0.05561
0.055656
0.0519725
0.0524983
0.0499626
0.0503163
0.0485269
)
;

boundaryField
{
    rotor
    {
        type            kqRWallFunction;
        value           nonuniform List<scalar> 
192
(
2.34127
3.24176
3.74903
3.74381
3.68899
3.39188
3.22488
4.09285
12.3316
22.7501
26.9824
29.0219
30.6564
31.4701
31.9484
32.0215
32.0479
31.0537
29.5797
27.158
24.0087
20.0311
14.8092
11.2456
2.34129
3.24178
3.74905
3.74383
3.68901
3.3919
3.22489
4.09288
12.3318
22.7502
26.9825
29.022
30.6565
31.4702
31.9484
32.0216
32.048
31.0538
29.5798
27.1581
24.0087
20.0311
14.8092
11.2456
2.3413
3.2418
3.74908
3.74386
3.68903
3.39192
3.22491
4.0929
12.3318
22.7501
26.9825
29.022
30.6564
31.4702
31.9484
32.0215
32.048
31.0537
29.5798
27.158
24.0087
20.0311
14.8092
11.2456
2.34128
3.24177
3.74904
3.74382
3.68899
3.39189
3.22488
4.09286
12.3317
22.7501
26.9824
29.0219
30.6564
31.4701
31.9484
32.0215
32.0479
31.0537
29.5797
27.158
24.0086
20.0311
14.8092
11.2456
2.34127
4.89809
6.61074
8.81109
10.4051
11.6939
12.5084
13.7709
15.501
18.5142
21.1613
53.0712
11.2456
27.1595
39.49
49.1172
57.9144
66.3991
75.0281
84.8607
96.202
108.296
122.267
139.93
2.34129
4.89813
6.61079
8.81117
10.4052
11.694
12.5084
13.7709
15.501
18.5142
21.1613
53.0712
11.2456
27.1596
39.49
49.1172
57.9144
66.3991
75.0281
84.8607
96.202
108.296
122.267
139.93
2.3413
4.89815
6.61082
8.8112
10.4052
11.6941
12.5085
13.771
15.5011
18.5143
21.1613
53.0713
11.2456
27.1596
39.4901
49.1173
57.9145
66.3992
75.0282
84.8608
96.2021
108.296
122.267
139.93
2.34128
4.89811
6.61076
8.81113
10.4051
11.694
12.5084
13.7709
15.501
18.5142
21.1613
53.0712
11.2456
27.1596
39.49
49.1172
57.9144
66.3991
75.0281
84.8607
96.2021
108.296
122.267
139.93
)
;
    }
    stator
    {
        type            kqRWallFunction;
        value           nonuniform List<scalar> 
192
(
0.0487498
0.0474254
0.0475776
0.0465573
0.0466736
0.0459068
0.0460155
0.0455272
0.0456433
0.0454967
0.0456212
0.0457287
2.05697
0.0718204
0.0678754
0.0608834
0.0598257
0.055603
0.0556485
0.0519653
0.0524911
0.0499556
0.0503093
0.0485201
0.0487498
0.0474254
0.0475776
0.0465573
0.0466736
0.0459068
0.0460155
0.0455273
0.0456433
0.0454968
0.0456212
0.0457287
2.05694
0.0718205
0.0678752
0.0608834
0.0598257
0.055603
0.0556485
0.0519654
0.0524912
0.0499556
0.0503094
0.0485202
0.0487499
0.0474256
0.0475777
0.0465575
0.0466737
0.045907
0.0460157
0.0455274
0.0456434
0.0454969
0.0456214
0.0457289
2.05696
0.0718209
0.0678752
0.0608835
0.0598258
0.0556032
0.0556487
0.0519655
0.0524912
0.0499557
0.0503094
0.0485203
0.0487499
0.0474255
0.0475777
0.0465575
0.0466737
0.045907
0.0460156
0.0455274
0.0456434
0.0454969
0.0456213
0.0457288
2.05697
0.0718268
0.067886
0.0608908
0.0598337
0.05561
0.055656
0.0519725
0.0524983
0.0499626
0.0503163
0.0485269
68.2236
58.9635
52.3351
46.1891
40.01
33.3821
26.8806
20.1534
12.6705
6.63473
2.6677
2.05697
29.189
4.90701
0.83907
0.186014
0.109872
0.108609
0.108379
0.108235
0.106734
0.101193
0.0863199
0.0457287
68.2236
58.9634
52.3351
46.189
40.0099
33.382
26.8805
20.1533
12.6704
6.63465
2.66766
2.05694
29.1891
4.90703
0.839079
0.18602
0.109876
0.108609
0.108378
0.108234
0.106734
0.101193
0.0863199
0.0457287
68.2236
58.9634
52.3351
46.189
40.0099
33.382
26.8805
20.1533
12.6704
6.63468
2.66768
2.05696
29.1891
4.90701
0.839075
0.18602
0.109876
0.108609
0.108378
0.108234
0.106735
0.101194
0.0863203
0.0457289
68.2236
58.9634
52.3351
46.1889
40.0099
33.382
26.8805
20.1533
12.6704
6.63471
2.6677
2.05697
29.189
4.90702
0.839081
0.186024
0.109879
0.10861
0.108379
0.108235
0.106735
0.101194
0.0863202
0.0457288
)
;
    }
    front
    {
        type            empty;
    }
    back
    {
        type            empty;
    }
}


// ************************************************************************* //
