/*--------------------------------*- C++ -*----------------------------------*\
| =========                 |                                                 |
| \\      /  F ield         | OpenFOAM: The Open Source CFD Toolbox           |
|  \\    /   O peration     | Version:  2212                                  |
|   \\  /    A nd           | Website:  www.openfoam.com                      |
|    \\/     M anipulation  |                                                 |
\*---------------------------------------------------------------------------*/
FoamFile
{
    version     2.0;
    format      ascii;
    arch        "LSB;label=32;scalar=64";
    class       volScalarField;
    location    "0.07";
    object      k;
}
// * * * * * * * * * * * * * * * * * * * * * * * * * * * * * * * * * * * * * //

dimensions      [0 2 -2 0 0 0 0];

internalField   nonuniform List<scalar> 
3072
(
3.53281
4.69564
5.03767
4.99133
4.62331
4.27895
5.13864
13.8485
28.7827
35.5513
38.7129
41.3295
7.47903
10.9393
11.2579
10.7866
10.2861
14.765
24.2251
28.0757
40.5659
50.6071
61.4111
71.186
10.4829
17.3366
20.7461
23.021
24.8271
26.8245
35.6473
46.4057
60.1711
71.8904
82.5314
91.3135
13.794
25.1049
26.268
25.8577
29.0003
36.8523
49.6491
62.5467
74.9273
85.4241
94.5399
102.018
15.5649
29.7803
31.1263
30.945
37.2677
48.6092
61.7977
74.1812
85.0879
94.31
102.282
108.906
16.6439
33.2341
36.3053
37.8448
46.494
58.592
71.1614
82.3876
91.9533
100.161
107.338
113.489
16.7939
33.9102
39.2074
44.3805
55.0428
67.2829
78.9516
89.1243
97.7617
105.222
111.81
117.608
17.1056
35.2872
43.5138
53.0322
65.6755
77.7844
88.5167
97.5934
105.237
111.838
117.709
122.981
17.9064
38.7698
53.246
68.3385
83.0286
94.7424
104.005
111.342
117.332
122.46
127.061
131.293
19.8317
47.6463
74.1421
95.0947
110.868
121.21
127.977
132.553
135.915
138.675
141.193
143.647
23.3058
65.3763
109.997
135.901
149.98
156.909
159.746
160.448
160.288
159.882
159.586
159.595
65.526
115.406
163.513
184.466
191.917
193.397
191.715
188.603
185.084
181.646
178.579
176.012
42.7009
43.5556
43.6297
43.5936
42.8568
41.2835
38.881
35.5455
31.168
26.0127
19.4622
15.3338
79.5932
86.0296
89.6145
90.4825
89.4813
87.5161
84.6993
80.6719
73.9968
60.568
43.0397
35.3905
98.0354
102.58
104.842
105.369
104.956
103.989
102.679
100.689
96.9185
88.2511
66.1484
50.0485
107.792
111.956
114.555
115.915
116.489
116.748
117.036
117.155
116.126
111.088
92.5163
62.2338
114.206
118.279
121.181
123.167
124.643
126.1
127.967
130.24
131.748
130.088
115.962
73.018
118.639
122.834
126.146
128.804
131.199
133.84
137.207
141.449
145.878
147.487
138.61
83.6731
122.649
126.966
130.631
133.851
136.997
140.596
145.234
151.262
158.204
163.1
159.118
94.2725
127.705
131.913
135.671
139.155
142.708
146.877
152.382
159.871
169.233
177.332
176.662
106.6
135.212
138.839
142.224
145.497
148.958
153.151
158.917
167.294
178.817
190.426
192.176
120.287
146.067
148.464
150.858
153.317
156.098
159.689
164.964
173.344
186.307
201.889
208.394
134.782
159.863
160.405
161.215
162.269
163.831
166.264
170.331
177.478
190.052
209.332
225.842
151.353
173.949
172.411
171.386
170.899
171.079
171.965
174.155
179.178
189.806
211.216
241.883
172.044
3.11851
4.17905
4.55674
4.5099
4.26518
3.83716
4.25169
9.1283
23.8352
31.2915
34.5222
36.9851
6.59662
9.78237
10.1746
9.71216
9.31731
11.2362
20.8293
24.1161
33.889
43.7613
53.2637
62.3206
9.18529
15.0975
18.0098
20.4342
23.2795
23.8547
29.9131
39.1888
51.387
62.4828
72.389
80.7441
12.0929
22.2229
23.7268
23.5455
25.7235
30.4868
41.6071
53.5733
65.1465
75.0476
83.6027
90.7049
13.7503
26.1777
27.3831
26.8373
31.0406
40.635
52.97
64.5879
74.9071
83.5512
90.9771
97.1943
14.8175
29.1759
31.4009
32.1131
39.3095
50.4428
62.2415
72.8111
81.7493
89.3151
95.8746
101.506
15.1993
30.0501
34.1413
38.3482
48.0497
59.4741
70.3519
79.79
87.7033
94.4169
100.282
105.439
15.763
32.0459
38.9654
47.675
59.3955
70.5629
80.356
88.5434
95.3211
101.063
106.105
110.627
16.7345
36.1939
49.3069
63.4779
77.1496
87.8046
96.0029
102.316
107.328
111.527
115.23
118.639
18.9099
45.5372
70.0019
89.6072
104.326
113.602
119.287
122.82
125.218
127.107
128.763
130.408
22.255
62.0332
104.039
128.511
141.479
147.335
149.107
148.877
147.875
146.766
145.863
145.32
61.9306
108.976
154.71
174.132
180.128
180.364
177.643
173.792
169.775
166.051
162.853
160.281
38.4069
39.2581
39.4517
39.441
39.0489
37.6691
35.7006
32.7367
28.919
24.2
18.1697
14.218
70.3817
76.6127
80.3765
81.6082
80.9338
79.4057
77.1137
73.727
67.8664
55.8668
39.9704
33.0442
87.2923
91.7864
94.23
95.0557
94.9417
94.3744
93.5244
92.0922
89.0231
81.4031
61.2068
46.9169
96.2518
100.334
103
104.536
105.364
105.95
106.655
107.285
106.884
102.804
85.9084
58.3147
102.18
106.071
108.921
110.964
112.59
114.279
116.474
119.19
121.19
120.397
107.86
68.4916
106.236
110.143
113.291
115.892
118.322
121.083
124.661
129.226
134.161
136.518
129.219
78.5134
109.95
113.87
117.266
120.329
123.412
127.028
131.762
137.981
145.292
150.905
148.555
88.5143
114.719
118.441
121.853
125.11
128.531
132.642
138.146
145.696
155.265
163.989
165.149
100.06
121.867
124.973
127.991
131.022
134.336
138.443
144.156
152.495
164.056
176.102
179.715
113.219
132.181
134.136
136.249
138.539
141.232
144.779
150.021
158.345
171.299
187.075
195.295
127.343
145.266
145.606
146.319
147.383
149.007
151.517
155.664
163.022
175.722
195.335
213.017
144.005
158.359
157.038
156.26
156.161
156.69
157.907
160.515
165.898
176.854
198.74
231.007
166.015
3.53273
4.69554
5.03758
4.99124
4.62323
4.27887
5.13849
13.848
28.7824
35.551
38.7127
41.3293
7.47891
10.9391
11.2578
10.7865
10.286
14.7646
24.2248
28.0753
40.5654
50.6066
61.4105
71.1853
10.4827
17.3363
20.7458
23.0209
24.8272
26.8242
35.6468
46.4051
60.1704
71.8896
82.5306
91.3127
13.7938
25.1048
26.2679
25.8577
29
36.8515
49.6483
62.5458
74.9264
85.4232
94.539
102.017
15.5646
29.7799
31.1259
30.9445
37.2668
48.6082
61.7967
74.1802
85.0869
94.309
102.281
108.905
16.6435
33.2334
36.3046
37.8439
46.4929
58.5908
71.1604
82.3865
91.9523
100.16
107.337
113.488
16.7935
33.9094
39.2065
44.3793
55.0416
67.2817
78.9504
89.1232
97.7606
105.221
111.809
117.607
17.1053
35.2866
43.5129
53.031
65.6744
77.7832
88.5155
97.5922
105.236
111.837
117.708
122.98
17.9062
38.7693
53.2453
68.3377
83.0277
94.7415
104.004
111.341
117.331
122.459
127.06
131.292
19.8316
47.6462
74.1419
95.0944
110.868
121.209
127.977
132.552
135.915
138.674
141.192
143.646
23.3058
65.3764
109.997
135.901
149.98
156.908
159.745
160.448
160.287
159.882
159.586
159.594
65.5259
115.406
163.513
184.466
191.917
193.397
191.715
188.603
185.084
181.646
178.579
176.012
42.7006
43.5553
43.6295
43.5933
42.8567
41.2834
38.8808
35.5454
31.1679
26.0127
19.4622
15.3338
79.5925
86.029
89.6139
90.482
89.4808
87.5157
84.699
80.6716
73.9966
60.5678
43.0396
35.3904
98.0346
102.579
104.842
105.368
104.955
103.989
102.678
100.689
96.9181
88.2508
66.1482
50.0483
107.791
111.955
114.554
115.914
116.489
116.747
117.036
117.155
116.125
111.088
92.516
62.2337
114.205
118.278
121.18
123.166
124.642
126.099
127.966
130.239
131.747
130.088
115.961
73.0178
118.638
122.833
126.145
128.803
131.198
133.839
137.206
141.448
145.877
147.487
138.61
83.6729
122.648
126.965
130.63
133.85
136.996
140.595
145.233
151.261
158.203
163.099
159.118
94.2723
127.704
131.911
135.67
139.154
142.707
146.876
152.381
159.871
169.232
177.331
176.662
106.599
135.211
138.838
142.223
145.496
148.957
153.15
158.916
167.293
178.816
190.425
192.175
120.287
146.066
148.463
150.857
153.316
156.097
159.688
164.964
173.344
186.307
201.888
208.394
134.781
159.863
160.404
161.214
162.268
163.83
166.263
170.33
177.477
190.051
209.331
225.842
151.352
173.948
172.411
171.385
170.898
171.078
171.964
174.154
179.177
189.806
211.215
241.883
172.043
3.11851
4.17905
4.55674
4.50991
4.26519
3.83716
4.25169
9.1283
23.8352
31.2916
34.5222
36.9851
6.59662
9.78238
10.1746
9.71215
9.3173
11.2361
20.8293
24.1161
33.889
43.7613
53.2637
62.3206
9.18529
15.0975
18.0098
20.4342
23.2795
23.8547
29.9131
39.1888
51.3871
62.4829
72.3891
80.7442
12.0929
22.2229
23.7268
23.5455
25.7236
30.4868
41.6071
53.5733
65.1466
75.0477
83.6028
90.705
13.7503
26.1777
27.3831
26.8373
31.0406
40.635
52.97
64.588
74.9071
83.5513
90.9772
97.1944
14.8176
29.1759
31.4009
32.1131
39.3095
50.4428
62.2415
72.8111
81.7494
89.3152
95.8747
101.506
15.1993
30.0501
34.1414
38.3483
48.0498
59.4741
70.3519
79.79
87.7034
94.4169
100.282
105.439
15.7631
32.046
38.9654
47.675
59.3956
70.563
80.356
88.5435
95.3212
101.064
106.105
110.627
16.7345
36.194
49.307
63.478
77.1497
87.8046
96.003
102.316
107.328
111.527
115.23
118.639
18.91
45.5373
70.002
89.6072
104.326
113.602
119.287
122.821
125.218
127.107
128.763
130.408
22.255
62.0332
104.039
128.511
141.479
147.335
149.107
148.877
147.875
146.766
145.863
145.32
61.9305
108.976
154.71
174.132
180.128
180.364
177.642
173.792
169.775
166.051
162.853
160.281
38.407
39.2581
39.4518
39.441
39.049
37.6691
35.7006
32.7367
28.9191
24.2
18.1697
14.218
70.3818
76.6128
80.3766
81.6083
80.9339
79.4058
77.1138
73.7271
67.8665
55.8669
39.9705
33.0443
87.2924
91.7865
94.2301
95.0558
94.9418
94.3745
93.5245
92.0924
89.0232
81.4032
61.2069
46.917
96.2519
100.334
103
104.536
105.364
105.95
106.655
107.285
106.885
102.804
85.9086
58.3148
102.18
106.072
108.921
110.964
112.59
114.279
116.474
119.19
121.191
120.397
107.86
68.4917
106.236
110.144
113.291
115.892
118.322
121.083
124.661
129.227
134.161
136.518
129.219
78.5135
109.95
113.87
117.267
120.33
123.412
127.028
131.762
137.982
145.292
150.905
148.555
88.5144
114.72
118.441
121.853
125.11
128.531
132.642
138.146
145.696
155.265
163.989
165.149
100.06
121.867
124.973
127.991
131.022
134.336
138.444
144.156
152.495
164.057
176.103
179.715
113.219
132.181
134.136
136.249
138.539
141.232
144.779
150.021
158.345
171.299
187.076
195.296
127.343
145.266
145.606
146.319
147.383
149.007
151.517
155.665
163.022
175.722
195.335
213.017
144.005
158.359
157.038
156.26
156.161
156.69
157.907
160.515
165.898
176.854
198.74
231.007
166.015
205.774
206.721
208.984
211.716
213.016
212.375
209.594
205.663
201.209
196.568
192.109
188.001
207.418
203.927
203.758
205.249
207.306
208.248
207.496
205.891
203.108
199.38
195.362
191.19
194.431
193.046
192.289
192.434
193.483
194.65
194.88
194.264
192.778
190.653
187.77
184.145
178.283
178.267
177.79
177.345
177.152
177.063
176.708
175.88
174.411
172.279
169.628
166.484
184.317
181.136
178.477
176.365
174.903
174.469
175.116
177.76
184.594
201.032
235.614
224.512
187.029
183.12
179.58
176.474
173.83
171.868
171.071
171.622
174.855
184.048
208.189
208.469
180.178
176.23
172.382
168.717
165.339
162.462
160.474
159.839
161.222
165.566
179.772
184.639
162.943
159.207
155.421
151.797
148.576
146.004
144.459
144.334
146.008
148.838
157.418
163.338
201.377
196.914
196.593
197.106
196.598
194.526
190.839
186.574
182.175
177.875
173.953
170.558
199.722
191.836
187.982
186.699
186.408
185.953
184.839
183.235
180.971
178.128
175.296
172.594
181.884
177.859
173.889
171.659
170.71
170.63
170.619
170.438
169.886
168.874
167.593
166.069
162.872
160.971
158.823
156.8
155.424
154.912
154.724
154.585
154.291
153.69
152.746
151.393
167.714
165.382
163.497
162.142
161.427
161.715
162.971
166.453
174.345
192.195
230.184
222.2
170.03
167.596
165.301
163.298
161.701
161.063
161.37
163.27
168.298
179.767
207.966
213.297
164.243
162.115
159.722
157.351
155.238
153.9
153.634
154.683
158.626
165.457
184.008
194.942
149.497
147.163
144.592
142.008
139.778
138.625
138.564
139.981
144.71
150.488
163.976
175.18
205.773
206.721
208.984
211.716
213.016
212.375
209.594
205.663
201.209
196.568
192.109
188
207.417
203.926
203.758
205.248
207.305
208.248
207.495
205.891
203.108
199.38
195.362
191.19
194.43
193.045
192.288
192.434
193.483
194.65
194.879
194.264
192.778
190.653
187.77
184.145
178.283
178.266
177.79
177.344
177.152
177.063
176.708
175.88
174.411
172.279
169.628
166.484
184.316
181.135
178.477
176.365
174.902
174.468
175.115
177.759
184.593
201.032
235.613
224.512
187.029
183.12
179.58
176.474
173.829
171.868
171.07
171.621
174.854
184.047
208.188
208.468
180.178
176.23
172.382
168.717
165.339
162.462
160.474
159.838
161.221
165.566
179.772
184.638
162.943
159.207
155.421
151.797
148.576
146.004
144.459
144.334
146.008
148.837
157.417
163.337
201.377
196.913
196.593
197.106
196.598
194.526
190.839
186.574
182.175
177.875
173.953
170.558
199.721
191.836
187.982
186.698
186.407
185.953
184.839
183.235
180.971
178.128
175.296
172.594
181.884
177.858
173.888
171.658
170.71
170.63
170.618
170.438
169.886
168.874
167.593
166.069
162.872
160.97
158.823
156.8
155.424
154.911
154.724
154.585
154.291
153.69
152.746
151.393
167.714
165.382
163.497
162.142
161.428
161.715
162.971
166.454
174.345
192.195
230.184
222.2
170.03
167.596
165.301
163.298
161.701
161.063
161.37
163.27
168.298
179.767
207.966
213.298
164.243
162.115
159.722
157.351
155.238
153.9
153.634
154.684
158.626
165.458
184.009
194.942
149.497
147.163
144.592
142.008
139.778
138.625
138.564
139.981
144.711
150.488
163.976
175.18
158.579
157.552
156.303
155.111
154.082
153.005
151.584
149.65
147.03
143.771
140.107
136.388
134.94
133.551
131.932
130.334
128.798
127.126
125.078
122.498
119.24
115.393
111.315
107.691
112.924
111.575
109.878
108.116
106.312
104.306
101.9
98.9456
95.3221
91.1109
86.7154
83.1358
94.0305
92.8742
91.256
89.4769
87.5676
85.4029
82.8192
79.6696
75.817
71.2139
65.9354
60.8055
133.219
130.76
128.729
127.54
127.305
127.902
129.632
132.296
135.976
140.274
145.186
147.226
105.64
105.452
106.107
107.764
110.311
113.466
117.196
121.248
125.483
129.166
131.739
131.648
82.4062
85.0005
88.2565
92.0839
96.4117
101.006
105.703
110.209
113.995
116.538
117.64
115.955
61.0902
68.3663
73.9427
79.1812
84.4332
89.6208
94.5789
98.845
101.879
103.561
103.531
100.818
144.929
142.17
139.738
137.666
136.178
135.152
134.16
132.957
131.44
129.673
127.759
125.514
127.886
124.128
120.819
117.883
115.36
113.058
110.668
108.028
105.135
102.213
99.5704
97.1825
111.45
106.929
102.775
98.9499
95.4345
92.0604
88.6104
84.9841
81.2218
77.5258
74.3512
72.1202
95.9983
91.0474
86.349
81.9394
77.7987
73.8017
69.7887
65.6654
61.4112
57.0601
52.8427
49.4435
122.579
119.203
116.305
114.323
113.715
115.005
118.404
124.011
132.192
141.338
152.019
157.884
94.4282
91.1088
88.6274
87.5074
88.1708
91.0131
96.1691
103.541
112.785
122.475
130.754
134.838
70.4035
68.0418
66.5406
66.3758
67.9532
71.5901
77.3635
85.0627
94.0696
103.009
109.609
112.833
49.5353
49.8715
49.8688
50.6245
52.7627
56.6438
62.3463
69.6313
77.8321
85.6348
91.0963
93.8181
158.579
157.551
156.302
155.111
154.082
153.005
151.584
149.65
147.03
143.771
140.107
136.388
134.94
133.55
131.931
130.334
128.798
127.125
125.078
122.497
119.24
115.393
111.315
107.691
112.923
111.574
109.878
108.116
106.312
104.305
101.899
98.9455
95.322
91.1108
86.7153
83.1358
94.03
92.8737
91.2555
89.4765
87.5673
85.4027
82.819
79.6694
75.8169
71.2137
65.9353
60.8054
133.219
130.76
128.729
127.54
127.305
127.901
129.631
132.296
135.976
140.274
145.186
147.225
105.64
105.451
106.107
107.764
110.311
113.466
117.196
121.247
125.483
129.166
131.739
131.648
82.4061
85.0004
88.2563
92.0837
96.4115
101.005
105.702
110.209
113.994
116.537
117.64
115.955
61.0902
68.3662
73.9425
79.181
84.433
89.6206
94.5787
98.8448
101.879
103.56
103.53
100.818
144.929
142.17
139.737
137.666
136.178
135.152
134.16
132.957
131.44
129.673
127.759
125.515
127.886
124.128
120.819
117.883
115.36
113.058
110.668
108.028
105.135
102.213
99.5706
97.1828
111.45
106.929
102.775
98.95
95.4346
92.0606
88.6106
84.9844
81.2221
77.526
74.3515
72.1205
95.9982
91.0474
86.3491
81.9396
77.799
73.802
69.789
65.6658
61.4116
57.0605
52.843
49.4438
122.579
119.203
116.305
114.323
113.715
115.006
118.404
124.011
132.193
141.339
152.02
157.885
94.4285
91.1093
88.6281
87.5081
88.1716
91.0138
96.1697
103.542
112.786
122.476
130.755
134.839
70.4039
68.0425
66.5415
66.3767
67.9542
71.591
77.3643
85.0634
94.0702
103.01
109.609
112.834
49.5358
49.8724
49.87
50.6258
52.7639
56.6448
62.3473
69.6321
77.8328
85.6354
91.0969
93.8187
78.3087
77.376
75.9047
74.1924
72.282
70.078
67.44
64.2176
60.2213
55.1183
47.7434
32.2861
65.3607
64.6337
63.3303
61.7289
59.8816
57.7161
55.1102
51.9121
47.8883
42.5138
34.1038
14.5409
54.7131
54.1567
53.018
51.5471
49.8006
47.7241
45.2121
42.1199
38.2097
32.9645
25.0577
9.0815
45.9341
45.5109
44.5223
43.1871
41.5622
39.607
37.2323
34.3099
30.6322
25.7938
18.9596
6.7619
38.6596
38.3361
37.4792
36.2774
34.7843
32.9702
30.7618
28.0538
24.6842
20.3789
14.674
5.29323
32.5886
32.3377
31.5944
30.5198
29.1625
27.501
25.4772
23.0098
19.9847
16.2384
11.5362
4.19653
27.4688
27.2698
26.6246
25.67
24.4492
22.9467
21.1177
18.9032
16.2304
13.0157
9.14995
3.32944
23.0775
22.916
22.3565
21.5161
20.4316
19.092
17.4636
15.5057
13.1774
10.446
7.26623
2.61564
19.1944
19.061
18.5796
17.8505
16.9044
15.7327
14.3108
12.6121
10.6167
8.3224
5.71466
2.00061
15.5417
15.4323
15.0276
14.4143
13.6158
12.6252
11.4246
9.99787
8.33551
6.45501
4.35813
1.4392
11.5526
11.4671
11.1515
10.6798
10.065
9.3
8.37353
7.27716
5.99317
4.56676
3.0187
0.903492
5.07904
5.01676
4.8486
4.6173
4.32447
3.97576
3.57006
3.08562
2.52087
1.88719
1.19885
0.271681
34.7286
54.2665
62.1539
68.2488
73.8519
79.107
83.8723
87.5798
89.9531
90.9283
90.0339
86.8152
19.9618
43.1822
52.3611
58.8431
64.4398
69.471
73.7723
76.8694
78.6802
79.073
77.6266
74.2623
14.6315
35.0855
44.2569
50.7056
56.0682
60.7109
64.4613
66.9932
68.3164
68.2586
66.5336
63.2642
11.7269
28.9708
37.5113
43.6456
48.6377
52.8131
56.0186
58.0718
58.9811
58.6003
56.8041
53.7816
9.67132
24.1448
31.8329
37.4999
42.0525
45.7401
48.4557
50.107
50.6812
50.103
48.3746
45.687
8.03499
20.1808
26.9859
32.122
36.2118
39.4317
41.7258
43.0402
43.3565
42.6865
41.1199
38.7967
6.64303
16.8144
22.7845
27.3793
31.0121
33.8075
35.7375
36.7737
36.9089
36.2283
34.8606
32.895
5.40941
13.8666
19.0782
23.1464
26.3407
28.7517
30.3683
31.1824
31.1991
30.5571
29.3902
27.7582
4.30818
11.1901
15.728
19.2854
22.0547
24.1096
25.4509
26.0845
26.0299
25.4507
24.4675
23.1405
3.26469
8.67398
12.5621
15.591
17.9205
19.6216
20.7032
21.1798
21.0834
20.5766
19.7588
18.7136
2.23751
6.11662
9.2025
11.5739
13.3673
14.6543
15.4447
15.7626
15.6398
15.2189
14.5835
13.799
0.800372
2.41599
3.93307
5.05743
5.90285
6.51318
6.88629
7.04024
6.97467
6.77914
6.49385
6.14268
81.9792
76.9249
72.0345
67.4033
63.0296
58.821
54.6489
50.3937
45.9218
40.9509
34.5662
22.7008
69.6349
64.7488
59.9679
55.42
51.1202
46.9995
42.9433
38.8064
34.3727
29.1608
21.7427
7.89446
58.9998
54.4741
50.0158
45.7615
41.7371
37.8901
34.1159
30.261
26.0904
21.1409
14.4249
4.19849
49.9675
45.9117
41.8975
38.0551
34.4149
30.9369
27.5294
24.0478
20.2835
15.8834
10.4071
3.02679
42.3517
38.8058
35.2827
31.8971
28.6807
25.6042
22.5914
19.5168
16.2161
12.44
8.11781
2.50566
35.9309
32.886
29.849
26.9165
24.1196
21.4384
18.8131
16.1404
13.2997
10.1115
6.6913
2.14915
30.4743
27.8932
25.308
22.7985
20.3941
18.083
15.8207
13.5243
11.1098
8.43189
5.68893
1.88431
25.7505
23.5852
21.4072
19.2818
17.2364
15.2653
13.3371
11.3855
9.3558
7.11167
4.88907
1.6264
21.5135
19.7225
17.9107
16.1356
14.421
12.7656
11.148
9.51432
7.83452
5.96574
4.16702
1.36337
17.4369
16.0117
14.5415
13.1017
11.7074
10.3596
9.04429
7.71612
6.36771
4.84116
3.41421
1.07231
12.8689
11.8545
10.7865
9.71944
8.683
7.68103
6.70533
5.71395
4.73282
3.56949
2.54263
0.749933
5.73013
5.28103
4.81003
4.342
3.8887
3.44773
3.01887
2.58526
2.15488
1.63964
1.19663
0.460619
26.3983
35.4146
37.4561
39.0399
41.4646
45.2554
50.5354
57.088
64.2905
70.9764
75.5973
77.9736
12.9032
25.0401
28.4123
30.5199
33.0226
36.5472
41.2622
46.9938
53.1974
58.8882
62.8374
64.9382
8.02615
18.2539
21.9054
24.2106
26.6446
29.8271
33.9509
38.8856
44.172
49.0013
52.3856
54.2434
5.62854
13.7265
17.185
19.473
21.7522
24.5761
28.141
32.3527
36.8315
40.9217
43.8185
45.4519
4.17285
10.5778
13.6856
15.8447
17.9286
20.4087
23.4723
27.052
30.8363
34.2946
36.7662
38.1912
3.20388
8.28188
11.0201
12.9982
14.8728
17.0372
19.6635
22.7029
25.8983
28.8174
30.9181
32.1515
2.49242
6.54219
8.92753
10.7028
12.3656
14.2431
16.4916
19.0742
21.7749
24.234
26.012
27.0726
1.93313
5.17717
7.2315
8.79236
10.2417
11.8542
13.773
15.9695
18.2555
20.3202
21.8179
22.7263
1.46852
4.06504
5.80502
7.13874
8.36561
9.72153
11.3422
13.2062
15.1407
16.8604
18.1121
18.8885
1.0569
3.11079
4.53595
5.61565
6.59431
7.67993
9.00661
10.5662
12.1882
13.5933
14.6218
15.2811
0.668092
2.18974
3.25524
4.01571
4.6785
5.42786
6.40585
7.64442
8.92484
10.0063
10.8237
11.3484
0.200689
0.897121
1.36592
1.67873
1.94435
2.27733
2.7442
3.34283
3.92055
4.39862
4.77088
5.00337
78.3081
77.3755
75.9042
74.192
72.2816
70.0777
67.4397
64.2174
60.2212
55.1182
47.7433
32.286
65.3601
64.6331
63.3298
61.7284
59.8812
57.7158
55.1099
51.9119
47.8881
42.5136
34.1037
14.5408
54.7125
54.1561
53.0175
51.5466
49.8001
47.7238
45.2118
42.1196
38.2094
32.9643
25.0575
9.08137
45.9334
45.5102
44.5217
43.1866
41.5618
39.6066
37.2319
34.3095
30.6318
25.7934
18.9592
6.76172
38.6588
38.3354
37.4785
36.2768
34.7838
32.9697
30.7614
28.0534
24.6838
20.3784
14.6736
5.29301
32.5878
32.3369
31.5937
30.5191
29.1619
27.5004
25.4767
23.0093
19.9841
16.2379
11.5357
4.19625
27.468
27.2691
26.6239
25.6694
24.4486
22.9461
21.1171
18.9026
16.2299
13.0152
9.14941
3.32913
23.0767
22.9152
22.3558
21.5154
20.431
19.0914
17.463
15.5051
13.1768
10.4454
7.26565
2.61529
19.1936
19.0603
18.5789
17.8499
16.9037
15.7321
14.3102
12.6115
10.6161
8.32177
5.71408
2.00024
15.541
15.4316
15.027
14.4137
13.6152
12.6247
11.4241
9.99733
8.33495
6.45444
4.3576
1.43883
11.552
11.4666
11.151
10.6793
10.0645
9.29957
8.37309
7.27672
5.99273
4.56631
3.01828
0.903131
5.07879
5.01653
4.84838
4.61709
4.32427
3.97556
3.56988
3.08543
2.52068
1.88699
1.19867
0.271473
34.7285
54.2664
62.1537
68.2486
73.8517
79.1068
83.8721
87.5795
89.9529
90.9281
90.0337
86.8151
19.9618
43.182
52.3609
58.8429
64.4395
69.4708
73.7721
76.8692
78.68
79.0728
77.6265
74.2622
14.6315
35.0853
44.2568
50.7054
56.068
60.7107
64.4611
66.993
68.3162
68.2584
66.5335
63.2641
11.7268
28.9706
37.5111
43.6454
48.6374
52.8129
56.0184
58.0716
58.9809
58.6001
56.8039
53.7815
9.67124
24.1446
31.8327
37.4997
42.0523
45.7398
48.4554
50.1068
50.681
50.1028
48.3744
45.6869
8.03491
20.1806
26.9857
32.1217
36.2115
39.4315
41.7256
43.04
43.3563
42.6863
41.1198
38.7967
6.64294
16.8143
22.7843
27.3791
31.0118
33.8072
35.7372
36.7735
36.9087
36.2281
34.8605
32.8949
5.40932
13.8664
19.078
23.1462
26.3405
28.7514
30.368
31.1821
31.1989
30.5569
29.3901
27.7581
4.3081
11.1899
15.7278
19.2852
22.0544
24.1093
25.4507
26.0843
26.0297
25.4505
24.4673
23.1404
3.26461
8.67382
12.5619
15.5908
17.9203
19.6214
20.703
21.1796
21.0832
20.5765
19.7587
18.7135
2.23744
6.1165
9.20234
11.5738
13.3671
14.6541
15.4445
15.7624
15.6397
15.2188
14.5833
13.7989
0.800342
2.41593
3.933
5.05735
5.90277
6.5131
6.88621
7.04016
6.9746
6.77908
6.4938
6.14264
81.9792
76.9249
72.0346
67.4035
63.0299
58.8214
54.6494
50.3942
45.9223
40.9515
34.5666
22.7011
69.6349
64.7488
59.9681
55.4203
51.1205
47
42.9439
38.807
34.3734
29.1616
21.7435
7.895
58.9998
54.4742
50.0159
45.7618
41.7375
37.8905
34.1165
30.2617
26.0912
21.1418
14.4259
4.1992
49.9675
45.9118
41.8977
38.0554
34.4153
30.9374
27.5301
24.0486
20.2844
15.8845
10.4082
3.02756
42.3517
38.8059
35.2829
31.8974
28.6811
25.6047
22.5921
19.5176
16.2171
12.4412
8.11899
2.50643
35.9309
32.886
29.8491
26.9167
24.12
21.4389
18.8137
16.1412
13.3008
10.1127
6.69251
2.14991
30.4743
27.8932
25.3082
22.7988
20.3944
18.0835
15.8213
13.5251
11.1109
8.43309
5.69012
1.88505
25.7504
23.5853
21.4073
19.282
17.2367
15.2658
13.3377
11.3863
9.35678
7.11282
4.8902
1.6271
21.5134
19.7225
17.9108
16.1358
14.4213
12.766
11.1485
9.51503
7.83542
5.96679
4.16805
1.36401
17.4368
16.0117
14.5416
13.1018
11.7077
10.3599
9.04476
7.71674
6.36847
4.84206
3.41509
1.07288
12.8689
11.8545
10.7865
9.71955
8.68318
7.68128
6.70568
5.71443
4.7334
3.57018
2.54328
0.750388
5.73011
5.28103
4.81005
4.34205
3.88878
3.44784
3.01902
2.58546
2.15514
1.63996
1.19692
0.460864
26.3987
35.4157
37.4575
39.0414
41.466
45.2567
50.5364
57.0889
64.2913
70.9771
75.5979
77.9743
12.9037
25.0413
28.4139
30.5216
33.0243
36.5487
41.2634
46.9948
53.1982
58.8889
62.8381
64.9389
8.02679
18.2554
21.9072
24.2125
26.6464
29.8287
33.9523
38.8867
44.1729
49.0021
52.3864
54.2441
5.62929
13.7281
17.187
19.4751
21.7542
24.5778
28.1424
32.3539
36.8325
40.9226
43.8193
45.4527
4.1737
10.5796
13.6878
15.8469
17.9306
20.4105
23.4738
27.0533
30.8373
34.2955
36.7671
38.192
3.20482
8.2838
11.0223
13.0005
14.8749
17.039
19.665
22.7042
25.8994
28.8184
30.919
32.1523
2.49343
6.54418
8.92985
10.7051
12.3677
14.2449
16.4931
19.0755
21.776
24.235
26.0129
27.0735
1.9342
5.17918
7.2338
8.79463
10.2437
11.8559
13.7745
15.9707
18.2566
20.3211
21.8188
22.7271
1.46962
4.06698
5.80721
7.14087
8.36752
9.72315
11.3435
13.2073
15.1417
16.8612
18.1129
18.8893
1.05796
3.11254
4.53791
5.61753
6.59597
7.68132
9.00776
10.5672
12.1891
13.5941
14.6225
15.2819
0.66904
2.19115
3.2568
4.01717
4.67977
5.42891
6.40672
7.64516
8.92549
10.0069
10.8242
11.349
0.201158
0.897751
1.3666
1.67937
1.94491
2.2778
2.74458
3.34315
3.92083
4.39889
4.77114
5.00362
)
;

boundaryField
{
    rotor
    {
        type            kqRWallFunction;
        value           nonuniform List<scalar> 
192
(
3.53281
4.69564
5.03767
4.99133
4.62331
4.27895
5.13864
13.8485
28.7827
35.5513
38.7129
41.3295
42.7009
43.5556
43.6297
43.5936
42.8568
41.2835
38.881
35.5455
31.168
26.0127
19.4622
15.3338
3.11851
4.17905
4.55674
4.5099
4.26518
3.83716
4.25169
9.1283
23.8352
31.2915
34.5222
36.9851
38.4069
39.2581
39.4517
39.441
39.0489
37.6691
35.7006
32.7367
28.919
24.2
18.1697
14.218
3.53273
4.69554
5.03758
4.99124
4.62323
4.27887
5.13849
13.848
28.7824
35.551
38.7127
41.3293
42.7006
43.5553
43.6295
43.5933
42.8567
41.2834
38.8808
35.5454
31.1679
26.0127
19.4622
15.3338
3.11851
4.17905
4.55674
4.50991
4.26519
3.83716
4.25169
9.1283
23.8352
31.2916
34.5222
36.9851
38.407
39.2581
39.4518
39.441
39.049
37.6691
35.7006
32.7367
28.9191
24.2
18.1697
14.218
3.53281
7.47903
10.4829
13.794
15.5649
16.6439
16.7939
17.1056
17.9064
19.8317
23.3058
65.526
14.218
33.0443
46.917
58.3148
68.4917
78.5135
88.5144
100.06
113.219
127.343
144.005
166.015
3.11851
6.59662
9.18529
12.0929
13.7503
14.8175
15.1993
15.763
16.7345
18.9099
22.255
61.9306
15.3338
35.3905
50.0485
62.2338
73.018
83.6731
94.2725
106.6
120.287
134.782
151.353
172.044
3.53273
7.47891
10.4827
13.7938
15.5646
16.6435
16.7935
17.1053
17.9062
19.8316
23.3058
65.5259
14.218
33.0442
46.9169
58.3147
68.4916
78.5134
88.5143
100.06
113.219
127.343
144.005
166.015
3.11851
6.59662
9.18529
12.0929
13.7503
14.8176
15.1993
15.7631
16.7345
18.91
22.255
61.9305
15.3338
35.3904
50.0483
62.2337
73.0178
83.6729
94.2723
106.599
120.287
134.781
151.352
172.043
)
;
    }
    stator
    {
        type            kqRWallFunction;
        value           nonuniform List<scalar> 
192
(
5.07904
5.01676
4.8486
4.6173
4.32447
3.97576
3.57006
3.08562
2.52087
1.88719
1.19885
0.271681
0.800372
2.41599
3.93307
5.05743
5.90285
6.51318
6.88629
7.04024
6.97467
6.77914
6.49385
6.14268
5.73013
5.28103
4.81003
4.342
3.8887
3.44773
3.01887
2.58526
2.15488
1.63964
1.19663
0.460619
0.200689
0.897121
1.36592
1.67873
1.94435
2.27733
2.7442
3.34283
3.92055
4.39862
4.77088
5.00337
5.07879
5.01653
4.84838
4.61709
4.32427
3.97556
3.56988
3.08543
2.52068
1.88699
1.19867
0.271473
0.800342
2.41593
3.933
5.05735
5.90277
6.5131
6.88621
7.04016
6.9746
6.77908
6.4938
6.14264
5.73011
5.28103
4.81005
4.34205
3.88878
3.44784
3.01902
2.58546
2.15514
1.63996
1.19692
0.460864
0.201158
0.897751
1.3666
1.67937
1.94491
2.2778
2.74458
3.34315
3.92083
4.39889
4.77114
5.00362
34.7286
19.9618
14.6315
11.7269
9.67132
8.03499
6.64303
5.40941
4.30818
3.26469
2.23751
0.800372
32.2861
14.5409
9.0815
6.7619
5.29323
4.19653
3.32944
2.61564
2.00061
1.4392
0.903492
0.271681
26.3983
12.9032
8.02615
5.62854
4.17285
3.20388
2.49242
1.93313
1.46852
1.0569
0.668092
0.200689
22.7008
7.89446
4.19849
3.02679
2.50566
2.14915
1.88431
1.6264
1.36337
1.07231
0.749933
0.460619
34.7285
19.9618
14.6315
11.7268
9.67124
8.03491
6.64294
5.40932
4.3081
3.26461
2.23744
0.800342
32.286
14.5408
9.08137
6.76172
5.29301
4.19625
3.32913
2.61529
2.00024
1.43883
0.903131
0.271473
26.3987
12.9037
8.02679
5.62929
4.1737
3.20482
2.49343
1.9342
1.46962
1.05796
0.66904
0.201158
22.7011
7.895
4.1992
3.02756
2.50643
2.14991
1.88505
1.6271
1.36401
1.07288
0.750388
0.460864
)
;
    }
    front
    {
        type            empty;
    }
    back
    {
        type            empty;
    }
}


// ************************************************************************* //
