/*--------------------------------*- C++ -*----------------------------------*\
| =========                 |                                                 |
| \\      /  F ield         | OpenFOAM: The Open Source CFD Toolbox           |
|  \\    /   O peration     | Version:  2212                                  |
|   \\  /    A nd           | Website:  www.openfoam.com                      |
|    \\/     M anipulation  |                                                 |
\*---------------------------------------------------------------------------*/
FoamFile
{
    version     2.0;
    format      ascii;
    arch        "LSB;label=32;scalar=64";
    class       volScalarField;
    location    "0.07";
    object      nut;
}
// * * * * * * * * * * * * * * * * * * * * * * * * * * * * * * * * * * * * * //

dimensions      [0 2 -1 0 0 0 0];

internalField   nonuniform List<scalar> 
3072
(
0.000239055
0.000515045
0.000553879
0.000553493
0.000549426
0.000526836
0.000513702
0.00057872
0.00100454
0.00136441
0.00148592
0.00154106
0.000386359
0.00111714
0.00158557
0.00177719
0.0015228
0.000885701
0.000793963
0.00140836
0.00172278
0.0027614
0.00377355
0.00526303
0.000496016
0.00184141
0.00248479
0.00259335
0.00224401
0.00207469
0.00206006
0.00292787
0.0044572
0.0065419
0.00874323
0.010872
0.000627104
0.00289527
0.00315582
0.00274419
0.00260241
0.00262204
0.00349133
0.00565867
0.00801162
0.0106689
0.0131851
0.015411
0.000740657
0.00343512
0.00346994
0.003141
0.00313774
0.00384849
0.00584937
0.00864364
0.0113436
0.0140749
0.0165917
0.0188114
0.000847942
0.0038862
0.00394025
0.00372465
0.00415596
0.00586629
0.00856285
0.0112941
0.0139624
0.0165854
0.019
0.0211584
0.000941875
0.00439898
0.00478002
0.00486102
0.00598707
0.00839415
0.0109601
0.0134864
0.0159699
0.0183372
0.0205758
0.0226311
0.00105637
0.00554597
0.00659418
0.0074889
0.00933618
0.0114347
0.0135613
0.0157057
0.0178613
0.0199155
0.0218512
0.0236384
0.00119303
0.00751288
0.00987431
0.0118444
0.0136018
0.0151975
0.0167424
0.018289
0.0198655
0.0214054
0.0228948
0.024318
0.00138281
0.00903688
0.0125419
0.0149516
0.0166957
0.0180321
0.0191813
0.0202569
0.0213022
0.0223439
0.0234056
0.0245
0.00156279
0.00842697
0.0135213
0.0164547
0.0183884
0.019581
0.0206649
0.0214389
0.0221441
0.0228491
0.0235933
0.0244052
0.00260863
0.00793625
0.0142296
0.0176383
0.0193133
0.0207953
0.0217313
0.0223991
0.0229337
0.0234377
0.023971
0.0245766
0.00158386
0.00160474
0.00161689
0.00161874
0.0016194
0.00159409
0.00155579
0.00149075
0.00140165
0.00128029
0.00110083
0.000523918
0.00673579
0.00808857
0.00903449
0.00943903
0.0092582
0.00876997
0.00792902
0.0067733
0.00524121
0.0032041
0.001567
0.000909786
0.012705
0.0141045
0.0149805
0.0153199
0.0151325
0.0144624
0.0132636
0.0115208
0.0091996
0.00630353
0.00280944
0.00121231
0.0172957
0.0187727
0.0197989
0.0203439
0.0203672
0.019816
0.0186108
0.0166454
0.0137478
0.00992904
0.00495026
0.00148061
0.0207218
0.0222897
0.0234853
0.0242732
0.0245932
0.0243377
0.0233558
0.0214353
0.0182076
0.0135555
0.00729388
0.00174738
0.0230572
0.0246796
0.0260049
0.0270005
0.0276082
0.0277347
0.0271999
0.0256783
0.0226757
0.017502
0.0101227
0.00202053
0.0244704
0.0260887
0.0274805
0.0286291
0.0295109
0.0300668
0.0301032
0.0292069
0.026681
0.0215063
0.0131294
0.00230677
0.0252738
0.0267681
0.0281173
0.0293228
0.0304096
0.0313612
0.0320325
0.0319908
0.0302925
0.0253683
0.016059
0.00262234
0.0256434
0.026876
0.0280917
0.0292919
0.0304863
0.0317184
0.0329242
0.033771
0.0332154
0.0290108
0.0187536
0.00297209
0.0255742
0.0265857
0.027617
0.0287924
0.0300902
0.0314983
0.033034
0.0345889
0.0352543
0.0324342
0.021894
0.00334438
0.0253581
0.0264417
0.0273445
0.0282903
0.0295909
0.0311076
0.0327615
0.0346364
0.0362217
0.0353147
0.0256639
0.00375652
0.0253501
0.0264949
0.0275339
0.0283653
0.029433
0.0308886
0.0324503
0.0342983
0.0362171
0.0369681
0.0296479
0.00423583
0.000239056
0.000515047
0.00055388
0.000553494
0.000549427
0.000526837
0.000513703
0.000578722
0.00100454
0.00136442
0.00148592
0.00154106
0.00038636
0.00111714
0.00158557
0.00177718
0.00152279
0.000885696
0.000793967
0.00140837
0.00172279
0.00276141
0.00377357
0.00526305
0.000496018
0.00184141
0.00248479
0.00259334
0.002244
0.00207469
0.00206006
0.00292789
0.00445723
0.00654194
0.00874327
0.010872
0.000627106
0.00289528
0.00315582
0.00274418
0.00260242
0.00262205
0.00349137
0.00565871
0.00801168
0.0106689
0.0131852
0.0154111
0.00074066
0.00343513
0.00346994
0.003141
0.00313775
0.00384852
0.00584944
0.00864371
0.0113437
0.014075
0.0165918
0.0188115
0.000847944
0.00388621
0.00394026
0.00372467
0.00415599
0.00586637
0.00856294
0.0112942
0.0139625
0.0165855
0.0190001
0.0211585
0.000941878
0.004399
0.00478005
0.00486107
0.00598716
0.00839426
0.0109602
0.0134865
0.01597
0.0183373
0.0205759
0.0226312
0.00105637
0.005546
0.00659424
0.00748899
0.0093363
0.0114348
0.0135614
0.0157058
0.0178614
0.0199156
0.0218513
0.0236385
0.00119303
0.0075129
0.00987436
0.0118445
0.0136018
0.0151976
0.0167425
0.0182891
0.0198656
0.0214055
0.0228949
0.0243181
0.00138281
0.00903689
0.0125419
0.0149516
0.0166957
0.0180322
0.0191814
0.020257
0.0213023
0.022344
0.0234057
0.0245001
0.00156279
0.00842698
0.0135213
0.0164547
0.0183884
0.0195811
0.0206649
0.021439
0.0221441
0.0228491
0.0235934
0.0244053
0.00260863
0.00793626
0.0142296
0.0176383
0.0193133
0.0207954
0.0217313
0.0223991
0.0229338
0.0234377
0.023971
0.0245767
0.00158386
0.00160474
0.00161689
0.00161874
0.00161941
0.00159409
0.0015558
0.00149075
0.00140165
0.00128029
0.00110083
0.000523919
0.00673582
0.0080886
0.00903452
0.00943906
0.00925823
0.00877
0.00792904
0.00677332
0.00524122
0.00320411
0.001567
0.000909786
0.0127051
0.0141046
0.0149806
0.01532
0.0151326
0.0144624
0.0132637
0.0115208
0.00919962
0.00630354
0.00280944
0.00121231
0.0172958
0.0187728
0.019799
0.0203439
0.0203672
0.019816
0.0186108
0.0166455
0.0137478
0.00992906
0.00495027
0.00148061
0.0207219
0.0222898
0.0234854
0.0242733
0.0245933
0.0243377
0.0233558
0.0214353
0.0182077
0.0135555
0.00729389
0.00174738
0.0230573
0.0246797
0.026005
0.0270006
0.0276083
0.0277348
0.0272
0.0256784
0.0226758
0.017502
0.0101227
0.00202054
0.0244705
0.0260888
0.0274806
0.0286292
0.029511
0.0300669
0.0301033
0.029207
0.026681
0.0215063
0.0131295
0.00230678
0.0252739
0.0267682
0.0281174
0.0293229
0.0304097
0.0313613
0.0320326
0.0319909
0.0302925
0.0253684
0.016059
0.00262234
0.0256435
0.0268761
0.0280918
0.029292
0.0304864
0.0317185
0.0329243
0.033771
0.0332154
0.0290109
0.0187536
0.00297209
0.0255743
0.0265858
0.0276171
0.0287925
0.0300903
0.0314984
0.0330341
0.034589
0.0352544
0.0324342
0.021894
0.00334438
0.0253581
0.0264418
0.0273446
0.0282904
0.0295909
0.0311077
0.0327616
0.0346365
0.0362218
0.0353148
0.0256639
0.00375652
0.0253501
0.026495
0.027534
0.0283653
0.029433
0.0308887
0.0324503
0.0342984
0.0362172
0.0369682
0.0296479
0.00423583
0.000239057
0.000515048
0.000553882
0.000553496
0.000549429
0.000526839
0.000513705
0.000578723
0.00100454
0.00136442
0.00148592
0.00154106
0.000386361
0.00111715
0.00158559
0.0017772
0.0015228
0.000885702
0.000793968
0.00140837
0.00172279
0.00276141
0.00377357
0.00526305
0.000496019
0.00184142
0.00248481
0.00259336
0.00224401
0.00207469
0.00206006
0.0029279
0.00445723
0.00654194
0.00874328
0.010872
0.000627108
0.00289529
0.00315584
0.0027442
0.00260243
0.00262205
0.00349137
0.00565872
0.00801169
0.0106689
0.0131852
0.0154111
0.000740661
0.00343514
0.00346996
0.00314102
0.00313776
0.00384852
0.00584944
0.00864372
0.0113437
0.014075
0.0165918
0.0188115
0.000847946
0.00388622
0.00394028
0.00372469
0.004156
0.00586637
0.00856294
0.0112942
0.0139625
0.0165855
0.0190001
0.0211585
0.000941879
0.00439901
0.00478007
0.00486108
0.00598716
0.00839426
0.0109602
0.0134865
0.01597
0.0183373
0.0205759
0.0226312
0.00105637
0.00554601
0.00659425
0.00748901
0.00933631
0.0114349
0.0135614
0.0157058
0.0178615
0.0199156
0.0218513
0.0236385
0.00119303
0.00751291
0.00987439
0.0118445
0.0136019
0.0151976
0.0167425
0.0182891
0.0198656
0.0214055
0.0228949
0.0243181
0.00138281
0.0090369
0.0125419
0.0149517
0.0166958
0.0180322
0.0191814
0.020257
0.0213023
0.022344
0.0234057
0.0245001
0.00156279
0.00842698
0.0135214
0.0164547
0.0183884
0.0195811
0.0206649
0.021439
0.0221441
0.0228492
0.0235934
0.0244053
0.00260863
0.00793627
0.0142297
0.0176383
0.0193133
0.0207954
0.0217313
0.0223991
0.0229338
0.0234378
0.023971
0.0245767
0.00158386
0.00160474
0.00161689
0.00161874
0.0016194
0.00159409
0.0015558
0.00149075
0.00140165
0.00128029
0.00110083
0.000523918
0.00673582
0.0080886
0.00903452
0.00943905
0.00925823
0.00877
0.00792904
0.00677332
0.00524121
0.00320411
0.001567
0.000909785
0.0127051
0.0141046
0.0149806
0.01532
0.0151325
0.0144624
0.0132636
0.0115208
0.00919961
0.00630353
0.00280944
0.00121231
0.0172958
0.0187728
0.019799
0.0203439
0.0203672
0.019816
0.0186108
0.0166455
0.0137478
0.00992905
0.00495026
0.00148061
0.0207219
0.0222898
0.0234854
0.0242733
0.0245932
0.0243377
0.0233558
0.0214353
0.0182077
0.0135555
0.00729388
0.00174738
0.0230573
0.0246797
0.026005
0.0270005
0.0276083
0.0277348
0.0272
0.0256784
0.0226758
0.017502
0.0101227
0.00202054
0.0244705
0.0260888
0.0274805
0.0286292
0.029511
0.0300669
0.0301033
0.029207
0.026681
0.0215063
0.0131294
0.00230677
0.0252739
0.0267682
0.0281174
0.0293229
0.0304097
0.0313613
0.0320325
0.0319909
0.0302925
0.0253684
0.016059
0.00262234
0.0256435
0.0268761
0.0280918
0.029292
0.0304864
0.0317184
0.0329243
0.033771
0.0332154
0.0290108
0.0187536
0.00297209
0.0255743
0.0265858
0.0276171
0.0287925
0.0300903
0.0314984
0.0330341
0.0345889
0.0352544
0.0324342
0.021894
0.00334438
0.0253581
0.0264418
0.0273446
0.0282904
0.0295909
0.0311077
0.0327616
0.0346364
0.0362217
0.0353147
0.0256639
0.00375652
0.0253502
0.026495
0.027534
0.0283653
0.029433
0.0308886
0.0324503
0.0342984
0.0362172
0.0369681
0.0296479
0.00423583
0.000239056
0.000515046
0.000553879
0.000553493
0.000549426
0.000526836
0.000513702
0.00057872
0.00100454
0.00136441
0.00148592
0.00154105
0.000386359
0.00111714
0.00158557
0.00177718
0.00152279
0.000885698
0.000793962
0.00140836
0.00172278
0.0027614
0.00377355
0.00526303
0.000496017
0.00184141
0.00248479
0.00259334
0.002244
0.00207469
0.00206006
0.00292788
0.00445721
0.00654191
0.00874325
0.010872
0.000627105
0.00289527
0.00315582
0.00274418
0.00260241
0.00262204
0.00349135
0.00565869
0.00801165
0.0106689
0.0131852
0.015411
0.000740658
0.00343512
0.00346994
0.003141
0.00313774
0.0038485
0.0058494
0.00864368
0.0113436
0.014075
0.0165918
0.0188115
0.000847943
0.0038862
0.00394025
0.00372466
0.00415598
0.00586633
0.0085629
0.0112941
0.0139624
0.0165855
0.019
0.0211585
0.000941876
0.00439899
0.00478004
0.00486105
0.00598713
0.00839422
0.0109601
0.0134864
0.01597
0.0183373
0.0205759
0.0226312
0.00105637
0.00554599
0.00659422
0.00748897
0.00933627
0.0114348
0.0135614
0.0157058
0.0178614
0.0199156
0.0218513
0.0236384
0.00119303
0.00751289
0.00987435
0.0118445
0.0136018
0.0151976
0.0167425
0.018289
0.0198655
0.0214054
0.0228949
0.0243181
0.00138281
0.00903688
0.0125419
0.0149516
0.0166957
0.0180321
0.0191814
0.020257
0.0213023
0.022344
0.0234056
0.0245001
0.00156279
0.00842697
0.0135213
0.0164547
0.0183884
0.019581
0.0206649
0.021439
0.0221441
0.0228491
0.0235934
0.0244053
0.00260863
0.00793626
0.0142296
0.0176383
0.0193133
0.0207954
0.0217313
0.0223991
0.0229337
0.0234377
0.023971
0.0245767
0.00158385
0.00160474
0.00161689
0.00161873
0.0016194
0.00159409
0.00155579
0.00149075
0.00140165
0.00128029
0.00110083
0.000523918
0.0067358
0.00808858
0.0090345
0.00943904
0.00925821
0.00876998
0.00792903
0.00677331
0.00524121
0.0032041
0.001567
0.000909785
0.0127051
0.0141046
0.0149805
0.01532
0.0151325
0.0144624
0.0132636
0.0115208
0.0091996
0.00630353
0.00280944
0.00121231
0.0172958
0.0187728
0.019799
0.0203439
0.0203672
0.019816
0.0186108
0.0166454
0.0137478
0.00992904
0.00495026
0.00148061
0.0207218
0.0222897
0.0234853
0.0242732
0.0245932
0.0243377
0.0233558
0.0214353
0.0182076
0.0135555
0.00729388
0.00174738
0.0230572
0.0246797
0.0260049
0.0270005
0.0276082
0.0277348
0.0271999
0.0256784
0.0226758
0.017502
0.0101227
0.00202053
0.0244704
0.0260888
0.0274805
0.0286292
0.029511
0.0300669
0.0301033
0.029207
0.026681
0.0215063
0.0131294
0.00230677
0.0252738
0.0267682
0.0281174
0.0293229
0.0304096
0.0313613
0.0320325
0.0319908
0.0302925
0.0253684
0.016059
0.00262234
0.0256435
0.026876
0.0280918
0.0292919
0.0304864
0.0317184
0.0329242
0.033771
0.0332154
0.0290108
0.0187536
0.00297209
0.0255743
0.0265857
0.0276171
0.0287925
0.0300902
0.0314984
0.0330341
0.0345889
0.0352544
0.0324342
0.021894
0.00334438
0.0253581
0.0264418
0.0273445
0.0282904
0.0295909
0.0311077
0.0327616
0.0346364
0.0362217
0.0353147
0.0256638
0.00375652
0.0253501
0.0264949
0.0275339
0.0283653
0.029433
0.0308886
0.0324503
0.0342984
0.0362172
0.0369681
0.0296479
0.00423583
0.0156995
0.0162842
0.0177457
0.0192982
0.0206527
0.021913
0.0227467
0.0233557
0.0238134
0.0242299
0.0246588
0.0251458
0.0253466
0.0231136
0.0223933
0.0224624
0.0229035
0.0233521
0.0237855
0.0243424
0.0248452
0.0252492
0.0256439
0.0260815
0.032
0.0294569
0.0276081
0.0265135
0.0259846
0.0257639
0.0258358
0.0259948
0.0261724
0.0263884
0.0268047
0.027307
0.0340009
0.0322408
0.0306283
0.02929
0.0284192
0.0278927
0.0276575
0.0275768
0.0277501
0.0279774
0.0283077
0.0288197
0.0258578
0.0269885
0.0280673
0.0289121
0.0298766
0.0311043
0.0324107
0.0339555
0.0357976
0.0379712
0.0381156
0.0175934
0.0268894
0.0279583
0.028945
0.029845
0.0307971
0.0316639
0.0326337
0.033728
0.0351532
0.0371859
0.0407536
0.0294856
0.0282933
0.0291295
0.0299917
0.0307655
0.0315313
0.0321961
0.0329771
0.0337606
0.0347009
0.0361065
0.0393871
0.0351768
0.0298568
0.0305947
0.031278
0.0319057
0.0324007
0.0329027
0.0334691
0.0339764
0.0346063
0.0353279
0.037087
0.0360238
0.0156995
0.0162842
0.0177458
0.0192982
0.0206528
0.021913
0.0227467
0.0233557
0.0238134
0.0242299
0.0246588
0.0251459
0.0253465
0.0231137
0.0223934
0.0224625
0.0229035
0.0233521
0.0237855
0.0243424
0.0248452
0.0252493
0.0256439
0.0260815
0.0320001
0.029457
0.0276082
0.0265136
0.0259846
0.025764
0.0258358
0.0259948
0.0261724
0.0263884
0.0268047
0.027307
0.0340009
0.0322409
0.0306284
0.0292901
0.0284193
0.0278927
0.0276575
0.0275768
0.0277501
0.0279774
0.0283077
0.0288197
0.0258578
0.0269885
0.0280674
0.0289122
0.0298766
0.0311044
0.0324107
0.0339556
0.0357977
0.0379713
0.0381156
0.0175934
0.0268895
0.0279583
0.028945
0.029845
0.0307972
0.031664
0.0326337
0.0337281
0.0351532
0.0371859
0.0407536
0.0294856
0.0282933
0.0291295
0.0299917
0.0307655
0.0315313
0.0321962
0.0329771
0.0337606
0.0347009
0.0361065
0.0393871
0.0351769
0.0298568
0.0305947
0.031278
0.0319058
0.0324007
0.0329027
0.0334692
0.0339764
0.0346063
0.0353279
0.037087
0.0360238
0.0156995
0.0162842
0.0177458
0.0192982
0.0206528
0.0219131
0.0227467
0.0233557
0.0238135
0.0242299
0.0246588
0.0251459
0.0253466
0.0231137
0.0223935
0.0224625
0.0229035
0.0233521
0.0237855
0.0243424
0.0248452
0.0252493
0.0256439
0.0260815
0.0320001
0.029457
0.0276083
0.0265136
0.0259847
0.025764
0.0258358
0.0259948
0.0261725
0.0263884
0.0268048
0.0273071
0.034001
0.0322409
0.0306285
0.0292901
0.0284193
0.0278928
0.0276575
0.0275768
0.0277501
0.0279774
0.0283077
0.0288197
0.0258579
0.0269885
0.0280674
0.0289122
0.0298766
0.0311044
0.0324107
0.0339555
0.0357976
0.0379712
0.0381156
0.0175934
0.0268895
0.0279583
0.028945
0.029845
0.0307972
0.0316639
0.0326337
0.033728
0.0351532
0.0371859
0.0407536
0.0294856
0.0282933
0.0291295
0.0299917
0.0307655
0.0315313
0.0321961
0.0329771
0.0337606
0.0347009
0.0361065
0.0393871
0.0351768
0.0298568
0.0305947
0.031278
0.0319057
0.0324007
0.0329027
0.0334691
0.0339764
0.0346063
0.0353279
0.037087
0.0360238
0.0156995
0.0162842
0.0177458
0.0192982
0.0206528
0.021913
0.0227467
0.0233557
0.0238134
0.0242299
0.0246588
0.0251459
0.0253465
0.0231137
0.0223934
0.0224625
0.0229035
0.0233521
0.0237855
0.0243424
0.0248452
0.0252493
0.0256439
0.0260815
0.0320001
0.029457
0.0276082
0.0265136
0.0259847
0.025764
0.0258358
0.0259948
0.0261724
0.0263884
0.0268047
0.027307
0.0340009
0.0322409
0.0306284
0.0292901
0.0284193
0.0278927
0.0276575
0.0275768
0.0277501
0.0279774
0.0283077
0.0288197
0.0258578
0.0269885
0.0280674
0.0289121
0.0298766
0.0311043
0.0324107
0.0339555
0.0357976
0.0379712
0.0381155
0.0175934
0.0268895
0.0279583
0.028945
0.029845
0.0307971
0.0316639
0.0326336
0.033728
0.0351532
0.0371859
0.0407536
0.0294854
0.0282933
0.0291295
0.0299917
0.0307655
0.0315313
0.0321961
0.0329771
0.0337606
0.0347009
0.0361065
0.0393871
0.0351767
0.0298568
0.0305947
0.031278
0.0319057
0.0324007
0.0329027
0.0334691
0.0339763
0.0346063
0.0353279
0.0370869
0.0360237
0.0316492
0.0305071
0.0295511
0.0289179
0.0285607
0.028422
0.0283658
0.0284259
0.0287274
0.0291329
0.0298327
0.0308996
0.0301016
0.029369
0.0287794
0.0284389
0.0282288
0.0280322
0.0277914
0.0276689
0.0275978
0.0276342
0.0280274
0.0290713
0.0286071
0.0280397
0.0275919
0.0272384
0.02676
0.0261598
0.0255413
0.0248138
0.0239728
0.0231316
0.0226084
0.0231372
0.0267629
0.0262574
0.025619
0.0249225
0.0240033
0.0229462
0.0216883
0.0201563
0.0183841
0.0165018
0.0148331
0.0138795
0.0322269
0.0331075
0.0331836
0.0334264
0.0335962
0.0338017
0.0339968
0.0341617
0.0343264
0.034491
0.0340827
0.0331678
0.0307506
0.0332511
0.0330906
0.0331508
0.033204
0.033257
0.0332867
0.0332591
0.0330729
0.0326588
0.0321338
0.0312134
0.0256662
0.0315059
0.0319607
0.0320012
0.0320261
0.0320255
0.0319711
0.0317072
0.0313252
0.0309248
0.030392
0.0294297
0.0147564
0.0285583
0.0303177
0.0304029
0.030423
0.0303252
0.0300977
0.0297439
0.0294529
0.0290501
0.0283925
0.0274849
0.0316493
0.0305072
0.0295512
0.0289179
0.0285608
0.028422
0.0283658
0.0284259
0.0287274
0.0291329
0.0298328
0.0308997
0.0301016
0.0293691
0.0287794
0.0284389
0.0282288
0.0280322
0.0277914
0.0276689
0.0275978
0.0276342
0.0280274
0.0290713
0.0286072
0.0280398
0.0275919
0.0272384
0.02676
0.0261598
0.0255413
0.0248138
0.0239728
0.0231316
0.0226084
0.0231372
0.0267629
0.0262575
0.025619
0.0249225
0.0240034
0.0229463
0.0216883
0.0201563
0.0183841
0.0165018
0.0148331
0.0138795
0.0322269
0.0331076
0.0331836
0.0334264
0.0335962
0.0338018
0.0339968
0.0341617
0.0343265
0.034491
0.0340827
0.0331678
0.0307506
0.0332511
0.0330906
0.0331508
0.033204
0.0332571
0.0332868
0.0332592
0.0330729
0.0326588
0.0321338
0.0312134
0.0256662
0.0315059
0.0319607
0.0320012
0.0320262
0.0320255
0.0319711
0.0317072
0.0313252
0.0309248
0.030392
0.0294297
0.0147564
0.0285583
0.0303177
0.0304029
0.030423
0.0303252
0.0300977
0.0297439
0.0294529
0.0290501
0.0283925
0.0274849
0.0316493
0.0305072
0.0295512
0.028918
0.0285608
0.028422
0.0283658
0.0284259
0.0287274
0.0291329
0.0298327
0.0308996
0.0301016
0.0293691
0.0287795
0.0284389
0.0282288
0.0280322
0.0277914
0.0276689
0.0275978
0.0276342
0.0280274
0.0290713
0.0286072
0.0280398
0.0275919
0.0272384
0.02676
0.0261598
0.0255413
0.0248138
0.0239728
0.0231316
0.0226084
0.0231372
0.0267629
0.0262575
0.025619
0.0249225
0.0240033
0.0229462
0.0216883
0.0201563
0.0183841
0.0165018
0.0148331
0.0138795
0.0322269
0.0331075
0.0331836
0.0334263
0.0335961
0.0338017
0.0339968
0.0341617
0.0343264
0.0344909
0.0340827
0.0331678
0.0307506
0.0332511
0.0330906
0.0331507
0.033204
0.033257
0.0332867
0.0332591
0.0330729
0.0326587
0.0321338
0.0312134
0.0256662
0.0315058
0.0319607
0.0320012
0.0320261
0.0320255
0.0319711
0.0317071
0.0313251
0.0309248
0.030392
0.0294296
0.0147564
0.0285583
0.0303177
0.0304029
0.030423
0.0303252
0.0300976
0.0297438
0.0294529
0.0290501
0.0283925
0.0274849
0.0316493
0.0305072
0.0295512
0.0289179
0.0285608
0.028422
0.0283658
0.0284259
0.0287274
0.0291329
0.0298327
0.0308996
0.0301016
0.0293691
0.0287794
0.0284389
0.0282288
0.0280322
0.0277914
0.0276689
0.0275978
0.0276342
0.0280274
0.0290713
0.0286071
0.0280398
0.0275919
0.0272384
0.02676
0.0261598
0.0255413
0.0248138
0.0239728
0.0231316
0.0226084
0.0231372
0.0267629
0.0262574
0.025619
0.0249225
0.0240033
0.0229462
0.0216883
0.0201563
0.0183841
0.0165018
0.0148331
0.0138795
0.0322269
0.0331075
0.0331836
0.0334263
0.0335961
0.0338017
0.0339967
0.0341617
0.0343264
0.0344909
0.0340826
0.0331677
0.0307505
0.0332511
0.0330906
0.0331507
0.033204
0.033257
0.0332867
0.0332591
0.0330729
0.0326587
0.0321337
0.0312133
0.0256662
0.0315058
0.0319607
0.0320012
0.0320261
0.0320254
0.031971
0.0317071
0.0313251
0.0309247
0.030392
0.0294296
0.0147564
0.0285582
0.0303177
0.0304029
0.030423
0.0303252
0.0300976
0.0297438
0.0294529
0.02905
0.0283925
0.0274848
0.0244108
0.0236691
0.0226982
0.0216112
0.0202785
0.0186997
0.0167926
0.0145131
0.0118669
0.0089366
0.00545915
0.00282717
0.0213431
0.0202963
0.0190223
0.0175613
0.0158123
0.0137661
0.0113639
0.0086133
0.00548982
0.00266763
0.00123279
0.00119984
0.0176382
0.0162835
0.0146846
0.0128417
0.0106821
0.00820732
0.00529202
0.00238411
0.000746927
0.000380106
0.000403923
0.000512969
0.0133449
0.0116677
0.00972907
0.00749777
0.00484063
0.00214521
0.000532438
0.000199002
0.000169929
0.000267448
0.000229539
0.000249444
0.0085224
0.00648756
0.00411726
0.00179494
0.000462491
0.000186108
0.000173726
0.000222125
0.000206914
0.000205928
0.000201673
0.000197795
0.00313893
0.00131036
0.000398733
0.000292885
0.000198169
0.000215571
0.000212238
0.000210548
0.000209555
0.000206622
0.000204776
0.000202705
0.000309675
0.00077865
0.00021208
0.000219415
0.000218713
0.000217938
0.000216895
0.00021543
0.000213651
0.000211702
0.000210078
0.000208533
0.000222643
0.000226975
0.000223447
0.000223526
0.000223306
0.000222586
0.000221649
0.000220512
0.000219027
0.000217274
0.000215855
0.000214434
0.000227593
0.000226979
0.000226556
0.000226243
0.00022594
0.000225581
0.000225044
0.000224282
0.000223265
0.000221915
0.000220404
0.00021894
0.000225051
0.000224835
0.000224704
0.000224713
0.000224687
0.000224623
0.000224344
0.000223824
0.000222983
0.000221844
0.000220424
0.000219021
0.000191882
0.000193359
0.000195062
0.000196661
0.000198496
0.000200197
0.000201911
0.000203395
0.000204797
0.000206025
0.000207045
0.00020768
6.16839e-05
6.08403e-05
6.09378e-05
6.02809e-05
6.03561e-05
5.98583e-05
5.99291e-05
5.96103e-05
5.96862e-05
5.95903e-05
5.96718e-05
5.9742e-05
0.00432225
0.0246907
0.0284516
0.0284633
0.028401
0.028145
0.0278652
0.027638
0.0273331
0.0268369
0.0260285
0.0251629
0.00415918
0.0226786
0.0264211
0.0260946
0.0259153
0.0256921
0.0255117
0.0252716
0.0248288
0.0241175
0.0232148
0.0222682
0.00405124
0.0207188
0.0238021
0.0234384
0.023282
0.0231316
0.02287
0.0224555
0.0217851
0.0208616
0.0198736
0.0188041
0.0039307
0.0185307
0.0208382
0.0207085
0.0205323
0.02022
0.0198056
0.0190978
0.0182054
0.0171822
0.0160534
0.0147857
0.00377446
0.0161852
0.0179072
0.0177669
0.0174449
0.0169062
0.0161788
0.0152991
0.0142696
0.0130854
0.0117595
0.0102497
0.00355375
0.0137871
0.0150351
0.014516
0.0139173
0.0131369
0.0122464
0.0111686
0.00999397
0.0086103
0.00703053
0.00518235
0.00328414
0.0108331
0.0118774
0.0106811
0.0101598
0.00909357
0.00807027
0.00670461
0.00528631
0.00363062
0.00210615
0.00082694
0.00292607
0.00762026
0.00832003
0.00664807
0.00614709
0.00457706
0.00353764
0.00210423
0.00117452
0.000442316
0.000245018
0.000479493
0.00238544
0.00376525
0.00415209
0.00247705
0.00215933
0.000904299
0.000640137
0.000350879
0.000236219
0.000243193
0.000226667
0.000229399
0.00177346
0.000880468
0.00101824
0.00040524
0.000368258
0.00028221
0.000222763
0.000220889
0.000226371
0.000225716
0.000226083
0.000225513
0.00115453
0.000155377
0.000188509
0.000157438
0.000170598
0.000167491
0.000180649
0.000181135
0.000184087
0.000186378
0.00018844
0.000189912
0.000400682
7.48703e-05
7.2785e-05
6.89342e-05
6.83328e-05
6.58771e-05
6.59041e-05
6.36858e-05
6.40071e-05
6.24421e-05
6.26628e-05
6.15385e-05
0.0244109
0.0236692
0.0226983
0.0216112
0.0202785
0.0186997
0.0167926
0.0145131
0.0118669
0.00893662
0.00545916
0.00282717
0.0213432
0.0202963
0.0190224
0.0175613
0.0158124
0.0137661
0.0113639
0.00861332
0.00548984
0.00266764
0.00123279
0.00119985
0.0176383
0.0162836
0.0146847
0.0128418
0.0106821
0.00820735
0.00529204
0.00238413
0.000746932
0.000380111
0.000403926
0.000512971
0.013345
0.0116677
0.0097291
0.0074978
0.00484066
0.00214524
0.000532447
0.000199007
0.000169933
0.000267453
0.000229544
0.000249448
0.00852244
0.0064876
0.00411729
0.00179496
0.000462499
0.000186111
0.000173727
0.000222127
0.000206916
0.000205931
0.000201676
0.000197798
0.00313896
0.00131037
0.000398738
0.000292893
0.000198168
0.00021557
0.000212238
0.000210547
0.000209554
0.000206622
0.000204776
0.000202704
0.000309662
0.000778727
0.000212079
0.000219414
0.000218712
0.000217937
0.000216894
0.00021543
0.00021365
0.000211701
0.000210077
0.000208532
0.000222642
0.000226974
0.000223446
0.000223525
0.000223306
0.000222585
0.000221648
0.000220511
0.000219027
0.000217274
0.000215855
0.000214433
0.000227592
0.000226978
0.000226555
0.000226242
0.000225939
0.000225581
0.000225043
0.000224282
0.000223264
0.000221914
0.000220403
0.00021894
0.00022505
0.000224835
0.000224704
0.000224713
0.000224687
0.000224623
0.000224344
0.000223824
0.000222982
0.000221844
0.000220424
0.000219021
0.000191876
0.000193359
0.000195062
0.000196661
0.000198496
0.000200197
0.000201911
0.000203395
0.000204797
0.000206025
0.000207045
0.00020768
6.16839e-05
6.08403e-05
6.09378e-05
6.02809e-05
6.03561e-05
5.98583e-05
5.99291e-05
5.96103e-05
5.96862e-05
5.95903e-05
5.96718e-05
5.9742e-05
0.00432225
0.0246906
0.0284516
0.0284633
0.028401
0.028145
0.0278652
0.027638
0.0273331
0.0268369
0.0260285
0.0251628
0.00415918
0.0226785
0.0264211
0.0260946
0.0259153
0.0256921
0.0255117
0.0252715
0.0248288
0.0241175
0.0232148
0.0222682
0.00405124
0.0207188
0.023802
0.0234383
0.023282
0.0231315
0.02287
0.0224555
0.0217851
0.0208616
0.0198735
0.018804
0.00393069
0.0185307
0.0208381
0.0207084
0.0205323
0.02022
0.0198055
0.0190978
0.0182053
0.0171822
0.0160534
0.0147857
0.00377445
0.0161852
0.0179072
0.0177669
0.0174449
0.0169062
0.0161787
0.015299
0.0142696
0.0130853
0.0117595
0.0102497
0.00355374
0.013787
0.015035
0.0145159
0.0139173
0.0131368
0.0122463
0.0111686
0.00999392
0.00861025
0.00703048
0.0051823
0.00328413
0.0108331
0.0118774
0.010681
0.0101597
0.00909351
0.00807021
0.00670455
0.00528625
0.00363057
0.00210611
0.000826923
0.00292606
0.00762022
0.00831997
0.006648
0.00614702
0.00457699
0.00353758
0.00210418
0.00117449
0.000442301
0.00024502
0.000479478
0.00238543
0.0037652
0.00415203
0.002477
0.00215928
0.00090427
0.000640116
0.00035088
0.000236217
0.000243192
0.000226667
0.0002294
0.00177345
0.000880449
0.00101822
0.000405231
0.00036825
0.000282208
0.000222764
0.000220889
0.000226371
0.000225717
0.000226083
0.000225513
0.00115453
0.000155376
0.000188507
0.000157438
0.000170598
0.000167491
0.00018065
0.000181135
0.000184088
0.000186379
0.00018844
0.000189913
0.000400678
7.48703e-05
7.27849e-05
6.89342e-05
6.83328e-05
6.58771e-05
6.59041e-05
6.36858e-05
6.40072e-05
6.24421e-05
6.26628e-05
6.15385e-05
0.0244108
0.0236692
0.0226983
0.0216112
0.0202785
0.0186997
0.0167926
0.0145131
0.0118669
0.00893661
0.00545915
0.00282717
0.0213431
0.0202963
0.0190223
0.0175613
0.0158123
0.0137661
0.0113639
0.0086133
0.00548982
0.00266763
0.00123279
0.00119985
0.0176382
0.0162835
0.0146846
0.0128417
0.0106821
0.00820731
0.00529201
0.00238411
0.00074693
0.000380111
0.000403925
0.00051297
0.0133449
0.0116677
0.00972906
0.00749776
0.00484063
0.00214521
0.000532439
0.000199007
0.000169935
0.000267451
0.000229544
0.000249448
0.0085224
0.00648756
0.00411725
0.00179493
0.000462492
0.000186109
0.000173729
0.000222127
0.000206917
0.000205931
0.000201676
0.000197798
0.00313892
0.00131035
0.000398734
0.000292897
0.000198169
0.000215571
0.000212238
0.000210548
0.000209555
0.000206623
0.000204776
0.000202705
0.000309659
0.000778726
0.00021208
0.000219414
0.000218712
0.000217938
0.000216894
0.00021543
0.000213651
0.000211702
0.000210077
0.000208533
0.000222643
0.000226974
0.000223447
0.000223526
0.000223306
0.000222585
0.000221649
0.000220511
0.000219027
0.000217274
0.000215855
0.000214433
0.000227593
0.000226979
0.000226556
0.000226243
0.00022594
0.000225581
0.000225044
0.000224282
0.000223265
0.000221915
0.000220404
0.00021894
0.000225051
0.000224835
0.000224704
0.000224713
0.000224687
0.000224623
0.000224344
0.000223824
0.000222983
0.000221845
0.000220425
0.000219021
0.000191876
0.000193359
0.000195062
0.000196661
0.000198497
0.000200197
0.000201912
0.000203395
0.000204798
0.000206025
0.000207046
0.00020768
6.1684e-05
6.08404e-05
6.09379e-05
6.0281e-05
6.03562e-05
5.98584e-05
5.99292e-05
5.96104e-05
5.96863e-05
5.95904e-05
5.96719e-05
5.97421e-05
0.00432225
0.0246906
0.0284516
0.0284633
0.028401
0.028145
0.0278652
0.027638
0.0273331
0.0268369
0.0260285
0.0251628
0.00415918
0.0226785
0.0264211
0.0260946
0.0259153
0.025692
0.0255117
0.0252715
0.0248288
0.0241175
0.0232148
0.0222682
0.00405124
0.0207188
0.023802
0.0234383
0.023282
0.0231315
0.02287
0.0224555
0.0217851
0.0208615
0.0198735
0.018804
0.00393069
0.0185307
0.0208381
0.0207084
0.0205323
0.02022
0.0198055
0.0190977
0.0182053
0.0171822
0.0160534
0.0147857
0.00377446
0.0161852
0.0179072
0.0177669
0.0174449
0.0169061
0.0161787
0.015299
0.0142696
0.0130853
0.0117595
0.0102497
0.00355374
0.013787
0.015035
0.0145159
0.0139173
0.0131368
0.0122463
0.0111686
0.00999392
0.00861025
0.00703048
0.0051823
0.00328414
0.0108331
0.0118774
0.010681
0.0101597
0.0090935
0.00807021
0.00670455
0.00528625
0.00363057
0.00210612
0.000826925
0.00292606
0.00762021
0.00831997
0.00664799
0.00614702
0.00457699
0.00353757
0.00210418
0.00117449
0.000442297
0.000245024
0.000479474
0.00238544
0.00376519
0.00415203
0.00247699
0.00215928
0.000904268
0.000640116
0.000350879
0.000236218
0.000243193
0.000226668
0.0002294
0.00177345
0.000880446
0.00101821
0.00040523
0.000368249
0.000282208
0.000222764
0.000220889
0.000226371
0.000225717
0.000226083
0.000225513
0.00115453
0.000155375
0.000188507
0.000157437
0.000170598
0.000167491
0.00018065
0.000181135
0.000184088
0.000186379
0.00018844
0.000189913
0.000400681
7.48705e-05
7.27849e-05
6.89343e-05
6.83329e-05
6.58772e-05
6.59042e-05
6.36858e-05
6.40072e-05
6.24422e-05
6.26629e-05
6.15385e-05
0.0244108
0.0236691
0.0226982