/*--------------------------------*- C++ -*----------------------------------*\
| =========                 |                                                 |
| \\      /  F ield         | OpenFOAM: The Open Source CFD Toolbox           |
|  \\    /   O peration     | Version:  2212                                  |
|   \\  /    A nd           | Website:  www.openfoam.com                      |
|    \\/     M anipulation  |                                                 |
\*---------------------------------------------------------------------------*/
FoamFile
{
    version     2.0;
    format      ascii;
    arch        "LSB;label=32;scalar=64";
    class       volScalarField;
    location    "0.07";
    object      p;
}
// * * * * * * * * * * * * * * * * * * * * * * * * * * * * * * * * * * * * * //

dimensions      [1 -1 -2 0 0 0 0];

internalField   nonuniform List<scalar> 
3072
(
97478.3
97466.5
97458.1
97450
97448.3
97447.3
97449.5
97448.7
97464.6
97491.9
97487
97448.7
97568.8
97536.1
97526.1
97516.9
97518.8
97523.5
97542.2
97571.4
97624.7
97710.7
97752.2
97766.8
97628.1
97579.4
97569.1
97564.1
97578.2
97603.7
97645.4
97698.7
97749.7
97800.9
97837.3
97863.8
97729.3
97674.6
97666.2
97668.6
97698
97747.2
97808
97865.2
97915.7
97958.1
97988.9
98013.7
97837.2
97792.5
97790
97805.2
97848.8
97908.8
97973
98028.7
98075.9
98112.9
98140
98160.8
97968.7
97934.1
97940.8
97968.2
98020.2
98081.7
98140
98188.2
98226.8
98256.9
98279.5
98296.6
98096.3
98083.2
98099.1
98137.6
98193.3
98251.1
98301
98340
98370.6
98394.1
98411.7
98424.6
98230.3
98236.9
98261
98306.1
98359.3
98409.4
98450
98480.9
98504.3
98521.9
98534.7
98543.9
98359.7
98394.4
98421.8
98468.9
98514.9
98555.6
98587.1
98610.3
98627.3
98639.6
98648.3
98654.2
98489.7
98544.2
98576.9
98623.8
98661.7
98692.1
98714.1
98729.7
98740.5
98748
98753
98756
98629.4
98706.5
98731.9
98770.4
98798.1
98817.3
98830
98838.1
98843.4
98846.9
98848.9
98849.5
98742.7
98862.4
98878.3
98899.5
98914.2
98923.3
98928.6
98931.5
98933.3
98934.6
98935.1
98934.4
97416.1
97400.2
97403.6
97426.2
97464.9
97517.1
97579.1
97644.1
97701.6
97743.3
97769.5
97746.1
97776
97775.3
97777.3
97781
97790.4
97804.8
97823.3
97842.9
97858.7
97877.9
97889.5
97805.9
97879.8
97889
97897.3
97906.2
97917.5
97928.9
97939.3
97945.1
97942.9
97941.8
97929.8
97804.6
98031.4
98044.3
98054.4
98061.9
98066.9
98069.2
98068
98059.9
98041.8
98019.5
97989.7
97829.3
98175.5
98185.7
98192.5
98196.5
98197.5
98195.2
98188.3
98175.1
98151.3
98118
98077.8
97901.9
98308.7
98316.9
98321.9
98323.9
98323.1
98319
98310.4
98296.2
98272.9
98237.7
98194.4
98021.6
98433.7
98439.6
98442.8
98443.6
98442.1
98438.1
98431.1
98419.8
98401.9
98373.6
98339.6
98186.9
98550.1
98553.8
98555.5
98555.5
98554.2
98551.7
98547.9
98542.4
98534
98519.6
98506.4
98393.9
98657.9
98659.6
98660
98659.4
98658.4
98657.8
98658.1
98659.6
98663
98667.7
98685.4
98637.5
98757.3
98757.1
98756.2
98754.7
98753.8
98754.7
98758.6
98766.8
98781.6
98806
98864
98902
98848.9
98846.5
98843.9
98841.2
98839.5
98840.7
98846.6
98859.6
98882.5
98922.3
99023.4
99158.1
98932.4
98927.8
98923.1
98918.1
98914.6
98914.4
98919.8
98933.8
98958.5
99004.3
99120.3
99380.5
97478.3
97466.5
97458.1
97450
97448.3
97447.3
97449.5
97448.7
97464.6
97491.9
97487
97448.7
97568.8
97536.1
97526.1
97516.9
97518.8
97523.5
97542.2
97571.4
97624.7
97710.7
97752.2
97766.8
97628.1
97579.4
97569.1
97564.1
97578.2
97603.7
97645.4
97698.7
97749.7
97800.9
97837.3
97863.8
97729.3
97674.6
97666.2
97668.6
97698
97747.2
97808
97865.2
97915.7
97958.1
97988.9
98013.7
97837.2
97792.5
97790
97805.2
97848.8
97908.8
97973
98028.7
98075.9
98112.9
98140
98160.8
97968.7
97934.1
97940.8
97968.2
98020.2
98081.7
98140
98188.2
98226.8
98256.9
98279.5
98296.6
98096.3
98083.2
98099.1
98137.6
98193.3
98251.1
98301
98340
98370.6
98394.1
98411.7
98424.6
98230.3
98236.9
98261
98306.1
98359.3
98409.4
98450
98480.9
98504.3
98521.9
98534.7
98543.9
98359.7
98394.4
98421.8
98468.9
98514.9
98555.6
98587.1
98610.3
98627.3
98639.6
98648.3
98654.2
98489.7
98544.2
98576.9
98623.8
98661.7
98692.1
98714.1
98729.7
98740.5
98748
98753
98756
98629.4
98706.5
98731.9
98770.4
98798.1
98817.3
98830
98838.1
98843.4
98846.9
98848.9
98849.5
98742.7
98862.4
98878.3
98899.5
98914.2
98923.3
98928.6
98931.5
98933.3
98934.6
98935.1
98934.4
97416.1
97400.2
97403.6
97426.2
97464.9
97517.1
97579.1
97644.1
97701.6
97743.3
97769.5
97746.1
97776
97775.3
97777.3
97781
97790.4
97804.8
97823.3
97842.9
97858.7
97877.9
97889.5
97805.9
97879.8
97889
97897.3
97906.2
97917.5
97928.9
97939.3
97945.1
97942.9
97941.8
97929.8
97804.6
98031.4
98044.3
98054.4
98061.9
98066.9
98069.2
98068
98059.9
98041.8
98019.5
97989.7
97829.3
98175.5
98185.7
98192.5
98196.5
98197.5
98195.2
98188.3
98175.1
98151.3
98118
98077.8
97901.9
98308.7
98316.9
98321.9
98323.9
98323.1
98319
98310.4
98296.2
98272.9
98237.7
98194.4
98021.6
98433.7
98439.6
98442.8
98443.6
98442.1
98438.1
98431.1
98419.8
98401.9
98373.6
98339.6
98186.9
98550.1
98553.8
98555.5
98555.5
98554.2
98551.7
98547.9
98542.4
98534
98519.6
98506.4
98393.9
98657.9
98659.6
98660
98659.4
98658.4
98657.8
98658.1
98659.6
98663
98667.7
98685.4
98637.5
98757.3
98757.1
98756.2
98754.7
98753.8
98754.7
98758.6
98766.8
98781.6
98806
98864
98902
98848.9
98846.5
98843.9
98841.2
98839.5
98840.7
98846.6
98859.6
98882.5
98922.3
99023.4
99158.1
98932.4
98927.8
98923.1
98918.1
98914.6
98914.4
98919.8
98933.8
98958.5
99004.3
99120.3
99380.5
97478.3
97466.5
97458.1
97450
97448.3
97447.3
97449.5
97448.7
97464.6
97491.9
97487
97448.7
97568.8
97536.1
97526.1
97516.9
97518.8
97523.5
97542.2
97571.4
97624.7
97710.7
97752.2
97766.8
97628.1
97579.4
97569.1
97564.1
97578.2
97603.7
97645.4
97698.7
97749.7
97800.9
97837.3
97863.8
97729.3
97674.6
97666.2
97668.6
97698
97747.2
97808
97865.2
97915.7
97958.1
97988.9
98013.7
97837.2
97792.5
97790
97805.2
97848.8
97908.8
97973
98028.7
98075.9
98112.9
98140
98160.8
97968.7
97934.1
97940.8
97968.2
98020.2
98081.7
98140
98188.2
98226.8
98256.9
98279.5
98296.6
98096.3
98083.2
98099.1
98137.6
98193.3
98251.1
98301
98340
98370.6
98394.1
98411.7
98424.6
98230.3
98236.9
98261
98306.1
98359.3
98409.4
98450
98480.9
98504.3
98521.9
98534.7
98543.9
98359.7
98394.4
98421.8
98468.9
98514.9
98555.6
98587.1
98610.3
98627.3
98639.6
98648.3
98654.2
98489.7
98544.2
98576.9
98623.8
98661.7
98692.1
98714.2
98729.7
98740.5
98748
98753
98756
98629.4
98706.5
98731.9
98770.4
98798.1
98817.3
98830
98838.1
98843.4
98846.9
98848.9
98849.5
98742.7
98862.4
98878.3
98899.5
98914.2
98923.3
98928.6
98931.5
98933.4
98934.6
98935.1
98934.4
97416.1
97400.2
97403.6
97426.2
97464.9
97517.1
97579.1
97644.1
97701.6
97743.3
97769.5
97746.1
97776
97775.3
97777.3
97781
97790.4
97804.8
97823.3
97842.9
97858.7
97877.9
97889.5
97805.9
97879.8
97889
97897.3
97906.2
97917.5
97928.9
97939.3
97945.1
97942.9
97941.8
97929.8
97804.6
98031.4
98044.3
98054.4
98061.9
98066.9
98069.2
98068
98059.9
98041.8
98019.5
97989.7
97829.3
98175.5
98185.7
98192.5
98196.5
98197.5
98195.2
98188.3
98175.1
98151.3
98118
98077.8
97901.9
98308.7
98316.9
98321.9
98323.9
98323.1
98319
98310.4
98296.2
98272.9
98237.7
98194.4
98021.6
98433.7
98439.6
98442.8
98443.6
98442.1
98438.1
98431.1
98419.8
98401.9
98373.6
98339.6
98186.9
98550.1
98553.8
98555.5
98555.5
98554.2
98551.7
98547.9
98542.4
98534
98519.6
98506.4
98393.9
98657.9
98659.6
98660
98659.4
98658.4
98657.8
98658.1
98659.6
98663
98667.7
98685.4
98637.5
98757.3
98757.1
98756.2
98754.7
98753.8
98754.7
98758.6
98766.8
98781.6
98806
98864
98902
98848.9
98846.5
98843.9
98841.2
98839.5
98840.7
98846.6
98859.6
98882.5
98922.3
99023.4
99158.1
98932.4
98927.8
98923.1
98918.1
98914.6
98914.4
98919.8
98933.8
98958.5
99004.3
99120.3
99380.5
97478.3
97466.5
97458.1
97450
97448.3
97447.3
97449.5
97448.7
97464.6
97491.9
97487
97448.7
97568.8
97536.1
97526.1
97516.9
97518.8
97523.5
97542.2
97571.4
97624.7
97710.7
97752.2
97766.8
97628.1
97579.4
97569.1
97564.1
97578.2
97603.7
97645.4
97698.7
97749.7
97800.9
97837.3
97863.8
97729.3
97674.6
97666.2
97668.6
97698
97747.2
97808
97865.2
97915.7
97958.1
97988.9
98013.7
97837.2
97792.5
97790
97805.2
97848.8
97908.8
97973
98028.7
98075.9
98112.9
98140
98160.8
97968.7
97934.1
97940.8
97968.2
98020.2
98081.7
98140
98188.2
98226.8
98256.9
98279.5
98296.6
98096.3
98083.2
98099.1
98137.6
98193.3
98251.1
98301
98340
98370.6
98394.1
98411.7
98424.6
98230.3
98236.9
98261
98306.1
98359.3
98409.4
98450
98480.9
98504.3
98521.9
98534.7
98543.9
98359.7
98394.4
98421.8
98468.9
98514.9
98555.6
98587.1
98610.3
98627.3
98639.6
98648.3
98654.2
98489.7
98544.2
98576.9
98623.8
98661.7
98692.1
98714.1
98729.7
98740.5
98748
98753
98756
98629.4
98706.5
98731.9
98770.4
98798.1
98817.3
98830
98838.1
98843.4
98846.9
98848.9
98849.5
98742.7
98862.4
98878.3
98899.5
98914.2
98923.3
98928.6
98931.5
98933.3
98934.6
98935.1
98934.4
97416.1
97400.2
97403.6
97426.2
97464.9
97517.1
97579.1
97644.1
97701.6
97743.3
97769.5
97746.1
97776
97775.3
97777.3
97781
97790.4
97804.8
97823.3
97842.9
97858.7
97877.9
97889.5
97805.9
97879.8
97889
97897.3
97906.2
97917.5
97928.9
97939.3
97945.1
97942.9
97941.8
97929.8
97804.6
98031.4
98044.3
98054.4
98061.9
98066.9
98069.2
98068
98059.9
98041.8
98019.5
97989.7
97829.3
98175.5
98185.7
98192.5
98196.5
98197.5
98195.2
98188.3
98175.1
98151.3
98118
98077.8
97901.9
98308.7
98316.9
98321.9
98323.9
98323.1
98319
98310.4
98296.2
98272.9
98237.7
98194.4
98021.6
98433.7
98439.6
98442.8
98443.6
98442.1
98438.1
98431.1
98419.8
98401.9
98373.6
98339.6
98186.9
98550.1
98553.8
98555.5
98555.5
98554.2
98551.7
98547.9
98542.4
98534
98519.6
98506.4
98393.9
98657.9
98659.6
98660
98659.4
98658.4
98657.8
98658.1
98659.6
98663
98667.7
98685.4
98637.5
98757.3
98757.1
98756.2
98754.7
98753.8
98754.7
98758.6
98766.8
98781.6
98806
98864
98902
98848.9
98846.5
98843.9
98841.2
98839.5
98840.7
98846.6
98859.6
98882.5
98922.3
99023.4
99158.1
98932.4
98927.8
98923.1
98918.1
98914.6
98914.4
98919.8
98933.8
98958.5
99004.3
99120.3
99380.5
99003.6
99006.3
98999.8
98998.8
99001
99003.7
99005.3
99006.7
99008.2
99009.8
99010.7
99010.2
99043.6
99026.4
99033.3
99040.9
99048.3
99054.5
99059.3
99063.8
99068.4
99073
99076.3
99078
99060.5
99055.2
99062.8
99070.9
99079.6
99088.7
99097.9
99107.4
99117.2
99127.1
99135
99141.5
99073.9
99076.8
99082.9
99090.4
99099.9
99111.8
99125.8
99141.6
99159
99177.1
99194
99209.8
99008.1
99001
98993.6
98985.2
98978.5
98974.9
98976.9
98987.6
99006.8
99039
99077.7
99177.9
99076.4
99066.1
99055.6
99042.6
99031
99021.8
99017.9
99022.5
99034.5
99057.9
99071.6
99113.4
99140.3
99124.1
99110.1
99090.9
99072.5
99055.1
99042.6
99038.5
99042
99058.3
99065.8
99089.2
99208.8
99180.3
99161.4
99133.2
99106.3
99078.2
99054.2
99037.2
99029.8
99038.8
99046.8
99072.7
99003.6
99006.3
98999.8
98998.8
99001
99003.7
99005.3
99006.7
99008.2
99009.8
99010.7
99010.2
99043.6
99026.4
99033.3
99040.9
99048.3
99054.5
99059.3
99063.8
99068.4
99073
99076.3
99078
99060.5
99055.2
99062.8
99070.9
99079.6
99088.7
99097.9
99107.4
99117.2
99127.1
99135
99141.5
99073.9
99076.8
99082.9
99090.4
99099.9
99111.8
99125.8
99141.6
99159
99177.1
99194
99209.8
99008.1
99001
98993.6
98985.2
98978.5
98974.9
98976.9
98987.6
99006.8
99039
99077.7
99177.9
99076.4
99066.1
99055.6
99042.6
99031
99021.8
99017.9
99022.5
99034.5
99057.9
99071.6
99113.4
99140.3
99124.1
99110.1
99090.9
99072.5
99055.1
99042.6
99038.5
99042
99058.3
99065.8
99089.2
99208.8
99180.3
99161.4
99133.2
99106.3
99078.2
99054.2
99037.2
99029.8
99038.8
99046.8
99072.7
99003.6
99006.3
98999.8
98998.8
99001
99003.7
99005.3
99006.7
99008.2
99009.8
99010.7
99010.2
99043.6
99026.4
99033.3
99040.9
99048.3
99054.5
99059.3
99063.8
99068.4
99073
99076.3
99078
99060.5
99055.2
99062.8
99070.9
99079.6
99088.7
99097.9
99107.4
99117.2
99127.1
99135
99141.5
99073.9
99076.8
99082.9
99090.4
99099.9
99111.8
99125.8
99141.6
99159
99177.1
99194
99209.8
99008.1
99001
98993.6
98985.2
98978.5
98974.9
98976.9
98987.6
99006.8
99039
99077.7
99177.9
99076.4
99066.1
99055.6
99042.6
99031
99021.8
99017.9
99022.5
99034.5
99057.9
99071.6
99113.4
99140.3
99124.1
99110.1
99090.9
99072.5
99055.1
99042.6
99038.5
99042
99058.3
99065.8
99089.2
99208.8
99180.3
99161.4
99133.2
99106.3
99078.2
99054.2
99037.2
99029.8
99038.8
99046.8
99072.7
99003.6
99006.3
98999.8
98998.8
99001
99003.7
99005.3
99006.7
99008.2
99009.8
99010.7
99010.2
99043.6
99026.4
99033.3
99040.9
99048.3
99054.5
99059.3
99063.8
99068.4
99073
99076.3
99078
99060.5
99055.2
99062.8
99070.9
99079.6
99088.7
99097.9
99107.4
99117.2
99127.1
99135
99141.5
99073.9
99076.8
99082.9
99090.4
99099.9
99111.8
99125.8
99141.6
99159
99177.1
99194
99209.8
99008.1
99001
98993.6
98985.2
98978.5
98974.9
98976.9
98987.6
99006.8
99039
99077.7
99177.9
99076.4
99066.1
99055.6
99042.6
99031
99021.8
99017.9
99022.5
99034.5
99057.9
99071.6
99113.4
99140.3
99124.1
99110.1
99090.9
99072.5
99055.1
99042.6
99038.5
99042
99058.3
99065.8
99089.2
99208.8
99180.3
99161.4
99133.2
99106.3
99078.2
99054.2
99037.2
99029.8
99038.8
99046.8
99072.7
99091.1
99099.5
99105.2
99111.8
99120
99130.7
99143.4
99158.1
99174.3
99191.6
99208.7
99226.9
99114.9
99121.9
99127.5
99133.6
99140.2
99147.8
99155.9
99164.6
99173.2
99182.6
99191
99205.2
99134.4
99139.7
99144.2
99149
99153.8
99158.9
99163.7
99168.5
99172.2
99177.4
99181.5
99186.9
99148.9
99152.6
99155.7
99159
99161.8
99164.8
99167.1
99169.1
99169.9
99172.7
99169.4
99143.9
99240.2
99213.6
99194.8
99164.4
99137.1
99107.1
99080.8
99059.6
99047.4
99049.3
99054
99076.9
99240
99211.6
99201.8
99177.3
99157.8
99135.4
99116.6
99101.4
99092.5
99092.3
99094.6
99107
99260.9
99211.7
99210.5
99188.7
99173.9
99156
99141.6
99129.7
99122.7
99121.5
99122.7
99129.7
99305.6
99210
99217.4
99198.3
99186.5
99171.6
99159.9
99150.1
99144.1
99142.2
99142.1
99145.9
99091.1
99099.5
99105.2
99111.8
99120
99130.7
99143.4
99158.1
99174.3
99191.6
99208.7
99226.9
99114.9
99121.9
99127.5
99133.6
99140.2
99147.8
99155.9
99164.6
99173.2
99182.6
99191
99205.2
99134.4
99139.7
99144.2
99149
99153.8
99158.9
99163.7
99168.5
99172.2
99177.4
99181.5
99186.9
99148.9
99152.6
99155.7
99159
99161.8
99164.8
99167.1
99169.1
99169.9
99172.7
99169.4
99143.9
99240.2
99213.6
99194.8
99164.4
99137.1
99107.1
99080.8
99059.6
99047.4
99049.3
99054
99076.9
99240
99211.6
99201.8
99177.3
99157.8
99135.4
99116.6
99101.4
99092.5
99092.3
99094.6
99107
99260.9
99211.7
99210.5
99188.7
99173.9
99156
99141.6
99129.7
99122.7
99121.5
99122.7
99129.7
99305.6
99210
99217.4
99198.3
99186.5
99171.6
99159.9
99150.1
99144.1
99142.2
99142.1
99145.9
99091.1
99099.5
99105.2
99111.8
99120
99130.7
99143.4
99158.1
99174.3
99191.6
99208.7
99226.9
99114.9
99121.9
99127.5
99133.6
99140.2
99147.8
99155.9
99164.6
99173.2
99182.6
99191
99205.2
99134.4
99139.7
99144.2
99149
99153.8
99158.9
99163.7
99168.5
99172.2
99177.4
99181.5
99186.9
99148.9
99152.6
99155.7
99159
99161.8
99164.8
99167.1
99169.1
99169.9
99172.7
99169.4
99143.9
99240.2
99213.6
99194.8
99164.4
99137.1
99107.1
99080.8
99059.6
99047.4
99049.3
99054
99076.9
99240
99211.6
99201.8
99177.3
99157.8
99135.4
99116.6
99101.4
99092.5
99092.3
99094.6
99107
99260.9
99211.7
99210.5
99188.7
99173.9
99156
99141.6
99129.7
99122.7
99121.5
99122.7
99129.7
99305.6
99210
99217.4
99198.3
99186.5
99171.6
99159.9
99150.1
99144.1
99142.2
99142.1
99145.9
99091.1
99099.5
99105.2
99111.8
99120
99130.7
99143.4
99158.1
99174.3
99191.6
99208.7
99226.9
99114.9
99121.9
99127.5
99133.6
99140.2
99147.8
99155.9
99164.6
99173.2
99182.6
99191
99205.2
99134.4
99139.7
99144.2
99149
99153.8
99158.9
99163.7
99168.5
99172.2
99177.4
99181.5
99186.9
99148.9
99152.6
99155.7
99159
99161.8
99164.8
99167.1
99169.1
99169.9
99172.7
99169.4
99143.9
99240.2
99213.6
99194.8
99164.4
99137.1
99107.1
99080.8
99059.6
99047.4
99049.3
99054
99076.9
99240
99211.6
99201.8
99177.3
99157.8
99135.4
99116.6
99101.4
99092.5
99092.3
99094.6
99107
99260.9
99211.7
99210.5
99188.7
99173.9
99156
99141.6
99129.7
99122.7
99121.5
99122.7
99129.7
99305.6
99210
99217.4
99198.3
99186.5
99171.6
99159.9
99150.1
99144.1
99142.2
99142.1
99145.9
99158.9
99161.1
99162.7
99164.4
99165.5
99166.5
99166.4
99165.9
99162.4
99157.3
99146
99092.8
99165.1
99165.8
99166.1
99166.5
99166.2
99165.8
99163.9
99161.2
99156.2
99153.2
99148.5
99123.8
99168.4
99168
99167.3
99166.8
99165.5
99163.7
99160.9
99159.5
99157
99152.4
99146.9
99128.3
99169.8
99168.8
99167.3
99165.8
99163.8
99163
99161.8
99159.9
99156.9
99152.6
99148.3
99136.1
99170.2
99168.4
99166.6
99165.9
99165
99163.7
99161.6
99159.2
99156.2
99152.2
99148.2
99139.8
99170.1
99168.9
99167.7
99166.4
99164.8
99163.2
99161.4
99159.2
99156.3
99152.8
99149.3
99143.2
99171.1
99169.5
99167.7
99166.4
99164.8
99163.1
99161
99158.8
99156
99152.7
99149.7
99145.3
99171.4
99169.7
99168
99166.4
99164.7
99163.1
99161.1
99158.8
99156.1
99153.1
99150.3
99146.9
99171.7
99169.9
99168
99166.5
99164.6
99162.9
99160.8
99158.6
99155.9
99153.3
99150.6
99148.1
99172.1
99170
99168.2
99166.4
99164.8
99162.9
99160.9
99158.6
99156.1
99153.4
99151
99148.8
99172.1
99170.2
99168.2
99166.5
99164.6
99162.8
99160.7
99158.6
99156
99153.6
99151.1
99149.3
99172.4
99170.1
99168.4
99166.4
99164.8
99162.8
99160.8
99158.5
99156.1
99153.6
99151.3
99149.5
99402.9
99204.8
99221
99205
99195.3
99182.7
99173.2
99164.9
99159.6
99156.9
99155.7
99157.4
99377.1
99200.1
99222
99208.7
99201.1
99190.4
99182.4
99175.2
99170
99166.7
99164.7
99164.9
99358.6
99199.5
99222.5
99210.2
99204.7
99195.4
99188.3
99181.7
99176.5
99172.8
99170.2
99169.2
99323.4
99196.5
99221.5
99210.4
99206.5
99198.5
99191.7
99185.5
99180.2
99176.2
99173.2
99171.4
99290.4
99194.4
99220.5
99210.3
99207
99200.2
99193.4
99187.4
99182.1
99178
99174.7
99172.4
99261.5
99195
99219.7
99210.6
99206.6
99200.8
99194.1
99188.4
99183
99178.8
99175
99172.4
99234.7
99198.9
99218.8
99211.5
99206.6
99200.9
99194.2
99188.5
99183.2
99179.1
99175.5
99173.3
99212.9
99209.6
99218.6
99212.9
99206.5
99201
99194.3
99188.9
99183.8
99179.9
99176.4
99173.8
99192.4
99220.4
99218.2
99214.7
99207
99201.6
99194.9
99189.8
99184.4
99180.5
99176.8
99174.3
99188.3
99235.5
99220.6
99217
99208.8
99202.1
99195.7
99190.1
99185.1
99180.9
99177.4
99174.4
99143.2
99244.5
99221.2
99218.7
99209.9
99202.9
99196.2
99190.7
99185.3
99181.3
99177.4
99174.8
99217.1
99283.9
99227.4
99221.3
99211.6
99203.1
99196.8
99190.6
99185.8
99181.2
99177.9
99174.7
99158.9
99161.1
99162.7
99164.4
99165.5
99166.5
99166.4
99165.9
99162.4
99157.3
99146
99092.8
99165.1
99165.8
99166.1
99166.5
99166.2
99165.8
99163.9
99161.2
99156.2
99153.2
99148.5
99123.8
99168.4
99168
99167.3
99166.8
99165.5
99163.7
99160.9
99159.5
99157
99152.4
99146.9
99128.3
99169.8
99168.8
99167.3
99165.8
99163.8
99163
99161.8
99159.9
99156.9
99152.6
99148.3
99136.1
99170.2
99168.4
99166.6
99165.9
99165
99163.7
99161.6
99159.2
99156.2
99152.2
99148.2
99139.8
99170.1
99168.9
99167.7
99166.4
99164.8
99163.2
99161.4
99159.2
99156.3
99152.8
99149.3
99143.2
99171.1
99169.5
99167.7
99166.4
99164.8
99163.1
99161
99158.8
99156
99152.7
99149.7
99145.3
99171.4
99169.7
99168
99166.4
99164.7
99163.1
99161.1
99158.8
99156.1
99153.1
99150.3
99146.9
99171.7
99169.9
99168
99166.5
99164.6
99162.9
99160.8
99158.6
99155.9
99153.3
99150.6
99148.1
99172.1
99170
99168.2
99166.4
99164.8
99162.9
99160.9
99158.6
99156.1
99153.4
99151
99148.8
99172.1
99170.2
99168.2
99166.5
99164.6
99162.8
99160.7
99158.6
99156
99153.6
99151.1
99149.3
99172.4
99170.1
99168.4
99166.4
99164.8
99162.8
99160.8
99158.5
99156.1
99153.6
99151.3
99149.5
99402.9
99204.8
99221
99205
99195.3
99182.7
99173.2
99164.9
99159.6
99156.9
99155.7
99157.4
99377.1
99200.1
99222
99208.7
99201.1
99190.4
99182.4
99175.2
99170
99166.7
99164.7
99164.9
99358.6
99199.5
99222.5
99210.2
99204.7
99195.4
99188.3
99181.7
99176.5
99172.8
99170.2
99169.2
99323.4
99196.5
99221.5
99210.4
99206.5
99198.5
99191.7
99185.5
99180.2
99176.2
99173.2
99171.4
99290.4
99194.4
99220.5
99210.3
99207
99200.2
99193.4
99187.4
99182.1
99178
99174.7
99172.4
99261.5
99195
99219.7
99210.6
99206.6
99200.8
99194.1
99188.4
99183
99178.8
99175.1
99172.4
99234.7
99198.9
99218.8
99211.5
99206.6
99200.9
99194.2
99188.5
99183.2
99179.1
99175.5
99173.3
99212.9
99209.6
99218.6
99212.9
99206.5
99201
99194.3
99188.9
99183.8
99179.9
99176.4
99173.8
99192.4
99220.4
99218.2
99214.7
99207
99201.6
99194.9
99189.8
99184.4
99180.5
99176.8
99174.3
99188.3
99235.5
99220.6
99217
99208.8
99202.1
99195.7
99190.1
99185.1
99180.9
99177.4
99174.4
99143.2
99244.5
99221.2
99218.7
99209.9
99202.9
99196.2
99190.7
99185.3
99181.3
99177.4
99174.8
99217.1
99283.9
99227.4
99221.3
99211.6
99203.1
99196.8
99190.6
99185.8
99181.2
99177.9
99174.7
99158.9
99161.1
99162.7
99164.4
99165.5
99166.5
99166.4
99165.9
99162.4
99157.3
99146
99092.8
99165.1
99165.8
99166.1
99166.5
99166.2
99165.8
99163.9
99161.2
99156.2
99153.2
99148.5
99123.8
99168.4
99168
99167.3
99166.8
99165.5
99163.8
99160.9
99159.5
99157
99152.4
99146.9
99128.3
99169.8
99168.8
99167.3
99165.8
99163.8
99163
99161.8
99159.9
99156.9
99152.6
99148.3
99136.1
99170.2
99168.4
99166.6
99165.9
99165
99163.7
99161.6
99159.2
99156.2
99152.2
99148.2
99139.8
99170.1
99168.9
99167.7
99166.4
99164.8
99163.2
99161.4
99159.2
99156.3
99152.8
99149.3
99143.2
99171.1
99169.5
99167.7
99166.4
99164.8
99163.1
99161
99158.8
99156
99152.7
99149.7
99145.3
99171.4
99169.7
99168
99166.4
99164.7
99163.1
99161.1
99158.8
99156.1
99153.1
99150.3
99146.9
99171.7
99169.9
99168
99166.5
99164.6
99162.9
99160.8
99158.6
99155.9
99153.3
99150.6
99148.1
99172.1
99170
99168.2
99166.4
99164.8
99162.9
99160.9
99158.6
99156.1
99153.4
99151
99148.8
99172.1
99170.2
99168.2
99166.5
99164.6
99162.9
99160.7
99158.6
99156
99153.6
99151.1
99149.3
99172.4
99170.1
99168.4
99166.4
99164.8
99162.8
99160.8
99158.5
99156.1
99153.6
99151.3
99149.5
99402.9
99204.8
99221
99205
99195.3
99182.7
99173.2
99164.9
99159.6
99156.9
99155.7
99157.4
99377.1
99200.1
99222
99208.7
99201.1
99190.4
99182.4
99175.2
99170
99166.7
99164.7
99164.9
99358.6
99199.5
99222.5
99210.2
99204.7
99195.4
99188.3
99181.7
99176.5
99172.8
99170.2
99169.2
99323.4
99196.5
99221.5
99210.4
99206.5
99198.5
99191.7
99185.5
99180.2
99176.2
99173.2
99171.4
99290.4
99194.4
99220.5
99210.3
99207
99200.2
99193.4
99187.4
99182.1
99178
99174.7
99172.4
99261.5
99195
99219.7
99210.6
99206.6
99200.8
99194.1
99188.4
99183
99178.8
99175
99172.4
99234.7
99198.9
99218.8
99211.5
99206.6
99200.9
99194.2
99188.5
99183.2
99179.1
99175.5
99173.3
99212.9
99209.6
99218.6
99212.9
99206.5
99201
99194.3
99188.9
99183.8
99179.9
99176.4
99173.8
99192.4
99220.4
99218.2
99214.7
99207
99201.6
99194.9
99189.8
99184.4
99180.5
99176.8
99174.3
99188.3
99235.5
99220.6
99217
99208.8
99202.1
99195.7
99190.1
99185.1
99180.9
99177.4
99174.4
99143.2
99244.5
99221.2
99218.7
99209.9
99202.9
99196.2
99190.7
99185.3
99181.3
99177.4
99174.8
99217.1
99283.9
99227.4
99221.3
99211.6
99203.1
99196.8
99190.6
99185.8
99181.2
99177.9
99174.7
99158.9
99161.1
99162.7
99164.4
99165.5
99166.5
99166.4
99165.9
99162.4
99157.3
99146
99092.8
99165.1
99165.8
99166.1
99166.5
99166.2
99165.8
99163.9
99161.2
99156.2
99153.2
99148.5
99123.8
99168.4
99168
99167.3
99166.8
99165.5
99163.8
99160.9
99159.5
99157
99152.4
99146.9
99128.3
99169.8
99168.8
99167.3
99165.8
99163.8
99163
99161.8
99159.9
99156.9
99152.6
99148.3
99136.1
99170.2
99168.4
99166.6
99165.9
99165
99163.7
99161.6
99159.2
99156.2
99152.2
99148.2
99139.8
99170.1
99168.9
99167.7
99166.4
99164.8
99163.2
99161.4
99159.2
99156.3
99152.8
99149.3
99143.2
99171.1
99169.5
99167.7
99166.4
99164.8
99163.1
99161
99158.8
99156
99152.7
99149.7
99145.3
99171.4
99169.7
99168
99166.4
99164.7
99163.1
99161.1
99158.8
99156.1
99153.1
99150.3
99146.9
99171.7
99169.9
99168
99166.5
99164.6
99162.9
99160.8
99158.6
99155.9
99153.3
99150.6
99148.1
99172.1
99170
99168.2
99166.4
99164.8
99162.9
99160.9
99158.6
99156.1
99153.4
99151
99148.8
99172.1
99170.2
99168.2
99166.5
99164.6
99162.8
99160.7
99158.6
99156
99153.6
99151.1
99149.3
99172.4
99170.1
99168.4
99166.4
99164.8
99162.8
99160.8
99158.5
99156.1
99153.6
99151.3
99149.5
99402.9
99204.8
99221
99205
99195.3
99182.7
99173.2
99164.9
99159.6
99156.9
99155.7
99157.4
99377.1
99200.1
99222
99208.7
99201.1
99190.4
99182.4
99175.2
99170
99166.7
99164.7
99164.9
99358.6
99199.5
99222.5
99210.2
99204.7
99195.4
99188.3
99181.7
99176.5
99172.8
99170.2
99169.2
99323.4
99196.5
99221.5
99210.4
99206.5
99198.5
99191.7
99185.5
99180.2
99176.2
99173.2
99171.4
99290.4
99194.4
99220.5
99210.3
99207
99200.2
99193.4
99187.4
99182.1
99178
99174.7
99172.4
99261.5
99195
99219.7
99210.6
99206.6
99200.8
99194.1
99188.4
99183
99178.8
99175
99172.4
99234.7
99198.9
99218.8
99211.5
99206.6
99200.9
99194.2
99188.5
99183.2
99179.1
99175.5
99173.3
99212.9
99209.6
99218.6
99212.9
99206.5
99201
99194.3
99188.9
99183.8
99179.9
99176.4
99173.8
99192.4
99220.4
99218.2
99214.7
99207
99201.6
99194.9
99189.8
99184.4
99180.5
99176.8
99174.3
99188.3
99235.5
99220.6
99217
99208.8
99202.1
99195.7
99190.1
99185.1
99180.9
99177.4
99174.4
99143.2
99244.5
99221.2
99218.7
99209.9
99202.9
99196.2
99190.7
99185.3
99181.3
99177.4
99174.8
99217.1
99283.9
99227.4
99221.3
99211.6
99203.1
99196.8
99190.6
99185.8
99181.2
99177.9
99174.7
)
;

boundaryField
{
    rotor
    {
        type            zeroGradient;
    }
    stator
    {
        type            zeroGradient;
    }
    front
    {
        type            empty;
    }
    back
    {
        type            empty;
    }
}


// ************************************************************************* //
