/*--------------------------------*- C++ -*----------------------------------*\
| =========                 |                                                 |
| \\      /  F ield         | OpenFOAM: The Open Source CFD Toolbox           |
|  \\    /   O peration     | Version:  2212                                  |
|   \\  /    A nd           | Website:  www.openfoam.com                      |
|    \\/     M anipulation  |                                                 |
\*---------------------------------------------------------------------------*/
FoamFile
{
    version     2.0;
    format      ascii;
    arch        "LSB;label=32;scalar=64";
    class       surfaceScalarField;
    location    "0.07";
    object      phi;
}
// * * * * * * * * * * * * * * * * * * * * * * * * * * * * * * * * * * * * * //

dimensions      [1 0 -1 0 0 0 0];

oriented        oriented;

internalField   nonuniform List<scalar> 
5952
(
6.54858e-05
-6.54856e-05
0.000123405
-5.79194e-05
0.000154585
-3.11796e-05
0.000168019
-1.3434e-05
0.000166565
1.45448e-06
0.000131322
3.52431e-05
5.62198e-05
7.51025e-05
-8.12293e-05
0.000137449
-0.00029391
0.000212681
-0.000468083
0.000174174
-0.000597436
0.000129353
9.81091e-05
-0.000695545
5.21169e-05
-0.000117602
7.88159e-05
-8.46182e-05
7.2425e-05
-2.47884e-05
3.10295e-05
2.79617e-05
-5.39682e-05
8.64524e-05
-0.000187466
0.000168741
-0.000349846
0.000237482
-0.000474155
0.000261759
-0.000517434
0.000255959
-0.000555553
0.000212293
-0.00059462
0.00016842
0.000131126
-0.000627637
2.15109e-05
-0.000139113
1.45653e-05
-7.76724e-05
-2.71457e-05
1.69228e-05
-0.000112555
0.000113371
-0.000237382
0.00021128
-0.000349609
0.000280968
-0.000416459
0.000304332
-0.000452135
0.000297436
-0.000464515
0.00026834
-0.000476705
0.000224483
-0.000490999
0.000182714
0.000142308
-0.00050218
-3.49538e-05
-0.000104159
-8.01079e-05
-3.25181e-05
-0.000145128
8.19436e-05
-0.000225469
0.000193712
-0.000297693
0.000283504
-0.000340801
0.000324077
-0.000361471
0.000325003
-0.000369183
0.000305148
-0.000371066
0.000270223
-0.000373728
0.000227145
-0.000375964
0.00018495
0.000143343
-0.000376999
-5.94982e-05
-4.46601e-05
-0.000122133
3.01167e-05
-0.000183441
0.000143253
-0.000235992
0.000246263
-0.000267029
0.000314542
-0.000276444
0.000333492
-0.000275476
0.000324035
-0.000267624
0.000297297
-0.00025893
0.000261529
-0.000253095
0.00022131
-0.000248986
0.000180842
0.000140473
-0.000246116
-6.5995e-05
2.13351e-05
-0.000125418
8.95402e-05
-0.00017209
0.000189925
-0.000197442
0.000271615
-0.000200871
0.000317971
-0.000191645
0.000324266
-0.000176007
0.000308397
-0.000159491
0.000280781
-0.000144975
0.000247014
-0.000133753
0.000210088
-0.000125267
0.000172356
0.00013424
-0.000119034
-6.58975e-05
8.7233e-05
-0.000116869
0.000140512
-0.000144424
0.00021748
-0.000145391
0.000272582
-0.000127652
0.000300232
-0.000102572
0.000299187
-7.66161e-05
0.000282441
-5.28495e-05
0.000257015
-3.26968e-05
0.000226862
-1.65832e-05
0.000193975
-4.00983e-06
0.000159783
0.000124679
5.55184e-06
-6.74867e-05
0.00015472
-0.000104189
0.000177215
-0.000110445
0.000223736
-8.97707e-05
0.000251908
-5.46106e-05
0.000265073
-1.66263e-05
0.000261203
1.90566e-05
0.000246759
5.03363e-05
0.000225736
7.66323e-05
0.000200566
9.80509e-05
0.000172556
0.000115181
0.000142653
0.000111245
0.000128615
-5.69973e-05
0.000211718
-8.26773e-05
0.000202896
-6.76422e-05
0.000208701
-2.9134e-05
0.0002134
2.00542e-05
0.000215885
6.92879e-05
0.000211969
0.000114151
0.000201896
0.000153051
0.000186836
0.000185857
0.000167761
0.000213001
0.000145413
0.000235178
0.000120476
9.33868e-05
0.000253036
-6.04802e-05
0.000272198
-4.97185e-05
0.000192134
-4.75834e-06
0.000163741
5.19935e-05
0.000156649
0.000112823
0.000155055
0.000170473
0.00015432
0.000221983
0.000150386
0.000266522
0.000142298
0.000304346
0.000129937
0.000336104
0.000113655
0.000362553
9.40271e-05
7.15905e-05
0.00038435
7.62901e-06
0.00026457
5.66709e-05
0.000143093
0.00012492
9.5493e-05
0.000192708
8.88616e-05
0.00025615
9.16135e-05
0.000313316
9.7155e-05
0.000363744
9.99582e-05
0.000407628
9.8414e-05
0.000445512
9.20538e-05
0.000478023
8.11451e-05
0.000505792
6.62576e-05
4.80746e-05
0.000529309
0.000219188
4.53826e-05
0.000314287
4.79941e-05
0.000381206
2.8574e-05
0.000433932
3.6136e-05
0.000478193
4.73533e-05
0.000518122
5.7226e-05
0.000554826
6.32546e-05
0.000588459
6.47811e-05
0.000619043
6.14701e-05
0.000646592
5.35965e-05
0.000671223
4.1627e-05
0.000692985
2.63133e-05
-0.000763864
6.83195e-05
-0.000804561
4.06967e-05
-0.00082118
1.66191e-05
-0.000814423
-6.75632e-06
-0.000786333
-2.80905e-05
-0.00073581
-5.05225e-05
-0.000661283
-7.45268e-05
-0.000560934
-0.000100349
-0.000432605
-0.000128329
-0.000276567
-0.000156038
-0.000111974
-0.000164593
-0.000111974
-0.000650604
9.12864e-05
-0.000665121
5.52136e-05
-0.000669793
2.12916e-05
-0.000665376
-1.1173e-05
-0.000649695
-4.37712e-05
-0.000621113
-7.91044e-05
-0.000577732
-0.000117907
-0.000517144
-0.000160937
-0.000436371
-0.000209102
-0.000332651
-0.000259757
-0.000197528
-0.000299716
-0.000309502
-0.000511585
0.000100692
-0.000517468
6.10974e-05
-0.000518787
2.26107e-05
-0.00051381
-1.61503e-05
-0.000500672
-5.69086e-05
-0.000478503
-0.000101274
-0.000445843
-0.000150567
-0.000401303
-0.000205476
-0.000343094
-0.000267311
-0.000266163
-0.000336688
-0.000159852
-0.000406027
-0.000469353
-0.000378215
0.000101907
-0.000378479
6.13626e-05
-0.0003764
2.05314e-05
-0.000370804
-2.1746e-05
-0.000360815
-6.68977e-05
-0.000345651
-0.000116437
-0.000324082
-0.000172137
-0.000295135
-0.000234423
-0.000256515
-0.000305931
-0.000203704
-0.000389498
-0.000124717
-0.000485014
-0.00059407
-0.000244285
0.000100076
-0.000242497
5.95748e-05
-0.000239993
1.80273e-05
-0.000236102
-2.56362e-05
-0.000230292
-7.2708e-05
-0.000221976
-0.000124752
-0.000210595
-0.000183517
-0.000194895
-0.000250122
-0.000172805
-0.000328022
-0.000141539
-0.000420764
-8.95969e-05
-0.000536955
-0.000683667
-0.000114613
9.56556e-05
-0.000111351
5.63134e-05
-0.00010877
1.54466e-05
-0.000106508
-2.7898e-05
-0.00010431
-7.49054e-05
-0.000102048
-0.000127014
-9.96968e-05
-0.000185869
-9.64573e-05
-0.000253361
-9.15586e-05
-0.00033292
-8.25877e-05
-0.000429735
-6.02164e-05
-0.000559326
-0.000743883
1.2575e-05
8.86328e-05
1.75109e-05
5.13778e-05
2.06232e-05
1.23345e-05
2.19986e-05
-2.92731e-05
2.15413e-05
-7.44477e-05
1.899e-05
-0.000124463
1.40015e-05
-0.00018088
6.44339e-06
-0.000245803
-3.58343e-06
-0.000322893
-1.47329e-05
-0.000418585
-2.21784e-05
-0.000551881
-0.000766061
0.000138837
7.84114e-05
0.000146184
4.4031e-05
0.000150759
7.76028e-06
0.000152415
-3.09294e-05
0.000150735
-7.27671e-05
0.000145024
-0.000118751
0.000134303
-0.000170159
0.000117405
-0.000228904
9.29789e-05
-0.000298466
6.03722e-05
-0.000385978
2.23535e-05
-0.000513862
-0.000743708
0.000267079
6.43685e-05
0.000277594
3.35166e-05
0.000284581
7.73655e-07
0.00028773
-3.40779e-05
0.000286359
-7.13961e-05
0.000279381
-0.000111773
0.000265147
-0.000155924
0.000241438
-0.000205195
0.000205087
-0.000262115
0.000152493
-0.000333384
8.13785e-05
-0.000442747
-0.000662329
0.000401994
4.67248e-05
0.000415742
1.97686e-05
0.000425527
-9.01054e-06
0.000430927
-3.94775e-05
0.000431076
-7.15446e-05
0.000424604
-0.0001053
0.000409294
-0.000140614
0.000382004
-0.000177905
0.000337593
-0.000217704
0.00026937
-0.000265161
0.000164794
-0.00033817
-0.000497534
0.000548956
2.70779e-05
0.000564894
3.83051e-06
0.000576959
-2.10752e-05
0.000584637
-4.71546e-05
0.000586928
-7.38352e-05
0.000582317
-0.000100689
0.000568299
-0.000126595
0.000541307
-0.000150914
0.000494579
-0.000170975
0.000419552
-0.000190134
0.000288318
-0.000206936
-0.000209216
0.000711982
8.08107e-06
0.000728156
-1.23429e-05
0.000741162
-3.40806e-05
0.000750357
-5.63492e-05
0.00075467
-7.81479e-05
0.000752569
-9.8588e-05
0.000741572
-0.000115597
0.000718459
-0.0001278
0.000676726
-0.000129242
0.000604169
-0.000117576
0.000452177
-5.49438e-05
0.000242961
6.07597e-05
-6.07595e-05
0.000116488
-5.57277e-05
0.000147974
-3.14864e-05
0.000160444
-1.24697e-05
0.000162082
-1.63819e-06
0.00013841
2.36728e-05
7.42108e-05
6.41992e-05
-3.54993e-05
0.00010971
-0.000235135
0.000199636
-0.000418501
0.000183366
-0.00055001
0.000131509
0.000102927
-0.000652937
5.0609e-05
-0.000111368
7.88647e-05
-8.39832e-05
7.66847e-05
-2.93062e-05
4.50706e-05
1.91446e-05
-2.51842e-05
6.86168e-05
-0.000142406
0.000140895
-0.000297257
0.00021905
-0.000438195
0.000250648
-0.00049318
0.000254622
-0.000527196
0.000217382
-0.000566898
0.00017121
0.000135629
-0.0005996
2.66354e-05
-0.000138003
2.71647e-05
-8.45124e-05
-4.30505e-06
2.16381e-06
-7.52711e-05
9.01109e-05
-0.000190879
0.000184225
-0.000312785
0.000262801
-0.000389802
0.000296068
-0.000431745
0.000292591
-0.000445609
0.000268486
-0.000455601
0.000227374
-0.000469449
0.000185059
0.000146153
-0.000479973
-2.54258e-05
-0.000112577
-6.07289e-05
-4.9209e-05
-0.000116934
5.83696e-05
-0.000193615
0.000166791
-0.000271577
0.000262188
-0.000322143
0.000313366
-0.000345943
0.000319869
-0.000354946
0.000301594
-0.000356592
0.000270133
-0.000358171
0.000228954
-0.000360329
0.000187216
0.000146773
-0.000360948
-5.15138e-05
-6.10632e-05
-0.000108877
8.15489e-06
-0.000168322
0.000117814
-0.00022333
0.000221799
-0.000259181
0.00029804
-0.00026994
0.000324126
-0.000267515
0.000317444
-0.000259423
0.000293502
-0.000249384
0.000260094
-0.000242054
0.000221625
-0.000237056
0.000182218
0.000143085
-0.000233368
-6.33039e-05
2.24096e-06
-0.000121383
6.6234e-05
-0.000169319
0.000165751
-0.000197097
0.000249577
-0.000201492
0.000302435
-0.000190803
0.000313437
-0.000173596
0.000300238
-0.000155447
0.000275353
-0.000139225
0.000243872
-0.000126458
0.000208858
-0.000116916
0.000172676
0.000136144
-0.000109974
-6.70383e-05
6.92795e-05
-0.000119745
0.000118941
-0.000149449
0.000195456
-0.000151657
0.000251786
-0.000133105
0.000283883
-0.000106118
0.00028645
-7.8315e-05
0.000272435
-5.26531e-05
0.000249691
-3.0738e-05
0.000221957
-1.31428e-05
0.000191263
4.59238e-07
0.000159074
0.000125988
1.06156e-05
-7.064e-05
0.00013992
-0.000110624
0.000158925
-0.000119378
0.00020421
-9.9795e-05
0.000232203
-6.38703e-05
0.000247958
-2.42486e-05
0.000246829
1.32423e-05
0.000234945
4.6375e-05
0.000216559
7.43549e-05
0.000193977
9.71569e-05
0.000168462
0.000115249
0.000140983
0.000112039
0.000129198
-6.12687e-05
0.000201189
-9.09625e-05
0.00018862
-7.88084e-05
0.000192056
-4.19708e-05
0.000195366
7.30966e-06
0.000198678
5.7669e-05
0.00019647
0.000104061
0.000188553
0.00014461
0.00017601
0.000178946
0.000159642
0.00020734
0.000140068
0.000230386
0.000117937
9.37264e-05
0.000248699
-6.54169e-05
0.000266606
-5.85047e-05
0.000181708
-1.71268e-05
0.000150679
3.73489e-05
0.00014089
9.75893e-05
0.000138438
0.000155707
0.000138353
0.00020817
0.00013609
0.000253867
0.000130313
0.000292851
0.000120659
0.0003256
0.000107319
0.000352756
9.07813e-05
7.15607e-05
0.000374922
3.21587e-06
0.000263391
4.6733e-05
0.000138191
0.000111673
8.57395e-05
0.000177265
7.52983e-05
0.000239699
7.6005e-05
0.00029653
8.15224e-05
0.00034705
8.55702e-05
0.000391331
8.60328e-05
0.000429797
8.21927e-05
0.000462933
7.41838e-05
0.000491195
6.25191e-05
4.77743e-05
0.000514982
0.00021162
5.17715e-05
0.00030219
4.76211e-05
0.00036736
2.05699e-05
0.000418544
2.41146e-05
0.000461159
3.33905e-05
0.000499718
4.29639e-05
0.000535508
4.97804e-05
0.000568736
5.2805e-05
0.00059935
5.15794e-05
0.000627219
4.63154e-05
0.000652219
3.75195e-05
0.000674254
2.57394e-05
-0.000724019
7.10829e-05
-0.000768313
4.42936e-05
-0.000787798
1.94854e-05
-0.000784164
-3.63369e-06
-0.000758902
-2.5262e-05
-0.000711709
-4.71936e-05
-0.000640339
-7.13691e-05
-0.000543498
-9.68409e-05
-0.000418593
-0.000124906
-0.000266287
-0.000152305
-0.000106044
-0.000160243
-0.000106044
-0.000623614
9.50966e-05
-0.00063877
5.94505e-05
-0.000644694
2.54096e-05
-0.000641481
-6.84734e-06
-0.00062777
-3.89722e-05
-0.000601161
-7.38022e-05
-0.000560317
-0.000112213
-0.000502325
-0.000154833
-0.000424505
-0.000202725
-0.000323956
-0.000252854
-0.000192291
-0.000291908
-0.000298335
-0.000489874
0.000104998
-0.000496245
6.5822e-05
-0.000498523
2.7688e-05
-0.000494891
-1.04798e-05
-0.00048333
-5.0533e-05
-0.000463
-9.41318e-05
-0.000432406
-0.000142807
-0.000390338
-0.000196901
-0.000334959
-0.000258104
-0.000260912
-0.000326901
-0.000157648
-0.000395172
-0.000455982
-0.000361767
0.000105816
-0.00036197
6.60253e-05
-0.000360386
2.61042e-05
-0.00035571
-1.51558e-05
-0.000347007
-5.92352e-05
-0.000333498
-0.000107641
-0.000313836
-0.000162468
-0.000286967
-0.00022377
-0.000250525
-0.000294546
-0.000199537
-0.000377889
-0.000122238
-0.00047247
-0.000578221
-0.00023125
0.000103699
-0.00022962
6.43952e-05
-0.000227685
2.41696e-05
-0.00022473
-1.81105e-05
-0.000220168
-6.37973e-05
-0.000213325
-0.000114484
-0.000203659
-0.000172133
-0.000189727
-0.000237702
-0.000169366
-0.000314907
-0.00014002
-0.000407235
-8.96127e-05
-0.000522877
-0.000667833
-0.000105358
9.90839e-05
-0.00010234
6.13767e-05
-0.000100381
2.22108e-05
-9.9062e-05
-1.94288e-05
-9.80663e-05
-6.47928e-05
-9.71592e-05
-0.000115391
-9.63015e-05
-0.000172991
-9.44933e-05
-0.00023951
-9.08749e-05
-0.000318525
-8.29315e-05
-0.000415178
-6.09191e-05
-0.000544889
-0.000728752
1.77426e-05
9.19573e-05
2.23553e-05
5.67642e-05
2.47868e-05
1.97796e-05
2.51941e-05
-1.98358e-05
2.3557e-05
-6.31554e-05
1.97054e-05
-0.000111539
1.33882e-05
-0.000166673
4.64014e-06
-0.000230762
-6.26453e-06
-0.00030762
-1.78096e-05
-0.000403633
-2.49703e-05
-0.000537728
-0.000753722
0.000139462
8.16936e-05
0.000146433
4.97932e-05
0.00015029
1.59234e-05
0.000150972
-2.05177e-05
0.000148153
-6.03365e-05
0.000141242
-0.000104628
0.000129384
-0.000154815
0.000111594
-0.000212972
8.67757e-05
-0.000282801
5.4598e-05
-0.000371455
1.80686e-05
-0.000501199
-0.000735653
0.00026275
6.7643e-05
0.000272864
3.96793e-05
0.000279122
9.6656e-06
0.000281319
-2.27142e-05
0.000278885
-5.79024e-05
0.000270849
-9.65909e-05
0.000255699
-0.000139665
0.000231401
-0.000188674
0.000195063
-0.000246463
0.000143404
-0.000319795
7.4929e-05
-0.000432723
-0.000660724
0.000392534
5.00307e-05
0.000405864
2.63502e-05
0.000414925
6.0475e-07
0.000419421
-2.721e-05
0.000418616
-5.70968e-05
0.000411279
-8.92538e-05
0.000395359
-0.000123744
0.000367898
-0.000161213
0.000324004
-0.000202569
0.000257231
-0.000253022
0.00015631
-0.000331802
-0.000504413
0.000534545
3.04681e-05
0.000550036
1.08594e-05
0.000561388
-1.07466e-05
0.000568231
-3.40527e-05
0.000569712
-5.85776e-05
0.00056449
-8.40319e-05
0.000550281
-0.000109535
0.0005237
-0.000134631
0.000478194
-0.000157062
0.000405322
-0.00018015
0.000278396
-0.000204876
-0.000226017
0.000693183
1.15397e-05
0.000708905
-4.86287e-06
0.000721205
-2.3046e-05
0.000729645
-4.24924e-05
0.000733356
-6.22875e-05
0.000731052
-8.17276e-05
0.000720578
-9.90614e-05
0.000698891
-0.000112944
0.000659623
-0.000117793
0.000590245
-0.000110772
0.000443688
-5.83187e-05
0.000217671
6.54854e-05
-6.54852e-05
0.000123405
-5.79193e-05
0.000154585
-3.11796e-05
0.000168019
-1.34339e-05
0.000166565
1.45406e-06
0.000131323
3.52417e-05
5.6222e-05
7.51016e-05
-8.12249e-05
0.000137447
-0.000293905
0.000212681
-0.00046808
0.000174175
-0.000597434
0.000129353
9.81098e-05
-0.000695543
5.21169e-05
-0.000117602
7.88163e-05
-8.46185e-05
7.2426e-05
-2.47891e-05
3.10317e-05
2.79607e-05
-5.39646e-05
8.64506e-05
-0.000187461
0.000168739
-0.000349841
0.000237482
-0.000474153
0.00026176
-0.000517433
0.000255961
-0.000555552
0.000212295
-0.00059462
0.000168421
0.000131127
-0.000627637
2.15119e-05
-0.000139113
1.45675e-05
-7.76739e-05
-2.71421e-05
1.69206e-05
-0.000112549
0.000113368
-0.000237377
0.000211278
-0.000349606
0.000280968
-0.000416457
0.000304333
-0.000452135
0.000297437
-0.000464515
0.000268341
-0.000476705
0.000224484
-0.000490999
0.000182715
0.000142309
-0.00050218
-3.49521e-05
-0.000104161
-8.01046e-05
-3.25211e-05
-0.000145124
8.19404e-05
-0.000225465
0.000193709
-0.000297691
0.000283504
-0.0003408
0.000324078
-0.000361471
0.000325005
-0.000369184
0.00030515
-0.000371067
0.000270225
-0.000373729
0.000227146
-0.000375964
0.000184951
0.000143344
-0.000377
-5.94968e-05
-4.4664e-05
-0.00012213
3.01128e-05
-0.000183439
0.00014325
-0.000235991
0.000246262
-0.00026703
0.000314542
-0.000276445
0.000333494
-0.000275476
0.000324037
-0.000267625
0.000297299
-0.000258931
0.000261531
-0.000253096
0.000221311
-0.000248987
0.000180843
0.000140474
-0.000246117
-6.59944e-05
2.13307e-05
-0.000125417
8.95362e-05
-0.00017209
0.000189923
-0.000197443
0.000271615
-0.000200872
0.000317972
-0.000191646
0.000324268
-0.000176008
0.000308399
-0.000159492
0.000280783
-0.000144976
0.000247016
-0.000133754
0.000210089
-0.000125268
0.000172357
0.000134241
-0.000119034
-6.58978e-05
8.72288e-05
-0.00011687
0.000140509
-0.000144426
0.000217479
-0.000145392
0.000272582
-0.000127653
0.000300233
-0.000102573
0.000299188
-7.66171e-05
0.000282443
-5.28503e-05
0.000257016
-3.26974e-05
0.000226863
-1.65837e-05
0.000193976
-4.01017e-06
0.000159784
0.000124679
5.55157e-06
-6.74875e-05
0.000154717
-0.000104191
0.000177213
-0.000110447
0.000223735
-8.97727e-05
0.000251908
-5.46122e-05
0.000265073
-1.66274e-05
0.000261204
1.90557e-05
0.00024676
5.03357e-05
0.000225737
7.66319e-05
0.000200567
9.80506e-05
0.000172557
0.000115181
0.000142654
0.000111246
0.000128615
-5.69985e-05
0.000211715
-8.26794e-05
0.000202894
-6.76444e-05
0.0002087
-2.91359e-05
0.0002134
2.00526e-05
0.000215885
6.92868e-05
0.00021197
0.00011415
0.000201897
0.00015305
0.000186837
0.000185856
0.000167762
0.000213001
0.000145413
0.000235177
0.000120477
9.33874e-05
0.000253036
-6.04815e-05
0.000272197
-4.97203e-05
0.000192133
-4.76034e-06
0.00016374
5.19916e-05
0.000156649
0.000112822
0.000155056
0.000170472
0.000154321
0.000221982
0.000150387
0.000266521
0.000142298
0.000304345
0.000129938
0.000336103
0.000113656
0.000362553
9.40277e-05
7.1591e-05
0.00038435
7.62823e-06
0.00026457
5.66696e-05
0.000143092
0.000124918
9.54923e-05
0.000192706
8.88612e-05
0.000256149
9.16133e-05
0.000313315
9.71551e-05
0.000363743
9.99585e-05
0.000407628
9.84145e-05
0.000445511
9.20543e-05
0.000478022
8.11456e-05
0.000505792
6.62581e-05
4.8075e-05
0.000529308
0.000219187
4.53828e-05
0.000314286
4.79939e-05
0.000381205
2.85737e-05
0.000433931
3.61356e-05
0.000478192
4.73532e-05
0.000518121
5.7226e-05
0.000554825
6.32547e-05
0.000588459
6.47814e-05
0.000619043
6.14704e-05
0.000646592
5.35968e-05
0.000671223
4.16274e-05
0.000692985
2.63137e-05
-0.000763863
6.832e-05
-0.00080456
4.06971e-05
-0.00082118
1.66195e-05
-0.000814423
-6.75614e-06
-0.000786333
-2.80904e-05
-0.000735811
-5.05224e-05
-0.000661284
-7.45268e-05
-0.000560934
-0.000100349
-0.000432605
-0.000128329
-0.000276567
-0.000156038
-0.000111974
-0.000164593
-0.000111974
-0.000650604
9.12871e-05
-0.000665121
5.52141e-05
-0.000669793
2.1292e-05
-0.000665376
-1.11728e-05
-0.000649695
-4.3771e-05
-0.000621113
-7.91043e-05
-0.000577733
-0.000117907
-0.000517145
-0.000160937
-0.000436371
-0.000209102
-0.000332652
-0.000259757
-0.000197528
-0.000299716
-0.000309502
-0.000511585
0.000100692
-0.000517469
6.1098e-05
-0.000518788
2.26111e-05
-0.00051381
-1.615e-05
-0.000500673
-5.69085e-05
-0.000478503
-0.000101274
-0.000445843
-0.000150567
-0.000401304
-0.000205476
-0.000343094
-0.000267311
-0.000266164
-0.000336688
-0.000159852
-0.000406028
-0.000469354
-0.000378215
0.000101908
-0.00037848
6.13631e-05
-0.0003764
2.05318e-05
-0.000370804
-2.17457e-05
-0.000360815
-6.68976e-05
-0.000345652
-0.000116437
-0.000324082
-0.000172137
-0.000295135
-0.000234423
-0.000256515
-0.000305931
-0.000203704
-0.000389499
-0.000124717
-0.000485014
-0.000594071
-0.000244285
0.000100077
-0.000242497
5.95753e-05
-0.000239993
1.80276e-05
-0.000236102
-2.5636e-05
-0.000230292
-7.27079e-05
-0.000221976
-0.000124752
-0.000210595
-0.000183518
-0.000194895
-0.000250122
-0.000172805
-0.000328022
-0.000141539
-0.000420764
-8.95969e-05
-0.000536956
-0.000683667
-0.000114613
9.56562e-05
-0.000111351
5.63138e-05
-0.00010877
1.54469e-05
-0.000106508
-2.78978e-05
-0.000104311
-7.49053e-05
-0.000102048
-0.000127014
-9.9697e-05
-0.000185869
-9.64575e-05
-0.000253361
-9.15588e-05
-0.00033292
-8.25878e-05
-0.000429735
-6.02165e-05
-0.000559327
-0.000743884
1.25748e-05
8.86333e-05
1.75107e-05
5.13783e-05
2.0623e-05
1.23349e-05
2.19984e-05
-2.92729e-05
2.15411e-05
-7.44476e-05
1.89898e-05
-0.000124463
1.40013e-05
-0.00018088
6.44323e-06
-0.000245803
-3.58356e-06
-0.000322893
-1.47329e-05
-0.000418585
-2.21784e-05
-0.000551881
-0.000766062
0.000138837
7.84119e-05
0.000146184
4.40315e-05
0.000150758
7.76061e-06
0.000152415
-3.09292e-05
0.000150735
-7.2767e-05
0.000145024
-0.000118751
0.000134303
-0.000170159
0.000117405
-0.000228905
9.29787e-05
-0.000298467
6.03721e-05
-0.000385978
2.23535e-05
-0.000513862
-0.000743708
0.000267079
6.4369e-05
0.000277594
3.35171e-05
0.000284581
7.7398e-07
0.00028773
-3.40777e-05
0.000286359
-7.1396e-05
0.000279381
-0.000111773
0.000265147
-0.000155924
0.000241438
-0.000205196
0.000205087
-0.000262115
0.000152493
-0.000333384
8.13785e-05
-0.000442747
-0.000662329
0.000401994
4.67253e-05
0.000415742
1.9769e-05
0.000425527
-9.01024e-06
0.000430927
-3.94773e-05
0.000431076
-7.15445e-05
0.000424604
-0.0001053
0.000409293
-0.000140614
0.000382004
-0.000177906
0.000337593
-0.000217704
0.00026937
-0.000265161
0.000164794
-0.000338171
-0.000497535
0.000548956
2.70783e-05
0.000564894
3.83085e-06
0.000576959
-2.10749e-05
0.000584637
-4.71544e-05
0.000586928
-7.38351e-05
0.000582317
-0.000100689
0.000568299
-0.000126595
0.000541307
-0.000150914
0.000494579
-0.000170975
0.000419552
-0.000190135
0.000288318
-0.000206937
-0.000209216
0.000711982
8.08138e-06
0.000728156
-1.23426e-05
0.000741162
-3.40804e-05
0.000750357
-5.63491e-05
0.00075467
-7.81478e-05
0.000752569
-9.8588e-05
0.000741572
-0.000115597
0.000718459
-0.000127801
0.000676727
-0.000129243
0.000604169
-0.000117576
0.000452177
-5.49443e-05
0.000242961
6.07597e-05
-6.07595e-05
0.000116488
-5.57277e-05
0.000147974
-3.14864e-05
0.000160444
-1.24697e-05
0.000162082
-1.63819e-06
0.00013841
2.36727e-05
7.42109e-05
6.41992e-05
-3.54992e-05
0.00010971
-0.000235135
0.000199636
-0.000418501
0.000183366
-0.00055001
0.000131509
0.000102927
-0.000652937
5.0609e-05
-0.000111368
7.88647e-05
-8.39832e-05
7.66847e-05
-2.93062e-05
4.50707e-05
1.91446e-05
-2.51841e-05
6.86167e-05
-0.000142406
0.000140895
-0.000297257
0.00021905
-0.000438195
0.000250648
-0.00049318
0.000254622
-0.000527196
0.000217382
-0.000566898
0.00017121
0.000135629
-0.0005996
2.66354e-05
-0.000138003
2.71648e-05
-8.45124e-05
-4.30492e-06
2.16374e-06
-7.52709e-05
9.01109e-05
-0.000190879
0.000184225
-0.000312785
0.000262801
-0.000389802
0.000296068
-0.000431745
0.000292591
-0.000445609
0.000268486
-0.000455601
0.000227374
-0.00046945
0.000185059
0.000146153
-0.000479973
-2.54257e-05
-0.000112577
-6.07288e-05
-4.92091e-05
-0.000116934
5.83695e-05
-0.000193615
0.000166791
-0.000271577
0.000262188
-0.000322143
0.000313367
-0.000345943
0.000319869
-0.000354945
0.000301594
-0.000356592
0.000270133
-0.000358171
0.000228954
-0.000360328
0.000187216
0.000146773
-0.000360948
-5.15138e-05
-6.10633e-05
-0.000108877
8.15478e-06
-0.000168322
0.000117814
-0.00022333
0.000221799
-0.000259181
0.00029804
-0.00026994
0.000324126
-0.000267515
0.000317444
-0.000259423
0.000293502
-0.000249383
0.000260094
-0.000242054
0.000221625
-0.000237055
0.000182218
0.000143085
-0.000233368
-6.33039e-05
2.24086e-06
-0.000121383
6.62339e-05
-0.000169319
0.000165751
-0.000197097
0.000249577
-0.000201492
0.000302435
-0.000190803
0.000313437
-0.000173596
0.000300238
-0.000155447
0.000275353
-0.000139225
0.000243872
-0.000126458
0.000208858
-0.000116916
0.000172676
0.000136144
-0.000109974
-6.70383e-05
6.92795e-05
-0.000119745
0.000118941
-0.000149449
0.000195456
-0.000151657
0.000251786
-0.000133105
0.000283883
-0.000106118
0.00028645
-7.83149e-05
0.000272435
-5.26531e-05
0.000249691
-3.07379e-05
0.000221957
-1.31427e-05
0.000191264
4.59321e-07
0.000159074
0.000125988
1.06157e-05
-7.064e-05
0.00013992
-0.000110624
0.000158925
-0.000119378
0.00020421
-9.9795e-05
0.000232203
-6.38702e-05
0.000247958
-2.42485e-05
0.000246829
1.32423e-05
0.000234945
4.6375e-05
0.000216559
7.4355e-05
0.000193977
9.7157e-05
0.000168462
0.000115249
0.000140983
0.000112039
0.000129198
-6.12687e-05
0.000201189
-9.09625e-05
0.000188619
-7.88084e-05
0.000192056
-4.19708e-05
0.000195366
7.30968e-06
0.000198678
5.7669e-05
0.00019647
0.000104061
0.000188553
0.00014461
0.00017601
0.000178946
0.000159642
0.00020734
0.000140068
0.000230386
0.000117937
9.37264e-05
0.000248699
-6.54168e-05
0.000266606
-5.85047e-05
0.000181708
-1.71268e-05
0.000150679
3.7349e-05
0.00014089
9.75893e-05
0.000138438
0.000155707
0.000138353
0.00020817
0.00013609
0.000253867
0.000130313
0.000292851
0.000120659
0.0003256
0.000107319
0.000352756
9.07814e-05
7.15608e-05
0.000374922
3.21593e-06
0.000263391
4.67331e-05
0.000138191
0.000111673
8.57393e-05
0.000177265
7.52982e-05
0.000239699
7.6005e-05
0.00029653
8.15224e-05
0.00034705
8.55702e-05
0.000391331
8.60328e-05
0.000429797
8.21927e-05
0.000462933
7.41839e-05
0.000491195
6.25192e-05
4.77744e-05
0.000514982
0.00021162
5.17713e-05
0.00030219
4.76209e-05
0.00036736
2.05698e-05
0.000418544
2.41145e-05
0.000461159
3.33905e-05
0.000499718
4.29638e-05
0.000535508
4.97804e-05
0.000568736
5.2805e-05
0.00059935
5.15794e-05
0.000627219
4.63155e-05
0.000652219
3.75196e-05
0.000674254
2.57394e-05
-0.00072402
7.10829e-05
-0.000768313
4.42936e-05
-0.000787798
1.94854e-05
-0.000784165
-3.63367e-06
-0.000758903
-2.5262e-05
-0.000711709
-4.71936e-05
-0.00064034
-7.13691e-05
-0.000543499
-9.68409e-05
-0.000418593
-0.000124906
-0.000266287
-0.000152305
-0.000106044
-0.000160243
-0.000106044
-0.000623614
9.50966e-05
-0.00063877
5.94505e-05
-0.000644694
2.54096e-05
-0.000641481
-6.84731e-06
-0.00062777
-3.89722e-05
-0.000601161
-7.38022e-05
-0.000560317
-0.000112213
-0.000502325
-0.000154833
-0.000424505
-0.000202725
-0.000323956
-0.000252854
-0.000192291
-0.000291908
-0.000298335
-0.000489874
0.000104998
-0.000496245
6.5822e-05
-0.000498523
2.7688e-05
-0.000494891
-1.04798e-05
-0.00048333
-5.0533e-05
-0.000463
-9.41318e-05
-0.000432407
-0.000142807
-0.000390338
-0.000196901
-0.000334959
-0.000258104
-0.000260912
-0.000326901
-0.000157648
-0.000395172
-0.000455982
-0.000361767
0.000105816
-0.00036197
6.60253e-05
-0.000360386
2.61043e-05
-0.00035571
-1.51557e-05
-0.000347007
-5.92351e-05
-0.000333498
-0.000107641
-0.000313836
-0.000162468
-0.000286967
-0.00022377
-0.000250525
-0.000294546
-0.000199537
-0.000377889
-0.000122238
-0.00047247
-0.000578221
-0.00023125
0.000103699
-0.00022962
6.43952e-05
-0.000227685
2.41697e-05
-0.00022473
-1.81104e-05
-0.000220168
-6.37973e-05
-0.000213325
-0.000114484
-0.000203659
-0.000172133
-0.000189727
-0.000237702
-0.000169366
-0.000314907
-0.00014002
-0.000407235
-8.96127e-05
-0.000522877
-0.000667833
-0.000105358
9.90839e-05
-0.00010234
6.13767e-05
-0.000100381
2.22109e-05
-9.9062e-05
-1.94287e-05
-9.80663e-05
-6.47927e-05
-9.71592e-05
-0.000115391
-9.63015e-05
-0.000172991
-9.44934e-05
-0.00023951
-9.08749e-05
-0.000318525
-8.29315e-05
-0.000415178
-6.09191e-05
-0.000544889
-0.000728752
1.77426e-05
9.19573e-05
2.23554e-05
5.67643e-05
2.47869e-05
1.97797e-05
2.51942e-05
-1.98357e-05
2.35571e-05
-6.31554e-05
1.97054e-05
-0.000111539
1.33882e-05
-0.000166673
4.64013e-06
-0.000230762
-6.26455e-06
-0.00030762
-1.78097e-05
-0.000403633
-2.49704e-05
-0.000537728
-0.000753722
0.000139462
8.16937e-05
0.000146433
4.97933e-05
0.00015029
1.59235e-05
0.000150972
-2.05176e-05
0.000148153
-6.03365e-05
0.000141242
-0.000104628
0.000129384
-0.000154815
0.000111594
-0.000212972
8.67757e-05
-0.000282801
5.4598e-05
-0.000371455
1.80685e-05
-0.000501199
-0.000735654
0.00026275
6.76431e-05
0.000272864
3.96794e-05
0.000279122
9.66569e-06
0.000281319
-2.27141e-05
0.000278885
-5.79023e-05
0.000270849
-9.65908e-05
0.000255699
-0.000139665
0.000231401
-0.000188674
0.000195063
-0.000246463
0.000143404
-0.000319795
7.4929e-05
-0.000432723
-0.000660725
0.000392535
5.00308e-05
0.000405864
2.63503e-05
0.000414925
6.0485e-07
0.000419421
-2.72099e-05
0.000418616
-5.70967e-05
0.000411279
-8.92537e-05
0.000395359
-0.000123744
0.000367898
-0.000161213
0.000324004
-0.000202569
0.000257231
-0.000253022
0.00015631
-0.000331802
-0.000504414
0.000534545
3.04682e-05
0.000550036
1.08595e-05
0.000561388
-1.07465e-05
0.000568231
-3.40526e-05
0.000569712
-5.85775e-05
0.00056449
-8.40318e-05
0.000550281
-0.000109535
0.0005237
-0.000134631
0.000478194
-0.000157062
0.000405322
-0.00018015
0.000278396
-0.000204876
-0.000226017
0.000693183
1.15398e-05
0.000708905
-4.86278e-06
0.000721205
-2.30459e-05
0.000729645
-4.24923e-05
0.000733356
-6.22874e-05
0.000731052
-8.17276e-05
0.000720578
-9.90613e-05
0.000698891
-0.000112944
0.000659623
-0.000117793
0.000590245
-0.000110772
0.000443688
-5.83187e-05
0.000217671
0.000817978
9.52397e-05
-0.000867835
0.000798663
6.7309e-05
0.000774702
5.25354e-05
0.000764368
4.64703e-05
0.000765265
4.64568e-05
0.000774129
4.83629e-05
0.000788028
4.93559e-05
0.000804753
4.80561e-05
0.000822734
4.34898e-05
0.000840908
3.5422e-05
0.000858712
2.38242e-05
9.38533e-06
0.00087564
0.00108707
9.14941e-05
-0.00108332
0.001076
7.83803e-05
0.00105983
6.87042e-05
0.00104502
6.12824e-05
0.00103496
5.65109e-05
0.00103033
5.29971e-05
0.00103051
4.91728e-05
0.00103453
4.4036e-05
0.00104141
3.66108e-05
0.00105032
2.65152e-05
0.00106071
1.34337e-05
-1.7863e-06
0.00107188
0.00128384
8.37018e-05
-0.00127605
0.00128375
7.84714e-05
0.0012794
7.30497e-05
0.00127301
6.7673e-05
0.00126664
6.2883e-05
0.00126158
5.80568e-05
0.00125847
5.22889e-05
0.00125752
4.49802e-05
0.00125875
3.53859e-05
0.00126206
2.32017e-05
0.00126739
8.10662e-06
-8.67574e-06
0.00127428
0.00147277
-0.00146839
7.93245e-05
0.00147571
7.55311e-05
0.00147664
7.21234e-05
0.00147582
6.84856e-05
0.00147393
6.4777e-05
0.00147168
6.03112e-05
0.0014697
5.42653e-05
0.00146854
4.61413e-05
0.00146856
3.53607e-05
0.00147009
2.16768e-05
0.00147332
4.8733e-06
0.00147858
-1.39368e-05
0.0008915