/*--------------------------------*- C++ -*----------------------------------*\
| =========                 |                                                 |
| \\      /  F ield         | OpenFOAM: The Open Source CFD Toolbox           |
|  \\    /   O peration     | Version:  2212                                  |
|   \\  /    A nd           | Website:  www.openfoam.com                      |
|    \\/     M anipulation  |                                                 |
\*---------------------------------------------------------------------------*/
FoamFile
{
    version     2.0;
    format      ascii;
    arch        "LSB;label=32;scalar=64";
    class       surfaceScalarField;
    location    "0.07";
    object      phi;
}
// * * * * * * * * * * * * * * * * * * * * * * * * * * * * * * * * * * * * * //

dimensions      [1 0 -1 0 0 0 0];

oriented        oriented;

internalField   nonuniform List<scalar> 
5952
(
5.05222e-05
-5.05178e-05
9.97057e-05
-4.91791e-05
0.000132429
-3.27192e-05
0.000147262
-1.48287e-05
0.000152867
-5.59984e-06
0.000148614
4.25697e-06
0.000114847
3.37711e-05
4.20296e-05
7.28223e-05
-9.71238e-05
0.000139158
-0.000291145
0.000194026
-0.000438866
0.000147725
0.000109446
-0.000548309
4.47558e-05
-9.52687e-05
7.57631e-05
-8.01815e-05
8.12142e-05
-3.81654e-05
6.58718e-05
5.18511e-07
2.51423e-05
3.51347e-05
-5.19587e-05
8.13628e-05
-0.000175303
0.00015712
-0.000325331
0.000222856
-0.000429371
0.000243202
-0.000465796
0.000230456
-0.000502613
0.000184547
0.000145052
-0.000538214
3.31025e-05
-0.000128366
4.75086e-05
-9.45822e-05
3.64063e-05
-2.70576e-05
-3.35185e-06
4.0282e-05
-8.43994e-05
0.000116188
-0.000204037
0.000201005
-0.000315738
0.000268827
-0.000381288
0.000288411
-0.000412346
0.000274265
-0.000422105
0.000240221
-0.000432913
0.00019536
0.000155169
-0.000443026
-3.15855e-06
-0.000125201
-1.72853e-05
-8.04495e-05
-5.01637e-05
5.8267e-06
-0.000108265
9.83897e-05
-0.000189583
0.000197511
-0.0002669
0.000278328
-0.000313163
0.000315095
-0.000331829
0.000307083
-0.000337658
0.000280101
-0.000339308
0.000241876
-0.000342139
0.000198197
0.000156781
-0.000343745
-2.87344e-05
-9.64604e-05
-6.69502e-05
-4.22273e-05
-0.000114715
5.35976e-05
-0.0001709
0.000154582
-0.000224252
0.00025087
-0.000255241
0.000309323
-0.000261367
0.000321227
-0.000256934
0.000302656
-0.000248631
0.000271805
-0.0002409
0.000234152
-0.000236038
0.000193341
0.000152995
-0.000232246
-5.17098e-05
-4.47437e-05
-0.000101255
7.32494e-06
-0.000148498
0.000100848
-0.000185065
0.000191156
-0.000203235
0.000269046
-0.000199417
0.000305513
-0.000184699
0.000306515
-0.000167777
0.000285741
-0.000152189
0.000256224
-0.000139553
0.000221523
-0.000130316
0.000184111
0.000146059
-0.000123373
-6.59899e-05
2.12536e-05
-0.000120796
6.21388e-05
-0.000155766
0.000135824
-0.000166148
0.000201546
-0.000153502
0.000256408
-0.000127992
0.000280009
-0.000100201
0.000278732
-7.55617e-05
0.000261109
-5.49459e-05
0.000235615
-3.86357e-05
0.00020522
-2.63168e-05
0.0001718
0.000136776
-1.70269e-05
-7.5417e-05
9.66786e-05
-0.000123001
0.000109731
-0.000139313
0.000152145
-0.000126212
0.000188453
-9.30125e-05
0.000223215
-5.39156e-05
0.00024092
-1.69935e-05
0.000241818
1.41595e-05
0.000229964
3.93906e-05
0.000210392
5.92228e-05
0.000185396
7.44861e-05
0.000156544
0.000125041
8.62293e-05
-7.07518e-05
0.000167439
-0.000107273
0.000146261
-0.000103308
0.000148188
-7.38171e-05
0.00015897
-2.87931e-05
0.0001782
1.92566e-05
0.000192879
6.32938e-05
0.000197789
0.000100275
0.00019299
0.000130131
0.000180545
0.000153747
0.000161788
0.000172306
0.000137994
0.000110338
0.000187017
-7.05744e-05
0.000238022
-7.17066e-05
0.000147402
-4.2007e-05
0.000118497
1.24468e-06
0.000115728
5.29271e-05
0.000126526
0.000104776
0.000141039
0.000151625
0.00015095
0.000191256
0.000153368
0.000223684
0.000148126
0.000249872
0.000135609
0.000271099
0.000116776
9.27931e-05
0.000288653
-4.5795e-08
0.000238078
3.12947e-05
0.000116071
8.04847e-05
6.9317e-05
0.000130407
6.58148e-05
0.000179411
7.75319e-05
0.000225327
9.51325e-05
0.000266382
0.000109904
0.000301697
0.000118062
0.000331451
0.000118382
0.000356445
0.000110625
0.00037775
9.548e-05
7.39565e-05
0.000396596
0.000193534
4.45543e-05
0.000266951
4.26637e-05
0.000312956
2.33221e-05
0.000345291
3.34891e-05
0.000371714
5.11192e-05
0.000396549
7.03071e-05
0.00042023
8.62327e-05
0.000442296
9.60062e-05
0.000462469
9.8219e-05
0.000481036
9.20676e-05
0.000498533
7.79937e-05
0.000516089
5.64106e-05
-0.000627851
7.954e-05
-0.000677052
4.9219e-05
-0.000702412
2.53579e-05
-0.00070313
7.21398e-07
-0.000683049
-2.00765e-05
-0.000640942
-4.21026e-05
-0.000575799
-6.51386e-05
-0.000485985
-8.98097e-05
-0.00037007
-0.000115911
-0.000229112
-0.000140954
-8.55799e-05
-0.000143528
-8.55756e-05
-0.000563624
0.000104954
-0.000581398
6.70001e-05
-0.00058883
3.2794e-05
-0.000587723
-3.81356e-07
-0.000575952
-3.18426e-05
-0.000552263
-6.57874e-05
-0.000514934
-0.000102462
-0.000461854
-0.000142885
-0.000390246
-0.000187514
-0.000298148
-0.000233048
-0.000175364
-0.000266308
-0.000260934
-0.000452339
0.000114272
-0.00045964
7.43068e-05
-0.000462604
3.5763e-05
-0.000460188
-2.79249e-06
-0.0004497
-4.2325e-05
-0.000431031
-8.44511e-05
-0.000402993
-0.000130495
-0.000364571
-0.000181302
-0.000314088
-0.000237991
-0.000246542
-0.000300589
-0.000151102
-0.000361742
-0.000412032
-0.000344683
0.000115216
-0.000344457
7.40858e-05
-0.000342139
3.34508e-05
-0.000337034
-7.89145e-06
-0.000328166
-5.11874e-05
-0.000314815
-9.77963e-05
-0.000295832
-0.000149472
-0.00027011
-0.000207018
-0.000235751
-0.000272344
-0.000187195
-0.00034914
-0.000113895
-0.000435036
-0.000525921
-0.000229409
0.000112386
-0.000227005
7.16875e-05
-0.000224179
3.06311e-05
-0.000220293
-1.17705e-05
-0.000214784
-5.66901e-05
-0.000207113
-0.000105461
-0.000196546
-0.000160033
-0.000182151
-0.000221407
-0.000161918
-0.00029257
-0.000133748
-0.000377304
-8.6409e-05
-0.000482368
-0.000612324
-0.000118293
0.000107313
-0.000114531
6.79322e-05
-0.000111471
2.75776e-05
-0.00010869
-1.45442e-05
-0.000105894
-5.94796e-05
-0.000102829
-0.000108519
-9.95746e-05
-0.000163281
-9.54697e-05
-0.000225505
-8.96709e-05
-0.000298362
-8.01062e-05
-0.000386862
-5.734e-05
-0.000505127
-0.000669657
-1.01324e-05
0.000100426
-5.10017e-06
6.29073e-05
-1.49409e-06
2.39789e-05
8.70685e-07
-1.69016e-05
1.95654e-06
-6.05581e-05
1.53462e-06
-0.000108089
-8.3926e-07
-0.0001609
-5.46353e-06
-0.000220873
-1.23928e-05
-0.000291426
-2.05447e-05
-0.000378703
-2.5096e-05
-0.000500569
-0.000694746
9.52694e-05
9.13938e-05
0.000102146
5.60388e-05
0.000107197
1.89355e-05
0.000110393
-2.00894e-05
0.000111357
-6.15144e-05
0.00010937
-0.000106095
0.000103319
-0.00015484
9.18367e-05
-0.000209384
7.3407e-05
-0.000272988
4.73467e-05
-0.000352635
1.64325e-05
-0.000469647
-0.000678306
0.000198926
7.94934e-05
0.000208601
4.63717e-05
0.000216366
1.1179e-05
0.000222002
-2.57173e-05
0.000224811
-6.43141e-05
0.000223567
-0.000104843
0.000216369
-0.000147634
0.000200672
-0.000193678
0.000173019
-0.000245327
0.00012975
-0.000309359
6.92939e-05
-0.000409182
-0.000609004
0.000303807
6.43479e-05
0.000317033
3.31544e-05
0.000328666
-4.44396e-07
0.000338292
-3.53348e-05
0.000344896
-7.0909e-05
0.000346762
-0.0001067
0.000341219
-0.000142083
0.000324657
-0.000177107
0.000291643
-0.000212304
0.000235597
-0.000253303
0.000145905
-0.000319482
-0.000463089
0.000414489
4.64641e-05
0.000431426
1.62265e-05
0.000447642
-1.66502e-05
0.0004624
-5.00841e-05
0.000474312
-8.28112e-05
0.000481168
-0.000113547
0.00047973
-0.000140636
0.000465777
-0.000163144
0.000432403
-0.000178921
0.00037124
-0.00019213
0.000257022
-0.000205255
-0.000206058
0.000535613
2.69496e-05
0.000556032
-4.18306e-06
0.000577176
-3.77835e-05
0.000597642
-7.05409e-05
0.000615562
-0.000100721
0.000628199
-0.000126174
0.000632145
-0.000144571
0.000623446
-0.000154435
0.000595595
-0.000151061
0.000537597
-0.000134123
0.000407607
-7.52554e-05
0.000201559
5.05223e-05
-5.05179e-05
9.9706e-05
-4.91793e-05
0.00013243
-3.27192e-05
0.000147263
-1.48287e-05
0.000152867
-5.59983e-06
0.000148614
4.25715e-06
0.000114847
3.37716e-05
4.20287e-05
7.28227e-05
-9.71255e-05
0.000139159
-0.000291147
0.000194026
-0.000438867
0.000147724
0.000109446
-0.00054831
4.47559e-05
-9.5269e-05
7.57631e-05
-8.01816e-05
8.12141e-05
-3.81653e-05
6.58716e-05
5.18745e-07
2.51416e-05
3.5135e-05
-5.19599e-05
8.13636e-05
-0.000175304
0.000157121
-0.000325333
0.000222856
-0.000429371
0.000243202
-0.000465797
0.000230456
-0.000502614
0.000184546
0.000145052
-0.000538215
3.31024e-05
-0.000128366
4.75083e-05
-9.45821e-05
3.64057e-05
-2.70572e-05
-3.35292e-06
4.02828e-05
-8.44011e-05
0.000116189
-0.000204039
0.000201006
-0.000315739
0.000268827
-0.000381289
0.000288411
-0.000412347
0.000274265
-0.000422106
0.00024022
-0.000432914
0.00019536
0.000155169
-0.000443026
-3.159e-06
-0.000125201
-1.72862e-05
-8.04489e-05
-5.0165e-05
5.82757e-06
-0.000108267
9.83909e-05
-0.000189585
0.000197513
-0.000266902
0.000278329
-0.000313164
0.000315095
-0.000331829
0.000307082
-0.000337659
0.0002801
-0.000339308
0.000241876
-0.000342139
0.000198197
0.00015678
-0.000343745
-2.87351e-05
-9.64595e-05
-6.69514e-05
-4.22262e-05
-0.000114716
5.35989e-05
-0.000170902
0.000154583
-0.000224254
0.000250871
-0.000255242
0.000309323
-0.000261367
0.000321226
-0.000256934
0.000302656
-0.000248631
0.000271804
-0.0002409
0.000234151
-0.000236038
0.000193341
0.000152995
-0.000232246
-5.17102e-05
-4.47424e-05
-0.000101256
7.32632e-06
-0.000148499
0.000100849
-0.000185066
0.000191157
-0.000203235
0.000269046
-0.000199417
0.000305512
-0.000184699
0.000306515
-0.000167777
0.00028574
-0.000152189
0.000256223
-0.000139553
0.000221522
-0.000130316
0.000184111
0.000146058
-0.000123373
-6.59899e-05
2.1255e-05
-0.000120796
6.21401e-05
-0.000155766
0.000135826
-0.000166148
0.000201547
-0.000153502
0.000256408
-0.000127991
0.000280009
-0.000100201
0.000278732
-7.55614e-05
0.000261108
-5.49457e-05
0.000235615
-3.86355e-05
0.000205219
-2.63167e-05
0.000171799
0.000136776
-1.70268e-05
-7.54167e-05
9.66797e-05
-0.000123001
0.000109732
-0.000139313
0.000152146
-0.000126211
0.000188453
-9.30117e-05
0.000223216
-5.3915e-05
0.00024092
-1.69931e-05
0.000241818
1.41598e-05
0.000229963
3.93908e-05
0.000210392
5.92229e-05
0.000185395
7.44862e-05
0.000156544
0.00012504
8.62293e-05
-7.07513e-05
0.00016744
-0.000107272
0.000146261
-0.000103307
0.000148189
-7.38161e-05
0.000158971
-2.87923e-05
0.0001782
1.92573e-05
0.000192879
6.32943e-05
0.000197789
0.000100276
0.00019299
0.000130131
0.000180544
0.000153747
0.000161788
0.000172306
0.000137993
0.000110338
0.000187017
-7.0574e-05
0.000238023
-7.1706e-05
0.000147402
-4.20062e-05
0.000118498
1.24551e-06
0.000115728
5.29279e-05
0.000126527
0.000104777
0.000141039
0.000151626
0.00015095
0.000191257
0.000153368
0.000223684
0.000148126
0.000249872
0.000135609
0.000271099
0.000116776
9.2793e-05
0.000288653
-4.55871e-08
0.000238078
3.12951e-05
0.000116071
8.04852e-05
6.93174e-05
0.000130408
6.58153e-05
0.000179412
7.75323e-05
0.000225327
9.51327e-05
0.000266383
0.000109904
0.000301698
0.000118063
0.000331451
0.000118382
0.000356445
0.000110625
0.00037775
9.548e-05
7.39565e-05
0.000396596
0.000193534
4.45541e-05
0.000266951
4.26639e-05
0.000312956
2.33225e-05
0.000345292
3.34895e-05
0.000371714
5.11196e-05
0.00039655
7.03074e-05
0.000420231
8.62329e-05
0.000442297
9.60064e-05
0.00046247
9.82191e-05
0.000481037
9.20677e-05
0.000498533
7.79938e-05
0.000516088
5.64107e-05
-0.000627852
7.95398e-05
-0.000677053
4.92189e-05
-0.000702413
2.53578e-05
-0.00070313
7.21326e-07
-0.000683049
-2.00766e-05
-0.000640942
-4.21026e-05
-0.0005758
-6.51386e-05
-0.000485986
-8.98097e-05
-0.000370071
-0.000115911
-0.000229113
-0.000140954
-8.55799e-05
-0.000143528
-8.55757e-05
-0.000563624
0.000104953
-0.000581398
6.69999e-05
-0.000588831
3.27939e-05
-0.000587723
-3.81477e-07
-0.000575952
-3.18427e-05
-0.000552263
-6.57875e-05
-0.000514934
-0.000102462
-0.000461854
-0.000142885
-0.000390247
-0.000187514
-0.000298148
-0.000233048
-0.000175364
-0.000266308
-0.000260935
-0.000452339
0.000114272
-0.000459641
7.43066e-05
-0.000462604
3.57628e-05
-0.000460188
-2.79263e-06
-0.0004497
-4.2325e-05
-0.000431031
-8.44512e-05
-0.000402993
-0.000130495
-0.000364571
-0.000181302
-0.000314088
-0.000237991
-0.000246542
-0.000300589
-0.000151102
-0.000361742
-0.000412032
-0.000344683
0.000115216
-0.000344457
7.40856e-05
-0.000342139
3.34506e-05
-0.000337034
-7.89157e-06
-0.000328166
-5.11875e-05
-0.000314815
-9.77963e-05
-0.000295832
-0.000149472
-0.00027011
-0.000207018
-0.000235752
-0.000272344
-0.000187195
-0.00034914
-0.000113895
-0.000435036
-0.000525921
-0.000229409
0.000112386
-0.000227005
7.16873e-05
-0.000224179
3.06309e-05
-0.000220294
-1.17706e-05
-0.000214784
-5.66901e-05
-0.000207113
-0.000105461
-0.000196546
-0.000160033
-0.000182151
-0.000221407
-0.000161918
-0.00029257
-0.000133748
-0.000377305
-8.6409e-05
-0.000482368
-0.000612324
-0.000118293
0.000107313
-0.000114531
6.7932e-05
-0.000111471
2.75775e-05
-0.00010869
-1.45442e-05
-0.000105894
-5.94797e-05
-0.000102829
-0.000108519
-9.95747e-05
-0.000163281
-9.54698e-05
-0.000225505
-8.9671e-05
-0.000298362
-8.01062e-05
-0.000386863
-5.73401e-05
-0.000505127
-0.000669657
-1.01324e-05
0.000100426
-5.10022e-06
6.29072e-05
-1.49415e-06
2.39788e-05
8.70605e-07
-1.69016e-05
1.95646e-06
-6.05582e-05
1.53453e-06
-0.000108089
-8.39338e-07
-0.0001609
-5.4636e-06
-0.000220874
-1.23929e-05
-0.000291426
-2.05447e-05
-0.000378703
-2.50961e-05
-0.000500569
-0.000694746
9.52694e-05
9.13936e-05
0.000102146
5.60387e-05
0.000107197
1.89354e-05
0.000110393
-2.00895e-05
0.000111357
-6.15144e-05
0.00010937
-0.000106095
0.000103319
-0.00015484
9.18366e-05
-0.000209384
7.34069e-05
-0.000272988
4.73467e-05
-0.000352635
1.64325e-05
-0.000469647
-0.000678306
0.000198926
7.94933e-05
0.000208601
4.63716e-05
0.000216366
1.1179e-05
0.000222002
-2.57174e-05
0.00022481
-6.43141e-05
0.000223567
-0.000104843
0.000216369
-0.000147634
0.000200671
-0.000193678
0.000173019
-0.000245327
0.00012975
-0.000309359
6.92939e-05
-0.000409182
-0.000609004
0.000303807
6.43478e-05
0.000317033
3.31543e-05
0.000328665
-4.4444e-07
0.000338292
-3.53348e-05
0.000344896
-7.09091e-05
0.000346761
-0.0001067
0.000341219
-0.000142083
0.000324657
-0.000177107
0.000291643
-0.000212304
0.000235597
-0.000253304
0.000145905
-0.000319482
-0.00046309
0.000414489
4.64641e-05
0.000431426
1.62264e-05
0.000447641
-1.66502e-05
0.0004624
-5.00841e-05
0.000474312
-8.28112e-05
0.000481168
-0.000113547
0.00047973
-0.000140636
0.000465777
-0.000163144
0.000432403
-0.000178921
0.00037124
-0.000192131
0.000257022
-0.000205255
-0.000206058
0.000535613
2.69496e-05
0.000556032
-4.18302e-06
0.000577175
-3.77835e-05
0.000597642
-7.05409e-05
0.000615562
-0.000100721
0.000628199
-0.000126174
0.000632145
-0.000144572
0.000623445
-0.000154435
0.000595595
-0.000151061
0.000537597
-0.000134123
0.000407607
-7.52557e-05
0.000201559
5.05224e-05
-5.0518e-05
9.9706e-05
-4.91793e-05
0.00013243
-3.27192e-05
0.000147263
-1.48286e-05
0.000152867
-5.59975e-06
0.000148614
4.25724e-06
0.000114847
3.37716e-05
4.20287e-05
7.28226e-05
-9.71254e-05
0.000139158
-0.000291146
0.000194026
-0.000438867
0.000147724
0.000109446
-0.000548309
4.47559e-05
-9.5269e-05
7.57631e-05
-8.01815e-05
8.1214e-05
-3.81652e-05
6.58715e-05
5.18792e-07
2.51415e-05
3.51352e-05
-5.196e-05
8.13637e-05
-0.000175304
0.000157121
-0.000325333
0.000222856
-0.000429371
0.000243202
-0.000465796
0.000230456
-0.000502613
0.000184546
0.000145051
-0.000538214
3.31023e-05
-0.000128366
4.7508e-05
-9.45819e-05
3.64053e-05
-2.70571e-05
-3.35334e-06
4.02828e-05
-8.44015e-05
0.000116189
-0.000204039
0.000201006
-0.000315739
0.000268827
-0.000381289
0.00028841
-0.000412346
0.000274265
-0.000422105
0.00024022
-0.000432914
0.000195359
0.000155169
-0.000443026
-3.15918e-06
-0.000125201
-1.72865e-05
-8.04486e-05
-5.01654e-05
5.82775e-06
-0.000108268
9.83909e-05
-0.000189585
0.000197513
-0.000266902
0.000278329
-0.000313164
0.000315094
-0.000331829
0.000307082
-0.000337658
0.0002801
-0.000339308
0.000241876
-0.000342139
0.000198196
0.00015678
-0.000343745
-2.87352e-05
-9.64591e-05
-6.69516e-05
-4.22258e-05
-0.000114716
5.3599e-05
-0.000170902
0.000154583
-0.000224254
0.00025087
-0.000255242
0.000309323
-0.000261367
0.000321226
-0.000256934
0.000302655
-0.000248631
0.000271803
-0.0002409
0.000234151
-0.000236038
0.00019334
0.000152994
-0.000232246
-5.17102e-05
-4.4742e-05
-0.000101256
7.32669e-06
-0.000148499
0.000100849
-0.000185066
0.000191157
-0.000203235
0.000269046
-0.000199417
0.000305512
-0.000184699
0.000306514
-0.000167777
0.00028574
-0.000152189
0.000256223
-0.000139553
0.000221522
-0.000130316
0.00018411
0.000146058
-0.000123373
-6.599e-05
2.12554e-05
-0.000120796
6.21405e-05
-0.000155766
0.000135826
-0.000166148
0.000201547
-0.000153502
0.000256407
-0.000127991
0.000280009
-0.000100201
0.000278731
-7.55614e-05
0.000261108
-5.49457e-05
0.000235614
-3.86355e-05
0.000205219
-2.63167e-05
0.000171799
0.000136775
-1.70268e-05
-7.54167e-05
9.66801e-05
-0.000123001
0.000109732
-0.000139313
0.000152146
-0.000126211
0.000188453
-9.30117e-05
0.000223215
-5.3915e-05
0.00024092
-1.69931e-05
0.000241817
1.41597e-05
0.000229963
3.93908e-05
0.000210391
5.92228e-05
0.000185395
7.44862e-05
0.000156544
0.00012504
8.62293e-05
-7.07513e-05
0.00016744
-0.000107272
0.000146262
-0.000103307
0.000148189
-7.3816e-05
0.000158971
-2.87922e-05
0.0001782
1.92573e-05
0.000192879
6.32942e-05
0.000197789
0.000100276
0.00019299
0.000130131
0.000180544
0.000153747
0.000161788
0.000172306
0.000137993
0.000110337
0.000187017
-7.05739e-05
0.000238023
-7.17058e-05
0.000147403
-4.2006e-05
0.000118498
1.24572e-06
0.000115728
5.2928e-05
0.000126527
0.000104777
0.000141039
0.000151626
0.000150949
0.000191257
0.000153368
0.000223684
0.000148126
0.000249872
0.000135608
0.000271099
0.000116775
9.27926e-05
0.000288653
-4.54345e-08
0.000238078
3.12954e-05
0.000116071
8.04856e-05
6.93174e-05
0.000130408
6.58152e-05
0.000179412
7.75322e-05
0.000225328
9.51324e-05
0.000266383
0.000109904
0.000301698
0.000118062
0.000331451
0.000118382
0.000356445
0.000110624
0.00037775
9.54795e-05
7.39561e-05
0.000396596
0.000193534
4.4554e-05
0.000266951
4.26638e-05
0.000312956
2.33224e-05
0.000345292
3.34895e-05
0.000371715
5.11195e-05
0.00039655
7.03072e-05
0.000420231
8.62326e-05
0.000442297
9.60059e-05
0.00046247
9.82186e-05
0.000481037
9.20672e-05
0.000498533
7.79933e-05
0.000516089
5.64103e-05
-0.000627851
7.95397e-05
-0.000677052
4.92188e-05
-0.000702412
2.53577e-05
-0.000703129
7.21284e-07
-0.000683049
-2.00766e-05
-0.000640942
-4.21027e-05
-0.000575799
-6.51386e-05
-0.000485985
-8.98097e-05
-0.00037007
-0.000115911
-0.000229112
-0.000140954
-8.55796e-05
-0.000143528
-8.55754e-05
-0.000563624
0.000104953
-0.000581398
6.69997e-05
-0.00058883
3.27938e-05
-0.000587723
-3.81544e-07
-0.000575952
-3.18427e-05
-0.000552262
-6.57875e-05
-0.000514934
-0.000102462
-0.000461854
-0.000142885
-0.000390246
-0.000187514
-0.000298148
-0.000233048
-0.000175363
-0.000266308
-0.000260934
-0.000452339
0.000114272
-0.00045964
7.43064e-05
-0.000462604
3.57627e-05
-0.000460188
-2.79271e-06
-0.0004497
-4.23251e-05
-0.000431031
-8.44512e-05
-0.000402993
-0.000130495
-0.000364571
-0.000181302
-0.000314088
-0.000237991
-0.000246542
-0.000300589
-0.000151102
-0.000361742
-0.000412031
-0.000344683
0.000115216
-0.000344456
7.40854e-05
-0.000342139
3.34505e-05
-0.000337034
-7.89166e-06
-0.000328166
-5.11875e-05
-0.000314815
-9.77963e-05
-0.000295832
-0.000149472
-0.00027011
-0.000207018
-0.000235751
-0.000272344
-0.000187195
-0.00034914
-0.000113895
-0.000435035
-0.000525921
-0.000229409
0.000112386
-0.000227005
7.16871e-05
-0.000224179
3.06308e-05
-0.000220293
-1.17707e-05
-0.000214784
-5.66902e-05
-0.000207113
-0.000105461
-0.000196546
-0.000160033
-0.00018215
-0.000221407
-0.000161918
-0.00029257
-0.000133747
-0.000377304
-8.6409e-05
-0.000482368
-0.000612323
-0.000118293
0.000107313
-0.000114531
6.79318e-05
-0.000111471
2.75774e-05
-0.00010869
-1.45443e-05
-0.000105894
-5.94797e-05
-0.000102829
-0.000108519
-9.95746e-05
-0.000163281
-9.54697e-05
-0.000225505
-8.96709e-05
-0.000298362
-8.01062e-05
-0.000386862
-5.734e-05
-0.000505127
-0.000669657
-1.01324e-05
0.000100425
-5.10016e-06
6.2907e-05
-1.49408e-06
2.39787e-05
8.70691e-07
-1.69017e-05
1.95655e-06
-6.05582e-05
1.53462e-06
-0.000108089
-8.39257e-07
-0.0001609
-5.46353e-06
-0.000220873
-1.23928e-05
-0.000291425
-2.05447e-05
-0.000378703
-2.50961e-05
-0.000500568
-0.000694746
9.52694e-05
9.13933e-05
0.000102146
5.60384e-05
0.000107197
1.89352e-05
0.000110393
-2.00896e-05
0.000111357
-6.15145e-05
0.00010937
-0.000106095
0.000103319
-0.00015484
9.18367e-05
-0.000209383
7.34069e-05
-0.000272988
4.73467e-05
-0.000352635
1.64325e-05
-0.000469646
-0.000678305
0.000198926
7.9493e-05
0.000208601
4.63713e-05
0.000216366
1.11788e-05
0.000222002
-2.57175e-05
0.00022481
-6.43142e-05
0.000223567
-0.000104843
0.000216369
-0.000147634
0.000200671
-0.000193678
0.000173019
-0.000245327
0.00012975
-0.000309358
6.92939e-05
-0.000409182
-0.000609003
0.000303807
6.43475e-05
0.000317033
3.31541e-05
0.000328666
-4.4462e-07
0.000338292
-3.53349e-05
0.000344896
-7.09091e-05
0.000346761
-0.0001067
0.000341219
-0.000142083
0.000324657
-0.000177107
0.000291643
-0.000212304
0.000235597
-0.000253303
0.000145905
-0.000319482
-0.000463089
0.000414489
4.64637e-05
0.000431426
1.62262e-05
0.000447642
-1.66504e-05
0.0004624
-5.00842e-05
0.000474312
-8.28112e-05
0.000481168
-0.000113547
0.00047973
-0.000140636
0.000465777
-0.000163144
0.000432403
-0.000178921
0.00037124
-0.00019213
0.000257022
-0.000205255
-0.000206058
0.000535613
2.69493e-05
0.000556032
-4.18326e-06
0.000577176
-3.77836e-05
0.000597642
-7.05409e-05
0.000615562
-0.000100721
0.000628199
-0.000126174
0.000632145
-0.000144571
0.000623445
-0.000154435
0.000595595
-0.00015106
0.000537597
-0.000134122
0.000407607
-7.52553e-05
0.000201559
5.05223e-05
-5.05179e-05
9.97059e-05
-4.91792e-05
0.00013243
-3.27193e-05
0.000147263
-1.48287e-05
0.000152867
-5.59981e-06
0.000148614
4.25707e-06
0.000114847
3.37713e-05
4.20292e-05
7.28224e-05
-9.71242e-05
0.000139158
-0.000291145
0.000194026
-0.000438866
0.000147725
0.000109446
-0.000548309
4.47559e-05
-9.52689e-05
7.57631e-05
-8.01816e-05
8.12141e-05
-3.81654e-05
6.58717e-05
5.18622e-07
2.5142e-05
3.51348e-05
-5.19591e-05
8.13631e-05
-0.000175303
0.00015712
-0.000325332
0.000222856
-0.000429371
0.000243202
-0.000465796
0.000230456
-0.000502613
0.000184546
0.000145052
-0.000538214
3.31024e-05
-0.000128366
4.75084e-05
-9.45821e-05
3.64059e-05
-2.70574e-05
-3.35246e-06
4.02824e-05
-8.44003e-05
0.000116188
-0.000204038
0.000201006
-0.000315739
0.000268827
-0.000381288
0.000288411
-0.000412346
0.000274265
-0.000422105
0.00024022
-0.000432913
0.00019536
0.000155169
-0.000443025
-3.15886e-06
-0.000125201
-1.72859e-05
-8.04492e-05
-5.01645e-05
5.82718e-06
-0.000108266
9.83903e-05
-0.000189584
0.000197512
-0.000266901
0.000278328
-0.000313163
0.000315095
-0.000331829
0.000307082
-0.000337658
0.0002801
-0.000339308
0.000241876
-0.000342139
0.000198197
0.00015678
-0.000343745
-2.87349e-05
-9.64598e-05
-6.6951e-05
-4.22266e-05
-0.000114716
5.35983e-05
-0.000170901
0.000154582
-0.000224253
0.00025087
-0.000255242
0.000309323
-0.000261367
0.000321226
-0.000256934
0.000302656
-0.000248631
0.000271804
-0.0002409
0.000234151
-0.000236038
0.000193341
0.000152995
-0.000232245
-5.17101e-05
-4.47428e-05
-0.000101256
7.32586e-06
-0.000148499
0.000100848
-0.000185066
0.000191156
-0.000203235
0.000269046
-0.000199417
0.000305512
-0.000184699
0.000306514
-0.000167777
0.00028574
-0.000152189
0.000256223
-0.000139553
0.000221522
-0.000130316
0.000184111
0.000146058
-0.000123373
-6.59899e-05
2.12547e-05
-0.000120796
6.21397e-05
-0.000155766
0.000135825
-0.000166148
0.000201546
-0.000153502
0.000256407
-0.000127992
0.000280009
-0.000100201
0.000278731
-7.55615e-05
0.000261108
-5.49457e-05
0.000235615
-3.86355e-05
0.000205219
-2.63167e-05
0.000171799
0.000136776
-1.70267e-05
-7.54168e-05
9.66795e-05
-0.000123001
0.000109732
-0.000139313
0.000152145
-0.000126212
0.000188453
-9.3012e-05
0.000223215
-5.39153e-05
0.00024092
-1.69933e-05
0.000241817
1.41596e-05
0.000229963
3.93907e-05
0.000210391
5.92228e-05
0.000185395
7.44862e-05
0.000156544
0.00012504
8.62294e-05
-7.07515e-05
0.000167439
-0.000107273
0.000146261
-0.000103307
0.000148188
-7.38164e-05
0.000158971
-2.87926e-05
0.0001782
1.92569e-05
0.000192879
6.3294e-05
0.000197789
0.000100276
0.00019299
0.000130131
0.000180544
0.000153747
0.000161788
0.000172306
0.000137993
0.000110337
0.000187017
-7.0574e-05
0.000238023
-7.17061e-05
0.000147402
-4.20064e-05
0.000118498
1.24524e-06
0.000115728
5.29276e-05
0.000126527
0.000104777
0.000141039
0.000151625
0.000150949
0.000191256
0.000153368
0.000223684
0.000148126
0.000249872
0.000135609
0.000271099
0.000116775
9.27928e-05
0.000288653
-4.55868e-08
0.000238078
3.12951e-05
0.000116071
8.04852e-05
6.93173e-05
0.000130408
6.5815e-05
0.000179412
7.7532e-05
0.000225327
9.51323e-05
0.000266382
0.000109903
0.000301698
0.000118062
0.000331451
0.000118382
0.000356445
0.000110624
0.00037775
9.54796e-05
7.39562e-05
0.000396596
0.000193534
4.45541e-05
0.000266951
4.26638e-05
0.000312956
2.33223e-05
0.000345292
3.34893e-05
0.000371714
5.11193e-05
0.00039655
7.0307e-05
0.000420231
8.62325e-05
0.000442297
9.60059e-05
0.00046247
9.82186e-05
0.000481037
9.20673e-05
0.000498533
7.79934e-05
0.000516089
5.64103e-05
-0.000627851
7.95399e-05
-0.000677052
4.92189e-05
-0.000702412
2.53579e-05
-0.000703129
7.21379e-07
-0.000683048
-2.00765e-05
-0.000640942
-4.21026e-05
-0.000575799
-6.51385e-05
-0.000485985
-8.98096e-05
-0.00037007
-0.000115911
-0.000229112
-0.000140954
-8.55797e-05
-0.000143528
-8.55754e-05
-0.000563623
0.000104953
-0.000581398
6.69999e-05
-0.00058883
3.2794e-05
-0.000587722
-3.81391e-07
-0.000575952
-3.18426e-05
-0.000552262
-6.57874e-05
-0.000514934
-0.000102462
-0.000461854
-0.000142885
-0.000390246
-0.000187514
-0.000298148
-0.000233048
-0.000175363
-0.000266308
-0.000260934
-0.000452339
0.000114272
-0.00045964
7.43067e-05
-0.000462604
3.57629e-05
-0.000460187
-2.79252e-06
-0.0004497
-4.23249e-05
-0.000431031
-8.4451e-05
-0.000402993
-0.000130495
-0.00036457
-0.000181302
-0.000314088
-0.000237991
-0.000246542
-0.000300589
-0.000151102
-0.000361742
-0.000412031
-0.000344683
0.000115216
-0.000344456
7.40857e-05
-0.000342138
3.34507e-05
-0.000337034
-7.89147e-06
-0.000328165
-5.11873e-05
-0.000314814
-9.77961e-05
-0.000295832
-0.000149472
-0.00027011
-0.000207018
-0.000235751
-0.000272344
-0.000187195
-0.00034914
-0.000113895
-0.000435035
-0.000525921
-0.000229409
0.000112386
-0.000227005
7.16874e-05
-0.000224179
3.0631e-05
-0.000220293
-1.17705e-05
-0.000214784
-5.669e-05
-0.000207113
-0.000105461
-0.000196546
-0.000160033
-0.00018215
-0.000221407
-0.000161918
-0.00029257
-0.000133747
-0.000377304
-8.6409e-05
-0.000482368
-0.000612323
-0.000118293
0.000107313
-0.000114531
6.7932e-05
-0.00011147
2.75776e-05
-0.00010869
-1.45441e-05
-0.000105894
-5.94795e-05
-0.000102829
-0.000108519
-9.95745e-05
-0.000163281
-9.54696e-05
-0.000225505
-8.96708e-05
-0.000298362
-8.01061e-05
-0.000386862
-5.734e-05
-0.000505127
-0.000669657
-1.01323e-05
0.000100426
-5.10005e-06
6.29072e-05
-1.49397e-06
2.39789e-05
8.70796e-07
-1.69015e-05
1.95665e-06
-6.0558e-05
1.53471e-06
-0.000108089
-8.39177e-07
-0.0001609
-5.46346e-06
-0.000220873
-1.23928e-05
-0.000291425
-2.05446e-05
-0.000378703
-2.5096e-05
-0.000500568
-0.000694746
9.52695e-05
9.13935e-05
0.000102146
5.60386e-05
0.000107197
1.89354e-05
0.000110393
-2.00894e-05
0.000111357
-6.15143e-05
0.00010937
-0.000106095
0.000103319
-0.00015484
9.18367e-05
-0.000209383
7.3407e-05
-0.000272988
4.73467e-05
-0.000352635
1.64325e-05
-0.000469646
-0.000678305
0.000198926
7.94932e-05
0.000208601
4.63715e-05
0.000216366
1.1179e-05
0.000222002
-2.57173e-05
0.000224811
-6.4314e-05
0.000223567
-0.000104843
0.000216369
-0.000147634
0.000200671
-0.000193677
0.000173019
-0.000245327
0.00012975
-0.000309358
6.92939e-05
-0.000409182
-0.000609003
0.000303807
6.43477e-05
0.000317033
3.31542e-05
0.000328666
-4.4446e-07
0.000338292
-3.53348e-05
0.000344896
-7.09089e-05
0.000346762
-0.0001067
0.000341219
-0.000142082
0.000324657
-0.000177106
0.000291643
-0.000212304
0.000235597
-0.000253303
0.000145905
-0.000319482
-0.000463089
0.000414489
4.64638e-05
0.000431426
1.62263e-05
0.000447642
-1.66503e-05
0.0004624
-5.00841e-05
0.000474312
-8.2811e-05
0.000481168
-0.000113546
0.00047973
-0.000140635
0.000465777
-0.000163144
0.000432403
-0.000178921
0.00037124
-0.00019213
0.000257022
-0.000205255
-0.000206058
0.000535613
2.69494e-05
0.000556032
-4.18317e-06
0.000577176
-3.77835e-05
0.000597642
-7.05408e-05
0.000615562
-0.000100721
0.000628199
-0.000126174
0.000632145
-0.000144571
0.000623445
-0.000154435
0.000595595
-0.00015106
0.000537597
-0.000134122
0.000407607
-7.52552e-05
0.000201559
0.000723053
9.6928e-05
-0.000775417
0.000694365
7.13621e-05
0.000656637
6.10608e-05
0.000630136
6.00001e-05
0.000614372
6.68941e-05
0.000607348
7.73417e-05
0.000606611
8.69792e-05
0.000609998
9.26299e-05
0.000616084
9.21436e-05
0.000624515
8.36464e-05
0.000635267
6.72526e-05
4.19163e-05
0.000649771
0.000933396
0.000100739
-0.000937196
0.000912922
9.18463e-05
0.00088563
8.8364e-05
0.000857382
8.82591e-05
0.00083227
9.2016e-05
0.000811972
9.76509e-05
0.00079676
0.000102202
0.000786387
0.000103014
0.000780623
9.79192e-05
0.000779928
8.43519e-05
0.000784604
6.25873e-05
2.90804e-05
0.000797451
0.0010623
0.000100094
-0.00106165
0.00105433
9.98305e-05
0.00104088
0.000101826
0.00102348
0.000105675
0.00100423
0.000111273
0.000985095
0.000116796
0.00096761
0.000119698
0.000953152
0.000117483
0.000943145
0.000107938
0.000939484
8.80241e-05
0.000943695
5.83867e-05
1.21007e-05
0.000960686
0.00117108
-0.00116998
9.90087e-05
0.00116903
0.000101894
0.001163
0.000107866
0.0011534
0.000115287
0.00114132
0.000123364
0.00112842
0.00012971
0.00111637
0.000131755
0.00110709
0.000126778
0.00110277
0.000112272
0.00110625