/*--------------------------------*- C++ -*----------------------------------*\
| =========                 |                                                 |
| \\      /  F ield         | OpenFOAM: The Open Source CFD Toolbox           |
|  \\    /   O peration     | Version:  2212                                  |
|   \\  /    A nd           | Website:  www.openfoam.com                      |
|    \\/     M anipulation  |                                                 |
\*---------------------------------------------------------------------------*/
FoamFile
{
    version     2.0;
    format      ascii;
    arch        "LSB;label=32;scalar=64";
    class       volScalarField;
    location    "0.07";
    object      rho;
}
// * * * * * * * * * * * * * * * * * * * * * * * * * * * * * * * * * * * * * //

dimensions      [1 -3 0 0 0 0 0];

internalField   nonuniform List<scalar> 
3072
(
1.16833
1.16813
1.16802
1.16795
1.16797
1.16816
1.16886
1.17007
1.16968
1.16963
1.16977
1.16971
1.16994
1.16952
1.16954
1.1697
1.17019
1.17038
1.17099
1.17184
1.17295
1.17375
1.17423
1.17446
1.17108
1.1705
1.17075
1.17109
1.1715
1.17209
1.17292
1.17363
1.17437
1.1749
1.17532
1.17561
1.17288
1.17231
1.17264
1.17304
1.17366
1.17437
1.1751
1.17576
1.17632
1.17671
1.17702
1.17726
1.17455
1.17427
1.17464
1.17513
1.17578
1.17646
1.1771
1.17765
1.17808
1.17838
1.17861
1.17879
1.17637
1.1763
1.17667
1.17722
1.17782
1.1784
1.1789
1.17931
1.17962
1.17984
1.18001
1.18013
1.17816
1.17832
1.17868
1.17922
1.17974
1.1802
1.18056
1.18084
1.18104
1.18117
1.18127
1.18134
1.1799
1.18032
1.18063
1.1811
1.18151
1.18183
1.18206
1.18221
1.1823
1.18236
1.18239
1.18241
1.1818
1.18226
1.18243
1.18282
1.18307
1.18325
1.18335
1.18339
1.1834
1.18338
1.18336
1.18334
1.18354
1.18385
1.18393
1.18422
1.18436
1.18443
1.18444
1.1844
1.18434
1.18428
1.18421
1.18416
1.18495
1.18526
1.18516
1.18538
1.18546
1.18546
1.1854
1.18531
1.1852
1.18509
1.185
1.18492
1.18499
1.18637
1.18635
1.1865
1.18653
1.18646
1.18634
1.18619
1.18603
1.18589
1.18576
1.18565
1.16986
1.17004
1.17037
1.17087
1.17145
1.17201
1.17263
1.17309
1.17341
1.17334
1.17312
1.17248
1.17468
1.1748
1.17493
1.17509
1.1753
1.17551
1.17569
1.1758
1.17579
1.17568
1.17513
1.17359
1.17578
1.17594
1.1761
1.17629
1.17651
1.17671
1.17685
1.17689
1.17677
1.1766
1.1761
1.17394
1.17746
1.17764
1.17779
1.17793
1.17804
1.17811
1.17814
1.17807
1.17786
1.17755
1.17707
1.17479
1.17893
1.17905
1.17915
1.17924
1.17931
1.17935
1.17934
1.17927
1.17908
1.17876
1.17837
1.17626
1.18023
1.18032
1.18039
1.18046
1.18052
1.18057
1.1806
1.18058
1.18048
1.18025
1.17997
1.17821
1.1814
1.18145
1.18151
1.18157
1.18165
1.18174
1.18183
1.18191
1.18196
1.18192
1.18188
1.18063
1.18243
1.18245
1.1825
1.18257
1.18267
1.18281
1.18299
1.18321
1.18346
1.18368
1.18405
1.18346
1.18333
1.18334
1.18338
1.18346
1.18359
1.18378
1.18405
1.18441
1.18487
1.18541
1.18626
1.18666
1.18413
1.18412
1.18416
1.18424
1.18439
1.18463
1.18497
1.18545
1.18609
1.18693
1.18836
1.18979
1.18486
1.18484
1.18487
1.18495
1.1851
1.18535
1.18573
1.18628
1.18704
1.18809
1.19006
1.19259
1.18557
1.18553
1.18553
1.18559
1.18573
1.18597
1.18634
1.18688
1.18763
1.18875
1.19084
1.19462
1.16824
1.16806
1.16796
1.1679
1.16792
1.16804
1.16853
1.16991
1.16949
1.16944
1.16959
1.16956
1.16985
1.16946
1.16948
1.16958
1.17001
1.17031
1.17067
1.17141
1.17248
1.17334
1.17387
1.17413
1.17096
1.17041
1.17061
1.17092
1.1713
1.17178
1.17253
1.17323
1.17395
1.17452
1.17494
1.17526
1.17272
1.17213
1.17243
1.17277
1.17333
1.17398
1.17469
1.17535
1.17593
1.17635
1.17668
1.17693
1.17435
1.17402
1.17435
1.17479
1.1754
1.17605
1.1767
1.17726
1.17771
1.17804
1.17827
1.17846
1.17618
1.17605
1.17639
1.1769
1.17747
1.17803
1.17855
1.17896
1.17928
1.17951
1.17968
1.17981
1.17796
1.17807
1.17841
1.17893
1.17942
1.17987
1.18024
1.18052
1.18073
1.18087
1.18097
1.18104
1.17972
1.18008
1.18038
1.18084
1.18123
1.18155
1.18178
1.18193
1.18202
1.18208
1.1821
1.18212
1.18163
1.18203
1.1822
1.18258
1.18283
1.18301
1.1831
1.18314
1.18315
1.18313
1.1831
1.18307
1.18335
1.18363
1.18372
1.18401
1.18415
1.18423
1.18423
1.18419
1.18412
1.18405
1.18398
1.18392
1.18476
1.18505
1.18497
1.1852
1.1853
1.18531
1.18524
1.18514
1.18502
1.1849
1.18479
1.1847
1.18484
1.18617
1.18618
1.18636
1.18641
1.18635
1.18622
1.18606
1.18589
1.18573
1.18558
1.18545
1.16967
1.16984
1.17013
1.17057
1.1711
1.1716
1.17217
1.17259
1.17286
1.17278
1.17254
1.17191
1.17436
1.17448
1.17459
1.17472
1.17489
1.17506
1.17521
1.17529
1.17526
1.17512
1.17457
1.17308
1.17545
1.1756
1.17574
1.17592
1.17611
1.17628
1.17641
1.17642
1.17629
1.17611
1.17561
1.17349
1.17712
1.17729
1.17744
1.17756
1.17765
1.17772
1.17773
1.17764
1.17742
1.1771
1.17663
1.17437
1.1786
1.17871
1.17881
1.17888
1.17894
1.17897
1.17895
1.17887
1.17867
1.17834
1.17795
1.17584
1.17991
1.17999
1.18006
1.18012
1.18017
1.18021
1.18022
1.18019
1.18007
1.17983
1.17955
1.17777
1.18109
1.18114
1.18119
1.18125
1.18131
1.18139
1.18147
1.18153
1.18156
1.18149
1.18143
1.18015
1.18214
1.18216
1.1822
1.18227
1.18236
1.18248
1.18265
1.18284
1.18306
1.18325
1.18356
1.18291
1.18306
1.18306
1.1831
1.18317
1.18329
1.18347
1.18372
1.18405
1.18447
1.18497
1.18575
1.18606
1.18388
1.18387
1.1839
1.18397
1.18411
1.18433
1.18465
1.1851
1.18571
1.1865
1.18783
1.18915
1.18464
1.18461
1.18462
1.18469
1.18484
1.18508
1.18543
1.18595
1.18667
1.18767
1.18954
1.19196
1.18536
1.18531
1.1853
1.18535
1.18548
1.18571
1.18606
1.18657
1.18729
1.18837
1.19038
1.1941
1.16833
1.16813
1.16802
1.16795
1.16797
1.16816
1.16886
1.17007
1.16968
1.16963
1.16977
1.16971
1.16994
1.16952
1.16954
1.1697
1.17019
1.17038
1.17099
1.17184
1.17295
1.17375
1.17423
1.17446
1.17108
1.1705
1.17075
1.17109
1.1715
1.17209
1.17292
1.17363
1.17436
1.1749
1.17532
1.17561
1.17288
1.17231
1.17264
1.17304
1.17366
1.17437
1.1751
1.17576
1.17632
1.17671
1.17702
1.17726
1.17455
1.17427
1.17464
1.17513
1.17578
1.17646
1.1771
1.17765
1.17808
1.17838
1.17861
1.17879
1.17637
1.1763
1.17667
1.17722
1.17782
1.1784
1.1789
1.17931
1.17962
1.17984
1.18001
1.18013
1.17816
1.17832
1.17868
1.17922
1.17974
1.1802
1.18056
1.18084
1.18104
1.18117
1.18127
1.18134
1.1799
1.18032
1.18063
1.1811
1.18151
1.18183
1.18206
1.18221
1.1823
1.18236
1.18239
1.1824
1.1818
1.18226
1.18243
1.18282
1.18307
1.18325
1.18335
1.18339
1.1834
1.18338
1.18336
1.18334
1.18354
1.18385
1.18393
1.18422
1.18436
1.18443
1.18444
1.1844
1.18434
1.18428
1.18421
1.18416
1.18495
1.18526
1.18515
1.18538
1.18546
1.18546
1.1854
1.18531
1.1852
1.18509
1.185
1.18492
1.18499
1.18637
1.18635
1.1865
1.18653
1.18646
1.18634
1.18619
1.18603
1.18589
1.18576
1.18565
1.16986
1.17004
1.17037
1.17087
1.17145
1.17201
1.17263
1.17309
1.17341
1.17334
1.17312
1.17248
1.17468
1.1748
1.17493
1.17509
1.1753
1.17551
1.17569
1.1758
1.17579
1.17568
1.17513
1.17359
1.17578
1.17594
1.1761
1.17629
1.17651
1.17671
1.17685
1.17689
1.17677
1.1766
1.1761
1.17394
1.17746
1.17764
1.17779
1.17793
1.17804
1.17811
1.17814
1.17807
1.17786
1.17755
1.17707
1.17479
1.17893
1.17905
1.17915
1.17924
1.17931
1.17935
1.17934
1.17927
1.17908
1.17876
1.17837
1.17626
1.18023
1.18032
1.18039
1.18046
1.18052
1.18057
1.1806
1.18058
1.18048
1.18025
1.17997
1.17821
1.1814
1.18145
1.18151
1.18157
1.18165
1.18173
1.18183
1.18191
1.18196
1.18192
1.18188
1.18063
1.18243
1.18245
1.1825
1.18257
1.18267
1.18281
1.18299
1.18321
1.18346
1.18368
1.18405
1.18346
1.18333
1.18334
1.18338
1.18346
1.18359
1.18378
1.18405
1.18441
1.18487
1.18541
1.18626
1.18666
1.18413
1.18412
1.18416
1.18424
1.18439
1.18463
1.18497
1.18545
1.18609
1.18693
1.18836
1.18979
1.18486
1.18484
1.18487
1.18495
1.1851
1.18535
1.18573
1.18628
1.18703
1.18809
1.19006
1.19259
1.18557
1.18553
1.18553
1.18559
1.18573
1.18597
1.18634
1.18688
1.18763
1.18875
1.19084
1.19462
1.16824
1.16806
1.16796
1.1679
1.16792
1.16804
1.16853
1.16991
1.16949
1.16944
1.16959
1.16956
1.16985
1.16946
1.16948
1.16958
1.17001
1.17031
1.17067
1.17141
1.17248
1.17334
1.17387
1.17413
1.17096
1.17041
1.17061
1.17092
1.1713
1.17178
1.17253
1.17323
1.17395
1.17452
1.17494
1.17526
1.17272
1.17213
1.17243
1.17277
1.17333
1.17398
1.17469
1.17535
1.17593
1.17635
1.17668
1.17693
1.17435
1.17402
1.17435
1.17479
1.1754
1.17605
1.1767
1.17726
1.17771
1.17804
1.17827
1.17846
1.17618
1.17605
1.17639
1.1769
1.17747
1.17803
1.17855
1.17896
1.17928
1.17951
1.17968
1.17981
1.17796
1.17807
1.17841
1.17893
1.17942
1.17987
1.18024
1.18052
1.18073
1.18087
1.18097
1.18104
1.17972
1.18008
1.18038
1.18084
1.18123
1.18155
1.18178
1.18193
1.18202
1.18208
1.1821
1.18212
1.18163
1.18203
1.1822
1.18258
1.18283
1.18301
1.1831
1.18314
1.18315
1.18313
1.1831
1.18307
1.18335
1.18363
1.18372
1.18401
1.18415
1.18423
1.18423
1.18419
1.18412
1.18405
1.18398
1.18392
1.18476
1.18505
1.18497
1.1852
1.1853
1.18531
1.18524
1.18514
1.18502
1.1849
1.18479
1.1847
1.18484
1.18617
1.18618
1.18636
1.18641
1.18635
1.18622
1.18606
1.18589
1.18573
1.18558
1.18545
1.16967
1.16984
1.17013
1.17057
1.1711
1.1716
1.17217
1.17259
1.17286
1.17278
1.17254
1.17191
1.17436
1.17448
1.17459
1.17472
1.17489
1.17506
1.17521
1.17529
1.17526
1.17512
1.17457
1.17308
1.17545
1.1756
1.17574
1.17592
1.17611
1.17628
1.17641
1.17642
1.17629
1.17611
1.17561
1.17349
1.17712
1.17729
1.17744
1.17756
1.17765
1.17772
1.17773
1.17764
1.17742
1.1771
1.17663
1.17437
1.1786
1.17871
1.17881
1.17888
1.17894
1.17897
1.17895
1.17887
1.17867
1.17834
1.17795
1.17584
1.17991
1.17999
1.18006
1.18012
1.18017
1.18021
1.18022
1.18019
1.18007
1.17983
1.17955
1.17777
1.18109
1.18114
1.18119
1.18125
1.18131
1.18139
1.18147
1.18153
1.18156
1.18149
1.18143
1.18015
1.18214
1.18216
1.1822
1.18227
1.18236
1.18248
1.18265
1.18284
1.18306
1.18325
1.18356
1.18291
1.18306
1.18306
1.1831
1.18317
1.18329
1.18347
1.18372
1.18405
1.18447
1.18497
1.18575
1.18606
1.18388
1.18387
1.1839
1.18397
1.18411
1.18433
1.18465
1.1851
1.18571
1.1865
1.18783
1.18915
1.18464
1.18461
1.18462
1.18469
1.18484
1.18508
1.18543
1.18595
1.18667
1.18767
1.18954
1.19196
1.18536
1.18531
1.1853
1.18535
1.18548
1.18571
1.18606
1.18657
1.18729
1.18837
1.19038
1.1941
1.18792
1.18799
1.18782
1.18768
1.18753
1.18737
1.18719
1.18699
1.18681
1.18663
1.18648
1.18635
1.18815
1.18792
1.18797
1.18799
1.18797
1.18789
1.18776
1.1876
1.18743
1.18726
1.18711
1.18697
1.18817
1.18806
1.18812
1.18815
1.18816
1.18813
1.18806
1.18796
1.18784
1.18771
1.18758
1.18745
1.18818
1.18816
1.18819
1.18822
1.18823
1.18822
1.18819
1.18814
1.18807
1.18799
1.18791
1.18781
1.18625
1.18618
1.18615
1.18618
1.18628
1.18648
1.18679
1.18727
1.18788
1.18873
1.1895
1.19072
1.18685
1.18676
1.18671
1.1867
1.18675
1.18689
1.18713
1.18751
1.18798
1.18862
1.18904
1.18946
1.18734
1.18724
1.18716
1.18711
1.18712
1.18719
1.18734
1.18761
1.18794
1.18843
1.18874
1.18893
1.18772
1.1876
1.1875
1.18742
1.18737
1.18737
1.18742
1.18756
1.18776
1.18811
1.18837
1.18862
1.18784
1.18788
1.18772
1.1876
1.18747
1.18731
1.18711
1.1869
1.1867
1.1865
1.18632
1.18616
1.18819
1.1879
1.18793
1.18794
1.18792
1.18783
1.18769
1.18752
1.18732
1.18712
1.18693
1.18676
1.18831
1.18813
1.18815
1.18815
1.18813
1.18808
1.18799
1.18787
1.18771
1.18754
1.18737
1.1872
1.18843
1.18836
1.18834
1.18832
1.18829
1.18825
1.18818
1.18809
1.18797
1.18783
1.18768
1.18752
1.18603
1.18596
1.18593
1.18595
1.18605
1.18624
1.18653
1.18699
1.18758
1.1884
1.18918
1.19046
1.18662
1.18652
1.18647
1.18647
1.18652
1.18666
1.18689
1.18725
1.1877
1.18834
1.18878
1.18925
1.18706
1.18696
1.18689
1.18687
1.18689
1.18697
1.18712
1.18737
1.1877
1.18817
1.18849
1.1887
1.18739
1.1873
1.18724
1.1872
1.18719
1.18721
1.18727
1.18739
1.18757
1.18787
1.18811
1.18834
1.18792
1.18799
1.18782
1.18768
1.18753
1.18737
1.18719
1.18699
1.18681
1.18663
1.18648
1.18635
1.18815
1.18792
1.18797
1.18799
1.18797
1.18789
1.18776
1.1876
1.18743
1.18726
1.18711
1.18697
1.18817
1.18806
1.18812
1.18815
1.18816
1.18813
1.18806
1.18796
1.18784
1.18771
1.18758
1.18745
1.18818
1.18816
1.18819
1.18822
1.18823
1.18822
1.18819
1.18814
1.18807
1.18799
1.18791
1.18781
1.18625
1.18618
1.18615
1.18618
1.18628
1.18648
1.18679
1.18727
1.18788
1.18873
1.1895
1.19072
1.18685
1.18676
1.18671
1.1867
1.18675
1.18689
1.18713
1.18751
1.18798
1.18862
1.18904
1.18946
1.18734
1.18724
1.18716
1.18711
1.18712
1.18719
1.18734
1.18761
1.18794
1.18843
1.18874
1.18893
1.18772
1.1876
1.1875
1.18742
1.18737
1.18737
1.18742
1.18756
1.18776
1.18811
1.18837
1.18862
1.18784
1.18788
1.18772
1.1876
1.18747
1.18731
1.18711
1.1869
1.1867
1.1865
1.18632
1.18616
1.18819
1.1879
1.18793
1.18794
1.18792
1.18783
1.18769
1.18752
1.18732
1.18712
1.18693
1.18676
1.18831
1.18813
1.18815
1.18815
1.18813
1.18808
1.18799
1.18787
1.18771
1.18754
1.18737
1.1872
1.18843
1.18836
1.18834
1.18832
1.18829
1.18825
1.18818
1.18809
1.18797
1.18783
1.18768
1.18752
1.18603
1.18596
1.18593
1.18595
1.18605
1.18624
1.18653
1.18699
1.18758
1.1884
1.18918
1.19046
1.18662
1.18652
1.18647
1.18647
1.18652
1.18666
1.18689
1.18725
1.1877
1.18834
1.18878
1.18925
1.18706
1.18696
1.18689
1.18687
1.18689
1.18697
1.18712
1.18737
1.1877
1.18817
1.18849
1.1887
1.18739
1.1873
1.18724
1.1872
1.18719
1.18721
1.18727
1.18739
1.18757
1.18787
1.18811
1.18834
1.18817
1.18822
1.18827
1.1883
1.18832
1.18832
1.18831
1.18828
1.18823
1.18818
1.18812
1.18806
1.18819
1.18826
1.18832
1.18837
1.1884
1.18842
1.18841
1.18839
1.18835
1.18831
1.18827
1.18823
1.1882
1.18828
1.18836
1.18841
1.18845
1.18847
1.18846
1.18845
1.18841
1.18838
1.18835
1.18834
1.18821
1.1883
1.18838
1.18843
1.18847
1.18849
1.18849
1.18847
1.18844
1.18841
1.18839
1.18838
1.188
1.18792
1.18784
1.18778
1.18773
1.18771
1.18771
1.18777
1.18786
1.18806
1.1882
1.18838
1.18822
1.18816
1.18812
1.18809
1.18807
1.18806
1.18808
1.18812
1.18818
1.18825
1.18829
1.18832
1.18837
1.18833
1.18831
1.1883
1.18829
1.1883
1.18831
1.18832
1.18834
1.18835
1.18832
1.18827
1.18848
1.18845
1.18844
1.18843
1.18843
1.18844
1.18843
1.18842
1.1884
1.18837
1.1883
1.18822
1.18838
1.18836
1.18832
1.18828
1.18823
1.18817
1.18809
1.188
1.1879
1.18777
1.18763
1.1875
1.18827
1.18822
1.18816
1.1881
1.18802
1.18794
1.18785
1.18775
1.18764
1.18754
1.18743
1.18732
1.18819
1.18811
1.18804
1.18796
1.18788
1.18779
1.1877
1.18761
1.18751
1.18741
1.18731
1.18722
1.18812
1.18804
1.18795
1.18787
1.18779
1.18771
1.18762
1.18753
1.18743
1.18733
1.18724
1.18715
1.18738
1.1873
1.18727
1.18725
1.18726
1.1873
1.18735
1.18744
1.18756
1.18776
1.18793
1.18813
1.18722
1.18716
1.18714
1.18716
1.1872
1.18725
1.18734
1.18745
1.1876
1.1878
1.18796
1.18812
1.18711
1.18707
1.18707
1.1871
1.18715
1.18722
1.18732
1.18745
1.18761
1.18779
1.18796
1.18811
1.18706
1.18701
1.18702
1.18706
1.18712
1.1872
1.18731
1.18744
1.1876
1.18778
1.18795
1.1881
1.18817
1.18822
1.18827
1.1883
1.18832
1.18832
1.18831
1.18828
1.18823
1.18818
1.18812
1.18806
1.18819
1.18826
1.18832
1.18837
1.1884
1.18842
1.18841
1.18839
1.18835
1.18831
1.18827
1.18823
1.1882
1.18828
1.18836
1.18841
1.18845
1.18847
1.18846
1.18845
1.18841
1.18838
1.18835
1.18833
1.18821
1.1883
1.18838
1.18843
1.18847
1.18849
1.18849
1.18847
1.18844
1.18841
1.18839
1.18838
1.188
1.18792
1.18784
1.18778
1.18773
1.18771
1.18771
1.18777
1.18786
1.18806
1.1882
1.18838
1.18822
1.18816
1.18812
1.18809
1.18807
1.18806
1.18808
1.18812
1.18818
1.18825
1.18829
1.18832
1.18837
1.18833
1.18831
1.1883
1.18829
1.1883
1.18831
1.18832
1.18834
1.18835
1.18832
1.18827
1.18848
1.18845
1.18843
1.18843
1.18843
1.18844
1.18843
1.18842
1.1884
1.18837
1.1883
1.18822
1.18838
1.18836
1.18832
1.18828
1.18823
1.18817
1.18809
1.188
1.1879
1.18777
1.18763
1.1875
1.18827
1.18822
1.18816
1.1881
1.18802
1.18794
1.18785
1.18775
1.18764
1.18754
1.18743
1.18732
1.18819
1.18811
1.18804
1.18796
1.18788
1.18779
1.1877
1.18761
1.18751
1.18741
1.18731
1.18722
1.18812
1.18804
1.18795
1.18787
1.18779
1.18771
1.18762
1.18753
1.18743
1.18733
1.18724
1.18715
1.18738
1.1873
1.18727
1.18725
1.18726
1.1873
1.18735
1.18744
1.18756
1.18776
1.18793
1.18813
1.18722
1.18716
1.18714
1.18716
1.1872
1.18725
1.18734
1.18745
1.1876
1.1878
1.18796
1.18812
1.18712
1.18707
1.18707
1.1871
1.18715
1.18722
1.18732
1.18745
1.18761
1.18779
1.18796
1.18811
1.18706
1.18701
1.18702
1.18706
1.18712
1.1872
1.18731
1.18744
1.1876
1.18778
1.18795
1.1881
1.18821
1.18831
1.18839
1.18845
1.18849
1.18851
1.1885
1.18848
1.18845
1.18841
1.18837
1.18834
1.18821
1.18832
1.1884
1.18846
1.1885
1.18851
1.1885
1.18848
1.18844
1.1884
1.18834
1.18833
1.18822
1.18832
1.18841
1.18847
1.1885
1.18851
1.1885
1.18847
1.18843
1.18838
1.18832
1.18829
1.18822
1.18833
1.18841
1.18847
1.18851
1.18851
1.1885
1.18846
1.18842
1.18836
1.1883
1.18826
1.18822
1.18833
1.18842
1.18848
1.18851
1.18851
1.18849
1.18845
1.1884
1.18834
1.18827
1.18822
1.18822
1.18834
1.18842
1.18848
1.18851
1.18851
1.18848
1.18844
1.18838
1.18831
1.18824
1.18817
1.18822
1.18834
1.18843
1.18849
1.18851
1.18851
1.18848
1.18843
1.18836
1.18829
1.1882
1.18812
1.18822
1.18835
1.18844
1.18849
1.18851
1.1885
1.18847
1.18842
1.18835
1.18826
1.18816
1.18805
1.18823
1.18835
1.18844
1.18849
1.18851
1.1885
1.18846
1.18841
1.18833
1.18823
1.18812
1.18796
1.18823
1.18836
1.18845
1.1885
1.18852
1.1885
1.18846
1.1884
1.18831
1.18821
1.18807
1.18785
1.18824
1.18837
1.18846
1.18851
1.18852
1.1885
1.18846
1.18839
1.1883
1.18818
1.18802
1.18771
1.18825
1.18838
1.18847
1.18852
1.18853
1.1885
1.18845
1.18837
1.18828
1.18815
1.18795
1.18748
1.18861
1.18854
1.18852
1.18852
1.18851
1.18851
1.18849
1.18846
1.18842
1.18835
1.18827
1.18817
1.18862
1.18859
1.18856
1.18856
1.18855
1.18854
1.18851
1.18847
1.1884
1.18833
1.18823
1.18814
1.18863
1.1886
1.18858
1.18858
1.18856
1.18854
1.1885
1.18845
1.18838
1.18829
1.1882
1.18811
1.18863
1.1886
1.18859
1.18857
1.18856
1.18852
1.18847
1.18841
1.18834
1.18826
1.18817
1.18809
1.18862
1.18859
1.18858
1.18856
1.18853
1.18849
1.18844
1.18837
1.1883
1.18822
1.18814
1.18807
1.1886
1.18857
1.18856
1.18853
1.1885
1.18845
1.18839
1.18833
1.18826
1.18819
1.18812
1.18806
1.18858
1.18854
1.18853
1.1885
1.18846
1.18841
1.18835
1.18828
1.18822
1.18816
1.1881
1.18806
1.18855
1.18851
1.1885
1.18846
1.18842
1.18836
1.1883
1.18824
1.18818
1.18813
1.18809
1.18805
1.18852
1.18848
1.18846
1.18843
1.18838
1.18832
1.18826
1.1882
1.18815
1.18811
1.18808
1.18805
1.18847
1.18844
1.18843
1.18839
1.18833
1.18827
1.18821
1.18816
1.18812
1.18808
1.18806
1.18805
1.1884
1.1884
1.18839
1.18835
1.1883
1.18824
1.18818
1.18813
1.18809
1.18806
1.18805
1.18804
1.18829
1.18831
1.18832
1.18828
1.18823
1.18817
1.18811
1.18807
1.18804
1.18802
1.18803
1.18803
1.18808
1.18799
1.1879
1.18782
1.18774
1.18766
1.18758
1.18749
1.18739
1.18728
1.18718
1.18702
1.18804
1.18796
1.18788
1.1878
1.18772
1.18765
1.18756
1.18748
1.18738
1.18727
1.18715
1.18691
1.18802
1.18794
1.18787
1.1878
1.18773
1.18765
1.18757
1.18749
1.18739
1.18727
1.18715
1.18689
1.18801
1.18794
1.18787
1.18781
1.18775
1.18768
1.1876
1.18751
1.18742
1.18729
1.18717
1.18691
1.18801
1.18795
1.18789
1.18783
1.18777
1.18771
1.18763
1.18755
1.18745
1.18732
1.18721
1.18694
1.18801
1.18796
1.18791
1.18786
1.18781
1.18775
1.18767
1.18759
1.18749
1.18736
1.18724
1.18698
1.18802
1.18798
1.18794
1.18789
1.18785
1.18779
1.18772
1.18763
1.18753
1.1874
1.18729
1.18702
1.18802
1.18799
1.18796
1.18793
1.18788
1.18783
1.18776
1.18768
1.18758
1.18745
1.18733
1.18707
1.18803
1.18801
1.18799
1.18796
1.18792
1.18787
1.1878
1.18772
1.18762
1.18749
1.18737
1.18711
1.18804
1.18803
1.18801
1.18799
1.18795
1.18791
1.18784
1.18776
1.18767
1.18754
1.18741
1.18715
1.18804
1.18804
1.18803
1.18801
1.18798
1.18794
1.18788
1.1878
1.1877
1.18757
1.18745
1.18719
1.18804
1.18805
1.18805
1.18805
1.18803
1.18799
1.18794
1.18787
1.18778
1.18765
1.18753
1.18725
1.18704
1.18698
1.18698
1.18703
1.1871
1.18719
1.1873
1.18743
1.18759
1.18777
1.18794
1.18809
1.18695
1.18694
1.18695
1.187
1.18707
1.18717
1.18728
1.18742
1.18758
1.18775
1.18793
1.18809
1.18689
1.1869
1.18691
1.18697
1.18705
1.18715
1.18727
1.18741
1.18757
1.18775
1.18792
1.18808
1.18683
1.18685
1.18687
1.18694
1.18703
1.18713
1.18726
1.1874
1.18756
1.18774
1.18791
1.18808
1.18676
1.18679
1.18683
1.18691
1.187
1.18712
1.18724
1.18739
1.18755
1.18773
1.18791
1.18808
1.18668
1.18673
1.18679
1.18687
1.18698
1.1871
1.18723
1.18737
1.18754
1.18772
1.1879
1.18807
1.18658
1.18666
1.18674
1.18684
1.18696
1.18708
1.18722
1.18736
1.18753
1.18771
1.1879
1.18807
1.18646
1.18658
1.18668
1.1868
1.18693
1.18707
1.1872
1.18735
1.18752
1.1877
1.18789
1.18807
1.18631
1.18649
1.18663
1.18676
1.18691
1.18705
1.18719
1.18733
1.1875
1.18769
1.18789
1.18807
1.18613
1.1864
1.18657
1.18672
1.18688
1.18704
1.18718
1.18732
1.18749
1.18768
1.18788
1.18807
1.18591
1.1863
1.18651
1.18668
1.18686
1.18703
1.18717
1.18731
1.18748
1.18767
1.18788
1.18807
1.18561
1.18619
1.18643
1.18662
1.18683
1.18701
1.18715
1.18728
1.18745
1.18765
1.18787
1.18807
1.18821
1.18831
1.18839
1.18845
1.18849
1.1885
1.1885
1.18848
1.18845
1.18841
1.18837
1.18834
1.18821
1.18832
1.1884
1.18846
1.1885
1.18851
1.1885
1.18848
1.18844
1.1884
1.18834
1.18833
1.18821
1.18832
1.18841
1.18847
1.1885
1.18851
1.1885
1.18847
1.18843
1.18838
1.18832
1.18829
1.18822
1.18833
1.18841
1.18847
1.18851
1.18851
1.1885
1.18846
1.18842
1.18836
1.1883
1.18826
1.18822
1.18833
1.18842
1.18848
1.18851
1.18851
1.18849
1.18845
1.1884
1.18834
1.18827
1.18822
1.18822
1.18834
1.18842
1.18848
1.18851
1.18851
1.18848
1.18844
1.18838
1.18831
1.18824
1.18817
1.18822
1.18834
1.18843
1.18849
1.18851
1.18851
1.18848
1.18843
1.18836
1.18829
1.1882
1.18811
1.18822
1.18835
1.18843
1.18849
1.18851
1.1885
1.18847
1.18842
1.18835
1.18826
1.18816
1.18805
1.18823
1.18835
1.18844
1.18849
1.18851
1.1885
1.18846
1.1884
1.18833
1.18823
1.18812
1.18796
1.18823
1.18836
1.18845
1.1885
1.18852
1.1885
1.18846
1.1884
1.18831
1.18821
1.18807
1.18785
1.18824
1.18837
1.18846
1.18851
1.18852
1.1885
1.18846
1.18839
1.1883
1.18818
1.18802
1.18771
1.18825
1.18838
1.18847
1.18852
1.18853
1.1885
1.18845
1.18837
1.18828
1.18815
1.18795
1.18748
1.18861
1.18854
1.18852
1.18852
1.18851
1.18851
1.18849
1.18846
1.18842
1.18835
1.18827
1.18817
1.18862
1.18859
1.18856
1.18856
1.18855
1.18854
1.18851
1.18847
1.1884
1.18833
1.18823
1.18814
1.18863
1.1886
1.18858
1.18858
1.18856
1.18854
1.1885
1.18845
1.18838
1.18829
1.1882
1.18811
1.18863
1.1886
1.18859
1.18857
1.18855
1.18852
1.18847
1.18841
1.18834
1.18826
1.18817
1.18809
1.18862
1.18859
1.18858
1.18856
1.18853
1.18849
1.18844
1.18837
1.1883
1.18822
1.18814
1.18807
1.1886
1.18857
1.18856
1.18853
1.1885
1.18845
1.18839
1.18833
1.18826
1.18819
1.18812
1.18806
1.18858
1.18854
1.18853
1.1885
1.18846
1.18841
1.18835
1.18828
1.18822
1.18816
1.1881
1.18806
1.18855
1.18851
1.1885
1.18846
1.18842
1.18836
1.1883
1.18824
1.18818
1.18813
1.18809
1.18805
1.18852
1.18848
1.18846
1.18842
1.18838
1.18832
1.18826
1.1882
1.18815
1.18811
1.18808
1.18805
1.18847
1.18844
1.18843
1.18839
1.18833
1.18827
1.18821
1.18816
1.18812
1.18808
1.18806
1.18805
1.1884
1.1884
1.18839
1.18835
1.1883
1.18824
1.18818
1.18813
1.18809
1.18806
1.18805
1.18804
1.18829
1.18831
1.18832
1.18828
1.18823
1.18817
1.18811
1.18807
1.18804
1.18802
1.18803
1.18803
1.18808
1.18799
1.1879
1.18782
1.18774
1.18766
1.18758
1.18749
1.18739
1.18728
1.18718
1.18702
1.18804
1.18796
1.18788
1.1878
1.18772
1.18765
1.18756
1.18748
1.18738
1.18727
1.18715
1.18691
1.18802
1.18794
1.18787
1.1878
1.18773
1.18765
1.18757
1.18749
1.18739
1.18727
1.18715
1.18689
1.18801
1.18794
1.18787
1.18781
1.18775
1.18768
1.1876
1.18751
1.18742
1.18729
1.18717
1.18691
1.18801
1.18795
1.18789
1.18783
1.18777
1.18771
1.18763
1.18755
1.18745
1.18732
1.18721
1.18694
1.18801
1.18796
1.18791
1.18786
1.18781
1.18775
1.18767
1.18759
1.18749
1.18736
1.18724
1.18698
1.18802
1.18798
1.18794
1.18789
1.18785
1.18779
1.18772
1.18763
1.18753
1.1874
1.18729
1.18702
1.18802
1.18799
1.18796
1.18793
1.18788
1.18783
1.18776
1.18768
1.18758
1.18745
1.18733
1.18707
1.18803
1.18801
1.18799
1.18796
1.18792
1.18787
1.1878
1.18772
1.18762
1.18749
1.18737
1.18711
1.18804
1.18803
1.18801
1.18799
1.18795
1.18791
1.18784
1.18776
1.18767
1.18754
1.18741
1.18715
1.18804
1.18804
1.18803
1.18801
1.18798
1.18794
1.18788
1.1878
1.1877
1.18757
1.18745
1.18719
1.18804
1.18805
1.18805
1.18805
1.18803
1.18799
1.18794
1.18787
1.18778
1.18765
1.18753
1.18725
1.18704
1.18698
1.18698
1.18703
1.1871
1.18719
1.1873
1.18743
1.18759
1.18777
1.18794
1.18809
1.18695
1.18694
1.18695
1.187
1.18707
1.18717
1.18728
1.18742
1.18758
1.18776
1.18793
1.18809
1.1869
1.1869
1.18691
1.18697
1.18705
1.18715
1.18727
1.18741
1.18757
1.18775
1.18792
1.18808
1.18683
1.18685
1.18687
1.18694
1.18703
1.18713
1.18726
1.1874
1.18756
1.18774
1.18791
1.18808
1.18676
1.18679
1.18683
1.18691
1.187
1.18712
1.18724
1.18739
1.18755
1.18773
1.18791
1.18808
1.18668
1.18673
1.18679
1.18687
1.18698
1.1871
1.18723
1.18737
1.18754
1.18772
1.1879
1.18807
1.18658
1.18666
1.18674
1.18684
1.18696
1.18708
1.18722
1.18736
1.18753
1.18771
1.1879
1.18807
1.18646
1.18658
1.18668
1.1868
1.18693
1.18707
1.1872
1.18735
1.18752
1.1877
1.18789
1.18807
1.18631
1.18649
1.18663
1.18676
1.18691
1.18705
1.18719
1.18734
1.1875
1.18769
1.18789
1.18807
1.18613
1.1864
1.18657
1.18672
1.18688
1.18704
1.18718
1.18732
1.18749
1.18768
1.18788
1.18807
1.18591
1.18631
1.18651
1.18668
1.18686
1.18703
1.18717
1.18731
1.18748
1.18767
1.18788
1.18807
1.18561
1.18619
1.18643
1.18662
1.18683
1.18701
1.18715
1.18728
1.18745
1.18765
1.18787
1.18807
)
;

boundaryField
{
    rotor
    {
        type            calculated;
        value           nonuniform List<scalar> 
192
(
1.16833
1.16813
1.16802
1.16795
1.16797
1.16816
1.16886
1.17007
1.16968
1.16963
1.16977
1.16971
1.16986
1.17004
1.17037
1.17087
1.17145
1.17201
1.17263
1.17309
1.17341
1.17334
1.17312
1.17248
1.16824
1.16806
1.16796
1.1679
1.16792
1.16804
1.16853
1.16991
1.16949
1.16944
1.16959
1.16956
1.16967
1.16984
1.17013
1.17057
1.1711
1.1716
1.17217
1.17259
1.17286
1.17278
1.17254
1.17191
1.16833
1.16813
1.16802
1.16795
1.16797
1.16816
1.16886
1.17007
1.16968
1.16963
1.16977
1.16971
1.16986
1.17004
1.17037
1.17087
1.17145
1.17201
1.17263
1.17309
1.17341
1.17334
1.17312
1.17248
1.16824
1.16806
1.16796
1.1679
1.16792
1.16804
1.16853
1.16991
1.16949
1.16944
1.16959
1.16956
1.16967
1.16984
1.17013
1.17057
1.1711
1.1716
1.17217
1.17259
1.17286
1.17278
1.17254
1.17191
1.16833
1.16994
1.17108
1.17288
1.17455
1.17637
1.17816
1.1799
1.1818
1.18354
1.18495
1.18499
1.17191
1.17308
1.17349
1.17437
1.17584
1.17777
1.18015
1.18291
1.18606
1.18915
1.19196
1.1941
1.16824
1.16985
1.17096
1.17272
1.17435
1.17618
1.17796
1.17972
1.18163
1.18335
1.18476
1.18484
1.17248
1.17359
1.17394
1.17479
1.17626
1.17821
1.18063
1.18346
1.18666
1.18979
1.19259
1.19462
1.16833
1.16994
1.17108
1.17288
1.17455
1.17637
1.17816
1.1799
1.1818
1.18354
1.18495
1.18499
1.17191
1.17308
1.17349
1.17437
1.17584
1.17777
1.18015
1.18291
1.18606
1.18915
1.19196
1.1941
1.16824
1.16985
1.17096
1.17272
1.17435
1.17618
1.17796
1.17972
1.18163
1.18335
1.18476
1.18484
1.17248
1.17359
1.17394
1.17479
1.17626
1.17821
1.18063
1.18346
1.18666
1.18979
1.19259
1.19462
)
;
    }
    stator
    {
        type            calculated;
        value           nonuniform List<scalar> 
192
(
1.18825
1.18838
1.18847
1.18852
1.18853
1.1885
1.18845
1.18837
1.18828
1.18815
1.18795
1.18748
1.18829
1.18831
1.18832
1.18828
1.18823
1.18817
1.18811
1.18807
1.18804
1.18802
1.18803
1.18803
1.18804
1.18805
1.18805
1.18805
1.18803
1.18799
1.18794
1.18787
1.18778
1.18765
1.18753
1.18725
1.18561
1.18619
1.18643
1.18662
1.18683
1.18701
1.18715
1.18728
1.18745
1.18765
1.18787
1.18807
1.18825
1.18838
1.18847
1.18852
1.18853
1.1885
1.18845
1.18837
1.18828
1.18815
1.18795
1.18748
1.18829
1.18831
1.18832
1.18828
1.18823
1.18817
1.18811
1.18807
1.18804
1.18802
1.18803
1.18803
1.18804
1.18805
1.18805
1.18805
1.18803
1.18799
1.18794
1.18787
1.18778
1.18765
1.18753
1.18725
1.18561
1.18619
1.18643
1.18662
1.18683
1.18701
1.18715
1.18728
1.18745
1.18765
1.18787
1.18807
1.18861
1.18862
1.18863
1.18863
1.18862
1.1886
1.18858
1.18855
1.18852
1.18847
1.1884
1.18829
1.18834
1.18833
1.18829
1.18826
1.18822
1.18817
1.18812
1.18805
1.18796
1.18785
1.18771
1.18748
1.18704
1.18695
1.18689
1.18683
1.18676
1.18668
1.18658
1.18646
1.18631
1.18613
1.18591
1.18561
1.18702
1.18691
1.18689
1.18691
1.18694
1.18698
1.18702
1.18707
1.18711
1.18715
1.18719
1.18725
1.18861
1.18862
1.18863
1.18863
1.18862
1.1886
1.18858
1.18855
1.18852
1.18847
1.1884
1.18829
1.18834
1.18833
1.18829
1.18826
1.18822
1.18817
1.18811
1.18805
1.18796
1.18785
1.18771
1.18748
1.18704
1.18695
1.1869
1.18683
1.18676
1.18668
1.18658
1.18646
1.18631
1.18613
1.18591
1.18561
1.18702
1.18691
1.18689
1.18691
1.18694
1.18698
1.18702
1.18707
1.18711
1.18715
1.18719
1.18725
)
;
    }
    front
    {
        type            empty;
    }
    back
    {
        type            empty;
    }
}


// ************************************************************************* //
