/*--------------------------------*- C++ -*----------------------------------*\
| =========                 |                                                 |
| \\      /  F ield         | OpenFOAM: The Open Source CFD Toolbox           |
|  \\    /   O peration     | Version:  2212                                  |
|   \\  /    A nd           | Website:  www.openfoam.com                      |
|    \\/     M anipulation  |                                                 |
\*---------------------------------------------------------------------------*/
FoamFile
{
    version     2.0;
    format      ascii;
    arch        "LSB;label=32;scalar=64";
    class       volScalarField;
    location    "0.07";
    object      tracer0;
}
// * * * * * * * * * * * * * * * * * * * * * * * * * * * * * * * * * * * * * //

dimensions      [0 0 0 0 0 0 0];

internalField   nonuniform List<scalar> 
3072
(
2.49978e-05
2.49841e-05
2.4945e-05
2.48697e-05
2.47951e-05
2.47417e-05
2.48706e-05
2.63074e-05
2.75348e-05
2.76326e-05
2.76544e-05
2.76712e-05
2.52739e-05
2.52246e-05
2.50643e-05
2.48764e-05
2.49803e-05
2.56469e-05
2.6755e-05
2.72365e-05
2.74068e-05
2.72607e-05
2.69514e-05
2.66074e-05
2.53925e-05
2.53184e-05
2.50544e-05
2.52262e-05
2.6049e-05
2.67564e-05
2.69948e-05
2.70581e-05
2.67327e-05
2.58085e-05
2.45268e-05
2.31587e-05
2.55145e-05
2.55704e-05
2.55628e-05
2.60784e-05
2.65864e-05
2.67509e-05
2.67787e-05
2.62121e-05
2.45541e-05
2.21411e-05
2.01855e-05
1.85987e-05
2.5587e-05
2.5906e-05
2.60523e-05
2.64271e-05
2.65705e-05
2.65942e-05
2.60896e-05
2.43041e-05
2.16586e-05
1.91954e-05
1.7284e-05
1.57115e-05
2.56237e-05
2.60381e-05
2.62314e-05
2.64243e-05
2.648e-05
2.62174e-05
2.48707e-05
2.22749e-05
1.94202e-05
1.71086e-05
1.53422e-05
1.4005e-05
2.5637e-05
2.60677e-05
2.62675e-05
2.63641e-05
2.62652e-05
2.55227e-05
2.36111e-05
2.10697e-05
1.85917e-05
1.66074e-05
1.50549e-05
1.38569e-05
2.56953e-05
2.60947e-05
2.62164e-05
2.62635e-05
2.60016e-05
2.51141e-05
2.34974e-05
2.11952e-05
1.88733e-05
1.69783e-05
1.54862e-05
1.43188e-05
2.77999e-05
2.78609e-05
2.62106e-05
2.60586e-05
2.58303e-05
2.51636e-05
2.37874e-05
2.18655e-05
1.98568e-05
1.81282e-05
1.67586e-05
1.56483e-05
3.12334e-05
2.99671e-05
2.80194e-05
2.61352e-05
2.58778e-05
2.54304e-05
2.45066e-05
2.33331e-05
2.20535e-05
2.06826e-05
1.96433e-05
1.86196e-05
3.31567e-05
3.44939e-05
3.37081e-05
2.89784e-05
2.72641e-05
2.65407e-05
2.59778e-05
2.52392e-05
2.44514e-05
2.35785e-05
2.2806e-05
2.21999e-05
3.70998e-05
3.78006e-05
3.95764e-05
3.85683e-05
3.64396e-05
3.45958e-05
3.31411e-05
3.20387e-05
3.10865e-05
3.0352e-05
2.96902e-05
2.92256e-05
2.76906e-05
2.77116e-05
2.7735e-05
2.77709e-05
2.78179e-05
2.78819e-05
2.79668e-05
2.80554e-05
2.81392e-05
2.81881e-05
2.82123e-05
2.82089e-05
2.62371e-05
2.59634e-05
2.58133e-05
2.58315e-05
2.6002e-05
2.63096e-05
2.67464e-05
2.72638e-05
2.77803e-05
2.81147e-05
2.82817e-05
2.8348e-05
2.20933e-05
2.1355e-05
2.09884e-05
2.09766e-05
2.12928e-05
2.20134e-05
2.30858e-05
2.45067e-05
2.61566e-05
2.75065e-05
2.81497e-05
2.83963e-05
1.73622e-05
1.65863e-05
1.61713e-05
1.6148e-05
1.64784e-05
1.72546e-05
1.85522e-05
2.05422e-05
2.32161e-05
2.62625e-05
2.78382e-05
2.84341e-05
1.46636e-05
1.40183e-05
1.37631e-05
1.37486e-05
1.41711e-05
1.49331e-05
1.61972e-05
1.80503e-05
2.0762e-05
2.45165e-05
2.74215e-05
2.84766e-05
1.32022e-05
1.27447e-05
1.25801e-05
1.25862e-05
1.30217e-05
1.37981e-05
1.50515e-05
1.68744e-05
1.95804e-05
2.35893e-05
2.71323e-05
2.85199e-05
1.30789e-05
1.25606e-05
1.22058e-05
1.22657e-05
1.26443e-05
1.34127e-05
1.46531e-05
1.64498e-05
1.91191e-05
2.3168e-05
2.69503e-05
2.85642e-05
1.35379e-05
1.30277e-05
1.2778e-05
1.29038e-05
1.32301e-05
1.38579e-05
1.50091e-05
1.66692e-05
1.9151e-05
2.31371e-05
2.69176e-05
2.86093e-05
1.49287e-05
1.43821e-05
1.43185e-05
1.45474e-05
1.49819e-05
1.5729e-05
1.69797e-05
1.86561e-05
2.12622e-05
2.47475e-05
2.75773e-05
2.87062e-05
1.80682e-05
1.75351e-05
1.75571e-05
1.7863e-05
1.83458e-05
1.91015e-05
2.02222e-05
2.16986e-05
2.40453e-05
2.64858e-05
2.81628e-05
2.88254e-05
2.17348e-05
2.16005e-05
2.18281e-05
2.23206e-05
2.2996e-05
2.39049e-05
2.50297e-05
2.65688e-05
2.78196e-05
2.85344e-05
2.89034e-05
2.89511e-05
2.88592e-05
2.869e-05
2.87528e-05
2.89087e-05
2.9093e-05
2.92474e-05
2.93303e-05
2.93426e-05
2.9295e-05
2.9191e-05
2.91149e-05
2.89939e-05
2.11653e-05
2.11629e-05
2.11586e-05
2.11471e-05
2.11331e-05
2.11263e-05
2.11555e-05
2.14673e-05
2.20471e-05
2.21085e-05
2.212e-05
2.21294e-05
2.12193e-05
2.12188e-05
2.11994e-05
2.116e-05
2.11775e-05
2.13634e-05
2.17286e-05
2.18976e-05
2.19732e-05
2.18798e-05
2.16591e-05
2.14091e-05
2.12452e-05
2.12535e-05
2.12082e-05
2.12424e-05
2.14617e-05
2.16905e-05
2.1765e-05
2.17831e-05
2.15565e-05
2.09591e-05
2.00478e-05
1.93077e-05
2.12691e-05
2.13268e-05
2.13421e-05
2.14625e-05
2.16161e-05
2.16655e-05
2.16322e-05
2.12816e-05
2.02731e-05
1.89405e-05
1.79215e-05
1.70167e-05
2.1282e-05
2.13898e-05
2.14546e-05
2.15499e-05
2.15902e-05
2.15518e-05
2.1219e-05
2.02184e-05
1.88169e-05
1.74802e-05
1.63987e-05
1.53944e-05
2.12892e-05
2.14148e-05
2.14901e-05
2.15281e-05
2.15177e-05
2.12951e-05
2.05561e-05
1.91817e-05
1.7653e-05
1.63413e-05
1.52472e-05
1.43189e-05
2.12922e-05
2.14153e-05
2.14684e-05
2.14764e-05
2.13678e-05
2.09193e-05
1.99047e-05
1.85508e-05
1.7235e-05
1.6105e-05
1.51369e-05
1.43073e-05
2.12942e-05
2.13941e-05
2.14179e-05
2.13902e-05
2.11898e-05
2.06567e-05
1.98066e-05
1.86125e-05
1.73895e-05
1.63274e-05
1.54185e-05
1.46344e-05
2.12882e-05
2.13577e-05
2.13654e-05
2.1287e-05
2.10712e-05
2.06719e-05
1.99464e-05
1.89529e-05
1.79121e-05
1.69773e-05
1.61819e-05
1.54973e-05
2.12649e-05
2.1285e-05
2.12649e-05
2.12024e-05
2.10775e-05
2.08016e-05
2.03577e-05
1.97621e-05
1.90777e-05
1.8375e-05
1.77724e-05
1.72296e-05
2.12418e-05
2.1251e-05
2.1247e-05
2.12117e-05
2.11561e-05
2.10234e-05
2.08577e-05
2.05633e-05
2.02978e-05
1.99177e-05
1.96351e-05
1.92946e-05
2.14813e-05
2.15388e-05
2.16143e-05
2.16528e-05
2.16728e-05
2.16394e-05
2.1618e-05
2.1514e-05
2.14043e-05
2.12571e-05
2.11161e-05
2.10043e-05
2.21393e-05
2.21506e-05
2.21639e-05
2.21833e-05
2.22147e-05
2.22598e-05
2.23252e-05
2.24012e-05
2.24814e-05
2.25456e-05
2.25771e-05
2.25865e-05
2.11156e-05
2.08915e-05
2.07396e-05
2.07299e-05
2.08109e-05
2.09906e-05
2.12567e-05
2.16171e-05
2.20092e-05
2.23933e-05
2.2591e-05
2.2663e-05
1.85951e-05
1.82187e-05
1.79389e-05
1.7917e-05
1.80149e-05
1.83699e-05
1.88727e-05
1.9651e-05
2.05575e-05
2.16366e-05
2.2405e-05
2.26892e-05
1.62885e-05
1.58259e-05
1.55351e-05
1.54976e-05
1.55998e-05
1.60582e-05
1.66978e-05
1.76858e-05
1.89291e-05
2.0389e-05
2.20254e-05
2.27167e-05
1.46843e-05
1.42e-05
1.39744e-05
1.3937e-05
1.41155e-05
1.4577e-05
1.52964e-05
1.63743e-05
1.78631e-05
1.94666e-05
2.1499e-05
2.27491e-05
1.37252e-05
1.33514e-05
1.32033e-05
1.31831e-05
1.34073e-05
1.38682e-05
1.46012e-05
1.56364e-05
1.72318e-05
1.89621e-05
2.10888e-05
2.27875e-05
1.37272e-05
1.33173e-05
1.30263e-05
1.29902e-05
1.31816e-05
1.36309e-05
1.43598e-05
1.53711e-05
1.69855e-05
1.87369e-05
2.08797e-05
2.28258e-05
1.40617e-05
1.3679e-05
1.3413e-05
1.34611e-05
1.36221e-05
1.39582e-05
1.45783e-05
1.54518e-05
1.6985e-05
1.87064e-05
2.08168e-05
2.2865e-05
1.49699e-05
1.46183e-05
1.44401e-05
1.45365e-05
1.47447e-05
1.51224e-05
1.5742e-05
1.66659e-05
1.80824e-05
1.93778e-05
2.11282e-05
2.29536e-05
1.68382e-05
1.65295e-05
1.64214e-05
1.65288e-05
1.67526e-05
1.70951e-05
1.75902e-05
1.82975e-05
1.92368e-05
2.01635e-05
2.16752e-05
2.31404e-05
1.9109e-05
1.89026e-05
1.88906e-05
1.89995e-05
1.92102e-05
1.94941e-05
1.98772e-05
2.0367e-05
2.10188e-05
2.18142e-05
2.28268e-05
2.34391e-05
2.09138e-05
2.09412e-05
2.1078e-05
2.13176e-05
2.16049e-05
2.19478e-05
2.23358e-05
2.27521e-05
2.32195e-05
2.34974e-05
2.37315e-05
2.36841e-05
2.1226e-05
2.12438e-05
2.13023e-05
2.13972e-05
2.14618e-05
2.1529e-05
2.14226e-05
2.01674e-05
1.91511e-05
1.90758e-05
1.90784e-05
1.90835e-05
2.09922e-05
2.11258e-05
2.13443e-05
2.15166e-05
2.13972e-05
2.09381e-05
1.98768e-05
1.92218e-05
1.88462e-05
1.86805e-05
1.83294e-05
1.79471e-05
2.0895e-05
2.1154e-05
2.14462e-05
2.12857e-05
2.07017e-05
1.97299e-05
1.91518e-05
1.86352e-05
1.80255e-05
1.71836e-05
1.57411e-05
1.48574e-05
2.07826e-05
2.10539e-05
2.11028e-05
2.06369e-05
1.98133e-05
1.90187e-05
1.83324e-05
1.73367e-05
1.5954e-05
1.41498e-05
1.28558e-05
1.17731e-05
2.05549e-05
2.059e-05
2.04928e-05
1.98469e-05
1.90058e-05
1.81679e-05
1.72044e-05
1.57486e-05
1.39238e-05
1.21469e-05
1.09005e-05
9.76514e-06
2.04523e-05
2.02682e-05
1.99614e-05
1.91992e-05
1.83921e-05
1.75008e-05
1.62143e-05
1.43178e-05
1.23668e-05
1.07077e-05
9.53502e-06
8.52841e-06
2.03502e-05
1.99498e-05
1.94746e-05
1.87267e-05
1.79138e-05
1.68113e-05
1.52889e-05
1.35132e-05
1.18049e-05
1.03716e-05
9.32758e-06
8.42955e-06
2.01689e-05
1.9643e-05
1.9161e-05
1.83537e-05
1.75085e-05
1.6524e-05
1.52601e-05
1.36137e-05
1.20109e-05
1.0639e-05
9.62985e-06
8.76946e-06
2.01001e-05
1.94694e-05
1.88189e-05
1.8078e-05
1.74535e-05
1.66026e-05
1.55014e-05
1.41104e-05
1.27243e-05
1.14673e-05
1.05267e-05
9.73097e-06
1.99552e-05
1.91963e-05
1.86949e-05
1.81055e-05
1.75766e-05
1.69164e-05
1.6173e-05
1.52545e-05
1.43304e-05
1.33255e-05
1.25505e-05
1.18258e-05
1.9956e-05
1.92772e-05
1.88751e-05
1.84134e-05
1.80461e-05
1.76021e-05
1.72e-05
1.66721e-05
1.61974e-05
1.56455e-05
1.51912e-05
1.47653e-05
2.02423e-05
1.98876e-05
1.9779e-05
1.95749e-05
1.93698e-05
1.90906e-05
1.88202e-05
1.84909e-05
1.81648e-05
1.78672e-05
1.76045e-05
1.74217e-05
1.90904e-05
1.91002e-05
1.91133e-05
1.91337e-05
1.91768e-05
1.92369e-05
1.93277e-05
1.94282e-05
1.95398e-05
1.96242e-05
1.96688e-05
1.9686e-05
1.75296e-05
1.72158e-05
1.70423e-05
1.70394e-05
1.71687e-05
1.7421e-05
1.77987e-05
1.82894e-05
1.88404e-05
1.93559e-05
1.96265e-05
1.97257e-05
1.38988e-05
1.35227e-05
1.31874e-05
1.31914e-05
1.33708e-05
1.38542e-05
1.45618e-05
1.55939e-05
1.68611e-05
1.832e-05
1.9357e-05
1.97403e-05
1.09174e-05
1.04563e-05
1.01566e-05
1.0144e-05
1.03823e-05
1.09228e-05
1.17878e-05
1.30096e-05
1.46564e-05
1.66445e-05
1.88426e-05
1.97673e-05
9.04164e-06
8.57235e-06
8.3763e-06
8.36409e-06
8.67381e-06
9.23429e-06
1.01587e-05
1.14897e-05
1.33159e-05
1.54198e-05
1.81358e-05
1.97984e-05
7.9728e-06
7.61784e-06
7.49228e-06
7.49576e-06
7.82022e-06
8.39603e-06
9.3164e-06
1.06147e-05
1.25626e-05
1.48084e-05
1.76184e-05
1.98413e-05
7.87491e-06
7.48212e-06
7.21168e-06
7.25535e-06
7.53776e-06
8.1093e-06
9.02533e-06
1.03051e-05
1.2271e-05
1.45395e-05
1.7358e-05
1.98804e-05
8.20789e-06
7.82945e-06
7.64059e-06
7.73271e-06
7.97216e-06
8.43154e-06
9.27479e-06
1.0441e-05
1.2318e-05
1.45182e-05
1.7288e-05
1.99236e-05
9.21408e-06
8.81674e-06
8.77139e-06
8.93787e-06
9.25394e-06
9.79406e-06
1.06809e-05
1.18883e-05
1.36729e-05
1.54607e-05
1.77403e-05
2.00405e-05
1.14196e-05
1.10625e-05
1.10949e-05
1.13236e-05
1.1672e-05
1.21954e-05
1.29398e-05
1.39364e-05
1.5237e-05
1.65272e-05
1.84373e-05
2.027e-05
1.44869e-05
1.43097e-05
1.43768e-05
1.46054e-05
1.49322e-05
1.53736e-05
1.59478e-05
1.66586e-05
1.76377e-05
1.86939e-05
1.99252e-05
2.06535e-05
1.73021e-05
1.73582e-05
1.75505e-05
1.78558e-05
1.82249e-05
1.86709e-05
1.91829e-05
1.97787e-05
2.03247e-05
2.0648e-05
2.09445e-05
2.08805e-05
2.65241e-05
2.65121e-05
2.64788e-05
2.6402e-05
2.63309e-05
2.62632e-05
2.63493e-05
2.7398e-05
2.93105e-05
2.94814e-05
2.95063e-05
2.95255e-05
2.68119e-05
2.67722e-05
2.66231e-05
2.64106e-05
2.64275e-05
2.69591e-05
2.83078e-05
2.89227e-05
2.91764e-05
2.90237e-05
2.85575e-05
2.80574e-05
2.69362e-05
2.68797e-05
2.65972e-05
2.66733e-05
2.74113e-05
2.83348e-05
2.86409e-05
2.87219e-05
2.83409e-05
2.70787e-05
2.51498e-05
2.35694e-05
2.70547e-05
2.71044e-05
2.70724e-05
2.74925e-05
2.81403e-05
2.83549e-05
2.83923e-05
2.77133e-05
2.56431e-05
2.26569e-05
2.05393e-05
1.87261e-05
2.7136e-05
2.74324e-05
2.75528e-05
2.7959e-05
2.81394e-05
2.81796e-05
2.75988e-05
2.54703e-05
2.23852e-05
1.95717e-05
1.75572e-05
1.57388e-05
2.71786e-05
2.75842e-05
2.77731e-05
2.79818e-05
2.80439e-05
2.77413e-05
2.61716e-05
2.3188e-05
1.9937e-05
1.73845e-05
1.54865e-05
1.39156e-05
2.72045e-05
2.76341e-05
2.78232e-05
2.79174e-05
2.78065e-05
2.69366e-05
2.47276e-05
2.1812e-05
1.9052e-05
1.68973e-05
1.52364e-05
1.38456e-05
2.72333e-05
2.76335e-05
2.77706e-05
2.77837e-05
2.7464e-05
2.63871e-05
2.45215e-05
2.19385e-05
1.93598e-05
1.73008e-05
1.57131e-05
1.43766e-05
2.72299e-05
2.75848e-05
2.76534e-05
2.75987e-05
2.7236e-05
2.64263e-05
2.48351e-05
2.26751e-05
2.0447e-05
1.85537e-05
1.70922e-05
1.58676e-05
2.72198e-05
2.74931e-05
2.75306e-05
2.74716e-05
2.72471e-05
2.67564e-05
2.57976e-05
2.44692e-05
2.29572e-05
2.14003e-05
2.01444e-05
1.9034e-05
2.7164e-05
2.73534e-05
2.73458e-05
2.73044e-05
2.72228e-05
2.70729e-05
2.68385e-05
2.63839e-05
2.58927e-05
2.51682e-05
2.45566e-05
2.38828e-05
2.68285e-05
2.68213e-05
2.67289e-05
2.66663e-05
2.66423e-05
2.66165e-05
2.65585e-05
2.64295e-05
2.63044e-05
2.61729e-05
2.60122e-05
2.58324e-05
2.95456e-05
2.95687e-05
2.95958e-05
2.96351e-05
2.96985e-05
2.97886e-05
2.99174e-05
3.00632e-05
3.02092e-05
3.03142e-05
3.03658e-05
3.03805e-05
2.74617e-05
2.70191e-05
2.67213e-05
2.67098e-05
2.689e-05
2.72778e-05
2.7843e-05
2.8599e-05
2.93958e-05
3.00719e-05
3.03944e-05
3.0515e-05
2.20722e-05
2.13e-05
2.07466e-05
2.07198e-05
2.09494e-05
2.17053e-05
2.27949e-05
2.44961e-05
2.65296e-05
2.88599e-05
3.00879e-05
3.05619e-05
1.73442e-05
1.65192e-05
1.60152e-05
1.59618e-05
1.62025e-05
1.70096e-05
1.82347e-05
2.01069e-05
2.27349e-05
2.64181e-05
2.94582e-05
3.06098e-05
1.45957e-05
1.38313e-05
1.35079e-05
1.34652e-05
1.38182e-05
1.4628e-05
1.59605e-05
1.78944e-05
2.03389e-05
2.42043e-05
2.8612e-05
3.06656e-05
1.30421e-05
1.24724e-05
1.22564e-05
1.22334e-05
1.26116e-05
1.33745e-05
1.46332e-05
1.67316e-05
1.91655e-05
2.31033e-05
2.78853e-05
3.073e-05
1.29848e-05
1.23802e-05
1.19615e-05
1.19261e-05
1.22381e-05
1.29765e-05
1.41789e-05
1.6299e-05
1.87057e-05
2.26224e-05
2.75033e-05
3.07964e-05
1.34927e-05
1.2916e-05
1.25449e-05
1.26379e-05
1.29205e-05
1.35104e-05
1.45414e-05
1.65743e-05
1.87224e-05
2.25736e-05
2.73863e-05
3.08631e-05
1.49999e-05
1.44213e-05
1.41892e-05
1.43848e-05
1.47734e-05
1.54841e-05
1.66386e-05
1.87537e-05
2.06559e-05
2.41698e-05
2.77651e-05
3.09393e-05
1.83279e-05
1.77259e-05
1.76401e-05
1.7926e-05
1.84212e-05
1.91925e-05
2.02675e-05
2.19368e-05
2.29262e-05
2.51976e-05
2.66796e-05
2.9737e-05
2.34461e-05
2.30405e-05
2.29279e-05
2.30606e-05
2.33085e-05
2.35701e-05
2.38094e-05
2.40364e-05
2.40682e-05
2.49931e-05
2.62269e-05
2.91862e-05
2.5647e-05
2.55147e-05
2.53759e-05
2.52475e-05
2.50754e-05
2.49191e-05
2.47098e-05
2.45241e-05
2.41874e-05
2.4786e-05
2.55757e-05
2.83024e-05
2.71168e-05
2.83309e-05
3.08331e-05
3.14384e-05
3.18254e-05
3.22551e-05
3.22883e-05
3.2165e-05
3.20092e-05
3.18628e-05
3.1722e-05
3.15821e-05
2.34302e-05
2.39068e-05
2.57187e-05
2.59723e-05
2.62416e-05
2.64843e-05
2.68127e-05
2.71465e-05
2.74666e-05
2.76589e-05
2.78186e-05
2.77989e-05
1.85006e-05
2.01036e-05
2.03984e-05
2.06554e-05
2.09019e-05
2.11252e-05
2.13411e-05
2.15329e-05
2.17046e-05
2.183e-05
2.19057e-05
2.18692e-05
1.48921e-05
1.50896e-05
1.52576e-05
1.54594e-05
1.56242e-05
1.58277e-05
1.59868e-05
1.6176e-05
1.62943e-05
1.64115e-05
1.63904e-05
1.62652e-05
3.14387e-05
3.12818e-05
3.10854e-05
3.08516e-05
3.05779e-05
3.02557e-05
2.99153e-05
2.95301e-05
2.91655e-05
2.87994e-05
2.85185e-05
2.86212e-05
2.76831e-05
2.74829e-05
2.71979e-05
2.68322e-05
2.63955e-05
2.59118e-05
2.54073e-05
2.4897e-05
2.44265e-05
2.41277e-05
2.38643e-05
2.45459e-05
2.17457e-05
2.153e-05
2.12269e-05
2.08506e-05
2.04237e-05
1.99744e-05
1.95109e-05
1.90804e-05
1.87554e-05
1.86201e-05
1.84315e-05
1.89076e-05
1.60159e-05
1.56679e-05
1.52764e-05
1.48916e-05
1.4568e-05
1.42979e-05
1.41081e-05
1.40007e-05
1.39415e-05
1.3977e-05
1.39416e-05
1.4186e-05
2.83749e-05
2.76894e-05
2.73892e-05
2.71097e-05
2.679e-05
2.64437e-05
2.60805e-05
2.57582e-05
2.54507e-05
2.52069e-05
2.49918e-05
2.48414e-05
2.53118e-05
2.56409e-05
2.57886e-05
2.58719e-05
2.58769e-05
2.58472e-05
2.57907e-05
2.57152e-05
2.56317e-05
2.55472e-05
2.54627e-05
2.53716e-05
1.93643e-05
1.98323e-05
2.02381e-05
2.05806e-05
2.08642e-05
2.11089e-05
2.13136e-05
2.14844e-05
2.1605e-05
2.16725e-05
2.16408e-05
2.15484e-05
1.44545e-05
1.47623e-05
1.50118e-05
1.52833e-05
1.54788e-05
1.56912e-05
1.58172e-05
1.59477e-05
1.59671e-05
1.58998e-05
1.57358e-05
1.54867e-05
2.47248e-05
2.46644e-05
2.46217e-05
2.45813e-05
2.45362e-05
2.44682e-05
2.44128e-05
2.4325e-05
2.42512e-05
2.41462e-05
2.40825e-05
2.4014e-05
2.52604e-05
2.51251e-05
2.49629e-05
2.47743e-05
2.45619e-05
2.43189e-05
2.40429e-05
2.37429e-05
2.34397e-05
2.31909e-05
2.29947e-05
2.31631e-05
2.14045e-05
2.12045e-05
2.09443e-05
2.06252e-05
2.02555e-05
1.98097e-05
1.93006e-05
1.88042e-05
1.83922e-05
1.81729e-05
1.79445e-05
1.8357e-05
1.51758e-05
1.48316e-05
1.44735e-05
1.41434e-05
1.3854e-05
1.36488e-05
1.35449e-05
1.35088e-05
1.34895e-05
1.35368e-05
1.34956e-05
1.36534e-05
2.38722e-05
2.35344e-05
2.33582e-05
2.31857e-05
2.2974e-05
2.27536e-05
2.24982e-05
2.2268e-05
2.20244e-05
2.18183e-05
2.16178e-05
2.14858e-05
2.32482e-05
2.32257e-05
2.31838e-05
2.313e-05
2.30668e-05
2.30012e-05
2.29319e-05
2.28602e-05
2.27895e-05
2.27237e-05
2.26601e-05
2.25973e-05
1.87929e-05
1.9172e-05
1.94936e-05
1.97693e-05
2.00048e-05
2.02169e-05
2.03871e-05
2.05238e-05
2.06118e-05
2.06643e-05
2.06418e-05
2.05651e-05
1.382e-05
1.40273e-05
1.41951e-05
1.44038e-05
1.45676e-05
1.47757e-05
1.49316e-05
1.5132e-05
1.5253e-05
1.53832e-05
1.53664e-05
1.52494e-05
2.13775e-05
2.13687e-05
2.13985e-05
2.1445e-05
2.14876e-05
2.15097e-05
2.15199e-05
2.14691e-05
2.14444e-05
2.13815e-05
2.13616e-05
2.12587e-05
2.25267e-05
2.24386e-05
2.23289e-05
2.21954e-05
2.20379e-05
2.1859e-05
2.16623e-05
2.14579e-05
2.12585e-05
2.10947e-05
2.10221e-05
2.10426e-05
2.04321e-05
2.0238e-05
1.99842e-05
1.96783e-05
1.93342e-05
1.89709e-05
1.85729e-05
1.81976e-05
1.79084e-05
1.77813e-05
1.76018e-05
1.80198e-05
1.50174e-05
1.46955e-05
1.43337e-05
1.39772e-05
1.36759e-05
1.34209e-05
1.32543e-05
1.31618e-05
1.31095e-05
1.31475e-05
1.31169e-05
1.3347e-05
2.141e-05
2.1904e-05
2.20794e-05
2.22627e-05
2.2448e-05
2.2705e-05
2.29527e-05
2.32402e-05
2.34757e-05
2.36768e-05
2.37999e-05
2.38815e-05
2.10272e-05
2.10932e-05
2.11468e-05
2.1203e-05
2.12494e-05
2.1294e-05
2.1343e-05
2.13911e-05
2.1443e-05
2.14814e-05
2.15111e-05
2.15009e-05
1.84383e-05
1.87118e-05
1.89104e-05
1.90475e-05
1.91518e-05
1.92331e-05
1.92963e-05
1.93408e-05
1.9367e-05
1.9353e-05
1.93082e-05
1.92284e-05
1.36137e-05
1.38987e-05
1.41321e-05
1.43807e-05
1.45539e-05
1.47402e-05
1.48425e-05
1.49501e-05
1.49438e-05
1.48747e-05
1.47282e-05
1.45147e-05
2.38655e-05
2.38005e-05
2.36971e-05
2.35545e-05
2.33733e-05
2.31708e-05
2.2942e-05
2.2686e-05
2.23535e-05
2.2826e-05
2.33027e-05
2.47571e-05
2.14616e-05
2.13889e-05
2.12796e-05
2.11316e-05
2.0946e-05
2.07232e-05
2.04724e-05
2.02121e-05
1.99619e-05
2.01495e-05
2.10559e-05
2.16386e-05
1.91126e-05
1.89569e-05
1.87588e-05
1.85191e-05
1.82397e-05
1.78687e-05
1.74771e-05
1.70957e-05
1.6762e-05
1.65153e-05
1.67282e-05
1.80701e-05
1.42657e-05
1.4007e-05
1.37547e-05
1.35206e-05
1.33298e-05
1.32548e-05
1.32352e-05
1.32808e-05
1.33012e-05
1.33604e-05
1.33097e-05
1.36648e-05
1.44616e-05
1.4341e-05
1.40546e-05
1.36325e-05
1.30308e-05
1.22722e-05
1.13314e-05
1.03094e-05
9.24823e-06
8.33348e-06
7.66037e-06
7.43833e-06
1.32952e-05
1.27029e-05
1.19832e-05
1.1096e-05
1.0036e-05
8.86171e-06
7.63698e-06
6.50349e-06
5.55155e-06
4.91171e-06
4.60113e-06
4.6499e-06
1.17747e-05
1.10388e-05
1.00661e-05
8.98395e-06
7.77898e-06
6.55029e-06
5.38053e-06
4.38971e-06
3.63093e-06
3.16261e-06
3.01747e-06
3.12142e-06
1.04213e-05
9.59913e-06
8.51616e-06
7.39767e-06
6.19697e-06
5.03734e-06
3.97949e-06
3.10613e-06
2.42865e-06
1.96925e-06
1.81258e-06
1.90383e-06
7.46816e-06
7.82763e-06
8.46731e-06
9.23983e-06
1.01435e-05
1.10813e-05
1.17705e-05
1.22496e-05
1.25604e-05
1.2732e-05
1.27189e-05
1.2487e-05
5.01958e-06
5.70528e-06
6.42297e-06
7.27156e-06
8.04866e-06
8.67311e-06
9.17535e-06
9.55019e-06
9.77712e-06
9.7167e-06
9.05517e-06
8.13154e-06
3.62788e-06
4.21856e-06
4.78937e-06
5.35181e-06
5.79077e-06
6.13348e-06
6.39805e-06
6.50953e-06
6.33298e-06
5.79273e-06
4.98852e-06
4.04977e-06
2.7807e-06
3.37021e-06
3.7719e-06
4.05359e-06
4.24745e-06
4.36943e-06
4.36439e-06
4.08228e-06
3.67578e-06
3.05553e-06
2.37603e-06
1.70037e-06
1.18335e-05
1.1007e-05
1.01873e-05
9.24822e-06
8.36535e-06
7.42473e-06
6.55125e-06
5.72023e-06
5.04124e-06
4.62032e-06
4.52086e-06
4.58417e-06
6.69988e-06
5.83147e-06
4.6452e-06
3.8837e-06
2.99838e-06
2.42473e-06
1.82319e-06
1.48823e-06
1.21819e-06
1.20436e-06
1.22041e-06
1.45831e-06
2.9961e-06
2.36553e-06
1.59554e-06
1.25738e-06
7.69221e-07
6.21627e-07
3.6352e-07
3.36799e-07
2.46299e-07
2.5912e-07
2.90896e-07
4.27156e-07
1.1141e-06
7.8233e-07
4.36489e-07
3.34515e-07
1.64271e-07
1.33609e-07
7.43365e-08
6.91692e-08
4.56019e-08
4.80903e-08
5.68125e-08
1.04328e-07
4.85362e-06
5.59692e-06
6.59976e-06
8.03159e-06
9.75555e-06
1.11512e-05
1.20894e-05
1.26848e-05
1.30428e-05
1.32455e-05
1.33573e-05
1.34251e-05
1.80558e-06
2.36641e-06
3.41931e-06
5.06651e-06
7.07923e-06
9.1746e-06
1.0774e-05
1.17401e-05
1.23245e-05
1.26442e-05
1.27921e-05
1.27852e-05
6.64748e-07
9.65413e-07
1.60994e-06
2.73341e-06
4.53086e-06
6.87766e-06
9.06507e-06
1.04571e-05
1.12572e-05
1.16732e-05
1.18435e-05
1.16701e-05
2.60917e-07
4.19965e-07
8.22863e-07
1.64355e-06
3.06287e-06
5.09453e-06
7.40787e-06
9.14088e-06
1.01054e-05
1.06056e-05
1.08004e-05
1.05207e-05
1.34438e-05
1.33577e-05
1.31085e-05
1.27344e-05
1.21924e-05
1.15064e-05
1.06481e-05
9.71775e-06
8.74252e-06
7.90826e-06
7.29031e-06
7.09842e-06
1.23864e-05
1.18642e-05
1.11956e-05
1.04006e-05
9.42395e-06
8.35316e-06
7.22397e-06
6.18293e-06
5.30221e-06
4.71663e-06
4.43429e-06
4.49489e-06
1.09977e-05
1.03144e-05
9.4261e-06
8.44185e-06
7.32674e-06
6.1997e-06
5.11243e-06
4.19394e-06
3.48249e-06
3.04613e-06
2.91541e-06
3.02158e-06
9.73236e-06
8.97232e-06
7.98508e-06
6.95937e-06
5.84666e-06
4.77631e-06
3.78641e-06
2.96853e-06
2.32568e-06
1.89023e-06
1.74405e-06
1.83614e-06
7.13251e-06
7.49593e-06
8.1038e-06
8.82893e-06
9.67315e-06
1.05357e-05
1.11644e-05
1.1601e-05
1.18837e-05
1.20442e-05
1.20465e-05
1.18562e-05
4.85698e-06
5.51616e-06
6.20371e-06
7.01553e-06
7.75332e-06
8.34314e-06
8.81522e-06
9.16537e-06
9.3819e-06
9.34235e-06
8.73734e-06
7.89298e-06
3.52063e-06
4.09965e-06
4.64924e-06
5.1985e-06
5.62429e-06
5.95615e-06
6.21051e-06
6.32222e-06
6.168e-06
5.66074e-06
4.90902e-06
4.01945e-06
2.69367e-06
3.28551e-06
3.68029e-06
3.95802e-06
4.14865e-06
4.27234e-06
4.27583e-06
4.01527e-06
3.62851e-06
3.03795e-06
2.38485e-06
1.72886e-06
1.12942e-05
1.05437e-05
9.8175e-06
8.96679e-06
8.18404e-06
7.34143e-06
6.57588e-06
5.85024e-06
5.26485e-06
4.91185e-06
4.89752e-06
5.00452e-06
6.55242e-06
5.75189e-06
4.64598e-06
3.93629e-06
3.10595e-06
2.56744e-06
1.99974e-06
1.68558e-06
1.43532e-06
1.44296e-06
1.52646e-06
1.83226e-06
3.01611e-06
2.41098e-06
1.66698e-06
1.33346e-06
8.52661e-07
7.00652e-07
4.3566e-07
4.12077e-07
3.20562e-07
3.42152e-07
4.14942e-07
6.24308e-07
1.15433e-06
8.21891e-07
4.75863e-07
3.66031e-07
1.87778e-07
1.55848e-07
9.01807e-08
8.58778e-08
6.10408e-08
6.73159e-08
8.8331e-08
1.7327e-07
5.50777e-06
6.3345e-06
7.67897e-06
9.30816e-06
1.09233e-05
1.21769e-05
1.29542e-05
1.3396e-05
1.36437e-05
1.38328e-05
1.39676e-05
1.42542e-05
2.26131e-06
2.84329e-06
3.93601e-06
5.62181e-06
7.7888e-06
9.98932e-06
1.16417e-05
1.26197e-05
1.31955e-05
1.35085e-05
1.36592e-05
1.37289e-05
9.79702e-07
1.32652e-06
2.07944e-06
3.28877e-06
5.1898e-06
7.60574e-06
9.88643e-06
1.13195e-05
1.2148e-05
1.25822e-05
1.2764e-05
1.255e-05
4.69599e-07
6.81373e-07
1.20862e-06
2.1383e-06
3.62319e-06
5.74036e-06
8.14504e-06
9.93264e-06
1.09263e-05
1.14384e-05
1.16346e-05
1.12896e-05
9.23055e-06
8.37683e-06
7.28035e-06
6.20045e-06
5.06634e-06
4.00786e-06
3.05788e-06
2.27109e-06
1.63567e-06
1.15079e-06
8.01352e-07
5.56004e-07
8.15531e-06
7.31589e-06
6.26237e-06
5.25681e-06
4.21559e-06
3.26445e-06
2.41607e-06
1.71101e-06
1.13594e-06
6.9239e-07
3.6955e-07
1.67985e-07
7.15274e-06
6.36356e-06
5.38521e-06
4.47236e-06
3.53522e-06
2.69063e-06
1.93947e-06
1.31637e-06
8.14692e-07
4.41541e-07
1.93814e-07
6.95633e-08
6.19371e-06
5.48237e-06
4.59731e-06
3.78733e-06
2.95842e-06
2.21754e-06
1.55975e-06
1.01744e-06
5.91775e-07
2.92574e-07
1.13326e-07
3.719e-08
5.26153e-06
4.64792e-06
3.8659e-06
3.16464e-06
2.44481e-06
1.80481e-06
1.23761e-06
7.74959e-07
4.24152e-07
1.93418e-07
6.92962e-08
2.26573e-08
4.35115e-06
3.84396e-06
3.17141e-06
2.58205e-06
1.97143e-06
1.43103e-06
9.54042e-07
5.71583e-07
2.9396e-07
1.24373e-07
4.19905e-08
1.3864e-08
3.46805e-06
3.06307e-06
2.50646e-06
2.03017e-06
1.52976e-06
1.0897e-06
7.04444e-07
4.02891e-07
1.94908e-07
7.70691e-08
2.47784e-08
8.27338e-09
2.62452e-06
2.31441e-06
1.87862e-06
1.51409e-06
1.12491e-06
7.85872e-07
4.92717e-07
2.69618e-07
1.23496e-07
4.61363e-08
1.4244e-08
4.78735e-09
1.85159e-06
1.62886e-06
1.31256e-06
1.05365e-06
7.72786e-07
5.30887e-07
3.24482e-07
1.71496e-07
7.53993e-08
2.69933e-08
8.04519e-09
2.68793e-09
1.20112e-06
1.05433e-06
8.45188e-07
6.77646e-07
4.9311e-07
3.35834e-07
2.02643e-07
1.05399e-07
4.54191e-08
1.58268e-08
4.54759e-09
1.47676e-09
7.32353e-07
6.411e-07
5.13642e-07
4.13572e-07
3.01649e-07
2.06762e-07
1.25838e-07
6.6134e-08
2.87098e-08
9.88575e-09
2.7015e-09
8.31411e-10
4.89397e-07
4.26692e-07
3.43506e-07
2.79113e-07
2.06087e-07
1.43997e-07
8.99606e-08
4.85293e-08
2.15654e-08
7.36886e-09
1.88746e-09
5.54587e-10
2.161e-06
2.76809e-06
3.04926e-06
3.19007e-06
3.24904e-06
3.15539e-06
2.88803e-06
2.49687e-06
2.03452e-06
1.51112e-06
1.03803e-06
6.4467e-07
1.90984e-06
2.37562e-06
2.55964e-06
2.62555e-06
2.55444e-06
2.3067e-06
1.96006e-06
1.55264e-06
1.13793e-06
7.5093e-07
4.55677e-07
2.51758e-07
1.71397e-06
2.08867e-06
2.21677e-06
2.23197e-06
2.06221e-06
1.75991e-06
1.40226e-06
1.02677e-06
6.87417e-07
4.13205e-07
2.3356e-07
1.30641e-07
1.54428e-06
1.85854e-06
1.95976e-06
1.94354e-06
1.73016e-06
1.42174e-06
1.08473e-06
7.56351e-07
4.84399e-07
2.86898e-07
1.71911e-07
1.17012e-07
1.38742e-06
1.65897e-06
1.75114e-06
1.7281e-06
1.51423e-06
1.22559e-06
9.24038e-07
6.44001e-07
4.30866e-07
2.80805e-07
1.87719e-07
1.45738e-07
1.235e-06
1.47065e-06
1.56584e-06
1.5592e-06
1.37682e-06
1.1249e-06
8.6682e-07
6.40591e-07
4.52889e-07
3.2129e-07
2.47044e-07
2.12078e-07
1.08077e-06
1.27572e-06
1.38176e-06
1.40355e-06
1.28126e-06
1.07995e-06
8.69073e-07
6.71732e-07
5.18221e-07
4.09658e-07
3.40403e-07
2.97865e-07
9.21658e-07
1.06131e-06
1.1739e-06
1.2254e-06
1.1672e-06
1.04068e-06
8.74925e-07
7.24481e-07
5.97159e-07
4.99173e-07
4.27136e-07
3.7384e-07
7.54404e-07
8.26224e-07
9.29003e-07
1.00446e-06
9.91154e-07
9.39303e-07
8.44508e-07
7.25915e-07
6.25197e-07
5.39875e-07
4.69167e-07
4.08596e-07
5.78839e-07
5.91409e-07
6.64506e-07
7.40083e-07
7.60205e-07
7.41928e-07
7.0712e-07
6.54915e-07
5.82583e-07
5.12905e-07
4.50193e-07
3.94213e-07
4.10941e-07
3.96265e-07
4.30096e-07
4.844e-07
5.18454e-07
5.23846e-07
5.12598e-07
4.90142e-07
4.626e-07
4.29048e-07
3.87761e-07
3.47104e-07
2.9687e-07
2.83578e-07
2.90918e-07
3.23823e-07
3.55313e-07
3.75372e-07
3.81423e-07
3.76423e-07
3.66475e-07
3.53277e-07
3.35104e-07
3.0874e-07
3.75319e-07
2.34434e-07
1.20785e-07
9.07026e-08
4.99902e-08
4.2124e-08
2.53435e-08
2.08153e-08
1.23439e-08
1.0192e-08
9.63979e-09
1.34887e-08
1.41785e-07
9.02863e-08
6.09921e-08
5.24924e-08
3.94578e-08
3.3376e-08
2.33025e-08
1.66148e-08
9.60543e-09
5.56053e-09
3.0127e-09
2.27167e-09
8.86478e-08
7.25782e-08
6.66815e-08
6.36897e-08
5.74303e-08
4.89604e-08
3.74313e-08
2.52539e-08
1.45614e-08
6.83007e-09
2.62394e-09
1.25154e-09
9.7279e-08
9.35363e-08
9.37444e-08
9.18672e-08
8.46308e-08
7.19915e-08
5.52567e-08
3.72767e-08
2.14502e-08
1.02227e-08
3.65156e-09
1.32628e-09
1.35481e-07
1.33865e-07
1.32355e-07
1.26376e-07
1.14101e-07
9.57251e-08
7.30073e-08
4.92195e-08
2.83207e-08
1.34599e-08
4.81894e-09
1.71707e-09
1.97254e-07
1.88325e-07
1.78094e-07
1.63166e-07
1.42659e-07
1.17245e-07
8.85904e-08
5.98293e-08
3.47027e-08
1.66994e-08
6.08009e-09
2.08715e-09
2.70254e-07
2.47199e-07
2.23274e-07
1.96407e-07
1.66301e-07
1.33692e-07
1.00232e-07
6.80448e-08
4.00404e-08
1.97053e-08
7.40293e-09
2.54538e-09
3.30529e-07
2.91251e-07
2.53378e-07
2.15921e-07
1.78658e-07
1.41857e-07
1.06159e-07
7.28301e-08
4.39245e-08
2.22942e-08
8.73846e-09
3.0231e-09
3.55467e-07
3.0764e-07
2.63397e-07
2.21651e-07
1.81866e-07
1.43922e-07
1.0798e-07
7.4777e-08
4.61957e-08
2.43666e-08
1.00622e-08
3.54859e-09
3.43667e-07
2.97397e-07
2.5435e-07
2.13819e-07
1.75503e-07
1.39355e-07
1.05491e-07
7.44051e-08
4.72067e-08
2.59827e-08
1.13831e-08
4.12717e-09
3.07954e-07
2.7022e-07
2.33602e-07
1.98052e-07
1.63822e-07
1.31218e-07
1.006e-07
7.236e-08
4.74934e-08
2.73905e-08
1.28246e-08
4.79872e-09
2.79697e-07
2.4895e-07
2.17321e-07
1.85611e-07
1.54626e-07
1.24931e-07
9.70241e-08
7.11519e-08
4.82742e-08
2.91551e-08
1.47136e-08
5.45755e-09
1.16637e-07
1.98323e-07
4.47749e-07
1.00761e-06
2.0692e-06
3.77172e-06
5.91938e-06
7.84936e-06
8.93537e-06
9.50858e-06
9.73283e-06
9.42513e-06
6.662e-08
1.02206e-07
2.60908e-07
6.42218e-07
1.42455e-06
2.77707e-06
4.66159e-06
6.60202e-06
7.77959e-06
8.40834e-06
8.66319e-06
8.38687e-06
4.09319e-08
5.69355e-08
1.53754e-07
4.10514e-07
9.78506e-07
2.03215e-06
3.6171e-06
5.41828e-06
6.65431e-06
7.31668e-06
7.59844e-06
7.39079e-06
2.51823e-08
3.27478e-08
9.21353e-08
2.63947e-07
6.69236e-07
1.46642e-06
2.74974e-06
4.34042e-06
5.56954e-06
6.24001e-06
6.54141e-06
6.42169e-06
1.50627e-08
1.88213e-08
5.494e-08
1.6874e-07
4.54464e-07
1.0442e-06
2.04392e-06
3.37778e-06
4.53515e-06
5.18474e-06
5.49455e-06
5.46507e-06
8.60298e-09
1.06518e-08
3.23918e-08
1.07072e-07
3.06406e-07
7.34044e-07
1.48481e-06
2.54395e-06
3.5672e-06
4.16483e-06
4.46887e-06
4.49757e-06
4.62665e-09
5.86602e-09
1.87269e-08
6.72747e-08
2.05665e-07
5.1171e-07
1.05675e-06
1.85083e-06
2.68697e-06
3.19893e-06
3.47764e-06
3.53533e-06
2.32355e-09
3.12939e-09
1.05284e-08
4.18173e-08
1.38103e-07
3.56536e-07
7.41659e-07
1.3029e-06
1.92301e-06
2.32162e-06
2.55392e-06
2.61805e-06