/*--------------------------------*- C++ -*----------------------------------*\
| =========                 |                                                 |
| \\      /  F ield         | OpenFOAM: The Open Source CFD Toolbox           |
|  \\    /   O peration     | Version:  2212                                  |
|   \\  /    A nd           | Website:  www.openfoam.com                      |
|    \\/     M anipulation  |                                                 |
\*---------------------------------------------------------------------------*/
FoamFile
{
    version     2.0;
    format      ascii;
    arch        "LSB;label=32;scalar=64";
    class       volScalarField;
    location    "0.07";
    object      tracer0;
}
// * * * * * * * * * * * * * * * * * * * * * * * * * * * * * * * * * * * * * //

dimensions      [0 0 0 0 0 0 0];

internalField   nonuniform List<scalar> 
3072
(
2.26632e-05
2.26576e-05
2.26178e-05
2.25239e-05
2.24481e-05
2.23352e-05
2.23287e-05
2.26102e-05
2.50378e-05
2.6468e-05
2.65712e-05
2.65947e-05
2.30418e-05
2.29633e-05
2.27623e-05
2.25411e-05
2.24008e-05
2.2681e-05
2.37922e-05
2.54045e-05
2.61055e-05
2.63139e-05
2.61357e-05
2.58058e-05
2.32087e-05
2.30536e-05
2.27173e-05
2.25095e-05
2.28497e-05
2.42303e-05
2.54194e-05
2.58082e-05
2.59043e-05
2.5535e-05
2.44896e-05
2.31533e-05
2.33601e-05
2.31081e-05
2.27941e-05
2.29962e-05
2.41057e-05
2.51827e-05
2.55171e-05
2.5577e-05
2.49598e-05
2.30951e-05
2.05598e-05
1.87755e-05
2.35316e-05
2.35607e-05
2.34718e-05
2.40004e-05
2.49192e-05
2.52803e-05
2.53542e-05
2.48196e-05
2.27852e-05
1.99045e-05
1.75156e-05
1.57681e-05
2.36668e-05
2.3925e-05
2.40694e-05
2.46844e-05
2.50826e-05
2.51945e-05
2.49432e-05
2.34457e-05
2.05827e-05
1.76466e-05
1.55129e-05
1.38966e-05
2.38153e-05
2.42569e-05
2.45107e-05
2.48933e-05
2.50292e-05
2.49779e-05
2.41622e-05
2.20036e-05
1.92036e-05
1.66945e-05
1.48565e-05
1.34146e-05
2.40378e-05
2.44146e-05
2.46454e-05
2.4867e-05
2.49242e-05
2.46806e-05
2.36882e-05
2.18415e-05
1.93122e-05
1.69302e-05
1.51456e-05
1.3749e-05
2.74502e-05
2.66706e-05
2.47388e-05
2.47338e-05
2.47195e-05
2.44862e-05
2.37427e-05
2.2159e-05
1.99757e-05
1.7818e-05
1.61159e-05
1.47893e-05
3.13033e-05
2.92381e-05
2.69432e-05
2.48468e-05
2.46966e-05
2.45099e-05
2.40212e-05
2.29996e-05
2.1574e-05
1.99274e-05
1.84455e-05
1.71837e-05
3.34741e-05
3.51148e-05
3.4254e-05
2.82852e-05
2.61907e-05
2.53676e-05
2.48895e-05
2.42544e-05
2.33476e-05
2.2181e-05
2.10603e-05
2.00221e-05
3.78245e-05
3.86288e-05
4.08648e-05
3.97045e-05
3.70966e-05
3.44645e-05
3.22515e-05
3.03621e-05
2.88e-05
2.75048e-05
2.63875e-05
2.5567e-05
2.66136e-05
2.66361e-05
2.66615e-05
2.66967e-05
2.67383e-05
2.67997e-05
2.68846e-05
2.69766e-05
2.70623e-05
2.71175e-05
2.71427e-05
2.71257e-05
2.54494e-05
2.51175e-05
2.49222e-05
2.48816e-05
2.50013e-05
2.52831e-05
2.56878e-05
2.6209e-05
2.67032e-05
2.70608e-05
2.72296e-05
2.72959e-05
2.18868e-05
2.09704e-05
2.04416e-05
2.03236e-05
2.04979e-05
2.11634e-05
2.21e-05
2.35206e-05
2.50716e-05
2.64527e-05
2.71087e-05
2.7356e-05
1.72228e-05
1.62318e-05
1.5612e-05
1.54881e-05
1.56333e-05
1.6435e-05
1.76514e-05
1.9587e-05
2.21491e-05
2.51362e-05
2.67775e-05
2.73981e-05
1.43183e-05
1.35282e-05
1.30868e-05
1.30062e-05
1.32202e-05
1.3954e-05
1.51363e-05
1.70213e-05
1.96466e-05
2.33453e-05
2.63409e-05
2.74488e-05
1.27143e-05
1.20909e-05
1.17733e-05
1.17131e-05
1.20593e-05
1.27515e-05
1.38993e-05
1.57754e-05
1.84037e-05
2.23075e-05
2.59972e-05
2.74978e-05
1.23456e-05
1.16905e-05
1.12806e-05
1.12255e-05
1.16431e-05
1.23325e-05
1.34436e-05
1.52964e-05
1.78752e-05
2.18286e-05
2.5791e-05
2.75512e-05
1.27002e-05
1.20468e-05
1.16367e-05
1.17066e-05
1.19635e-05
1.25209e-05
1.35251e-05
1.5304e-05
1.78425e-05
2.17557e-05
2.57155e-05
2.76026e-05
1.37954e-05
1.31477e-05
1.28551e-05
1.3031e-05
1.34184e-05
1.41347e-05
1.53008e-05
1.72395e-05
1.9686e-05
2.31567e-05
2.63363e-05
2.77043e-05
1.63354e-05
1.56489e-05
1.55036e-05
1.57664e-05
1.62318e-05
1.70042e-05
1.81664e-05
1.99356e-05
2.2139e-05
2.49734e-05
2.70483e-05
2.78529e-05
1.93797e-05
1.89455e-05
1.90815e-05
1.95297e-05
2.01891e-05
2.11895e-05
2.26334e-05
2.44244e-05
2.63054e-05
2.73905e-05
2.79107e-05
2.7998e-05
2.48817e-05
2.47095e-05
2.5078e-05
2.56481e-05
2.63583e-05
2.71408e-05
2.77738e-05
2.81727e-05
2.82773e-05
2.82437e-05
2.81801e-05
2.80517e-05
1.9878e-05
1.98765e-05
1.98683e-05
1.98459e-05
1.98232e-05
1.97857e-05
1.97844e-05
1.98707e-05
2.0631e-05
2.10966e-05
2.1137e-05
2.11485e-05
1.99894e-05
1.99788e-05
1.99441e-05
1.98856e-05
1.98329e-05
1.99135e-05
2.0298e-05
2.07286e-05
2.09188e-05
2.09804e-05
2.08234e-05
2.05979e-05
2.00332e-05
2.00147e-05
1.99528e-05
1.98882e-05
1.99688e-05
2.03802e-05
2.06504e-05
2.0731e-05
2.07461e-05
2.03986e-05
1.96613e-05
1.87955e-05
2.00647e-05
2.00444e-05
1.99697e-05
2.00178e-05
2.03212e-05
2.05532e-05
2.0614e-05
2.0549e-05
2.00752e-05
1.87954e-05
1.75241e-05
1.66394e-05
2.01004e-05
2.01414e-05
2.01392e-05
2.02753e-05
2.04603e-05
2.05198e-05
2.04546e-05
1.99726e-05
1.86889e-05
1.71569e-05
1.59508e-05
1.49318e-05
2.01196e-05
2.02166e-05
2.02653e-05
2.03864e-05
2.04392e-05
2.04276e-05
2.01202e-05
1.91356e-05
1.75081e-05
1.59732e-05
1.47851e-05
1.37377e-05
2.01347e-05
2.02572e-05
2.03174e-05
2.03721e-05
2.03844e-05
2.02342e-05
1.95954e-05
1.83093e-05
1.67408e-05
1.54067e-05
1.43326e-05
1.33748e-05
2.01424e-05
2.02554e-05
2.03069e-05
2.03292e-05
2.02747e-05
1.99906e-05
1.93061e-05
1.82095e-05
1.67955e-05
1.55227e-05
1.44907e-05
1.35785e-05
2.01435e-05
2.0239e-05
2.02668e-05
2.02525e-05
2.01576e-05
1.98987e-05
1.93477e-05
1.83916e-05
1.71536e-05
1.59893e-05
1.50332e-05
1.42036e-05
2.01373e-05
2.01891e-05
2.01853e-05
2.01554e-05
2.00959e-05
1.99317e-05
1.95602e-05
1.89529e-05
1.80623e-05
1.70901e-05
1.62444e-05
1.54786e-05
2.01168e-05
2.01492e-05
2.01559e-05
2.01513e-05
2.0122e-05
2.00457e-05
1.98658e-05
1.95468e-05
1.91874e-05
1.86081e-05
1.81379e-05
1.75715e-05
2.0396e-05
2.04769e-05
2.05677e-05
2.06039e-05
2.06088e-05
2.05346e-05
2.04645e-05
2.02722e-05
2.0055e-05
1.97428e-05
1.94001e-05
1.91392e-05
2.11596e-05
2.11723e-05
2.11868e-05
2.12069e-05
2.12353e-05
2.12767e-05
2.13392e-05
2.14096e-05
2.14862e-05
2.15414e-05
2.15673e-05
2.157e-05
2.03356e-05
2.00951e-05
1.99433e-05
1.99031e-05
1.99708e-05
2.01329e-05
2.03855e-05
2.07211e-05
2.10901e-05
2.14317e-05
2.16026e-05
2.16649e-05
1.81267e-05
1.75941e-05
1.73432e-05
1.72526e-05
1.73347e-05
1.76609e-05
1.81487e-05
1.8894e-05
1.97582e-05
2.07859e-05
2.14548e-05
2.16982e-05
1.57845e-05
1.52625e-05
1.49055e-05
1.4833e-05
1.49128e-05
1.53602e-05
1.59815e-05
1.69653e-05
1.81536e-05
1.95852e-05
2.11177e-05
2.17266e-05
1.40491e-05
1.35146e-05
1.31871e-05
1.31199e-05
1.32277e-05
1.37368e-05
1.45093e-05
1.56506e-05
1.71045e-05
1.86486e-05
2.06607e-05
2.17619e-05
1.29465e-05
1.24511e-05
1.21959e-05
1.21401e-05
1.23716e-05
1.28498e-05
1.36185e-05
1.47888e-05
1.64207e-05
1.81267e-05
2.02492e-05
2.18002e-05
1.26429e-05
1.21311e-05
1.18071e-05
1.17555e-05
1.20584e-05
1.25399e-05
1.32945e-05
1.4451e-05
1.61322e-05
1.78837e-05
2.00454e-05
2.18419e-05
1.2871e-05
1.23823e-05
1.20566e-05
1.20924e-05
1.2253e-05
1.26106e-05
1.32928e-05
1.44294e-05
1.60968e-05
1.78373e-05
1.99788e-05
2.18818e-05
1.35585e-05
1.311e-05
1.28764e-05
1.29795e-05
1.32189e-05
1.36731e-05
1.44518e-05
1.5585e-05
1.70447e-05
1.84308e-05
2.02823e-05
2.19699e-05
1.49891e-05
1.45487e-05
1.44862e-05
1.4661e-05
1.49606e-05
1.54331e-05
1.61322e-05
1.70563e-05
1.81374e-05
1.92621e-05
2.08336e-05
2.21475e-05
1.72541e-05
1.69333e-05
1.6951e-05
1.71414e-05
1.74245e-05
1.78357e-05
1.83839e-05
1.9116e-05
1.99884e-05
2.09294e-05
2.19197e-05
2.24243e-05
1.88843e-05
1.88817e-05
1.90337e-05
1.92938e-05
1.96611e-05
2.0157e-05
2.07949e-05
2.15078e-05
2.21209e-05
2.2449e-05
2.26719e-05
2.26092e-05
2.38391e-05
2.38671e-05
2.39978e-05
2.41729e-05
2.43316e-05
2.45074e-05
2.45687e-05
2.41611e-05
2.05563e-05
1.85318e-05
1.8395e-05
1.83987e-05
2.32726e-05
2.35586e-05
2.40203e-05
2.44061e-05
2.46586e-05
2.42036e-05
2.28358e-05
2.01125e-05
1.87016e-05
1.81319e-05
1.79232e-05
1.75511e-05
2.30288e-05
2.3667e-05
2.43478e-05
2.47095e-05
2.41516e-05
2.24337e-05
1.98289e-05
1.8634e-05
1.79289e-05
1.71348e-05
1.62186e-05
1.47376e-05
2.27791e-05
2.37728e-05
2.44023e-05
2.41054e-05
2.268e-05
2.01802e-05
1.84755e-05
1.7581e-05
1.63376e-05
1.47939e-05
1.29276e-05
1.15525e-05
2.25006e-05
2.3118e-05
2.34245e-05
2.26418e-05
2.0624e-05
1.8604e-05
1.7348e-05
1.62255e-05
1.4469e-05
1.2518e-05
1.06685e-05
9.41086e-06
2.21263e-05
2.22765e-05
2.22581e-05
2.09614e-05
1.91537e-05
1.75928e-05
1.65296e-05
1.50532e-05
1.28881e-05
1.08705e-05
9.17748e-06
8.05435e-06
2.1725e-05
2.14484e-05
2.09758e-05
1.96349e-05
1.81524e-05
1.68952e-05
1.5723e-05
1.39611e-05
1.19324e-05
1.01753e-05
8.70848e-06
7.69557e-06
2.13502e-05
2.07108e-05
2.0038e-05
1.86826e-05
1.74959e-05
1.63873e-05
1.5367e-05
1.38834e-05
1.20212e-05
1.0352e-05
8.93777e-06
7.93976e-06
2.11746e-05
2.01367e-05
1.90678e-05
1.79166e-05
1.70748e-05
1.62818e-05
1.54427e-05
1.4145e-05
1.25174e-05
1.10134e-05
9.68807e-06
8.71148e-06
2.07617e-05
1.9314e-05
1.85415e-05
1.77173e-05
1.71113e-05
1.64177e-05
1.57522e-05
1.49053e-05
1.37221e-05
1.25495e-05
1.14188e-05
1.04471e-05
2.0753e-05
1.94288e-05
1.88021e-05
1.81208e-05
1.76063e-05
1.70021e-05
1.64883e-05
1.58462e-05
1.51979e-05
1.43751e-05
1.37142e-05
1.29647e-05
2.09459e-05
2.04253e-05
2.01945e-05
1.98803e-05
1.95318e-05
1.89985e-05
1.8395e-05
1.77925e-05
1.7164e-05
1.65741e-05
1.59774e-05
1.55777e-05
1.8408e-05
1.84195e-05
1.84346e-05
1.84543e-05
1.84932e-05
1.85494e-05
1.86404e-05
1.874e-05
1.88513e-05
1.89304e-05
1.89714e-05
1.89861e-05
1.71507e-05
1.67699e-05
1.6536e-05
1.64689e-05
1.65668e-05
1.68026e-05
1.7178e-05
1.76753e-05
1.82273e-05
1.87179e-05
1.89613e-05
1.90475e-05
1.38386e-05
1.29892e-05
1.26858e-05
1.25332e-05
1.26509e-05
1.31186e-05
1.38294e-05
1.49277e-05
1.62398e-05
1.7784e-05
1.87242e-05
1.90684e-05
1.0492e-05
9.71553e-06
9.34178e-06
9.23357e-06
9.33854e-06
9.90921e-06
1.07228e-05
1.20545e-05
1.37898e-05
1.59993e-05
1.82385e-05
1.90963e-05
8.37225e-06
7.75675e-06
7.44802e-06
7.38805e-06
7.55207e-06
8.11825e-06
9.01725e-06
1.03735e-05
1.22665e-05
1.45478e-05
1.75865e-05
1.91318e-05
7.15267e-06
6.67673e-06
6.44087e-06
6.39482e-06
6.66016e-06
7.19254e-06
8.07464e-06
9.41264e-06
1.14071e-05
1.38131e-05
1.69762e-05
1.91757e-05
6.87731e-06
6.37232e-06
6.06134e-06
6.01894e-06
6.33911e-06
6.86897e-06
7.73976e-06
9.05157e-06
1.10566e-05
1.34739e-05
1.66761e-05
1.92227e-05
7.14854e-06
6.64693e-06
6.33388e-06
6.38705e-06
6.58247e-06
7.0068e-06
7.81278e-06
9.05431e-06
1.10349e-05
1.34198e-05
1.65765e-05
1.92683e-05
7.97279e-06
7.48248e-06
7.26057e-06
7.39315e-06
7.68647e-06
8.22832e-06
9.14878e-06
1.04786e-05
1.23288e-05
1.43079e-05
1.70124e-05
1.93789e-05
9.81455e-06
9.29655e-06
9.22443e-06
9.43644e-06
9.79957e-06
1.03778e-05
1.12492e-05
1.23891e-05
1.38708e-05
1.55274e-05
1.77925e-05
1.96116e-05
1.25383e-05
1.21396e-05
1.21773e-05
1.24455e-05
1.28472e-05
1.34317e-05
1.42295e-05
1.52151e-05
1.65921e-05
1.79566e-05
1.92963e-05
1.99671e-05
1.51998e-05
1.5185e-05
1.54167e-05
1.58144e-05
1.63619e-05
1.70561e-05
1.78979e-05
1.88183e-05
1.95027e-05
1.98829e-05
2.01913e-05
2.01393e-05
2.47076e-05
2.47018e-05
2.46677e-05
2.45825e-05
2.45121e-05
2.44025e-05
2.44001e-05
2.46728e-05
2.70389e-05
2.84351e-05
2.85357e-05
2.85592e-05
2.50645e-05
2.50021e-05
2.48287e-05
2.46168e-05
2.44842e-05
2.47685e-05
2.59168e-05
2.73677e-05
2.79975e-05
2.81886e-05
2.78589e-05
2.73626e-05
2.52198e-05
2.51014e-05
2.48038e-05
2.46008e-05
2.4929e-05
2.62918e-05
2.72764e-05
2.75757e-05
2.76418e-05
2.69289e-05
2.52934e-05
2.33523e-05
2.53563e-05
2.51863e-05
2.48845e-05
2.50756e-05
2.61577e-05
2.70119e-05
2.72307e-05
2.72069e-05
2.61735e-05
2.33374e-05
2.04983e-05
1.87135e-05
2.55069e-05
2.56082e-05
2.55584e-05
2.60564e-05
2.67518e-05
2.69672e-05
2.69483e-05
2.60082e-05
2.31202e-05
1.98137e-05
1.73897e-05
1.55663e-05
2.55889e-05
2.59032e-05
2.6047e-05
2.6532e-05
2.67582e-05
2.68155e-05
2.63165e-05
2.41441e-05
2.05614e-05
1.74735e-05
1.53064e-05
1.35733e-05
2.56965e-05
2.61157e-05
2.63233e-05
2.65892e-05
2.66768e-05
2.64667e-05
2.51939e-05
2.23699e-05
1.9068e-05
1.64976e-05
1.46114e-05
1.30586e-05
2.57671e-05
2.62089e-05
2.64051e-05
2.65236e-05
2.65012e-05
2.60049e-05
2.46115e-05
2.22113e-05
1.92036e-05
1.67417e-05
1.49111e-05
1.34158e-05
2.57811e-05
2.61973e-05
2.63446e-05
2.63779e-05
2.62842e-05
2.58177e-05
2.47126e-05
2.26244e-05
1.99753e-05
1.76761e-05
1.59157e-05
1.45181e-05
2.57847e-05
2.61371e-05
2.62193e-05
2.62397e-05
2.61697e-05
2.58905e-05
2.52338e-05
2.3893e-05
2.18721e-05
1.98361e-05
1.80768e-05
1.6698e-05
2.57311e-05
2.59857e-05
2.59891e-05
2.59961e-05
2.59737e-05
2.58881e-05
2.57151e-05
2.53232e-05
2.46803e-05
2.34868e-05
2.24754e-05
2.12304e-05
2.53834e-05
2.54013e-05
2.53155e-05
2.52826e-05
2.52695e-05
2.5375e-05
2.54015e-05
2.52984e-05
2.51761e-05
2.49543e-05
2.46637e-05
2.4274e-05
2.85825e-05
2.86082e-05
2.86382e-05
2.86796e-05
2.87399e-05
2.88276e-05
2.89603e-05
2.91072e-05
2.92629e-05
2.93669e-05
2.94168e-05
2.94237e-05
2.67968e-05
2.62758e-05
2.59525e-05
2.58699e-05
2.60206e-05
2.638e-05
2.69369e-05
2.76766e-05
2.84805e-05
2.91566e-05
2.94781e-05
2.95985e-05
2.19165e-05
2.07571e-05
2.02514e-05
2.00641e-05
2.02419e-05
2.09366e-05
2.19936e-05
2.3645e-05
2.56315e-05
2.79579e-05
2.91883e-05
2.96602e-05
1.69891e-05
1.60386e-05
1.53966e-05
1.52746e-05
1.54253e-05
1.62364e-05
1.74054e-05
1.92881e-05
2.18347e-05
2.54451e-05
2.85325e-05
2.97142e-05
1.40273e-05
1.325e-05
1.27647e-05
1.26811e-05
1.29261e-05
1.3764e-05
1.50933e-05
1.70472e-05
1.94596e-05
2.32065e-05
2.76599e-05
2.97811e-05
1.23229e-05
1.16537e-05
1.12863e-05
1.12156e-05
1.1585e-05
1.23359e-05
1.36078e-05
1.57917e-05
1.82158e-05
2.20679e-05
2.68566e-05
2.98536e-05
1.19231e-05
1.1211e-05
1.07495e-05
1.06828e-05
1.11294e-05
1.18678e-05
1.3079e-05
1.53088e-05
1.77064e-05
2.15531e-05
2.6447e-05
2.99329e-05
1.23003e-05
1.15967e-05
1.11407e-05
1.12115e-05
1.14788e-05
1.20667e-05
1.31326e-05
1.53669e-05
1.7676e-05
2.14758e-05
2.63136e-05
3.00083e-05
1.34517e-05
1.2764e-05
1.24326e-05
1.26082e-05
1.30098e-05
1.37804e-05
1.5071e-05
1.75496e-05
1.94106e-05
2.29045e-05
2.66787e-05
3.00931e-05
1.58036e-05
1.50665e-05
1.50286e-05
1.53675e-05
1.59404e-05
1.69054e-05
1.83345e-05
2.04012e-05
2.14604e-05
2.3936e-05
2.54777e-05
2.8817e-05
2.05746e-05
1.98862e-05
1.9945e-05
2.03301e-05
2.08619e-05
2.15087e-05
2.20625e-05
2.25123e-05
2.25951e-05
2.36239e-05
2.49769e-05
2.824e-05
2.39529e-05
2.37157e-05
2.35757e-05
2.34788e-05
2.33533e-05
2.32707e-05
2.31304e-05
2.30261e-05
2.27696e-05
2.34591e-05
2.43995e-05
2.73736e-05
2.70059e-05
2.8255e-05
3.12737e-05
3.18369e-05
3.2619e-05
3.30306e-05
3.28387e-05
3.26217e-05
3.22427e-05
3.17928e-05
3.1256e-05
3.08537e-05
2.3349e-05
2.39847e-05
2.60865e-05
2.6449e-05
2.68911e-05
2.73824e-05
2.8209e-05
2.89362e-05
2.96268e-05
3.00405e-05
3.01909e-05
3.01492e-05
1.95596e-05
2.13346e-05
2.16766e-05
2.20258e-05
2.23979e-05
2.28087e-05
2.32543e-05
2.37649e-05
2.42518e-05
2.47431e-05
2.52249e-05
2.54762e-05
1.78486e-05
1.80527e-05
1.82814e-05
1.85457e-05
1.88623e-05
1.92296e-05
1.96798e-05
2.01612e-05
2.0699e-05
2.10708e-05
2.13649e-05
2.11757e-05
3.04591e-05
3.03033e-05
3.01181e-05
2.99452e-05
2.97209e-05
2.94942e-05
2.91934e-05
2.88988e-05
2.85323e-05
2.8243e-05
2.79048e-05
2.78929e-05
2.99899e-05
2.97222e-05
2.93744e-05
2.89285e-05
2.83778e-05
2.77618e-05
2.70374e-05
2.63492e-05
2.56449e-05
2.51193e-05
2.47162e-05
2.5101e-05
2.52804e-05
2.48785e-05
2.43268e-05
2.36783e-05
2.29429e-05
2.21817e-05
2.13391e-05
2.06124e-05
1.99178e-05
1.95252e-05
1.92987e-05
1.95972e-05
2.04726e-05
1.97287e-05
1.89664e-05
1.82625e-05
1.76504e-05
1.70756e-05
1.6733e-05
1.64592e-05
1.63873e-05
1.63713e-05
1.63432e-05
1.64487e-05
2.76415e-05
2.69183e-05
2.65877e-05
2.6207e-05
2.57467e-05
2.51688e-05
2.45057e-05
2.38759e-05
2.324e-05
2.27565e-05
2.23172e-05
2.20361e-05
2.56306e-05
2.57899e-05
2.58612e-05
2.58387e-05
2.57558e-05
2.56466e-05
2.55429e-05
2.54181e-05
2.52295e-05
2.50093e-05
2.482e-05
2.46272e-05
2.00936e-05
2.05987e-05
2.1139e-05
2.16265e-05
2.21736e-05
2.26792e-05
2.31921e-05
2.361e-05
2.38947e-05
2.40588e-05
2.41099e-05
2.40616e-05
1.66577e-05
1.68527e-05
1.71166e-05
1.73847e-05
1.77426e-05
1.81337e-05
1.86264e-05
1.914e-05
1.97794e-05
2.02792e-05
2.0633e-05
2.04633e-05
2.18488e-05
2.19364e-05
2.21752e-05
2.24542e-05
2.27386e-05
2.29716e-05
2.31254e-05
2.31303e-05
2.30895e-05
2.30214e-05
2.29688e-05
2.29145e-05
2.45226e-05
2.44309e-05
2.43097e-05
2.4165e-05
2.39764e-05
2.37557e-05
2.34973e-05
2.32193e-05
2.29389e-05
2.26913e-05
2.24945e-05
2.25327e-05
2.38748e-05
2.35953e-05
2.32304e-05
2.27772e-05
2.22657e-05
2.16582e-05
2.1058e-05
2.03853e-05
1.98526e-05
1.94785e-05
1.92716e-05
1.95305e-05
1.98223e-05
1.9151e-05
1.84645e-05
1.78296e-05
1.72332e-05
1.67738e-05
1.63662e-05
1.62011e-05
1.61329e-05
1.61214e-05
1.60725e-05
1.62259e-05
2.27831e-05
2.26369e-05
2.2518e-05
2.24306e-05
2.22401e-05
2.20501e-05
2.16991e-05
2.13543e-05
2.08673e-05
2.04556e-05
1.99745e-05
1.96658e-05
2.2533e-05
2.25063e-05
2.24684e-05
2.24264e-05
2.23771e-05
2.23295e-05
2.2279e-05
2.22011e-05
2.20943e-05
2.19594e-05
2.18341e-05
2.16934e-05
1.9917e-05
2.0235e-05
2.05416e-05
2.08118e-05
2.1045e-05
2.12423e-05
2.14103e-05
2.15335e-05
2.16197e-05
2.16454e-05
2.16268e-05
2.15817e-05
1.63969e-05
1.66327e-05
1.68315e-05
1.71186e-05
1.74126e-05
1.78354e-05
1.82394e-05
1.87679e-05
1.91855e-05
1.94866e-05
1.96162e-05
1.94436e-05
1.93918e-05
1.94493e-05
1.96654e-05
1.99302e-05
2.01858e-05
2.04004e-05
2.05476e-05
2.06055e-05
2.0611e-05
2.05653e-05
2.05506e-05
2.04606e-05
2.1622e-05
2.15628e-05
2.14965e-05
2.14132e-05
2.13075e-05
2.11748e-05
2.1018e-05
2.08417e-05
2.06639e-05
2.05112e-05
2.03928e-05
2.03658e-05
2.14599e-05
2.12823e-05
2.10396e-05
2.07351e-05
2.03638e-05
1.99939e-05
1.95101e-05
1.90932e-05
1.86879e-05
1.84208e-05
1.8254e-05
1.84465e-05
1.89038e-05
1.834e-05
1.77723e-05
1.72387e-05
1.67772e-05
1.63237e-05
1.60416e-05
1.58147e-05
1.57516e-05
1.57372e-05
1.57105e-05
1.57999e-05
2.0588e-05
2.10258e-05
2.11913e-05
2.1421e-05
2.16735e-05
2.20642e-05
2.25076e-05
2.30158e-05
2.34524e-05
2.38057e-05
2.39766e-05
2.39509e-05
2.034e-05
2.04052e-05
2.04561e-05
2.05433e-05
2.06055e-05
2.07273e-05
2.08464e-05
2.1039e-05
2.12252e-05
2.14508e-05
2.16195e-05
2.18374e-05
1.87051e-05
1.88908e-05
1.9047e-05
1.92027e-05
1.93643e-05
1.95146e-05
1.96971e-05
1.98452e-05
2.00375e-05
2.01479e-05
2.02886e-05
2.03059e-05
1.59645e-05
1.61108e-05
1.62939e-05
1.64665e-05
1.6693e-05
1.69374e-05
1.72339e-05
1.75458e-05
1.78638e-05
1.80855e-05
1.8205e-05
1.80923e-05
2.38757e-05
2.377e-05
2.36303e-05
2.34504e-05
2.32294e-05
2.29659e-05
2.26546e-05
2.23349e-05
2.18313e-05
2.22218e-05
2.30263e-05
2.41757e-05
2.18184e-05
2.17073e-05
2.15204e-05
2.12917e-05
2.10148e-05
2.06941e-05
2.03508e-05
1.99888e-05
1.95562e-05
1.97955e-05
2.07493e-05
2.14392e-05
2.01968e-05
1.9998e-05
1.97467e-05
1.94477e-05
1.91128e-05
1.87243e-05
1.83271e-05
1.78823e-05
1.76067e-05
1.73573e-05
1.76676e-05
1.89718e-05
1.77589e-05
1.73866e-05
1.70239e-05
1.66861e-05
1.63929e-05
1.61697e-05
1.60706e-05
1.60572e-05
1.60658e-05
1.60778e-05
1.60525e-05
1.6476e-05
1.65653e-05
1.6318e-05
1.6129e-05
1.57014e-05
1.53442e-05
1.47384e-05
1.41843e-05
1.34096e-05
1.27419e-05
1.19035e-05
1.14044e-05
1.11099e-05
1.26459e-05
1.22628e-05
1.17322e-05
1.12683e-05
1.06661e-05
1.01053e-05
9.49288e-06
8.95457e-06
8.49154e-06
8.17941e-06
8.09289e-06
8.2236e-06
8.50345e-06
8.12724e-06
7.66531e-06
7.22467e-06
6.71221e-06
6.25405e-06
5.76388e-06
5.37489e-06
5.01714e-06
4.81819e-06
4.74519e-06
4.91509e-06
5.25973e-06
4.96819e-06
4.58884e-06
4.25114e-06
3.85385e-06
3.52047e-06
3.1637e-06
2.90173e-06
2.65911e-06
2.54647e-06
2.50974e-06
2.69743e-06
1.12988e-05
1.17592e-05
1.2398e-05
1.31298e-05
1.38669e-05
1.4483e-05
1.49583e-05
1.53008e-05
1.55402e-05
1.56985e-05
1.57608e-05
1.5782e-05
8.68558e-06
9.30114e-06
9.86515e-06
1.04829e-05
1.10889e-05
1.16639e-05
1.21677e-05
1.2588e-05
1.29249e-05
1.31053e-05
1.31231e-05
1.28237e-05
5.33927e-06
5.98402e-06
6.47612e-06
7.006e-06
7.52153e-06
8.00678e-06
8.43798e-06
8.82343e-06
9.07869e-06
9.18197e-06
9.06854e-06
8.78825e-06
3.05939e-06
3.66845e-06
4.00255e-06
4.37373e-06
4.73859e-06
5.08961e-06
5.41793e-06
5.68269e-06
5.84786e-06
5.8976e-06
5.75906e-06
5.55334e-06
1.57234e-05
1.56227e-05
1.54512e-05
1.51698e-05
1.47956e-05
1.4339e-05
1.37836e-05
1.31536e-05
1.24878e-05
1.18479e-05
1.13258e-05
1.11022e-05
1.24501e-05
1.20352e-05
1.15564e-05
1.10781e-05
1.05623e-05
1.00054e-05
9.45309e-06
8.92658e-06
8.4942e-06
8.19213e-06
8.1046e-06
8.24222e-06
8.43838e-06
8.06558e-06
7.62947e-06
7.1908e-06
6.70796e-06
6.24077e-06
5.77782e-06
5.37182e-06
5.03576e-06
4.81746e-06
4.76253e-06
4.91565e-06
5.25006e-06
4.96002e-06
4.58771e-06
4.24961e-06
3.85907e-06
3.52068e-06
3.17159e-06
2.90044e-06
2.66735e-06
2.54366e-06
2.51761e-06
2.69736e-06
1.12664e-05
1.1759e-05
1.2385e-05
1.31055e-05
1.38002e-05
1.43862e-05
1.48331e-05
1.51555e-05
1.53805e-05
1.55313e-05
1.55927e-05
1.56202e-05
8.70046e-06
9.31542e-06
9.87891e-06
1.04948e-05
1.10977e-05
1.1667e-05
1.21636e-05
1.25762e-05
1.29075e-05
1.30859e-05
1.31063e-05
1.28175e-05
5.35769e-06
5.99552e-06
6.48849e-06
7.01916e-06
7.53524e-06
8.02073e-06
8.45174e-06
8.83657e-06
9.09142e-06
9.19471e-06
9.08256e-06
8.80288e-06
3.06474e-06
3.67404e-06
4.00891e-06
4.38095e-06
4.74662e-06
5.09838e-06
5.42734e-06
5.69258e-06
5.858e-06
5.90777e-06
5.76887e-06
5.5625e-06
1.55763e-05
1.54944e-05
1.53334e-05
1.50996e-05
1.47163e-05
1.43187e-05
1.37559e-05
1.31983e-05
1.25272e-05
1.17948e-05
1.12391e-05
1.10282e-05
1.24566e-05
1.20429e-05
1.15766e-05
1.10827e-05
1.0593e-05
1.00262e-05
9.48712e-06
8.954e-06
8.52057e-06
8.21397e-06
8.13639e-06
8.26989e-06
8.4539e-06
8.0798e-06
7.64418e-06
7.20198e-06
6.72178e-06
6.24665e-06
5.7871e-06
5.37157e-06
5.03924e-06
4.8132e-06
4.7626e-06
4.90982e-06
5.25846e-06
4.96721e-06
4.59411e-06
4.25437e-06
3.8635e-06
3.52283e-06
3.17479e-06
2.90088e-06
2.67034e-06
2.54371e-06
2.52059e-06
2.6975e-06
1.11956e-05
1.16967e-05
1.23033e-05
1.29779e-05
1.36245e-05
1.4164e-05
1.45792e-05
1.48766e-05
1.50824e-05
1.52205e-05
1.5278e-05
1.53046e-05
8.73169e-06
9.33975e-06
9.89849e-06
1.05049e-05
1.10963e-05
1.16513e-05
1.21327e-05
1.25305e-05
1.28506e-05
1.30246e-05
1.30487e-05
1.27888e-05
5.35802e-06
5.99445e-06
6.48841e-06
7.01991e-06
7.53619e-06
8.02122e-06
8.45112e-06
8.8342e-06
9.08768e-06
9.19077e-06
9.08133e-06
8.80434e-06
3.06666e-06
3.67549e-06
4.01015e-06
4.38204e-06
4.74763e-06
5.09934e-06
5.42828e-06
5.69335e-06
5.85862e-06
5.90834e-06
5.76958e-06
5.56327e-06
1.52837e-05
1.52154e-05
1.51147e-05
1.49313e-05
1.46722e-05
1.42633e-05
1.38524e-05
1.33135e-05
1.28259e-05
1.22477e-05
1.18893e-05
1.17664e-05
1.24427e-05
1.20529e-05
1.15839e-05
1.10793e-05
1.05369e-05
1.00202e-05
9.44365e-06
8.92821e-06
8.45857e-06
8.13963e-06
8.01855e-06
8.14747e-06
8.45666e-06
8.08389e-06
7.64618e-06
7.20557e-06
6.72532e-06
6.26152e-06
5.79407e-06
5.39555e-06
5.05399e-06
4.84797e-06
4.78918e-06
4.95183e-06
5.25902e-06
4.96775e-06
4.59412e-06
4.25475e-06
3.863e-06
3.5227e-06
3.17155e-06
2.89927e-06
2.66302e-06
2.53935e-06
2.51008e-06
2.69177e-06
1.21404e-05
1.27815e-05
1.34638e-05
1.41536e-05
1.47718e-05
1.52869e-05
1.56832e-05
1.59719e-05
1.61749e-05
1.63228e-05
1.63984e-05
1.64859e-05
8.61633e-06
9.29155e-06
9.92963e-06
1.06258e-05
1.13114e-05
1.19531e-05
1.25081e-05
1.29668e-05
1.33295e-05
1.35216e-05
1.35365e-05
1.31451e-05
5.38316e-06
6.02372e-06
6.51724e-06
7.05325e-06
7.57942e-06
8.07893e-06
8.5259e-06
8.928e-06
9.1929e-06
9.29769e-06
9.16894e-06
8.87207e-06
3.05972e-06
3.67236e-06
4.00929e-06
4.38358e-06
4.7517e-06
5.10628e-06
5.4386e-06
5.70662e-06
5.87359e-06
5.9229e-06
5.77874e-06
5.56992e-06
2.46367e-06
2.25437e-06
1.9354e-06
1.70214e-06
1.38356e-06
1.16565e-06
8.87848e-07
7.22245e-07
5.18499e-07
4.31997e-07
3.41819e-07
3.58236e-07
8.15506e-07
6.9547e-07
5.38912e-07
4.34111e-07
2.9556e-07
2.28042e-07
1.26484e-07
1.05055e-07
5.10587e-08
5.78452e-08
4.44444e-08
4.81529e-08
1.85784e-07
1.40312e-07
9.75201e-08
6.78553e-08
3.76016e-08
2.78966e-08
1.21929e-08
1.32807e-08
8.50836e-09
9.68702e-09
8.76301e-09
9.26694e-09
2.74841e-08
1.87404e-08
1.11189e-08
7.20555e-09
3.64876e-09
3.68644e-09
2.35099e-09
2.61138e-09
2.2577e-09
2.4224e-09
2.41815e-09
2.46334e-09
2.921e-09
1.94477e-09
1.24755e-09
1.07118e-09
8.20294e-10
8.70119e-10
7.58376e-10
8.03659e-10
7.90283e-10
8.08903e-10
8.19801e-10
8.3013e-10
4.40729e-10
3.62614e-10
3.39982e-10
3.23138e-10
3.13794e-10
3.16177e-10
3.09696e-10
3.14859e-10
3.17052e-10
3.21543e-10
3.26216e-10
3.2948e-10
1.44777e-10
1.37023e-10
1.38884e-10
1.3722e-10
1.37585e-10
1.37742e-10
1.38055e-10
1.3909e-10
1.4042e-10
1.42186e-10
1.44018e-10
1.45124e-10
6.39634e-11
6.40803e-11
6.43827e-11
6.44947e-11
6.46754e-11
6.48797e-11
6.51865e-11
6.56371e-11
6.62274e-11
6.69278e-11
6.76272e-11
6.80058e-11
3.11686e-11
3.13632e-11
3.15231e-11
3.16276e-11
3.17362e-11
3.18502e-11
3.2002e-11
3.2194e-11
3.24336e-11
3.26987e-11
3.29581e-11
3.30802e-11
1.5892e-11
1.59752e-11
1.60465e-11
1.60943e-11
1.61449e-11
1.61938e-11
1.62557e-11
1.63282e-11
1.64162e-11
1.65082e-11
1.65977e-11
1.6635e-11
8.76049e-12
8.78846e-12
8.81426e-12
8.83157e-12
8.85027e-12
8.86719e-12
8.88785e-12
8.90992e-12
8.93602e-12
8.96164e-12
8.98609e-12
8.9941e-12
5.95725e-12
5.96521e-12
5.97232e-12
5.97865e-12
5.98455e-12
5.98993e-12
5.99484e-12
5.99909e-12
6.00258e-12
6.0051e-12
6.00662e-12
6.00714e-12
1.41714e-06
1.71197e-06
1.89201e-06
2.11757e-06
2.34946e-06
2.58678e-06
2.79447e-06
2.95192e-06
3.03772e-06
3.04039e-06
2.8813e-06
2.7359e-06
7.23307e-07
6.80031e-07
7.3658e-07
8.2233e-07
9.16077e-07
1.01447e-06
1.09966e-06
1.16139e-06
1.18686e-06
1.15035e-06
1.0627e-06
9.59541e-07
3.33168e-07
2.16777e-07
2.35978e-07
2.58072e-07
2.82691e-07
3.08288e-07
3.2828e-07
3.39612e-07
3.38641e-07
3.11925e-07
2.79773e-07
2.32458e-07
1.41927e-07
5.47938e-08
5.96017e-08
6.2994e-08
6.69016e-08
7.0697e-08
7.27529e-08
7.23933e-08
6.71753e-08
6.09197e-08
4.98469e-08
3.90431e-08
5.88293e-08
1.08961e-08
1.19646e-08
1.21358e-08
1.23727e-08
1.24578e-08
1.19022e-08
1.0946e-08
9.58167e-09
8.05763e-09
6.26704e-09
4.46014e-09
2.50063e-08
1.85261e-09
2.04655e-09
1.9621e-09
1.9488e-09
1.78737e-09
1.63381e-09
1.38712e-09
1.17543e-09
9.15675e-10
7.23653e-10
5.37413e-10
1.10411e-08
3.2181e-10
3.40143e-10
3.18835e-10
3.14018e-10
2.75839e-10
2.59356e-10
2.19776e-10
2.04464e-10
1.72476e-10
1.65705e-10
1.46619e-10
5.11288e-09
7.44799e-11
7.06557e-11
7.24612e-11
7.28132e-11
6.90778e-11
6.92476e-11
6.59062e-11
6.65536e-11
6.50589e-11
6.58358e-11
6.57478e-11
2.37464e-09
2.87802e-11
2.40258e-11
2.67709e-11
2.81226e-11
2.879e-11
2.96204e-11
3.02512e-11
3.10063e-11
3.15814e-11
3.21579e-11
3.25415e-11
1.11383e-09
1.46411e-11
1.26895e-11
1.37794e-11
1.45991e-11
1.50774e-11
1.55707e-11
1.5951e-11
1.63166e-11
1.6593e-11
1.68417e-11
1.70081e-11
4.49411e-10
8.8739e-12
8.08758e-12
8.5313e-12
8.85332e-12
9.02967e-12
9.2057e-12
9.33422e-12
9.45674e-12
9.54608e-12
9.6277e-12
9.68125e-12
2.93181e-10
8.14231e-12
6.45025e-12
6.54816e-12
6.60397e-12
6.64566e-12
6.6803e-12
6.70801e-12
6.73085e-12
6.74903e-12
6.76391e-12
6.77578e-12
2.46466e-06
2.25483e-06
1.93729e-06
1.70302e-06
1.38581e-06
1.16578e-06
8.90068e-07
7.21145e-07
5.20838e-07
4.29927e-07
3.44156e-07
3.58365e-07
8.16424e-07
6.9604e-07
5.39613e-07
4.34403e-07
2.96107e-07
2.27968e-07
1.26999e-07
1.0466e-07
5.10514e-08
5.78539e-08
4.46292e-08
4.81949e-08
1.86049e-07
1.40455e-07
9.76631e-08
6.78928e-08
3.76953e-08
2.78568e-08
1.21917e-08
1.32807e-08
8.52701e-09
9.70634e-09
8.78645e-09
9.28387e-09
2.75292e-08
1.87628e-08
1.11396e-08
7.21007e-09
3.66462e-09
3.6923e-09
2.35929e-09
2.61976e-09
2.26738e-09
2.43155e-09
2.42727e-09
2.47228e-09
2.92992e-09
1.9512e-09
1.25407e-09
1.07631e-09
8.26906e-10
8.75752e-10
7.64187e-10
8.09415e-10
7.96097e-10
8.14685e-10
8.25602e-10
8.35948e-10
4.45146e-10
3.66804e-10
3.44213e-10
3.27252e-10
3.18055e-10
3.20337e-10
3.13863e-10
3.19026e-10
3.2123e-10
3.25737e-10
3.30431e-10
3.33709e-10
1.47892e-10
1.40135e-10
1.42001e-10
1.40334e-10
1.40703e-10
1.40858e-10
1.41174e-10
1.42217e-10
1.43558e-10
1.45338e-10
1.47185e-10
1.48301e-10
6.62719e-11
6.63957e-11
6.67027e-11
6.68173e-11
6.70005e-11
6.72075e-11
6.75188e-11
6.79759e-11
6.85749e-11
6.92858e-11
6.99958e-11
7.03801e-11
3.28694e-11
3.30693e-11
3.3233e-11
3.334e-11
3.34511e-11
3.35677e-11
3.3723e-11
3.39196e-11
3.4165e-11
3.44367e-11
3.47025e-11
3.48277e-11
1.7149e-11
1.72352e-11
1.7309e-11
1.73584e-11
1.74107e-11
1.74612e-11
1.75252e-11
1.76003e-11
1.76914e-11
1.77868e-11
1.78796e-11
1.79183e-11
9.72894e-12
9.75817e-12
9.78512e-12
9.80317e-12
9.82268e-12
9.84034e-12
9.86192e-12
9.88499e-12
9.91232e-12
9.93914e-12
9.96477e-12
9.97316e-12
6.78579e-12
6.79415e-12
6.80161e-12
6.80826e-12
6.81445e-12
6.8201e-12
6.82525e-12
6.82971e-12
6.83338e-12
6.83602e-12
6.83761e-12
6.83816e-12
1.41888e-06
1.71403e-06
1.89435e-06
2.12028e-06
2.35259e-06
2.59034e-06
2.79843e-06
2.95618e-06
3.04214e-06
3.04477e-06
2.88527e-06
2.73951e-06
7.24165e-07
6.80811e-07
7.37438e-07
8.23289e-07
9.1715e-07
1.01566e-06
1.10096e-06
1.16277e-06
1.18826e-06
1.15169e-06
1.0639e-06
9.60577e-07
3.33555e-07
2.17013e-07
2.36233e-07
2.58345e-07
2.82985e-07
3.08606e-07
3.28615e-07
3.39956e-07
3.3898e-07
3.12239e-07
2.80044e-07
2.32683e-07
1.42095e-07
5.4854e-08
5.96657e-08
6.30592e-08
6.69687e-08
7.07661e-08
7.28226e-08
7.24608e-08
6.7239e-08
6.09761e-08
4.98945e-08
3.90796e-08
5.89022e-08
1.09097e-08
1.1979e-08
1.21497e-08
1.23864e-08
1.24712e-08
1.19145e-08
1.09578e-08
9.5918e-09
8.06674e-09
6.27442e-09
4.46611e-09
2.50394e-08
1.85592e-09
2.05001e-09
1.96526e-09
1.952e-09
1.79028e-09
1.63666e-09
1.38971e-09
1.17786e-09
9.17881e-10
7.25684e-10
5.39295e-10
1.10568e-08
3.23028e-10
3.4139e-10
3.20045e-10
3.15255e-10
2.77027e-10
2.60564e-10
2.20939e-10
2.05639e-10
1.73615e-10
1.66851e-10
1.47743e-10
5.12088e-09
7.52029e-11
7.14015e-11
7.32129e-11
7.35797e-11
6.98591e-11
7.00328e-11
6.67037e-11
6.73543e-11
6.58704e-11
6.66491e-11