/*--------------------------------*- C++ -*----------------------------------*\
| =========                 |                                                 |
| \\      /  F ield         | OpenFOAM: The Open Source CFD Toolbox           |
|  \\    /   O peration     | Version:  2212                                  |
|   \\  /    A nd           | Website:  www.openfoam.com                      |
|    \\/     M anipulation  |                                                 |
\*---------------------------------------------------------------------------*/
FoamFile
{
    version     2.0;
    format      ascii;
    arch        "LSB;label=32;scalar=64";
    class       volVectorField;
    location    "0.07";
    object      U;
}
// * * * * * * * * * * * * * * * * * * * * * * * * * * * * * * * * * * * * * //

dimensions      [0 1 -1 0 0 0 0];

internalField   nonuniform List<vector> 
3072
(
(0.350408 21.7238 0)
(0.950204 18.6827 0)
(2.65476 17.1407 4.5274e-19)
(4.06005 16.142 -7.60133e-15)
(5.39764 15.4679 1.21902e-14)
(6.24514 15.4556 -5.6964e-15)
(7.74338 17.3984 -2.70709e-15)
(14.7599 16.926 -1.39312e-14)
(27.5713 15.6973 2.2702e-14)
(32.7576 21.518 -8.48218e-15)
(35.1086 23.5918 5.59406e-15)
(38.7247 25.4287 2.65521e-15)
(-5.71101 25.6493 -3.32111e-16)
(-3.18806 22.1391 -2.54495e-15)
(0.741101 22.5787 1.30172e-15)
(3.7674 22.2795 0)
(7.2376 24.169 5.29777e-15)
(13.9904 24.9701 -7.8504e-15)
(23.2089 27.4045 0)
(29.5548 29.0553 0)
(32.1667 28.9625 0)
(32.9094 29.9006 7.62491e-18)
(33.3677 30.0677 -1.17213e-14)
(34.7901 30.2258 5.2074e-18)
(-5.46482 29.1693 3.06646e-16)
(-1.58208 26.1786 0)
(4.25462 27.4721 0)
(10.3362 27.6837 -6.88047e-15)
(18.113 29.541 4.60961e-15)
(25.5056 30.7981 -6.82296e-15)
(30.3214 31.1809 8.63643e-15)
(32.9262 30.6485 0)
(34.1342 29.5133 0)
(34.447 28.8523 -2.98124e-15)
(34.9179 28.1798 -2.84306e-15)
(35.6112 27.5208 8.32408e-15)
(-5.33095 32.7672 -1.12383e-15)
(0.304133 31.464 -2.0882e-15)
(7.85577 33.3275 2.05812e-15)
(15.502 33.6307 -2.07279e-15)
(22.7796 34.1705 8.15252e-15)
(27.8335 33.5355 -7.74661e-15)
(30.6115 32.4978 -3.37469e-15)
(32.2959 31.0319 -8.939e-15)
(33.0606 29.7227 -2.21667e-18)
(33.3582 28.7006 5.24762e-15)
(33.7151 27.7624 4.97044e-15)
(34.0873 26.8522 -4.81558e-15)
(-1.52366 34.868 0)
(3.65292 35.3859 9.45349e-16)
(11.1534 36.8602 -1.85667e-15)
(18.4036 36.7278 3.68818e-15)
(24.3304 36.0344 4.13633e-18)
(27.7775 34.5017 3.19411e-15)
(29.8508 32.7867 2.8776e-15)
(30.8564 31.0973 2.77148e-15)
(31.3572 29.5396 -5.18448e-15)
(31.6752 28.2263 4.83493e-15)
(32.0244 27.0563 -6.83909e-15)
(32.4051 25.9779 8.69351e-15)
(0.497526 37.2043 -9.514e-16)
(6.1415 38.151 8.6135e-16)
(13.1233 39.0713 3.33315e-15)
(19.421 38.388 0)
(24.1012 36.8792 -6.20264e-15)
(26.7965 34.8654 5.60644e-15)
(28.2973 32.8694 0)
(29.1585 30.9327 -4.97273e-15)
(29.6872 29.2063 4.64706e-15)
(30.072 27.7106 0)
(30.4464 26.3852 2.41703e-18)
(30.835 25.1898 3.99373e-15)
(3.49858 39.1211 0)
(8.32222 40.7493 -1.58615e-15)
(14.3372 40.8492 1.51742e-15)
(19.4442 39.7074 0)
(23.0893 37.6177 -2.75305e-15)
(25.2452 35.2629 4.17922e-18)
(26.5713 32.9731 4.80796e-15)
(27.4112 30.8535 4.51683e-15)
(27.9968 28.9622 -4.26392e-15)
(28.4582 27.2973 4.05613e-15)
(28.8827 25.821 -3.87988e-15)
(29.3002 24.5002 -1.12159e-14)
(5.24103 41.4833 0)
(9.67477 43.2725 1.45701e-15)
(14.6607 42.5805 -2.74152e-15)
(18.6857 41.0082 2.60738e-15)
(21.6174 38.4668 0)
(23.5252 35.8023 -4.61703e-15)
(24.7989 33.2488 4.3678e-15)
(25.6866 30.9149 9.10431e-19)
(26.3493 28.8286 -7.91302e-15)
(26.8823 26.9813 -3.7968e-15)
(27.3511 25.3432 -2.30321e-18)
(27.7887 23.8841 7.1049e-15)
(7.57308 43.0473 0)
(10.7194 45.6433 -1.34044e-15)
(14.3522 44.0788 -2.47097e-15)
(17.4278 42.1731 -2.31752e-15)
(19.8559 39.3162 4.38997e-15)
(21.651 36.387 0)
(22.9597 33.584 0)
(23.9334 31.0228 0)
(24.6811 28.7281 0)
(25.2774 26.6904 3.59688e-15)
(25.7787 24.8835 -3.50074e-15)
(26.222 23.279 3.41622e-15)
(8.16947 46.192 0)
(10.6901 47.782 1.17869e-15)
(13.179 45.144 -3.36899e-18)
(15.6594 42.7059 2.09479e-15)
(17.7752 39.5871 2.00793e-15)
(19.5201 36.4711 -3.85614e-15)
(20.8977 33.5123 0)
(21.9745 30.8017 -1.69931e-18)
(22.8148 28.3626 -1.06064e-14)
(23.4769 26.1875 0)
(24.0117 24.2542 6.7636e-15)
(24.4597 22.537 -3.31428e-15)
(10.9419 46.8175 0)
(9.88476 47.4523 1.09113e-15)
(11.1146 44.0211 4.05038e-15)
(13.1587 41.169 -3.8906e-15)
(15.1176 38.0927 -5.63054e-15)
(16.8938 35.092 9.0828e-15)
(18.3867 32.2622 -1.50509e-18)
(19.5961 29.6456 -3.46303e-15)
(20.5525 27.2608 3.38672e-15)
(21.3009 25.108 -6.65952e-15)
(21.8883 23.1749 -9.81396e-15)
(22.3583 21.4441 9.66186e-15)
(4.77847 43.286 -5.72896e-16)
(6.67455 41.9765 -4.13818e-15)
(7.80546 38.3797 9.51169e-16)
(9.80739 35.9404 0)
(11.8721 33.6645 0)
(13.786 31.4086 2.84271e-18)
(15.4241 29.1953 1.00885e-14)
(16.7717 27.0555 6.59807e-15)
(17.8468 25.0275 0)
(18.6888 23.1373 6.39836e-15)
(19.3409 21.396 0)
(19.8489 19.8047 3.77017e-18)
(41.3282 25.0059 -1.86547e-14)
(43.7468 24.6365 8.05573e-15)
(45.0498 23.1411 -8.14045e-15)
(45.9015 21.7267 -2.73312e-15)
(45.7232 19.789 -2.70229e-15)
(45.0868 17.8701 0)
(43.3939 15.766 0)
(41.0426 13.7523 5.35243e-15)
(37.6739 11.7956 -5.40028e-15)
(33.4069 9.69788 0)
(27.7871 6.35397 0)
(25.3102 -0.101086 -3.70529e-16)
(35.7843 30.0914 6.96624e-15)
(37.0392 29.5515 0)
(38.1785 28.5515 -9.75766e-18)
(39.2587 27.18 3.37895e-15)
(40.0578 25.4983 1.69567e-15)
(40.3929 23.769 6.9112e-15)
(40.154 22.0918 -1.06913e-14)
(39.3323 20.6165 1.87212e-15)
(37.9472 19.4792 0)
(35.2635 18.5664 0)
(31.8655 17.4508 0)
(31.8721 14.2483 -4.03533e-23)
(36.2254 26.8034 2.72197e-15)
(36.9217 25.9919 -7.94617e-15)
(37.5863 25.0638 2.61828e-15)
(38.1324 24.078 5.2482e-15)
(38.4478 23.0917 -5.30784e-15)
(38.4656 22.1843 0)
(38.1466 21.4422 0)
(37.4876 20.9653 -1.59799e-18)
(36.5234 20.8888 1.60201e-15)
(34.8491 21.102 0)
(32.2694 21.1647 0)
(33.5782 21.0267 0)
(34.4689 25.9923 3.17075e-18)
(34.9524 25.1443 6.82083e-15)
(35.4346 24.2775 4.46477e-15)
(35.8548 23.4247 -4.43515e-15)
(36.1497 22.6434 0)
(36.2769 22.0098 2.25438e-15)
(36.2102 21.6135 0)
(35.9494 21.5021 3.74954e-15)
(35.5628 21.7948 -1.32726e-15)
(34.7617 22.6375 0)
(32.7207 23.8891 -7.75626e-16)
(35.7467 25.8093 -1.03245e-15)
(32.8207 24.9853 -4.17879e-15)
(33.2741 24.0534 0)
(33.719 23.1812 0)
(34.1241 22.3943 0)
(34.4614 21.7363 0)
(34.7146 21.2746 -3.81614e-15)
(34.8646 21.0922 -1.31317e-18)
(34.9498 21.2226 -2.15148e-15)
(34.9546 21.8232 0)
(34.8496 23.0055 -1.17499e-15)
(33.5225 24.9073 7.31522e-16)
(37.5253 28.0044 9.52497e-16)
(31.2486 24.1071 -2.22974e-18)
(31.685 23.1205 -7.50558e-15)
(32.1242 22.234 3.67962e-15)
(32.5525 21.4686 6.44109e-20)
(32.9606 20.8609 2.1398e-18)
(33.3504 20.4622 5.44973e-15)
(33.7395 20.333 -1.37088e-18)
(34.1485 20.5416 -5.74074e-15)
(34.5959 21.2062 -2.04741e-15)
(35.1284 22.5034 1.15173e-15)
(34.6769 24.8798 -1.38157e-15)
(39.2777 29.0488 -4.41417e-16)
(29.7253 23.3153 1.08782e-14)
(30.1623 22.2533 3.53904e-15)
(30.6091 21.3165 0)
(31.0674 20.5202 0)
(31.5458 19.8929 2.02886e-18)
(32.0628 19.4751 -3.39067e-15)
(32.6496 19.3172 5.11912e-15)
(33.3459 19.4805 -1.17812e-18)
(34.1873 20.0732 1.83453e-15)
(35.2761 21.2878 0)
(35.6593 23.6141 -2.09833e-18)
(40.5878 28.5387 4.11149e-16)
(28.215 22.583 -3.46203e-15)
(28.6436 21.4264 -3.38784e-15)
(29.0854 20.412 3.33437e-15)
(29.5563 19.5486 -3.28823e-15)
(30.0796 18.8549 -6.32842e-20)
(30.6897 18.3595 6.45952e-15)
(31.4355 18.0993 -3.21779e-15)
(32.3814 18.1253 1.62408e-15)
(33.5902 18.5281 0)
(35.2347 19.5111 9.20572e-16)
(36.5081 21.6363 5.57306e-16)
(41.5948 26.8617 -1.53551e-15)
(26.6342 21.8541 3.34458e-15)
(27.0377 20.5922 -3.28463e-15)
(27.4547 19.4851 -3.23302e-15)
(27.9123 18.5334 -6.38623e-15)
(28.4463 17.7446 6.3106e-15)
(29.1047 17.133 -6.24037e-15)
(29.9541 16.7176 0)
(31.0848 16.5295 -1.53865e-15)
(32.594 16.6266 0)
(34.7254 17.1888 0)
(36.9079 18.8136 0)
(42.0388 23.648 1.42778e-15)
(24.8543 21.0136 3.25568e-15)
(25.2256 19.6645 -6.41136e-15)
(25.6051 18.4758 6.32174e-15)
(26.0289 17.4399 6.24124e-15)
(26.5427 16.5527 3.08323e-15)
(27.2041 15.8138 0)
(28.0947 15.2181 0)
(29.3253 14.7699 2.96871e-15)
(31.0333 14.4781 0)
(33.5503 14.472 -7.789e-16)
(36.4481 15.211 4.62954e-16)
(41.7734 18.8699 -2.00672e-15)
(22.749 19.9 -6.34581e-15)
(23.0962 18.5243 6.25443e-15)
(23.4388 17.3014 -6.17581e-15)
(23.819 16.2179 -1.52674e-14)
(24.2903 15.2597 -1.76684e-18)
(24.915 14.4118 1.09571e-18)
(25.786 13.6463 -2.94586e-15)
(27.0147 12.9334 -2.89553e-15)
(28.778 12.209 0)
(31.4859 11.5444 2.19634e-15)
(34.7135 10.9378 4.25295e-16)
(40.3324 12.0493 -3.27503e-19)
(20.2518 18.3626 -3.64211e-18)
(20.5884 17.0587 0)
(20.9026 15.8805 0)
(21.2399 14.814 2.98305e-15)
(21.6588 13.8413 8.86268e-15)
(22.2177 12.9364 -2.92397e-15)
(23.0179 12.048 -1.5975e-18)
(24.1499 11.1173 -1.42377e-15)
(25.8147 9.99485 -1.39668e-15)
(28.3171 8.64277 -1.39582e-15)
(32.0501 6.35831 0)
(37.268 -1.48073 5.50945e-16)
(21.7775 -0.641832 -3.82618e-16)
(18.8651 -1.15756 0)
(17.4051 -2.78053 -4.76476e-19)
(16.2894 -4.25896 0)
(15.7274 -5.52403 6.10742e-15)
(15.4239 -6.62932 -5.75157e-15)
(16.6953 -7.46968 0)
(17.7386 -12.227 -1.11751e-14)
(14.6458 -24.8859 1.99449e-14)
(19.6506 -31.9777 -1.41778e-14)
(22.5035 -34.0223 -2.83914e-15)
(24.2135 -37.7034 -2.6695e-15)
(25.5911 5.38536 -1.6635e-15)
(22.1893 3.03735 -1.27707e-15)
(22.5433 -0.693556 3.91205e-15)
(22.0343 -3.74879 0)
(23.4959 -6.68052 -5.29301e-15)
(24.5842 -11.9764 5.29732e-15)
(25.9942 -21.0478 0)
(28.3443 -28.3143 4.58898e-15)
(28.0648 -31.6356 -1.28931e-14)
(28.9265 -32.7118 7.98621e-15)
(29.2327 -32.9314 8.06675e-15)
(29.3116 -34.3386 -1.11353e-14)
(28.9728 5.1527 3.06614e-16)
(25.9348 1.68588 0)
(26.9471 -3.72765 -2.28608e-15)
(26.9957 -9.15361 0)
(28.3766 -16.119 0)
(29.9419 -23.9184 -4.60752e-15)
(30.3515 -29.3171 1.77082e-14)
(30.2193 -32.3793 -1.0955e-14)
(28.9286 -33.7805 3.43749e-15)
(28.1972 -34.2136 0)
(27.533 -34.5691 5.90662e-15)
(26.8324 -35.2403 -2.84135e-15)
(32.6343 5.59524 -1.12718e-15)
(31.0091 0.395754 1.04916e-15)
(32.6824 -6.6853 2.06408e-15)
(32.8894 -13.9956 4.16488e-15)
(33.4633 -21.4088 -4.13798e-15)
(33.0805 -27.0727 -3.98463e-15)
(32.0406 -30.2157 0)
(30.7081 -31.9177 0)
(29.3012 -32.8133 2.9176e-15)
(28.2266 -33.1554 0)
(27.2733 -33.4675 4.09549e-18)
(26.3448 -33.8611 2.47659e-15)
(34.7845 2.03962 1.54947e-15)
(35.0505 -2.79115 -9.52542e-16)
(36.5449 -10.0545 -1.87823e-15)
(36.4769 -17.2705 0)
(35.9101 -23.5607 0)
(34.439 -27.3853 3.33699e-15)
(32.6545 -29.5185 0)
(30.9257 -30.6314 -5.74823e-15)
(29.2996 -31.1796 -2.70603e-15)
(27.9174 -31.5088 5.05122e-15)
(26.705 -31.8363 -7.1463e-15)
(25.5906 -32.2086 4.53987e-15)
(37.3057 0.271593 -6.30654e-19)
(38.0508 -5.21659 -8.7064e-16)
(39.1311 -12.1571 1.69609e-15)
(38.5321 -18.5689 1.81774e-18)
(37.0721 -23.5626 3.20304e-15)
(35.0018 -26.4499 -5.82944e-15)
(32.9303 -28.0273 5.54669e-15)
(30.9222 -28.9597 4.87722e-18)
(29.111 -29.5291 0)
(27.5388 -29.9303 0)
(26.1567 -30.304 8.68766e-15)
(24.9137 -30.6959 4.79705e-19)
(39.2639 -2.85528 -8.88044e-16)
(40.8549 -7.52389 -8.02713e-16)
(41.136 -13.5593 0)
(40.0773 -18.7636 -2.98667e-15)
(37.984 -22.615 2.83308e-15)
(35.5563 -24.9081 7.95048e-15)
(33.1873 -26.3157 4.9721e-15)
(30.9849 -27.2248 6.67469e-18)
(29.0066 -27.8552 -8.8588e-15)
(27.2626 -28.3462 4.21508e-15)
(25.7199 -28.7906 4.0451e-15)
(24.3413 -29.2296 2.3992e-18)
(41.6468 -4.67023 -5.39689e-19)
(43.478 -9.02219 1.46996e-15)
(42.9699 -14.0223 0)
(41.491 -18.1006 -2.65419e-15)
(38.9536 -21.1747 -2.50539e-15)
(36.2345 -23.1991 4.49409e-18)
(33.6086 -24.5599 -8.98553e-15)
(31.1918 -25.5211 3.3579e-18)
(29.0188 -26.2409 -2.29922e-18)
(27.0893 -26.8193 3.94056e-15)
(25.3767 -27.3271 -3.80178e-15)
(23.8494 -27.8043 2.0409e-18)
(43.2012 -7.18493 -3.87403e-16)
(45.898 -10.2327 6.72247e-16)
(44.5064 -13.8496 -3.74379e-15)
(42.7188 -16.948 2.35125e-15)
(39.8972 -19.4672 0)
(36.9435 -21.3577 0)
(34.0837 -22.7514 4.10933e-15)
(31.4479 -23.8037 7.92701e-15)
(29.0694 -24.6208 -3.83603e-15)
(26.9473 -25.2787 -3.72396e-15)
(25.0594 -25.8374 -3.62929e-15)
(23.3766 -26.3379 0)
(46.3749 -7.93361 -7.20216e-16)
(48.0255 -10.357 1.77774e-15)
(45.5792 -12.8015 4.44515e-15)
(43.2783 -15.2779 0)
(40.225 -17.446 4.09052e-15)
(37.115 -19.264 0)
(34.1237 -20.724 2.56027e-18)
(31.3566 -21.8864 -3.73361e-15)
(28.8447 -22.81 3.6538e-15)
(26.5887 -23.551 0)
(24.5712 -24.1608 0)
(22.7681 -24.6825 -6.88301e-15)
(46.887 -10.854 1.91237e-23)
(47.7379 -9.68261 1.10375e-15)
(44.4603 -10.884 3.08549e-18)
(41.7399 -12.8868 -3.96476e-15)
(38.7416 -14.8484 -1.91714e-15)
(35.7766 -16.6781 -1.86323e-15)
(32.9461 -18.2529 -3.6403e-15)
(30.3002 -19.556 -1.07005e-14)
(27.8625 -20.6087 -3.49871e-15)
(25.6388 -21.451 -6.89009e-15)
(23.6225 -22.1289 6.78218e-15)
(21.8008 -22.6864 6.67621e-15)
(43.5121 -4.80915 -1.15048e-15)
(42.3186 -6.6344 -5.20494e-16)
(38.8584 -7.63063 2.6079e-18)
(36.4918 -9.57626 3.74939e-15)
(34.3039 -11.6458 0)
(32.1132 -13.6191 -3.54067e-15)
(29.933 -15.3463 3.46641e-15)
(27.7931 -16.7954 3.4049e-15)
(25.7333 -17.975 -1.00803e-14)
(23.7835 -18.9191 6.62524e-15)
(21.9608 -19.6708 -6.54084e-15)
(20.2737 -20.2742 0)
(24.0967 -40.3324 8.0446e-15)
(23.7097 -42.7846 -2.16223e-14)
(22.413 -44.1567 5.444e-15)
(21.0189 -45.0445 1.37445e-14)
(19.2582 -44.9182 -1.36124e-14)
(17.3842 -44.3394 2.70181e-15)
(15.4175 -42.7249 -1.38829e-18)
(13.4474 -40.4507 -2.68841e-15)
(11.5718 -37.1856 -5.42524e-15)
(9.50966 -33.0444 0)
(6.17479 -27.5168 0)
(-0.178428 -25.1422 -5.54895e-16)
(29.3264 -35.2431 -1.09174e-19)
(28.8257 -36.4611 7.0249e-15)
(27.9135 -37.5674 -9.6973e-18)
(26.6129 -38.6331 0)
(24.9693 -39.4643 5.25941e-15)
(23.2801 -39.8388 0)
(21.6405 -39.653 3.65855e-15)
(20.2016 -38.8881 5.7451e-15)
(19.1057 -37.5712 -4.09828e-15)
(18.2188 -34.9991 0)
(17.0726 -31.6449 0)
(13.5995 -31.7503 -4.6445e-20)
(26.1333 -35.8359 2.81368e-15)
(25.3417 -36.5176 -2.75474e-15)
(24.4438 -37.1661 2.72372e-15)
(23.4882 -37.7178 0)
(22.5361 -38.0503 -2.75463e-15)
(21.6587 -38.0954 5.64786e-15)
(20.9474 -37.8124 -7.35008e-15)
(20.4926 -37.1974 -7.77388e-15)
(20.4353 -36.3007 4.89028e-15)
(20.6439 -34.7134 0)
(20.6771 -32.168 8.99518e-16)
(20.4909 -33.5688 1.02327e-20)
(25.4737 -34.1989 2.43666e-15)
(24.6242 -34.6523 -4.74949e-15)
(23.7634 -35.1241 4.65709e-15)
(22.9158 -35.5508 -4.62043e-15)
(22.1374 -35.8657 0)
(21.5035 -36.0238 2.32526e-15)
(21.1152 -35.9945 2.39998e-15)
(20.9939 -35.7819 1.28635e-15)
(21.283 -35.4377 -2.69274e-15)
(22.1361 -34.6862 0)
(23.3482 -32.6315 -7.95085e-16)
(25.0882 -35.743 1.29647e-15)
(24.5728 -32.6057 4.36782e-15)
(23.6221 -33.0582 -2.12207e-15)
(22.7338 -33.5136 0)
(21.9324 -33.9386 0)
(21.2602 -34.3032 2.04876e-15)
(20.7814 -34.5907 -1.9843e-15)
(20.5891 -34.7722 -2.5025e-18)
(20.7066 -34.8939 0)
(21.2996 -34.934 -1.19315e-15)
(22.4865 -34.8502 1.20046e-15)
(24.359 -33.5347 -1.49281e-15)
(27.3811 -37.604 0)
(23.7944 -31.1129 -8.04157e-15)
(22.7766 -31.5647 3.91247e-15)
(21.8604 -32.0277 7.67136e-15)
(21.0662 -32.4859 4.90317e-20)
(20.43 -32.9278 -9.41026e-15)
(20.0031 -33.352 -3.77746e-15)
(19.8485 -33.7732 -2.35998e-18)
(20.0335 -34.2099 0)
(20.6814 -34.6742 0)
(21.966 -35.2284 -1.18236e-15)
(24.3307 -34.7174 -7.0326e-16)
(28.434 -39.3829 4.43249e-16)
(23.1068 -29.6789 3.77969e-15)
(22.0001 -30.1477 -7.37687e-15)
(21.0204 -30.6312 -3.61489e-15)
(20.1824 -31.1292 -1.91076e-18)
(19.5142 -31.6473 3.5312e-15)
(19.0572 -32.2012 3.51826e-15)
(18.8649 -32.8187 1.76951e-15)
(19.0004 -33.5363 1.80417e-15)
(19.5766 -34.3829 -1.89487e-15)
(20.7887 -35.4697 0)
(23.1215 -35.7831 1.25743e-15)
(28.0683 -40.756 -8.26346e-16)
(22.486 -28.2729 0)
(21.271 -28.7477 3.52633e-15)
(20.2009 -29.238 0)
(19.2834 -29.7569 -1.89853e-18)
(18.5373 -30.3249 -4.77063e-20)
(17.9928 -30.9732 6.70316e-15)
(17.6902 -31.7469 -1.66644e-15)
(17.6847 -32.7064 -3.35967e-15)
(18.0732 -33.9065 -1.73526e-15)
(19.0621 -35.5263 9.45746e-16)
(21.2048 -36.7051 -1.70662e-15)
(26.5262 -41.794 7.7041e-16)
(21.8762 -26.8086 3.47833e-15)
(20.542 -27.2718 -3.41618e-15)
(19.366 -27.7478 -3.36425e-15)
(18.3481 -28.2606 3.31823e-15)
(17.4961 -28.843 3.27579e-15)
(16.8261 -29.5394 -9.71071e-15)
(16.3613 -30.4124 0)
(16.1396 -31.5484 1.59139e-15)
(16.2274 -33.0353 1.61399e-15)
(16.8121 -35.1212 0)
(18.4938 -37.2065 1.55171e-15)
(23.5156 -42.2721 -3.5924e-16)
(21.1575 -25.1504 0)
(19.7231 -25.5942 -6.6612e-15)
(18.4528 -26.0426 -3.28563e-15)
(17.3389 -26.5278 -6.4763e-15)
(16.3783 -27.0922 3.19826e-15)
(15.5726 -27.7899 3.15522e-15)
(14.9221 -28.6973 0)
(14.438 -29.9216 0)
(14.1418 -31.5905 0)
(14.1693 -34.0395 0)
(15.0129 -36.8407 -4.71021e-16)
(18.9677 -42.0258 -6.71269e-16)
(20.1596 -23.1636 3.2911e-15)
(18.6875 -23.595 3.24301e-15)
(17.3718 -24.0153 1.28129e-14)
(16.2003 -24.4616 3.16592e-15)
(15.16 -24.9841 1.25102e-14)
(14.2387 -25.6414 -3.08936e-15)
(13.414 -26.5193 -3.04546e-15)
(12.665 -27.7253 0)
(11.9411 -29.4269 -2.94764e-15)
(11.3229 -32.0426 -1.50145e-15)
(10.8632 -35.154 -8.64391e-16)
(12.4021 -40.5927 0)
(18.7243 -20.7727 0)
(17.3131 -21.2024 0)
(16.0327 -21.6015 -1.24817e-14)
(14.8709 -22.0086 -9.25466e-15)
(13.8104 -22.4771 -3.04967e-15)
(12.8278 -23.0594 0)
(11.881 -23.8486 2.98296e-15)
(10.9171 -24.9284 0)
(9.80006 -26.4918 -1.66226e-18)
(8.50244 -28.8648 1.42931e-15)
(6.41669 -32.4594 3.86553e-16)
(-0.911206 -37.3875 -1.63716e-19)
(-0.350437 -21.7238 -1.90858e-16)
(-0.950216 -18.6827 -2.98177e-15)
(-2.65477 -17.1408 3.04e-15)
(-4.06006 -16.142 -3.0415e-15)
(-5.39764 -15.4679 0)
(-6.24516 -15.4556 2.84949e-15)
(-7.74333 -17.3983 0)
(-14.7596 -16.9261 2.78811e-15)
(-27.5711 -15.6971 -8.50741e-15)
(-32.7576 -21.5179 8.49024e-15)
(-35.1086 -23.5917 1.67604e-14)
(-38.7247 -25.4287 -5.2813e-15)
(5.71099 -25.6493 0)
(3.18806 -22.1391 -2.54495e-15)
(-0.741095 -22.5787 2.60249e-15)
(-3.7674 -22.2795 2.6081e-15)
(-7.23754 -24.169 -5.29777e-15)
(-13.9902 -24.97 -7.79413e-19)
(-23.2088 -27.4044 -4.91524e-15)
(-29.5548 -29.0552 -1.11157e-14)
(-32.1667 -28.9625 1.29741e-14)
(-32.9095 -29.9005 -4.04297e-15)
(-33.3677 -30.0677 8.81759e-18)
(-34.7901 -30.2258 5.52214e-18)
(5.46481 -29.1693 0)
(1.58212 -26.1786 0)
(-4.25454 -27.472 0)
(-10.336 -27.6835 -2.29439e-15)
(-18.1128 -29.5408 0)
(-25.5055 -30.798 -2.27844e-15)
(-30.3214 -31.1808 4.31655e-15)
(-32.9263 -30.6485 7.05505e-15)
(-34.1343 -29.5133 -3.30456e-15)
(-34.4471 -28.8523 -5.96009e-15)
(-34.918 -28.1798 -8.53343e-15)
(-35.6112 -27.5208 8.3241e-15)
(5.33103 -32.7672 0)
(-0.304006 -31.4639 -1.04462e-15)
(-7.8556 -33.3274 2.05976e-15)
(-15.5019 -33.6306 2.06863e-15)
(-22.7795 -34.1704 0)
(-27.8335 -33.5355 -7.75384e-15)
(-30.6116 -32.4978 6.74151e-15)
(-32.296 -31.0318 0)
(-33.0607 -29.7227 5.59622e-15)
(-33.3583 -28.7006 -7.86972e-15)
(-33.7152 -27.7624 4.9665e-15)
(-34.0873 -26.8522 4.13298e-18)
(1.52379 -34.868 -6.14467e-23)
(-3.65276 -35.3858 1.89214e-15)
(-11.1533 -36.8602 3.02425e-18)
(-18.4036 -36.7278 0)
(-24.3304 -36.0344 -3.54904e-15)
(-27.7776 -34.5017 6.39019e-15)
(-29.8509 -32.7867 0)
(-30.8565 -31.0973 -2.77608e-15)
(-31.3573 -29.5396 -2.59481e-15)
(-31.6753 -28.2263 4.83495e-15)
(-32.0244 -27.0563 0)
(-32.4051 -25.9779 -4.34209e-15)
(-0.497353 -37.2043 4.75368e-16)
(-6.14134 -38.151 1.8983e-18)
(-13.1231 -39.0713 -1.66523e-15)
(-19.421 -38.388 -6.53555e-15)
(-24.1012 -36.8793 -1.79873e-18)
(-26.7966 -34.8654 5.60646e-15)
(-28.2974 -32.8694 0)
(-29.1585 -30.9327 7.45959e-15)
(-29.6872 -29.2063 -4.64837e-15)
(-30.0721 -27.7106 4.3782e-15)
(-30.4464 -26.3852 2.41704e-18)
(-30.8351 -25.1898 -4.48398e-19)
(-3.49843 -39.1212 -1.32813e-15)
(-8.32209 -40.7493 -7.91317e-16)
(-14.3371 -40.8493 0)
(-19.4442 -39.7075 5.83526e-15)
(-23.0893 -37.6178 -8.25909e-15)
(-25.2453 -35.263 -1.29446e-18)
(-26.5713 -32.9731 -9.62042e-15)
(-27.4113 -30.8535 3.94168e-18)
(-27.9969 -28.9622 -4.26394e-15)
(-28.4582 -27.2973 -4.05614e-15)
(-28.8827 -25.821 3.88538e-15)
(-29.3003 -24.5002 -3.73928e-15)
(-5.2409 -41.4833 1.23797e-15)
(-9.67468 -43.2726 -7.28947e-16)
(-14.6607 -42.5806 0)
(-18.6858 -41.0082 2.60739e-15)
(-21.6174 -38.4669 2.45053e-15)
(-23.5253 -35.8024 2.3073e-15)
(-24.799 -33.2488 -3.72644e-18)
(-25.6866 -30.9149 -9.10439e-19)
(-26.3493 -28.8286 -3.9595e-15)
(-26.8824 -26.9813 -4.87485e-18)
(-27.3511 -25.3432 2.05278e-18)
(-27.7887 -23.8841 0)
(-7.57299 -43.0473 3.86136e-16)
(-10.7193 -45.6434 0)
(-14.3522 -44.0788 0)
(-17.4279 -42.1732 -2.31753e-15)
(-19.8559 -39.3162 2.19181e-15)
(-21.6511 -36.387 -4.17939e-15)
(-22.9597 -33.584 0)
(-23.9335 -31.0228 3.84456e-15)
(-24.6811 -28.7281 -1.9933e-18)
(-25.2774 -26.6904 3.59689e-15)
(-25.7788 -24.8835 -3.50239e-15)
(-26.2221 -23.279 6.83565e-15)
(-8.16943 -46.192 -2.40566e-19)
(-10.6901 -47.7821 -5.89561e-16)
(-13.179 -45.1441 -2.20512e-15)
(-15.6594 -42.7059 -4.18745e-15)
(-17.7752 -39.5871 0)
(-19.5201 -36.4711 3.85136e-15)
(-20.8978 -33.5123 -7.46305e-15)
(-21.9745 -30.8017 3.62371e-15)
(-22.8149 -28.3626 3.53774e-15)
(-23.4769 -26.1875 0)
(-24.0117 -24.2542 -3.38485e-15)
(-24.4597 -22.537 -6.62557e-15)
(-10.9419 -46.8175 -6.40927e-16)
(-9.88474 -47.4523 5.44871e-16)
(-11.1146 -44.0212 2.02368e-15)
(-13.1587 -41.1691 1.94365e-15)
(-15.1176 -38.0927 -3.95466e-19)
(-16.8938 -35.092 -5.45203e-15)
(-18.3867 -32.2622 7.07307e-15)
(-19.5961 -29.6456 1.38351e-14)
(-20.5525 -27.2608 -1.01667e-14)
(-21.3009 -25.108 -6.65954e-15)
(-21.8883 -23.1749 6.5418e-15)
(-22.3583 -21.4441 0)
(-4.77847 -43.286 1.14423e-15)
(-6.67454 -41.9766 5.19028e-16)
(-7.80545 -38.3798 9.4863e-16)
(-9.80739 -35.9404 3.6725e-15)
(-11.8721 -33.6645 0)
(-13.786 -31.4087 3.43885e-15)
(-15.4242 -29.1953 -6.72733e-15)
(-16.7717 -27.0555 -3.2978e-15)
(-17.8469 -25.0275 -3.24731e-15)
(-18.6888 -23.1373 6.39838e-15)
(-19.3409 -21.396 3.15965e-15)
(-19.8489 -19.8047 9.35655e-15)
(-41.3282 -25.0059 -2.66338e-15)
(-43.7468 -24.6365 2.69701e-15)
(-45.0498 -23.1411 -8.13065e-15)
(-45.9015 -21.7267 2.44987e-14)
(-45.7232 -19.789 -1.07861e-14)
(-45.0868 -17.8701 0)
(-43.3939 -15.766 -5.33397e-15)
(-41.0426 -13.7523 4.01042e-15)
(-37.6739 -11.7956 0)
(-33.4069 -9.69789 9.14365e-19)
(-27.7871 -6.35397 0)
(-25.3103 0.101086 3.70529e-16)
(-35.7844 -30.0914 -1.39441e-14)
(-37.0392 -29.5515 6.81883e-15)
(-38.1785 -28.5515 6.75683e-15)
(-39.2587 -27.18 -3.38357e-15)
(-40.0578 -25.4983 0)
(-40.3929 -23.769 0)
(-40.154 -22.0918 3.56446e-15)
(-39.3323 -20.6166 -3.74658e-15)
(-37.9472 -19.4792 0)
(-35.2635 -18.5665 1.03394e-15)
(-31.8655 -17.4508 -2.4782e-19)
(-31.8721 -14.2484 -1.3547e-15)
(-36.2254 -26.8034 2.72237e-15)
(-36.9217 -25.9919 -5.29668e-15)
(-37.5864 -25.0638 0)
(-38.1324 -24.078 -5.24818e-15)
(-38.4478 -23.0917 -5.30877e-15)
(-38.4656 -22.1843 1.08946e-14)
(-38.1466 -21.4422 -8.53001e-15)
(-37.4876 -20.9653 0)
(-36.5234 -20.8888 0)
(-34.8491 -21.102 0)
(-32.2694 -21.1647 -8.85647e-16)
(-33.5782 -21.0267 0)
(-34.4689 -25.9923 -2.34465e-15)
(-34.9524 -25.1443 -3.62171e-18)
(-35.4346 -24.2775 0)
(-35.8549 -23.4247 -3.3998e-18)
(-36.1497 -22.6434 0)
(-36.2769 -22.0098 0)
(-36.2102 -21.6135 2.33382e-15)
(-35.9494 -21.5021 -2.49904e-15)
(-35.5628 -21.7948 2.65603e-15)
(-34.7617 -22.6375 0)
(-32.7207 -23.8891 -7.75626e-16)
(-35.7467 -25.8093 1.03245e-15)
(-32.8207 -24.9853 8.36696e-15)
(-33.2742 -24.0534 -2.0332e-15)
(-33.719 -23.1812 3.9868e-15)
(-34.1242 -22.3943 1.97305e-15)
(-34.4615 -21.7363 -5.89526e-15)
(-34.7146 -21.2746 0)
(-34.8646 -21.0922 -1.96909e-15)
(-34.9498 -21.2226 0)
(-34.9546 -21.8232 0)
(-34.8496 -23.0055 1.17499e-15)
(-33.5225 -24.9073 3.94229e-19)
(-37.5253 -28.0045 1.27481e-18)
(-31.2486 -24.1071 -3.85132e-15)
(-31.685 -23.1205 -2.3826e-18)
(-32.1242 -22.2339 0)
(-32.5525 -21.4686 0)
(-32.9606 -20.8609 -5.43124e-15)
(-33.3504 -20.4622 3.63404e-15)
(-33.7395 -20.3331 3.69401e-15)
(-34.1485 -20.5416 1.91335e-15)
(-34.5959 -21.2062 -4.09369e-15)
(-35.1284 -22.5034 -1.15173e-15)
(-34.6769 -24.8798 0)
(-39.2777 -29.0488 4.41417e-16)
(-29.7253 -23.3152 -7.25577e-15)
(-30.1624 -22.2533 3.53504e-15)
(-30.6091 -21.3165 3.47374e-15)
(-31.0674 -20.5202 1.87569e-18)
(-31.5458 -19.8929 -3.89201e-18)
(-32.0628 -19.4751 -3.39256e-15)
(-32.6496 -19.3172 -5.11813e-15)
(-33.3459 -19.4805 -1.74442e-15)
(-34.1873 -20.0732 1.83453e-15)
(-35.2761 -21.2878 0)
(-35.6593 -23.6141 1.856e-15)
(-40.5878 -28.5387 -1.23488e-15)
(-28.215 -22.583 6.92229e-15)
(-28.6436 -21.4264 -3.39325e-15)
(-29.0854 -20.412 -3.33438e-15)
(-29.5563 -19.5486 -6.57465e-15)
(-30.0796 -18.8549 6.50556e-15)
(-30.6897 -18.3595 -1.87354e-18)
(-31.4355 -18.0993 9.65896e-15)
(-32.3814 -18.1253 1.6221e-15)
(-33.5902 -18.5281 1.68139e-15)
(-35.2347 -19.5111 0)
(-36.5081 -21.6363 -1.11631e-15)
(-41.5948 -26.8617 3.84027e-16)
(-26.6343 -21.8541 0)
(-27.0378 -20.5922 3.28301e-15)
(-27.4547 -19.4851 3.23303e-15)
(-27.9123 -18.5334 -3.19247e-15)
(-28.4463 -17.7446 -1.4325e-18)
(-29.1047 -17.133 -3.12247e-15)
(-29.9541 -16.7176 -3.08949e-15)
(-31.0848 -16.5295 0)
(-32.594 -16.6266 -1.56416e-15)
(-34.7254 -17.1888 -8.41647e-16)
(-36.9079 -18.8136 2.53894e-15)
(-42.0388 -23.648 -3.55523e-16)
(-24.8543 -21.0136 0)
(-25.2256 -19.6645 0)
(-25.6051 -18.4758 0)
(-26.0289 -17.4399 -9.36298e-15)
(-26.5427 -16.5527 6.16619e-15)
(-27.2041 -15.8138 6.09014e-15)
(-28.0947 -15.2181 0)
(-29.3253 -14.7699 -2.96872e-15)
(-31.0333 -14.4781 0)
(-33.5503 -14.472 -1.55807e-15)
(-36.4481 -15.211 -4.62902e-16)
(-41.7735 -18.8699 -6.66875e-16)
(-22.749 -19.9 0)
(-23.0962 -18.5243 0)
(-23.4388 -17.3014 6.18009e-15)
(-23.819 -16.2179 9.15843e-15)
(-24.2903 -15.2597 3.08718e-18)
(-24.915 -14.4118 2.98635e-15)
(-25.7859 -13.6463 -1.47267e-15)
(-27.0147 -12.9334 4.34376e-15)
(-28.778 -12.209 2.86191e-15)
(-31.4859 -11.5444 1.46265e-15)
(-34.7135 -10.9379 -8.50572e-16)
(-40.3324 -12.0493 -1.24716e-15)
(-20.2519 -18.3626 0)
(-20.5884 -17.0587 0)
(-20.9026 -15.8805 -6.02889e-15)
(-21.2399 -14.814 2.9864e-15)
(-21.6588 -13.8413 -2.95311e-15)
(-22.2177 -12.9364 -2.92398e-15)
(-23.0179 -12.048 2.89259e-15)
(-24.1499 -11.1173 0)
(-25.8147 -9.99486 -2.79297e-15)
(-28.3171 -8.64278 -1.39654e-15)
(-32.0501 -6.35833 1.14733e-15)
(-37.268 1.48071 2.08457e-19)
(-21.7775 0.641833 -1.64611e-19)
(-18.8651 1.15756 0)
(-17.4051 2.78053 0)
(-16.2894 4.25897 -6.09061e-15)
(-15.7274 5.52403 9.16223e-15)
(-15.4239 6.62932 0)
(-16.6953 7.46968 0)
(-17.7386 12.227 2.79548e-15)
(-14.6458 24.8859 2.85544e-15)
(-19.6506 31.9777 8.51479e-15)
(-22.5035 34.0223 1.41478e-14)
(-24.2135 37.7034 -2.65191e-15)
(-25.5911 -5.38536 -2.47395e-19)
(-22.1893 -3.03735 0)
(-22.5433 0.693556 0)
(-22.0343 3.74879 -2.61088e-15)
(-23.4959 6.68052 5.29496e-15)
(-24.5842 11.9764 -1.58945e-14)
(-25.9942 21.0478 1.00606e-14)
(-28.3443 28.3143 2.2978e-15)
(-28.0648 31.6356 -4.29121e-15)
(-28.9265 32.7118 7.15494e-18)
(-29.2327 32.9314 0)
(-29.3116 34.3386 -7.41359e-15)
(-28.9728 -5.1527 3.06614e-16)
(-25.9348 -1.68589 0)
(-26.9471 3.72765 0)
(-26.9957 9.15361 -2.16918e-18)
(-28.3766 16.119 2.6733e-18)
(-29.9419 23.9184 -4.61294e-15)
(-30.3515 29.3171 0)
(-30.2193 32.3793 -1.0959e-14)
(-28.9286 33.7805 1.03189e-14)
(-28.1972 34.2136 -3.08392e-15)
(-27.533 34.5691 -5.90634e-15)
(-26.8324 35.2403 8.51525e-15)
(-32.6343 -5.59524 1.12718e-15)
(-31.0091 -0.395758 1.04916e-15)
(-32.6824 6.68529 0)
(-32.8894 13.9956 2.08054e-15)
(-33.4633 21.4088 -2.06784e-15)
(-33.0805 27.0727 3.98463e-15)
(-32.0406 30.2157 0)
(-30.7081 31.9177 -3.07731e-15)
(-29.3012 32.8133 -8.74416e-15)
(-28.2266 33.1554 5.46858e-15)
(-27.2733 33.4675 5.18043e-15)
(-26.3448 33.8611 -9.91753e-15)
(-34.7845 -2.03962 -5.15898e-16)
(-35.0505 2.79114 -9.53086e-16)
(-36.5449 10.0545 1.87823e-15)
(-36.4769 17.2705 0)
(-35.9101 23.5607 -7.30808e-15)
(-34.439 27.3853 6.67007e-15)
(-32.6545 29.5185 3.13435e-15)
(-30.9257 30.6314 2.87103e-15)
(-29.2996 31.1796 0)
(-27.9174 31.5088 0)
(-26.705 31.8363 0)
(-25.5906 32.2086 -6.55225e-18)
(-37.3057 -0.271597 6.30654e-19)
(-38.0508 5.21658 0)
(-39.1311 12.1571 -1.69609e-15)
(-38.5321 18.5689 3.35212e-15)
(-37.0721 23.5626 3.20283e-15)
(-35.0018 26.4499 -5.82944e-15)
(-32.9303 28.0273 2.77366e-15)
(-30.9222 28.9597 -1.03423e-14)
(-29.111 29.5291 -1.40184e-18)
(-27.5388 29.9303 -3.61906e-18)
(-26.1567 30.304 2.49955e-18)
(-24.9137 30.6959 1.24869e-14)
(-39.2639 2.85528 4.44589e-16)
(-40.8549 7.52389 1.60419e-15)
(-41.136 13.5593 -3.08648e-15)
(-40.0773 18.7636 -2.98667e-15)
(-37.984 22.615 -5.66005e-15)
(-35.5563 24.9081 -2.65427e-15)
(-33.1873 26.3157 -4.9694e-15)
(-30.9849 27.2248 9.35315e-15)
(-29.0066 27.8552 0)
(-27.2626 28.3462 8.43066e-15)
(-25.7199 28.7906 -1.21195e-14)
(-24.3413 29.2296 3.89843e-15)
(-41.6468 4.67023 -8.2679e-16)
(-43.478 9.02218 -2.20585e-15)
(-42.9699 14.0223 4.17163e-15)
(-41.491 18.1006 0)
(-38.9536 21.1747 -2.50928e-15)
(-36.2345 23.1991 4.73507e-15)
(-33.6086 24.5599 -2.36762e-18)
(-31.1918 25.5211 9.68005e-19)
(-29.0188 26.2409 -4.09578e-15)
(-27.0893 26.8193 -7.87648e-15)
(-25.3767 27.3271 3.80369e-15)
(-23.8494 27.8043 -3.69548e-15)
(-43.2012 7.18493 -7.7339e-16)
(-45.898 10.2327 0)
(-44.5064 13.8496 0)
(-42.7188 16.948 0)
(-39.8972 19.4672 2.23345e-15)
(-36.9435 21.3577 0)
(-34.0837 22.7514 -3.13861e-18)
(-31.4479 23.8037 7.92441e-15)
(-29.0693 24.6208 2.25633e-18)
(-26.9473 25.2787 3.72396e-15)
(-25.0594 25.8374 -3.63129e-15)
(-23.3766 26.3379 1.06516e-14)
(-46.3749 7.93361 -1.44069e-15)
(-48.0255 10.357 2.96571e-15)
(-45.5792 12.8015 -1.11107e-15)
(-43.2783 15.2779 0)
(-40.225 17.4459 0)
(-37.115 19.264 0)
(-34.1237 20.724 0)
(-31.3566 21.8864 3.73612e-15)
(-28.8447 22.81 -1.46026e-14)
(-26.5886 23.551 -7.14851e-15)
(-24.5712 24.1608 7.00896e-15)
(-22.7681 24.6825 3.44604e-15)
(-46.887 10.854 -6.42783e-16)
(-47.7379 9.6826 -1.65383e-15)
(-44.4603 10.884 -1.02863e-15)
(-41.7399 12.8868 0)
(-38.7416 14.8484 0)
(-35.7766 16.6781 3.72855e-15)
(-32.9461 18.2529 -7.27901e-15)
(-30.3002 19.556 1.42663e-14)
(-27.8625 20.6087 1.05055e-14)
(-25.6388 21.451 6.88453e-15)
(-23.6225 22.1289 -6.77697e-15)
(-21.8008 22.6864 4.93333e-18)
(-43.5121 4.80914 -1.15558e-18)
(-42.3186 6.63439 0)
(-38.8584 7.63063 1.92298e-15)
(-36.4918 9.57626 -5.62951e-15)
(-34.3039 11.6458 5.45146e-15)
(-32.1132 13.6191 2.98175e-18)
(-29.933 15.3463 3.46641e-15)
(-27.7931 16.7954 -3.40722e-15)