/*--------------------------------*- C++ -*----------------------------------*\
| =========                 |                                                 |
| \\      /  F ield         | OpenFOAM: The Open Source CFD Toolbox           |
|  \\    /   O peration     | Version:  2212                                  |
|   \\  /    A nd           | Website:  www.openfoam.com                      |
|    \\/     M anipulation  |                                                 |
\*---------------------------------------------------------------------------*/
FoamFile
{
    version     2.0;
    format      ascii;
    arch        "LSB;label=32;scalar=64";
    class       volVectorField;
    location    "0.07";
    object      U;
}
// * * * * * * * * * * * * * * * * * * * * * * * * * * * * * * * * * * * * * //

dimensions      [0 1 -1 0 0 0 0];

internalField   nonuniform List<vector> 
3072
(
(1.34548 21.9122 0)
(1.79873 19.2411 0)
(3.14884 18.0068 5.98174e-19)
(4.55086 16.6308 -8.79084e-15)
(5.77555 16.0634 1.40863e-14)
(6.97352 15.514 -7.04978e-15)
(7.7582 15.3594 -3.27159e-15)
(9.64524 17.1872 -1.55168e-14)
(17.1996 15.2926 2.57248e-14)
(28.6499 14.8528 -9.68954e-15)
(32.5315 19.5731 6.5801e-15)
(35.0947 21.3743 3.05528e-15)
(-4.70167 25.5619 -3.83779e-16)
(-2.6751 22.4767 -2.93328e-15)
(0.446223 22.4096 1.48506e-15)
(3.45752 21.9749 0)
(5.90997 22.1992 5.99566e-15)
(8.99882 23.6237 -9.15165e-15)
(15.2596 23.996 0)
(24.2201 25.6568 0)
(29.9604 26.4358 0)
(32.0895 26.3408 7.58997e-18)
(32.6874 27.279 -1.35871e-14)
(33.3246 27.235 4.40885e-18)
(-4.2569 28.7859 3.50466e-16)
(-1.7294 25.565 0)
(2.80585 26.0181 0)
(7.08026 25.6944 -7.8126e-15)
(12.0753 26.2396 5.25506e-15)
(18.9785 27.4892 -7.93345e-15)
(26.3103 28.3968 1.04898e-14)
(31.1124 28.5948 0)
(33.3566 27.9335 0)
(34.2056 26.9199 -3.79001e-15)
(34.3472 26.352 -3.45877e-15)
(34.7743 25.6597 9.96234e-15)
(-5.76264 32.2646 -1.29373e-15)
(-1.60206 30.0006 -2.40772e-15)
(4.26481 31.1619 2.35299e-15)
(10.3631 31.0358 -2.37375e-15)
(17.3665 31.4983 9.54591e-15)
(24.2654 31.6194 -9.46361e-15)
(29.3458 31.0021 -4.53665e-15)
(31.7517 29.9276 -1.24039e-14)
(32.9018 28.5385 -3.30054e-18)
(33.3829 27.3931 6.51135e-15)
(33.5698 26.4927 6.14424e-15)
(33.8848 25.6061 -5.83754e-15)
(-3.16389 34.7173 0)
(0.882609 33.9638 1.0961e-15)
(7.27153 35.3509 -2.15752e-15)
(14.0454 35.2926 4.34587e-15)
(21.0199 35.085 4.70297e-18)
(26.515 33.9996 4.18086e-15)
(29.5964 32.4 3.83211e-15)
(31.0135 30.648 3.52597e-15)
(31.6817 29.0272 -6.54494e-15)
(32.0153 27.5962 6.07423e-15)
(32.2543 26.3941 -8.52131e-15)
(32.5632 25.295 1.075e-14)
(-2.00741 37.5353 -1.10563e-15)
(2.93034 37.5667 1.00895e-15)
(9.56461 38.8826 3.96272e-15)
(16.1619 38.4884 0)
(22.2648 37.3665 -7.77434e-15)
(26.3236 35.3495 7.35109e-15)
(28.5277 33.1413 0)
(29.6 31.0926 -6.27035e-15)
(30.243 29.2294 5.82957e-15)
(30.6532 27.6104 0)
(30.9851 26.2237 2.97712e-18)
(31.3369 24.9845 4.91495e-15)
(1.1111 39.6148 0)
(5.42793 40.959 -1.85874e-15)
(11.4398 41.6729 1.81252e-15)
(17.0907 40.8758 0)
(21.9345 38.8895 -3.44684e-15)
(25.0599 36.3213 5.37447e-18)
(26.9161 33.7617 6.02184e-15)
(27.9999 31.4537 5.64205e-15)
(28.7305 29.4225 -5.31001e-15)
(29.2675 27.6514 5.03156e-15)
(29.7206 26.1133 -4.78845e-15)
(30.1564 24.7484 -1.37638e-14)
(3.16698 42.0132 0)
(7.31637 43.8806 1.68909e-15)
(12.33 43.883 -3.2253e-15)
(16.8311 42.6572 3.13241e-15)
(20.6883 40.1362 0)
(23.4198 37.246 -5.6634e-15)
(25.2286 34.4223 5.38083e-15)
(26.4261 31.898 1.41338e-18)
(27.2983 29.6882 -9.76572e-15)
(27.9764 27.761 -4.67599e-15)
(28.5479 26.0783 -3.04868e-18)
(29.0672 24.5879 8.68198e-15)
(5.93899 43.6976 0)
(8.87401 46.3976 -1.5254e-15)
(12.5195 45.4862 -2.83538e-15)
(15.9767 43.9666 -2.69895e-15)
(19.1525 41.235 5.18255e-15)
(21.686 38.1798 0)
(23.5514 35.1752 0)
(24.9138 32.4536 0)
(25.9546 30.0554 0)
(26.7779 27.9591 4.37325e-15)
(27.4584 26.1242 -4.25182e-15)
(28.0474 24.5009 4.13928e-15)
(7.23589 46.6272 0)
(9.30513 48.3542 1.33888e-15)
(11.8142 46.4302 -3.91237e-18)
(14.6346 44.5058 2.39797e-15)
(17.3924 41.6905 2.3308e-15)
(19.8241 38.6279 -4.52127e-15)
(21.7934 35.6004 0)
(23.3485 32.8064 -2.11149e-18)
(24.5793 30.3043 -1.26842e-14)
(25.5589 28.093 0)
(26.3501 26.1412 8.12561e-15)
(27.0033 24.4074 -3.98114e-15)
(9.96253 46.9286 0)
(8.87177 48.0626 1.25602e-15)
(10.3281 45.3397 4.60599e-15)
(12.7033 43.1208 -4.43481e-15)
(15.2226 40.5063 -6.47268e-15)
(17.6583 37.7503 1.05184e-14)
(19.7918 35.009 -1.86905e-18)
(21.5673 32.412 -4.06695e-15)
(23.0122 30.0194 4.00251e-15)
(24.1681 27.8531 -7.91175e-15)
(25.0841 25.9022 -1.16983e-14)
(25.8084 24.1432 1.15357e-14)
(4.62192 43.8992 -6.58616e-16)
(6.48246 43.1386 -4.74182e-15)
(7.74915 40.2798 1.08874e-15)
(10.0959 38.5219 0)
(12.7009 36.7877 0)
(15.2657 34.8844 3.74089e-18)
(17.5804 32.8732 1.16885e-14)
(19.5644 30.8282 7.69274e-15)
(21.212 28.8343 0)
(22.5396 26.9424 7.54786e-15)
(23.5811 25.1701 0)
(24.375 23.5269 6.01456e-18)
(38.417 21.7426 -2.15275e-14)
(40.4481 21.5175 9.32509e-15)
(42.1795 20.5388 -9.42774e-15)
(42.8458 19.3175 -3.19153e-15)
(42.9317 17.8527 -3.15116e-15)
(42.2603 16.1637 0)
(40.8628 14.3996 0)
(38.6284 12.5896 6.17217e-15)
(35.6392 10.788 -6.22804e-15)
(31.7894 8.79211 0)
(26.6284 5.24461 0)
(24.6844 -0.585876 -4.20707e-16)
(34.3757 27.6233 8.38537e-15)
(35.2878 27.2695 0)
(36.4011 26.5578 -1.03249e-17)
(37.3516 25.4207 4.07221e-15)
(38.1994 23.8568 2.02338e-15)
(38.5765 22.2679 8.23242e-15)
(38.4483 20.6903 -1.26575e-14)
(37.7622 19.2937 2.19926e-15)
(36.5703 18.2095 0)
(34.2618 17.2635 0)
(31.0398 15.8734 0)
(31.5657 11.4797 -4.67827e-23)
(35.3082 25.0318 3.2229e-15)
(35.8719 24.3086 -9.5489e-15)
(36.4916 23.4969 3.16862e-15)
(36.983 22.6189 6.3524e-15)
(37.3036 21.7319 -6.36616e-15)
(37.3499 20.8709 0)
(37.1128 20.1503 0)
(36.5723 19.6529 -1.95973e-18)
(35.8064 19.4817 1.84311e-15)
(34.3412 19.4709 0)
(32.0141 19.3048 0)
(33.6588 18.8984 0)
(34.203 24.78 3.69943e-18)
(34.5474 23.971 8.24148e-15)
(34.9263 23.1488 5.41598e-15)
(35.2792 22.3302 -5.35569e-15)
(35.5545 21.5534 0)
(35.6973 20.8892 2.71249e-15)
(35.6738 20.4075 0)
(35.5001 20.1843 4.31889e-15)
(35.1748 20.3131 -1.41533e-15)
(34.4459 20.951 0)
(32.4727 21.8465 -9.27744e-16)
(35.7815 22.8641 -1.19317e-15)
(32.8919 24.2881 -5.13014e-15)
(33.2587 23.3528 0)
(33.6487 22.4691 0)
(34.0221 21.6543 0)
(34.3497 20.9443 0)
(34.6122 20.3882 -4.61601e-15)
(34.7852 20.0823 -1.53747e-18)
(34.879 20.0493 -2.41587e-15)
(34.9406 20.4243 0)
(34.7917 21.3479 -1.38205e-15)
(33.5644 22.8834 8.53186e-16)
(37.7865 25.4421 1.09981e-15)
(31.704 23.8657 -2.76397e-18)
(32.0986 22.8478 -9.11376e-15)
(32.5117 21.9175 4.43612e-15)
(32.9245 21.0862 2.72535e-20)
(33.3242 20.3836 2.55345e-18)
(33.7049 19.8537 6.43844e-15)
(34.0771 19.5569 -1.71236e-18)
(34.4584 19.5585 -6.72203e-15)
(34.8654 19.9713 -2.39212e-15)
(35.3371 20.9492 1.34451e-15)
(34.7684 22.9015 -1.60412e-15)
(39.4967 26.3243 -5.10294e-16)
(30.5882 23.5228 1.32672e-14)
(31.0291 22.4141 4.2871e-15)
(31.479 21.4114 0)
(31.9349 20.522 0)
(32.4002 19.7692 2.38166e-18)
(32.8872 19.1895 -3.98917e-15)
(33.4221 18.8334 5.98767e-15)
(34.0437 18.7607 -1.407e-18)
(34.7876 19.0765 2.13158e-15)
(35.7462 19.9707 0)
(35.9611 21.9079 -2.27003e-18)
(40.9441 26.2035 4.75089e-16)
(29.5554 23.252 -4.20833e-15)
(30.03 22.0439 -4.09237e-15)
(30.4994 20.9517 3.99904e-15)
(30.9736 19.9759 -3.91302e-15)
(31.4709 19.1329 7.46168e-20)
(32.0205 18.4504 7.56473e-15)
(32.6689 17.9657 -3.74077e-15)
(33.4806 17.7296 1.87751e-15)
(34.5198 17.833 0)
(35.9492 18.4762 1.06126e-15)
(36.9633 20.1883 6.4281e-16)
(41.9323 24.7115 -1.77539e-15)
(28.5706 23.0475 4.03956e-15)
(29.0524 21.7295 -3.95042e-15)
(29.5082 20.5335 -3.86567e-15)
(29.9594 19.4509 -7.57981e-15)
(30.4384 18.4891 7.42664e-15)
(30.9908 17.6649 -7.27758e-15)
(31.6853 16.9992 0)
(32.616 16.525 -1.76538e-15)
(33.8855 16.304 0)
(35.7288 16.5224 0)
(37.5881 17.7687 0)
(42.4769 21.9878 1.64649e-15)
(27.5432 22.8508 3.9049e-15)
(28.0043 21.428 -7.67007e-15)
(28.4109 20.1286 7.53314e-15)
(28.7943 18.9339 7.38782e-15)
(29.1993 17.8429 3.61585e-15)
(29.6886 16.8585 0)
(30.3542 15.9806 0)
(31.315 15.2164 3.37925e-15)
(32.7172 14.5812 0)
(34.8753 14.2154 -8.83115e-16)
(37.3848 14.6086 5.26806e-16)
(42.2997 17.6995 -2.30786e-15)
(26.3545 22.5432 -7.56689e-15)
(26.7717 21.0518 7.42604e-15)
(27.0932 19.6772 -7.30707e-15)
(27.3656 18.3878 -1.79785e-14)
(27.6481 17.1786 -2.60306e-18)
(28.0172 16.0403 1.29308e-18)
(28.588 14.9494 -3.35634e-15)
(29.4888 13.8799 -3.26442e-15)
(30.9062 12.7822 0)
(33.2146 11.7421 2.46057e-15)
(36.0317 10.8405 4.8061e-16)
(41.135 11.4607 -4.47758e-19)
(24.9039 21.9909 -5.87672e-18)
(25.247 20.4948 0)
(25.4453 19.0945 0)
(25.5651 17.751 3.47233e-15)
(25.6877 16.4596 1.02417e-14)
(25.9052 15.1987 -3.33959e-15)
(26.3471 13.928 -2.15152e-18)
(27.1231 12.5901 -1.58896e-15)
(28.4409 11.0583 -1.54826e-15)
(30.5663 9.32046 -1.54598e-15)
(33.8392 6.83794 0)
(38.2716 -0.677101 6.30819e-16)
(21.9122 -1.34547 -4.42605e-16)
(19.2411 -1.79872 0)
(18.0068 -3.14883 -5.98173e-19)
(16.6308 -4.55085 0)
(16.0634 -5.77554 7.04312e-15)
(15.514 -6.97352 -7.04978e-15)
(15.3595 -7.75819 0)
(17.1873 -9.64526 -1.24137e-14)
(15.2926 -17.1997 2.25093e-14)
(14.8529 -28.6499 -1.61623e-14)
(19.5732 -32.5315 -3.29444e-15)
(21.3744 -35.0947 -3.05528e-15)
(25.562 4.70169 -1.91818e-15)
(22.4767 2.6751 -1.46632e-15)
(22.4096 -0.446226 4.45276e-15)
(21.9749 -3.45753 0)
(22.1992 -5.90997 -5.99567e-15)
(23.6237 -8.99885 6.10023e-15)
(23.996 -15.2597 0)
(25.6569 -24.2202 5.60382e-15)
(26.4358 -29.9605 -1.52025e-14)
(26.3409 -32.0895 9.51699e-15)
(27.279 -32.6874 9.05429e-15)
(27.235 -33.3246 -1.29829e-14)
(28.7859 4.25692 3.50466e-16)
(25.565 1.72941 0)
(26.0181 -2.80586 -2.61539e-15)
(25.6944 -7.08028 0)
(26.2396 -12.0754 0)
(27.4892 -18.9786 -5.28516e-15)
(28.3968 -26.3104 2.09847e-14)
(28.5949 -31.1124 -1.49723e-14)
(27.9335 -33.3566 4.01917e-15)
(26.9199 -34.2056 0)
(26.352 -34.3472 6.92204e-15)
(25.6598 -34.7743 -3.32414e-15)
(32.2646 5.76263 -1.2948e-15)
(30.0006 1.60204 1.20444e-15)
(31.162 -4.26484 2.3517e-15)
(31.0358 -10.3631 4.7442e-15)
(31.4984 -17.3666 -4.77199e-15)
(31.6195 -24.2655 -4.72694e-15)
(31.0021 -29.3458 0)
(29.9276 -31.7517 0)
(28.5385 -32.9018 3.48078e-15)
(27.3932 -33.3828 0)
(26.4927 -33.5698 4.74478e-18)
(25.6061 -33.8848 2.91687e-15)
(34.7173 3.16386 1.79333e-15)
(33.9639 -0.882649 -1.09557e-15)
(35.3509 -7.27158 -2.15751e-15)
(35.2927 -14.0454 0)
(35.0851 -21.02 0)
(33.9996 -26.515 4.18801e-15)
(32.4001 -29.5964 0)
(30.648 -31.0134 -7.05958e-15)
(29.0272 -31.6817 -3.27195e-15)
(27.5963 -32.0153 6.07422e-15)
(26.3941 -32.2542 -8.52129e-15)
(25.295 -32.5632 5.37285e-15)
(37.5353 2.00736 -7.31404e-19)
(37.5667 -2.93039 -1.00803e-15)
(38.8826 -9.56467 1.9798e-15)
(38.4885 -16.1619 2.33803e-18)
(37.3666 -22.2649 3.88724e-15)
(35.3495 -26.3236 -7.34894e-15)
(33.1413 -28.5277 6.69221e-15)
(31.0926 -29.6 6.32836e-18)
(29.2294 -30.243 0)
(27.6104 -30.6531 0)
(26.2237 -30.9851 1.0313e-14)
(24.9845 -31.3368 7.2902e-19)
(39.6148 -1.11115 -1.02821e-15)
(40.959 -5.42798 -9.30028e-16)
(41.6729 -11.4398 0)
(40.8758 -17.0908 -3.57324e-15)
(38.8895 -21.9345 3.44869e-15)
(36.3212 -25.0598 9.69455e-15)
(33.7617 -26.9161 6.02787e-15)
(31.4537 -27.9999 8.40217e-18)
(29.4225 -28.7304 -1.06259e-14)
(27.6514 -29.2675 5.02772e-15)
(26.1133 -29.7205 4.79558e-15)
(24.7484 -30.1564 3.05241e-18)
(42.0132 -3.16702 -6.41793e-19)
(43.8806 -7.31641 1.68909e-15)
(43.883 -12.33 0)
(42.6572 -16.8311 -3.13241e-15)
(40.1362 -20.6883 -2.98716e-15)
(37.246 -23.4198 5.77825e-18)
(34.4223 -25.2285 -1.07547e-14)
(31.898 -26.4261 4.31186e-18)
(29.6882 -27.2983 -2.76916e-18)
(27.761 -27.9764 4.67863e-15)
(26.0783 -28.5479 -4.4907e-15)
(24.5879 -29.0672 2.45349e-18)
(43.6975 -5.93901 -4.46334e-16)
(46.3975 -8.87403 7.61056e-16)
(45.4861 -12.5195 -4.25176e-15)
(43.9665 -15.9767 2.69895e-15)
(41.235 -19.1525 0)
(38.1798 -21.686 0)
(35.1752 -23.5513 4.82138e-15)
(32.4536 -24.9138 9.32438e-15)
(30.0554 -25.9546 -4.51177e-15)
(27.9591 -26.7779 -4.37324e-15)
(26.1242 -27.4584 -4.24921e-15)
(24.5009 -28.0474 0)
(46.6272 -7.2359 -8.27865e-16)
(48.3542 -9.30514 2.00864e-15)
(46.4301 -11.8142 4.9738e-15)
(44.5058 -14.6346 0)
(41.6905 -17.3925 4.65232e-15)
(38.6279 -19.824 0)
(35.6004 -21.7934 3.21297e-18)
(32.8064 -23.3485 -4.31181e-15)
(30.3043 -24.5793 4.23129e-15)
(28.093 -25.5589 0)
(26.1412 -26.3501 0)
(24.4074 -27.0033 -7.96594e-15)
(46.9286 -9.96254 2.19616e-23)
(48.0626 -8.87178 1.25602e-15)
(45.3397 -10.3281 3.51708e-18)
(43.1208 -12.7033 -4.44101e-15)
(40.5063 -15.2226 -2.15527e-15)
(37.7503 -17.6583 -2.1036e-15)
(35.009 -19.7917 -4.12636e-15)
(32.412 -21.5673 -1.21874e-14)
(30.0194 -23.0122 -4.00251e-15)
(27.8531 -24.1681 -7.91174e-15)
(25.9022 -25.0841 7.80477e-15)
(24.1432 -25.8084 7.68463e-15)
(43.8992 -4.62192 -1.31677e-15)
(43.1386 -6.48247 -5.92036e-16)
(40.2797 -7.74915 2.94571e-18)
(38.5219 -10.0959 4.19931e-15)
(36.7877 -12.7009 0)
(34.8844 -15.2657 -3.9667e-15)
(32.8732 -17.5804 3.89387e-15)
(30.8282 -19.5644 3.84167e-15)
(28.8343 -21.212 -1.14342e-14)
(26.9424 -22.5396 7.54786e-15)
(25.1701 -23.5811 -7.47621e-15)
(23.5269 -24.375 0)
(21.7427 -38.417 9.22072e-15)
(21.5176 -40.4481 -2.48654e-14)
(20.5388 -42.1795 6.26524e-15)
(19.3175 -42.8458 1.59034e-14)
(17.8527 -42.9317 -1.57327e-14)
(16.1637 -42.2603 3.11508e-15)
(14.3996 -40.8629 -1.73965e-18)
(12.5896 -38.6284 -3.08439e-15)
(10.788 -35.6392 -6.22803e-15)
(8.79211 -31.7894 0)
(5.24461 -26.6284 0)
(-0.585875 -24.6844 -6.31187e-16)
(27.6233 -34.3757 -3.64049e-19)
(27.2695 -35.2878 8.19733e-15)
(26.5578 -36.4011 -1.03249e-17)
(25.4207 -37.3516 0)
(23.8568 -38.1994 6.07958e-15)
(22.2679 -38.5765 0)
(20.6903 -38.4483 4.21784e-15)
(19.2937 -37.7622 6.60056e-15)
(18.2095 -36.5703 -4.71212e-15)
(17.2635 -34.2618 0)
(15.8734 -31.0398 0)
(11.4797 -31.5657 -1.19662e-19)
(25.0318 -35.3082 3.21871e-15)
(24.3086 -35.8719 -3.17945e-15)
(23.4969 -36.4916 3.16862e-15)
(22.6189 -36.983 0)
(21.7319 -37.3036 -3.18116e-15)
(20.8709 -37.3499 6.52075e-15)
(20.1503 -37.1128 -8.46793e-15)
(19.6529 -36.5723 -8.8501e-15)
(19.4817 -35.8064 5.52753e-15)
(19.4709 -34.3412 0)
(19.3048 -32.0141 1.03752e-15)
(18.8984 -33.6588 -3.81523e-20)
(24.78 -34.203 2.8059e-15)
(23.971 -34.5474 -5.49577e-15)
(23.1488 -34.9262 5.41597e-15)
(22.3302 -35.2792 -5.35568e-15)
(21.5534 -35.5545 0)
(20.8892 -35.6973 2.71248e-15)
(20.4075 -35.6738 2.75434e-15)
(20.1843 -35.5001 1.43812e-15)
(20.3131 -35.1748 -2.83086e-15)
(20.951 -34.4459 0)
(21.8465 -32.4727 -9.25876e-16)
(22.8641 -35.7815 1.49186e-15)
(24.2881 -32.8919 5.13422e-15)
(23.3528 -33.2587 -2.47808e-15)
(22.4691 -33.6487 0)
(21.6544 -34.0221 0)
(20.9443 -34.3497 2.35826e-15)
(20.3882 -34.6122 -2.30653e-15)
(20.0823 -34.7852 -2.78869e-18)
(20.0493 -34.879 0)
(20.4243 -34.9406 -1.27592e-15)
(21.3479 -34.7917 1.38205e-15)
(22.8834 -33.5644 -1.70726e-15)
(25.4421 -37.7865 0)
(23.8657 -31.704 -9.42303e-15)
(22.8478 -32.0986 4.55537e-15)
(21.9175 -32.5117 8.87488e-15)
(21.0862 -32.9244 2.72542e-20)
(20.3836 -33.3242 -1.07548e-14)
(19.8537 -33.7049 -4.29589e-15)
(19.5569 -34.0771 -2.68185e-18)
(19.5585 -34.4584 0)
(19.9713 -34.8654 0)
(20.9492 -35.3371 -1.34451e-15)
(22.9015 -34.7684 -8.03129e-16)
(26.3243 -39.4967 5.10294e-16)
(23.5228 -30.5882 4.42348e-15)
(22.4141 -31.0291 -8.57675e-15)
(21.4115 -31.479 -4.17431e-15)
(20.522 -31.9349 -2.33113e-18)
(19.7692 -32.4002 4.02408e-15)
(19.1895 -32.8872 3.98642e-15)
(18.8334 -33.4221 1.99611e-15)
(18.7607 -34.0437 2.03027e-15)
(19.0765 -34.7876 -2.13319e-15)
(19.9707 -35.7462 0)
(21.9079 -35.9611 1.43065e-15)
(26.2035 -40.9441 -9.51079e-16)
(23.252 -29.5554 0)
(22.0439 -30.03 4.09236e-15)
(20.9517 -30.4994 0)
(19.9759 -30.9736 -2.22066e-18)
(19.1329 -31.4709 7.46154e-20)
(18.4504 -32.0205 7.56471e-15)
(17.9657 -32.6689 -1.86931e-15)
(17.7296 -33.4806 -3.75397e-15)
(17.833 -34.5198 -1.93829e-15)
(18.4762 -35.9492 1.06126e-15)
(20.1883 -36.9633 -1.93282e-15)
(24.7116 -41.9323 8.86389e-16)
(23.0475 -28.5706 4.03955e-15)
(21.7295 -29.0524 -3.95041e-15)
(20.5335 -29.5082 -3.8696e-15)
(19.4509 -29.9594 3.79081e-15)
(18.4891 -30.4384 3.7133e-15)
(17.6649 -30.9908 -1.09191e-14)
(16.9992 -31.6853 0)
(16.525 -32.616 1.76538e-15)
(16.304 -33.8855 1.78805e-15)
(16.5224 -35.7288 0)
(17.7687 -37.5881 1.74637e-15)
(21.9878 -42.4769 -4.12319e-16)
(22.8508 -27.5432 0)
(21.428 -28.0043 -7.67006e-15)
(20.1286 -28.4109 -3.77007e-15)
(18.9339 -28.7943 -7.38457e-15)
(17.8429 -29.1993 3.61585e-15)
(16.8585 -29.6887 3.53304e-15)
(15.9806 -30.3542 0)
(15.2164 -31.315 0)
(14.5812 -32.7172 0)
(14.2154 -34.8753 0)
(14.6086 -37.3848 -5.26793e-16)
(17.6995 -42.2997 -7.69204e-16)
(22.5432 -26.3545 3.78181e-15)
(21.0518 -26.7717 3.71127e-15)
(19.6772 -27.0933 1.46203e-14)
(18.3878 -27.3656 3.59858e-15)
(17.1786 -27.6481 1.40968e-14)
(16.0403 -28.0172 -3.44131e-15)
(14.9494 -28.588 -3.35633e-15)
(13.8799 -29.4888 0)
(12.7822 -30.9062 -3.2055e-15)
(11.7421 -33.2146 -1.64032e-15)
(10.8406 -36.0317 -9.61611e-16)
(11.4607 -41.135 0)
(21.9909 -24.9039 0)
(20.4948 -25.247 0)
(19.0945 -25.4453 -1.41007e-14)
(17.751 -25.5651 -1.04222e-14)
(16.4596 -25.6877 -3.41208e-15)
(15.1988 -25.9052 0)
(13.928 -26.3471 3.26123e-15)
(12.5902 -27.1231 0)
(11.0583 -28.4409 -1.94914e-18)
(9.32047 -30.5663 1.54598e-15)
(6.83795 -33.8392 4.27492e-16)
(-0.677091 -38.2716 -1.88146e-19)
(-1.34547 -21.9122 -2.21302e-16)
(-1.79872 -19.2411 -3.45593e-15)
(-3.14883 -18.0068 3.49595e-15)
(-4.55085 -16.6308 -3.51755e-15)
(-5.77554 -16.0634 0)
(-6.97352 -15.514 3.52623e-15)
(-7.75819 -15.3595 0)
(-9.64526 -17.1873 3.10509e-15)
(-17.1997 -15.2926 -9.64312e-15)
(-28.6499 -14.8529 9.69666e-15)
(-32.5315 -19.5732 1.97202e-14)
(-35.0947 -21.3744 -6.08368e-15)
(4.70169 -25.5619 0)
(2.6751 -22.4767 -2.93328e-15)
(-0.446227 -22.4096 2.96891e-15)
(-3.45753 -21.9749 2.95936e-15)
(-5.90998 -22.1992 -5.99566e-15)
(-8.99886 -23.6237 -1.67555e-19)
(-15.2597 -23.996 -6.03887e-15)
(-24.2202 -25.6569 -1.40018e-14)
(-29.9604 -26.4358 1.52007e-14)
(-32.0895 -26.3409 -4.75424e-15)
(-32.6874 -27.279 8.1986e-18)
(-33.3246 -27.235 5.46306e-18)
(4.25692 -28.7859 0)
(1.7294 -25.565 0)
(-2.80587 -26.0181 0)
(-7.08029 -25.6944 -2.60499e-15)
(-12.0754 -26.2396 0)
(-18.9786 -27.4892 -2.64829e-15)
(-26.3104 -28.3968 5.2432e-15)
(-31.1124 -28.5949 9.98816e-15)
(-33.3566 -27.9335 -4.02095e-15)
(-34.2056 -26.9199 -7.5768e-15)
(-34.3471 -26.352 -1.03808e-14)
(-34.7743 -25.6598 9.96233e-15)
(5.76263 -32.2646 0)
(1.60203 -30.0006 -1.20444e-15)
(-4.26486 -31.162 2.35436e-15)
(-10.3632 -31.0359 2.37046e-15)
(-17.3666 -31.4984 0)
(-24.2655 -31.6195 -9.47126e-15)
(-29.3458 -31.0021 9.06293e-15)
(-31.7517 -29.9276 0)
(-32.9018 -28.5385 6.95165e-15)
(-33.3828 -27.3932 -9.76507e-15)
(-33.5697 -26.4927 6.13948e-15)
(-33.8848 -25.6061 5.05761e-18)
(3.16385 -34.7173 -7.13138e-23)
(-0.882662 -33.9639 2.19366e-15)
(-7.27159 -35.3509 3.02431e-18)
(-14.0454 -35.2927 0)
(-21.02 -35.0851 -4.32674e-15)
(-26.515 -33.9996 8.36394e-15)
(-29.5964 -32.4001 0)
(-31.0134 -30.648 -3.53177e-15)
(-31.6817 -29.0272 -3.27579e-15)
(-32.0152 -27.5963 6.07422e-15)
(-32.2542 -26.3941 0)
(-32.5632 -25.295 -5.36933e-15)
(2.00735 -37.5353 5.52361e-16)
(-2.9304 -37.5667 2.07756e-18)
(-9.56467 -38.8826 -1.9798e-15)
(-16.1619 -38.4885 -7.94103e-15)
(-22.2649 -37.3666 -2.25155e-18)
(-26.3236 -35.3495 7.35107e-15)
(-28.5277 -33.1414 0)
(-29.6 -31.0926 9.40587e-15)
(-30.243 -29.2294 -5.83159e-15)
(-30.6531 -27.6104 5.45848e-15)
(-30.9851 -26.2237 2.97711e-18)
(-31.3368 -24.9845 -7.29017e-19)
(-1.11116 -39.6148 -1.54236e-15)
(-5.428 -40.959 -9.27161e-16)
(-11.4398 -41.6729 0)
(-17.0908 -40.8758 7.15062e-15)
(-21.9344 -38.8895 -1.03404e-14)
(-25.0598 -36.3213 -1.63824e-18)
(-26.916 -33.7617 -1.20497e-14)
(-27.9998 -31.4537 5.28529e-18)
(-28.7304 -29.4225 -5.31e-15)
(-29.2675 -27.6514 -5.03155e-15)
(-29.7205 -26.1133 4.79558e-15)
(-30.1564 -24.7484 -4.58867e-15)
(-3.16703 -42.0132 1.43412e-15)
(-7.31642 -43.8806 -8.45184e-16)
(-12.33 -43.883 0)
(-16.8311 -42.6572 3.1324e-15)
(-20.6883 -40.1362 2.98558e-15)
(-23.4198 -37.246 2.83011e-15)
(-25.2285 -34.4223 -4.96014e-18)
(-26.4261 -31.898 -1.41337e-18)
(-27.2983 -29.6882 -4.88695e-15)
(-27.9764 -27.7611 -6.5502e-18)
(-28.5479 -26.0783 2.5455e-18)
(-29.0672 -24.5879 0)
(-5.93903 -43.6975 4.45584e-16)
(-8.87404 -46.3975 0)
(-12.5195 -45.4861 0)
(-15.9767 -43.9665 -2.69894e-15)
(-19.1525 -41.235 2.58729e-15)
(-21.686 -38.1798 -4.99162e-15)
(-23.5513 -35.1752 0)
(-24.9138 -32.4537 4.66099e-15)
(-25.9546 -30.0554 -2.45293e-18)
(-26.7779 -27.9591 4.37324e-15)
(-27.4584 -26.1242 -4.25392e-15)
(-28.0474 -24.5009 8.28302e-15)
(-7.23591 -46.6272 -3.52717e-19)
(-9.30515 -48.3542 -6.69766e-16)
(-11.8142 -46.4301 -2.48885e-15)
(-14.6346 -44.5058 -4.79333e-15)
(-17.3924 -41.6904 0)
(-19.824 -38.6279 4.51527e-15)
(-21.7934 -35.6004 -8.82236e-15)
(-23.3485 -32.8064 4.31257e-15)
(-24.5793 -30.3043 4.23129e-15)
(-25.5589 -28.093 0)
(-26.35 -26.1412 -4.06693e-15)
(-27.0032 -24.4074 -7.95806e-15)
(-9.96254 -46.9286 -7.38143e-16)
(-8.87178 -48.0625 6.27274e-16)
(-10.3281 -45.3397 2.30124e-15)
(-12.7033 -43.1208 2.21543e-15)
(-15.2226 -40.5063 -5.12155e-19)
(-17.6582 -37.7503 -6.31414e-15)
(-19.7917 -35.009 8.24594e-15)
(-21.5673 -32.412 1.62463e-14)
(-23.0121 -30.0194 -1.20155e-14)
(-24.1681 -27.8531 -7.91174e-15)
(-25.0841 -25.9022 7.79758e-15)
(-25.8084 -24.1432 0)
(-4.62192 -43.8992 1.31553e-15)
(-6.48247 -43.1386 5.94594e-16)
(-7.74915 -40.2797 1.08579e-15)
(-10.0959 -38.5219 4.20416e-15)
(-12.7009 -36.7877 0)
(-15.2657 -34.8844 3.96296e-15)
(-17.5804 -32.8732 -7.79465e-15)
(-19.5644 -30.8282 -3.8445e-15)
(-21.212 -28.8343 -3.81042e-15)
(-22.5396 -26.9424 7.54786e-15)
(-23.5811 -25.1701 3.74259e-15)
(-24.375 -23.5269 1.11025e-14)
(-38.417 -21.7427 -3.07391e-15)
(-40.4481 -21.5175 3.11977e-15)
(-42.1795 -20.5388 -9.41738e-15)
(-42.8458 -19.3175 2.86225e-14)
(-42.9316 -17.8527 -1.25815e-14)
(-42.2603 -16.1637 0)
(-40.8628 -14.3996 -6.18364e-15)
(-38.6284 -12.5896 4.62571e-15)
(-35.6392 -10.788 0)
(-31.7894 -8.7921 1.07437e-18)
(-26.6284 -5.24461 0)
(-24.6844 0.585879 4.20707e-16)
(-34.3757 -27.6233 -1.67816e-14)
(-35.2878 -27.2695 8.20769e-15)
(-36.4011 -26.5578 8.09855e-15)
(-37.3515 -25.4207 -4.07703e-15)
(-38.1994 -23.8568 0)
(-38.5765 -22.2679 0)
(-38.4483 -20.6903 4.21971e-15)
(-37.7622 -19.2937 -4.40122e-15)
(-36.5703 -18.2095 0)
(-34.2618 -17.2635 1.22243e-15)
(-31.0398 -15.8733 -1.41503e-19)
(-31.5657 -11.4797 -1.57044e-15)
(-35.3082 -25.0318 3.22332e-15)
(-35.8719 -24.3086 -6.36508e-15)
(-36.4916 -23.4969 0)
(-36.983 -22.6189 -6.35245e-15)
(-37.3036 -21.7319 -6.36689e-15)
(-37.3499 -20.8709 1.30408e-14)
(-37.1128 -20.1503 -1.01625e-14)
(-36.5723 -19.6529 0)
(-35.8064 -19.4817 0)
(-34.3412 -19.4709 0)
(-32.0141 -19.3048 -1.037e-15)
(-33.6588 -18.8984 0)
(-34.203 -24.78 -2.8059e-15)
(-34.5474 -23.971 -4.16279e-18)
(-34.9262 -23.1488 0)
(-35.2792 -22.3302 -3.97038e-18)
(-35.5545 -21.5534 0)
(-35.6972 -20.8892 0)
(-35.6738 -20.4075 2.75612e-15)
(-35.5001 -20.1842 -2.87844e-15)
(-35.1748 -20.3131 2.83236e-15)
(-34.4459 -20.951 0)
(-32.4727 -21.8464 -9.27744e-16)
(-35.7815 -22.864 1.19317e-15)
(-32.8919 -24.2881 1.02716e-14)
(-33.2587 -23.3528 -2.47808e-15)
(-33.6487 -22.4692 4.82411e-15)
(-34.0221 -21.6544 2.37027e-15)
(-34.3496 -20.9443 -7.07179e-15)
(-34.6122 -20.3882 0)
(-34.7852 -20.0823 -2.25896e-15)
(-34.879 -20.0492 0)
(-34.9406 -20.4243 0)
(-34.7917 -21.3479 1.38205e-15)
(-33.5644 -22.8834 3.76674e-19)
(-37.7865 -25.4421 1.402e-18)
(-31.704 -23.8657 -4.70882e-15)
(-32.0986 -22.8478 -2.9992e-18)
(-32.5117 -21.9175 0)
(-32.9244 -21.0862 0)
(-33.3242 -20.3836 -6.45606e-15)
(-33.7049 -19.8537 4.29341e-15)
(-34.0771 -19.5569 4.34202e-15)
(-34.4584 -19.5585 2.24036e-15)
(-34.8654 -19.9713 -4.78298e-15)
(-35.3371 -20.9492 -1.34451e-15)
(-34.7684 -22.9015 0)
(-39.4967 -26.3243 5.10294e-16)
(-30.5882 -23.5228 -8.84942e-15)
(-31.0291 -22.4141 4.28192e-15)
(-31.4789 -21.4115 4.17693e-15)
(-31.9349 -20.522 2.31629e-18)
(-32.4002 -19.7692 -4.72999e-18)
(-32.8872 -19.1895 -3.99136e-15)
(-33.4221 -18.8334 -5.98654e-15)
(-34.0437 -18.7607 -2.0317e-15)
(-34.7876 -19.0765 2.13158e-15)
(-35.7462 -19.9706 0)
(-35.9611 -21.9079 2.14823e-15)
(-40.9441 -26.2035 -1.42682e-15)
(-29.5554 -23.252 8.41446e-15)
(-30.03 -22.0439 -4.09926e-15)
(-30.4994 -20.9517 -3.99903e-15)
(-30.9736 -19.9759 -7.82381e-15)
(-31.4709 -19.1329 7.67985e-15)
(-32.0205 -18.4504 -2.13079e-18)
(-32.6689 -17.9657 1.12289e-14)
(-33.4806 -17.7296 1.87523e-15)
(-34.5198 -17.833 1.93829e-15)
(-35.9492 -18.4762 0)
(-36.9633 -20.1883 -1.28763e-15)
(-41.9323 -24.7115 4.43992e-16)
(-28.5706 -23.0475 0)
(-29.0524 -21.7295 3.94831e-15)
(-29.5082 -20.5335 3.86566e-15)
(-29.9594 -19.4509 -3.78898e-15)
(-30.4384 -18.4891 -1.75949e-18)
(-30.9908 -17.6649 -3.64154e-15)
(-31.6853 -16.9992 -3.57097e-15)
(-32.616 -16.525 0)
(-33.8855 -16.304 -1.78805e-15)
(-35.7288 -16.5224 -9.62981e-16)
(-37.5881 -17.7687 2.90991e-15)
(-42.4769 -21.9878 -4.102e-16)
(-27.5432 -22.8508 0)
(-28.0043 -21.428 0)
(-28.4109 -20.1286 0)
(-28.7943 -18.9339 -1.10828e-14)
(-29.1993 -17.8429 7.23145e-15)
(-29.6886 -16.8585 7.06783e-15)
(-30.3542 -15.9806 0)
(-31.315 -15.2164 -3.37925e-15)
(-32.7172 -14.5811 0)
(-34.8753 -14.2154 -1.76674e-15)
(-37.3848 -14.6086 -5.26793e-16)
(-42.2997 -17.6995 -7.67178e-16)
(-26.3545 -22.5432 0)
(-26.7717 -21.0518 0)
(-27.0932 -19.6772 7.31324e-15)
(-27.3656 -18.3878 1.07841e-14)
(-27.6481 -17.1786 4.16619e-18)
(-28.0172 -16.0403 3.4426e-15)
(-28.588 -14.9494 -1.67766e-15)
(-29.4888 -13.8799 4.8973e-15)
(-30.9062 -12.7822 3.20551e-15)
(-33.2146 -11.7421 1.63868e-15)
(-36.0317 -10.8405 -9.61611e-16)
(-41.135 -11.4607 -1.43433e-15)
(-24.9038 -21.9909 0)
(-25.247 -20.4948 0)
(-25.4453 -19.0945 -7.04768e-15)
(-25.5651 -17.751 3.47739e-15)
(-25.6877 -16.4596 -3.41209e-15)
(-25.9052 -15.1987 -3.33959e-15)
(-26.3471 -13.928 3.26339e-15)
(-27.1231 -12.5901 0)
(-28.4409 -11.0583 -3.09569e-15)
(-30.5663 -9.32046 -1.54689e-15)
(-33.8392 -6.83794 1.28557e-15)
(-38.2716 0.677103 1.1377e-19)
(-21.9122 1.34547 -2.0173e-19)
(-19.2411 1.79872 0)
(-18.0068 3.14884 0)
(-16.6308 4.55085 -7.03266e-15)
(-16.0634 5.77555 1.0566e-14)
(-15.514 6.97352 0)
(-15.3594 7.7582 0)
(-17.1872 9.64525 3.10509e-15)
(-15.2926 17.1996 3.22069e-15)
(-14.8528 28.6499 9.70559e-15)
(-19.5731 32.5315 1.64257e-14)
(-21.3743 35.0947 -3.03816e-15)
(-25.562 -4.70168 -2.96014e-19)
(-22.4767 -2.6751 0)
(-22.4096 0.446223 0)
(-21.9749 3.45753 -2.9611e-15)
(-22.1992 5.90997 5.99767e-15)
(-23.6237 8.99883 -1.83022e-14)
(-23.996 15.2597 1.20703e-14)
(-25.6569 24.2201 2.8055e-15)
(-26.4358 29.9604 -5.06071e-15)
(-26.3408 32.0895 7.58998e-18)
(-27.279 32.6874 0)
(-27.235 33.3246 -8.64559e-15)
(-28.7859 -4.25691 3.50466e-16)
(-25.565 -1.72941 0)
(-26.0181 2.80586 0)
(-25.6944 7.08027 -2.01218e-18)
(-26.2396 12.0753 2.40159e-18)
(-27.4892 18.9785 -5.29055e-15)
(-28.3968 26.3103 0)
(-28.5948 31.1124 -1.49776e-14)
(-27.9335 33.3566 1.20666e-14)
(-26.9199 34.2056 -3.79001e-15)
(-26.352 34.3472 -6.92187e-15)
(-25.6597 34.7743 9.96233e-15)
(-32.2646 -5.76264 1.2948e-15)
(-30.0006 -1.60205 1.20444e-15)
(-31.162 4.26483 0)
(-31.0358 10.3631 2.37046e-15)
(-31.4984 17.3665 -2.38487e-15)
(-31.6194 24.2654 4.72695e-15)
(-31.0021 29.3458 0)
(-29.9276 31.7517 -4.1362e-15)
(-28.5385 32.9018 -1.04324e-14)
(-27.3932 33.3828 6.51135e-15)
(-26.4927 33.5697 6.13949e-15)
(-25.6061 33.8848 -1.16801e-14)
(-34.7173 -3.16387 -5.97158e-16)
(-33.9639 0.882634 -1.0961e-15)
(-35.3509 7.27156 2.15752e-15)
(-35.2927 14.0454 0)
(-35.0851 21.02 -8.6559e-15)
(-33.9996 26.515 8.37109e-15)
(-32.4001 29.5964 3.83861e-15)
(-30.648 31.0134 3.52596e-15)
(-29.0272 31.6817 0)
(-27.5963 32.0153 0)
(-26.3941 32.2542 0)
(-25.295 32.5632 -7.75119e-18)
(-37.5353 -2.00738 7.31404e-19)
(-37.5667 2.93037 0)
(-38.8826 9.56464 -1.9798e-15)
(-38.4885 16.1619 3.97169e-15)
(-37.3666 22.2648 3.88701e-15)
(-35.3495 26.3236 -7.34915e-15)
(-33.1413 28.5277 3.34618e-15)
(-31.0926 29.6 -1.25442e-14)
(-29.2294 30.243 -2.03876e-18)
(-27.6104 30.6531 -4.60339e-18)
(-26.2237 30.9851 2.97711e-18)
(-24.9845 31.3368 1.47256e-14)
(-39.6148 1.11114 5.14831e-16)
(-40.959 5.42797 1.85874e-15)
(-41.6729 11.4398 -3.61912e-15)
(-40.8758 17.0908 -3.57324e-15)
(-38.8895 21.9344 -6.88958e-15)
(-36.3213 25.0598 -3.23684e-15)
(-33.7617 26.9161 -6.02456e-15)
(-31.4537 27.9999 1.12768e-14)
(-29.4225 28.7304 0)
(-27.6514 29.2675 1.00563e-14)
(-26.1133 29.7205 -1.43672e-14)
(-24.7484 30.1564 4.59191e-15)
(-42.0132 3.16701 -9.55456e-16)
(-43.8806 7.3164 -2.53454e-15)
(-43.883 12.33 4.83909e-15)
(-42.6572 16.8311 0)
(-40.1362 20.6883 -2.99205e-15)
(-37.246 23.4198 5.66338e-15)
(-34.4223 25.2285 -2.86288e-18)
(-31.898 26.4261 1.41337e-18)
(-29.6882 27.2983 -4.88234e-15)
(-27.7611 27.9764 -9.35144e-15)
(-26.0783 28.5479 4.49306e-15)
(-24.5879 29.0672 -4.34115e-15)
(-43.6975 5.93901 -8.91168e-16)
(-46.3975 8.87403 0)
(-45.4861 12.5195 0)
(-43.9666 15.9767 0)
(-41.235 19.1525 2.58729e-15)
(-38.1798 21.686 0)
(-35.1752 23.5513 -3.95296e-18)
(-32.4537 24.9138 9.32105e-15)
(-30.0554 25.9546 2.95295e-18)
(-27.9591 26.7779 4.37325e-15)
(-26.1242 27.4584 -4.25181e-15)
(-24.5009 28.0474 1.24223e-14)
(-46.6272 7.2359 -1.65608e-15)
(-48.3542 9.30514 3.35089e-15)
(-46.4301 11.8142 -1.24325e-15)
(-44.5058 14.6346 0)
(-41.6905 17.3924 0)
(-38.6279 19.824 0)
(-35.6004 21.7934 0)
(-32.8064 23.3485 4.31526e-15)
(-30.3043 24.5793 -1.69085e-14)
(-28.093 25.5589 -8.28922e-15)
(-26.1412 26.35 8.1256e-15)
(-24.4074 27.0032 3.98901e-15)
(-46.9286 9.96254 -7.38143e-16)
(-48.0626 8.87178 -1.88192e-15)
(-45.3397 10.3281 -1.15337e-15)
(-43.1208 12.7033 0)
(-40.5063 15.2226 0)
(-37.7503 17.6582 4.20986e-15)
(-35.009 19.7917 -8.25086e-15)
(-32.412 21.5673 1.62484e-14)
(-30.0194 23.0122 1.20193e-14)
(-27.8531 24.1681 7.90427e-15)
(-25.9022 25.0841 -7.79758e-15)
(-24.1432 25.8084 6.94131e-18)
(-43.8992 4.62191 -1.2424e-18)
(-43.1386 6.48247 0)
(-40.2797 7.74915 2.17013e-15)
(-38.5219 10.0959 -6.30536e-15)
(-36.7877 12.7009 6.10228e-15)
(-34.8844 15.2657 3.74089e-18)
(-32.8732 17.5804 3.89387e-15)
(-30.8282 19.5644 -3.8445e-15)