/*--------------------------------*- C++ -*----------------------------------*\
| =========                 |                                                 |
| \\      /  F ield         | OpenFOAM: The Open Source CFD Toolbox           |
|  \\    /   O peration     | Version:  2212                                  |
|   \\  /    A nd           | Website:  www.openfoam.com                      |
|    \\/     M anipulation  |                                                 |
\*---------------------------------------------------------------------------*/
FoamFile
{
    version     2.0;
    format      ascii;
    arch        "LSB;label=32;scalar=64";
    class       volVectorField;
    location    "0";
    object      Urel;
}
// * * * * * * * * * * * * * * * * * * * * * * * * * * * * * * * * * * * * * //

dimensions      [0 1 -1 0 0 0 0];

internalField   nonuniform List<vector> 
50904
(
(96.8894 -376.077 0)
(94.762 -369.089 0)
(88.8565 -375.058 0)
(87.1105 -368.721 0)
(97.1046 -376.079 0)
(94.9703 -369.079 0)
(89.0348 -375.063 0)
(87.2837 -368.715 0)
(97.3761 -376.082 0)
(95.2331 -369.066 0)
(89.2597 -375.07 0)
(87.5022 -368.708 0)
(97.7186 -376.086 0)
(95.5646 -369.05 0)
(89.5434 -375.079 0)
(87.7778 -368.699 0)
(98.1505 -376.091 0)
(95.9827 -369.03 0)
(89.9012 -375.089 0)
(88.1254 -368.687 0)
(98.6952 -376.096 0)
(96.51 -369.005 0)
(90.3526 -375.103 0)
(88.5639 -368.673 0)
(99.3772 -376.105 0)
(97.1693 -368.973 0)
(90.9156 -375.122 0)
(89.1101 -368.657 0)
(100.22 -376.116 0)
(97.9844 -368.934 0)
(91.6094 -375.153 0)
(89.7836 -368.641 0)
(101.272 -376.13 0)
(99.0021 -368.884 0)
(92.4749 -375.194 0)
(90.6236 -368.623 0)
(102.545 -376.154 0)
(100.232 -368.828 0)
(93.5227 -375.26 0)
(91.638 -368.612 0)
(104.08 -376.185 0)
(101.711 -368.759 0)
(94.7792 -375.352 0)
(92.8499 -368.607 0)
(105.955 -376.233 0)
(103.515 -368.681 0)
(96.304 -375.486 0)
(94.3191 -368.617 0)
(108.192 -376.312 0)
(105.666 -368.602 0)
(98.1053 -375.69 0)
(96.0497 -368.662 0)
(110.828 -376.445 0)
(108.193 -368.541 0)
(100.188 -375.993 0)
(98.0439 -368.769 0)
(113.887 -376.692 0)
(111.114 -368.533 0)
(102.537 -376.464 0)
(100.281 -368.979 0)
(116.992 -377.06 0)
(114.066 -368.615 0)
(104.82 -377.079 0)
(102.445 -369.301 0)
(119.812 -377.56 0)
(116.737 -368.822 0)
(106.758 -377.803 0)
(104.273 -369.733 0)
(122.332 -378.216 0)
(119.112 -369.178 0)
(108.32 -378.637 0)
(105.734 -370.28 0)
(124.39 -379.044 0)
(121.066 -369.71 0)
(109.321 -379.582 0)
(106.679 -370.945 0)
(126.075 -379.992 0)
(122.688 -370.374 0)
(109.891 -380.625 0)
(107.228 -371.716 0)
(127.699 -380.97 0)
(124.246 -371.071 0)
(110.376 -381.712 0)
(107.691 -372.536 0)
(129.584 -381.871 0)
(126.031 -371.693 0)
(111.169 -382.8 0)
(108.431 -373.348 0)
(131.597 -382.552 0)
(127.922 -372.133 0)
(112.277 -383.733 0)
(109.463 -374.027 0)
(133.359 -382.972 0)
(129.586 -372.374 0)
(113.389 -384.439 0)
(110.508 -374.524 0)
(134.873 -383.204 0)
(131.03 -372.473 0)
(114.456 -384.967 0)
(111.516 -374.881 0)
(136.173 -383.307 0)
(132.272 -372.478 0)
(115.444 -385.356 0)
(112.454 -375.129 0)
(137.272 -383.329 0)
(133.329 -372.429 0)
(116.331 -385.644 0)
(113.299 -375.302 0)
(138.185 -383.311 0)
(134.217 -372.354 0)
(117.113 -385.863 0)
(114.046 -375.425 0)
(138.958 -383.268 0)
(134.964 -372.269 0)
(117.786 -386.026 0)
(114.688 -375.51 0)
(139.591 -383.214 0)
(135.577 -372.183 0)
(118.351 -386.145 0)
(115.227 -375.567 0)
(140.099 -383.16 0)
(136.071 -372.105 0)
(118.814 -386.235 0)
(115.671 -375.608 0)
(140.512 -383.11 0)
(136.473 -372.037 0)
(119.192 -386.302 0)
(116.033 -375.636 0)
(140.846 -383.064 0)
(136.797 -371.977 0)
(119.502 -386.353 0)
(116.329 -375.655 0)
(141.108 -383.026 0)
(137.053 -371.927 0)
(119.751 -386.392 0)
(116.568 -375.669 0)
(141.316 -382.995 0)
(137.257 -371.888 0)
(119.948 -386.423 0)
(116.756 -375.68 0)
(141.481 -382.971 0)
(137.418 -371.857 0)
(120.104 -386.447 0)
(116.906 -375.689 0)
(81.649 -374.137 0)
(80.3439 -368.414 0)
(76.4115 -373.575 0)
(75.3236 -368.224 0)
(74.5803 -373.445 0)
(73.4685 -368.234 0)
(73.6137 -373.386 0)
(72.4915 -368.251 0)
(73.0369 -373.352 0)
(71.9107 -368.268 0)
(72.6478 -373.329 0)
(71.5211 -368.283 0)
(72.351 -373.31 0)
(71.2262 -368.298 0)
(81.79 -374.143 0)
(80.4819 -368.411 0)
(76.5227 -373.583 0)
(75.4326 -368.223 0)
(74.6811 -373.453 0)
(73.5668 -368.234 0)
(73.7091 -373.394 0)
(72.5843 -368.252 0)
(73.1296 -373.36 0)
(72.0007 -368.268 0)
(72.7391 -373.337 0)
(71.6097 -368.283 0)
(72.4418 -373.318 0)
(71.3142 -368.298 0)
(81.9678 -374.152 0)
(80.6558 -368.408 0)
(76.663 -373.592 0)
(75.5702 -368.222 0)
(74.8081 -373.463 0)
(73.6908 -368.233 0)
(73.8294 -373.404 0)
(72.7014 -368.252 0)
(73.2464 -373.371 0)
(72.1142 -368.268 0)
(72.8542 -373.348 0)
(71.7214 -368.284 0)
(72.5562 -373.329 0)
(71.4253 -368.299 0)
(82.192 -374.162 0)
(80.8752 -368.403 0)
(76.8399 -373.604 0)
(75.7437 -368.22 0)
(74.9684 -373.475 0)
(73.8472 -368.232 0)
(73.9812 -373.417 0)
(72.849 -368.252 0)
(73.3938 -373.384 0)
(72.2573 -368.269 0)
(72.9995 -373.361 0)
(71.8623 -368.284 0)
(72.7006 -373.343 0)
(71.5653 -368.3 0)
(82.4749 -374.176 0)
(81.152 -368.397 0)
(77.063 -373.619 0)
(75.9626 -368.217 0)
(75.1705 -373.491 0)
(74.0444 -368.232 0)
(74.1726 -373.433 0)
(73.0353 -368.252 0)
(73.5797 -373.401 0)
(72.4379 -368.269 0)
(73.1826 -373.378 0)
(72.0401 -368.285 0)
(72.8826 -373.36 0)
(71.742 -368.301 0)
(82.8316 -374.193 0)
(81.5011 -368.389 0)
(77.3444 -373.638 0)
(76.2386 -368.214 0)
(75.4255 -373.511 0)
(74.2932 -368.23 0)
(74.4141 -373.454 0)
(73.2701 -368.252 0)
(73.8142 -373.422 0)
(72.6656 -368.27 0)
(73.4136 -373.399 0)
(72.2643 -368.286 0)
(73.1122 -373.381 0)
(71.9647 -368.302 0)
(83.2784 -374.218 0)
(81.9374 -368.382 0)
(77.6955 -373.666 0)
(76.5825 -368.214 0)
(75.7436 -373.541 0)
(74.6032 -368.234 0)
(74.7155 -373.485 0)
(73.5629 -368.257 0)
(74.107 -373.453 0)
(72.9495 -368.276 0)
(73.7022 -373.431 0)
(72.5439 -368.293 0)
(73.3992 -373.413 0)
(72.2427 -368.309 0)
(83.8266 -374.262 0)
(82.473 -368.383 0)
(78.127 -373.718 0)
(77.0055 -368.227 0)
(76.1346 -373.597 0)
(74.9845 -368.252 0)
(75.0858 -373.543 0)
(73.923 -368.278 0)
(74.4668 -373.513 0)
(73.2988 -368.299 0)
(74.0568 -373.492 0)
(72.8879 -368.316 0)
(73.7518 -373.474 0)
(72.5848 -368.333 0)
(84.5072 -374.324 0)
(83.1389 -368.39 0)
(78.6636 -373.796 0)
(77.5322 -368.251 0)
(76.6206 -373.681 0)
(75.4592 -368.284 0)
(75.546 -373.63 0)
(74.3712 -368.314 0)
(74.9137 -373.602 0)
(73.7335 -368.337 0)
(74.4973 -373.583 0)
(73.3162 -368.356 0)
(74.1899 -373.566 0)
(73.0107 -368.374 0)
(85.3315 -374.421 0)
(83.9403 -368.414 0)
(79.3186 -373.917 0)
(78.1721 -368.301 0)
(77.2154 -373.811 0)
(76.0378 -368.344 0)
(76.11 -373.766 0)
(74.9185 -368.38 0)
(75.4622 -373.741 0)
(74.265 -368.407 0)
(75.0383 -373.723 0)
(73.8402 -368.429 0)
(74.7284 -373.709 0)
(73.5322 -368.448 0)
(86.3203 -374.565 0)
(84.9012 -368.462 0)
(80.1076 -374.1 0)
(78.9403 -368.388 0)
(77.9339 -374.009 0)
(76.7341 -368.449 0)
(76.7926 -373.971 0)
(75.5782 -368.493 0)
(76.1267 -373.951 0)
(74.9065 -368.525 0)
(75.6945 -373.937 0)
(74.4733 -368.55 0)
(75.382 -373.925 0)
(74.163 -368.572 0)
(87.5202 -374.774 0)
(86.0646 -368.547 0)
(81.0633 -374.369 0)
(79.8701 -368.53 0)
(78.8044 -374.3 0)
(77.5773 -368.613 0)
(77.6198 -374.275 0)
(76.3775 -368.671 0)
(76.9323 -374.262 0)
(75.684 -368.71 0)
(76.4904 -374.253 0)
(75.2411 -368.739 0)
(76.1752 -374.244 0)
(74.9282 -368.764 0)
(88.924 -375.094 0)
(87.4206 -368.698 0)
(82.1947 -374.782 0)
(80.9669 -368.764 0)
(79.8383 -374.748 0)
(78.5762 -368.881 0)
(78.6041 -374.741 0)
(77.3266 -368.956 0)
(77.8922 -374.739 0)
(76.6087 -369.005 0)
(77.4396 -374.737 0)
(76.1554 -369.041 0)
(77.122 -374.733 0)
(75.8405 -369.07 0)
(90.6079 -375.554 0)
(89.0326 -368.946 0)
(83.6171 -375.377 0)
(82.3274 -369.129 0)
(81.1041 -375.397 0)
(79.7894 -369.296 0)
(79.7906 -375.419 0)
(78.4653 -369.397 0)
(79.0391 -375.433 0)
(77.7102 -369.461 0)
(78.5681 -375.44 0)
(77.2398 -369.504 0)
(78.2444 -375.442 0)
(76.9194 -369.538 0)
(92.5725 -376.23 0)
(90.8901 -369.328 0)
(85.3608 -376.228 0)
(83.9658 -369.666 0)
(82.6195 -376.323 0)
(81.2212 -369.901 0)
(81.1909 -376.386 0)
(79.7927 -370.039 0)
(80.3822 -376.422 0)
(78.9854 -370.121 0)
(79.8841 -376.442 0)
(78.4899 -370.174 0)
(79.5497 -376.451 0)
(78.1592 -370.211 0)
(94.4956 -377.061 0)
(92.692 -369.827 0)
(87.1175 -377.238 0)
(85.6015 -370.319 0)
(84.1465 -377.414 0)
(82.6521 -370.626 0)
(82.603 -377.52 0)
(81.121 -370.801 0)
(81.7387 -377.581 0)
(80.2639 -370.902 0)
(81.2163 -377.615 0)
(79.7461 -370.965 0)
(80.8745 -377.633 0)
(79.4081 -371.007 0)
(96.1179 -377.962 0)
(94.1958 -370.404 0)
(88.6692 -378.277 0)
(87.0328 -371.009 0)
(85.508 -378.517 0)
(83.9175 -371.372 0)
(83.8699 -378.658 0)
(82.3038 -371.576 0)
(82.9614 -378.739 0)
(81.4078 -371.693 0)
(82.4214 -378.785 0)
(80.8744 -371.762 0)
(82.0766 -378.809 0)
(80.5334 -371.806 0)
(97.4305 -378.911 0)
(95.3946 -371.045 0)
(90.0037 -379.297 0)
(88.2514 -371.71 0)
(86.7079 -379.571 0)
(85.0235 -372.102 0)
(85.0035 -379.732 0)
(83.3542 -372.321 0)
(84.0655 -379.824 0)
(82.4338 -372.446 0)
(83.5159 -379.876 0)
(81.8925 -372.518 0)
(83.1724 -379.905 0)
(81.5527 -372.562 0)
(98.3957 -379.899 0)
(96.2646 -371.752 0)
(91.0526 -380.281 0)
(89.2038 -372.412 0)
(87.7313 -380.546 0)
(85.9608 -372.795 0)
(86.0148 -380.701 0)
(84.2846 -373.009 0)
(85.0726 -380.79 0)
(83.3622 -373.129 0)
(84.5235 -380.841 0)
(82.8222 -373.2 0)
(84.1837 -380.871 0)
(82.4858 -373.242 0)
(99.0906 -380.92 0)
(96.8752 -372.516 0)
(91.8762 -381.244 0)
(89.9387 -373.12 0)
(88.6127 -381.465 0)
(86.7536 -373.462 0)
(86.9245 -381.593 0)
(85.1057 -373.65 0)
(85.9954 -381.666 0)
(84.1964 -373.756 0)
(85.4515 -381.707 0)
(83.6616 -373.818 0)
(85.1127 -381.73 0)
(83.3262 -373.854 0)
(99.6996 -381.976 0)
(97.3938 -373.322 0)
(92.6226 -382.22 0)
(90.5894 -373.852 0)
(89.4209 -382.385 0)
(87.4655 -374.145 0)
(87.7631 -382.481 0)
(85.8475 -374.304 0)
(86.8482 -382.534 0)
(84.9522 -374.393 0)
(86.3101 -382.564 0)
(84.4231 -374.445 0)
(85.9728 -382.58 0)
(84.089 -374.475 0)
(100.352 -383.076 0)
(97.9499 -374.168 0)
(93.3427 -383.265 0)
(91.2094 -374.648 0)
(90.1736 -383.396 0)
(88.1154 -374.91 0)
(88.5333 -383.471 0)
(86.5135 -375.051 0)
(87.6295 -383.511 0)
(85.6287 -375.129 0)
(87.0992 -383.531 0)
(85.1072 -375.172 0)
(86.7675 -383.54 0)
(84.7789 -375.195 0)
(101.068 -384.106 0)
(98.5773 -374.958 0)
(94.0145 -384.301 0)
(91.7894 -375.445 0)
(90.8286 -384.437 0)
(88.6742 -375.712 0)
(89.1834 -384.514 0)
(87.065 -375.855 0)
(88.2836 -384.556 0)
(86.183 -375.932 0)
(87.762 -384.576 0)
(85.6697 -375.975 0)
(87.441 -384.584 0)
(85.352 -375.997 0)
(101.799 -384.962 0)
(99.2345 -375.603 0)
(94.6132 -385.228 0)
(92.3128 -376.152 0)
(91.3698 -385.398 0)
(89.1365 -376.448 0)
(89.6978 -385.493 0)
(87.4986 -376.607 0)
(88.7887 -385.545 0)
(86.6063 -376.692 0)
(88.267 -385.57 0)
(86.0925 -376.739 0)
(87.9504 -385.581 0)
(85.7791 -376.764 0)
(102.526 -385.673 0)
(99.8988 -376.129 0)
(95.153 -386.053 0)
(92.7906 -376.776 0)
(91.8264 -386.277 0)
(89.5285 -377.119 0)
(90.1138 -386.401 0)
(87.8486 -377.301 0)
(89.1867 -386.468 0)
(86.9375 -377.4 0)
(88.6586 -386.502 0)
(86.4169 -377.454 0)
(88.3416 -386.519 0)
(86.103 -377.483 0)
(103.213 -386.255 0)
(100.532 -376.554 0)
(95.6299 -386.772 0)
(93.2166 -377.319 0)
(92.209 -387.06 0)
(89.8585 -377.717 0)
(90.4494 -387.217 0)
(88.1305 -377.928 0)
(89.5 -387.301 0)
(87.1965 -378.042 0)
(88.9623 -387.346 0)
(86.6659 -378.104 0)
(88.6422 -387.369 0)
(86.3487 -378.138 0)
(103.844 -386.733 0)
(101.121 -376.896 0)
(96.047 -387.392 0)
(93.5932 -377.784 0)
(92.5304 -387.746 0)
(90.1378 -378.239 0)
(90.723 -387.937 0)
(88.3611 -378.48 0)
(89.7501 -388.04 0)
(87.4032 -378.61 0)
(89.2016 -388.095 0)
(86.8615 -378.681 0)
(88.8772 -388.124 0)
(86.5399 -378.721 0)
(104.41 -387.129 0)
(101.651 -377.176 0)
(96.4095 -387.926 0)
(93.922 -378.181 0)
(92.8017 -388.342 0)
(90.3743 -378.69 0)
(90.9483 -388.566 0)
(88.5512 -378.959 0)
(89.9528 -388.686 0)
(87.5703 -379.104 0)
(89.3934 -388.752 0)
(87.0175 -379.183 0)
(89.0642 -388.787 0)
(86.691 -379.228 0)
(104.893 -387.447 0)
(102.102 -377.397 0)
(96.7134 -388.365 0)
(94.198 -378.503 0)
(93.0238 -388.838 0)
(90.5684 -379.06 0)
(91.1292 -389.091 0)
(88.7038 -379.353 0)
(90.113 -389.227 0)
(87.702 -379.511 0)
(89.5435 -389.301 0)
(87.1391 -379.599 0)
(89.2097 -389.341 0)
(86.8078 -379.648 0)
(105.302 -387.703 0)
(102.485 -377.572 0)
(96.9657 -388.729 0)
(94.4285 -378.77 0)
(93.2052 -389.251 0)
(90.7278 -379.369 0)
(91.2746 -389.53 0)
(88.8271 -379.684 0)
(90.2403 -389.68 0)
(87.8071 -379.854 0)
(89.6618 -389.762 0)
(87.2351 -379.947 0)
(89.3239 -389.806 0)
(86.8997 -380 0)
(105.64 -387.907 0)
(102.804 -377.713 0)
(97.1719 -389.026 0)
(94.6173 -378.991 0)
(93.3514 -389.591 0)
(90.8565 -379.627 0)
(91.3905 -389.892 0)
(88.9254 -379.961 0)
(90.3409 -390.053 0)
(87.89 -380.141 0)
(89.7549 -390.142 0)
(87.3103 -380.241 0)
(89.4134 -390.19 0)
(86.9713 -380.297 0)
(105.914 -388.07 0)
(103.06 -377.824 0)
(97.3378 -389.264 0)
(94.7694 -379.166 0)
(93.4681 -389.863 0)
(90.9594 -379.832 0)
(91.4821 -390.182 0)
(89.0032 -380.182 0)
(90.4198 -390.353 0)
(87.9551 -380.37 0)
(89.8275 -390.447 0)
(87.3691 -380.474 0)
(89.4831 -390.499 0)
(87.027 -380.533 0)
(106.139 -388.198 0)
(103.272 -377.911 0)
(97.4733 -389.456 0)
(94.8942 -379.305 0)
(93.5623 -390.085 0)
(91.043 -379.997 0)
(91.5554 -390.418 0)
(89.0659 -380.359 0)
(90.4826 -390.598 0)
(88.0072 -380.554 0)
(89.885 -390.696 0)
(87.4158 -380.661 0)
(89.5379 -390.75 0)
(87.0712 -380.722 0)
(106.323 -388.301 0)
(103.445 -377.98 0)
(97.5826 -389.611 0)
(94.9952 -379.418 0)
(93.6381 -390.264 0)
(91.1105 -380.129 0)
(91.6143 -390.61 0)
(89.1164 -380.502 0)
(90.5328 -390.796 0)
(88.049 -380.702 0)
(89.9309 -390.898 0)
(87.4534 -380.813 0)
(89.5818 -390.954 0)
(87.1066 -380.875 0)
(106.468 -388.383 0)
(103.583 -378.034 0)
(97.6693 -389.734 0)
(95.0752 -379.507 0)
(93.6982 -390.406 0)
(91.164 -380.234 0)
(91.6609 -390.762 0)
(89.1564 -380.615 0)
(90.5726 -390.953 0)
(88.0822 -380.82 0)
(89.9673 -391.058 0)
(87.4831 -380.933 0)
(89.6166 -391.116 0)
(87.1348 -380.997 0)
(106.583 -388.448 0)
(103.692 -378.078 0)
(97.738 -389.832 0)
(95.1387 -379.578 0)
(93.7458 -390.519 0)
(91.2064 -380.318 0)
(91.6979 -390.882 0)
(89.1881 -380.705 0)
(90.6042 -391.078 0)
(88.1085 -380.913 0)
(89.9962 -391.185 0)
(87.5067 -381.028 0)
(89.6442 -391.244 0)
(87.1571 -381.093 0)
(72.086 -373.303 0)
(70.9611 -368.308 0)
(71.8602 -373.313 0)
(70.737 -368.327 0)
(71.6688 -373.319 0)
(70.5521 -368.341 0)
(71.4358 -373.32 0)
(70.3305 -368.354 0)
(71.0313 -373.317 0)
(69.9469 -368.372 0)
(70.0605 -373.313 0)
(69.0081 -368.419 0)
(72.1766 -373.311 0)
(71.049 -368.309 0)
(71.9509 -373.321 0)
(70.825 -368.328 0)
(71.7595 -373.328 0)
(70.6401 -368.342 0)
(71.5266 -373.329 0)
(70.4186 -368.355 0)
(71.1221 -373.326 0)
(70.0351 -368.373 0)
(70.1518 -373.321 0)
(69.0966 -368.42 0)
(72.2909 -373.322 0)
(71.1599 -368.31 0)
(72.0653 -373.332 0)
(70.936 -368.328 0)
(71.874 -373.339 0)
(70.7511 -368.343 0)
(71.6411 -373.34 0)
(70.5297 -368.355 0)
(71.2367 -373.337 0)
(70.1463 -368.374 0)
(70.2669 -373.333 0)
(69.2081 -368.421 0)
(72.4351 -373.336 0)
(71.2998 -368.31 0)
(72.2095 -373.346 0)
(71.0759 -368.329 0)
(72.0183 -373.352 0)
(70.8912 -368.344 0)
(71.7855 -373.354 0)
(70.6698 -368.357 0)
(71.3812 -373.351 0)
(70.2865 -368.375 0)
(70.412 -373.347 0)
(69.3489 -368.422 0)
(72.617 -373.353 0)
(71.4763 -368.312 0)
(72.3915 -373.363 0)
(71.2525 -368.331 0)
(72.2003 -373.37 0)
(71.0678 -368.345 0)
(71.9676 -373.371 0)
(70.8464 -368.358 0)
(71.5635 -373.369 0)
(70.4633 -368.377 0)
(70.5951 -373.364 0)
(69.5263 -368.423 0)
(72.8463 -373.374 0)
(71.6988 -368.313 0)
(72.621 -373.385 0)
(71.4751 -368.332 0)
(72.4299 -373.392 0)
(71.2905 -368.347 0)
(72.1973 -373.394 0)
(71.0693 -368.36 0)
(71.7933 -373.391 0)
(70.6863 -368.379 0)
(70.826 -373.387 0)
(69.7502 -368.425 0)
(73.133 -373.407 0)
(71.9765 -368.32 0)
(72.9078 -373.418 0)
(71.753 -368.339 0)
(72.7169 -373.425 0)
(71.5685 -368.354 0)
(72.4844 -373.427 0)
(71.3474 -368.367 0)
(72.0806 -373.424 0)
(70.9646 -368.386 0)
(71.1145 -373.42 0)
(70.0295 -368.433 0)
(73.4854 -373.468 0)
(72.3184 -368.345 0)
(73.2604 -373.48 0)
(72.0949 -368.364 0)
(73.0696 -373.487 0)
(71.9106 -368.379 0)
(72.8372 -373.49 0)
(71.6896 -368.393 0)
(72.4336 -373.488 0)
(71.307 -368.412 0)
(71.4689 -373.485 0)
(70.373 -368.459 0)
(73.9232 -373.561 0)
(72.7439 -368.386 0)
(73.6983 -373.574 0)
(72.5206 -368.407 0)
(73.5076 -373.582 0)
(72.3364 -368.422 0)
(73.2754 -373.585 0)
(72.1155 -368.436 0)
(72.8719 -373.584 0)
(71.7332 -368.456 0)
(71.9089 -373.583 0)
(70.8005 -368.504 0)
(74.4616 -373.705 0)
(73.2655 -368.461 0)
(74.2368 -373.718 0)
(73.0423 -368.482 0)
(74.0463 -373.728 0)
(72.8582 -368.498 0)
(73.8141 -373.732 0)
(72.6374 -368.513 0)
(73.4107 -373.733 0)
(72.2553 -368.534 0)
(72.4496 -373.735 0)
(71.3241 -368.585 0)
(75.1154 -373.923 0)
(73.8965 -368.586 0)
(74.8907 -373.939 0)
(73.6734 -368.609 0)
(74.7002 -373.949 0)
(73.4893 -368.626 0)
(74.468 -373.955 0)
(73.2687 -368.642 0)
(74.0646 -373.959 0)
(72.8866 -368.665 0)
(73.1053 -373.966 0)
(71.9569 -368.72 0)
(75.909 -374.245 0)
(74.6623 -368.781 0)
(75.6843 -374.264 0)
(74.4392 -368.806 0)
(75.4938 -374.277 0)
(74.2552 -368.824 0)
(75.2615 -374.286 0)
(74.0346 -368.842 0)
(74.8578 -374.294 0)
(73.6525 -368.869 0)
(73.9002 -374.308 0)
(72.7244 -368.929 0)
(76.8571 -374.739 0)
(75.576 -369.091 0)
(76.6323 -374.762 0)
(75.3529 -369.119 0)
(76.4415 -374.779 0)
(75.1689 -369.14 0)
(76.2089 -374.791 0)
(74.9482 -369.161 0)
(75.8045 -374.805 0)
(74.5659 -369.192 0)
(74.8482 -374.832 0)
(73.6392 -369.261 0)
(77.9764 -375.452 0)
(76.6522 -369.561 0)
(77.7523 -375.482 0)
(76.4297 -369.594 0)
(77.5612 -375.504 0)
(76.2455 -369.62 0)
(77.3272 -375.522 0)
(76.024 -369.645 0)
(76.9198 -375.545 0)
(75.6398 -369.682 0)
(75.9636 -375.589 0)
(74.7137 -369.764 0)
(79.2799 -376.467 0)
(77.8903 -370.239 0)
(79.0564 -376.506 0)
(77.6683 -370.28 0)
(78.864 -376.535 0)
(77.4832 -370.311 0)
(78.6267 -376.562 0)
(77.2595 -370.341 0)
(78.2128 -376.596 0)
(76.871 -370.388 0)
(77.2569 -376.661 0)
(75.9461 -370.485 0)
(80.6057 -377.657 0)
(79.1399 -371.041 0)
(80.3819 -377.705 0)
(78.9179 -371.088 0)
(80.1872 -377.742 0)
(78.7314 -371.125 0)
(79.9457 -377.776 0)
(78.5049 -371.162 0)
(79.524 -377.824 0)
(78.1112 -371.217 0)
(78.5688 -377.911 0)
(77.1884 -371.329 0)
(81.81 -378.839 0)
(80.2674 -371.845 0)
(81.5859 -378.895 0)
(80.0455 -371.899 0)
(81.3889 -378.938 0)
(79.8578 -371.941 0)
(81.143 -378.979 0)
(79.6287 -371.982 0)
(80.7132 -379.036 0)
(79.23 -372.044 0)
(79.7583 -379.14 0)
(78.3095 -372.165 0)
(82.9088 -379.938 0)
(81.2898 -372.603 0)
(82.6844 -379.999 0)
(81.0684 -372.662 0)
(82.4851 -380.046 0)
(80.8797 -372.707 0)
(82.2351 -380.09 0)
(80.6484 -372.751 0)
(81.7977 -380.151 0)
(80.2456 -372.816 0)
(80.8432 -380.261 0)
(79.3286 -372.938 0)
(83.9195 -380.901 0)
(82.2226 -373.28 0)
(83.6947 -380.964 0)
(82.0016 -373.343 0)
(83.4939 -381.012 0)
(81.813 -373.39 0)
(83.2408 -381.056 0)
(81.5815 -373.435 0)
(82.7979 -381.116 0)
(81.1779 -373.497 0)
(81.8441 -381.218 0)
(80.2646 -373.609 0)
(84.8485 -381.756 0)
(83.063 -373.889 0)
(84.6242 -381.819 0)
(82.8438 -373.956 0)
(84.4227 -381.867 0)
(82.6568 -374.005 0)
(84.1678 -381.908 0)
(82.4268 -374.048 0)
(83.7209 -381.961 0)
(82.0248 -374.105 0)
(82.7658 -382.045 0)
(81.1126 -374.192 0)
(85.7082 -382.6 0)
(83.8254 -374.505 0)
(85.4843 -382.663 0)
(83.608 -374.575 0)
(85.282 -382.71 0)
(83.4227 -374.626 0)
(85.0251 -382.747 0)
(83.1939 -374.667 0)
(84.5737 -382.791 0)
(82.7933 -374.716 0)
(83.6163 -382.851 0)
(81.881 -374.773 0)
(86.5094 -383.559 0)
(84.5216 -375.225 0)
(86.2874 -383.623 0)
(84.3076 -375.299 0)
(86.0842 -383.67 0)
(84.1234 -375.352 0)
(85.8231 -383.705 0)
(83.8937 -375.392 0)
(85.3629 -383.742 0)
(83.4894 -375.436 0)
(84.3999 -383.777 0)
(82.5744 -375.466 0)
(87.1882 -384.6 0)
(85.1005 -376.024 0)
(86.9669 -384.665 0)
(84.8884 -376.1 0)
(86.7606 -384.712 0)
(84.7027 -376.155 0)
(86.493 -384.746 0)
(84.4688 -376.196 0)
(86.0205 -384.781 0)
(84.0563 -376.238 0)
(85.0523 -384.805 0)
(83.1391 -376.256 0)
(87.7003 -385.598 0)
(85.5305 -376.791 0)
(87.4792 -385.665 0)
(85.3193 -376.871 0)
(87.2699 -385.714 0)
(85.1318 -376.928 0)
(86.9962 -385.75 0)
(84.8936 -376.971 0)
(86.5124 -385.788 0)
(84.473 -377.015 0)
(85.5374 -385.81 0)
(83.5514 -377.03 0)
(88.0923 -386.538 0)
(85.8551 -377.511 0)
(87.8709 -386.609 0)
(85.6442 -377.596 0)
(87.6588 -386.662 0)
(85.4548 -377.657 0)
(87.3797 -386.702 0)
(85.2126 -377.704 0)
(86.8858 -386.746 0)
(84.7845 -377.752 0)
(85.9032 -386.774 0)
(83.8569 -377.77 0)
(88.3922 -387.392 0)
(86.1002 -378.17 0)
(88.1703 -387.468 0)
(85.8891 -378.26 0)
(87.9557 -387.525 0)
(85.6977 -378.325 0)
(87.6719 -387.57 0)
(85.4519 -378.376 0)
(87.1692 -387.621 0)
(85.0169 -378.43 0)
(86.1789 -387.662 0)
(84.0826 -378.454 0)
(88.626 -388.151 0)
(86.29 -378.756 0)
(88.4034 -388.232 0)
(86.0783 -378.851 0)
(88.1865 -388.294 0)
(85.8853 -378.92 0)
(87.8986 -388.345 0)
(85.6362 -378.974 0)
(87.3883 -388.404 0)
(85.1951 -379.034 0)
(86.3905 -388.457 0)
(84.254 -379.068 0)
(88.8115 -388.818 0)
(86.4395 -379.266 0)
(88.5883 -388.905 0)
(86.2274 -379.366 0)
(88.3695 -388.971 0)
(86.0327 -379.44 0)
(88.0781 -389.028 0)
(85.7809 -379.499 0)
(87.5614 -389.096 0)
(85.3346 -379.565 0)
(86.5571 -389.164 0)
(84.3875 -379.608 0)
(88.9555 -389.376 0)
(86.5547 -379.689 0)
(88.7317 -389.468 0)
(86.3421 -379.793 0)
(88.5113 -389.538 0)
(86.1461 -379.87 0)
(88.217 -389.6 0)
(85.8919 -379.933 0)
(87.695 -389.677 0)
(85.4413 -380.005 0)
(86.685 -389.758 0)
(84.4888 -380.056 0)
(89.0683 -389.845 0)
(86.645 -380.044 0)
(88.8439 -389.941 0)
(86.4319 -380.152 0)
(88.6221 -390.015 0)
(86.2348 -380.232 0)
(88.3254 -390.081 0)
(85.9787 -380.298 0)
(87.7989 -390.165 0)
(85.5243 -380.375 0)
(86.7841 -390.258 0)
(84.5673 -380.435 0)
(89.1565 -390.232 0)
(86.7152 -380.343 0)
(88.9316 -390.331 0)
(86.5016 -380.454 0)
(88.7086 -390.409 0)
(86.3034 -380.537 0)
(88.41 -390.478 0)
(86.0456 -380.605 0)
(87.8797 -390.569 0)
(85.5881 -380.687 0)
(86.8608 -390.672 0)
(84.627 -380.754 0)
(89.2251 -390.543 0)
(86.7697 -380.581 0)
(88.9997 -390.644 0)
(86.5557 -380.694 0)
(88.7758 -390.725 0)
(86.3568 -380.779 0)
(88.4755 -390.798 0)
(86.0976 -380.85 0)
(87.9423 -390.893 0)
(85.6376 -380.935 0)
(86.92 -391.005 0)
(84.6731 -381.007 0)
(89.279 -390.796 0)
(86.8129 -380.772 0)
(89.0533 -390.9 0)
(86.5985 -380.888 0)
(88.8286 -390.983 0)
(86.3989 -380.974 0)
(88.527 -391.058 0)
(86.1386 -381.047 0)
(87.9914 -391.158 0)
(85.6766 -381.135 0)
(86.9662 -391.276 0)
(84.7094 -381.212 0)
(89.3222 -391.002 0)
(86.8476 -380.926 0)
(89.0962 -391.108 0)
(86.6329 -381.044 0)
(88.8709 -391.192 0)
(86.4328 -381.132 0)
(88.5681 -391.269 0)
(86.1717 -381.206 0)
(88.0306 -391.373 0)
(85.708 -381.297 0)
(87.0032 -391.497 0)
(84.7387 -381.377 0)
(89.3564 -391.165 0)
(86.8751 -381.049 0)
(89.1301 -391.272 0)
(86.6602 -381.168 0)
(88.9043 -391.358 0)
(86.4597 -381.257 0)
(88.6008 -391.437 0)
(86.1979 -381.332 0)
(88.0617 -391.543 0)
(85.7329 -381.425 0)
(87.0325 -391.672 0)
(84.7619 -381.508 0)
(89.3835 -391.294 0)
(86.8969 -381.146 0)
(89.1571 -391.403 0)
(86.6819 -381.266 0)
(88.9309 -391.489 0)
(86.481 -381.356 0)
(88.6267 -391.57 0)
(86.2186 -381.433 0)
(88.0863 -391.678 0)
(85.7527 -381.526 0)
(87.0558 -391.81 0)
(84.7804 -381.612 0)
(68.6619 -373.344 0)
(67.6438 -368.51 0)
(67.7107 -373.386 0)
(66.7185 -368.585 0)
(67.3272 -373.411 0)
(66.349 -368.619 0)
(67.1046 -373.424 0)
(66.1346 -368.638 0)
(66.9173 -373.432 0)
(65.9528 -368.653 0)
(66.6896 -373.441 0)
(65.7281 -368.671 0)
(68.7535 -373.353 0)
(67.7324 -368.511 0)
(67.8022 -373.395 0)
(66.8069 -368.586 0)
(67.4185 -373.42 0)
(66.4372 -368.62 0)
(67.1957 -373.433 0)
(66.2226 -368.639 0)
(67.0083 -373.441 0)
(66.0407 -368.654 0)
(66.7806 -373.45 0)
(65.8159 -368.672 0)
(68.8691 -373.364 0)
(67.8442 -368.512 0)
(67.9177 -373.406 0)
(66.9183 -368.587 0)
(67.5336 -373.431 0)
(66.5483 -368.621 0)
(67.3107 -373.444 0)
(66.3335 -368.64 0)
(67.1232 -373.452 0)
(66.1515 -368.655 0)
(66.8953 -373.461 0)
(65.9266 -368.673 0)
(69.0149 -373.378 0)
(67.9852 -368.513 0)
(68.0632 -373.421 0)
(67.0588 -368.588 0)
(67.6788 -373.445 0)
(66.6884 -368.622 0)
(67.4557 -373.459 0)
(66.4735 -368.642 0)
(67.268 -373.467 0)
(66.2913 -368.657 0)
(67.04 -373.476 0)
(66.0662 -368.674 0)
(69.1987 -373.396 0)
(68.163 -368.515 0)
(68.2468 -373.439 0)
(67.2361 -368.59 0)
(67.8619 -373.464 0)
(66.8652 -368.624 0)
(67.6386 -373.477 0)
(66.65 -368.644 0)
(67.4507 -373.485 0)
(66.4676 -368.658 0)
(67.2225 -373.494 0)
(66.2422 -368.676 0)
(69.4305 -373.418 0)
(68.3872 -368.516 0)
(68.4783 -373.462 0)
(67.4596 -368.592 0)
(68.0929 -373.487 0)
(67.0881 -368.626 0)
(67.8692 -373.5 0)
(66.8726 -368.646 0)
(67.6811 -373.508 0)
(66.6899 -368.661 0)
(67.4527 -373.517 0)
(66.4643 -368.679 0)
(69.7204 -373.452 0)
(68.6672 -368.524 0)
(68.7679 -373.497 0)
(67.7388 -368.601 0)
(68.3818 -373.522 0)
(67.3666 -368.635 0)
(68.1577 -373.535 0)
(67.1506 -368.655 0)
(67.9694 -373.543 0)
(66.9677 -368.67 0)
(67.7406 -373.552 0)
(66.7418 -368.687 0)
(70.0766 -373.519 0)
(69.0118 -368.552 0)
(69.1241 -373.564 0)
(68.083 -368.63 0)
(68.7374 -373.59 0)
(67.7101 -368.665 0)
(68.5129 -373.603 0)
(67.4937 -368.684 0)
(68.3243 -373.612 0)
(67.3104 -368.699 0)
(68.0953 -373.621 0)
(67.0842 -368.717 0)
(70.519 -373.62 0)
(69.4408 -368.6 0)
(69.5669 -373.668 0)
(68.5117 -368.679 0)
(69.1794 -373.694 0)
(68.1381 -368.715 0)
(68.9545 -373.708 0)
(67.9213 -368.735 0)
(68.7656 -373.716 0)
(67.7377 -368.75 0)
(68.5364 -373.726 0)
(67.5112 -368.768 0)
(71.0628 -373.776 0)
(69.9664 -368.684 0)
(70.1117 -373.828 0)
(69.0377 -368.766 0)
(69.7235 -373.855 0)
(68.6634 -368.803 0)
(69.4982 -373.87 0)
(68.4462 -368.823 0)
(69.3089 -373.879 0)
(68.2623 -368.839 0)
(69.0795 -373.889 0)
(68.0357 -368.858 0)
(71.7227 -374.015 0)
(70.6024 -368.825 0)
(70.7737 -374.073 0)
(69.6751 -368.912 0)
(70.3849 -374.103 0)
(69.3004 -368.95 0)
(70.1593 -374.118 0)
(69.0829 -368.971 0)
(69.9698 -374.128 0)
(68.8988 -368.988 0)
(69.7404 -374.139 0)
(68.6722 -369.007 0)
(72.5231 -374.37 0)
(71.3741 -369.044 0)
(71.5775 -374.436 0)
(70.4498 -369.137 0)
(71.1885 -374.469 0)
(70.0749 -369.178 0)
(70.9626 -374.487 0)
(69.8573 -369.201 0)
(70.773 -374.498 0)
(69.6732 -369.218 0)
(70.5438 -374.51 0)
(69.4468 -369.239 0)
(73.4784 -374.912 0)
(72.2952 -369.39 0)
(72.5387 -374.992 0)
(71.3762 -369.493 0)
(72.1497 -375.03 0)
(71.0018 -369.538 0)
(71.9239 -375.051 0)
(70.7844 -369.563 0)
(71.7345 -375.064 0)
(70.6007 -369.582 0)
(71.5057 -375.078 0)
(70.375 -369.604 0)
(74.6058 -375.695 0)
(73.3804 -369.912 0)
(73.6757 -375.797 0)
(72.4705 -370.031 0)
(73.2871 -375.842 0)
(72.0974 -370.081 0)
(73.0614 -375.866 0)
(71.8809 -370.109 0)
(72.8721 -375.882 0)
(71.6979 -370.13 0)
(72.6441 -375.899 0)
(71.4733 -370.154 0)
(75.9161 -376.803 0)
(74.6284 -370.658 0)
(74.9986 -376.933 0)
(73.7313 -370.798 0)
(74.6102 -376.989 0)
(73.3604 -370.855 0)
(74.3845 -377.019 0)
(73.145 -370.887 0)
(74.1953 -377.037 0)
(72.9628 -370.91 0)
(73.968 -377.057 0)
(72.7392 -370.936 0)
(77.2459 -378.089 0)
(75.8879 -371.528 0)
(76.3404 -378.249 0)
(75.0039 -371.69 0)
(75.9517 -378.317 0)
(74.6352 -371.756 0)
(75.7257 -378.352 0)
(74.4209 -371.791 0)
(75.5364 -378.374 0)
(74.2394 -371.816 0)
(75.3096 -378.396 0)
(74.0165 -371.844 0)
(78.4512 -379.346 0)
(77.0257 -372.385 0)
(77.5545 -379.533 0)
(76.1534 -372.567 0)
(77.1641 -379.611 0)
(75.7863 -372.64 0)
(76.937 -379.65 0)
(75.5728 -372.678 0)
(76.747 -379.674 0)
(75.3917 -372.704 0)
(76.5202 -379.697 0)
(75.1692 -372.734 0)
(79.5453 -380.485 0)
(78.0563 -373.171 0)
(78.6482 -380.687 0)
(77.1873 -373.366 0)
(78.2558 -380.771 0)
(76.8216 -373.442 0)
(78.0275 -380.812 0)
(76.6088 -373.482 0)
(77.8366 -380.837 0)
(76.428 -373.508 0)
(77.6091 -380.86 0)
(76.2054 -373.536 0)
(80.5292 -381.447 0)
(78.9789 -373.848 0)
(79.6054 -381.651 0)
(78.0875 -374.042 0)
(79.2219 -381.734 0)
(77.733 -374.117 0)
(78.999 -381.774 0)
(77.527 -374.155 0)
(78.812 -381.796 0)
(77.3511 -374.179 0)
(78.5869 -381.817 0)
(77.1314 -374.205 0)
(81.4046 -382.262 0)
(79.7868 -374.43 0)
(80.447 -382.47 0)
(78.866 -374.623 0)
(80.0819 -382.548 0)
(78.532 -374.693 0)
(79.869 -382.584 0)
(78.3372 -374.727 0)
(79.6877 -382.6 0)
(78.1682 -374.746 0)
(79.4639 -382.613 0)
(77.9505 -374.767 0)
(82.2039 -383.051 0)
(80.511 -375.007 0)
(81.2072 -383.26 0)
(79.556 -375.196 0)
(80.8583 -383.33 0)
(79.2405 -375.26 0)
(80.6541 -383.36 0)
(79.0561 -375.29 0)
(80.4773 -383.37 0)
(78.8929 -375.304 0)
(80.2535 -383.374 0)
(78.676 -375.319 0)
(82.9519 -383.957 0)
(81.1744 -375.69 0)
(81.9302 -384.178 0)
(80.1983 -375.888 0)
(81.5807 -384.245 0)
(79.8867 -375.949 0)
(81.3745 -384.269 0)
(79.7029 -375.974 0)
(81.1942 -384.269 0)
(79.538 -375.98 0)
(80.9653 -384.261 0)
(79.317 -375.985 0)
(83.593 -384.973 0)
(81.7303 -376.473 0)
(82.5489 -385.201 0)
(80.7369 -376.682 0)
(82.182 -385.268 0)
(80.4136 -376.743 0)
(81.9659 -385.289 0)
(80.2228 -376.765 0)
(81.7792 -385.286 0)
(80.0529 -376.767 0)
(81.5474 -385.271 0)
(79.8292 -376.763 0)
(84.0696 -385.98 0)
(82.1355 -377.249 0)
(83.0074 -386.219 0)
(81.1281 -377.47 0)
(82.6247 -386.287 0)
(80.7939 -377.533 0)
(82.3996 -386.308 0)
(80.5966 -377.554 0)
(82.2073 -386.303 0)
(80.4223 -377.553 0)
(81.9731 -386.283 0)
(80.1962 -377.544 0)
(84.4276 -386.957 0)
(82.4341 -377.999 0)
(83.3513 -387.21 0)
(81.4158 -378.235 0)
(82.956 -387.282 0)
(81.0729 -378.301 0)
(82.7236 -387.305 0)
(80.8704 -378.322 0)
(82.5267 -387.298 0)
(80.6924 -378.319 0)
(82.2904 -387.277 0)
(80.4643 -378.306 0)
(84.6963 -387.862 0)
(82.6532 -378.698 0)
(83.609 -388.132 0)
(81.6265 -378.949 0)
(83.2037 -388.208 0)
(81.2767 -379.019 0)
(82.9655 -388.232 0)
(81.0701 -379.041 0)
(82.7649 -388.226 0)
(80.8892 -379.037 0)
(82.527 -388.204 0)
(80.6595 -379.021 0)
(84.9019 -388.676 0)
(82.8187 -379.327 0)
(83.8062 -388.963 0)
(81.7857 -379.593 0)
(83.3929 -389.044 0)
(81.4305 -379.666 0)
(83.1502 -389.07 0)
(81.2206 -379.689 0)