/*--------------------------------*- C++ -*----------------------------------*\
| =========                 |                                                 |
| \\      /  F ield         | OpenFOAM: The Open Source CFD Toolbox           |
|  \\    /   O peration     | Version:  2206                                  |
|   \\  /    A nd           | Website:  www.openfoam.com                      |
|    \\/     M anipulation  |                                                 |
\*---------------------------------------------------------------------------*/
FoamFile
{
    version     2.0;
    format      ascii;
    arch        "LSB;label=32;scalar=64";
    class       volScalarField;
    location    "500";
    object      alphat;
}
// * * * * * * * * * * * * * * * * * * * * * * * * * * * * * * * * * * * * * //

dimensions      [1 -1 -1 0 0 0 0];

internalField   nonuniform List<scalar> 
50904
(
5.6950599e-06
9.2010192e-06
6.004554e-06
1.0163461e-05
2.0700023e-05
2.3999083e-05
1.9425037e-05
2.2260853e-05
3.9300041e-05
3.9621545e-05
3.6275572e-05
3.7512825e-05
4.527675e-05
4.2710508e-05
4.2962988e-05
4.0659789e-05
3.1565365e-05
3.074333e-05
2.992483e-05
2.9136221e-05
1.7650467e-05
1.5851772e-05
1.7014007e-05
9.9948238e-06
3.6095804e-06
2.0720928e-06
2.5799393e-06
1.4512452e-06
7.7650176e-07
4.6800833e-07
5.8061398e-07
3.5088248e-07
3.934354e-07
2.6210775e-07
3.2241824e-07
2.1666304e-07
3.5018999e-07
2.4561003e-07
2.9735586e-07
2.0965473e-07
3.5939939e-07
2.5931063e-07
3.0670505e-07
2.222485e-07
3.8177794e-07
2.816354e-07
3.2637749e-07
2.4124116e-07
4.1119395e-07
3.1026494e-07
3.5188372e-07
2.651037e-07
4.5120952e-07
3.4780971e-07
3.86334e-07
2.9635184e-07
5.0715695e-07
3.9880069e-07
4.3398528e-07
3.3832507e-07
5.7494339e-07
4.5865983e-07
4.904284e-07
3.8619635e-07
6.5153287e-07
5.2448486e-07
5.5325766e-07
4.3749281e-07
7.3490066e-07
5.9385487e-07
6.1914108e-07
4.8923377e-07
8.3368424e-07
6.7193019e-07
6.9155703e-07
5.4257679e-07
9.4146502e-07
7.5643281e-07
7.6265383e-07
5.9371999e-07
1.0502126e-06
8.4269101e-07
8.3719173e-07
6.4564955e-07
1.1646568e-06
9.3474386e-07
9.1243708e-07
6.9865841e-07
1.2646928e-06
1.0133854e-06
9.769281e-07
7.4624843e-07
1.3323844e-06
1.0625916e-06
1.0281311e-06
7.8350393e-07
1.3770384e-06
1.0922582e-06
1.0645927e-06
8.1242813e-07
1.4160544e-06
1.1189802e-06
1.1141391e-06
8.6902964e-07
1.5379944e-06
1.2448895e-06
1.3230713e-06
1.150292e-06
2.3368388e-06
2.0882714e-06
2.5541913e-06
2.7010079e-06
7.5158567e-06
7.395879e-06
9.6135159e-06
1.0889271e-05
1.3893794e-05
1.596402e-05
1.6372315e-05
2.0258426e-05
2.1833019e-05
2.6599329e-05
2.5107597e-05
3.1907031e-05
3.6324199e-05
4.4740719e-05
4.0570737e-05
4.9966956e-05
4.5724265e-05
5.0199342e-05
4.6312444e-05
5.0951769e-05
3.4670714e-05
3.638581e-05
3.3854313e-05
3.5006756e-05
1.1754234e-05
1.2377128e-05
1.0380394e-05
1.0897417e-05
1.4133883e-06
1.4734952e-06
1.26528e-06
1.425876e-06
5.7607534e-06
1.0056024e-05
4.9178085e-06
8.3219483e-06
4.3982888e-06
6.7191393e-06
4.0814863e-06
5.8108741e-06
3.8782501e-06
5.2323176e-06
3.7380274e-06
4.8390042e-06
3.6308167e-06
4.5432219e-06
1.8423388e-05
2.1535861e-05
1.770719e-05
2.0131496e-05
1.7397435e-05
1.9006155e-05
1.7221891e-05
1.8403752e-05
1.7108279e-05
1.8041737e-05
1.7028166e-05
1.7813841e-05
1.6965444e-05
1.7650747e-05
3.4258724e-05
3.5941699e-05
3.2612555e-05
3.3388239e-05
3.2134638e-05
3.1719088e-05
3.1903748e-05
3.1183333e-05
3.1781959e-05
3.0849235e-05
3.1627452e-05
3.0575992e-05
3.1548881e-05
3.0391818e-05
3.959696e-05
4.0132032e-05
3.662125e-05
3.7178077e-05
3.5917169e-05
3.559938e-05
3.5578089e-05
3.545854e-05
3.5233016e-05
3.5468793e-05
3.5128589e-05
3.5482337e-05
3.5110232e-05
3.5674621e-05
2.9532787e-05
2.8766127e-05
2.9252483e-05
2.8228013e-05
2.9021546e-05
2.4983688e-05
2.8515088e-05
2.3967936e-05
2.8278318e-05
2.3662817e-05
2.8255476e-05
2.5043244e-05
2.8532591e-05
2.3359473e-05
1.3264887e-05
8.1276988e-06
1.1318994e-05
6.4681254e-06
1.1421629e-05
5.1816673e-06
1.1217596e-05
4.8686076e-06
1.1291865e-05
4.7658924e-06
1.2866078e-05
4.8700072e-06
1.3501529e-05
5.7536067e-06
2.1011191e-06
1.18623e-06
1.8101325e-06
8.7592561e-07
1.7494471e-06
7.1558755e-07
1.6726662e-06
6.8287315e-07
1.6345225e-06
6.7117379e-07
1.6132596e-06
6.8200558e-07
1.6102903e-06
7.9609624e-07
4.8568057e-07
2.9161497e-07
4.3246784e-07
2.1705854e-07
4.1425052e-07
1.8085225e-07
3.9476174e-07
1.7749054e-07
3.863599e-07
1.7679547e-07
3.8221174e-07
1.7961657e-07
3.8132666e-07
2.0270599e-07
2.8269812e-07
1.8677436e-07
2.6556963e-07
1.4431708e-07
2.5486292e-07
1.2267933e-07
2.4261105e-07
1.2407293e-07
2.3810461e-07
1.2466363e-07
2.358131e-07
1.2439325e-07
2.3520697e-07
1.263528e-07
2.6524174e-07
1.8204984e-07
2.5186369e-07
1.3939715e-07
2.3874664e-07
1.1933694e-07
2.2534493e-07
1.2507638e-07
2.2084807e-07
1.2327767e-07
2.1854424e-07
1.2321416e-07
2.1793124e-07
1.2298389e-07
2.7425252e-07
1.9203279e-07
2.5911839e-07
1.4468486e-07
2.4287219e-07
1.2645727e-07
2.2792146e-07
1.3416933e-07
2.2266193e-07
1.2901738e-07
2.2019198e-07
1.2967287e-07
2.1958124e-07
1.278525e-07
2.9150535e-07
2.0805681e-07
2.7366888e-07
1.5365121e-07
2.5393332e-07
1.3436161e-07
2.3664697e-07
1.4389052e-07
2.3090672e-07
1.3732792e-07
2.2826253e-07
1.3837837e-07
2.27594e-07
1.3605447e-07
3.1478951e-07
2.2699233e-07
2.9428761e-07
1.6459648e-07
2.7043709e-07
1.4168032e-07
2.5140695e-07
1.4696782e-07
2.4621732e-07
1.5107029e-07
2.4422112e-07
1.4938699e-07
2.4334945e-07
1.4763062e-07
3.4467621e-07
2.5150992e-07
3.2103365e-07
1.8064971e-07
2.9431735e-07
1.5488508e-07
2.7458065e-07
1.6270723e-07
2.6982879e-07
1.6692691e-07
2.6789312e-07
1.6564689e-07
2.677317e-07
1.6429124e-07
3.8714954e-07
2.8480087e-07
3.6090169e-07
2.0406244e-07
3.3124452e-07
1.7488382e-07
3.1060719e-07
1.8581644e-07
3.0639346e-07
1.9024424e-07
3.050794e-07
1.8972778e-07
3.054256e-07
1.888089e-07
4.365569e-07
3.2172355e-07
4.0874092e-07
2.3175609e-07
3.775133e-07
2.0095192e-07
3.5592396e-07
2.1301091e-07
3.5182596e-07
2.1853871e-07
3.5109744e-07
2.1894813e-07
3.515221e-07
2.1865921e-07
4.9079184e-07
3.5858616e-07
4.612053e-07
2.6013689e-07
4.2787598e-07
2.2898656e-07
4.0509569e-07
2.4189472e-07
4.0084187e-07
2.4778901e-07
4.0029833e-07
2.4884051e-07
4.005886e-07
2.4919845e-07
5.4668562e-07
3.9271601e-07
5.1458774e-07
2.8825126e-07
4.7885254e-07
2.5860508e-07
4.5483902e-07
2.7234268e-07
4.5022387e-07
2.7812246e-07
4.4941764e-07
2.7955883e-07
4.4988597e-07
2.8073804e-07
6.090696e-07
4.2688543e-07
5.7219384e-07
3.1636254e-07
5.2986549e-07
2.8809531e-07
5.0277243e-07
3.0285067e-07
4.9681534e-07
3.0836314e-07
4.944806e-07
3.0999405e-07
4.9686898e-07
3.1279357e-07
6.7100839e-07
4.5881295e-07
6.2905217e-07
3.4323543e-07
5.7884691e-07
3.1739713e-07
5.4831899e-07
3.3405083e-07
5.4109751e-07
3.4006923e-07
5.3821331e-07
3.4283858e-07
5.4098135e-07
3.4594042e-07
7.3706452e-07
4.9219238e-07
6.8827742e-07
3.7145617e-07
6.2682781e-07
3.4819427e-07
5.9078965e-07
3.6867736e-07
5.8207078e-07
3.840945e-07
5.7945333e-07
4.4559096e-07
5.8231985e-07
3.7542961e-07
8.0005286e-07
5.2797897e-07
7.4292151e-07
4.0185766e-07
6.7305557e-07
3.8194284e-07
6.3441022e-07
4.0757808e-07
6.2711804e-07
4.2748417e-07
6.3297555e-07
5.0422834e-07
6.8741542e-07
4.1547039e-07
8.5193247e-07
5.6735128e-07
7.9453497e-07
4.3415243e-07
7.1971174e-07
4.1477231e-07
6.8054276e-07
4.4495942e-07
6.9051267e-07
4.6360614e-07
8.147272e-07
5.0281262e-07
9.1087863e-07
4.5228113e-07
8.9242305e-07
6.0640019e-07
8.4202608e-07
4.6569921e-07
7.78661e-07
4.4117379e-07
7.4005135e-07
4.6690894e-07
7.4092406e-07
4.7989464e-07
8.042554e-07
4.9834203e-07
8.6177293e-07
4.8479685e-07
9.2233998e-07
6.5069653e-07
8.8628878e-07
5.0786673e-07
8.4391439e-07
4.7958533e-07
8.1331212e-07
5.0274628e-07
8.0822222e-07
5.100576e-07
8.0785929e-07
5.1689683e-07
8.20977e-07
5.2500676e-07
9.808345e-07
7.5345366e-07
9.6942517e-07
6.3794848e-07
9.5066147e-07
6.237692e-07
9.3129505e-07
6.6583303e-07
9.3182741e-07
6.784038e-07
9.3192526e-07
6.8926862e-07
9.3830213e-07
7.011934e-07
1.2797579e-06
1.2515552e-06
1.3776819e-06
1.3620478e-06
1.4247942e-06
1.4757702e-06
1.4366765e-06
1.6069753e-06
1.4585832e-06
1.6883199e-06
1.4719642e-06
1.7326644e-06
1.487196e-06
1.7710497e-06
2.9893504e-06
3.8891334e-06
3.6359821e-06
5.2254415e-06
3.9924045e-06
6.4267025e-06
4.1644373e-06
7.0630485e-06
4.2729901e-06
7.1869152e-06
4.3371807e-06
7.1402008e-06
4.3943681e-06
7.371054e-06
1.21643e-05
1.7892428e-05
1.5362751e-05
2.3910944e-05
1.683656e-05
2.6299074e-05
1.7256515e-05
2.7432632e-05
1.7486041e-05
2.8005857e-05
1.7620233e-05
2.8286145e-05
1.769787e-05
2.8447721e-05
1.8918228e-05
2.5438801e-05
2.1410954e-05
3.2209358e-05
2.2562216e-05
3.5705095e-05
2.3222e-05
3.7317841e-05
2.3533246e-05
3.8099259e-05
2.3736378e-05
3.8492672e-05
2.3857064e-05
3.876052e-05
2.905172e-05
3.8179346e-05
3.2765619e-05
4.6440376e-05
3.4256761e-05
5.0918709e-05
3.54288e-05
5.3323961e-05
3.605263e-05
5.4629137e-05
3.6372721e-05
5.5351006e-05
3.6564554e-05
5.5761254e-05
4.5359402e-05
5.461204e-05
4.9203054e-05
6.0212565e-05
5.0593997e-05
6.2610943e-05
5.1687478e-05
6.3425829e-05
5.2318016e-05
6.3887277e-05
5.2686688e-05
6.4177445e-05
5.2912894e-05
6.4390307e-05
4.7295552e-05
5.2753648e-05
4.8736316e-05
5.4491258e-05
4.9995099e-05
5.4937343e-05
5.0853973e-05
5.5269532e-05
5.1365751e-05
5.5550437e-05
5.167273e-05
5.576718e-05
5.1862682e-05
5.5938666e-05
3.3257673e-05
3.4050498e-05
3.3452553e-05
3.3444963e-05
3.4014636e-05
3.3259287e-05
3.4453536e-05
3.3299672e-05
3.4726053e-05
3.3374274e-05
3.4896677e-05
3.3458629e-05
3.5012046e-05
3.3543539e-05
9.5500448e-06
9.931495e-06
9.0830032e-06
8.7206251e-06
8.9821137e-06
7.9864975e-06
8.9705038e-06
7.6412177e-06
8.958443e-06
7.4450968e-06
8.9364355e-06
7.3278864e-06
8.9153444e-06
7.2638638e-06
1.1634249e-06
1.5267883e-06
1.0410942e-06
1.3952687e-06
9.5757808e-07
1.2275526e-06
9.1052936e-07
1.1132864e-06
8.8231654e-07
1.0450184e-06
8.6539432e-07
1.0070082e-06
8.5594449e-07
9.8749659e-07
3.5401402e-06
4.2984156e-06
3.4494182e-06
4.0556333e-06
3.3772332e-06
3.8732179e-06
3.3012895e-06
3.6888934e-06
3.195732e-06
3.4376279e-06
3.0136806e-06
3.0013037e-06
1.6912715e-05
1.7517772e-05
1.686267e-05
1.7402098e-05
1.6824523e-05
1.7310254e-05
1.6787132e-05
1.7218584e-05
1.6733017e-05
1.7099196e-05
1.6658382e-05
1.6947609e-05
3.1505629e-05
3.0238593e-05
3.1487935e-05
3.0129922e-05
3.1472293e-05
3.0053851e-05
3.1433403e-05
2.9948899e-05
3.1410729e-05
2.9812595e-05
3.1404614e-05
2.9703499e-05
3.5117776e-05
3.5774204e-05
3.5127034e-05
3.5820447e-05
3.5132625e-05
3.5778165e-05
3.5156145e-05
3.563087e-05
3.5210028e-05
3.53586e-05
3.5548302e-05
3.4933702e-05
2.8558767e-05
2.3914395e-05
2.8754276e-05
2.6126005e-05
2.8590453e-05
2.7363948e-05
2.8475469e-05
2.7647579e-05
2.879711e-05
2.7603885e-05
2.8693231e-05
2.7549251e-05
1.4144205e-05
6.3245207e-06
1.4411229e-05
6.0904444e-06
1.535546e-05
5.9296259e-06
1.4775634e-05
5.7961488e-06
1.2363549e-05
5.7716496e-06
1.2188109e-05
5.8823363e-06
1.617453e-06
8.5304034e-07
1.6176898e-06
8.1176372e-07
1.6242256e-06
8.1183922e-07
1.6472709e-06
8.1014326e-07
1.7025259e-06
8.1098534e-07
1.7973034e-06
8.1944374e-07
3.8301174e-07
2.1077347e-07
3.8336981e-07
2.0577494e-07
3.8533158e-07
2.0769498e-07
3.9120558e-07
2.0892182e-07
4.0475974e-07
2.102935e-07
4.283774e-07
2.1311142e-07
2.3653609e-07
1.3815514e-07
2.37352e-07
1.3756364e-07
2.387421e-07
1.4030973e-07
2.4258033e-07
1.4255081e-07
2.5120227e-07
1.4452925e-07
2.6707198e-07
1.4681296e-07
2.1896016e-07
1.2646116e-07
2.1983855e-07
1.305174e-07
2.2116437e-07
1.3338002e-07
2.247573e-07
1.3669276e-07
2.3221302e-07
1.392356e-07
2.4695341e-07
1.4119173e-07
2.2049312e-07
1.270075e-07
2.2148331e-07
1.3195621e-07
2.2281616e-07
1.3542449e-07
2.2613422e-07
1.3980115e-07
2.3373918e-07
1.4316601e-07
2.4861071e-07
1.4518529e-07
2.284774e-07
1.3450194e-07
2.2965015e-07
1.3542959e-07
2.3100279e-07
1.4008609e-07
2.3421857e-07
1.4523598e-07
2.4130617e-07
1.4951864e-07
2.5576275e-07
1.5176282e-07
2.4438894e-07
1.4543855e-07
2.4594219e-07
1.4395985e-07
2.4731574e-07
1.471103e-07
2.5034994e-07
1.5310618e-07
2.568046e-07
1.5832957e-07
2.7083843e-07
1.6121318e-07
2.6875614e-07
1.619719e-07
2.6996066e-07
1.5962836e-07
2.7161399e-07
1.595344e-07
2.746631e-07
1.6378874e-07
2.8104799e-07
1.7003351e-07
2.9472392e-07
1.7358905e-07
3.065665e-07
1.8650064e-07
3.0833923e-07
1.8382068e-07
3.1048003e-07
1.8272214e-07
3.134035e-07
1.8327058e-07
3.194833e-07
1.8770316e-07
3.3259067e-07
1.9248571e-07
3.5338883e-07
2.1697442e-07
3.5673542e-07
2.1450958e-07
3.5924898e-07
2.1260051e-07
3.6196999e-07
2.1131698e-07
3.6740324e-07
2.1015321e-07
3.7918993e-07
2.1136749e-07
4.0333593e-07
2.483734e-07
4.0836299e-07
2.4644277e-07
4.1088254e-07
2.4400864e-07
4.1311131e-07
2.4184765e-07
4.1781824e-07
2.396057e-07
4.283867e-07
2.3801473e-07
4.540494e-07
2.8083584e-07
4.6050852e-07
2.7924885e-07
4.6259106e-07
2.7614478e-07
4.6400413e-07
2.7316994e-07
4.6788913e-07
2.7058603e-07
4.7751942e-07
2.6902726e-07
5.0379398e-07
3.143914e-07
5.1041456e-07
3.1261253e-07
5.1144998e-07
3.0846985e-07
5.1158532e-07
3.0445379e-07
5.148042e-07
3.0108827e-07
5.2554414e-07
2.987013e-07
5.4982989e-07
3.4834091e-07
5.5810668e-07
3.4687893e-07
5.5786377e-07
3.41147e-07
5.5679154e-07
3.3571341e-07
5.6070781e-07
3.3126932e-07
5.7830144e-07
3.2741448e-07
5.9291733e-07
3.9071728e-07
6.0320187e-07
3.8747888e-07
6.0404254e-07
3.8027127e-07
6.1183854e-07
3.7192205e-07
6.4785688e-07
3.6291148e-07
7.6776468e-07
3.5061199e-07
7.2827609e-07
4.298481e-07
7.6078358e-07
4.2428023e-07
7.9724344e-07
4.1208121e-07
8.4655898e-07
3.9846736e-07
8.6553392e-07
3.8712588e-07
8.3615949e-07
3.7926002e-07
9.3741228e-07
4.6411307e-07
9.5679895e-07
4.6070461e-07
9.8461639e-07
4.4694334e-07
1.0062368e-06
4.3323017e-07
9.9166229e-07
4.224243e-07
9.5126578e-07
4.1529125e-07
8.9542723e-07
4.9530749e-07
9.1461367e-07
4.9367349e-07
9.3868835e-07
4.7917201e-07
9.7798001e-07
4.6599922e-07
1.023767e-06
4.5635052e-07
9.8062952e-07
4.534104e-07
8.700873e-07
5.3449803e-07
8.9494099e-07
5.335212e-07
9.1699737e-07
5.1887037e-07
9.5155363e-07
5.0770642e-07
9.8331896e-07
5.0379989e-07
9.5350614e-07
5.1056446e-07
9.606061e-07
7.1560113e-07
9.8755092e-07
7.1650773e-07
1.0308954e-06
6.9866685e-07
1.0913708e-06
6.8727742e-07
1.1611401e-06
6.903776e-07
9.5887779e-07
7.2210986e-07
1.5237134e-06
1.8071223e-06
1.5656186e-06
1.8118144e-06
1.6110257e-06
1.7785793e-06
1.7614543e-06
1.7673134e-06
1.5269717e-06
1.8156442e-06
1.5866164e-06
1.9437369e-06
4.4988402e-06
7.4757321e-06
4.6044262e-06
7.5037552e-06
4.6249208e-06
7.4066749e-06
4.6422668e-06
7.4130127e-06
4.6884348e-06
7.6463334e-06
4.8497661e-06
8.2162814e-06
1.7744245e-05
2.8541638e-05
1.7808659e-05
2.8653486e-05
1.7872517e-05
2.8756107e-05
1.7949466e-05
2.8872754e-05
1.8067039e-05
2.9043406e-05
1.8296241e-05
2.9368039e-05
2.3928138e-05
3.8950939e-05
2.4031138e-05
3.9172057e-05
2.4135876e-05
3.9379007e-05
2.426467e-05
3.9620551e-05
2.4464479e-05
3.9979305e-05
2.4860884e-05
4.0652487e-05
3.6686243e-05
5.6009203e-05
3.6843825e-05
5.626327e-05
3.7013926e-05
5.6509805e-05
3.7228271e-05
5.6801901e-05
3.756112e-05
5.7236942e-05
3.8196317e-05
5.8064237e-05
5.3074001e-05
6.4581059e-05
5.3102356e-05
6.4812733e-05
5.3366756e-05
6.4967539e-05
5.3531894e-05
6.5087586e-05
5.3752329e-05
6.5170976e-05
5.4206834e-05
6.5222196e-05
5.1989909e-05
5.6098604e-05
5.2077722e-05
5.6291012e-05
5.2171307e-05
5.6415832e-05
5.2285432e-05
5.6508294e-05
5.2450886e-05
5.656635e-05
5.2773008e-05
5.6603546e-05
3.509788e-05
3.3628536e-05
3.5148343e-05
3.3711562e-05
3.5198696e-05
3.3770645e-05
3.5255031e-05
3.3818212e-05
3.5330488e-05
3.3856624e-05
3.5459396e-05
3.3896298e-05
8.90682e-06
7.2371574e-06
8.9011103e-06
7.2230638e-06
8.9033173e-06
7.2199268e-06
8.9038009e-06
7.2142377e-06
8.8964588e-06
7.198047e-06
8.8590865e-06
7.1493921e-06
8.5062064e-07
9.7717239e-07
8.4388689e-07
9.6486486e-07
8.3754669e-07
9.5289348e-07
8.2898891e-07
9.3714527e-07
8.1391327e-07
9.1029938e-07
7.8474541e-07
8.575127e-07
2.7375904e-06
2.4058933e-06
2.5634417e-06
2.1353357e-06
2.5055357e-06
2.100711e-06
2.4779887e-06
2.0926309e-06
2.4592413e-06
2.0931518e-06
2.4431404e-06
2.1025494e-06
1.6535532e-05
1.6739015e-05
1.6427833e-05
1.6607024e-05
1.6398417e-05
1.6581821e-05
1.6390479e-05
1.65977e-05
1.6380553e-05
1.659233e-05
1.6376981e-05
1.6604063e-05
3.1342345e-05
2.9697696e-05
3.1250985e-05
2.9670459e-05
3.1141567e-05
2.9619424e-05
3.1106002e-05
2.9772574e-05
3.1107752e-05
2.9824167e-05
3.1118076e-05
2.9876328e-05
3.5693456e-05
3.4975453e-05
3.566466e-05
3.4827864e-05
3.5500944e-05
3.4637174e-05
3.5659385e-05
3.5184504e-05
3.5476846e-05
3.5751264e-05
3.5496992e-05
3.5770532e-05
2.8480408e-05
2.7484596e-05
2.8329208e-05
2.7406564e-05
2.8303842e-05
2.7362998e-05
2.829659e-05
2.7329636e-05
2.8301495e-05
2.7299692e-05
2.8309304e-05
2.7296761e-05
1.3059486e-05
6.0803297e-06
1.4494065e-05
6.3989527e-06
1.4413841e-05
6.6078336e-06
1.4440482e-05
6.670907e-06
1.6038598e-05
6.6797931e-06
1.6036294e-05
7.2185348e-06
1.8904619e-06
8.3539565e-07
2.0728667e-06
8.7308662e-07
2.1008448e-06
8.9675134e-07
2.1020536e-06
9.1493969e-07
2.0912803e-06
9.2529177e-07
2.1654825e-06
9.3076546e-07
4.5675304e-07
2.179726e-07
5.0831395e-07
2.285504e-07
5.159088e-07
2.3510811e-07
5.2098846e-07
2.3981359e-07
5.2379368e-07
2.422022e-07
5.2623583e-07
2.4462186e-07
2.887711e-07
1.4952054e-07
3.2510332e-07
1.5591917e-07
3.3113689e-07
1.5997814e-07
3.3473794e-07
1.6302561e-07
3.3805272e-07
1.6462824e-07
3.4237729e-07
1.6654882e-07
2.6859152e-07
1.4178242e-07
3.0134629e-07
1.459003e-07
3.0628137e-07
1.4903287e-07
3.0905234e-07
1.5171484e-07
3.1159065e-07
1.5359639e-07
3.1623813e-07
1.5622922e-07
2.7132776e-07
1.4416821e-07
3.0273089e-07
1.4707182e-07
3.0649133e-07
1.499284e-07
3.0850204e-07
1.5255402e-07
3.1081031e-07
1.5456307e-07
3.1652271e-07
1.574747e-07
2.7888385e-07
1.4950116e-07
3.086416e-07
1.5145525e-07
3.1098014e-07
1.5408023e-07
3.1266717e-07
1.5662878e-07
3.1745186e-07
1.5851386e-07
3.2459384e-07
1.6126753e-07
2.9446459e-07
1.5849591e-07
3.2566083e-07
1.5984465e-07
3.2696075e-07
1.6206792e-07
3.2737204e-07
1.6435483e-07
3.3197526e-07
1.6602588e-07
3.389128e-07
1.6842665e-07
3.1831446e-07
1.7130983e-07
3.5499264e-07
1.7232988e-07
3.5505171e-07
1.7405928e-07
3.5488832e-07
1.7581906e-07
3.5655935e-07
1.7711425e-07
3.6078448e-07
1.7940214e-07
3.5513233e-07
1.9069363e-07
3.7395808e-07
1.9187885e-07
3.814875e-07
1.941539e-07
3.8453068e-07
1.9516323e-07
3.9145255e-07
1.9721744e-07
4.0008115e-07
2.0173827e-07
4.0115873e-07
2.1279934e-07
4.1972126e-07
2.1683511e-07
4.2616334e-07
2.221207e-07
4.2746193e-07
2.2507803e-07
4.3074774e-07
2.2699747e-07
4.4049494e-07
2.3196902e-07
4.5002718e-07
2.4101389e-07
4.6922994e-07
2.4988204e-07
4.7624881e-07
2.5529646e-07
4.780666e-07
2.573966e-07
4.898533e-07
2.5858778e-07
5.1186619e-07
2.6298171e-07
5.0032273e-07
2.7300066e-07
5.2422773e-07
2.8230729e-07
5.4988116e-07
2.864933e-07
5.5700052e-07
2.8689862e-07
5.563083e-07
2.8730627e-07
5.6655414e-07
2.9322375e-07
5.67536e-07
3.0260636e-07
6.0929571e-07
3.1004361e-07
6.0612551e-07
3.1362888e-07
6.0042801e-07
3.1472525e-07
5.9919501e-07
3.1484232e-07
6.0653342e-07
3.1985059e-07
6.6765563e-07
3.2759682e-07
6.5000447e-07
3.3417405e-07
6.4519737e-07
3.3982845e-07
6.3759879e-07
3.3939031e-07
6.3449996e-07
3.3853605e-07
6.4611899e-07
3.4477247e-07
7.1769097e-07
3.5143147e-07
6.9757915e-07
3.605386e-07
6.9273432e-07
3.652214e-07
6.8354971e-07
3.6373975e-07
6.8037241e-07
3.6201112e-07
6.957719e-07
3.693967e-07
7.8731664e-07
3.8329761e-07
7.5937574e-07
3.9134564e-07
7.5345794e-07
3.9565587e-07
7.4391821e-07
3.9160399e-07
7.4026455e-07
3.8825989e-07
7.6143778e-07
3.9827882e-07
8.8665884e-07
4.2133804e-07
8.4844346e-07
4.3098223e-07
8.4206798e-07
4.3420467e-07
8.3266028e-07
4.2768659e-07
8.3152745e-07
4.2364823e-07
8.5351505e-07
4.3577652e-07
9.1322953e-07
4.6613208e-07
9.320202e-07
4.7731931e-07
9.355072e-07
4.7753305e-07
9.2376521e-07
4.6916188e-07
9.2407344e-07
4.6514918e-07
9.4675525e-07
4.8195123e-07
9.1453683e-07
5.3206324e-07
1.0495697e-06
5.4173908e-07
1.0476448e-06
5.376057e-07
1.0302107e-06
5.2967259e-07
1.0313753e-06
5.263347e-07
1.0517549e-06
5.4857512e-07
1.0204899e-06
7.7158943e-07
1.2523062e-06
7.877008e-07
1.2549479e-06
7.8073183e-07
1.2381379e-06
7.7159493e-07
1.2357886e-06
7.6930349e-07
1.2552188e-06
8.0507083e-07
1.6778142e-06
2.1169094e-06
2.0460458e-06
2.2272749e-06
2.1837912e-06
2.2144566e-06
2.1920448e-06
2.1903209e-06
2.2017936e-06
2.1958347e-06
2.2326389e-06
2.3014804e-06
5.2266237e-06
9.062601e-06
6.1580544e-06
9.683207e-06
6.9489648e-06
9.6265748e-06
7.00134e-06
9.4905699e-06
7.0645919e-06
9.5500195e-06
7.240168e-06
9.9943095e-06
1.8668654e-05
2.9847046e-05
1.9112521e-05
3.0369298e-05
1.93054e-05
3.0527195e-05
1.9410626e-05
3.0597489e-05
1.9482931e-05
3.0639577e-05
1.9546543e-05
3.0669209e-05
2.5494991e-05
4.1524129e-05
2.620058e-05
4.2473959e-05
2.6539125e-05
4.2788468e-05
2.6720083e-05
4.2940217e-05
2.6844982e-05
4.3039323e-05
2.6953595e-05
4.3118482e-05
3.9107608e-05
5.9336128e-05
4.0204321e-05
6.0911958e-05
4.0740163e-05
6.1487577e-05
4.1031668e-05
6.1786786e-05
4.1234343e-05
6.1994635e-05
4.1408178e-05
6.2178686e-05
5.5001263e-05
6.5818343e-05
5.6166597e-05
6.7082813e-05
5.6809e-05
6.7540213e-05
5.7148245e-05
6.7710679e-05
5.7240184e-05
6.7771072e-05
5.7519532e-05
6.7816072e-05
5.3309355e-05
5.7241371e-05
5.412794e-05
5.8468346e-05
5.4554073e-05
5.8917356e-05
5.4783982e-05
5.9098607e-05
5.4942848e-05
5.9173277e-05
5.5079199e-05
5.9244209e-05
3.5684674e-05
3.4234357e-05
3.6077555e-05
3.4924536e-05
3.6255253e-05
3.5181277e-05
3.6346736e-05
3.5294751e-05
3.6411458e-05
3.535495e-05
3.6472129e-05
3.5417542e-05
8.7856712e-06
7.0854593e-06
8.7676005e-06
7.1223621e-06
8.7666653e-06
7.1583868e-06
8.7565658e-06
7.1755106e-06
8.7391955e-06
7.182695e-06
8.7162515e-06
7.1874797e-06
7.4198313e-07
7.7557723e-07
7.1257731e-07
7.1735094e-07
7.0142404e-07
6.9584244e-07
6.9390162e-07
6.8139396e-07
6.8744829e-07
6.6928658e-07
6.8072548e-07
6.5681351e-07
2.424443e-06
2.124652e-06
2.4138536e-06
2.1667018e-06
2.4058718e-06
2.2313487e-06
2.4050226e-06
2.3400891e-06
2.4167821e-06
2.5337992e-06
2.4670916e-06
2.910433e-06
2.6817378e-06
3.803281e-06
1.6354522e-05
1.6594932e-05
1.6349971e-05
1.6603301e-05
1.6338142e-05
1.6624443e-05
1.6321379e-05
1.6689114e-05
1.6315771e-05
1.6797349e-05
1.6303404e-05
1.6948325e-05
1.6319187e-05
1.7299786e-05
3.1093911e-05
2.9870053e-05
3.1126739e-05
2.9945967e-05
3.117466e-05
3.0045277e-05
3.1299179e-05
3.0270347e-05
3.1374921e-05
3.0562545e-05
3.1477438e-05
3.0925654e-05
3.1682621e-05
3.152183e-05
3.5478707e-05
3.5516256e-05
3.5542871e-05
3.5455724e-05
3.5613821e-05
3.5367745e-05
3.5716524e-05
3.5276268e-05
3.6040638e-05
3.5471773e-05
3.6264592e-05
3.5921561e-05
3.6522093e-05
3.6756227e-05
2.8309895e-05
2.7319224e-05
2.8313841e-05
2.7357587e-05
2.8318017e-05
2.7410508e-05
2.832469e-05
2.7477291e-05
2.8338227e-05
2.7583501e-05
2.838349e-05
2.7644775e-05
2.8514336e-05
2.7633831e-05
1.4480541e-05
8.9772078e-06
1.5095766e-05
9.8593678e-06
1.4978191e-05
1.0120891e-05
1.5143639e-05
8.9274923e-06
1.5686106e-05
8.5023267e-06
1.6053961e-05
9.7269067e-06
1.6066566e-05
1.1198016e-05
2.4763507e-06
9.6653429e-07
2.1844729e-06
1.1180446e-06
2.2671424e-06
1.2406786e-06
2.2845299e-06
1.2749043e-06
2.3672914e-06
1.145452e-06
2.5724879e-06
1.3034508e-06
2.7771876e-06
1.4640519e-06
5.4151079e-07
2.4859253e-07
5.8588287e-07
2.5496513e-07
5.5517057e-07
2.6928782e-07
5.7243426e-07
2.9930341e-07
5.9137273e-07
2.9790587e-07
6.4434789e-07
3.4999131e-07
7.0025331e-07
4.0398631e-07
3.4693436e-07
1.7088162e-07
3.5654547e-07
1.7700599e-07
3.7903929e-07
1.8347587e-07
3.6870498e-07
1.9170921e-07
3.8569897e-07
2.0972814e-07
4.2118912e-07
2.4814104e-07
4.7099159e-07
2.9570774e-07
3.2132119e-07
1.6090229e-07
3.2545797e-07
1.6706642e-07
3.3633781e-07
1.7359938e-07
3.5955594e-07
1.8495667e-07
3.5687179e-07
2.0461558e-07
4.0267201e-07
2.4492831e-07
4.6006359e-07
2.9938392e-07
3.249773e-07
1.6217108e-07
3.3307592e-07
1.6814669e-07
3.4210282e-07
1.7494975e-07
3.519922e-07
1.8856742e-07
3.6979555e-07
2.1120933e-07
4.1699069e-07
2.5699761e-07
4.8490158e-07
3.2072486e-07
3.3317147e-07
1.6556841e-07
3.4189404e-07
1.710316e-07
3.5234711e-07
1.7991214e-07
3.6438849e-07
1.9448029e-07
3.8500813e-07
2.1926583e-07
4.3723535e-07
2.6932323e-07
5.2042634e-07
3.468374e-07
3.472628e-07
1.7229547e-07
3.567883e-07
1.7926658e-07
3.6904726e-07
1.9034943e-07
3.8407732e-07
2.0576015e-07
4.0917763e-07
2.3246544e-07
4.68555e-07
2.8771642e-07
5.6843548e-07
3.8003901e-07
3.6740658e-07
1.8675513e-07
3.7750779e-07
1.962039e-07
3.9140896e-07
2.0776893e-07
4.0991404e-07
2.2417528e-07
4.4141086e-07
2.5350073e-07
5.1132724e-07
3.1605029e-07
6.363134e-07
4.2474917e-07
4.0431973e-07
2.0963122e-07
4.1501958e-07
2.1939072e-07
4.3069819e-07
2.3181222e-07
4.5342641e-07
2.5092073e-07
4.9312837e-07
2.8608831e-07
5.7860257e-07
3.5883078e-07
7.3477682e-07
4.8767031e-07
4.5551888e-07
2.3997418e-07
4.6100389e-07
2.4973702e-07
4.785485e-07
2.6266017e-07
5.0668118e-07
2.8353569e-07
5.5692603e-07
3.2346545e-07
6.6053115e-07
4.0816004e-07
8.4894521e-07
5.5854214e-07
5.169624e-07
2.7190668e-07
5.1765784e-07
2.8199316e-07
5.3067511e-07
2.957153e-07
5.6352702e-07
3.1889702e-07
6.2389096e-07
3.6407546e-07
7.4681832e-07
4.5856034e-07
9.6967855e-07
6.2820498e-07
5.7377072e-07
3.0370226e-07
5.7331528e-07
3.1363936e-07
5.8113474e-07
3.2759825e-07
6.1669125e-07
3.5261836e-07
6.8433567e-07
4.008246e-07
8.2269773e-07
5.0196008e-07
1.0710495e-06
6.8417225e-07
6.1597044e-07
3.3128335e-07
6.2146892e-07
3.4344463e-07
6.2789246e-07
3.5727546e-07
6.6238267e-07
3.8125355e-07
7.3162674e-07
4.292099e-07
8.7502019e-07
5.3079621e-07
1.1423956e-06
7.2091664e-07
6.5740188e-07
3.573757e-07
6.6046404e-07
3.6915933e-07
6.671227e-07
3.8250114e-07
7.0008904e-07
4.0499986e-07
7.667224e-07
4.4943166e-07
9.0696119e-07
5.4563742e-07
1.1772323e-06
7.3265541e-07
7.0774228e-07
3.825724e-07
7.092623e-07
3.9406404e-07
7.0769137e-07
4.0716175e-07
7.3657542e-07
4.2825536e-07
7.9919582e-07
4.685443e-07
9.3248371e-07
5.5792743e-07
1.2012871e-06
7.4005017e-07
7.763249e-07
4.1359143e-07
7.7756481e-07
4.243778e-07
7.7525848e-07
4.3671207e-07
7.873165e-07
4.5808603e-07
8.4705143e-07
4.9821516e-07
9.7838643e-07
5.853434e-07
1.2464919e-06
7.6629774e-07
8.7134084e-07
4.5350429e-07
8.8175571e-07
4.6470063e-07
8.8149411e-07
4.7619004e-07
8.8806693e-07
4.9828252e-07
9.1984533e-07
5.4294523e-07
1.0557245e-06
6.3819985e-07
1.3422665e-06
8.3489343e-07
9.6386631e-07
5.0374888e-07
9.7809816e-07
5.1547726e-07
9.811818e-07
5.2835282e-07
9.9337934e-07
5.5399437e-07
1.0235745e-06
6.0666667e-07
1.1423946e-06
7.1924733e-07
1.4450271e-06
9.4602752e-07
1.0681285e-06
5.7564608e-07
1.0860671e-06
5.8993835e-07
1.0944767e-06
6.0819504e-07
1.1165344e-06
6.4476782e-07
1.1579898e-06
7.1801254e-07
1.2486728e-06
8.7485144e-07
1.5674253e-06
1.1744124e-06
1.2709838e-06
8.4674381e-07
1.2919185e-06
8.6979069e-07
1.3011342e-06
9.0132726e-07
1.3306961e-06
9.6496744e-07
1.3901843e-06
1.0932836e-06
1.522432e-06
1.3640827e-06
1.788788e-06
1.8591482e-06
2.2534939e-06
2.4238837e-06
2.2865366e-06
2.4916211e-06
2.3020023e-06
2.5871412e-06
2.3662592e-06
2.7759188e-06
2.4996223e-06
3.1555978e-06
2.7612358e-06
4.0080854e-06
3.1424601e-06
8.3604192e-06
7.3711921e-06
1.0479497e-05
7.4791614e-06
1.0765015e-05
7.5008668e-06
1.1184872e-05
7.7490201e-06
1.2095952e-05
8.3281522e-06
1.4020859e-05
9.3786818e-06
1.8874521e-05
1.0826649e-05
2.4578466e-05
1.9614452e-05
3.0684484e-05
1.9679831e-05
3.0711429e-05
1.9788701e-05
3.0759991e-05
1.9970382e-05
3.0830526e-05
2.0262721e-05
3.091007e-05
2.0667439e-05
3.0926205e-05
2.0961033e-05
3.0648557e-05
2.7063997e-05
4.3183476e-05
2.7179743e-05
4.326347e-05
2.7378296e-05
4.3404791e-05
2.7718271e-05
4.3633857e-05
2.8280931e-05
4.3967537e-05
2.9099586e-05
4.4311619e-05
2.9789175e-05
4.4248532e-05
4.1572543e-05
6.2367154e-05
4.1757044e-05
6.2561432e-05
4.2082651e-05
6.289816e-05
4.2657277e-05
6.3478109e-05
4.3657745e-05
6.4442502e-05
4.528321e-05
6.5874562e-05
4.6877092e-05
6.7252826e-05
5.7566299e-05
6.7847214e-05
5.7647801e-05
6.7864612e-05
5.7826749e-05
6.7941175e-05
5.8233767e-05
6.816478e-05
5.9226421e-05
6.8794617e-05
6.187251e-05
7.0693156e-05
6.7722529e-05
7.5533378e-05
5.5139183e-05
5.9402567e-05
5.5227258e-05
5.9562571e-05
5.5408893e-05
5.9863132e-05
5.5798671e-05
6.0456728e-05
5.6669399e-05
6.1679462e-05
5.8733356e-05
6.4160932e-05
6.3557944e-05
6.8267209e-05
3.6486667e-05
3.5525802e-05
3.6522967e-05
3.565043e-05
3.6610406e-05
3.5894394e-05
3.6812577e-05
3.6382787e-05
3.7315387e-05
3.7384697e-05
3.8641434e-05
3.944027e-05
4.1923841e-05
4.2807506e-05
8.6879387e-06
7.1986781e-06
8.6647454e-06
7.213965e-06
8.6268356e-06
7.2449768e-06
8.5690106e-06
7.3093221e-06
8.5055071e-06
7.4590027e-06
8.5311013e-06
7.8028633e-06
8.9605236e-06
8.2787476e-06
6.7056079e-07
6.3921617e-07
6.6018418e-07
6.2019111e-07
6.4252778e-07
5.8815512e-07
6.1332583e-07
5.3529662e-07
5.6806582e-07
4.5350652e-07
5.1095052e-07
3.4850168e-07
4.7518571e-07
2.6622514e-07
2.8882084e-06
4.3347332e-06
2.9546335e-06
4.5339825e-06
2.815814e-06
4.209279e-06
2.7977252e-06
4.018715e-06
1.622754e-05
1.7415416e-05
1.6100764e-05
1.7468434e-05
1.5982898e-05
1.7534919e-05
1.7241442e-05
2.0051925e-05
3.1828114e-05
3.1833963e-05
3.2176619e-05
3.2153037e-05
3.3156513e-05
3.3064182e-05
3.6886874e-05
3.7281817e-05
3.6908369e-05
3.7242585e-05
3.7549585e-05
3.7401866e-05
3.9198879e-05
3.8333273e-05
4.4160718e-05
4.3268229e-05
2.8414246e-05
2.7584852e-05
2.8573458e-05
2.7888706e-05
2.8880409e-05
2.8730131e-05
2.9724421e-05
3.0520457e-05
1.5858778e-05
1.2329065e-05
1.5824482e-05
1.3724058e-05
1.5768246e-05
1.625662e-05
1.5964775e-05
1.6968205e-05
2.9882219e-06
1.5989492e-06
3.4182497e-06
1.8260487e-06
4.1558804e-06
2.3615639e-06
4.7553366e-06
2.9900375e-06
7.4846129e-07
4.4339193e-07
8.3217528e-07
4.8837399e-07
9.6217679e-07
5.7979736e-07
1.0498999e-06
6.6308136e-07
5.0722745e-07
3.2897029e-07
5.5717969e-07
3.59204e-07
6.3180661e-07
4.1270316e-07
7.0353893e-07
4.6853577e-07
5.042036e-07
3.3892339e-07
5.5307579e-07
3.7096398e-07
6.1927167e-07
4.1938539e-07