/*--------------------------------*- C++ -*----------------------------------*\
| =========                 |                                                 |
| \\      /  F ield         | OpenFOAM: The Open Source CFD Toolbox           |
|  \\    /   O peration     | Version:  2206                                  |
|   \\  /    A nd           | Website:  www.openfoam.com                      |
|    \\/     M anipulation  |                                                 |
\*---------------------------------------------------------------------------*/
FoamFile
{
    version     2.0;
    format      ascii;
    arch        "LSB;label=32;scalar=64";
    class       volScalarField;
    location    "500";
    object      k;
}
// * * * * * * * * * * * * * * * * * * * * * * * * * * * * * * * * * * * * * //

dimensions      [0 2 -2 0 0 0 0];

internalField   nonuniform List<scalar> 
50904
(
23.193642
37.996966
24.321652
41.655504
21.889869
25.447383
20.680555
23.125442
16.917413
15.870038
15.66533
14.411605
9.8554968
8.4913763
8.9716961
7.6317919
3.6043233
3.073442
3.1714303
2.6724791
0.74401613
0.65540818
0.64084592
0.54648647
0.11287898
0.098345157
0.095278747
0.081130326
0.024089075
0.02152015
0.02122496
0.018905116
0.011870791
0.011447658
0.011424636
0.011064417
0.010165943
0.01009348
0.010106824
0.010042353
0.0099712738
0.0099423797
0.0099642644
0.009934952
0.0099580344
0.0099355126
0.0099562324
0.0099321696
0.0099616468
0.0099423809
0.0099601537
0.0099390858
0.0099671616
0.0099509911
0.0099656614
0.0099474971
0.0099735541
0.009960435
0.0099721718
0.0099568407
0.0099799509
0.0099696117
0.0099788208
0.0099661656
0.009985366
0.0099772793
0.0099845251
0.0099741233
0.0099899558
0.0099836874
0.0099893578
0.0099808396
0.009993607
0.009988854
0.0099932689
0.0099863015
0.0099964767
0.009992929
0.0099964429
0.0099907215
0.0099986353
0.0099960436
0.0099987914
0.0099941373
0.010000069
0.0099982351
0.010000414
0.0099967869
0.010000832
0.009999707
0.010001553
0.0099997213
0.010002002
0.010002775
0.010005378
0.010011755
0.010011489
0.010023006
0.010036023
0.010091816
0.010097646
0.010177054
0.01027737
0.01063058
0.0108225
0.011310119
0.011996072
0.014010347
0.016291987
0.01923627
0.022887448
0.033456487
0.051703549
0.069214986
0.083945554
0.1359972
0.26156531
0.36477278
0.38764593
0.60302251
1.3248691
1.8649206
1.7098501
2.5121718
5.180014
6.6478286
6.0889697
7.6501208
12.228535
13.473097
12.686566
13.574644
16.762294
17.337844
16.16751
16.239534
11.740488
12.330769
10.232557
10.731396
5.6510793
5.9052309
5.1012502
5.7490386
23.019197
40.379771
19.273424
32.392384
17.094158
25.691512
15.791033
22.005164
14.966216
19.701918
14.403263
18.156796
13.976951
17.006834
19.234124
21.363674
18.189769
20.100996
17.950179
19.664015
17.835079
19.453946
17.772835
19.348258
17.734134
19.282312
17.705959
19.235553
15.08818
13.984766
14.885058
14.127785
14.960524
14.243853
14.999087
14.262891
15.022266
14.286851
15.035806
14.304832
15.048311
14.32055
8.5859394
7.3907762
8.3271198
7.2318132
8.3163367
7.1702132
8.3021114
7.1160619
8.2916816
7.0911207
8.2856359
7.0789099
8.2810007
7.0721304
3.0140222
2.5468445
2.8735254
2.4240693
2.8431385
2.3729337
2.8181263
2.3347319
2.8027945
2.3117674
2.7927918
2.2966306
2.785183
2.2863792
0.59739922
0.50698403
0.55163228
0.46737937
0.5389659
0.4530047
0.52969248
0.44363659
0.52381979
0.43844216
0.51996297
0.43524569
0.51755015
0.43303726
0.087969975
0.074575246
0.079475967
0.067294996
0.076943899
0.064802153
0.075514507
0.063457749
0.074730252
0.062825982
0.074251151
0.062484115
0.073889088
0.062263298
0.019989479
0.017827532
0.018565463
0.016574717
0.018133834
0.016227413
0.017919883
0.016075945
0.017810071
0.016011317
0.017746097
0.015978368
0.017703478
0.015957476
0.011245089
0.010915261
0.011057782
0.010762488
0.01100497
0.010734525
0.010981413
0.010725124
0.010970156
0.010722565
0.010963901
0.01072181
0.010959842
0.010721462
0.010086381
0.010026837
0.010075816
0.010027716
0.010076166
0.010040809
0.010077739
0.010048182
0.010079059
0.01005253
0.010080035
0.010055327
0.010080755
0.010057279
0.0099652125
0.0099366624
0.0099767961
0.0099557404
0.0099837462
0.0099734153
0.009988311
0.0099823785
0.0099911104
0.0099872662
0.0099929299
0.0099903447
0.0099941954
0.0099924857
0.0099587501
0.0099347727
0.0099713578
0.0099537835
0.0099786375
0.009971131
0.0099833699
0.0099797976
0.009986245
0.0099844894
0.0099880982
0.0099874549
0.0099893714
0.0099895085
0.009962446
0.0099411149
0.0099741498
0.0099584474
0.0099810364
0.0099747327
0.0099855831
0.0099827832
0.0099883304
0.009987254
0.0099900767
0.0099900719
0.0099912636
0.0099919695
0.0099676294
0.0099489624
0.0099781783
0.0099645702
0.0099846847
0.009979562
0.009988995
0.0099870893
0.009991574
0.0099913245
0.0099931945
0.0099939624
0.0099942823
0.0099957126
0.009973869
0.0099577827
0.0099831025
0.0099716651
0.0099891954
0.0099852758
0.0099932233
0.0099922546
0.0099956029
0.0099962172
0.0099970813
0.0099986509
0.0099980523
0.010000236
0.0099804426
0.0099668916
0.0099884739
0.0099793861
0.0099940664
0.0099916052
0.0099977307
0.009997963
0.0099998802
0.010001574
0.010001195
0.010003767
0.010002037
0.010005163
0.0099861768
0.0099748797
0.0099932476
0.0099864099
0.0099983509
0.0099973144
0.010001661
0.010003021
0.010003591
0.010006266
0.010004756
0.010008214
0.010005485
0.010009428
0.0099910532
0.0099817752
0.0099973493
0.0099925926
0.010001997
0.010002261
0.010004977
0.010007328
0.010006704
0.010010215
0.010007735
0.010011931
0.010008369
0.010012982
0.0099950839
0.0099876154
0.010000833
0.0099979092
0.010005021
0.010006458
0.010007674
0.010010898
0.010009202
0.010013429
0.010010106
0.010014926
0.010010665
0.010015844
0.0099983299
0.0099924449
0.010003631
0.010002256
0.010007387
0.010009805
0.010009736
0.010013689
0.010011086
0.010015917
0.010011887
0.010017237
0.010012383
0.010018052
0.010000722
0.0099961919
0.010005623
0.010005491
0.010009019
0.010012235
0.01001112
0.010015696
0.010012324
0.010017708
0.010013034
0.010018922
0.010013475
0.010019657
0.010002371
0.0099991386
0.010006945
0.010008143
0.010010061
0.010014408
0.010011962
0.010017633
0.01001304
0.010019518
0.010013676
0.010020656
0.010014068
0.010021345
0.010003866
0.010003549
0.010008531
0.010014254
0.010011624
0.010021353
0.010013484
0.010024988
0.010014524
0.010027076
0.01001514
0.010028312
0.010015519
0.010029054
0.010011106
0.010027666
0.010019125
0.010055264
0.0100239
0.010072214
0.010026758
0.01008079
0.010028361
0.010085412
0.010029295
0.010088038
0.010029862
0.010089601
0.010069456
0.010196076
0.010105287
0.010352965
0.010124005
0.010448117
0.010135064
0.010496107
0.010141105
0.010520265
0.010144494
0.01053315
0.010146472
0.010540453
0.010512277
0.011334759
0.010751345
0.012420165
0.010873076
0.013096773
0.010948234
0.013456833
0.010990428
0.013644176
0.011014332
0.013744772
0.011028214
0.013801525
0.013508735
0.018354565
0.015003135
0.02517055
0.015738839
0.029369699
0.016201348
0.031648184
0.016471957
0.032870022
0.016631024
0.033535172
0.016725761
0.033912875
0.03134018
0.056521404
0.039356419
0.092285324
0.043052932
0.11271066
0.045181547
0.12336463
0.046366652
0.12890681
0.047038227
0.13177213
0.047424384
0.1333227
0.12512044
0.23901009
0.16356276
0.39475324
0.18101734
0.48039032
0.19062141
0.5232456
0.19579614
0.54556483
0.19875781
0.55670375
0.20044552
0.56313351
0.54752769
0.95319903
0.69404958
1.4719694
0.76103828
1.7647461
0.79924025
1.9003077
0.81719593
1.9660622
0.82914101
1.9991988
0.8362553
2.0222732
2.230584
3.3436247
2.6912839
4.5681003
2.8690318
5.2970715
3.0137259
5.6814163
3.0898839
5.8849022
3.1275988
5.9952708
3.1501902
6.0573365
7.0829344
8.6354698
8.0119088
10.143371
8.4828771
11.168294
8.7511655
11.725742
8.9040562
12.030185
8.9912574
12.198479
9.0416483
12.294505
13.220947
13.712301
13.919955
14.491949
14.403823
15.300421
14.701631
15.848847
14.879298
16.162769
14.983042
16.339498
15.044135
16.441815
15.740287
15.275663
15.765031
14.785931
16.008303
14.883953
16.2027
15.107974
16.334402
15.263519
16.417669
15.360203
16.470772
15.422774
9.2125881
9.556943
8.5322852
8.0670437
8.3395802
7.2425786
8.2768586
6.8680708
8.2407794
6.6722769
8.212269
6.5682021
8.194096
6.5176084
4.6775554
6.1197082
4.1418385
5.5031203
3.7900286
4.8003997
3.5939367
4.3334268
3.4770805
4.0570753
3.4069392
3.9033258
3.3672181
3.8236128
13.6164
16.057732
13.254765
15.118209
12.96721
14.414334
12.664186
13.703828
12.241861
12.73616
11.512126
11.061724
17.681796
19.197676
17.655728
19.156492
17.639045
19.128388
17.623708
19.10148
17.601575
19.062648
17.550299
18.972662
15.059206
14.333734
15.071035
14.347577
15.079512
14.356929
15.086927
14.364802
15.094119
14.371646
15.093569
14.368124
8.2772791
7.0665432
8.2754466
7.0642173
8.2727626
7.0625674
8.2690467
7.061282
8.2633164
7.060255
8.2527143
7.0593888
2.7792191
2.2755705
2.773935
2.265985
2.7693132
2.2596994
2.7636399
2.2532956
2.7543664
2.2452309
2.7338002
2.233314
0.51570305
0.43206128
0.51416321
0.4316076
0.51303427
0.43108089
0.5119476
0.43041751
0.51033125
0.42939569
0.50675637
0.42740375
0.073593761
0.062083506
0.073310788
0.061924179
0.073089013
0.061807071
0.072844707
0.061692126
0.072507373
0.061539289
0.07195103
0.061260329
0.017670978
0.015940621
0.017640975
0.015925483
0.017617626
0.015914058
0.017593075
0.015902401
0.017558248
0.015886375
0.017491555
0.015856367
0.010956759
0.010721091
0.010953834
0.010720779
0.010951457
0.010720425
0.010948903
0.010720037
0.010945246
0.010719546
0.010938225
0.010718751
0.010081309
0.010058764
0.010081849
0.010060232
0.01008222
0.010061261
0.010082586
0.010062293
0.010083083
0.010063771
0.010083993
0.010066682
0.0099951575
0.0099941006
0.0099960798
0.0099956929
0.0099967531
0.009996833
0.0099974362
0.0099979776
0.0099983864
0.0099996142
0.010000162
0.010002835
0.009990324
0.0099910329
0.0099912388
0.0099925348
0.0099919087
0.0099936158
0.0099925903
0.0099947052
0.009993542
0.0099962631
0.0099953263
0.0099993439
0.0099921332
0.0099933624
0.0099929747
0.0099947406
0.0099935931
0.0099957309
0.0099942228
0.0099967274
0.0099951028
0.0099981498
0.0099967543
0.010000967
0.0099950583
0.0099969675
0.0099958033
0.0099982
0.0099963539
0.0099990878
0.0099969173
0.0099999783
0.0099977086
0.010001243
0.0099991962
0.010003747
0.0099987245
0.010001337
0.0099993578
0.0100024
0.009999831
0.010003173
0.010000319
0.01000395
0.01000101
0.010005045
0.010002313
0.010007196
0.010002603
0.010006105
0.010003132
0.010007004
0.010003533
0.010007666
0.01000395
0.010008338
0.010004543
0.010009277
0.01000566
0.010011095
0.010005962
0.010010222
0.010006411
0.010010982
0.010006756
0.010011548
0.010007118
0.010012128
0.010007634
0.010012942
0.010008606
0.010014512
0.010008774
0.010013652
0.010009161
0.0100143
0.010009462
0.01001479
0.010009781
0.010015296
0.010010238
0.01001601
0.010011096
0.010017386
0.01001102
0.010016426
0.010011358
0.010016991
0.010011625
0.010017421
0.010011911
0.010017871
0.010012321
0.010018507
0.010013089
0.010019735
0.0100127
0.010018575
0.010013002
0.010019079
0.010013241
0.010019466
0.010013501
0.010019875
0.010013875
0.010020458
0.010014586
0.010021591
0.010013758
0.010020129
0.010014026
0.010020594
0.01001424
0.010020954
0.010014475
0.01002134
0.010014824
0.010021893
0.010015519
0.010022966
0.01001432
0.010021782
0.010014563
0.010022212
0.010014764
0.010022551
0.010014996
0.01002292
0.010015349
0.010023451
0.010016031
0.010024484
0.010015758
0.010029516
0.010015995
0.010029977
0.010016197
0.010030356
0.010016434
0.010030779
0.010016801
0.010031398
0.010017514
0.010032607
0.010030217
0.01009057
0.010030589
0.010091584
0.010030921
0.010092473
0.010031315
0.010093491
0.010031925
0.010095013
0.010033123
0.010098011
0.010147683
0.010544842
0.01014915
0.01054992
0.010150539
0.010554551
0.010152217
0.010559932
0.010154817
0.010568041
0.01015994
0.010583947
0.01103662
0.013835327
0.011046619
0.013872598
0.011056293
0.013906616
0.011068078
0.013946171
0.011086356
0.014005715
0.011122438
0.01412214
0.016783849
0.034137759
0.016852713
0.034392756
0.016919885
0.034625944
0.017002042
0.034897687
0.017129908
0.035308078
0.017384135
0.036114681
0.047653444
0.13421837
0.047992884
0.13536595
0.04833422
0.13645008
0.048755441
0.1377229
0.049412174
0.13964483
0.050717275
0.14342261
0.20143261
0.56688073
0.20303038
0.57175864
0.20468263
0.57644249
0.2067347
0.58195053
0.20992703
0.59019576
0.21622897
0.60619137
0.84043521
2.0389365
0.8470874
2.0595671
0.8540266
2.079427
0.86272738
2.1030895
0.8764097
2.1388175
0.90392357
2.2071744
3.1646867
6.0947755
3.1857748
6.136744
3.2089603
6.1782743
3.2385791
6.2280272
3.2851126
6.3024965
3.3747543
6.4440753
9.0722067
12.352826
9.1076094
12.411594
9.1464242
12.468188
9.1950334
12.534911
9.2706082
12.634155
9.4171159
12.824456
15.081797
16.50446
15.119842
16.563276
15.157142
16.617433
15.202682
16.679082
15.272349
16.768878
15.4072
16.940384
16.506572
15.465546
16.539476
15.506173
16.568628
15.54172
16.601091
15.579512
16.647289
15.631422
16.731667
15.727502
8.1867319
6.4951278
8.1827675
6.478668
8.1795702
6.4640492
8.1727237
6.4441029
8.1572096
6.4104087
8.1180097
6.3441176
3.3445386
3.7805645
3.3215005
3.7352991
3.2994752
3.6907182
3.268896
3.6312324
3.2141495
3.5290212
3.1055574
3.3257866
10.410951
8.8082095
9.7192933
7.7919599
9.4897245
7.6577799
9.3802439
7.6247538
9.305368
7.6241449
9.2402369
7.6558539
17.395192
18.677096
17.270015
18.422043
17.228304
18.33732
17.2076
18.295084
17.195472
18.272168
17.183446
18.248806
15.052632
14.309869
15.017278
14.247333
15.000327
14.20296
14.991587
14.175178
14.984615
14.161305
14.976384
14.149663
8.21863
7.0465204
8.1902226
7.0337945
8.1775687
7.0205934
8.1721321
7.0124824
8.168576
7.0096687
8.1646391
7.0123541
2.6940611
2.2207385
2.6637222
2.2069904
2.6565946
2.1990732
2.6538246
2.1933484
2.6536709
2.1884445
2.6544941
2.1876864
0.49893481
0.42271691
0.48951107
0.41748931
0.48736522
0.41608491
0.48637341
0.41538313
0.48580361
0.41489022
0.48558253
0.41442633
0.070695561
0.06056776
0.069508674
0.059884611
0.069138367
0.059682204
0.068969788
0.05958215
0.06885822
0.059512941
0.068731025
0.059446951
0.017337197
0.015784072
0.017193603
0.015714484
0.017145848
0.01569487
0.017123108
0.015686071
0.017107994
0.015680545
0.017094433
0.015675891
0.010921858
0.010715918
0.010905945
0.010710727
0.010900329
0.010708812
0.010897574
0.010707809
0.01089571
0.010707106
0.010894019
0.010706452
0.010085588
0.010072729
0.010086387
0.010076392
0.010086578
0.010077346
0.010086647
0.010077725
0.010086684
0.010077951
0.010086716
0.010078138
0.010003768
0.010009816
0.010006497
0.010014725
0.010007388
0.010016165
0.010007803
0.010016797
0.010008077
0.010017205
0.01000833
0.010017573
0.0099990171
0.010006154
0.010001922
0.010011222
0.010002906
0.010012786
0.010003373
0.010013493
0.010003687
0.010013959
0.01000398
0.01001439
0.010000202
0.010007274
0.010002978
0.010012142
0.01000395
0.010013699
0.01000442
0.010014413
0.010004741
0.01001489
0.010005044
0.010015333
0.010002291
0.01000935
0.010004824
0.010013783
0.010005741
0.010015237
0.010006192
0.010015909
0.010006507
0.010016359
0.010006804
0.010016779
0.010004977
0.010011936
0.010007182
0.01001575
0.01000801
0.010017051
0.010008421
0.010017657
0.01000871
0.010018067
0.010008983
0.010018459
0.0100079
0.01001501
0.010009773
0.010018186
0.010010505
0.010019305
0.010010872
0.01001984
0.010011132
0.010020204
0.010011379
0.010020552
0.010010503
0.010017807
0.010012098
0.010020499
0.010012742
0.010021478
0.010013067
0.010021951
0.010013299
0.010022277
0.010013523
0.01002259
0.01001273
0.010020216
0.010014123
0.010022574
0.010014699
0.010023448
0.010014994
0.010023872
0.010015205
0.010024162
0.010015412
0.010024442
0.010014548
0.010022231
0.010015851
0.010024432
0.010016369
0.010025195
0.010016635
0.010025565
0.010016824
0.01002582
0.010017005
0.010026065
0.010015938
0.010023853
0.010017234
0.010026003
0.010017701
0.010026673
0.01001794
0.010027002
0.010018111
0.01002723
0.010018278
0.010027456
0.010016821
0.010025035
0.010018112
0.010027164
0.01001854
0.010027773
0.010018759
0.010028072
0.010018918
0.010028283
0.010019075
0.010028494
0.010017248
0.010026419
0.010018514
0.010028547
0.010018928
0.010029139
0.010019142
0.010029432
0.010019299
0.010029641
0.010019457
0.010029852
0.010018739
0.010034765
0.010020035
0.010037225
0.010020482
0.010037947
0.010020714
0.010038305
0.010020883
0.010038557
0.010021047
0.010038801
0.010035152
0.010103065
0.010037391
0.010109281
0.01003826
0.010111316
0.010038714
0.010112341
0.010039033
0.010113054
0.010039327
0.010113724
0.010168281
0.010608781
0.010177499
0.010638388
0.010181397
0.010648266
0.010183393
0.010653129
0.010184732
0.010656382
0.010185885
0.010659205
0.011179162
0.0143001
0.011242126
0.01450669
0.011268685
0.014572948
0.011281776
0.014604241
0.011290139
0.014624221
0.011296794
0.014640109
0.017796131
0.037391819
0.018292357
0.038936033
0.018516706
0.039459579
0.018632731
0.039716158
0.018710426
0.039886599
0.018776623
0.040031595
0.052802902
0.14914296
0.055312156
0.15594817
0.056530278
0.15830285
0.057186909
0.159428
0.057634721
0.16014766
0.058022913
0.16071613
0.22604084
0.62912096
0.23736588
0.65511474
0.24292168
0.66404191
0.24593629
0.66814772
0.24797016
0.67063313
0.24968192
0.67237419
0.94744631
2.2943912
0.99569969
2.3919088
1.0209569
2.4271583
1.0345167
2.4443516
1.0437915
2.4555219
1.0517005
2.4643152
3.5020134
6.6529577
3.6537731
6.906088
3.7333675
7.001447
3.7772225
7.0505431
3.8077102
7.0839967
3.8338003
7.1125688
9.6347796
13.124755
9.9033711
13.508091
10.047547
13.65169
10.127265
13.726062
10.182919
13.777756
10.231996
13.824236
15.62297
17.241777
15.904802
17.657403
16.042964
17.810865
16.117861
17.891912
16.170331
17.94975
16.217475
18.004667
16.880007
15.932053
17.094641
16.263961
17.187517
16.390678
17.235652
16.458368
17.269142
16.507403
17.301513
16.556771
8.0601714
6.274559
8.0463512
6.2876817
8.0358276
6.2983788
8.0205819
6.300292
8.004838
6.3002004
7.9895595
6.3019468
2.9458691
3.0112493
2.8377466
2.7889205
2.7960469
2.7062406
2.7671192
2.6501576
2.7415584
2.6026274
2.7143627
2.553249
9.1801533
7.7489734
9.1368387
7.9028699
9.1055379
8.1421902
9.1057133
8.5492657
9.1623329
9.282553
9.386431
10.730671
10.318229
14.285306
17.164895
18.211605
17.139921
18.161867
17.114534
18.101941
17.082934
18.020521
17.033494
17.915875
16.959515
17.796833
16.857821
17.664993
14.966184
14.135254
14.958623
14.121333
14.950607
14.101535
14.941314
14.068567
14.923082
14.005327
14.900059
13.89207
14.886
13.682994
8.1621589
7.0204693
8.1645911
7.0324178
8.1685059
7.0437377
8.17559
7.0544487
8.1901376
7.0631005
8.2150602
7.0577067
8.2824985
7.0317464
2.6548411
2.1913786
2.6571164
2.1989589
2.6601775
2.2089258
2.6649011
2.2214191
2.6737845
2.2403132
2.6949815
2.2539114
2.7506243
2.2641903
0.48602388
0.41416843
0.48605352
0.41485106
0.48638424
0.41593798
0.48701152
0.41736067
0.48840931
0.41846704
0.49184908
0.4190782
0.50008307
0.42071179
0.068583869
0.05935731
0.068561432
0.059268425
0.06849974
0.059217256
0.068463956
0.059209972
0.068449082
0.059247238
0.068493828
0.059071053
0.06878507
0.058823873
0.017078851
0.015671064
0.017068425
0.01566917
0.017059642
0.015666496
0.017050873
0.015661734
0.017042543
0.015653084
0.01703783
0.015635689
0.017041747
0.015588674
0.010892051
0.010705661
0.010890671
0.010705118
0.010889383
0.010704384
0.010887968
0.010703203
0.010886292
0.010701027
0.010884172
0.010696366
0.010880168
0.010683775
0.010086745
0.010078331
0.010086767
0.010078445
0.010086794
0.010078474
0.0100868
0.010078351
0.010086741
0.010077858
0.010086426
0.010076278
0.010084511
0.010070891
0.010008632
0.010018009
0.010008884
0.010018337
0.010009146
0.010018616
0.010009439
0.010018826
0.010009777
0.01001885
0.010010046
0.010018196
0.010009107
0.010014556
0.010004341
0.010014917
0.010004653
0.010015337
0.010004997
0.01001574
0.010005408
0.010016137
0.010005924
0.010016471
0.010006484
0.010016369
0.010006037
0.010013619
0.010005423
0.010015885
0.010005764
0.010016346
0.010006159
0.010016832
0.01000665
0.010017375
0.010007297
0.010017968
0.010008071
0.010018284
0.010007966
0.010016234
0.010007178
0.010017309
0.010007528
0.010017784
0.010007952
0.010018331
0.010008505
0.010018995
0.010009258
0.010019783
0.010010196
0.010020395
0.010010319
0.010018832
0.010009327
0.010018961
0.010009662
0.010019434
0.010010092
0.010020017
0.010010677
0.010020769
0.010011502
0.010021719
0.010012543
0.010022551
0.01001279
0.010021332
0.010011685
0.010021
0.010011994
0.010021439
0.010012412
0.010022011
0.010013003
0.010022789
0.010013851
0.010023809
0.01001491
0.01002474
0.010015142
0.010023697
0.010013801
0.010022984
0.010014078
0.010023364
0.010014471
0.010023897
0.010015041
0.010024653
0.010015871
0.010025673
0.010016894
0.01002662
0.010017076
0.010025682
0.010015666
0.010024796
0.010015909
0.01002513
0.010016267
0.010025613
0.010016801
0.01002632
0.010017587
0.010027308
0.010018552
0.010028227
0.010018706
0.010027425
0.010017235
0.010026385
0.010017457
0.010026688
0.010017779
0.010027124
0.010018259
0.010027763
0.010018969
0.010028661
0.010019859
0.010029566
0.010020086
0.010029019
0.010018492
0.010027753
0.010018697
0.010028034
0.010018986
0.010028426
0.010019409
0.010028991
0.010020037
0.010029791
0.010020865
0.01003068
0.010021232
0.010030443
0.010019279
0.010028776
0.01001947
0.010029036
0.010019732
0.010029386
0.010020108
0.010029881
0.010020667
0.010030589
0.010021445
0.010031456
0.010021974
0.010031531
0.010019653
0.010030123
0.010019823
0.010030357
0.010020061
0.010030677
0.010020408
0.010031133
0.010020934
0.010031804
0.010021698
0.01003268
0.010022362
0.010032996
0.010021242
0.0100391
0.010021406
0.010039351
0.010021641
0.010039702
0.010021998
0.010040219
0.01002255
0.010040997
0.010023358
0.010042056
0.01002411
0.01004268
0.010039665
0.010114522
0.010039919
0.010115099
0.010040286
0.010115933
0.010040847
0.010117199
0.010041708
0.010119156
0.010042894
0.010121937
0.0100437
0.010124187
0.010187095
0.01066208
0.010188152
0.010665139
0.010189731
0.010669805
0.010192193
0.010677164
0.010195942
0.010688791
0.010200706
0.010705421
0.010202012
0.010718625
0.011302775
0.014652945
0.011309363
0.014669879
0.011319711
0.014696862
0.011336119
0.014739931
0.011360744
0.014806423
0.011388703
0.014891364
0.011380234
0.01490906
0.018845064
0.040173782
0.018893151
0.040254106
0.018970663
0.040386385
0.019097074
0.040598201
0.019290498
0.040914163
0.019511748
0.041227902
0.019468432
0.040844491
0.058437071
0.16119038
0.058751265
0.1615908
0.059275653
0.16227493
0.060150245
0.16331566
0.061541522
0.16466709
0.063362512
0.16547641
0.064092922
0.16267843
0.25138512
0.67331291
0.25301204
0.67467708
0.25580761
0.67717326
0.26052774
0.68081317
0.2681401
0.68484834
0.27838903
0.68524275
0.28402115
0.67081752
1.0595562
2.4714201
1.0677573
2.4798693
1.0820118
2.4947116
1.1066946
2.5185818
1.1481156
2.5528374
1.2092349
2.58671
1.260941
2.5778093
3.8587646
7.1402651
3.8868619
7.1709387
3.936613
7.224183
4.0250378
7.3140608
4.1813381
7.4583609
4.4429856
7.6623013
4.7127948
7.8523713
10.279866
13.874665
10.329559
13.926345
10.416648
14.014778
10.573965
14.169953
10.859246
14.440533
11.363378
14.898714
12.106518
15.608152
16.268623
18.071351
16.319369
18.137151
16.407162
18.249647
16.56781
18.450723
16.86807
18.826029
17.43695
19.519341
18.442514
20.634576
17.344009
16.625464
17.384132
16.692656
17.454896
16.812328
17.590193
17.039262
17.871883
17.4905
18.493806
18.402907
19.772234
19.983933
7.9758386
6.3114566
7.9625872
6.3221287
7.9405549
6.3424798
7.9109227
6.3883575
7.8989959
6.5070408
8.020527
6.8153167
8.6168691
7.3995179
2.6812203
2.4912998
2.6457539
2.4227476
2.5837021
2.3055015
2.4806605
2.1107834
2.3228084
1.8084324
2.1350074
1.4214491
2.071199
1.1352376
11.245448
16.590651
11.692909
17.754902
11.400023
16.978297
11.710807
16.848541
16.761387
17.72525
16.723493
17.993182
16.86026
18.671665
18.585714
21.721028
14.976138
13.691011
15.278156
14.030816
16.059771
15.181083
17.969341
17.760061
8.4790375
7.1616676
8.8454793
7.5027633
9.561257
8.3934469
10.770816
10.007686
2.8283087
2.3231071
2.9793884
2.4694559
3.2409675
2.8142393
3.5864706
3.3644958
0.50937045
0.42922487
0.53464475
0.45621785
0.57290136
0.51567604
0.60722103
0.59550128
0.068975136
0.059140566
0.071169479
0.061670056
0.073516732
0.066558384
0.072684835
0.070528918
0.016971505
0.015540913
0.017089715
0.015687841
0.0170208
0.015855641
0.016183218
0.01546529
0.010853405
0.010659347
0.010842923
0.010652383
0.010777917
0.010617575
0.010570337
0.010469816
0.010076921
0.010060222
0.010070629
0.010051367
0.010057277
0.010038112
0.010027674
0.010011859
0.010005276
0.010006971
0.010001014
0.0099993866
0.0099958582
0.0099910251
0.0099882906
0.0099808109
0.010003036
0.010006981
0.0099991974
0.0099999417
0.0099946795
0.0099921123
0.0099885042
0.0099829295
0.010005351
0.010010267
0.01000174
0.01000377
0.0099972662
0.0099962838
0.0099910103
0.0099871952
0.01000797
0.010013468
0.010004666
0.010007701
0.010000403
0.01000087
0.0099941737
0.0099921271
0.010010699
0.010016631
0.010007759
0.010011636
0.010003816
0.010005552
0.0099977692
0.0099974107
0.010013178
0.010019493
0.010010487
0.010015088
0.010006822
0.010009671
0.010001054
0.01000226
0.010015214
0.010021876
0.01001269
0.010017876
0.010009252
0.010012981
0.010003775
0.010006197
0.01001695
0.010023941
0.010014539
0.010020218
0.010011252
0.010015689
0.01000597
0.010009367
0.010018453
0.01002585
0.010016173
0.010022394
0.010012966
0.01001808
0.010007729
0.010011935
0.010019824
0.010027691
0.010017694
0.010024463
0.01001446
0.010020175
0.010009063
0.010013974
0.010020851
0.010029257
0.010018855
0.010026203
0.010015587
0.010021892
0.010010025
0.010015603
0.010021603
0.010031283
0.010019664
0.010028154
0.010016328
0.010023606
0.010010534
0.010016991
0.010023559
0.010041424
0.010021186
0.010036629
0.010017413
0.01002971
0.010011187
0.010021052
0.010041974
0.010121204
0.010035254
0.010101278
0.010027156
0.010072864
0.010018062
0.010047942
0.010191994
0.010701071
0.010151253
0.010560072
0.010108875
0.010367304
0.010076032
0.010225942
0.011292319
0.014644928
0.011017291
0.013629552
0.010727789
0.012282487
0.010510227
0.011350455
0.018659585
0.038407167
0.016878906
0.032186459
0.014924224
0.02376088
0.013392594
0.017891847
0.061457374
0.15620103
0.051367344
0.12724134
0.039822313
0.085098957
0.030428304
0.052977807
0.27827089
0.65737968
0.22949664
0.54548168
0.17119798
0.37414762
0.12143953
0.22778857
1.2446868
2.532889
1.0338526
2.1292234
0.77156255
1.5400102
0.53932381
0.98076177
4.6388161
7.7498937
3.9469693
6.7465414
3.0545817
5.2831692
2.2051664
3.7211268
12.036975
15.67585
10.818837
14.53939
9.0908106
12.676269
7.1696509
10.28612
18.864288
20.777325
18.156401
20.133818
16.769543
18.951646
14.86375
17.317809
20.469582
20.41366
20.411098
20.409715
19.884949
20.198407
18.947872
19.843466
9.3489349
7.7642685
9.7517544
8.2233704
10.151244
8.8884355
10.86841
10.126873
2.1839639
1.1403762
2.4309851
1.3440564
2.8574498
1.7343196
3.5763029
2.5193202
34.401538
22.349518
30.195471
19.772717
31.481623
22.30756
27.842858
23.31901
27.448779
22.429352
33.303093
28.770728
17.561149
18.230311
18.526311
18.64694
22.523667
22.301786
9.3133176
10.488636
10.542803
11.482622
12.464021
12.784761
3.373357
3.8192338
4.2613961
4.6604243
5.1654311
5.1524684
0.71631112
0.77553023
1.0203771
1.0813117
1.4570787
1.4343251
0.10612125
0.11601163
0.18530141
0.20064813
0.39996861
0.40110743
0.022518911
0.024452449
0.039888221
0.043902276
0.13516517
0.13820089
0.011575185
0.011909403
0.015886792
0.016937059
0.049521279
0.050524476
0.010116383
0.010177279
0.011023571
0.011241784
0.02306224
0.023245461
0.0099502645
0.0099767496
0.010147093
0.01020186
0.01375159
0.013821954
0.0099413639
0.0099622259
0.0099864284
0.010009609
0.010980392
0.010998463
0.0099478742
0.0099655006
0.0099625552
0.0099780532
0.010226991
0.010228704
0.0099561893
0.0099706408
0.0099641596
0.0099758553
0.010018921
0.010023091
0.0099651928
0.0099764552
0.0099711656
0.0099796953
0.0099752445
0.0099789005
0.0099737509
0.0099821785
0.0099781892
0.0099840606
0.0099699749
0.0099722532
0.0099806853
0.0099868856
0.009983949
0.0099878702
0.0099716516
0.0099727406
0.0099863751
0.009990855
0.0099886957
0.0099911089
0.0099737189
0.0099739615
0.0099907742
0.0099939634
0.0099927709
0.0099941506
0.0099763615
0.00997566
0.0099941561
0.0099963395
0.0099955907
0.0099961429
0.0099790065
0.0099773609
0.0099967959
0.0099982021
0.0099979747
0.0099979429
0.0099809294
0.0099786531
0.009998587
0.0099993394
0.0099996108
0.0099990617
0.0099824637
0.0099795828
0.0099995911
0.0099997126
0.01000037
0.0099993801
0.0099834683
0.009980128
0.010000945
0.010000146
0.010000894
0.0099994904
0.0099839346
0.0099803053
0.010010827
0.010004575
0.010004829
0.010000877
0.0099847675
0.0099804618
0.010099985
0.01005379
0.010046923
0.010021633
0.0099947393
0.009984536
0.010846479
0.010530802
0.010444171
0.010254856
0.010104675
0.010039812
0.016705821
0.014545026
0.013884096
0.012464082
0.0112003
0.010654113
0.055847536
0.042004009
0.039112435
0.029506881
0.020587808
0.016225413
0.29799539
0.2072382
0.20978513
0.14231234
0.092400471
0.057644245
1.5659732
1.026235
1.2010314
0.76893772
0.5752396
0.33820305
6.034134
4.422379
5.0445745
3.5096456
3.068888
1.9685332
13.145029
11.356784
12.086684
9.9708815
10.405619
7.9359878
17.834763
16.695898
17.429016
15.90081
20.17517
18.035399
13.781003
13.057083
14.474929
13.67394
22.552346
21.743362
6.3019772
6.5193947
6.5685641
6.9909074
10.567723
11.474385
15.78499
4.5513285
5.1317372
7.1156969
10.069519
15.276335
14.978911
4.4383303
5.2305662
7.3979179
10.606814
16.272212
5.6857212
8.5383121
11.25672
13.181196
15.446183
18.43607
5.7505756
8.7346584
11.130683
13.068789
15.32864
18.112733
2.024592
8.5966865
14.585413
16.575476
17.111043
17.200468
2.2491629
9.2136579
14.231625
15.72071
16.119124
16.116368
0.69500846
3.028021
6.7384673
9.3891223
10.537386
10.574672
0.77678151
3.5840744
7.0327878
9.1563823
9.8810481
9.7508041
0.24675876
0.86681467
1.8531461
2.831326
3.5368749
3.7977658
0.27739674
1.010006
1.9418243
2.7826381
3.2903835
3.4167762
0.084682621
0.22926764
0.39945826
0.5519005
0.68222923
0.75719772