/*--------------------------------*- C++ -*----------------------------------*\
| =========                 |                                                 |
| \\      /  F ield         | OpenFOAM: The Open Source CFD Toolbox           |
|  \\    /   O peration     | Version:  2206                                  |
|   \\  /    A nd           | Website:  www.openfoam.com                      |
|    \\/     M anipulation  |                                                 |
\*---------------------------------------------------------------------------*/
FoamFile
{
    version     2.0;
    format      ascii;
    arch        "LSB;label=32;scalar=64";
    class       volScalarField;
    location    "500";
    object      nut;
}
// * * * * * * * * * * * * * * * * * * * * * * * * * * * * * * * * * * * * * //

dimensions      [0 2 -1 0 0 0 0];

internalField   nonuniform List<scalar> 
50904
(
4.5782946e-06
7.4345168e-06
4.8279077e-06
8.2117025e-06
1.6632047e-05
1.9373701e-05
1.5609539e-05
1.7967556e-05
3.155802e-05
3.1957309e-05
2.9131904e-05
3.0250769e-05
3.6335957e-05
3.4422992e-05
3.4481561e-05
3.276511e-05
2.5312853e-05
2.4757145e-05
2.3999309e-05
2.3460882e-05
1.4143409e-05
1.2755593e-05
1.363584e-05
8.0429616e-06
2.891459e-06
1.6668086e-06
2.0671927e-06
1.1675502e-06
6.2194667e-07
3.7639847e-07
4.651854e-07
2.8225128e-07
3.1508303e-07
2.1074732e-07
2.5829448e-07
1.7424888e-07
2.8039372e-07
1.9741004e-07
2.3817638e-07
1.6855852e-07
2.8768454e-07
2.0831635e-07
2.4559825e-07
1.7859837e-07
3.0547408e-07
2.2609737e-07
2.6124989e-07
1.9373552e-07
3.2882785e-07
2.4886098e-07
2.8150902e-07
2.1271347e-07
3.6056929e-07
2.7867059e-07
3.0884264e-07
2.3752514e-07
4.0490941e-07
3.1910536e-07
3.4660971e-07
2.7080189e-07
4.5859604e-07
3.6652322e-07
3.9130547e-07
3.0870196e-07
5.1924617e-07
4.1864861e-07
4.4104664e-07
3.4929312e-07
5.852388e-07
4.7355002e-07
4.9317732e-07
3.902022e-07
6.6347148e-07
5.3536335e-07
5.5049348e-07
4.3237918e-07
7.4882854e-07
6.0227448e-07
6.0674087e-07
4.7279699e-07
8.3494206e-07
6.7058482e-07
6.6573023e-07
5.1385849e-07
9.2557403e-07
7.4351959e-07
7.2529134e-07
5.5580746e-07
1.0047915e-06
8.0585142e-07
7.7635664e-07
5.935177e-07
1.0583651e-06
8.4485232e-07
8.1691719e-07
6.2307666e-07
1.0936792e-06
8.6836147e-07
8.4579774e-07
6.4604888e-07
1.1245446e-06
8.8955854e-07
8.8509206e-07
6.9105387e-07
1.2212734e-06
9.8962388e-07
1.0510034e-06
9.1473259e-07
1.8554721e-06
1.6600428e-06
2.0288458e-06
2.1479637e-06
5.9672879e-06
5.8791875e-06
7.6358524e-06
8.659879e-06
1.1031068e-05
1.2691217e-05
1.3004716e-05
1.6113205e-05
1.7339435e-05
2.1154785e-05
1.9950925e-05
2.5391152e-05
2.886802e-05
3.5608788e-05
3.2261316e-05
3.9791378e-05
3.6357463e-05
3.9970337e-05
3.6843754e-05
4.0589393e-05
2.757448e-05
2.8977171e-05
2.6937602e-05
2.7892373e-05
9.349639e-06
9.858244e-06
8.2605488e-06
8.6840122e-06
1.1243063e-06
1.1736916e-06
1.0069487e-06
1.1363535e-06
4.6290056e-06
8.1146534e-06
3.942504e-06
6.6886515e-06
3.5228239e-06
5.3907935e-06
3.2674532e-06
4.657338e-06
3.1038414e-06
4.1911078e-06
2.991035e-06
3.87451e-06
2.9048322e-06
3.6365893e-06
1.4796017e-05
1.7361839e-05
1.4189641e-05
1.6169167e-05
1.392963e-05
1.5240844e-05
1.3782737e-05
1.4743847e-05
1.368814e-05
1.4445841e-05
1.3621628e-05
1.4258198e-05
1.3569696e-05
1.4123833e-05
2.7497857e-05
2.8951843e-05
2.6121607e-05
2.6799108e-05
2.5717785e-05
2.5421584e-05
2.5521683e-05
2.4969203e-05
2.5417606e-05
2.4687903e-05
2.5289614e-05
2.4460175e-05
2.5223561e-05
2.4306133e-05
3.1765058e-05
3.2306204e-05
2.9317994e-05
2.9824002e-05
2.8730852e-05
2.8517026e-05
2.8447056e-05
2.8378954e-05
2.8163862e-05
2.8371675e-05
2.8075556e-05
2.8372069e-05
2.8057357e-05
2.8517946e-05
2.3675046e-05
2.3140647e-05
2.3403366e-05
2.2631001e-05
2.3199274e-05
2.0002037e-05
2.2783944e-05
1.9171688e-05
2.2588528e-05
1.8917413e-05
2.25661e-05
2.0013658e-05
2.2784336e-05
1.8663107e-05
1.0627441e-05
6.5348948e-06
9.0507048e-06
5.1838009e-06
9.1252413e-06
4.1472021e-06
8.9582339e-06
3.8932425e-06
9.0151367e-06
3.8090799e-06
1.0270064e-05
3.890867e-06
1.0775909e-05
4.5954554e-06
1.6830372e-06
9.5361793e-07
1.4471609e-06
7.020141e-07
1.3974923e-06
5.7274623e-07
1.3355621e-06
5.4607166e-07
1.3047574e-06
5.3641831e-07
1.2875544e-06
5.4486792e-07
1.2850174e-06
6.3582622e-07
3.8902476e-07
2.3441634e-07
3.457452e-07
1.7398074e-07
3.3090966e-07
1.4477058e-07
3.1520208e-07
1.4195091e-07
3.0841151e-07
1.4131458e-07
3.0504603e-07
1.4351389e-07
3.0430043e-07
1.6191392e-07
2.2642422e-07
1.5012177e-07
2.1230763e-07
1.1568257e-07
2.0358136e-07
9.8212347e-08
1.937092e-07
9.9238191e-08
1.9006066e-07
9.9652987e-08
1.8819825e-07
9.9398375e-08
1.8769059e-07
1.0093457e-07
2.1241518e-07
1.4629062e-07
2.0133188e-07
1.1173635e-07
1.9069114e-07
9.5538855e-08
1.7990825e-07
1.0004393e-07
1.7627157e-07
9.8548572e-08
1.7440235e-07
9.8459033e-08
1.738914e-07
9.824659e-08
2.195785e-07
1.5425147e-07
2.0709024e-07
1.1595246e-07
1.9395014e-07
1.0122531e-07
1.8193243e-07
1.073054e-07
1.7768794e-07
1.0312732e-07
1.7568702e-07
1.0361061e-07
1.7517847e-07
1.0212734e-07
2.3330822e-07
1.6702957e-07
2.1865347e-07
1.2309584e-07
2.0272523e-07
1.0752214e-07
1.8884516e-07
1.1505121e-07
1.8421758e-07
1.097443e-07
1.8207795e-07
1.1054135e-07
1.8152362e-07
1.0865559e-07
2.518042e-07
1.8208215e-07
2.3501273e-07
1.3178055e-07
2.158003e-07
1.1331854e-07
2.0053342e-07
1.1745392e-07
1.9634651e-07
1.2066731e-07
1.94724e-07
1.1928022e-07
1.940081e-07
1.1784825e-07
2.7550808e-07
2.0153924e-07
2.562062e-07
1.4451108e-07
2.3471003e-07
1.2378295e-07
2.1888485e-07
1.2993479e-07
2.1504715e-07
1.3323633e-07
2.1347265e-07
1.3217097e-07
2.1332249e-07
1.3105917e-07
3.091665e-07
2.2792104e-07
2.87789e-07
1.6306322e-07
2.6394966e-07
1.3962152e-07
2.474122e-07
1.4824085e-07
2.4400205e-07
1.5170164e-07
2.4292171e-07
1.5124397e-07
2.4317499e-07
1.5048078e-07
3.4827089e-07
2.5712514e-07
3.2564919e-07
1.8497652e-07
3.0056477e-07
1.6025501e-07
2.8327531e-07
1.6975753e-07
2.7995631e-07
1.7408875e-07
2.7934099e-07
1.7436789e-07
2.7965612e-07
1.7410719e-07
3.9117857e-07
2.8624805e-07
3.6715295e-07
2.0741297e-07
3.4040394e-07
1.8243338e-07
3.2217372e-07
1.9259941e-07
3.1873044e-07
1.9721754e-07
3.1826156e-07
1.9800742e-07
3.1846967e-07
1.9826244e-07
4.3537001e-07
3.1317067e-07
4.0935617e-07
2.2961987e-07
3.8070547e-07
2.0585366e-07
3.6150269e-07
2.1666825e-07
3.577728e-07
2.2119135e-07
3.5709507e-07
2.2228713e-07
3.5744472e-07
2.2319581e-07
4.8470291e-07
3.4011798e-07
4.5490246e-07
2.5181478e-07
4.2102912e-07
2.2916278e-07
3.9939068e-07
2.4077975e-07
3.9459779e-07
2.4508894e-07
3.9270748e-07
2.4633991e-07
3.9458179e-07
2.4853587e-07
5.3366489e-07
3.6528013e-07
4.9984397e-07
2.7302107e-07
4.5973806e-07
2.523175e-07
4.3538552e-07
2.6543871e-07
4.2959279e-07
2.7014899e-07
4.2726804e-07
2.7230428e-07
4.2944353e-07
2.7473922e-07
5.8591058e-07
3.9162078e-07
5.4668347e-07
2.9531531e-07
4.9767229e-07
2.7667165e-07
4.6895883e-07
2.9283071e-07
4.6198234e-07
3.0500222e-07
4.5987159e-07
3.5378169e-07
4.621253e-07
2.980491e-07
6.3573841e-07
4.1990498e-07
5.899053e-07
3.1936049e-07
5.3423542e-07
3.0338181e-07
5.0346477e-07
3.23626e-07
4.9762434e-07
3.3935683e-07
5.0223956e-07
4.0022457e-07
5.4541283e-07
3.2974675e-07
6.7679723e-07
4.5109603e-07
6.3076594e-07
3.4494695e-07
5.711758e-07
3.2939412e-07
5.3999772e-07
3.5324707e-07
5.4785534e-07
3.6797555e-07
6.4636812e-07
3.9904493e-07
7.2262343e-07
3.5891498e-07
7.0886722e-07
4.8208134e-07
6.6839785e-07
3.6997299e-07
6.1790012e-07
3.5033061e-07
5.87163e-07
3.7064754e-07
5.8780062e-07
3.8088458e-07
6.3800759e-07
3.9548102e-07
6.8361198e-07
3.8470488e-07
7.3257167e-07
5.1726529e-07
7.0349088e-07
4.0345286e-07
6.6964266e-07
3.8081671e-07
6.4525066e-07
3.9908406e-07
6.4115275e-07
4.048162e-07
6.4082969e-07
4.1020111e-07
6.5121358e-07
4.1661041e-07
7.7898793e-07
5.9894053e-07
7.6944573e-07
5.0678176e-07
7.5431303e-07
4.9529851e-07
7.388207e-07
5.2853867e-07
7.3917404e-07
5.3842529e-07
7.3921139e-07
5.4699295e-07
7.442449e-07
5.5642219e-07
1.0163483e-06
9.9491358e-07
1.0934434e-06
1.0820002e-06
1.1304777e-06
1.1718105e-06
1.1397097e-06
1.2756145e-06
1.1569802e-06
1.3399622e-06
1.1675307e-06
1.37502e-06
1.1795738e-06
1.4053972e-06
2.3739585e-06
3.0917108e-06
2.8857204e-06
4.1510364e-06
3.1676019e-06
5.1028553e-06
3.3035202e-06
5.6064856e-06
3.3893137e-06
5.7038922e-06
3.4400427e-06
5.6662763e-06
3.485289e-06
5.8491232e-06
9.6598271e-06
1.4224208e-05
1.2192445e-05
1.8995066e-05
1.3357962e-05
2.0882295e-05
1.3688807e-05
2.1776011e-05
1.3869569e-05
2.2227473e-05
1.3975243e-05
2.2447638e-05
1.4036387e-05
2.2574481e-05
1.5024272e-05
2.0227792e-05
1.699398e-05
2.5593544e-05
1.7902222e-05
2.835777e-05
1.84228e-05
2.9629818e-05
1.8667996e-05
3.0245163e-05
1.8828232e-05
3.0554453e-05
1.8923442e-05
3.076525e-05
2.3081903e-05
3.037505e-05
2.6018388e-05
3.6922619e-05
2.7194414e-05
4.046353e-05
2.8120159e-05
4.2362631e-05
2.8612704e-05
4.3392625e-05
2.8865251e-05
4.3962024e-05
2.9016614e-05
4.4285543e-05
3.6063639e-05
4.3476069e-05
3.9096455e-05
4.7895093e-05
4.0188986e-05
4.9775624e-05
4.1050507e-05
5.040847e-05
4.1547485e-05
5.0766894e-05
4.1838132e-05
5.0992796e-05
4.2016575e-05
5.1159309e-05
3.7617827e-05
4.2008917e-05
3.8738904e-05
4.3353016e-05
3.9725448e-05
4.3680947e-05
4.0400114e-05
4.3930778e-05
4.0802562e-05
4.4146457e-05
4.1044171e-05
4.431452e-05
4.1193863e-05
4.4448492e-05
2.6456716e-05
2.711963e-05
2.6594097e-05
2.6611084e-05
2.7030732e-05
2.6445881e-05
2.7373846e-05
2.6468986e-05
2.7587394e-05
2.6523552e-05
2.7721348e-05
2.6588002e-05
2.7812156e-05
2.6654053e-05
7.597948e-06
7.9111529e-06
7.221472e-06
6.9394764e-06
7.1384689e-06
6.3510153e-06
7.1277004e-06
6.0743418e-06
7.1173088e-06
5.9173531e-06
7.0994019e-06
5.8236351e-06
7.0824293e-06
5.7724547e-06
9.2567039e-07
1.2163277e-06
8.2777013e-07
1.1104096e-06
7.6106668e-07
9.762859e-07
7.2351966e-07
8.8510718e-07
7.0102103e-07
8.306814e-07
6.8753231e-07
8.0038726e-07
6.8000139e-07
7.848355e-07
2.8319317e-06
3.4397342e-06
2.7590619e-06
3.2447332e-06
2.7010831e-06
3.0982421e-06
2.6400511e-06
2.950177e-06
2.5551337e-06
2.748218e-06
2.4084619e-06
2.3973567e-06
1.3525961e-05
1.4014034e-05
1.3484653e-05
1.3918799e-05
1.3453097e-05
1.3843225e-05
1.342187e-05
1.3767315e-05
1.3376085e-05
1.3666935e-05
1.3310443e-05
1.3534363e-05
2.5186179e-05
2.4177736e-05
2.5169617e-05
2.4085926e-05
2.5155113e-05
2.4021197e-05
2.5121629e-05
2.3932775e-05
2.5099246e-05
2.3816023e-05
2.508379e-05
2.3710066e-05
2.8060296e-05
2.8590438e-05
2.8065095e-05
2.8621506e-05
2.806735e-05
2.8582952e-05
2.8083382e-05
2.8459496e-05
2.8121385e-05
2.8231656e-05
2.8379354e-05
2.7868758e-05
2.2802585e-05
1.9101915e-05
2.295644e-05
2.0864214e-05
2.2823736e-05
2.1849224e-05
2.2729704e-05
2.2071204e-05
2.2982551e-05
2.2028096e-05
2.2890298e-05
2.1964574e-05
1.1287561e-05
5.0500855e-06
1.149956e-05
4.8621913e-06
1.2251963e-05
4.7329639e-06
1.1788144e-05
4.6254032e-06
9.862049e-06
4.6040017e-06
9.7180441e-06
4.6879354e-06
1.2905879e-06
6.8112518e-07
1.2906526e-06
6.4803256e-07
1.2957613e-06
6.479764e-07
1.3140168e-06
6.4647962e-07
1.3578585e-06
6.4688927e-07
1.4328601e-06
6.5301234e-07
3.0561114e-07
1.6831322e-07
3.0586778e-07
1.64287e-07
3.0740807e-07
1.6578988e-07
3.1206337e-07
1.6673198e-07
3.228205e-07
1.6775816e-07
3.415175e-07
1.6983902e-07
1.887306e-07
1.1033317e-07
1.8936395e-07
1.0983739e-07
1.9045778e-07
1.1200968e-07
1.9350078e-07
1.1377343e-07
2.00345e-07
1.1530593e-07
2.1291628e-07
1.170105e-07
1.746938e-07
1.009982e-07
1.7537869e-07
1.0421525e-07
1.764226e-07
1.0648182e-07
1.792715e-07
1.091024e-07
1.8518811e-07
1.1108759e-07
1.9686614e-07
1.1253556e-07
1.75888e-07
1.0142715e-07
1.7666248e-07
1.0535691e-07
1.7771227e-07
1.0810715e-07
1.8034213e-07
1.1157699e-07
1.8637752e-07
1.1421811e-07
1.9816134e-07
1.1571662e-07
1.8221056e-07
1.0739045e-07
1.831307e-07
1.0810952e-07
1.8419621e-07
1.11808e-07
1.8674409e-07
1.1589467e-07
1.9236595e-07
1.1926802e-07
2.0381797e-07
1.2094632e-07
1.9481942e-07
1.1607331e-07
1.9604259e-07
1.1487215e-07
1.9712437e-07
1.1736812e-07
1.995266e-07
1.2212903e-07
2.0464212e-07
1.2625316e-07
2.1575475e-07
1.2844425e-07
2.1412144e-07
1.2918413e-07
2.1506612e-07
1.2729428e-07
2.1637015e-07
1.272021e-07
2.1878281e-07
1.3057281e-07
2.2383974e-07
1.3551111e-07
2.3466245e-07
1.3824282e-07
2.4406592e-07
1.486164e-07
2.4546219e-07
1.4646036e-07
2.4715308e-07
1.4556799e-07
2.494636e-07
1.4598436e-07
2.5427332e-07
1.494776e-07
2.6463644e-07
1.5319158e-07
2.8112367e-07
1.7274143e-07
2.8377077e-07
1.7075895e-07
2.8575658e-07
1.6922228e-07
2.8790391e-07
1.6818046e-07
2.9219514e-07
1.6721911e-07
3.015011e-07
1.6810069e-07
3.2063639e-07
1.9758259e-07
3.2461757e-07
1.960272e-07
3.2660665e-07
1.9407437e-07
3.2836104e-07
1.9233575e-07
3.3207182e-07
1.9051837e-07
3.4040488e-07
1.8917322e-07
3.6073546e-07
2.2325088e-07
3.6585202e-07
2.219702e-07
3.6749261e-07
2.1948643e-07
3.6859778e-07
2.1710237e-07
3.7165333e-07
2.1501483e-07
3.7923783e-07
2.136983e-07
4.0006428e-07
2.4978314e-07
4.0530674e-07
2.483511e-07
4.0611512e-07
2.4504382e-07
4.0620522e-07
2.4183422e-07
4.0873077e-07
2.3912756e-07
4.1719401e-07
2.371556e-07
4.3645105e-07
2.7662335e-07
4.4300636e-07
2.7544382e-07
4.4279982e-07
2.7087625e-07
4.4193149e-07
2.6654277e-07
4.4500949e-07
2.6298116e-07
4.5890761e-07
2.5984497e-07
4.705193e-07
3.1016262e-07
4.7866646e-07
3.075731e-07
4.7932015e-07
3.0183549e-07
4.8548897e-07
2.95189e-07
5.1403515e-07
2.8800414e-07
6.0908663e-07
2.78169e-07
5.7781449e-07
3.4113526e-07
6.0358931e-07
3.3669822e-07
6.3249845e-07
3.2700142e-07
6.7159847e-07
3.1617958e-07
6.8660526e-07
3.0714809e-07
6.6321459e-07
3.008345e-07
7.4365178e-07
3.6828293e-07
7.5901189e-07
3.6556039e-07
7.8105848e-07
3.5462514e-07
7.981805e-07
3.4372549e-07
7.8656679e-07
3.3511924e-07
7.5442914e-07
3.2938716e-07
7.1029018e-07
3.9302507e-07
7.2549243e-07
3.9171093e-07
7.4457085e-07
3.801886e-07
7.7571124e-07
3.6971759e-07
8.1197801e-07
3.6202863e-07
7.7767314e-07
3.5962177e-07
6.9015183e-07
4.241217e-07
7.0984954e-07
4.2332898e-07
7.2732727e-07
4.1168797e-07
7.5471202e-07
4.028102e-07
7.7986106e-07
3.9967513e-07
7.5613698e-07
4.0496325e-07
7.619182e-07
5.6783003e-07
7.832726e-07
5.6852735e-07
8.1763247e-07
5.5435059e-07
8.6557011e-07
5.4528784e-07
9.2085252e-07
5.4770041e-07
7.6037384e-07
5.7277047e-07
1.20851e-06
1.4339609e-06
1.2417194e-06
1.4376307e-06
1.2777041e-06
1.4112089e-06
1.3969678e-06
1.4022049e-06
1.210942e-06
1.440429e-06
1.2581212e-06
1.5417775e-06
3.5680687e-06
5.9319409e-06
3.6517328e-06
5.9539605e-06
3.6679072e-06
5.8767247e-06
3.6815564e-06
5.8814815e-06
3.7179767e-06
6.066084e-06
3.8455518e-06
6.5171191e-06
1.4072859e-05
2.2648068e-05
1.4123664e-05
2.2735987e-05
1.4174005e-05
2.2816617e-05
1.4234617e-05
2.2908112e-05
1.4327121e-05
2.3041532e-05
1.4507594e-05
2.3295036e-05
1.8979427e-05
3.0915209e-05
1.9060759e-05
3.1089691e-05
1.9143434e-05
3.1252915e-05
1.9245019e-05
3.1443236e-05
1.9402444e-05
3.1725469e-05
1.9714888e-05
3.2255093e-05
2.911259e-05
4.448101e-05
2.9237079e-05
4.4681515e-05
2.9371491e-05
4.4876061e-05
2.954083e-05
4.5106336e-05
2.9803602e-05
4.5448495e-05
3.0305119e-05
4.609865e-05
4.2143756e-05
5.1309345e-05
4.2165572e-05
5.1492111e-05
4.2374792e-05
5.1613791e-05
4.2504899e-05
5.1707284e-05
4.2677969e-05
5.1769659e-05
4.3035082e-05
5.1802413e-05
4.1294227e-05
4.4574309e-05
4.1363349e-05
4.4726109e-05
4.1437019e-05
4.4824185e-05
4.1526669e-05
4.4896032e-05
4.1656056e-05
4.4938765e-05
4.190793e-05
4.4961354e-05
2.7879861e-05
2.67208e-05
2.7919513e-05
2.6786054e-05
2.795906e-05
2.6832293e-05
2.800312e-05
2.6869065e-05
2.8061639e-05
2.6897475e-05
2.8161221e-05
2.6924737e-05
7.0755277e-06
5.7510516e-06
7.070873e-06
5.7396814e-06
7.0725036e-06
5.7370237e-06
7.072703e-06
5.7322675e-06
7.0664981e-06
5.718923e-06
7.036084e-06
5.6792732e-06
6.757571e-07
7.7660155e-07
6.7039404e-07
7.6679315e-07
6.6534413e-07
7.5725497e-07
6.5852742e-07
7.4470752e-07
6.4651691e-07
7.2331261e-07
6.2328381e-07
6.8124878e-07
2.1866476e-06
1.9200974e-06
2.0469843e-06
1.7036678e-06
2.0005526e-06
1.6758883e-06
1.9784614e-06
1.6693799e-06
1.9634193e-06
1.6697557e-06
1.9504807e-06
1.6772139e-06
1.3205427e-05
1.3357056e-05
1.3116016e-05
1.3248126e-05
1.3091379e-05
1.3226894e-05
1.3084472e-05
1.3239038e-05
1.3076101e-05
1.3234424e-05
1.307271e-05
1.3243404e-05
2.5021336e-05
2.3686772e-05
2.4941875e-05
2.3658475e-05
2.4852282e-05
2.3615652e-05
2.4822762e-05
2.3736655e-05
2.4823303e-05
2.3777005e-05
2.4830529e-05
2.3817792e-05
2.8480446e-05
2.7878909e-05
2.8449808e-05
2.775281e-05
2.8316473e-05
2.7598223e-05
2.8441489e-05
2.8032827e-05
2.8294905e-05
2.8483116e-05
2.8309696e-05
2.8497227e-05
2.2708453e-05
2.1893029e-05
2.2581366e-05
2.1822813e-05
2.2558773e-05
2.1785804e-05
2.2551714e-05
2.1758011e-05
2.255475e-05
2.1733065e-05
2.2559987e-05
2.1729532e-05
1.0407422e-05
4.8411321e-06
1.1547405e-05
5.0928085e-06
1.1482274e-05
5.2584164e-06
1.1502821e-05
5.3082889e-06
1.2775187e-05
5.3151143e-06
1.2772701e-05
5.7434431e-06
1.5063382e-06
6.6505539e-07
1.6512087e-06
6.947527e-07
1.6733159e-06
7.1348295e-07
1.6741784e-06
7.2790182e-07
1.6655147e-06
7.3609794e-07
1.7245062e-06
7.4040665e-07
3.6394655e-07
1.735284e-07
4.0491078e-07
1.8185946e-07
4.1091416e-07
1.8704718e-07
4.1493406e-07
1.9077487e-07
4.171469e-07
1.9266274e-07
4.1906645e-07
1.9457305e-07
2.3009285e-07
1.1903553e-07
2.5896332e-07
1.2406228e-07
2.637385e-07
1.2726872e-07
2.6658922e-07
1.2968074e-07
2.6921487e-07
1.3094589e-07
2.7264176e-07
1.3246212e-07
2.1400236e-07
1.1287581e-07
2.4002543e-07
1.1608652e-07
2.4392718e-07
1.1855535e-07
2.4611764e-07
1.2067608e-07
2.4812553e-07
1.2216254e-07
2.5181025e-07
1.2424455e-07
2.161576e-07
1.1477248e-07
2.4110088e-07
1.1701329e-07
2.4406662e-07
1.1926087e-07
2.4565137e-07
1.2133568e-07
2.4747588e-07
1.2292253e-07
2.5200806e-07
1.252249e-07
2.2213423e-07
1.1900862e-07
2.4576234e-07
1.2049087e-07
2.4759524e-07
1.2255273e-07
2.4892189e-07
1.2456524e-07
2.527174e-07
1.2605262e-07
2.5838652e-07
1.2822827e-07
2.3446972e-07
1.2614596e-07
2.5923624e-07
1.271456e-07
2.6024181e-07
1.2888711e-07
2.6055255e-07
1.3069088e-07
2.6420237e-07
1.3200755e-07
2.6970711e-07
1.3390195e-07
2.5334318e-07
1.3630008e-07
2.8246209e-07
1.3703969e-07
2.8247989e-07
1.3838825e-07
2.823331e-07
1.3977265e-07
2.8364857e-07
1.4079036e-07
2.8699344e-07
1.425948e-07
2.8247434e-07
1.5164565e-07
2.9738193e-07
1.5251936e-07
3.0334201e-07
1.5430145e-07
3.0574577e-07
1.5508896e-07
3.112359e-07
1.5670936e-07
3.1808041e-07
1.6028715e-07
3.1887513e-07
1.691295e-07
3.3356645e-07
1.7227192e-07
3.3865947e-07
1.7644541e-07
3.3967586e-07
1.7878002e-07
3.4227384e-07
1.802925e-07
3.5000371e-07
1.8422627e-07
3.5751107e-07
1.9145257e-07
3.7270508e-07
1.984331e-07
3.7825408e-07
2.027069e-07
3.7968264e-07
2.0435984e-07
3.8903055e-07
2.0529346e-07
4.0649654e-07
2.087669e-07
3.9726005e-07
2.1675229e-07
4.1618056e-07
2.2407802e-07
4.3651958e-07
2.2737504e-07
4.4215517e-07
2.2768248e-07
4.4159199e-07
2.2799418e-07
4.4970851e-07
2.3267523e-07
4.504351e-07
2.4015257e-07
4.8351359e-07
2.4599192e-07
4.8097092e-07
2.4881255e-07
4.764344e-07
2.4966879e-07
4.7544311e-07
2.4975041e-07
4.8125054e-07
2.5370898e-07
5.2970625e-07
2.5988466e-07
5.1563482e-07
2.650394e-07
5.1179618e-07
2.695014e-07
5.0575411e-07
2.6914123e-07
5.0328368e-07
2.6845303e-07
5.1248446e-07
2.7338411e-07
5.6925056e-07
2.7871512e-07
5.5322756e-07
2.8587191e-07
5.4936098e-07
2.8956368e-07
5.4206314e-07
2.8837695e-07
5.3953126e-07
2.8699612e-07
5.5172726e-07
2.9283703e-07
6.2435721e-07
3.0393034e-07
6.0212386e-07
3.1024361e-07
5.9740649e-07
3.1363947e-07
5.8982775e-07
3.104155e-07
5.8691771e-07
3.077542e-07
6.0368783e-07
3.1568103e-07
7.0306594e-07
3.3407416e-07
6.726823e-07
3.4164977e-07
6.6759966e-07
3.4418182e-07
6.6012444e-07
3.3900241e-07
6.5921161e-07
3.3579043e-07
6.7662458e-07
3.4538848e-07
7.2410433e-07
3.6959833e-07
7.3891888e-07
3.7839328e-07
7.4165226e-07
3.7853885e-07
7.3232474e-07
3.7188953e-07
7.3255272e-07
3.6869709e-07
7.5051412e-07
3.8199936e-07
7.2512349e-07
4.2189177e-07
8.3209741e-07
4.2948187e-07
8.3053673e-07
4.2617931e-07
8.1669504e-07
4.198757e-07
8.1760034e-07
4.172169e-07
8.3373511e-07
4.3482954e-07
8.0911371e-07
6.1184524e-07
9.9280823e-07
6.2450584e-07
9.9486198e-07
6.1894447e-07
9.8151125e-07
6.1168e-07
9.7962765e-07
6.0984518e-07
9.9500631e-07
6.3817497e-07
1.3302531e-06
1.678686e-06
1.6220384e-06
1.7658848e-06
1.7311696e-06
1.7556197e-06
1.7376693e-06
1.736426e-06
1.7453595e-06
1.7407456e-06
1.7697687e-06
1.8244303e-06
4.1438203e-06
7.1865378e-06
4.8818018e-06
7.6772993e-06
5.5085817e-06
7.6319514e-06
5.5499641e-06
7.5238707e-06
5.5999835e-06
7.5707757e-06
5.7390244e-06
7.9227074e-06
1.4800896e-05
2.3669248e-05
1.5151309e-05
2.4079216e-05
1.5303597e-05
2.4203024e-05
1.538664e-05
2.4257954e-05
1.5443632e-05
2.4290612e-05
1.5493708e-05
2.4313285e-05
2.0215048e-05
3.2938939e-05
2.0772558e-05
3.368719e-05
2.1040203e-05
3.3934968e-05
2.1183184e-05
3.4054285e-05
2.1281794e-05
3.4131968e-05
2.1367478e-05
3.4193706e-05
3.1024344e-05
4.7098069e-05
3.1891325e-05
4.8341761e-05
3.2315203e-05
4.8796316e-05
3.2545743e-05
4.9032389e-05
3.2705961e-05
4.919611e-05
3.2843301e-05
4.9340809e-05
4.3660214e-05
5.2264283e-05
4.4581014e-05
5.3260585e-05
4.5089324e-05
5.3621303e-05
4.5357688e-05
5.3755191e-05
4.5429951e-05
5.3801837e-05
4.5650943e-05
5.3836136e-05
4.2328111e-05
4.5457791e-05
4.2973781e-05
4.6425169e-05
4.331056e-05
4.6779494e-05
4.3492245e-05
4.6922164e-05
4.3617708e-05
4.6980368e-05
4.372528e-05
4.7035511e-05
2.8336092e-05
2.7187011e-05
2.8645115e-05
2.7730841e-05
2.8785207e-05
2.7933387e-05
2.8857314e-05
2.8022756e-05
2.890829e-05
2.8069923e-05
2.8956029e-05
2.8118914e-05
6.9767251e-06
5.627088e-06
6.9616008e-06
5.6554858e-06
6.9605992e-06
5.6838071e-06
6.9524491e-06
5.6972479e-06
6.9385589e-06
5.7028229e-06
6.9202377e-06
5.7064735e-06
5.8923403e-07
6.1599798e-07
5.6581926e-07
5.6965705e-07
5.5694011e-07
5.5254535e-07
5.509553e-07
5.4105524e-07
5.4582278e-07
5.3142786e-07
5.4047572e-07
5.2150801e-07
1.9354623e-06
1.6948132e-06
1.9269211e-06
1.7283429e-06
1.9204576e-06
1.7799183e-06
1.9196682e-06
1.8667083e-06
1.9289018e-06
2.0213967e-06
1.9688737e-06
2.3224522e-06
2.140434e-06
3.0378823e-06
1.3054184e-05
1.3235797e-05
1.3049946e-05
1.3242287e-05
1.3039883e-05
1.325909e-05
1.3025717e-05
1.3310766e-05
1.3020095e-05
1.3397659e-05
1.3008826e-05
1.3520547e-05
1.3022555e-05
1.3813088e-05
2.4810105e-05
2.3812046e-05
2.4835197e-05
2.3872065e-05
2.4872239e-05
2.3951026e-05
2.4970094e-05
2.4130565e-05
2.5028339e-05
2.4364326e-05
2.5107265e-05
2.4657732e-05
2.527283e-05
2.5154668e-05
2.8293701e-05
2.8293564e-05
2.8343523e-05
2.8244509e-05
2.8398612e-05
2.817396e-05
2.8478637e-05
2.8101077e-05
2.8734382e-05
2.8257578e-05
2.8909364e-05
2.8620004e-05
2.9116525e-05
2.9309931e-05
2.2559281e-05
2.174633e-05
2.2561303e-05
2.1775953e-05
2.2563417e-05
2.1817461e-05
2.2567229e-05
2.1870328e-05
2.2575858e-05
2.1954983e-05
2.2608924e-05
2.2006406e-05
2.2714485e-05
2.2016181e-05
1.1532986e-05
7.1422685e-06
1.2022308e-05
7.8436854e-06
1.1927949e-05
8.0513527e-06
1.2058774e-05
7.1017594e-06
1.2489353e-05
6.7634885e-06
1.278023e-05
7.7381409e-06
1.2790301e-05
8.9154715e-06
1.9719507e-06
7.688078e-07
1.7394262e-06
8.8926675e-07
1.8051331e-06
9.8674639e-07
1.8188228e-06
1.0139138e-06
1.8844758e-06
9.1093534e-07
2.0474444e-06
1.0366292e-06
2.2102976e-06
1.1652244e-06
4.3120276e-07
1.9771632e-07
4.6650696e-07
2.0277151e-07
4.4202129e-07
2.1414798e-07
4.5572413e-07
2.3800161e-07
4.7073578e-07
2.3687551e-07
5.1279663e-07
2.782937e-07
5.5725102e-07
3.2144559e-07
2.7625228e-07
1.3589624e-07
2.8388635e-07
1.4075614e-07
3.0177308e-07
1.4588983e-07
2.9351596e-07
1.5242403e-07
3.0699662e-07
1.6673524e-07
3.3516543e-07
1.9726496e-07
3.7475348e-07
2.3521833e-07
2.558403e-07
1.279483e-07
2.5911624e-07
1.3283834e-07
2.677561e-07
1.3802019e-07
2.862086e-07
1.4703457e-07
2.8402434e-07
1.6264134e-07
3.2038899e-07
1.9466286e-07
3.6598844e-07
2.3805658e-07
2.5872148e-07
1.2894542e-07
2.6515008e-07
1.3368329e-07
2.7231234e-07
1.3907674e-07
2.8015063e-07
1.4988251e-07
2.9426475e-07
1.6784982e-07
3.3171963e-07
2.0420119e-07
3.8565195e-07
2.5492608e-07
2.6519604e-07
1.3163278e-07
2.7211899e-07
1.3596113e-07
2.8041286e-07
1.4300249e-07
2.8995837e-07
1.5455687e-07
3.0630291e-07
1.7421547e-07
3.4773648e-07
2.1393335e-07
4.1377726e-07
2.7556581e-07
2.7633323e-07
1.3696176e-07
2.8389213e-07
1.424865e-07
2.9361836e-07
1.5127383e-07
3.0553474e-07
1.6349009e-07
3.2543042e-07
1.8465979e-07
3.7252042e-07
2.2847279e-07
4.5177655e-07
3.0181078e-07
2.9224247e-07
1.484226e-07
3.002556e-07
1.5591316e-07
3.1128207e-07
1.6507794e-07
3.2595284e-07
1.7807577e-07
3.5091755e-07
2.0130883e-07
4.0634763e-07
2.5088152e-07
5.0549346e-07
3.3715814e-07
3.2143199e-07
1.6654123e-07
3.2991607e-07
1.7427428e-07
3.4234736e-07
1.8411257e-07
3.603617e-07
1.9924455e-07
3.9182265e-07
2.2709375e-07
4.5956266e-07
2.8471283e-07
5.8340357e-07
3.8690259e-07
3.6192344e-07
1.9056629e-07
3.6625887e-07
1.9829726e-07
3.8016375e-07
2.0852638e-07
4.0245648e-07
2.2504761e-07
4.4226378e-07
2.5665055e-07
5.2434521e-07
3.2370374e-07
6.7369711e-07
4.4290814e-07
4.1052592e-07
2.1583453e-07
4.1105521e-07
2.238186e-07
4.2135683e-07
2.346755e-07
4.4738205e-07
2.5301459e-07
4.9519567e-07
2.8875731e-07
5.9255924e-07
3.6352751e-07
7.6915924e-07
4.9793076e-07
4.5541928e-07
2.4097302e-07
4.5503499e-07
2.4883538e-07
4.6120607e-07
2.5987455e-07
4.8936424e-07
2.7966141e-07
5.4292984e-07
3.1778399e-07
6.5248883e-07
3.9778316e-07
8.4922274e-07
5.4207208e-07
4.8872043e-07
2.6276038e-07
4.9306077e-07
2.7238421e-07
4.9812278e-07
2.8331836e-07
5.2542657e-07
3.0227309e-07
5.8024538e-07
3.4018577e-07
6.937619e-07
4.2051245e-07
9.0549356e-07
5.7098705e-07
5.2141614e-07
2.8336057e-07
5.2382329e-07
2.9268215e-07
5.2907205e-07
3.0322674e-07
5.5516275e-07
3.2100688e-07
6.079032e-07
3.5612265e-07
7.188997e-07
4.3217046e-07
9.3284934e-07
5.801147e-07
5.6120158e-07
3.0326498e-07
5.6238556e-07
3.1235364e-07
5.6110941e-07
3.2270447e-07
5.8396156e-07
3.3937186e-07
6.3351777e-07
3.7120666e-07
7.3899668e-07
4.4184613e-07
9.5172361e-07
5.8585596e-07
6.1547334e-07
3.2780175e-07
6.164354e-07
3.3633134e-07
6.145768e-07
3.4607744e-07
6.240877e-07
3.6296724e-07
6.7135152e-07
3.9467491e-07
7.7527056e-07
4.6352378e-07
9.8739642e-07
6.0656819e-07
6.9073763e-07
3.5942316e-07
6.9897217e-07
3.6827825e-07
6.9873181e-07
3.7735477e-07
7.0388811e-07
3.9481247e-07
7.2898158e-07
4.3010758e-07
8.3647911e-07
5.0538077e-07
1.0631612e-06
6.6085348e-07
7.640592e-07
3.9926004e-07
7.753181e-07
4.0853671e-07
7.7772634e-07
4.1871048e-07
7.8733374e-07
4.38977e-07
8.1115775e-07
4.8061035e-07
9.0510994e-07
5.6959e-07
1.1444897e-06
7.4884576e-07
8.4669434e-07
4.5626985e-07
8.608893e-07
4.6757728e-07
8.6751476e-07
4.8201248e-07
8.8492754e-07
5.1093438e-07
9.1765545e-07
5.6885228e-07
9.8927588e-07
6.9285118e-07
1.2413636e-06
9.2964852e-07
1.0074799e-06
6.7118402e-07
1.0240449e-06
6.8942183e-07
1.0313008e-06
7.1436647e-07
1.0546452e-06
7.6470911e-07
1.1016326e-06
8.6620235e-07
1.20612e-06
1.0803412e-06
1.4165983e-06
1.4717174e-06
1.7862594e-06
1.9213923e-06
1.8123983e-06
1.9749992e-06
1.8245686e-06
2.0505618e-06
1.8753398e-06
2.1999027e-06
1.9807364e-06
2.5002285e-06
2.1874561e-06
3.1744578e-06
2.4884934e-06
6.6185381e-06
5.8427497e-06
8.3070304e-06
5.9281522e-06
8.5329722e-06
5.945059e-06
8.8651002e-06
6.1412106e-06
9.5859299e-06
6.5991619e-06
1.110875e-05
7.4295489e-06
1.4948369e-05
8.5732006e-06
1.9456868e-05
1.5547195e-05
2.4324551e-05
1.5598559e-05
2.4344796e-05
1.5684077e-05
2.4381384e-05
1.5826695e-05
2.4433889e-05
1.6055854e-05
2.449078e-05
1.637198e-05
2.4493284e-05
1.6597964e-05
2.4261855e-05
2.1454559e-05
3.4244136e-05
2.1545715e-05
3.4306056e-05
2.1702076e-05
3.4415513e-05
2.1969713e-05
3.459246e-05
2.241231e-05
3.4848402e-05
2.3054849e-05
3.5106535e-05
2.3592105e-05
3.5040675e-05
3.2973054e-05
4.9488885e-05
3.3118565e-05
4.9640978e-05
3.337536e-05
4.9904501e-05
3.3828439e-05
5.0357928e-05
3.4616918e-05
5.1110547e-05
3.5896617e-05
5.2225076e-05
3.7146381e-05
5.3294925e-05
4.5687259e-05
5.3859339e-05
4.57508e-05
5.3870891e-05
4.5890732e-05
5.3927558e-05
4.6209888e-05
5.4097628e-05
4.6990446e-05
5.4584095e-05
4.9076662e-05
5.6067582e-05
5.3696734e-05
5.9881973e-05
4.3772152e-05
4.7159966e-05
4.3840972e-05
4.7285107e-05
4.3983055e-05
4.752013e-05
4.4288508e-05
4.7984727e-05
4.4972275e-05
4.8943115e-05
4.6596809e-05
5.0891888e-05
5.040457e-05
5.4127423e-05
2.8967087e-05
2.8204044e-05
2.8995172e-05
2.8301722e-05
2.9063154e-05
2.8493077e-05
2.9220944e-05
2.8876661e-05
2.9615064e-05
2.9664399e-05
3.0658421e-05
3.1283014e-05
3.3249362e-05
3.3940702e-05
6.897639e-06
5.715181e-06
6.8790483e-06
5.7270407e-06
6.8486033e-06
5.7511449e-06
6.8020421e-06
5.8013e-06
6.7504421e-06
5.9184987e-06
6.7686889e-06
6.1887816e-06
7.1064725e-06
6.5636507e-06
5.3239498e-07
5.0751691e-07
5.2414156e-07
4.9238512e-07
5.1009565e-07
4.6690542e-07
4.8686289e-07
4.2487103e-07
4.5085233e-07
3.5984966e-07
4.0539461e-07
2.7641008e-07
3.7686057e-07
2.1106756e-07
2.3059355e-06
3.4654302e-06
2.3591653e-06
3.6264976e-06
2.2476694e-06
3.366736e-06
2.2323787e-06
3.2141986e-06
1.2953003e-05
1.3916998e-05
1.2852772e-05
1.3965999e-05
1.2755212e-05
1.4019587e-05
1.3754644e-05
1.6032299e-05
2.5395788e-05
2.5424824e-05
2.5676048e-05
2.5692334e-05
2.6451465e-05
2.6422397e-05
2.9417402e-05
2.9794505e-05
2.943276e-05
2.9723021e-05
2.9947397e-05
2.9866232e-05
3.1256357e-05
3.0613937e-05
3.5201879e-05
3.455828e-05
2.2641292e-05
2.1996018e-05
2.2770887e-05
2.2250846e-05
2.3011172e-05
2.2925728e-05
2.367647e-05
2.4356682e-05
1.2627969e-05
9.8241482e-06
1.260189e-05
1.0941832e-05
1.2554491e-05
1.2962762e-05
1.2706941e-05
1.353086e-05
2.3788048e-06
1.273651e-06
2.7213878e-06
1.4553888e-06
3.307987e-06
1.8825068e-06
3.7840561e-06
2.3836563e-06
5.9574488e-07
3.5309385e-07
6.6244472e-07
3.8915255e-07
7.6580062e-07
4.6210332e-07
8.3541255e-07
5.2854718e-07
4.0366677e-07
2.6188966e-07
4.434693e-07
2.8614097e-07
5.0279903e-07
3.288525e-07
5.5977385e-07
3.7341477e-07
4.011736e-07
2.697089e-07
4.4011221e-07
2.9539973e-07
4.9274327e-07
3.3407606e-07
5.4719644e-07
3.754093e-07