/*--------------------------------*- C++ -*----------------------------------*\
| =========                 |                                                 |
| \\      /  F ield         | OpenFOAM: The Open Source CFD Toolbox           |
|  \\    /   O peration     | Version:  2206                                  |
|   \\  /    A nd           | Website:  www.openfoam.com                      |
|    \\/     M anipulation  |                                                 |
\*---------------------------------------------------------------------------*/
FoamFile
{
    version     2.0;
    format      ascii;
    arch        "LSB;label=32;scalar=64";
    class       volScalarField;
    location    "500";
    object      omega;
}
// * * * * * * * * * * * * * * * * * * * * * * * * * * * * * * * * * * * * * //

dimensions      [0 0 -1 0 0 0 0];

internalField   nonuniform List<scalar> 
50904
(
5066000.3
5110885.8
5037721
5072700.1
1316126
1301767.5
1297752
1255066.5
519222.54
494317.18
509938.62
472867.5
271232.62
246677.46
260188.23
232924.35
142391.03
124143.64
132146.73
113912.13
52605.149
45939.898
46997.173
40724.673
13579.376
12629.676
11943.97
11292.134
3575.0931
3525.7068
3090.3147
2987.5185
705.18559
686.31199
568.59195
549.21139
126.55333
138.42262
103.1869
115.40462
41.536658
53.962398
39.51703
52.717008
33.354007
44.830108
33.525188
45.727514
31.767068
42.022655
31.947174
42.946289
30.129764
39.207652
30.256479
40.112365
28.30791
36.23277
28.380912
37.117205
26.35904
33.21016
26.37011
34.075991
24.496573
30.465941
24.517563
31.369074
22.876336
28.100579
22.874124
29.03613
21.260145
25.824935
21.322946
26.953016
19.922306
23.934157
20.024287
25.25147
18.85994
22.432008
18.926899
23.814345
18.074245
21.313415
18.135388
22.776252
17.581837
20.671823
17.729165
22.517049
17.635391
21.135667
18.453252
25.478705
20.127873
26.647732
26.022105
45.477059
41.327473
64.536604
78.762059
156.53183
194.8362
293.48431
386.36196
686.35319
1136.7053
1543.2755
1896.4026
2850.4939
5578.0257
6986.9732
8110.6604
11085.912
23711.693
28742.144
29808.105
37424.12
76407.859
88155.969
85702.802
98938.865
179437.8
186690.68
188739.04
192255.74
321771.49
315485.82
325834.34
313742.14
576312.7
564518.05
573953.46
556857.67
1255715.6
1250807.8
1238726.1
1235764.8
5026280.7
5031331
5066047.9
5059199.1
4972816.8
4976154.7
4888625.2
4842887.1
4852402.1
4765812.7
4832826.1
4724837.2
4821836.5
4700885.4
4815477.9
4686217.3
4811620.8
4676589.2
1264499.5
1217488.4
1239786.3
1220054.9
1239226.2
1232461.9
1240286.2
1239841.3
1241928.7
1245644
1243297.7
1249535.8
1244282.9
1252168.8
505959.98
466223.55
507154.28
477120.34
510469.93
483717.67
512150.94
485934.53
513195.49
487687.62
513819.85
488874.37
514252.47
489703.72
255391.54
228772.66
252651.51
228102.75
252782.5
227588.38
252701.45
226707.92
252605.86
226318.59
252547.91
226137.81
252505.9
226058.96
127307.98
110059.35
122782.57
106528.32
121824.33
105280.9
121195.43
104243.45
120825.8
103598.25
120595.89
103169.89
120431.79
102926.06
44541.611
38835.178
41780.591
37182.273
40972.941
36715.996
40426.892
36019.062
40070.608
35483.524
39831.794
35079.095
39701.56
34793.174
11277.913
10955.428
10372.573
11006.014
10082.653
10943.987
9921.4912
10558.369
9811.0202
10263.972
9729.2795
10044.673
9662.0495
9886.2452
2826.8739
2749.4865
2450.7573
2517.1396
2333.1771
2426.3713
2271.3791
2319.2816
2231.8238
2248.7468
2204.4896
2200.0855
2183.8846
2165.5703
505.64434
495.46075
425.16299
448.36483
401.82543
432.72473
389.78741
412.18527
382.15576
400.14174
376.92056
391.9863
372.98594
385.89029
92.317382
107.45089
78.448867
103.5026
74.500601
99.779803
72.36349
94.2184
70.840102
91.266912
69.755676
89.177645
68.928483
87.671572
38.289864
53.417799
35.856371
57.446416
35.070502
56.225286
34.449759
53.422169
33.873792
51.993762
33.42651
50.865842
33.07543
50.083749
33.223184
47.240314
31.941508
52.206306
31.527595
51.375219
31.082405
48.893666
30.604059
47.685804
30.223158
46.719914
29.923608
46.065464
31.675727
44.534708
30.58246
49.657896
30.237999
49.096439
29.809688
46.680142
29.340435
45.280895
28.975468
44.468747
28.696248
43.886802
30.065779
41.792336
29.152909
46.626564
28.813957
46.206265
28.389015
43.957245
27.939685
42.726443
27.599589
42.015917
27.344672
41.520702
28.244742
38.843847
27.488467
43.11996
27.122869
42.798186
26.69955
40.768054
26.276537
39.71456
25.967145
39.109719
25.74335
38.70289
26.280659
35.831969
25.650555
39.425249
25.245871
39.098155
24.833946
37.374069
24.446608
36.480603
24.170825
35.981948
23.977865
35.659731
24.495156
33.192597
24.005143
36.198439
23.59701
35.802548
23.209832
34.318226
22.861313
33.537133
22.617905
33.099039
22.451515
32.821651
22.910922
30.912962
22.550567
33.408658
22.165072
32.935174
21.810468
31.66776
21.499857
30.993596
21.285549
30.610323
21.141069
30.370182
21.450684
28.825113
21.241717
30.994406
20.954517
30.530006
20.660558
29.468819
20.393676
28.905197
20.206888
28.581742
20.079255
28.380094
20.217744
27.0463
20.083834
28.904293
19.882557
28.444335
19.644714
27.568458
19.417503
27.119299
19.255152
26.866787
19.142807
26.713508
19.158805
25.49266
19.097155
27.066267
18.955886
26.574309
18.741834
25.80326
18.523443
25.426453
18.362804
25.253969
18.250482
25.270736
18.37406
24.372454
18.345817
25.749968
18.189222
25.224875
17.937454
24.542447
17.68862
24.247666
17.508211
24.140603
17.388676
24.198917
18.049229
24.422503
18.058139
26.124108
17.884013
25.725966
17.591268
25.110889
17.304897
24.871949
17.114068
24.798367
17.045282
24.821142
19.600439
30.409923
20.294322
35.728663
20.396172
36.650484
20.279109
36.368496
20.097366
36.235766
19.962666
36.189587
19.903318
36.199524
33.025486
67.848705
38.310051
93.856671
40.141406
102.79691
40.882201
104.72806
41.079598
105.37491
41.121614
105.58984
41.119248
105.68206
119.9721
261.53474
151.48307
385.91197
163.55789
439.38602
169.79297
458.11351
172.58841
466.18129
173.94684
469.7213
174.63904
471.46916
597.01814
1152.6539
755.13999
1703.1033
815.62698
1952.9452
849.58145
2058.2803
866.92682
2107.2461
876.33611
2131.399
881.60406
2144.0821
2709.4707
4355.1384
3279.5949
6055.8528
3485.9878
6808.5337
3594.3132
7174.776
3648.8125
7361.1538
3677.6137
7452.5219
3693.2689
7498.3702
10888.499
15739.606
12822.666
20781.883
13551.269
23004.671
13925.349
24028.533
14116.96
24544.618
14222.136
24800.104
14280.421
24945.579
36442.875
47123.236
40840.909
57513.309
42510.828
62231.481
43383.213
64134.979
43775.236
65004.185
44037.115
65430.687
44191.501
65732.385
96637.788
110078
103437.76
123720.92
105500.77
130909.77
107173.15
134113.87
107989.93
135619.87
108351.69
136373.86
108565.05
136779.1
196400.99
198625.82
202530.24
211783.1
205433.82
221201.78
206761.51
225224.27
207447.85
227029.06
207804.58
227873.43
207993.5
228297.44
327646.26
314414.53
330258.23
325793.11
331091.5
336574.4
331336.77
341424.56
331458.01
343467.66
331498.49
344310.45
331501.82
344655.69
570582.25
548831.48
566476.53
550212.53
564617.72
559405.5
563551.61
564761.26
563134.89
567465.99
562916.9
568693.33
562716.72
569087.1
1212510
1208034.2
1181516.1
1162485.9
1168258.9
1140381.2
1161224.3
1130669.1
1157850.5
1127578
1156755
1127852.6
1156961.2
1129087.8
5053154.4
5031298.9
5003609.5
4955937.3
4979890.3
4917002
4967296.6
4895934.6
4960023.1
4884032.9
4955315.1
4876796.5
4951781.2
4871865.3
4808166.9
4668306
4804084.1
4659307.4
4800744.5
4652423.3
4796947.1
4645086.6
4791084.4
4634333.9
4779866.4
4614133.3
1244949.7
1254018.8
1245578.2
1255628.4
1245946.5
1256495.6
1246222.1
1257143.9
1246460.6
1257815.3
1246113.5
1258150.7
514602.23
490342.1
514995.66
490978.76
515270.02
491397.68
515505.23
491754.95
515718.63
492089.89
515748.88
492196.17
252470.19
225995.4
252473.46
226004.57
252441.07
226009.35
252383.46
226020.71
252291.26
226051.35
252133.42
226117.52
120315.77
102626.43
120231.17
102370.2
120149.83
102225.86
120038.43
102092.1
119845.98
101925.78
119430.52
101678.01
39610.442
34701.716
39545.509
34687.599
39497.711
34658.238
39455.167
34612.773
39387.225
34529.148
39192.09
34346.911
9604.5899
9819.1443
9547.8395
9782.6934
9503.0655
9743.7992
9455.5175
9705.4513
9390.6812
9651.4818
9281.749
9543.0629
2166.877
2148.0917
2150.0157
2133.9362
2137.3142
2122.6312
2124.3838
2111.9164
2106.711
2097.4204
2074.7237
2069.1927
369.74275
381.19698
366.47556
377.75267
364.02579
375.24773
361.53456
372.97019
358.11127
370.02519
351.84214
364.38514
68.244154
86.472206
67.553321
85.361083
67.046858
84.663753
66.538043
84.034545
65.845441
83.245963
64.572168
81.77964
32.784191
49.449949
32.484894
48.781618
32.269888
48.370045
32.056273
48.004688
31.765023
47.558493
31.227387
46.742189
29.677656
45.53999
29.422513
44.974238
29.240367
44.58428
29.059621
44.244884
28.812298
43.835911
28.349784
43.10495
28.470853
43.43801
28.236497
42.945612
28.070181
42.584765
27.905189
42.253598
27.67823
41.856466
27.247173
41.157735
27.146114
41.152007
26.939209
40.746699
26.791288
40.444714
26.644843
40.143743
26.442688
39.759735
26.055487
39.089002
25.575259
38.409753
25.401985
38.091092
25.278781
37.853364
25.157377
37.611239
24.988884
37.271567
24.662577
36.637828
23.837226
35.43593
23.69404
35.197286
23.593922
35.022388
23.495565
34.842236
23.358206
34.579138
23.088037
34.020212
22.333172
32.633871
22.213241
32.437443
22.130641
32.296649
22.049358
32.150987
21.934732
31.934516
21.705668
31.464518
21.040788
30.211328
20.939585
30.047225
20.87071
29.931643
20.802583
29.811449
20.705375
29.630454
20.508249
29.235431
19.992807
28.250978
19.906688
28.119948
19.848279
28.030231
19.789965
27.93686
19.705413
27.794233
19.531582
27.477997
19.066135
26.614749
18.990427
26.515591
18.940119
26.452441
18.889555
26.386932
18.815311
26.284435
18.662701
26.049959
18.172509
25.194666
18.095073
25.136212
18.04238
25.104646
17.988794
25.07381
17.914624
25.021281
17.796471
24.88121
17.326965
24.157671
17.275773
24.128512
17.247896
24.117356
17.23035
24.10408
17.22326
24.069811
17.221403
23.955571
17.021472
24.79334
17.001301
24.770659
16.99357
24.766437
16.993667
24.760454
17.001979
24.738157
17.013849
24.65149
19.879177
36.18793
19.861672
36.185796
19.858476
36.212848
19.865724
36.245622
19.89212
36.281307
19.969727
36.299473
41.114053
105.7356
41.162081
105.86396
41.244481
106.07586
41.370177
106.33279
41.596722
106.69154
42.074647
107.28152
175.02358
472.44285
175.59114
473.65979
176.27157
475.12983
177.2228
476.8842
178.84903
479.41941
182.25746
483.98951
884.70141
2151.3572
888.7668
2160.1344
893.25061
2169.1972
899.14337
2179.7037
909.3444
2195.0568
926.02232
2224.444
3702.1543
7525.1686
3718.6767
7562.5244
3736.5053
7599.2847
3759.0471
7642.5358
3794.2976
7707.5728
3863.207
7835.3962
14313.553
25029.982
14375.192
25147.737
14440.706
25264.152
14523.377
25403.688
14652.423
25614.432
14904.536
26022.341
44281.381
65952.538
44441.432
66245.98
44611.987
66535.457
44828.606
66885.276
45170.068
67416.417
45849.795
68428.711
108705.09
137019.72
108963.51
137344.13
109254.25
137674.17
109630.61
138074.33
110225.35
138673.38
111359.22
139788.81
208104.39
228538.96
208347.21
228875.29
208597.41
229205.59
208908.99
229596.8
209389.43
230174.92
210294.65
231232.59
331497.85
344814.94
331704.81
345116.78
331875.6
345424.11
332072.98
345791.58
332382.25
346335.96
333028.51
347316.08
562475.68
569065.44
562509.21
569147.54
562440.6
569167.79
562364.46
569243.06
562349.78
569484.45
562614.14
570145.62
1157049
1129380.9
1157250
1128750.5
1156531.1
1126725.2
1155530.4
1124180.4
1154349.6
1120911.9
1153768.2
1117065.1
4949320.8
4868087.8
4954549.5
4871325.6
4959050.6
4873811.8
4963948.2
4876051.8
4971485.6
4878970.9
4982573.5
4881897.4
4761147.4
4587376.4
4748103.5
4573638.1
4743551.6
4569385.5
4741181.1
4567416.7
4739368.7
4566024.2
4737415.2
4564626
1242556.1
1254039.9
1241250.9
1250667.6
1241072.3
1248001.3
1240471.6
1245837.3
1239984.7
1244683.3
1239516.4
1243603.4
515215.8
491288.09
515030.53
490284.32
514814.68
489042.29
514522.84
488009.35
514233.79
487463.01
513903.73
486995.09
251640.69
225893.34
251196.56
225570.06
250901.33
225130.39
250750.65
224833.2
250652.4
224698.25
250539.45
224699.86
118636.93
101435.87
117961.08
101132.26
117763.26
100940.65
117677.29
100806.47
117654.64
100696.54
117663.81
100678.03
38743.536
33878.925
38246.44
33304.691
38122.931
33083.531
38062.372
32962.05
38027.124
32867.735
38017.216
32764.659
9048.5931
9220.004
8821.0385
8805.319
8754.3036
8628.9292
8721.5952
8528.924
8697.9156
8452.9642
8671.6617
8370.7779
1998.2158
1988.1785
1924.4479
1895.5212
1901.9037
1862.3597
1890.6166
1845.5716
1882.7382
1833.7558
1875.0244
1821.5986
336.85164
348.35782
322.6164
329.77568
318.21752
322.90555
316.01448
319.3778
314.46238
316.84528
312.95137
314.21532
61.476514
77.483987
58.598787
72.310491
57.730211
70.304697
57.289462
69.256095
56.973264
68.49989
56.65661
67.720699
29.881143
44.30953
28.619846
41.26138
28.232471
40.041928
28.029655
39.403076
27.880299
38.941641
27.726892
38.466623
27.185147
40.950942
26.084894
38.206175
25.732522
37.084464
25.5423
36.494861
25.400569
36.06911
25.25838
35.631232
26.16128
39.148026
25.128712
36.618575
24.797217
35.575629
24.616277
35.023496
24.479557
34.622854
24.341659
34.210005
25.070615
37.199883
24.1231
34.890819
23.827623
33.933881
23.666316
33.422089
23.54445
33.046283
23.417963
32.655872
23.82998
34.902579
23.021387
32.835783
22.709541
31.974795
22.54787
31.521891
22.429006
31.186276
22.311069
30.840868
22.390471
32.381522
21.706617
30.535047
21.438032
29.786663
21.296849
29.406418
21.191233
29.131293
21.082553
28.8468
21.108219
30.033919
20.513905
28.457901
20.276707
27.851336
20.15182
27.54312
20.058468
27.317377
19.967636
27.081052
19.991249
28.044929
19.470506
26.741746
19.26697
26.24576
19.173248
25.989822
19.106431
25.797529
19.035144
25.592473
19.078208
26.495536
18.658061
25.380692
18.526378
24.966882
18.452922
24.749184
18.394721
24.585538
18.331316
24.408284
18.281177
25.260502
18.012239
24.269411
17.904775
23.922092
17.843722
23.743616
17.794087
23.606442
17.737849
23.452977
17.696664
24.256028
17.458964
23.336776
17.37419
23.053222
17.326048
22.906906
17.285852
22.792144
17.238763
22.65912
17.141469
23.411165
16.938437
22.601524
16.870149
22.363005
16.830618
22.239412
16.797144
22.139573
16.757079
22.02048
16.962177
24.174833
16.789873
23.446647
16.732737
23.235495
16.699223
23.123757
16.670681
23.030727
16.636865
22.918442
20.005346
35.86093
19.878746
35.168429
19.872699
34.99281
19.867938
34.890631
19.857795
34.794837
19.839901
34.668639
42.58422
106.89537
42.75272
105.97793
43.057396
105.79816
43.207364
105.63151
43.28946
105.43247
43.33906
105.12328
185.30004
486.40513
187.71353
487.5997
189.78356
488.08072
190.78663
487.89459
191.36243
487.39573
191.72841
486.3816
949.01463
2258.0097
971.91432
2292.6269
986.56779
2303.7161
994.45582
2307.0469
999.55891
2307.5861
1003.6035
2305.761
3963.3638
8013.7013
4073.835
8226.4208
4136.2375
8303.5427
4170.8855
8338.2061
4194.0906
8358.4106
4213.5211
8372.4993
15272.105
26579.677
15666.361
27206.647
15873.502
27436.32
15983.755
27543.449
16056.467
27608.737
16115.053
27654.601
46868.368
69655.892
47933.417
71003.511
48524.1
71523.812
48836.696
71778.093
49046.217
71941.996
49219.682
72069.264
112879.53
141257.55
114569.5
142859.67
115529.75
143483.11
116058.88
143793.59
116422.51
143995.06
116730.06
144151.85
211595.22
232546.61
212957.7
233697.92
213742.38
234109.76
214195.95
234308.34
214518.75
234429.77
214806.3
234507.85
334182.63
348335.34
335124.61
348679.67
335467.75
348670.24
335680.89
348637.98
335844.13
348584.81
336001.86
348466.53
563468.18
570661.63
563806.44
569575.34
563728.75
568846.1
563804.46
568517.87
563970.85
568324.24
564210.16
568091.27
1155294.4
1115063.2
1155819.1
1111784.5
1154473.5
1108126.8
1153634
1105848.3
1153674.4
1104751.2
1154521
1104350.5
4999489.1
4888407.8
5015288.1
4895788.5
5020372.7
4897771.1
5022402.4
4898127.7
5022799.5
4897423.8
5022173.2
4895896
4743132
4572169.7
4741677.6
4572512.9
4741337.5
4574474.1
4743378.6
4579861.7
4750025.7
4592148
4767411.5
4620405.5
4820624.8
4702389.7
1239087.1
1242282.9
1238193.4
1240068.1
1237302.6
1236998.4
1236437
1232307.8
1235462.7
1225471.5
1235031.4
1216311
1236691.6
1202397
513526.39
486423.32
513226.88
485812.07
512915.89
484990.66
512596.91
483696.42
512333.84
481571.82
512452.89
478087.83
513666.05
471842.3
250465.78
224813.37
250490.98
225002.7
250557.32
225180.32
250711.41
225335.58
251076.42
225412.27
251799.3
225142.13
253688.34
224396.02
117682.88
100770.04
117773.18
100981.07
117897.81
101245.78
118087.21
101572.28
118435.56
102041.22
119199.9
102420.69
121095.61
102842.1
38037.608
32665.434
38049.09
32693.578
38081.462
32771.597
38132.434
32889.02
38235.523
32950.926
38485.15
32887.385
39098.617
32934.9
8643.1405
8242.1225
8647.4321
8114.7456
8629.1912
8052.2089
8614.9767
8044.2833
8596.0708
8065.9152
8579.4416
7869.3988
8620.57
7701.3869
1864.6183
1803.8475
1856.4963
1787.1936
1851.5807
1768.966
1842.229
1747.7682
1830.8366
1728.4909
1815.6493
1683.489
1807.4277
1638.4172
310.95716
310.38729
309.22737
306.94379
307.5022
303.39164
305.93258
299.00221
303.17042
292.52972
299.35635
283.13272
295.27038
272.15846
56.225821
66.600489
55.832676
65.577611
55.393882
64.489672
54.871867
63.136669
54.289565
61.30761
53.153618
58.63093
51.83936
55.566143
27.513876
37.784631
27.320443
37.156998
27.105936
36.467492
26.835236
35.589904
26.442132
34.410018
25.827026
32.745704
25.056286
30.846216
25.062853
35.002018
24.880802
34.408431
24.672643
33.73013
24.405584
32.875778
24.016208
31.71275
23.405438
30.061931
22.614224
28.100954
24.150935
33.614399
23.966659
33.031912
23.749212
32.358545
23.465598
31.513476
23.051928
30.342556
22.408266
28.655669
21.558555
26.59169
23.237662
32.090316
23.05432
31.545865
22.828737
30.910998
22.525631
30.08597
22.07822
28.911151
21.384811
27.186641
20.451641
25.030813
22.149022
30.353474
21.976562
29.871347
21.753326
29.277518
21.441214
28.469815
20.971631
27.29358
20.245473
25.571
19.274173
23.415321
20.932922
28.444493
20.782841
28.037557
20.570051
27.506272
20.260005
26.750126
19.786719
25.616197
19.062278
23.937524
18.10773
21.854638
19.852387
26.741436
19.728773
26.397873
19.539449
25.926133
19.242559
25.228856
18.782199
24.163879
18.081314
22.585678
17.173106
20.627983
18.935419
25.298293
18.832121
25.010027
18.667676
24.597048
18.393749
23.967012
17.961771
22.992842
17.304041
21.538874
16.461794
19.731535
18.238498
24.144991
18.144246
23.889358
17.999475
23.528272
17.756285
22.975221
17.367837
22.10907
16.77261
20.804818
15.99927
19.154152
17.654182
23.218137
17.568774
22.988707
17.440029
22.672667
17.229369
22.197519
16.894632
21.456196
16.376559
20.320657
15.683057
18.827672
17.166978
22.448389
17.09416
22.243377
16.98752
21.968127
16.810463
21.562535
16.527123
20.93359
16.083007
19.952627
15.463685
18.603777
16.69654
21.831479
16.639153
21.661384
16.555684
21.430434
16.417335
21.084522
16.177395
20.540546
15.791487
19.6781
15.23674
18.445461
16.584981
22.741353
16.541838
22.601044
16.478475
22.400395
16.370942
22.082207
16.175579
21.558961
15.813217
20.706531
15.272925
19.469058
19.804912
34.46246
19.774058
34.302184
19.72486
34.060637
19.635724
33.66096
19.465211
32.984058
19.115859
31.855975
18.470561
30.14107
43.354319
104.56623
43.374298
104.23168
43.398149
103.71857
43.408879
102.84867
43.36106
101.35946
43.051732
98.821933
41.728625
94.631121
191.8837
484.27168
192.17839
483.16505
192.63938
481.49257
193.26832
478.6105
193.94344
473.55786
193.6371
464.45068
188.21527
446.89836
1007.2424
2299.8776
1009.3809
2293.8092
1012.833
2284.9269
1017.959
2270.123
1024.4647
2245.5955
1026.3923
2202.265
1002.7197
2111.6425
4233.2985
8382.1217
4247.3866
8389.9416
4271.2104
8404.5709
4310.2208
8425.9021
4370.3441
8450.9461
4443.1784
8454.5165
4445.9551
8360.9773
16169.162
27680.383
16220.219
27713.4
16310.02
27774.192
16461.285
27863.479
16700.457
27963.517
17003.993
27976.761
17111.807
27649.062
49386.062
72170.606
49557.754
72286.632
49857.525
72487.996
50373.651
72807.248
51227.009
73255.51
52450.347
73681.723
53447.581
73566.201
117027.82
144280.18
117362.03
144456.03
117949.68
144760.15
118983.85
145241.49
120788.86
145926.06
123771.71
146716.9
126870.9
147338.07
215128.22
234540.79
215487.38
234638.23
216105.63
234782.05
217174.69
234931.47
218967.18
234884.06
221736.13
234144.12
225460.98
233095.83
336240.7
348189.32
336537.34
347997.71
337026.42
347585.94
337797.53
346990.91
338859.98
345316.23
339872.19
341018.14
340897.36
334548.15
564597.79
567612.07
564986.73
567204.94
565504.4
566326.45
566102.62
564425.46
566093.22
560351.78
562176.11
551693.38
551114.77
537327.96
1156314.3
1104331.9
1157512.9
1103908.5
1159441.5
1102820.4
1163021.7
1101194.1
1170145
1099441.1
1184945.4
1101237.2
1212538.2
1127347.9
5036148.6
4908801.5
5047784.9
4920432.3
5065132.6
4937834.1
5095193.2
4968056.7
5152038.2
5025522.2
5266491.8
5142537
5495929.3
5378550.7
4876740.2
4787472.3
4956375.3
4895881.5
5071930.5
5042954.7
5245887.4
5241910.3
1246365.7
1207521.4
1265029.2
1230952.3
1300521.3
1284743.9
1351231.9
1354829.3
520246.69
473939.81
531761.84
485126.08
553198.94
515658.23
568744.31
548676.63
259105.75
227827.04
267620.49
235817.23
282700.27
254918.62
299107.03
279496.83
124918.17
105614.89
130842
110982.57
140843.22
122754.64
151478.27
138134.41
40336.687
33824.671
42425.759
35719.121
45633.181
39655.47
47786.561
44010.602
8767.5579
7724.2981
9079.607
7972.5679
9439.0338
8427.7689
9251.08
8606.7261
1812.5281
1625.2671
1841.9786
1661.0749
1835.0105
1701.3499
1649.7613
1596.93
290.66575
264.98267
289.49385
265.63718
273.64069
258.69117
216.91874
217.14629
49.925754
52.682617
48.959203
51.858962
46.012787
50.070745
38.868898
45.002807
24.289611
29.214106
23.894608
28.712145
23.504607
28.640625
23.449071
29.523091
21.91008
26.466395
21.604182
25.976197
21.53772
26.13668
22.135529
27.5839
20.812705
24.879193
20.502503
24.343946
20.462167
24.48628
21.102427
25.923994
19.658905
23.277464
19.37471
22.75694
19.422524
22.969008
20.129374
24.450643
18.523159
21.775288
18.333484
21.348692
18.523363
21.650257
19.39229
23.258684
17.414515
20.341685
17.263943
19.967666
17.524885
20.334061
18.56094
22.141155
16.553702
19.250346
16.464154
18.948725
16.832611
19.412423
18.025804
21.389421
15.893597
18.443181
15.825835
18.163551
16.23802
18.660339
17.552021
20.744744
15.413424
17.854032
15.317943
17.531448
15.733836
18.011885
17.005356
20.056286
15.0727
17.49382
14.932907
17.101684
15.310644
17.513712
16.677545
19.709171
14.81747
17.215041
14.610344
16.718526
14.927754
17.060633
16.463388
19.508654
14.623214
17.10941
14.383224
16.546099
14.722215
16.90561
16.362285
19.550648
14.687429
18.167919
14.363748
17.400773
14.767197
17.708027
16.448422
20.428561
17.635615
28.145083
16.701884
25.791288
16.69566
24.473885
18.25746
26.45599
39.223797
89.048271
33.87137
76.375816
30.147952
63.479181
29.921585
58.938664
175.31932
419.07193
145.71356
352.10072
119.00131
273.0475
104.07354
226.31033
922.04034
1971.1844
778.93353
1677.525
628.95395
1262.8861
516.62751
985.06257
4280.884
8136.2965
3721.4117
7098.1018
3048.2274
5441.7767
2464.9744
4079.3927
16943.127
27470.267
15145.457
24929.499
12795.257
20316.868
10506.721
15761.483
53371.438
73416.504
48972.761
68294.735
42746.788
59454.474
36199.426
48929.082
127019.52
147823.81
120392.05
142315.81
110218.55
132310.85
98201.179
118864.01
227186.83
234066.06
222808.55
232154.51
215529.19
227227.46
206394.84
220415.72
343522.09
335624.1
345223.87
339949.14
347195.76
343567.51
351094.44
349619.18
552384.58
538579.47
557847.49
548971.53
569706.04
562061.1
595094.03
583381.81
1221724.8
1155862.1
1227468.4
1169707.9
1241371.9
1188387.2
1262259.1
1219525.5
5584034.8
5482929.7
5458691.6
5381762.4
5317070.4
5267613
5175755.8
5154939.5
5108321.9
5054326.1
5033716.9
4968476.1
4970389.2
4895117.9
1323584.8
1311608.5
1309094.1
1284114.4
1352090.2
1332375.1
511895.68
521154.78
511450.13
515055.66
553817.4
559497.74
258213.43
277521.36
266991.11
282061.67
296369.73
308806.28
130733.44
146549.12
144512.32
158443.41
164924.52
172999.65
48430.058
53943.224
60413.366
66118.96
78553.661
81658.804
12994.062
13704.777
18946.048
20423.64
33333.963
34469.576
3693.4673
3593.0925
6227.759
6177.5393
15037.787
15189.799
742.34075
727.73367
2195.0067
2159.1648
7879.9959
7536.6461
150.49538
133.03641
585.33066
539.24543
4584.41
4207.339
56.229022
43.353642
179.79936
159.99087
2146.0492
1902.4478
45.960023
34.471336
77.843692
63.218988
816.01528
709.94129
43.314286
33.088248
55.681551
43.174309
347.01088
285.02758
40.638923
31.636965
48.793473
37.836682
137.46694
112.39659
37.723144
29.94087
44.704461
35.313851
76.40202
62.12095
34.61543
27.994361
40.208365
32.403199
55.633466
45.804918
31.641156
25.954766
35.846467
29.398971
45.096932
37.824069
29.152737
24.251257
32.344909
27.013068
37.031023
31.5843
26.751043
22.506722
29.271535
24.821562
32.183897
27.81672
24.790285
21.087091
26.580577
22.782549
30.104662
26.392438
23.419967
20.104409
24.871802
21.590937
28.316364
25.192235
22.488886
19.457452
23.867727
20.847322
27.52699
24.683256
21.917982
19.025467
23.310008
20.425443
27.546032
24.835582
22.057336
19.020352
23.341959
20.394191
27.759256
25.032103
25.08895
20.406656
24.823685
21.006155
28.307636
25.360644
49.68395
34.066286
37.74593
27.446171
31.996916
27.080664
221.39427
148.58831
141.4756
89.653807
65.473583
44.874383
1279.2215
928.00843
840.53078
565.33129
338.50934
215.49589
6013.3418
4745.367
4299.8477
3235.2144
2027.6266
1425.285
25728.147
20735.742
20151.38
15628.523
10612.786
7695.7116
81374.193
67849.008
71903.221
58448.689
47084.034
35794.567
182448.24
170974.7
174722.46
159924.86
148181.1
125843.15
318523.21
320198.38
319651.57
316188.5
319749.55
307251.58
577199.79
585741.41
591913.54
599189.42
626910.7
630934.99
1266802.1
1274625.4
1276091.2
1292500.9
1373440
1404317.2
4977025.4
4969106.4
4914290.1
4918201.7
4877270.8
4894353.7
4880610.3
4817342.2
4849627.1
4891773
4941348.9
5009422.1
4873148
4810462.7
4839622.3
4878243.5
4924900
4991577.4
1178200.8
1344557.2
1263048.9
1245223.7
1261823.5
1293039.6
1173934.1
1330571.5
1258782.7
1245048
1261367.5
1287988.8
390574.63
569525.74
578578.74
559418.47
544042.31
532529.11
399675.15
577681.25
583400.74
563539.84
546621.88
532263.49
140166.86
239469.59
290205.86
302782.74
298765.08
287812.36
144606.7
248657.43
290110.56
297875.24
291337.98
279025.08
50620.523
92863.687
125134.45
146460.89
154970.88
153009.71
53108.024
97325.884
126607.72
143855.55
148348.88
144173.34
16712.86
31845.29
42859.178
50411.07
54908.074
55884.865
17944.893
33145.406
42216.084
48134.03
51105.813
50879.688
4726.6368
9176.7454
12016.672
13418.341
14120.602
14179.404
5171.8869
9413.5365
11214.5
12232.89
12611.198
12499.765
1085.7721
2119.4179
2725.271
2995.7274
3210.5048
3427.1772
1203.0211
2124.1823
2446.5618
2660.3044
2830.1882
3038.4764
202.18805
401.54087
524.8916
593.96609
650.89203
692.74887
223.28051
388.00912
456.73552
506.3768
541.84933
566.6955
34.991872
62.569021
79.296863
90.619793
102.54305
115.08249
36.965606
56.739627
66.214272
74.799402
83.480431
93.279182
12.884514
16.647218
19.696657
22.909575
27.285741
33.438376
12.948549
15.603488
18.066062
21.100514
25.245334
31.285322
10.83151
12.269613
14.189822
16.759167
20.479107
25.948805
10.73337
12.133205
14.076654
16.668786
20.379022
25.903821
10.720196
11.99091
13.826537
16.308195
19.851828
24.972647
10.62697
11.920656
13.786668
16.271459
19.784697
24.944069
10.741937
11.919284
13.645292
15.97519
19.269297
23.963138
10.550498
11.751041
13.506942
15.838894
19.108893
23.846823
10.703676
11.794319
13.405375
15.57171
18.596925
22.841429
10.49645
11.586651
13.209949
15.366336
18.369794
22.654615
10.693415
11.70742
13.173832
15.136845
17.841703
21.588741
10.46172
11.437916
12.90091
14.839587
17.522305
21.31331
10.652153
11.57329
12.884089
14.639173
17.034962
20.327324
10.429561
11.295922
12.600031
14.328195
16.70723
20.050068
10.623917
11.472726
12.661318
14.234715
16.351823
19.234734
10.406733
11.178015
12.334816
13.866877
15.966869
18.912975
10.578345
11.335074
12.372949
13.754047
15.597513
18.101737
10.379176
11.051887
12.057232
13.394436
15.220769
17.802017
10.538574
11.218544
12.135343
13.350793
14.966767
17.161549
10.345252
10.932694
11.807047
12.978115
14.573119
16.854684
10.50499
11.127769
11.948107
13.026186
14.458443
16.410608
10.317563
10.829809
11.588538
12.615299
14.015822
16.049387
10.493546
11.078787
11.832153
12.81161
14.105849
15.868667
10.31173
10.78189
11.459176
12.376787
13.634821
15.483772
10.498876
11.084798
11.799303
12.701284
13.890463
15.520273
10.309716
10.762883
11.387993
12.231227
13.40294
15.151356
10.518723
11.114545
11.811192
12.679916
13.831712
15.460203
10.333349
10.786633
11.38642
12.194348
13.359967
15.253464
10.536398
11.168894
11.895919
12.809158
14.135857
16.373162
10.339543
10.833874
11.480392
12.427942
14.117935
17.839442
10.682097
11.617688
12.797174
14.600449
18.143867
25.844163
10.521269
11.475655
12.946296
15.765488
22.512566
39.654323
12.374865
17.572689
24.8632
36.974674
61.35729
109.73791
12.870659
19.642785
30.42328
50.868139
96.321933
194.07578
33.530309
83.305879
149.06062
246.72107
417.23063
708.75123
39.781721
101.8169
190.78504
336.64223
612.51361
1110.2151
218.26151
593.91682
1035.7826
1611.4485
2492.1864
3820.6635
260.19489
695.53691
1238.6216
2009.6504
3279.9503
5320.5192
1400.5334
3430.5804
5630.1104
8290.934
12074.161
17382.512
1590.3174
3870.0031
6410.4531
9674.0094
14571.139
21623.916
7316.9871
15764.854
23730.055
32897.809
45014.922
60789.537
7943.5129
17028.813
25830.07
36304.237
50847.897
69224.769
30526.111
56478.397
77603.345
102675.18
130511.96
161498.1
32025.212
59371.108
82590.946
109576.04
142067.61
172292.25
106440.46
167498.33
213993.01
277744.28
310428.13
320847.22
109208.64
173979.44
228367.66
293158.18
322263.4
329683.48
335650.17
473672.42
575769.35
611191.94
601502.92
585959.77
340683.73
493838.99
615386.87
631203.84
610447.98
589496.12
1104359.9
1430554.6
1383628
1302779.1
1263011.9
1251892.3
1120296
1445327.5
1380362.1
1291131.9
1249648.9
1237083.1
4932269.5
4843048.9
4859646
4902581.5
4950366.9
4998770.9
4940275