/*--------------------------------*- C++ -*----------------------------------*\
| =========                 |                                                 |
| \\      /  F ield         | OpenFOAM: The Open Source CFD Toolbox           |
|  \\    /   O peration     | Version:  2206                                  |
|   \\  /    A nd           | Website:  www.openfoam.com                      |
|    \\/     M anipulation  |                                                 |
\*---------------------------------------------------------------------------*/
FoamFile
{
    version     2.0;
    format      ascii;
    arch        "LSB;label=32;scalar=64";
    class       volScalarField;
    location    "500";
    object      p;
}
// * * * * * * * * * * * * * * * * * * * * * * * * * * * * * * * * * * * * * //

dimensions      [1 -1 -2 0 0 0 0];

internalField   nonuniform List<scalar> 
50904
(
107325.49
106636.12
107315.19
106638.92
107325.58
106635.52
107311.48
106633.16
107326.11
106636.37
107309.43
106630.7
107327.48
106639.4
107306.92
106628.75
107330.59
106646.93
107305.96
106631.33
107336.01
106659.75
107306.37
106638.36
107344.83
106679.09
107309.67
106651.37
107358.71
106707.9
107318.48
106674.1
107379.77
106749.53
107333.66
106708.3
107410.91
106807.82
107359.75
106759.88
107455.74
106887.18
107401.45
106834.41
107518.39
106992.89
107461.32
106934.84
107604.2
107129.67
107547.27
107068.94
107715.23
107298.62
107660.6
107237.7
107854.84
107500.65
107804.91
107442.73
107999.64
107701.75
107955.67
107649.85
108129.69
107877.39
108091.33
107831.69
108246.71
108030.75
108212.56
107990.56
108346.67
108159.96
108314.94
108123.26
108431.54
108267.26
108402.7
108234.63
108500.64
108352.49
108473.57
108322.98
108556.34
108417.58
108529.56
108389.83
108595.36
108458.46
108565.95
108428.96
108620.72
108480.5
108587.39
108447.16
108638.01
108492.67
108600.88
108454.51
108650.11
108499.34
108609.61
108456.26
108659.14
108503.24
108615.89
108455.58
108666.02
108505.55
108620.58
108454.07
108671.26
108507.77
108624.07
108452.58
108675.18
108509.47
108626.75
108451.78
108678.16
108510.63
108628.87
108451.21
108680.47
108511.67
108630.51
108450.87
108682.21
108512.57
108631.68
108451
108683.57
108513.54
108632.59
108451.53
108684.56
108514.41
108633.24
108452.1
108685.71
108515.45
108634.01
108452.77
107417.9
106820.86
107724.76
107346.88
107846.71
107602.18
107913.82
107748.08
107953.6
107835.18
107980.28
107893.42
108000.17
107937.22
107410.59
106809.44
107715.05
107329.21
107837.01
107582.52
107904.22
107727.99
107944.05
107814.8
107970.68
107872.48
107990.48
107915.85
107405.69
106804.33
107708.54
107319.35
107831.09
107571.97
107899.11
107719.05
107939.74
107807.81
107967.1
107867.33
107987.42
107912.07
107399.34
106797.75
107699.16
107304.19
107821.81
107554.78
107889.92
107701.43
107930.49
107789.75
107957.7
107848.8
107977.89
107893.28
107394.08
106795.08
107691.17
107290.55
107814.72
107539.76
107883.96
107689.15
107925.56
107779.62
107953.49
107840.17
107974.2
107885.4
107389.22
106794.87
107682.54
107275.74
107806.43
107522.1
107875.93
107671.26
107917.93
107761.89
107946.18
107823.23
107966.93
107869.98
107386.29
106798.91
107675.47
107263.88
107800.3
107507.53
107870.75
107657.8
107913.28
107749.88
107941.86
107812.28
107962.87
107859.46
107388.73
106811.97
107672.71
107258.32
107797.73
107497.63
107868.57
107646.95
107911.42
107739.28
107940.15
107801.9
107961.19
107848.72
107396.94
106833.91
107675.31
107258.49
107800.64
107493.45
107871.87
107639.98
107914.95
107731.73
107943.74
107793.46
107964.74
107839.55
107415.81
106871.81
107686.95
107269.35
107811.89
107496.8
107882.99
107640.16
107926.09
107730.75
107954.73
107791.87
107975.46
107837.04
107451.4
106932.76
107714.54
107301.08
107837.86
107519.83
107908.28
107658.44
107950.99
107746.81
107979.15
107806.47
107999.31
107850.07
107505.19
107018.47
107758.46
107358.71
107879.61
107565.73
107948.78
107698.95
107990.68
107784.19
108018.07
107841.57
108037.37
107882.96
107588.38
107140.61
107830.79
107452.21
107948.18
107646.34
108015.07
107773.56
108055.11
107854.76
108081.09
107908.43
108098.98
107946.49
107698.92
107297.12
107927.44
107580.37
108041.22
107763.17
108105.74
107883.78
108143.96
107959.84
108168.4
108009.42
108184.98
108043.88
107840.17
107489.33
108049.59
107741.53
108159.58
107913.75
108221.37
108027.19
108257.5
108097.63
108280.17
108142.82
108295.1
108173.29
107991.84
107690.49
108182.45
107916.46
108286.61
108076.32
108344.76
108180.66
108378.25
108244.4
108398.84
108284.55
108411.95
108310.75
108129.67
107869.51
108302.9
108073.88
108400.15
108221.12
108454.19
108316.43
108484.92
108373.78
108503.48
108409.33
108514.93
108431.83
108252.86
108027.24
108410.08
108213.59
108499.96
108348.65
108549.79
108435.3
108577.82
108486.74
108594.5
108518.19
108604.59
108537.63
108360.38
108163.88
108502.71
108335.14
108583.6
108456.55
108628.36
108533.75
108653.38
108579.2
108668.17
108606.81
108677.31
108624.06
108452.44
108281.07
108581.74
108439.43
108653.29
108547.34
108692.96
108615.49
108715.23
108655.62
108728.48
108680.09
108736.71
108695.53
108525.76
108373.96
108642.63
108519.86
108706.2
108616.38
108741.5
108676.94
108761.38
108712.95
108773.26
108734.71
108780.73
108748.56
108581.56
108443.36
108688.12
108578.95
108745.39
108666.97
108777.15
108721.72
108795.05
108754.2
108805.78
108773.76
108812.39
108785.96
108616.07
108483
108715.2
108610.99
108768.14
108693.59
108797.36
108744.45
108813.8
108774.12
108823.53
108791.77
108829.46
108802.65
108634.5
108500.15
108728.89
108622.77
108779.53
108702.6
108807.48
108751.32
108823.04
108779.31
108832.15
108795.85
108837.65
108805.94
108644.92
108506
108736.39
108624.91
108785.81
108703.5
108813.14
108751.19
108828.23
108778.25
108836.99
108794.15
108842.22
108803.76
108651.09
108506.25
108741.17
108623.27
108790.04
108701.59
108817.06
108748.81
108831.92
108775.4
108840.51
108790.94
108845.58
108800.24
108655.37
108504
108744.87
108621.07
108793.52
108698.74
108820.45
108745.73
108835.2
108772.14
108843.69
108787.53
108848.67
108796.67
108658.58
108501.35
108747.99
108619.47
108796.64
108697.68
108823.55
108744.49
108838.27
108770.74
108846.71
108786.1
108851.63
108795.17
108660.99
108499.05
108750.45
108618.44
108799.41
108698.37
108826.41
108745.36
108841.17
108771.82
108849.57
108787.27
108854.45
108796.32
108662.94
108497.17
108752.69
108618.15
108802.09
108700.27
108829.21
108748
108843.91
108774.75
108852.11
108790.09
108856.9
108799.02
108664.45
108496.51
108754.57
108618.6
108804.35
108703.13
108831.49
108751.13
108846.18
108777.84
108854.5
108793.18
108859.31
108802.11
108665.67
108496
108755.93
108619.16
108805.96
108705.5
108833.18
108753.81
108847.87
108780.56
108856.19
108795.89
108860.99
108804.81
108666.53
108495.67
108756.84
108619.7
108807.02
108706.98
108834.27
108755.6
108848.95
108782.37
108857.24
108797.69
108862.02
108806.61
108667.2
108495.75
108757.48
108620.14
108807.73
108707.9
108835.01
108756.83
108849.69
108783.69
108857.96
108799.07
108862.76
108808.07
108667.68
108496.14
108757.89
108620.46
108808.14
108708.35
108835.4
108757.42
108850.03
108784.25
108858.23
108799.46
108862.94
108808.28
108668.25
108496.74
108758.39
108621.06
108808.64
108709
108835.88
108758.17
108850.5
108785.01
108858.65
108800.15
108863.32
108808.88
108017.67
107975.49
108032.7
108007.72
108045.35
108033.86
108060.81
108064.62
108087.77
108116.39
108148.29
108230.29
108008.22
107954.54
108023.01
107985.85
108035.35
108010.86
108050.52
108041.07
108077.86
108095.36
108140.43
108216.35
108005.32
107951.41
108020.76
107984.65
108033.69
108011.45
108048.94
108042.27
108074.82
108093.7
108135.74
108211.48
107995.77
107932.76
108010.92
107965.53
108023.69
107992.16
108039.26
108024.08
108066.53
108079.63
108129.23
108203.78
107992.36
107925.36
108007.88
107958.77
108020.9
107985.92
108036.46
108018.15
108063.1
108073.64
108125.03
108199.68
107985.08
107910.74
108000.66
107944.69
108013.91
107972.65
108029.74
108006.14
108056.9
108064.09
108120.21
108195.41
107981.18
107900.56
107996.81
107934.87
108010.01
107963.17
108025.93
107997
108053.27
108055.66
108116.51
108190.5
107979.47
107889.75
107995.08
107924.08
108008.28
107952.43
108024.27
107986.38
108051.82
108045.58
108115.35
108183.53
107982.83
107880.3
107998.28
107914.35
108011.36
107942.52
108027.25
107976.23
108054.63
108035.24
108117.88
108174.99
107993.2
107876.92
108008.34
107910.49
108021.2
107938.23
108036.85
107971.5
108063.85
108029.86
108126.36
108169.65
108016.42
107888.36
108031.03
107920.76
108043.46
107947.56
108058.63
107979.77
108084.8
108036.37
108145.26
108172.99
108053.61
107918.99
108067.5
107949.6
108079.35
107974.99
108093.81
108005.5
108118.81
108059.21
108176.55
108189.79
108113.95
107979.34
108126.79
108007.38
108137.75
108030.66
108151.15
108058.64
108174.31
108107.86
108227.71
108228.01
108198.39
108072.94
108209.96
108097.73
108219.88
108118.38
108232.06
108143.21
108253.21
108186.92
108301.38
108293.34
108306.82
108198.26
108316.9
108219.43
108325.62
108237.21
108336.42
108258.62
108355.27
108296.32
108397.34
108386.97
108422.1
108331.77
108430.76
108349.51
108438.36
108364.57
108447.8
108382.74
108464.36
108414.64
108500.58
108490.23
108523.73
108449.63
108531.25
108464.65
108537.92
108477.53
108546.25
108493.17
108560.89
108520.64
108592.3
108584.66
108612.29
108552.88
108618.91
108565.8
108624.85
108576.99
108632.31
108590.66
108645.42
108614.69
108673.03
108669.92
108684.09
108637.39
108689.98
108648.68
108695.3
108658.51
108702.04
108670.57
108713.85
108691.77
108738.5
108740.53
108742.86
108707.45
108748.16
108717.45
108753.01
108726.19
108759.17
108736.95
108770.03
108756.02
108792.68
108800.21
108786.3
108759.33
108791.1
108768.23
108795.51
108776.07
108801.18
108785.75
108811.42
108803.02
108832.58
108843.4
108817.39
108795.51
108821.75
108803.41
108825.86
108810.47
108831.27
108819.26
108841.01
108835.12
108860.69
108872.19
108833.91
108811.05
108837.9
108818.15
108841.75
108824.6
108846.87
108832.76
108856.13
108847.58
108874.53
108881.68
108841.73
108813.6
108845.45
108820.17
108849.08
108826.24
108853.97
108834
108862.83
108848.12
108880.08
108879.82
108846.04
108810.91
108849.58
108817.11
108853.06
108822.89
108857.76
108830.39
108866.27
108844.06
108882.62
108873.89
108849.23
108807.03
108852.64
108812.96
108856.03
108818.55
108860.65
108825.87
108868.89
108839.22
108884.49
108867.52
108852.2
108803.23
108855.51
108808.99
108858.85
108814.45
108863.3
108821.67
108871.32
108834.85
108886.58
108862.16
108855.09
108801.55
108858.32
108807.2
108861.57
108812.57
108865.95
108819.71
108873.91
108832.81
108888.79
108859.41
108857.85
108802.58
108861.02
108808.13
108864.22
108813.44
108868.54
108820.5
108876.39
108833.48
108891.02
108859.47
108860.24
108805.04
108863.35
108810.4
108866.53
108815.62
108870.88
108822.61
108878.76
108835.39
108893.2
108860.89
108862.64
108808.04
108865.73
108813.3
108868.88
108818.37
108873.13
108825.17
108880.83
108837.88
108895.09
108863.33
108864.31
108810.59
108867.37
108815.69
108870.5
108820.68
108874.7
108827.38
108882.3
108839.99
108896.39
108865.23
108865.31
108812.34
108868.33
108817.31
108871.43
108822.24
108875.62
108828.94
108883.19
108841.58
108897.17
108866.78
108866.05
108813.85
108869.07
108818.87
108872.16
108823.82
108876.3
108830.44
108883.74
108842.82
108897.56
108867.8
108866.24
108814.12
108869.28
108819.27
108872.39
108824.3
108876.54
108831
108883.96
108843.4
108897.7
108868.3
108866.64
108814.85
108869.76
108820.31
108872.85
108825.43
108876.95
108832.05
108884.25
108844.15
108897.83
108868.74
108217.68
108340.94
108251.77
108377.98
108263.66
108387.98
108270.02
108391.98
108275.08
108394.44
108280.69
108396.41
108211.75
108332.74
108246.86
108372.26
108259.14
108383.46
108265.6
108388.52
108270.7
108391.78
108276.55
108394.85
108208.14
108330.82
108244.9
108373
108257.78
108385.55
108264.52
108391.45
108269.78
108395.3
108275.74
108398.91
108203.47
108329.46
108241.3
108375.22
108254.87
108388.46
108261.52
108395.55
108266.65
108401.07
108273.12
108405.86
108200.82
108332.15
108240.46
108382.79
108255.16
108396.94
108262.52
108404.5
108267.45
108410.95
108273.72
108417.04
108197.89
108335.97
108238.85
108392.25
108253.43
108408.51
108261.7
108416.04
108268.51
108421.88
108274.96
108429.05
108196.38
108339.51
108239.34
108402.43
108254.7
108421.5
108262.96
108430.73
108269.74
108437.35
108277.85
108444.47
108196.75
108340.59
108241.43
108410.66
108257.63
108432.75
108266.41
108443.78
108273.43
108452.02
108281.65
108461.12
108200.35
108339.35
108246.58
108416.61
108263.5
108441.85
108272.74
108454.78
108280.18
108464.67
108288.81
108475.85
108209.05
108339.25
108256.5
108423.04
108274.04
108451.21
108283.68
108465.93
108291.47
108477.39
108300.57
108490.48
108226.26
108343.27
108273.87
108431.16
108291.71
108461.47
108301.57
108477.56
108309.58
108490.28
108318.96
108504.95
108254.59
108356.32
108301.5
108445.61
108319.32
108477.09
108329.26
108494.02
108337.35
108507.53
108346.85
108523.25
108300.2
108383.84
108344.67
108470.05
108361.83
108501.1
108371.48
108517.97
108379.37
108531.54
108388.59
108547.42
108366.46
108432.53
108407.09
108511.3
108423.04
108540.26
108432.08
108556.14
108439.51
108568.98
108448.15
108584.12
108453.4
108505.6
108488.93
108574.25
108503.13
108600.04
108511.24
108614.31
108517.94
108625.96
108525.67
108639.73
108548.11
108588.94
108578.55
108646.95
108590.95
108669.26
108598.06
108681.68
108603.97
108691.95
108610.8
108704.22
108633.06
108667.82
108659.31
108717.28
108670.19
108736.66
108676.44
108747.51
108681.68
108756.53
108687.8
108767.42
108708.91
108741.87
108732.11
108785.14
108741.86
108802.24
108747.46
108811.82
108752.18
108819.85
108757.77
108829.69
108771.77
108806.01
108792.95
108845.3
108801.59
108860.24
108806.56
108868.66
108810.73
108875.74
108815.68
108884.56
108824.34
108861.58
108844.75
108898.99
108852.37
108911.96
108856.78
108919.31
108860.56
108925.63
108865.22
108933.83
108862.97
108901.48
108882.91
108937.64
108889.71
108948.99
108893.68
108955.48
108897.17
108961.19
108901.56
108968.85
108889.42
108926.63
108908.85
108961.24
108915.25
108971.69
108919.04
108977.72
108922.43
108983.12
108926.71
108990.44
108901.57
108932.15
108920.23
108964.72
108926.58
108974.8
108930.35
108980.63
108933.67
108985.82
108937.68
108992.69
108905.5
108926.96
108923.39
108957.7
108929.67
108967.44
108933.41
108973.08
108936.66
108978.09
108940.47
108984.59
108906.79
108918.46
108924.08
108947.77
108930.29
108957.21
108933.98
108962.72
108937.18
108967.59
108940.83
108973.78
108907.66
108909.98
108924.36
108938.18
108930.47
108947.4
108934.11
108952.81
108937.24
108957.58
108940.75
108963.52
108908.91
108903.02
108925.18
108930.67
108931.19
108939.8
108934.79
108945.18
108937.87
108949.92
108941.27
108955.71
108910.48
108899.01
108926.33
108926.15
108932.23
108935.2
108935.77
108940.58
108938.78
108945.32
108942.08
108950.99
108912.21
108898.18
108927.75
108924.89
108933.58
108933.85
108937.07
108939.22
108940.02
108943.97
108943.22
108949.53
108913.98
108899.08
108929.18
108925.28
108934.92
108934.09
108938.34
108939.44
108941.23
108944.18
108944.35
108949.66
108915.58
108900.9
108930.55
108926.6
108936.23
108935.28
108939.6
108940.61
108942.43
108945.37
108945.48
108950.75
108916.59
108902.26
108931.33
108927.46
108936.91
108936
108940.23
108941.27
108943.02
108946.04
108946.01
108951.35
108917.12
108903.49
108931.67
108928.56
108937.2
108937.08
108940.49
108942.34
108943.26
108947.1
108946.2
108952.37
108917.28
108904.26
108931.64
108929.2
108937.08
108937.67
108940.31
108942.85
108943.03
108947.5
108945.92
108952.72
108917.28
108904.6
108931.57
108929.51
108937.03
108938.06
108940.24
108943.22
108942.9
108947.73
108945.75
108952.84
108917.21
108904.77
108931.36
108929.53
108936.79
108938.08
108939.93
108943.13
108942.48
108947.43
108945.29
108952.45
108286.56
108397.24
108292.03
108396.43
108297.56
108393.87
108303.81
108387.8
108311.24
108372.92
108316.63
108330.83
108287.08
108181.56
108282.71
108396.6
108288.68
108396.57
108294.57
108394.68
108301.46
108389.64
108310.03
108376.23
108316.89
108336.14
108288.89
108188.5
108282.03
108401.27
108287.93
108401.87
108294.01
108400.33
108301
108395.48
108309.85
108382.81
108317.81
108344.64
108291.22
108198.59
108279.8
108409.15
108286.1
108410.79
108292.79
108410.18
108300.65
108406.13
108310.61
108394.75
108320.3
108358.94
108295.76
108215.07
108280.91
108421.58
108287.48
108424.51
108294.53
108425.22
108302.83
108422.44
108313.55
108412.54
108325.02
108379.38
108303
108238.22
108281.69
108435.65
108289.04
108440.42
108296.69
108443.48
108306.07
108442.75
108318.48
108435.04
108332.39
108405.88
108313.69
108268.7
108285.51
108451.72
108292.66
108457.95
108301.16
108463.47
108311.32
108466.37
108325.32
108461.34
108342.23
108437.5
108328.05
108306.25
108290.46
108469.69
108298.52
108476.7
108307.41
108483.69
108319.04
108489.03
108335.04
108489.6
108355.61
108472.54
108347.29
108351.3
108297.91
108486.79
108306.97
108495.87
108317
108504.77
108329.66
108513.34
108348.45
108519.91
108373.5
108511.59
108372.81
108403.7
108310.11
108503.54
108319.65
108514.97
108331.11
108526.73
108345.62
108539.38
108366.62
108552.54
108397.17
108554.28
108404.77
108463.26
108328.93
108519.91
108339.03
108533.57
108351.24
108548.38
108367.62
108565.53
108392.11
108585.86
108427.82
108599.26
108445.22
108527.86
108357.1
108539.63
108367.75
108555.22
108380.97
108573
108399.08
108594.84
108426.67
108622.5
108467.92
108647.69
108494.65
108596.5
108398.78
108564.43
108409.7
108581.4
108423.69
108601.76
108443.26
108627.83
108473.46
108662.44
108519.27
108699.33
108553.99
108668.32
108457.85
108600.8
108468.69
108618.41
108483.09
108640.51
108503.79
108669.98
108536.09
108710.76
108585.15
108757.15
108624.21
108743.36
108534.44
108655.2
108544.76
108672.49
108559.07
108695.33
108580.35
108727.22
108614.01
108772.42
108664.74
108825.4
108704.69
108823.61
108618.49
108718.04
108628
108734.34
108641.72
108757.01
108662.75
108790.06
108696.26
108838.09
108746.14
108894.86
108783.83
108900.27
108694.46
108779.58
108703.03
108794.49
108715.84
108816.18
108736
108848.94
108768.34
108897.56
108816.11
108955.94
108851.41
108966.71
108763.63
108840.39
108771.27
108853.75
108783.05
108874
108801.97
108905.39
108832.6
108953.1
108877.78
109011.77
108911.49
109027.59
108821.24
108894.47
108828.07
108906.49
108838.68
108924.81
108855.69
108953.45
108883.45
108997.91
108925.24
109055.87
108960.6
109080.33
108870.36
108943
108876.62
108953.98
108886.07
108970.27
108901.01
108995.48
108925.43
109035.3
108963.43
109091.02
109001.71
109125.18
108906.37
108977.36
108912.08
108987.31
108920.46
109001.67
108933.49
109023.6
108954.85
109058.71
108989.21
109111.21
109030.54
109155.08
108930.96
108998
108936.02
109006.66
108943.5
109019.34
108955.28
109038.99
108974.81
109071.08
109007.09
109121.05
109050.32
109171.21
108941.61
108999.44
108946.07
109006.94
108953.02
109018.46
108964.37
109037.06
108983.62
109068.28
109015.94
109117.96
109060.8
109171.96
108944.14
108990.74
108948.3
108997.63
108955.03
109008.62
108966.31
109026.9
108985.78
109058.06
109018.95
109108.25
109065.8
109165.38
108944.34
108979.61
108948.41
108986.3
108955.17
108997.23
108966.72
109015.72
108986.85
109047.41
109021.39
109098.99
109070.26
109160.25
108944.16
108969.18
108948.23
108975.87
108955.09
108987.02
108966.98
109006.12
108987.87
109039.02
109023.9
109092.75
109074.49
109156.88
108944.62
108961.33
108948.72
108968.18
108955.73
108979.71
108967.98
108999.58
108989.59
109034.07
109026.91
109090.22
109078.61
109155.62
108945.36
108956.62
108949.49
108963.66
108956.61
108975.65
108969.11
108996.6
108991.29
109033.06
109029.58
109091.45
109081.64
109157.3
108946.43
108955.16
108950.59
108962.38
108957.82
108974.79
108970.6
108996.45
108993.28
109034.17
109032.09
109094.9
109083.69
109159.16
108947.52
108955.27
108951.71
108962.64
108959.04
108975.33
108972.04
108997.5
108995.07
109036.29
109034.13
109098.22
109085.18
109160.3
108948.59
108956.3
108952.77
108963.71
108960.12
108976.55
108973.2
108999.19
108996.37
109038.73
109035.48
109100.47
109086.05
109160.22
108949.07
108956.84
108953.27
108964.36
108960.65
108977.48
108973.8
109000.53
108997.04
109040.3
109036.09
109101.33
109086.26
109158.83
108949.21
108957.83
108953.38
108965.36
108960.73
108978.55
108973.9
109001.66
108997.19
109041.3
109036.2
109101.47
109086.13
109157.23
108948.91
108958.17
108953.1
108965.78
108960.49
108979.06
108973.7
109002.22
108997.03
109041.71
109036.01
109101.16
109085.8
109155.71
108948.74
108958.35
108952.89
108965.94
108960.24
108979.18
108973.43
109002.33
108996.78
109041.7
109035.75
109100.69
109085.45
109154.56
108948.28
108957.96
108952.46
108965.57
108959.85
108978.84
108973.1
109002
108996.51
109041.29
109035.52
109099.93
109085.16
109153.35
108236.7
108051.73
108214.93
107975.93
108239.68
107968.36
108269.87
107955.24
108239.09
108058.28
108217.2
107980.96
108241.46
107971.58
108270.83
107957.22
108241.82
108067.44
108219.6
107987.58
108243.22
107975.35
108271.79
107959.39
108246.87
108082.53
108224
107998.45
108246.33
107981.87
108273.45
107963.34
108254.63
108104.21
108230.75
108015.18
108251.15
107992.25
108276.26
107969.72
108266.09
108133.16
108240.84
108038.69
108258.41
108007.57
108280.56
107979.43
108281.6
108169.61
108254.75
108069.17
108268.62
108028.61
108286.82
107993.31
108302.53
108214.74
108273.86
108108.54
108283
108057.29
108296.01
108013.13
108330.35
108269.41
108299.94
108158.6
108303.36
108096.16
108309.6
108041.39
108366.26
108333.6
108334.36
108220.09
108331.17
108146.72
108329.03
108079.94
108411.31
108406.12
108378.52
108292.93
108368.23
108210.23
108355.9
108130.55
108466.29
108485.92
108433.79
108377.3
108417.31
108289.22
108393.98
108197.83
108531.54
108571.14
108500.44
108470.81
108479.11
108382.3
108444.75
108281.93
108606.81
108661.59
108578.49
108573.57
108555.16
108490.14
108511.12
108384.45
108692.14
108758.03
108667.4
108684
108644.18
108609.13
108594.12
108504.08
108774.38
108847.15
108752.91
108784.95
108731.72
108720.43
108679
108620.61
108844.35
108922.86
108825.76
108869.4
108806.99
108813.62
108756.01
108721.04
108906.73
108990.77
108890.26
108943.18
108873.63
108893.97
108823.54
108807.09
108959.05
109051.1
108945.16
109009.01
108930.43
108964.05
108882.5
108880.91
109005.37
109105.13
108994.08
109067.83
108980.94
109025.36
108933.83
108943.51
109040.14
109145.14
109031.59
109112.75
109021.34
109073.72
108975.34
108992.77
109066.24
109171.09
109061.12
109144.01
109053.69
109109.37
109009.77
109030.81
109081.43
109179.8
109080.39
109159.46
109075.62
109130.46
109033.77
109054.06
109090.32
109180.59
109092.34
109167.23
109088.95
109142.1
109048.99
109066.35
109096.96
109181.02
109100.55
109172.35
109097.34
109148.48
109059.23
109072.25
109101.94
109180.32
109105.76
109173.58
109101.96
109149.15
109065.63
109072.94
109105.88
109179.69
109109.03
109172.45
109104.53
109146.1
109069.92
109070.64
109108.11
109180.48
109110.87
109171.03
109105.78
109141.89
109072.86
109067.03
109109.25
109180.86
109111.63
109169.67
109106.16
109137.72
109074.86
109063.02
109109.9
109180.46
109111.9
109168.29
109106.13
109134.28
109076.16
109059.9
109110.09
109179.04
109111.85
109166.45
109105.9
109131.59
109076.98
109057.8
109109.81
109176.73
109111.43
109163.99
109105.42
109128.86
109077.45
109056.07
109109.29
109174.46
109110.79
109161.49
109104.76
109126.15
109077.61
109054.44
109108.68
109172.47
109110.08
109159.29
109104.06
109123.8
109077.57
109053.02
109108.12
109170.96
109109.46
109157.58
109103.43
109121.96
109077.46
109051.9
109107.59
109169.39
109108.86
109155.81
109102.85
109120.07
109077.43
109050.78
106771.21
107457.08
106950.42
107588.64
107182.83
107784.5
106774.86
107459.81
106955.49
107592.34
107187.71
107788.64
106778.99
107462.27
106960.5
107595.63
107192.43
107792.29
106786.22
107466.47
106968.78
107600.74
107200.2
107797.83
106797.61
107472.61
106980.57
107607.72
107211.16
107805.2
106814.62
107481.69
106997.64
107617.56
107226.88
107815.29
106838.5
107494.5
107020.93
107630.79
107248.36
107828.69
106871.43
107512.11
107051.85
107648.21
107276.57
107845.89
106917.76
107537.43
107094.55
107672.38
107315.15
107869.01
106980.04
107572.25
107151.41
107704.84
107367.11
107900.07
107061.62
107619.27
107225.45
107748.04
107435.27
107940.92
107168.97
107683.59
107323.02
107806.55
107525.35
107995.61
107305.07
107768.88
107447
107884.05
107639.9
108067.34
107470.37
107877.11
107599.57
107983.41
107783.25
108160.12
107665.35
108010.6
107780.43
108106.24
107955.95
108278.29
107860.41
108151.28
107964.63
108239.34
108132.61
108407.53
108030.31
108277.64
108125.89
108361.04
108286.64
108527.44
108179.05
108393.06
108267.62
108473.13
108421.35
108637.47
108303.14
108492.58
108386.73
108570.2
108536.78
108729.16
108404.76
108576.86
108481.6
108649.43
108628.47
108803.83
108487.12
108649.3
108560.55
108720.69
108704.24
108872.71
108548.59
108707.21
108617.77
108775.35
108757.55
108923.54
108585.52
108748.48
108652.78
108813.31
108787.38
108957.89
108608.34
108776.18
108672.8
108838.42
108802.07
108979.67
108622.02
108794.92
108683.56
108854.6
108808.06
108992.38
108629.57
108807.95
108689.24
108865.15
108809.89
109000.04
108634.16
108817.18
108692.37
108872.03
108809.7
109004.58
108637.11
108823.82
108693.97
108876.62
108808.7
109006.96
108639.3
108828.59
108695.06
108879.82
108807.92
109008.54
108640.84
108831.97
108695.57
108881.82
108807.09
109009.02
108642.18
108834.5
108695.9
108883.23
108806.32
109009.16
108643.14
108836.3
108696.25
108884.1
108805.92
109009.2
108643.97
108837.55
108696.56
108884.61
108805.72
109009.02
108644.79
108838.5
108696.92
108884.95
108805.66
109008.9
108645.44
108839.15
108697.23
108885.16
108805.71
109008.79
108646.21
108839.91
108697.63
108885.43
108805.81
109008.68
108986.99
108840.31
108673.87
108471.27
108198.06
107840.21
108967.55
108820.81
108656.84
108455.01
108185.36
107832.04
108987.23
108841.75
108675.11
108472.35
108198.92
107840.52
108967.24
108821.48
108657.22
108455.1
108184.81
107830.22
108987.32
108843.54
108676.43
108473.41
108199.75
107840.94
108966.81
108822.54
108657.73
108455.27
108184.42
107828.91
108987.72
108845.77
108678.22
108474.98
108201.14
107841.89
108966.47
108823.91
108658.52
108455.66
108184.16
107827.48
108988.27
108848.54
108680.46
108477.04
108203.19
107843.73
108966.07
108825.66
108659.58
108456.35
108184.3
107826.62
108989.02
108852.11
108683.38
108479.81
108206.15
107846.82
108965.67
108827.96
108661.06
108457.45
108184.92
107826.37
108990.02
108856.64
108687.18
108483.54
108210.38
107851.69
108965.23
108830.94
108663.16
108459.21
108186.42
107827.39
108991.39
108862.34
108692.09
108488.55
108216.44
107859.34
108964.87
108834.81
108666.14
108462.09
108189.63
107831.23
108993.45
108869.54
108698.57
108495.49
108225.26
107871.1
108964.6
108839.88
108670.39
108466.51
108195.1
107838.52
108996.26
108878.55
108707.05
108504.86
108237.68
107888.61
108964.66
108846.41
108676.33
108473.15
108204.14
107851.76
109000.91
108889.77
108718.25
108517.81
108255.56
107914.73
108965.42
108854.83
108684.83
108483.43
108219.09
107874.66
109007.22
108903.45
108733.01
108535.46
108280.64
107952.18
108966.9
108865.45
108696.59
108498.3
108241.38
107909.21
109017.55
108921.34
108753.55
108560.29
108315.9
108005.08
108971.26
108879.04
108713.03
108519.9
108274.32
107960.8
109030.58
108941.56
108779.61
108593.95
108364.55
108077.14
108976.05
108895.35
108735.92
108551.46
108322.24
108033.61
109040.84
108962.43
108811.83
108637.84
108428.48
108170.91
108981.45
108912.5
108765
108594.45
108387.58
108130.62
109054.93
108986.68
108849.16
108688.32
108499.6
108272.27
108988.93
108930.88
108797.99
108643.08
108459.47
108235.41
109068.86
109008.93
108882.58
108735.16
108565.62
108365.31
108997.45
108947.45
108828.35
108688.64
108526.36
108331.57
109084.3
109031.97
108917.17
108782.05
108628.93
108451.46
109006.9
108963.48
108857.68
108732.31
108588.81
108419.12
109098.31
109050.94
108946.99
108823.54
108684.38
108525.89
109015.77
108976.69
108882.5
108769.87
108642.38
108493.61
109112.09
109068.29
108974.21
108862.05
108734.3
108590.57
109024.41
108988.45
108904.57
108803.66
108690.03
108558.52
109127.57
109084.79
108998.98
108895.86
108777.65
108644.71
109033.77
108998.31
108922.83
108832.27
108729.97
108611.66
109148.74
109104.38
109022.43
108926.19
108815.35
108689.64
109047.08
109009.04
108939.21
108857.15
108763.41
108654.31
109174.33
109125.59
109044.26
108951.94
108845.12
108722.79
109062.46
109020.02
108953.13
108876.86
108788.07
108683.42
109197.94
109142.11
109061.52
108971.36
108866.72
108745.4
109077.31
109028.08
108962.58
108890.46
108804.41
108701.44
109219.32
109155.54
109075.43
108987.03
108883.43
108761.79
109090.37
109034.12
108969.9
108901.03
108816.41
108713.64
109239.22
109165.95
109086.21
108999.35
108896.03
108773.6
109102.96
109038.4
108975.09
108908.76
108824.94
108721.83
109256.1
109174.33
109095.16
109009.39
108905.93
108782.58
109113.85
109041.53
108979.24
108914.94
108831.54
108727.86
109270.61
109180.84
109102.4
109017.46
108913.71
108789.44
109123.53
109043.65
108982.45
108919.77
108836.65
108732.41
109283.26
109185.73
109108.29
109023.83
108919.84
108794.78
109131.98
109045.05
108984.96
108923.6
108840.66
108735.89
109293.66
109189.48
109112.95
109029.12
108924.7
108798.9
109139.08
109045.97
108987.02
108926.61
108843.84
108738.61
109302.49
109192.25
109116.61
109033.31
108928.54
108802.14
109145.16
109046.47
108988.7
108928.88
108846.28
108740.69
109309.7
109194.34
109119.53
109036.59
108931.63
108804.76
109150.15
109046.78
108990
108930.71
108848.24
108742.38
109315.64
109195.96
109121.93
109039.23
108934.05
108806.75
109154.3
109046.99
108991.03
108932.21
108849.76
108743.64
109320.43
109197.15
109123.8
109041.27
108935.91
108808.29
109157.65
109047.1
108991.8
108933.3
108850.89
108744.61
109324.53
109197.86
109125.09
109042.74
108937.31
108809.45
109160.65
109047.02
108992.31
108934.08
108851.72
108745.33
109328.9
109199.66
109126.9
109044.51
108938.93