/*--------------------------------*- C++ -*----------------------------------*\
| =========                 |                                                 |
| \\      /  F ield         | OpenFOAM: The Open Source CFD Toolbox           |
|  \\    /   O peration     | Version:  2206                                  |
|   \\  /    A nd           | Website:  www.openfoam.com                      |
|    \\/     M anipulation  |                                                 |
\*---------------------------------------------------------------------------*/
FoamFile
{
    version     2.0;
    format      ascii;
    arch        "LSB;label=32;scalar=64";
    class       surfaceScalarField;
    location    "500";
    object      phi;
}
// * * * * * * * * * * * * * * * * * * * * * * * * * * * * * * * * * * * * * //

dimensions      [1 0 -1 0 0 0 0];

oriented        oriented;

internalField   nonuniform List<scalar> 
146294
(
1.451396e-06
-3.8596799e-07
-1.9642603e-07
2.9187794e-07
-1.1608248e-06
-5.263022e-07
-3.5192635e-07
3.955546e-07
1.9340761e-06
1.0553319e-06
-1.6584185e-07
-4.2615664e-07
-8.492979e-07
-2.5679383e-07
-5.8199821e-07
1.3678222e-06
3.0735245e-06
-8.0639075e-07
-4.4400666e-07
6.7401128e-07
-2.6935176e-06
-9.8716721e-07
-7.7465756e-07
8.2859074e-07
3.6548404e-06
2.1723382e-06
-3.7845504e-07
-8.3300733e-07
-1.933103e-06
-5.784903e-07
-1.0209419e-06
2.5278109e-06
4.6133771e-06
-1.1756323e-06
-7.2912415e-07
1.0303704e-06
-4.1829787e-06
-1.3784437e-06
-1.2745768e-06
1.2211864e-06
5.270555e-06
3.2363694e-06
-6.3032122e-07
-1.1735114e-06
-2.9866232e-06
-9.6960016e-07
-1.3792598e-06
3.6282952e-06
6.3857301e-06
-1.5835166e-06
-1.0662426e-06
1.4439929e-06
-5.9090628e-06
-1.8111785e-06
-1.8693861e-06
1.6703835e-06
7.1213401e-06
4.4629616e-06
-9.266582e-07
-1.5456928e-06
-4.2044443e-06
-1.4367663e-06
-1.7736187e-06
4.8925692e-06
8.5646019e-06
-2.0873671e-06
-1.4594807e-06
1.9599582e-06
-8.0439482e-06
-2.3508986e-06
-2.5551708e-06
2.2285951e-06
9.3726889e-06
5.9601427e-06
-1.2690398e-06
-2.0084893e-06
-5.6966389e-06
-1.9824164e-06
-2.2724909e-06
6.427384e-06
1.1163643e-05
-2.6971608e-06
-1.9332567e-06
2.5683746e-06
-1.0561069e-05
-3.0231942e-06
-3.352799e-06
2.9018285e-06
1.2082641e-05
7.7469444e-06
-1.678135e-06
-2.5801399e-06
-7.4548672e-06
-2.622939e-06
-2.9075491e-06
8.2718226e-06
1.4457221e-05
-3.4681808e-06
-2.5324614e-06
3.3194304e-06
-1.3709265e-05
-3.8917637e-06
-4.3190159e-06
3.752761e-06
1.5562438e-05
1.0008098e-05
-2.1947122e-06
-3.3143089e-06
-9.6453932e-06
-3.3958449e-06
-3.7372377e-06
1.0626477e-05
1.8632691e-05
-4.4409668e-06
-3.2725892e-06
4.2558882e-06
-1.7707481e-05
-4.9931476e-06
-5.486434e-06
4.8252291e-06
1.9968029e-05
1.2893507e-05
-2.8312371e-06
-4.2485399e-06
-1.2449408e-05
-4.3263696e-06
-4.7933704e-06
1.3624254e-05
2.3908756e-05
-5.6623187e-06
-4.1914156e-06
5.418471e-06
-2.2746083e-05
-6.3910055e-06
-6.8954277e-06
6.1724513e-06
2.5536302e-05
1.6555788e-05
-3.6217193e-06
-5.4348545e-06
-1.599277e-05
-5.4560508e-06
-6.1439328e-06
1.7438396e-05
3.0154986e-05
-7.0738075e-06
-5.0961852e-06
6.7457738e-06
-2.8922183e-05
-7.9530518e-06
-8.3602341e-06
7.6686623e-06
3.1904181e-05
2.095875e-05
-4.3881227e-06
-6.8292535e-06
-2.0436901e-05
-6.6235375e-06
-7.6677013e-06
2.1840886e-05
3.8586171e-05
-8.9128161e-06
-6.1441956e-06
8.5044701e-06
-3.7129816e-05
-1.0048976e-05
-1.0048409e-05
9.698484e-06
4.0624838e-05
2.6782211e-05
-5.2836373e-06
-8.6217387e-06
-2.6177774e-05
-7.988288e-06
-9.6909544e-06
2.778894e-05
5.0401587e-05
-1.1364528e-05
-7.347779e-06
1.0882685e-05
-4.8716163e-05
-1.2842916e-05
-1.198968e-05
1.2419368e-05
5.2766405e-05
3.490883e-05
-6.3201528e-06
-1.1006295e-05
-3.4230548e-05
-9.5906543e-06
-1.2389972e-05
3.6058252e-05
6.3959876e-05
-1.4019966e-05
-8.3207502e-06
1.3385224e-05
-6.2352164e-05
-1.5806995e-05
-1.3873445e-05
1.5285436e-05
6.6365198e-05
4.4317259e-05
-7.0846342e-06
-1.3648079e-05
-4.3924666e-05
-1.1108065e-05
-1.52555e-05
4.5283176e-05
8.4295768e-05
-1.7676711e-05
-9.6013334e-06
1.6880745e-05
-8.2219221e-05
-1.9870707e-05
-1.5307624e-05
1.9207892e-05
8.6392761e-05
5.8356332e-05
-8.215726e-06
-1.7256094e-05
-5.7645858e-05
-1.2211401e-05
-1.919066e-05
5.8779622e-05
0.00010916998
-2.1830859e-05
-1.0492213e-05
2.0877254e-05
-0.0001073255
-2.4260103e-05
-1.6134192e-05
2.3521868e-05
0.00011073478
7.5287881e-05
-9.0828516e-06
-2.1300631e-05
-7.4950985e-05
-1.2851201e-05
-2.339134e-05
7.5058915e-05
0.00011366194
-2.1445701e-05
-1.0961577e-05
2.0513187e-05
-0.00011226007
-2.3711791e-05
-1.6376914e-05
2.2968091e-05
0.00011464836
7.8286849e-05
-9.6783285e-06
-2.0920234e-05
-7.8216841e-05
-1.3134401e-05
-2.2875537e-05
7.7733794e-05
0.00011894935
-2.1213715e-05
-1.1080491e-05
2.0443742e-05
-0.00011806046
-2.3305273e-05
-1.6122421e-05
2.2680389e-05
0.00011931974
8.1627684e-05
-9.9614276e-06
-2.0592237e-05
-8.1966065e-05
-1.3028592e-05
-2.2400438e-05
8.0617037e-05
0.00012503286
-2.0906196e-05
-1.0844584e-05
2.0366304e-05
-0.00012472888
-2.2727558e-05
-1.5458832e-05
2.2451672e-05
0.00012464515
8.4719286e-05
-9.7150795e-06
-2.03296e-05
-8.5542233e-05
-1.2360913e-05
-2.2040976e-05
8.3365024e-05
0.00013506056
-2.0224668e-05
-1.0575266e-05
2.0477902e-05
-0.00013558311
-2.087754e-05
-1.5104034e-05
2.2496819e-05
0.00013308648
8.4826953e-05
-8.5467942e-06
-2.0205755e-05
-8.6014155e-05
-1.0944723e-05
-2.1915509e-05
8.4448729e-05
0.00014918134
-2.0444723e-05
-9.9705188e-06
2.0848379e-05
-0.00015018975
-1.9349698e-05
-1.4091057e-05
2.2943091e-05
0.00014457496
8.3078166e-05
-7.3990995e-06
-2.0421752e-05
-8.4248834e-05
-9.4140129e-06
-2.2247295e-05
8.4445051e-05
0.00016360096
-2.0787174e-05
-8.9113939e-06
2.1209117e-05
-0.00016508203
-1.8005271e-05
-1.2257768e-05
2.3391812e-05
0.00015638112
8.168457e-05
-6.1731772e-06
-2.0796477e-05
-8.2901193e-05
-7.6669718e-06
-2.273846e-05
8.4670716e-05
0.00017493238
-2.159857e-05
-7.0586498e-06
2.1690404e-05
-0.00017687697
-1.7584626e-05
-9.29946e-06
2.3911932e-05
0.00016564676
8.3411456e-05
-5.138067e-06
-2.1187596e-05
-8.4857544e-05
-6.1474815e-06
-2.3325914e-05
8.7633252e-05
0.00014448985
-1.7447189e-05
-5.5708756e-06
1.7513796e-05
-0.00014604424
-1.3602473e-05
-6.6788288e-06
1.9262992e-05
0.0001362087
6.9979513e-05
-4.1789868e-06
-1.7110343e-05
-7.1275444e-05
-4.6505289e-06
-1.8976255e-05
7.3856339e-05
0.00011797804
-1.3976299e-05
-4.4506773e-06
1.4044208e-05
-0.00011916616
-1.0486011e-05
-4.5854962e-06
1.5407612e-05
0.0001109631
5.8048882e-05
-3.4157805e-06
-1.368634e-05
-5.910205e-05
-3.3590136e-06
-1.5269595e-05
6.1540946e-05
9.5543101e-05
-1.1169148e-05
-3.6276394e-06
1.1199603e-05
-9.6396604e-05
-8.0928149e-06
-3.0737388e-06
1.2269593e-05
8.9854558e-05
4.7627469e-05
-2.7843264e-06
-1.0941649e-05
-4.8486428e-05
-2.2997821e-06
-1.2245462e-05
5.0720881e-05
7.6032302e-05
-8.7756351e-06
-3.0378591e-06
8.8084112e-06
-7.6654868e-05
-6.1644925e-06
-2.0306188e-06
9.620723e-06
7.1532941e-05
3.8193799e-05
-2.3401252e-06
-8.577715e-06
-3.8835925e-05
-1.5519335e-06
-9.627736e-06
4.0909188e-05
6.1872243e-05
-7.0739134e-06
-2.6001231e-06
7.0975786e-06
-6.2333656e-05
-4.8334409e-06
-1.3155677e-06
7.7355892e-06
5.8255035e-05
3.1264945e-05
-1.996267e-06
-6.9025248e-06
-3.1780198e-05
-1.0237882e-06
-7.7542054e-06
3.3657558e-05
4.9795315e-05
-5.6688838e-06
-2.2409423e-06
5.6440275e-06
-5.0129651e-05
-3.7783987e-06
-8.5761326e-07
6.152015e-06
4.6963732e-05
2.5363691e-05
-1.6490103e-06
-5.5412371e-06
-2.5838599e-05
-6.6162342e-07
-6.2148796e-06
2.7438e-05
3.9334354e-05
-4.4479078e-06
-1.9566414e-06
4.4333046e-06
-3.9604065e-05
-2.913677e-06
-6.2811814e-07
4.8250828e-06
3.7193445e-05
2.0080299e-05
-1.3859869e-06
-4.3372924e-06
-2.0453946e-05
-5.5689108e-07
-4.8824648e-06
2.1944348e-05
3.0980039e-05
-3.4787938e-06
-1.7470751e-06
3.4745925e-06
-3.1185417e-05
-2.2592618e-06
-5.308354e-07
3.7867435e-06
2.9355264e-05
1.5819436e-05
-1.1800802e-06
-3.3853873e-06
-1.6118756e-05
-4.8475047e-07
-3.8240755e-06
1.7312102e-05
2.423633e-05
-2.6968722e-06
-1.4469816e-06
2.7161529e-06
-2.4555721e-05
-1.7125923e-06
-3.5446057e-07
2.8910887e-06
2.2881451e-05
1.2336232e-05
-9.2545889e-07
-2.6246329e-06
-1.2663103e-05
-3.1948948e-07
-2.9666823e-06
1.3425053e-05
1.8056651e-05
-1.9431672e-06
-9.6072851e-07
1.9204065e-06
-1.8520158e-05
-1.1969272e-06
-1.0934656e-07
2.0103372e-06
1.699812e-05
9.0903025e-06
-5.9675263e-07
-1.9207657e-06
-9.4414186e-06
-1.5473761e-07
-2.187668e-06
9.9162847e-06
1.2787097e-05
-1.2978839e-06
-5.0161046e-07
1.2121186e-06
-1.3160465e-05
-7.836551e-07
3.9602372e-08
1.2662804e-06
1.2155517e-05
6.3952438e-06
-3.1447686e-07
-1.339692e-06
-6.635721e-06
-6.5199177e-08
-1.5691075e-06
7.0911509e-06
8.6160413e-06
-8.1452479e-07
-1.952424e-07
6.8668147e-07
-8.7945834e-06
-4.8666933e-07
8.0577722e-08
7.3467592e-07
8.3270524e-06
4.3017529e-06
-1.2561705e-07
-8.9761428e-07
-4.4075346e-06
-2.5025312e-08
-1.0928017e-06
4.8677036e-06
5.0306143e-06
-4.3699973e-07
-3.7387419e-08
3.1433316e-07
-5.0658255e-06
-2.5680802e-07
5.5093079e-08
3.5091177e-07
4.9619862e-06
2.5140554e-06
-2.5008579e-08
-5.2821231e-07
-2.5234665e-06
-7.9723452e-11
-6.7310407e-07
2.9053955e-06
1.6697151e-06
-1.2534947e-07
6.4292684e-08
-1.6460458e-06
-6.5730488e-08
7.6883282e-08
1.7136554e-06
8.4008571e-07
-1.7743062e-07
-8.1301315e-07
-2.3603541e-07
1.0103109e-06
1.2473322e-06
-4.5865715e-07
-2.2016289e-07
-9.946678e-07
-5.5074525e-07
-2.7757658e-07
1.4936565e-06
3.2240334e-07
-4.4196805e-07
-7.2279779e-08
-2.6681462e-07
-5.5636244e-07
-5.1490595e-08
3.7951062e-07
1.407355e-07
-4.2138117e-07
-3.511459e-08
-1.262095e-07
-5.3551775e-07
-2.342105e-08
1.4331263e-07
7.3443723e-08
-4.0612696e-07
-1.9759658e-08
-6.8939182e-08
-5.12104e-07
-1.5654276e-08
6.5684774e-08
4.4536139e-08
-3.9524621e-07
-1.2471324e-08
-4.2946017e-08
-4.9203675e-07
-1.0784846e-08
3.525402e-08
3.1006982e-08
-3.8704583e-07
-8.8679622e-09
-3.0339688e-08
-4.7490406e-07
-8.1257308e-09
2.2000209e-08
2.4575091e-08
-7.0918091e-09
-3.8031621e-07
-2.4213102e-08
-6.7908353e-09
-4.593036e-07
1.5765617e-08
2.5690785e-06
-8.3026269e-07
-5.1444251e-07
-2.2775408e-06
-8.8471022e-07
-6.4715148e-07
2.8024228e-06
7.0917787e-07
-7.989696e-07
-1.7316732e-07
-6.395844e-07
-8.8869441e-07
-1.5901733e-07
8.2068924e-07
3.327684e-07
-7.6676998e-07
-8.7459271e-08
-3.1262433e-07
-8.602641e-07
-8.3051999e-08
3.6396977e-07
1.8219177e-07
-7.4458185e-07
-4.9818124e-08
-1.7432198e-07
-8.3313858e-07
-5.1085397e-08
1.9049775e-07
1.1419985e-07
-7.2949192e-07
-3.1674606e-08
-1.100868e-07
-8.1033173e-07
-3.3742646e-08
1.1435098e-07
8.1363112e-08
-7.1860379e-07
-2.2641011e-08
-7.8478375e-08
-7.907162e-07
-2.4653195e-08
7.8275238e-08
6.5628112e-08
-1.8218586e-08
-7.1007329e-07
-6.3032009e-08
-2.0063785e-08
-7.7248648e-07
6.0671412e-08
3.8627152e-06
-1.1297721e-06
-8.7241145e-07
-3.548486e-06
-1.1421929e-06
-1.1274044e-06
4.1059006e-06
1.0998578e-06
-1.0887592e-06
-2.9732162e-07
-1.0167174e-06
-1.1575837e-06
-3.1310408e-07
1.269335e-06
5.2859085e-07
-1.0497364e-06
-1.5222308e-07
-5.0285056e-07
-1.1317368e-06
-1.6481838e-07
5.8451056e-07
2.928963e-07
-1.0230419e-06
-8.7289401e-08
-2.821199e-07
-1.1055531e-06
-9.8129804e-08
3.1375725e-07
1.8487454e-07
-1.0049702e-06
-5.5918299e-08
-1.7870283e-07
-1.0821964e-06
-6.3931813e-08
1.9170717e-07
1.3221092e-07
-9.9207216e-07
-4.0220656e-08
-1.2752949e-07
-1.0609973e-06
-4.6462776e-08
1.3282156e-07
1.0685539e-07
-3.2540937e-08
-9.821837e-07
-1.0242165e-07
-3.7749709e-08
-1.0403113e-06
1.0385547e-07
5.3686901e-06
-1.4628172e-06
-1.2916781e-06
-5.0322968e-06
-1.4301297e-06
-1.713059e-06
5.6108561e-06
1.5527575e-06
-1.4127321e-06
-4.4188671e-07
-1.4582778e-06
-1.4656246e-06
-5.0592335e-07
1.781072e-06
7.5370289e-07
-1.3665535e-06
-2.2673423e-07
-7.2537084e-07
-1.4447213e-06
-2.6084719e-07
8.2882875e-07
4.1918206e-07
-1.3354126e-06
-1.2970663e-07
-4.0790597e-07
-1.4195577e-06
-1.5197559e-07
4.4786432e-07
2.6491896e-07
-1.3149666e-06
-8.2829573e-08
-2.5845389e-07
-1.3962121e-06
-9.7431269e-08
2.7507299e-07
1.8940236e-07
-1.3010079e-06
-5.9331793e-08
-1.8425007e-07
-1.374367e-06
-6.9945666e-08
1.9104027e-07
1.5288377e-07
-4.7820396e-08
-1.2909144e-06
-1.4769796e-07
-5.6301011e-08
-1.3524522e-06
1.4952043e-07
7.1981418e-06
-1.8850022e-06
-1.7661309e-06
-6.847177e-06
-1.8080629e-06
-2.4061376e-06
7.4267911e-06
2.0943731e-06
-1.8247464e-06
-6.0234083e-07
-1.9941752e-06
-1.870802e-06
-7.2263695e-07
2.3738256e-06
1.019472e-06
-1.7694375e-06
-3.0697556e-07
-9.9453989e-07
-1.8555779e-06
-3.6947018e-07
1.112871e-06
5.6685082e-07
-1.7317972e-06
-1.7470502e-07
-5.5949297e-07
-1.827489e-06
-2.1218075e-07
5.9896717e-07
3.5745317e-07
-1.706725e-06
-1.1123823e-07
-3.5411684e-07
-1.7993688e-06
-1.3556824e-07
3.6746999e-07
2.5479793e-07
-1.6895403e-06
-7.9439523e-08
-2.5187502e-07
-1.7720501e-06
-9.7114624e-08
2.5464831e-07
2.0480655e-07
-6.3743894e-08
-1.6771481e-06
-2.0127543e-07
-7.7907123e-08
-1.7443328e-06
1.9869545e-07
9.3795408e-06
-2.4144045e-06
-2.3225079e-06
-8.9888974e-06
-2.3020258e-06
-3.2300028e-06
9.5978828e-06
2.7310018e-06
-2.339193e-06
-7.8709722e-07
-2.621457e-06
-2.395241e-06
-9.7922684e-07
3.080807e-06
1.3294724e-06
-2.2695077e-06
-3.9855001e-07
-1.3075835e-06
-2.3849796e-06
-4.9662173e-07
1.4463626e-06
7.3804973e-07
-2.2225212e-06
-2.2528942e-07
-7.3445192e-07
-2.3548472e-06
-2.8281223e-07
7.7854888e-07
4.6416373e-07
-2.1918234e-06
-1.4249419e-07
-4.6360575e-07
-2.3229376e-06
-1.7968058e-07
4.7636651e-07
3.2967045e-07
-2.1711036e-06
-1.0120398e-07
-3.286258e-07
-2.2917896e-06
-1.2788151e-07
3.2928949e-07
2.6408573e-07
-8.079045e-08
-2.1567102e-06
-2.6143274e-07
-1.0190601e-07
-2.2594978e-06
2.5579278e-07
1.21159e-05
-3.0990058e-06
-3.0201025e-06
-1.163361e-05
-2.9551068e-06
-4.2333752e-06
1.233714e-05
3.5166532e-06
-3.0044823e-06
-1.012698e-06
-3.3855762e-06
-3.0879636e-06
-1.3004577e-06
3.9707408e-06
1.7100807e-06
-2.9150095e-06
-5.1146337e-07
-1.6866402e-06
-3.0849139e-06
-6.5515366e-07
1.865563e-06
9.474813e-07
-2.854509e-06
-2.8815914e-07
-9.4511223e-07
-3.0508036e-06
-3.722186e-07
1.0027773e-06
5.9392471e-07
-2.8148071e-06
-1.8166362e-07
-5.9445724e-07
-3.0119328e-06
-2.3537064e-07
6.107441e-07
4.1979398e-07
-2.7881288e-06
-1.2839511e-07
-4.1928112e-07
-2.973205e-06
-1.663107e-07
4.1949535e-07
3.3433776e-07
-1.0183498e-07
-2.7697536e-06
-3.3166846e-07
-1.3152797e-07
-2.9332117e-06
3.2396654e-07
1.5628368e-05
-3.9724689e-06
-3.8893638e-06
-1.5035176e-05
-3.7873825e-06
-5.4654844e-06
1.5854489e-05
4.527183e-06
-3.8545834e-06
-1.2903436e-06
-4.3674227e-06
-3.9742921e-06
-1.7090933e-06
5.1227284e-06
2.1994621e-06
-3.7406816e-06
-6.5146876e-07
-2.1733586e-06
-3.9848758e-06
-8.5520449e-07
2.4100966e-06
1.2160248e-06
-3.6641545e-06
-3.6608483e-07
-1.2146262e-06
-3.950608e-06
-4.8376574e-07
1.2933042e-06
7.5932163e-07
-3.6144019e-06
-2.2993849e-07
-7.6079939e-07
-3.9060448e-06
-3.0403022e-07
7.8341811e-07
5.3366093e-07
-3.5813139e-06
-1.6158326e-07
-5.3356075e-07
-3.8596392e-06
-2.1308541e-07
5.3402995e-07
4.21945e-07
-1.2719635e-07
-3.5587952e-06
-4.1910233e-07
-1.6699002e-07
-3.8116998e-06
4.0946779e-07
2.0136743e-05
-5.0990113e-06
-4.9724665e-06
-1.9389484e-05
-4.8612776e-06
-6.9831325e-06
2.0371736e-05
5.833895e-06
-4.9561409e-06
-1.6313968e-06
-5.6357121e-06
-5.1264226e-06
-2.2175153e-06
6.607462e-06
2.832691e-06
-4.8122243e-06
-8.2411031e-07
-2.803966e-06
-5.1582223e-06
-1.1076045e-06
3.1168907e-06
1.5627621e-06
-4.7157649e-06
-4.6228376e-07
-1.5630225e-06
-5.128199e-06
-6.2279646e-07
1.6717696e-06
9.7156117e-07
-4.6537501e-06
-2.8909357e-07
-9.7442092e-07
-5.0790035e-06
-3.8836088e-07
1.0066964e-06
6.7820689e-07
-4.6130687e-06
-2.017003e-07
-6.7877118e-07
-5.0248594e-06
-2.6975525e-07
6.8073275e-07
5.3135854e-07
-1.5726278e-07
-4.5857786e-06
-5.2858223e-07
-2.0910959e-07
-4.9683293e-06
5.1694803e-07
2.5669495e-05
-6.4664778e-06
-6.0689082e-06
-2.4935829e-05
-6.1188062e-06
-8.5794421e-06
2.571691e-05
7.4620861e-06
-6.311154e-06
-1.9906332e-06
-7.2581735e-06
-6.5156763e-06
-2.7724813e-06
8.4139224e-06
3.6250206e-06
-6.1396663e-06
-1.0088493e-06
-3.6117693e-06
-6.5979616e-06
-1.3898963e-06
3.9895978e-06
1.9959857e-06
-6.0246663e-06
-5.6573888e-07
-2.0075306e-06
-6.5840392e-06
-7.7757495e-07
2.136842e-06
1.2341734e-06
-5.9511745e-06
-3.5218159e-07
-1.2445772e-06
-6.5355109e-06
-4.8116381e-07
1.2784481e-06
8.5463595e-07
-5.9039387e-06
-2.4371995e-07
-8.598521e-07
-6.47622e-06
-3.3086582e-07
8.564558e-07
6.6240195e-07
-1.8787824e-07
-5.8732607e-06
-6.6246468e-07
-2.532506e-07
-6.4122183e-06
6.4254139e-07
3.2858469e-05
-8.2169924e-06
-7.3249975e-06
-3.2007126e-05
-7.752304e-06
-1.0436819e-05
3.2777195e-05
9.5564894e-06
-8.0418353e-06
-2.3979981e-06
-9.3242815e-06
-8.3106776e-06
-3.4173376e-06
1.0759719e-05
4.6425111e-06
-7.8339057e-06
-1.2190706e-06
-4.6402193e-06
-8.4499415e-06
-1.7183635e-06
5.1102424e-06
2.5472599e-06
-7.6937501e-06
-6.8256094e-07
-2.5705933e-06
-8.4517802e-06
-9.5682989e-07
2.7283538e-06
1.5640468e-06
-7.6046002e-06
-4.2232287e-07
-1.5830553e-06
-8.4016758e-06
-5.8711764e-07
1.6198963e-06
1.0722589e-06
-7.5485197e-06
-2.8925716e-07
-1.0828019e-06
-8.3347884e-06
-3.9902928e-07
1.0735353e-06
8.199099e-07
-2.1977777e-07
-7.5133351e-06
-8.2319486e-07
-3.0077946e-07
-8.2612377e-06
7.9388814e-07
4.2734761e-05
-1.0518732e-05
-8.8304671e-06
-4.1716855e-05
-9.9003984e-06
-1.264793e-05
4.2456299e-05
1.2392471e-05
-1.0315102e-05
-2.8904042e-06
-1.2103695e-05
-1.0679954e-05
-4.1735165e-06
1.3928205e-05
6.0101793e-06
-1.005671e-05
-1.473392e-06
-6.0142495e-06
-1.0902757e-05
-2.108108e-06
6.6227271e-06
3.2823474e-06
-9.8828841e-06
-8.2285974e-07
-3.3158746e-06
-1.0927943e-05
-1.1688801e-06
3.5195839e-06
1.9984471e-06
-9.7734231e-06
-5.0525464e-07
-2.0249764e-06
-1.0877182e-05
-7.1099126e-07
2.0715603e-06
1.3531208e-06
-9.7060939e-06
-3.4170952e-07
-1.3679976e-06
-1.0801804e-05
-4.7675604e-07
1.3554692e-06
1.0172981e-06
-2.5498635e-07
-9.6654622e-06
-1.0227214e-06
-3.5276993e-07
-1.0717719e-05
9.8520344e-07
5.4245064e-05
-1.3220061e-05
-9.9205732e-06
-5.3582977e-05
-1.2290394e-05
-1.4632903e-05
5.3264931e-05
1.5774484e-05
-1.3029724e-05
-3.2692772e-06
-1.5585947e-05
-1.3393298e-05
-4.8728221e-06
1.7576693e-05
7.6547562e-06
-1.2733651e-05
-1.6734294e-06
-7.7507921e-06
-1.3742121e-05
-2.4728062e-06
8.3682778e-06
4.1627688e-06
-1.2530827e-05
-9.3266232e-07
-4.2557898e-06
-1.3812466e-05
-1.3652676e-06
4.4295011e-06
2.5142966e-06
-1.2406612e-05
-5.6801432e-07
-2.5757517e-06
-1.3772518e-05
-8.2282112e-07
2.586179e-06
1.6780398e-06
-1.2332377e-05
-3.7856688e-07
-1.7154167e-06
-1.3696277e-05
-5.4339527e-07
1.6684385e-06
1.2360633e-06
-2.7634793e-07
-1.2290477e-05
-1.2566014e-06
-3.9325428e-07
-1.3608175e-05
1.1884463e-06
6.9672042e-05
-1.7064643e-05
-1.1173669e-05
-6.8610398e-05
-1.6084901e-05
-1.5625902e-05
6.7559281e-05
2.0823387e-05
-1.672455e-05
-3.9177129e-06
-2.0515044e-05
-1.729761e-05
-5.544518e-06
2.2707791e-05
1.0085255e-05
-1.6293704e-05
-2.0095125e-06
-1.0180017e-05
-1.7651573e-05
-2.8292992e-06
1.079571e-05
5.4480699e-06
-1.6010919e-05
-1.1133034e-06
-5.5502144e-06
-1.7693794e-05
-1.5547317e-06
5.6797542e-06
3.2500704e-06
-1.5842346e-05
-6.6908668e-07
-3.3175704e-06
-1.7622854e-05
-9.2627195e-07
3.2825813e-06
2.1303974e-06
-1.5744149e-05
-4.3725002e-07
-2.1699111e-06
-1.7520998e-05
-6.0110267e-07
2.0862489e-06
1.5323742e-06
-3.1137003e-07
-1.5689304e-05
-1.5521971e-06
-4.2535797e-07
-1.7412426e-05
1.4559064e-06
8.547993e-05
-2.1320939e-05
-1.1567534e-05
-8.5065759e-05
-2.0589835e-05
-1.5573593e-05
8.2626113e-05
2.7450089e-05
-2.0955436e-05
-4.3617226e-06
-2.7371582e-05
-2.1837561e-05
-5.9637555e-06
2.9117052e-05
1.3282917e-05
-2.0436179e-05
-2.2369311e-06
-1.3574756e-05
-2.2152472e-05
-3.0595923e-06
1.3828121e-05
7.1200957e-06
-2.0096699e-05
-1.2291135e-06
-7.3437653e-06
-2.2145792e-05
-1.6722e-06
7.230884e-06
4.1845228e-06
-1.989866e-05
-7.2674198e-07
-4.3249068e-06
-2.2039331e-05
-9.8310703e-07
4.1348971e-06
2.6852915e-06
-1.9788257e-05
-4.6381208e-07
-2.7691315e-06
-2.1917769e-05
-6.2513772e-07
2.5877636e-06
1.880732e-06
-3.2050033e-07
-1.9731247e-05
-1.9286116e-06
-4.3085812e-07
-2.1801869e-05
1.7703326e-06
8.3033952e-05
-2.1086022e-05
-1.1405113e-05
-8.3030587e-05
-2.1106502e-05
-1.4986674e-05
8.0677997e-05
2.8808721e-05
-2.0799088e-05
-4.5552432e-06
-2.8902135e-05
-2.2061272e-05
-6.1252365e-06
2.9924971e-05
1.3937106e-05
-2.0320705e-05
-2.3277211e-06
-1.43247e-05
-2.2234528e-05
-3.1484319e-06
1.41992e-05
7.4137548e-06
-2.000515e-05
-1.2680686e-06
-7.6903553e-06
-2.2164914e-05
-1.7112862e-06
7.383227e-06
4.2928987e-06
-1.9824762e-05
-7.3855139e-07
-4.4614775e-06
-2.2041188e-05
-9.9398016e-07
4.1800453e-06
2.6952081e-06
-1.9728894e-05
-4.6108426e-07
-2.7938043e-06
-2.1926571e-05
-6.2021935e-07
2.5756721e-06
1.8345708e-06
-3.0945455e-07
-1.9684239e-05
-1.8902719e-06
-4.1667025e-07
-2.1831726e-05
1.7255376e-06
7.9949322e-05
-2.0900903e-05
-1.0714428e-05
-8.0331343e-05
-2.1628584e-05
-1.3823625e-05
7.8014417e-05
2.9902537e-05
-2.0697347e-05
-4.5219817e-06
-3.0139355e-05
-2.2330861e-05
-6.0245829e-06
3.050416e-05
1.4493504e-05
-2.0269973e-05
-2.3051191e-06
-1.494348e-05
-2.2388939e-05
-3.103222e-06
1.4506371e-05
7.6663119e-06
-1.9984735e-05
-1.2467257e-06
-7.9728934e-06
-2.2270187e-05
-1.6788571e-06
7.5151315e-06
4.382521e-06
-1.982457e-05
-7.1658599e-07
-4.5646507e-06
-2.2135154e-05
-9.6473189e-07
4.2182394e-06
2.6965919e-06
-1.9743531e-05
-4.3847505e-07
-2.8002406e-06
-2.2029154e-05
-5.9154146e-07
2.5619134e-06
1.7850974e-06
-2.8614606e-07
-1.9710206e-05
-1.8417296e-06
-3.8764527e-07
-2.1954326e-05
1.6812452e-06
7.6406178e-05
-2.0751889e-05
-9.5643116e-06
-7.7134009e-05
-2.2130004e-05
-1.2129918e-05
7.4801497e-05
3.0596126e-05
-2.0672675e-05
-4.2525657e-06
-3.0944757e-05
-2.266914e-05
-5.6124601e-06
3.0723138e-05
1.4884362e-05
-2.0322408e-05
-2.1759702e-06
-1.5363778e-05
-2.2659831e-05
-2.9056515e-06
1.4677482e-05
7.8463919e-06
-2.0080721e-05
-1.1738044e-06
-8.1610003e-06
-2.2516198e-05
-1.5693478e-06
7.59325e-06
4.4409018e-06
-1.9945632e-05
-6.6916947e-07
-4.6234079e-06
-2.2379627e-05
-8.9567127e-07
4.2352706e-06
2.6868482e-06
-1.9879504e-05
-4.0371312e-07
-2.7877391e-06
-2.2283581e-05
-5.4233009e-07
2.5415908e-06
1.7351927e-06
-2.5790146e-07
-1.9854892e-05
-1.7880497e-06
-3.4862574e-07
-2.2225176e-05
1.6377683e-06
7.3286466e-05
-2.0439885e-05
-8.3430232e-06
-7.4273627e-05
-2.2109655e-05
-1.0409764e-05
7.1760455e-05
3.0332798e-05
-2.0535001e-05
-3.7174144e-06
-3.0772833e-05
-2.2679627e-05
-4.8063599e-06
3.0096668e-05
1.481953e-05
-2.0307798e-05
-1.9093042e-06
-1.5313401e-05
-2.2720829e-05
-2.4919136e-06
1.4446994e-05
7.8208629e-06
-2.0133917e-05
-1.0337229e-06
-8.1348257e-06
-2.2612326e-05
-1.3495666e-06
7.4925783e-06
4.4196466e-06
-2.0031854e-05
-5.9198338e-07
-4.5988959e-06
-2.2496892e-05
-7.7365971e-07
4.1821998e-06
2.6631663e-06
-1.9978894e-05
-3.5925265e-07
-2.7605881e-06
-2.2411356e-05
-4.7128317e-07
2.5065831e-06
1.7077752e-06
-2.3122448e-07
-1.9955831e-05
-1.7575151e-06
-3.053269e-07
-2.2356023e-05
1.6091433e-06
7.0981279e-05
-2.0605775e-05
-7.0577872e-06
-7.2082496e-05
-2.2382658e-05
-8.6097965e-06
6.9316672e-05
2.9462143e-05
-2.0678215e-05
-3.1224992e-06
-2.998462e-05
-2.2879331e-05
-3.93578e-06
2.9088236e-05
1.4453958e-05
-2.0477997e-05
-1.6004566e-06
-1.4963024e-05
-2.2916787e-05
-2.0368788e-06
1.4036377e-05
7.6593641e-06
-2.0328329e-05
-8.6775549e-07
-7.975001e-06
-2.2822198e-05
-1.1045673e-06
7.3197752e-06
4.3494412e-06
-2.0242818e-05
-4.9877834e-07
-4.5281587e-06
-2.2723019e-05
-6.3561325e-07
4.1122151e-06
2.6371138e-06
-2.0201023e-05
-3.0437367e-07
-2.7337895e-06
-2.265164e-05
-3.8939191e-07
2.4838426e-06
1.7042608e-06
-1.973481e-07
-2.0185868e-05
-1.7532939e-06
-2.5418443e-07
-2.2606095e-05
1.6075731e-06
6.8871571e-05
-2.088223e-05
-5.7988157e-06
-7.0044793e-05
-2.2797096e-05
-6.7676043e-06
6.7088012e-05
2.8694443e-05
-2.0912381e-05
-2.5624205e-06
-2.9224372e-05
-2.3218515e-05
-3.0689127e-06
2.8248994e-05
1.4134443e-05
-2.0720818e-05
-1.3126846e-06
-1.4613778e-05
-2.3245263e-05
-1.5872171e-06
1.3711527e-05
7.5206447e-06
-2.0584408e-05
-7.1331306e-07
-7.8114978e-06
-2.3160853e-05
-8.6164502e-07
7.1933116e-06
4.2920253e-06
-2.0509778e-05
-4.1165531e-07
-4.4537795e-06
-2.3075815e-05
-4.9748532e-07
4.0688581e-06
2.6194573e-06
-2.0476822e-05
-2.5263916e-07
-2.7041483e-06
-2.3016978e-05
-3.0644469e-07
2.477672e-06
1.7056004e-06
-1.6499614e-07
-2.0467852e-05
-1.7469227e-06
-2.0149701e-07
-2.2980397e-05
1.6163307e-06
6.7597728e-05
-2.1156138e-05
-4.5254406e-06
-6.8902565e-05
-2.3285423e-05
-5.1160673e-06
6.5905697e-05
2.822489e-05
-2.1154983e-05
-2.0080671e-06
-2.8780399e-05
-2.3659494e-05
-2.3504213e-06
2.7880468e-05
1.3935507e-05
-2.0970385e-05
-1.0306673e-06
-1.4402124e-05
-2.3678036e-05
-1.2237305e-06
1.3590561e-05
7.4112406e-06
-2.0848477e-05
-5.5860728e-07
-7.6878568e-06
-2.3604551e-05
-6.61887e-07
7.1379966e-06
4.2187214e-06
-2.0789189e-05
-3.1946201e-07
-4.3702041e-06
-2.353745e-05
-3.7823353e-07
4.0323667e-06
2.5642395e-06
-2.0770535e-05
-1.9326686e-07
-2.6422676e-06
-2.3497871e-05
-2.2944629e-07
2.4476605e-06
1.6613659e-06
-1.2391095e-07
-2.0774463e-05
-1.6985248e-06
-1.4795623e-07
-2.3479107e-05
1.5890602e-06
5.3912375e-05
-1.7053022e-05
-3.5434691e-06
-5.4951671e-05
-1.8879488e-05
-3.8175312e-06
5.251707e-05
2.2530151e-05
-1.7061188e-05
-1.5806231e-06
-2.294943e-05
-1.9176166e-05
-1.795406e-06
2.2271812e-05
1.113257e-05
-1.6926963e-05
-8.1267872e-07
-1.1484786e-05
-1.9191724e-05
-9.4781836e-07
1.0872215e-05
5.8928109e-06
-1.6838521e-05
-4.3990083e-07
-6.0999606e-06
-1.9136753e-05
-5.1249734e-07
5.688449e-06
3.3222611e-06
-1.6796077e-05
-2.4963959e-07
-3.4345289e-06
-1.9086788e-05
-2.90574e-07
3.1846355e-06
1.9910972e-06
-1.6782689e-05
-1.4913853e-07
-2.0486153e-06
-1.9057366e-05
-1.7398974e-07
1.9062171e-06
1.2672481e-06
-9.4025839e-08
-1.6785418e-05
-1.2944056e-06
-1.1025257e-07
-1.9043186e-05
1.2153631e-06
4.3628421e-05
-1.3622599e-05
-2.874304e-06
-4.436133e-05
-1.5184502e-05
-2.8576248e-06
4.258342e-05
1.8242995e-05
-1.3651295e-05
-1.2946973e-06
-1.8500227e-05
-1.5443443e-05
-1.3988041e-06
1.8105332e-05
9.0197277e-06
-1.3559909e-05
-6.6657542e-07
-9.2572178e-06
-1.5457576e-05
-7.5525346e-07
8.8412952e-06
4.7553087e-06
-1.3496278e-05
-3.6080592e-07
-4.8980364e-06
-1.5412663e-05
-4.106004e-07
4.6084973e-06
2.658978e-06
-1.3464654e-05
-2.0369673e-07
-2.7365473e-06
-1.5372152e-05
-2.319706e-07
2.5598628e-06
1.5741717e-06
-1.3453874e-05
-1.2057486e-07
-1.6135176e-06
-1.5348187e-05
-1.3767944e-07
1.5138948e-06
9.8639899e-07
-7.5041933e-08
-1.3454939e-05
-1.0043192e-06
-8.6111041e-08
-1.5336173e-05
9.5024215e-07
3.5651721e-05
-1.0903358e-05
-2.3607539e-06
-3.6203567e-05
-1.220013e-05
-2.1176972e-06
3.4866458e-05
1.4915515e-05
-1.0953339e-05
-1.0739353e-06
-1.5086297e-05
-1.2432382e-05
-1.1077659e-06
1.4856727e-05
7.3776029e-06
-1.0895039e-05
-5.5260936e-07
-7.5498706e-06
-1.2445663e-05
-6.1626197e-07
7.2518912e-06
3.878066e-06
-1.0850523e-05
-2.9942559e-07
-3.983963e-06
-1.2407253e-05
-3.3868021e-07
3.7677345e-06
2.1550079e-06
-1.0827538e-05
-1.6854306e-07
-2.2131478e-06
-1.2372833e-05
-1.9139573e-07
2.0800128e-06
1.2638455e-06
-1.0819429e-05
-9.9116396e-08
-1.2934142e-06
-1.2352247e-05
-1.1297693e-07
1.2185555e-06
7.8224818e-07
-6.1081785e-08
-1.0820014e-05
-7.9562481e-07
-6.9983186e-08
-1.2341494e-05
7.553665e-07
2.8826513e-05
-8.5764728e-06
-2.0140381e-06
-2.9174474e-05
-9.6577838e-06
-1.5989184e-06
2.8337778e-05
1.2084287e-05
-8.6439493e-06
-9.3574896e-07
-1.2154999e-05
-9.8808213e-06
-9.336093e-07
1.2133166e-05
5.9829011e-06
-8.6123307e-06
-4.8262874e-07
-6.0845015e-06
-9.9050215e-06
-5.3565764e-07
5.9264958e-06
3.1390822e-06
-8.5842271e-06
-2.6228649e-07
-3.2043258e-06
-9.8804496e-06
-2.9770515e-07
3.0735341e-06
1.7365244e-06
-8.5695448e-06
-1.4739955e-07
-1.7723511e-06
-9.8559825e-06
-1.6907273e-07
1.6897337e-06
1.0112665e-06
-8.5648178e-06
-8.6286607e-08
-1.0288243e-06
-9.8409809e-06
-9.9672723e-08
9.8295963e-07
6.1990403e-07
-5.2783878e-08
-8.5659909e-06
-6.2702969e-07
-6.1376642e-08
-9.8330509e-06
6.0336701e-07
2.3860336e-05
-6.8948688e-06
-1.7503516e-06
-2.4131683e-05
-7.7900057e-06
-1.2618496e-06
2.3559065e-05
9.9813793e-06
-6.9572742e-06
-8.2615606e-07
-1.0028569e-05
-7.9776832e-06
-8.30185e-07
1.0065628e-05
4.9390073e-06
-6.9358753e-06
-4.2735615e-07
-5.0156798e-06
-7.9977754e-06
-4.9094134e-07
4.9143819e-06
2.5848614e-06
-6.9146296e-06
-2.323747e-07
-2.6360197e-06
-7.9771906e-06
-2.7521541e-07
2.541786e-06
1.4243499e-06
-6.9033097e-06
-1.3038177e-07
-1.4526882e-06
-7.95664e-06
-1.5734778e-07
1.3920735e-06
8.2471467e-07
-6.8995956e-06
-7.6034471e-08
-8.3868158e-07
-7.943759e-06
-9.2860835e-08
8.0502137e-07
5.0163042e-07
-4.6237311e-08
-6.9004167e-06
-5.0735661e-07
-5.6973006e-08
-7.9367621e-06
4.9022902e-07
1.96412e-05
-5.5294958e-06
-1.4752785e-06
-1.9928019e-05
-6.2487079e-06
-1.0316448e-06
1.944482e-05
8.1987818e-06
-5.5865353e-06
-7.0185706e-07
-8.2660439e-06
-6.401983e-06
-7.7711777e-07
8.298988e-06
4.0576115e-06
-5.5727533e-06
-3.6763404e-07
-4.1311168e-06
-6.4119438e-06
-4.6807985e-07
4.0447092e-06
2.1190545e-06
-5.5570375e-06
-1.9931963e-07
-2.167826e-06
-6.3903998e-06
-2.6415775e-07
2.0864521e-06
1.1636671e-06
-5.548318e-06
-1.1149955e-07
-1.1912694e-06
-6.3710547e-06
-1.5151044e-07
1.1384837e-06
6.7066056e-07
-5.5454305e-06
-6.4792282e-08
-6.8479069e-07
-6.3591226e-06
-8.9294185e-08
6.5516148e-07
4.0541044e-07
-3.9225505e-08
-5.5460615e-06
-4.1179183e-07
-5.4570753e-08
-6.352634e-06
3.9651878e-07
1.5799866e-05
-4.3445005e-06
-1.2626745e-06
-1.6005268e-05
-4.9517641e-06
-9.2804524e-07
1.5765565e-05
6.616027e-06
-4.4050776e-06
-6.1797857e-07
-6.639331e-06
-5.0852726e-06
-7.8897166e-07
6.761381e-06
3.2765684e-06
-4.4008221e-06
-3.3016497e-07
-3.3182941e-06
-5.0890369e-06
-4.8389566e-07
3.2961469e-06
1.7099621e-06
-4.3911598e-06
-1.7941964e-07
-1.7395251e-06
-5.0696968e-06
-2.7279943e-07
1.6992626e-06
9.3693794e-07
-4.3855122e-06
-1.0023367e-07
-9.5385187e-07
-5.0538469e-06
-1.5536878e-07
9.2494596e-07
5.383617e-07
-4.3840963e-06
-5.8090576e-08
-5.4647972e-07
-5.0445393e-06
-9.091491e-08
5.3067419e-07
3.2390379e-07
-3.5058095e-08
-4.3850954e-06
-3.2707244e-07
-5.5203881e-08
-5.0396219e-06
3.1961928e-07