/*--------------------------------*- C++ -*----------------------------------*\
| =========                 |                                                 |
| \\      /  F ield         | OpenFOAM: The Open Source CFD Toolbox           |
|  \\    /   O peration     | Version:  2206                                  |
|   \\  /    A nd           | Website:  www.openfoam.com                      |
|    \\/     M anipulation  |                                                 |
\*---------------------------------------------------------------------------*/
FoamFile
{
    version     2.0;
    format      ascii;
    arch        "LSB;label=32;scalar=64";
    class       volScalarField;
    location    "500";
    object      rho;
}
// * * * * * * * * * * * * * * * * * * * * * * * * * * * * * * * * * * * * * //

dimensions      [1 -3 0 0 0 0 0];

internalField   nonuniform List<scalar> 
50904
(
1.243926
1.2376082
1.2437176
1.2376802
1.2445866
1.2387454
1.2444338
1.2389471
1.2453266
1.2398273
1.245218
1.2400619
1.2460591
1.2407552
1.2459699
1.2409477
1.2470094
1.2417962
1.2469038
1.2419065
1.2479641
1.2427311
1.2477418
1.2426795
1.2483595
1.2431498
1.24804
1.242983
1.2485022
1.2433853
1.2481346
1.2431563
1.2486721
1.2437062
1.2482584
1.2434114
1.2489223
1.2441618
1.2484692
1.2438097
1.2492829
1.2447925
1.2488079
1.2444039
1.2497883
1.2456377
1.2492923
1.2452087
1.250484
1.24674
1.2499909
1.2462949
1.2513809
1.2481034
1.2509089
1.2476651
1.2525196
1.2497461
1.2520863
1.2493453
1.2537033
1.25138
1.2533134
1.251033
1.2547668
1.2528045
1.2544199
1.2525091
1.2557278
1.2540489
1.2554127
1.2537955
1.2565487
1.2550919
1.2562493
1.2548634
1.2572505
1.2559603
1.256968
1.2557609
1.2578269
1.2566509
1.257554
1.2564735
1.2583076
1.2571879
1.2580284
1.2570152
1.258662
1.2575338
1.2583496
1.2573314
1.2589081
1.2577247
1.25855
1.257476
1.259088
1.2578382
1.2586847
1.2575335
1.2592247
1.2579051
1.2587833
1.2575425
1.2593366
1.2579421
1.2588649
1.2575172
1.2594309
1.2579624
1.2589381
1.2574737
1.2595097
1.2579764
1.2589971
1.2574392
1.2595148
1.2578794
1.2589522
1.2572562
1.259154
1.257367
1.2584678
1.2566201
1.2582851
1.2564516
1.2575661
1.2557232
1.2576308
1.2559149
1.2569958
1.2552976
1.2573478
1.2556716
1.2567679
1.2550655
1.2571858
1.2555104
1.2566229
1.2548827
1.2571203
1.2554364
1.2565487
1.2547821
1.2444905
1.2392425
1.247382
1.2441893
1.2485123
1.2464101
1.2491338
1.2476814
1.2495001
1.2484331
1.2497438
1.2489332
1.2499231
1.2493085
1.2451587
1.2404136
1.2478955
1.2450546
1.2489517
1.247054
1.2495262
1.2482327
1.2498615
1.2489226
1.250083
1.2493753
1.250245
1.2497136
1.2458689
1.2414304
1.2484896
1.2458713
1.2495103
1.2477227
1.2500645
1.2488718
1.2503915
1.2495689
1.2506103
1.2500316
1.2507703
1.2503766
1.2465571
1.2422392
1.2491049
1.2465824
1.2501254
1.2483553
1.2506773
1.2494661
1.2510009
1.250148
1.2512161
1.250608
1.2513735
1.2509534
1.2474226
1.2430995
1.2499263
1.2473162
1.2509679
1.2490572
1.2515431
1.2501735
1.2518885
1.2508485
1.2521205
1.2513077
1.2522898
1.2516391
1.2481732
1.2437383
1.2506201
1.2477573
1.2516522
1.2494369
1.2522107
1.2505277
1.2525451
1.2511925
1.2527749
1.2516509
1.2529364
1.252021
1.2484092
1.2439258
1.2508163
1.2477322
1.2518474
1.2493972
1.2524061
1.2505193
1.2527405
1.2512134
1.2529643
1.2516897
1.2531272
1.2520658
1.2484567
1.2440044
1.2508282
1.247601
1.2518538
1.2492334
1.2524084
1.2503656
1.2527415
1.2510773
1.2529641
1.2515623
1.2531256
1.2519367
1.248533
1.2441524
1.2508718
1.2475265
1.2518971
1.2491233
1.2524498
1.2502538
1.2527822
1.2509773
1.2530037
1.2514616
1.2531634
1.2518288
1.2486948
1.2444396
1.2509876
1.2475542
1.252007
1.2490933
1.2525547
1.2502146
1.2528853
1.250933
1.2531037
1.2514257
1.2532606
1.2517879
1.2489953
1.2449333
1.2512342
1.2477947
1.2522404
1.2492653
1.2527808
1.2503502
1.2531066
1.2510494
1.2533196
1.2515405
1.2534716
1.2518929
1.2494431
1.2456286
1.25161
1.2482242
1.2525985
1.249618
1.253127
1.250665
1.2534456
1.2513445
1.2536528
1.2518244
1.2537983
1.2521627
1.250136
1.2466479
1.2522199
1.2490195
1.2531822
1.2502837
1.253691
1.2512807
1.2539939
1.2519571
1.2541912
1.2524037
1.2543263
1.252718
1.2510566
1.2479452
1.2530284
1.2500752
1.2539616
1.2512634
1.2544525
1.2522222
1.2547424
1.2528633
1.2549294
1.2532774
1.2550562
1.2535653
1.2522364
1.2495593
1.2540496
1.2514314
1.2549534
1.2525564
1.2554239
1.2534766
1.2557003
1.2540685
1.2558754
1.2544486
1.255991
1.2547044
1.2534981
1.2512334
1.2551572
1.2528946
1.2560132
1.2539509
1.2564595
1.2547951
1.2567174
1.2553293
1.2568776
1.2556677
1.2569798
1.2558885
1.2546491
1.2527113
1.2561667
1.2541978
1.2569654
1.2551791
1.2573828
1.2559474
1.2576203
1.2564248
1.2577653
1.2567232
1.2578548
1.256912
1.2556805
1.254
1.257066
1.2553411
1.2578032
1.2562569
1.2581899
1.256957
1.2584072
1.257384
1.2585378
1.2576474
1.2586169
1.2578106
1.2565833
1.2551099
1.2578385
1.2563303
1.2585008
1.2571645
1.2588487
1.2577913
1.2590424
1.2581683
1.2591576
1.2583996
1.2592294
1.258545
1.2573591
1.2560578
1.2584971
1.2571756
1.2590798
1.2579276
1.2593873
1.2584857
1.2595591
1.258821
1.259662
1.2590275
1.2597264
1.2591592
1.2579812
1.2568086
1.2590054
1.257829
1.2595192
1.2585108
1.25979
1.259012
1.2599416
1.2593171
1.2600329
1.2595082
1.2600908
1.2596234
1.2584624
1.2573773
1.2593911
1.2583199
1.2598483
1.258951
1.2600886
1.2594108
1.2602238
1.2596893
1.260306
1.2598635
1.260358
1.2599681
1.2587706
1.2577173
1.2596352
1.2586064
1.2600529
1.2591976
1.2602697
1.2596266
1.2603923
1.259883
1.2604693
1.2600401
1.2605163
1.2601344
1.2589425
1.2578794
1.2597678
1.2587384
1.2601729
1.259307
1.2603848
1.2597114
1.2605023
1.2599477
1.2605734
1.2600909
1.2606171
1.2601786
1.259044
1.2579551
1.259844
1.2588007
1.2602459
1.25936
1.2604592
1.2597503
1.2605767
1.2599733
1.2606458
1.2601059
1.2606878
1.2601863
1.2591138
1.2579774
1.2599006
1.2588229
1.260301
1.2593803
1.2605156
1.2597622
1.2606333
1.2599776
1.260702
1.2601051
1.2607438
1.2601823
1.2591726
1.2579537
1.2599481
1.2588241
1.260347
1.2593933
1.2605636
1.2597656
1.2606813
1.2599758
1.2607499
1.2601013
1.260791
1.2601774
1.2592261
1.2579228
1.2599912
1.2588281
1.2603871
1.2594326
1.2606059
1.2597996
1.2607243
1.2600019
1.2607927
1.2601222
1.2608332
1.2601981
1.2592668
1.2578857
1.2600222
1.2587976
1.2604137
1.2593958
1.2606296
1.2597639
1.2607487
1.2599659
1.2608177
1.2600945
1.2608565
1.2601716
1.2591776
1.2576163
1.259914
1.2584954
1.2603026
1.2590939
1.2605033
1.2594691
1.2606198
1.2596811
1.2606801
1.2598056
1.2607148
1.2598799
1.2586363
1.2569311
1.2593255
1.2577758
1.2596984
1.2583852
1.2599075
1.25875
1.2600218
1.2589498
1.2600868
1.2590641
1.2601248
1.25913
1.25776
1.2561402
1.2585042
1.2571761
1.2589021
1.2578636
1.2591191
1.2582375
1.2592343
1.2584437
1.2592983
1.2585591
1.2593338
1.2586235
1.2572643
1.2557726
1.2580716
1.2569197
1.2585157
1.2576958
1.2587581
1.258105
1.2588854
1.2583215
1.2589542
1.2584404
1.2589905
1.2585054
1.2570598
1.2555665
1.2578939
1.2568057
1.2583691
1.2576358
1.2586297
1.2580638
1.2587652
1.2582882
1.2588377
1.2584108
1.2588756
1.258478
1.2569242
1.255379
1.2577772
1.256669
1.2582689
1.2575151
1.2585411
1.2579499
1.258684
1.2581803
1.2587589
1.2583011
1.2587975
1.2583665
1.2568458
1.2552442
1.2577093
1.2565351
1.2582052
1.25737
1.2584722
1.2577984
1.2586164
1.2580255
1.2586962
1.2581512
1.2587393
1.2582211
1.2500797
1.249636
1.2502142
1.2499127
1.2503255
1.250134
1.2504642
1.2503973
1.2507103
1.2508571
1.2512885
1.251922
1.2503892
1.2500164
1.2505083
1.2502586
1.250606
1.2504495
1.2507297
1.2506857
1.2509652
1.2511362
1.2515272
1.2521911
1.2509095
1.2506793
1.2510296
1.2509348
1.2511291
1.2511388
1.2512486
1.2513759
1.2514611
1.2517873
1.2519884
1.2527801
1.2515112
1.2512646
1.2516271
1.2515221
1.2517258
1.2517309
1.2518487
1.2519853
1.252073
1.2524451
1.2526114
1.2535077
1.2524355
1.2519371
1.2525581
1.2521922
1.2526632
1.2523991
1.2527866
1.2526538
1.2529989
1.2531217
1.2535106
1.2542584
1.2530789
1.2523591
1.2531983
1.2526131
1.253306
1.2528357
1.2534317
1.2531121
1.2536491
1.2536159
1.254173
1.2547819
1.2532683
1.2523988
1.253389
1.2526589
1.2534914
1.2528839
1.2536148
1.2531613
1.2538316
1.2536695
1.2543468
1.2548672
1.253265
1.2522692
1.2533841
1.2525333
1.2534856
1.2527603
1.2536094
1.2530399
1.2538229
1.2535515
1.2543351
1.2547848
1.2533002
1.2521632
1.253417
1.2524301
1.2535171
1.2526572
1.2536401
1.2529358
1.2538485
1.2534416
1.2543521
1.254699
1.253394
1.2521131
1.2535078
1.252383
1.2536057
1.2526083
1.2537258
1.2528851
1.2539306
1.2533858
1.2544229
1.254641
1.2535995
1.2522041
1.2537088
1.2524685
1.2538029
1.2526877
1.2539178
1.2529568
1.2541168
1.253444
1.2545873
1.2546624
1.2539196
1.2524572
1.2540232
1.2527074
1.2541126
1.2529165
1.2542221
1.2531722
1.2544121
1.2536356
1.2548587
1.2547948
1.2544383
1.2529887
1.2545345
1.2532181
1.2546178
1.2534094
1.2547196
1.2536428
1.2548961
1.2540642
1.2553069
1.2551218
1.2551575
1.2538064
1.2552449
1.2540105
1.255321
1.2541806
1.2554145
1.2543863
1.2555768
1.254757
1.2559484
1.2556822
1.2560807
1.2549129
1.2561577
1.2550883
1.2562256
1.2552358
1.2563096
1.2554125
1.2564563
1.2557277
1.2567833
1.2565032
1.2570583
1.2560648
1.2571253
1.2562128
1.2571853
1.2563388
1.2572597
1.2564894
1.2573899
1.2567536
1.2576735
1.2573863
1.2579231
1.2570611
1.2579818
1.2571866
1.2580348
1.2572945
1.2581009
1.2574243
1.2582165
1.2576514
1.2584623
1.2581841
1.2586769
1.2579383
1.2587289
1.2580466
1.2587765
1.2581405
1.2588359
1.2582541
1.2589397
1.2584529
1.2591556
1.2589116
1.2592826
1.2586574
1.2593291
1.2587524
1.2593719
1.2588355
1.2594258
1.258936
1.2595191
1.2591115
1.2597116
1.2595161
1.2597745
1.2592607
1.2598164
1.2593455
1.2598555
1.2594201
1.2599046
1.2595105
1.2599907
1.2596694
1.2601696
1.2600378
1.2601339
1.2597175
1.2601716
1.2597944
1.2602069
1.2598627
1.2602522
1.2599455
1.2603358
1.2600912
1.260518
1.260428
1.2603978
1.2600518
1.2604325
1.2601202
1.260467
1.2601817
1.2605136
1.2602565
1.260599
1.2603884
1.2607676
1.2606932
1.2605527
1.2602079
1.2605849
1.2602695
1.260618
1.2603262
1.2606632
1.2603958
1.2607477
1.2605194
1.2609081
1.2607997
1.2606499
1.260244
1.2606798
1.2603005
1.2607106
1.2603535
1.2607527
1.2604194
1.2608309
1.2605371
1.260979
1.260798
1.2607187
1.2602468
1.2607474
1.2602993
1.2607768
1.2603486
1.2608169
1.2604111
1.2608899
1.2605235
1.261023
1.2607674
1.2607733
1.2602383
1.2608011
1.2602872
1.2608299
1.2603339
1.2608693
1.2603938
1.2609403
1.2605022
1.261061
1.2607316
1.2608199
1.2602313
1.2608474
1.2602781
1.2608754
1.2603231
1.2609126
1.2603817
1.2609784
1.2604885
1.2610998
1.2607116
1.2608614
1.2602506
1.260888
1.2602964
1.2609154
1.2603406
1.2609523
1.2603989
1.2610178
1.2605057
1.2611366
1.2607229
1.2608842
1.260224
1.2609093
1.2602701
1.2609363
1.2603142
1.2609729
1.2603725
1.2610377
1.2604806
1.2611492
1.2606994
1.2607408
1.259928
1.260765
1.2599693
1.2607914
1.2600107
1.2608286
1.2600659
1.2608968
1.2601643
1.2610208
1.2603432
1.2601504
1.2591711
1.2601746
1.2592068
1.2601991
1.2592416
1.2602311
1.2592887
1.2602879
1.2593803
1.2603916
1.2595648
1.2593562
1.2586608
1.2593771
1.2586925
1.2593986
1.2587244
1.2594288
1.2587702
1.2594866
1.2588643
1.2595964
1.2590571
1.2590116
1.2585412
1.2590306
1.2585716
1.2590507
1.2586025
1.2590808
1.2586479
1.2591419
1.2587429
1.2592607
1.2589377
1.2588972
1.2585153
1.2589167
1.258549
1.2589371
1.2585821
1.258968
1.25863
1.2590315
1.2587287
1.2591569
1.2589277
1.2588206
1.2584059
1.2588418
1.2584433
1.2588636
1.2584795
1.2588965
1.2585312
1.2589629
1.2586368
1.2590933
1.2588569
1.2587669
1.2582674
1.2587924
1.2583118
1.2588173
1.2583522
1.2588525
1.2584072
1.2589203
1.2585145
1.2590499
1.2587365
1.2519578
1.2530058
1.2523016
1.2533757
1.2524218
1.253491
1.2524827
1.2535378
1.2525299
1.2535677
1.2525837
1.2535965
1.2521771
1.2531964
1.2525017
1.2535376
1.2526119
1.2536443
1.2526665
1.2536937
1.2527093
1.2537251
1.2527609
1.253761
1.2526247
1.2537671
1.2529525
1.2541155
1.2530667
1.2542285
1.2531241
1.2542869
1.2531673
1.2543282
1.2532184
1.2543702
1.2532618
1.2545489
1.2535993
1.2549311
1.2537205
1.2550509
1.2537805
1.2551179
1.2538245
1.2551739
1.2538811
1.2552285
1.2541765
1.255404
1.2545392
1.2558676
1.2546712
1.2560012
1.2547423
1.2560724
1.2547909
1.2561363
1.2548458
1.2562057
1.2548243
1.2559727
1.2551794
1.2564684
1.2553124
1.2566205
1.2553862
1.2566963
1.2554492
1.2567544
1.2555132
1.2568306
1.2550049
1.2561294
1.2553632
1.2566869
1.2554981
1.2568644
1.2555732
1.2569548
1.255636
1.2570226
1.2557117
1.2571004
1.2550003
1.2561206
1.2553727
1.2567419
1.2555148
1.2569455
1.2555934
1.2570502
1.2556576
1.2571304
1.2557336
1.2572237
1.2550199
1.2561001
1.255403
1.2567814
1.2555501
1.2570107
1.2556319
1.2571305
1.2556985
1.2572234
1.2557771
1.2573317
1.2550867
1.2560921
1.2554765
1.2568237
1.2556263
1.2570742
1.2557099
1.2572072
1.2557783
1.2573117
1.2558588
1.2574332
1.2552312
1.2561218
1.2556192
1.2568813
1.2557691
1.2571466
1.2558531
1.2572891
1.2559216
1.2574024
1.2560023
1.2575351
1.2554745
1.2562212
1.2558539
1.2569853
1.2560021
1.2572566
1.2560855
1.2574036
1.2561536
1.2575213
1.2562337
1.2576598
1.2558747
1.2564486
1.2562319
1.257178
1.2563729
1.2574409
1.2564531
1.2575845
1.2565189
1.2576998
1.2565957
1.2578356
1.2564556
1.2568579
1.2567798
1.257518
1.2569097
1.2577605
1.2569844
1.2578932
1.2570462
1.2579998
1.2571175
1.2581254
1.2572198
1.2574949
1.2575011
1.2580622
1.2576151
1.2582766
1.2576811
1.2583954
1.2577359
1.2584917
1.2577988
1.2586054
1.2580433
1.2582036
1.2582838
1.2586794
1.2583831
1.2588636
1.2584407
1.2589664
1.2584886
1.2590511
1.2585436
1.2591528
1.2587783
1.25887
1.2589845
1.259276
1.2590712
1.2594364
1.2591216
1.2595263
1.2591641
1.2596007
1.2592141
1.2596906
1.2594338
1.2595053
1.2596161
1.2598616
1.2596942
1.2600033
1.2597399
1.2600821
1.259779
1.2601474
1.2598253
1.2602276
1.2599729
1.2600588
1.2601419
1.2603812
1.2602124
1.2605026
1.2602533
1.260571
1.2602875
1.2606278
1.2603278
1.2606987
1.2604262
1.260547
1.2605907
1.2608467
1.260653
1.2609525
1.2606893
1.261012
1.2607203
1.2610625
1.2607582
1.2611284
1.2607646
1.2608985
1.2609262
1.2611893
1.260982
1.2612818
1.2610149
1.2613343
1.2610436
1.2613798
1.2610794
1.2614412
1.2610035
1.2611364
1.261162
1.261414
1.2612148
1.261499
1.2612465
1.2615478
1.2612749
1.2615908
1.2613105
1.2616495
1.2611318
1.2612111
1.2612841
1.2614738
1.2613367
1.2615561
1.2613687
1.2616034
1.2613968
1.2616448
1.2614307
1.2616996
1.261185
1.2611856
1.2613295
1.2614371
1.2613825
1.2615166
1.2614147
1.2615625
1.2614429
1.2616025
1.2614756
1.2616545
1.2612153
1.2611368
1.2613543
1.2613782
1.2614069
1.2614542
1.2614386
1.2614986
1.2614663
1.2615373
1.2614977
1.2615866
1.2612441
1.2610859
1.2613777
1.2613186
1.2614292
1.2613924
1.2614607
1.2614356
1.2614881
1.2614734
1.2615184
1.2615205
1.2612745
1.2610515
1.261404
1.2612799
1.2614543
1.2613533
1.2614856
1.261396
1.2615129
1.2614334
1.2615428
1.2614789
1.2613056
1.2610524
1.2614306
1.2612778
1.2614799
1.2613517
1.2615109
1.2613946
1.261538
1.2614321
1.2615677
1.2614765
1.2613192
1.2610052
1.2614435
1.2612245
1.2614943
1.2612967
1.2615247
1.2613384
1.2615511
1.2613753
1.2615794
1.2614177
1.2611887
1.2606395
1.2613073
1.2608341
1.2613531
1.2608961
1.2613818
1.2609343
1.2614059
1.2609681
1.2614308
1.2610064
1.2605458
1.259842
1.2606664
1.2600277
1.260712
1.2600865
1.2607384
1.2601219
1.2607592
1.2601532
1.26078
1.2601878
1.259757
1.2593369
1.2598771
1.2595208
1.2599213
1.259578
1.2599462
1.2596119
1.2599658
1.2596423
1.2599856
1.2596757
1.2594315
1.2592203
1.2595573
1.2594105
1.2596021
1.2594697
1.2596264
1.259503
1.2596455
1.259532
1.2596648
1.2595634
1.2593365
1.2592174
1.2594662
1.2594113
1.2595099
1.2594705
1.2595329
1.2595032
1.2595508
1.2595314
1.2595694
1.259563
1.259283
1.2591698
1.259423
1.2593723
1.2594699
1.2594352
1.2594937
1.2594696
1.2595116
1.2594982
1.2595307
1.2595309
1.2592333
1.2590581
1.2593727
1.2592681
1.2594245
1.25934
1.2594517
1.2593797
1.2594716
1.2594119
1.2594932
1.2594505
1.2526428
1.2536202
1.2526997
1.2536296
1.2527596
1.2536242
1.2528324
1.2535912
1.2529317
1.2534893
1.2530472
1.2531724
1.2528944
1.2519514
1.2528184
1.2537916
1.2528766
1.2538092
1.2529362
1.2538147
1.2530119
1.2538057
1.2531223
1.2537525
1.2532572
1.2535236
1.2531479
1.2524199
1.2532761
1.2544093
1.2533317
1.2544355
1.2533918
1.2544463
1.2534666
1.2544401
1.2535758
1.2543973
1.2537183
1.254197
1.2536238
1.2531205
1.2539437
1.2552769
1.2540033
1.2553139
1.2540691
1.2553345
1.2541515
1.2553351
1.2542688
1.2553013
1.2544237
1.2551208
1.2543424
1.2540537
1.2549112
1.2562682
1.2549737
1.256321
1.2550411
1.2563565
1.2551249
1.2563731
1.2552447
1.2563663
1.2554109
1.2562149
1.2553371
1.25516
1.2555761
1.2569127
1.2556462
1.2569815
1.2557223
1.2570423
1.2558191
1.2570818
1.2559583
1.2570919
1.2561559
1.2570082
1.2561523
1.2560207
1.2557873
1.2571858
1.2558584
1.2572657
1.255942
1.2573429
1.2560486
1.257409
1.2562069
1.2574461
1.2564384
1.2573935
1.2564768
1.2564549
1.2558148
1.2573192
1.2558931
1.2574012
1.2559815
1.2574848
1.2560982
1.2575689
1.2562731
1.2576474
1.2565369
1.2576329
1.256621
1.2567798
1.2558606
1.2574419
1.2559444
1.2575365
1.2560407
1.257633
1.2561667
1.2577361
1.2563623
1.2578513
1.2566604
1.2579073
1.2568038
1.2571628
1.2559444
1.257557
1.2560308
1.2576672
1.256135
1.2577824
1.2562723
1.2579128
1.2564831
1.2580785
1.2568222
1.2582179
1.2570441
1.2576167
1.2560894
1.2576723
1.2561788
1.2577989
1.2562883
1.2579368
1.2564391
1.2581016
1.2566763
1.2583233
1.2570576
1.2585509
1.2573554
1.2581092
1.2563214
1.2578053
1.2564137
1.2579448
1.2565298
1.2581049
1.2566924
1.2583089
1.2569522
1.2585899
1.2573756
1.2589118
1.2577451
1.2586373
1.2566813
1.2579823
1.2567742
1.2581303
1.2568944
1.2583104
1.257066
1.2585481
1.2573429
1.258885
1.2577968
1.2593028
1.2582226
1.2591963
1.2571977
1.2582661
1.2572881
1.2584179
1.2574092
1.2586111
1.257587
1.2588758
1.2578763
1.2592628
1.2583492
1.2597592
1.2587965
1.2597921
1.2578702
1.2587347
1.257955
1.2588818
1.2580736
1.2590787
1.2582536
1.2593606
1.2585499
1.2597806
1.2590287
1.2603253
1.2594658
1.2604473
1.2586056
1.2592688
1.2586832
1.2594073
1.2587957
1.2596016
1.2589713
1.259892
1.2592621
1.2603341
1.2597257
1.2609062
1.2601289
1.261079
1.2592686
1.2597923
1.259339
1.2599184
1.2594435
1.260103
1.2596103
1.2603899
1.2598877
1.2608354
1.2603268
1.2614185
1.2606993
1.2616312
1.2598736
1.2603165
1.2599367
1.2604291
1.2600327
1.2606015
1.2601886
1.260876
1.2604495
1.2613115
1.260861
1.2618937
1.2612115
1.2621426
1.2603738
1.2607812
1.2604307
1.260883
1.2605175
1.2610389
1.260657
1.2612884
1.260892
1.2616927
1.2612687
1.2622604
1.2616275
1.2625797
1.2608008
1.2612047
1.2608528
1.2612977
1.2609298
1.2614361
1.2610519
1.2616548
1.2612574
1.2620137
1.2615963
1.2625514
1.2619747
1.2629492
1.2611195
1.261512
1.2611673
1.2615958
1.261236
1.2617171
1.2613423
1.2619059
1.2615208
1.2622195
1.261824
1.2627188
1.2622227
1.2631947
1.2613461
1.2617121
1.261389
1.2617849
1.2614509
1.2618912
1.2615479
1.2620589
1.2617108
1.2623431
1.2619935
1.262812
1.2624027
1.2633332
1.2614643
1.2617559
1.2615033
1.2618194
1.2615629
1.261916
1.2616592
1.2620739
1.2618225
1.2623475
1.2621051
1.2628099
1.262524
1.2633563
1.2615074
1.2617062
1.2615443
1.2617648
1.2616029
1.2618571
1.2617005
1.2620123
1.2618686
1.2622838
1.2621611
1.2627457
1.262595
1.2633143
1.2615279
1.2616352
1.2615641
1.2616916
1.2616231
1.2617828
1.2617241
1.2619386
1.2619004
1.2622126
1.2622089
1.262683
1.2626642
1.2632864
1.2615476
1.2615673
1.2615838
1.2616234
1.2616437
1.2617155
1.2617476
1.2618752
1.2619309
1.2621572
1.2622558
1.2626406
1.2627348
1.2632508
1.2615715
1.2615246
1.2616082
1.2615808
1.2616694
1.2616743
1.2617762
1.2618371
1.2619662
1.2621238
1.2623046
1.2626047
1.2627962
1.2631821
1.2615964
1.2615215
1.2616345
1.2615786
1.2616976
1.2616746
1.2618066
1.2618444
1.2620015
1.2621455
1.2623488
1.2626476
1.262848
1.2632283
1.2616071
1.2614614
1.2616442
1.2615193
1.2617065
1.2616179
1.2618163
1.2617937
1.2620145
1.2621105
1.2623665
1.2626402
1.2628677
1.2632405
1.2614567
1.2610473
1.2614918
1.261103
1.2615519
1.2611984
1.2616583
1.261369
1.2618481
1.2616802
1.2621894
1.2622043
1.2626756
1.2627763
1.2608035
1.2602255
1.2608349
1.260278
1.2608898
1.2603705
1.2609886
1.2605385
1.2611679
1.2608455
1.2614896
1.2613588
1.2619559
1.2618993
1.2600077
1.2597112
1.2600392
1.259764
1.2600965
1.25986
1.2602014
1.2600327
1.2603928
1.2603418
1.2607318
1.2608562
1.2612039
1.2613709
1.2596864
1.2595973
1.2597179
1.2596476
1.2597782
1.2597426
1.2598905
1.259916
1.2600963
1.2602276
1.2604588
1.26073
1.260956
1.2612315
1.2595905
1.2595996
1.2596223
1.2596559
1.2596846
1.2597584
1.2598011
1.2599375
1.2600137
1.2602546
1.2603856
1.2607567
1.2608916
1.261244
1.2595525
1.2595713
1.2595849
1.2596322
1.2596489
1.2597451
1.2597703
1.2599455
1.2599926
1.2602863
1.2603772
1.2608077
1.2608961
1.2613023
1.2595175
1.2594973
1.2595532
1.2595651
1.2596221
1.2596879
1.2597506
1.2599038
1.259982
1.2602666
1.2603782
1.2608139
1.2609059
1.2613266
1.2525105
1.25085
1.2524063
1.2502373
1.2527705
1.2502552
1.2532485
1.2503008
1.2528013
1.2513773
1.2527075
1.250783
1.2530484
1.2507443
1.2534997
1.2507205
1.2532832
1.252082
1.2531765
1.2514642
1.2534849
1.2513695
1.2539134
1.2512984
1.2539894
1.2529879
1.2538514
1.2523128
1.254109
1.252151
1.2544989
1.2520365
1.2549746
1.2540839
1.2548241
1.2533773
1.2550603
1.253183
1.2554414
1.253063
1.2558455
1.2549754
1.2557229
1.2542743
1.2559845
1.2541015
1.2563822
1.2540374
1.2561863
1.2554061
1.2560686
1.254681
1.256317
1.2544783
1.2566771
1.2543912
1.2563453
1.2557339
1.2562184
1.254968
1.2564325
1.2546921
1.2567442
1.2545358
1.2565499
1.2561408
1.256411
1.2553393
1.2565788
1.2549796
1.2568271
1.2547328
1.2568215
1.2566266
1.2566699
1.2558034
1.2567836
1.255359
1.2569525
1.2550077
1.2571679
1.2571831
1.2570083
1.2563622
1.2570633
1.255843
1.2571368
1.2553771
1.2575986
1.2578031
1.2574388
1.257019
1.2574415
1.2564534
1.2574103
1.2558781
1.2581189
1.2584739
1.2579657
1.2577552
1.2579245
1.2571797
1.2577858
1.2565134
1.2587281
1.259199
1.25859
1.2585762
1.2585271
1.2580346
1.2582933
1.2573071
1.2594314
1.259988
1.2593161
1.2594755
1.259252
1.2589984
1.2589614
1.2582645
1.2601168
1.2607239
1.2600228
1.2603047
1.259971
1.2599059
1.259647
1.2592001
1.2607056
1.2613545
1.2606342
1.261007
1.2606002
1.2606763
1.2602859
1.2600244
1.261235
1.2619234
1.2611797
1.2616233
1.2611615
1.2613443
1.2608506
1.2607357
1.2616753
1.2624211
1.2616401
1.2621669
1.26164
1.261926
1.2613545
1.2613556
1.262062
1.2628621
1.2620461
1.2626467
1.2620646
1.2624323
1.2618019
1.2618865
1.2623559
1.2631872
1.2623595
1.2630113
1.262407
1.2628305
1.2621645
1.2623012
1.2625865
1.2634047
1.2626193
1.2632752
1.2626978
1.2631364
1.2624902
1.2626395
1.2627455
1.2634935
1.262816
1.2634251
1.2629229
1.2633357
1.2627504
1.2628654
1.2628483
1.2635141
1.262951
1.2635098
1.2630752
1.263453
1.2629348
1.2629957
1.2629424
1.2635262
1.2630597
1.263566
1.2631897
1.2635237
1.2630792
1.2630744
1.2630213
1.2635073
1.2631466
1.2635711
1.2632766
1.2635321
1.2631923
1.2631023
1.2630822
1.2634459
1.2632196
1.2635594
1.26335
1.2634969
1.2632874
1.263093
1.2631416
1.2635125
1.2632793
1.2635775
1.2634136
1.2634723
1.2633716
1.2630756
1.2631696
1.2635147
1.2633108
1.2635578
1.2634585
1.2634427
1.2634436
1.2630635
1.2629605
1.2630561
1.2631444
1.2631552
1.2633478
1.2631208
1.2633989
1.2628535
1.262252
1.2621739
1.2624757
1.2622909
1.2627593
1.2622807
1.2629208
1.2620979
1.2614717
1.2616231
1.2616541
1.2616515
1.2618918
1.2615256
1.2620244
1.2612097
1.261221
1.2614814
1.2613357
1.261457
1.2614567
1.2612446
1.2614498
1.2608005
1.2611681
1.2614829
1.2612593
1.2614329
1.2613351
1.2611807
1.2612658
1.2606784
1.2611767
1.261536
1.2612546
1.2614732
1.2613059
1.2612
1.2612019
1.2606648
1.2611855
1.2615596
1.2612587
1.2614923
1.2613003
1.2612128
1.2611842
1.2606712
1.2389475
1.2453488
1.2406433
1.2465997
1.2435374
1.2491377
1.2399468
1.2459646
1.2414897
1.2471323
1.2442637
1.2496181
1.2409725
1.246667
1.2423934
1.2477536
1.2451185
1.2502454
1.2419278
1.247398
1.243249
1.2483922
1.2460492
1.251004
1.2430309
1.2483768
1.2442561
1.2492577
1.2471819
1.2520536
1.2440852
1.2493867
1.2453519
1.2502854
1.2483798
1.2531646
1.2445812
1.249818
1.245947
1.2507975
1.2491071
1.2537837
1.2448699
1.2499874
1.246248
1.2509951
1.2494835
1.2540641
1.2452398
1.2501916
1.2466014
1.2512036
1.2498432
1.2543065
1.2457406
1.2504724
1.2470766
1.2514849
1.2503186
1.254624
1.2463986
1.2508522
1.247697
1.2518633
1.2509424
1.2550412
1.2472706
1.2513774
1.2485189
1.2523778
1.2517494
1.2555783
1.2483809
1.25208
1.2495668
1.2530624
1.2527656
1.2562669
1.2497314
1.2529754
1.250856
1.2539371
1.254007
1.25712
1.2513319
1.2540882
1.2523652
1.2549956
1.2554678
1.2581674
1.2529423
1.2552697
1.2538985
1.2561326
1.2569335
1.2592818
1.2543454
1.2563319
1.2552281
1.2571549
1.2581768
1.2602854
1.255578
1.2573066
1.2563937
1.2580944
1.2592566
1.2612032
1.2566094
1.2581518
1.2573582
1.2588923
1.2601989
1.2619706
1.2574566
1.258873
1.2581054
1.2595264
1.2609266
1.2625769
1.2581516
1.259507
1.2587591
1.2601461
1.2615531
1.2631733
1.2586791
1.2600348
1.2592329
1.2606302
1.2619852
1.2636153
1.2589984
1.2604382
1.2595358
1.260994
1.2622185
1.2639256
1.2592152
1.2607231
1.2597291
1.2612531
1.2623391
1.264142
1.2593664
1.2609325
1.2598475
1.2614385
1.2623925
1.2642834
1.2594468
1.2610917
1.2599186
1.2615824
1.262411
1.2643835
1.2594984
1.2612202
1.2599632
1.2616906
1.2624064
1.2644548
1.2595375
1.2613177
1.2600093
1.2617796
1.2623937
1.2645083
1.2595866
1.2614017
1.2600479
1.2618465
1.2623768
1.2645531
1.2595067
1.2614637
1.2599702
1.2618939
1.2623397
1.2645777
1.259028
1.2612016
1.2596317
1.2616949
1.2621415
1.2644955
1.2580932
1.2603062
1.2587423
1.2609587
1.2613243
1.2638842
1.2574448
1.2595352
1.258016
1.2601215
1.2601423
1.2626692
1.2571436
1.2591637
1.2576576
1.2596688
1.259368
1.2617436
1.2569713
1.2589498
1.2574814
1.2594237
1.2590118
1.2612948
1.2568999
1.2588653
1.2574166
1.2593326
1.2589162
1.2611615
1.2590789
1.2579204
1.2565225
1.2547073
1.2521457
1.2488231
1.2588687
1.2577278
1.2563531
1.2545345
1.2519897
1.2487104
1.2601437
1.2580516
1.2566219
1.2548643
1.2523918
1.2492293
1.2598799
1.2578518
1.2564527
1.2546975
1.2522517
1.2491497
1.2610448
1.2586977
1.2569188
1.2551247
1.2527387
1.2497379
1.2607704
1.2584529
1.2567489
1.25498
1.2526313
1.249702
1.2615507
1.2596097
1.2576277
1.2556566
1.2532428
1.2503183
1.2612934
1.2593258
1.2574282
1.2555244
1.2531726
1.2503231
1.2617331
1.2603021
1.2585633
1.2566097
1.2541517
1.2512149
1.26151
1.2600518
1.2583596
1.2564625
1.2540792
1.251222
1.2617765
1.2605571
1.2590819
1.2573521
1.255033
1.2521542
1.2615465
1.260335
1.2588984
1.257194
1.2549098
1.2520771
1.2617865
1.2606293
1.2592192
1.2575769
1.2553407
1.2525139
1.2615417
1.2604012
1.2590287
1.2574009
1.2551755
1.252367
1.2617961
1.2606787
1.2592642
1.2576329
1.2554177
1.2526066
1.2615327
1.2604322
1.2590567
1.2574378
1.2552247
1.2524206
1.2618118
1.2607415
1.2593163
1.2576872
1.2554893
1.2526983
1.2615236
1.2604722
1.2590861
1.2574677
1.2552658
1.2524727
1.2618342
1.2608206
1.2593861
1.2577617
1.25559
1.252835
1.2615169
1.2605252
1.2591293
1.2575147
1.2553347
1.252571
1.2618749
1.26092
1.2594794
1.2578657
1.255735
1.2530406
1.2615158
1.260594
1.2591933
1.2575904
1.2554508
1.2527468
1.261929
1.2610418
1.2596049
1.2580101
1.2559404
1.253339
1.2615214
1.2606822
1.259285
1.2577036
1.2556265
1.2530157
1.2620216
1.2612047
1.2597855
1.2582191
1.2562329
1.2537653
1.2615569
1.2607987
1.2594185
1.2578734
1.2558892
1.2534224
1.2621427
1.261389
1.2600129
1.2584997
1.2566326
1.2543442
1.2615951
1.2609353
1.2596038
1.2581221
1.2562714
1.2539986
1.2622382
1.2615763
1.2602938
1.2588684
1.2571623
1.2551084
1.26164
1.2610827
1.2598476
1.2584724
1.256803
1.2547824
1.2623743
1.2617979
1.260624
1.2592981
1.2577566
1.2559398
1.2617016
1.2612428
1.260129
1.258874
1.2573909
1.2556302
1.2625185
1.2620059
1.2609207
1.259698
1.2583086
1.2567034
1.261782
1.2613896
1.2603898
1.259253
1.2579406
1.25641
1.262681
1.262223
1.2612298
1.2601015
1.2588413
1.2574135
1.2618757
1.2615332
1.2606433
1.2596191
1.2584576
1.2571229
1.262831
1.2624048
1.2614986
1.260461
1.2593095
1.2580277
1.2619659
1.2616529
1.2608585
1.2599346
1.258901
1.2577278
1.2629794
1.2625752
1.2617476
1.2607997
1.2597357
1.2585657
1.2620581
1.2617614
1.2610504
1.2602191
1.2592964
1.2582559
1.2631462
1.2627411
1.2619796
1.2611018
1.2601109
1.2590202
1.2621598
1.2618569
1.261213
1.2604644
1.2596325
1.2586925
1.2633736
1.2629465
1.2622114
1.2613859
1.2604517
1.2594105
1.262305
1.2619674
1.2613671
1.2606866
1.2599231
1.2590508
1.2636492
1.263177
1.2624392
1.2616407
1.2607351
1.2597115
1.2624734
1.2620861
1.2615062
1.2608719
1.2601467
1.2593038
1.2639028
1.2633591
1.2626268
1.2618432
1.2609521
1.2599272
1.2626336
1.2621796
1.2616081
1.2610069
1.2603021
1.2594669
1.2641441
1.2635158
1.2627811
1.2620114
1.2611269
1.2600917
1.2627771
1.2622531
1.2616893
1.2611144
1.2604197
1.2595813
1.2643478
1.2636452
1.262916
1.2621499
1.2612665
1.2602182
1.2629182
1.2623116
1.2617537
1.2611994
1.2605099
1.2596636
1.2645389
1.2637504
1.2630261
1.2622667
1.2613814
1.2603193
1.2630421
1.2623568
1.2618074
1.2612698
1.2605832
1.2597265
1.2647006
1.2638346
1.2631188
1.2623647
1.2614763
1.2604007
1.2631539
1.2623923
1.2618524
1.2613282
1.2606438
1.2597775
1.2648435
1.2639012
1.2631956
1.2624453
1.2615551
1.2604695
1.2632519
1.2624187
1.2618904
1.2613776
1.2606959
1.2598228
1.2649653
1.2639541
1.263258
1.2625145
1.2616167
1.2605072
1.2633323
1.2624401
1.2619248
1.26142
1.2607308
1.2598224
1.2650669
1.2639946
1.2632993
1.2625322
1.2615646
1.2603319
1.2634014
1.2624548
1.2619379
1.2613955
1.260626
1.2595421
1.2651443
1.2639959
1.263216
1.2623011
1.2610697
1.2595778
1.2634514
1.2624264
1.2618083
1.2610478
1.259975
1.2586899
1.2651602
1.2637856
1.2626879
1.2614544
1.2601332
1.2587634
1.2634445
1.2621276
1.261159
1.2601296
1.2590585
1.2579471
1.2649889
1.2630075
1.2616923
1.260647
1.2596226
1.2584255
1.2632248
1.2612807
1.260164
1.259411
1.2586453
1.2576828
1.2642441
1.2618919
1.2611523
1.2604268
1.2594796
1.2582839
1.2624677
1.260236
1.2597246
1.2592608
1.2585442
1.2575711
1.2629112