/*--------------------------------*- C++ -*----------------------------------*\
| =========                 |                                                 |
| \\      /  F ield         | OpenFOAM: The Open Source CFD Toolbox           |
|  \\    /   O peration     | Version:  2206                                  |
|   \\  /    A nd           | Website:  www.openfoam.com                      |
|    \\/     M anipulation  |                                                 |
\*---------------------------------------------------------------------------*/
FoamFile
{
    version     2.0;
    format      ascii;
    arch        "LSB;label=32;scalar=64";
    class       volScalarField;
    location    "500";
    object      T;
}
// * * * * * * * * * * * * * * * * * * * * * * * * * * * * * * * * * * * * * //

dimensions      [0 0 0 1 0 0 0];

internalField   nonuniform List<scalar> 
50904
(
297.79885
297.43431
297.80247
297.38708
297.63626
297.1526
297.61754
297.06355
297.45704
296.89222
297.4231
296.79042
297.281
296.67351
297.23258
296.56824
297.05036
296.43108
296.99131
296.32714
296.82317
296.2277
296.77406
296.14324
296.75095
296.17914
296.70919
296.10487
296.75696
296.2053
296.71363
296.1304
296.77629
296.24665
296.72894
296.16858
296.80408
296.30178
296.7537
296.22078
296.84285
296.37262
296.79075
296.2894
296.89535
296.46418
296.84284
296.37965
296.96483
296.57791
296.91432
296.4943
297.05384
296.71567
297.0074
296.63421
297.16125
296.87421
297.12097
296.79702
297.27007
297.02912
297.23778
296.95887
297.36638
297.16287
297.34054
297.09932
297.45099
297.27801
297.42985
297.22036
297.52233
297.37521
297.50435
297.32169
297.58082
297.45457
297.5668
297.40576
297.62646
297.51664
297.61513
297.47193
297.65903
297.56132
297.65013
297.52128
297.67675
297.58647
297.66939
297.55004
297.68391
297.59809
297.67724
297.56322
297.68512
297.60206
297.68025
297.56833
297.68312
297.60244
297.67889
297.56978
297.67877
297.6025
297.67517
297.57296
297.67308
297.60307
297.66907
297.57897
297.66698
297.60254
297.6635
297.58202
297.67409
297.62539
297.68194
297.62033
297.76701
297.75598
297.79782
297.78223
297.9927
297.99251
298.03508
298.0103
298.16703
298.13325
298.18589
298.11924
298.24313
298.19842
298.24626
298.18039
298.28664
298.24409
298.28459
298.22856
298.30652
298.26672
298.3057
298.25617
297.88523
297.46956
298.02408
297.69023
298.08598
297.86367
298.11971
297.96398
298.1397
298.02506
298.15287
298.0649
298.16256
298.09427
297.70628
297.16199
297.88292
297.44786
297.96508
297.67003
298.01103
297.79056
298.03835
297.86517
298.05619
297.91456
298.06927
297.95124
297.52402
296.90678
297.7226
297.22392
297.81248
297.47404
297.86448
297.60369
297.89575
297.68112
297.91634
297.73363
297.93155
297.77296
297.33219
296.6808
297.52933
296.98313
297.61554
297.24361
297.66754
297.38108
297.69989
297.46091
297.72182
297.51341
297.73837
297.55288
297.08486
296.44051
297.27608
296.73733
297.35824
297.00074
297.4075
297.14496
297.43771
297.233
297.45826
297.28978
297.47425
297.33665
296.86852
296.2687
297.06268
296.57606
297.15028
296.84796
297.20646
296.99919
297.24215
297.09111
297.2652
297.1504
297.28457
297.18844
296.80088
296.23549
296.99332
296.55366
297.08409
296.81984
297.14276
296.96523
297.18
297.05347
297.20584
297.11105
297.22541
297.1496
296.79917
296.25853
296.98471
296.57693
297.07697
296.83723
297.13759
296.97542
297.17594
297.05904
297.20245
297.11449
297.22247
297.15269
296.80699
296.28961
296.98343
296.60092
297.07586
296.85689
297.13776
296.98716
297.17678
297.06493
297.20354
297.11859
297.22366
297.15791
296.82412
296.33183
296.98998
296.63079
297.08133
296.88258
297.14417
297.00209
297.18352
297.07579
297.21037
297.12535
297.23035
297.16338
296.8543
296.39015
297.00944
296.67344
297.09911
296.91298
297.16154
297.02685
297.2008
297.09793
297.22746
297.14366
297.24709
297.17947
296.90073
296.46556
297.04554
296.72515
297.13122
296.95899
297.19256
297.06559
297.23093
297.13299
297.25689
297.17549
297.27569
297.20856
296.96727
296.57034
297.10211
296.81244
297.18444
297.03319
297.24402
297.13432
297.28089
297.19107
297.30518
297.23106
297.32252
297.26044
297.0549
296.69762
297.17904
296.91998
297.25818
297.12658
297.31504
297.21991
297.34964
297.27314
297.37213
297.30924
297.38783
297.33483
297.16345
296.84829
297.27539
297.05088
297.35121
297.24179
297.40469
297.32664
297.43663
297.37552
297.45691
297.40731
297.47062
297.4294
297.27804
297.0019
297.37833
297.18761
297.44929
297.36141
297.49835
297.43924
297.52727
297.48328
297.54523
297.51112
297.557
297.52979
297.37877
297.13761
297.4687
297.31147
297.53461
297.46853
297.57926
297.53944
297.60531
297.57929
297.6212
297.60389
297.63133
297.61984
297.46583
297.25709
297.54639
297.42141
297.60729
297.56188
297.64778
297.62556
297.67121
297.66135
297.6853
297.68307
297.69411
297.69679
297.53898
297.36162
297.61192
297.51801
297.66713
297.6421
297.70348
297.69791
297.72445
297.72933
297.73706
297.74834
297.74499
297.7603
297.59927
297.4495
297.66582
297.59884
297.71563
297.70787
297.74819
297.75619
297.76703
297.78345
297.77839
297.79988
297.78556
297.81023
297.64495
297.51827
297.70541
297.66011
297.75114
297.75637
297.78112
297.79841
297.7986
297.82164
297.80915
297.83405
297.81581
297.84444
297.67732
297.56711
297.73275
297.70075
297.7756
297.78678
297.8036
297.82333
297.8198
297.84319
297.82945
297.85343
297.83515
297.8623
297.69478
297.59056
297.74605
297.71501
297.78684
297.7947
297.81372
297.82799
297.8289
297.84572
297.83692
297.85528
297.84195
297.86276
297.70158
297.59577
297.74994
297.71097
297.78731
297.78722
297.81174
297.82069
297.8257
297.83901
297.83347
297.84932
297.83831
297.85603
297.70479
297.59222
297.75197
297.69869
297.78669
297.77304
297.80875
297.807
297.82135
297.8263
297.82877
297.83771
297.83326
297.84491
297.70305
297.58646
297.74997
297.68571
297.78322
297.75953
297.80402
297.79351
297.81581
297.81357
297.82276
297.8254
297.82704
297.83258
297.69939
297.58484
297.7477
297.67659
297.78049
297.74754
297.80068
297.78267
297.81221
297.80256
297.81904
297.81451
297.82299
297.82172
297.69361
297.58474
297.74418
297.6699
297.77829
297.73181
297.79806
297.76873
297.80947
297.79042
297.81619
297.80241
297.82021
297.80939
297.68879
297.58656
297.74173
297.6716
297.77796
297.73989
297.79911
297.77727
297.8108
297.80036
297.81673
297.81068
297.8212
297.81733
297.71567
297.65168
297.77664
297.7521
297.81246
297.82364
297.83812
297.86252
297.85012
297.88329
297.8587
297.89431
297.86402
297.90137
297.85643
297.83026
297.93539
297.94924
297.98114
298.02824
298.00301
298.07037
298.01435
298.09391
298.02061
298.10727
298.02413
298.11486
298.0856
298.03383
298.1589
298.11702
298.20294
298.18534
298.22524
298.22722
298.23696
298.24928
298.24313
298.26186
298.24641
298.26882
298.21292
298.12319
298.27194
298.17986
298.31004
298.2344
298.32933
298.2726
298.33943
298.29407
298.3446
298.30606
298.34715
298.31255
298.26459
298.17158
298.31512
298.20051
298.34745
298.2461
298.36404
298.28286
298.37269
298.30368
298.37699
298.31515
298.37901
298.3212
298.29937
298.2174
298.34282
298.22971
298.3683
298.26962
298.38181
298.30451
298.38886
298.32391
298.39224
298.33516
298.39372
298.34122
298.32096
298.25219
298.36143
298.26454
298.38327
298.30441
298.39428
298.33601
298.39947
298.35427
298.40212
298.3646
298.40338
298.37024
298.171
298.11967
298.17813
298.14037
298.18391
298.15707
298.19072
298.17677
298.20418
298.20952
298.23232
298.27694
298.08073
297.98316
298.09036
298.00916
298.09807
298.02959
298.10748
298.05381
298.12422
298.09524
298.16185
298.18422
297.94487
297.80728
297.9563
297.83594
297.96564
297.85897
297.97654
297.88545
297.99465
297.92859
298.03458
298.02201
297.75313
297.58658
297.76546
297.61424
297.77552
297.63695
297.78744
297.66387
297.8072
297.70846
297.84923
297.80263
297.48957
297.37692
297.50178
297.40898
297.51202
297.4354
297.52491
297.46479
297.54719
297.5091
297.59618
297.58957
297.30105
297.21863
297.31601
297.25212
297.32776
297.27569
297.34118
297.30447
297.3615
297.34723
297.41129
297.43656
297.2426
297.18449
297.25733
297.21672
297.26991
297.241
297.2844
297.26857
297.30824
297.30811
297.35858
297.40076
297.24007
297.18744
297.2552
297.21857
297.26816
297.24267
297.28366
297.27058
297.30771
297.30934
297.35968
297.4
297.24138
297.19004
297.25648
297.22
297.26932
297.2436
297.28419
297.27073
297.31051
297.31209
297.36327
297.39655
297.2479
297.19532
297.26286
297.22341
297.2755
297.24643
297.28972
297.27272
297.31652
297.3163
297.3699
297.39604
297.26423
297.20996
297.27891
297.23614
297.29141
297.25802
297.30599
297.2831
297.33075
297.32471
297.38378
297.40417
297.29202
297.23651
297.30599
297.26098
297.31791
297.28119
297.33206
297.3045
297.35542
297.34292
297.40665
297.4224
297.33746
297.28568
297.35026
297.30789
297.3612
297.32628
297.37419
297.34736
297.39576
297.38124
297.44348
297.45701
297.40103
297.35673
297.41248
297.37609
297.42228
297.39244
297.43393
297.41127
297.45331
297.44182
297.49598
297.51059
297.48186
297.44778
297.49162
297.46401
297.5
297.47784
297.51
297.49419
297.52675
297.52107
297.56324
297.58109
297.5665
297.545
297.57466
297.55827
297.58171
297.56969
297.59018
297.58343
297.60443
297.60689
297.63513
297.65963
297.63944
297.63264
297.64636
297.64372
297.65239
297.65332
297.65969
297.665
297.67204
297.68522
297.69829
297.73097
297.70109
297.70765
297.70704
297.71705
297.71228
297.72525
297.71868
297.73533
297.72958
297.75292
297.75245
297.7923
297.75106
297.76949
297.75628
297.77751
297.76091
297.78451
297.76664
297.79321
297.77644
297.80852
297.79674
297.84289
297.79104
297.81822
297.79572
297.82511
297.79988
297.83115
297.80508
297.83873
297.81403
297.85221
297.83229
297.88277
297.82094
297.851
297.82529
297.85683
297.82917
297.86191
297.83398
297.86838
297.84178
297.88009
297.85508
297.90782
297.83951
297.86822
297.84332
297.87335
297.84654
297.87809
297.85026
297.88409
297.85622
297.89551
297.86891
297.92199
297.84553
297.86828
297.84891
297.87296
297.85171
297.87734
297.85494
297.88312
297.85994
297.89381
297.87103
297.91822
297.84182
297.8615
297.84504
297.8659
297.84788
297.87014
297.85125
297.87575
297.85646
297.88605
297.86736
297.90897
297.83654
297.84996
297.83961
297.85461
297.84241
297.85899
297.84587
297.86475
297.85151
297.8751
297.86289
297.89705
297.83023
297.83808
297.83313
297.84287
297.83581
297.84746
297.83909
297.85351
297.84428
297.86424
297.85808
297.88625
297.82606
297.82719
297.82883
297.83228
297.83155
297.83695
297.8349
297.84311
297.84145
297.85395
297.85355
297.87464
297.82324
297.81476
297.82601
297.81971
297.82864
297.82439
297.83186
297.83027
297.83821
297.84086
297.84984
297.86132
297.82423
297.82231
297.82727
297.82691
297.82995
297.83138
297.83332
297.83701
297.8396
297.84653
297.85251
297.86389
297.86714
297.90653
297.87007
297.91138
297.87265
297.91565
297.87566
297.9211
297.88031
297.93152
297.88902
297.95879
298.0266
298.12008
298.02881
298.12481
298.03119
298.1293
298.03479
298.13558
298.04184
298.14759
298.05547
298.17257
298.24842
298.27336
298.25021
298.27743
298.25197
298.28102
298.25461
298.28602
298.25997
298.29596
298.2708
298.3176
298.34855
298.31659
298.3498
298.31995
298.3509
298.32291
298.35268
298.32724
298.35667
298.33643
298.36504
298.3571
298.37999
298.32469
298.38094
298.32721
298.38171
298.32944
298.38307
298.33304
298.38637
298.34188
298.39353
298.36166
298.39435
298.34453
298.39502
298.3467
298.39555
298.34864
298.39658
298.35167
298.39925
298.35787
298.40503
298.37269
298.404
298.37345
298.40467
298.37574
298.40519
298.37774
298.40611
298.38057
298.4084
298.38611
298.41324
298.39876
298.26769
298.33676
298.28437
298.35899
298.28891
298.36165
298.29089
298.36189
298.29225
298.3613
298.29376
298.3601
298.20731
298.2793
298.23013
298.315
298.23704
298.32194
298.23993
298.32384
298.24197
298.32433
298.24409
298.32373
298.08368
298.12806
298.1093
298.16984
298.11786
298.17809
298.12198
298.18072
298.12484
298.18193
298.12787
298.18151
297.89899
297.91283
297.92613
297.95712
297.9355
297.96654
297.94031
297.9704
297.94383
297.97279
297.94742
297.97409
297.64597
297.69315
297.67011
297.73397
297.67998
297.74466
297.68583
297.74839
297.6905
297.75075
297.69507
297.75259
297.47309
297.55127
297.50444
297.59812
297.51397
297.61162
297.51979
297.61667
297.52473
297.61978
297.5302
297.62204
297.42356
297.51911
297.45959
297.56905
297.47164
297.58387
297.47781
297.59024
297.48243
297.59448
297.48742
297.59793
297.42662
297.522
297.4635
297.57558
297.47563
297.59219
297.48232
297.60012
297.4875
297.6058
297.49309
297.61106
297.432
297.52268
297.47027
297.58043
297.483
297.5987
297.48999
297.6078
297.49556
297.6147
297.50166
297.62172
297.43968
297.52405
297.47949
297.58655
297.49346
297.60728
297.50116
297.61779
297.50732
297.62596
297.51426
297.63479
297.45311
297.52962
297.49342
297.595
297.508
297.61749
297.51628
297.62919
297.52301
297.63837
297.53058
297.64848
297.47411
297.54208
297.51405
297.60892
297.52899
297.63254
297.53756
297.64506
297.54454
297.65503
297.55238
297.66635
297.50656
297.56812
297.54439
297.63305
297.5589
297.65682
297.56727
297.66966
297.57416
297.68003
297.58197
297.69198
297.55257
297.61047
297.58685
297.67018
297.60036
297.69306
297.60815
297.70564
297.61464
297.716
297.6221
297.72795
297.61171
297.66686
297.64201
297.71942
297.65422
297.73938
297.66128
297.75064
297.66713
297.76013
297.67379
297.77121
297.67584
297.7316
297.70159
297.77633
297.71223
297.79381
297.71844
297.80366
297.72364
297.81183
297.72956
297.8214
297.73298
297.79188
297.75512
297.82971
297.76443
297.84455
297.76984
297.85303
297.7743
297.86019
297.7793
297.86864
297.78261
297.84468
297.80187
297.87722
297.80992
297.89027
297.81453
297.89796
297.81841
297.9045
297.82288
297.91219
297.82352
297.88958
297.84041
297.91937
297.8473
297.93108
297.8514
297.93782
297.85489
297.94364
297.85898
297.95064
297.8561
297.92593
297.87198
297.95555
297.87803
297.96558
297.88164
297.97148
297.8848
297.97668
297.8886
297.98313
297.8779
297.95118
297.89318
297.97937
297.89853
297.98817
297.90173
297.99338
297.90459
297.99812
297.90808
298.00416
297.88982
297.96172
297.90452
297.98879
297.90955
297.99692
297.91252
298.00181
297.91518
298.00631
297.91844
298.01211
297.89002
297.95499
297.90395
297.98038
297.90887
297.98825
297.91178
297.99301
297.91433
297.99741
297.91733
298.00296
297.88602
297.94319
297.8997
297.96663
297.90436
297.97438
297.90719
297.97907
297.90963
297.9834
297.91246
297.98874
297.88153
297.92908
297.89457
297.95096
297.89903
297.95882
297.90179
297.96349
297.90413
297.96777
297.90679
297.97298
297.87622
297.916
297.8891
297.93701
297.89345
297.94488
297.89609
297.94958
297.89835
297.95381
297.90093
297.9589
297.87153
297.90395
297.88403
297.92453
297.88844
297.93229
297.89097
297.93699
297.89307
297.94118
297.89543
297.9462
297.86717
297.89011
297.87949
297.91022
297.88383
297.91772
297.88623
297.9225
297.88818
297.92681
297.89026
297.93195
297.86822
297.89758
297.87984
297.91724
297.88356
297.9247
297.88575
297.9296
297.88761
297.93394
297.88967
297.93917
297.90468
297.99109
297.91756
298.01667
297.92255
298.0256
297.92523
298.03075
297.92757
298.03533
297.93029
298.04078
298.07323
298.20833
298.08378
298.23359
298.08771
298.24235
298.09016
298.24739
298.09254
298.25176
298.09545
298.25701
298.28613
298.35164
298.29676
298.3767
298.30032
298.38496
298.30224
298.38937
298.30385
298.39289
298.30576
298.39711
298.37751
298.38962
298.38634
298.4123
298.389
298.4194
298.39017
298.42346
298.39096
298.4268
298.39188
298.4309
298.40459
298.3924
298.41244
298.4137
298.41464
298.41976
298.41545
298.4233
298.41587
298.42615
298.41637
298.42972
298.41407
298.39937
298.42072
298.41966
298.42258
298.42573
298.42321
298.42899
298.42352
298.43169
298.42393
298.435
298.42039
298.41914
298.42554
298.43678
298.42706
298.44205
298.4277
298.44479
298.42808
298.44697
298.42856
298.44946
298.2954
298.358
298.29655
298.35489
298.2976
298.35129
298.29852
298.3466
298.29847
298.33804
298.29329
298.31485
298.26808
298.23174
298.2464
298.32164
298.24806
298.31774
298.2495
298.31209
298.25065
298.3027
298.25026
298.28427
298.24333
298.24207
298.20967
298.13135
298.13102
298.17944
298.13362
298.17574
298.13595
298.17031
298.13796
298.16088
298.13857
298.14182
298.13234
298.09753
298.09779
297.98356
297.95157
297.97359
297.95514
297.97116
297.95858
297.96711
297.96201
297.95938
297.96443
297.94257
297.96032
297.90106
297.92808
297.79157
297.69972
297.75238
297.70436
297.75042
297.709
297.74688
297.71408
297.73912
297.71884
297.71864
297.71764
297.67576
297.69257
297.57252
297.53521
297.62263
297.53927
297.62164
297.54389
297.61908
297.54871
297.613
297.55363
297.59609
297.55179
297.54925
297.51706
297.44029
297.49258
297.59927
297.4971
297.59887
297.50116
297.59712
297.50584
297.59243
297.5101
297.57944
297.50906
297.5393
297.47742
297.43633
297.49859
297.61445
297.50377
297.61601
297.50918
297.61601
297.51459
297.61367
297.52021
297.60486
297.52017
297.57486
297.49426
297.47894
297.50769
297.62755
297.51326
297.63218
297.51929
297.63607
297.52622
297.63861
297.5334
297.63602
297.53747
297.61365
297.51903
297.52755
297.5212
297.64302
297.52789
297.65029
297.53534
297.65786
297.54433
297.66573
297.55529
297.66914
297.56329
297.65409
297.54673
297.57639
297.53814
297.65841
297.54554
297.66766
297.55398
297.67802
297.56446
297.68969
297.57765
297.69886
297.59004
297.69336
297.58028
297.6297
297.5604
297.67796
297.56847
297.68913
297.57801
297.70205
297.59021
297.71687
297.60606
297.7316
297.62273
297.73551
297.61973
297.68557
297.5902
297.7046
297.59881
297.7171
297.60928
297.73163
297.62306
297.7489
297.64147
297.7684
297.66212
297.78017
297.66519
297.74273
297.63018
297.74057
297.63899
297.75327
297.65011
297.76868
297.66515
297.78824
297.68571
297.81133
297.70959
297.82854
297.71697
297.80051
297.68122
297.78302
297.6897
297.79559
297.7009
297.81176
297.71657
297.83301
297.73841
297.85913
297.76412
297.88005
297.77352
297.85871
297.73599
297.83173
297.74382
297.84347
297.75467
297.8591
297.7703
297.88052
297.79238
297.90753
297.81812
297.92989
297.82721
297.91222
297.78475
297.87764
297.79172
297.88816
297.80188
297.90289
297.81695
297.92359
297.83843
297.95022
297.86328
297.97257
297.8714
297.9571
297.82757
297.92004
297.83361
297.92934
297.84288
297.94284
297.85702
297.96227
297.87744
297.98791
297.90117
298.00949
297.90894
297.99674
297.86333
297.95782
297.86853
297.96596
297.87671
297.97801
297.88944
297.99554
297.90807
298.019
297.93039
298.04053
297.93973
298.03221
297.89258
297.98966
297.89735
297.99705
297.90465
298.00771
297.91589
298.02316
297.93254
298.0443
297.95355
298.06565
297.96559
298.06301
297.9117
298.01026
297.91597
298.01704
297.9224
298.02656
297.93238
298.04011
297.94722
298.05906
297.96708
298.08013
297.98215
298.08354
297.92164
298.01766
297.92533
298.02365
297.93092
298.03221
297.93973
298.04466
297.95334
298.06229
297.97243
298.08354
297.99022
298.09252
297.92019
298.00793
297.9232
298.01316
297.92792
298.02112
297.93569
298.03338
297.94875
298.05153
297.96818
298.07387
297.98796
298.08755
297.91513
297.99332
297.91792
297.99823
297.92238
298.00594
297.92984
298.01819
297.94249
298.03692
297.96188
298.0609
297.98252
298.07772
297.90935
297.97746
297.91208
297.98239
297.91657
297.99028
297.92377
298.00306
297.93597
298.02303
297.95495
298.0497
297.97605
298.06932
297.90347
297.96336
297.90617
297.96843
297.91066
297.9767
297.91813
297.99026
297.93055
298.01174
297.94931
298.04142
297.96856
298.06764
297.89791
297.9508
297.90063
297.95611
297.90524
297.96497
297.913
297.97977
297.92573
298.00385
297.94464
298.03934
297.96318
298.07581
297.89251
297.93685
297.89504
297.94266
297.89975
297.95237
297.9079
297.96845
297.92092
297.99488
297.93986
298.03392
297.95713
298.07116
297.89191
297.94435
297.89454
297.95053
297.89932
297.96091
297.90777
297.97814
297.92151
298.00568
297.94068
298.04261
297.95584
298.07047
297.93289
298.04612
297.93601
298.05273
297.94141
298.06431
297.95087
298.08399
297.967
298.11566
297.98905
298.1579
298.00566
298.18733
298.09793
298.26236
298.10141
298.26924
298.10781
298.28178
298.11915
298.30328
298.13829
298.33743
298.16574
298.38178
298.1871
298.41089
298.3076
298.40198
298.31011
298.4081
298.31525
298.41975
298.32459
298.4403
298.34021
298.47466
298.36244
298.51668
298.38063
298.54543
298.39294
298.43581
298.3945
298.44196
298.39821
298.4536
298.40521
298.47418
298.41687
298.50726
298.43254
298.55027
298.44318
298.57789
298.41709
298.43355
298.41822
298.43841
298.42124
298.44917
298.42712
298.46874
298.43722
298.50007
298.45055
298.54121
298.45856
298.56896
298.42459
298.43834
298.42564
298.442
298.42832
298.44954
298.43301
298.46379
298.44093
298.4896
298.4512
298.52512
298.45604
298.54938
298.42921
298.45198
298.4301
298.45483
298.43211
298.46069
298.43579
298.47191
298.44207
298.4924
298.44994
298.52063
298.45258
298.53901
298.23494
298.15528
298.20639
298.10301
298.18077
298.07131
298.13538
298.01332
298.16739
298.03882
298.13518
297.97729
298.11413
297.9549
298.0732
297.91091
298.05385
297.88665
298.0234
297.82346
298.0082
297.80694
297.97056
297.76992
297.88848
297.69813
297.86409
297.63773
297.85785
297.62603
297.8257
297.59268
297.65898
297.47866
297.63485
297.41272
297.62858
297.39164
297.59227
297.34817
297.47018
297.33373
297.43648
297.25237
297.41685
297.20387
297.36973
297.1317
297.43069
297.32908
297.3919
297.23782
297.36608
297.17169
297.31817
297.08646
297.44925
297.37177
297.40792
297.27509
297.37806
297.19849
297.32833
297.10668
297.47482
297.42033
297.43181
297.32014
297.39811
297.23434
297.34603
297.13648
297.50559
297.47507
297.46197
297.3733
297.42401
297.27925
297.3692
297.17515
297.54319
297.53496
297.49897
297.43367
297.45653
297.33349
297.39812
297.2233
297.58712
297.59863
297.54339
297.50092
297.49728
297.39829
297.4354
297.28408
297.63719
297.6646
297.59493
297.57316
297.5465
297.47236
297.48173
297.357
297.69268
297.73146
297.65316
297.64914
297.60445
297.55413
297.53729
297.44017
297.7522
297.79889
297.71548
297.72631
297.66684
297.63852
297.59739
297.52836
297.80729
297.85918
297.773
297.79473
297.72608
297.71531
297.65766
297.61275
297.8522
297.90868
297.81918
297.84942
297.7737
297.77642
297.70726
297.68016
297.8908
297.95225
297.85892
297.89651
297.81482
297.82814
297.74995
297.73665
297.92377
297.99263
297.89332
297.9399
297.84926
297.87292
297.78384
297.7818
297.95377
298.03024
297.92534
297.98055
297.88014
297.91281
297.81016
297.8179
297.97501
298.05821
297.949
298.01184
297.90389
297.94421
297.83131
297.84672
297.98788
298.07418
297.96387
298.03054
297.91797
297.96311
297.84155
297.86281
297.98915
298.0745
297.96577
298.03352
297.91936
297.96767
297.83926
297.86567
297.98496
298.06878
297.96277
298.03153
297.91534
297.96631
297.83208
297.86215
297.97849
298.0636
297.95626
298.02823
297.90734
297.96191
297.82136
297.85413
297.97026
298.06931
297.94693
298.02666
297.89584
297.95752
297.80786
297.84531
297.96432
298.08122
297.93557
298.02503
297.88241
297.95468
297.79325
297.83892
297.95511
298.05133
297.92373
298.01509
297.86796
297.94659
297.77778
297.83172
297.94868
298.05733
297.91568
298.01163
297.85541
297.93933
297.76289
297.82144
297.999
298.16937
297.95417
298.10486
297.8793
298.00719
297.77421
297.86219
298.176
298.38954
298.1197
298.31722
298.02348
298.21043
297.89205
298.04413
298.37547
298.52554
298.32794
298.47396
298.24171
298.39437
298.11786
298.26351
298.43755
298.55511
298.40697
298.51616
298.3504
298.45713
298.26423
298.36135
298.44863
298.54846
298.42367
298.51534
298.37825
298.46538
298.30948
298.38615
298.44425
298.52959
298.42238
298.49915
298.38289
298.45365
298.32399
298.38418
298.44022
298.5184
298.41926
298.4884
298.38213
298.44378
298.32773
298.37775
297.50985
297.82713
297.61884
297.89794
297.48575
297.74274
297.27057
297.68148
297.41899
297.77437
297.31432
297.63319
297.02893
297.51485
297.20773
297.62908
297.11339
297.48752
296.81242
297.34494
297.01765
297.48402
296.90438
297.31526
296.56651
297.11474
296.79575
297.28394
296.65443
297.07571
296.34854
296.8865
296.56679
297.05205
296.40253
296.83027
296.29481
296.81769
296.4848
296.96233
296.28476
296.71689
296.31764
296.82696
296.49696
296.96205
296.27052
296.69546
296.35835
296.84862
296.5287
296.97736
296.28745
296.69821
296.41092
296.8777
296.56923
296.99739
296.31228
296.70379
296.47838
296.91614
296.62091
297.02254
296.34471
296.71136
296.56438
296.96645
296.68726
297.05594
296.39229
296.72753
296.6702
297.03031
296.76929
297.09841
296.45465
296.75238
296.79648
297.10936
296.86976
297.15369
296.54072
296.79479
296.94103
297.20317
296.99167
297.22653
296.65171
296.8576
297.08053
297.29773
297.11528
297.30723
296.77296
296.93501
297.20039
297.38148
297.22548
297.38462
296.88792
297.015
297.30286
297.45583
297.32163
297.45531
296.99023
297.08919
297.38696
297.51829
297.40549
297.52081
297.07272
297.14996
297.45458
297.56927
297.47667
297.57955
297.14259
297.20272
297.507
297.60931
297.53
297.6209
297.19363
297.24181
297.54324
297.63533
297.56873
297.64809
297.23102
297.26967
297.56381
297.64628
297.58845
297.65959
297.25361
297.28507
297.5726
297.64933
297.59337
297.66162
297.26285
297.28957
297.569
297.64716
297.59086
297.6575
297.26455
297.2878
297.56827
297.64142
297.58765
297.64873
297.26373
297.28267
297.56647
297.63358
297.58411
297.6387
297.26313
297.27607
297.56574
297.62482
297.57647
297.62739
297.26213
297.26783
297.56006
297.61671
297.56815
297.61802
297.26284
297.25985
297.58151
297.61838
297.58175
297.61095
297.26761
297.2536
297.69504
297.68399
297.66909
297.66146
297.30879
297.27031
297.93185
297.90232
297.89479
297.84924
297.50166
297.41183
298.09924
298.10172
298.08157
298.06477
297.79372
297.70971
298.1765
298.1983
298.17205
298.18086
297.98719
297.94044
298.22257
298.25367
298.21746
298.24195
298.07622
298.05146
298.24332
298.27722
298.23547
298.26526
298.09996
298.08394
298.6428
298.53101
298.42348
298.31614
298.19468
298.0237
298.64441
298.52751
298.41923
298.31258
298.19387
298.01913
298.37601
298.50087
298.40203
298.27987
298.13588
297.92435
298.38916
298.49709
298.39528
298.27216
298.12756
297.90666
298.15208
298.34284
298.32979
298.21729
298.05218
297.80069
298.16603
298.34769
298.3208
298.20175
298.03307
297.76921
298.03082
298.12191
298.15472
298.08639
297.9293
297.65945
298.03774
298.13299
298.15081
298.06573
297.89808
297.61345
297.98736
297.95599
297.92589
297.85124
297.70496
297.43829
297.98573
297.95812
297.92072
297.83156
297.66971
297.38382
297.97786
297.90475
297.80724
297.67511
297.49279
297.21002
297.97369
297.89559
297.79226
297.65191
297.46108
297.16329
297.97794
297.8997
297.78483
297.63135
297.42995
297.1357
297.97338
297.88788
297.76689
297.60675
297.40002
297.09405
297.97913
297.90312
297.78745
297.63197
297.42876
297.13558
297.97458
297.89098
297.7686
297.60634
297.39793
297.09327
297.98058
297.90725
297.79247
297.63798
297.43617
297.14694
297.97609
297.89511
297.77327
297.61165
297.4039
297.10241
297.98244
297.91223
297.79852
297.64567
297.44639
297.16319
297.97788
297.9
297.77912
297.61889
297.41301
297.1169
297.98477
297.91812
297.80606
297.65583
297.46072
297.1863
297.98011
297.90611
297.78693
297.62915
297.42691
297.13929
297.98841
297.92509
297.81533
297.66887
297.47998
297.21788
297.98266
297.91347
297.79681
297.64277
297.44648
297.17111
297.99344
297.93305
297.8265
297.68538
297.5055
297.26037
297.9854
297.92176
297.80908
297.66092
297.47395
297.2163
297.99913
297.94201
297.84087
297.7081
297.541
297.31759
297.98875
297.93244
297.82612
297.68676
297.51308
297.27796
298.0027
297.9525
297.85948
297.73756
297.5866
297.38873
297.99264
297.94259
297.8453
297.7185
297.5627
297.35456
298.00636
297.96351
297.87981
297.76962
297.6355
297.46319
297.99775
297.95282
297.86572
297.7526
297.6158
297.4355
298.00779
297.97228
297.8976
297.79887
297.68036
297.53072
298.00093
297.96141
297.884
297.78372
297.66401
297.50829
298.00876
297.9807
297.91516
297.82709
297.72214
297.59181
298.00325
297.96924
297.90113
297.81256
297.7076
297.57303
298.00818
297.98648
297.92952
297.85122
297.75796
297.64396
298.00448
297.97531
297.91544
297.83713
297.74459
297.62794
298.00792
297.99051
297.94132
297.87199
297.78847
297.68756
298.00464
297.97998
297.92775
297.85875
297.77683
297.67504
298.00757
297.99396
297.95058
297.88885
297.81326
297.72248
298.00419
297.9826
297.93683
297.87577
297.80233
297.71217
298.00744
297.99447
297.95552
297.9001
297.83085
297.74792
298.00342
297.98334
297.9425
297.88797
297.82108
297.73965
298.00743
297.99364
297.95729
297.906
297.84056
297.76265
298.00303
297.98273
297.94497
297.89495
297.83217
297.75588
298.00673
297.99105
297.95623
297.90784
297.84464
297.76979
298.00208
297.9803
297.94438
297.8975
297.83718
297.76366
298.00604
297.98745
297.95304
297.90688
297.84511
297.77216
298.00149
297.97752
297.94292
297.89853
297.83988
297.76797
298.00342
297.98323
297.94972
297.90458
297.84367
297.772
297.99906
297.97396
297.94037
297.89775
297.84001
297.76916
298.00177
297.97834
297.94525
297.90116
297.84067
297.7701
297.99724
297.97021
297.93733
297.89616
297.83897
297.76928
297.99984
297.97355
297.94091
297.89766
297.83725
297.76755
297.99455
297.96642
297.93423
297.89417
297.83721
297.76847
297.99745
297.96923
297.93684
297.89414
297.8335
297.7639
297.99269
297.96279
297.93104
297.89156
297.83444
297.76583
297.99512
297.96526
297.9328
297.89036
297.83013
297.76376
297.99159
297.95932
297.92738
297.88845
297.83317
297.77138
297.99322
297.96145
297.93069
297.89484
297.85123
297.81203
297.99053
297.95591
297.92681
297.89932
297.86132
297.84436
297.99314
297.96431
297.95398
297.95612
297.97786
298.00725
297.99079
297.9597
297.9589
297.98545
298.02852
298.0619
298.00163
298.01881
298.0919
298.17664
298.2231
298.22176
298.0007
298.03428
298.12245
298.21967
298.26523
298.2562
298.05576
298.21613
298.34942
298.38931
298.36047
298.31327
298.06419
298.24738
298.37859
298.40917
298.37646
298.32702
298.25007
298.4958
298.49103
298.4503
298.40088
298.35241
298.25987
298.50799
298.49191
298.45022
298.40432
298.35731
298.59351
298.52165
298.49166
298.46067
298.41604
298.369
298.59061
298.51584