/*--------------------------------*- C++ -*----------------------------------*\
| =========                 |                                                 |
| \\      /  F ield         | OpenFOAM: The Open Source CFD Toolbox           |
|  \\    /   O peration     | Version:  2206                                  |
|   \\  /    A nd           | Website:  www.openfoam.com                      |
|    \\/     M anipulation  |                                                 |
\*---------------------------------------------------------------------------*/
FoamFile
{
    version     2.0;
    format      ascii;
    arch        "LSB;label=32;scalar=64";
    class       volVectorField;
    location    "500";
    object      U;
}
// * * * * * * * * * * * * * * * * * * * * * * * * * * * * * * * * * * * * * //

dimensions      [0 1 -1 0 0 0 0];

internalField   nonuniform List<vector> 
50904
(
(-27.61398 1.0828344 0.075422909)
(-37.278355 2.2962935 0.21588991)
(-28.284629 4.7611729 0.30792746)
(-39.468366 8.1756229 0.49870677)
(-48.907987 1.5275004 0.22962015)
(-59.368882 3.3861042 0.45529225)
(-49.488576 6.6608128 0.24177676)
(-60.828087 10.586408 0.53750956)
(-59.120656 1.2655099 0.41816521)
(-69.021917 3.0783523 0.82468357)
(-59.744208 6.3423562 0.59119189)
(-70.130492 9.9060714 1.0970067)
(-65.214081 0.88304973 0.61467815)
(-74.428031 2.4929156 1.2090615)
(-65.859429 5.6552393 0.83843846)
(-75.354694 8.8098659 1.551348)
(-69.323564 0.55566861 0.84494412)
(-77.794253 1.9776167 1.6487929)
(-69.816872 5.0702562 1.1657609)
(-78.439106 7.9608637 2.1081014)
(-71.147167 0.28278266 1.103203)
(-79.095361 1.5638262 2.1409299)
(-71.474151 4.6937566 1.5192711)
(-79.540839 7.4278251 2.7249859)
(-71.332107 -0.015451391 1.4133792)
(-79.037901 1.1558549 2.68194)
(-71.65964 4.4145914 1.9353296)
(-79.490599 7.0257847 3.3969812)
(-71.150532 -0.3654788 1.7832098)
(-78.641983 0.69366662 3.3019051)
(-71.542149 4.1112968 2.4156758)
(-79.153643 6.584885 4.1351993)
(-70.868889 -0.79145849 2.2196043)
(-78.093697 0.14560983 3.9954511)
(-71.336615 3.7417258 3.0236474)
(-78.676173 6.0628818 4.9974947)
(-70.454065 -1.2826658 2.6947496)
(-77.344317 -0.47352501 4.7152997)
(-70.990618 3.3004432 3.6081924)
(-78.006024 5.4597841 5.8174917)
(-69.864349 -1.8259676 3.2189423)
(-76.361649 -1.1455954 5.4616221)
(-70.452465 2.8054068 4.3153982)
(-77.096635 4.7975703 6.7208377)
(-69.054858 -2.4453062 3.7374271)
(-75.073314 -1.9081061 6.1566535)
(-69.68823 2.2252038 4.9621193)
(-75.890611 4.0412649 7.5147454)
(-67.968622 -3.1183942 4.222887)
(-73.442346 -2.703651 6.7633964)
(-68.61582 1.6028825 5.6025962)
(-74.32239 3.2494196 8.2397032)
(-66.562817 -3.7780819 4.5630819)
(-71.438507 -3.4584916 7.135418)
(-67.202552 0.98699207 6.0494384)
(-72.374084 2.4777378 8.6978352)
(-64.847376 -4.3073854 4.7190336)
(-69.088013 -4.0809909 7.2379543)
(-65.441359 0.44840649 6.2878998)
(-70.055721 1.7846031 8.8485009)
(-63.07946 -4.7679928 4.5659358)
(-66.745146 -4.587525 6.9381846)
(-63.60018 0.01186968 6.1624264)
(-67.700069 1.2528873 8.5663759)
(-61.493771 -4.9924374 4.2471314)
(-64.684055 -4.8442344 6.418198)
(-61.948672 -0.21455689 5.8323485)
(-65.608221 0.9645141 8.0229272)
(-60.078893 -5.1431736 3.7561811)
(-62.878258 -5.0021744 5.6965488)
(-60.491256 -0.32314185 5.3050383)
(-63.770567 0.83706596 7.2572457)
(-58.869006 -5.1524494 3.2363651)
(-61.326252 -5.0312225 4.9047567)
(-59.251571 -0.27560356 4.7349424)
(-62.200181 0.88884825 6.4060156)
(-57.862522 -5.0549905 2.6903174)
(-60.038237 -4.9495404 4.0725183)
(-58.197014 -0.13672972 4.083373)
(-60.87637 1.0624373 5.463371)
(-57.055889 -5.0365481 2.1817067)
(-59.005854 -4.9510364 3.2423965)
(-57.371971 -0.050383907 3.3972717)
(-59.825921 1.1687104 4.4520522)
(-56.472527 -5.0899193 1.6228015)
(-58.253659 -5.0280786 2.3618194)
(-56.774303 -0.12579143 2.6478684)
(-59.04567 1.0926105 3.3617001)
(-56.132207 -5.2936039 1.2173459)
(-57.809646 -5.2664885 1.6395825)
(-56.444739 -0.34992703 2.0028306)
(-58.597276 0.83974356 2.3828462)
(-55.98322 -5.5323874 0.90572116)
(-57.587598 -5.5587095 1.0876603)
(-56.31365 -0.63154976 1.5314303)
(-58.3994 0.51088563 1.6464584)
(-55.933345 -5.7704344 0.71398707)
(-57.494839 -5.8468643 0.71368172)
(-56.26202 -0.90190872 1.1944963)
(-58.326362 0.19685346 1.1009393)
(-55.951136 -6.0083456 0.57175881)
(-57.470375 -6.1246899 0.46734374)
(-56.288567 -1.1698863 0.96004664)
(-58.315855 -0.1164855 0.7301245)
(-56.003842 -6.2184937 0.47382172)
(-57.450634 -6.361877 0.29978202)
(-56.348179 -1.4097558 0.78052629)
(-58.27827 -0.39002868 0.47036459)
(-56.080144 -6.4018146 0.39929563)
(-57.431332 -6.5642096 0.20328055)
(-56.44125 -1.6265496 0.65142573)
(-58.177218 -0.61300955 0.30119083)
(-56.167936 -6.56376 0.34831114)
(-57.402695 -6.7392645 0.11285702)
(-56.549826 -1.8187832 0.53815744)
(-58.118058 -0.77941438 0.2186136)
(-56.219986 -6.7051005 0.30242474)
(-57.414316 -6.8837019 0.11085647)
(-56.573178 -1.9850627 0.45721666)
(-58.066788 -0.89670477 0.20052844)
(-55.725674 -6.8990992 0.26995219)
(-56.415917 -7.1026902 0.083056225)
(-55.881389 -2.1470481 0.38092685)
(-56.753045 -1.0077124 0.16414323)
(-53.006291 -7.2818889 0.20486185)
(-53.010831 -7.514591 0.044048643)
(-52.548295 -2.3259745 0.27592377)
(-52.94317 -1.1326372 0.092030807)
(-47.448473 -7.6851297 0.11431411)
(-47.347252 -7.8559486 0.0034288002)
(-46.723648 -2.45303 0.15633698)
(-47.241781 -1.2068667 0.037101071)
(-39.975227 -7.6720607 0.043693957)
(-40.105364 -7.745347 -0.022806974)
(-39.288281 -2.4059731 0.068758887)
(-40.193817 -1.1749483 0.0086347642)
(-29.096518 -6.6266952 0.038492807)
(-29.429948 -6.6349188 0.003842316)
(-28.610911 -2.0115806 0.041368602)
(-29.787124 -1.0029084 0.01228867)
(-11.978815 -3.2773388 -0.1164062)
(-12.227945 -3.3040123 -0.10854626)
(-11.807457 -0.95553556 -0.07551684)
(-12.625835 -0.59672857 -0.067666652)
(-26.619789 8.7051869 0.47272547)
(-37.69076 14.068639 0.91258508)
(-22.919225 10.995483 0.5243616)
(-31.162066 17.541301 0.97741876)
(-21.058669 10.917305 0.43371758)
(-25.481619 18.173184 0.82090707)
(-19.96456 10.699636 0.3630394)
(-22.5744 17.822569 0.72706183)
(-19.294424 10.469705 0.31386948)
(-20.80996 17.289161 0.66149792)
(-18.84332 10.281641 0.28345971)
(-19.663107 16.785438 0.62776431)
(-18.504231 10.121605 0.2651672)
(-18.819595 16.311105 0.61285804)
(-47.078473 11.257155 0.2368695)
(-57.900128 17.17723 0.65753371)
(-42.838411 13.564731 0.298542)
(-51.184992 20.448318 0.62335405)
(-40.988237 13.35877 0.31002386)
(-46.101417 20.243932 0.65460214)
(-39.930032 13.067465 0.32055361)
(-43.625893 19.638595 0.71910433)
(-39.301164 12.803014 0.32375658)
(-42.157666 19.026194 0.75036231)
(-38.88635 12.598477 0.32374613)
(-41.201416 18.517728 0.76637138)
(-38.578222 12.428474 0.32189316)
(-40.494037 18.066693 0.77450627)
(-57.450528 10.558151 0.71433664)
(-67.30051 15.981095 1.4109913)
(-53.530232 12.645922 0.88135382)
(-61.547547 18.958501 1.4651039)
(-51.91889 12.512911 0.90791977)
(-57.211087 18.647302 1.6023342)
(-50.987509 12.273069 0.92548407)
(-55.014212 18.133309 1.7235289)
(-50.430975 12.043353 0.93074396)
(-53.73417 17.611917 1.7866477)
(-50.063062 11.857795 0.93099886)
(-52.894294 17.168793 1.8233023)
(-49.789127 11.70128 0.92888329)
(-52.269929 16.770878 1.8427332)
(-63.83617 9.5524075 1.0179685)
(-72.763994 14.476165 1.8894084)
(-60.261607 11.543841 1.2283932)
(-67.605581 17.418715 1.9957808)
(-58.821178 11.486405 1.2651233)
(-63.607719 17.258523 2.1180242)
(-57.969127 11.304577 1.2830313)
(-61.472816 16.882277 2.2079899)
(-57.448446 11.125111 1.2895454)
(-60.24726 16.480488 2.2442114)
(-57.098723 10.983214 1.2935586)
(-59.455866 16.13879 2.2690308)
(-56.836068 10.865288 1.298267)
(-58.870425 15.82681 2.2878778)
(-67.902032 8.8089592 1.4314463)
(-75.868608 13.4495 2.5155941)
(-64.483507 10.811469 1.7456641)
(-70.82402 16.554444 2.688412)
(-63.126239 10.830916 1.8109661)
(-66.794624 16.637469 2.8702438)
(-62.312257 10.694804 1.8458852)
(-64.54917 16.377334 2.9959169)
(-61.812302 10.537818 1.85969)
(-63.185665 16.027583 3.0505326)
(-61.468903 10.4075 1.8628885)
(-62.314179 15.717309 3.0826187)
(-61.201629 10.298134 1.8627133)
(-61.613347 15.431307 3.0992805)
(-69.595696 8.4146624 1.8463048)
(-76.918422 12.918973 3.1880478)
(-66.211886 10.479645 2.2090579)
(-71.76239 16.25382 3.3099394)
(-64.799838 10.558888 2.2484631)
(-67.692354 16.5452 3.4677925)
(-63.920148 10.464902 2.2632919)
(-65.417356 16.396379 3.5632328)
(-63.376313 10.336268 2.2668075)
(-64.0428 16.124001 3.6182356)
(-63.030269 10.224932 2.2686613)
(-63.155751 15.857958 3.6579994)
(-62.739512 10.133058 2.2715164)
(-62.583083 15.591416 3.6809845)
(-69.861249 8.2091729 2.3454547)
(-76.867282 12.609075 3.9206033)
(-66.548126 10.387508 2.7999398)
(-71.573161 16.219674 4.0850813)
(-65.093057 10.521909 2.8538644)
(-67.528325 16.718685 4.2844004)
(-64.173227 10.452491 2.87081)
(-65.310945 16.66195 4.4044381)
(-63.600613 10.341053 2.8719537)
(-63.983442 16.427507 4.4650983)
(-63.207245 10.24087 2.8713066)
(-63.122972 16.181915 4.500568)
(-62.910682 10.156067 2.8711279)
(-62.556953 15.933579 4.5200406)
(-69.842643 8.0000874 2.8730494)
(-76.582017 12.257408 4.6991942)
(-66.625239 10.30287 3.3704307)
(-71.24726 16.116662 4.899878)
(-65.141637 10.494776 3.4282801)
(-67.224287 16.826618 5.0731804)
(-64.189743 10.455172 3.4467286)
(-65.074628 16.885844 5.2267867)
(-63.598636 10.36446 3.4537717)
(-63.799492 16.713677 5.3011866)
(-63.194645 10.278587 3.4575634)
(-62.961636 16.507275 5.3344327)
(-62.891039 10.20519 3.4608793)
(-62.394914 16.292366 5.3503113)
(-69.741422 7.7455869 3.5898265)
(-76.198332 11.826922 5.6696402)
(-66.629829 10.190759 4.1416202)
(-70.890777 15.929085 5.998755)
(-65.12863 10.441649 4.2096692)
(-66.849596 16.863341 6.1693959)
(-64.148742 10.430703 4.2284899)
(-64.771636 17.051023 6.3129693)
(-63.541028 10.361345 4.2357727)
(-63.562114 16.957083 6.3722415)
(-63.128573 10.290698 4.2387974)
(-62.75307 16.800716 6.3956672)
(-62.819723 10.229225 4.2411474)
(-62.164962 16.625339 6.4037777)
(-69.504858 7.4254226 4.2307554)
(-75.667944 11.308955 6.5326303)
(-66.515928 10.02763 4.8275669)
(-70.464035 15.644422 6.9685478)
(-65.010259 10.345426 4.9179317)
(-66.402952 16.831576 7.1891539)
(-64.006096 10.371428 4.9547556)
(-64.418874 17.167577 7.3388727)
(-63.385217 10.32843 4.9729244)
(-63.233395 17.154715 7.3944138)
(-62.965073 10.275972 4.9824729)
(-62.466973 17.043883 7.4125931)
(-62.653996 10.229598 4.9894882)
(-61.898497 16.904261 7.4150249)
(-69.063421 7.0389925 5.0424734)
(-74.90702 10.711857 7.5299122)
(-66.194068 9.7968602 5.6715525)
(-69.864616 15.256209 8.0998147)
(-64.69417 10.184766 5.7751979)
(-65.880635 16.651365 8.3581061)
(-63.684066 10.246979 5.8212887)
(-63.928549 17.116046 8.4954085)
(-63.056875 10.226992 5.8433524)
(-62.750741 17.175446 8.534007)
(-62.634207 10.190359 5.8546915)
(-62.027238 17.10474 8.5376822)
(-62.325449 10.157209 5.8625409)
(-61.483911 16.996663 8.5288652)
(-68.390465 6.5593884 5.7622205)
(-73.904991 10.015774 8.3716087)
(-65.635192 9.4947064 6.4156058)
(-69.089069 14.740852 9.0232936)
(-64.161294 9.9615789 6.5389118)
(-65.133066 16.33137 9.3473362)
(-63.149837 10.064227 6.5972671)
(-63.235892 16.912651 9.4928833)
(-62.524711 10.071314 6.626496)
(-62.089142 17.035585 9.5252259)
(-62.106704 10.052447 6.6423187)
(-61.402015 17.004554 9.5226773)
(-61.805904 10.033893 6.6531188)
(-60.889649 16.927139 9.5090567)
(-67.395113 6.0139069 6.4741293)
(-72.511679 9.2501764 9.119309)
(-64.756459 9.0768056 7.1139874)
(-67.917681 14.091998 9.7779655)
(-63.309843 9.607663 7.2550956)
(-64.028436 15.805453 10.169942)
(-62.306527 9.740378 7.3246559)
(-62.172746 16.446172 10.314173)
(-61.692648 9.7698058 7.3591922)
(-61.177531 16.598506 10.338957)
(-61.292921 9.7666896 7.3776431)
(-60.516805 16.596123 10.331541)
(-61.009828 9.7606563 7.3894466)
(-60.046771 16.545527 10.314481)
(-66.076046 5.4258256 7.0007043)
(-70.767831 8.451307 9.6328753)
(-63.577193 8.5607028 7.5922934)
(-66.417684 13.311015 10.258306)
(-62.15274 9.1493322 7.711306)
(-62.667253 15.082379 10.641535)
(-61.169911 9.3140851 7.7758228)
(-60.917292 15.749298 10.762371)
(-60.578462 9.3625279 7.8103781)
(-59.967939 15.920884 10.777876)
(-60.199591 9.3711078 7.829185)
(-59.35149 15.936734 10.767753)
(-59.937458 9.3724752 7.8409911)
(-58.923722 15.90295 10.75003)
(-64.419893 4.8166087 7.2578886)
(-68.685991 7.624951 9.7593519)
(-62.105964 7.9249835 7.7877653)
(-64.627065 12.370479 10.311468)
(-60.703554 8.5587498 7.9117052)
(-61.051961 14.151658 10.694676)
(-59.750204 8.7472488 7.9753301)
(-59.414855 14.820062 10.803506)
(-59.188165 8.8089659 8.0084209)
(-58.517663 14.99932 10.813693)
(-58.836417 8.825525 8.0256824)
(-57.952236 15.026404 10.801799)
(-58.600733 8.8338884 8.0362619)
(-57.570968 15.007591 10.784587)
(-62.645874 4.2606988 7.1190222)
(-66.503812 6.9096392 9.4612167)
(-60.527661 7.2794913 7.5703541)
(-62.712471 11.446739 9.9328455)
(-59.177104 7.9430676 7.6813088)
(-59.370333 13.180263 10.269988)
(-58.276155 8.1513338 7.7378904)
(-57.827112 13.827643 10.362937)
(-57.751786 8.2218482 7.7663169)
(-56.993339 14.004374 10.370934)
(-57.430976 8.2446055 7.7810579)
(-56.482342 14.037644 10.360785)
(-57.222533 8.2585806 7.7900937)
(-56.148545 14.030635 10.347106)
(-61.049512 3.8831028 6.7580882)
(-64.522348 6.4290067 8.8797462)
(-59.121043 6.7492398 7.1423745)
(-60.933087 10.713106 9.2849822)
(-57.836 7.4176095 7.2459508)
(-57.835943 12.367154 9.5764729)
(-56.994398 7.6383826 7.2980578)
(-56.394084 12.984042 9.6549448)
(-56.509687 7.7144995 7.323591)
(-55.617734 13.153681 9.6622398)
(-56.218345 7.7414032 7.3366379)
(-55.15192 13.190414 9.6548482)
(-56.034056 7.7589087 7.3443629)
(-54.856239 13.191929 9.6448685)
(-59.645051 3.6461422 6.1742264)
(-62.733992 6.1342274 8.0659817)
(-57.8935 6.3512593 6.4951846)
(-59.305956 10.162876 8.4292077)
(-56.68154 7.0155208 6.5897016)
(-56.4732 11.721777 8.6793784)
(-55.900799 7.2467615 6.6369475)
(-55.148318 12.303791 8.7481988)
(-55.454859 7.329044 6.6605008)
(-54.433223 12.466549 8.7582356)
(-55.190262 7.3605121 6.6730126)
(-54.010278 12.506756 8.7553223)
(-55.026293 7.3800945 6.6803383)
(-53.747909 12.514584 8.7494971)
(-58.440916 3.5024628 5.4771178)
(-61.138232 5.9581044 7.1032201)
(-56.839676 5.9881828 5.7645213)
(-57.853223 9.6830119 7.4515629)
(-55.721137 6.6301599 5.8816569)
(-55.297008 11.138716 7.6902428)
(-55.006716 6.8685977 5.9358429)
(-54.108452 11.691407 7.7582402)
(-54.599433 6.9619283 5.9612557)
(-53.462948 11.858685 7.7722537)
(-54.357768 7.002696 5.9740495)
(-53.082424 11.910587 7.7725502)
(-54.207608 7.0236129 5.9808461)
(-52.847448 11.92446 7.7690404)
(-57.42859 3.4461706 4.7124378)
(-59.755075 5.8978276 6.0712761)
(-55.956082 5.7232962 4.940778)
(-56.603937 9.3287456 6.3618552)
(-54.937169 6.3357486 5.0324036)
(-54.324747 10.676374 6.5495807)
(-54.288287 6.5817747 5.0794094)
(-53.277025 11.202703 6.6066654)
(-53.916777 6.6846712 5.1031176)
(-52.704068 11.374967 6.6223541)
(-53.695105 6.7333589 5.1154898)
(-52.366248 11.437988 6.6252085)
(-53.556679 6.7602234 5.1221729)
(-52.15741 11.461361 6.6240022)
(-56.657395 3.350824 3.903249)
(-58.668182 5.7913246 4.9591567)
(-55.30885 5.4382166 4.1119998)
(-55.668293 8.9534023 5.2392164)
(-54.369466 6.0244473 4.2031291)
(-53.631474 10.206248 5.4128527)
(-53.767612 6.2740468 4.2501383)
(-52.708501 10.707863 5.4666297)
(-53.419958 6.3856761 4.2750154)
(-52.210322 10.879107 5.4836537)
(-53.211838 6.4423552 4.2887481)
(-51.943901 10.950484 5.4888421)
(-53.081492 6.4749503 4.2967776)
(-51.733958 10.984184 5.4902217)
(-56.118107 3.1795694 3.0653477)
(-57.90839 5.6030348 3.7932996)
(-54.876594 5.1539207 3.2272728)
(-55.076071 8.582714 4.0243292)
(-53.995633 5.7367714 3.2945191)
(-53.241022 9.7670414 4.1603409)
(-53.430467 5.9966218 3.334489)
(-52.429649 10.246827 4.2020028)
(-53.105465 6.1173727 3.3564545)
(-51.997657 10.416026 4.2160935)
(-52.913338 6.1796294 3.3688452)
(-51.773372 10.489754 4.2218022)
(-52.799855 6.2176395 3.37582)
(-51.593735 10.529681 4.2235121)
(-55.842134 2.9608629 2.3307902)
(-57.57115 5.3359883 2.7480184)
(-54.694441 4.8836246 2.4727074)
(-54.923257 8.1896302 2.9718884)
(-53.856814 5.4674213 2.5348048)
(-53.219527 9.314863 3.1075184)
(-53.3142 5.73512 2.5767738)
(-52.479301 9.7697991 3.1505842)
(-53.008513 5.8602092 2.5997351)
(-52.09221 9.9344955 3.1665075)
(-52.84651 5.9236901 2.6130801)
(-51.883938 10.008158 3.174732)
(-52.745468 5.9613709 2.6210764)
(-51.730262 10.047451 3.1789206)
(-55.749449 2.6557498 1.7806691)
(-57.535534 4.970502 1.9575598)
(-54.666931 4.5628383 1.9003065)
(-55.076994 7.7542606 2.169239)
(-53.895665 5.1530414 1.9452298)
(-53.456536 8.8406736 2.299112)
(-53.40203 5.4217048 1.9807397)
(-52.72544 9.2771293 2.3408451)
(-53.121469 5.5477802 1.999356)
(-52.333123 9.4393405 2.355738)
(-52.965515 5.612355 2.010337)
(-52.11499 9.5121894 2.3634967)
(-52.869978 5.6500945 2.0169323)
(-51.975374 9.5494862 2.3675082)
(-55.716526 2.3825546 1.3907863)
(-57.642128 4.6385749 1.3817852)
(-54.672476 4.3053579 1.5063657)
(-55.364776 7.3849899 1.6157445)
(-53.955024 4.9055923 1.5463892)
(-53.799593 8.4453138 1.7618184)
(-53.507646 5.1743784 1.5808794)
(-53.069361 8.8652839 1.8157284)
(-53.254402 5.2988391 1.5991383)
(-52.662494 9.0219934 1.8363754)
(-53.106943 5.3622979 1.6097295)
(-52.430514 9.0921452 1.8468988)
(-53.018972 5.3987174 1.6158958)
(-52.293182 9.1269183 1.8523168)
(-55.762495 2.1041636 1.1137765)
(-57.778417 4.3107685 0.98381466)
(-54.731326 4.0521341 1.2242073)
(-55.638557 7.0486278 1.252431)
(-54.040119 4.6642052 1.2555984)
(-54.099588 8.0959023 1.4015906)
(-53.616912 4.9360551 1.2885623)
(-53.373373 8.5105502 1.465396)
(-53.379492 5.0606085 1.3064257)
(-52.959122 8.6648765 1.4916099)
(-53.241436 5.1234041 1.3168769)
(-52.721488 8.7341127 1.5044911)
(-53.159061 5.1593068 1.3229033)
(-52.58072 8.7682201 1.5109346)
(-55.836614 1.8518804 0.90645336)
(-57.837424 4.0341179 0.71457186)
(-54.794247 3.8293003 1.0212197)
(-55.822805 6.7809609 1.0281896)
(-54.114114 4.4545849 1.0493409)
(-54.358964 7.8086173 1.1935328)
(-53.705554 4.7300129 1.0803382)
(-53.614058 8.2266297 1.256271)
(-53.475223 4.8552493 1.0963803)
(-53.201334 8.3796254 1.2889558)
(-53.342101 4.9178224 1.1057983)
(-52.961814 8.4476297 1.3066364)
(-53.263045 4.9532001 1.1111758)
(-52.820176 8.480785 1.3157082)
(-55.931801 1.6225447 0.74833366)
(-57.836656 3.8182897 0.53540161)
(-54.852855 3.638157 0.85972599)
(-55.956755 6.5762384 0.88152166)
(-54.159413 4.2812348 0.89074319)
(-54.667867 7.5534603 1.0505862)
(-53.763911 4.560676 0.91896651)
(-53.90269 7.9578809 1.1240943)
(-53.539316 4.6863825 0.93456433)
(-53.460259 8.1069374 1.1679884)
(-53.409399 4.7486051 0.94364552)
(-53.21386 8.1704323 1.1918055)
(-53.332631 4.7834605 0.94895859)
(-53.076171 8.2000477 1.203947)
(-56.049933 1.4208777 0.62045736)
(-57.844572 3.6603725 0.4433275)
(-54.922193 3.4805502 0.74022739)
(-56.159067 6.4213058 0.86134858)
(-54.209609 4.1489501 0.78620652)
(-54.872868 7.3390077 1.0374307)
(-53.803017 4.4346551 0.81012269)
(-54.097164 7.70925 1.1128978)
(-53.572083 4.5617556 0.82219282)
(-53.624704 7.8432268 1.154888)
(-53.441675 4.624118 0.82998167)
(-53.402809 7.8962357 1.176999)
(-53.367017 4.6588116 0.83558426)
(-53.267493 7.9210341 1.1891508)
(-56.066932 1.2617715 0.51493257)
(-57.586858 3.5500617 0.41189302)
(-54.873794 3.3735547 0.63456301)
(-55.747066 6.3420434 0.84790904)
(-54.095231 4.0653841 0.6841721)
(-54.325596 7.2270311 1.0473863)
(-53.651054 4.3545153 0.71050049)
(-53.622168 7.5540717 1.1147353)
(-53.431134 4.4839533 0.72537662)
(-53.225939 7.6706708 1.1485443)
(-53.273642 4.5517608 0.73450174)
(-53.012841 7.7184278 1.1655706)
(-53.177519 4.59003 0.73997087)
(-52.879299 7.7427006 1.1738023)
(-55.046643 1.1801551 0.4122347)
(-56.192929 3.5387044 0.36054154)
(-53.661904 3.3863944 0.51431875)
(-53.787659 6.4857577 0.77935834)
(-52.837969 4.1127366 0.56598722)
(-52.090715 7.445494 0.99454759)
(-52.33887 4.4191856 0.59513384)
(-51.212114 7.7697583 1.0582452)
(-52.076377 4.5551789 0.61340859)
(-50.731002 7.8935378 1.0871188)
(-51.93256 4.6220668 0.62364063)
(-50.460072 7.9438597 1.1007569)
(-51.851307 4.6583106 0.6278611)
(-50.304307 7.9680357 1.1056968)
(-51.33983 1.2360788 0.28419284)
(-52.154564 3.6948302 0.23605367)
(-49.679762 3.62189 0.34406169)
(-49.370764 6.9552146 0.61420053)
(-48.678193 4.3928176 0.38250609)
(-47.324098 8.1187412 0.83847885)
(-48.126447 4.7158913 0.40662822)
(-46.255704 8.4963793 0.89489803)
(-47.833082 4.8587135 0.41994326)
(-45.671784 8.6413342 0.91504049)
(-47.671337 4.9284714 0.42796043)
(-45.343988 8.696597 0.92300487)
(-47.579803 4.9656021 0.43234937)
(-45.157582 8.7212237 0.92463791)
(-45.37128 1.4129844 0.15303424)
(-46.579017 3.9577411 0.14125057)
(-43.53638 4.006283 0.1946083)
(-43.660886 7.6168505 0.41794623)
(-42.454345 4.8174556 0.22088203)
(-41.33763 9.065491 0.62043302)
(-41.868805 5.152389 0.23943843)
(-40.078212 9.5385947 0.67479005)
(-41.556597 5.299814 0.25025394)
(-39.396312 9.711954 0.69565978)
(-41.385043 5.3714526 0.25667275)
(-39.018379 9.7751856 0.70557475)
(-41.288401 5.4092222 0.26024309)
(-38.805731 9.8005872 0.70880418)
(-37.960982 1.6384751 0.061875372)
(-39.762214 4.2064243 0.050194137)
(-36.05901 4.37905 0.089136918)
(-36.782555 8.2412678 0.22155928)
(-34.951813 5.2161554 0.10443738)
(-34.202614 9.952178 0.35204869)
(-34.354315 5.5507222 0.11334806)
(-32.749508 10.518779 0.39602871)
(-34.033004 5.6951695 0.11857255)
(-31.966673 10.718561 0.41337521)
(-33.856536 5.7637732 0.1226089)
(-31.539247 10.78648 0.42410727)
(-33.757618 5.7985073 0.12663657)
(-31.302532 10.808666 0.43223997)
(-27.489434 1.7526073 0.023319816)
(-29.708821 4.0494867 0.0060883156)
(-25.725854 4.3813181 0.041374274)
(-26.975364 8.0926878 0.073939976)
(-24.656104 5.187047 0.045355381)
(-24.401081 9.8411478 0.12815751)
(-24.075672 5.4906727 0.045119571)
(-22.871694 10.415611 0.14952508)
(-23.754704 5.6166004 0.044197797)
(-22.032446 10.617509 0.16060505)
(-23.575973 5.6772171 0.044712885)
(-21.577297 10.690523 0.17179654)
(-23.476661 5.7099997 0.048574881)
(-21.329803 10.720746 0.18470072)
(-11.311045 1.1123746 -0.067693633)
(-13.08315 2.1815195 -0.076227881)
(-10.326562 2.6425606 -0.047040939)
(-11.749499 4.6678039 -0.076387462)
(-9.6386145 3.1353735 -0.041673903)
(-10.278024 5.7764319 -0.07525841)
(-9.2549474 3.3085985 -0.03713196)
(-9.3551723 6.104838 -0.07230216)
(-9.0339912 3.3686245 -0.032560486)
(-8.8174427 6.2066703 -0.064169384)
(-8.9034205 3.3899782 -0.028168562)
(-8.5152402 6.2330046 -0.055377729)
(-8.8279809 3.4004984 -0.022153579)
(-8.3501442 6.2455755 -0.04181252)
(-18.208416 9.9637367 0.25370091)
(-18.09434 15.838076 0.60797669)
(-17.96136 9.8086004 0.24210794)
(-17.508274 15.375768 0.60249615)
(-17.755603 9.6663593 0.24124097)
(-17.032122 14.962278 0.61720241)
(-17.518111 9.4853163 0.25471163)
(-16.49179 14.440856 0.65297271)
(-17.151282 9.1555805 0.28961597)
(-15.679613 13.495765 0.71664174)
(-16.460634 8.401754 0.34697488)
(-14.20191 11.164335 0.75338014)
(-38.307491 12.256661 0.31884074)
(-39.882066 17.62088 0.77755492)
(-38.079427 12.095331 0.31468409)
(-39.384196 17.210341 0.7766493)
(-37.894266 11.957516 0.31087211)
(-38.987366 16.868304 0.78028794)
(-37.680096 11.773182 0.30380533)
(-38.528266 16.425298 0.78401126)
(-37.339217 11.394761 0.29222612)
(-37.798542 15.550912 0.78543055)
(-36.658807 10.360763 0.30036449)
(-36.361614 13.237047 0.8122203)
(-49.547381 11.545147 0.92528596)
(-51.727398 16.37739 1.8558857)
(-49.339808 11.391352 0.91989535)
(-51.276781 15.997078 1.8597054)
(-49.170604 11.253459 0.91118179)
(-50.916022 15.664721 1.8549212)
(-48.977699 11.08525 0.89846221)
(-50.504631 15.26293 1.8434045)
(-48.673445 10.778767 0.87886896)
(-49.853848 14.54248 1.8196229)
(-48.043755 9.9448052 0.86114667)
(-48.509304 12.653867 1.7887542)
(-56.602328 10.746504 1.3026342)
(-58.375591 15.512053 2.307707)
(-56.402359 10.631059 1.3059082)
(-57.968355 15.208599 2.3243466)
(-56.238179 10.527973 1.3100112)
(-57.639325 14.943103 2.3436382)
(-56.048414 10.391223 1.313766)
(-57.257844 14.598321 2.3662984)
(-55.74493 10.12036 1.3137111)
(-56.640397 13.935098 2.390256)
(-55.115556 9.38155 1.3028228)
(-55.339659 12.195553 2.4066944)
(-60.9588 10.188141 1.8603872)
(-61.033241 15.14389 3.1088135)
(-60.747846 10.079375 1.8555059)
(-60.561156 14.861852 3.1108568)
(-60.569478 9.9828315 1.8495887)
(-60.193108 14.613115 3.1121704)
(-60.35773 9.8624562 1.8414459)
(-59.80171 14.294387 3.1112943)
(-60.019976 9.6359653 1.8295009)
(-59.24645 13.687856 3.1040891)
(-59.34146 9.0083707 1.8145254)
(-58.219505 12.078394 3.0878362)
(-62.494306 10.040946 2.2745278)
(-62.089933 15.322798 3.6982433)
(-62.27118 9.9460764 2.2748643)
(-61.625166 15.063245 3.7089944)
(-62.105631 9.8577182 2.2745083)
(-61.282573 14.829146 3.7180467)
(-61.911074 9.7456422 2.2738863)
(-60.91248 14.521319 3.7249324)
(-61.539522 9.534172 2.2717338)
(-60.355875 13.929147 3.7269315)
(-60.771874 8.9446262 2.2613711)
(-59.233943 12.357073 3.7133286)
(-62.650849 10.070292 2.8699702)
(-62.057787 15.684019 4.5349538)
(-62.429892 9.982067 2.8659973)
(-61.591933 15.439634 4.5396936)
(-62.243189 9.902126 2.8629722)
(-61.252983 15.218407 4.5414536)
(-62.022887 9.7996998 2.8600243)
(-60.887999 14.927513 4.5391215)
(-61.664164 9.6032992 2.8546751)
(-60.340014 14.36432 4.5264893)
(-60.914498 9.0553699 2.8416335)
(-59.199935 12.84416 4.4846296)
(-62.625145 10.129685 3.4626782)
(-61.891557 16.072224 5.3626328)
(-62.398934 10.050126 3.4610364)
(-61.438491 15.849473 5.3647201)
(-62.207622 9.9776107 3.4600888)
(-61.099352 15.647031 5.3652353)
(-61.98085 9.8837257 3.4592156)
(-60.730337 15.378266 5.3617323)
(-61.609448 9.7021171 3.4573051)
(-60.173348 14.848653 5.3459308)
(-60.828551 9.195058 3.4503666)
(-59.010925 13.388517 5.2901111)
(-62.549507 10.165544 4.2418959)
(-61.694294 16.43363 6.4066739)
(-62.320666 10.096668 4.2389782)
(-61.25706 16.233298 6.4002083)
(-62.12685 10.033168 4.2370388)
(-60.921789 16.051547 6.3940827)
(-61.896498 9.9505284 4.2351972)
(-60.552726 15.808405 6.3825871)
(-61.516951 9.7899897 4.2320758)
(-59.993482 15.320304 6.3513869)
(-60.708023 9.3370506 4.2216319)
(-58.829367 13.935788 6.2501443)
(-62.382827 10.179901 4.994064)
(-61.420192 16.74491 7.4129088)
(-62.152888 10.123289 4.9935643)
(-61.009032 16.569441 7.4012528)
(-61.958315 10.070453 4.9938946)
(-60.678571 16.408639 7.3906851)
(-61.726343 10.000791 4.9949539)
(-60.313916 16.191616 7.3744214)
(-61.342062 9.8637279 4.9968989)
(-59.75768 15.746795 7.3348471)
(-60.512926 9.4703809 4.9966549)
(-58.596338 14.451335 7.2094523)
(-62.057668 10.120183 5.8675859)
(-61.015534 16.867516 8.5169998)
(-61.83043 10.074849 5.8667054)
(-60.627367 16.717596 8.4962217)
(-61.638099 10.031935 5.8667358)
(-60.308119 16.578488 8.4778778)
(-61.408267 9.9746149 5.867627)
(-59.953712 16.388675 8.4527417)
(-61.025882 9.8610589 5.8697007)
(-59.409637 15.991982 8.3988798)
(-60.194225 9.5324652 5.869634)
(-58.265499 14.811534 8.2385098)
(-61.546661 10.010517 6.6606572)
(-60.448369 16.828172 9.4936992)
(-61.326718 9.9773069 6.6612232)
(-60.075739 16.705974 9.4698656)
(-61.140375 9.9450584 6.6626157)
(-59.772976 16.590367 9.4487593)
(-60.917456 9.9009899 6.6655315)
(-59.432014 16.430224 9.421128)
(-60.544578 9.8117572 6.671686)
(-58.904367 16.087952 9.3648064)
(-59.72399 9.5470761 6.6810575)
(-57.783488 15.043187 9.1993327)
(-60.767591 9.7489199 7.3972826)
(-59.64099 16.472724 10.296172)
(-60.562193 9.7262187 7.3975555)
(-59.294609 16.376274 10.269946)
(-60.388076 9.7035284 7.3989146)
(-59.011044 16.283772 10.246936)
(-60.179297 9.671588 7.4020956)
(-58.689839 16.153759 10.217994)
(-59.827837 9.6055353 7.4091709)
(-58.185193 15.869936 10.161632)
(-59.044655 9.4044288 7.4207807)
(-57.100232 14.982819 9.9991956)
(-59.718527 9.3714491 7.8482969)
(-58.562489 15.851604 10.731492)
(-59.530768 9.3579729 7.8491357)
(-58.251896 15.775923 10.706885)
(-59.371569 9.342757 7.8505558)
(-57.99274 15.702938 10.68521)
(-59.180194 9.3204246 7.8541773)
(-57.694761 15.599528 10.658831)
(-58.856813 9.2718554 7.86239)
(-57.220647 15.369131 10.609012)
(-58.138169 9.1232933 7.8777928)
(-56.188975 14.63676 10.467448)
(-58.408701 8.8404993 8.0422864)
(-57.257475 14.973507 10.766447)
(-58.244818 8.8332245 8.0408888)
(-56.989777 14.914794 10.742003)
(-58.10518 8.8239993 8.0407541)
(-56.763791 14.858307 10.721)
(-57.936355 8.8091926 8.04287)
(-56.495798 14.778003 10.696406)
(-57.64929 8.7742764 8.0491981)
(-56.058847 14.596134 10.652149)
(-57.017334 8.6688544 8.0622443)
(-55.109566 14.012061 10.531178)
(-57.055812 8.2688248 7.793863)
(-55.88057 14.008329 10.331151)
(-56.915412 8.2650779 7.7901909)
(-55.654844 13.96289 10.309324)
(-56.794737 8.2603222 7.7885875)
(-55.461961 13.919467 10.291158)
(-56.647797 8.2511884 7.789307)
(-55.228775 13.857686 10.270709)
(-56.396466 8.2272513 7.7940488)
(-54.831386 13.71786 10.23541)
(-55.849101 8.1538672 7.8055226)
(-53.951091 13.265283 10.140738)
(-55.88838 7.7709464 7.3458749)
(-54.623111 13.177908 9.6308458)
(-55.766445 7.7695165 7.3411634)
(-54.427968 13.142845 9.612286)
(-55.660581 7.7679753 7.3387583)
(-54.259662 13.109908 9.5972225)
(-55.53056 7.7630184 7.3386491)
(-54.053897 13.062058 9.5809639)
(-55.306889 7.7474871 7.3422257)
(-53.698501 12.952021 9.5539549)
(-54.825906 7.6976296 7.351849)
(-52.905238 12.594357 9.4832465)
(-54.898217 7.3935929 6.6810791)
(-53.544149 12.507002 8.7380157)
(-54.790772 7.3947652 6.6768491)
(-53.373018 12.480599 8.7231002)
(-54.696463 7.3962141 6.674894)
(-53.22404 12.456466 8.7112387)
(-54.579473 7.3952112 6.6753331)
(-53.039982 12.420271 8.6990709)
(-54.377088 7.3878654 6.6798595)
(-52.719741 12.334421 8.679712)
(-53.947466 7.3595692 6.6918607)
(-52.011927 12.050292 8.6292122)
(-54.093618 7.0405684 5.9841054)
(-52.668721 11.925395 7.7630091)
(-53.997057 7.04642 5.9816312)
(-52.517938 11.908205 7.7522551)
(-53.911554 7.0519189 5.9813538)
(-52.385755 11.89347 7.744413)
(-53.804317 7.0565523 5.9835677)
(-52.220603 11.870088 7.7370047)
(-53.6179 7.0605033 5.990905)
(-51.93095 11.810281 7.7260691)
(-53.226956 7.056874 6.0084869)
(-51.289244 11.593499 7.6954828)
(-53.451414 6.7816573 5.1255126)