/*--------------------------------*- C++ -*----------------------------------*\
| =========                 |                                                 |
| \\      /  F ield         | OpenFOAM: The Open Source CFD Toolbox           |
|  \\    /   O peration     | Version:  2206                                  |
|   \\  /    A nd           | Website:  www.openfoam.com                      |
|    \\/     M anipulation  |                                                 |
\*---------------------------------------------------------------------------*/
FoamFile
{
    version     2.0;
    format      ascii;
    arch        "LSB;label=32;scalar=64";
    class       volScalarField;
    location    "300";
    object      alphat;
}
// * * * * * * * * * * * * * * * * * * * * * * * * * * * * * * * * * * * * * //

dimensions      [1 -1 -1 0 0 0 0];

internalField   nonuniform List<scalar> 
50904
(
5.5959742e-06
9.1138421e-06
5.9426124e-06
1.013215e-05
2.0096829e-05
2.3428965e-05
1.8899588e-05
2.1797156e-05
3.8497741e-05
3.8836223e-05
3.5501125e-05
3.6765354e-05
4.447011e-05
4.1898148e-05
4.207133e-05
3.9743072e-05
3.1097148e-05
3.0255281e-05
2.9378466e-05
2.8571763e-05
1.7406663e-05
1.5297752e-05
1.6427717e-05
9.6208578e-06
3.5143327e-06
2.017307e-06
2.5007264e-06
1.4080173e-06
7.5885673e-07
4.5765826e-07
5.6581515e-07
3.4230412e-07
3.8491027e-07
2.5651839e-07
3.1449336e-07
2.1139156e-07
3.4241073e-07
2.4023976e-07
2.8987325e-07
2.0431892e-07
3.5164552e-07
2.5370646e-07
2.9902361e-07
2.1652745e-07
3.7385348e-07
2.7588964e-07
3.1833613e-07
2.351865e-07
4.0314504e-07
3.0435242e-07
3.4332258e-07
2.5867353e-07
4.4299279e-07
3.4174594e-07
3.7710034e-07
2.8950023e-07
4.9860305e-07
3.9251408e-07
4.2390519e-07
3.3097314e-07
5.6594198e-07
4.5207901e-07
4.7953385e-07
3.7825513e-07
6.4196624e-07
5.1736325e-07
5.4147608e-07
4.2852056e-07
7.2477642e-07
5.8620146e-07
6.0621818e-07
4.7917219e-07
8.2255329e-07
6.6353701e-07
6.7666702e-07
5.3138592e-07
9.2951764e-07
7.4754932e-07
7.4573266e-07
5.814541e-07
1.0377657e-06
8.3316638e-07
8.18229e-07
6.3183124e-07
1.1529136e-06
9.2531242e-07
8.92494e-07
6.8435268e-07
1.2540836e-06
1.0045312e-06
9.5614202e-07
7.3194731e-07
1.3227334e-06
1.0551654e-06
1.0077299e-06
7.7084529e-07
1.3678751e-06
1.0863039e-06
1.0440878e-06
8.0004785e-07
1.4086049e-06
1.1152479e-06
1.0934415e-06
8.5579346e-07
1.5313342e-06
1.2420594e-06
1.297288e-06
1.1209034e-06
2.3402674e-06
2.0963597e-06
2.498027e-06
2.5894192e-06
7.5788797e-06
7.4833806e-06
9.4417195e-06
1.0330712e-05
1.3757967e-05
1.5829521e-05
1.6142278e-05
1.9733275e-05
2.1703519e-05
2.6474077e-05
2.4938242e-05
3.1387325e-05
3.6064352e-05
4.4431464e-05
4.0029843e-05
4.9204057e-05
4.5076317e-05
4.9444283e-05
4.5652752e-05
5.0149632e-05
3.3940312e-05
3.5574225e-05
3.3188086e-05
3.428481e-05
1.1135946e-05
1.1726548e-05
9.8861361e-06
1.0413886e-05
1.3366446e-06
1.3878208e-06
1.2067934e-06
1.3713379e-06
5.7287117e-06
1.0063196e-05
4.8884376e-06
8.3546064e-06
4.3681818e-06
6.7735081e-06
4.0510572e-06
5.8738574e-06
3.8476698e-06
5.2953638e-06
3.7069103e-06
4.8996415e-06
3.598973e-06
4.6004936e-06
1.7956703e-05
2.1084154e-05
1.7221385e-05
1.9638743e-05
1.6888018e-05
1.8520185e-05
1.6701534e-05
1.790583e-05
1.6585775e-05
1.7543981e-05
1.6507821e-05
1.7317856e-05
1.6448404e-05
1.7156933e-05
3.3495369e-05
3.5232294e-05
3.1855107e-05
3.26537e-05
3.137514e-05
3.0991914e-05
3.1137113e-05
3.0482067e-05
3.1015629e-05
3.0155916e-05
3.0858655e-05
2.9883462e-05
3.0780013e-05
2.96903e-05
3.8956201e-05
3.9200448e-05
3.599405e-05
3.6795988e-05
3.529331e-05
3.5011789e-05
3.4927883e-05
3.489611e-05
3.4559717e-05
3.4885127e-05
3.4436151e-05
3.4908095e-05
3.440129e-05
3.5011925e-05
2.8948794e-05
2.8176755e-05
2.8690179e-05
2.7576131e-05
2.8574076e-05
2.4309025e-05
2.8002044e-05
2.3227403e-05
2.7698853e-05
2.2794002e-05
2.7629988e-05
2.3346684e-05
2.7626281e-05
2.2647917e-05
1.2794026e-05
7.7938487e-06
1.0937789e-05
6.1892661e-06
1.1021705e-05
4.9721725e-06
1.0805667e-05
4.6675462e-06
1.0826309e-05
4.5466891e-06
1.214015e-05
4.6137662e-06
1.2758052e-05
5.3276085e-06
2.0276978e-06
1.145574e-06
1.7412776e-06
8.4425341e-07
1.6813215e-06
6.8934053e-07
1.606432e-06
6.573689e-07
1.5667954e-06
6.4346533e-07
1.5412515e-06
6.5151854e-07
1.5333462e-06
7.529243e-07
4.7152165e-07
2.8337759e-07
4.1853751e-07
2.1045482e-07
4.0071442e-07
1.7561493e-07
3.8169442e-07
1.7251101e-07
3.7303172e-07
1.7143083e-07
3.6801856e-07
1.7361789e-07
3.66282e-07
1.9409346e-07
2.7504535e-07
1.813268e-07
2.5754431e-07
1.3968905e-07
2.465696e-07
1.1927189e-07
2.3461214e-07
1.206734e-07
2.3008398e-07
1.2097638e-07
2.2759408e-07
1.2068476e-07
2.2682418e-07
1.234173e-07
2.5797752e-07
1.7633759e-07
2.43874e-07
1.3475034e-07
2.3056406e-07
1.165645e-07
2.1767338e-07
1.2167553e-07
2.1308155e-07
1.1919815e-07
2.10835e-07
1.1941735e-07
2.1034376e-07
1.1931806e-07
2.6660558e-07
1.8627387e-07
2.5101414e-07
1.3987505e-07
2.346436e-07
1.2387801e-07
2.1999028e-07
1.3108705e-07
2.1469751e-07
1.2466829e-07
2.1245046e-07
1.2595381e-07
2.1220589e-07
1.2429575e-07
2.835973e-07
2.0145319e-07
2.651101e-07
1.4779921e-07
2.449655e-07
1.3185724e-07
2.2810945e-07
1.4108639e-07
2.2232524e-07
1.3251741e-07
2.2010344e-07
1.3464761e-07
2.2010443e-07
1.3259575e-07
3.059395e-07
2.201946e-07
2.8452253e-07
1.5833818e-07
2.6059373e-07
1.3914714e-07
2.4201627e-07
1.4504994e-07
2.3663793e-07
1.4491885e-07
2.3506491e-07
1.4530034e-07
2.3513235e-07
1.4402204e-07
3.3456851e-07
2.4467267e-07
3.097219e-07
1.7388152e-07
2.8316932e-07
1.4985732e-07
2.6389277e-07
1.5533963e-07
2.5947344e-07
1.6055713e-07
2.5848244e-07
1.599648e-07
2.5950745e-07
1.596871e-07
3.7569641e-07
2.7771117e-07
3.4797916e-07
1.9669048e-07
3.1880386e-07
1.6706737e-07
2.9897385e-07
1.7733786e-07
2.9548834e-07
1.8201941e-07
2.952251e-07
1.8243807e-07
2.9685342e-07
1.8273337e-07
4.2424437e-07
3.1379861e-07
3.9492619e-07
2.2348781e-07
3.6390938e-07
1.9209578e-07
3.430464e-07
2.0325157e-07
3.3968187e-07
2.0936074e-07
3.4009084e-07
2.1115302e-07
3.4193216e-07
2.1244764e-07
4.7776484e-07
3.4903452e-07
4.4711577e-07
2.5070784e-07
4.1346983e-07
2.1935445e-07
3.9096966e-07
2.3165808e-07
3.8731307e-07
2.3836343e-07
3.8789817e-07
2.4089222e-07
3.896365e-07
2.4299753e-07
5.3255381e-07
3.8132538e-07
4.9966063e-07
2.7755697e-07
4.629951e-07
2.48662e-07
4.3907531e-07
2.6250835e-07
4.3497255e-07
2.6977029e-07
4.3541239e-07
2.7292705e-07
4.3747743e-07
2.7590105e-07
5.9294388e-07
4.146824e-07
5.5533533e-07
3.0461447e-07
5.1222284e-07
2.7732883e-07
4.8531356e-07
2.9253929e-07
4.7982478e-07
2.9977151e-07
4.7882392e-07
3.0325856e-07
4.8277964e-07
3.0805169e-07
6.5202208e-07
4.4604714e-07
6.0882507e-07
3.3054338e-07
5.5898297e-07
3.0480432e-07
5.2913547e-07
3.215325e-07
5.2246599e-07
3.2899705e-07
5.2068161e-07
3.3360435e-07
5.2442259e-07
3.3869514e-07
7.1380148e-07
4.7985758e-07
6.6369833e-07
3.5765137e-07
6.0529924e-07
3.3124818e-07
5.7070298e-07
3.4971483e-07
5.6255649e-07
3.6486624e-07
5.6074504e-07
4.212113e-07
5.644758e-07
3.6174154e-07
7.7411408e-07
5.1664187e-07
7.1569452e-07
3.8701815e-07
6.5164132e-07
3.5984079e-07
6.1542091e-07
3.784802e-07
6.0745643e-07
3.8905625e-07
6.1086311e-07
4.0506932e-07
6.5414045e-07
3.9903225e-07
8.2465204e-07
5.5580214e-07
7.7004193e-07
4.1846625e-07
7.0331281e-07
3.9075375e-07
6.6517032e-07
4.1262199e-07
6.6864388e-07
4.2611251e-07
7.5405821e-07
4.5637589e-07
7.985199e-07
4.2540158e-07
8.6807448e-07
5.9536908e-07
8.2136573e-07
4.5016957e-07
7.6398558e-07
4.2000674e-07
7.260355e-07
4.4021096e-07
7.1766688e-07
4.4673122e-07
7.278669e-07
4.5195402e-07
7.7747309e-07
4.5731661e-07
8.9751298e-07
6.3630995e-07
8.6465334e-07
4.8804161e-07
8.2614419e-07
4.5738892e-07
7.9564533e-07
4.7963608e-07
7.861415e-07
4.8356823e-07
7.7526188e-07
4.8711041e-07
7.6879421e-07
4.9301335e-07
9.545988e-07
7.317131e-07
9.4690913e-07
6.0257965e-07
9.3074899e-07
6.0004348e-07
9.0733291e-07
6.2889324e-07
8.9787399e-07
6.4557472e-07
8.8395743e-07
6.5553071e-07
8.7096871e-07
6.6373183e-07
1.2394922e-06
1.1704607e-06
1.3317438e-06
1.226581e-06
1.383203e-06
1.4267754e-06
1.3965033e-06
1.5971756e-06
1.3999846e-06
1.6451989e-06
1.3862607e-06
1.6458674e-06
1.369291e-06
1.7055247e-06
2.8586854e-06
3.5010411e-06
3.4539316e-06
4.6132842e-06
3.8243614e-06
5.9695995e-06
4.0110959e-06
6.9509174e-06
4.0807536e-06
7.4698074e-06
4.0560621e-06
7.0571155e-06
3.9992908e-06
7.0136174e-06
1.1603206e-05
1.5678276e-05
1.4434278e-05
2.265908e-05
1.6389871e-05
2.5399104e-05
1.6879371e-05
2.6845785e-05
1.7168172e-05
2.7631275e-05
1.7341555e-05
2.8047971e-05
1.7443673e-05
2.8274662e-05
1.8449629e-05
2.4097678e-05
2.061488e-05
3.0422184e-05
2.1901299e-05
3.4398403e-05
2.2645122e-05
3.647917e-05
2.3039561e-05
3.7615735e-05
2.3299426e-05
3.8236467e-05
2.3458e-05
3.8584181e-05
2.8570569e-05
3.6762932e-05
3.1404617e-05
4.4315803e-05
3.3325964e-05
4.9287524e-05
3.4599838e-05
5.2109803e-05
3.5337096e-05
5.3713106e-05
3.5740047e-05
5.4621577e-05
3.5985978e-05
5.5146329e-05
4.4437605e-05
5.3426034e-05
4.8485961e-05
5.9056261e-05
5.01375e-05
6.2211291e-05
5.130829e-05
6.3354133e-05
5.2010063e-05
6.3923338e-05
5.2401428e-05
6.419321e-05
5.2616708e-05
6.4316463e-05
4.6595502e-05
5.1931805e-05
4.8053022e-05
5.3949092e-05
4.9342117e-05
5.4690359e-05
5.0222355e-05
5.4993995e-05
5.0742314e-05
5.5147009e-05
5.1052591e-05
5.5234991e-05
5.1244618e-05
5.5292677e-05
3.2615704e-05
3.3614638e-05
3.284049e-05
3.3278472e-05
3.3431213e-05
3.3110973e-05
3.3853177e-05
3.3033047e-05
3.4071754e-05
3.2952481e-05
3.4201906e-05
3.2922063e-05
3.4304655e-05
3.2939947e-05
9.1898577e-06
9.7051148e-06
8.8298113e-06
8.7822021e-06
8.771735e-06
8.0883902e-06
8.7610123e-06
7.6867011e-06
8.7044805e-06
7.3904016e-06
8.629038e-06
7.1854875e-06
8.5775128e-06
7.0705656e-06
1.131647e-06
1.5230849e-06
1.0408869e-06
1.4165129e-06
9.6790131e-07
1.2671191e-06
9.2200475e-07
1.153236e-06
8.9032983e-07
1.0742758e-06
8.6955707e-07
1.0275522e-06
8.5786291e-07
1.0033801e-06
3.5074158e-06
4.3522548e-06
3.4155332e-06
4.1056477e-06
3.3423822e-06
3.9201416e-06
3.2655571e-06
3.732829e-06
3.1585675e-06
3.4783374e-06
2.9718149e-06
3.0368976e-06
1.6398693e-05
1.7025374e-05
1.6350908e-05
1.6910883e-05
1.6313876e-05
1.6818519e-05
1.6275813e-05
1.6722618e-05
1.6220527e-05
1.6597442e-05
1.6138952e-05
1.6437693e-05
3.073461e-05
2.9531148e-05
3.0715457e-05
2.9413356e-05
3.0695284e-05
2.9323833e-05
3.0649039e-05
2.9203099e-05
3.0624102e-05
2.905731e-05
3.0608419e-05
2.8947166e-05
3.4388319e-05
3.5126011e-05
3.4384808e-05
3.5133026e-05
3.4376186e-05
3.5062466e-05
3.4385508e-05
3.4900563e-05
3.4430327e-05
3.4620113e-05
3.476961e-05
3.4183843e-05
2.7643045e-05
2.2568369e-05
2.7814894e-05
2.4990241e-05
2.7743149e-05
2.6215476e-05
2.7816468e-05
2.7151406e-05
2.828377e-05
2.7111007e-05
2.8185817e-05
2.7058401e-05
1.3316934e-05
6.0135488e-06
1.364341e-05
5.8315931e-06
1.458632e-05
5.684204e-06
1.3971207e-05
5.5931917e-06
1.1523763e-05
5.6040508e-06
1.1726817e-05
5.6998236e-06
1.5382272e-06
8.3648087e-07
1.5369458e-06
7.9007373e-07
1.5450669e-06
7.9186548e-07
1.5739313e-06
7.9144634e-07
1.6298227e-06
7.9279206e-07
1.720017e-06
8.0156203e-07
3.6768014e-07
2.0855875e-07
3.6784989e-07
2.0202354e-07
3.7026246e-07
2.0426581e-07
3.77273e-07
2.0572586e-07
3.9028104e-07
2.0722507e-07
4.1304469e-07
2.1022363e-07
2.2814402e-07
1.3628765e-07
2.2898904e-07
1.3527553e-07
2.3064423e-07
1.3805293e-07
2.3478937e-07
1.4033544e-07
2.4275108e-07
1.4222801e-07
2.5787641e-07
1.4440974e-07
2.1157239e-07
1.2342102e-07
2.1278813e-07
1.2775595e-07
2.1455828e-07
1.3065803e-07
2.1797438e-07
1.3394248e-07
2.2454106e-07
1.3631178e-07
2.3818083e-07
1.3816058e-07
2.134828e-07
1.2377448e-07
2.1505378e-07
1.2841664e-07
2.1697581e-07
1.3214121e-07
2.2002894e-07
1.3652159e-07
2.2596717e-07
1.3979029e-07
2.3931789e-07
1.4188645e-07
2.2150802e-07
1.3133346e-07
2.2343701e-07
1.3065745e-07
2.2538912e-07
1.359867e-07
2.2794559e-07
1.4110174e-07
2.3319073e-07
1.4540829e-07
2.459328e-07
1.4781464e-07
2.3681285e-07
1.4261222e-07
2.3935331e-07
1.4117039e-07
2.4139014e-07
1.4206389e-07
2.4338174e-07
1.4828921e-07
2.4797809e-07
1.5344967e-07
2.6014718e-07
1.5648602e-07
2.6138407e-07
1.5825591e-07
2.6378112e-07
1.5647054e-07
2.6606155e-07
1.5622121e-07
2.674708e-07
1.5816454e-07
2.7139935e-07
1.6424803e-07
2.8276804e-07
1.6777517e-07
2.9875081e-07
1.8137998e-07
3.0146052e-07
1.7923071e-07
3.0390465e-07
1.7813228e-07
3.0496488e-07
1.7790162e-07
3.085589e-07
1.8067101e-07
3.1939509e-07
1.8535924e-07
3.4458491e-07
2.1169424e-07
3.4876147e-07
2.0956863e-07
3.5143227e-07
2.0734313e-07
3.5218369e-07
2.0482578e-07
3.5513963e-07
2.0256241e-07
3.6461998e-07
2.0191722e-07
3.9299102e-07
2.43268e-07
3.9851901e-07
2.4181227e-07
4.0074961e-07
2.3921868e-07
4.0060127e-07
2.3576654e-07
4.0284199e-07
2.3269176e-07
4.1154165e-07
2.3122998e-07
4.4222396e-07
2.770862e-07
4.4914849e-07
2.7585826e-07
4.5091147e-07
2.7253558e-07
4.4976892e-07
2.6816777e-07
4.5103832e-07
2.6428825e-07
4.5877377e-07
2.6253272e-07
4.9027022e-07
3.1084429e-07
4.9741626e-07
3.0945557e-07
4.9807637e-07
3.0511099e-07
4.9560049e-07
2.995737e-07
4.9612679e-07
2.9471473e-07
5.0469071e-07
2.9205392e-07
5.3322605e-07
3.4231337e-07
5.4125495e-07
3.4145161e-07
5.4018686e-07
3.3577143e-07
5.3726382e-07
3.2919073e-07
5.4003235e-07
3.2368902e-07
5.5811399e-07
3.1985766e-07
5.7530102e-07
3.770359e-07
5.8569631e-07
3.7496334e-07
5.8588357e-07
3.6810797e-07
5.9103416e-07
3.5940609e-07
6.2105478e-07
3.5065527e-07
7.5121242e-07
3.3943223e-07
6.9604868e-07
4.0468929e-07
7.2565258e-07
4.0351384e-07
7.5962661e-07
3.9236681e-07
8.1040985e-07
3.7984547e-07
8.5487171e-07
3.6917416e-07
8.2564542e-07
3.6321546e-07
8.2407302e-07
4.3843325e-07
8.4012904e-07
4.3709773e-07
8.6580004e-07
4.2535706e-07
9.0626846e-07
4.1342829e-07
9.5076531e-07
4.037753e-07
9.1559281e-07
3.9895463e-07
8.103325e-07
4.6436373e-07
8.2538152e-07
4.6312743e-07
8.4470425e-07
4.5023867e-07
8.7907544e-07
4.4098669e-07
9.1621348e-07
4.3672184e-07
9.0286269e-07
4.3911898e-07
7.8199294e-07
5.0239527e-07
8.0549318e-07
5.01438e-07
8.4740174e-07
4.870297e-07
9.1474452e-07
4.7800228e-07
9.7275429e-07
4.7805166e-07
7.9956467e-07
4.9517099e-07
8.80698e-07
6.7617678e-07
8.9558588e-07
6.7700626e-07
9.0641281e-07
6.632045e-07
9.6194643e-07
6.5973041e-07
9.84428e-07
6.7182507e-07
9.1945361e-07
7.0734704e-07
1.3862217e-06
1.7346335e-06
1.4107394e-06
1.7426722e-06
1.4158987e-06
1.7192785e-06
1.4389013e-06
1.7298964e-06
1.4667626e-06
1.791342e-06
1.5104849e-06
1.9286531e-06
4.0459103e-06
7.2629124e-06
4.1343515e-06
7.2935026e-06
4.1778199e-06
7.2477741e-06
4.2871463e-06
7.3300649e-06
4.4219606e-06
7.647581e-06
4.6299296e-06
8.2857913e-06
1.7505826e-05
2.841455e-05
1.7583944e-05
2.8570168e-05
1.7659515e-05
2.8709906e-05
1.7747893e-05
2.886229e-05
1.7879054e-05
2.9072074e-05
1.8128576e-05
2.944999e-05
2.3556652e-05
3.8791948e-05
2.3685381e-05
3.90545e-05
2.3812366e-05
3.9309836e-05
2.3963299e-05
3.9595181e-05
2.4188894e-05
3.9998729e-05
2.4623538e-05
4.0720993e-05
3.6143424e-05
5.5465829e-05
3.6332277e-05
5.5780038e-05
3.6527612e-05
5.6071728e-05
3.6763844e-05
5.6404836e-05
3.7114696e-05
5.6884537e-05
3.7755928e-05
5.7779891e-05
5.2744974e-05
6.4398654e-05
5.2752287e-05
6.4564364e-05
5.2989849e-05
6.4650047e-05
5.314013e-05
6.4735503e-05
5.3361024e-05
6.4788114e-05
5.3828775e-05
6.4774976e-05
5.1372432e-05
5.5352397e-05
5.146705e-05
5.5480188e-05
5.1564238e-05
5.5546062e-05
5.1685109e-05
5.5604651e-05
5.1859296e-05
5.5632549e-05
5.2186949e-05
5.5616948e-05
3.4395958e-05
3.2988401e-05
3.445976e-05
3.3050182e-05
3.4526557e-05
3.3096987e-05
3.4602997e-05
3.3145067e-05
3.4698998e-05
3.3190704e-05
3.4842935e-05
3.3230299e-05
8.5589372e-06
7.0198347e-06
8.5525357e-06
6.9911575e-06
8.5596702e-06
6.9828902e-06
8.5697839e-06
6.9789957e-06
8.5754792e-06
6.9714873e-06
8.5511861e-06
6.9362644e-06
8.5122011e-07
9.9064494e-07
8.4380215e-07
9.7745187e-07
8.370117e-07
9.6539148e-07
8.2830246e-07
9.5034611e-07
8.1326185e-07
9.2484321e-07
7.838251e-07
8.724882e-07
2.681912e-06
2.4272428e-06
2.49388e-06
2.1203009e-06
2.4304725e-06
2.0660957e-06
2.4018912e-06
2.0478532e-06
2.3829035e-06
2.039855e-06
2.3663485e-06
2.0407593e-06
1.5994509e-05
1.6214881e-05
1.5859533e-05
1.6055453e-05
1.5822777e-05
1.6016745e-05
1.5810415e-05
1.6039663e-05
1.5802016e-05
1.6031135e-05
1.5800129e-05
1.6039648e-05
3.0510991e-05
2.8945376e-05
3.0387256e-05
2.8921367e-05
3.0262728e-05
2.8859065e-05
3.0236563e-05
2.8983144e-05
3.0249356e-05
2.9095811e-05
3.0267716e-05
2.9129885e-05
3.4917095e-05
3.4288571e-05
3.4893281e-05
3.4208305e-05
3.4773933e-05
3.4024455e-05
3.491835e-05
3.415317e-05
3.4882044e-05
3.5044907e-05
3.477116e-05
3.5077709e-05
2.7978102e-05
2.700418e-05
2.784839e-05
2.6947561e-05
2.7836442e-05
2.6920262e-05
2.783526e-05
2.6899801e-05
2.7840778e-05
2.6879302e-05
2.7856574e-05
2.6866097e-05
1.2566313e-05
5.8677616e-06
1.3919343e-05
6.1667621e-06
1.418225e-05
6.372085e-06
1.4008738e-05
6.4962147e-06
1.4387254e-05
6.4808357e-06
1.5792315e-05
6.6146357e-06
1.815274e-06
8.1467298e-07
1.9942641e-06
8.5080227e-07
2.0207795e-06
8.752774e-07
2.0385979e-06
8.9513423e-07
2.0474278e-06
9.0792351e-07
2.0707629e-06
9.1449191e-07
4.4184891e-07
2.1413247e-07
4.9250643e-07
2.2364903e-07
4.9940957e-07
2.2991147e-07
5.041855e-07
2.3467926e-07
5.0907959e-07
2.3727916e-07
5.1593287e-07
2.4000918e-07
2.7951129e-07
1.4616614e-07
3.1459955e-07
1.5161009e-07
3.2016584e-07
1.5551871e-07
3.2414968e-07
1.5870648e-07
3.2794434e-07
1.6076687e-07
3.3306683e-07
1.6339258e-07
2.595243e-07
1.3799811e-07
2.9188276e-07
1.4151272e-07
2.9661175e-07
1.4463294e-07
2.9997597e-07
1.4741418e-07
3.0316601e-07
1.4953664e-07
3.0766252e-07
1.5241635e-07
2.6148899e-07
1.4032582e-07
2.9350745e-07
1.4280618e-07
2.9716631e-07
1.4568986e-07
2.9977764e-07
1.4847059e-07
3.0257722e-07
1.5059769e-07
3.0757719e-07
1.5358564e-07
2.6816559e-07
1.4521693e-07
3.0100919e-07
1.4683204e-07
3.0376108e-07
1.4937724e-07
3.0583476e-07
1.5201828e-07
3.0861211e-07
1.5401225e-07
3.1468284e-07
1.5670728e-07
2.824302e-07
1.5364639e-07
3.1893283e-07
1.5480608e-07
3.2118739e-07
1.5695469e-07
3.2339344e-07
1.5930619e-07
3.2620785e-07
1.6105107e-07
3.2993283e-07
1.6323319e-07
3.0445621e-07
1.6555582e-07
3.4127275e-07
1.6687549e-07
3.4849975e-07
1.6889939e-07
3.5104432e-07
1.7087352e-07
3.5450074e-07
1.7224873e-07
3.5797277e-07
1.7480809e-07
3.4011084e-07
1.8373756e-07
3.5890073e-07
1.8518486e-07
3.6851718e-07
1.8820116e-07
3.7429452e-07
1.9071869e-07
3.8302758e-07
1.9351465e-07
3.9773234e-07
1.9732917e-07
3.8485176e-07
2.0400323e-07
4.0430291e-07
2.1192009e-07
4.1436421e-07
2.182476e-07
4.191677e-07
2.2188452e-07
4.2332417e-07
2.2408107e-07
4.3082805e-07
2.2756659e-07
4.3210389e-07
2.3498339e-07
4.5338787e-07
2.4498805e-07
4.6543708e-07
2.5228406e-07
4.7121456e-07
2.5569189e-07
4.8023429e-07
2.5669261e-07
5.026697e-07
2.5988441e-07
4.8059285e-07
2.6723303e-07
5.0564433e-07
2.781828e-07
5.3461042e-07
2.8517273e-07
5.5344033e-07
2.8710309e-07
5.6519453e-07
2.8632157e-07
5.7197642e-07
2.8987657e-07
5.4236038e-07
2.9692723e-07
6.0389515e-07
3.0596975e-07
6.1044101e-07
3.1238482e-07
6.1136491e-07
3.1548215e-07
6.1046494e-07
3.1447576e-07
6.1244294e-07
3.1670318e-07
6.5850023e-07
3.2036479e-07
6.4409154e-07
3.2929275e-07
6.5012479e-07
3.3902329e-07
6.4863465e-07
3.4034267e-07
6.4469908e-07
3.3777805e-07
6.5027557e-07
3.4077449e-07
7.0487056e-07
3.4165778e-07
6.8914781e-07
3.54216e-07
6.9448631e-07
3.6321209e-07
6.9007456e-07
3.6331692e-07
6.8489317e-07
3.594788e-07
6.9416525e-07
3.6361217e-07
7.729684e-07
3.7016806e-07
7.4827656e-07
3.8194524e-07
7.4994764e-07
3.9004825e-07
7.4257589e-07
3.8702616e-07
7.3613345e-07
3.8163026e-07
7.519535e-07
3.8910853e-07
8.5223913e-07
4.0887225e-07
8.3782701e-07
4.2169954e-07
8.3755115e-07
4.2724019e-07
8.2482363e-07
4.2131007e-07
8.2168438e-07
4.154643e-07
8.3842737e-07
4.2595723e-07
8.4686052e-07
4.5504999e-07
9.236041e-07
4.6707955e-07
9.2904803e-07
4.6837654e-07
9.1557256e-07
4.6090353e-07
9.1270991e-07
4.5494317e-07
9.2958942e-07
4.7063919e-07
8.5599617e-07
5.2221359e-07
1.0442281e-06
5.2895974e-07
1.0392493e-06
5.2516523e-07
1.017085e-06
5.1728149e-07
1.0122429e-06
5.1218393e-07
1.0260932e-06
5.3413979e-07
9.7289696e-07
7.598441e-07
1.1803736e-06
7.8433585e-07
1.2504781e-06
7.758221e-07
1.236052e-06
7.6177621e-07
1.2253458e-06
7.5954107e-07
1.233002e-06
7.9770948e-07
1.6091973e-06
2.1292318e-06
1.9131164e-06
2.2730634e-06
2.2005031e-06
2.2617853e-06
2.1889486e-06
2.229296e-06
2.1895112e-06
2.2450749e-06
2.2181576e-06
2.3634571e-06
5.0322911e-06
9.2223987e-06
5.7742592e-06
1.0030138e-05
7.1641953e-06
9.9638075e-06
7.1062291e-06
9.7510556e-06
7.1007651e-06
9.8315506e-06
7.2116369e-06
1.0330212e-05
1.8530647e-05
3.001825e-05
1.9011098e-05
3.0660777e-05
1.9220524e-05
3.0871485e-05
1.9338652e-05
3.0975826e-05
1.942068e-05
3.1045608e-05
1.9492932e-05
3.1101557e-05
2.5301645e-05
4.1677439e-05
2.6048264e-05
4.2790508e-05
2.6423426e-05
4.3170379e-05
2.6626657e-05
4.3362631e-05
2.6768239e-05
4.3495321e-05
2.6891753e-05
4.3607087e-05
3.8696224e-05
5.9190865e-05
3.9936934e-05
6.0944367e-05
4.0528984e-05
6.1581033e-05
4.0857355e-05
6.1915957e-05
4.1087565e-05
6.2152213e-05
4.1285624e-05
6.2363788e-05
5.4631103e-05
6.5328021e-05
5.58787e-05
6.6619513e-05
5.6524849e-05
6.7044514e-05
5.6841007e-05
6.7166677e-05
5.6895251e-05
6.7180258e-05
5.7131535e-05
6.7197774e-05
5.2722099e-05
5.6158118e-05
5.3551167e-05
5.7277895e-05
5.3964068e-05
5.7702233e-05
5.4174596e-05
5.7883546e-05
5.4308099e-05
5.7967985e-05
5.441765e-05
5.8062827e-05
3.5063707e-05
3.3501311e-05
3.5421205e-05
3.4042943e-05
3.5570928e-05
3.4259747e-05
3.5647714e-05
3.4374154e-05
3.5701695e-05
3.4449091e-05
3.5753977e-05
3.4537439e-05
8.4750158e-06
6.8586689e-06
8.4130132e-06
6.7988366e-06
8.3772005e-06
6.7878999e-06
8.3514044e-06
6.7931155e-06
8.3273495e-06
6.8006284e-06
8.3011831e-06
6.8115693e-06
7.3877928e-07
7.8330651e-07
7.0577191e-07
7.1499581e-07
6.9190261e-07
6.9216103e-07
6.8249746e-07
6.7854197e-07
6.7444841e-07
6.6744232e-07
6.6632314e-07
6.5615593e-07
2.3467251e-06
2.0531037e-06
2.3346738e-06
2.0843795e-06
2.3245363e-06
2.1369102e-06
2.3199804e-06
2.2307715e-06
2.3240167e-06
2.4042266e-06
2.3578385e-06
2.7473484e-06
2.5414102e-06
3.5792561e-06
1.5779135e-05
1.6026998e-05
1.577666e-05
1.603277e-05
1.5767662e-05
1.6046487e-05
1.5749066e-05
1.6106246e-05
1.5744868e-05
1.6209145e-05
1.5727638e-05
1.6353176e-05
1.572921e-05
1.6682281e-05
3.0253315e-05
2.9117619e-05
3.0300234e-05
2.919095e-05
3.0362018e-05
2.9286903e-05
3.0507723e-05
2.9493117e-05
3.0596327e-05
2.9777541e-05
3.0697315e-05
3.0130837e-05
3.0890735e-05
3.0709863e-05
3.4765929e-05
3.5024627e-05
3.4829996e-05
3.4921614e-05
3.4906587e-05
3.4808952e-05
3.501167e-05
3.4627081e-05
3.5339635e-05
3.4846094e-05
3.5565821e-05
3.519288e-05
3.581381e-05
3.6016569e-05
2.7874937e-05
2.6889962e-05
2.7890034e-05
2.6924235e-05
2.7905704e-05
2.6990174e-05
2.7924793e-05
2.706806e-05
2.7953984e-05
2.7181289e-05
2.8012957e-05
2.726806e-05
2.8146489e-05
2.7270049e-05
1.5798053e-05
8.1791673e-06
1.4537515e-05
9.150221e-06
1.4761554e-05
1.0056798e-05
1.4781544e-05
9.2691802e-06
1.5292843e-05
8.3391074e-06
1.5794322e-05
9.6410322e-06
1.5849931e-05
1.1153363e-05
2.2198595e-06
9.299725e-07
2.3420936e-06
1.0501006e-06
2.1881657e-06
1.1733214e-06
2.2535126e-06
1.1600039e-06
2.3136335e-06
1.1227119e-06
2.5287712e-06
1.2833091e-06
2.7502147e-06
1.4534561e-06
5.2428384e-07
2.452895e-07
5.3467073e-07
2.5308526e-07
5.4693861e-07
2.6184101e-07
5.5833633e-07
2.7303827e-07
5.7902806e-07
2.9462862e-07
6.3231967e-07
3.4536553e-07
6.9366297e-07
4.0179408e-07
3.3936794e-07
1.6809146e-07
3.4624782e-07
1.7440353e-07
3.5369393e-07
1.8099069e-07
3.6114106e-07
1.8926824e-07
3.7548815e-07
2.075185e-07
4.1420929e-07
2.456495e-07
4.6512724e-07
2.9371877e-07
3.1306746e-07
1.5713584e-07
3.1922359e-07
1.6324822e-07
3.2736747e-07
1.6980566e-07
3.3567709e-07
1.8090238e-07
3.5092895e-07
2.0090852e-07
3.9328296e-07
2.4188751e-07
4.5331593e-07
2.9615021e-07
3.1615769e-07
1.5818737e-07
3.2470901e-07
1.6401494e-07
3.3383847e-07
1.7031014e-07
3.4349216e-07
1.8364403e-07
3.6077079e-07
2.0599526e-07
4.0735133e-07
2.5090759e-07
4.7691227e-07
3.1540443e-07
3.2323021e-07
1.6084481e-07
3.3215426e-07
1.6610941e-07
3.4234128e-07
1.7482431e-07
3.5423103e-07
1.8877305e-07
3.7462411e-07
2.1275602e-07
4.2622906e-07
2.6172628e-07
5.1036059e-07
3.3962262e-07
3.3614582e-07
1.6699393e-07
3.454944e-07
1.746162e-07
3.5705206e-07
1.850811e-07
3.7158709e-07
1.9962257e-07
3.9632385e-07
2.2510837e-07
4.5514486e-07
2.7885662e-07
5.5604246e-07
3.7056561e-07
3.606781e-07
1.817952e-07
3.6577297e-07
1.9110876e-07
3.7802343e-07
2.0193671e-07
3.9550928e-07
2.1736726e-07
4.2624079e-07
2.4548492e-07
4.9533694e-07
3.0572618e-07
6.2081158e-07
4.1328102e-07
4.0040283e-07
2.0425185e-07
4.0359822e-07
2.1346048e-07
4.1579834e-07
2.2490342e-07
4.3716366e-07
2.4273358e-07
4.7585006e-07
2.7618042e-07
5.5987133e-07
3.4656311e-07
7.1569312e-07
4.7388218e-07
4.4355741e-07
2.3506303e-07
4.5711154e-07
2.4321127e-07
4.6245882e-07
2.5510967e-07
4.8858657e-07
2.7472548e-07
5.3748279e-07
3.1272635e-07
6.3929749e-07
3.9447212e-07
8.2681967e-07
5.4272146e-07
5.1875773e-07
2.6668892e-07
5.1764099e-07
2.7496138e-07
5.1981392e-07
2.8781835e-07
5.4364994e-07
3.0961093e-07
6.0209302e-07
3.5301185e-07
7.2278244e-07
4.4379571e-07
9.4419057e-07
6.1033731e-07
5.7615637e-07
2.9849079e-07
5.7379252e-07
3.0673738e-07
5.7418692e-07
3.1918685e-07
5.9507066e-07
3.4271198e-07
6.6034616e-07
3.8910194e-07
7.9605341e-07
4.8623788e-07
1.0419341e-06
6.6453406e-07
6.1797234e-07
3.258765e-07
6.2113255e-07
3.360029e-07
6.1919651e-07
3.481174e-07
6.3920429e-07
3.7097835e-07
7.0580592e-07
4.1693727e-07
8.4627345e-07
5.1454363e-07
1.1094398e-06
6.9967997e-07
6.5741982e-07
3.5091137e-07
6.5809839e-07
3.6058961e-07
6.5536117e-07
3.7240104e-07
6.75451e-07
3.9393328e-07
7.3951788e-07
4.3659228e-07
8.7653893e-07
5.289962e-07
1.1411949e-06
7.1053064e-07
7.022571e-07
3.7438906e-07
7.026631e-07
3.8382272e-07
6.9878168e-07
3.953189e-07
7.1090395e-07
4.1561183e-07
7.7031983e-07
4.5469188e-07
9.0038987e-07
5.4066931e-07
1.1627441e-06
7.1726465e-07
7.6442055e-07
4.025915e-07
7.6569351e-07
4.1167328e-07
7.6210473e-07
4.2268658e-07
7.6691898e-07
4.4319722e-07
8.1671728e-07
4.8248684e-07
9.4372604e-07
5.6693644e-07
1.2051305e-06
7.4231261e-07
8.5260198e-07
4.4196328e-07
8.6324269e-07
4.5138196e-07
8.6459239e-07
4.618919e-07
8.7147507e-07
4.8270554e-07
8.9345936e-07
5.259985e-07
1.0186429e-06
6.1816795e-07
1.2989712e-06
8.0789198e-07
9.4122576e-07
4.9022872e-07
9.5473738e-07
4.998901e-07
9.5954451e-07
5.1277518e-07
9.7216201e-07
5.3749739e-07
1.0006206e-06
5.8766205e-07
1.0942601e-06
6.9522433e-07
1.3852035e-06
9.1180872e-07
1.0349983e-06
5.5845608e-07
1.0525357e-06
5.7036596e-07
1.0646268e-06
5.894657e-07
1.0867721e-06
6.2545474e-07
1.1248611e-06
6.9782049e-07
1.209544e-06
8.5056599e-07
1.5110588e-06
1.1311037e-06
1.238375e-06
8.3775762e-07
1.2596518e-06
8.5906603e-07
1.2712377e-06
8.9375823e-07
1.2977145e-06
9.5773086e-07
1.3507405e-06
1.0859882e-06
1.473527e-06
1.3521588e-06
1.7287464e-06
1.827296e-06
2.2291804e-06
2.4857582e-06
2.2607679e-06
2.5510962e-06
2.2800068e-06
2.6621722e-06
2.3389998e-06
2.8691643e-06
2.4587209e-06
3.2807757e-06
2.7097499e-06
4.1256384e-06
3.0910479e-06
7.0236047e-06
7.3022456e-06
1.0818906e-05
7.4682686e-06
1.1112444e-05
7.5285309e-06
1.1618555e-05
7.7559832e-06
1.2552649e-05
8.2865771e-06
1.4434054e-05
9.2825965e-06
1.8885939e-05
1.0677674e-05
2.4753263e-05
1.9568725e-05
3.1143702e-05
1.9640697e-05
3.1193545e-05
1.9756542e-05
3.1265898e-05
1.9945371e-05
3.1359712e-05
2.0242521e-05
3.1450637e-05
2.0640215e-05
3.1421748e-05
2.089367e-05
3.0957493e-05
2.7016945e-05
4.3706447e-05
2.7144874e-05
4.3816333e-05
2.7356922e-05
4.3989727e-05
2.7712071e-05
4.4250847e-05
2.8288499e-05
4.4599313e-05
2.9106115e-05
4.4910663e-05
2.9762311e-05
4.4627529e-05
4.1473389e-05
6.2582117e-05
4.1677483e-05
6.2802304e-05
4.2024277e-05
6.3166985e-05
4.2621464e-05
6.377488e-05
4.3638173e-05
6.4756057e-05
4.5229355e-05
6.6157437e-05
4.6783507e-05
6.7397238e-05
5.7152353e-05
6.7227985e-05
5.7196431e-05
6.7233423e-05
5.7345331e-05
6.7316049e-05
5.7721966e-05
6.7564085e-05
5.868529e-05
6.8210431e-05
6.1301522e-05
7.0092605e-05
6.7250579e-05
7.487919e-05
5.446244e-05
5.8251558e-05
5.4529565e-05
5.8449295e-05
5.4695583e-05
5.880118e-05
5.5065739e-05
5.9451116e-05
5.5911946e-05
6.0718796e-05
5.7943217e-05
6.3198554e-05
6.2725373e-05
6.7299125e-05
3.5765808e-05
3.4671476e-05
3.5799436e-05
3.4829206e-05
3.5887659e-05
3.5112751e-05
3.6087492e-05
3.5634011e-05
3.6580253e-05
3.6648407e-05
3.7892077e-05
3.8653579e-05
4.1176058e-05
4.2001116e-05
8.2717492e-06
6.8358537e-06
8.2496011e-06
6.8649591e-06
8.2150115e-06
6.9161938e-06
8.1579978e-06
6.9947138e-06
8.0909197e-06
7.1428579e-06
8.1053178e-06
7.4428008e-06
8.5091453e-06
7.8683652e-06
6.5500213e-07
6.4001905e-07
6.4348173e-07
6.2194232e-07
6.2483198e-07
5.9049958e-07
5.9417515e-07
5.3623546e-07
5.469393e-07
4.5119839e-07
4.87132e-07
3.3932548e-07
4.4820726e-07
2.5160471e-07
2.7326561e-06
4.0987153e-06
2.7964269e-06
4.3011421e-06
2.6687797e-06
4.002396e-06
2.6522142e-06
3.8218864e-06
1.5618604e-05
1.6790115e-05
1.5491353e-05
1.6847705e-05
1.5345675e-05
1.6893607e-05
1.6450879e-05
1.9206787e-05
3.1041039e-05
3.1036842e-05
3.1400288e-05
3.1371731e-05
3.237647e-05
3.2283589e-05
3.6065151e-05
3.6426872e-05
3.6235443e-05
3.6534572e-05
3.6892822e-05
3.6721393e-05
3.8555808e-05
3.7676786e-05
4.3509515e-05
4.2604329e-05
2.8084035e-05
2.7263097e-05
2.8267913e-05
2.7594434e-05
2.857952e-05
2.8446962e-05
2.9506869e-05
3.0301355e-05
1.5661345e-05
1.2335576e-05
1.5637712e-05
1.3753008e-05
1.5584385e-05
1.6135009e-05
1.5839949e-05
1.6847237e-05
2.9800336e-06
1.5956105e-06
3.4221745e-06
1.8284832e-06
4.1610456e-06
2.3664988e-06
4.7992225e-06
3.0210991e-06
7.463555e-07
4.4241003e-07
8.3285773e-07
4.8861675e-07
9.6320565e-07
5.8026623e-07
1.0524895e-06
6.6478613e-07
5.0509793e-07
3.2774546e-07
5.5702401e-07
3.5885353e-07
6.3143389e-07
4.1213579e-07
7.0194281e-07
4.6730249e-07
5.0050092e-07
3.367573e-07
5.5179479e-07
3.6992695e-07
6.1793257e-07