/*--------------------------------*- C++ -*----------------------------------*\
| =========                 |                                                 |
| \\      /  F ield         | OpenFOAM: The Open Source CFD Toolbox           |
|  \\    /   O peration     | Version:  2206                                  |
|   \\  /    A nd           | Website:  www.openfoam.com                      |
|    \\/     M anipulation  |                                                 |
\*---------------------------------------------------------------------------*/
FoamFile
{
    version     2.0;
    format      ascii;
    arch        "LSB;label=32;scalar=64";
    class       volScalarField;
    location    "300";
    object      k;
}
// * * * * * * * * * * * * * * * * * * * * * * * * * * * * * * * * * * * * * //

dimensions      [0 2 -2 0 0 0 0];

internalField   nonuniform List<scalar> 
50904
(
23.28088
38.423998
24.598439
42.425213
21.645301
25.331418
20.503444
23.089478
16.792147
15.750506
15.523037
14.272072
9.7932886
8.4184729
8.8800704
7.5303204
3.5902461
3.0536467
3.1423591
2.6409835
0.74302471
0.65271175
0.63679255
0.54187862
0.1127476
0.09814283
0.094991927
0.080833694
0.024129834
0.021560488
0.02125798
0.018935845
0.011897691
0.011473527
0.011447768
0.011086176
0.010176369
0.010105568
0.010115846
0.010052596
0.0099780708
0.0099513602
0.0099702242
0.0099427002
0.0099642628
0.0099439114
0.0099617822
0.0099395549
0.0099676192
0.0099504072
0.0099655415
0.0099462672
0.009972792
0.0099585385
0.0099708073
0.0099543714
0.0099787358
0.0099673688
0.0099769604
0.0099632784
0.0099846103
0.0099758249
0.0099831477
0.0099720232
0.0099895259
0.0099828129
0.0099883916
0.0099793784
0.0099936611
0.009988601
0.0099927887
0.0099855037
0.0099969078
0.0099932096
0.0099963008
0.0099903957
0.0099994362
0.009996815
0.0099991217
0.0099943215
0.010001313
0.0099995438
0.010001189
0.0099973419
0.01000255
0.010001462
0.010002615
0.0099997283
0.010003193
0.010002767
0.010003633
0.010002465
0.010004321
0.010005727
0.010007369
0.010013866
0.01001398
0.010025859
0.010037669
0.01008973
0.010101906
0.010180286
0.010276453
0.010600376
0.010841454
0.011321665
0.011977319
0.013816567
0.0164065
0.019321362
0.022773812
0.032447445
0.05242568
0.070019525
0.083652323
0.13171195
0.26590131
0.37106705
0.38980706
0.59392632
1.3456818
1.8957663
1.7365792
2.5102393
5.2304369
6.7082072
6.0927915
7.6314433
12.243178
13.477976
12.675415
13.531049
16.642994
17.205031
16.063744
16.120046
11.304548
11.870419
9.9089354
10.437659
5.4691033
5.6895345
4.97939
5.656886
23.401364
41.315221
19.591603
33.282218
17.362626
26.515519
16.03005
22.775556
15.186748
20.41672
14.609501
18.824826
14.171157
17.634045
19.095635
21.333603
18.010742
19.95597
17.729504
19.432277
17.58947
19.188462
17.513093
19.06473
17.466213
18.989587
17.433189
18.937769
14.946509
13.836114
14.753649
13.954382
14.827445
14.046257
14.861755
14.058496
14.882247
14.081736
14.894692
14.101378
14.907312
14.119625
8.4950795
7.2820172
8.2509453
7.1386509
8.2486138
7.0774151
8.2368028
7.0221283
8.2269317
6.9971694
8.2211284
6.9853015
8.2167316
6.9789137
2.9786279
2.5125035
2.8436967
2.3953155
2.819643
2.3461884
2.7964148
2.3084503
2.7816041
2.285695
2.7717496
2.2706399
2.7641204
2.2598613
0.59213584
0.50183286
0.54676042
0.46241892
0.53454476
0.44794519
0.52535208
0.43849925
0.51948606
0.43328094
0.51563176
0.43010315
0.51321447
0.4279953
0.087558705
0.074194387
0.078981338
0.066797448
0.076425389
0.064234494
0.074988774
0.062884997
0.074203168
0.062257715
0.073726308
0.061924995
0.073372192
0.061715423
0.020001028
0.017840764
0.018558921
0.0165689
0.018124577
0.016214699
0.017910604
0.016062357
0.01780126
0.015998132
0.017737877
0.015965956
0.017695876
0.015945957
0.011263911
0.010932872
0.011072334
0.010774751
0.011018541
0.010744591
0.010994672
0.010734396
0.010983346
0.010731551
0.010977108
0.010730727
0.010973086
0.01073041
0.01009376
0.010035105
0.010080854
0.010032548
0.01008036
0.010044028
0.010081512
0.010050679
0.010082659
0.010054684
0.010083568
0.010057316
0.010084265
0.010059204
0.0099700079
0.0099429238
0.0099796397
0.009958985
0.009985813
0.009975093
0.0099899578
0.0099833917
0.0099925746
0.0099879676
0.009994317
0.009990891
0.009995558
0.0099929816
0.009963271
0.0099408319
0.0099740376
0.0099569446
0.0099805428
0.0099727575
0.0099848439
0.009980772
0.0099875271
0.0099851794
0.0099893009
0.0099880199
0.0099905506
0.0099900364
0.0099668928
0.0099471128
0.0099768286
0.0099616534
0.0099829602
0.0099763835
0.0099870723
0.0099838328
0.0099896261
0.0099880319
0.0099912916
0.0099907405
0.0099924539
0.0099926095
0.0099719427
0.0099547921
0.0099808495
0.0099677789
0.0099866217
0.0099812289
0.0099905068
0.0099881395
0.0099928879
0.0099921207
0.0099944246
0.0099946503
0.0099954865
0.0099963677
0.009977932
0.0099633324
0.009985698
0.0099748506
0.0099910828
0.0099869706
0.0099946927
0.0099933457
0.0099968758
0.0099970412
0.0099982695
0.0099993594
0.0099992138
0.01000091
0.0099841323
0.0099720079
0.0099908942
0.0099824324
0.0099958241
0.0099932353
0.0099990934
0.0099989895
0.010001056
0.010002321
0.010002291
0.010004386
0.010003108
0.01000574
0.009989474
0.0099794843
0.0099954588
0.0099891866
0.0099999587
0.0099987912
0.010002904
0.010003933
0.010004659
0.010006909
0.01000575
0.010008733
0.010006456
0.010009904
0.0099939707
0.0099858353
0.0099993382
0.0099949731
0.010003438
0.010003497
0.010006087
0.010008069
0.010007655
0.010010719
0.010008618
0.010012327
0.010009232
0.010013342
0.0099976515
0.0099911081
0.010002581
0.0099998372
0.010006286
0.010007401
0.010008647
0.010011432
0.010010034
0.010013773
0.010010878
0.010015186
0.010011419
0.01001608
0.01000058
0.0099954054
0.010005147
0.010003703
0.010008474
0.010010428
0.010010568
0.010013994
0.010011798
0.010016078
0.010012548
0.010017342
0.010013031
0.010018147
0.010002719
0.0099987142
0.010006953
0.010006532
0.010009966
0.010012594
0.010011843
0.010015822
0.010012943
0.010017728
0.010013614
0.010018896
0.010014047
0.010019638
0.010004178
0.010001369
0.01000812
0.010008942
0.010010884
0.010014608
0.010012584
0.010017653
0.010013576
0.010019461
0.010014184
0.010020568
0.010014575
0.010021272
0.010005542
0.0100055
0.010009587
0.010014755
0.010012349
0.010021314
0.010014042
0.01002485
0.01001502
0.010026943
0.01001562
0.010028219
0.010016006
0.010029021
0.010012556
0.01002789
0.01001986
0.010052759
0.010024368
0.010069484
0.010027185
0.010078863
0.010028834
0.010084316
0.010029832
0.010087582
0.010030467
0.010089629
0.010069245
0.010182696
0.010103286
0.010324752
0.010122181
0.010421511
0.010134226
0.010477409
0.010141239
0.010509298
0.010145382
0.010527886
0.010147924
0.010539239
0.010498387
0.011222117
0.010727185
0.012200332
0.010853052
0.012900211
0.010936991
0.013322473
0.010987312
0.013570118
0.011017241
0.013715333
0.011035417
0.013803336
0.013395973
0.01760909
0.014821877
0.02371315
0.015593956
0.028165383
0.016117845
0.030895836
0.016443335
0.03251763
0.016642115
0.033470391
0.016764458
0.03404633
0.030649053
0.052305303
0.038223071
0.084131964
0.042120198
0.10638846
0.044602933
0.11958636
0.046106269
0.12726027
0.047002369
0.13165452
0.047537872
0.13418745
0.12190015
0.21947206
0.15745606
0.35866151
0.17593074
0.45373259
0.18714049
0.50879443
0.19387615
0.54061657
0.19794456
0.55823706
0.20035368
0.56811039
0.53831065
0.88603732
0.66516773
1.3470913
0.73808421
1.6731904
0.78152024
1.853017
0.80513139
1.9550814
0.82107763
2.0124544
0.83090077
2.0450119
2.2262885
3.2175288
2.5642273
4.2822898
2.7977511
5.0789888
2.9558919
5.546962
3.0490877
5.8189498
3.099816
5.9741524
3.1310546
6.0637598
7.0110228
8.475458
7.902142
9.9010309
8.3602686
10.960842
8.6479172
11.605763
8.823992
11.981098
8.9290208
12.19472
8.9913566
12.317176
13.147047
13.623192
13.791359
14.408072
14.274135
15.22844
14.584678
15.813415
14.771731
16.158092
14.882976
16.355347
14.949942
16.470261
15.644204
15.250851
15.675332
14.910168
15.938119
15.017433
16.131631
15.210507
16.243912
15.327876
16.309636
15.395378
16.353753
15.441042
9.0302331
9.5176809
8.4696591
8.2948132
8.3188373
7.4964759
8.2494397
7.0470692
8.1693329
6.7548152
8.0984477
6.5812439
8.0591559
6.4941045
4.6576788
6.2490788
4.240265
5.7216133
3.9229034
5.0755896
3.726694
4.5981426
3.5929491
4.271867
3.5055214
4.079395
3.4558093
3.9791145
13.799449
16.648796
13.425448
15.671785
13.128031
14.939158
12.815182
14.200154
12.37816
13.196668
11.613909
11.461393
17.406047
18.897023
17.377755
18.85379
17.359994
18.82503
17.343807
18.797666
17.32045
18.757425
17.267188
18.6643
14.918898
14.135317
14.931623
14.151782
14.941098
14.163602
14.949438
14.173771
14.95729
14.182565
14.956717
14.179962
8.2131082
6.9739672
8.2112753
6.9721656
8.2086508
6.971188
8.2049058
6.970513
8.1987506
6.9700092
8.1864812
6.9688654
2.7578309
2.2495814
2.7522224
2.2400008
2.7474201
2.2341757
2.7416557
2.2284352
2.7323832
2.2206791
2.7121225
2.2087083
0.51143339
0.42696308
0.50998076
0.42660226
0.50894993
0.42617379
0.50796578
0.42561544
0.50644194
0.42467534
0.50285954
0.42281356
0.073084444
0.061549363
0.072810648
0.061406109
0.072596483
0.061300906
0.072360737
0.061197434
0.072035683
0.061056318
0.071500784
0.060791307
0.017663987
0.015930058
0.017634611
0.015915857
0.017611847
0.015905293
0.017587849
0.015894418
0.017553539
0.015879092
0.01748744
0.015849686
0.010970042
0.010730087
0.010967164
0.010729832
0.010964826
0.010729553
0.0109623
0.010729227
0.010958645
0.010728767
0.010951593
0.010727909
0.010084816
0.010060656
0.010085366
0.010062103
0.010085753
0.010063143
0.010086132
0.010064188
0.01008662
0.010065655
0.010087471
0.010068465
0.009996518
0.0099945741
0.0099974546
0.0099961487
0.0099981501
0.0099973021
0.0099988536
0.0099984673
0.009999802
0.010000094
0.010001523
0.010003213
0.0099915017
0.0099915463
0.0099924299
0.0099930403
0.0099931201
0.0099941383
0.0099938234
0.0099952512
0.0099947737
0.0099968028
0.0099964959
0.0099997797
0.0099933222
0.0099939933
0.009994177
0.0099953732
0.0099948172
0.0099963857
0.0099954688
0.009997406
0.0099963481
0.009998819
0.0099979403
0.010001532
0.0099962605
0.009997615
0.0099970191
0.0099988548
0.0099975905
0.0099997681
0.0099981747
0.010000685
0.0099989655
0.01000194
0.010000395
0.010004341
0.009999884
0.010002007
0.01000053
0.010003083
0.010001023
0.010003885
0.010001531
0.010004689
0.01000222
0.010005777
0.010003466
0.01000783
0.010003673
0.010006675
0.010004215
0.010007584
0.010004634
0.010008268
0.010005069
0.010008961
0.01000566
0.010009895
0.010006728
0.010011628
0.010006933
0.010010689
0.010007394
0.010011457
0.010007754
0.010012041
0.010008132
0.010012637
0.010008646
0.010013442
0.010009574
0.010014936
0.010009637
0.010014008
0.010010035
0.010014665
0.01001035
0.010015171
0.010010683
0.010015692
0.010011138
0.010016398
0.010011954
0.010017706
0.010011775
0.010016663
0.010012124
0.01001724
0.010012404
0.010017688
0.010012702
0.010018152
0.01001311
0.010018783
0.010013841
0.010019951
0.01001335
0.010018677
0.010013662
0.010019198
0.010013914
0.010019605
0.010014185
0.010020032
0.010014559
0.010020615
0.010015237
0.010021697
0.010014334
0.010020129
0.010014614
0.010020616
0.010014843
0.010021001
0.010015091
0.010021407
0.010015442
0.010021965
0.010016102
0.010022996
0.010014835
0.010021736
0.010015094
0.010022196
0.010015311
0.010022565
0.010015555
0.010022959
0.010015906
0.010023503
0.010016553
0.01002451
0.010016259
0.010029544
0.010016518
0.010030074
0.01001674
0.010030515
0.010016994
0.010030996
0.010017364
0.010031665
0.010018051
0.010032902
0.010030884
0.010090974
0.010031326
0.010092375
0.010031721
0.010093594
0.010032175
0.010094938
0.010032838
0.010096822
0.010034085
0.010100319
0.010149568
0.010546624
0.010151474
0.010554707
0.010153254
0.010561887
0.010155323
0.010569796
0.010158362
0.010580828
0.010164109
0.010601084
0.011047012
0.013859845
0.011060181
0.013919709
0.011072664
0.01397282
0.011087292
0.014031303
0.011108904
0.014112958
0.011149899
0.014262684
0.016842629
0.034412946
0.016931278
0.0348079
0.017016003
0.035158795
0.017116034
0.035547413
0.017265253
0.036095271
0.01755226
0.037111383
0.047869947
0.13575098
0.048307691
0.13755419
0.048735189
0.13918466
0.049243709
0.14099668
0.050006745
0.14354834
0.051479824
0.14827086
0.20182044
0.57425419
0.20385796
0.58143644
0.20589202
0.58805765
0.20832668
0.59545722
0.21198697
0.60585638
0.21903036
0.62498162
0.83704263
2.0645751
0.84556269
2.0903795
0.85413126
2.1158602
0.86448379
2.1447511
0.8801624
2.1861495
0.91083084
2.26154
3.1512743
6.1181797
3.177465
6.1744183
3.204833
6.2266541
3.2382046
6.286176
3.288127
6.3713937
3.379751
6.5293282
9.0300792
12.39122
9.0729909
12.463051
9.118141
12.529563
9.1729446
12.605257
9.2556078
12.714372
9.4127712
12.919237
14.992068
16.540298
15.034359
16.605149
15.07545
16.663941
15.124853
16.7299
15.199292
16.825101
15.342216
17.005517
16.385978
15.474425
16.417267
15.508373
16.446312
15.54019
16.479592
15.576067
16.527575
15.628231
16.614671
15.726764
8.044449
6.4539336
8.0382436
6.4256076
8.0355807
6.4042453
8.0310212
6.3799941
8.0190075
6.3432143
7.982616
6.271988
3.4273407
3.9254539
3.4010725
3.8756909
3.376796
3.8298189
3.344963
3.7718331
3.2891204
3.6726444
3.1768885
3.4663329
10.433464
9.0981345
9.6715268
7.918876
9.4153858
7.7074122
9.2996919
7.6353018
9.2225202
7.6026388
9.1544746
7.6031399
17.105083
18.355283
16.966769
18.087865
16.916066
17.998778
16.890603
17.951308
16.874444
17.926402
16.858409
17.901573
14.912538
14.118508
14.869732
14.060253
14.848728
14.022767
14.837886
13.99809
14.830599
13.984945
14.822556
13.976878
8.1465074
6.9533569
8.1131675
6.9448432
8.0995111
6.9386192
8.0956649
6.9349818
8.0944633
6.9334028
8.094289
6.938405
2.6712488
2.196228
2.641784
2.1847329
2.636111
2.1796645
2.6343141
2.1762708
2.6342516
2.1731747
2.6363552
2.1713926
0.49520412
0.41845862
0.48629138
0.41397343
0.48446778
0.41304632
0.4837448
0.41265973
0.48332502
0.41244042
0.48309403
0.41223013
0.070269252
0.060129262
0.069125266
0.059511323
0.068782755
0.059350857
0.068625093
0.059278665
0.068527054
0.059232538
0.06843531
0.059190338
0.017334349
0.015778406
0.017193985
0.01571151
0.017148422
0.01569356
0.017127137
0.015685907
0.017113183
0.015681326
0.017100723
0.015677577
0.0109353
0.010724951
0.010919786
0.010720082
0.010914433
0.010718422
0.010911837
0.010717592
0.010910086
0.010717024
0.010908499
0.010716503
0.010088968
0.010074289
0.010089779
0.010078027
0.010090031
0.010079101
0.010090155
0.010079575
0.010090243
0.010079878
0.010090324
0.010080146
0.010005004
0.010009939
0.010007699
0.010014837
0.010008627
0.010016351
0.010009091
0.010017055
0.010009415
0.010017526
0.010009719
0.010017959
0.010000036
0.010006297
0.010002876
0.010011272
0.010003882
0.010012872
0.010004391
0.01001363
0.010004751
0.010014147
0.01000509
0.010014626
0.010001221
0.010007535
0.010003907
0.01001225
0.010004887
0.010013813
0.01000539
0.010014564
0.010005752
0.010015083
0.010006093
0.010015566
0.01000332
0.010009627
0.010005747
0.010013873
0.010006663
0.010015324
0.01000714
0.01001603
0.010007488
0.01001652
0.010007818
0.01001698
0.01000597
0.010012274
0.010008069
0.010015892
0.010008891
0.010017173
0.010009324
0.010017809
0.010009641
0.010018256
0.010009941
0.010018682
0.010008822
0.010015286
0.010010593
0.010018293
0.010011314
0.010019397
0.010011697
0.010019956
0.01001198
0.010020354
0.010012249
0.010020732
0.01001134
0.010018009
0.01001284
0.010020551
0.01001347
0.010021515
0.010013808
0.010022009
0.010014057
0.010022363
0.010014298
0.010022703
0.010013472
0.010020336
0.010014778
0.010022553
0.010015339
0.010023411
0.010015642
0.010023852
0.010015868
0.010024168
0.010016088
0.010024472
0.010015193
0.010022268
0.010016411
0.010024334
0.010016915
0.010025083
0.010017189
0.010025471
0.010017391
0.010025749
0.010017584
0.010026015
0.010016488
0.010023797
0.010017698
0.010025817
0.010018153
0.010026479
0.0100184
0.010026825
0.010018583
0.010027077
0.010018761
0.010027322
0.010017303
0.010024923
0.010018507
0.01002693
0.010018925
0.010027535
0.010019153
0.010027852
0.010019324
0.010028086
0.010019493
0.010028316
0.010017678
0.010026337
0.010018864
0.010028359
0.010019271
0.010028951
0.010019494
0.010029266
0.010019664
0.0100295
0.010019832
0.010029731
0.010019205
0.010035053
0.010020433
0.01003755
0.010020878
0.010038324
0.010021126
0.010038733
0.010021313
0.010039032
0.010021493
0.010039319
0.010036166
0.010106252
0.010038499
0.010113727
0.010039436
0.010116283
0.010039949
0.010117644
0.010040322
0.010118631
0.010040668
0.010119559
0.01017342
0.010633834
0.010184
0.01067452
0.010188547
0.010688832
0.01019096
0.010696404
0.010192634
0.010701804
0.010194099
0.010706646
0.011214786
0.014500995
0.011288762
0.014789607
0.011320371
0.014889209
0.011336509
0.014940981
0.011347242
0.014977127
0.011356056
0.015008137
0.01801868
0.038759443
0.018589106
0.040797586
0.018847616
0.04152089
0.018983628
0.041899684
0.019076599
0.04216635
0.019156673
0.042400962
0.053845162
0.15561487
0.056732713
0.16457953
0.058117275
0.16784341
0.058882171
0.1695272
0.059409967
0.17068267
0.05986869
0.17165504
0.23002904
0.65317187
0.24292039
0.68637322
0.24920645
0.6984717
0.25272472
0.70455701
0.25513182
0.70860935
0.25717458
0.71181644
0.95842238
2.360201
1.0107674
2.4779789
1.0393884
2.5217041
1.0549715
2.5440203
1.0657501
2.5593248
1.0750038
2.5720632
3.5126439
6.7696218
3.6894996
7.0644886
3.7796503
7.1749689
3.8303755
7.2328488
3.8659619
7.2732395
3.8965311
7.3084447
9.649316
13.243819
9.9450736
13.656071
10.102339
13.809971
10.189635
13.889774
10.250776
13.945481
10.304614
13.995532
15.573367
17.31677
15.874385
17.729479
16.021748
17.879718
16.102325
17.958858
16.159083
18.015162
16.210071
18.068376
16.764563
15.923013
16.971452
16.208632
17.059034
16.316165
17.105445
16.377344
17.138535
16.423484
17.171034
16.471305
7.9141523
6.1763103
7.8572204
6.1174526
7.8184692
6.1050313
7.7906727
6.1027927
7.768574
6.1030862
7.7491287
6.1069744
3.0041047
3.115337
2.878584
2.8472565
2.8247496
2.7572857
2.787443
2.7032188
2.7547895
2.6586424
2.721274
2.6128933
9.0891772
7.6610961
9.0393712
7.7777211
8.9990209
7.9764408
8.9845317
8.3357311
9.0114764
9.0068441
9.1737568
10.354226
9.9957712
13.731224
16.834751
17.862658
16.805539
17.812623
16.776221
17.753636
16.741061
17.673052
16.685809
17.567476
16.606923
17.444159
16.491258
17.305636
14.812042
13.966678
14.805024
13.957743
14.79809
13.943286
14.79098
13.916925
14.776592
13.860149
14.760392
13.755173
14.757367
13.562003
8.0951721
6.9491903
8.1010068
6.9657718
8.1086722
6.9818166
8.1201399
6.9978066
8.1400955
7.0116787
8.1720827
7.0136634
8.2495335
6.997323
2.6398702
2.1757772
2.6444436
2.1832055
2.649746
2.1954276
2.6570317
2.2100651
2.6690729
2.2307657
2.6932448
2.2486366
2.7503268
2.2610058
0.48356957
0.41207509
0.48401701
0.41279038
0.48455141
0.41386868
0.48552176
0.41555271
0.48733712
0.41723938
0.49128428
0.41830967
0.50013833
0.42052507
0.068301816
0.059133781
0.068237016
0.059081679
0.068231607
0.059056161
0.068209314
0.059061309
0.068229975
0.059043492
0.068320604
0.058918542
0.068674751
0.05874443
0.017086495
0.015673758
0.017077621
0.015672824
0.01706993
0.015671133
0.017062819
0.015667725
0.017056597
0.015661265
0.017055025
0.015647688
0.017063981
0.015608645
0.010906668
0.01071589
0.010905407
0.010715514
0.010904256
0.010714977
0.010903015
0.010714062
0.010901612
0.01071233
0.010900018
0.010708485
0.010897094
0.010697655
0.01009042
0.010080448
0.0100905
0.010080665
0.010090589
0.010080817
0.010090673
0.010080858
0.01009074
0.010080627
0.010090652
0.010079548
0.010089237
0.010075176
0.010010085
0.010018477
0.010010394
0.010018885
0.01001072
0.010019262
0.010011089
0.010019605
0.010011533
0.010019843
0.010011985
0.010019605
0.01001146
0.010016813
0.010005506
0.010015215
0.010005867
0.010015694
0.010006266
0.010016172
0.01000674
0.01001667
0.010007344
0.010017174
0.010008056
0.010017399
0.010007969
0.010015367
0.010006519
0.010016164
0.0100069
0.010016672
0.010007339
0.010017218
0.010007878
0.010017841
0.01000859
0.010018556
0.010009478
0.010019105
0.010009666
0.010017647
0.010008229
0.010017556
0.01000861
0.010018073
0.010009068
0.010018668
0.01000965
0.010019384
0.010010441
0.010020255
0.01001145
0.010021038
0.010011797
0.010019952
0.010010314
0.010019221
0.010010672
0.010019723
0.010011126
0.010020334
0.010011727
0.010021108
0.010012565
0.010022095
0.010013637
0.010023033
0.010014044
0.010022188
0.010012578
0.010021209
0.010012902
0.01002167
0.010013332
0.01002226
0.010013924
0.010023041
0.010014764
0.010024064
0.010015821
0.010025046
0.010016166
0.010024297
0.010014592
0.010023126
0.01001488
0.010023527
0.010015279
0.010024068
0.010015841
0.010024815
0.010016648
0.010025814
0.010017646
0.010026775
0.010017906
0.010026073
0.010016355
0.010024848
0.010016606
0.010025198
0.010016966
0.010025689
0.010017485
0.010026384
0.010018237
0.010027333
0.010019161
0.010028252
0.010019364
0.010027631
0.010017825
0.010026355
0.010018052
0.010026671
0.010018374
0.010027112
0.010018836
0.010027735
0.010019509
0.010028596
0.010020348
0.010029475
0.010020591
0.010029058
0.010018984
0.010027638
0.010019194
0.010027933
0.010019481
0.01002833
0.010019888
0.010028879
0.01002048
0.010029645
0.010021251
0.010030496
0.010021604
0.010030338
0.010019704
0.010028617
0.0100199
0.010028891
0.010020161
0.010029249
0.010020522
0.010029733
0.010021047
0.010030411
0.010021767
0.010031232
0.010022256
0.010031339
0.010020037
0.010030024
0.010020213
0.010030276
0.010020452
0.010030607
0.010020787
0.010031058
0.010021282
0.010031702
0.010021989
0.010032529
0.010022595
0.01003284
0.010021705
0.010039665
0.010021881
0.010039956
0.010022124
0.010040344
0.010022474
0.010040881
0.010023002
0.01004166
0.010023755
0.01004268
0.010024428
0.010043231
0.010041059
0.010120641
0.010041357
0.01012145
0.010041766
0.010122534
0.010042358
0.010124063
0.010043228
0.010126271
0.010044369
0.01012916
0.01004498
0.010130826
0.010195628
0.010711678
0.010196962
0.01071659
0.010198839
0.010723325
0.01020161
0.010733043
0.010205631
0.010747141
0.010210387
0.010764992
0.010210531
0.010772043
0.011364189
0.015036883
0.011372694
0.015067645
0.011385166
0.015110138
0.011403936
0.015170897
0.011430805
0.015255047
0.011458908
0.015344174
0.011440686
0.015299283
0.019239221
0.042638263
0.019299069
0.042797
0.019390246
0.043014792
0.019532926
0.043316775
0.019743336
0.043709093
0.019967887
0.044006037
0.019859807
0.043189268
0.060352331
0.17254471
0.060723383
0.17329271
0.061315352
0.17435223
0.062273057
0.17577564
0.063750184
0.17739718
0.06558261
0.17791211
0.065992781
0.17236279
0.25919942
0.71424554
0.26109851
0.7169036
0.26422217
0.72083602
0.26935099
0.7260031
0.27740991
0.73104275
0.28781729
0.72947259
0.29232141
0.70542699
1.0842196
2.5832834
1.0935911
2.5954101
1.1093003
2.6144436
1.1358947
2.6428589
1.1796649
2.6799831
1.2426258
2.7109888
1.2929365
2.6789171
3.9258432
7.3430909
3.9577543
7.3800722
4.0120716
7.44033
4.1062045
7.5373932
4.2688686
7.6863086
4.5308511
7.8830863
4.7986121
8.0399939
10.357068
14.049322
10.41065
14.103996
10.502081
14.195362
10.664507
14.352761
10.955587
14.624311
11.464829
15.07991
12.214311
15.773697
16.265092
18.132773
16.319267
18.196663
16.410977
18.307846
16.575747
18.510441
16.881026
18.884149
17.455727
19.578195
18.466479
20.69672
17.214165
16.539309
17.255656
16.606171
17.328644
16.727496
17.466716
16.957516
17.74977
17.410074
18.374569
18.315138
19.666109
19.895888
7.7321666
6.1210067
7.7170314
6.1358084
7.693656
6.1626546
7.6604479
6.2120014
7.6406243
6.3237373
7.7477607
6.6003306
8.320481
7.1482141
2.6824786
2.5553437
2.641372
2.4890103
2.5735427
2.371374
2.4615987
2.1662964
2.2908336
1.8433179
2.0851177
1.4179183
2.0014288
1.0992317
10.873671
16.017349
11.309138
17.19544
11.042987
16.485062
11.348368
16.364528
16.365353
17.349097
16.31359
17.602499
16.410576
18.238687
18.025804
21.143601
14.845308
13.575994
15.154414
13.923774
15.926637
15.06008
17.827775
17.611753
8.4540924
7.1394317
8.8322187
7.4919019
9.5513374
8.3841461
10.775707
10.00461
2.8335855
2.3262587
2.9899976
2.4779337
3.2534293
2.8263115
3.6169734
3.39107
0.51059678
0.43036867
0.53680082
0.45836154
0.57560417
0.5186406
0.61542272
0.60358074
0.068988902
0.059206038
0.071268207
0.061837969
0.073733194
0.066855596
0.073627542
0.071530599
0.017005131
0.015574596
0.017134964
0.015733724
0.017085769
0.015921171
0.016292743
0.015576529
0.010873018
0.010676134
0.01086468
0.010671475
0.010801271
0.010638792
0.010592166
0.010491068
0.010082495
0.010065746
0.010076867
0.010057891
0.010063902
0.010045442
0.01003419
0.010019663
0.010008308
0.010010292
0.010004614
0.010003611
0.0099999375
0.0099960947
0.0099929223
0.009986843
0.010005591
0.010009711
0.0100023
0.010003537
0.0099982997
0.009996578
0.0099927911
0.0099884534
0.010007601
0.01001256
0.010004499
0.010006867
0.010000542
0.010000226
0.0099949842
0.0099922064
0.010009916
0.010015362
0.010007064
0.010010306
0.010003287
0.010004255
0.0099977598
0.0099965579
0.010012338
0.010018141
0.010009787
0.010013762
0.010006293
0.010008384
0.010000949
0.010001249
0.010014519
0.010020649
0.010012165
0.010016778
0.010008908
0.010011992
0.010003824
0.010005525
0.010016311
0.010022746
0.010014086
0.010019222
0.010011025
0.0100149
0.010006214
0.010009002
0.010017833
0.010024568
0.010015692
0.010021276
0.010012754
0.010017266
0.010008117
0.010011774
0.010019146
0.010026253
0.010017104
0.010023185
0.010014215
0.010019341
0.010009599
0.010013977
0.010020341
0.010027885
0.01001842
0.010025005
0.010015483
0.010021154
0.010010707
0.010015715
0.010021229
0.010029293
0.01001941
0.010026545
0.01001641
0.010022623
0.010011475
0.010017076
0.010021882
0.010031258
0.010020089
0.010028368
0.010016985
0.010024127
0.01001183
0.010018218
0.010023841
0.010041782
0.010021551
0.010036908
0.010017952
0.010030042
0.010012372
0.010021933
0.010042786
0.010125012
0.010035785
0.010102574
0.010027689
0.010072786
0.010019142
0.01004755
0.010196813
0.01072991
0.010153299
0.010568675
0.01010983
0.010364625
0.010076587
0.010217906
0.01132238
0.014842832
0.011029356
0.013687083
0.010731106
0.012263559
0.010506439
0.011296045
0.018820299
0.039606514
0.016953771
0.032526243
0.014934345
0.023669501
0.013357485
0.017586164
0.062537673
0.16269255
0.051798549
0.1289962
0.039831508
0.084878325
0.030212077
0.051457262
0.28332294
0.68176551
0.23180761
0.55414496
0.17132927
0.37383575
0.12046387
0.22135782
1.2658618
2.6064804
1.0449172
2.1633381
0.77347281
1.5435167
0.53627955
0.95970603
4.7028913
7.8978821
3.9869008
6.8332618
3.0659625
5.304941
2.200313
3.6759128
12.129938
15.815824
10.892686
14.640987
9.1182676
12.710514
7.1663106
10.222927
18.888297
20.817981
18.185258
20.166795
16.768942
18.94883
14.832579
17.220395
20.37765
20.307046
20.330946
20.304887
19.787593
20.104956
18.817679
19.674187
9.0274678
7.4876883
9.4316644
7.9320222
9.8202418
8.595861
10.499519
9.8295035
2.1021072
1.0926554
2.3455846
1.2820991
2.7679462
1.6482714
3.4830252
2.4924726
34.530551
22.275019
30.002873
19.552338
31.18392
21.981222
27.660886
23.011843
27.166028
22.065933
33.134114
28.363587
17.470368
18.128896
18.459446
18.551973
22.46075
22.169551
9.2708351
10.452222
10.527314
11.4614
12.416888
12.720094
3.3659125
3.8164342
4.2635198
4.6619027
5.1425887
5.1252821
0.71637002
0.77645434
1.0203142
1.0807114
1.4485198
1.4245074
0.10611267
0.11605625
0.18432552
0.19945113
0.3960607
0.39714845
0.022565497
0.024499999
0.039678026
0.043631528
0.13299479
0.13610288
0.01160368
0.011938887
0.015883821
0.016922412
0.048923125
0.049937564
0.010129449
0.010188313
0.011034521
0.011248815
0.0229487
0.023112367
0.0099599339
0.0099839356
0.010157205
0.010209083
0.01375086
0.013813877
0.0099502997
0.0099687534
0.0099956133
0.01001619
0.010992139
0.011006655
0.0099563204
0.0099717148
0.0099710833
0.0099842494
0.010238781
0.010238037
0.0099640301
0.0099764611
0.0099719834
0.009981641
0.010029407
0.010031688
0.0099723006
0.0099818048
0.0099781691
0.0099849769
0.0099847443
0.0099869139
0.0099800714
0.0099870009
0.0099843364
0.0099887793
0.0099786223
0.0099797439
0.0099862909
0.009991212
0.0099892999
0.0099920213
0.0099795295
0.0099797031
0.009991356
0.0099947384
0.0099933595
0.0099947744
0.0099809427
0.0099804415
0.0099952116
0.0099974459
0.0099967978
0.0099973423
0.0099829718
0.0099816807
0.0099981586
0.009999502
0.0099991548
0.0099990024
0.0099851808
0.0099830651
0.010000451
0.010001105
0.010001214
0.010000552
0.0099867736
0.0099841113
0.010002003
0.010002073
0.010002631
0.010001496
0.0099880534
0.0099848587
0.01000288
0.010002369
0.01000328
0.010001737
0.0099889111
0.0099853157
0.010004109
0.010002796
0.010003753
0.010001823
0.0099893072
0.0099854513
0.010014318
0.010007414
0.010007911
0.01000332
0.0099901851
0.0099856288
0.010106093
0.010058587
0.010051632
0.010025012
0.010000577
0.0099899192
0.010873675
0.010551832
0.010461928
0.010266404
0.010114527
0.010047505
0.01686679
0.014672967
0.013986525
0.012529173
0.011240196
0.010680375
0.056788748
0.042635243
0.039587368
0.0297882
0.020772792
0.016347013
0.30293152
0.21015188
0.21198201
0.14341419
0.093186737
0.058108301
1.5883785
1.0375216
1.2111029
0.77309521
0.577326
0.33943842
6.0807696
4.4535891
5.0616508
3.5197155
3.0657931
1.9690541
13.133937
11.360211
12.046656
9.9506698
10.356093
7.9101614
17.66924
16.561075
17.238512
15.743788
19.979177
17.867882
13.250658
12.562349
13.924333
13.141867
22.02485
21.219721
6.0720206
6.3072112
6.3441519
6.7675447
10.280802
11.169456
15.632602
4.4223137
5.0080149
6.9913568
9.9589946
15.228787
14.826245
4.3121157
5.1099631
7.2841222
10.538129
16.325961
5.5934984
8.1470215
10.83436
12.788203
15.07606
18.112439
5.6478454
8.3410065
10.716108
12.681137
14.980117
17.836942
2.0072946
8.4674154
14.518815
16.489831
17.002524
17.07778
2.2290939
9.0688124
14.143038
15.611757
15.988212
15.976449
0.69068001
3.0113046
6.7419031
9.3894839
10.515963
10.530587
0.77152552
3.5670307
7.028726
9.1386173
9.8398593
9.680846
0.2459001
0.86402616
1.8553582
2.8365342
3.5398063
3.792853
0.27615528
1.0071758
1.9425656
2.7836695
3.2838082
3.3981761
0.084663773
0.22890766
0.39925551
0.55194526
0.68289888
0.75740403
0.095096136
0.25393996
0.39255648
0.52170503