/*--------------------------------*- C++ -*----------------------------------*\
| =========                 |                                                 |
| \\      /  F ield         | OpenFOAM: The Open Source CFD Toolbox           |
|  \\    /   O peration     | Version:  2206                                  |
|   \\  /    A nd           | Website:  www.openfoam.com                      |
|    \\/     M anipulation  |                                                 |
\*---------------------------------------------------------------------------*/
FoamFile
{
    version     2.0;
    format      ascii;
    arch        "LSB;label=32;scalar=64";
    class       volScalarField;
    location    "300";
    object      nut;
}
// * * * * * * * * * * * * * * * * * * * * * * * * * * * * * * * * * * * * * //

dimensions      [0 2 -1 0 0 0 0];

internalField   nonuniform List<scalar> 
50904
(
4.548361e-06
7.4428642e-06
4.8311981e-06
8.2752836e-06
1.6326593e-05
1.9117222e-05
1.5356696e-05
1.7785425e-05
3.1258117e-05
3.1662946e-05
2.8828788e-05
2.9972673e-05
3.608768e-05
3.4135523e-05
3.4144779e-05
3.237875e-05
2.5218521e-05
2.4631799e-05
2.3828135e-05
2.3262833e-05
1.4106897e-05
1.2446524e-05
1.3317089e-05
7.8294802e-06
2.8473124e-06
1.6408166e-06
2.0268039e-06
1.1456056e-06
6.1475278e-07
3.7217209e-07
4.5854578e-07
2.7846552e-07
3.1177337e-07
2.0854805e-07
2.5484197e-07
1.7192926e-07
2.7729334e-07
1.9524186e-07
2.3484957e-07
1.6612141e-07
2.8469117e-07
2.0608341e-07
2.4219623e-07
1.7596232e-07
3.0255236e-07
2.2395556e-07
2.5773924e-07
1.910025e-07
3.2608477e-07
2.4685192e-07
2.7781838e-07
2.0989815e-07
3.5807395e-07
2.7689478e-07
3.049372e-07
2.3466395e-07
4.0268273e-07
3.1763865e-07
3.4248097e-07
2.6793937e-07
4.5666868e-07
3.6539929e-07
3.8707062e-07
3.0583043e-07
5.1761141e-07
4.1772953e-07
4.3671301e-07
3.4609357e-07
5.8397265e-07
4.7288138e-07
4.8857444e-07
3.8663706e-07
6.6236221e-07
5.3486264e-07
5.4502216e-07
4.2843342e-07
7.4811972e-07
6.0220652e-07
6.0034133e-07
4.6849589e-07
8.3490062e-07
6.7084568e-07
6.584282e-07
5.0882378e-07
9.2722413e-07
7.4475539e-07
7.1794698e-07
5.5090493e-07
1.008339e-06
8.083205e-07
7.689729e-07
5.8908626e-07
1.0633558e-06
8.4895434e-07
8.103494e-07
6.2032988e-07
1.0995109e-06
8.7394116e-07
8.3950794e-07
6.4380752e-07
1.1321458e-06
8.9718985e-07
8.7913242e-07
6.8866662e-07
1.2306968e-06
9.9918696e-07
1.042969e-06
9.0202695e-07
1.8807011e-06
1.6864215e-06
2.0082207e-06
2.0838682e-06
6.0902768e-06
6.0200565e-06
7.5901183e-06
8.3140141e-06
1.1055771e-05
1.27352e-05
1.2976979e-05
1.5883141e-05
1.7445428e-05
2.1306633e-05
2.0055556e-05
2.5274e-05
2.9005987e-05
3.5781025e-05
3.2211792e-05
3.9644747e-05
3.6269952e-05
3.983232e-05
3.6750602e-05
4.0418942e-05
2.7314842e-05
2.8663452e-05
2.672076e-05
2.7636818e-05
8.9631248e-06
9.4495066e-06
7.9604524e-06
8.3956401e-06
1.0758903e-06
1.11839e-06
9.7177665e-07
1.1056446e-06
4.6547608e-06
8.2108062e-06
3.9634126e-06
6.7924142e-06
3.5385612e-06
5.4976254e-06
3.2801247e-06
4.7627028e-06
3.1145898e-06
4.2911163e-06
3.0001181e-06
3.9689178e-06
2.9123975e-06
3.7255392e-06
1.4582804e-05
1.7187121e-05
1.3956398e-05
1.5954856e-05
1.3675027e-05
1.5023104e-05
1.3518141e-05
1.4511468e-05
1.3421145e-05
1.4210592e-05
1.3355991e-05
1.4022595e-05
1.3306488e-05
1.3888788e-05
2.7186756e-05
2.869736e-05
2.580393e-05
2.6512274e-05
2.5395528e-05
2.5128309e-05
2.5192519e-05
2.4693297e-05
2.5088269e-05
2.4416031e-05
2.495746e-05
2.4186845e-05
2.489117e-05
2.4024246e-05
3.1603982e-05
3.1912305e-05
2.91466e-05
2.9864821e-05
2.855804e-05
2.8379844e-05
2.825103e-05
2.8262209e-05
2.7946647e-05
2.8238507e-05
2.7842355e-05
2.8246996e-05
2.7811011e-05
2.8323431e-05
2.347331e-05
2.2926998e-05
2.3222908e-05
2.2374198e-05
2.3111869e-05
1.9698248e-05
2.2639795e-05
1.880569e-05
2.2388966e-05
1.8445021e-05
2.2329389e-05
1.8885391e-05
2.2323491e-05
1.831515e-05
1.0369841e-05
6.3394841e-06
8.8503186e-06
5.0206043e-06
8.9115866e-06
4.0283024e-06
8.7332768e-06
3.7783075e-06
8.7477127e-06
3.6785266e-06
9.8075355e-06
3.7314343e-06
1.0305336e-05
4.3075369e-06
1.643258e-06
9.3167668e-07
1.4087944e-06
6.8483469e-07
1.3592686e-06
5.584881e-07
1.2981808e-06
5.3212943e-07
1.2658216e-06
5.2059134e-07
1.2449607e-06
5.269098e-07
1.2384092e-06
6.0874477e-07
3.821041e-07
2.3044404e-07
3.38615e-07
1.7072312e-07
3.2395459e-07
1.4229058e-07
3.0845008e-07
1.396566e-07
3.0137195e-07
1.3870599e-07
2.9726877e-07
1.4042267e-07
2.9582689e-07
1.5693788e-07
2.2286943e-07
1.474334e-07
2.0835537e-07
1.1331881e-07
1.9932953e-07
9.6643212e-08
1.8958485e-07
9.7695908e-08
1.8587797e-07
9.7887475e-08
1.8383394e-07
9.7614799e-08
1.831883e-07
9.9796175e-08
2.0900892e-07
1.4333923e-07
1.9727629e-07
1.0930435e-07
1.8637378e-07
9.4446148e-08
1.7588192e-07
9.8505723e-08
1.7212785e-07
9.6448144e-08
1.7028362e-07
9.6589025e-08
1.6986519e-07
9.6481247e-08
2.1594456e-07
1.5135236e-07
2.0301046e-07
1.1343552e-07
1.8963543e-07
1.0035421e-07
1.777216e-07
1.0610953e-07
1.734025e-07
1.0086129e-07
1.715589e-07
1.018631e-07
1.713401e-07
1.0049416e-07
2.2962354e-07
1.635908e-07
2.143456e-07
1.1981533e-07
1.9792074e-07
1.0678406e-07
1.842302e-07
1.1417121e-07
1.7951513e-07
1.0718262e-07
1.77692e-07
1.088655e-07
1.7767155e-07
1.0717797e-07
2.4757705e-07
1.7866306e-07
2.2992864e-07
1.2827528e-07
2.1044991e-07
1.1262531e-07
1.9537438e-07
1.1731848e-07
1.9098877e-07
1.1715342e-07
1.8968961e-07
1.1742153e-07
1.897229e-07
1.1635976e-07
2.7054967e-07
1.9831991e-07
2.5013227e-07
1.4074665e-07
2.2854044e-07
1.2119786e-07
2.1290701e-07
1.2554416e-07
2.0929589e-07
1.2969896e-07
2.0846585e-07
1.2917963e-07
2.0927068e-07
1.2892629e-07
3.0353099e-07
2.248171e-07
2.8080192e-07
1.5903716e-07
2.5709897e-07
1.3497775e-07
2.410258e-07
1.4318035e-07
2.381669e-07
1.4689586e-07
2.3792225e-07
1.4719127e-07
2.3921186e-07
1.4739996e-07
3.4242524e-07
2.5370757e-07
3.1841092e-07
1.8049826e-07
2.9323163e-07
1.5502985e-07
2.7633285e-07
1.6393381e-07
2.7357063e-07
1.6879508e-07
2.738661e-07
1.7019667e-07
2.7532594e-07
1.7121068e-07
3.8529199e-07
2.8188312e-07
3.6021064e-07
2.0227905e-07
3.3292296e-07
1.7686017e-07
3.1471296e-07
1.8667772e-07
3.1171534e-07
1.9201417e-07
3.121515e-07
1.940078e-07
3.1352756e-07
1.9567456e-07
4.2914979e-07
3.0766685e-07
4.0227097e-07
2.237459e-07
3.7256468e-07
2.0032374e-07
3.5322024e-07
2.113726e-07
3.4986419e-07
2.1715231e-07
3.5018296e-07
2.1965e-07
3.5182115e-07
2.2201519e-07
4.7750032e-07
3.3430604e-07
4.4683937e-07
2.4537452e-07
4.1196372e-07
2.2326333e-07
3.9022542e-07
2.3540274e-07
3.8575744e-07
2.41156e-07
3.8491879e-07
2.4391887e-07
3.8807607e-07
2.4774597e-07
5.2478309e-07
3.5934276e-07
4.8964491e-07
2.660934e-07
4.4938073e-07
2.4524133e-07
4.2529256e-07
2.5859716e-07
4.1987891e-07
2.6453568e-07
4.1841174e-07
2.6819853e-07
4.2139575e-07
2.7226314e-07
5.742512e-07
3.8637008e-07
5.3358177e-07
2.8777703e-07
4.8646061e-07
2.6640185e-07
4.5856771e-07
2.8115238e-07
4.5197113e-07
2.9326824e-07
4.5048381e-07
3.3850856e-07
4.5345938e-07
2.9068839e-07
6.2255859e-07
4.1581774e-07
5.7522466e-07
3.1129656e-07
5.2357976e-07
2.8930554e-07
4.9439213e-07
3.041911e-07
4.879448e-07
3.1262817e-07
4.9064948e-07
3.2545365e-07
5.2538758e-07
3.2057585e-07
6.6305642e-07
4.472294e-07
6.1879577e-07
3.3652712e-07
5.6501297e-07
3.1411037e-07
5.3428819e-07
3.3158776e-07
5.3702946e-07
3.4236506e-07
6.0559486e-07
3.6663725e-07
6.4127768e-07
3.4172745e-07
6.9788542e-07
4.7901562e-07
6.5997612e-07
3.6199456e-07
6.1370397e-07
3.3760795e-07
5.8313241e-07
3.5374617e-07
5.7636137e-07
3.5892354e-07
5.8452081e-07
3.630799e-07
6.2433449e-07
3.6736187e-07
7.2150125e-07
5.1193186e-07
6.9472002e-07
3.9243764e-07
6.6360148e-07
3.6765092e-07
6.3900956e-07
3.8542589e-07
6.3132323e-07
3.885217e-07
6.225527e-07
3.9132724e-07
6.173369e-07
3.9604299e-07
7.6735843e-07
5.8868089e-07
7.6078247e-07
4.8453758e-07
7.476007e-07
4.82318e-07
7.2868487e-07
5.0537209e-07
7.2102755e-07
5.186947e-07
7.0981433e-07
5.2664117e-07
6.9935974e-07
5.3319517e-07
9.9633503e-07
9.4168661e-07
1.0699419e-06
9.8631951e-07
1.1109932e-06
1.146855e-06
1.1215093e-06
1.2834879e-06
1.1242101e-06
1.3218775e-06
1.1131305e-06
1.3222852e-06
1.0994659e-06
1.3701253e-06
2.2978119e-06
2.8168139e-06
2.7748729e-06
3.7096884e-06
3.0716704e-06
4.7983918e-06
3.2211671e-06
5.5857256e-06
3.2768273e-06
6.0018054e-06
3.2568277e-06
5.6696848e-06
3.2111308e-06
5.6343838e-06
9.3264475e-06
1.2614573e-05
1.1596248e-05
1.8221736e-05
1.3163943e-05
2.0416882e-05
1.3555087e-05
2.1573955e-05
1.3785829e-05
2.220169e-05
1.3924325e-05
2.2534303e-05
1.4005841e-05
2.2714968e-05
1.4830387e-05
1.9391232e-05
1.6562573e-05
2.44683e-05
1.7591769e-05
2.7655068e-05
1.8186627e-05
2.9320036e-05
1.8501909e-05
3.0228901e-05
1.8709669e-05
3.0724887e-05
1.8836408e-05
3.1002477e-05
2.2973803e-05
2.9595213e-05
2.5239733e-05
3.5655597e-05
2.677695e-05
3.9639699e-05
2.7796686e-05
4.1898761e-05
2.8386858e-05
4.3181838e-05
2.8709306e-05
4.3908608e-05
2.8906081e-05
4.4328301e-05
3.5753262e-05
4.3032093e-05
3.8987013e-05
4.7531652e-05
4.0302419e-05
5.0046616e-05
4.1237072e-05
5.0952173e-05
4.1797843e-05
5.1402609e-05
4.2110708e-05
5.1615605e-05
4.2282917e-05
5.1712633e-05
3.7502709e-05
4.1840515e-05
3.8650531e-05
4.3429752e-05
3.967222e-05
4.4001056e-05
4.0371954e-05
4.4231047e-05
4.0785984e-05
4.4346821e-05
4.1033557e-05
4.4413897e-05
4.1187246e-05
4.4458589e-05
2.6255058e-05
2.70873e-05
2.6418487e-05
2.6793349e-05
2.688248e-05
2.6641499e-05
2.721565e-05
2.6569273e-05
2.7388425e-05
2.6499658e-05
2.7491741e-05
2.6472829e-05
2.7573911e-05
2.6486177e-05
7.3984017e-06
7.8217013e-06
7.1038124e-06
7.0717225e-06
7.0541683e-06
6.5088354e-06
7.0438949e-06
6.1833116e-06
6.9976293e-06
5.9438452e-06
6.9366385e-06
5.7785176e-06
6.89512e-06
5.6858807e-06
9.1109462e-07
1.2276296e-06
8.374592e-07
1.1407335e-06
7.784225e-07
1.0197848e-06
7.4135637e-07
9.2782032e-07
7.1581087e-07
8.6414144e-07
6.9907046e-07
8.2647774e-07
6.8965254e-07
8.0699765e-07
2.8380068e-06
3.5236512e-06
2.7634119e-06
3.3233134e-06
2.7040403e-06
3.1726543e-06
2.6416522e-06
3.0204816e-06
2.5546588e-06
2.8135669e-06
2.4025684e-06
2.4543978e-06
1.3265055e-05
1.3779236e-05
1.322541e-05
1.3684164e-05
1.3194708e-05
1.3607603e-05
1.3162913e-05
1.3527726e-05
1.3116042e-05
1.3421854e-05
1.3044542e-05
1.3281397e-05
2.4852217e-05
2.3890062e-05
2.4834782e-05
2.3790237e-05
2.4816935e-05
2.3714263e-05
2.477766e-05
2.3612457e-05
2.4753837e-05
2.3487111e-05
2.4731493e-05
2.3379467e-05
2.7797806e-05
2.8408941e-05
2.779267e-05
2.8408985e-05
2.7783773e-05
2.8347289e-05
2.7788895e-05
2.8210736e-05
2.7820588e-05
2.7973781e-05
2.808353e-05
2.7597781e-05
2.2334509e-05
1.8246398e-05
2.247118e-05
2.0200255e-05
2.2411349e-05
2.1186963e-05
2.2468393e-05
2.1938732e-05
2.2842098e-05
2.1897742e-05
2.2754041e-05
2.183564e-05
1.0755509e-05
4.8608507e-06
1.1018081e-05
4.7127771e-06
1.1778482e-05
4.5928317e-06
1.1280593e-05
4.5182762e-06
9.3029352e-06
4.525219e-06
9.4630269e-06
4.5983058e-06
1.2422067e-06
6.7612119e-07
1.2410458e-06
6.3847544e-07
1.2474919e-06
6.3980579e-07
1.2706642e-06
6.3932386e-07
1.3155597e-06
6.4015483e-07
1.3878131e-06
6.4662814e-07
2.9692199e-07
1.6858939e-07
2.9702929e-07
1.6327177e-07
2.9895089e-07
1.6505328e-07
3.0457955e-07
1.6619568e-07
3.1502713e-07
1.6733961e-07
3.332703e-07
1.6959903e-07
1.8423336e-07
1.1017444e-07
1.848976e-07
1.0933268e-07
1.8621779e-07
1.1155667e-07
1.8954505e-07
1.1337567e-07
1.9593948e-07
1.1485886e-07
2.0806749e-07
1.1650901e-07
1.708385e-07
9.9773585e-08
1.7180369e-07
1.032556e-07
1.7321804e-07
1.0558161e-07
1.7595823e-07
1.0821156e-07
1.8122931e-07
1.1008237e-07
1.9216534e-07
1.1146916e-07
1.7235275e-07
1.0004844e-07
1.7360492e-07
1.0377883e-07
1.7514192e-07
1.0676953e-07
1.7758918e-07
1.1028494e-07
1.8235287e-07
1.1288256e-07
1.9305711e-07
1.144696e-07
1.7878634e-07
1.0613317e-07
1.8032732e-07
1.0556576e-07
1.8188833e-07
1.0985264e-07
1.8393413e-07
1.1396115e-07
1.8813795e-07
1.1739703e-07
1.9835039e-07
1.1923577e-07
1.910608e-07
1.1519619e-07
1.9309445e-07
1.1401053e-07
1.9472301e-07
1.1471398e-07
1.9631238e-07
1.1971828e-07
1.9999142e-07
1.238441e-07
2.097398e-07
1.2619425e-07
2.107659e-07
1.2774651e-07
2.1268261e-07
1.2628454e-07
2.1450651e-07
1.2606539e-07
2.1562523e-07
1.2761237e-07
2.187637e-07
1.3248282e-07
2.2786297e-07
1.3523417e-07
2.4072249e-07
1.4628414e-07
2.4288959e-07
1.4453009e-07
2.4484374e-07
1.4362648e-07
2.4568009e-07
1.4341991e-07
2.4854619e-07
1.4561721e-07
2.5721094e-07
1.4930995e-07
2.7744353e-07
1.7057967e-07
2.8078991e-07
1.6884647e-07
2.8292482e-07
1.6703568e-07
2.8351162e-07
1.6498742e-07
2.8586151e-07
1.6313091e-07
2.9342983e-07
1.6253494e-07
3.1620853e-07
1.958692e-07
3.2064009e-07
1.9467717e-07
3.2241935e-07
1.9257164e-07
3.2228176e-07
1.8977263e-07
3.240547e-07
1.8726476e-07
3.3099194e-07
1.8601472e-07
3.5562022e-07
2.2294628e-07
3.6117234e-07
2.2193866e-07
3.6257449e-07
2.1924811e-07
3.6163744e-07
2.1571445e-07
3.6262837e-07
2.1256111e-07
3.6878808e-07
2.1107751e-07
3.9407946e-07
2.4996961e-07
3.9980724e-07
2.4883358e-07
4.003224e-07
2.4532299e-07
3.9831419e-07
2.4085113e-07
3.987078e-07
2.3691258e-07
4.0553181e-07
2.347037e-07
4.2845212e-07
2.7514955e-07
4.3488747e-07
2.7443788e-07
4.3401403e-07
2.6985558e-07
4.3164744e-07
2.6454735e-07
4.3384221e-07
2.6009424e-07
4.4830838e-07
2.5694622e-07
4.6213843e-07
3.0295612e-07
4.7047335e-07
3.0127172e-07
4.7060869e-07
2.9574659e-07
4.7472748e-07
2.8873579e-07
4.9880765e-07
2.8167413e-07
6.0326456e-07
2.7259176e-07
5.5902786e-07
3.2509899e-07
5.8278617e-07
3.2413625e-07
6.1005248e-07
3.1516548e-07
6.50811e-07
3.0508908e-07
6.8647169e-07
2.9648764e-07
6.6292085e-07
2.9163667e-07
6.6177803e-07
3.5217464e-07
6.7465256e-07
3.5108353e-07
6.9524673e-07
3.416364e-07
7.2771614e-07
3.3203617e-07
7.6339697e-07
3.242522e-07
7.3506902e-07
3.2031472e-07
6.5070239e-07
3.7300221e-07
6.627688e-07
3.7199114e-07
6.7826554e-07
3.6162178e-07
7.0583934e-07
3.5417113e-07
7.3561433e-07
3.5071345e-07
7.2481557e-07
3.525703e-07
6.2791771e-07
4.0355873e-07
6.4677068e-07
4.0277133e-07
6.8040261e-07
3.9118061e-07
7.3444899e-07
3.8390932e-07
7.8098046e-07
3.8391474e-07
6.4187073e-07
3.9759047e-07
7.0715269e-07
5.431658e-07
7.1908836e-07
5.438084e-07
7.2776223e-07
5.326991e-07
7.7232478e-07
5.2988113e-07
7.9033076e-07
5.3954835e-07
7.3809948e-07
5.6797774e-07
1.1130305e-06
1.3934428e-06
1.1326877e-06
1.3998404e-06
1.1368004e-06
1.3809904e-06
1.1552315e-06
1.3894478e-06
1.1775376e-06
1.4386767e-06
1.2125289e-06
1.5486932e-06
3.2484772e-06
5.834381e-06
3.3194044e-06
5.8587094e-06
3.3542182e-06
5.8217354e-06
3.4418829e-06
5.8875369e-06
3.5499303e-06
6.1420425e-06
3.7165595e-06
6.6535154e-06
1.4055377e-05
2.2826285e-05
1.4117751e-05
2.2950333e-05
1.4178057e-05
2.3061637e-05
1.4248545e-05
2.3182881e-05
1.4353074e-05
2.3349423e-05
1.4552177e-05
2.3649184e-05
1.8915169e-05
3.1168121e-05
1.9018098e-05
3.1377887e-05
1.9119593e-05
3.1581861e-05
1.9240177e-05
3.1809671e-05
1.9420293e-05
3.2131409e-05
1.9767545e-05
3.270692e-05
2.9032018e-05
4.458379e-05
2.9183198e-05
4.4835167e-05
2.933956e-05
4.5068449e-05
2.9528611e-05
4.5334626e-05
2.9809196e-05
4.5717104e-05
3.0322007e-05
4.643033e-05
4.238568e-05
5.1777752e-05
4.2391259e-05
5.1910211e-05
4.2581851e-05
5.1978333e-05
4.2702053e-05
5.2045785e-05
4.2878126e-05
5.2084905e-05
4.3250882e-05
5.206711e-05
4.1289972e-05
4.4506068e-05
4.1366053e-05
4.460845e-05
4.1444203e-05
4.466107e-05
4.1541067e-05
4.4707387e-05
4.1679717e-05
4.4727259e-05
4.1939735e-05
4.4708453e-05
2.7647367e-05
2.6524865e-05
2.7698726e-05
2.6574317e-05
2.775251e-05
2.6611782e-05
2.7813788e-05
2.6649986e-05
2.7889973e-05
2.6685083e-05
2.8003147e-05
2.6712817e-05
6.8802049e-06
5.6450204e-06
6.8750739e-06
5.621898e-06
6.8808282e-06
5.6152035e-06
6.8889074e-06
5.6119538e-06
6.8932279e-06
5.6055501e-06
6.8730523e-06
5.5763211e-06
6.8430752e-07
7.9673659e-07
6.7833998e-07
7.8610907e-07
6.7287838e-07
7.7639751e-07
6.6586834e-07
7.6427638e-07
6.5375064e-07
7.4371514e-07
6.30031e-07
7.0150238e-07
2.1670487e-06
1.95993e-06
2.0145313e-06
1.7115111e-06
1.9631284e-06
1.6675926e-06
1.9399684e-06
1.6528128e-06
1.9245841e-06
1.6463299e-06
1.9111545e-06
1.647031e-06
1.2921092e-05
1.3090309e-05
1.2808631e-05
1.2957625e-05
1.2777944e-05
1.292529e-05
1.2767592e-05
1.2943378e-05
1.2760567e-05
1.2936308e-05
1.2758715e-05
1.294293e-05
2.4640654e-05
2.335884e-05
2.4534312e-05
2.3332176e-05
2.4431647e-05
2.3279812e-05
2.4409604e-05
2.3378935e-05
2.4419378e-05
2.3469155e-05
2.4433505e-05
2.3495994e-05
2.8188651e-05
2.7658565e-05
2.8161825e-05
2.7584425e-05
2.8062822e-05
2.7433251e-05
2.8177998e-05
2.7535586e-05
2.814769e-05
2.8253366e-05
2.8057066e-05
2.8278512e-05
2.2574879e-05
2.1771648e-05
2.2463811e-05
2.1717216e-05
2.2451755e-05
2.1692459e-05
2.2449426e-05
2.1674597e-05
2.2452768e-05
2.1656984e-05
2.2464337e-05
2.1645064e-05
1.0135282e-05
4.7292115e-06
1.122335e-05
4.9680565e-06
1.1434036e-05
5.1327234e-06
1.1293401e-05
5.2323172e-06
1.159791e-05
5.2196261e-06
1.2729758e-05
5.3270232e-06
1.4639242e-06
6.5653874e-07
1.6078043e-06
6.853287e-07
1.628993e-06
7.0492781e-07
1.6432436e-06
7.2085734e-07
1.6502663e-06
7.3110701e-07
1.6689653e-06
7.3633975e-07
3.5632796e-07
1.7256924e-07
3.970617e-07
1.8014511e-07
4.0257874e-07
1.8515579e-07
4.0639972e-07
1.8897714e-07
4.1032031e-07
1.9105615e-07
4.1581592e-07
1.9323753e-07
2.2540762e-07
1.1779625e-07
2.5362633e-07
1.221154e-07
2.5808196e-07
1.252389e-07
2.6127417e-07
1.2779237e-07
2.643167e-07
1.2944047e-07
2.6842657e-07
1.315418e-07
2.0927866e-07
1.1121276e-07
2.3529928e-07
1.13978e-07
2.3908146e-07
1.1646655e-07
2.4177512e-07
1.1869248e-07
2.4433102e-07
1.2039032e-07
2.4793721e-07
1.2269577e-07
2.1083867e-07
1.1308388e-07
2.3658249e-07
1.1501336e-07
2.3950168e-07
1.1731012e-07
2.4158819e-07
1.1953468e-07
2.4382913e-07
1.212354e-07
2.4784062e-07
1.2362689e-07
2.1618033e-07
1.1701372e-07
2.4258468e-07
1.1824446e-07
2.4477225e-07
1.2026757e-07
2.4642499e-07
1.2237881e-07
2.4864746e-07
1.2397161e-07
2.5352075e-07
1.261264e-07
2.2760737e-07
1.2378091e-07
2.5695288e-07
1.2464486e-07
2.5873914e-07
1.263481e-07
2.6049781e-07
1.2822562e-07
2.627492e-07
1.2961741e-07
2.6573161e-07
1.3135886e-07
2.4524638e-07
1.3332864e-07
2.7483416e-07
1.3432346e-07
2.8062419e-07
1.3592596e-07
2.8265456e-07
1.3749935e-07
2.8542168e-07
1.3859339e-07
2.8819908e-07
1.4063806e-07
2.7380421e-07
1.4789525e-07
2.8886839e-07
1.4899594e-07
2.9658056e-07
1.5139685e-07
3.0121261e-07
1.5340674e-07
3.0822529e-07
1.5564286e-07
3.2004075e-07
1.5869584e-07
3.096266e-07
1.641153e-07
3.2521604e-07
1.7042261e-07
3.3328216e-07
1.7548524e-07
3.371286e-07
1.783941e-07
3.4045683e-07
1.8014712e-07
3.4647516e-07
1.8293389e-07
3.4744865e-07
1.8893896e-07
3.6450578e-07
1.969227e-07
3.7416647e-07
2.0276138e-07
3.7879426e-07
2.0548472e-07
3.8603023e-07
2.0627586e-07
4.0404721e-07
2.0882528e-07
3.8624846e-07
2.147633e-07
4.0632617e-07
2.2350309e-07
4.2957568e-07
2.2909328e-07
4.4468842e-07
2.3062868e-07
4.5411719e-07
2.2998806e-07
4.5954799e-07
2.3282827e-07
4.3571688e-07
2.3852578e-07
4.850905e-07
2.4573014e-07
4.9032072e-07
2.5085793e-07
4.9104535e-07
2.5333056e-07
4.9030754e-07
2.5251018e-07
4.9187918e-07
2.5428397e-07
5.2884547e-07
2.5725874e-07
5.1720991e-07
2.6436814e-07
5.2202829e-07
2.7215718e-07
5.2081518e-07
2.7320249e-07
5.1764083e-07
2.7113204e-07
5.2210138e-07
2.735226e-07
5.6594785e-07
2.7428552e-07
5.5325682e-07
2.8430497e-07
5.5751718e-07
2.915038e-07
5.5395941e-07
2.9157476e-07
5.497859e-07
2.8848321e-07
5.5721184e-07
2.9178571e-07
6.2051906e-07
2.9712379e-07
6.0062571e-07
3.0651284e-07
6.0194102e-07
3.1299403e-07
5.9600742e-07
3.1055577e-07
5.908217e-07
3.062146e-07
6.0350071e-07
3.1220016e-07
6.840968e-07
3.2817966e-07
6.7245204e-07
3.3840773e-07
6.7220152e-07
3.428309e-07
6.6196787e-07
3.380584e-07
6.5943173e-07
3.3335571e-07
6.7284903e-07
3.4175954e-07
6.7975743e-07
3.6525814e-07
7.41279e-07
3.7484199e-07
7.4561638e-07
3.7585814e-07
7.3478066e-07
3.6984627e-07
7.3246481e-07
3.6505049e-07
7.4598981e-07
3.7762879e-07
6.8707856e-07
4.191903e-07
8.3808075e-07
4.2452707e-07
8.3404983e-07
4.2145485e-07
8.1623925e-07
4.1511146e-07
8.123334e-07
4.1100638e-07
8.2342611e-07
4.2860711e-07
7.8089959e-07
6.0997187e-07
9.4733958e-07
6.2952095e-07
1.0035627e-06
6.2264864e-07
9.9195793e-07
6.1135206e-07
9.8334205e-07
6.0953742e-07
9.8946021e-07
6.4014198e-07
1.2916083e-06
1.7093252e-06
1.5354025e-06
1.8244745e-06
1.7659784e-06
1.815309e-06
1.7566581e-06
1.7891647e-06
1.7570674e-06
1.8017678e-06
1.7800099e-06
1.8967005e-06
4.0390615e-06
7.4038008e-06
4.6341702e-06
8.0508801e-06
5.7494472e-06
7.9971404e-06
5.7027766e-06
7.8260806e-06
5.698256e-06
7.890416e-06
5.7870809e-06
8.2902989e-06
1.4873156e-05
2.409983e-05
1.5257426e-05
2.4611611e-05
1.5424893e-05
2.4779249e-05
1.5519288e-05
2.4862067e-05
1.558475e-05
2.4917244e-05
1.5642348e-05
2.4961212e-05
2.0309551e-05
3.3467955e-05
2.0907028e-05
3.435667e-05
2.1207352e-05
3.4659927e-05
2.1369933e-05
3.4813155e-05
2.1483097e-05
3.4918687e-05
2.1581749e-05
3.5007301e-05
3.1073893e-05
4.7554404e-05
3.2067595e-05
4.8956342e-05
3.2541945e-05
4.9465601e-05
3.2804962e-05
4.9733372e-05
3.2989282e-05
4.9922092e-05
3.31478e-05
5.0090879e-05
4.3890775e-05
5.2500597e-05
4.4889365e-05
5.3530836e-05
4.5407209e-05
5.387023e-05
4.5660597e-05
5.3967388e-05
4.5703797e-05
5.3977582e-05
4.5893275e-05
5.3990895e-05
4.2364726e-05
4.5133775e-05
4.3027063e-05
4.6026952e-05
4.3357797e-05
4.6366262e-05
4.3526651e-05
4.6511312e-05
4.3633862e-05
4.657882e-05
4.3721892e-05
4.6654691e-05
2.8176724e-05
2.6924568e-05
2.8461226e-05
2.7355752e-05
2.8580971e-05
2.7529084e-05
2.8642614e-05
2.762074e-05
2.8686096e-05
2.7680851e-05
2.8728243e-05
2.7751719e-05
6.8108083e-06
5.5125535e-06
6.7601933e-06
5.463542e-06
6.7312516e-06
5.4545524e-06
6.7105107e-06
5.4586858e-06
6.6912123e-06
5.4647019e-06
6.6702184e-06
5.4734609e-06
5.937479e-07
6.2964926e-07
5.6715935e-07
5.7464099e-07
5.5599519e-07
5.5625992e-07
5.4843162e-07
5.4530371e-07
5.4196269e-07
5.3637746e-07
5.3543272e-07
5.2729956e-07
1.895232e-06
1.656961e-06
1.8854285e-06
1.682187e-06
1.877163e-06
1.7245805e-06
1.8733783e-06
1.8003526e-06
1.8764775e-06
1.9404306e-06
1.9035644e-06
2.2177471e-06
2.0518474e-06
2.8915495e-06
1.2741321e-05
1.293245e-05
1.2738877e-05
1.2936962e-05
1.2731118e-05
1.2947979e-05
1.2715407e-05
1.2996228e-05
1.2710893e-05
1.3079527e-05
1.2695387e-05
1.3197356e-05
1.2696863e-05
1.3472519e-05
2.4420944e-05
2.3485378e-05
2.4457909e-05
2.3544009e-05
2.4506757e-05
2.3621115e-05
2.4622962e-05
2.378737e-05
2.4692268e-05
2.4017059e-05
2.4770548e-05
2.4304477e-05
2.4926878e-05
2.478871e-05
2.8051535e-05
2.8234425e-05
2.810191e-05
2.8150314e-05
2.816225e-05
2.8058697e-05
2.8245103e-05
2.791162e-05
2.8506802e-05
2.8088111e-05
2.8685163e-05
2.8369916e-05
2.8885167e-05
2.9053651e-05
2.2477917e-05
2.1662992e-05
2.248885e-05
2.1689478e-05
2.2500157e-05
2.1741641e-05
2.2513858e-05
2.1803661e-05
2.2534924e-05
2.1894366e-05
2.2578923e-05
2.196556e-05
2.2686152e-05
2.1981684e-05
1.2733577e-05
6.5865113e-06
1.171684e-05
7.3679903e-06
1.1896601e-05
8.0974908e-06
1.1911685e-05
7.4629077e-06
1.2322171e-05
6.7137662e-06
1.2723932e-05
7.7619992e-06
1.2767923e-05
8.98509e-06
1.7890072e-06
7.4874532e-07
1.8873888e-06
8.4540273e-07
1.7632173e-06
9.4453646e-07
1.8157047e-06
9.3374978e-07
1.8638849e-06
9.0366708e-07
2.0367729e-06
1.0329122e-06
2.2149139e-06
1.1705274e-06
4.2251655e-07
1.9747142e-07
4.3085653e-07
2.0373166e-07
4.4070758e-07
2.1076339e-07
4.4984666e-07
2.1975753e-07
4.6644718e-07
2.371118e-07
5.0925992e-07
2.7792994e-07
5.5858953e-07
3.235049e-07
2.734849e-07
1.3531144e-07
2.790087e-07
1.4038027e-07
2.8498476e-07
1.4566922e-07
2.9095361e-07
1.5231592e-07
3.0246294e-07
1.6698247e-07
3.3356849e-07
1.9764472e-07
3.7450554e-07
2.3642203e-07
2.5227403e-07
1.2648135e-07
2.5721521e-07
1.3138833e-07
2.637538e-07
1.3665165e-07
2.7041696e-07
1.4556395e-07
2.8265296e-07
1.6163636e-07
3.1667688e-07
1.9457343e-07
3.6493182e-07
2.3830218e-07
2.5473538e-07
1.2731622e-07
2.6160496e-07
1.3199204e-07
2.6893517e-07
1.3704165e-07
2.7667725e-07
1.4774927e-07
2.9053822e-07
1.6569896e-07
3.2794767e-07
2.0178023e-07
3.8384073e-07
2.5370579e-07
2.6038714e-07
1.2944082e-07
2.6755481e-07
1.3366174e-07
2.7573373e-07
1.4065522e-07
2.8527182e-07
1.5185151e-07
3.0163134e-07
1.7110293e-07
3.4306376e-07
2.1042478e-07
4.1064434e-07
2.7308276e-07
2.7071573e-07
1.3436903e-07
2.7822243e-07
1.4048482e-07
2.8750098e-07
1.4888213e-07
2.9916272e-07
1.6054837e-07
3.1900737e-07
1.8099567e-07
3.6622093e-07
2.2413221e-07
4.4724403e-07
2.9784316e-07
2.9035716e-07
1.4624258e-07
2.9443597e-07
1.5371572e-07
3.0426692e-07
1.6239992e-07
3.1829555e-07
1.7477257e-07
3.4294919e-07
1.9731992e-07
3.9839534e-07
2.4564301e-07
4.9912996e-07
3.3203204e-07
3.2216997e-07
1.6424586e-07
3.2471773e-07
1.7163035e-07
3.3450124e-07
1.808028e-07
3.5163907e-07
1.950937e-07
3.8266899e-07
2.2190373e-07
4.5007078e-07
2.7833532e-07
5.7513252e-07
3.805384e-07
3.5669344e-07
1.8894225e-07
3.6756937e-07
1.9547002e-07
3.7183566e-07
2.0500184e-07
3.9278952e-07
2.2071568e-07
4.3200244e-07
2.5116142e-07
5.1365479e-07
3.1667541e-07
6.6411394e-07
4.3561936e-07
4.1695963e-07
2.1427532e-07
4.1603764e-07
2.2089976e-07
4.1774934e-07
2.311961e-07
4.3684876e-07
2.4864763e-07
4.8370882e-07
2.834083e-07
5.8047608e-07
3.561362e-07
7.5807619e-07
4.8969719e-07
4.6288741e-07
2.3972999e-07
4.6096416e-07
2.4633114e-07
4.6124608e-07
2.5629545e-07
4.7796467e-07
2.7512887e-07
5.3029016e-07
3.1227031e-07
6.3907283e-07
3.9005849e-07
8.3624663e-07
5.3298573e-07
4.9630094e-07
2.6163197e-07
4.988155e-07
2.697403e-07
4.9722686e-07
2.7943281e-07
5.1323854e-07
2.9772812e-07
5.6661522e-07
3.3451363e-07
6.7919098e-07
4.1265414e-07
8.9016371e-07
5.6099919e-07
5.2781866e-07
2.8164175e-07
5.2834078e-07
2.8938832e-07
5.2611144e-07
2.9883631e-07
5.4218836e-07
3.1606397e-07
5.9352368e-07
3.5019928e-07
7.0331752e-07
4.2415418e-07
9.1541859e-07
5.6954862e-07
5.6368837e-07
3.0041675e-07
5.63992e-07
3.0796608e-07
5.6084631e-07
3.1716112e-07
5.705291e-07
3.3339547e-07
6.1813003e-07
3.6466197e-07
7.2234024e-07
4.3346079e-07
9.3254377e-07
5.7484622e-07
6.1348804e-07
3.230018e-07
6.1448774e-07
3.3026896e-07
6.1157776e-07
3.3907711e-07
6.1539526e-07
3.5548646e-07
6.5527468e-07
3.8692085e-07
7.570192e-07
4.5449085e-07
9.6642097e-07
5.9486444e-07
6.842047e-07
3.5458522e-07
6.9272089e-07
3.6212298e-07
6.9377138e-07
3.705271e-07
6.992425e-07
3.8717788e-07
7.1679443e-07
4.2181894e-07
8.1705513e-07
4.9556778e-07
1.0415929e-06
6.4741299e-07
7.5530713e-07
3.9332981e-07
7.6612554e-07
4.0106191e-07
7.6994738e-07
4.113702e-07
7.8001339e-07
4.3115288e-07
8.0274643e-07
4.7129827e-07
8.7768023e-07
5.5737445e-07
1.1106956e-06
7.3071858e-07
8.3055075e-07
4.4810042e-07
8.4459764e-07
4.5763495e-07
8.5426038e-07
4.7292606e-07
8.7196285e-07
5.0174048e-07
9.0240565e-07
5.5967857e-07
9.701236e-07
6.8195088e-07
1.2115646e-06
9.0649154e-07
9.9374688e-07
6.7225239e-07
1.0107894e-06
6.8931834e-07
1.0200384e-06
7.1710383e-07
1.0412013e-06
7.6833857e-07
1.0835997e-06
8.7105014e-07
1.1818254e-06
1.0841558e-06
1.3860574e-06
1.4644983e-06
1.7888108e-06
1.9947697e-06
1.8141014e-06
2.0471054e-06
1.8294512e-06
2.1360826e-06
1.8766344e-06
2.3018834e-06
1.9724149e-06
2.6315452e-06
2.1732666e-06
3.3080269e-06
2.4782307e-06
5.6293348e-06
5.8596474e-06
8.6821491e-06
5.9926795e-06
8.9172756e-06
6.0407358e-06
9.3226999e-06
6.2227215e-06
1.0070899e-05
6.6474765e-06
1.157772e-05
7.4446367e-06
1.5142941e-05
8.5605404e-06
1.9839121e-05
1.5702793e-05
2.499408e-05
1.5760051e-05
2.5032852e-05
1.5852234e-05
2.5088972e-05
1.6002417e-05
2.5160865e-05
1.6238486e-05
2.522782e-05
1.655338e-05
2.5194765e-05
1.67509e-05
2.4811993e-05
2.1681734e-05
3.5085883e-05
2.1783759e-05
3.5172517e-05
2.195292e-05
3.5309112e-05
2.2236167e-05
3.551409e-05
2.2695581e-05
3.5785417e-05
2.3345897e-05
3.6021225e-05
2.3864334e-05
3.5779574e-05
3.3297983e-05
5.0264888e-05
3.346108e-05
5.0439836e-05
3.3738192e-05
5.0729276e-05
3.421521e-05
5.1211012e-05
3.5026917e-05
5.1986956e-05
3.6295831e-05
5.3091747e-05
3.7530895e-05
5.4066219e-05
4.5909534e-05
5.4014121e-05
4.5944206e-05
5.4016815e-05
4.6062192e-05
5.4079669e-05
4.6361451e-05
5.4272036e-05
4.7128947e-05
5.4778564e-05
4.9218352e-05
5.6268541e-05
5.3977285e-05
6.0089417e-05
4.3757706e-05
4.6805663e-05
4.3811203e-05
4.696335e-05
4.3943137e-05
4.7243199e-05
4.4237329e-05
4.7759354e-05
4.4910863e-05
4.876632e-05
4.653084e-05
5.073862e-05
5.0354041e-05
5.4011639e-05
2.8737735e-05
2.7859049e-05
2.8764563e-05
2.7985077e-05
2.8834517e-05
2.8211068e-05
2.8992937e-05
2.8626121e-05
2.9384577e-05
2.9433983e-05
3.043052e-05
3.1032579e-05
3.3056418e-05
3.3708511e-05
6.6465611e-06
5.4928828e-06
6.6287175e-06
5.5161102e-06
6.6006958e-06
5.556873e-06
6.554374e-06
5.6191497e-06
6.4994902e-06
5.7366886e-06
6.5093159e-06
5.9752095e-06
6.8311989e-06
6.3146643e-06
5.2633228e-07
5.1431863e-07
5.1706829e-07
4.9977272e-07
5.0206165e-07
4.7446619e-07
4.7738729e-07
4.3079636e-07
4.3936489e-07
3.623801e-07
3.912122e-07
2.7241587e-07
3.5982176e-07
2.0191978e-07
2.2067656e-06
3.313706e-06
2.2583794e-06
3.4788266e-06
2.1547444e-06
3.2372098e-06
2.1407163e-06
3.0912276e-06
1.2610259e-05
1.3569327e-05
1.2508118e-05
1.3621461e-05
1.238756e-05
1.3659201e-05
1.3275929e-05
1.5530392e-05
2.5053526e-05
2.5070608e-05
2.5344982e-05
2.5351984e-05
2.6127406e-05
2.6091159e-05
2.9096346e-05
2.9442468e-05
2.9231731e-05
2.9493094e-05
2.9764401e-05
2.9657728e-05
3.110062e-05
3.0433396e-05
3.5088051e-05
3.4417856e-05
2.2640769e-05
2.1992227e-05
2.2790922e-05
2.2270291e-05
2.3038419e-05
2.2961861e-05
2.3780452e-05
2.4461769e-05
1.2618364e-05
9.9445849e-06
1.2600081e-05
1.1092571e-05
1.2554819e-05
1.3015579e-05
1.2757506e-05
1.3591243e-05
2.4004076e-06
1.2859256e-06
2.7567025e-06
1.4743279e-06
3.3513053e-06
1.9084345e-06
3.8644187e-06
2.4365655e-06
6.0111552e-07
3.5645926e-07
6.7082536e-07
3.9389441e-07
7.7569624e-07
4.6787356e-07
8.4743526e-07
5.3610008e-07
4.0674574e-07
2.6399404e-07
4.4859193e-07
2.892091e-07
5.0845591e-07
3.322385e-07
5.6514785e-07
3.7678845e-07
4.0296469e-07
2.7115821e-07
4.4429713e-07
2.9803378e-07
4.9750933e-07
3.3705952e-07
5.5169408e-07
3.7832963e-07