/*--------------------------------*- C++ -*----------------------------------*\
| =========                 |                                                 |
| \\      /  F ield         | OpenFOAM: The Open Source CFD Toolbox           |
|  \\    /   O peration     | Version:  2206                                  |
|   \\  /    A nd           | Website:  www.openfoam.com                      |
|    \\/     M anipulation  |                                                 |
\*---------------------------------------------------------------------------*/
FoamFile
{
    version     2.0;
    format      ascii;
    arch        "LSB;label=32;scalar=64";
    class       volScalarField;
    location    "300";
    object      omega;
}
// * * * * * * * * * * * * * * * * * * * * * * * * * * * * * * * * * * * * * //

dimensions      [0 0 -1 0 0 0 0];

internalField   nonuniform List<scalar> 
50904
(
5118520.7
5162528.4
5091581.5
5126738.3
1325769.7
1312050.9
1307598.5
1264875.2
521151.49
496016.74
511647.29
474580.73
271374.85
246619.13
260071.11
232569.83
142365.45
123971.73
131876
113528.03
52671.022
45967.405
46973.155
40703.836
13657.519
12724
12024.516
11400.702
3631.2752
3590.1237
3147.8532
3051.8188
723.75123
706.13986
585.63441
567.41473
130.60733
143.15786
106.87337
119.83442
42.373653
55.202626
40.403099
54.116804
33.811463
45.612589
34.093621
46.743282
32.14488
42.663301
32.447554
43.828188
30.441174
39.725535
30.695631
40.873197
28.553822
36.634296
28.751751
37.750485
26.545057
33.510596
26.670042
34.589548
24.637126
30.69521
24.761001
31.79733
22.982563
28.276744
23.076298
29.402981
21.34181
25.961064
21.49696
27.275205
19.98757
24.041007
20.179709
25.545767
18.910002
22.515272
19.067177
24.089393
18.111342
21.374964
18.258043
23.021227
17.612283
20.718034
17.848842
22.732874
17.649435
21.154776
18.549398
25.572796
20.227355
26.758317
26.20465
45.241742
42.096412
65.438562
79.496778
154.97323
200.20744
299.54031
389.87108
678.93373
1163.4439
1570.712
1910.7576
2833.532
5687.2368
7107.8073
8161.7153
11001.349
24050.906
29137.119
30038.353
37393.507
77136.645
88975.407
86588.438
99321.014
180322.67
187479.46
189147.86
192495.7
322865.05
316500.8
326674.54
314519.23
579034.88
567416.7
576477.55
559478.35
1261228.4
1256194.5
1244770.4
1243223.7
5083327.9
5087254.5
5124006.6
5116369.3
5027404.1
5031810.5
4943114.7
4899910
4906690.8
4823085.7
4887024.7
4782065.3
4876002.4
4757904.1
4869641.8
4743062.7
4865804.4
4733286.6
1274052.6
1226913.6
1248585.4
1227245.4
1247501
1237672.3
1248181.3
1244708.9
1249499
1250309.8
1250595.5
1254128.4
1251378
1256749.6
507577.08
467584.58
509092.09
477508.41
512564.36
483549.64
514246.04
485668.97
515268.32
487473.31
515888.96
488763.56
516339.79
489709.23
255103.9
228188.38
252546.6
227353.46
252839.99
226787.03
252828.82
225874.39
252765.39
225496
252725.62
225332.79
252697
225271.09
126894.24
109587.11
122452.22
106098.21
121609.21
104861.42
121025.35
103822.2
120671.15
103171.52
120445.67
102731.42
120280.47
102437.69
44457.577
38797.183
41700.394
37154.33
40909.412
36673.595
40367.078
35965.931
40010.761
35421.746
39770.245
35004.25
39636.17
34702.497
11356.159
11074.465
10446.403
11122.316
10156.355
11031.104
9996.8699
10634.025
9887.5806
10331.193
9805.8774
10102.079
9737.3973
9933.533
2881.2179
2811.7079
2498.4331
2573.8034
2378.9445
2476.0019
2316.1957
2363.9615
2275.9141
2290.4261
2247.8746
2239.1342
2226.4441
2202.138
521.29351
512.80873
438.69196
464.34483
414.77436
446.94675
402.35998
425.18508
394.4394
412.37469
388.96855
403.59902
384.82129
397.00461
95.707634
111.79799
81.371424
107.60022
77.262261
103.30752
75.000657
97.498906
73.379499
94.355759
72.214205
92.076304
71.321088
90.441956
39.191912
54.959975
36.702236
59.072488
35.87463
57.528095
35.204126
54.64519
34.58319
53.155894
34.099149
51.930284
33.720073
51.093833
33.848031
48.460161
32.57177
53.611312
32.134267
52.440194
31.644936
49.91455
31.126844
48.687574
30.713837
47.63967
30.391674
46.951036
32.24649
45.624326
31.168184
50.990283
30.793266
50.108428
30.320892
47.630135
29.814771
46.241668
29.420971
45.33936
29.122369
44.727711
30.589838
42.772459
29.702858
47.971871
29.326432
47.403853
28.852498
45.02047
28.363633
43.64106
27.997747
42.864137
27.72855
42.333
28.704919
39.692874
27.977338
44.346472
27.569296
43.982205
27.096031
41.747266
26.638048
40.577201
26.309831
39.910465
26.077432
39.472456
26.664245
36.550742
26.060883
40.444846
25.619228
40.072712
25.162753
38.174607
24.745187
37.179858
24.453977
36.634763
24.254629
36.295958
24.812946
33.817814
24.343354
37.029355
23.907772
36.539381
23.485514
34.884221
23.112712
34.004227
22.857307
33.518977
22.686351
33.222207
23.180819
31.472356
22.837398
34.106566
22.430937
33.501218
22.046347
32.079638
21.714584
31.323855
21.489552
30.906698
21.340928
30.655203
21.686735
29.322796
21.49507
31.6102
21.190748
31.016724
20.870642
29.818384
20.584568
29.183948
20.387251
28.831185
20.254993
28.619689
20.43396
27.505392
20.31719
29.485336
20.097534
28.927062
19.834827
27.930259
19.588868
27.414652
19.415219
27.13082
19.296713
26.964292
19.365236
25.926502
19.324865
27.672183
19.164248
27.153345
18.927764
26.279745
18.691982
25.833551
18.520071
25.621304
18.400983
25.613432
18.559354
24.770763
18.550109
26.379962
18.377546
25.927562
18.1111
25.197296
17.851433
24.846778
17.662322
24.680205
17.535449
24.615173
18.242726
24.769729
18.271252
26.669513
18.102812
26.36535
17.832873
25.719714
17.565478
25.422821
17.38163
25.297109
17.302573
25.278891
19.751832
30.455306
20.487266
35.843742
20.654612
37.034851
20.615219
36.943168
20.492384
36.910745
20.387862
36.901366
20.319985
36.908918
33.148118
66.519684
38.376793
91.430496
40.401824
101.25633
41.42912
104.41307
41.854037
106.00132
42.044656
106.80655
42.130532
107.27471
119.75919
254.06808
150.37207
369.53919
163.39926
425.76753
171.17381
451.47322
175.22272
464.57487
177.39793
471.54271
178.59474
475.5463
593.09858
1107.7328
746.44204
1618.2322
811.77869
1882.5165
853.21841
2021.7849
876.92276
2099.4942
890.42928
2140.521
898.14564
2162.6345
2688.2344
4186.9217
3232.0127
5723.652
3449.8131
6550.4095
3582.538
7012.6234
3659.4722
7283.0378
3703.4654
7438.6644
3728.2428
7521.3418
10796.093
15106.936
12607.419
19683.169
13364.593
22223.403
13805.923
23583.735
14063.437
24350.244
14215.738
24772.768
14305.009
25010.398
36297.814
45692.678
40160.893
55054.55
41956.224
60502.127
42972.248
63199.683
43516.125
64675.899
43885.204
65499.165
44111.423
65962.856
96905.53
108717.88
101594.87
120101.47
104483.56
128128.84
106339.73
132389.64
107411.95
134754.57
107972.52
136058.8
108318.2
136792.06
196094.63
196956.68
201717.93
208303.95
204183.11
217913.19
205599.2
223214.37
206511.61
226170.53
207072.31
227778.83
207400.04
228640.99
327914.34
313175.23
329881.03
322730.86
330527.25
333759.06
330758.75
340046.36
331071.86
343561.93
331360.92
345446.25
331513.49
346377.38
572777.75
548883.47
568506.28
549086.35
566443.27
558717.3
565184.11
565308.51
564961.46
569783.59
565040.18
572489.99
564921.84
573707.63
1220565.4
1216830
1192269.5
1172955.1
1179279.7
1151738.4
1171147.5
1139691.7
1167442.9
1136438.6
1167488.8
1138915.6
1168820.2
1142145.8
5112179
5090362
5063249.7
5015731.8
5039555.6
4977118.5
5026859.1
4955854.6
5019411.2
4943481.3
5014546.6
4935880.1
5010942.6
4930763.4
4862373.5
4724870.6
4858287.2
4715711
4854968.6
4708725.4
4851199.6
4701288.1
4845327.9
4690369.3
4833955.7
4669737.5
1251907.6
1258633.3
1252447.5
1260316.6
1252776.3
1261281.2
1253038.7
1262050.8
1253287.5
1262876.2
1253075
1263434.7
516722.04
490453.04
517158.53
491200.82
517473.11
491711.79
517747.17
492151.9
518000.21
492562.58
518085.59
492726.69
252669.04
225224.56
252677.09
225248.69
252646.85
225268.32
252587.66
225291.15
252484.77
225330.11
252288.19
225382.47
120148.09
102140.71
120044.88
101855.02
119948.69
101707.19
119824.56
101575.39
119620.5
101411.33
119193
101151.53
39544.674
34581.848
39480.017
34561.273
39434.189
34530.045
39394.344
34482.841
39327.554
34397.949
39116.957
34219.188
9677.4835
9853.9428
9617.6194
9819.3556
9569.8655
9779.446
9519.3786
9740.6274
9452.0009
9686.5467
9339.7826
9578.2975
2208.5193
2181.8357
2190.6404
2167.5083
2177.0664
2155.6875
2163.2734
2144.55
2144.6523
2129.5875
2110.9306
2100.6037
381.37849
392.00504
377.90434
388.44431
375.2841
385.81742
372.6236
383.42477
368.99577
380.34642
362.34072
374.47827
70.58099
89.140841
69.836428
87.956604
69.289984
87.215067
68.744753
86.54613
68.005108
85.711838
66.636194
84.165639
33.407343
50.41766
33.088774
49.712978
32.860987
49.271697
32.637211
48.882164
32.332645
48.408827
31.758283
47.547412
30.13049
46.401865
29.862996
45.817017
29.674072
45.394424
29.489082
45.031451
29.234557
44.595229
28.745949
43.821026
28.885354
44.262441
28.642265
43.764049
28.472406
43.398676
28.306291
43.043953
28.074918
42.620854
27.623636
41.877924
27.523186
41.948624
27.312618
41.536743
27.165067
41.233866
27.021042
40.931512
26.817853
40.524039
26.414965
39.808846
25.906691
39.166015
25.732936
38.840503
25.61141
38.599925
25.49262
38.354622
25.323433
38.004267
24.984441
37.326106
24.112498
36.070683
23.969428
35.835279
23.870795
35.663912
23.77435
35.485309
23.635947
35.215587
23.354771
34.627708
22.567225
33.02946
22.447441
32.832293
22.365676
32.692368
22.284967
32.546531
22.167396
32.322543
21.925087
31.827191
21.239799
30.495383
21.138432
30.333611
21.069957
30.220653
21.00195
30.102327
20.901666
29.918375
20.692022
29.507036
20.167042
28.489834
20.080049
28.360999
20.021467
28.273716
19.962705
28.182345
19.874771
28.038049
19.688731
27.709597
19.216615
26.861173
19.137502
26.760127
19.084401
26.696447
19.030207
26.630424
18.948841
26.524789
18.779733
26.279896
18.319022
25.528383
18.237961
25.4622
18.182721
25.426006
18.126165
25.390463
18.046077
25.330027
17.910705
25.173819
17.465502
24.567484
17.407095
24.52377
17.373204
24.50534
17.349078
24.484958
17.333888
24.44108
17.332131
24.307822
17.261167
25.23643
17.222544
25.201356
17.199315
25.189982
17.182875
25.177671
17.173062
25.147272
17.177817
25.045238
20.29025
36.924298
20.26768
36.943783
20.26152
36.99073
20.265343
37.041333
20.286117
37.095377
20.346667
37.142687
42.174716
107.59456
42.248904
107.98041
42.355913
108.41085
42.517918
108.87286
42.813976
109.45091
43.447866
110.34135
179.29918
478.0873
180.15369
480.79538
181.07284
483.50665
182.20953
486.46605
184.0324
490.40126
187.49235
497.12442
902.75442
2176.7665
908.1535
2191.9233
913.74192
2206.2639
920.49556
2221.882
930.6714
2243.2417
949.84142
2281.715
3742.6022
7570.5327
3763.8692
7630.3695
3785.7463
7685.1151
3812.2435
7745.7302
3852.498
7830.668
3929.7394
7987.6877
14358.949
25157.584
14439.832
25334.553
14521.878
25499.389
14620.909
25685.212
14769.448
25947.382
15051.382
26427.196
44252.453
66239.962
44460.948
66619.513
44673.087
66996.056
44931.176
67424.497
45321.789
68037.773
46077.084
69145.612
108544.79
137228.79
108879.94
137713.73
109232.49
138159.94
109663.29
138661.69
110305.79
139365.64
111461.98
140626.36
207603.52
229131.5
207929.33
229664.05
208247.65
230133.38
208622.68
230640.69
209171.61
231335.06
210175.01
232547.2
331568.43
346844.51
331798.34
347355.45
331977.88
347783.03
332171.04
348224.16
332455.3
348816.53
333022.82
349868
564606.83
574050.88
564481.07
574298.13
564226.56
574327.48
563937.93
574296.29
563687.62
574315.2
563735.41
574673.4
1169216.5
1143296.8
1169186.5
1142960.6
1167821.7
1140518.8
1165790.3
1136857.9
1163316.8
1131595.3
1161436.8
1124753.7
5008480.2
4926915.6
5013817
4930220.3
5018434.4
4932806.8
5023460.1
4935169
5031154.4
4938240.7
5042432
4941298.9
4814596
4642071.2
4800881.9
4626832.9
4796113.2
4621879.6
4793733.8
4619580.6
4791954.8
4617931.5
4790023.2
4616270.1
1250114.8
1259377.3
1249487.8
1256851.3
1249241.6
1254710.1
1248464.2
1252296.4
1247734.5
1251123
1246988.2
1250075.7
517634.29
491787.9
517354.02
490969.87
516980.23
489928.38
516560.86
488948.52
516207.52
488370.6
515823.82
487981.05
251661.91
225064.91
251036.68
224776.34
250653.99
224471.59
250497.18
224261.81
250418.6
224126.56
250366.71
224166.07
118328.38
100875.6
117601.77
100599.12
117412.25
100480.29
117344.38
100406.52
117324.14
100345.21
117357.36
100318.14
38660.612
33760.876
38165.855
33213.251
38048.52
33015.53
37998.573
32911.544
37967.295
32836.54
37949.976
32751.727
9098.1182
9259.6245
8862.8258
8854.9531
8793.4362
8687.2863
8758.3959
8594.2566
8734.1789
8525.0703
8710.0824
8451.5774
2031.3058
2018.6027
1954.5421
1924.4856
1931.2162
1890.6341
1919.5012
1873.5187
1911.3049
1861.554
1903.4412
1849.3533
346.6369
357.94793
331.74426
338.46458
327.13379
331.07367
324.80171
327.2411
323.15655
324.48767
321.56568
321.66083
63.339037
79.680904
60.257227
74.22002
59.326219
72.08152
58.850491
70.96147
58.510466
70.154289
58.174099
69.328485
30.326096
45.019287
28.969209
41.840368
28.556383
40.567333
28.339654
39.901425
28.18116
39.422447
28.020044
38.932247
27.504646
41.575657
26.318191
38.723043
25.954756
37.561536
25.760575
36.950332
25.616979
36.509873
25.470092
36.058878
26.460934
39.767585
25.341949
37.13441
25.005913
36.058756
24.82659
35.489038
24.694517
35.076136
24.55959
34.651685
25.363715
37.804115
24.336986
35.376698
24.016933
34.387054
23.855905
33.863389
23.73854
33.4809
23.619727
33.084623
24.100133
35.474261
23.233632
33.292602
22.902311
32.396331
22.734723
31.932189
22.615018
31.596799
22.498616
31.256173
22.61444
32.850461
21.885014
30.876278
21.604344
30.122863
21.462757
29.748379
21.360561
29.480987
21.256308
29.205705
21.285177
30.332382
20.647996
28.718225
20.400412
28.114044
20.276581
27.816887
20.187484
27.603721
20.099158
27.379953
20.136396
28.273242
19.575934
26.949721
19.360468
26.463681
19.264531
26.223956
19.202436
26.048092
19.142053
25.857674
19.198589
26.695
18.729311
25.571111
18.601722
25.171426
18.537637
24.969527
18.489884
24.821399
18.43742
24.658127
18.362925
25.468855
18.090659
24.471231
17.987762
24.13475
17.935564
23.970893
17.895333
23.847446
17.848644
23.705829
17.801899
24.515293
17.558878
23.572061
17.477229
23.29494
17.43557
23.159503
17.402061
23.054992
17.361388
22.93027
17.254504
23.721163
17.050287
22.880911
16.985111
22.644433
16.950286
22.527261
16.921077
22.433244
16.884635
22.317945
17.113769
24.537278
16.914866
23.800446
16.859614
23.598901
16.830007
23.495627
16.80383
23.409322
16.77181
23.301696
20.358542
36.782469
20.191871
36.240224
20.204681
36.131662
20.212118
36.070357
20.211048
36.006667
20.201011
35.907548
43.786676
110.58568
44.00139
110.75582
44.405436
110.9832
44.61606
111.05663
44.743426
111.04175
44.832163
110.8933
191.26456
503.54052
194.53698
510.13684
196.9885
512.88598
198.327
514.05058
199.167
514.55864
199.76683
514.45647
976.27743
2330.5388
1003.7083
2385.4786
1019.9576
2404.8328
1029.4878
2413.1044
1035.7857
2417.3197
1040.8754
2418.8234
4043.8973
8217.5657
4173.1886
8502.7493
4242.6895
8611.1868
4283.5154
8665.0413
4311.1418
8699.8283
4334.3494
8727.4005
15466.054
27102.759
15921.453
27888.188
16156.122
28187.767
16284.556
28338.633
16370.607
28438.512
16440.919
28516.902
47190.723
70521.22
48345.821
72125.117
49010.757
72755.609
49367.096
73076.407
49608.775
73293.842
49810.781
73472.193
113041.65
142355.31
115053.83
144301.81
116147.03
145049.67
116762.08
145432.5
117188.42
145691.8
117550.22
145903.7
211650.43
234096.8
213295.99
235542.43
214248.72
236065.37
214802.34
236318.06
215196.55
236479
215543.73
236589.87
334086.3
351077.9
335281.61
351751.1
335845.73
351816.7
336190.44
351771.06
336445.57
351691.3
336676.17
351535.36
564592.68
575247.77
565326.35
575098.76
565614.47
574653.01
565872.94
574185.47
566137.86
573745.83
566433.55
573190.16
1161999
1120408.2
1162277.5
1119686.2
1161517.9
1119254.3
1160965.7
1117996.7
1161011.4
1116819.6
1161750.4
1115742.8
5059562.6
4947734
5075441.3
4954844.1
5080528.9
4956829.6
5082571.7
4957271.9
5082987.3
4956663.1
5082382.7
4955235.2
4795812.5
4623582.7
4794332.6
4623577
4793947.4
4625148.5
4795898.3
4630054.8
4802336.4
4641673
4819252.2
4668804
4871595.8
4748742.6
1246237
1248764.5
1245069.1
1246615.2
1243918.8
1243683.1
1242906.5
1239079.2
1241750.9
1232193.3
1241370.4
1222865.4
1243157.5
1209063
515362.26
487500.18
515017.26
487009.49
514684.22
486320.23
514380.73
485197.45
514198.9
483212.67
514509.1
479893.21
516071.69
474013.15
250334.52
224322.32
250408.56
224606.74
250533.1
224881.62
250759.3
225148.38
251216.4
225327.99
252069.31
225209
254150.18
224648.98
117442.83
100437.52
117589.1
100657.35
117765.67
100978.01
118017.61
101362.11
118441.62
101887.66
119281.37
102371.01
121233.73
102858.62
37975.942
32635.994
38017.5
32646.096
38058.134
32704.176
38127.516
32826.176
38251.444
32934.081
38524.057
32888.476
39171.47
32965.976
8677.9237
8337.4182
8664.5697
8218.794
8664.7854
8149.6007
8648.2153
8134.4591
8633.5645
8091.3637
8618.0158
7894.2117
8661.6562
7725.2687
1893.3536
1831.7053
1885.1006
1815.6694
1876.921
1798.8935
1867.7809
1778.3427
1855.8748
1748.7589
1840.0577
1703.8597
1830.2283
1657.2912
319.50376
317.62854
317.76097
314.02589
315.97636
310.30018
313.88027
305.68965
311.0183
299.03037
306.89496
289.42895
302.57945
278.23501
57.72076
68.152883
57.310306
67.080999
56.867814
65.93802
56.329043
64.512043
55.565183
62.56093
54.389087
59.781928
52.950583
56.591891
27.796075
38.233214
27.593355
37.59105
27.370124
36.886053
27.08916
35.983605
26.680226
34.768169
26.035619
33.051498
25.206907
31.047984
25.266527
35.413189
25.077219
34.804582
24.861558
34.109313
24.584139
33.234799
24.178654
32.038565
23.540044
30.329802
22.696873
28.263996
24.367345
34.038686
24.177685
33.43935
23.95356
32.756082
23.65923
31.894795
23.227457
30.693114
22.552218
28.946208
21.647535
26.776007
23.450002
32.513513
23.271654
31.961453
23.04227
31.317926
22.729329
30.476488
22.26317
29.269578
21.536017
27.487283
20.546148
25.220167
22.347462
30.771886
22.185107
30.287475
21.962165
29.687276
21.641032
28.863566
21.152816
27.653205
20.393435
25.86449
19.36663
23.5963
21.10987
28.809108
20.96061
28.406375
20.761319
27.872119
20.444235
27.102406
19.953034
25.938891
19.196667
24.201765
18.190496
22.016218
19.986832
27.053281
19.875371
26.716126
19.702549
26.243825
19.41152
25.538076
18.934966
24.447416
18.204149
22.822669
17.248508
20.775613
19.054588
25.576033
18.961956
25.294843
18.812106
24.884855
18.550895
24.249295
18.104516
23.252861
17.419572
21.758615
16.535255
19.873854
18.356171
24.406861
18.271487
24.157595
18.139363
23.798641
17.906183
23.239325
17.505012
22.354785
16.88561
21.015317
16.075708
19.299575
17.774879
23.48049
17.697529
23.255314
17.579095
22.939141
17.374822
22.456688
17.028997
21.698333
16.490365
20.532087
15.765706
18.98344
17.295713
22.725355
17.227375
22.521895
17.126575
22.244156
16.957294
21.829501
16.664527
21.182047
16.201615
20.171358
15.553935
18.771749
16.826943
22.130215
16.771355
21.958924
16.690471
21.723472
16.555666
21.367568
16.314654
20.805128
15.912997
19.911774
15.331414
18.629928
16.720523
23.127833
16.676991
22.988575
16.612852
22.78628
16.505
22.462685
16.310581
21.926204
15.938171
21.045677
15.367332
19.750802
20.172891
35.728025
20.146479
35.586621
20.101373
35.360118
20.016945
34.97277
19.852019
34.297785
19.507883
33.135404
18.809867
31.267322
44.883548
110.49754
44.931397
110.2933
44.982615
109.89972
45.021697
109.14391
44.994453
107.72149
44.659006
105.08579
43.142964
100.1912
200.14196
513.29821
200.61641
512.99157
201.26965
512.13748
202.10777
510.14304
202.95332
505.83324
202.54384
496.5384
195.99716
474.93459
1045.5573
2416.7049
1048.533
2413.9555
1052.9167
2408.3288
1059.1137
2397.0452
1066.5693
2375.8207
1067.8546
2334.1049
1038.559
2230.3003
4357.6999
8751.1618
4374.6042
8770.6665
4401.7146
8797.8427
4444.7597
8832.5926
4508.7158
8868.4072
4580.8729
8866.6347
4565.9208
8688.0254
16506.581
28576.588
16567.11
28638.511
16667.819
28731.189
16831.894
28854.457
17083.484
28977.642
17387.222
28953.339
17451.086
28430.887
50006.128
73627.43
50202.128
73790.854
50530.878
74044.446
51083.206
74417.192
51977.734
74890.368
53226.733
75260.87
54178.613
74872.805
117900.33
146087.88
118279.34
146314.36
118917.8
146667.38
120011.09
147183.05
121873.95
147850.71
124831.17
148480.45
127857.65
148706.42
215920.13
236644.16
216324.1
236759.98
216987.55
236899.07
218102.91
236988.61
219933.75
236823.09
222690.91
235873.87
226286.13
234360.56
336973.59
351191.42
337315.67
350950.81
337840.3
350481.05
338648.41
349473.78
339757.44
347477.3
340790.61
342985.13
341674.03
336016.66
566839.22
572243.05
567225.01
571398.44
567713.18
569938.09
568318.73
567452.84
568398.73
562902.03
564660.28
554411.53
553281.94
539755.51
1163333.4
1114352.3
1164181.7
1112343.3
1165582.6
1109014.8
1168753.6
1105505.6
1175572.9
1102332.3
1190257.3
1104619.1
1218011.8
1132002.2
5096549.6
4968405.7
5108362
4980284.5
5125949.6
4997983.2
5156397.7
5028585.6
5213966
5086697.4
5329889.4
5204976.7
5562278.4
5443903.3
4927424.6
4833666.3
5007634.2
4942885
5124963.8
5092367.7
5301201.4
5293860.6
1252562.7
1214036.6
1270966.2
1237036.2
1306394.7
1290659.7
1357781
1361433.9
522626.99
476216.86
534281.09
487562.8
555638.4
518011.5
571316.14
550861.03
259625.53
228247.92
268299.82
236415.97
283364.17
255510.56
299761.6
280002.33
125154.12
105776.4
131192.48
111266.34
141217.56
123087.21
152098.6
138627.34
40464.578
33920.205
42602.965
35865.361
45847.27
39847.678
48240.048
44409.532
8817.5144
7757.5993
9141.1875
8016.5238
9520.4912
8491.5813
9386.3874
8723.0237
1832.6247
1642.7398
1863.2429
1679.7387
1860.2212
1724.081
1679.7774
1625.718
297.40421
270.5544
296.25651
271.18199
280.55625
264.48704
222.89401
222.33043
50.889228
53.506559
49.848368
52.58338
46.841356
50.747715
39.469365
45.500425
24.332844
29.247631
23.885041
28.661365
23.467203
28.546816
23.390589
29.402229
21.892715
26.46174
21.53538
25.885083
21.443443
26.000573
22.040068
27.434891
20.804451
24.894243
20.442379
24.271357
20.373375
24.364531
21.010627
25.787117
19.661129
23.306386
19.327559
22.703899
19.344055
22.864757
20.045487
24.331779
18.531857
21.811807
18.297128
21.311699
18.456948
21.564736
19.328878
23.166668
17.42553
20.380492
17.235136
19.942753
17.46686
20.263494
18.502914
22.060928
16.567424
19.292634
16.442166
18.934545
16.784104
19.356006
17.97611
21.321482
15.91302
18.492226
15.81148
18.159911
16.200448
18.617163
17.509104
20.687092
15.438962
17.911412
15.309786
17.537694
15.695149
17.972602
16.964392
20.002453
15.107805
17.565902
14.934646
17.123084
15.279023
17.486328
16.632958
19.65511
14.8614
17.301454
14.621812
16.755234
14.904034
17.046408
16.422796
19.461465
14.674314
17.214277
14.403036
16.59715
14.704203
16.902138
16.324472
19.507346
14.743303
18.344166
14.39
17.485623
14.752551
17.718408
16.415468
20.379356
17.847145
28.836308
16.795293
26.084497
16.717901
24.535164
18.238075
26.322581
40.101292
92.42163
34.326922
77.71718
30.408767
63.713127
29.959319
58.294504
180.04832
435.87999
148.18185
358.30212
120.56291
274.01874
104.4228
223.20686
940.86398
2026.4337
790.5561
1702.8577
636.24007
1266.0732
518.12975
972.8935
4358.6307
8350.137
3766.9431
7178.2221
3071.973
5453.8157
2470.0859
4030.8962
17172.244
28026.093
15288.658
25179.469
12865.711
20355.809
10521.488
15618.256
53885.563
74379.059
49315.77
68862.871
42922.296
59623.19
36239.968
48576.786
127795.67
148970.99
121002.83
143126.98
110609.71
132731.12
98363.951
118550.63
227899.59
235193.98
223499.13
233056.79
216171.69
227846.01
206795.98
220168.02
344226.58
336928.19
345848.81
341035.68
348087.55
344437.69
351737.95
349404.81
554266.96
540436.02
559990
550925.15
572106.29
564511.81
597485.22
585082.02
1227807.7
1160885.1
1233466.4
1173709.5
1247208.8
1192927.2
1267812.3
1225223.2
5651584.8
5549867.4
5524804.7
5447530.9
5381616.1
5331982.3
5238584.1
5218148.3
5157797
5105618.8
5080375.5
5018129.1
5017456.7
4944838.7
1333402.3
1321017
1317997.6
1292905.8
1361057.6
1341754.3
513365.76
522690.17
512818.66
516724.91
556035.99
561495.44
258320.16
277743.64
267305.21
282439.01
296891.09
309212.79
130718.67
146657.86
144676.93
158666.25
164970.5
173044.09
48502.163
54062.064
60496.79
66225.578
78485.781
81600.243
13076.198
13783.224
18974.751
20455.589
33317.266
34472.431
3748.5777
3640.2905
6253.373
6202.8312
15034.12
15191.019
761.40379
745.46749
2215.3712
2178.3684
7888.1851
7548.0668
154.81024
136.6445
591.75614
545.05882
4602.8944
4218.4316
57.262253
44.076716
181.57658
161.60679
2159.7311
1914.3177
46.522558
34.807128
78.295326
63.593873
821.29272
714.78375
43.739536
33.344321
55.834503
43.285906
348.98215
286.80928
40.954273
31.833018
48.855478
37.880098
137.83526
112.75141
37.941444
30.080738
44.720357
35.327501
76.388073
62.130202
34.755038
28.086976
40.194723
32.399214
55.551544
45.752094
31.727706
26.01299
35.806637
29.374372
44.978308
37.737606
29.201983
24.284768
32.289843
26.975544
36.936228
31.516538
26.77566
22.523107
29.210348
24.779133
32.089129
27.747624
24.800312
21.093913
26.514107
22.734155
30.022365
26.333832
23.415903
20.10167
24.806786
21.544857
28.240145
25.137226
22.474263
19.449486
23.802271
20.801318
27.457367
24.632265
21.892403
19.01454
23.241432
20.378713
27.484845
24.791063
22.013127
18.997152
23.26536
20.339885
27.699318
24.986116
25.174589
20.458533
24.821725
20.989423
28.273263
25.32859
50.665549
34.714813
38.257333
27.709136
32.102704
27.115979
228.1135
153.6174
145.52723
92.331204
66.891798
45.715328
1309.61
955.57071
862.40091
581.21205
348.18159
222.21695
6135.3794
4845.5913
4375.9968
3294.5329
2067.4989
1458.3385
26079.615
21027.232
20380.271
15816.12
10748.329
7814.9703
82049.987
68398.586
72350.84
58825.567
47338.001
36070.666
183160.6
171790.38
175220.3
160535.96
148496.65
126284.11
319475.1
321340.84
320609.46
317218.11
320438.01
308077.23
579920.29
588621.08
594766.73
602214.64
630163.47
634312.17
1272114.2
1280427.7
1282039.4
1298677.5
1380654.5
1412012.5
5033054.4
5026083.9
4970210.9
4975018.2
4933182.3
4951334.5
4935083
4872932
4904974.7
4946602.8
4995512.2
5062948.2
4927551.5
4865894.9
4894788
4932922.6
4979159.1
5045709.3
1185690.3
1350408.9
1268618.6
1251777.5
1269446.7
1301830.4
1181239.3
1336121.9
1264354.1
1251732.3
1269241.7
1297080
393650.39
573006.71
581217.95
561672.24
546256.13
534699.65
402783.4
581483.14
586475.65
566118.86
549078.65
534351.53
141395.94
240762.06
291365.12
303668.73
299355.96
288186.43
145821.71
250013.56
291253.13
298678.62
291814.67
279202.66
51154.703
93445.115
125729.75
147008.62
155341.86
153188.37
53628.001
97900.733
127166.75
144312.53
148567.27
144140.86
16931.023
32106.739
43097.189
50620.294
55091.531
56017.117
18158.552
33393.263
42425.598
48320.771
51229.634
50926.972
4801.9792
9281.7164
12114.634
13495.21
14195.14
14254.057
5247.9312
9513.1947
11301.525
12315.217
12686.303
12574.153
1107.3415
2152.6107
2760.0592
3032.7293
3250.9176
3474.4673
1225.7992
2156.6189
2481.2558
2697.1178
2871.4209
3088.9008
207.07235
410.07489
535.18301
606.35737
665.45944
709.61797
228.59422
396.48638
467.06613
518.4525
555.64605
582.46054
35.772213
64.029661
81.102544
92.889047
105.3536
118.52865
37.826579
58.14387
67.983592
76.95604
86.072869
96.427121
12.972458
16.823576
19.923339
23.21804
27.711159
34.039076
13.046273
15.764518
18.286526
21.401811
25.664993
31.899916
10.840363
12.294649
14.237513
16.846988
20.636534
26.226346
10.744648
12.160815
14.132412
16.773388
20.567732
26.244951
10.722363
12.003366
13.858559
16.374225
19.977608
25.199887
10.631211
11.937892
13.828665
16.357059
19.946462
25.239566
10.743988
11.929661
13.672348
16.030911
19.37519
24.151913
10.55364
11.765396
13.543187
15.913273
19.250756
24.102858
10.705553
11.80262
13.427212
15.616834
18.682423
22.991946
10.498411
11.598182
13.240297
15.429161
18.49018
22.870178
10.694629
11.713884
13.191803
15.172725
17.908177
21.703885
10.463288
11.447016
12.925242
14.890422
17.619571
21.488226
10.653193
11.578312
12.897791
14.666531
17.085519
20.41484
10.430836
11.303343
12.6199
14.369787
16.786125
20.193045
10.624824
11.476504
12.671567
14.255303
16.390024
19.300925
10.407968
11.184091
12.350993
13.900846
16.031514
19.030666
10.579192
11.338305
12.380654
13.769287
15.626217
18.151833
10.380275
11.05673
12.070193
13.421875
15.274074
17.899528
10.539527
11.221826
12.14224
13.364123
14.990739
17.202021
10.346559
10.937147
11.818407
13.001745
14.619182
16.938421
10.505988
11.13028
11.952888
13.035513
14.476065
16.441306
10.318735
10.833333
11.597453
12.634379
14.054708
16.121356
10.494863
11.082308
11.837419
12.819941
14.120285
15.892673
10.313049
10.785284
11.467367
12.393875
13.669085
15.545953
10.501843
11.090813
11.805855
12.710426
13.90455
15.541956
10.313009
10.768948
11.397746
12.248612
13.436932
15.213707
10.514213
11.11019
11.806355
12.675498
13.830635
15.465403
10.324201
10.777699
11.380342
12.195418
13.377118
15.297553
10.558628
11.182789
11.902547
12.818516
14.158266
16.424216
10.341213
10.836504
11.488844
12.450962
14.176057
17.954798
10.654337
11.621743
12.819816
14.685049
18.350544
26.269524
10.519512
11.505406
13.026273
15.942226
22.884113
40.283404
12.560175
17.992832
25.600543
38.256714
63.566863
113.30783
13.031156
20.126174
31.382698
52.588552
99.227598
198.19042
34.755776
86.797698
154.88333
256.05867
431.63483
729.88253
41.266837
105.90384
198.05447
348.18292
629.33383
1130.2721
227.34872
615.22804
1069.3729
1658.8785
2556.4319
3906.0902
270.2575
719.55158
1276.7175
2063.5452
3348.7527
5397.7984
1446.4056
3529.8496
5767.3527
8464.7444
12288.679
17652.807
1640.7013
3976.2018
6561.1245
9864.7783
14793.419
21859.374
7503.4199
16099.301
24126.069
33319.903
45497.211
61401.088
8136.8877
17375.006
26248.652
36778.63
51396.683
69782.287
31101.147
57306.23
78418.772
103355.78
131374.74
162576.66
32605.458
60239.131
83435.219
110528.97
143221.39
173244.16
107948.5
169196.66
215653.58
279818.71
312008.51
322071.3
110711.86
175847.54
230800.96
295196.46
323714.26
330766
339410.5
477464.36
581545.93
615498.49
604787.76
588785.4
344446.63
498300.8
620047.11
634638.91
613077.29
591964.18
1116047.4
1438572.7
1389025.8
1307834.5
1268236.3
1257306.5
1132148.2
1452285.3
1384284.4
1295219.6
1254445.5
1242569.2
4988233.5
4900016.2
4917264.7
4960181.2
5007985
5056312.6
4995600.9