/*--------------------------------*- C++ -*----------------------------------*\
| =========                 |                                                 |
| \\      /  F ield         | OpenFOAM: The Open Source CFD Toolbox           |
|  \\    /   O peration     | Version:  2206                                  |
|   \\  /    A nd           | Website:  www.openfoam.com                      |
|    \\/     M anipulation  |                                                 |
\*---------------------------------------------------------------------------*/
FoamFile
{
    version     2.0;
    format      ascii;
    arch        "LSB;label=32;scalar=64";
    class       volScalarField;
    location    "300";
    object      p;
}
// * * * * * * * * * * * * * * * * * * * * * * * * * * * * * * * * * * * * * //

dimensions      [1 -1 -2 0 0 0 0];

internalField   nonuniform List<scalar> 
50904
(
106943.94
106247.14
106926.95
106239.35
106944.23
106246.93
106923.38
106233.84
106944.93
106248.12
106921.44
106231.57
106946.54
106251.53
106919.09
106229.86
106949.94
106259.53
106918.33
106232.79
106955.73
106272.98
106918.99
106240.23
106965.03
106293.19
106922.63
106253.8
106979.51
106323.03
106931.88
106277.24
107001.35
106366.02
106947.65
106312.34
107033.45
106425.98
106974.5
106365.08
107079.45
106507.33
107017.19
106441.03
107143.5
106615.5
107078.36
106543.5
107230.9
106755.09
107165.92
106680.41
107343.62
106927.06
107281.15
106852.74
107484.85
107131.91
107427.58
107061.87
107630.85
107334.98
107580.13
107272.34
107761.66
107511.75
107717.01
107456.18
107879.11
107665.77
107838.96
107616.03
107979.18
107795.22
107941.54
107748.98
108063.91
107902.56
108029.24
107860.46
108132.86
107987.86
108100.09
107949.21
108188.54
108053.27
108156.4
108017.34
108227.55
108094.5
108193.2
108057.83
108253.04
108116.89
108215.08
108077.22
108270.3
108129.27
108228.83
108085.32
108282.43
108136.14
108237.83
108087.69
108291.45
108140.14
108244.27
108087.41
108298.34
108142.63
108249.13
108086.2
108303.59
108144.81
108252.79
108085.01
108307.52
108146.51
108255.56
108084.41
108310.52
108147.76
108257.75
108084.07
108312.84
108148.83
108259.45
108083.95
108314.6
108149.76
108260.68
108084.24
108315.96
108150.75
108261.64
108084.86
108316.95
108151.63
108262.31
108085.49
108318.11
108152.68
108263.11
108086.21
107026.43
106415.55
107336.24
106946.2
107459.85
107204.11
107528.05
107352.23
107568.6
107440.59
107595.87
107499.72
107616.23
107544.18
107019.1
106404.14
107326.43
106928.41
107450.03
107184.31
107518.33
107332.02
107558.92
107420.14
107586.12
107478.68
107606.37
107522.68
107014.2
106399.1
107319.85
106918.49
107444.04
107173.61
107513.18
107322.92
107554.59
107413.01
107582.54
107473.41
107603.31
107518.78
107007.84
106392.44
107310.37
106902.96
107434.62
107156.28
107503.83
107305.03
107545.17
107394.7
107572.93
107454.61
107593.55
107499.64
107002.57
106389.81
107302.25
106889.11
107427.42
107141.06
107497.77
107292.59
107540.13
107384.29
107568.63
107445.78
107589.75
107491.61
106997.7
106389.62
107293.45
106873.99
107418.95
107122.99
107489.55
107274.18
107532.29
107366.09
107561.07
107428.24
107582.26
107475.52
106994.78
106393.62
107286.2
106861.45
107412.64
107107.9
107484.18
107260.04
107527.45
107353.33
107556.56
107416.48
107577.98
107464.12
106997.27
106406.7
107283.22
106855.16
107409.8
107097.46
107481.72
107248.42
107525.29
107341.82
107554.54
107404.91
107575.97
107452.18
107005.57
106428.67
107285.52
106854.09
107412.37
107091.82
107484.65
107240.12
107528.43
107332.95
107557.71
107395.28
107579.07
107441.83
107024.61
106466.5
107296.76
106862.68
107422.97
107093.21
107495.08
107238.15
107538.85
107329.8
107567.95
107391.57
107589.01
107437.23
107060.51
106527.67
107323.84
106893.72
107448.21
107114.13
107519.56
107253.87
107562.92
107343.09
107591.52
107403.43
107611.98
107447.54
107114.92
106613.68
107367.28
106947.43
107489.15
107156.16
107559.13
107290.1
107601.64
107376.14
107629.43
107434.28
107649.01
107476.31
107199.17
106737.79
107439.51
107039.48
107557.35
107234.32
107624.9
107361.73
107665.52
107443.55
107691.88
107498.01
107710.05
107536.74
107311.38
106897.85
107536.76
107169.61
107651.03
107351.91
107716.23
107473.13
107754.93
107550.05
107779.73
107600.33
107796.56
107635.4
107455.04
107095.3
107660.6
107335.85
107771.01
107507.42
107833.28
107621.65
107869.83
107692.92
107892.82
107738.78
107907.98
107769.77
107609.38
107301.58
107796.26
107516.79
107900.51
107675.66
107958.98
107780.46
107992.78
107844.82
108013.62
107885.49
108026.91
107912.09
107749.45
107484.31
107919.87
107680.46
108017.03
107825.83
108071.25
107920.91
108102.17
107978.41
108120.89
108014.18
108132.44
108036.85
107874.18
107644.25
108029.51
107824.42
108119.24
107957.73
108169.14
108043.74
108197.27
108095.01
108214.03
108126.46
108224.15
108145.91
107982.51
107782.44
108123.52
107949.05
108204.35
108069.2
108249.18
108145.73
108274.25
108190.88
108289.06
108218.36
108298.18
108235.51
108074.77
107899.62
108202.97
108054.63
108274.62
108162.26
108314.39
108230.19
108336.71
108270.18
108349.95
108294.53
108358.15
108309.83
108148.02
107992.01
108263.62
108135.19
108327.46
108232.37
108362.92
108293.34
108382.89
108329.47
108394.77
108351.19
108402.19
108364.93
108204.08
108061.88
108308.95
108194.09
108366.48
108283.84
108398.42
108339.63
108416.42
108372.29
108427.16
108391.99
108433.71
108404.23
108239.13
108103.04
108336.62
108226.74
108389.71
108310.04
108419.1
108361.63
108435.61
108391.58
108445.32
108409.29
108451.16
108420.09
108258.12
108122
108350.93
108239.98
108401.58
108319.27
108429.63
108368.19
108445.2
108396.2
108454.29
108412.7
108459.7
108422.63
108268.92
108129.16
108358.99
108243.22
108408.37
108320.68
108435.77
108368.18
108450.9
108395.17
108459.64
108410.92
108464.78
108420.27
108275.31
108130.55
108364.06
108242.37
108412.84
108318.99
108440.02
108365.72
108454.94
108392.16
108463.51
108407.51
108468.5
108416.5
108279.71
108128.93
108367.93
108240.22
108416.48
108316.65
108443.6
108362.97
108458.46
108388.99
108466.96
108404.13
108471.87
108412.94
108282.94
108126.75
108371.02
108238.68
108419.75
108315.93
108446.92
108362.43
108461.76
108388.3
108470.24
108403.22
108475.11
108411.87
108285.39
108124.76
108373.48
108237.61
108422.59
108316.79
108449.92
108363.65
108464.84
108389.75
108473.31
108404.78
108478.14
108413.35
108287.29
108123.23
108375.71
108237
108425.36
108318.54
108452.9
108366.25
108467.82
108392.84
108476.12
108407.84
108480.88
108416.33
108288.83
108122.33
108377.55
108237.23
108427.64
108321.06
108455.25
108369.31
108470.21
108396.06
108478.63
108411.17
108483.4
108419.54
108290.07
108121.8
108378.9
108237.58
108429.3
108323.2
108457.05
108371.96
108472.05
108398.87
108480.49
108414.07
108485.26
108422.51
108290.96
108121.7
108379.83
108238.03
108430.4
108324.68
108458.21
108373.77
108473.2
108400.65
108481.62
108415.82
108486.36
108424.31
108291.68
108122.09
108380.51
108238.62
108431.18
108325.58
108459.03
108374.98
108474
108401.91
108482.4
108417.1
108487.16
108425.73
108292.19
108122.64
108380.95
108239.13
108431.64
108326.03
108459.46
108375.58
108474.37
108402.44
108482.62
108417.4
108487.28
108425.83
108292.79
108123.37
108381.51
108239.87
108432.19
108326.74
108460
108376.38
108474.88
108403.22
108483.06
108418.02
108487.68
108426.34
107634.16
107583.08
107649.61
107615.79
107662.64
107642.33
107678.54
107673.63
107706.18
107726.77
107768.38
107845.18
107624.52
107561.97
107639.67
107593.64
107652.33
107618.85
107667.91
107649.46
107695.97
107705.07
107760.27
107830.59
107621.62
107558.75
107637.41
107592.41
107650.65
107619.44
107666.29
107650.7
107692.86
107703.33
107755.43
107825.24
107611.82
107539.67
107627.3
107572.78
107640.34
107599.58
107656.28
107631.9
107684.24
107688.67
107748.63
107816.86
107608.31
107532.08
107624.16
107565.88
107637.46
107593.23
107653.4
107625.88
107680.67
107682.52
107744.17
107812.25
107600.78
107516.86
107616.7
107551.11
107630.24
107579.26
107646.37
107613.14
107674.13
107672.14
107739.03
107806.96
107596.65
107505.71
107612.62
107540.23
107626.1
107568.66
107642.38
107602.77
107670.28
107662.33
107734.96
107800.35
107594.59
107493.64
107610.51
107528.17
107623.98
107556.63
107640.31
107590.86
107668.39
107650.91
107733.31
107791.75
107597.48
107482.97
107613.22
107517.24
107626.56
107545.55
107642.76
107579.58
107670.63
107639.42
107735.16
107781.86
107607.05
107477.53
107622.45
107511.39
107635.54
107539.34
107651.48
107572.99
107678.93
107632.23
107742.64
107774.71
107629.36
107486.22
107644.22
107518.99
107656.88
107546.06
107672.32
107578.68
107698.9
107636.17
107760.46
107775.47
107665.51
107512.78
107679.64
107543.9
107691.7
107569.72
107706.43
107600.77
107731.83
107655.45
107790.61
107788.72
107725.25
107570.1
107738.32
107598.71
107749.49
107622.51
107763.16
107651.1
107786.75
107701.3
107841.11
107824.07
107810.18
107664.92
107821.97
107690.26
107832.1
107711.42
107844.53
107736.81
107866.08
107781.37
107915.11
107889.9
107919.89
107795.11
107930.16
107816.71
107939.07
107834.91
107950.09
107856.77
107969.3
107895.13
108012.15
107987.32
108037.19
107933.37
108046.01
107951.41
108053.75
107966.77
108063.37
107985.29
108080.21
108017.69
108117.06
108094.4
108141.32
108054.73
108148.92
108069.89
108155.67
108082.9
108164.11
108098.72
108178.95
108126.51
108210.78
108191.42
108231.86
108161.12
108238.5
108174.06
108244.46
108185.26
108251.96
108198.97
108265.19
108223.17
108293.05
108279
108304.94
108248.69
108310.8
108259.89
108316.11
108269.62
108322.84
108281.6
108334.7
108302.84
108359.5
108351.95
108364.24
108321.58
108369.49
108331.42
108374.27
108340
108380.39
108350.63
108391.27
108369.66
108414.07
108414.09
108407.7
108375.54
108412.43
108384.25
108416.76
108391.9
108422.37
108401.43
108432.63
108418.65
108453.98
108459.24
108438.64
108413.63
108442.91
108421.37
108446.93
108428.22
108452.28
108436.88
108462.04
108452.73
108481.93
108490
108455.51
108428.34
108459.39
108435.25
108463.12
108441.5
108468.16
108449.52
108477.42
108464.3
108495.94
108498.62
108463.67
108430.07
108467.28
108436.39
108470.8
108442.2
108475.58
108449.79
108484.39
108463.86
108501.69
108495.7
108468.49
108427.14
108471.92
108433.04
108475.31
108438.52
108479.97
108445.78
108488.38
108459.37
108504.68
108489.34
108472.04
108422.98
108475.34
108428.57
108478.61
108433.81
108483.1
108440.87
108491.3
108454.14
108507.03
108482.65
108475.31
108419.15
108478.52
108424.53
108481.71
108429.61
108486.08
108436.54
108494.14
108449.66
108509.5
108477.3
108478.48
108417.86
108481.62
108423.07
108484.77
108428
108489.09
108434.79
108497.06
108447.74
108512.09
108474.72
108481.46
108419.12
108484.54
108424.14
108487.65
108428.9
108491.92
108435.56
108499.8
108448.4
108514.62
108474.9
108484.13
108421.91
108487.13
108426.67
108490.21
108431.21
108494.5
108437.67
108502.4
108450.25
108517.05
108476.4
108486.64
108424.91
108489.63
108429.49
108492.67
108433.87
108496.86
108440.18
108504.63
108452.84
108519.16
108479.08
108488.47
108427.78
108491.4
108432.24
108494.4
108436.55
108498.54
108442.78
108506.22
108455.34
108520.62
108481.33
108489.53
108429.57
108492.41
108433.98
108495.39
108438.32
108499.53
108444.59
108507.21
108457.19
108521.52
108483.11
108490.35
108431.11
108493.25
108435.64
108496.23
108440.09
108500.33
108446.33
108507.88
108458.64
108522.02
108484.31
108490.5
108431.27
108493.46
108435.98
108496.49
108440.59
108500.62
108447
108508.17
108459.36
108522.22
108484.93
108490.95
108431.96
108494.02
108437.08
108497.07
108441.88
108501.15
108448.24
108508.54
108460.24
108522.42
108485.45
107840.58
107962
107876.69
108002.42
107889.27
108013.95
107896.09
108018.89
107901.56
108022.14
107907.65
108025.05
107834.4
107953.26
107871.7
107996.19
107884.66
108008.92
107891.41
108014.89
107896.88
108018.82
107903.19
108022.86
107830.6
107950.93
107869.58
107997.01
107883.3
108010.56
107890.39
108017.44
107895.91
108022.27
107902.3
108026.66
107825.63
107948.9
107865.88
107998.99
107880.05
108013.11
107887.17
108020.8
107892.49
108026.99
107899.09
108032.71
107822.69
107950.92
107864.32
108006.14
107879.35
108021.72
107887.82
108029.19
107893.84
108035.89
107900
108042.94
107819.31
107953.47
107862.3
108014.02
107877.57
108032
107885.92
108040.34
107893.1
108046.38
107900.87
108053.87
107817.38
107955.15
107862.22
108022.4
107878.39
108043.12
107887.15
108053.26
107894.17
108060.63
107902.46
108068.63
107817.16
107954.21
107863.65
108028.47
107880.57
108052.21
107889.8
108064.15
107897.22
108073.17
107905.84
108083.29
107819.92
107951.36
107867.9
108032.65
107885.54
108059.45
107895.21
108073.24
107903.03
108083.88
107912.13
108095.98
107827.5
107949.28
107876.65
108036.95
107894.93
108066.62
107905.02
108082.18
107913.2
108094.38
107922.76
108108.37
107843.51
107950.63
107892.76
108042.26
107911.33
108074.06
107921.66
108091
107930.07
108104.45
107939.91
108120.02
107870.57
107959.97
107919.05
108052.86
107937.61
108085.83
107948.02
108103.65
107956.53
108117.94
107966.48
108134.59
107915.31
107984.28
107961.22
108073.72
107979.07
108106.2
107989.18
108123.98
107997.48
108138.32
108007.15
108155.13
107981.64
108032.61
108023.49
108114.1
108040.03
108144.35
108049.48
108161.08
108057.27
108174.67
108066.3
108190.62
108069.43
108108.49
108105.97
108179.17
108120.66
108205.91
108129.09
108220.83
108136.08
108233.06
108144.12
108247.47
108165.56
108194.93
108196.78
108254.41
108209.55
108277.4
108216.91
108290.27
108223.03
108300.91
108230.09
108313.65
108252.19
108276.03
108278.98
108326.63
108290.11
108346.49
108296.52
108357.62
108301.9
108366.88
108308.18
108378.05
108329.38
108352.07
108352.95
108396.2
108362.85
108413.65
108368.55
108423.4
108373.37
108431.56
108379.05
108441.59
108393.11
108418.32
108414.55
108458.21
108423.29
108473.31
108428.32
108481.78
108432.54
108488.89
108437.53
108497.79
108446.06
108476.17
108466.71
108513.97
108474.38
108526.98
108478.8
108534.28
108482.6
108540.56
108487.28
108548.75
108484.75
108517.94
108504.92
108554.36
108511.73
108565.65
108515.69
108572.02
108519.16
108577.61
108523.54
108585.2
108511.09
108544.96
108530.76
108579.74
108537.17
108590.07
108540.91
108595.92
108544.26
108601.17
108548.5
108608.36
108523.34
108549.74
108542.22
108582.52
108548.57
108592.46
108552.29
108598.09
108555.56
108603.11
108559.53
108609.83
108527.42
108543.73
108545.5
108574.76
108551.77
108584.36
108555.45
108589.79
108558.66
108594.61
108562.42
108600.96
108529.19
108534.91
108546.66
108564.58
108552.85
108573.88
108556.5
108579.15
108559.64
108583.81
108563.24
108589.83
108530.51
108526.13
108547.43
108554.88
108553.52
108563.98
108557.13
108569.15
108560.22
108573.7
108563.68
108579.46
108532.19
108519.36
108548.68
108547.68
108554.68
108556.72
108558.25
108561.87
108561.29
108566.39
108564.66
108572
108534.14
108515.74
108550.25
108543.64
108556.16
108552.6
108559.67
108557.73
108562.66
108562.22
108565.93
108567.7
108536.21
108515.26
108552.02
108542.86
108557.87
108551.76
108561.33
108556.86
108564.26
108561.34
108567.43
108566.69
108538.25
108516.4
108553.76
108543.64
108559.51
108552.39
108562.91
108557.45
108565.79
108561.9
108568.9
108567.15
108540.11
108518.56
108555.39
108545.37
108561.09
108554
108564.44
108559
108567.25
108563.44
108570.28
108568.56
108541.33
108520.26
108556.37
108546.57
108561.98
108555.05
108565.28
108559.99
108568.05
108564.4
108571.01
108569.45
108541.99
108521.69
108556.84
108547.79
108562.4
108556.26
108565.66
108561.19
108568.41
108565.6
108571.32
108570.63
108542.26
108522.58
108556.91
108548.42
108562.38
108556.87
108565.59
108561.78
108568.29
108566.15
108571.16
108571.17
108542.31
108522.97
108556.86
108548.57
108562.34
108557.06
108565.53
108562
108568.18
108566.32
108571
108571.3
108542.29
108523.17
108556.69
108548.52
108562.13
108557
108565.26
108561.91
108567.81
108566.11
108570.61
108571.03
107914.09
108026.94
107920.18
108027.24
107926.43
108025.96
107933.67
108021.65
107942.77
108009.54
107951.23
107972.4
107927.83
107832.19
107909.92
108025.71
107916.51
108026.76
107923.08
108026.13
107930.92
108022.88
107941.21
108012.29
107951.22
107977.22
107929.43
107838.73
107909.13
108030.07
107915.6
108031.75
107922.39
108031.46
107930.33
108028.28
107940.85
108018.37
107951.91
107985.2
107931.57
107848.39
107906.46
108037.18
107913.3
108039.86
107920.71
108040.53
107929.58
108038.18
107941.24
108029.53
107954.05
107998.75
107935.81
107864.25
107907.29
108048.62
107914.52
108052.85
107922.19
108054.82
107931.45
108053.71
107943.83
108046.34
107958.35
108018.27
107942.67
107886.61
107908.02
108061.36
107915.43
108067.13
107923.93
108071.71
107934.2
108073.02
107948.23
108067.72
107965.19
108043.57
107952.88
107916.1
107911.2
108076.71
107919.02
108083.82
107927.74
108090.16
107939.04
108094.51
107954.46
108092.69
107974.41
108073.78
107966.62
107952.43
107914.89
108093.11
107923.66
108101.07
107933.51
108108.56
107945.93
108115.3
107963.56
108119.24
107987.06
108107.23
107985.11
107996.02
107921.69
108107.95
107931.07
108118.1
107941.88
108128.18
107955.8
108138.35
107976.01
108147.82
108004.06
108144.63
108009.62
108046.68
107932.85
108122.43
107942.91
108134.91
107954.75
108147.96
107970.36
108162.35
107993.46
108178.38
108026.62
108185.51
108040.58
108104.25
107950.4
108135.98
107961.07
108150.71
107973.95
108166.88
107991.3
108185.97
108017.44
108209.4
108056.21
108228.19
108079.75
108166.54
107977.25
108152.02
107988.47
108168.74
108002.41
108187.99
108021.53
108211.96
108050.78
108242.97
108095.08
108274.01
108127.87
108232.74
108017.84
108173.2
108029.33
108191.36
108044.03
108213.25
108064.63
108241.49
108096.52
108279.72
108145.35
108322.85
108185.9
108302.02
108076.45
108208.28
108087.81
108226.99
108102.88
108250.52
108124.58
108282.19
108158.51
108326.52
108210.49
108379.22
108254.92
108374.96
108153.26
108263.67
108164.02
108281.86
108178.93
108305.98
108201.12
108339.86
108236.31
108388.47
108289.77
108447.27
108334.42
108453.76
108238.05
108328.01
108247.91
108344.98
108262.14
108368.67
108283.96
108403.42
108318.82
108454.5
108371.1
108516.58
108412.78
108529.14
108315.04
108390.55
108323.87
108405.96
108337.08
108428.42
108357.88
108462.62
108391.31
108513.94
108441.11
108577.31
108479.71
108594.44
108385.04
108452.51
108392.87
108466.2
108404.95
108487.04
108424.39
108519.68
108455.9
108569.78
108502.74
108632.92
108539.21
108654.39
108443.18
108507.83
108450.13
108520.04
108460.96
108538.81
108478.35
108568.38
108506.79
108614.81
108549.88
108676.51
108587.58
108706.05
108492.46
108557.95
108498.8
108569.01
108508.41
108585.59
108523.64
108611.45
108548.6
108652.7
108587.63
108711.3
108627.96
108749.93
108528.36
108593.67
108534.12
108603.62
108542.62
108618.13
108555.89
108640.47
108577.7
108676.58
108612.95
108731.25
108656.13
108779.04
108552.74
108615.82
108557.81
108624.4
108565.37
108637.11
108577.35
108656.98
108597.29
108689.72
108630.37
108741.25
108675.36
108794.73
108563.42
108616.44
108567.86
108623.81
108574.89
108635.36
108586.43
108654.19
108606.12
108686.14
108639.32
108737.62
108685.92
108795.25
108566.04
108606.94
108570.17
108613.69
108576.97
108624.7
108588.44
108643.24
108608.34
108675.24
108642.41
108727.51
108691.02
108788.75
108566.71
108595.46
108570.75
108601.99
108577.57
108612.99
108589.32
108631.83
108609.93
108664.52
108645.46
108718.49
108696.11
108784.33
108567.06
108584.92
108571.1
108591.46
108578.05
108602.71
108590.16
108622.25
108611.55
108656.45
108648.55
108713.05
108700.75
108781.87
108567.97
108577.43
108572.06
108584.14
108579.17
108595.85
108591.65
108616.34
108613.76
108652.29
108652.05
108711.55
108705.23
108781.62
108569.19
108573.13
108573.33
108580.02
108580.56
108592.19
108593.33
108613.7
108616.03
108651.66
108655.28
108713.76
108708.8
108784.04
108570.63
108572.12
108574.8
108579.22
108582.15
108591.85
108595.18
108614.35
108618.37
108654.3
108658.14
108718.13
108710.97
108786.51
108572.05
108572.57
108576.26
108579.83
108583.72
108592.84
108596.98
108615.98
108620.52
108657.04
108660.5
108722.22
108712.6
108788.06
108573.38
108573.87
108577.58
108581.18
108585.05
108594.44
108598.4
108618.11
108622.07
108659.7
108662.02
108724.96
108713.52
108788.15
108574.05
108574.72
108578.26
108582.17
108585.77
108595.75
108599.18
108619.85
108622.9
108661.73
108662.74
108726.12
108713.75
108786.86
108574.32
108575.88
108578.5
108583.38
108585.99
108597.05
108599.4
108621.24
108623.15
108662.96
108662.92
108726.43
108713.63
108785.3
108574.13
108576.47
108578.34
108584.06
108585.85
108597.82
108599.28
108622.01
108623.05
108663.54
108662.76
108726.21
108713.29
108783.82
108573.99
108576.7
108578.17
108584.32
108585.64
108598.02
108599.06
108622.17
108622.83
108663.55
108662.51
108725.76
108712.94
108782.68
108573.61
108576.47
108577.81
108584.09
108585.31
108597.75
108598.77
108621.9
108622.6
108663.19
108662.3
108725.03
108712.65
108781.49
107881.23
107706.28
107861.28
107631.94
107885.11
107622.19
107913.94
107607.29
107883.47
107712.53
107863.44
107636.79
107886.84
107625.33
107914.87
107609.24
107886.05
107721.37
107865.75
107643.21
107888.55
107629.01
107915.82
107611.38
107890.87
107735.98
107869.99
107653.78
107891.57
107635.38
107917.45
107615.26
107898.33
107757.02
107876.52
107670.07
107896.27
107645.55
107920.21
107621.54
107909.38
107785.14
107886.33
107692.97
107903.37
107660.55
107924.44
107631.09
107924.37
107820.57
107899.85
107722.69
107913.35
107681.15
107930.59
107644.75
107944.63
107864.44
107918.43
107761.08
107927.41
107709.24
107939.62
107664.24
107971.6
107917.57
107943.82
107809.87
107947.32
107747.3
107952.96
107692.02
108006.47
107979.95
107977.35
107869.81
107974.54
107796.79
107972.04
107729.9
108050.32
108050.38
108020.4
107940.79
108010.8
107858.96
107998.41
107779.59
108103.93
108127.85
108074.34
108023
108058.84
107936.25
108035.79
107845.62
108167.72
108210.64
108139.47
108114.15
108119.35
108027.31
108085.67
107928.11
108241.49
108298.75
108215.82
108214.36
108193.82
108132.82
108150.8
108028.65
108325.32
108393.02
108302.89
108322.19
108281.05
108249.24
108232.19
108145.95
108406.29
108480.31
108386.8
108420.91
108366.9
108358.23
108315.48
108260.23
108475.2
108554.5
108458.33
108503.56
108440.72
108449.5
108391.01
108358.71
108536.66
108621.14
108521.78
108575.92
108506.23
108528.33
108457.24
108443.04
108588.03
108680.16
108575.6
108640.35
108561.95
108597.02
108515.05
108515.34
108633.48
108733.01
108623.61
108697.95
108611.52
108657.2
108565.34
108576.6
108667.49
108772.04
108660.32
108741.82
108651.21
108704.69
108605.96
108624.68
108692.99
108797.34
108689.28
108772.36
108683.06
108739.77
108639.64
108661.66
108708.19
108805.9
108708.28
108787.46
108704.7
108760.64
108663.07
108684.04
108717
108806.78
108720.1
108795.07
108717.9
108772.17
108677.88
108695.51
108723.98
108807.56
108728.29
108800.13
108726.18
108778.42
108687.81
108700.83
108729.12
108807.07
108733.47
108801.5
108730.77
108778.91
108693.96
108701.11
108733.45
108806.81
108736.7
108800.66
108733.32
108775.63
108698.05
108698.5
108735.44
108808.23
108738.53
108799.35
108734.56
108771.41
108700.82
108694.7
108736.71
108808.92
108739.31
108798.07
108734.93
108767.35
108702.67
108690.6
108737.39
108808.76
108739.6
108796.77
108734.86
108763.99
108703.87
108687.37
108737.59
108807.5
108739.56
108795
108734.61
108761.26
108704.62
108685.17
108737.32
108805.31
108739.16
108792.62
108734.12
108758.48
108705.04
108683.38
108736.8
108803.11
108738.54
108790.19
108733.45
108755.73
108705.16
108681.73
108736.18
108801.17
108737.85
108788.04
108732.74
108753.36
108705.11
108680.31
108735.62
108799.69
108737.24
108786.36
108732.12
108751.5
108704.99
108679.21
108735.08
108798.15
108736.65
108784.62
108731.52
108749.58
108704.95
108678.1
106393.76
107081.97
106589.47
107223.02
106829.34
107423.15
106397.8
107084.91
106594.78
107226.86
106834.29
107427.32
106402.25
107087.56
106599.97
107230.26
106839.05
107431
106409.9
107092.01
106608.5
107235.52
106846.88
107436.58
106421.82
107098.46
106620.59
107242.68
106857.88
107443.99
106439.54
107107.93
106638.01
107252.74
106873.65
107454.12
106464.29
107121.23
106661.72
107266.23
106895.17
107467.56
106498.29
107139.44
106693.12
107283.96
106923.42
107484.82
106545.95
107165.51
106736.36
107308.49
106962
107507.99
106609.76
107201.21
106793.78
107341.34
107013.92
107539.1
106693.07
107249.23
106868.37
107384.94
107081.99
107579.98
106802.31
107314.65
106966.4
107443.84
107171.82
107634.65
106940.28
107401.08
107090.63
107521.62
107285.95
107706.26
107107.27
107510.36
107243.15
107621.09
107428.54
107798.71
107303.43
107644.65
107423.49
107743.73
107599.96
107916.14
107498.92
107785.62
107606.68
107876.24
107775.03
108044.37
107668.67
107911.88
107766.68
107997.06
107927.44
108163.06
107816.89
108026.91
107907.06
108108.22
108060.35
108271.84
107940.29
108125.86
108024.81
108204.27
108174.1
108362.36
108041.18
108209.5
108118.51
108282.58
108264.38
108435.92
108122.99
108281.36
108196.48
108352.98
108338.92
108503.75
108184.09
108338.74
108252.94
108406.92
108391.28
108553.74
108220.99
108379.65
108287.55
108444.48
108420.55
108587.54
108243.87
108407.09
108307.32
108469.25
108434.93
108608.93
108257.2
108425.63
108317.92
108485.26
108440.8
108621.43
108264.72
108438.57
108323.55
108495.68
108442.58
108628.96
108269.24
108447.7
108326.63
108502.5
108442.38
108633.43
108272.19
108454.28
108328.23
108507.05
108441.4
108635.78
108274.39
108459.01
108329.33
108510.2
108440.61
108637.32
108275.92
108462.36
108329.84
108512.19
108439.8
108637.81
108277.25
108464.88
108330.18
108513.6
108439.03
108637.94
108278.2
108466.67
108330.54
108514.47
108438.65
108637.99
108279.03
108467.91
108330.86
108514.97
108438.45
108637.82
108279.84
108468.86
108331.21
108515.33
108438.4
108637.71
108280.49
108469.51
108331.52
108515.54
108438.44
108637.6
108281.24
108470.26
108331.92
108515.81
108438.55
108637.5
108611.11
108465.07
108299.72
108097.49
107823.63
107463.52
108592.01
108445.79
108282.61
108080.47
107809.08
107451.53
108611.34
108466.48
108300.95
108098.57
107824.52
107463.94
108591.69
108446.44
108282.99
108080.57
107808.56
107449.77
108611.41
108468.25
108302.25
108099.64
107825.4
107464.45
108591.25
108447.49
108283.49
108080.74
107808.2
107448.53
108611.8
108470.46
108304.04
108101.22
107826.83
107465.51
108590.9
108448.85
108284.28
108081.14
107807.97
107447.18
108612.33
108473.21
108306.26
108103.29
107828.94
107467.51
108590.49
108450.59
108285.32
108081.84
107808.15
107446.43
108613.05
108476.75
108309.17
108106.08
107831.98
107470.78
108590.08
108452.87
108286.8
108082.96
107808.83
107446.31
108614.02
108481.25
108312.95
108109.84
107836.32
107475.9
108589.63
108455.82
108288.88
108084.74
107810.41
107447.5
108615.36
108486.91
108317.83
108114.89
107842.5
107483.84
108589.25
108459.66
108291.84
108087.64
107813.72
107451.57
108617.36
108494.06
108324.29
108121.86
107851.47
107495.99
108588.95
108464.71
108296.08
108092.1
107819.31
107459.16
108620.12
108503.01
108332.74
108131.29
107864.1
107513.97
108588.98
108471.18
108301.99
108098.79
107828.52
107472.8
108624.68
108514.16
108343.9
108144.3
107882.23
107540.66
108589.7
108479.55
108310.46
108109.13
107843.69
107496.21
108630.89
108527.76
108358.63
108162.05
107907.61
107578.81
108591.12
108490.11
108322.19
108124.08
107866.26
107531.4
108641.08
108545.52
108379.12
108186.98
107943.23
107632.52
108595.39
108503.62
108338.59
108145.79
107899.57
107583.84
108653.99
108565.64
108405.1
108220.74
107992.24
107705.44
108600.12
108519.84
108361.42
108177.46
107947.9
107657.65
108664.16
108586.44
108437.24
108264.73
108056.53
107800.05
108605.48
108536.94
108390.45
108220.56
108013.66
107755.74
108678.13
108610.59
108474.5
108315.21
108127.89
107902
108612.93
108555.25
108423.36
108269.23
108085.88
107861.4
108692.04
108632.74
108507.85
108362
108194.03
107995.43
108621.43
108571.78
108453.66
108314.82
108153.01
107958.13
108707.45
108655.68
108542.32
108408.8
108257.37
108081.76
108630.87
108587.75
108482.9
108358.44
108215.55
108045.99
108721.44
108674.59
108572.02
108450.18
108312.8
108156.24
108639.75
108600.95
108507.68
108395.98
108269.15
108120.61
108735.21
108691.85
108599.06
108488.49
108362.51
108220.77
108648.41
108612.65
108529.65
108429.66
108316.7
108185.51
108750.67
108708.33
108623.73
108522.21
108405.69
108274.78
108657.81
108622.52
108547.91
108458.24
108356.57
108238.69
108771.74
108727.65
108646.9
108552.32
108443.19
108319.64
108671.06
108633.03
108564.18
108483.06
108390.01
108281.56
108797.31
108748.85
108668.69
108577.98
108472.75
108352.66
108686.61
108643.95
108578.02
108502.68
108414.6
108310.82
108820.51
108764.79
108685.76
108597.48
108494.39
108375.34
108701.04
108652.02
108587.53
108516.35
108431.05
108329.12
108842.63
108778.15
108699.01
108612.77
108510.83
108391.55
108714.09
108658.21
108594.75
108526.77
108442.97
108341.4
108860.62
108789.08
108710.63
108625.04
108523.43
108403.43
108726.22
108662.66
108600.04
108534.54
108451.56
108349.77
108877.97
108797.24
108719.29
108634.72
108533.13
108412.33
108737.13
108665.75
108604.1
108540.64
108458.13
108355.87
108892.19
108803.66
108726.59
108642.72
108540.86
108419.18
108746.69
108667.87
108607.31
108545.46
108463.26
108360.52
108904.59
108808.49
108732.42
108649.06
108546.97
108424.49
108755.09
108669.21
108609.86
108549.23
108467.24
108364.05
108915.12
108812.11
108736.89
108654.29
108551.79
108428.58
108762.18
108670.08
108611.87
108552.23
108470.41
108366.83
108923.77
108814.83
108740.55
108658.46
108555.6
108431.82
108768.2
108670.56
108613.51
108554.51
108472.85
108368.95
108930.99
108816.86
108743.4
108661.69
108558.66
108434.41
108773.17
108670.84
108614.81
108556.33
108474.8
108370.66
108936.87
108818.44
108745.76
108664.31
108561.05
108436.4
108777.3
108671.04
108615.82
108557.82
108476.33
108371.94
108941.64
108819.6
108747.59
108666.32
108562.9
108437.94
108780.62
108671.13
108616.58
108558.89
108477.45
108372.93
108945.71
108820.29
108748.88
108667.77
108564.28
108439.08
108783.62
108671.04
108617.09
108559.67
108478.28
108373.65
108950.06
108822.07
108750.66