/*--------------------------------*- C++ -*----------------------------------*\
| =========                 |                                                 |
| \\      /  F ield         | OpenFOAM: The Open Source CFD Toolbox           |
|  \\    /   O peration     | Version:  2206                                  |
|   \\  /    A nd           | Website:  www.openfoam.com                      |
|    \\/     M anipulation  |                                                 |
\*---------------------------------------------------------------------------*/
FoamFile
{
    version     2.0;
    format      ascii;
    arch        "LSB;label=32;scalar=64";
    class       surfaceScalarField;
    location    "300";
    object      phi;
}
// * * * * * * * * * * * * * * * * * * * * * * * * * * * * * * * * * * * * * //

dimensions      [1 0 -1 0 0 0 0];

oriented        oriented;

internalField   nonuniform List<scalar> 
146294
(
1.4411626e-06
-3.8250705e-07
-1.957187e-07
2.8567473e-07
-1.1485035e-06
-5.2341749e-07
-3.5104571e-07
3.8812218e-07
1.9275092e-06
1.0522911e-06
-1.6554048e-07
-4.2554524e-07
-8.4370894e-07
-2.5658077e-07
-5.8282117e-07
1.3682744e-06
3.0570645e-06
-8.0331686e-07
-4.425736e-07
6.655851e-07
-2.6723844e-06
-9.8473788e-07
-7.7265281e-07
8.1921245e-07
3.6442034e-06
2.1666667e-06
-3.7791591e-07
-8.3461135e-07
-1.9229898e-06
-5.7777509e-07
-1.024189e-06
2.5273132e-06
4.5879719e-06
-1.1715915e-06
-7.2680119e-07
1.0192183e-06
-4.151336e-06
-1.375493e-06
-1.2709584e-06
1.2092147e-06
5.2525573e-06
3.2259001e-06
-6.2941337e-07
-1.1756937e-06
-2.9702996e-06
-9.6814477e-07
-1.3833933e-06
3.624169e-06
6.3467103e-06
-1.5769131e-06
-1.0632259e-06
1.4289005e-06
-5.8622249e-06
-1.8061627e-06
-1.8638369e-06
1.6542883e-06
7.091467e-06
4.4436481e-06
-9.2476441e-07
-1.546947e-06
-4.1782569e-06
-1.4342194e-06
-1.7771067e-06
4.8806676e-06
8.5076047e-06
-2.0766471e-06
-1.4558961e-06
1.9394008e-06
-7.9776771e-06
-2.3423258e-06
-2.5453375e-06
2.2065248e-06
9.3249054e-06
5.9282947e-06
-1.2655754e-06
-2.0073568e-06
-5.6567744e-06
-1.9757718e-06
-2.2747654e-06
6.4022841e-06
1.1085455e-05
-2.6814048e-06
-1.9283795e-06
2.5411068e-06
-1.0472652e-05
-3.0095099e-06
-3.33855e-06
2.8719078e-06
1.2016271e-05
7.7007309e-06
-1.6721081e-06
-2.5761221e-06
-7.3994763e-06
-2.6103345e-06
-2.9078236e-06
8.2336076e-06
1.4354174e-05
-3.4464616e-06
-2.5256664e-06
3.2835518e-06
-1.3593978e-05
-3.8718197e-06
-4.3003171e-06
3.7128465e-06
1.5474912e-05
9.9469792e-06
-2.1852071e-06
-3.3074036e-06
-9.572939e-06
-3.3764042e-06
-3.7351618e-06
1.0576388e-05
1.8497612e-05
-4.4113954e-06
-3.2634418e-06
4.2088041e-06
-1.755724e-05
-4.9644622e-06
-5.4629076e-06
4.7718453e-06
1.9852819e-05
1.2814049e-05
-2.8175024e-06
-4.2377361e-06
-1.2355411e-05
-4.2993337e-06
-4.7873757e-06
1.3559892e-05
2.3731425e-05
-5.6219548e-06
-4.1792703e-06
5.3567003e-06
-2.2550345e-05
-6.349479e-06
-6.8661667e-06
6.1011317e-06
2.5383029e-05
1.6452381e-05
-3.6026591e-06
-5.4182145e-06
-1.5870966e-05
-5.4203046e-06
-6.1310456e-06
1.7354917e-05
2.9924716e-05
-7.0193147e-06
-5.0822187e-06
6.6662068e-06
-2.8668662e-05
-7.8941112e-06
-8.3259496e-06
7.5755077e-06
3.1703101e-05
2.082537e-05
-4.3641005e-06
-6.803949e-06
-2.0279295e-05
-6.5795231e-06
-7.6440475e-06
2.1734523e-05
3.8280284e-05
-8.8378981e-06
-6.1279547e-06
8.4000159e-06
-3.6796669e-05
-9.9649539e-06
-1.0009382e-05
9.5740399e-06
4.0354628e-05
2.6607705e-05
-5.254301e-06
-8.5832377e-06
-2.5972166e-05
-7.9377424e-06
-9.6513167e-06
2.7652287e-05
4.9983315e-05
-1.1259365e-05
-7.3292295e-06
1.0742866e-05
-4.8265545e-05
-1.2720332e-05
-1.1945534e-05
1.2250612e-05
5.2389185e-05
3.4673643e-05
-6.285294e-06
-1.0947236e-05
-3.395478e-05
-9.535166e-06
-1.2321831e-05
3.5872565e-05
6.339911e-05
-1.3876062e-05
-8.303336e-06
1.3204764e-05
-6.175371e-05
-1.5637957e-05
-1.3824593e-05
1.5065709e-05
6.5850413e-05
4.4003939e-05
-7.0481382e-06
-1.3559347e-05
-4.3557811e-05
-1.1050667e-05
-1.5153387e-05
4.5034868e-05
8.3509104e-05
-1.7475684e-05
-9.5835595e-06
1.6642113e-05
-8.1395313e-05
-1.9634991e-05
-1.5256867e-05
1.8916477e-05
8.565989e-05
5.7916547e-05
-8.1764575e-06
-1.7122184e-05
-5.714173e-05
-1.2154463e-05
-1.9041055e-05
5.8426405e-05
0.00010808226
-2.1559767e-05
-1.0478412e-05
2.0570119e-05
-0.00010619776
-2.3945607e-05
-1.6083104e-05
2.3148473e-05
0.00010970562
7.4674792e-05
-9.0427873e-06
-2.1109714e-05
-7.4258519e-05
-1.2791085e-05
-2.3184105e-05
7.4549908e-05
0.00011246232
-2.1161613e-05
-1.0954319e-05
2.020239e-05
-0.0001110272
-2.3380607e-05
-1.6326598e-05
2.2590221e-05
0.0001134962
7.7601491e-05
-9.6355858e-06
-2.0714786e-05
-7.7455524e-05
-1.3063069e-05
-2.2649383e-05
7.7142247e-05
0.00011763517
-2.0921433e-05
-1.1080679e-05
2.0128903e-05
-0.00011671628
-2.2958707e-05
-1.6078414e-05
2.2297167e-05
0.00011804852
8.0873169e-05
-9.9128028e-06
-2.0381659e-05
-8.1135731e-05
-1.2945306e-05
-2.2158829e-05
7.9955523e-05
0.0001235977
-2.0608373e-05
-1.0852896e-05
2.004925e-05
-0.00012326637
-2.2370115e-05
-1.5431933e-05
2.2065314e-05
0.00012325601
8.3904688e-05
-9.6594576e-06
-2.011718e-05
-8.4649233e-05
-1.2276127e-05
-2.1788215e-05
8.2653604e-05
0.00013346347
-1.9925325e-05
-1.0592781e-05
2.0159086e-05
-0.00013395735
-2.0529832e-05
-1.5098925e-05
2.210989e-05
0.00013155039
8.3992475e-05
-8.4908901e-06
-1.998943e-05
-8.5096944e-05
-1.0871138e-05
-2.1661122e-05
8.3718772e-05
0.00014737942
-2.0140864e-05
-9.9938954e-06
2.0523734e-05
-0.00014836118
-1.9018698e-05
-1.4110962e-05
2.2551412e-05
0.00014285873
8.2250419e-05
-7.3474982e-06
-2.0198119e-05
-8.3336562e-05
-9.3594911e-06
-2.1994871e-05
8.371494e-05
0.00016159001
-2.0474715e-05
-8.9401835e-06
2.0881076e-05
-0.00016305009
-1.7693237e-05
-1.2304196e-05
2.2999258e-05
0.00015447722
8.0857667e-05
-6.1335213e-06
-2.055579e-05
-8.1990573e-05
-7.6365795e-06
-2.2490417e-05
8.3931932e-05
0.0001727488
-2.1276038e-05
-7.09157e-06
2.1357044e-05
-0.00017467843
-1.7290317e-05
-9.3611999e-06
2.3518389e-05
0.00016357773
8.2543597e-05
-5.1119245e-06
-2.0933705e-05
-8.3907531e-05
-6.1310852e-06
-2.3083e-05
8.6830784e-05
0.00014267228
-1.7182045e-05
-5.6022286e-06
1.7247139e-05
-0.00014422672
-1.3368987e-05
-6.7441999e-06
1.8952032e-05
0.00013447222
6.9235615e-05
-4.1582727e-06
-1.6898196e-05
-7.047312e-05
-4.6371559e-06
-1.8766712e-05
7.3139404e-05
0.00011646964
-1.3764378e-05
-4.4755929e-06
1.3831701e-05
-0.00011766361
-1.030304e-05
-4.6477364e-06
1.5161567e-05
0.00010951465
5.7409147e-05
-3.3966489e-06
-1.3515736e-05
-5.8419416e-05
-3.3492657e-06
-1.5088132e-05
6.0906347e-05
9.4318584e-05
-1.0999194e-05
-3.6471279e-06
1.1031728e-05
-9.5179601e-05
-7.9475675e-06
-3.1240804e-06
1.2071474e-05
8.8670992e-05
4.7098398e-05
-2.7649371e-06
-1.0803914e-05
-4.7925397e-05
-2.2899615e-06
-1.2091771e-05
5.0183284e-05
7.5048114e-05
-8.6400744e-06
-3.0538818e-06
8.6762801e-06
-7.5677574e-05
-6.0489158e-06
-2.0733618e-06
9.4666226e-06
7.0579678e-05
3.7763412e-05
-2.3210352e-06
-8.4662071e-06
-3.8381184e-05
-1.545623e-06
-9.4974187e-06
4.0467573e-05
6.1069473e-05
-6.9659443e-06
-2.6110499e-06
6.9922667e-06
-6.1538652e-05
-4.7399477e-06
-1.3522494e-06
7.6129994e-06
5.7475264e-05
3.090811e-05
-1.9752642e-06
-6.8130282e-06
-3.1406806e-05
-1.0343436e-06
-7.6415252e-06
3.3298387e-05
4.9146909e-05
-5.5811904e-06
-2.2469444e-06
5.5595267e-06
-4.9489363e-05
-3.7017252e-06
-8.9018318e-07
6.0537963e-06
4.6332742e-05
2.507271e-05
-1.6279408e-06
-5.4670275e-06
-2.5534199e-05
-6.9073468e-07
-6.1196588e-06
2.7147023e-05
3.8822067e-05
-4.3799834e-06
-1.9589208e-06
4.3678785e-06
-3.9098018e-05
-2.8524656e-06
-6.5534946e-07
4.749383e-06
3.6690249e-05
1.9847476e-05
-1.3641013e-06
-4.2789609e-06
-2.0212349e-05
-5.7125526e-07
-4.8045464e-06
2.1680044e-05
3.0575851e-05
-3.4250586e-06
-1.7457731e-06
3.4227044e-06
-3.0786664e-05
-2.2083056e-06
-5.5659447e-07
3.7262484e-06
2.89591e-05
1.5636643e-05
-1.1593088e-06
-3.3388332e-06
-1.5927665e-05
-4.9714614e-07
-3.7626553e-06
1.7116859e-05
2.391111e-05
-2.6516823e-06
-1.4426758e-06
2.6740028e-06
-2.4236564e-05
-1.6714606e-06
-3.7537987e-07
2.8423669e-06
2.25589e-05
1.2186491e-05
-9.0750607e-07
-2.5855403e-06
-1.2504446e-05
-3.362042e-07
-2.9166263e-06
1.3270668e-05
1.780277e-05
-1.9085482e-06
-9.5625844e-07
1.887555e-06
-1.826822e-05
-1.1643219e-06
-1.2689132e-07
1.9720229e-06
1.6746512e-05
8.9813721e-06
-5.841226e-07
-1.891482e-06
-9.3218283e-06
-1.6950746e-07
-2.1529351e-06
9.8032535e-06
1.2597021e-05
-1.2712434e-06
-4.9967615e-07
1.1878388e-06
-1.297023e-05
-7.5851031e-07
2.4660075e-08
1.238234e-06
1.1965666e-05
6.3167514e-06
-3.0726935e-07
-1.3171678e-06
-6.5476891e-06
-7.7802049e-08
-1.5439877e-06
7.0104803e-06
8.477883e-06
-7.9457632e-07
-1.9530191e-07
6.6991047e-07
-8.6576266e-06
-4.6739388e-07
7.0207273e-08
7.1497313e-07
8.184667e-06
4.2472934e-06
-1.2243772e-07
-8.8049243e-07
-4.3462192e-06
-3.3611183e-08
-1.0737918e-06
4.8094507e-06
4.932854e-06
-4.2288957e-07
-3.8034776e-08
3.0358031e-07
-4.9708577e-06
-2.4288624e-07
5.0429152e-08
3.3803843e-07
4.8573637e-06
2.4772099e-06
-2.4296121e-08
-5.1569551e-07
-2.4825592e-06
-3.3140179e-09
-6.5813508e-07
2.8620955e-06
1.6214445e-06
-1.1895803e-07
6.0346029e-08
-1.6008674e-06
-5.9442544e-08
7.2022297e-08
1.6592939e-06
8.2243849e-07
-1.7117309e-07
-7.9451961e-07
-2.2749068e-07
9.8717259e-07
1.2467095e-06
-4.6097814e-07
-2.2052537e-07
-9.9075298e-07
-5.5467959e-07
-2.810868e-07
1.4996522e-06
3.2236492e-07
-4.450209e-07
-7.2906353e-08
-2.6542165e-07
-5.6128361e-07
-5.4330517e-08
3.8329483e-07
1.4084032e-07
-4.2493647e-07
-3.5584025e-08
-1.2534788e-07
-5.4154271e-07
-2.4885197e-08
1.4598457e-07
7.3522361e-08
-4.1011517e-07
-1.9960435e-08
-6.8386972e-08
-5.1887997e-07
-1.6344013e-08
6.720452e-08
4.4571386e-08
-3.9960382e-07
-1.2514965e-08
-4.2569772e-08
-4.9940131e-07
-1.1054954e-08
3.6148131e-08
3.1014168e-08
-3.9172197e-07
-8.8391037e-09
-3.005825e-08
-4.8272194e-07
-8.2069574e-09
2.2542094e-08
2.456284e-08
-7.0402904e-09
-3.8526613e-07
-2.39794e-08
-6.8054469e-09
-4.6749966e-07
1.6146286e-08
2.5658243e-06
-8.3668175e-07
-5.1540525e-07
-2.2688735e-06
-8.9444255e-07
-6.5060642e-07
2.8055936e-06
7.0760316e-07
-8.0689484e-07
-1.7391941e-07
-6.363841e-07
-9.008538e-07
-1.6286435e-07
8.2254451e-07
3.3181252e-07
-7.756961e-07
-8.792614e-08
-3.106746e-07
-8.7430062e-07
-8.5338581e-08
3.657127e-07
1.8161343e-07
-7.5413958e-07
-5.0039165e-08
-1.7309375e-07
-8.4815048e-07
-5.2273872e-08
1.9139365e-07
1.1377258e-07
-7.3943255e-07
-3.174766e-08
-1.0924826e-07
-8.2584538e-07
-3.4386828e-08
1.1479967e-07
8.1008611e-08
-7.2878409e-07
-2.2653028e-08
-7.7844165e-08
-8.0648502e-07
-2.5037633e-08
7.8479162e-08
6.5300331e-08
-1.8212967e-08
-7.2041429e-07
-6.2498084e-08
-2.0330496e-08
-7.8840354e-07
6.0744135e-08
3.8550892e-06
-1.1382342e-06
-8.7437027e-07
-3.5335855e-06
-1.1545852e-06
-1.1271599e-06
4.1028313e-06
1.0967388e-06
-1.0990216e-06
-2.9817052e-07
-1.0117023e-06
-1.172827e-06
-3.1516053e-07
1.2672757e-06
5.2649895e-07
-1.06112e-06
-1.5238112e-07
-4.9994828e-07
-1.1490637e-06
-1.6732987e-07
5.8472706e-07
2.9163305e-07
-1.0350818e-06
-8.7398239e-08
-2.8031369e-07
-1.1239307e-06
-9.9494423e-08
3.1372083e-07
1.8397914e-07
-1.0173691e-06
-5.5969427e-08
-1.7747114e-07
-1.1011033e-06
-6.4810535e-08
1.9157568e-07
1.3150223e-07
-1.0046661e-06
-4.0263319e-08
-1.2659569e-07
-1.0801674e-06
-4.7083597e-08
1.3261254e-07
1.0622838e-07
-3.2586739e-08
-9.94888e-07
-1.0163345e-07
-3.823769e-08
-1.0596268e-06
1.0359521e-07
5.3490614e-06
-1.471908e-06
-1.2923756e-06
-5.006094e-06
-1.4436867e-06
-1.7111696e-06
5.5996481e-06
1.5455197e-06
-1.4235294e-06
-4.4225966e-07
-1.4498125e-06
-1.4824973e-06
-5.0688029e-07
1.7760489e-06
7.496119e-07
-1.3783578e-06
-2.2650108e-07
-7.2066571e-07
-1.4636692e-06
-2.6256965e-07
8.260236e-07
4.166966e-07
-1.3478225e-06
-1.2956793e-07
-4.0506334e-07
-1.4394628e-06
-1.5319172e-07
4.4618766e-07
2.6323052e-07
-1.3277165e-06
-8.2754269e-08
-2.5655257e-07
-1.4166253e-06
-9.8290667e-08
2.7387332e-07
1.8811886e-07
-1.3139592e-06
-5.9306242e-08
-1.828339e-07
-1.3950733e-06
-7.0617584e-08
1.9010105e-07
1.5179628e-07
-4.7821086e-08
-1.3040006e-06
-1.4652126e-07
-5.6857001e-08
-1.3733931e-06
1.4873562e-07
7.1615236e-06
-1.8937186e-06
-1.7643435e-06
-6.803196e-06
-1.8236563e-06
-2.3995197e-06
7.3987607e-06
2.0812375e-06
-1.8353884e-06
-6.017481e-07
-1.9800801e-06
-1.8896614e-06
-7.2226845e-07
2.3626303e-06
1.0124787e-06
-1.7811011e-06
-3.0623895e-07
-9.8702917e-07
-1.8764273e-06
-3.7026957e-07
1.1069446e-06
5.6273689e-07
-1.7440534e-06
-1.7427199e-07
-5.5508124e-07
-1.8491439e-06
-2.1304496e-07
5.9530673e-07
3.5472486e-07
-1.7192984e-06
-1.1100276e-07
-3.5123204e-07
-1.8213986e-06
-1.363459e-07
3.6503486e-07
2.5274375e-07
-1.7022695e-06
-7.9313787e-08
-2.4976579e-07
-1.7943403e-06
-9.774083e-08
2.5280885e-07
2.031316e-07
-6.3673497e-08
-1.6899997e-06
-1.9954943e-07
-7.844551e-08
-1.7668619e-06
1.9724188e-07
9.3243643e-06
-2.422957e-06
-2.3174423e-06
-8.9244286e-06
-2.3202798e-06
-3.2151642e-06
9.5524643e-06
2.7117765e-06
-2.3502279e-06
-7.8552051e-07
-2.6007337e-06
-2.4170915e-06
-9.7643304e-07
3.0627529e-06
1.3195432e-06
-2.2818498e-06
-3.9732224e-07
-1.2968386e-06
-2.4088621e-06
-4.9664958e-07
1.4376938e-06
7.3237771e-07
-2.2356416e-06
-2.2457099e-07
-7.2828733e-07
-2.3795744e-06
-2.8325001e-07
7.7329504e-07
4.6047989e-07
-2.205373e-06
-1.4209586e-07
-4.5965575e-07
-2.3480421e-06
-1.8019136e-07
4.7279303e-07
3.2695934e-07
-2.184897e-06
-1.0096849e-07
-3.2578113e-07
-2.3169772e-06
-1.2832791e-07
3.2648158e-07
2.6182679e-07
-8.0631508e-08
-2.1706232e-06
-2.5914293e-07
-1.0228371e-07
-2.2849454e-06
2.5363324e-07
1.2043094e-05
-3.1085834e-06
-3.0107475e-06
-1.1548611e-05
-2.9771274e-06
-4.2082087e-06
1.2278101e-05
3.4914862e-06
-3.0173362e-06
-1.0100193e-06
-3.3582345e-06
-3.1143892e-06
-1.2944332e-06
3.9467481e-06
1.6970482e-06
-2.929435e-06
-5.0979045e-07
-1.6724813e-06
-3.1132841e-06
-6.5428713e-07
1.8535807e-06
9.4005938e-07
-2.869828e-06
-2.8722416e-07
-9.3701347e-07
-3.0800345e-06
-3.7201922e-07
9.9557898e-07
5.8914285e-07
-2.8306399e-06
-1.811274e-07
-5.892998e-07
-3.04156e-06
-2.3533898e-07
6.0581603e-07
4.1631232e-07
-2.8042606e-06
-1.2805527e-07
-4.1560504e-07
-3.002928e-06
-1.6630621e-07
4.1565857e-07
3.3147317e-07
-1.0158917e-07
-2.7860464e-06
-3.2873011e-07
-1.3149343e-07
-2.9632847e-06
3.2103971e-07
1.5535335e-05
-3.9833399e-06
-3.8750046e-06
-1.4925472e-05
-3.8129294e-06
-5.4269432e-06
1.5779624e-05
4.4953935e-06
-3.8698198e-06
-1.2866683e-06
-4.3322641e-06
-4.0062589e-06
-1.6965104e-06
5.0908009e-06
2.1827939e-06
-3.7578953e-06
-6.4937343e-07
-2.1551354e-06
-4.0192469e-06
-8.5176982e-07
2.3932647e-06
1.2064838e-06
-3.6824645e-06
-3.6493316e-07
-1.2042056e-06
-3.9861184e-06
-4.8226979e-07
1.283606e-06
7.5319106e-07
-3.6333607e-06
-2.2924293e-07
-7.5417939e-07
-3.9420208e-06
-3.0313401e-07
7.768885e-07
5.2923197e-07
-3.6006724e-06
-1.6110977e-07
-5.2886593e-07
-3.8959905e-06
-2.1245078e-07
5.2934616e-07
4.1834645e-07
-1.2682965e-07
-3.5784015e-06
-4.1537699e-07
-1.6643531e-07
-3.8483989e-06
4.0569687e-07
2.0016983e-05
-5.1110703e-06
-4.9505412e-06
-1.9248591e-05
-4.8903109e-06
-6.9299891e-06
2.0279294e-05
5.793083e-06
-4.9741313e-06
-1.6258382e-06
-5.5908518e-06
-5.165011e-06
-2.1985697e-06
6.5698424e-06
2.8112647e-06
-4.8327438e-06
-8.2145679e-07
-2.7805687e-06
-5.2004672e-06
-1.1013117e-06
3.0962629e-06
1.5504647e-06
-4.7376145e-06
-4.6091775e-07
-1.5496094e-06
-5.1715337e-06
-6.1988415e-07
1.6591458e-06
9.6366951e-07
-4.6763633e-06
-2.882491e-07
-9.6591458e-07
-5.1226588e-06
-3.8671612e-07
9.9837676e-07
6.7256162e-07
-4.636161e-06
-2.0109936e-07
-6.7277432e-07
-5.0687504e-06
-2.6860728e-07
6.7480984e-07
5.2685534e-07
-1.5677292e-07
-4.6092035e-06
-5.2386979e-07
-2.0814285e-07
-5.0124426e-06
5.1225495e-07
2.5516939e-05
-6.4783618e-06
-6.0380363e-06
-2.4755031e-05
-6.150949e-06
-8.5161486e-06
2.5610001e-05
7.4106542e-06
-6.3314662e-06
-1.9824758e-06
-7.2009118e-06
-6.5619398e-06
-2.7519691e-06
8.3750449e-06
3.5986269e-06
-6.1639912e-06
-1.005847e-06
-3.5817116e-06
-6.6479598e-06
-1.381619e-06
3.9649545e-06
1.9804204e-06
-6.0507167e-06
-5.6428755e-07
-1.9903249e-06
-6.6348688e-06
-7.73853e-07
2.1212985e-06
1.2240844e-06
-5.9780837e-06
-3.5127897e-07
-1.2336877e-06
-6.5866902e-06
-4.7912974e-07
1.2683197e-06
8.4749612e-07
-5.9314102e-06
-2.430457e-07
-8.5222355e-07
-6.5277033e-06
-3.2948551e-07
8.4938806e-07
6.5677716e-07
-1.8729887e-07
-5.9011296e-06
-6.5653241e-07
-2.5211358e-07
-6.4639648e-06
6.3700979e-07
3.2666402e-05
-8.2276333e-06
-7.2860345e-06
-3.1774009e-05
-7.7832296e-06
-1.0361869e-05
3.2644035e-05
9.4929397e-06
-8.0643525e-06
-2.3874416e-06
-9.2512545e-06
-8.3606836e-06
-3.3902439e-06
1.0708668e-05
4.6091827e-06
-7.8618473e-06
-1.2156756e-06
-4.6018591e-06
-8.5077166e-06
-1.7092947e-06
5.0838919e-06
2.5274796e-06
-7.7239122e-06
-6.8109135e-07
-2.5486106e-06
-8.5118529e-06
-9.5312352e-07
2.7108866e-06
1.5512091e-06
-7.6357638e-06
-4.214363e-07
-1.5691999e-06
-8.463036e-06
-5.852359e-07
1.6084988e-06
1.0633071e-06
-7.5803588e-06
-2.8857394e-07
-1.0731835e-06
-8.397032e-06
-3.9779199e-07
1.0656104e-06
8.129817e-07
-2.1916739e-07
-7.5456529e-06
-8.158191e-07
-2.9975954e-07
-8.3241201e-06
7.8771599e-07
4.2485562e-05
-1.0525554e-05
-8.7822396e-06
-4.141104e-05
-9.9248627e-06
-1.2572519e-05
4.2299243e-05
1.231268e-05
-1.0338922e-05
-2.8767052e-06
-1.2010049e-05
-1.0736003e-05
-4.1499222e-06
1.3883498e-05
5.968114e-06
-1.008856e-05
-1.4693914e-06
-5.9647603e-06
-1.0970343e-05
-2.1018201e-06
6.5949791e-06
3.2570337e-06
-9.9178864e-06
-8.212751e-07
-3.2875238e-06
-1.0999913e-05
-1.1667122e-06
3.5001923e-06
1.9819515e-06
-9.8097393e-06
-5.0432995e-07
-2.0072051e-06
-1.0951758e-05
-7.0997443e-07
2.0585345e-06
1.3417843e-06
-9.7433083e-06
-3.409872e-07
-1.3558022e-06
-1.0878063e-05
-4.760811e-07
1.3463782e-06
1.0086946e-06
-2.543335e-07
-9.7033054e-06
-1.0135317e-06
-3.5216418e-07
-1.0795144e-05
9.7817971e-07
5.3925334e-05
-1.3217299e-05
-9.869519e-06
-5.3180105e-05
-1.2305344e-05
-1.4565555e-05
5.3070325e-05
1.5676755e-05
-1.3052331e-05
-3.2542755e-06
-1.5464152e-05
-1.3452224e-05
-4.8569258e-06
1.7530638e-05
7.6023534e-06
-1.2768258e-05
-1.6695816e-06
-7.6862359e-06
-1.3819008e-05
-2.4704018e-06
8.3377188e-06
4.1310507e-06
-1.2570426e-05
-9.3125617e-07
-4.2189009e-06
-1.389648e-05
-1.3650288e-06
4.4068397e-06
2.4932144e-06
-1.2447951e-05
-5.6718285e-07
-2.5528368e-06
-1.3860679e-05
-8.2276556e-07
2.5702047e-06
1.6637275e-06
-1.2374853e-05
-3.7789235e-07
-1.6999193e-06
-1.3787169e-05
-5.4327061e-07
1.6574071e-06
1.2254129e-06
-2.7572712e-07
-1.2333696e-05
-1.2451752e-06
-3.9304035e-07
-1.370105e-05
1.1801712e-06
6.9246516e-05
-1.70417e-05
-1.1124286e-05
-6.8072236e-05
-1.6085109e-05
-1.5568909e-05
6.729392e-05
2.0696194e-05
-1.6741003e-05
-3.9020012e-06
-2.0349167e-05
-1.7356828e-05
-5.532239e-06
2.2643226e-05
1.0013529e-05
-1.6327049e-05
-2.0051639e-06
-1.0091901e-05
-1.7735328e-05
-2.8283516e-06
1.0749978e-05
5.4037933e-06
-1.6050634e-05
-1.1115253e-06
-5.49994e-06
-1.7787341e-05
-1.5546283e-06
5.645405e-06
3.2222825e-06
-1.5885361e-05
-6.6802015e-07
-3.2867179e-06
-1.7721347e-05
-9.2607756e-07
3.2596001e-06
2.1116746e-06
-1.578902e-05
-4.3641981e-07
-2.1494883e-06
-1.7622852e-05
-6.0080015e-07
2.070708e-06
1.5187704e-06
-3.1065064e-07
-1.573533e-05
-1.5375364e-06
-4.25021e-07
-1.7516884e-05
1.4447833e-06
8.4916015e-05
-2.1263768e-05
-1.152773e-05
-8.4358522e-05
-2.0561708e-05
-1.5521137e-05
8.2245842e-05
2.7274351e-05
-2.0953277e-05
-4.3483025e-06
-2.7138541e-05
-2.1884846e-05
-5.949993e-06
2.9015242e-05
1.3181431e-05
-2.0456971e-05
-2.2322941e-06
-1.3450607e-05
-2.223414e-05
-3.0560842e-06
1.3758457e-05
7.059913e-06
-2.012808e-05
-1.2269114e-06
-7.2734186e-06
-2.2241334e-05
-1.6702729e-06
7.1827506e-06
4.1472228e-06
-1.9935434e-05
-7.253751e-07
-4.282514e-06
-2.2141486e-05
-9.8171897e-07
4.1030164e-06
2.6607455e-06
-1.9828044e-05
-4.6281058e-07
-2.7417441e-06
-2.2024209e-05
-6.2407366e-07
2.5667403e-06
1.8633875e-06
-3.1970636e-07
-1.9772853e-05
-1.9095218e-06
-4.3002897e-07
-2.1911643e-05
1.7558299e-06
8.2428105e-05
-2.1005414e-05
-1.1368779e-05
-8.2296433e-05
-2.1043839e-05
-1.4927831e-05
8.0229252e-05
2.8602083e-05
-2.0772005e-05
-4.5421508e-06
-2.8641644e-05
-2.2075269e-05
-6.1080677e-06
2.9791585e-05
1.3820545e-05
-2.0317012e-05
-2.3212045e-06
-1.4186629e-05
-2.2285907e-05
-3.1406931e-06
1.4115792e-05
7.3456648e-06
-2.0012394e-05
-1.2642821e-06
-7.6129136e-06
-2.2233217e-05
-1.7067443e-06
7.3294448e-06
4.2516221e-06
-1.9837654e-05
-7.3615755e-07
-4.4155799e-06
-2.2117867e-05
-9.9106854e-07
4.1456204e-06
2.668797e-06
-1.9744948e-05
-4.5947716e-07
-2.7648373e-06
-2.2008348e-05
-6.1825489e-07
2.5534577e-06
1.8165194e-06
-3.0831817e-07
-1.9702186e-05
-1.8706703e-06
-4.1528449e-07
-2.191701e-05
1.7104357e-06
7.9310823e-05
-2.0806076e-05
-1.0669838e-05
-7.9585351e-05
-2.1532956e-05
-1.375643e-05
7.7513544e-05
2.9657878e-05
-2.0650088e-05
-4.5019451e-06
-2.9854073e-05
-2.2305709e-05
-6.0008808e-06
3.0323443e-05
1.4359059e-05
-2.0243461e-05
-2.2931707e-06
-1.4793721e-05
-2.2405293e-05
-3.0906805e-06
1.4408631e-05
7.5894901e-06
-1.9967858e-05
-1.2394751e-06
-7.8899013e-06
-2.2308058e-05
-1.6714659e-06
7.456975e-06
4.3368724e-06
-1.9812477e-05
-7.1215282e-07
-4.5162581e-06
-2.2184446e-05
-9.6024386e-07
4.1824357e-06
2.6680311e-06
-1.9733934e-05
-4.3569181e-07
-2.7703606e-06
-2.2085141e-05
-5.8870334e-07
2.5391726e-06
1.7661095e-06
-2.8432655e-07
-1.9701957e-05
-1.8220784e-06
-3.8576359e-07
-2.2014683e-05
1.6661307e-06
7.5755302e-05
-2.0647328e-05
-9.5037411e-06
-7.6391255e-05
-2.2010673e-05
-1.2060576e-05
7.4281904e-05
3.032109e-05
-2.0609603e-05
-4.2194939e-06
-3.0641268e-05
-2.2619581e-05
-5.5831523e-06
3.0512268e-05
1.4735763e-05
-2.0276975e-05
-2.1561505e-06
-1.5205412e-05
-2.2650836e-05
-2.8882801e-06
1.4564617e-05
7.7630273e-06
-2.0043388e-05
-1.1620142e-06
-8.0740769e-06
-2.2530407e-05
-1.559008e-06
7.530139e-06
4.3922904e-06
-1.9912272e-05
-6.6219476e-07
-4.5733647e-06
-2.2406972e-05
-8.8954193e-07
4.1981534e-06
2.6570754e-06
-1.984815e-05
-3.9950359e-07
-2.7573873e-06
-2.2318483e-05
-5.3859682e-07
2.5184796e-06
1.7159116e-06
-2.5526856e-07
-1.9824546e-05
-1.7685748e-06
-3.4625555e-07
-2.2264622e-05
1.6225429e-06
7.2641148e-05
-2.0328909e-05
-8.2653952e-06
-7.3540018e-05
-2.1986292e-05
-1.0329662e-05
7.1235401e-05
3.0048638e-05
-2.0461985e-05
-3.6706042e-06
-3.0464453e-05
-2.2624277e-05
-4.7696941e-06
2.9873164e-05
1.4666819e-05
-2.0249743e-05
-1.8818331e-06
-1.5153378e-05
-2.2701024e-05
-2.4693163e-06
1.4324603e-05
7.7357976e-06
-2.008244e-05
-1.0176599e-06
-8.0474574e-06
-2.2613066e-05
-1.3362017e-06
7.4250313e-06
4.3703165e-06
-1.9983543e-05
-5.8259996e-07
-4.5488083e-06
-2.2509607e-05
-7.6581344e-07
4.1431296e-06
2.6331205e-06
-1.9932183e-05
-3.5363308e-07
-2.7303534e-06
-2.2430746e-05
-4.6655265e-07
2.4822136e-06
1.6884527e-06
-2.277222e-07
-1.9909936e-05
-1.7382454e-06
-3.0235166e-07
-2.2379544e-05
1.5933472e-06
7.0357592e-05
-2.0488139e-05
-6.9733498e-06
-7.135962e-05
-2.227607e-05
-8.5220537e-06
6.883118e-05
2.9189889e-05
-2.0600338e-05
-3.0673419e-06
-2.9680954e-05
-2.2840104e-05
-3.888373e-06
2.8872601e-05
1.4307087e-05
-2.0414857e-05
-1.5681291e-06
-1.4806271e-05
-2.2904432e-05
-2.008225e-06
1.3910324e-05
7.577288e-06
-2.0271234e-05
-8.4902699e-07
-7.8895465e-06
-2.2823778e-05
-1.0879217e-06
7.2483518e-06
4.3015793e-06
-2.0188482e-05
-4.8789324e-07
-4.4790387e-06
-2.2732837e-05
-6.2595795e-07
4.0707835e-06
2.6077508e-06
-2.0148041e-05
-2.9786394e-07
-2.7039633e-06
-2.2666281e-05
-3.8361699e-07
2.4582572e-06
1.6851969e-06
-1.932847e-07
-2.0133553e-05
-1.7341233e-06
-2.5056563e-07
-2.262374e-05
1.5908706e-06
6.828009e-05
-2.0749341e-05
-5.7261596e-06
-6.9333732e-05
-2.2714241e-05
-6.6747657e-06
6.6656625e-05
2.844899e-05
-2.0828404e-05
-2.5100931e-06
-2.8927175e-05
-2.3202193e-05
-2.9997361e-06
2.8048303e-05
1.4000609e-05
-2.0655274e-05
-1.2802237e-06
-1.4461644e-05
-2.3246091e-05
-1.5469113e-06
1.3583194e-05
7.4448069e-06
-2.0526161e-05
-6.9421064e-07
-7.7287384e-06
-2.3167312e-05
-8.3869566e-07
7.1168008e-06
4.2472259e-06
-2.0454729e-05
-4.0046569e-07
-4.4060851e-06
-2.3085745e-05
-4.8425112e-07
4.0239533e-06
2.59163e-06
-2.0423299e-05
-2.4591302e-07
-2.6750134e-06
-2.3029498e-05
-2.9852586e-07
2.4502899e-06
1.6873549e-06
-1.6077664e-07
-2.0415122e-05
-1.7280395e-06
-1.9650514e-07
-2.2994468e-05
1.5982653e-06
6.701831e-05
-2.1008177e-05
-4.4797e-06
-6.8190298e-05
-2.3218107e-05
-5.0180748e-06
6.5496726e-05
2.8001489e-05
-2.1063255e-05
-1.9699847e-06
-2.848652e-05
-2.3665051e-05
-2.2551761e-06
2.7703872e-05
1.3815465e-05
-2.090229e-05
-1.0030111e-06
-1.4253642e-05
-2.3691642e-05
-1.1652571e-06
1.3460403e-05
7.342656e-06
-2.078965e-05
-5.4155333e-07
-7.607956e-06
-2.3615552e-05
-6.2899061e-07
7.0568595e-06
4.1777918e-06
-2.0734072e-05
-3.0938175e-07
-4.3244531e-06
-2.3546371e-05
-3.5955536e-07
3.9839157e-06
2.5381504e-06
-2.0716435e-05
-1.872661e-07
-2.614437e-06
-2.3506232e-05
-2.1842596e-07
2.4179096e-06
1.6445896e-06
-1.2022346e-07
-2.0721044e-05
-1.6805347e-06
-1.4113421e-07
-2.3486766e-05
1.5697536e-06
5.3437349e-05
-1.6929027e-05
-3.5060635e-06
-5.4380155e-05
-1.879952e-05
-3.7190081e-06
5.217109e-05
2.2352041e-05
-1.6983554e-05
-1.5503393e-06
-2.2717159e-05
-1.9158831e-05
-1.6915802e-06
2.2147754e-05
1.104152e-05
-1.6869164e-05
-7.8853782e-07
-1.1370382e-05
-1.9191511e-05
-8.8072458e-07
1.078967e-05
5.8421453e-06
-1.6788525e-05
-4.2445014e-07
-6.0398893e-06
-1.9139894e-05
-4.7418665e-07
5.6357218e-06
3.292451e-06
-1.6749061e-05
-2.4047793e-07
-3.4008175e-06
-1.9090754e-05
-2.6879825e-07
3.1525549e-06
1.9726294e-06
-1.6736793e-05
-1.4375723e-07
-2.0284084e-06
-1.906196e-05
-1.6130508e-07
1.8867123e-06
1.2553009e-06
-9.0792728e-08
-1.6739982e-05
-1.2815419e-06
-1.0255776e-07
-1.9048117e-05
1.2028814e-06
4.3223514e-05
-1.3515946e-05
-2.839506e-06
-4.3889862e-05
-1.5090261e-05
-2.7689888e-06
4.2275624e-05
1.8091289e-05
-1.3577475e-05
-1.2675055e-06
-1.8312593e-05
-1.5402599e-05
-1.2983012e-06
1.8010349e-05
8.945811e-06
-1.3501917e-05
-6.4385547e-07
-9.1660516e-06
-1.5445077e-05
-6.8739128e-07
8.7949543e-06
4.7161894e-06
-1.3445567e-05
-3.4619054e-07
-4.8507967e-06
-1.5411163e-05
-3.7091695e-07
4.5790063e-06
2.6365885e-06
-1.3417144e-05
-1.9509139e-07
-2.7104002e-06
-1.5374976e-05
-2.0942441e-07
2.5410258e-06
1.5604847e-06
-1.3407768e-05
-1.1559715e-07
-1.5980204e-06
-1.5352961e-05
-1.2470074e-07
1.501866e-06
9.7775676e-07
-7.2123258e-08
-1.3409549e-05
-9.9464626e-07
-7.8395242e-08
-1.5342025e-05
9.4265494e-07
3.5313508e-05
-1.0818256e-05
-2.3202041e-06
-3.5818474e-05
-1.2112264e-05
-2.0301159e-06
3.4595125e-05
1.4786761e-05
-1.0893506e-05
-1.04517e-06
-1.4933842e-05
-1.2392832e-05
-1.0073069e-06
1.4776332e-05
7.315572e-06
-1.0847235e-05
-5.2965583e-07
-7.4760434e-06
-1.2437271e-05
-5.4907109e-07
7.2216906e-06
3.846057e-06
-1.0808527e-05
-2.8516038e-07
-3.9457937e-06
-1.2413388e-05
-2.9826317e-07
3.7495202e-06
2.1370907e-06
-1.0788332e-05
-1.6022261e-07
-2.1921561e-06
-1.238537e-05
-1.6852657e-07
2.0681728e-06
1.2531741e-06
-1.0781569e-05
-9.4377861e-08
-1.2811565e-06
-1.2367564e-05
-9.9994209e-08
1.2106623e-06
7.7553127e-07
-5.8361359e-08
-1.0782815e-05
-7.8804874e-07
-6.2412314e-08
-1.2358311e-05
7.5029311e-07
2.854933e-05
-8.5061864e-06
-1.9683941e-06
-2.8861159e-05
-9.5753284e-06
-1.5004752e-06
2.8097596e-05
1.1978649e-05
-8.5923331e-06
-9.0583121e-07
-1.2031845e-05
-9.8445745e-06
-8.2376553e-07
1.2064357e-05
5.9336336e-06
-8.5699662e-06
-4.6056557e-07
-6.0250904e-06
-9.8992338e-06
-4.6836925e-07
5.9075891e-06
3.1128287e-06
-8.5456258e-06
-2.4855412e-07
-3.1737744e-06
-9.8891197e-06
-2.5665491e-07
3.0611073e-06
1.7219144e-06
-8.5327142e-06
-1.3947453e-07
-1.7555759e-06
-9.8717071e-06
-1.4577934e-07
1.6817522e-06
1.0026513e-06
-8.5288459e-06
-8.1828609e-08
-1.0190689e-06
-9.8599822e-06
-8.658124e-08
9.7751379e-07
6.1453366e-07
-5.0260414e-08
-8.5304403e-06
-6.2104217e-07
-5.385997e-08
-9.8538584e-06
5.9985515e-07
2.3626723e-05
-6.8378549e-06
-1.6982538e-06
-2.3872044e-05
-7.7177562e-06
-1.1635745e-06
2.3366047e-05
9.8936256e-06
-6.9152077e-06
-7.9533956e-07
-9.926755e-06
-7.9521085e-06
-7.0703507e-07
1.0011235e-05
4.8997165e-06
-6.9019032e-06
-4.0713335e-07
-4.9664533e-06
-7.9991916e-06
-4.2197079e-07
4.9004013e-06
2.5640811e-06
-6.8839025e-06
-2.1975383e-07
-2.6108826e-06
-7.990612e-06
-2.3486346e-07
2.5337093e-06
1.4123761e-06
-6.8737175e-06
-1.2308267e-07
-1.438953e-06
-7.9763059e-06
-1.3439679e-07
1.386688e-06
8.1758277e-07
-6.8704507e-06
-7.1957241e-08
-8.3072229e-07
-7.9666329e-06
-7.9955305e-08
8.0128218e-07
4.972326e-07
-4.3955041e-08
-6.8714905e-06
-5.0249848e-07
-4.9635448e-08
-7.9614996e-06
4.8787517e-07
1.945161e-05
-5.4815448e-06
-1.4227171e-06
-1.9712629e-05
-6.1903118e-06
-9.2356616e-07
1.9282249e-05
8.1307255e-06
-5.5514771e-06
-6.7437452e-07
-8.1817684e-06
-6.3854836e-06
-6.3402651e-07
8.252891e-06
4.0247351e-06
-5.5443119e-06
-3.4845385e-07
-4.0905786e-06
-6.4177292e-06
-3.9679315e-07
4.031803e-06
2.1018158e-06
-5.5312655e-06
-1.8747864e-07
-2.1471381e-06
-6.4060961e-06
-2.2491765e-07
2.0802353e-06
1.1539543e-06
-5.5236556e-06
-1.0463728e-07
-1.1800095e-06
-6.3915068e-06
-1.2972502e-07
1.1346941e-06
6.6476195e-07
-5.5211339e-06
-6.0946504e-08
-6.7829559e-07
-6.3819367e-06
-7.7242773e-08
6.5247766e-07
4.0174337e-07
-3.7074134e-08
-5.5219123e-06
-4.0784604e-07
-4.782546e-08
-6.376895e-06
3.9489185e-07
1.5650635e-05
-4.3057184e-06
-1.216005e-06
-1.58306e-05
-4.9041856e-06
-7.9841742e-07
1.5625114e-05
6.560496e-06
-4.3757229e-06
-5.9338923e-07
-6.5714623e-06
-5.0777096e-06
-6.2377501e-07
6.7237442e-06
3.2504632e-06
-4.3767976e-06
-3.1216115e-07
-3.2856831e-06
-5.1033468e-06
-4.064964e-07
3.2858034e-06
1.6963156e-06
-4.3696163e-06
-1.6796232e-07
-1.7230138e-06
-5.0929165e-06
-2.3349603e-07
1.6944641e-06
9.2927138e-07
-4.3650946e-06
-9.3496958e-08
-9.4493414e-07
-5.0805754e-06
-1.3487423e-07
9.2207867e-07
5.3362797e-07
-4.3640365e-06
-5.4268316e-08
-5.4136446e-07
-5.0727813e-06
-7.9967716e-08
5.285589e-07
3.2099234e-07
-3.2906674e-08
-4.3652181e-06
-3.2397903e-07
-4.9292481e-08
-5.0686557e-06
3.1833248e-07
1.2486075e-05