/*--------------------------------*- C++ -*----------------------------------*\
| =========                 |                                                 |
| \\      /  F ield         | OpenFOAM: The Open Source CFD Toolbox           |
|  \\    /   O peration     | Version:  2206                                  |
|   \\  /    A nd           | Website:  www.openfoam.com                      |
|    \\/     M anipulation  |                                                 |
\*---------------------------------------------------------------------------*/
FoamFile
{
    version     2.0;
    format      ascii;
    arch        "LSB;label=32;scalar=64";
    class       volScalarField;
    location    "300";
    object      rho;
}
// * * * * * * * * * * * * * * * * * * * * * * * * * * * * * * * * * * * * * //

dimensions      [1 -3 0 0 0 0 0];

internalField   nonuniform List<scalar> 
50904
(
1.2303276
1.2245074
1.2300494
1.224387
1.2309261
1.2255423
1.2307066
1.2255628
1.2316078
1.2265512
1.231447
1.2266291
1.2322795
1.2274061
1.2321453
1.2274431
1.2331075
1.2283017
1.2329318
1.2282151
1.2339115
1.2290783
1.2335817
1.2287991
1.2342631
1.229453
1.2338275
1.2290593
1.2344096
1.2296953
1.2339338
1.2292514
1.2345835
1.2300206
1.2340721
1.2295264
1.2348321
1.2304726
1.2342933
1.2299373
1.2351824
1.2310863
1.2346336
1.230533
1.2356654
1.2318946
1.2351093
1.2313268
1.2363198
1.2329352
1.2357807
1.2323765
1.2371545
1.2342087
1.2366492
1.23368
1.2382032
1.2357252
1.2377482
1.2352538
1.2392835
1.2372192
1.2388795
1.2368132
1.2402475
1.2385125
1.23989
1.2381639
1.2411136
1.2396374
1.2407898
1.2393333
1.2418482
1.2405746
1.2415404
1.2402999
1.2424718
1.2413504
1.2421811
1.2411082
1.2429811
1.2419643
1.2427004
1.2417487
1.2434033
1.242438
1.2431197
1.2422337
1.2437123
1.2427387
1.2434015
1.242513
1.2439237
1.2429001
1.2435745
1.2426377
1.244076
1.2429943
1.2436902
1.2426817
1.2441904
1.2430456
1.2437733
1.2426818
1.2442822
1.24307
1.2438414
1.2426496
1.244359
1.2430817
1.2439006
1.2426022
1.2444229
1.2430748
1.2439489
1.2425661
1.244415
1.2429738
1.2439165
1.2424038
1.2440806
1.2425275
1.243458
1.2418819
1.2433417
1.2417605
1.2427077
1.2411243
1.2428006
1.2413107
1.2422314
1.2407458
1.2425593
1.2411005
1.2420338
1.2405484
1.2424178
1.2409693
1.2419063
1.2403922
1.2423614
1.2409095
1.2418424
1.2403062
1.2307209
1.2256038
1.2333911
1.2299907
1.2344514
1.2320789
1.2350315
1.2333034
1.2353697
1.2340294
1.2355881
1.2345031
1.2357424
1.2348531
1.2313615
1.2267415
1.233942
1.2308944
1.2349532
1.2327802
1.2354905
1.2339089
1.2357944
1.2345707
1.2359862
1.2349965
1.2361191
1.2353081
1.2320473
1.227719
1.234506
1.2316446
1.2354593
1.2333466
1.2359667
1.2344267
1.2362602
1.2350868
1.2364502
1.2355254
1.2365836
1.2358473
1.2326359
1.2283803
1.2349314
1.2320847
1.235845
1.2336851
1.2363402
1.2347269
1.236632
1.2353743
1.2368261
1.2358162
1.2369665
1.236147
1.2332642
1.2289771
1.2354258
1.2324969
1.2363378
1.2340704
1.2368506
1.2351263
1.2371654
1.2357807
1.2373822
1.2362298
1.2375431
1.2365674
1.2337727
1.2294137
1.2358638
1.2327731
1.2367838
1.2343096
1.2372981
1.2353537
1.237616
1.2360082
1.2378391
1.2364592
1.2380044
1.2368109
1.2339497
1.2295832
1.2360055
1.2327842
1.2369311
1.2342976
1.2374486
1.2353553
1.2377695
1.2360277
1.2379921
1.2364897
1.238158
1.2368473
1.2340136
1.2297024
1.2360277
1.2327259
1.2369463
1.2341993
1.2374593
1.2352514
1.2377785
1.2359295
1.2379994
1.236395
1.2381633
1.2367534
1.2341098
1.2298896
1.2360819
1.2327084
1.2369949
1.2341466
1.2375047
1.235194
1.2378228
1.2358719
1.2380417
1.2363367
1.2382023
1.2366936
1.2342895
1.2302117
1.2362053
1.2327994
1.2371056
1.23419
1.2376109
1.2352128
1.237926
1.2358781
1.2381402
1.2363449
1.2382982
1.2366969
1.234602
1.2307299
1.2364591
1.2330798
1.2373405
1.2344076
1.2378365
1.2353938
1.2381454
1.236037
1.2383529
1.2365008
1.2385069
1.2368456
1.2350532
1.2314457
1.2368348
1.2335584
1.237695
1.2348027
1.2381762
1.235744
1.2384763
1.2363704
1.2386795
1.2368254
1.2388277
1.2371549
1.2357345
1.2324573
1.2374384
1.2343625
1.2382696
1.2354872
1.2387308
1.2363777
1.2390149
1.2370005
1.2392081
1.237425
1.2393461
1.2377307
1.2366251
1.2337273
1.2382325
1.2354221
1.2390337
1.2364683
1.2394743
1.2373306
1.2397445
1.2379214
1.239927
1.2383129
1.2400564
1.2385922
1.2377531
1.235276
1.2392335
1.236758
1.2400044
1.23774
1.2404226
1.2385628
1.2406776
1.2391051
1.240847
1.2394626
1.2409645
1.2397111
1.2389401
1.2368516
1.2403035
1.2381716
1.2410305
1.239089
1.2414246
1.2398392
1.2416606
1.2403249
1.2418143
1.2406413
1.2419177
1.2408551
1.2400072
1.2382243
1.241262
1.2394158
1.2419384
1.2402705
1.2423055
1.2409519
1.2425217
1.2413846
1.24266
1.2416625
1.2427504
1.2418453
1.2409509
1.23941
1.2420996
1.2405008
1.2427241
1.2413007
1.2430638
1.2419223
1.2432611
1.2423091
1.2433854
1.2425543
1.2434654
1.2427125
1.2417664
1.2404275
1.2428075
1.2414267
1.2433688
1.2421602
1.2436749
1.2427183
1.243851
1.2430605
1.2439609
1.2432764
1.2440335
1.2434176
1.2424602
1.241286
1.2434012
1.2422081
1.2438962
1.242875
1.2441682
1.2433722
1.2443254
1.2436774
1.244424
1.2438709
1.2444895
1.2439993
1.2430126
1.2419636
1.2438549
1.2428072
1.2442924
1.2434155
1.2445337
1.2438622
1.2446735
1.2441383
1.2447618
1.2443151
1.2448211
1.2444306
1.2434397
1.2424719
1.2442
1.2432458
1.2445885
1.2438088
1.2448032
1.2442185
1.2449286
1.2444696
1.2450092
1.2446298
1.2450626
1.2447359
1.2437132
1.2427674
1.2444202
1.2434845
1.2447729
1.2440014
1.2449654
1.2443825
1.2450786
1.2446145
1.2451529
1.2447614
1.2452015
1.2448563
1.2438639
1.2429012
1.2445386
1.243581
1.2448764
1.2440665
1.2450611
1.2444261
1.2451682
1.2446417
1.2452369
1.2447784
1.2452829
1.2448669
1.2439521
1.2429583
1.2446069
1.2436157
1.2449403
1.2440848
1.2451227
1.2444314
1.2452282
1.2446363
1.2452952
1.2447649
1.2453398
1.2448481
1.2440064
1.2429707
1.2446516
1.243618
1.2449814
1.2440827
1.245165
1.2444162
1.24527
1.2446141
1.2453361
1.2447388
1.2453801
1.2448197
1.2440516
1.2429408
1.244688
1.243594
1.2450148
1.2440766
1.2452
1.2444026
1.2453051
1.2445926
1.2453712
1.2447144
1.2454147
1.2447946
1.2440903
1.2429082
1.244717
1.2435773
1.2450429
1.2440834
1.2452306
1.2444073
1.2453368
1.2445934
1.2454027
1.2447104
1.2454462
1.2447887
1.2441185
1.2428701
1.244737
1.2435193
1.2450579
1.2440246
1.2452425
1.2443609
1.2453492
1.2445573
1.2454144
1.2446789
1.245457
1.244759
1.2440423
1.24271
1.2446665
1.2433305
1.2449742
1.2438372
1.2451524
1.2441721
1.2452532
1.2443633
1.2453148
1.2444787
1.2453542
1.2445516
1.2436151
1.2421918
1.2442531
1.2428849
1.2445765
1.243388
1.2447469
1.2437075
1.24484
1.2438819
1.2448942
1.2439833
1.2449276
1.2440434
1.2428965
1.2415393
1.2436439
1.2424618
1.244032
1.2430669
1.2442273
1.2434039
1.2443241
1.2435816
1.244373
1.2436783
1.2443964
1.2437283
1.242457
1.2411846
1.2432694
1.2422151
1.2437448
1.2429329
1.2439912
1.2433347
1.2441115
1.2435392
1.2441668
1.2436421
1.2441866
1.2436894
1.2422636
1.2409741
1.2430875
1.2420423
1.243606
1.2428345
1.2438864
1.24328
1.2440202
1.2435059
1.2440793
1.2436171
1.2440983
1.2436656
1.2421409
1.2407933
1.242968
1.241876
1.2434825
1.2426786
1.2437739
1.2431366
1.2439185
1.2433705
1.2439798
1.2434828
1.2439976
1.2435304
1.242074
1.2406714
1.2429106
1.2417562
1.2434138
1.2425358
1.2436728
1.2429518
1.243806
1.2431713
1.2438761
1.2432909
1.243906
1.2433495
1.2358729
1.2351548
1.2359841
1.2354079
1.2360697
1.2356031
1.2361798
1.235839
1.2363951
1.2362732
1.2369325
1.237329
1.2362325
1.2355819
1.2363253
1.2357994
1.2363954
1.2359648
1.2364902
1.2361736
1.2366937
1.2365983
1.2372188
1.2376479
1.2366949
1.2361269
1.2367919
1.2363625
1.2368685
1.2365484
1.2369626
1.2367666
1.2371457
1.2371598
1.2376292
1.2381448
1.2370875
1.2364421
1.2371898
1.2366871
1.2372757
1.2368895
1.2373831
1.2371376
1.2375844
1.2375914
1.2380783
1.2386446
1.2376831
1.2368671
1.237803
1.237125
1.2379062
1.23734
1.2380266
1.2376014
1.23823
1.2380732
1.238717
1.2391852
1.23815
1.2371392
1.2382746
1.2374006
1.238387
1.2376251
1.2385171
1.2379039
1.2387233
1.2384043
1.2392247
1.2395486
1.2383021
1.2371759
1.2384279
1.2374379
1.2385386
1.2376654
1.2386682
1.2379427
1.2388816
1.238438
1.2393722
1.2396028
1.2383055
1.2370811
1.2384297
1.2373452
1.2385394
1.237575
1.2386682
1.2378532
1.2388807
1.2383503
1.2393684
1.2395332
1.2383426
1.237017
1.2384641
1.2372836
1.2385725
1.2375139
1.2386996
1.2377915
1.2389084
1.2382851
1.2393883
1.2394727
1.2384351
1.237011
1.2385539
1.2372786
1.2386602
1.2375075
1.2387848
1.2377836
1.2389887
1.2382708
1.2394578
1.2394512
1.2386388
1.2371455
1.238754
1.2374069
1.2388571
1.2376303
1.2389771
1.2378988
1.2391752
1.2383692
1.2396223
1.2395121
1.2389538
1.2374403
1.2390636
1.2376878
1.2391621
1.2379011
1.2392784
1.2381565
1.2394667
1.2386029
1.2398907
1.2396837
1.2394633
1.2379942
1.239566
1.2382223
1.239659
1.2384183
1.2397677
1.2386514
1.2399437
1.2390551
1.2403329
1.2400409
1.240163
1.2388276
1.2402571
1.2390317
1.2403425
1.2392077
1.2404429
1.2394138
1.240605
1.2397685
1.2409565
1.240627
1.241059
1.2399155
1.2411422
1.2400927
1.2412188
1.2402467
1.2413089
1.2404248
1.2414549
1.2407257
1.2417632
1.2414393
1.2420001
1.2410285
1.2420727
1.2411786
1.2421401
1.2413104
1.2422196
1.241463
1.2423485
1.2417169
1.2426139
1.2423004
1.2428223
1.2419921
1.2428858
1.2421193
1.2429453
1.2422322
1.2430156
1.2423633
1.2431296
1.2425817
1.2433585
1.2430736
1.2435287
1.2428384
1.2435849
1.2429482
1.2436381
1.2430464
1.2437012
1.2431609
1.2438032
1.2433518
1.2440038
1.243774
1.2440898
1.2435283
1.2441402
1.2436246
1.2441881
1.2437114
1.2442451
1.2438127
1.2443368
1.2439809
1.2445157
1.2443516
1.2445406
1.2440993
1.2445862
1.2441854
1.2446299
1.2442635
1.2446821
1.2443547
1.2447667
1.2445067
1.2449332
1.2448428
1.2448673
1.2445231
1.2449086
1.2446018
1.2449485
1.2446736
1.2449967
1.2447577
1.2450787
1.244897
1.2452454
1.2452036
1.2451055
1.2448186
1.2451438
1.2448896
1.2451824
1.2449549
1.2452307
1.2450313
1.2453124
1.2451587
1.2454661
1.2454383
1.2452408
1.2449313
1.2452766
1.2449964
1.2453134
1.2450578
1.2453598
1.2451303
1.2454402
1.2452508
1.2455875
1.2455083
1.2453197
1.2449356
1.2453536
1.2449959
1.2453887
1.2450541
1.2454328
1.2451232
1.2455079
1.2452384
1.2456447
1.2454792
1.2453749
1.2449124
1.2454077
1.2449695
1.2454416
1.2450251
1.2454841
1.2450916
1.2455552
1.2452027
1.2456787
1.2454297
1.2454142
1.244881
1.2454462
1.2449353
1.2454793
1.244989
1.2455206
1.2450536
1.2455899
1.2451619
1.2457042
1.2453781
1.2454481
1.2448544
1.2454796
1.2449078
1.2455121
1.2449605
1.2455523
1.2450243
1.2456185
1.2451317
1.2457311
1.2453423
1.2454791
1.2448471
1.24551
1.2448992
1.2455421
1.2449508
1.2455817
1.2450138
1.2456471
1.2451202
1.2457569
1.2453253
1.2454897
1.2448171
1.2455202
1.2448694
1.2455526
1.2449206
1.2455933
1.2449829
1.2456603
1.2450875
1.2457639
1.2452857
1.2453842
1.2446034
1.2454127
1.2446504
1.2454431
1.2446966
1.2454823
1.2447529
1.2455474
1.2448482
1.2456548
1.2450268
1.2449505
1.2440806
1.2449724
1.2441135
1.2449953
1.2441459
1.2450245
1.2441888
1.2450754
1.2442725
1.2451659
1.2444428
1.2444055
1.2437514
1.2444143
1.24377
1.2444233
1.2437884
1.2444397
1.2438184
1.2444813
1.2438942
1.2445706
1.2440671
1.2441866
1.2437045
1.2441857
1.2437148
1.2441846
1.2437244
1.2441931
1.2437464
1.2442334
1.2438175
1.2443319
1.2439918
1.2440952
1.2436784
1.2440919
1.2436888
1.2440877
1.2436968
1.2440951
1.243718
1.2441388
1.2437924
1.2442507
1.2439833
1.2439945
1.2435446
1.2439918
1.2435582
1.2439884
1.2435685
1.2439975
1.2435946
1.2440441
1.2436758
1.2441614
1.2438782
1.2439146
1.2433782
1.2439222
1.2434049
1.2439272
1.2434242
1.2439433
1.2434587
1.243994
1.243545
1.2441056
1.2437423
1.2375873
1.2384334
1.2379455
1.2388473
1.2380609
1.2389691
1.2381084
1.239011
1.2381394
1.2390317
1.2381775
1.2390534
1.2378605
1.2386935
1.2381911
1.2390737
1.2382882
1.2391787
1.238324
1.2392176
1.2383475
1.2392357
1.2383794
1.2392594
1.2382379
1.2391616
1.2385616
1.2395486
1.2386692
1.2396606
1.2387158
1.2397119
1.2387439
1.2397469
1.2387791
1.2397809
1.2386934
1.239709
1.2390277
1.2401312
1.239146
1.2402633
1.2392062
1.2403284
1.2392507
1.2403799
1.2393013
1.2404369
1.2393467
1.240337
1.2397002
1.2408386
1.2398337
1.2409964
1.2399096
1.241075
1.2399709
1.2411378
1.2400355
1.2412113
1.2398582
1.2407484
1.2402129
1.2412826
1.2403538
1.2414628
1.2404357
1.241556
1.240504
1.2416283
1.2405824
1.2417133
1.2400054
1.2408605
1.2403649
1.2414514
1.2405084
1.2416554
1.2405938
1.2417634
1.2406651
1.2418476
1.2407466
1.2419429
1.2400063
1.2408496
1.2403776
1.2414938
1.2405264
1.2417191
1.2406148
1.2418394
1.2406883
1.2419341
1.2407723
1.2420422
1.2400259
1.2408386
1.2404057
1.2415313
1.2405588
1.2417764
1.2406495
1.2419089
1.240725
1.242014
1.2408117
1.2421342
1.2400896
1.2408478
1.2404745
1.2415792
1.2406305
1.2418411
1.2407231
1.2419842
1.2408003
1.2420985
1.2408888
1.2422298
1.2402326
1.2409003
1.2406136
1.2416486
1.2407692
1.2419207
1.2408621
1.2420713
1.2409396
1.2421924
1.2410281
1.2423321
1.2404717
1.2410247
1.2408418
1.2417668
1.2409948
1.2420409
1.2410866
1.2421945
1.2411633
1.2423188
1.2412508
1.2424622
1.2408658
1.2412769
1.2412114
1.2419772
1.241356
1.2422403
1.241444
1.2423897
1.241518
1.2425111
1.2416017
1.2426508
1.24143
1.2417124
1.2417407
1.2423406
1.2418735
1.2425838
1.2419553
1.2427224
1.2420246
1.2428351
1.2421024
1.2429643
1.242168
1.2423493
1.2424368
1.2428853
1.2425534
1.2430983
1.2426257
1.2432224
1.2426871
1.243325
1.2427553
1.2434426
1.2429545
1.2430482
1.2431826
1.2434975
1.2432835
1.2436807
1.2433466
1.2437884
1.2434004
1.2438782
1.2434601
1.2439827
1.2436482
1.2437
1.2438427
1.2440823
1.2439305
1.2442412
1.2439855
1.2443353
1.2440329
1.2444142
1.2440866
1.2445065
1.2442583
1.2443143
1.2444296
1.2446486
1.2445081
1.2447888
1.2445575
1.2448716
1.2446006
1.244941
1.24465
1.2450231
1.2447541
1.2448434
1.2449123
1.2451454
1.2449831
1.2452659
1.2450274
1.2453379
1.2450654
1.2453984
1.2451085
1.2454705
1.2451657
1.2453019
1.2453194
1.2455841
1.2453823
1.2456893
1.2454219
1.2457525
1.2454564
1.2458064
1.2454967
1.2458732
1.2454691
1.2456282
1.2456201
1.2459015
1.245677
1.2459944
1.2457132
1.2460506
1.2457452
1.2460996
1.2457834
1.2461617
1.2456803
1.2458378
1.2458284
1.2460987
1.2458823
1.2461843
1.2459172
1.2462372
1.2459486
1.2462837
1.2459861
1.2463431
1.2457873
1.2458793
1.2459283
1.2461286
1.2459822
1.2462126
1.2460176
1.2462641
1.2460492
1.2463092
1.2460854
1.2463653
1.2458275
1.2458312
1.2459601
1.2460705
1.2460134
1.2461524
1.2460488
1.246203
1.2460802
1.2462472
1.2461154
1.2463011
1.245849
1.2457674
1.2459755
1.2459977
1.2460278
1.2460771
1.2460623
1.2461267
1.2460929
1.2461703
1.2461266
1.2462224
1.2458669
1.2457035
1.2459878
1.2459249
1.2460388
1.246003
1.246073
1.2460516
1.2461033
1.2460942
1.246136
1.2461446
1.2458865
1.2456563
1.2460032
1.245873
1.2460532
1.2459505
1.2460869
1.2459982
1.2461168
1.2460401
1.2461491
1.2460887
1.2459061
1.2456303
1.2460179
1.2458437
1.2460668
1.2459213
1.2460999
1.2459692
1.2461295
1.2460117
1.2461614
1.2460603
1.2459122
1.2455793
1.2460227
1.245785
1.2460718
1.2458604
1.2461043
1.2459071
1.2461335
1.2459487
1.2461641
1.2459954
1.2458003
1.2452939
1.2459095
1.2454789
1.2459559
1.2455415
1.2459869
1.2455818
1.246014
1.2456173
1.2460415
1.2456569
1.245297
1.2446979
1.2453985
1.2448718
1.2454383
1.2449264
1.2454626
1.244958
1.2454822
1.2449842
1.2455012
1.2450129
1.2447058
1.2443291
1.2448093
1.2445072
1.2448431
1.2445559
1.244859
1.244579
1.2448692
1.2445955
1.2448781
1.2446131
1.2444811
1.2442593
1.2445927
1.2444425
1.244622
1.2444875
1.2446305
1.2445047
1.244632
1.2445138
1.2446316
1.2445228
1.244421
1.2442655
1.2445425
1.2444528
1.2445668
1.2444928
1.2445691
1.2445052
1.2445644
1.2445098
1.2445585
1.2445153
1.244348
1.2441909
1.244493
1.2444009
1.2445235
1.2444467
1.2445259
1.2444599
1.2445203
1.2444647
1.2445144
1.2444721
1.2442642
1.2440363
1.2443979
1.2442478
1.2444399
1.2443122
1.2444532
1.2443377
1.2444554
1.2443519
1.2444573
1.2443703
1.2382258
1.2390779
1.2382723
1.239089
1.2383242
1.2390899
1.238394
1.2390748
1.2384996
1.2390171
1.238644
1.2388015
1.2385961
1.2378332
1.2384223
1.2392855
1.2384655
1.2392995
1.2385136
1.2393044
1.2385814
1.2393016
1.2386909
1.2392761
1.2388467
1.2391252
1.2388265
1.2382451
1.2388266
1.2398191
1.2388726
1.2398462
1.2389244
1.2398611
1.2389949
1.2398646
1.2391056
1.2398496
1.2392667
1.2397237
1.2392541
1.2388649
1.2393593
1.2404937
1.2394174
1.2405408
1.2394815
1.2405762
1.239566
1.2405973
1.2396913
1.2405994
1.2398682
1.2405
1.2398686
1.2396572
1.2401032
1.2412857
1.2401716
1.24135
1.2402449
1.2414047
1.240338
1.2414457
1.2404738
1.2414742
1.2406685
1.2414006
1.2406903
1.2405805
1.2406611
1.2418057
1.2407368
1.2418883
1.2408212
1.2419647
1.240928
1.2420334
1.2410834
1.2420908
1.2413083
1.2420811
1.2413867
1.241319
1.2408332
1.2420412
1.2409174
1.2421306
1.2410074
1.2422192
1.2411228
1.242307
1.2412964
1.2423955
1.2415578
1.2424184
1.2416802
1.2417104
1.2408599
1.2421519
1.2409484
1.2422481
1.2410465
1.2423458
1.2411703
1.2424524
1.2413583
1.2425726
1.2416443
1.2426352
1.2418116
1.242003
1.2409019
1.2422561
1.2409929
1.242365
1.2410977
1.2424773
1.2412325
1.2426031
1.2414352
1.2427562
1.2417519
1.2428842
1.2419769
1.2423494
1.2409817
1.2423636
1.2410759
1.2424865
1.2411858
1.242617
1.2413315
1.2427691
1.2415541
1.2429661
1.2419062
1.2431683
1.2421935
1.2427507
1.241122
1.2424762
1.2412188
1.2426124
1.2413343
1.2427619
1.2414905
1.2429438
1.2417326
1.2431898
1.242123
1.2434697
1.2424744
1.2431897
1.2413447
1.2426128
1.2414438
1.2427596
1.2415648
1.2429279
1.2417316
1.2431424
1.2419933
1.2434387
1.2424194
1.2437997
1.2428288
1.2436619
1.241693
1.2428008
1.2417921
1.2429542
1.241916
1.2431385
1.2420902
1.2433796
1.2423658
1.2437224
1.242815
1.2441613
1.2432641
1.2441636
1.2421877
1.2431072
1.2422836
1.2432611
1.2424073
1.2434532
1.242585
1.243715
1.2428686
1.244096
1.2433302
1.2445955
1.2437874
1.2447022
1.242831
1.2435738
1.2429202
1.2437223
1.2430398
1.2439156
1.243217
1.2441897
1.2435031
1.2445957
1.2439628
1.245128
1.2443969
1.245294
1.2435255
1.2440999
1.2436062
1.2442382
1.2437183
1.2444262
1.243889
1.244703
1.2441661
1.245121
1.2446053
1.245667
1.2449967
1.2458617
1.2441438
1.2446087
1.2442167
1.2447337
1.2443201
1.2449101
1.2444809
1.2451795
1.2447427
1.2455946
1.2451546
1.2461404
1.2455088
1.2463566
1.2447009
1.2451124
1.244766
1.2452237
1.2448603
1.2453863
1.2450097
1.2456416
1.2452544
1.2460421
1.245638
1.2465769
1.2459651
1.246814
1.2451565
1.245553
1.245215
1.2456533
1.2452998
1.2458001
1.2454331
1.2460306
1.2456529
1.2463984
1.2460022
1.2469126
1.2463323
1.2472032
1.2455411
1.2459494
1.2455945
1.2460406
1.2456699
1.2461707
1.2457866
1.246372
1.2459787
1.2466967
1.2462919
1.247179
1.2466373
1.2475329
1.2458251
1.2462323
1.2458742
1.2463149
1.2459415
1.2464292
1.2460433
1.2466031
1.24621
1.2468859
1.24649
1.2473315
1.246852
1.2477505
1.2460236
1.2464064
1.246068
1.2464789
1.2461289
1.2465795
1.2462218
1.2467345
1.2463739
1.2469911
1.2466342
1.24741
1.2470037
1.2478685
1.2461212
1.2464233
1.2461623
1.246488
1.2462209
1.2465806
1.2463131
1.2467281
1.2464653
1.2469769
1.2467248
1.2473934
1.2471007
1.2478773
1.2461497
1.2463554
1.2461892
1.2464163
1.2462469
1.2465054
1.2463402
1.2466515
1.2464964
1.2469005
1.246764
1.2473201
1.2471495
1.2478247
1.2461591
1.2462744
1.2461977
1.2463339
1.2462556
1.2464225
1.2463514
1.2465702
1.2465139
1.2468237
1.2467937
1.247254
1.2471962
1.2477818
1.2461675
1.2461951
1.246206
1.2462544
1.2462645
1.2463442
1.2463628
1.2464959
1.2465309
1.2467574
1.2468229
1.2471997
1.2472402
1.2477284
1.2461801
1.246138
1.2462192
1.2461968
1.2462791
1.2462871
1.2463801
1.2464421
1.2465536
1.2467107
1.2468557
1.2471599
1.2472801
1.2476793
1.246192
1.2461092
1.2462319
1.2461703
1.2462937
1.246265
1.2463973
1.2464279
1.2465749
1.2467096
1.2468837
1.2471777
1.2473131
1.2476996
1.2461939
1.2460431
1.246233
1.2461043
1.2462938
1.2462008
1.2463974
1.2463686
1.2465769
1.2466649
1.2468883
1.2471538
1.2473162
1.2476826
1.2460694
1.2456989
1.246106
1.2457548
1.2461632
1.2458463
1.2462612
1.2460082
1.246432
1.2462985
1.2467336
1.2467833
1.2471461
1.2472907
1.2455226
1.2450464
1.245551
1.2450934
1.2455996
1.2451781
1.2456876
1.2453353
1.2458468
1.2456212
1.2461309
1.2460964
1.2465332
1.2465683
1.2448907
1.2446372
1.2449106
1.2446758
1.2449545
1.244757
1.2450423
1.2449152
1.2452069
1.245203
1.2455013
1.2456802
1.2459052
1.2461294
1.2446365
1.2445408
1.2446489
1.2445725
1.24469
1.2446486
1.2447799
1.2448057
1.2449537
1.245097
1.2452648
1.245571
1.245687
1.2460115
1.244559
1.2445319
1.2445674
1.2445635
1.2446076
1.2446445
1.2446994
1.2448075
1.2448793
1.2451052
1.2451998
1.2455806
1.2456297
1.2460092
1.2445156
1.2444929
1.2445245
1.244529
1.2445675
1.2446197
1.2446647
1.2447993
1.2448545
1.2451186
1.2451873
1.2456134
1.2456299
1.2460465
1.2444651
1.2444018
1.2444811
1.2444503
1.2445324
1.2445556
1.2446397
1.2447539
1.2448407
1.245097
1.2451861
1.2456157
1.2456369
1.2460628
1.2383083
1.2368977
1.2382449
1.2363773
1.2385597
1.2363722
1.2389377
1.2363652
1.2385634
1.237358
1.238504
1.23685
1.2387972
1.2367931
1.2391509
1.2367226
1.2389888
1.2379773
1.2389154
1.2374468
1.2391766
1.2373382
1.2395079
1.2372221
1.2395928
1.2387501
1.2394948
1.2381728
1.2397119
1.238008
1.2400095
1.2378554
1.2404188
1.2396697
1.2403146
1.2390693
1.2405157
1.2388788
1.2408035
1.2387229
1.2411549
1.2404314
1.2410802
1.2398395
1.241307
1.239669
1.2416179
1.2395656
1.2414698
1.2408264
1.2414015
1.2402148
1.2416194
1.240021
1.2419002
1.2399006
1.2416174
1.2411237
1.2415418
1.2404765
1.2417305
1.2402202
1.2419704
1.2400411
1.2418026
1.2414881
1.2417165
1.24081
1.2418656
1.2404817
1.2420516
1.2402251
1.2420466
1.2419218
1.2419499
1.2412249
1.2420522
1.2408242
1.2421706
1.2404779
1.2423585
1.2424177
1.2422534
1.2417226
1.2423049
1.2412582
1.2423417
1.2408142
1.2427458
1.2429691
1.2426378
1.2423055
1.2426435
1.2418021
1.242591
1.2412651
1.2432143
1.2435663
1.2431075
1.2429574
1.2430729
1.2424456
1.2429279
1.2418313
1.2437616
1.2442118
1.2436617
1.243682
1.2436055
1.2431995
1.243378
1.2425334
1.2443917
1.2449129
1.244304
1.2444738
1.2442428
1.2440454
1.2439646
1.2433744
1.2450026
1.2455647
1.2449268
1.2452017
1.2448712
1.2448383
1.2445623
1.2441919
1.245524
1.2461216
1.2454623
1.245816
1.2454181
1.2455087
1.2451175
1.24491
1.2459906
1.2466235
1.2459391
1.246355
1.2459048
1.2460884
1.2456059
1.2455258
1.2463759
1.2470612
1.2463383
1.2468287
1.2463158
1.24659
1.2460374
1.2460577
1.2467137
1.2474503
1.2466914
1.247249
1.2466809
1.2470268
1.2464181
1.2465097
1.2469672
1.2477349
1.2469602
1.2475654
1.2469702
1.2473641
1.2467228
1.2468566
1.2471612
1.2479195
1.2471778
1.247788
1.2472098
1.2476123
1.2469898
1.2471276
1.2472891
1.2479833
1.2473342
1.247901
1.2473854
1.2477552
1.2471944
1.2472917
1.2473617
1.24798
1.2474347
1.2479514
1.2474981
1.2478211
1.247334
1.2473707
1.2474286
1.2479493
1.2475128
1.2479726
1.2475794
1.2478467
1.2474408
1.2474074
1.2474811
1.247911
1.2475726
1.2479526
1.2476373
1.2478248
1.2475203
1.2474076
1.2475233
1.2478606
1.2476215
1.2479219
1.2476852
1.2477746
1.2475858
1.2473855
1.2475663
1.2479105
1.2476609
1.2479139
1.2477263
1.2477345
1.2476433
1.2473607
1.2475745
1.2478732
1.2476742
1.2478698
1.2477505
1.2476886
1.2476907
1.2473371
1.2473833
1.2474879
1.2475157
1.2475201
1.2476385
1.2474091
1.2476346
1.2471461
1.2467763
1.2467548
1.2469431
1.2467923
1.24713
1.2467003
1.2472079
1.2465017
1.2461249
1.2462878
1.2462504
1.2462467
1.2463924
1.2460503
1.2464397
1.2457433
1.2459027
1.2461583
1.2459704
1.2460712
1.2460153
1.2457952
1.245947
1.2453794
1.2458504
1.2461494
1.2458963
1.2460402
1.2459007
1.245726
1.2457776
1.2452583
1.2458516
1.2461839
1.2458852
1.2460635
1.245867
1.2457279
1.2457126
1.2452311
1.2458566
1.2461981
1.2458856
1.2460728
1.2458581
1.2457296
1.2456932
1.2452267
1.2259221
1.2317123
1.2276339
1.232938
1.2299192
1.2348612
1.2268129
1.232262
1.2283753
1.2334067
1.2305427
1.235278
1.2277439
1.2328964
1.2291844
1.2339627
1.2312915
1.2358311
1.2286053
1.2335503
1.229949
1.2345301
1.2321162
1.2365026
1.2295655
1.2343952
1.2308168
1.2352729
1.2331206
1.2374289
1.230477
1.2352682
1.2317569
1.2361526
1.234188
1.2384197
1.2309359
1.2356663
1.2322898
1.2366074
1.234853
1.2389867
1.2312149
1.2358362
1.2325689
1.2367902
1.2351998
1.2392441
1.231573
1.2360352
1.2328952
1.2369808
1.235523
1.2394592
1.2320489
1.2363042
1.2333288
1.2372351
1.2359467
1.2397381
1.2326685
1.2366632
1.2338905
1.2375738
1.2365014
1.2401045
1.2334809
1.2371533
1.2346302
1.2380329
1.2372202
1.2405791
1.2345042
1.2377998
1.2355656
1.2386378
1.2381219
1.2411857
1.2357388
1.2386167
1.2367135
1.239411
1.2392259
1.2419418
1.2371898
1.2396233
1.2380505
1.2403434
1.2405205
1.2428664
1.2386377
1.2406826
1.2394035
1.2413428
1.2418239
1.2438546
1.2398924
1.2416301
1.2405714
1.2422388
1.242933
1.2447459
1.2409894
1.2424947
1.2415926
1.2430677
1.2438966
1.2455596
1.2419047
1.2432427
1.2424399
1.2437762
1.2447312
1.2462383
1.2426547
1.243879
1.243103
1.2443417
1.245371
1.2467688
1.2432684
1.2444366
1.2436856
1.2448873
1.2459195
1.247289
1.2437303
1.2448964
1.2441054
1.2453071
1.2462952
1.2476723
1.2440086
1.2452441
1.2443665
1.2456176
1.2464967
1.2479382
1.2442017
1.2454851
1.244528
1.2458343
1.2465972
1.2481213
1.2443155
1.2456631
1.2446206
1.2459858
1.2466363
1.248238
1.2443775
1.2457921
1.2446773
1.2461012
1.2466436
1.2483177
1.2444162
1.2459008
1.2447121
1.2461845
1.2466314
1.2483721
1.2444525
1.2459708
1.2447499
1.2462515
1.2466108
1.2484101
1.2444857
1.2460443
1.244769
1.2463033
1.2465885
1.2484425
1.2444202
1.2460684
1.2446749
1.2463309
1.2465439
1.248456
1.24395
1.2458444
1.2443607
1.2461406
1.2463368
1.2483601
1.2431495
1.2450531
1.2436068
1.2455101
1.2455749
1.247772
1.2426001
1.2444024
1.2429942
1.2448068
1.2445406
1.2466989
1.2423297
1.2440814
1.2426746
1.2444184
1.2438756
1.2459004
1.2421775
1.2438946
1.2425172
1.2442005
1.243572
1.2455111
1.2421176
1.2438227
1.2424641
1.2441199
1.2434898
1.2453944
1.244066
1.243057
1.2418191
1.2401847
1.2378566
1.2348224
1.2438936
1.2428981
1.2416698
1.240021
1.2376946
1.2346747
1.2449948
1.243164
1.2419057
1.2403237
1.2380769
1.2351897
1.2447737
1.2429992
1.2417562
1.2401657
1.2379302
1.2350759
1.2457888
1.243723
1.2421581
1.2405518
1.2383882
1.2356537
1.2455568
1.2435146
1.2420067
1.2404143
1.2382754
1.2355902
1.2462489
1.2445249
1.2427656
1.2410087
1.2388311
1.2361761
1.2460315
1.2442773
1.2425922
1.2408917
1.2387641
1.236165
1.2464183
1.2451247
1.2435719
1.2418257
1.2396122
1.236953
1.2462364
1.2449143
1.2434014
1.2417043
1.2395492
1.2369407
1.2464503
1.245361
1.2440384
1.2424786
1.2403742
1.2377539
1.2462597
1.2451723
1.2438774
1.2423322
1.2402424
1.2376302
1.2464581
1.2454278
1.2441677
1.242687
1.240655
1.2380761
1.2462538
1.2452357
1.2439997
1.2425184
1.2404723
1.237871
1.2464655
1.2454725
1.2442103
1.2427421
1.2407317
1.2381704
1.2462456
1.2452647
1.2440278
1.2425562
1.2405235
1.2379301
1.2464782
1.2455285
1.2442581
1.2427941
1.2408024
1.2382644
1.2462376
1.2453013
1.244056
1.2425872
1.2405684
1.2379913
1.2464967
1.2455988
1.2443215
1.242864
1.2408998
1.2384
1.2462313
1.2453493
1.2440969
1.2426343
1.2406393
1.2380962
1.2465307
1.2456865
1.2444055
1.2429604
1.2410375
1.2385986
1.24623
1.2454115
1.2441567
1.2427078
1.240754
1.238273
1.2465774
1.2457939
1.2445182
1.243093
1.2412298
1.2388817
1.2462347
1.245491
1.2442411
1.2428149
1.2409233
1.2385358
1.246658
1.2459368
1.244679
1.2432828
1.2414998
1.2392797
1.2462646
1.2455949
1.2443627
1.242973
1.2411716
1.2389238
1.2467659
1.2460989
1.2448803
1.2435354
1.2418652
1.2398144
1.2462975
1.245716
1.2445297
1.2432012
1.241527
1.2394647
1.246848
1.2462644
1.2451308
1.2438676
1.242347
1.2405139
1.2463377
1.2458463
1.2447478
1.243519
1.2420148
1.2401896
1.2469636
1.2464592
1.2454242
1.2442523
1.2428837
1.2412688
1.2463943
1.2459871
1.2449979
1.2438799
1.2425492
1.2409656
1.2470857
1.2466405
1.2456871
1.2446088
1.2433799
1.2419586
1.2464655
1.2461164
1.2452299
1.2442196
1.2430462
1.2416745
1.2472226
1.2468278
1.245959
1.244967
1.2438562
1.2425971
1.2465462
1.2462428
1.2454551
1.244547
1.2435111
1.2423189
1.2473499
1.2469838
1.2461941
1.2452847
1.2442727
1.2431462
1.2466233
1.2463472
1.2456452
1.2448277
1.2439071
1.2428624
1.2474766
1.2471314
1.2464113
1.2455825
1.2446491
1.243624
1.2467007
1.2464399
1.2458127
1.2450786
1.2442576
1.2433338
1.2476188
1.2472751
1.2466129
1.2458474
1.2449787
1.2440253
1.2467864
1.2465203
1.2459535
1.2452936
1.2445535
1.2437211
1.247812
1.2474496
1.2468113
1.2460929
1.2452753
1.2443669
1.2469082
1.2466112
1.2460847
1.2454863
1.2448076
1.2440366
1.2480463
1.2476445
1.2470057
1.2463117
1.2455201
1.2446276
1.2470526
1.2467102
1.2462019
1.2456448
1.2450008
1.2442562
1.2482606
1.2477952
1.2471629
1.2464833
1.2457051
1.2448115
1.247186
1.2467865
1.2462863
1.2457589
1.2451336
1.244396
1.2484649
1.2479249
1.2472908
1.2466239
1.2458521
1.2449498
1.2473093
1.2468467
1.2463525
1.2458485
1.2452329
1.244493
1.2486338
1.2480309
1.2474032
1.2467394
1.245969
1.2450553
1.247425
1.2468943
1.2464054
1.2459193
1.2453085
1.2445618
1.248796
1.2481146
1.2474923
1.2468348
1.2460633
1.2451377
1.2475305
1.2469294
1.246448
1.2459768
1.2453687
1.2446132
1.2489308
1.2481821
1.2475681
1.2469154
1.2461411
1.2452034
1.2476249
1.2469563
1.2464836
1.246024
1.2454176
1.244654
1.2490515
1.2482347
1.2476298
1.2469807
1.2462049
1.2452568
1.2477082
1.2469746
1.2465127
1.246063
1.245459
1.2446883
1.2491537
1.2482763
1.2476799
1.2470361
1.2462519
1.245279
1.2477766
1.2469898
1.2465394
1.2460949
1.2454821
1.2446765
1.24924
1.2483058
1.2477061
1.2470409
1.2461872
1.2451055
1.2478353
1.2469968
1.2465418
1.2460682
1.2453684
1.2444231
1.2493061
1.2482899
1.2476067
1.2468111
1.2457397
1.2444535
1.2478752
1.2469492
1.2464068
1.2457435
1.2448063
1.2436935
1.2493003
1.2480862
1.2471366
1.2460832
1.2449528
1.2437768
1.2478497
1.2466828
1.2458386
1.2449497
1.2440307
1.2430725
1.2491383
1.2474087
1.2462918
1.2454066
1.2445272
1.2434928
1.247653
1.2459543
1.2450009
1.2443552
1.2436895
1.2428491
1.2484773
1.2464412
1.2458395
1.2452232
1.2444045
1.2433703
1.2469847
1.2450429
1.2446268
1.2442291
1.2436016
1.2427513
1.2473037
1.2463929
1.2458459