/*--------------------------------*- C++ -*----------------------------------*\
| =========                 |                                                 |
| \\      /  F ield         | OpenFOAM: The Open Source CFD Toolbox           |
|  \\    /   O peration     | Version:  2206                                  |
|   \\  /    A nd           | Website:  www.openfoam.com                      |
|    \\/     M anipulation  |                                                 |
\*---------------------------------------------------------------------------*/
FoamFile
{
    version     2.0;
    format      ascii;
    arch        "LSB;label=32;scalar=64";
    class       volScalarField;
    location    "300";
    object      T;
}
// * * * * * * * * * * * * * * * * * * * * * * * * * * * * * * * * * * * * * //

dimensions      [0 0 0 1 0 0 0];

internalField   nonuniform List<scalar> 
50904
(
297.93871
297.61588
297.9379
297.55398
297.77064
297.32307
297.74539
297.21547
297.58507
297.05214
297.54345
296.93114
297.40467
296.82628
297.34938
296.70315
297.16776
296.57632
297.10249
296.45309
296.92684
296.35984
296.86959
296.25474
296.84505
296.30263
296.79367
296.20806
296.84976
296.3285
296.7972
296.23449
296.86931
296.37074
296.81343
296.27513
296.89698
296.42619
296.83876
296.32929
296.93505
296.49653
296.8757
296.39872
296.98623
296.58596
296.92688
296.48864
297.05328
296.69568
296.99637
296.60041
297.13864
296.82715
297.08614
296.7345
297.23986
296.97622
297.19454
296.88876
297.34135
297.12051
297.3047
297.04095
297.43038
297.24439
297.40053
297.17246
297.50817
297.35088
297.48307
297.28557
297.57343
297.44034
297.55151
297.37928
297.62683
297.5132
297.60863
297.45601
297.66863
297.57034
297.65277
297.51625
297.69814
297.61121
297.68494
297.56153
297.71403
297.63426
297.70228
297.58826
297.72053
297.64608
297.71025
297.60203
297.72142
297.64992
297.71254
297.60664
297.7192
297.65059
297.71131
297.60866
297.7147
297.65138
297.70705
297.61352
297.70897
297.65172
297.70064
297.61928
297.70262
297.65231
297.69521
297.62457
297.71127
297.68841
297.71896
297.67277
297.81555
297.82458
297.85467
297.84434
298.05011
298.0682
298.09268
298.07862
298.22443
298.20992
298.24248
298.18539
298.30067
298.27351
298.30342
298.24602
298.34489
298.31572
298.34223
298.29523
298.36478
298.3373
298.36323
298.32317
298.01548
297.61502
298.13809
297.79313
298.19848
297.94861
298.22997
298.04122
298.24844
298.09985
298.25967
298.13775
298.26715
298.16551
297.82753
297.28823
297.99012
297.53246
298.07314
297.7399
298.11694
297.85261
298.14235
297.92493
298.15822
297.97317
298.16923
298.0093
297.63759
297.01844
297.82398
297.28988
297.91066
297.52922
297.9601
297.65052
297.98971
297.72522
298.00898
297.77695
298.02294
297.81631
297.43986
296.7882
297.6191
297.03632
297.69834
297.2793
297.74611
297.4104
297.7765
297.48798
297.79745
297.54013
297.81337
297.5796
297.18211
296.53152
297.34541
296.76651
297.41592
297.0148
297.4596
297.15465
297.48779
297.24346
297.50812
297.30293
297.52455
297.35238
296.94454
296.34079
297.10554
296.58632
297.18079
296.84451
297.23172
296.99225
297.26577
297.08603
297.2889
297.14811
297.30949
297.18881
296.86461
296.30208
297.02474
296.56378
297.10487
296.81582
297.15936
296.95522
297.1955
297.04318
297.22185
297.10197
297.24262
297.14171
296.86264
296.32828
297.01586
296.5939
297.09779
296.83958
297.1545
296.97028
297.19182
297.05206
297.21875
297.10793
297.23979
297.14697
296.87156
296.36474
297.01465
296.62666
297.097
296.86746
297.15541
296.98951
297.19367
297.06438
297.22088
297.11678
297.24183
297.15669
296.88973
296.41234
297.02151
296.66615
297.10299
296.90046
297.16247
297.0127
297.20128
297.08328
297.22858
297.13137
297.24945
297.1695
296.92081
296.47326
297.04164
296.7133
297.12101
296.93894
297.1802
297.04614
297.21891
297.11449
297.24593
297.15811
297.26644
297.19386
296.96734
296.55246
297.0776
296.7756
297.15347
296.99476
297.21169
297.09496
297.24953
297.16027
297.27604
297.2003
297.29571
297.23224
297.03371
296.65629
297.13505
296.86531
297.20757
297.07559
297.26433
297.17076
297.30066
297.22791
297.32555
297.26485
297.34369
297.29311
297.12009
296.77999
297.21304
296.97359
297.28255
297.17572
297.33696
297.26387
297.37108
297.31262
297.39382
297.34662
297.41002
297.37157
297.22564
296.92389
297.31031
297.10142
297.37674
297.29009
297.4278
297.36815
297.45884
297.4128
297.479
297.44318
297.49293
297.46458
297.33452
297.07041
297.41092
297.23626
297.47327
297.40803
297.52003
297.48008
297.54805
297.52
297.5658
297.54609
297.5777
297.56372
297.42846
297.20003
297.49674
297.3593
297.55475
297.51552
297.59724
297.58154
297.62246
297.61788
297.63815
297.64095
297.64841
297.65604
297.50875
297.31348
297.56947
297.46801
297.62343
297.60734
297.66204
297.66661
297.6848
297.69886
297.69876
297.71908
297.70775
297.732
297.57561
297.41111
297.6303
297.55999
297.67946
297.68301
297.7142
297.73554
297.73471
297.76445
297.74731
297.78165
297.75547
297.79304
297.63032
297.49135
297.68039
297.63282
297.7249
297.74141
297.75616
297.78709
297.77469
297.81274
297.78615
297.82809
297.79364
297.83773
297.67196
297.55248
297.71789
297.6828
297.75858
297.78028
297.78753
297.82065
297.80486
297.8432
297.81567
297.85517
297.82274
297.86564
297.70176
297.59537
297.74395
297.71414
297.78175
297.80014
297.80838
297.83591
297.82433
297.85609
297.83431
297.86791
297.84056
297.87593
297.71687
297.61616
297.75425
297.72685
297.78925
297.80541
297.81417
297.83769
297.82883
297.85576
297.83723
297.86601
297.84303
297.87406
297.72389
297.62152
297.75741
297.7237
297.78768
297.79682
297.80924
297.82779
297.82222
297.84619
297.83039
297.85743
297.8357
297.86491
297.72587
297.61682
297.75747
297.71117
297.78476
297.78134
297.80373
297.81185
297.81528
297.83069
297.82285
297.84283
297.8281
297.85088
297.72466
297.61117
297.75598
297.69939
297.7815
297.76571
297.79877
297.79832
297.80961
297.81741
297.81699
297.8297
297.82171
297.83791
297.72055
297.61025
297.75351
297.68709
297.77867
297.74889
297.79548
297.783
297.80567
297.80438
297.81241
297.81751
297.81732
297.82546
297.71509
297.6087
297.75008
297.67511
297.77526
297.72975
297.79074
297.76586
297.80038
297.78967
297.80937
297.80416
297.8135
297.81284
297.71102
297.61038
297.74791
297.67911
297.77492
297.7412
297.79145
297.7799
297.8012
297.80465
297.80874
297.81738
297.81412
297.82398
297.74452
297.67393
297.78339
297.77009
297.81972
297.83975
297.84031
297.87438
297.85006
297.89523
297.8593
297.90811
297.86517
297.91631
297.90122
297.88118
297.96928
297.99321
298.00517
298.06047
298.0238
298.09674
298.03359
298.11899
298.03974
298.13317
298.04395
298.14246
298.13459
298.09146
298.19881
298.16404
298.23938
298.22647
298.25948
298.26293
298.2697
298.28199
298.27531
298.29408
298.27873
298.30172
298.261
298.17844
298.3108
298.23082
298.34908
298.28076
298.36852
298.31202
298.37813
298.33195
298.38296
298.34385
298.3853
298.35078
298.31315
298.22936
298.35489
298.26154
298.39031
298.29408
298.40842
298.32734
298.41703
298.34934
298.4207
298.36214
298.4219
298.36905
298.34931
298.27865
298.38622
298.29357
298.41646
298.32129
298.43148
298.35638
298.43909
298.37817
298.44195
298.39121
298.44216
298.39765
298.37135
298.31578
298.40725
298.32925
298.43509
298.35967
298.44729
298.39377
298.45255
298.41444
298.45463
298.42642
298.4548
298.43234
298.27316
298.18923
298.27808
298.20844
298.28126
298.22337
298.28516
298.24105
298.29482
298.27148
298.31849
298.33705
298.17834
298.04063
298.18584
298.06609
298.19119
298.086
298.19777
298.10908
298.21117
298.14894
298.24505
298.23734
298.03475
297.85096
298.04477
297.87989
298.05257
297.90347
298.06133
297.92991
298.07667
297.97256
298.1127
298.06581
297.82742
297.61312
297.83946
297.64116
297.84903
297.66491
297.85966
297.69223
297.8772
297.73646
297.91532
297.83065
297.53971
297.39158
297.55345
297.42508
297.56504
297.45275
297.57794
297.48278
297.59934
297.52537
297.64354
297.60348
297.32763
297.22183
297.34423
297.25919
297.35724
297.28541
297.37101
297.31215
297.39741
297.35027
297.44411
297.4387
297.26123
297.17706
297.27749
297.21181
297.29192
297.23785
297.3082
297.2656
297.333
297.30757
297.38319
297.39335
297.25861
297.18204
297.27503
297.21534
297.28959
297.24112
297.30606
297.26869
297.33132
297.30958
297.38297
297.39497
297.26068
297.18876
297.27694
297.22017
297.29135
297.24526
297.30777
297.27236
297.3332
297.31277
297.38611
297.39668
297.26808
297.20126
297.28415
297.22994
297.29827
297.25404
297.31437
297.28024
297.33948
297.31956
297.39288
297.40158
297.28458
297.2243
297.30027
297.25067
297.31393
297.27331
297.32943
297.29811
297.35407
297.33546
297.40673
297.41396
297.31295
297.26097
297.32779
297.28528
297.34066
297.30584
297.35541
297.32884
297.37893
297.36396
297.42969
297.43814
297.35943
297.31749
297.37299
297.3392
297.38475
297.35777
297.39823
297.37833
297.41991
297.41034
297.46694
297.47969
297.4237
297.39269
297.43567
297.41163
297.44598
297.42791
297.45792
297.44646
297.47726
297.47541
297.51924
297.53901
297.50445
297.48228
297.51457
297.49831
297.52337
297.51219
297.5336
297.52832
297.55027
297.55417
297.58597
297.61009
297.58739
297.57799
297.59584
297.5909
297.60323
297.60219
297.6119
297.61571
297.62604
297.63852
297.6559
297.68924
297.65672
297.66805
297.66394
297.67879
297.67032
297.68819
297.67789
297.6995
297.69029
297.71886
297.71604
297.76171
297.71495
297.7421
297.72122
297.75117
297.72681
297.75915
297.73349
297.76884
297.74447
297.7855
297.76696
297.82203
297.76179
297.80159
297.76737
297.80936
297.77238
297.81621
297.7784
297.82461
297.78832
297.83906
297.80835
297.87074
297.79947
297.84535
297.80458
297.85219
297.80923
297.85827
297.81486
297.86573
297.82407
297.87853
297.84201
297.90651
297.82832
297.8721
297.83314
297.87785
297.83753
297.88318
297.84279
297.8898
297.85081
297.9012
297.86279
297.92676
297.84547
297.88215
297.84989
297.88779
297.85377
297.89298
297.85798
297.89952
297.86381
297.91092
297.87526
297.93636
297.84746
297.8798
297.85166
297.88521
297.85538
297.8902
297.85929
297.89648
297.86391
297.90732
297.87465
297.93104
297.84005
297.87109
297.84417
297.87681
297.84802
297.88207
297.85236
297.8886
297.85859
297.8994
297.87029
297.92103
297.83256
297.85732
297.83657
297.86301
297.84035
297.86861
297.84449
297.8755
297.8504
297.88683
297.86565
297.90861
297.82616
297.84439
297.83019
297.85068
297.8342
297.85645
297.83869
297.86349
297.84564
297.87471
297.85939
297.89541
297.82154
297.83198
297.82556
297.83809
297.82964
297.84399
297.8341
297.85115
297.8416
297.86219
297.85428
297.88222
297.81798
297.81913
297.82194
297.82521
297.82614
297.83113
297.83139
297.83818
297.83771
297.84864
297.85041
297.86786
297.81859
297.82995
297.82334
297.83542
297.82774
297.84115
297.833
297.84817
297.83902
297.85867
297.85288
297.87835
297.8695
297.92201
297.87369
297.92809
297.87769
297.93458
297.88172
297.94195
297.8868
297.95389
297.89511
297.98041
298.04752
298.14974
298.05083
298.15639
298.05442
298.16276
298.05902
298.17048
298.06652
298.1831
298.07959
298.20743
298.28123
298.30741
298.28349
298.3124
298.28576
298.31687
298.28871
298.32229
298.29391
298.33198
298.30373
298.35274
298.38646
298.35531
298.38738
298.3588
298.38809
298.36169
298.3893
298.36543
298.39261
298.37349
298.40012
298.39314
298.42183
298.37287
298.42167
298.37532
298.42127
298.37718
298.42137
298.3796
298.42361
298.385
298.43011
298.40073
298.44102
298.40034
298.43995
298.40154
298.43863
298.40211
298.43785
298.40331
298.43895
298.40745
298.44366
298.42013
298.45366
298.43462
298.45258
298.43565
298.45113
298.43586
298.4501
298.43662
298.45078
298.43996
298.4545
298.4501
298.35173
298.39776
298.36871
298.42619
298.37236
298.42961
298.37279
298.42947
298.37229
298.42804
298.37183
298.42592
298.28977
298.33626
298.31338
298.37742
298.31935
298.38525
298.32079
298.38694
298.32106
298.38715
298.32134
298.38628
298.1594
298.17446
298.18395
298.22083
298.1918
298.23061
298.19513
298.23384
298.19695
298.23543
298.19874
298.23586
297.96262
297.94257
297.98745
297.99149
297.99656
298.00384
298.00167
298.00911
298.00567
298.01248
298.00958
298.01563
297.69294
297.70522
297.71819
297.74765
297.72909
297.76255
297.73554
297.76886
297.74151
297.77268
297.74816
297.77587
297.50171
297.55209
297.53332
297.60432
297.54524
297.62189
297.5525
297.62987
297.55864
297.63585
297.56562
297.64059
297.44741
297.51328
297.48413
297.56787
297.49749
297.58625
297.50512
297.5954
297.51124
297.6024
297.51763
297.60873
297.44907
297.51536
297.48678
297.57244
297.5004
297.59197
297.5086
297.60217
297.51521
297.61017
297.52214
297.61788
297.45383
297.51778
297.49289
297.57841
297.50729
297.59944
297.51592
297.6106
297.52295
297.61948
297.53045
297.62858
297.46171
297.52232
297.50197
297.5863
297.51722
297.60928
297.52628
297.62161
297.5338
297.63154
297.54193
297.6421
297.47516
297.53201
297.5159
297.59819
297.53172
297.62242
297.54114
297.63559
297.54909
297.64619
297.55776
297.65756
297.49623
297.55111
297.53641
297.61756
297.55225
297.64256
297.56179
297.65631
297.5697
297.66735
297.57837
297.67948
297.52918
297.58435
297.56722
297.64808
297.58244
297.67274
297.5915
297.68645
297.59906
297.69758
297.60744
297.70995
297.57512
297.63278
297.60971
297.69105
297.62379
297.71399
297.63206
297.72696
297.63888
297.73756
297.64644
297.74956
297.63345
297.69094
297.6638
297.74211
297.67638
297.76197
297.68379
297.77317
297.68983
297.78238
297.69637
297.79295
297.69555
297.7576
297.72104
297.80069
297.73174
297.81738
297.73802
297.8268
297.74321
297.83446
297.74903
297.8432
297.74993
297.81866
297.77177
297.85446
297.78095
297.86834
297.78628
297.8761
297.79065
297.88252
297.79543
297.89008
297.79647
297.87028
297.81543
297.90066
297.82327
297.91252
297.82771
297.91935
297.83131
297.92513
297.83539
297.93203
297.83455
297.91333
297.85097
297.94091
297.85745
297.95171
297.86126
297.95775
297.86448
297.96288
297.86823
297.96911
297.86422
297.94567
297.87957
297.97412
297.88526
297.98332
297.88866
297.98867
297.89164
297.99334
297.89521
297.99916
297.88371
297.96718
297.89859
297.99477
297.9037
298.00297
297.90684
298.00785
297.90968
298.01224
297.91313
298.01783
297.89442
297.97369
297.90861
298.0003
297.91356
298.00824
297.91661
298.01307
297.91937
298.01752
297.92267
298.02314
297.89304
297.96532
297.90656
297.9897
297.91138
297.99772
297.91452
298.00275
297.91733
298.00733
297.9206
298.01291
297.88899
297.95163
297.90238
297.97341
297.90697
297.98136
297.90987
297.98659
297.91239
297.99138
297.91527
297.9971
297.88382
297.93617
297.89708
297.95676
297.90161
297.96492
297.90464
297.97025
297.90725
297.97511
297.9101
297.98084
297.87759
297.92265
297.89054
297.94249
297.8953
297.95055
297.8983
297.95598
297.9009
297.96085
297.90378
297.96649
297.87221
297.90896
297.88494
297.92827
297.88971
297.93622
297.89274
297.94172
297.89529
297.94656
297.89798
297.95214
297.86791
297.89343
297.88074
297.91186
297.88548
297.91931
297.88839
297.9248
297.89089
297.92983
297.89341
297.93575
297.86905
297.90474
297.88153
297.92463
297.88559
297.93226
297.88884
297.93806
297.89145
297.94316
297.89422
297.94917
297.91114
298.01563
297.92312
298.03663
297.92804
298.04661
297.93108
298.05273
297.93384
298.05822
297.93706
298.06473
298.096
298.24178
298.10586
298.26696
298.10986
298.27624
298.11269
298.28163
298.11555
298.2862
298.11897
298.29166
298.31716
298.38579
298.32621
298.41088
298.32917
298.4192
298.33087
298.42352
298.33235
298.42672
298.33409
298.43042
298.41146
298.42565
298.41934
298.44943
298.4212
298.45648
298.42171
298.45981
298.42177
298.46206
298.4218
298.46445
298.44089
298.43313
298.44869
298.45649
298.44992
298.46252
298.44967
298.46477
298.44888
298.46598
298.44799
298.46752
298.45244
298.44481
298.45985
298.46842
298.46089
298.47389
298.46015
298.47541
298.45885
298.47604
298.45748
298.47701
298.46082
298.4679
298.46634
298.48762
298.46702
298.49254
298.46637
298.4939
298.46506
298.49416
298.46358
298.49432
298.37205
298.42359
298.37178
298.42025
298.37159
298.41641
298.37169
298.41174
298.37153
298.40602
298.36802
298.38979
298.35058
298.32817
298.32233
298.38459
298.3226
298.3812
298.32288
298.3762
298.32337
298.36797
298.32294
298.35264
298.31816
298.3182
298.29301
298.22941
298.20119
298.23507
298.20326
298.23287
298.2051
298.22908
298.20703
298.22177
298.2083
298.20638
298.20477
298.17014
298.17953
298.07877
298.01343
298.01732
298.01733
298.0176
298.021
298.01652
298.02501
298.01232
298.02876
298.00022
298.02784
297.96702
298.00539
297.88019
297.75367
297.77804
297.7589
297.77834
297.7643
297.77818
297.77026
297.77452
297.77644
297.76133
297.77833
297.73265
297.76201
297.65037
297.57289
297.64302
297.57857
297.64418
297.58399
297.64364
297.59026
297.64069
297.59681
297.62888
297.59832
297.59082
297.57346
297.50342
297.52386
297.61248
297.52988
297.61414
297.5355
297.61449
297.54087
297.61276
297.54694
297.60475
297.54821
297.57377
297.52527
297.49121
297.52888
297.62376
297.53522
297.62818
297.54154
297.63144
297.54824
297.63283
297.5557
297.62883
297.55911
297.60739
297.54059
297.53007
297.53762
297.63656
297.54446
297.64362
297.55172
297.65036
297.55989
297.65668
297.56908
297.65899
297.57584
297.64294
297.56251
297.57354
297.5499
297.65204
297.55763
297.66112
297.566
297.67069
297.57593
297.68122
297.588
297.68829
297.59866
297.67907
297.58818
297.619
297.56626
297.66864
297.57455
297.67914
297.5837
297.69084
297.59487
297.70445
297.60879
297.71646
297.62261
297.7168
297.619
297.668
297.5872
297.69185
297.596
297.70374
297.60606
297.71732
297.61882
297.7329
297.63525
297.74913
297.65308
297.75698
297.6551
297.71899
297.61617
297.7228
297.6252
297.73538
297.63589
297.74973
297.64988
297.76709
297.66875
297.78707
297.69013
297.79981
297.6968
297.77156
297.65463
297.76209
297.66358
297.77453
297.67477
297.78944
297.68989
297.80811
297.71043
297.83017
297.73443
297.84668
297.7445
297.82478
297.70368
297.80446
297.71211
297.81655
297.72321
297.83177
297.73874
297.85178
297.76024
297.87624
297.78551
297.89562
297.79672
297.87815
297.75537
297.85283
297.76287
297.86386
297.77347
297.87865
297.7889
297.89842
297.81052
297.92295
297.83564
297.94277
297.84615
297.92736
297.80063
297.89837
297.80718
297.90814
297.81696
297.92199
297.83177
297.94111
297.85291
297.96455
297.87723
297.98339
297.88664
297.96869
297.83984
297.93936
297.8455
297.94809
297.8543
297.9608
297.86815
297.9787
297.8884
298.00086
297.91184
298.01806
297.92063
298.00506
297.87238
297.97583
297.87731
297.98344
297.88515
297.99474
297.8977
298.01079
297.91628
298.03095
297.93849
298.04751
297.94842
298.03774
297.89908
298.00538
297.90372
298.0124
297.91082
298.02247
297.92195
298.03666
297.9386
298.05495
297.95943
298.07147
297.9716
298.06616
297.91679
298.02372
297.92105
298.0303
297.92728
298.03947
297.93707
298.05227
297.95192
298.06889
297.9715
298.08563
297.98635
298.08546
297.92603
298.02878
297.92984
298.03486
297.93536
298.04331
297.944
298.05537
297.95746
298.07158
297.97629
298.08938
297.99352
298.09405
297.92383
298.01817
297.92723
298.02371
297.93211
298.03165
297.93986
298.04361
297.95248
298.06056
297.97137
298.07999
297.9903
298.08905
297.91824
298.00227
297.92142
298.00775
297.92604
298.01562
297.93345
298.02771
297.94539
298.04544
297.96391
298.06748
297.98447
298.08012
297.91305
297.98606
297.91602
297.99186
297.92036
298.00035
297.92752
298.01352
297.93936
298.03264
297.95757
298.05686
297.9773
298.07119
297.90681
297.97166
297.90994
297.97749
297.91446
297.98605
297.9218
297.99959
297.93359
298.01975
297.95109
298.04619
297.96862
298.06614
297.9009
297.95745
297.90395
297.96359
297.90855
297.97283
297.91623
297.98796
297.92846
298.01156
297.94613
298.04604
297.96274
298.07951
297.89631
297.94155
297.89907
297.94882
297.90336
297.95954
297.91129
297.97664
297.92381
298.00368
297.94144
298.04448
297.95609
298.08303
297.89729
297.95517
297.90055
297.96228
297.90564
297.97316
297.91396
297.99055
297.92657
298.01748
297.94386
298.05327
297.9556
298.07658
297.94017
298.07119
297.94402
298.07909
297.94987
298.0917
297.95967
298.11236
297.97548
298.14393
297.99666
298.18446
298.01265
298.20771
298.12188
298.29745
298.12579
298.30492
298.13228
298.31778
298.14355
298.33949
298.16219
298.37306
298.1888
298.41575
298.20943
298.4404
298.33577
298.435
298.33808
298.44091
298.34278
298.45216
298.35162
298.47278
298.36648
298.50617
298.38761
298.54592
298.40496
298.57179
298.42211
298.46762
298.4228
298.47302
298.42563
298.48401
298.43187
298.50391
298.44256
298.53591
298.45696
298.57729
298.46668
298.60245
298.44756
298.46966
298.44741
298.47255
298.44932
298.48043
298.45419
298.49841
298.46292
298.52835
298.47453
298.56803
298.48185
298.59403
298.45666
298.47823
298.45605
298.47978
298.45743
298.48507
298.46131
298.49721
298.46766
298.5201
298.47601
298.55332
298.47948
298.57466
298.4627
298.49472
298.46183
298.49529
298.46269
298.49871
298.46516
298.50735
298.46968
298.52482
298.4753
298.5502
298.47613
298.56506
298.32597
298.26787
298.30141
298.224
298.27644
298.19492
298.23482
298.14445
298.25968
298.15207
298.2314
298.09865
298.21079
298.07865
298.17329
298.04186
298.14526
297.99731
298.11906
297.94276
298.10451
297.92921
298.07024
297.89936
297.97591
297.80205
297.95685
297.75187
297.95263
297.74491
297.92475
297.72011
297.73549
297.57019
297.719
297.51637
297.71709
297.50216
297.68749
297.46962
297.53522
297.41262
297.50846
297.34277
297.49224
297.3006
297.45079
297.23841
297.48783
297.39972
297.45564
297.31986
297.43307
297.25985
297.39091
297.18414
297.50408
297.43882
297.4696
297.35409
297.44324
297.28427
297.39962
297.20242
297.52756
297.48351
297.49168
297.39563
297.46186
297.3175
297.41628
297.23026
297.55606
297.53369
297.51931
297.44423
297.48569
297.35877
297.43787
297.26604
297.59039
297.58809
297.55305
297.49914
297.51541
297.40832
297.46463
297.31039
297.63043
297.64585
297.59337
297.55996
297.55244
297.46717
297.49894
297.36604
297.67602
297.70561
297.64004
297.62509
297.59695
297.53416
297.54129
297.43256
297.7265
297.766
297.69264
297.69332
297.6493
297.60785
297.59195
297.50814
297.78056
297.82676
297.7488
297.76249
297.70542
297.68362
297.64633
297.58781
297.83063
297.88132
297.80078
297.82407
297.75887
297.75277
297.70124
297.66433
297.87135
297.92624
297.84246
297.87338
297.80179
297.80772
297.74616
297.72494
297.90608
297.96571
297.87826
297.91589
297.83858
297.85392
297.7834
297.77463
297.93561
298.00241
297.909
297.95504
297.86925
297.89402
297.81337
297.81483
297.9623
298.0366
297.93746
297.99179
297.89673
297.92978
297.83716
297.84712
297.98105
298.06224
297.95836
298.0202
297.91728
297.95731
297.85509
297.87191
297.99202
298.07659
297.97093
298.03677
297.92842
297.97272
297.86238
297.88449
297.99154
298.07591
297.97141
298.03848
297.92758
297.97439
297.85766
297.8847
297.9881
298.07042
297.96746
298.03539
297.92223
297.97091
297.84894
297.87972
297.98053
298.0629
297.96053
298.03116
297.91346
297.96452
297.83728
297.87137
297.9733
298.07207
297.95059
298.02891
297.90162
297.96072
297.82364
297.86329
297.96823
298.08643
297.93926
298.02671
297.88752
297.95991
297.80898
297.85782
297.95631
298.04351
297.92762
298.01592
297.87288
297.95298
297.7938
297.85147
297.95326
298.057
297.92094
298.01341
297.86127
297.94766
297.77938
297.8426
298.01201
298.18336
297.96622
298.1182
297.8905
298.02617
297.79428
297.89006
298.20039
298.41436
298.14383
298.34316
298.04619
298.24218
297.92278
298.08508
298.40196
298.54919
298.35583
298.50105
298.27012
298.42799
298.1581
298.31154
298.46276
298.57838
298.43334
298.54299
298.37794
298.48965
298.30516
298.41073
298.4733
298.57155
298.44935
298.54189
298.40523
298.4972
298.35039
298.43702
298.4687
298.55274
298.4477
298.52547
298.40972
298.48507
298.36541
298.43667
298.4647
298.54195
298.44453
298.51495
298.40908
298.47568
298.3696
298.43183
297.69715
297.96431
297.81082
298.0361
297.72433
297.92953
297.45005
297.81425
297.60594
297.90939
297.54824
297.81592
297.19909
297.6418
297.38719
297.75916
297.33737
297.662
296.97499
297.46691
297.1899
297.60946
297.11476
297.47885
296.71943
297.22949
296.95927
297.40322
296.84836
297.2249
296.48823
296.98739
296.71645
297.15849
296.57846
296.96297
296.42631
296.91056
296.62543
297.06071
296.45011
296.84066
296.44869
296.91885
296.63651
297.05975
296.43352
296.81789
296.48901
296.94059
296.66757
297.07525
296.45009
296.82127
296.54051
296.96944
296.70646
297.09479
296.47373
296.82702
296.60585
297.00692
296.7556
297.11907
296.50407
296.83429
296.68805
297.05512
296.81784
297.15067
296.54767
296.84897
296.78829
297.11573
296.89444
297.19076
296.60485
296.87175
296.90673
297.18998
296.98733
297.24228
296.68327
296.91042
297.04087
297.27713
297.09995
297.31037
296.78484
296.96801
297.16938
297.36452
297.21419
297.38637
296.89486
297.03777
297.27905
297.44118
297.31637
297.46101
296.99835
297.10812
297.37254
297.50904
297.40768
297.53388
297.0889
297.17199
297.44889
297.56565
297.49263
297.59602
297.16131
297.22531
297.51037
297.61174
297.56141
297.64903
297.22394
297.27325
297.55792
297.64743
297.60967
297.68423
297.26887
297.30756
297.59151
297.67035
297.64316
297.70913
297.30271
297.33222
297.61316
297.67916
297.66102
297.71859
297.32402
297.346
297.6172
297.68203
297.66553
297.72013
297.33277
297.34941
297.61544
297.67906
297.66455
297.7163
297.33473
297.34722
297.61493
297.67305
297.66168
297.70718
297.33419
297.34179
297.61128
297.66675
297.6593
297.6977
297.33405
297.33517
297.60558
297.65913
297.65057
297.68718
297.33408
297.32716
297.59692
297.65183
297.64009
297.67911
297.33609
297.3198
297.62557
297.63643
297.66558
297.67005
297.3429
297.31428
297.75647
297.70597
297.74789
297.72613
297.39027
297.33412
298.00615
297.95573
297.98159
297.91707
297.6
297.49177
298.17663
298.15986
298.17033
298.13513
297.90714
297.806
298.25473
298.25788
298.26271
298.25205
298.11044
298.04659
298.29846
298.31496
298.30775
298.31631
298.20575
298.16406
298.3182
298.33902
298.32492
298.34059
298.23222
298.19901
298.66166
298.56132
298.46415
298.37094
298.26993
298.12523
298.66339
298.55864
298.46072
298.36882
298.26994
298.12053
298.38935
298.53075
298.4418
298.33404
298.2101
298.02317
298.40319
298.52792
298.43608
298.3278
298.20219
298.00415
298.15855
298.36912
298.36908
298.27066
298.12456
297.89575
298.17365
298.37531
298.36129
298.25662
298.10554
297.86209
298.02899
298.14029
298.19163
298.13883
298.00013
297.75151
298.03827
298.15451
298.18962
298.11979
297.96908
297.7034
297.9848
297.96765
297.95374
297.89671
297.7704
297.52506
297.97733
297.97099
297.95162
297.87967
297.73582
297.46861
297.97614
297.91225
297.82705
297.70935
297.54551
297.28361
297.97212
297.90388
297.81294
297.68709
297.51322
297.23338
297.97646
297.90673
297.80263
297.66135
297.47616
297.20094
297.97203
297.89556
297.78471
297.6362
297.44389
297.15391
297.97766
297.90989
297.80491
297.66133
297.47392
297.19961
297.97309
297.89816
297.78581
297.63478
297.44047
297.15183
297.97911
297.9136
297.80964
297.66714
297.48116
297.21112
297.97462
297.90184
297.7902
297.63996
297.44647
297.16162
297.98102
297.91811
297.81535
297.67458
297.49117
297.22743
297.97644
297.90625
297.79578
297.64709
297.4556
297.17666
297.98324
297.92357
297.82259
297.68448
297.50517
297.25031
297.97872
297.91179
297.80317
297.65705
297.46923
297.19908
297.98637
297.93012
297.83163
297.69729
297.52402
297.2813
297.98136
297.91845
297.81243
297.67008
297.48816
297.23033
297.99079
297.93774
297.84253
297.71347
297.54884
297.32253
297.98416
297.92605
297.82396
297.68741
297.51458
297.27403
297.99465
297.94644
297.85675
297.7358
297.58326
297.37768
297.98769
297.936
297.83999
297.712
297.55198
297.33313
297.99826
297.95557
297.87341
297.76303
297.62591
297.44465
297.99081
297.94569
297.85833
297.74235
297.59928
297.406
298.0015
297.96507
297.89146
297.79233
297.67113
297.51402
297.99573
297.9556
297.87767
297.77463
297.64942
297.48248
298.00383
297.97283
297.9073
297.81888
297.7123
297.57651
297.99919
297.96373
297.89466
297.80373
297.69451
297.55087
298.00504
297.98034
297.92308
297.84461
297.75061
297.63291
298.00112
297.97109
297.91055
297.83062
297.73507
297.61142
298.00557
297.98623
297.93612
297.86653
297.7833
297.6808
298.00221
297.97678
297.92374
297.85334
297.76923
297.66234
298.00563
297.99093
297.94718
297.88553
297.81122
297.72083
298.00268
297.9813
297.93513
297.87326
297.79885
297.70572
298.00555
297.99411
297.95597
297.90125
297.83412
297.75304
298.00278
297.98404
297.94359
297.88886
297.82217
297.73972
298.00557
297.99467
297.96051
297.91141
297.85
297.77616
298.00215
297.9847
297.94874
297.89995
297.83938
297.76495
298.00532
297.99392
297.9621
297.91661
297.85867
297.78948
298.00159
297.98422
297.95099
297.90615
297.84928
297.77957
298.00426
297.99098
297.96105
297.91826
297.86244
297.79631
298.0007
297.98262
297.95123
297.90927
297.85476
297.78772
298.00249
297.98716
297.95809
297.91727
297.8628
297.79852
297.99966
297.98059
297.95042
297.91043
297.85727
297.79158
298.00099
297.98378
297.95505
297.91534
297.86143
297.79834
297.9975
297.97745
297.94821
297.90977
297.85749
297.79292
297.99924
297.97948
297.9509
297.91217
297.85855
297.79664
297.99514
297.97413
297.94553
297.90827
297.85643
297.79312
297.99725
297.97566
297.94717
297.90908
297.85534
297.79423
297.99317
297.97066
297.94246
297.90611
297.85448
297.79216
297.99492
297.97196
297.94352
297.90579
297.8517
297.79073
297.99139
297.96749
297.93945
297.90355
297.85169
297.78946
297.99234
297.96851
297.93999
297.90239
297.84898
297.79206
297.99036
297.96442
297.9361
297.90051
297.85122
297.79628
297.99081
297.96575
297.93936
297.90959
297.87255
297.84682
297.98929
297.962
297.93748
297.91356
297.88548
297.87693
297.99177
297.96954
297.96859
297.97753
298.01037
298.05213
297.99013
297.96985
297.9742
298.00871
298.0616
298.10643
298.00381
298.02719
298.10925
298.20337
298.26042
298.26937
298.00289
298.04589
298.14483
298.2526
298.30462
298.30259
298.05778
298.22862
298.37156
298.41769
298.39648
298.35994
298.06681
298.26441
298.40428
298.44042
298.41301
298.37302
298.25962
298.52036
298.51453
298.47794
298.43656
298.39913
298.26904
298.53442
298.51889
298.48073
298.44119
298.40332
298.6117
298.54229