/*--------------------------------*- C++ -*----------------------------------*\
| =========                 |                                                 |
| \\      /  F ield         | OpenFOAM: The Open Source CFD Toolbox           |
|  \\    /   O peration     | Version:  2206                                  |
|   \\  /    A nd           | Website:  www.openfoam.com                      |
|    \\/     M anipulation  |                                                 |
\*---------------------------------------------------------------------------*/
FoamFile
{
    version     2.0;
    format      ascii;
    arch        "LSB;label=32;scalar=64";
    class       volVectorField;
    location    "300";
    object      U;
}
// * * * * * * * * * * * * * * * * * * * * * * * * * * * * * * * * * * * * * //

dimensions      [0 1 -1 0 0 0 0];

internalField   nonuniform List<vector> 
50904
(
(-27.669971 1.0306329 0.064500792)
(-37.486987 2.2051875 0.20191637)
(-28.456468 4.7921424 0.30329489)
(-39.844363 8.2540379 0.49202732)
(-49.11487 1.501781 0.23430286)
(-59.773959 3.3297899 0.46128161)
(-49.826666 6.775128 0.24503697)
(-61.404423 10.733674 0.54477633)
(-59.377894 1.2541879 0.42070829)
(-69.470446 3.0458498 0.83160242)
(-60.129278 6.472576 0.59682021)
(-70.742202 10.070099 1.1068467)
(-65.470397 0.87257145 0.62001451)
(-74.860825 2.4629989 1.2190804)
(-66.229413 5.7771008 0.84650039)
(-75.920269 8.9702799 1.5661054)
(-69.573217 0.54058737 0.85266249)
(-78.20502 1.9410488 1.6623809)
(-70.151453 5.1794112 1.1765752)
(-78.95564 8.1107273 2.1272259)
(-71.397196 0.26057467 1.1137306)
(-79.486107 1.5173723 2.1552691)
(-71.78936 4.7908782 1.5324338)
(-80.023081 7.5634029 2.7442309)
(-71.581569 -0.045858864 1.4267405)
(-79.416921 1.0972442 2.7012908)
(-71.972531 4.4997422 1.9505013)
(-79.963302 7.1426102 3.4168996)
(-71.394036 -0.40458277 1.8001241)
(-79.005829 0.6209988 3.3255336)
(-71.853495 4.1835088 2.4329554)
(-79.618557 6.6797192 4.1561453)
(-71.102434 -0.84025882 2.2399193)
(-78.438568 0.056126747 4.0241369)
(-71.644588 3.7990451 3.0438069)
(-79.129721 6.1310946 5.0203136)
(-70.674539 -1.3425858 2.7200947)
(-77.664986 -0.58179882 4.7505361)
(-71.293036 3.3401945 3.6308478)
(-78.444432 5.495338 5.8421733)
(-70.068065 -1.8980476 3.2487669)
(-76.651042 -1.2730226 5.5032706)
(-70.745125 2.824509 4.3417736)
(-77.517424 4.7998256 6.7509677)
(-69.235958 -2.5297395 3.7722682)
(-75.325915 -2.0553054 6.2064728)
(-69.965943 2.2212147 4.9921042)
(-76.288034 4.0008782 7.5525398)
(-68.121638 -3.2140796 4.2625637)
(-73.650969 -2.8657544 6.8202381)
(-68.869642 1.5742632 5.6374265)
(-74.688634 3.1725058 8.2892175)
(-66.682637 -3.8815728 4.6072053)
(-71.597833 -3.6285887 7.1978038)
(-67.424108 0.93542577 6.0894594)
(-72.699185 2.3730316 8.7577139)
(-64.930955 -4.4128437 4.7661418)
(-69.197584 -4.2495073 7.302108)
(-65.623205 0.3815077 6.3324504)
(-70.330683 1.6647797 8.913823)
(-63.130614 -4.8703886 4.6141682)
(-66.81292 -4.748442 6.999259)
(-63.745143 -0.06002899 6.2075643)
(-67.926035 1.1294729 8.625376)
(-61.520392 -5.0886056 4.2947694)
(-64.719668 -4.9964982 6.4745565)
(-62.067663 -0.28403976 5.8739327)
(-65.794189 0.84154148 8.0689607)
(-60.08681 -5.2328544 3.8014682)
(-62.887314 -5.1463271 5.7492714)
(-60.592147 -0.38905085 5.3390886)
(-63.926778 0.71446005 7.2924921)
(-58.863203 -5.2351424 3.278642)
(-61.317154 -5.1657503 4.9577742)
(-59.339314 -0.33859679 4.7613583)
(-62.344411 0.77034715 6.4376532)
(-57.847116 -5.131951 2.7281072)
(-60.017323 -5.0738333 4.1224003)
(-58.274657 -0.19758308 4.1031997)
(-61.020319 0.9485425 5.4920992)
(-57.032429 -5.1073845 2.2135352)
(-58.975102 -5.0639434 3.289689)
(-57.438626 -0.11413403 3.4140792)
(-59.968529 1.0600003 4.4840218)
(-56.440968 -5.1552094 1.6487912)
(-58.212878 -5.1283223 2.4011029)
(-56.825196 -0.18907433 2.6635115)
(-59.176475 0.99516044 3.3901964)
(-56.098322 -5.3550653 1.238945)
(-57.761181 -5.3592 1.6725256)
(-56.487981 -0.41949317 2.018464)
(-58.710048 0.74076758 2.4070618)
(-55.939312 -5.5864374 0.92032771)
(-57.525115 -5.6405689 1.1116039)
(-56.337694 -0.69263568 1.5396271)
(-58.484342 0.41916482 1.6584539)
(-55.887507 -5.8221754 0.7289534)
(-57.430905 -5.9242539 0.73440425)
(-56.283457 -0.96463422 1.2038239)
(-58.402619 0.10075406 1.114346)
(-55.898142 -6.054839 0.57925776)
(-57.39856 -6.1954664 0.47887266)
(-56.299347 -1.2318563 0.96141473)
(-58.380975 -0.21571445 0.73140844)
(-55.950958 -6.2628685 0.48481158)
(-57.375528 -6.4290991 0.31346668)
(-56.358601 -1.4698691 0.78582228)
(-58.327598 -0.49618821 0.47867064)
(-56.026006 -6.444242 0.40324037)
(-57.351308 -6.6290601 0.20603276)
(-56.447502 -1.6860973 0.64917952)
(-58.221534 -0.72869439 0.31060641)
(-56.114871 -6.6039723 0.35543632)
(-57.321594 -6.8027062 0.12655423)
(-56.554911 -1.8758271 0.53853849)
(-58.148316 -0.90699165 0.23341728)
(-56.165612 -6.7442899 0.30492578)
(-57.330202 -6.9487377 0.11223654)
(-56.570161 -2.0410076 0.45436711)
(-58.103088 -1.0389618 0.20448618)
(-55.653241 -6.9399859 0.27369966)
(-56.302499 -7.1726121 0.089949342)
(-55.808059 -2.2062009 0.37961539)
(-56.783611 -1.1634639 0.17238654)
(-52.896218 -7.3293413 0.20625375)
(-52.858292 -7.5925236 0.0471601)
(-52.494366 -2.3975068 0.27311085)
(-52.955394 -1.2981692 0.09757006)
(-47.303857 -7.7395685 0.11534009)
(-47.163797 -7.9396449 0.0065226015)
(-46.648738 -2.5414754 0.15510413)
(-47.239011 -1.3817702 0.043050398)
(-39.804144 -7.7279896 0.044295268)
(-39.892515 -7.8277456 -0.020735126)
(-39.195644 -2.5084988 0.067839018)
(-40.178428 -1.3589159 0.012522521)
(-28.87296 -6.666233 0.039201832)
(-29.159367 -6.6940737 0.0056248694)
(-28.468979 -2.1140888 0.042110157)
(-29.722073 -1.1839197 0.016354054)
(-11.776279 -3.2738056 -0.11718013)
(-11.986635 -3.3064845 -0.10958944)
(-11.663435 -1.0145076 -0.07893215)
(-12.520804 -0.70430857 -0.071656077)
(-26.841928 8.8613657 0.47603171)
(-38.135579 14.331011 0.92157722)
(-23.082457 11.237607 0.5327376)
(-31.588648 17.910771 0.9938142)
(-21.186301 11.186097 0.44202427)
(-25.900515 18.590408 0.83456445)
(-20.068361 10.98756 0.36998682)
(-22.980346 18.281203 0.73748967)
(-19.382176 10.774204 0.31892021)
(-21.189891 17.775237 0.66709066)
(-18.917324 10.600365 0.28682647)
(-20.015979 17.296247 0.6298879)
(-18.565931 10.453097 0.26760181)
(-19.144427 16.84103 0.61367798)
(-47.453245 11.537246 0.23913223)
(-58.529258 17.57676 0.66889452)
(-43.127125 13.962151 0.30412915)
(-51.723999 21.040385 0.64741963)
(-41.220916 13.805591 0.31771109)
(-46.582051 20.929801 0.68162984)
(-40.12602 13.544524 0.32708895)
(-44.089487 20.379644 0.7454977)
(-39.469917 13.299966 0.3280345)
(-42.587501 19.795285 0.77283926)
(-39.031241 13.108833 0.32589803)
(-41.59791 19.305283 0.78452208)
(-38.702087 12.948809 0.32282712)
(-40.856776 18.865503 0.7892691)
(-57.879557 10.851411 0.72451812)
(-67.982285 16.380417 1.4284142)
(-53.888772 13.052135 0.89540293)
(-62.144566 19.547747 1.4968548)
(-52.228444 12.966499 0.92191964)
(-57.697365 19.334164 1.6437544)
(-51.25893 12.754236 0.94028314)
(-55.481849 18.872488 1.7643049)
(-50.672796 12.54162 0.94525114)
(-54.16669 18.376857 1.8267959)
(-50.278286 12.367028 0.94550667)
(-53.29495 17.950219 1.8623581)
(-49.980891 12.218429 0.94361299)
(-52.639524 17.561805 1.8809435)
(-64.251271 9.8336821 1.0315484)
(-73.353319 14.861827 1.9075942)
(-60.618803 11.929025 1.2460534)
(-68.108483 17.980894 2.0215723)
(-59.13172 11.907621 1.2800734)
(-64.04342 17.91132 2.1598618)
(-58.24759 11.747432 1.2983163)
(-61.869596 17.576269 2.252406)
(-57.700487 11.580935 1.3048236)
(-60.612294 17.1961 2.2905533)
(-57.327831 11.447844 1.3094665)
(-59.793231 16.867253 2.3168251)
(-57.045236 11.336581 1.3149314)
(-59.186345 16.563858 2.335983)
(-68.262626 9.0751224 1.4480172)
(-76.387522 13.82797 2.5397958)
(-64.795518 11.177551 1.7674948)
(-71.241925 17.107222 2.7223643)
(-63.405205 11.225754 1.8311696)
(-67.159457 17.267364 2.9157497)
(-62.567574 11.10611 1.866684)
(-64.880552 17.038526 3.048729)
(-62.047892 10.95807 1.8815131)
(-63.485275 16.704874 3.1079651)
(-61.686147 10.833477 1.8859378)
(-62.576751 16.402881 3.1425548)
(-61.401818 10.728693 1.886788)
(-61.873899 16.121602 3.1602849)
(-69.920457 8.6684826 1.865974)
(-77.399404 13.286748 3.2131771)
(-66.488952 10.833835 2.2338122)
(-72.145879 16.798829 3.34471)
(-65.059552 10.938316 2.2704486)
(-68.028699 17.157588 3.5139714)
(-64.168729 10.857668 2.2850376)
(-65.730547 17.034437 3.6175686)
(-63.614992 10.736155 2.2896251)
(-64.329518 16.773349 3.679597)
(-63.256354 10.629219 2.2929029)
(-63.415854 16.514585 3.7231167)
(-62.955214 10.540632 2.2968841)
(-62.811307 16.252797 3.7488809)
(-70.181526 8.4519782 2.3679263)
(-77.341961 12.960518 3.9452122)
(-66.818803 10.735112 2.8294904)
(-71.948278 16.757423 4.1237415)
(-65.344787 10.895193 2.8820957)
(-67.854056 17.317655 4.3398957)
(-64.413536 10.837752 2.8994484)
(-65.616228 17.283717 4.4668472)
(-63.832462 10.732246 2.9019358)
(-64.266136 17.059527 4.5330114)
(-63.430127 10.635729 2.9026876)
(-63.381517 16.820947 4.5706827)
(-63.123674 10.553833 2.9035804)
(-62.789679 16.577284 4.5892839)
(-70.165912 8.2299654 2.8980004)
(-77.059989 12.585129 4.7209452)
(-66.900317 10.641759 3.4041777)
(-71.631797 16.638523 4.9296938)
(-65.395988 10.8606 3.4611116)
(-67.549996 17.415029 5.126867)
(-64.431252 10.833004 3.4801047)
(-65.376035 17.499185 5.2863287)
(-63.830868 10.748521 3.4881321)
(-64.078626 17.339795 5.3611364)
(-63.417999 10.666689 3.4927311)
(-63.218856 17.14225 5.3945859)
(-63.10514 10.596556 3.4966651)
(-62.630964 16.932333 5.4090904)
(-70.071664 7.959555 3.6195954)
(-76.668563 12.128308 5.6887696)
(-66.9172 10.518133 4.1833408)
(-71.265105 16.438844 6.0165614)
(-65.388288 10.798871 4.2514134)
(-67.168315 17.447898 6.2161151)
(-64.390719 10.800778 4.2714492)
(-65.067378 17.660618 6.3692103)
(-63.771308 10.738025 4.2792195)
(-63.836167 17.5768 6.4321981)
(-63.349527 10.671563 4.2824437)
(-63.008994 17.426493 6.4554952)
(-63.032448 10.613456 4.2846763)
(-62.407586 17.254626 6.4604385)
(-69.840921 7.6201907 4.2602434)
(-76.129594 11.573873 6.5542626)
(-66.813969 10.3393 4.8694372)
(-70.836801 16.13226 6.9959276)
(-65.273511 10.692291 4.9662547)
(-66.75066 17.396947 7.2348221)
(-64.250852 10.733225 5.0059513)
(-64.720164 17.757641 7.3965962)
(-63.615511 10.697052 5.0245134)
(-63.502017 17.756077 7.4583628)
(-63.184896 10.649128 5.0333823)
(-62.721927 17.650852 7.4771723)
(-62.865889 10.606373 5.0390511)
(-62.141522 17.514652 7.4765011)
(-69.4 7.2112648 5.0760628)
(-75.377517 10.934179 7.557192)
(-66.500784 10.091351 5.7194037)
(-70.263377 15.693608 8.1301404)
(-64.967727 10.516271 5.8347661)
(-66.231142 17.183145 8.4128985)
(-63.935822 10.594479 5.8852026)
(-64.228335 17.682396 8.5695053)
(-63.292312 10.581773 5.9078888)
(-63.013051 17.757589 8.6174588)
(-62.858473 10.549899 5.9177415)
(-62.281983 17.694316 8.6225043)
(-62.54233 10.520564 5.9230366)
(-61.730476 17.590604 8.6102214)
(-68.728494 6.7038735 5.798628)
(-74.368415 10.177618 8.4060164)
(-65.959795 9.7656147 6.4655066)
(-69.491838 15.127765 9.0641005)
(-64.446716 10.274503 6.6055738)
(-65.493678 16.825214 9.4300221)
(-63.410612 10.39542 6.6712716)
(-63.535684 17.448362 9.5962526)
(-62.766825 10.410659 6.7019996)
(-62.344391 17.593135 9.638954)
(-62.336651 10.397003 6.7160826)
(-61.653686 17.571425 9.6372498)
(-62.028878 10.382511 6.7236)
(-61.136093 17.499369 9.6193988)
(-67.718782 6.1258464 6.5151981)
(-72.9728 9.3545722 9.1780733)
(-65.0806 9.3200781 7.1674459)
(-68.349314 14.415668 9.8622965)
(-63.596368 9.8985138 7.3303074)
(-64.407988 16.246771 10.296172)
(-62.56759 10.05215 7.4085381)
(-62.487815 16.939341 10.46134)
(-61.934525 10.091009 7.4446664)
(-61.426486 17.120292 10.494176)
(-61.521759 10.093275 7.4609724)
(-60.762091 17.130049 10.485959)
(-61.231829 10.091327 7.4690359)
(-60.287093 17.086068 10.464159)
(-66.371482 5.5036103 7.0496572)
(-71.218824 8.5106986 9.7092115)
(-63.880641 8.7739543 7.6531104)
(-66.878068 13.580572 10.367272)
(-62.42102 9.4161634 7.7939522)
(-63.037095 15.477659 10.792914)
(-61.409072 9.602053 7.8663172)
(-61.202452 16.197853 10.928488)
(-60.798007 9.6612642 7.9020518)
(-60.227145 16.393926 10.946191)
(-60.408781 9.6758867 7.9185366)
(-59.594428 16.422275 10.933249)
(-60.141891 9.6811159 7.9265549)
(-59.159988 16.395892 10.910993)
(-64.675969 4.8644009 7.3163049)
(-69.103098 7.6511485 9.8456123)
(-62.375801 8.1020119 7.8575875)
(-65.079793 12.592312 10.422906)
(-60.9391 8.7930274 7.99773)
(-61.396222 14.496107 10.837965)
(-59.957193 9.0046657 8.0672627)
(-59.699369 15.21842 10.9537)
(-59.37931 9.0786982 8.101086)
(-58.768684 15.422622 10.963079)
(-59.019657 9.1014872 8.1161045)
(-58.185661 15.462095 10.947976)
(-58.780997 9.1136957 8.1234692)
(-57.796474 15.450441 10.927505)
(-62.863086 4.2921204 7.1819111)
(-66.861431 6.9170185 9.5429863)
(-60.763397 7.4256516 7.6434967)
(-63.095167 11.628422 10.035462)
(-59.381344 8.1437936 7.7615182)
(-59.658131 13.478349 10.39111)
(-58.45416 8.3750342 7.8200516)
(-58.056453 14.180464 10.487484)
(-57.915341 8.4574182 7.8478032)
(-57.193054 14.382613 10.493958)
(-57.587554 8.486047 7.8607297)
(-56.66911 14.427872 10.481022)
(-57.376605 8.5035303 7.8678236)
(-56.331732 14.427214 10.464839)
(-61.238524 3.9121861 6.8153753)
(-64.813245 6.4307172 8.9481802)
(-59.327663 6.8786307 7.2056235)
(-61.211711 10.867695 9.3720802)
(-58.016753 7.5927495 7.3079626)
(-58.030282 12.627325 9.670569)
(-57.152162 7.833438 7.3575185)
(-56.540168 13.299557 9.7490291)
(-56.654717 7.9193641 7.3808923)
(-55.739686 13.496064 9.7545918)
(-56.357318 7.9507657 7.3925144)
(-55.263417 13.545928 9.7454152)
(-56.170902 7.9707325 7.3995812)
(-54.965077 13.554615 9.7341704)
(-59.812841 3.6775749 6.2161524)
(-62.974119 6.1343164 8.1208622)
(-58.075609 6.4722434 6.5352505)
(-59.498745 10.308267 8.4977403)
(-56.839043 7.1744714 6.6234937)
(-56.59578 11.962237 8.748901)
(-56.037586 7.4225242 6.6656622)
(-55.234472 12.592878 8.8151396)
(-55.579936 7.512783 6.6867251)
(-54.504599 12.780987 8.8235922)
(-55.309857 7.5477902 6.6986836)
(-54.076997 12.833502 8.820029)
(-55.143986 7.5691509 6.7067054)
(-53.815033 12.847912 8.814271)
(-58.590557 3.534286 5.4996279)
(-61.357993 5.9629968 7.1417975)
(-57.00165 6.103568 5.7767583)
(-58.013877 9.8290152 7.497337)
(-55.860715 6.7791507 5.8854021)
(-55.389724 11.372058 7.7297598)
(-55.128187 7.0321072 5.9335344)
(-54.168385 11.965589 7.7928991)
(-54.710366 7.1321387 5.9568609)
(-53.510576 12.154871 7.8053179)
(-54.46362 7.1758264 5.9701975)
(-53.126618 12.217184 7.8060872)
(-54.311529 7.1980242 5.979045)
(-52.89234 12.236429 7.8042326)
(-57.566698 3.4762488 4.7175294)
(-59.984668 5.9128496 6.0897518)
(-56.101269 5.836926 4.9245744)
(-56.789574 9.4890957 6.3796845)
(-55.062498 6.4831877 5.0056908)
(-54.43713 10.915624 6.5553572)
(-54.397733 6.7427312 5.0460353)
(-53.353082 11.473731 6.6060589)
(-54.01688 6.8516858 5.0681417)
(-52.764042 11.662661 6.6204092)
(-53.790383 6.9029914 5.0820095)
(-52.42038 11.733735 6.6247786)
(-53.649691 6.9310675 5.0918781)
(-52.210192 11.761328 6.6266167)
(-56.784442 3.3688948 3.900527)
(-58.929478 5.8142931 4.9624712)
(-55.438598 5.5441166 4.0819338)
(-55.94321 9.1205353 5.2212206)
(-54.484819 6.1699929 4.1595792)
(-53.820325 10.444254 5.3820426)
(-53.870142 6.4341456 4.1996844)
(-52.846212 10.97074 5.4294028)
(-53.514658 6.5522886 4.2232785)
(-52.320494 11.154259 5.4461219)
(-53.30212 6.611809 4.2390678)
(-52.040886 11.231801 5.4544084)
(-53.169508 6.645842 4.2509172)
(-51.826528 11.268637 5.4602505)
(-56.231616 3.1896691 3.0654575)
(-58.185868 5.6330419 3.7761232)
(-54.997071 5.2491693 3.2001066)
(-55.425959 8.7542871 3.9472763)
(-54.107894 5.8766258 3.2480963)
(-53.514318 10.001432 4.0615674)
(-53.53595 6.1528768 3.2784834)
(-52.637031 10.498993 4.0958387)
(-53.20563 6.2807009 3.2978233)
(-52.161847 10.680884 4.1106863)
(-53.009202 6.3459949 3.3117419)
(-51.89384 10.759577 4.1208184)
(-52.891824 6.3858199 3.3224261)
(-51.725427 10.799415 4.1286685)
(-55.952982 2.9619082 2.340062)
(-57.827574 5.35016 2.721409)
(-54.832733 4.9684886 2.4606318)
(-55.250717 8.3336864 2.8593831)
(-54.007811 5.5917636 2.4978411)
(-53.489092 9.528108 2.9580782)
(-53.471238 5.8733458 2.5275217)
(-52.691648 10.00994 2.9907955)
(-53.165388 6.0044895 2.546637)
(-52.263049 10.18778 3.0062676)
(-52.997642 6.0715988 2.5610475)
(-52.028931 10.268381 3.0192864)
(-52.88999 6.112012 2.5725856)
(-51.86631 10.310976 3.0310842)
(-55.847035 2.6575534 1.7781575)
(-57.752185 4.9670295 1.9214668)
(-54.811827 4.6312516 1.8842668)
(-55.348043 7.8610867 2.0520682)
(-54.064971 5.2536342 1.9082088)
(-53.699341 9.0264627 2.1390692)
(-53.584514 5.5353446 1.9311555)
(-52.944098 9.5002369 2.164887)
(-53.308972 5.6680665 1.9457894)
(-52.523803 9.6802862 2.1773218)
(-53.147514 5.7363017 1.9577251)
(-52.282475 9.7619777 2.1900871)
(-53.05105 5.7762911 1.9678834)
(-52.137625 9.8036278 2.2028027)
(-55.814937 2.381328 1.392603)
(-57.838356 4.620248 1.3572501)
(-54.825659 4.371405 1.4930121)
(-55.593137 7.4790838 1.5111142)
(-54.133433 5.0006751 1.5099731)
(-54.009766 8.6306985 1.6093311)
(-53.698234 5.2820247 1.5337043)
(-53.276808 9.0953163 1.6435042)
(-53.450181 5.412349 1.5487608)
(-52.856434 9.2725401 1.6611629)
(-53.302374 5.4791513 1.5610624)
(-52.612146 9.3531633 1.677303)
(-53.21099 5.5185005 1.571597)
(-52.465436 9.3941128 1.69266)
(-55.850042 2.1015272 1.1012111)
(-57.966129 4.2722072 0.94232567)
(-54.88297 4.1109447 1.2016759)
(-55.849274 7.1190005 1.1381141)
(-54.222106 4.7475125 1.2159493)
(-54.32061 8.2750379 1.2562357)
(-53.813779 5.0298926 1.2406441)
(-53.560512 8.7458708 1.294859)
(-53.578061 5.1591945 1.2557661)
(-53.138779 8.9248837 1.3176439)
(-53.437082 5.2253603 1.2680116)
(-52.895319 9.0061286 1.3370371)
(-53.349369 5.2641455 1.2782676)
(-52.748335 9.0474158 1.3542857)
(-55.925483 1.8485684 0.89731894)
(-58.00552 3.9743582 0.67766539)
(-54.947819 3.8845886 1.0006976)
(-56.021257 6.8492364 0.91145884)
(-54.295054 4.535875 1.0157016)
(-54.613831 7.9929049 1.0490653)
(-53.906333 4.8223601 1.0380036)
(-53.83512 8.4683948 1.0902969)
(-53.67895 4.951482 1.0517825)
(-53.382194 8.6542083 1.119075)
(-53.541476 5.0168537 1.0632687)
(-53.125513 8.7376853 1.1433903)
(-53.455801 5.0549324 1.0728576)
(-52.982638 8.7787006 1.164131)
(-56.009709 1.6170413 0.72991019)
(-58.028715 3.735741 0.49305226)
(-55.000633 3.688238 0.83670302)
(-56.205546 6.6446544 0.74335303)
(-54.343769 4.3568864 0.85910254)
(-54.909148 7.7547423 0.90935499)
(-53.967755 4.6469627 0.88060172)
(-54.118527 8.2120346 0.96945336)
(-53.747298 4.7769112 0.89404697)
(-53.650781 8.3925319 1.0089077)
(-53.613353 4.8421118 0.90485685)
(-53.365628 8.4749939 1.0384189)
(-53.528848 4.8798086 0.91390628)
(-53.214975 8.514288 1.0618685)
(-56.118446 1.4146669 0.60553317)
(-58.071431 3.5584201 0.40107665)
(-55.072526 3.5236682 0.7231124)
(-56.393989 6.4968797 0.70764726)
(-54.396649 4.2152051 0.75752996)
(-55.131664 7.5695465 0.89256969)
(-54.015756 4.511928 0.77487642)
(-54.332255 7.9991659 0.96854188)
(-53.792624 4.6438419 0.78438289)
(-53.834605 8.1667491 1.0142233)
(-53.658889 4.7096049 0.79311368)
(-53.557705 8.2383532 1.0445061)
(-53.575611 4.7476178 0.80178382)
(-53.416283 8.2714295 1.0688359)
(-56.126837 1.250808 0.50343871)
(-57.911611 3.4400307 0.34219849)
(-55.045039 3.4075966 0.61698022)
(-55.950398 6.4351142 0.67917603)
(-54.300681 4.121647 0.65629948)
(-54.562912 7.4959679 0.89317942)
(-53.881126 4.4216897 0.67497016)
(-53.856983 7.8917593 0.97332225)
(-53.673889 4.5557458 0.68674064)
(-53.439958 8.0402563 1.0193531)
(-53.51795 4.6264844 0.69627503)
(-53.194319 8.1034327 1.0494803)
(-53.418467 4.6679518 0.70451242)
(-53.051833 8.133234 1.0733153)
(-55.085794 1.1569454 0.40685477)
(-56.436944 3.4416045 0.2831714)
(-53.925846 3.4052253 0.5000354)
(-54.15549 6.6131805 0.61461711)
(-53.086828 4.158328 0.54203152)
(-52.496418 7.7593207 0.8436443)
(-52.60889 4.4774861 0.56328284)
(-51.616173 8.164429 0.92472634)
(-52.348239 4.6197317 0.57724822)
(-51.101543 8.3200922 0.97298499)
(-52.196326 4.691366 0.58662718)
(-50.79478 8.3857083 1.0056304)
(-52.101847 4.7326056 0.59272278)
(-50.607429 8.4189398 1.0287466)
(-51.441324 1.193819 0.27747992)
(-52.433484 3.6286072 0.18474546)
(-49.961916 3.6305295 0.33667272)
(-49.84736 7.1345109 0.47186027)
(-49.022637 4.4387896 0.36637113)
(-47.906256 8.467332 0.70417566)
(-48.491993 4.7789549 0.38210033)
(-46.825346 8.9277075 0.78545614)
(-48.194529 4.929266 0.39130272)
(-46.188835 9.1104921 0.82922513)
(-48.015474 5.0037366 0.39842232)
(-45.806735 9.1878739 0.86087096)
(-47.901251 5.0461091 0.40390327)
(-45.572049 9.2264864 0.88336282)
(-45.487536 1.3535183 0.15005672)
(-46.869782 3.9037855 0.095242821)
(-43.876396 4.0117369 0.19099511)
(-44.184639 7.8094664 0.31805492)
(-42.870141 4.8732866 0.21245991)
(-42.01533 9.4044337 0.51714736)
(-42.305046 5.2298587 0.22478399)
(-40.736419 9.9700728 0.5913559)
(-41.985797 5.386907 0.23307612)
(-39.982617 10.197694 0.63135103)
(-41.792608 5.4640836 0.24033058)
(-39.533147 10.297339 0.66230994)
(-41.669014 5.5072101 0.24567538)
(-39.258243 10.347364 0.68410779)
(-38.076113 1.5670843 0.058952677)
(-40.065926 4.1267424 0.029488631)
(-36.419286 4.3842702 0.087081808)
(-37.324911 8.4047073 0.16296657)
(-35.389661 5.2797618 0.098390747)
(-34.916697 10.265526 0.29712607)
(-34.811932 5.6393163 0.10252752)
(-33.429362 10.94026 0.34510519)
(-34.48275 5.7963936 0.1059293)
(-32.547866 11.210495 0.36973845)
(-34.284474 5.8726282 0.11245611)
(-32.02688 11.327448 0.39262253)
(-34.159552 5.9131673 0.12005279)
(-31.712291 11.382265 0.41307405)
(-27.547671 1.6771566 0.022552553)
(-29.998873 3.9106212 0.0044790527)
(-26.026026 4.3827396 0.042513912)
(-27.465048 8.1911969 0.057744223)
(-25.033819 5.2465345 0.045708089)
(-25.032188 10.115583 0.10705726)
(-24.470838 5.572156 0.041289398)
(-23.461468 10.799173 0.12370784)
(-24.136365 5.7090345 0.038428169)
(-22.506958 11.068282 0.13415927)
(-23.93285 5.7794989 0.042171218)
(-21.946911 11.188327 0.15156061)
(-23.810158 5.8208292 0.051014596)
(-21.619069 11.249633 0.17471341)
(-11.29538 1.0571242 -0.071958354)
(-13.247191 2.0325556 -0.084211077)
(-10.467399 2.6345027 -0.050949263)
(-12.008663 4.6490961 -0.082116296)
(-9.8300726 3.1680514 -0.045288744)
(-10.589041 5.9020151 -0.080035425)
(-9.458008 3.3494636 -0.042241272)
(-9.6555213 6.2810253 -0.08106921)
(-9.2261169 3.3994729 -0.039855867)
(-9.0529073 6.3856377 -0.076492453)
(-9.0758955 3.414662 -0.034569221)
(-8.6862006 6.4178327 -0.063774467)
(-8.9851724 3.4278406 -0.025035857)
(-8.4761724 6.4440422 -0.044395096)
(-18.257968 10.307387 0.25583949)
(-18.391293 16.385292 0.60872009)
(-18.000456 10.160939 0.24400254)
(-17.781775 15.936739 0.6041128)
(-17.784409 10.026294 0.24375747)
(-17.281228 15.533252 0.6217368)
(-17.538027 9.8521877 0.2594534)
(-16.719234 15.018992 0.66130896)
(-17.159033 9.5301104 0.29859052)
(-15.883731 14.076052 0.72818712)
(-16.43291 8.7802679 0.36078772)
(-14.36685 11.741371 0.7666238)
(-38.411779 12.785004 0.31930173)
(-40.21195 18.427834 0.78970768)
(-38.168449 12.629091 0.31505249)
(-39.688163 18.023959 0.78708852)
(-37.969367 12.49525 0.31176132)
(-39.265485 17.685329 0.79063686)
(-37.743776 12.314132 0.30553434)
(-38.784887 17.244135 0.79494453)
(-37.38952 11.940564 0.29541788)
(-38.034421 16.366741 0.79572718)
(-36.678229 10.918367 0.30589532)
(-36.56545 14.032531 0.82008182)
(-49.717738 12.068407 0.94032517)
(-52.067636 17.17417 1.8936414)
(-49.493999 11.91875 0.93502325)
(-51.594528 16.798313 1.8975534)
(-49.310871 11.7839 0.92623869)
(-51.212743 16.467241 1.8928087)
(-49.107159 11.618256 0.91316196)
(-50.785036 16.065195 1.8805597)
(-48.791888 11.315914 0.89339091)
(-50.119441 15.341257 1.8540147)
(-48.141261 10.494042 0.87672341)
(-48.750399 13.437557 1.8185051)
(-56.794136 11.223178 1.3201069)
(-58.668448 16.255494 2.3557842)
(-56.580993 11.111692 1.3237576)
(-58.246742 15.95728 2.3730005)
(-56.405768 11.011863 1.3277596)
(-57.903607 15.694027 2.3921797)
(-56.2071 10.878066 1.330658)
(-57.511999 15.350254 2.4139585)
(-55.893318 10.611071 1.3293785)
(-56.884295 14.684971 2.4353443)
(-55.241897 9.8821586 1.3184177)
(-55.560183 12.933446 2.447296)
(-61.144311 10.62262 1.8849913)
(-61.262159 15.838832 3.1704488)
(-60.921398 10.516671 1.8800428)
(-60.781732 15.560634 3.1725902)
(-60.73328 10.422527 1.8733655)
(-60.401304 15.313176 3.1729728)
(-60.513472 10.304438 1.8635912)
(-60.000548 14.995328 3.170125)
(-60.166227 10.081159 1.8495401)
(-59.434905 14.387742 3.1594069)
(-59.465376 9.4608531 1.8331659)
(-58.396294 12.77109 3.1402042)
(-62.695963 10.451707 2.3004468)
(-62.309946 15.987408 3.7682417)
(-62.461823 10.359318 2.3006929)
(-61.827835 15.731668 3.780693)
(-62.284768 10.273408 2.2996259)
(-61.473458 15.499487 3.7902462)
(-62.076224 10.164811 2.2978182)
(-61.095164 15.192719 3.7971087)
(-61.676133 9.9575681 2.2940444)
(-60.533995 14.600363 3.7972608)
(-60.894238 9.3730109 2.2819126)
(-59.403641 13.023219 3.781597)
(-62.852838 10.47105 2.9029956)
(-62.288148 16.331473 4.6019702)
(-62.622067 10.385291 2.8988998)
(-61.803619 16.091762 4.6056381)
(-62.425771 10.307336 2.8950911)
(-61.455112 15.873396 4.605369)
(-62.196123 10.207334 2.8907042)
(-61.082713 15.584885 4.6009089)
(-61.824428 10.014875 2.8834097)
(-60.52756 15.023498 4.5867816)
(-61.040238 9.4740813 2.8684725)
(-59.375702 13.501392 4.5470567)
(-62.829473 10.52433 3.4987699)
(-62.126084 16.714622 5.41865)
(-62.594676 10.447483 3.4969259)
(-61.655652 16.495842 5.4187997)
(-62.395168 10.377102 3.4951584)
(-61.307709 16.295527 5.4160398)
(-62.160625 10.285729 3.4930387)
(-60.931913 16.028186 5.4091949)
(-61.77819 10.108214 3.4898584)
(-60.368778 15.498749 5.3900541)
(-60.963843 9.6091522 3.4821573)
(-59.199544 14.033377 5.3318953)
(-62.75432 10.552957 4.2849648)
(-61.929354 17.065325 6.458684)
(-62.518656 10.486624 4.281325)
(-61.479949 16.868235 6.4480807)
(-62.318814 10.425088 4.2781165)
(-61.137551 16.687905 6.4359996)
(-62.082345 10.344902 4.2749224)
(-60.763162 16.445453 6.4188208)
(-61.692605 10.188804 4.2709798)
(-60.197168 15.95644 6.3826798)
(-60.850234 9.7449563 4.2614505)
(-59.021011 14.564509 6.2788576)
(-62.587863 10.55997 5.0418194)
(-61.655397 17.358038 7.4691825)
(-62.352492 10.505925 5.0396357)
(-61.23779 17.185537 7.4525796)
(-62.154135 10.454917 5.0377911)
(-60.902843 17.026118 7.4348939)
(-61.918571 10.387489 5.0371417)
(-60.534953 16.810023 7.4122455)
(-61.526467 10.254744 5.0386985)
(-59.972256 16.364896 7.3682893)
(-60.664331 9.8705466 5.0413951)
(-58.792514 15.064684 7.2438414)
(-62.268931 10.486908 5.9248961)
(-61.256851 17.465876 8.5924819)
(-62.037673 10.444054 5.9212529)
(-60.864593 17.319895 8.5661247)
(-61.843617 10.402721 5.9180501)
(-60.543904 17.182761 8.5397625)
(-61.612425 10.347284 5.916664)
(-60.18799 16.994987 8.5079737)
(-61.224107 10.237841 5.9184402)
(-59.637833 16.600139 8.4507196)
(-60.35869 9.9187909 5.922367)
(-58.471838 15.420301 8.2951081)
(-61.765199 10.362613 6.7270454)
(-60.693009 17.40635 9.5972987)
(-61.542345 10.331831 6.7241899)
(-60.317081 17.288886 9.5669252)
(-61.355773 10.301001 6.7217349)
(-60.01626 17.175934 9.5368423)
(-61.132584 10.258578 6.7222068)
(-59.674976 17.019049 9.5018307)
(-60.754266 10.173011 6.7283565)
(-59.141082 16.681262 9.4417139)
(-59.903467 9.9177493 6.7425016)
(-57.99366 15.642697 9.2804527)
(-60.985764 10.082907 7.4723936)
(-59.882027 17.01988 10.43927)
(-60.777949 10.062376 7.469113)
(-59.537374 16.92835 10.406932)
(-60.604559 10.04079 7.4667207)
(-59.254186 16.839175 10.376378)
(-60.395998 10.010044 7.4677806)
(-58.934628 16.713191 10.341531)
(-60.039186 9.9469559 7.4751628)
(-58.423561 16.435837 10.282264)
(-59.230513 9.7551623 7.4914334)
(-57.308785 15.559445 10.122085)
(-59.921538 9.6831195 7.9295593)
(-58.797537 16.351012 10.887417)
(-59.733229 9.6713084 7.9271293)
(-58.487347 16.279401 10.858698)
(-59.576441 9.6567956 7.9253151)
(-58.23068 16.209139 10.832968)
(-59.386628 9.6353058 7.9272711)
(-57.93063 16.109671 10.804248)
(-59.059055 9.5894244 7.9358597)
(-57.447814 15.886832 10.753891)
(-58.316801 9.4499963 7.9547686)
(-56.380102 15.16953 10.612695)
(-58.588634 9.1232307 8.1260127)
(-57.480245 15.422585 10.906851)
(-58.424715 9.1175092 8.1220065)
(-57.210663 15.367731 10.880869)
(-58.287029 9.1090764 8.119402)
(-56.984553 15.31361 10.859098)
(-58.11904 9.0953319 8.1201605)
(-56.713544 15.236855 10.834981)
(-57.827833 9.063206 8.1262663)
(-56.262766 15.062819 10.791818)
(-57.176013 8.9660399 8.1401379)
(-55.273346 14.496443 10.670044)
(-57.209646 8.5163862 7.8697411)
(-56.064566 14.410055 10.447047)
(-57.069158 8.5140443 7.8647229)
(-55.839032 14.367932 10.424094)
(-56.949845 8.5100774 7.8619621)
(-55.6473 14.326499 10.405273)
(-56.803192 8.502156 7.8619727)
(-55.411719 14.267747 10.384838)
(-56.547981 8.481194 7.8660012)
(-55.002003 14.134898 10.349536)
(-55.984171 8.4154165 7.8754071)
(-54.074734 13.699764 10.252633)
(-56.02494 7.9843765 7.40092)
(-54.733178 13.546183 9.7193844)
(-55.902649 7.9837837 7.3962513)
(-54.538712 13.515206 9.7004017)
(-55.797442 7.9825269 7.3941993)
(-54.372294 13.484754 9.6850485)
(-55.666711 7.9782821 7.3944515)
(-54.166197 13.440172 9.6685703)
(-55.43808 7.9649964 7.3976584)
(-53.80392 13.336307 9.640581)
(-54.940767 7.9219838 7.4042637)
(-52.987473 12.993058 9.5658041)
(-55.015614 7.5836018 6.7088573)
(-53.614294 12.845153 8.8032917)
(-54.907755 7.5853664 6.7059118)
(-53.44531 12.822618 8.788828)
(-54.813912 7.5868058 6.7055592)
(-53.299235 12.800768 8.7774834)
(-54.696193 7.5862132 6.7073125)
(-53.116567 12.767813 8.7655458)
(-54.489313 7.5806429 6.7120896)
(-52.793333 12.687706 8.7452185)
(-54.045287 7.5583371 6.7213197)
(-52.070544 12.416234 8.6901404)
(-54.197039 7.215489 5.9853704)
(-52.716811 12.241051 7.8006846)
(-54.09997 7.221799 5.9854637)
(-52.568327 12.227241 7.791959)
(-54.014684 7.2270705 5.9881158)
(-52.439163 12.214164 7.7864348)
(-53.906622 7.2318785 5.992785)
(-52.275926 12.193338 7.7808685)
(-53.716089 7.2371883 6.0013822)
(-51.984948 12.138337 7.7703307)
(-53.312378 7.2387531 6.0172031)
(-51.332838 11.932491 7.7360443)
(-53.543083 6.9529054 5.09957)