/*--------------------------------*- C++ -*----------------------------------*\
| =========                 |                                                 |
| \\      /  F ield         | OpenFOAM: The Open Source CFD Toolbox           |
|  \\    /   O peration     | Version:  2206                                  |
|   \\  /    A nd           | Website:  www.openfoam.com                      |
|    \\/     M anipulation  |                                                 |
\*---------------------------------------------------------------------------*/
FoamFile
{
    version     2.0;
    format      ascii;
    arch        "LSB;label=32;scalar=64";
    class       volScalarField;
    location    "500";
    object      alphat;
}
// * * * * * * * * * * * * * * * * * * * * * * * * * * * * * * * * * * * * * //

dimensions      [1 -1 -1 0 0 0 0];

internalField   nonuniform List<scalar> 
50904
(
4.383747e-08
5.5630415e-08
1.6779556e-07
1.8684877e-07
7.2974686e-07
7.7662153e-07
1.7665638e-06
1.62899e-06
1.1757397e-05
1.2168123e-05
2.3569757e-05
2.0627463e-05
4.5242041e-05
4.5233201e-05
8.2908726e-05
7.204977e-05
0.00010774344
0.00010551268
0.00017017264
0.00015093008
0.00020249019
0.0001934913
0.00027393781
0.00024417017
0.00033191807
0.00030940308
0.0003926408
0.00034890889
0.00049490807
0.00045169311
0.00052685078
0.00046535553
0.00068234242
0.00061346303
0.00066959121
0.00058861887
0.00087550713
0.00078037226
0.0008042167
0.00070877058
0.0010614547
0.00094467962
0.00092818666
0.00082694233
0.0012486807
0.0011164752
0.0010748625
0.00097047777
0.001443943
0.0012979886
0.0012461822
0.0011299471
0.0016668766
0.0015073529
0.0014604961
0.0013201596
0.0019204198
0.0017553806
0.0017343113
0.0015693183
0.0021114655
0.0019758357
0.0019951723
0.0018326416
0.0020990613
0.0020290974
0.002162071
0.0020311997
0.001680992
0.0016847282
0.0021970399
0.0020935063
0.0012831576
0.0012413915
0.0021212215
0.0020322253
0.0010461945
0.00097409788
0.0019900344
0.0019261296
0.00092607384
0.00082990876
0.0017198073
0.0017428874
0.00085371628
0.0007488237
0.001326742
0.0012715044
0.00079512203
0.000684501
0.0011301675
0.00099476401
0.00074111428
0.000629729
0.0010103888
0.0008353942
0.00067676347
0.00057379276
0.00090137262
0.00070606902
0.00060489969
0.00051763799
0.00078275693
0.00059431665
0.00052740218
0.00046013778
0.0006534381
0.00048736562
0.00043947799
0.00039592574
0.00051014665
0.00038268185
0.00034905163
0.00032537818
0.0003721164
0.00028489693
0.00026009319
0.0002518289
0.00025591952
0.00020412829
0.00017474753
0.00017607759
0.00016679056
0.00014172169
9.7251642e-05
0.00010181943
0.0001008052
9.2198367e-05
3.8151906e-05
4.0948491e-05
5.0516466e-05
4.8873761e-05
7.6467677e-06
8.1913541e-06
1.3990689e-05
1.3573308e-05
3.4174249e-07
3.5936037e-07
7.0341372e-07
6.4689902e-07
1.1731078e-08
1.3319476e-08
2.1056217e-08
1.4610591e-08
1.415873e-07
9.8932116e-08
2.4385028e-07
1.5095032e-07
2.7665614e-07
1.5601304e-07
3.1942508e-07
1.7264165e-07
3.4363097e-07
1.7637311e-07
3.6171439e-07
1.6879519e-07
3.7493606e-07
1.570691e-07
2.0189875e-06
1.1856486e-06
2.6646975e-06
1.1391752e-06
2.5440825e-06
1.0948941e-06
2.4624572e-06
1.0235179e-06
2.3275513e-06
9.2347422e-07
2.2221585e-06
8.1283814e-07
2.1489418e-06
7.0210631e-07
2.7602705e-05
1.6298527e-05
3.303796e-05
1.2620258e-05
3.0129875e-05
1.0448391e-05
2.7784921e-05
8.6628686e-06
2.604295e-05
7.1919659e-06
2.4814555e-05
6.2458428e-06
2.3897255e-05
5.7011865e-06
9.9335515e-05
6.0371969e-05
0.00010423461
3.8366467e-05
9.0941626e-05
2.845497e-05
8.2868775e-05
2.4111822e-05
7.8019291e-05
2.1977539e-05
7.4850853e-05
2.1054921e-05
7.2517737e-05
2.0719276e-05
0.0001956718
0.00013131573
0.00018540314
7.5626781e-05
0.00015733784
5.5256027e-05
0.00014270967
4.8732946e-05
0.00013525812
4.6737588e-05
0.00013088581
4.6558095e-05
0.00012781594
4.6982705e-05
0.00029419149
0.00021424816
0.00026262461
0.00012143351
0.00022143496
8.7579666e-05
0.00020014036
7.7386881e-05
0.00018998793
7.4765729e-05
0.00018461075
7.4646202e-05
0.00018093634
5.9272514e-05
0.00039104619
0.0003019827
0.00033558467
0.00017851051
0.00028561756
0.00012712933
0.00025777414
0.0001099914
0.00024385833
0.00010504661
0.00023607524
9.8245102e-05
0.00023092474
7.1061179e-05
0.0004855098
0.00039242391
0.00040023897
0.00024969245
0.00034719244
0.00018116213
0.00031529913
0.00015357393
0.00029660099
0.00014306522
0.00028463774
0.00013720658
0.0002118426
9.7015865e-05
0.00057859418
0.00048561785
0.00045137277
0.00032704943
0.00039684567
0.00025634107
0.0003630457
0.00022188045
0.0002931078
0.00020565587
0.0002172104
0.00019589861
0.00017462337
0.00016574623
0.00066068767
0.0005735699
0.00048791375
0.00039808063
0.00042675675
0.00033892688
0.00039556416
0.00031439773
0.00037405482
0.00030458219
0.00023285537
0.00029932866
0.00016798983
0.00029252216
0.00074447925
0.0006697695
0.00054128841
0.00047839458
0.00047672531
0.00042216889
0.00044961727
0.00040281145
0.0004362303
0.00039744245
0.00042698789
0.00039678487
0.00039840757
0.00039642792
0.00088007404
0.00080783305
0.0006756488
0.0006084694
0.00061044863
0.00053956172
0.00058039001
0.00050495682
0.00056318622
0.00048474716
0.00055038754
0.00047049531
0.00053835006
0.00045860834
0.001042941
0.00095751389
0.00084074622
0.00075410379
0.00077933937
0.00068086349
0.00075181073
0.0006398663
0.00073628897
0.00061310558
0.00072450573
0.00059237924
0.00071297267
0.00057362636
0.001235845
0.0011188603
0.0010056388
0.00088478449
0.00092849607
0.00079615344
0.00089264589
0.00074678243
0.00087309435
0.00071575134
0.00085977703
0.00069330001
0.00084842467
0.00067456057
0.0015007643
0.0013407394
0.0012459704
0.0010671124
0.0011389383
0.00094280011
0.0010839427
0.0008695407
0.0010529992
0.00082377739
0.0010326198
0.000792677
0.0010166324
0.00076924669
0.0018015594
0.0016296005
0.0015946434
0.0013901437
0.0014758824
0.0012506505
0.0014033845
0.0011572336
0.0013581556
0.0010965199
0.0013266353
0.0010555409
0.001301175
0.0010254235
0.0020434535
0.0019015181
0.0019705442
0.0018015603
0.0019026343
0.0017059348
0.0018499378
0.001619865
0.0018109863
0.0015560909
0.0017799792
0.0015110411
0.0017530414
0.0014775266
0.0021417781
0.0020671083
0.0022108159
0.0021215781
0.0022638884
0.0021578392
0.0022906422
0.002162929
0.0022994344
0.0021436956
0.0022987709
0.0021171956
0.0022921718
0.0020941592
0.0021357421
0.0020956962
0.0022991069
0.0022099729
0.00245801
0.0023665244
0.0025664362
0.002463552
0.0026281826
0.002507418
0.0026620613
0.0025246489
0.0026801909
0.0025319978
0.0020840928
0.0020705117
0.002283093
0.0021853549
0.002503513
0.0023872152
0.0026592425
0.0025147836
0.0027528446
0.002581181
0.0028080123
0.0026164424
0.0028411216
0.0026382705
0.0020326832
0.0020203601
0.0021563571
0.0020696112
0.0023684356
0.0022398426
0.0025255501
0.0023414647
0.002624185
0.0023923402
0.0026850973
0.0024210454
0.0027236026
0.0024389481
0.0019525163
0.0019068892
0.0019221272
0.0018692118
0.0020417296
0.0019237273
0.002157735
0.0019565487
0.0022399873
0.0019748859
0.0022956627
0.0019870903
0.002333661
0.0019966525
0.0018392429
0.0017487892
0.0016977669
0.0016456041
0.0016940973
0.0015441915
0.0017263369
0.0014922139
0.001757318
0.0014702471
0.001782846
0.0014636712
0.0018030953
0.0014639304
0.0015625764
0.0012498493
0.0014879155
0.0013011147
0.0014502455
0.0011875472
0.0014476928
0.0011311693
0.0014512183
0.0011047299
0.0014565143
0.0010939068
0.0014617401
0.0010915621
0.0012490116
0.00090191916
0.0012969863
0.00098195802
0.0012467022
0.00089158401
0.0012209329
0.00084684367
0.0012025958
0.00080275156
0.0011901686
0.00078237055
0.00068964955
0.00065418666
0.0010892159
0.00071984722
0.0011475738
0.00069174927
0.001126113
0.00070471982
0.0011027461
0.00069921647
0.0010901024
0.00063088003
0.00075664664
0.00047970241
0.00047666787
0.00035520411
0.00094386906
0.00065186995
0.00098167837
0.00057359193
0.0010469391
0.00065223457
0.0010237954
0.00066051448
0.0010110862
0.00064986972
0.0007406637
0.00064462322
0.00046209629
0.00045485098
0.0007813558
0.00053474326
0.00098135012
0.00063089084
0.00099129216
0.00065761977
0.00097599938
0.00066749722
0.0009636427
0.00066092143
0.00063440049
0.00065754536
0.00040847479
0.00049958579
0.00059475088
0.00040550689
0.00085572213
0.00059633049
0.00092477528
0.0006681978
0.00093051974
0.00067876849
0.00092251575
0.00063610244
0.00053324532
0.00046809564
0.00032978647
0.00056742215
0.00040778518
0.00028034694
0.00067603267
0.00046413975
0.00081633648
0.00059493524
0.00086212479
0.00064312696
0.00086944365
0.00059376577
0.00062285777
0.00038498656
0.00031105083
0.0002571888
0.00025054963
0.00017967385
0.00045397355
0.00030392878
0.00063332054
0.0004549025
0.00073627707
0.00054897772
0.00077738832
0.0005854418
0.00078867954
0.00052544346
0.00047215263
0.00028731878
0.00014020248
0.00011057804
0.00024393003
0.00016301696
0.00038462664
0.00026801216
0.00051069658
0.00037675083
0.00058880412
0.00044408544
0.00062717
0.00047633346
0.00064292582
0.00040646327
7.3027495e-05
6.2628274e-05
0.00010407317
7.6431261e-05
0.00016490767
0.00011349583
0.00024336639
0.00017321158
0.00031489043
0.00023043797
0.0003639382
0.00027184642
0.00039210937
0.00029639868
2.8776223e-05
2.6122581e-05
3.6263707e-05
3.0081767e-05
4.681947e-05
3.6402332e-05
6.8035297e-05
4.9991467e-05
9.382421e-05
6.6496505e-05
0.0001172049
8.2057495e-05
0.00013504264
9.4794209e-05
2.8642028e-06
2.3062775e-06
5.7403185e-06
4.1405544e-06
8.3902632e-06
6.2515198e-06
1.1340446e-05
8.2992911e-06
1.425789e-05
1.0069106e-05
1.7009318e-05
1.1568689e-05
1.9374692e-05
1.2786134e-05
2.1750001e-08
1.476364e-08
1.5272352e-07
7.2519447e-08
4.6997802e-07
2.4623614e-07
1.007849e-06
5.6334227e-07
1.5589454e-06
9.4689947e-07
1.9667851e-06
1.2798336e-06
2.2318164e-06
1.5282609e-06
3.8637951e-07
1.4181504e-07
3.9689807e-07
1.2344338e-07
4.0451074e-07
1.0489771e-07
4.1211131e-07
8.7194786e-08
4.2342812e-07
8.975703e-08
4.4461442e-07
1.8928554e-07
2.1174818e-06
6.3118347e-07
2.1081075e-06
5.8434823e-07
2.1070066e-06
5.6787152e-07
2.118043e-06
5.7505972e-07
2.1595427e-06
6.221106e-07
2.3073144e-06
8.0253932e-07
2.3199647e-05
5.4030156e-06
2.2764035e-05
5.298205e-06
2.249231e-05
5.3152937e-06
2.2358038e-05
5.4383181e-06
2.2486454e-05
5.8149106e-06
2.3382907e-05
7.0649484e-06
7.0657471e-05
2.0692911e-05
6.9005479e-05
2.0979185e-05
6.7742958e-05
2.111216e-05
6.6703681e-05
2.1337932e-05
6.5976238e-05
2.2044271e-05
6.5916209e-05
2.4357825e-05
0.00012512242
4.5130449e-05
0.00012266785
4.4350845e-05
0.00012062051
4.6181556e-05
0.00011868036
4.6643186e-05
0.00011685864
4.6917915e-05
0.00011553806
4.9021321e-05
0.00017805604
5.4517744e-05
0.00017552802
5.7983893e-05
0.00017332805
6.949309e-05
0.00017108639
6.9900359e-05
0.00016881506
7.0540458e-05
0.00016690577
7.444844e-05
0.0002272171
6.5446588e-05
0.00022425077
7.5553176e-05
0.00020660653
9.1570986e-05
0.00020335234
9.1429645e-05
0.00020502275
9.3377189e-05
0.00021005296
0.00010043506
0.00017678578
8.3205314e-05
0.00015487802
8.1968905e-05
0.00015087426
0.00010160027
0.00018376911
0.00011481238
0.00022487917
0.00011684325
0.00022987477
0.00012549586
0.00015311714
0.00012818745
0.00013339536
0.00010342426
0.00012410678
0.00010104443
0.00015374319
0.00014401845
0.00023297084
0.00014041577
0.0002848126
0.00014647305
0.00015081319
0.00025172155
0.00013522765
0.00018506639
0.0001277528
0.00015128832
0.00016117707
0.00016846949
0.00025869541
0.00017819753
0.00030385812
0.00016762135
0.00026321469
0.00039269337
0.00019122463
0.00032609401
0.00016171958
0.00024790307
0.00018478867
0.00024153309
0.00031327309
0.00025786669
0.00031244702
0.00020239391
0.00052432042
0.0004469614
0.00034952063
0.00039154899
0.00024960832
0.00025470825
0.00025243683
0.00024637338
0.00038525596
0.00032167743
0.00035246937
0.00024026054
0.0006997341
0.00055360388
0.00068282544
0.00053110623
0.00047086433
0.00042141339
0.0003919986
0.00027023152
0.00050686269
0.00031838555
0.00046797619
0.00030200019
0.00083650943
0.00065540167
0.00082271639
0.00063470077
0.00080499786
0.00061259965
0.0006750668
0.00054040403
0.00072876672
0.00046534085
0.00064443673
0.00040519649
0.0010015121
0.00074783479
0.0009857447
0.00072665794
0.00096743835
0.00070549131
0.00089116358
0.0006719351
0.00088889806
0.0006207106
0.00080426977
0.0005092768
0.0012770675
0.00099949321
0.00095693346
0.00073411385
0.00075979957
0.00058393708
0.00079041338
0.00058421502
0.0010550929
0.00070908496
0.00097505801
0.00070237986
0.0017271529
0.0014488709
0.0012145577
0.0014204546
0.00090289776
0.00089780882
0.00081020664
0.00068014963
0.0010022741
0.00071603276
0.00131002
0.0009450625
0.0022823967
0.0020739443
0.0022678061
0.0020524745
0.0016050304
0.0020301014
0.0012562241
0.0016232921
0.0012921785
0.0013269485
0.0016112922
0.0013663343
0.0026907734
0.0025330648
0.0026963759
0.0025290324
0.0024206214
0.0025224975
0.001915659
0.0023527444
0.0018306893
0.001985688
0.0021105382
0.0019418403
0.0028653912
0.0026542569
0.0028847073
0.0026649308
0.0027106931
0.0026707115
0.0021812864
0.002423898
0.0021184275
0.0020733145
0.0024751755
0.0020266418
0.002753712
0.0024532594
0.0027797517
0.0024652051
0.0026311171
0.0024737582
0.0021597864
0.0021078056
0.0021654784
0.0018491429
0.0025937339
0.0018549635
0.0023625168
0.002003214
0.0023896642
0.0020115829
0.002411993
0.0019288053
0.0022337099
0.0016389479
0.0022728124
0.0016285952
0.0024684342
0.0017430405
0.0018213674
0.0014659988
0.0018418234
0.0014722611
0.0017608155
0.0014785919
0.0015023107
0.0014861166
0.0015302989
0.0014965878
0.0017626439
0.0014995812
0.001404704
0.0010928275
0.00082741289
0.0010978664
0.0006346627
0.00087976056
0.00068620922
0.00078510824
0.00093244193
0.00084405216
0.0011664333
0.00091600572
0.00045031771
0.00040375702
0.00041416041
0.00031856587
0.00048954569
0.00034115441
0.00067376016
0.00044330688
0.00094398812
0.00054626419
0.0011394171
0.00061572749
0.00042815158
0.00032264116
0.00047861181
0.00033403207
0.0005714665
0.0003382813
0.00087555664
0.0003592193
0.00098968891
0.00041315386
0.00092626996
0.00048719717
0.0004373215
0.00031247635
0.00049551294
0.00029612907
0.00058752413
0.00026791445
0.00092019171
0.00026844601
0.00088477265
0.00032449558
0.00083360634
0.00044546332
0.00040288935
0.00028783459
0.0004680714
0.0002667256
0.00054751297
0.00024705548
0.00086242397
0.00025505655
0.00085509847
0.00030000324
0.00082027646
0.00039566277
0.00032589385
0.00041825942
0.00039975577
0.00029447399
0.00047765119
0.00026906879
0.00065259201
0.00028689655
0.00065203313
0.00029437892
0.00051876394
0.00032123097
0.00025115327
0.00034350352
0.00028821634
0.00045314178
0.00035828938
0.00038315601
0.00044709458
0.00032290207
0.00042635253
0.00028014508
0.00038419313
0.00027751523
0.00027160763
0.00021327009
0.00023017715
0.0002204189
0.00025305399
0.00024896382
0.00030088381
0.00025822467
0.00031086005
0.00024823956
0.00031273733
0.00025481788
0.0004187715
0.0002470065
0.00026626543
0.00019469402
0.00021965772
0.00018533054
0.00023033825
0.00019535151
0.00024622683
0.00020506021
0.00026173258
0.00022966718
0.00040662201
0.00024863819
0.00034059144
0.00018951289
0.00024732035
0.00016174328
0.00020667395
0.00016217978
0.00021176379
0.00017557668
0.00022348013
0.000200535
0.00014736733
0.00010404459
0.00015823222
0.00010480856
0.00016490306
9.9623918e-05
0.00014905577
0.00010296458
0.00015971167
0.00011456599
0.0001640519
0.00011698887
2.1279011e-05
1.3822527e-05
2.3602029e-05
1.5222465e-05
2.6006855e-05
1.6602206e-05
2.869465e-05
1.8312318e-05
3.0366948e-05
2.0027109e-05
3.0493294e-05
1.9355709e-05
2.3937913e-06
1.6980702e-06
2.5189522e-06
1.8448612e-06
2.5909787e-06
1.93283e-06
2.6110143e-06
1.9775704e-06
2.5326449e-06
1.9440239e-06
2.1479153e-06
1.6804003e-06
4.5177973e-07
3.2296695e-07
4.1442285e-07
3.1799496e-07
3.7257005e-07
3.0193836e-07
3.4583186e-07
2.8978573e-07
3.2627595e-07
2.8131221e-07
3.0878351e-07
2.7690783e-07
2.8966554e-06
1.3707284e-06
3.631666e-06
1.9637128e-06
3.9356908e-06
2.206032e-06
4.0503446e-06
2.3216733e-06
4.1203745e-06
2.4102661e-06
4.2015536e-06
2.5139514e-06
2.6794158e-05
1.131461e-05
3.0163849e-05
1.5463118e-05
3.1154341e-05
1.6975889e-05
2.5377055e-05
1.7640195e-05
2.3817563e-05
1.8123561e-05
2.6273425e-05
1.8761548e-05
6.8528834e-05
3.1307031e-05
7.1762259e-05
4.0172387e-05
4.7618442e-05
4.363974e-05
3.3894121e-05
3.8759796e-05
3.4295097e-05
3.9252593e-05
4.6142666e-05
4.5606082e-05
0.00011684223
6.0163649e-05
0.00012213246
7.6356372e-05
5.726064e-05
7.4789405e-05
4.039353e-05
6.0655871e-05
4.4057954e-05
6.5236535e-05
7.1696759e-05
9.4459609e-05
0.00016955272
9.4771658e-05
0.00014385157
0.00011871079
7.2078296e-05
0.000120023
4.9969291e-05
9.8320688e-05
5.6176864e-05
0.00010419538
0.00010262914
0.00016791968
0.00022776978
0.00012960208
0.0001686554
0.00016072449
9.8569795e-05
0.00018151937
6.7792986e-05
0.00019665447
7.4289897e-05
0.00021089945
0.00013603321
0.00022971375
0.0002289928
0.00015867094
0.00021509243
0.00018938143
0.00015138964
0.00021102114
0.00010648791
0.00022696929
0.00010950881
0.00024171609
0.00017707226
0.00026127338
0.00029655872
0.00017590454
0.00029557334
0.00019834765
0.00026151064
0.00021511003
0.00020662588
0.00022746877
0.0001804739
0.00023864746
0.0001907836
0.00018080167
0.00032890476
0.00018277164
0.00037167488
0.00019232862
0.00039191514
0.00020173733
0.00040082986
0.00020924131
0.00018555111
0.00021620372
0.00011775238
0.00019715496
0.00032316939
0.00019074341
0.00034701253
0.0001869531
0.00035573191
0.00018783426
0.00035803433
0.00018732357
0.00025055174
0.00018476219
0.00012483974
0.00018386332
0.00035017494
0.00020914112
0.00036964668
0.00020718861
0.00037670829
0.00020872815
0.00037679704
0.00020553297
0.00037356241
0.00019534604
0.00030856562
0.00017645269
0.00043939615
0.00024734331
0.00045914467
0.00024762832
0.00046853947
0.00025251812
0.00046930018
0.00025061949
0.0004637325
0.00024173984
0.00045159145
0.00022310149
0.00058859225
0.00031525988
0.00059644237
0.00030479447
0.00060498865
0.00030907341
0.00060674649
0.00030880846
0.00060206201
0.0003027862
0.00057072262
0.00028915999
0.00073376518
0.00039064298
0.00072064519
0.00035781026
0.00072166927
0.00035434848
0.00072075729
0.00035184655
0.00071527335
0.00034580453
0.00069593707
0.00033143256
0.00085652498
0.00055691702
0.00081052855
0.00051098791
0.00079723239
0.00050683359
0.00078960657
0.00050663323
0.00078138723
0.00050568574
0.00076806974
0.00050254944
0.0011122075
0.00086055717
0.0010074917
0.00076702157
0.00096897608
0.00074161098
0.00094714441
0.00073016823
0.0009283944
0.00072173419
0.00090679504
0.00071281705
0.0016793719
0.0014838666
0.0015284377
0.0013369185
0.001467445
0.0012796421
0.0014308883
0.0012476928
0.0013977064
0.0012215359
0.0013560403
0.0011906183
0.0023514841
0.0019250707
0.0021744225
0.0019149444
0.0020975778
0.0019892143
0.002050846
0.0019539587
0.0020097494
0.0019245834
0.0019584208
0.0018885431
0.0027332827
0.0020685706
0.0025572988
0.0022259304
0.0024838553
0.0023770788
0.0024390617
0.0023475759
0.0023996674
0.0023218405
0.0023498212
0.002289121
0.0027221486
0.0019318384
0.0025537209
0.0021324225
0.002489503
0.0022326601
0.0024505919
0.0022057408
0.0024159253
0.0021818794
0.0023708544
0.0021512968
0.0023405952
0.0017713115
0.0021852115
0.0018065722
0.0021322427
0.0017582891
0.0021009422
0.0017311446
0.0020726827
0.0017091187
0.0020342461
0.0016824004
0.0018203623
0.0014166497
0.0016752877
0.0012753371
0.0013882829
0.0012280301
0.0010707534
0.0012021
0.0010212362
0.0011815026
0.001337454
0.0011278402
0.0011430158
0.00092025767
0.001096438
0.00084808116
0.0011964742
0.00081484183
0.0011581855
0.00077636128
0.00078665179
0.00068709588
0.00033285471
0.00061892514
0.0010104414
0.00065714776
0.00084666644
0.00054213472
0.00077652745
0.00025902933
0.0002321838
0.00017811614
0.00012701148
0.00020069716
0.00012719372
0.00031610992
0.00081802058
0.0005276321
0.00069172613
0.00033254626
0.00054515802
0.00020908662
0.00011042746
0.00018694395
7.59803e-05
0.00022558232
0.00019215714
0.00031941697
0.00076054694
0.00052621462
0.00061741266
0.0003671451
0.00016978126
0.00023675571
9.4947139e-05
0.00020135173
0.00013177928
0.0002226584
0.00039104442
0.00029230327
0.00061800861
0.00046387455
0.00037362451
0.00035367402
0.00018774203
0.00022545713
0.00013091279
0.00018710193
0.0001796192
0.00020930056
0.00030855184
0.00029931748
0.00044796714
0.00035282925
0.00038251026
0.00029790692
0.00025243206
0.00020008388
0.00016551368
0.00016621724
0.00016241367
0.00018499922
0.00024456307
0.00024473141
0.00037454114
0.00029377504
0.00035739658
0.00025711478
0.00028515348
0.00017912383
0.00020048481
0.0001453081
0.00018341349
0.00015811326
0.00024517489
0.00020853422
0.00031821259
0.00027441483
0.00030409888
0.00024773785
0.00027055944
0.00017963124
0.000225002
0.00013921828
0.0002095269
0.00014021712
0.00025937768
0.00017608163
0.00027223537
0.00025537007
0.00025566234
0.00025926566
0.00022882138
0.00019111305
0.00021001347
0.00014432442
0.00021288852
0.00013480755
0.00026508843
0.0001570527
0.00023176267
0.00022115972
0.00021904108
0.00020727509
0.00019677261
0.00018019342
0.00017894864
0.00018793114
0.00018684152
0.00015533529
0.00020990329
0.00013879905
0.00014334025
0.00010075611
0.00010070715
7.1505475e-05
8.0558703e-05
5.9830507e-05
7.03957e-05
5.4270186e-05
6.3777361e-05
5.0509794e-05
5.83671e-05
4.7487655e-05
2.5941719e-05
1.630776e-05
1.4753054e-05
8.2269202e-06
8.9745985e-06
5.1906542e-06
6.3936699e-06
4.0254295e-06
4.9268776e-06
3.3991907e-06
3.9382375e-06
3.0837908e-06
1.2844064e-06
1.0125601e-06
5.3510083e-07
4.1139789e-07
2.2763929e-07
2.1738111e-07
1.0922252e-07
1.7406676e-07
7.1265552e-08
1.7746598e-07
7.4521791e-08
1.9052498e-07
2.9370791e-07
2.7873022e-07
2.8817865e-07
2.8845589e-07
2.9181201e-07
3.0814964e-07
3.0580791e-07
3.4276899e-07
3.306482e-07
3.9747652e-07
3.5706455e-07
4.6152309e-07
3.2384453e-07
4.4890413e-07
4.3200914e-06
2.6902709e-06
4.4484e-06
2.8810413e-06
4.5940011e-06
3.1003627e-06
4.8379322e-06
3.41774e-06
5.2703243e-06
3.967345e-06
6.0433995e-06
5.004342e-06
6.8550446e-06
6.8576046e-06
2.8492791e-05
2.004856e-05
2.9887865e-05
2.1515472e-05
3.3284956e-05
2.3683588e-05
3.8655801e-05
2.6517504e-05
4.3606043e-05
3.1496216e-05
5.0552303e-05
4.1206565e-05
5.8129004e-05
5.9028422e-05
6.1416426e-05
5.3668883e-05
7.8098765e-05
6.3135012e-05
0.00010899807
7.1481818e-05
0.00011980889
8.3130703e-05
0.00013596013
0.00010239029
0.00015782243
0.00013663569
0.00018156285
0.00018699557
0.00012311415
0.00011542297
0.0001934069
0.00013654693
0.00023168422
0.00015872337
0.00025337629
0.00018616848
0.00028284428
0.00022585424
0.00031777892
0.00028637541
0.00035292534
0.00035580174
0.00021207696
0.00019348451
0.00034735505
0.0002335618
0.00037733001
0.00027353286
0.0004053332
0.00031648737
0.0004401228
0.00036948578
0.00046949486
0.00043836945
0.00045512806
0.00043290194
0.00028182399
0.00026495378
0.00037952969
0.00032049485
0.00037723857
0.00029196236
0.00036949797
0.00030593613
0.00043813356
0.00039939089
0.00050106782
0.00047912699
0.00049876585
0.00045140998
0.00028068674
0.00024495234
0.00028222448
0.0002040263
0.00027189588
0.0002139768
0.00032412016
0.0002790834
0.00045738807
0.00039812592
0.00052931822
0.00047283692
0.00051302793
0.00044090382
0.00018699274
0.00014270261
0.00018081145
0.00014888253
0.00022441658
0.00019606057
0.00034274694
0.00028165643
0.00047367424
0.00037804354
0.0004952677
0.00042589152
0.00049583718
0.00042604566
0.00010843894
0.0001481745
0.00013921933
0.00014644513
0.00022781792
0.00019880643
0.00034190877
0.00026906098
0.00040943683
0.00032618667
0.00044315026
0.00037279951
0.00050064539
0.00043975258
0.00010766919
0.00019359622
0.00013628858
0.0001911257
0.00020758075
0.00019283325
0.00028112691
0.00024583663
0.00034811758
0.00031959923
0.00041962523
0.00037835192
0.00053936127
0.00050041454
0.00021244394
0.00016259542
0.00018890054
0.00017263932
0.00021726852
0.00019872817
0.00027614142
0.00023132604
0.00034943002
0.00028438024
0.00043754759
0.00042806902
0.00060529043
0.00061332969
0.0004025035
0.00020029841
0.00032728847
0.00019335663
0.00029582679
0.00020296912
0.00030884822
0.00022667203
0.00038591559
0.0002626685
0.00047767034
0.000620929
0.00071111844
0.00077560648
0.00050677612
0.00027082065
0.00045126759
0.00025784549
0.00042084525
0.0002472007
0.00043688688
0.00026140933
0.00056389598
0.00039216032
0.00061566869
0.0007373186
0.00079330437
0.0009620717
0.00063007453
0.00030289623
0.00060039343
0.00026672998
0.00052847162
0.00023092727
0.00046999693
0.0002505912
0.00055119009
0.00039628042
0.00073344076
0.00069667104
0.00090735606
0.0010408705
0.00073441602
0.00049405018
0.00068533229
0.00047816391
0.00064014473
0.00044529341
0.00055413469
0.00038943345
0.00051877266
0.00035199064
0.00065105472
0.00051337669
0.00098603051
0.00091366816
0.00088549891
0.0007049155
0.00086461822
0.0007012786
0.00083566328
0.00069734297
0.00079214906
0.00069102724
0.0007530938
0.00068328152
0.00073731286
0.00063267217
0.00080840415
0.00071662824
0.0013081223
0.0011545473
0.0012563067
0.0011188093
0.0011901371
0.0010768352
0.0011074381
0.0010383953
0.0010194736
0.0010141264
0.00096524954
0.00097652284
0.00090510992
0.00083598005
0.0018975492
0.0018447558
0.00181822
0.0017865506
0.0017022669
0.0017028682
0.0015425084
0.0015916977
0.0013607892
0.0014682396
0.0012384635
0.0013205045
0.0011155985
0.0010468799
0.0022888509
0.0022492936
0.0022107048
0.002197487
0.0020933645
0.0021177112
0.0019217431
0.0019947046
0.0017016639
0.0018145524
0.0015005718
0.0015488288
0.0012841058
0.0011755911
0.002315835
0.002117846
0.0022468948
0.002077823
0.0021449561
0.0020170267
0.00199828
0.0019211646
0.0018087509
0.0017639885
0.0016112689
0.0015120029
0.0013350305
0.0011377248
0.0019892993
0.0016588139
0.0019262016
0.0016230031
0.001840581
0.001570871
0.0017328979
0.0014930585
0.0016138507
0.001379145
0.0014776019
0.0012120596
0.0012339746
0.001002548
0.0014906232
0.0011349063
0.0014697295
0.0011083743
0.0012865212
0.0010748402
0.0010448845
0.0010346253
0.0010050683
0.00099064467
0.0010102706
0.00096354556
0.001228481
0.0010386695
0.00023053902
0.00058886047
0.00027023026
0.00061510784
0.00046523042
0.00074023028
0.00073804143
0.0007690085
0.00086561662
0.00083003782
0.0010212999
0.0009412442
0.0011677489
0.00097971325
0.00026673137
0.00040259262
0.00044411816
0.00042023309
0.00064088218
0.00052013312
0.00066996793
0.00065247786
0.00077753566
0.0007727874
0.0008551682
0.00081240878
0.00088598713
0.00077048041
0.00053791419
0.00035309806
0.00048804117
0.00035784952
0.00049231896
0.00044061776
0.0005795253
0.00052013616
0.0006411501
0.00057124812
0.00069599501
0.00060310147
0.00083933429
0.00068171751
0.00035889395
0.00036372099
0.00035639001
0.00032587382
0.00046918403
0.0003897233
0.00054451906
0.00043481938
0.00060009063
0.00046611021
0.00069364398
0.00051418979
0.00095127564
0.00065172054
0.00030578089
0.00030337982
0.00037100043
0.00031835582
0.00050196331
0.00037165249
0.00056868202
0.00039899759
0.00064404331
0.00042325015
0.00078537566
0.00048180355
0.0011583655
0.00066070151
0.00032757896
0.00027999658
0.00042069564
0.00030458717
0.00056810688
0.00034935808
0.00063364927
0.00037247645
0.00072254687
0.0003995038
0.00088657653
0.0004677185
0.0010597113
0.00068519769
0.00034805964
0.00024421706
0.00047174239
0.00027086745
0.00065320435
0.00030994507
0.00070013855
0.00033673578
0.00076658596
0.00037351838
0.00081672626
0.00045627137
0.00080565344
0.00060256013
0.00035192721
0.000206483
0.00049291385
0.00023193441
0.00062124655
0.00026874967
0.00060407909
0.00029863487
0.00059097541
0.0003406016
0.00057517141
0.00042442355
0.00054100554
0.00042021689
0.0003433961
0.00017960835
0.00039970942
0.00020196106
0.00038290312
0.00023553211
0.00036753098
0.00026214529
0.00035540805
0.00028396864
0.00033912018
0.00027003331
0.00030564233
0.00024518026
0.00019748441
0.00014849902
0.0001862811
0.00015597602
0.00017535117
0.0001500383
0.00016738149
0.00014429545
0.0001613531
0.00013695309
0.00015180655
0.00012468142
0.0001308179
0.00010528107
5.3382874e-05
4.5229275e-05
4.9529285e-05
4.3383949e-05
4.6409799e-05
4.19816e-05
4.464101e-05
4.0174709e-05
4.3028219e-05
3.6953787e-05
3.9251536e-05
3.166646e-05
3.0750914e-05
2.3467614e-05
3.3226286e-06
2.9814396e-06
3.0353261e-06
3.0013039e-06
3.0581133e-06
3.1875061e-06
3.0904278e-06
3.2615379e-06
3.1373605e-06
2.8432839e-06
2.6432951e-06
2.1208912e-06
1.6525667e-06
1.1963618e-06
8.9421402e-08
2.157262e-07
1.0654851e-07
2.3864632e-07
1.369423e-07
2.6628249e-07
1.5833782e-07
2.6430722e-07
1.6418427e-07
2.214e-07
1.100001e-07
1.2220317e-07
3.7451806e-08
3.296677e-08
2.1264544e-07
2.9825861e-07
1.1216062e-07
1.4285057e-07
5.6223499e-08
7.6797979e-08
4.0418529e-08
5.7865882e-08
6.4347675e-06
7.546061e-06
4.3455216e-06
5.3464821e-06
2.1282786e-06
2.7775732e-06
9.705513e-07
1.3802216e-06
5.8060996e-05
6.4164193e-05
4.7030494e-05
5.2860249e-05
3.0356341e-05
3.508669e-05
1.6781626e-05
2.0202486e-05
0.00018381053
0.00019930042
0.00015917656
0.00017286422
0.00011002268
0.00012480556
6.1134168e-05
7.2790944e-05
0.00036524206
0.0003803699
0.00033850571
0.00035665631
0.0002656967
0.00029317774
0.00014569956
0.00018557632
0.00049980513
0.00045894397
0.00054874547
0.00055944821
0.00048674118
0.00052190757
0.00028692943
0.00037544028
0.0005553976
0.00048949745
0.00069541662
0.00068061916
0.00074166333
0.00077778629
0.00048427965
0.00062742302
0.00060995506
0.00051796811
0.00082322538
0.0007747525
0.00088907848
0.0010341667
0.00072225586
0.00091432624
0.00064381119
0.00055649743
0.00094135033
0.0008610975
0.0010947997
0.0011980581
0.00098194426
0.001215407
0.00068638785
0.00063200585
0.00099742566
0.00094032532
0.0012890476
0.0012951243
0.0012360614
0.0015082446
0.00075039427
0.0007280093
0.001032323
0.0010445842
0.0013518434
0.0013529142
0.0014704432
0.0017844189
0.00082911545
0.0008617999
0.0010825427
0.001181225
0.0013145682
0.0014208376
0.0016630438
0.0019520288
0.00092293219
0.0010278612
0.0011462069
0.001332671
0.0012544132
0.0015149864
0.0017006324
0.0019402276
0.0010201269
0.0011721084
0.0012002605
0.0014606223
0.0012079011
0.001601037
0.0015000753
0.001809711
0.0010714977
0.0012083805