/*--------------------------------*- C++ -*----------------------------------*\
| =========                 |                                                 |
| \\      /  F ield         | OpenFOAM: The Open Source CFD Toolbox           |
|  \\    /   O peration     | Version:  2206                                  |
|   \\  /    A nd           | Website:  www.openfoam.com                      |
|    \\/     M anipulation  |                                                 |
\*---------------------------------------------------------------------------*/
FoamFile
{
    version     2.0;
    format      ascii;
    arch        "LSB;label=32;scalar=64";
    class       volScalarField;
    location    "500";
    object      k;
}
// * * * * * * * * * * * * * * * * * * * * * * * * * * * * * * * * * * * * * //

dimensions      [0 2 -2 0 0 0 0];

internalField   nonuniform List<scalar> 
50904
(
0.18882887
0.23489165
0.71581825
0.77689075
0.54314106
0.56704189
1.2936084
1.1732816
3.3599325
3.4287103
5.7895978
5.1357851
6.4162753
6.2898644
10.314026
8.826615
9.0579105
8.7330549
13.805067
12.1016
11.607921
11.087708
16.498778
14.861828
14.248855
13.541624
18.752943
17.248423
17.013989
16.152154
20.985316
19.579124
19.797622
18.83681
23.487827
22.10857
22.35941
21.355844
26.092348
24.801115
24.506187
23.436548
28.47529
27.167536
26.19157
25.032054
30.478452
29.020757
27.383026
26.089003
32.128635
30.279237
27.990897
26.607567
33.587056
31.23744
27.795612
26.427762
34.709735
32.194514
26.225227
25.181018
34.289353
32.126925
23.691782
22.828529
31.552014
29.72032
20.284575
19.775714
28.20404
26.62648
17.864793
16.962436
26.117304
24.568523
16.377631
15.092137
25.346592
23.790452
16.259547
14.388911
24.856542
23.460386
17.036491
14.67175
24.973199
22.459611
18.335418
15.478827
27.306708
23.150272
19.525874
16.272549
29.972311
24.094034
19.965808
16.616146
32.134737
24.535203
19.589207
16.402591
31.828393
23.64576
18.533398
15.727227
29.758446
21.635089
16.720501
14.600611
26.234574
19.391913
14.470572
12.950455
22.461518
17.209915
11.920573
10.971561
18.876581
15.352994
9.2135023
8.7316756
15.587143
13.651397
6.4773447
6.3286508
12.268436
11.443894
3.9265688
3.9437228
8.3404835
7.9663964
1.6755041
1.7239684
3.5718166
3.3363896
0.23522308
0.2455606
0.48302469
0.43823108
0.052002154
0.05904462
0.093817042
0.064850234
0.59815921
0.40457339
1.0217804
0.61060976
1.1564489
0.62925296
1.333889
0.69553024
1.4344551
0.71031384
1.5099788
0.67982047
1.5655504
0.63278535
1.4793678
0.86524704
1.8171437
0.76524263
1.7428726
0.72283245
1.6847714
0.69015977
1.6221509
0.64984318
1.5819658
0.61144078
1.5621905
0.58293523
6.5901288
4.3158343
6.8028942
3.2102025
6.4587706
2.9455093
6.2706969
2.7517624
6.1706585
2.5618349
6.1226971
2.4286559
6.1052326
2.3770997
11.882659
8.0238969
11.657228
5.8902198
11.218777
5.3131059
11.171874
5.2325058
11.203006
5.3038085
11.243629
5.4475478
11.279712
5.6193329
16.461283
11.844125
16.152191
8.8216735
15.390016
8.0689316
15.416559
8.3192789
15.648536
8.8056275
15.878481
9.3441292
16.057596
9.8273626
19.900271
15.48356
20.491997
12.062206
19.541829
10.988582
19.470983
11.366796
19.780677
12.156151
20.144599
12.984468
20.431688
12.927256
22.104864
18.48806
24.454453
15.801732
23.954487
14.229884
23.733243
14.423288
23.894223
15.314286
24.132658
15.690569
24.321297
15.011666
23.64833
20.812887
27.686409
20.309809
28.668145
18.628238
28.786796
18.491694
28.747578
19.104392
28.643676
19.386441
28.357313
18.462963
25.75435
23.488377
30.232598
25.131742
33.178102
25.482341
34.252727
26.069772
33.977019
26.960342
32.989228
27.427509
31.754725
26.681946
28.45295
26.455178
33.371013
29.998431
37.680767
33.953035
40.891774
38.229386
42.352397
42.265676
41.559285
45.416608
38.867323
46.922167
31.38028
29.476082
37.358233
34.557396
43.351079
40.496822
49.085725
46.917617
53.723515
52.904028
57.053296
58.086269
58.540671
62.256878
34.047117
31.968377
41.026858
37.747121
46.990975
42.802411
52.183842
47.291543
56.226044
50.940057
59.316683
53.848507
61.684057
56.257653
36.396475
33.643924
44.48296
39.923611
50.354567
44.303411
54.814986
47.388575
57.841691
49.346823
59.792564
50.472182
60.983016
51.010715
38.649558
34.847599
47.563456
41.030453
53.691172
45.083334
58.228773
47.772579
61.250046
49.370842
63.141779
50.189263
64.232421
50.455442
41.464308
36.807304
51.779828
43.465709
58.381514
47.329281
63.153563
49.640533
66.338134
50.947835
68.353672
51.609689
69.555893
51.834023
43.712347
39.041052
58.38616
49.836697
67.563326
56.496795
73.77937
60.430212
77.742697
62.771759
80.10391
64.112661
81.340016
64.749372
43.360177
39.073667
64.212395
56.308109
79.085961
69.017149
89.105443
77.014386
95.36589
81.751844
99.104232
84.566575
101.15011
86.149131
40.760924
36.944735
67.02787
59.223229
89.124911
79.425924
104.73498
92.724972
114.56646
100.41076
120.46583
104.74697
123.84648
107.37567
38.867621
35.149195
68.376066
60.853943
97.216983
87.144357
118.74296
105.42152
132.43524
116.34922
140.75343
122.74683
145.70334
126.77917
37.829193
34.121605
70.520289
62.579824
104.2149
92.766914
129.5741
114.10629
145.99517
127.25507
156.13376
135.24866
162.32286
140.39645
36.886214
33.356485
69.379003
61.268593
103.93358
90.741209
129.96377
111.36322
146.88085
124.12049
157.48755
132.09852
164.10263
137.17292
35.966552
32.961251
62.844591
54.650509
92.570732
77.115954
115.3315
92.831661
130.3738
102.83654
140.01535
109.1409
146.10251
113.13646
37.048626
34.356991
56.670305
46.503093
78.37526
59.083134
93.955591
68.301291
104.0504
74.169394
110.48116
77.908026
114.53901
80.284628
41.446462
34.668567
56.702587
41.092327
75.361779
51.076279
88.480708
58.361064
96.606364
62.20948
101.68741
64.302179
104.8985
65.579111
49.297628
35.493904
62.2002
40.848962
74.938598
46.693865
83.725303
52.164278
88.522597
54.041131
91.043946
54.453051
92.174848
54.41506
50.909024
34.511857
62.888985
39.544388
67.080116
39.700439
69.904043
39.265593
71.540606
38.891409
71.842944
38.327851
70.792373
37.599023
46.457224
30.787855
57.512389
35.302128
58.580331
33.735995
59.042554
32.66776
59.682582
32.452967
59.483547
32.23049
58.241261
31.918874
40.385695
26.829542
51.814464
32.751454
53.234265
32.159714
53.48277
31.228887
53.784656
31.067301
53.413252
30.897314
52.239434
30.644402
34.67776
23.559134
46.913205
31.124665
50.199072
32.664063
51.154446
32.469247
51.491637
32.186363
51.142124
31.714225
50.0832
31.221402
29.344331
20.854628
42.148034
29.247376
47.427785
33.011292
49.513475
34.050866
50.349942
34.101465
50.44763
33.653275
49.821432
32.954095
24.543507
18.757964
36.585186
26.247144
43.659018
31.80913
47.000007
34.250129
48.512409
35.094483
49.122504
35.201536
49.206629
34.84418
20.575362
17.377098
29.922337
22.440067
37.944084
28.334826
42.614852
32.065902
44.877569
33.702299
45.949773
34.325883
46.41007
34.421126
17.129348
15.469585
23.162134
19.102956
29.792056
22.997492
35.484569
27.248278
38.678015
29.601828
40.233593
30.627363
40.93645
30.940357
11.552606
9.9516787
16.875755
14.513971
19.433453
16.746143
24.452397
19.965649
28.483434
22.550394
30.779804
23.796825
31.940121
24.253399
2.3084366
1.7440935
5.8341552
3.8818089
9.4662656
6.7492713
12.839796
9.344771
15.178125
11.150413
16.857511
12.204959
17.963899
12.665709
0.096800777
0.065185984
0.67585361
0.3166631
2.0782717
1.0710336
4.4657245
2.448947
6.9260725
4.1205321
8.7552006
5.575928
9.9462793
6.6639848
1.6136371
0.57143074
1.6576124
0.49737026
1.6894405
0.42261723
1.7211392
0.35125997
1.7681623
0.36157104
1.8559679
0.76280909
1.5657313
0.56882635
1.5831496
0.56744273
1.5996072
0.57283891
1.6213181
0.59151133
1.6628762
0.64210024
1.7688703
0.78872497
6.1166612
2.3762735
6.1760409
2.4289914
6.2338238
2.4842151
6.3157446
2.5621803
6.4781134
2.7251752
6.9042601
3.1800798
11.325647
5.8027174
11.40109
6.0132149
11.46579
6.0786896
11.559376
6.1331323
11.757131
6.2720549
12.264657
6.6963551
16.175586
10.025051
16.277531
9.9423485
16.327266
9.7791162
16.375064
9.5960748
16.502112
9.4562255
16.990727
9.4836881
20.643355
12.445045
20.805077
11.860689
20.856772
11.427522
20.857865
11.092872
20.898445
10.928509
21.233014
11.118044
24.481017
13.785509
24.592363
12.669403
24.586852
12.060251
24.505059
11.699663
24.443005
11.716557
24.611295
12.349636
27.907782
16.553637
27.333932
14.625927
26.788636
13.43465
26.24993
12.698293
25.856942
12.679501
25.865349
13.530004
30.413249
24.182512
29.009904
20.6192
27.790675
17.67132
26.586347
15.437891
25.603201
14.162233
25.260199
14.64422
35.22288
45.672062
31.720106
40.462778
29.114063
33.370909
26.843856
25.268347
24.989416
18.539901
23.829343
16.198511
56.309898
65.013503
49.180844
64.518622
40.86953
59.215854
32.942454
47.495769
27.184178
30.872837
23.795218
19.676681
63.333717
58.43842
62.903211
59.720631
58.403671
58.423997
48.399699
51.61316
36.199303
37.907345
27.41941
23.003196
61.652406
51.101695
61.762746
50.782318
60.848703
50.085278
57.296869
47.693546
49.022975
40.149453
37.489803
27.292259
64.789107
50.283443
64.875843
49.752364
64.379311
48.810912
62.813499
47.007885
58.908918
42.891979
51.90087
33.601298
70.264252
51.72436
70.569657
51.350858
70.357513
50.654966
69.344082
49.292289
66.684539
46.247162
62.083733
39.387078
81.913529
64.989163
81.845322
64.787102
80.875723
63.879402
78.465806
61.784684
73.813298
57.476435
65.875819
48.983295
102.29106
87.150081
102.69411
87.662282
102.00663
87.571462
99.336739
86.296626
92.522696
81.522484
79.379787
68.776627
126.06311
109.17767
127.40808
110.35487
127.85337
110.83285
127.06934
110.67192
122.86599
108.81423
110.36114
100.106
149.1198
129.75609
151.65072
132.0882
153.20605
133.57404
154.1543
134.68277
153.7866
135.43775
148.18928
133.97621
166.77432
144.28403
170.27061
147.52566
172.69528
149.81012
174.79782
151.88936
176.66452
154.4991
175.38966
157.3393
168.98001
141.03656
172.90345
144.29162
175.71123
146.55451
178.25944
148.61353
180.74744
151.17711
180.37905
153.31963
150.52348
116.02291
154.13933
118.46907
156.59652
120.05057
158.51979
121.23067
159.82426
122.00547
158.04174
120.77324
117.56281
82.001579
120.16208
83.493694
122.00018
84.348534
123.45011
84.745333
124.03833
84.567614
121.05909
82.898243
107.31306
66.562087
109.54333
67.518299
110.65186
67.988978
109.13789
67.828313
103.81592
66.131338
95.44755
61.011286
91.712188
53.802868
88.779151
51.893026
85.012575
49.295019
80.849762
46.414388
76.077915
43.343909
70.172188
39.874197
68.876954
36.71714
66.385448
35.717276
63.957951
34.749326
61.336567
33.625204
58.240866
32.196823
54.541136
30.304855
56.581177
31.370741
54.690772
30.623722
52.930798
29.8973
51.112485
29.050376
49.018391
27.97315
46.490525
26.599605
50.863154
30.176306
49.421051
29.460672
48.112061
28.763885
46.76696
27.982977
45.247703
27.041832
43.446745
25.937154
48.814812
30.805373
47.537108
30.247365
46.450304
29.558766
45.365183
28.797522
44.195444
27.944262
42.627198
26.934137
48.689407
32.205103
47.327505
31.652385
46.195099
31.13312
45.131801
30.483725
43.988837
29.696142
42.26674
28.685034
48.715016
34.147681
47.620968
33.298181
46.417414
32.5486
45.20615
31.803458
43.859525
30.950462
41.741978
29.776098
46.486275
34.076225
46.128678
33.385796
45.338326
32.579382
44.179423
31.690931
42.643738
30.639563
40.11278
29.093791
41.18097
30.820448
41.179896
30.386886
40.87285
29.743276
40.168462
28.914633
38.819819
27.843449
36.277912
26.181159
32.488677
24.287289
32.806181
24.152499
32.834027
23.821918
32.681489
23.272854
31.782497
22.433001
29.826226
20.985572
18.598311
12.897527
19.182454
13.136794
19.586192
13.237345
19.841646
13.305544
19.82141
13.209847
19.763862
12.305018
10.674898
7.4080847
11.254883
8.0628568
11.593451
8.4578174
11.697362
8.6618779
11.359441
8.5209918
9.6331558
7.3610781
1.883174
1.3015957
1.7246341
1.2802428
1.549226
1.2146813
1.4374077
1.1653107
1.3556875
1.130872
1.2825578
1.1127587
2.1606862
1.1698431
2.6854581
1.5877514
2.965729
1.8035242
3.1150261
1.9323694
3.219594
2.0352629
3.3219458
2.1504374
8.3809652
4.6114914
10.538621
6.2059754
11.564955
6.9408674
11.723819
7.2947735
11.542716
7.4993178
11.312574
7.6978589
14.234043
7.9105512
16.823555
9.9611333
17.666259
10.852021
17.144039
11.174907
16.295977
11.305546
15.516234
11.44046
18.996592
10.616972
21.776247
13.201654
22.235045
14.115302
21.140991
14.408326
19.739172
14.45962
18.609233
14.52219
22.890311
13.11435
25.790474
15.730269
25.758809
16.874628
24.432144
17.265946
22.780174
17.383814
21.482594
17.483984
25.843478
15.108982
27.865763
17.659206
27.727848
18.850792
26.596213
19.390584
25.110531
19.68981
23.847654
19.966439
26.889173
16.610976
27.893637
18.798726
27.718938
19.95827
27.00994
20.607319
26.011769
21.04068
25.033864
21.468781
26.054186
17.65284
26.762134
19.451957
26.710929
20.54798
26.387212
21.228017
25.872373
21.714507
25.207112
22.106985
24.546648
18.184402
25.791357
19.503259
26.183883
20.405057
26.218648
21.023906
26.047114
21.499914
25.384367
21.833625
24.23319
19.258475
25.998302
20.488079
26.59213
21.226022
26.770158
21.353387
26.748638
20.940417
26.105549
20.455136
27.448691
21.651073
30.368423
25.638275
31.315538
28.116291
31.280801
28.895308
30.782245
27.884472
29.88006
24.713527
36.208115
24.647072
41.021307
30.788508
43.12505
34.78464
43.608553
36.620068
42.998482
36.762605
41.156129
34.667322
50.85472
29.519468
57.348237
35.743367
60.819671
40.172503
62.351976
42.608292
62.581623
43.744389
61.052869
43.421964
62.253245
34.566529
68.531421
39.638644
72.159004
43.81845
74.03981
46.469242
74.772743
48.108905
73.610758
48.246614
61.069976
42.337646
61.805955
44.471126
62.381329
46.87926
62.515411
48.39808
62.244122
49.379822
61.178329
49.92565
66.461898
55.94437
60.463036
52.94009
57.997767
52.587389
56.356041
52.402042
54.718827
52.070738
52.595662
51.428808
95.025215
87.077889
86.905324
80.552909
83.948569
78.003076
81.869387
76.338323
79.496593
74.637758
75.989952
72.197615
138.1713
127.29301
131.5756
121.47688
128.72626
118.96729
126.41688
117.03294
123.60865
114.86864
119.22568
111.56905
168.8785
154.18284
163.72207
148.69051
161.36813
146.23439
159.23043
144.32314
156.43124
142.09747
151.8191
138.59566
174.10649
148.16552
169.8618
141.83084
168.03404
139.33036
166.1786
137.46522
163.51514
135.33602
158.8547
132.01764
150.68293
115.45366
147.09121
110.02354
145.76394
107.98923
144.17252
106.51986
141.62004
104.86389
136.90588
102.21984
113.89825
78.538494
107.31043
73.196672
103.88946
71.188752
100.48103
69.776499
96.139805
68.232598
90.547291
65.831745
86.146663
53.677883
76.877305
47.658508
73.096914
45.464812
70.633527
44.011323
68.224558
42.576332
64.174008
40.61443
62.715319
35.775899
56.046348
32.261988
53.602955
30.594083
51.528027
29.026871
47.109507
27.587991
40.443098
26.392661
49.490298
27.931342
44.437082
25.735412
42.478018
24.777614
40.382681
24.085512
35.989223
23.550184
31.931132
23.115945
43.026179
25.191178
39.606862
24.257314
37.589777
23.833155
34.922073
23.442072
32.247424
23.067742
30.734658
22.713877
40.882338
24.973799
37.383248
24.454647
35.25603
24.080274
33.276413
23.637014
31.564326
23.17283
30.434371
22.722169
39.877956
25.961841
35.905072
25.205358
33.923064
24.635918
32.342843
24.014943
30.856352
23.382438
29.523446
22.765255
39.044399
27.361563
34.414351
25.970086
32.294508
25.100312
30.744135
24.249903
29.294709
23.406291
27.933033
22.591547
37.866617
27.931345
32.405927
25.757433
30.016606
24.602705
28.411251
23.58767
27.024576
22.591613
25.712913
21.619006
35.584404
26.586795
29.387964
23.587185
26.816864
22.294269
25.194237
21.236567
23.874996
20.233596
22.66763
19.261899
31.527744
23.310509
24.918163
19.638463
22.334682
18.124565
20.798305
17.129515
19.598747
16.32498
18.523098
15.502646
25.651226
18.276953
18.774985
13.839963
15.962762
12.122974
14.47797
11.22437
13.429558
10.568371
12.510111
9.9956049
16.783543
10.778603
10.172068
5.9195905
6.7517507
4.0860265
5.1781443
3.3630668
4.2591546
2.9697174
3.5768079
2.7188889
5.7480297
4.4245151
2.3908194
1.7940639
1.016236
0.94739406
0.48749496
0.75862746
0.31807675
0.77351503
0.33263503
0.8304292
1.2214979
1.1217888
1.1982173
1.1607587
1.2133623
1.2401237
1.2722467
1.3802651
1.3776265
1.6030549
1.4927751
1.8680047
1.3658015
1.8345966
3.4591309
2.3333406
3.6052487
2.5294771
3.7613034
2.7460659
3.9608467
3.0255172
4.23476
3.4362631
4.6358874
4.0886902
5.0439342
5.0607237
11.18955
8.0412456
11.150097
8.3709895
11.142167
8.6843813
11.216626
9.0660946
11.434545
9.6445988
11.962569
10.622541
12.423401
12.341873
15.030695
11.75575
14.808792
12.081312
14.716745
12.404984
14.783836
12.900012
15.180428
13.739774
15.913598
15.159384
16.77141
17.155682
18.015183
14.849364
17.81927
15.280525
17.794628
15.785433
18.021524
16.471247
18.558886
17.459506
19.34897
18.888648
20.125702
20.554082
20.866786
17.87613
20.693764
18.413782
20.690419
18.987254
20.892311
19.612081
21.259843
20.330866
21.723812
21.283906
22.180225
22.346269
23.208053
20.478588
22.976608
20.99229
22.868745
21.405423
22.78864
21.689587
22.678151
21.865742
22.632968
22.111855
22.781833
22.512541
24.411932
22.015467
24.031878
22.366067
23.624862
22.396775
23.103905
22.144574
22.572706
21.782339
22.267513
21.490505
22.24936
21.396813
24.489266
22.348353
23.747701
22.198167
22.905163
21.755753
22.124118
21.197965
21.563184
20.622223
21.253701
20.079372
21.228641
19.844651
24.015565
21.564766
22.666538
20.854787
21.586029
20.111787
20.868003
19.527156
20.413543
19.008677
20.166448
18.538981
20.340389
18.686795
24.018736
20.346074
22.028723
19.771849
20.699966
18.641753
19.923076
17.781499
19.489798
17.410551
19.409943
17.478659
19.970294
18.338545
27.728483
21.3648
24.752606
19.478092
21.882429
18.180973
19.99599
17.109484
19.066766
16.708255
19.016742
17.097631
20.013245
18.6392
37.823139
30.295543
33.223911
25.82675
27.140472
21.068681
21.604625
17.525383
18.574974
15.505121
18.392466
16.211834
19.990611
18.835462
56.013944
40.834377
47.821351
35.723868
35.939974
26.83536
24.069366
17.848294
17.986442
14.309595
17.776845
15.808482
19.865608
18.847166
68.033027
44.428706
57.665276
35.786452
41.305982
22.880023
24.920997
14.66085
17.709822
13.855423
17.602913
15.958181
19.590181
18.823295
58.34084
49.080064
52.857161
46.170704
42.879419
39.532074
29.995973
29.131229
20.673731
19.135427
18.102378
16.776047
19.134389
18.405541
50.149211
50.476305
47.190744
49.313634
42.475086
46.841223
35.106776
41.761579
27.700478
34.609649
23.292429
26.320705
19.577749
19.52797
71.461775
69.014282
65.900264
65.212086
58.066975
59.944767
47.206371
53.118222
34.850084
44.823909
27.552332
37.582678
24.076822
26.64792
113.30318
107.11926
104.93552
101.06751
92.02999
92.13583
73.635615
79.517941
51.748685
63.771942
35.699715
49.251529
29.684047
34.019335
145.31003
133.84442
136.17722
127.58306
121.82772
118.1712
100.59848
103.81356
73.318263
83.487002
48.503128
59.757589
34.960173
38.192381
152.22122
127.79061
143.08359
122.41026
128.95016
114.36124
108.40168
102.06659
82.138399
83.5988
56.543389
59.862153
37.763151
36.111509
130.4322
99.16363
121.18068
94.626726
107.65449
87.695692
89.6843
77.363837
69.39537
63.131941
50.37452
46.052902
32.153113
27.867627
85.489246
63.059123
79.925573
59.506994
72.321444
54.445885
61.467097
47.783367
48.209264
39.688513
36.011097
30.956123
26.34692
23.657001
56.503081
38.351602
49.185637
35.96479
42.655302
33.079429
37.422569
29.965267
32.574689
27.045631
28.061161
24.407832
25.051262
22.692889
35.161184
25.581078
32.714714
24.946295
30.9016
24.257827
29.262891
23.598193
27.605349
23.017547
26.284585
22.534824
25.673809
22.340549
30.454754
22.825985
29.623729
22.585124
28.730296
22.318368
27.842361
22.109162
27.122356
21.974131
26.550925
21.858693
26.047594
21.683316
30.01887
22.438394
29.302362
22.203888
28.472033
21.908322
27.759485
21.654354
27.09011
21.428179
26.339523
21.133318
25.33509
20.650094
29.593367
22.357529
28.76485
21.975503
27.909549
21.549073
27.122636
21.150986
26.279781
20.721625
25.262417
20.140859
23.969718
19.351027
28.466585
22.212575
27.564523
21.679573
26.643729
21.105272
25.778032
20.536547
24.841218
19.885734
23.720297
19.016934
22.275949
17.904536
26.799031
21.849247
25.831867
21.15419
24.874822
20.415034
23.993595
19.655248
23.052044
18.770904
21.879199
17.629275
20.306816
16.218455
24.57935
20.717157
23.589578
19.896362
22.631348
19.032529
21.729673
18.136907
20.786752
17.109683
19.592393
15.848634
17.929113
14.196755
21.618859
18.345694
20.666686
17.525001
19.694488
16.680203
18.788276
15.803308
17.859538
14.779296
16.681652
13.459835
14.970617
11.706263
17.523925
14.687448
16.61064
13.971443
15.689479
13.234486
14.865929
12.478489
14.014991
11.566147
12.924077
10.301717
11.196118
8.5769869
11.611585
9.4754621
10.860008
9.0102998
10.114482
8.5130059
9.4415107
7.9414651
8.7417242
7.1789509
7.7924557
6.0818278
6.1592839
4.5259549
3.0301477
2.565966
2.6912649
2.4742452
2.5221349
2.4283065
2.3837494
2.3165163
2.2622837
1.9917786
1.8854504
1.481685
1.2035002
0.85368217
0.40037034
0.94313495
0.47829943
1.0462391
0.6170538
1.1720611
0.71783914
1.1708419
0.75265171
0.9921768
0.51521597
0.56017911
0.18290457
0.15790119
0.90450421
1.23291
0.48419461
0.60199984
0.24870369
0.33407461
0.18524815
0.26236506
4.6110476
5.3497968
3.1171001
3.8339401
1.5536218
2.0373727
0.7123509
1.0559965
12.061903
12.844413
9.992212
11.187327
7.3638074
8.4043505
4.4620098
5.7311558
16.446988
17.489541
14.443858
15.523972
11.112081
12.287236
7.8798704
9.3714876
19.781358
20.719776
17.826445
18.785036
14.588698
15.719957
10.387206
12.655683
21.937802
22.454573
20.318945
20.90678
17.86602
18.70926
13.101258
16.293424
22.751238
22.672235
21.752634
21.811585
20.579985
20.990739
16.079873
19.832956
22.532413
21.813792
22.217891
21.771085
22.450346
22.439598
18.912299
22.729518
21.917672
20.737098
22.156992
21.336359
23.485611
23.153147
21.122419
24.56741
21.438643
20.087004
22.016722
20.998897
23.895392
23.336363
22.437483
25.182266
21.299118
20.034817
21.9731
20.903695
23.998805
23.114909
23.141393
24.874361
21.326772
20.225187
21.950623
20.878522
23.905235
22.490878
23.723722
23.967733
21.241728
20.222495
21.79827
20.653204
23.639578
21.55817
24.60357
22.810145
21.009445
20.023765
21.528762
20.254932
23.343255
20.660078
25.685511
21.780993
20.705039
19.741582
21.334551
19.952455
23.350222
20.301841
26.788273
21.378903
20.138979
19.163282
21.019535
19.518754
23.34714
20.156156
27.275217
21.420204
19.292879
18.313489
20.110722
18.548772
22.51671
19.22529
26.904516
20.785693
20.11316
20.086854
19.417765
18.024463
21.293715
18.387844
25.681597
19.956917
23.321049
24.163459
19.624663
19.217102
20.68781
18.920409
24.305856
19.855512
25.611613
26.117483
20.417403
20.924305
21.314257
21.13648
23.833076
21.240169
25.080075
24.713619
21.423233
22.755865
22.562408
23.608051
24.277998
23.129149
23.322055
22.994819
23.126037
24.232395
23.340627
23.54435
24.983451
23.678909
24.141902
23.461997
23.960752
23.452316
23.843685
22.552429
25.97506
23.231484
24.97471
23.050133
24.575658
22.467619
24.857406
22.479123
27.317392
23.285026
25.594467
22.297938
25.052877
21.92617
25.717659
22.613622
28.358897
23.56024
25.284956
21.392393
24.78308
21.27854
25.949299
22.420436
28.981992
23.720107
24.222498
20.292979
24.018034
20.325181
25.788517
21.745161
29.743053
23.772863
22.829417
19.016783
23.110804
19.226706
25.480302
20.750047
30.330809
23.624081
21.256389
17.441623
22.052797
17.820213
24.740726
19.360585
30.466567
22.895899
19.368529
15.568563
20.518466
15.939137
23.377941
17.442557
29.653276
21.105111
16.9967
13.314703
18.297472
13.456034
21.23323
14.914523
27.477947
18.095544
13.969742
10.555563
15.250234
10.338207
18.16695
11.749275
23.771872
14.082424
10.113065
7.200719
11.24692
6.6694132
13.963517
7.9361539
18.448642
9.3392701
5.1146272
3.215642
5.9402699
2.7191903
8.0729025
3.56269
11.083978
4.2557101
0.86506931
0.469028
1.0839677
0.37337923
1.7330783
0.53762509
2.6955912
0.69959456
0.099362031
0.036739769
0.13745166
0.023442903
0.22867511
0.075159768
0.26283913
0.18569686
0.62898226
0.48615573
0.079905473
0.12347657
1.9358912
1.5981737
0.83664696
0.76148728
0.10138218
0.11729655
1.0488589
0.94090983
3.3288184
3.2900249
0.69242235
0.79598152
2.48215
2.5063804
5.7392612
5.9260101
2.0256663
2.3791503
4.4493341
4.5383337
8.0185472
8.4407279
3.4871312
4.0488639
6.5122885
6.6316044
10.341138
10.969093
5.0216008
5.7220352
8.4766581
8.6383266
12.719837
13.510122
6.7585687
7.6653843
10.401661
10.633229
15.095683
15.998491
8.6189074
9.7322875
12.335945
12.656667
17.328177
18.302496
10.495683
11.789289
14.305025
14.727405
19.222401
20.252999
12.282927
13.714355
16.298199
16.829154
20.660534
21.720763
13.89613
15.418526
18.255636
18.905402
21.542918
22.617833
15.243839
16.831372
20.090809
20.866152
21.746101
22.822488
16.249056
17.778507
21.661117
22.478839
21.197668
22.242285
16.918689
18.284922
22.52833
23.309167
19.897258
20.884917
17.384475
18.479416
22.415122
23.067162
18.395549
19.305029
17.922369
18.655879
21.451358
21.928413
16.980161
17.810764
17.214824
17.964868
19.902863
20.274295
15.437727
16.206578
15.487171
16.001479
18.171075
18.67596
14.093122
15.02494
13.809391
14.443771
16.737134
17.527696
13.594397
14.82884
12.829866
13.649806
15.943971
17.037505
14.072632
15.631873
12.681144
13.706685
15.608709
17.062279
15.276296
17.14027
14.020494
15.043228
15.804915
17.273106
17.173897
19.245993
15.2524
16.101739
16.435178
17.936253
18.879142
20.762582
16.022683
16.413211
17.820422
19.018832
19.807749
21.618408
16.286337
17.043465
19.602355
20.587802
20.619441
22.553258
17.276035
18.750693
21.788591
23.019581
21.280877
23.421497
18.937504
21.228712
24.173454
26.020744
21.59383
24.006372
21.105533
24.037916
26.587347
29.415106
21.216411
23.759254
23.370537
26.882483
28.995612
32.447611
19.836808
22.181649
24.598789
28.214164
30.392533
33.552311
17.390624
19.258716
23.344529
26.529212
28.978317
31.573426
14.127393
15.415938
19.925327
22.428179
25.213751
27.249246
10.3387
11.112925
15.354897
16.751981
19.896826
21.390979
6.0233423
6.3215253
9.2008881
9.6573772
12.652054
13.594828
1.1972554
1.2964793
2.4511326
2.5340577
3.7019971
4.0280262
0.20979507
0.27278857
1.0410629
1.0697526
0.29620781
0.32353902
0.490057
0.4021879
0.26204474
0.2029657
0.15063443
0.16175641
0.76867122
0.72345171
0.59183908
0.54157153
0.54554496
0.6537764
1.9695484
1.7934817
1.15385
0.66372804
0.48739136
0.51087933
2.8710131
2.8467477
1.8259601
1.0669828
1.0205771
1.3061154
8.0765596
8.1419569
6.0737043
4.0252553
3.1527931
3.2032617
10.298562
10.332548
7.6840359
5.2056549
5.1135948
5.9909898
14.045934
13.669026
11.045302
8.0556034
6.45778
6.2895603
16.696339
16.388748
13.100033
9.4512313
9.3232121
10.473514
18.582656
18.085624
15.441749
12.09639
9.7954764
9.1720487
21.388238
21.131966
17.871649
13.664913
13.01348
14.045564
22.162875
21.73014
19.272315
15.965279
13.283664
12.089844
25.001816
25.011296
22.045358
17.829509
16.407476
16.902326
25.041586
24.792058
22.61416
19.532228
16.733149
15.074282
27.841402
28.254242
25.724851
21.831394
19.701284
19.409803
27.278217
27.324656
25.483976
22.74239
20.024923
18.08661
29.991987
30.934828
28.927203
25.574396
23.014147
21.960811
28.824407
29.297122
27.844266
25.516947
23.005045
21.008396
31.417952
33.0371
31.625749
28.910425
26.28013
24.730075
29.600604
30.637168
29.636938
27.768525
25.550829
23.66513
32.041215
34.513729
33.727182
31.684076
29.258655
27.532742
29.559647
31.25332
30.808167
29.434111
27.563644
25.844878
31.825731
35.282482
35.209029
33.81293
31.696933
29.998525
28.80122
31.096355
31.309012
30.490896
29.018704
27.5053
30.884528
35.280633
36.088266
35.358833
33.590763
32.004709
27.736406
30.28667
31.10926
30.900705
29.900106
28.642079
29.746757
34.57209
36.3794
36.426162
35.098875
33.70555
26.845036
29.199717
30.293483
30.639389
30.188979
29.206627
28.940561
33.670108
36.166469
36.99328
36.371294
35.287414
26.667621
28.473526
29.077732
29.541351
29.515335
28.828777
29.043784
33.283967
35.395709
36.545815
36.718322
36.212372
27.184915
28.139054
27.703121
27.678619
27.385965
26.899726
30.010765
33.227808
34.176508
35.063418
35.47472
35.348933
27.926573
27.658625
26.103999
25.199867
24.662803
24.240977
31.015078
32.965129
32.786791
33.092588
33.093287
32.802906
28.50592
26.628275
24.299622
23.213225
21.842999
20.814215
31.465681
32.151753
31.175886
31.125045
30.441812
29.482202
28.533158
25.211839
22.758729
21.499194
20.024042
18.779522
31.352488
30.701976
29.746523
29.755245
28.378557
27.338788
28.472515
24.074138
21.542651
19.980102
18.645491
17.530341
30.775114
29.530134
29.394557
29.653231
27.765974
26.414324
29.323354
23.490474
20.824309
19.377248
18.662059
17.732492
30.136582
28.800998
29.696987
30.146886
28.9185
26.465521
29.631147
23.273531
20.700514
19.651548
19.597076
18.889233
29.892172
28.338306
29.941015
30.709922
30.935999
28.470905
27.997777
22.021148
19.779421
19.538036
20.424912
20.300299
29.316846
27.481751
29.592941
31.193057
33.009804
31.742561
25.200153
19.656632
18.204931
18.73116
20.536727
21.364267
28.682527
26.370734
28.514481
30.729854
34.075341
34.57473
20.761744
16.688876
16.105311
17.330223
19.787395
21.404469
28.62573
24.444891
26.614105
29.34544
33.290109
35.870175
16.003537
13.510928
13.900389
15.576663
18.441045
20.591712
27.488944
21.912021
23.734502
26.522072
30.968049
34.482233
12.331356
10.974441
11.732374
13.635561
16.635661
19.039923
24.996338
19.041309
20.254303
22.924877
27.606399
31.465589
9.7154557
8.9793636
9.7370482
11.51918
14.503912
16.905696
21.748928
16.033702
16.569863
18.938068
23.544663
27.571749
7.9064285
7.4188922
8.0323465
9.3901579
12.051556
14.370799
18.371695
13.139218
13.12728
15.018683
19.226051
23.21615
6.4300525
6.1852679
6.655711
7.4320281
9.4668263
11.560147
14.982698
10.445803
10.104851
11.481588
15.097723
18.888571
5.101913
5.1091764
5.5702445
5.7785584
7.0234155
8.679205
11.749818
8.0059781
7.5159484
8.4066239
11.350895
14.837885
3.7039615
3.8994216
4.3729123
4.3254796
4.9086202
5.9462723
8.6646051
5.8305336
5.2844195
5.7346472
7.9362302
10.990807
2.109573
2.2645898
2.7049893
2.707317
3.0368625
3.5896375
5.5871621
3.8002066
3.2822074
3.4173467
4.6807794
7.0572129
0.65411021
0.65278101
0.82343433
0.87863986
1.1230006
1.4952468
2.412445
1.4996552
1.2576371