/*--------------------------------*- C++ -*----------------------------------*\
| =========                 |                                                 |
| \\      /  F ield         | OpenFOAM: The Open Source CFD Toolbox           |
|  \\    /   O peration     | Version:  2206                                  |
|   \\  /    A nd           | Website:  www.openfoam.com                      |
|    \\/     M anipulation  |                                                 |
\*---------------------------------------------------------------------------*/
FoamFile
{
    version     2.0;
    format      ascii;
    arch        "LSB;label=32;scalar=64";
    class       volScalarField;
    location    "500";
    object      nut;
}
// * * * * * * * * * * * * * * * * * * * * * * * * * * * * * * * * * * * * * //

dimensions      [0 2 -1 0 0 0 0];

internalField   nonuniform List<scalar> 
50904
(
3.6947088e-08
4.6888131e-08
1.4123407e-07
1.5730332e-07
6.1502958e-07
6.5455433e-07
1.4869582e-06
1.3714179e-06
9.9093309e-06
1.025575e-05
1.9840848e-05
1.7367295e-05
3.8133434e-05
3.8126629e-05
6.9799158e-05
6.0668535e-05
9.0822933e-05
8.8943438e-05
0.0001432845
0.0001271054
0.0001707112
0.00016312555
0.00023069942
0.00020566446
0.00027986702
0.00026088371
0.00033074951
0.00029395422
0.00041736526
0.00038092289
0.00044394221
0.00039217446
0.0005755378
0.00051744396
0.00056443716
0.00049623603
0.00073861995
0.00065836939
0.00067823951
0.00059780205
0.00089569782
0.00079717841
0.00078321755
0.00069784602
0.0010539266
0.00094238265
0.00090753394
0.00081946614
0.0012189374
0.0010958019
0.0010527883
0.00095465896
0.0014071236
0.0012725779
0.0012343082
0.0011157716
0.0016206239
0.0014815075
0.0014656208
0.0013262751
0.001780592
0.0016663728
0.0016849589
0.001547854
0.001768625
0.0017097413
0.0018240703
0.0017138652
0.0014153145
0.0014183815
0.0018515022
0.0017644263
0.0010798266
0.0010445115
0.0017856752
0.0017107894
0.0008802162
0.00081937814
0.001673655
0.001619711
0.00077907981
0.00069803665
0.0014452912
0.0014642465
0.00071815711
0.00062983542
0.0011143855
0.0010675026
0.00066883113
0.00057576406
0.00094901017
0.0008349237
0.00062340211
0.00052974791
0.0008483546
0.0007011722
0.00056929316
0.00048274574
0.00075682636
0.00059269271
0.00050887567
0.00043555549
0.00065726573
0.00049894943
0.00044371815
0.00038722518
0.00054871727
0.00040920844
0.0003697735
0.00033322639
0.00042842135
0.00032134607
0.00029371112
0.00027387836
0.00031252403
0.0002392542
0.00021887059
0.00021198823
0.00021494703
0.00017143644
0.00014705865
0.00014823118
0.00014009403
0.00011903063
8.1844679e-05
8.5721213e-05
8.4674141e-05
7.7440408e-05
3.2108248e-05
3.4475426e-05
4.2435081e-05
4.1053548e-05
6.4354401e-06
6.8965391e-06
1.1753365e-05
1.1402578e-05
2.8760526e-07
3.0255112e-07
5.909672e-07
5.4349735e-07
9.8727767e-09
1.1213804e-08
1.7690705e-08
1.2275822e-08
1.1924141e-07
8.3339404e-08
2.0537701e-07
1.2716733e-07
2.3304875e-07
1.3145935e-07
2.6908921e-07
1.4548521e-07
2.8949249e-07
1.486429e-07
3.0473836e-07
1.422666e-07
3.1589039e-07
1.3239178e-07
1.7003845e-06
9.9879655e-07
2.2442856e-06
9.5971114e-07
2.1430746e-06
9.2258957e-07
2.0744365e-06
8.6252725e-07
1.9608947e-06
7.7829016e-07
1.8721935e-06
6.8509936e-07
1.8105914e-06
5.9180806e-07
2.3247716e-05
1.3730983e-05
2.7825348e-05
1.0632727e-05
2.5380767e-05
8.8048271e-06
2.3407389e-05
7.3009962e-06
2.1941394e-05
6.0618943e-06
2.0907593e-05
5.2648079e-06
2.0135683e-05
4.8059911e-06
8.3669498e-05
5.0866599e-05
8.7796719e-05
3.232827e-05
7.661379e-05
2.3981797e-05
6.981874e-05
2.0323639e-05
6.5737399e-05
1.8526227e-05
6.3070962e-05
1.7749649e-05
6.1107807e-05
1.746772e-05
0.00016483528
0.00011065659
0.00015619091
6.3735742e-05
0.00013257022
4.6576817e-05
0.00012025382
4.1082122e-05
0.0001139818
3.9402934e-05
0.00011030255
3.925414e-05
0.00010772032
3.9614786e-05
0.00024787617
0.00018057578
0.0002212957
0.00010236396
0.00018662165
7.3839863e-05
0.00016868807
6.5251591e-05
0.0001601405
6.3046284e-05
0.00015561603
6.2950436e-05
0.00015252665
4.998965e-05
0.00032956668
0.00025458277
0.00028286094
0.00015052402
0.00024079584
0.00010722058
0.00021734345
9.2775715e-05
0.00020562522
8.861324e-05
0.00019907502
8.2883488e-05
0.00019474294
5.9955476e-05
0.00040932146
0.00033093571
0.00033750076
0.00021063275
0.00029284617
0.00015286241
0.00026598165
0.00012960048
0.00025023296
0.0001207449
0.0002401589
0.00011581119
0.00017875062
8.1894833e-05
0.00048803225
0.0004097087
0.00038084143
0.00027603429
0.00033493352
0.00021641525
0.00030645565
0.00018734522
0.00024744598
0.00017366106
0.00018338704
0.00016543404
0.0001474404
0.00013998043
0.00055762756
0.00048419053
0.00041198123
0.00033619759
0.00036044159
0.00028630114
0.00033414051
0.00026559677
0.00031599517
0.00025731249
0.00019672214
0.0002528816
0.00014192708
0.00024713885
0.00062882836
0.00056579592
0.00045744718
0.00040431978
0.00040296592
0.00035683779
0.00038007736
0.00034047049
0.00036876737
0.00033592353
0.0003609533
0.00033536405
0.00033678925
0.00033506339
0.00074404557
0.00068301078
0.00057160098
0.00051471928
0.00051650149
0.00045642354
0.00049106353
0.00042710938
0.00047648517
0.00040998235
0.00046562854
0.00039790969
0.00045541607
0.00038784712
0.0008826111
0.00081029173
0.00071219926
0.00063861526
0.00066028753
0.00057657304
0.00063695846
0.00054177834
0.00062376333
0.00051905276
0.00061371913
0.00050145644
0.0006038793
0.00048554263
0.0010466272
0.00094740878
0.00085267418
0.00074977069
0.00078736189
0.00067455402
0.00075689907
0.00063256075
0.00074022301
0.00060614331
0.00072881871
0.00058702765
0.00071906559
0.00057107112
0.0012712617
0.0011354657
0.0010568046
0.00090439197
0.00096602056
0.0007987429
0.00091916573
0.00073636019
0.00089271245
0.00069737145
0.00087523765
0.00067087141
0.00086148578
0.00065089668
0.001525194
0.0013794519
0.0013520854
0.0011779451
0.0012515068
0.0010594468
0.0011897789
0.00097987806
0.0011511622
0.00092814108
0.0011242074
0.00089322775
0.0011024155
0.00086757762
0.0017277921
0.0016077686
0.0016682369
0.0015245277
0.0016107239
0.0014430561
0.001565678
0.0013695321
0.001532326
0.0013151014
0.0015058135
0.0012767217
0.0014828405
0.0012482398
0.0018078283
0.0017448607
0.0018667842
0.0017907179
0.0019103244
0.001819104
0.0019314837
0.0018212908
0.0019378927
0.0018036734
0.0019367376
0.001780546
0.0019308966
0.0017607733
0.0017993451
0.0017655716
0.0019354464
0.0018592796
0.0020659605
0.001986269
0.0021541899
0.002063691
0.00220407
0.0020977876
0.0022313586
0.0021106558
0.0022460403
0.0021160362
0.0017526757
0.0017408898
0.001916574
0.0018326233
0.0020969495
0.0019956636
0.002223618
0.0020975929
0.0022994782
0.002150074
0.0023442365
0.0021778659
0.0023713367
0.0021953498
0.0017069911
0.00169578
0.0018069424
0.0017316724
0.0019802399
0.0018686272
0.002108281
0.0019498992
0.0021886281
0.001990398
0.0022384397
0.0020134732
0.0022702724
0.002028219
0.0016382531
0.0015987326
0.001609812
0.0015628865
0.0017070852
0.0016051681
0.0018020727
0.0016309162
0.0018696663
0.001645621
0.0019157041
0.001655771
0.0019474733
0.0016640447
0.0015428483
0.0014658546
0.001422643
0.0013770657
0.0014183533
0.0012907572
0.0014446195
0.0012467126
0.0014702352
0.0012282217
0.0014915818
0.0012228359
0.0015087275
0.0012233167
0.0013110644
0.001048134
0.0012479629
0.0010903561
0.0012161241
0.00099476698
0.0012138899
0.00094737226
0.0012168658
0.00092521203
0.0012214185
0.0009162258
0.0012260135
0.00091441658
0.001048321
0.00075681567
0.0010886785
0.00082389457
0.0010466701
0.00074811691
0.0010252275
0.00071064584
0.0010099892
0.00067372343
0.00099969518
0.00065670768
0.00057935546
0.0005491999
0.00091447489
0.00060433008
0.00096379109
0.00058086381
0.00094609892
0.0005919304
0.00092673463
0.00058745099
0.00091628745
0.00053013446
0.00063607438
0.00040315286
0.00040073841
0.00029855561
0.00079263841
0.00054744597
0.00082477174
0.00048188266
0.00087992586
0.00054815276
0.00086071333
0.00055526643
0.00085017196
0.0005464178
0.00062284155
0.00054206892
0.00038860232
0.0003825179
0.00065628425
0.00044918372
0.00082471787
0.00053018286
0.00083335776
0.00055284058
0.00082068764
0.00056128544
0.00081039813
0.00055584272
0.0005335428
0.00055305308
0.00034353946
0.00042021719
0.00049961613
0.00034067904
0.00071928996
0.00050124779
0.00077758892
0.00056184046
0.0007825638
0.00057085012
0.00077590176
0.00053503722
0.00044850803
0.00039374938
0.00027737746
0.00047731315
0.00034259128
0.00023555582
0.00056833954
0.00039020044
0.0006865162
0.00050031422
0.0007251412
0.0005409405
0.00073135318
0.00049947824
0.00052393374
0.00032386754
0.00026163965
0.00021635982
0.0002105117
0.00015098187
0.00038170639
0.00025555037
0.00053267305
0.00038260484
0.0006193555
0.00046180123
0.0006539844
0.00049252445
0.00066348666
0.00044206667
0.00039718497
0.00024172484
0.00011780819
9.2927772e-05
0.00020512771
0.00013708921
0.00032354241
0.00022544916
0.00042963934
0.00031695896
0.00049537389
0.00037363699
0.0005276542
0.00040078263
0.0005408851
0.0003419897
6.1367852e-05
5.2635033e-05
8.7530765e-05
6.4284234e-05
0.00013873824
9.5487096e-05
0.00020476293
0.00014574194
0.00026494599
0.00019390198
0.00030621083
0.00022874909
0.00032989856
0.00024940481
2.4182925e-05
2.1954901e-05
3.0503165e-05
2.5303638e-05
3.93965e-05
3.0631901e-05
5.7252727e-05
4.2070849e-05
7.8953336e-05
5.5961824e-05
9.8624894e-05
6.9057574e-05
0.00011362952
7.9775125e-05
2.4070346e-06
1.9383186e-06
4.828583e-06
3.4829865e-06
7.0609601e-06
5.2613256e-06
9.5447982e-06
6.9857674e-06
1.1999984e-05
8.4755897e-06
1.4315109e-05
9.7377996e-06
1.6305125e-05
1.0762465e-05
1.827839e-08
1.2408107e-08
1.2846403e-07
6.1001837e-08
3.9551597e-07
2.0723876e-07
8.4831044e-07
4.7421875e-07
1.3121807e-06
7.971277e-07
1.6554144e-06
1.0773999e-06
1.8784321e-06
1.2865296e-06
3.2554587e-07
1.1954156e-07
3.3442152e-07
1.0406101e-07
3.4084953e-07
8.8432038e-08
3.4726813e-07
7.351235e-08
3.5682033e-07
7.5678178e-08
3.746982e-07
1.5961284e-07
1.7841638e-06
5.3205953e-07
1.7763264e-06
4.9260576e-07
1.7754554e-06
4.7873999e-07
1.784816e-06
4.8482627e-07
1.8198674e-06
5.2453235e-07
1.9445207e-06
6.767351e-07
1.9548775e-05
4.5548894e-06
1.9182348e-05
4.4667309e-06
1.8953945e-05
4.4813314e-06
1.8841496e-05
4.5852904e-06
1.8950675e-05
4.9031888e-06
1.9707336e-05
5.9579005e-06
5.9542991e-05
1.7446501e-05
5.8152853e-05
1.7688722e-05
5.7090729e-05
1.7801686e-05
5.6217309e-05
1.7993103e-05
5.5607525e-05
1.8590401e-05
5.5560489e-05
2.0543939e-05
0.00010545551
3.8055686e-05
0.00010339057
3.7400571e-05
0.00010166832
3.8946639e-05
0.0001000372
3.9338396e-05
9.8507118e-05
3.9573418e-05
9.7399972e-05
4.1351585e-05
0.00015010654
4.598333e-05
0.00014798064
4.8910067e-05
0.00014613016
5.8621487e-05
0.00014424462
5.8967945e-05
0.00014233422
5.9510831e-05
0.00014072921
6.2810852e-05
0.00019162618
5.5223005e-05
0.0001891306
6.3754832e-05
0.0001742536
7.7275201e-05
0.00017151099
7.7158366e-05
0.00017291749
7.8801953e-05
0.00017715426
8.4755702e-05
0.00014917789
7.0242483e-05
0.00013069482
6.9202792e-05
0.0001273174
8.5780271e-05
0.00015507376
9.6935849e-05
0.00018975022
9.8645341e-05
0.00019393889
0.00010593608
0.0001292879
0.00010826752
0.00011263741
8.7356704e-05
0.00010479389
8.5349322e-05
0.00012981366
0.00012164739
0.00019668514
0.00011859345
0.00024039411
0.00012368048
0.00012741877
0.00021267506
0.00011425138
0.00015636413
0.00010793429
0.00012782877
0.00013616699
0.00014234683
0.00021852211
0.00015055327
0.00025659147
0.00014157912
0.00022250297
0.00033190913
0.00016164521
0.00027562283
0.00013670139
0.00020954034
0.00015619623
0.00020416234
0.00026476314
0.00021795543
0.00026396876
0.00017101857
0.00044352008
0.00037799137
0.00029563843
0.00033113267
0.00021111696
0.0002154143
0.00021350009
0.00020837292
0.00032578715
0.00027204338
0.00029794145
0.00020312124
0.00059258831
0.00046855276
0.00057818787
0.0004494825
0.00039865222
0.00035663565
0.00033182457
0.00022867911
0.00042893344
0.00026938222
0.0003958345
0.00025541796
0.00070881073
0.0005547445
0.00069696807
0.0005371316
0.00068181142
0.00051836398
0.00057160874
0.00045720335
0.00061682675
0.00039358813
0.00054511088
0.00034255595
0.00084843423
0.00063261738
0.00083480788
0.00061454043
0.00081906134
0.00059651851
0.00075423132
0.00056802455
0.00075196483
0.00052455724
0.00067991025
0.00043017687
0.0010817417
0.00084545403
0.00081033709
0.00062079926
0.00064319561
0.00049366649
0.00066884418
0.00049375468
0.00089232155
0.00059905539
0.00082397469
0.00059302986
0.0014607576
0.0012238874
0.0010270695
0.0011997284
0.00076339427
0.00075820165
0.00068486201
0.00057428542
0.0008468575
0.0006043705
0.0011060811
0.00079715233
0.001922495
0.0017435342
0.0019101072
0.0017253455
0.0013518373
0.0017064866
0.001058036
0.0013645303
0.0010882059
0.0011153852
0.0013564726
0.0011481565
0.0022547116
0.0021165428
0.00225941
0.0021130379
0.002028471
0.0021076519
0.0016054902
0.0019660081
0.0015344161
0.001659409
0.0017687991
0.0016224075
0.0023914692
0.0022083832
0.0024077871
0.0022173388
0.0022629609
0.002222543
0.0018215481
0.0020177758
0.0017696958
0.0017265869
0.0020681632
0.0016878488
0.0022955114
0.0020403098
0.0023177206
0.0020507876
0.0021945726
0.0020588096
0.0018024826
0.0017554398
0.0018086588
0.0015414574
0.0021679466
0.0015475565
0.0019719328
0.0016700306
0.0019952746
0.0016777952
0.0020148812
0.0016097688
0.0018673361
0.0013690738
0.0019020425
0.0013620344
0.0020679121
0.0014594044
0.0015243688
0.001225412
0.0015420649
0.0012311701
0.0014749893
0.001237149
0.0012592988
0.0012443883
0.0012837559
0.0012543521
0.0014793839
0.0012578789
0.0011784579
0.00091569728
0.0006943635
0.00092024663
0.00053278557
0.00073774314
0.00057626999
0.00065871361
0.00078332267
0.00070857376
0.00098003595
0.00076930119
0.00037834789
0.00033902275
0.00034801975
0.00026755097
0.00041142685
0.00028659217
0.00056633381
0.00037250709
0.0007936029
0.00045914624
0.00095801506
0.00051765596
0.00035997402
0.00027122088
0.00040242278
0.00028083307
0.00048051628
0.00028443585
0.00073624716
0.00030207394
0.00083229525
0.00034747717
0.00077905257
0.00040982941
0.00036777775
0.00026280561
0.00041672163
0.00024907355
0.00049410177
0.00022535215
0.00077388376
0.00022581122
0.00074414823
0.00027298659
0.00070119721
0.00037481498
0.00033884448
0.00024211982
0.00039366544
0.00022437348
0.00046047384
0.00020783186
0.00072532856
0.00021457073
0.0007192079
0.00025240426
0.00068997991
0.00033292829
0.0002741012
0.00035184918
0.0003362222
0.00024772539
0.00040173186
0.0002263576
0.00054887061
0.00024136469
0.0005484243
0.00024767924
0.00043635272
0.00027029512
0.00021125208
0.00028897545
0.0002424235
0.00038121389
0.00030135805
0.0003223388
0.00037605477
0.00027165741
0.00035862024
0.00023570272
0.00032316306
0.00023350437
0.00022847294
0.00017942578
0.00019361715
0.00018543996
0.00021285562
0.00020945372
0.00025308851
0.00021724945
0.0002614844
0.00020885966
0.00026305803
0.00021440073
0.0003522903
0.00020782283
0.00022398579
0.00016380599
0.00018477231
0.00015592524
0.00019375495
0.0001643579
0.0002071193
0.00017253199
0.00022015173
0.00019323591
0.0003420939
0.00020921334
0.00028653044
0.00015946007
0.00020805594
0.00013609159
0.00017385875
0.00013645911
0.00017813471
0.00014773266
0.00018797607
0.00016872801
0.00012399455
8.7558349e-05
0.00013313025
8.8199215e-05
0.00013873645
8.3834404e-05
0.0001253989
8.664468e-05
0.00013435703
9.6406244e-05
0.00013799558
9.844041e-05
1.7907056e-05
1.1634705e-05
1.9861133e-05
1.2812801e-05
2.1883873e-05
1.397387e-05
2.414467e-05
1.5413086e-05
2.5550571e-05
1.6856215e-05
2.5654482e-05
1.6290321e-05
2.014714e-06
1.429481e-06
2.1199904e-06
1.5530411e-06
2.180538e-06
1.6270814e-06
2.1973289e-06
1.6647338e-06
2.1312931e-06
1.6364892e-06
1.8074123e-06
1.4145404e-06
3.8073717e-07
2.7233979e-07
3.4923607e-07
2.681342e-07
3.139624e-07
2.5459319e-07
2.9143291e-07
2.4434923e-07
2.7495767e-07
2.3720833e-07
2.60221e-07
2.3349753e-07
2.4411866e-06
1.1558433e-06
3.0604781e-06
1.6557807e-06
3.3166538e-06
1.8600916e-06
3.4133016e-06
1.9576236e-06
3.472364e-06
2.0323566e-06
3.5408279e-06
2.1198119e-06
2.2582441e-05
9.5415374e-06
2.542163e-05
1.3039299e-05
2.6256259e-05
1.4314793e-05
2.138737e-05
1.4875001e-05
2.0073226e-05
1.5282684e-05
2.214326e-05
1.5820743e-05
5.7762746e-05
2.6404167e-05
6.0486617e-05
3.3879271e-05
4.0136171e-05
3.6802929e-05
2.8568398e-05
3.2687281e-05
2.8906544e-05
3.3102665e-05
3.8892924e-05
3.8460386e-05
9.8498708e-05
5.0747079e-05
0.00010295557
6.4401164e-05
4.8269322e-05
6.307812e-05
3.4050683e-05
5.1156979e-05
3.7139771e-05
5.5019419e-05
6.0438774e-05
7.9664232e-05
0.00014295708
7.9949622e-05
0.0001212822
0.00010013407
6.0768722e-05
0.00010123756
4.2128365e-05
8.2929793e-05
4.7361588e-05
8.7882568e-05
8.6524248e-05
0.00014162628
0.00019208272
0.00010935257
0.00014222065
0.00013559152
8.311774e-05
0.0001531275
5.7164346e-05
0.00016588796
6.2641394e-05
0.00017789567
0.00011470142
0.00019375536
0.00019316899
0.00013390843
0.00018142472
0.00015979684
0.00012768703
0.00017804304
8.981203e-05
0.00019148647
9.2355862e-05
0.0002039122
0.00014932839
0.00022038874
0.0002502559
0.00014848856
0.00024938856
0.00016740213
0.00022063194
0.00018153343
0.00017431559
0.00019194816
0.00015224118
0.00020136199
0.00016092013
0.00015253258
0.00027766472
0.00015432827
0.00031371617
0.00016236943
0.00033076777
0.00017029932
0.00033826241
0.00017662191
0.00015657118
0.00018248314
9.9345877e-05
0.000166384
0.00027293718
0.00016112716
0.00029301563
0.0001579047
0.00030034364
0.00015864227
0.00030225539
0.00015820608
0.00021148904
0.00015603225
0.00010535489
0.00015525288
0.00029589919
0.00017675612
0.00031229199
0.00017508418
0.00031822655
0.00017638092
0.00031827095
0.00017368018
0.00031549037
0.00016506492
0.00026052943
0.00014908447
0.00037153846
0.00020911745
0.00038818123
0.00020932543
0.00039609591
0.00021344987
0.00039671171
0.00021184142
0.00039196401
0.00020432256
0.00038162326
0.00018854061
0.00049765238
0.00026640661
0.00050417705
0.00025750267
0.00051134638
0.00026109549
0.00051278065
0.00026085714
0.00050874085
0.00025574554
0.00048210695
0.00024419341
0.00061997962
0.00032982442
0.00060872503
0.00030202589
0.00060951148
0.00029907642
0.00060866963
0.00029694927
0.00060392964
0.00029182284
0.00058741835
0.00027963732
0.00072335264
0.00046997299
0.00068430865
0.00043110645
0.00067300528
0.00042756968
0.00066650786
0.00042739089
0.00065948226
0.00042657275
0.00064808398
0.00042386737
0.00093844956
0.00072540515
0.00084983522
0.00064636159
0.00081728026
0.00062491063
0.00079884778
0.00061528493
0.00078300928
0.00060820631
0.00076474496
0.00060070925
0.0014130906
0.0012461143
0.0012857464
0.0011221738
0.0012343987
0.0010739668
0.0012037279
0.001047194
0.0011759402
0.0010253559
0.0011410728
0.00099960379
0.0019699833
0.0016071205
0.0018212953
0.0015976163
0.0017569638
0.0016592522
0.0017180728
0.0016298679
0.0016840104
0.0016055369
0.0016414893
0.0015758244
0.0022834298
0.0017214604
0.0021360784
0.0018508993
0.002074866
0.0019761808
0.0020378655
0.0019517289
0.0020055083
0.0019305706
0.0019644961
0.0019036484
0.002275799
0.00161145
0.0021348814
0.0017777544
0.0020814151
0.0018611645
0.0020493875
0.0018389531
0.002021049
0.0018194235
0.0019839847
0.0017942203
0.0019616442
0.001483588
0.0018315686
0.0015129194
0.001787418
0.0014725641
0.0017616278
0.0014501169
0.0017384861
0.0014320233
0.0017067179
0.0014098814
0.001527943
0.0011885383
0.0014063119
0.0010699147
0.0011655403
0.0010303122
0.00089910929
0.0010087595
0.00085766339
0.00099169523
0.0011233761
0.00094678829
0.00096041013
0.0007729513
0.00092137142
0.00071235208
0.001005486
0.00068448868
0.00097335955
0.00065223851
0.00066116682
0.00057732145
0.00027978316
0.0005201166
0.00084964318
0.000552579
0.00071196182
0.00045591865
0.00065299153
0.0002178467
0.00019525224
0.00014980667
0.00010681791
0.00016881439
0.00010698875
0.00026592545
0.00068807032
0.00044392283
0.00058187397
0.00027981616
0.00045859268
0.00017593911
9.2896082e-05
0.00015731156
6.3924195e-05
0.00018983681
0.00016169485
0.00026882698
0.00063980419
0.00044282318
0.00051944542
0.00030899247
0.00014285002
0.00019926218
7.9891577e-05
0.00016946776
0.00011089431
0.00018740795
0.00032911377
0.00024604378
0.00051987753
0.00039035795
0.00031433606
0.00029764637
0.00015796407
0.00018974862
0.00011015762
0.00015747202
0.00015115648
0.00017616226
0.00025968794
0.00025194355
0.00037680838
0.00029689035
0.0003217769
0.00025069014
0.00021237087
0.00016838073
0.00013926023
0.00013988683
0.00013666683
0.00015570209
0.00020581799
0.00020598964
0.00031502817
0.00024718116
0.00030061754
0.0002163428
0.0002398716
0.00015072923
0.00016866749
0.00012228337
0.00015432485
0.00013307011
0.00020631789
0.00017551956
0.00026763612
0.00023087623
0.00025576504
0.00020843518
0.00022757557
0.00015114479
0.00018928043
0.00011715265
0.00017628749
0.00011800621
0.00021826037
0.00014820525
0.00022895471
0.00021484233
0.00021501239
0.0002181192
0.00019245522
0.00016079571
0.00017665986
0.00012144319
0.00017910523
0.00011344929
0.00022305434
0.00013218619
0.00019491219
0.00018606082
0.00018421079
0.00017437878
0.00016549755
0.00015160769
0.00015052684
0.0001581369
0.00015718926
0.00013072538
0.0001766158
0.00011682302
0.00012055395
8.4771301e-05
8.4698912e-05
6.0161933e-05
6.7758899e-05
5.0342911e-05
5.9217539e-05
4.5669183e-05
5.3656915e-05
4.2509644e-05
4.9111113e-05
3.9970439e-05
2.1821899e-05
1.3723672e-05
1.2410645e-05
6.9236233e-06
7.5504026e-06
4.3687111e-06
5.3795469e-06
3.3882742e-06
4.1457831e-06
2.8613878e-06
3.3141666e-06
2.5960803e-06
1.0806878e-06
8.5232632e-07
4.5026878e-07
3.4632768e-07
1.9156878e-07
1.8301209e-07
9.1921975e-08
1.4655424e-07
5.9980878e-08
1.4942419e-07
6.2725164e-08
1.6042785e-07
2.4751824e-07
2.3503536e-07
2.4285968e-07
2.4323727e-07
2.4592104e-07
2.598429e-07
2.5771123e-07
2.8902957e-07
2.786329e-07
3.3514519e-07
3.0086641e-07
3.8910829e-07
2.7279606e-07
3.7831259e-07
3.6407535e-06
2.2685022e-06
3.7489013e-06
2.4293758e-06
3.8715929e-06
2.6143099e-06
4.0770908e-06
2.8818876e-06
4.4413008e-06
3.3452072e-06
5.0923144e-06
4.2192355e-06
5.7745479e-06
5.7794892e-06
2.401384e-05
1.6906029e-05
2.5189516e-05
1.8142938e-05
2.8052239e-05
1.9971012e-05
3.2577946e-05
2.2360306e-05
3.6748244e-05
2.6557767e-05
4.2598131e-05
3.4743117e-05
4.8968431e-05
4.9750902e-05
5.1766804e-05
4.5259331e-05
6.582718e-05
5.3241363e-05
9.186939e-05
6.0279069e-05
0.00010097824
7.01009e-05
0.00011458544
8.6339656e-05
0.00013299822
0.00011520842
0.00015296132
0.00015760998
0.00010378149
9.7341988e-05
0.00016303291
0.0001151543
0.00019529377
0.0001338534
0.00021357153
0.0001569949
0.00023839878
0.00019045696
0.00026781928
0.00024147378
0.00029735935
0.00029989537
0.000178795
0.00016318357
0.00029283715
0.00019697933
0.00031809925
0.0002306834
0.00034169506
0.0002669011
0.00037100405
0.00031158369
0.00039572601
0.00036963836
0.00038351619
0.00036488604
0.00023762565
0.00022346839
0.00032000051
0.00027030307
0.00031805993
0.0002462302
0.00031152186
0.0002580039
0.00036936698
0.00033679684
0.00042238018
0.00040399173
0.00042033688
0.00038048361
0.0002366967
0.0002066022
0.00023798351
0.00017207157
0.0002292646
0.00018045351
0.00027328648
0.00023534681
0.00038562611
0.00033571063
0.00044621989
0.00039865907
0.00043239189
0.00037161429
0.00015770474
0.00012037282
0.00015247851
0.00012557117
0.00018923735
0.0001653476
0.00028899799
0.00023751697
0.00039935892
0.00031877189
0.00041751182
0.00035906268
0.00041790772
0.00035907234
9.1472275e-05
0.00012502895
0.0001174191
0.00012355188
0.00019211896
0.00016770315
0.00028829718
0.00022693322
0.00034519297
0.00027507038
0.00037355534
0.00031430427
0.00042192649
0.00037060362
9.0844665e-05
0.00016344482
0.00011497019
0.00016133125
0.00017507709
0.00016273723
0.0002370612
0.00020741133
0.00029349228
0.00026956548
0.00035369237
0.00031900406
0.00045448819
0.00042171155
0.00017931678
0.0001373551
0.00015939931
0.00014581158
0.00018328613
0.00016779836
0.00023288761
0.00019524697
0.00029461218
0.00023991813
0.00036878383
0.00036096177
0.00050999123
0.00051687511
0.00034002207
0.00016923656
0.00027635898
0.00016333356
0.00024967266
0.00017140066
0.00026054791
0.0001913408
0.0003254301
0.00022161884
0.00040263446
0.00052360423
0.00059916868
0.00065364268
0.00042792198
0.00022865913
0.00038091377
0.0002176608
0.00035511284
0.00020862652
0.00036852227
0.00022055216
0.00047548204
0.00033074105
0.00051892454
0.00062155511
0.00066842061
0.0008107023
0.00053166206
0.00025551413
0.00050649051
0.00022497389
0.00044571569
0.00019474417
0.00039630447
0.00021127589
0.00046464426
0.00033400628
0.00061810519
0.00058702694
0.00076456708
0.00087699891
0.00061953022
0.00041664155
0.00057800276
0.00040320799
0.00053980443
0.00037547465
0.00046722151
0.00032836443
0.00043735266
0.0002967402
0.00054878213
0.00043266322
0.00083105239
0.00076991507
0.00074673148
0.00059407518
0.00072906053
0.00059103881
0.00070458311
0.00058776427
0.00066785784
0.00058251886
0.00063494656
0.00057612834
0.000621656
0.00053353901
0.00068147787
0.00060404562
0.0011010379
0.00096968917
0.0010577246
0.00094009658
0.0010023174
0.00090532303
0.00093292059
0.00087356122
0.00085900376
0.00085379147
0.00081350266
0.00082281843
0.00076283647
0.00070440476
0.001591209
0.0015399788
0.0015256602
0.0014924709
0.0014295418
0.0014240777
0.0012966331
0.0013329952
0.0011449866
0.0012318164
0.0010427756
0.0011101621
0.00093947435
0.00088074129
0.0019143881
0.0018709699
0.0018501413
0.0018286106
0.0017533622
0.0017634273
0.0016113728
0.0016628767
0.0014288356
0.0015156361
0.0012615477
0.0012973875
0.0010800563
0.00098688222
0.0019384957
0.0017664469
0.0018813674
0.0017331232
0.0017966687
0.0016824323
0.0016746388
0.0016025887
0.0015169958
0.0014721547
0.0013526493
0.001263878
0.0011215406
0.00095358086
0.0016691823
0.0013900232
0.0016163738
0.0013598541
0.0015446044
0.0013158783
0.0014542627
0.0012503131
0.001354449
0.0011545934
0.001240373
0.0010148651
0.0010364539
0.00084071095
0.0012521071
0.00095272356
0.00123461
0.00093044851
0.001080721
0.00090226761
0.0008777067
0.00086843225
0.00084423162
0.00083140219
0.00084866951
0.00080863671
0.0010325024
0.00087229086
0.00019380033
0.0004949062
0.00022719237
0.0005170243
0.00039117549
0.00062225189
0.00062058068
0.00064645612
0.00072785077
0.00069772923
0.00085877305
0.00079117212
0.00098215036
0.00082360383
0.00022440034
0.00033871366
0.00037369252
0.00035358815
0.00053931517
0.00043767213
0.00056381855
0.00054904285
0.00065434852
0.00065026292
0.00071966045
0.000683551
0.00074562557
0.00064818706
0.00045271769
0.00029719777
0.00041080337
0.000301218
0.00041444747
0.00037090382
0.000487885
0.00043785084
0.00053976469
0.00048088116
0.00058588608
0.00050766349
0.00070643933
0.00057371598
0.00030209313
0.00030617891
0.00030001938
0.00027433473
0.00039500771
0.00032809885
0.0004584542
0.00036607315
0.00050522876
0.00039241405
0.00058390127
0.00043284696
0.00080052755
0.00054845324
0.00025738429
0.00025537905
0.00031231563
0.00026800222
0.0004226006
0.00031288431
0.00047878973
0.00033591461
0.00054220494
0.00035632412
0.00066104553
0.00040556184
0.00097460422
0.00055593908
0.00027571472
0.0002356886
0.00035413269
0.00025640706
0.00047826319
0.00029411274
0.00053345066
0.00031358114
0.0006082297
0.00033631755
0.00074611249
0.00039367042
0.00089142789
0.0005764621
0.00029293391
0.00020556915
0.00039707922
0.0002280207
0.00054986088
0.00026093038
0.00058936279
0.00028348375
0.00064520902
0.00031442059
0.00068721168
0.00038399261
0.00067759349
0.00050686011
0.00029617626
0.00017380906
0.00041487775
0.00019524905
0.00052291561
0.00022624811
0.00050844386
0.00025139883
0.0004973331
0.00028669094
0.00048388475
0.0003571505
0.00045494015
0.0003534278
0.00028898174
0.00015118542
0.00033640882
0.00017001511
0.00032227209
0.00019828003
0.00030931564
0.00022067323
0.00029905903
0.00023900817
0.00028526323
0.00022721256
0.00025698905
0.00020618945
0.00016618651
0.00012499951
0.00015677453
0.00013130422
0.00014757738
0.00012630708
0.00014085988
0.00012146514
0.00013576052
0.00011526512
0.00012768686
0.00010490399
0.00010998445
8.8531947e-05
4.4922039e-05
3.8072821e-05
4.1682905e-05
3.6522158e-05
3.9057748e-05
3.5341729e-05
3.7566392e-05
3.3818453e-05
3.6201993e-05
3.1101573e-05
3.3013628e-05
2.664281e-05
2.5852454e-05
1.9733401e-05
2.7963171e-06
2.5100663e-06
2.5546778e-06
2.5269209e-06
2.5738347e-06
2.6836577e-06
2.6008148e-06
2.7457743e-06
2.6397492e-06
2.39319e-06
2.2232696e-06
1.784508e-06
1.3893303e-06
1.0060038e-06
7.526996e-08
1.8165513e-07
8.9690587e-08
2.0096281e-07
1.1527318e-07
2.2423049e-07
1.3326901e-07
2.2254528e-07
1.3815598e-07
1.8637477e-07
9.2525872e-08
1.0282906e-07
3.1486972e-08
2.7722151e-08
1.7907088e-07
2.5122346e-07
9.4443424e-08
1.2031196e-07
4.735395e-08
6.4693348e-08
3.4065534e-08
4.8782788e-08
5.4188303e-06
6.3561017e-06
3.6591598e-06
4.5029483e-06
1.7926091e-06
2.3398439e-06
8.1802044e-07
1.163596e-06
4.8896053e-05
5.4046497e-05
3.960498e-05
4.4521252e-05
2.5571425e-05
2.9559498e-05
1.4145288e-05
1.7033048e-05
0.00015480985
0.00016788221
0.00013405971
0.00014560506
9.2691377e-05
0.00010515524
5.1534264e-05
6.1376994e-05
0.00030765441
0.00032043487
0.00028513083
0.0003004501
0.00022386873
0.00024704532
0.00012282864
0.00015649092
0.00042106422
0.00038666898
0.00046229096
0.00047135189
0.00041016104
0.00043983529
0.00024190168
0.00031662166
0.00046797546
0.00041245391
0.00058594905
0.0005735266
0.00062504083
0.00065555192
0.00040829462
0.00052916385
0.00051401475
0.00043647102
0.00069374109
0.00065291961
0.00074935686
0.00087176735
0.0006089447
0.00077119797
0.00054257193
0.00046894162
0.00079335972
0.00072573261
0.00092286728
0.0010100979
0.0008279148
0.0010252644
0.00057842712
0.0005325555
0.00084064369
0.0007925267
0.0010867095
0.001092063
0.001042213
0.0012724861
0.00063229701
0.00061343355
0.00087000544
0.00088036254
0.0011396293
0.0011407716
0.0012398425
0.001505574
0.00069857586
0.00072618812
0.00091225006
0.00099550575
0.0011080911
0.0011979789
0.0014021283
0.001646941
0.0007776481
0.00086616905
0.00096592974
0.0011232049
0.001057434
0.0012774218
0.0014339165
0.0016371278
0.00085958968
0.00098773137
0.0010115649