/*--------------------------------*- C++ -*----------------------------------*\
| =========                 |                                                 |
| \\      /  F ield         | OpenFOAM: The Open Source CFD Toolbox           |
|  \\    /   O peration     | Version:  2206                                  |
|   \\  /    A nd           | Website:  www.openfoam.com                      |
|    \\/     M anipulation  |                                                 |
\*---------------------------------------------------------------------------*/
FoamFile
{
    version     2.0;
    format      ascii;
    arch        "LSB;label=32;scalar=64";
    class       volScalarField;
    location    "500";
    object      omega;
}
// * * * * * * * * * * * * * * * * * * * * * * * * * * * * * * * * * * * * * //

dimensions      [0 0 -1 0 0 0 0];

internalField   nonuniform List<scalar> 
50904
(
5110791.8
5009618.5
5068311.6
4938806.9
883113.72
866302.25
869969.61
855524.53
339067.54
334320.78
291801.93
295715.88
168258.52
164973
147767.19
145489.17
99731.535
98186.612
96347.243
95209.168
67997.42
67970.392
71516.34
72262.502
50912.946
51906.742
56698.323
58677.242
40765.226
42402.687
47270.376
49924.525
34398.474
36403.574
41612.83
44552.528
30271.874
32437.48
38470.699
41487.169
27359.882
29399.376
36356.808
38930.559
24851.419
26562.516
33583.815
35414.224
22464.67
23808.138
30517.658
31717.334
19892.28
20908.4
27211.238
27996.268
17151.18
17838.427
23682.617
24274.386
14728.375
15111.275
20350.261
20755.785
13395.594
13352.037
17297.587
17341.107
14332.203
13942.451
15233.058
15090.729
16544.131
16239.588
14626.01
14360.927
18606.373
18419.013
15144.455
14688.085
20870.194
20613.403
17198.293
16022.156
23722.512
23294.577
22409.839
21039.396
27414.122
26883.977
28773.883
27727.41
31321.476
30717.533
35329.933
34362.507
35071.224
34420.078
42459.855
41396.162
38495.076
37659.015
48425.457
47391.095
41768.401
40615.197
54232.748
52870.584
45218.225
43815.89
61235.449
60345.885
49268.042
47285.427
71871.332
71931.505
54464.023
51755.522
87819.685
89555.023
62651.887
58905.795
111262.01
114688.1
79141.916
73828.292
144889.99
147776.78
122291.59
114392.29
196546.9
194048.91
260355.79
249975.88
303897.36
292599.58
817867.8
811633.41
817346.02
806316.86
5267226.8
5265351.6
5303182.7
5282760.8
5016371.5
4854527
4975144.8
4801624.3
4962261.7
4786673.4
4957051.4
4780762.5
4955068.6
4778659.7
4955000.9
4778496.7
4955992.5
4779642.2
870019.53
866289.57
809675.78
797367.67
813258.01
783482.14
812158.57
800159.96
827250.42
834962.6
844979.88
892484.83
862806.75
985007.27
283474.25
314313.57
244485.5
301917.14
254474.99
334533.46
267893.91
376902.31
281233.66
422612.93
292845.63
461300
303204.65
494611.75
142019.01
157743.92
132775.21
182200.28
146432.87
221547.45
160012.54
257459.1
170420.58
286286.49
178269.5
306910.17
184587.08
321698.14
99865.044
107034.97
103413.13
138410.15
116089.54
173239.22
128200.16
202503.63
137289.78
223476.44
143953.89
238041.88
149067.47
248073.1
80283.114
85745.5
92600.07
117836.45
104713.63
148816.39
115425.96
174199.52
123520.76
192813.13
129450.67
206264.95
133954.88
210149.63
67072.509
72621.017
86453.976
104978.15
99480.486
132715.97
109196.96
155464.04
116202.79
172821.65
121223.94
182311.29
124889.24
182950.23
57774.469
62891.028
82033.621
96422.845
97894.896
121862.78
108228.5
142682.3
114883.26
158221.1
119259.84
167396.96
122032.82
168784.1
52771.819
57329.457
79383.69
91045.727
99058.768
117747.43
111770.58
139153.65
119036.52
155246.91
122520.61
165791.21
123237.29
170258.07
51025.007
54637.949
81001.293
89228.572
104540.56
118592.03
122378.98
143937.69
134028.62
164258.16
140156.68
179596.33
139568.01
189861.56
49902.775
52096.667
81666.769
85470.455
107580.01
113488.04
129146.67
137802.3
145684.03
157488.3
158062.82
173203.62
166771.41
185806.27
45759.451
46805.084
71775.346
73335.354
90979.36
93777.833
106266.99
110724.66
118001.67
124249.39
127390.56
135328.47
135445.5
145051.1
41237.273
41520.755
62458.588
62515.906
76261.575
76839.2
86057.395
87468.567
92730.189
95070.92
97426.593
100651.18
100985.44
105059.19
36927.723
36782.01
55781.513
54724.002
68191.226
66834.283
76930.698
75522.515
82745.395
81450.774
86635.782
85497.271
89327.624
88352.292
32616.657
32416.043
48996.596
48060.698
60435.064
59254.713
68707.483
67413.385
74310.753
73056.956
78097.271
76929.331
80739.455
79634.793
28660.189
28301.859
43182.301
42308.166
53985.583
53326.693
62010.991
61671.155
67534.092
67631.7
71253.678
71776.388
73783.447
74632.368
25095.715
24303.041
38491.173
36934.788
49099.637
47827.072
56911.728
56234.088
62236.031
62163.909
65814.415
66237.284
68213.75
69016.491
22546.9
21173.458
35905.527
33072.338
46654.334
43662.112
54225.143
50911.68
59119.093
55670.144
62200.389
58828.568
64139.366
60982.106
21600.982
19908.11
35328.319
32729.851
47056.554
43873.391
55121.863
51083.968
60086.675
55462.825
63079.698
58155.779
64871.204
59913.516
21583.68
19600.095
36794.974
34147.675
49698.336
46484.244
58271.745
54398.684
63490.565
59186.37
66603.247
62101.465
68452.053
63951.747
21608.908
19670.29
38395.801
35381.169
52485.348
48560.359
61644.425
57112.297
67110.924
62359.633
70355.949
65607.29
72283.233
67632.202
21954.209
20617.113
39038.466
34967.676
54227.365
48042.292
63999.362
56919.945
69731.053
62491.022
73088.19
65915.454
75021.574
67988.83
24013.136
23438.198
39834.524
33769.698
55257.925
45774.009
65038.297
54785.114
70771.258
60387.628
74069.801
63710.944
75917.623
65628.652
31612.835
31029.692
45436.116
37687.07
61968.821
51344.968
72890.224
61603.095
79389.494
67238.08
83253.534
70181.585
85560.64
71716.888
47025.32
44601.704
57133.669
49580.327
71597.149
62415.197
81665.094
73404.044
87647.072
79585.817
91071.707
82918.249
93149.933
84774.505
55670.226
53132.234
64354.266
59146.041
70901.8
63771.065
75430.485
66840.627
78076.597
68378.439
79302.223
68756.087
79066.226
68186.8
58610.867
56239.076
64138.159
58785.273
66574.166
58418.352
68597.235
58832.587
70200.601
59392.221
70892.308
59458.288
70469.74
59221.573
61536.894
59729.552
62826.896
57683.853
63879.246
55967.048
65168.242
55638.155
66368.188
55892.251
66892.847
55866.815
66419.049
55661.195
69408.808
69153.461
65221.548
62094.369
64557.34
58137.612
65367.764
56878.76
66363.604
56532.514
66858.597
55995.92
66317.052
55243.41
85654.051
88533.698
74159.953
74954.749
69084.727
65981.117
68281.15
62947.526
68844.907
61959.023
69493.618
61265.462
69561.819
60136.497
116589.76
124239.84
95846.409
102708.3
81962.131
83138.337
75885.347
74166.387
74179.765
71254.296
74036.912
70187.108
74291.443
69495.544
174651.37
186995.74
145871.74
163689.52
117277
125681.66
99187.498
101167.36
90593.328
90200.65
87083.118
85647.133
85803.936
83662.56
279125.75
288426.82
264617.07
297163.93
214735.72
240843.97
173295.87
186962.51
145984.52
152663.88
131391.8
133890.64
124087.99
124056.78
477717.46
453278.23
553246.02
573592.28
493278.65
546689.64
427095.76
474572.04
360762.9
402960.3
312089.61
344593.99
281089.99
304022.07
959037.55
899797.13
1208254.1
1114505.9
1340648.5
1282808.1
1345214
1337687.1
1264845.4
1315591.4
1177602.7
1253359.1
1101733.3
1176840.8
5295913.6
5253499.6
5261034.1
5191042
5254583.5
5168114.4
5264257.4
5164171.5
5278291.9
5169224.6
5288827
5175356
5294990
5179814.5
4956712
4780184.8
4956655.9
4779602.6
4956558
4779005.9
4956225.5
4778244.4
4955329.5
4777745
4953234
4779121.2
877571.51
1069102.8
891249.3
1151920.6
900956.03
1196555.4
908395.08
1220048
913734.79
1224138.5
909669.1
1165485.5
312892.3
521697.3
321964.79
543796.22
328893.21
554347.56
335203.99
558782.55
341840.78
555796.49
350339.6
533758.47
190209.57
332600.65
196053.84
339946.26
200834.53
341467.07
205619.51
340860.17
211430.57
337381.37
220744.22
325952.84
153387.77
252374.72
157437.29
250705.18
160593.46
247564.22
163689.75
243936.6
167522.02
238953.97
174442.83
229342.8
137524.69
206812.6
140593.23
198991.51
142727.36
192836.25
144600.64
188116.98
146826.57
183638.99
150878.51
177008.34
127754.03
174877.82
130028.47
163258.52
131390.29
156068.84
132220.11
151631.82
132900.93
148683.59
133843.26
145708.61
123298.12
160840.89
123149.83
147419.5
121960.47
137469.79
120118.75
130996.87
118522.19
128536.23
117221.08
127718.57
121919.31
167009.78
119007.05
154858.58
115258.81
140263.16
110353.78
126906.88
105759.28
119418.34
102285.38
118403.65
132208.82
194396.73
122016.36
189681.21
113200.69
174313.65
104476.45
147867
97418.9
123145.13
92868.807
114413.13
170368.33
195877.42
162311.12
201517.07
143578.74
198079.71
118463.92
178731.96
98943.996
141647.48
90144.067
115055.82
142797.86
154602.52
148659.51
163525.17
147754.01
169335.98
132362.6
163759.47
107564.17
139343.01
92029.524
113248.6
104039.19
109062.84
106821.24
112979.52
109061.16
116726.19
109416.18
120799.11
103520.48
118415.37
94710.8
106853.33
91405.37
90642.526
93082.948
92626.024
94289.863
94163.394
95261.365
95776.712
95503.183
97576.208
95211.583
98089.957
82816.38
81762.47
84534.009
83559.772
85873.283
84917.677
87196.182
86297.41
88680.397
88164.185
91311.66
91560.196
75723.741
76868.949
77434.512
78932.653
78792.5
80536.238
79645.21
81655.617
79718.863
82061.077
79948.838
82598.363
70026.032
71207.598
71707.429
73068.44
73214.844
74766.31
74415.056
76893.239
74144.577
78449.055
71766.695
76721.249
65572.659
62618.604
66702.056
63961.026
67621.864
64947.975
68641.891
66006.78
69413.178
67637.531
68483.707
69320.61
66136.975
61305.68
67119.613
62511.041
67813.116
63375.758
68457.214
64195.827
69137.196
65334.798
69405.563
67204.131
69737.183
65334.69
70716.638
66532.758
71381.433
67404.821
71951.285
68202.283
72505.745
69298.719
72784.14
71098.16
73613.229
69125.07
74600.643
70359.121
75234.291
71184.102
75704.964
71877.544
75967.768
72713.032
75667.729
73684.008
76332.964
69473.521
77252.188
70609.969
77719.978
71245.405
77850.631
71568.533
77485.284
71482.405
76425.757
70612.15
77122.29
66917.561
77922.843
67816.537
78248.938
68179.77
78127.972
68102.004
77167.1
67419.358
75059.847
65903.2
87249.035
72690.056
88891.9
73369.786
89655.643
73614.466
87741.08
73309.237
82255.819
71825.835
76097.498
68777.685
93541.946
85666.535
90170.771
84110.156
85344.436
80204.163
80358.704
75146.705
75955.75
70055.04
73247.48
66262.047
77406.992
66896.9
74887.127
65050.056
72835.755
63393.429
71119.063
61614.281
69976.208
59584.796
70009.57
57326.769
69236.124
58563.146
67697.779
57247.622
66695.932
56026.925
66046.721
54597.632
65871.81
52689.886
66301.64
50189.169
65304.959
55188.148
64107.049
53989.576
63432.465
52804.233
63023.087
51425.266
62913.245
49643.751
62968.13
47261.132
64837.875
54734.086
63256.434
54117.114
62450.744
53248.84
62001.407
52191.614
61834.942
50968.401
61445.815
49160.542
68298.541
58543.308
65918.05
57517.69
64397.146
56999.682
63521.884
56537.881
63023.466
55955.431
61856.442
54772.544
74201.125
68341.35
72724.415
66553.878
70706.076
65238.267
68962.593
64337.855
67588.085
63558.116
65284.88
62294.14
85243.786
82403.825
84478.774
80876.691
83144.749
79316.666
81063.409
77770.464
78688.857
76278.149
75300.537
74384.883
120379.14
118519.94
117660.73
114499.62
115290.48
111851.12
112825.92
109484.35
109645.65
107206.02
105590.67
104878.12
262016.98
277384.04
246421.69
252702.85
236664.74
236141.97
229997.91
225458.86
222440.53
218381.99
216138.99
213180.46
1038602.4
1108539.3
965828.76
1025286.7
895005.71
947292.67
821781.61
863262.81
775771.68
783678.14
770386.31
755357.62
5298468.3
5182359.8
5308931.3
5191657.2
5316784.9
5198152.7
5323446.4
5203161
5329835
5206873.4
5329805.4
5203865.7
4946125.9
4779307.9
4938304.8
4774634.4
4934431.7
4771067.5
4932207.9
4769037.6
4930531.9
4767421
4928725
4765612.6
885096.7
1012112.2
877463.58
958914.03
894193.12
969588.9
912613.78
987099.58
927205.2
1001430
938183.36
1014447.3
371127.51
483306.95
414553.31
475943.94
440464.67
484873.74
444559.96
490404.9
434919.51
490706.87
418845.8
486567.46
246422.55
299594.8
278136.82
294018.52
287035
294868.39
273462.05
290889.55
246204.12
282497.28
217126.79
270218.85
192861.33
209213.46
211511.12
204990.92
211521.51
200175.71
190792.77
192781.2
157564.63
182348.83
128085.47
169599.79
160120.17
164032.67
168268.98
157092.08
163030.45
150377.57
143191.16
142836.93
113304.78
133991.96
89513.093
123451.55
134543.49
138167.6
131638.18
130238.28
122890.78
123105.2
108209.53
116889.64
88841.812
110681.78
71957.795
103049.74
112309.11
124047.28
100922.37
117641.41
91742.051
112098.01
82879.368
107617.62
72954.708
103185
63396.759
97413.237
95764.661
118883.5
84333.432
116198.98
77316.139
113191.16
72402.65
110592.45
67940.488
107838.16
63161.683
103387.36
88403.916
117829.37
82212.392
120116.56
79160.925
119818.78
77509.789
119033.4
76246.214
117818.63
73763.051
114782.73
88786.693
119523.46
88726.674
129749.65
88539.015
133798.03
88568.009
134971.97
88747.745
134205.7
87924.16
131753.67
92763.658
122491.22
97243.683
146433.98
98406.429
159406.65
98283.556
166370.78
97569.522
168930.33
95991.457
165768.62
97454.554
117862.34
105675.66
147084.41
108875.27
162963.98
109925.05
172865.48
109700.08
179924.36
107844.92
183871.91
102189.24
110806.06
113746.23
138807.75
118940.26
153861.35
121595.8
163339.56
123012.77
171046.54
122992.23
177817.92
100411.76
104802.82
112581.9
131242.54
118388.26
146512.55
121642.03
156488.82
123810.35
164856.54
124689.6
172532.81
84426.284
90085.275
90318.828
103155.79
92690.698
109641.22
93795.459
113240.79
94383.315
115759.44
94398.768
117786.02
70820.959
77121.551
71146.776
81904.759
70964.355
84151.855
70546.658
85167.115
69882.732
85613.61
68775.429
85613.477
67246.369
69879.536
67591.341
71782.915
68007.66
72630.805
68013.199
72897.976
67602.582
72792.049
66595.18
72226.232
70138.309
69123.513
72242.871
71034.677
73266.311
71699.342
73580.63
71805.17
73401.36
71545.309
72632.628
70800.436
73958.261
72653.386
76646.096
73711.608
77772.797
73998.486
78135.891
73946.304
78000.797
73603.87
77281.448
72805.281
76503.459
74057.93
79564.98
74698.56
80730.673
74861.922
81086.959
74751.888
80906.071
74384.008
80068.51
73579.39
76814.604
70710.086
80308.874
72722.67
81550
73334.147
81840.51
73456.047
81461.704
73227.782
80215.88
72502.436
74543.519
66079.903
76306.281
68413.562
76559.103
69094.352
75910.441
69170.601
74247.548
68804
71387.784
67791.012
73441.124
67013.105
72947.397
66903.024
72698.092
66421.569
72566.738
65762.606
72567.043
64825.724
72505.263
63187.947
73813.715
64743.501
78721.002
64299.615
82088.285
63103.188
85329.758
60209.581
85064.574
55815.273
70643.591
51449.695
71926.221
54702.932
76368.912
50790.793
78658.617
47863.3
80153.543
45145.869
70911.15
42788.134
48797.847
40759.369
67248.979
47106.256
68102.675
43285.004
67073.954
41269.054
60744.555
39535.107
47855.467
38013.07
38731.749
36716.997
62395.979
44462.762
58562.435
41714.04
54105.212
40328.211
47948.424
38857.5
40724.983
37415.01
36019.931
36241.793
59033.128
46775.728
52260.255
44701.627
48105.91
43448.48
44409.46
41801.172
40139.965
40072.161
36161.957
38679.805
57802.708
52741.979
49936.169
51012.968
46538.922
49780.626
44125.076
47890.12
41396.678
45692.907
38580.837
43842.985
60186.804
60301.798
52695.835
58993.311
50125.107
58150.68
48548.118
56653.693
47035.804
54599.53
45498.309
52564.568
70029.313
72397.369
64723.244
71826.096
63735.742
71856.93
63136.234
71298.582
62569.413
70083.477
62026.609
68529.876
100922.87
103755.18
99672.017
106147.33
101918.98
107763.45
103275.59
108320.8
104145.45
108489.64
104877.92
108169.09
212777.97
215603.07
221667.37
230045.19
235581.78
240807.96
244487.88
245775.58
250285.7
248611.14
254730.76
250074.93
769114.68
785402.26
819624.47
854984.49
894223.94
935293.38
962561.41
992560.41
1027346.2
1037859.1
1079248.1
1047305.4
5318862.4
5191104.7
5309760.5
5180249.8
5304810.5
5176674.7
5303356.1
5176428
5302969.1
5176638.5
5303055.5
5176340.6
4934981.5
4772851.4
4933784.2
4772125.3
4933950.7
4772590.2
4936714.3
4775515.1
4944234.9
4783165.3
4961587.8
4800732.4
5006676.1
4849419.9
950114.01
1028582
961681.43
1041204.5
971513.16
1050398
971488.47
1049838.7
953495.42
1027219.8
910369.44
969059.48
873476.89
875635.12
400563.61
475643.67
383306.13
456677.99
363111.9
434849.33
339506.56
405454.86
311158.96
363155.49
280823.81
305745.2
253702.25
248073.35
192582.71
251115.98
175064.4
226915.9
160192.04
205792.56
146406.16
184020.64
132481.3
159136.31
119652.71
131582.26
109644.78
108848.96
109195
152548.4
98703.277
132696.09
91117.234
117930.76
84381.679
104915.81
77848.074
91671.661
72246.367
78222.354
67681.416
68537.512
75875.498
109546.14
69456
93480.785
65043.91
82308.714
61143.146
73480.705
57303.535
65250.099
53856.55
57580.348
50710.213
52096.886
61911.34
91639.753
57077.179
77662.048
53742.247
67513.58
50708.778
59787.924
47616.434
53353.079
44858.626
47996.39
42199.871
44033.182
56394.3
87572.456
52315.837
73522.282
49022.233
62375.135
45787.851
54299.898
42807.809
48359.525
40394.368
43835.695
37674.323
39917.502
57841.324
93224.424
53065.819
76927.764
48280.253
63807.103
44271.241
54778.91
41397.006
48558.702
38761.515
43416.403
34853.192
37342.897
66146.07
104712.97
57521.82
86415.366
50564.324
71350.353
46067.625
61198.822
42622.848
53550.654
38524.999
45736.268
32015.143
34582.608
78498.342
124482.83
66035.534
107371.24
56527.45
88414.877
50224.477
73174.217
44685.013
61094.724
37810.122
47517.773
28433.277
30642.531
90618.837
155544.28
80251.635
133583.99
66983.07
108350.12
55358.407
85847.475
45168.499
65740.892
34253.039
42576.448
24212.217
25377.311
102781.46
179012.99
93875.388
158122.74
78213.331
122920.65
58497.111
86146.513
40729.806
53830.066
27951.209
30941.85
20255.278
20221.545
118831.29
178581.87
109095.97
164126.33
89659.565
128628.71
62079.752
80925.501
37827.804
43265.253
24704.045
25433.757
18325.075
17595.607
121593.28
173879.64
112526.3
159069.36
92673.386
117487.59
62883.462
69391.97
38114.798
41482.523
25877.359
27184.75
18965.636
18392.708
92808.909
117799.26
88680.644
114508.41
79435.1
105285.6
64200.753
88716.153
47270.162
64485.456
32986.456
38773.915
23024.288
23905.937
67158.292
84966.191
64728.156
83435.526
60283.997
79693.893
52566.24
71691.378
43626.472
60072.81
37468.358
49332.298
28728.371
32328.634
64904.012
71171.551
62303.8
69367.432
57932.719
66213.677
50600.631
60806.526
40570.35
52499.832
33868.767
45675.542
31562.232
37830.408
71205.719
69558.921
68780.397
67718.249
64377.266
64698.6
56789.861
59653.582
45195.886
51770.654
34235.279
44364.267
31596.442
38625.797
75904.166
71537.45
73603.685
69770.488
69482.344
67012.231
62430.297
62430.104
51313.296
55083.804
38447.32
46059.94
32368.842
38700.04
78525.437
72343.308
76052.972
70629.869
71771.81
67973.752
64731.382
63688.573
54145.436
56786.694
41801.957
47363.868
33670.783
37869.373
78141.372
71339.55
74970.699
69585.941
69697.128
66644.226
61669.942
61875.572
51235.131
54678.94
40612.397
45378.35
31022.233
33147.691
68276.306
66188.269
64737.507
63955.171
59661.138
60343.389
52488.503
55022.562
43433.512
47736.839
34378.636
38281.868
25517.539
27120.543
68451.671
60583.535
59342.323
57369.15
47916.276
52648.551
39753.853
46353.135
33601.322
38762.359
27902.517
30850.218
22421.036
23264.641
50462.07
47931.225
40952.366
44853.32
35516.944
41042.265
31827.093
36827.754
28630.438
32122.016
25499.18
27029.992
22145.741
22231.852
39242.542
38873.118
34918.452
37266.179
31963.327
35151.253
29812.645
32671.522
27951.778
29746.789
25686.617
26323.782
22448.7
22626.665
34974.675
35570.291
32826.886
34719.17
31005.479
33411.22
29628.896
31827.615
28071.313
29794.183
25791.617
27059.284
22304.07
23517.806
33542.417
35430.923
31939.298
34766.15
30613.15
33828.123
29487.395
32678.985
28036.809
31020.324
25876.227
28449.983
22756.829
24871.056
33718.025
37695.038
32435.755
37024.394
31418.607
36200.863
30528.359
35193.853
29320.769
33636.633
27524.454
31068.585
24989.064
27452.455
36693.551
42562.599
35730.249
41746.042
35015.804
40836.908
34339.385
39769.197
33338.005
38170.446
31837.641
35624.955
29969.025
31997.891
44388.134
51014.122
43791.02
50015.763
43279.159
48948.961
42737.605
47765.76
41796.438
46103.367
40489.793
43536.43
39409.827
40168.755
61633.546
67144.659
61433.247
66150.911
61111.368
64969.33
60741.436
63633.84
59719.105
61835.944
58478.102
59238.954
58253.91
56774.303
105447.34
107309.3
105952.41
106405.14
106313.58
104780.24
105536.99
102733.09
103233.18
100343.86
101216.97
98201.381
101797.28
96880.134
258483.04
248877.33
260538.65
246707.76
258962.23
240876.9
251328.65
234826.38
241470.8
230822.76
236037.55
228272.76
238247.55
229355.04
1083620.9
1022270.2
1053465.5
979154.2
979913.34
904849.59
916539.46
843665.97
857007.07
832269.3
848052.97
830304.48
866244.83
848587.4
5319125.3
5191898.2
5332771.8
5206132.8
5352969.4
5227037.3
5386392.2
5261140.2
5447840.1
5323557.4
5568345
5447673
5808896.8
5695849.3
5051096
4907622.7
5126821.8
5003657.6
5252015.8
5163971.6
5437993.2
5378230.2
850930.42
841678.92
851862.24
851428.85
866681.85
870730.18
870822.86
907528.46
246684.61
237654.87
252296.86
251280.6
287970.16
284319.8
315441.43
336472.7
106239.93
104177.45
107741.97
106616.98
119882.58
116848.54
152905.46
152687.3
64297.332
64661.427
62520.231
62522.982
65166.304
63631.878
84566.641
80871.674
46906.625
48027.724
43952.719
44354.929
43558.549
42536.968
54159.436
51460.231
37625.556
39193.381
33956.037
34536.318
32925.826
32019.95
39383.013
37479.801
31965.987
33754.745
27597.739
28317.658
26298.461
25740.352
31057.499
29473.001
28033.046
29673.231
23384.877
24083.757
21642.84
21479.331
25512.793
23962.024
24696.377
25933.931
20379.321
20818.785
18478.927
18343.986
21528.693
19789.816
21565.696
22268.513
17948.843
17982.128
16292.528
15828.71
18664.784
16521.513
18690.797
18786.457
15868.821
15482.067
14717.216
13728.272
16919.794
13925.231
16347.119
15944.072
14223.799
13508.413
13636.583
12123.23
16659.135
12150.114
14998.484
14309.74
13241.165
12327.399
13027.404
11122.948
16916.59
11127.148
15082.56
14319.745
13148.644
12146.047
13031.762
10879.01
16812.747
10813.779
17045.332
16596.781
13952.872
13013.814
13313.862
11148.07
16199.445
10855.17
20434.152
21092.212
15311.068
14662.625
13411.404
11364.43
15456.41
10589.81
24451.678
26746.691
17126.896
17311.256
13455.794
11927.7
14429.634
10317.85
26488.169
29685.917
18740.684
19569.393
13631.568
12808.138
13457.22
10402.629
26773.284
29733.615
18982.274
20051.898
13763.764
13512.121
12810.386
10917.393
25439.284
27531.275
17964.765
19182.536
13531.527
13732.597
12547.554
11759.906
21135.999
22567.138
16153.01
16986.955
13154.862
13437.636
12523.519
12199.505
18681.707
19577.545
15089.708
15614.805
12909.844
13142.609
12740.253
12272.465
17986.449
18338.976
14816.327
15161.985
13102.606
13561.246
13225.927
12703.237
18027.27
18202.767
14926.971
15593.968
13500.807
14321.461
13815.427
13621.917
17909.784
18783.357
15196.329
16499.06
14181.188
15491.759
14793.37
15369.62
18132.352
19814.553
16109.596
18068.983
15494.964
17317.225
16615.889
18188.484
19459.952
21588.206
18194.739
20756.061
17811.594
20202.529
19647.964
22585.434
22726.468
24808.399
22129.825
25377.38
21643.121
24756.519
24583.057
29105.415
28773.308
30295.849
28633.877
32531.911
27792.961
31576.7
32398.029
37980.404
39210.471
39620.339
39285.923
43664.568
37904.725
42331.468
44502.761
50296.664
58959.13
57494.272
58822.942
63497.661
56548.431
62006.693
64525.32
70325.348
103105.95
98719.538
101753.15
107118.95
97598.725
106045.91
105755.03
112418.5
240484.26
232974.72
233787.86
243134.32
222941.49
242419.45
225575.76
241926.63
880241.87
862732.07
853921.8
858648.41
818647.18
847494.58
793594.96
833471.46
5900614.2
5805102.2
5765926.9
5696197.8
5612786.2
5572339.5
5458392.9
5446228.1
5039650.4
5107355.3
5016182.2
5060896.2
4938260.1
4950387.7
813906.14
818464.71
791009.08
808612.57
904588.53
874406.15
253730.35
254852.1
253904.55
271663.52
247275.25
237073.21
115018.36
115878.33
124432.49
138512.48
92259.983
91201.904
69241.445
69384.584
73883.337
81639.49
50201.666
50917.411
49380.436
48888.106
50121.726
54381.953
34512.324
35460.797
38621.905
37701.623
37349.299
39525.403
26869.005
27734.7
31889.479
30718.13
29482.76
30526.867
22443.027
23170.978
27255.374
25987.721
24166.875
24635.646
19596.503
20193.837
23855.927
22620.934
20344.099
20541.729
17640.266
18132.236
21131.452
20028.546
17436.34
17539.567
16233.74
16667.219
18678.611
17796.404
15106.594
15239.436
15255.664
15700.413
16313.566
15705.377
13216.98
13404.767
14674.073
15205.701
14023.433
13737.76
11733.628
11992.739
14263.702
14906.008
12312.59
12376.84
10855.047
11154.997
13596.098
14240.041
11997.84
12263.503
10967.75
11234.201
12758.124
13265.748
12678.284
13009.842
11373.326
11724.402
12089.453
12444.717
13756.83
14080.064
11862.491
12186.842
11788.835
12220.414
14952.76
15247.88
12444.071
12801.662
11757.562
12268.207
16209.282
16526.312
13086.022
13443.609
11859.266
12432.999
17517.028
17890.676
13680.545
14003.335
11884.929
12541.936
18648.988
19116.605
14365.407
14496.909
11745.25
12381.661
19347.715
19897.755
14446.637
14170.892
11492.978
12178.806
18903.632
19416.72
13936.654
13319.255
11641.519
12225.344
17888.893
18647.357
13194.123
12893.665
12146.348
12636.684
17968.458
19171.655
13216.381
13546.61
13204.999
13907.046
19753.889
21573.116
14326.304
15583.709
15178.315
16477.426
23092.848
25855.902
17127.376
19631.754
18676.068
21214.599
28269.583
32173.511
22894.67
27248.341
25149.958
28997.103
35601.523
40354.499
32622.294
38788.491
35893.265
39677.94
46548.475
51713.713
45110.083
52360.616
49305.65
52406.074
66742.682
72161.534
62738.853
70638.255
67188.125
69958.126
114936.04
120761.97
100493.86
107788.53
101894.82
104867.82
265811.5
271249.64
221265.47
228419.87
207743.5
211428.02
848444.9
859694.13
804354.49
823824.43
726233.4
732678.25
5215789.4
5213559.5
5154437.9
5163856
5064678.1
5085683.1
5036861
5066606.1
5089418.5
5110778.7
5126403.1
5138758.2
5034278.4
5060128.5
5076252.5
5090366.7
5099552
5107388.2
812511.38
850762.24
848916.44
861574.11
873551.33
882226.38
766277.57
815448
825149.99
853738.59
868664.02
874547.82
223982.65
265881.59
274910.92
296916.04
322195.7
335527.62
213719.2
240175.31
247792.23
285189.24
311561.02
309069.3
99221.813
113928.36
119780.43
133410.4
153409.12
165564.23
97167.796
107408.18
109763.38
131103.71
153825.06
155971.75
58548.149
64268.496
67541.12
75182.84
87804.672
97161.891
58172.392
63022.675
64774.085
76865.698
93666.613
98828.155
40199.234
42900.69
45096.888
49950.624
58345.434
65351.515
40284.919
43066.892
44931.729
52527.556
64500.153
70645.966
30235.663
31728.227
33399.837
36801.326
42687.559
48125.14
30520.93
32355.823
34302.613
39486.96
47932.927
53987.161
24238.421
25212.567
26603.185
29104.513
33413.268
37844.453
24666.587
26047.885
28006.071
31793.331
37947.792
43617.552
20419.287
21217.159
22437.964
24322.654
27589.117
31410.183
20979.322
22219.297
24178.935
27075.906
31898.227
37391.33
17933.535
18753.227
19839.372
21290.568
23869.374
27333.909
18606.902
19967.898
21903.458
24217.445
28291.749
33911.244
16338.2
17268.638
18213.339
19333.829
21428.536
24579.893
17082.419
18766.456
20627.204
22527.084
26120.133
31787.367
15416.644
16395.624
17127.954
17962.556
19674.285
22408.984
16172.511
18191.286
19830.148
21394.158
24610.008
29659.391
15142.32
15880.35
16239.644
16791.241
18144.216
20416.106
15925.402
17808.558
18945.073
20183.366
22983.241
27301.633
15449.553
15628.209
15410.455
15626.457
16567.236
18276.725
16332.725
17442.162
17745.988
18647.159
20916.804
24499.452
16282.106
15889.241
15018.284
14726.011
15113.766
16090.997
17396.404
17650.39
17022.691
17420.779
18977.036
21566.785
17371.532
16543.248
15178.668
14316.12
14006.134
14235.261
18868.868
18483.453
17065.048
16724.644
17417.236
18957.018
18455.503
17276.707
15698.025
14643.259
13970.757
13536.226
20301.85
19487.473
17392.583
16329.076
16205.399
16790.273
19403.578
17992.301
16667.166
15998.259
15371.944
14792.306
21472.069
20389.583
17918.636
16316.479
15475.951
15211.615
20116.335
18805.1
18114.425
17783.855
17292.699
16830.86
22329.092
21174.537
19001.41
17252.02
15700.984
14913.107
20829.021
19916.123
19748.201
19484.514
19058.865
18713.179
22953.397
22231.909
21151.295
19605.764
17768.509
15969.261
21975.179
21341.16
21513.557
21409.909
21209.137
20995.733
23492.125
23648.378
23764.503
22927.892
21566.935
19162.65
23420.169
23178.211
23707.598
23842.115
23899.783
23885.227
24106.07
25373.848
26504.562
26567.365
26191.796
24458.898
24575.964
25176.868
26181.354
26659.871
27089.312
27449.839
24614.989
27152.807
29189.198
30236.623
31113.389
30377.706
25804.864
27118.061
28684.836
29358.141
30132.015
31111.66
25539.579
29032.884
31639.816
33479.272
35535.542
36331.911
26040.22
29037.642
31145.516
31937.284
32961.534
34481.492
27435.384
30967.804
34145.14
36696.773
39399.476
41852.545
26091.296
30805.261
33557.102
34630.368
35711.987
37643.123
29715.943
32980.939
36686.086
39884.372
43273.731
46449.845
27125.593
32890.451
36443.92
37929.317
38952.453
40873.509
31426.51
34970.093
39285.671
43465.404
47805.412
51398.276
29161.237
35957.666
40462.239
42169.802
42953.728
44602.008
32796.598
37117.677
42122.046
47638.292
53535.888
58098.662
32427.947
40592.135
46504.48
48145.334
48012.003
49097.655
34598.6
40166.137
45833.414
52764.706
60949.351
67559.435
36932.16
47585.132
55918.857
57480.951
55339.728
55066.135
37859.974
45298.733
51397.714
59479.987
70661.131
80842.658
43849.295
58071.573
70842.594
73333.234
68114.448
64812.619
44364.209
55076.489
60928.45
69302.213
83932.784
99717.092
56178.174
74188.64
93968.109
102126.4
93889.199
84803.232
58597.882
75966.045
79776.874
86521.028
103720.1
127321.78
86937.688
104052.4
130322.07
152781.64
149056.32
134592.94
95714.118
125555.02
124325.32
126466.21
140749.23
172986.12
204073.96
210506.45
226807.97
262214.49
277814.87
274703.95
220244.87
256042.95
252578.68
245988.73
252938.14
281065.59
752222.14
755773.48
764676.95
786264.45
807928.06
818152.27
764923.31
784748.03
788904.82
794893.69
799632.13
812079.53
5047594.8
5074535.5
5115020.2
5158338.7
5202318.9
5246383.7
5063430.3
5096980.2
5142004.9
5190248.6
5239586.6
5288360.1