/*--------------------------------*- C++ -*----------------------------------*\
| =========                 |                                                 |
| \\      /  F ield         | OpenFOAM: The Open Source CFD Toolbox           |
|  \\    /   O peration     | Version:  2206                                  |
|   \\  /    A nd           | Website:  www.openfoam.com                      |
|    \\/     M anipulation  |                                                 |
\*---------------------------------------------------------------------------*/
FoamFile
{
    version     2.0;
    format      ascii;
    arch        "LSB;label=32;scalar=64";
    class       volScalarField;
    location    "500";
    object      p;
}
// * * * * * * * * * * * * * * * * * * * * * * * * * * * * * * * * * * * * * //

dimensions      [1 -1 -2 0 0 0 0];

internalField   nonuniform List<scalar> 
50904
(
99875.266
99858.171
99930.217
99895.224
99877.244
99860.352
99930.362
99895.599
99879.099
99862.442
99930.515
99896.073
99881.483
99865.161
99930.815
99896.834
99884.466
99868.593
99931.419
99897.866
99888.125
99872.839
99932.396
99899.572
99892.461
99877.878
99933.828
99902.311
99897.283
99883.553
99935.683
99906.617
99902.599
99890.009
99937.469
99911.693
99908.054
99896.579
99939.28
99916.463
99913.522
99903.059
99941.352
99921.266
99918.878
99909.42
99943.768
99926.182
99923.513
99914.983
99945.889
99930.892
99927.159
99919.381
99946.854
99934.632
99929.545
99922.207
99947.214
99938.397
99931.605
99924.284
99944.78
99939.855
99937.873
99930.935
99941.401
99939.89
99943.734
99937.021
99934.197
99934.854
99943.971
99937.809
99926.258
99928.409
99934.129
99929.543
99916.453
99919.288
99921.375
99915.985
99909.132
99911.961
99917.472
99908.742
99904.06
99907.74
99926.909
99915.483
99901.981
99906.826
99940.762
99928.15
99903.934
99908.854
99956.027
99943.182
99914.942
99916.473
99966.602
99954.605
99930.872
99929.041
99972.584
99961.525
99947.397
99942.613
99975.267
99965.086
99960.975
99953.231
99976.059
99966.519
99969.073
99959.499
99975.921
99966.73
99973.658
99962.845
99975.375
99966.381
99976.057
99964.451
99974.744
99965.861
99977.251
99965.164
99974.217
99965.415
99977.855
99965.501
99973.87
99965.136
99978.28
99965.794
99973.639
99964.969
99978.7
99966.128
99973.407
99964.799
99979.228
99966.56
99856.847
99825.994
99849.539
99823.412
99838.194
99803.886
99833.868
99788.167
99830.658
99773.261
99828.569
99761.19
99826.893
99751.249
99857.992
99827.16
99850.015
99824.314
99838.755
99805.792
99834.409
99791.268
99831.251
99777.586
99829.166
99766.305
99827.457
99756.745
99858.831
99828.066
99849.925
99824.761
99838.499
99806.875
99833.91
99793.935
99830.635
99781.853
99828.668
99771.844
99827.124
99762.622
99859.649
99829.148
99849.282
99825.325
99837.596
99808.127
99832.835
99797.107
99829.42
99786.762
99827.593
99777.638
99826.347
99768.591
99860.557
99830.246
99848.658
99825.487
99836.21
99808.843
99831.221
99799.01
99827.593
99789.532
99825.838
99779.993
99825.012
99769.68
99861.695
99831.45
99848.428
99823.335
99834.898
99807.702
99829.748
99798.038
99826.6
99787.348
99825.588
99776.316
99825.26
99764.515
99863.133
99833.133
99847.705
99818.05
99833.076
99802.606
99827.791
99790.657
99825.403
99778.035
99824.412
99764.656
99823.717
99751.418
99865.056
99835.573
99845.872
99811.453
99830.603
99791.4
99824.754
99776.386
99821.191
99761.694
99818.337
99747.43
99815.857
99734.154
99868.475
99839.748
99841.853
99806.284
99825.51
99779.277
99818.551
99761.214
99813.726
99745.199
99809.109
99730.407
99804.506
99716.461
99873.659
99845.977
99837.353
99803.817
99816.741
99771.191
99807.406
99750.599
99800.993
99733.719
99795.807
99718.172
99790.547
99702.927
99879.803
99853.759
99837.242
99805.462
99810.5
99767.758
99796.386
99744.515
99787.891
99727.657
99782.454
99713.943
99778.054
99701.239
99887.105
99863.417
99844.241
99815.296
99816.315
99777.628
99800.325
99754.257
99790.272
99737.744
99783.356
99724.497
99777.985
99712.237
99894.866
99874.154
99857.782
99832.365
99833.79
99800.879
99820.067
99781.142
99811.256
99766.514
99805.077
99754.081
99800.002
99741.734
99901.969
99884.878
99872.994
99851.898
99854.428
99827.139
99844.28
99811.7
99837.907
99800.084
99833.46
99789.801
99829.812
99779.014
99908.7
99895.791
99889.08
99871.286
99875.71
99851.117
99868.689
99838.11
99864.413
99827.861
99861.242
99818.242
99858.443
99807.531
99909.84
99902.149
99893.867
99881.831
99882.039
99860.793
99875.372
99844.432
99871.125
99830.756
99868.117
99817.805
99865.219
99803.199
99908.164
99906.902
99891.786
99892.909
99879.333
99877.756
99871.953
99865.855
99867.249
99854.9
99864.006
99843.632
99860.636
99831.894
99905.126
99908.343
99889.101
99898.065
99875.984
99887.515
99867.838
99879.332
99862.7
99872.817
99859.038
99866.914
99855.484
99859.362
99900.165
99907.077
99887.632
99901.779
99875.554
99895.328
99867.275
99889.234
99861.543
99883.453
99856.777
99877.706
99851.982
99870.279
99892.091
99902.47
99885.676
99902.95
99876.307
99900.141
99869.01
99895.415
99863.331
99889.583
99857.933
99881.676
99851.808
99870.455
99879.721
99892.937
99879.626
99897.649
99873.371
99896.282
99867.668
99892.378
99862.363
99885.601
99856.655
99875.384
99849.544
99863.445
99863.698
99880.273
99869.341
99887.56
99865.666
99885.628
99862.38
99882.591
99858.453
99876.684
99852.896
99867.335
99844.865
99855.696
99850.537
99873.031
99856.218
99879.637
99851.277
99875.764
99847.946
99873.53
99843.959
99869.387
99838.164
99861.999
99829.824
99850.893
99845.786
99868.867
99840.582
99868.892
99827.614
99862.566
99816.711
99859.413
99805.754
99853.732
99794.403
99845.537
99780.92
99834.934
99846.854
99863.4
99822.638
99849.309
99795.498
99831.23
99770.238
99815.189
99747.224
99800.758
99734.147
99789.61
99733.657
99785.008
99853.829
99864.842
99813.801
99836.328
99776.923
99805.205
99743.087
99779.028
99720.678
99762.084
99713.252
99754.907
99710.363
99751.023
99863.713
99872.056
99814.658
99835.107
99780.309
99800.847
99754.892
99780.123
99738.982
99768.825
99729.97
99760.697
99722.828
99752.439
99873.596
99879.418
99818.439
99838.829
99791.904
99812.187
99780.283
99800.2
99771.307
99790.816
99758.768
99775.845
99744.282
99757.688
99881.064
99885.056
99821.059
99841.164
99798.756
99820.621
99799.073
99818.506
99800.759
99813.888
99790.001
99797.653
99771.201
99772.892
99886.047
99888.914
99822.039
99841.918
99798.501
99821.552
99801.405
99822.994
99810.146
99825.659
99803.968
99812.201
99782.19
99786.311
99889.096
99891.229
99822.07
99841.873
99795.65
99819.408
99795.517
99816.896
99800.92
99819.145
99798.343
99808.693
99779.958
99781.476
99890.979
99892.54
99821.5
99841.375
99792.78
99817.465
99790.179
99810.007
99792.257
99808.108
99789.02
99798.72
99776.543
99776.606
99892.199
99893.209
99820.703
99840.51
99790.584
99816.077
99786.38
99805.883
99787.901
99801.274
99786.98
99792.508
99778.984
99774.945
99892.898
99893.52
99819.784
99839.566
99788.392
99814.594
99784.302
99803.358
99787.282
99797.668
99788.503
99790.023
99784.73
99777.43
99893.481
99893.868
99819.404
99839.106
99787.017
99813.354
99782.534
99800.778
99785.527
99793.864
99787.919
99786.921
99788.243
99778.792
99894.293
99894.452
99819.596
99839.065
99786.517
99812.717
99781.69
99799.722
99784.765
99792.472
99787.413
99785.606
99789.235
99778.919
99825.613
99742.147
99824.687
99734.186
99823.919
99727.923
99823.28
99721.856
99822.456
99713.123
99821.477
99697.561
99826.177
99747.996
99825.259
99739.506
99824.444
99732.019
99823.759
99724.87
99822.681
99714.597
99821.039
99696.344
99825.971
99754.399
99825.307
99745.532
99824.834
99736.175
99824.217
99726.029
99822.547
99711.58
99820.145
99689.772
99825.304
99760.016
99824.961
99750.788
99824.91
99740.494
99824.238
99727.594
99822.025
99707.455
99819.02
99680.606
99824.33
99759.931
99824.361
99749.189
99824.812
99737.58
99824.339
99723.143
99821.621
99699.801
99817.508
99670.11
99825.094
99753.49
99825.199
99742.169
99825.459
99729.818
99824.762
99714.558
99821.003
99690.062
99814.395
99660.442
99822.71
99740.173
99821.425
99728.974
99820.343
99716.326
99819.342
99701.608
99815.928
99679.643
99807.873
99653.413
99813.39
99723.228
99810.652
99712.937
99808.116
99701.931
99806.04
99689.392
99803.43
99671.256
99797.12
99648.994
99800.657
99704.85
99797.346
99694.33
99793.771
99684.151
99790.694
99674.629
99788.143
99662.605
99783.312
99645.634
99786.43
99689.767
99783.261
99678.485
99779.748
99668.157
99776.498
99659.683
99773.705
99652.631
99770.956
99644.797
99772.518
99689.06
99767.205
99677.999
99763.38
99669.059
99761.28
99662.011
99762.088
99657.641
99765.83
99657.313
99774.093
99701.018
99769.983
99689.938
99764.879
99679.967
99760.264
99671.681
99758.813
99665.485
99763.185
99664.647
99795.54
99729.666
99791.436
99716.476
99787.572
99703.195
99783.554
99693.006
99780.453
99685.439
99778.182
99682.87
99826.492
99768.252
99823.186
99756.244
99819.657
99742.983
99816.244
99731.56
99812.736
99723.657
99809.209
99718.992
99855.937
99796.616
99853.342
99784.159
99849.932
99770.12
99846.267
99757.93
99842.713
99749.127
99838.859
99742.38
99862.473
99788.462
99859.972
99773.943
99856.979
99759.88
99853.651
99747.532
99849.658
99736.706
99843.583
99725.104
99857.824
99820.145
99856.447
99807.844
99854.604
99796.598
99852.509
99788.34
99850.09
99780.589
99845.664
99769.134
99852.105
99851.472
99850.455
99843.361
99850.457
99835.344
99850.596
99830.682
99849.995
99827.43
99849.293
99820.829
99847.47
99861.96
99843.139
99853.549
99839.981
99844.878
99839.215
99838.795
99838.838
99835.045
99839.124
99830.276
99845.655
99860.361
99838.986
99850.728
99832.93
99839.896
99830.067
99832.278
99828.223
99828.059
99827.264
99823.019
99841.914
99853.524
99833.267
99842.377
99824.921
99828.826
99820.179
99819.383
99816.919
99813.685
99814.268
99808.089
99835.827
99844.591
99824.821
99831.545
99812.667
99816.458
99803.446
99805.209
99796.463
99797.524
99791.185
99790.901
99820.565
99839.159
99809.332
99824.938
99796.913
99807.221
99787.22
99791.678
99777.757
99780.733
99767.35
99773.239
99771.115
99823.527
99771.125
99811.537
99770.596
99801.895
99764.332
99795.165
99753.063
99788.616
99743.736
99782.447
99734.8
99785.961
99731.484
99785.606
99724.594
99781.296
99716.002
99774.867
99707.187
99767.608
99709.735
99764.524
99706.884
99747.239
99703.38
99744.035
99698.844
99741.23
99695.101
99739.256
99697.581
99738.934
99718.008
99746.579
99716.942
99745.588
99710.898
99737.673
99703.537
99729.112
99698.376
99722.625
99700.842
99720.115
99722.024
99730.222
99733.06
99744.36
99722.748
99730.921
99711.103
99716.578
99703.151
99705.902
99705.834
99703.088
99734.172
99719.611
99755.758
99749.834
99741.499
99728.098
99725.869
99706.859
99715.984
99692.49
99721.889
99690.771
99762.312
99716.504
99765.274
99763.772
99748.609
99738.519
99731.209
99707.361
99722.059
99685.776
99734.949
99686.716
99787.036
99721.882
99761.192
99757.194
99741.334
99729.609
99724.297
99700.42
99720.227
99682.487
99744.793
99690.245
99807.712
99732.842
99762.31
99754.953
99742.425
99727.408
99724.744
99699.56
99724.834
99685.406
99756.858
99698.661
99825.021
99745.65
99768.306
99758.071
99753.543
99735.366
99737.02
99710.659
99736.576
99698.476
99770.835
99712.323
99838.751
99758.956
99779.137
99766.2
99770.993
99749.426
99761.387
99730.643
99760.455
99720.59
99788.401
99731.254
99853.199
99774.232
99787.762
99772.449
99785.74
99763.755
99783.899
99753.264
99787.641
99746.014
99809.488
99751.129
99868.244
99787.814
99791.334
99774.096
99794.06
99770.436
99796.374
99765.64
99799.942
99759.316
99817.552
99759.863
99874.545
99793.558
99829.07
99707.435
99837.445
99715.167
99841.768
99718.421
99844.637
99720.335
99846.829
99722.194
99849.068
99724.842
99828.14
99705.508
99836.052
99713.439
99840.016
99716.741
99843.059
99718.556
99845.753
99720.461
99848.235
99723.149
99827.178
99700.668
99834.549
99709.939
99838.31
99713.847
99841.848
99716.186
99844.912
99718.543
99847.414
99721.503
99825.731
99694.637
99832.408
99705.797
99835.917
99710.104
99839.06
99712.76
99841.83
99715.436
99844.227
99718.823
99823.218
99687.964
99829.332
99701.109
99832.638
99705.531
99835.264
99708.592
99837.03
99711.621
99839.19
99715.189
99817.684
99679.633
99822.863
99694.238
99825.964
99698.897
99827.879
99702.357
99829.455
99705.453
99832.291
99708.877
99808.358
99672.072
99812.193
99686.836
99815.367
99690.506
99818.296
99694.073
99820.96
99697.759
99823.566
99702.054
99795.951
99665.166
99798.524
99680.32
99802.392
99682.766
99806.131
99685.38
99809.551
99688.973
99812.969
99692.932
99781.133
99656.265
99781.329
99671.016
99785.592
99673.147
99791.5
99675.129
99796.986
99678.011
99801.879
99680.341
99771.816
99650.1
99772.332
99661.963
99775.583
99663.343
99781.686
99663.892
99786.715
99664.725
99789.524
99666.155
99767.319
99656.827
99766.074
99658.318
99766.818
99657.763
99768.486
99657.029
99768.926
99656.149
99768.772
99655.603
99762.079
99664.814
99757.183
99658.84
99753.124
99656.477
99748.016
99655.321
99742.734
99654.505
99738.621
99654.949
99774.413
99686.843
99768.076
99684.278
99760.342
99684.831
99749.207
99687.64
99737.11
99691.224
99727.908
99694.72
99805.656
99722.434
99800.406
99725.029
99793.397
99727.55
99782.639
99731.508
99770.554
99736.241
99760.626
99741.246
99836.028
99743.012
99833.894
99746.879
99830.228
99748.308
99823.657
99749.055
99816.09
99749.979
99810.255
99751.819
99837.057
99717.505
99832.611
99713.961
99828.844
99710.715
99823.549
99705.608
99817.671
99699.801
99812.903
99695.108
99838.606
99759.413
99832.512
99754.398
99827.343
99749.65
99820.686
99742.294
99813.18
99733.765
99806.72
99726.668
99847.884
99813.571
99845.748
99810.518
99841.412
99807.21
99834.178
99801.088
99825.69
99793.323
99818.471
99787.229
99840.993
99826.285
99842.251
99826.577
99838.957
99825.156
99831.635
99819.765
99822.89
99812.175
99815.869
99806.659
99830.298
99819.452
99833.046
99826.022
99830.407
99829.119
99823.538
99824.11
99815.317
99815.102
99809.016
99809.367
99815.854
99805.217
99818.305
99816.126
99815.557
99818.616
99808.529
99811.067
99800.323
99801.206
99794.245
99795.827
99790.15
99788.793
99789.374
99797.811
99784.691
99796.412
99774.816
99785.595
99763.585
99773.035
99755.443
99764.666
99760.357
99770.197
99757.378
99773.028
99758.263
99769.385
99757.426
99757.411
99750.207
99744.041
99739.529
99735.653
99746.571
99781.67
99748.335
99785.519
99741.234
99779.97
99728.034
99765.443
99717.853
99749.287
99714.006
99738.797
99741.043
99777.787
99761.29
99789.343
99754.49
99784.568
99739.181
99774.915
99729.007
99765.335
99725.867
99757.23
99762.054
99774.691
99786.459
99789.06
99778.537
99784.23
99759.845
99774.426
99747.028
99763.726
99739.957
99754.491
99773.791
99762.807
99796.194
99774.768
99786.087
99769.602
99772.075
99760.225
99760.334
99750.973
99749.365
99743.629
99795.894
99758.646
99812.225
99771.132
99798.94
99766.384
99782.303
99757.785
99768.699
99749.481
99757.973
99742.745
99828.528
99764.368
99840.536
99779.343
99824.299
99774.303
99804.447
99765.164
99788.789
99756.205
99776.955
99748.849
99857.494
99777.576
99870.329
99795.283
99855.012
99788.434
99833.191
99777.103
99814.093
99766.366
99798.781
99757.514
99882.291
99793.474
99895.401
99811.686
99881.253
99802.469
99858.795
99788.233
99837.284
99775.311
99818.46
99764.912
99901.801
99808.48
99911.143
99825.244
99896.328
99814.455
99872.868
99796.944
99849.561
99781.55
99828.75
99769.864
99916.869
99821.884
99917.713
99831.504
99900.133
99821.784
99874.368
99804.34
99849.968
99786.311
99829.679
99772.47
99931.478
99835.056
99918.6
99832.633
99895.757
99820.709
99871.484
99805.186
99849.05
99790.294
99830.655
99778.272
99943.918
99844.309
99915.354
99825.43
99880.085
99806.307
99855.751
99792.668
99837.989
99782.315
99825.061
99775.454
99949.047
99848.598
99912.815
99822.014
99873.527
99801.125
99852.897
99792.154
99840.152
99786.005
99829.15
99779.813
99852.01
99728.406
99855.31
99732.332
99859.058
99737.077
99863.984
99743.675
99871.514
99754.524
99887.427
99778.236
99937.857
99850.748
99851.293
99726.789
99854.738
99730.828
99858.536
99735.487
99863.299
99741.768
99870.612
99752.453
99886.384
99776.398
99937.054
99849.511
99850.536
99725.619
99854.091
99730.022
99857.719
99734.747
99862.388
99740.941
99869.563
99752.059
99885.151
99776.114
99935.838
99848.99
99847.214
99723.568
99850.568
99728.322
99854.65
99733.329
99859.928
99740.343
99867.06
99751.354
99882.699
99774.941
99933.279
99847.371
99842.662
99720.375
99846.509
99725.964
99851.19
99731.994
99856.058
99738.677
99863.377
99749.149
99879.531
99773.649
99929.904
99845.754
99836.37
99714.205
99840.269
99720.257
99844.971
99725.644
99850.713
99732.897
99859.229
99746.449
99876.2
99772.282
99926.917
99844.798
99827.347
99707.794
99832.623
99713.235
99838.703
99719.179
99845.381
99728.251
99854.475
99742.538
99872.642
99770.103
99924.137
99844.232
99817.607
99697.47
99823.286
99702.952
99829.266
99709.86
99836.532
99719.454
99847.307
99735.153
99867.961
99765.992
99921.246
99843.811
99807.287
99683.777
99812.705
99689.282
99818.425
99696.004
99826.168
99706.307
99838.113
99723.849
99861.517
99759.821
99917.902
99843.327
99793.514
99668.258
99798.176
99671.742
99803.819
99677.932
99811.916
99688.686
99825.177
99708.484
99852.908
99751.49
99913.458
99841.36
99770.226
99656.346
99773.194
99658.145
99778.646
99662.051
99788
99671.234
99805.291
99692.696
99840.928
99744.488
99907.692
99839.333
99735.93
99656.48
99736.022
99658.78
99740.795
99663.505
99752.829
99674.047
99778.249
99698.651
99825.498
99752.34
99902.326
99845.404
99721.476
99698.413
99717.402
99702.835
99720.21
99709.291
99733.851
99720.585
99764.264
99741.699
99820.674
99782.757
99901.457
99857.207
99753.973
99746.08
99750.15
99750.96
99752.326
99757.627
99764.407
99768.232
99791.096
99784.562
99839.638
99813.025
99907.62
99869.375
99806.521
99755.072
99804.585
99759.936
99806.489
99765.868
99814.111
99773.743
99831.18
99789.488
99862.957
99819.686
99915.568
99873.422
99809.69
99692.391
99807.511
99691.06
99807.354
99692.406
99810.119
99698.754
99820.541
99718.712
99847.172
99768.007
99903.068
99853.092
99801.567
99721.364
99796.569
99717.131
99792.192
99714.017
99788.865
99712.164
99789.386
99714.534
99805.962
99739.087
99869.013
99818.766
99812.165
99782.367
99806.078
99777.915
99800.975
99774.094
99796.042
99770.175
99791.484
99765.962
99794.252
99764.437
99837.018
99803.745
99810.638
99802.749
99806.164
99799.37
99803.11
99797.391
99800.996
99795.7
99799.628
99793.967
99798.904
99789.494
99824.395
99806.836
99804.561
99806.287
99801.058
99803.818
99799.555
99803.612
99799.985
99804.958
99801.714
99805.538
99803.351
99801.077
99823.361
99812.742
99790.105
99792.861
99786.964
99790.052
99786.074
99789.429
99788.259
99790.931
99794.368
99792.859
99803.553
99793.32
99828.012
99813.554
99753.592
99760.171
99752.115
99755.597
99752.067
99753.557
99758.161
99755.135
99771.224
99759.207
99790.654
99767.915
99826.592
99808.639
99734.263
99729.787
99733.273
99724.429
99733.967
99723.174
99739.587
99726.121
99754.11
99732.971
99781.895
99754.699
99820.64
99810.805
99707.106
99730.201
99705.057
99722.402
99711.606
99719.876
99724.164
99722.471
99743.405
99732.725
99774.986
99762.17
99813.524
99816.91
99720.241
99748.521
99712.715
99739.464
99711.453
99736.249
99717.888
99737.352
99736.994
99746.793
99771.75
99776.084
99810.217
99823.535
99729.911
99745.027
99714.137
99735.832
99708.595
99733.181
99715.475
99736.304
99736.161
99750.289
99772.441
99783.205
99811.177
99828.606
99734.612
99735.401
99719.52
99727.823
99716.416
99727.437
99722.942
99734.118
99741.985
99752.52
99776.511
99788.524
99814.561
99833.35
99743.094
99735.032
99729.694
99728.2
99727.092
99728.865
99732.516
99736.77
99749.784
99756.689
99781.72
99794.023
99818.856
99837.774
99762.347
99740.778
99748.324
99733.707
99743.346
99734.251
99744.891
99741.907
99757.689
99761.937
99786.905
99799.188
99823.433
99841.19
99783.064
99748.22
99767.179
99740.168
99759.016
99740.317
99756.005
99747.492
99764.739
99767.04
99792.16
99803.567
99828.115
99844.097
99800.195
99754.756
99782.09
99746.137
99771.869
99746.057
99765.526
99752.582
99771.391
99771.459
99797.6
99807.48
99832.433
99846.83
99809.529
99759.42
99791.252
99750.754
99781.363
99750.992
99773.363
99757.131
99777.394
99775.541
99802.416
99811.213
99835.973
99849.151
99811.79
99762.48
99796.246
99755.113
99787.74
99755.988
99778.991
99761.68
99781.861
99779.505
99806.034
99814.446
99838.653
99850.966
99815.156
99769.325
99801.198
99761.925
99792.163
99761.335
99782.445
99765.44
99784.586
99782.393
99808.399
99816.63
99840.383
99852.09
99814.1
99769.735
99803.368
99764.792
99794.21
99764.023
99783.844
99767.239
99785.745
99783.844
99809.616
99817.827
99841.383
99852.699
99818.454
99774.259
99806.734
99768.57
99795.79
99766.265
99784.712
99768.735
99786.616
99785.091
99810.709
99818.89
99842.311
99853.212
99978.662
99912.342
100008.39
99955.362
100018.43
99976.201
100025.22
99983.054
99978.374
99911.883
100008.53
99955.471
100018.72
99976.428
100025.55
99983.479
99977.472
99911.633
100008.26
99955.473
100018.88
99976.509
100025.92
99983.905
99975.313
99910.234
100007.28
99954.961
100018.81
99976.343
100026.49
99984.424
99972.291
99908.345
100005.55
99953.742
100018.4
99975.719
100027.33
99984.906
99969.553
99907.473
100003.55
99952.485
100017.63
99974.753
100028.37
99985.042
99967.075
99906.999
100001.74
99951.771
100016.7
99973.578
100029.47
99984.848
99964.381
99906.055
99999.95
99951.186
100015.85
99972.569
100030.34
99984.441
99961.536
99904.794
99998.137
99950.43
100014.93
99971.943
100030.61
99983.819
99958.46
99903
99996.332
99949.408
100014
99971.233
100029.98
99983.014
99955.475
99902.126
99994.566
99948.324
100013.45
99970.473
100028.48
99982.169
99952.865
99903.776
99993.076
99947.74
100013.35
99969.674
100025.94
99981.547
99952.666
99908.264
99992.647
99948.188
100013.36
99968.606
100022.28
99981.066
99955.251
99913.519
99992.342
99948.715
100012.29
99966.661
100018.23
99980.331
99957.203
99915.497
99990.722
99947.754
100007.42
99962.449
100012.13
99977.524
99947.61
99905.519
99981.615
99940.472
99994.764
99952.702
100001.47
99970.318
99926.481
99889.539
99963.388
99926.692
99974.023
99936.585
99984.96
99957.206
99897.379
99869.609
99939.064
99910.771
99945.799
99915.084
99962.015
99938.875
99870.93
99852.819
99910.164
99892.299
99911.481
99891.206
99934.454
99917.859
99856.236
99846.629
99886.631
99879.667
99876.974
99871.025
99907.472
99900.08
99850.489
99845.66
99868.976
99872.674
99845.018
99855.1
99885.421
99887.757
99843.02
99845.971
99852.399
99865.203
99819.17
99842.457
99874.739
99881.487
99831.997
99844.337
99838.433
99859.177
99805.208
99834.408
99875.905
99880.731
99822.204
99842.903
99832.126
99857.457
99804.256
99833.604
99885.153
99884.062
99818.674
99844.039
99832.385
99859.6
99810.692
99836.279
99898.348
99889.405
99820.238
99846.3
99837.475
99862.619
99820.588
99839.555
99911.934
99894.737
99824.72
99848.91
99844.633
99865.157
99831.616
99843.128
99923.003
99898.847
99830.189
99851.276
99851.256
99866.911
99842.037
99846.577
99931.678
99901.847
99835.399
99853.131
99856.694
99868.059
99850.819
99849.316
99939.109
99904.085
99840.066
99854.868
99861.513
99868.871
99858.214
99851.546
99945.213
99905.446
99843.977
99856.462
99865.595
99869.393
99864.575
99853.356
99950.002
99906.079
99847.114
99857.721
99868.825
99869.627
99869.913
99854.773
99953.911
99906.212
99849.444
99858.6
99871.169
99869.668
99873.959
99855.784
99956.834
99906.029
99850.998
99859.082
99872.7
99869.633
99876.633
99856.453
99958.635
99905.819
99851.996
99859.331
99873.655
99869.595
99878.246
99856.91
99959.496
99905.699
99852.953
99859.526
99874.56
99869.577
99879.678
99857.359
99960.071
99905.607
100032.34
100056.67
99783.829
99769.728
100202.23
100306.67
100032.2
100056.29
99784.551
99770.9
100203.44
100307.18
100032.16
100056
99785.22
99771.999
100204.56
100307.58
100032.3
100055.76
99786.059
99773.377
100205.92
100308
100032.68
100055.56
99787.188
99775.17
100207.44
100308.44
100033.22
100055.27
99788.696
99777.447
100209.3
100309.03
100033.78
100054.77
99790.714
99780.335
100211.45
100309.66
100034.18
100054.01
99793.507
99784.114
100213.84
100310.06
100034.32
100052.88
99797.197
99788.845
100216.71
100310.39
100034.08
100051.31
99802.06
99794.806
100219.77
100310.17
100032.97
100048.87
99808.758
99802.649
100222.13
100308.49
100031.41
100045.88
99817.654
99812.515
100223.37
100304.73
100029.46
100042.57
99829.321
99825.234
100222.72
100296.79
100027.02
100038.58
99843.481
99841.261
100216.92
100281.13
100024.13
100034.14
99857.7
99857.901
100204.22
100255.98
100019.94
100028.65
99868.175
99869.766
100188.57
100227.24
100011.74
100019.11
99871.656
99872.668
100174.27
100202.78
100000.06
100005.67
99865.487
99866.818
100162.81
100182.8
99984.719
99988.496
99849.216
99850.772
100153.63
100167.19
99971.785
99974.664
99823.705
99824.071
100146.62
100155.72
99958.747
99961.472
99785.71
99786.179
100143.65
100149.81
99941.885
99946.024
99749.979
99752.383
100145.93
100148.72
99930.664
99937.296
99734.338
99740.5
100156.34
100156.17
99931.649
99939.159
99733.74
99742.663
100170.01
100167.62
99939.387
99945.585
99737.644
99748.079
100182.17
100178.49
99945.436
99950.031
99742.481
99752.974
100192.65
100187.86
99948.689
99951.851
99747.043
99757.798
100201.43
100196.04
99949.526
99951.415
99752.395
99763.681
100209.69
100203.07
99948.784
99949.899
99758.174
99769.46
100217.08
100208.92
99947.341
99948.108
99762.531
99773.796
100222.4
100213.62
99945.764
99946.264
99765.397
99776.782
100226.05
100217.31
99944.267
99944.507
99768.136
99779.402
100229.49
100220.81
99942.88
99942.988
99770.921
99781.879
100233.3
100224.46
99941.646
99941.695
99772.908
99783.604
100236.3
100227.32
99940.585
99940.622
99773.949
99784.518
100237.89
100228.88
99939.485
99939.541
99774.751
99785.273
100238.88
100229.88
100088.51
99959.498
99961.234
99922.507
99910.892
99896.189
100148.91
100007.1
100031.73
99993.886
99989.317
99964.167
100088.89
99960.944
99962.395
99923.804
99912.233
99897.808
100148.2
100006.97
100031.16
99993.315
99988.781
99963.98
100089.08
99962.182
99963.433
99925.027
99913.518
99899.334
100147.27
100006.65
100030.57
99992.832
99988.409
99963.95
100088.97
99963.495
99964.626
99926.516
99915.111
99901.236
100145.58
100005.87
100029.66
99992.227
99988.006
99964.031
100088.51
99964.852
99965.96
99928.314
99917.023
99903.573
100143.21
100004.66
100028.42
99991.525
99987.543
99964.3
100087.77
99966.381
99967.459
99930.417
99919.331
99906.381
100140.34
100003.16
100026.86
99990.618
99986.816
99964.622
100086.81
99968.228
99969.182
99932.853
99922.149
99909.67
100136.97
100001.47
100024.96
99989.294
99985.695
99964.919
100085.78
99970.539
99971.173
99935.661
99925.345
99913.38
100133.09
99999.71
100022.67
99987.622
99984.105
99965.055
100084.8
99973.509
99973.507
99938.936
99928.856
99917.702
100128.69
99997.896
100019.89
99985.632
99982.032
99964.762
100083.86
99977.123
99976.03
99942.518
99932.56
99922.309
100123.76
99995.793
100016.66
99983.418
99979.685
99964.062
100082.76
99981.315
99978.6
99946.331
99936.442
99926.906
100118.32
99993.4
100012.88
99980.965
99977.217
99963.39
100081.12
99985.782
99980.932
99950.177
99940.301
99931.224
100112.25
99990.969
100008.4
99978.137
99974.565
99962.653
100078.59
99990.244
99982.99
99953.767
99943.669
99934.745
100105.44
99988.965
100003.57
99975.036
99971.414
99961.452
100073.44
99992.065
99983.852
99956.509
99946.296
99937.358
100096.73
99985.002
99997.837
99971.293
99967.619
99959.442
100067.04
99990.242
99983.892
99958.391
99948.43
99939.464
100087.94
99978.275
99991.361
99966.334
99962.858
99956.462
100059.09
99986.025
99984.601
99960.826
99951.558
99941.919
100078.41
99970.027
99984.773
99960.266
99957.308
99951.846
100051.22
99981.423
99987.095
99964.866
99957.218
99947.306
100069.78
99961.583
99978.309
99953.374
99951.198
99945.933
100043.12
99977.609
99989.932
99968.081
99961.836
99952.1
100061.2
99954.601
99972.49
99945.985
99943.883
99937.624
100034.65
99974.549
99989.143
99966.378
99960.13
99950.647
100051.84
99950.892
99968.161
99940.241
99937.683
99929.736
100028.09
99972.959
99983.781
99958.121
99949.609
99939.273
100043.88
99949.695
99964.633
99936.373
99932.011
99920.194
100028.91
99977.939
99983.661
99955.939
99943.272
99929.219
100034.67
99948.584
99961.257
99933.198
99927.743
99913.236
100041.78
99996.519
99994.482
99964.767
99946.77
99929.85
100024.95
99948.779
99960.39
99931.198
99922.641
99907.587
100060.54
100025.92
100015.55
99981.968
99960.123
99941.053
100024.82
99960.357
99974.042
99945.02
99928.093
99906.098
100073.09
100048.78
100036.48
100001.04
99977.139
99956.13
100032
99976.783
99991.412
99962.978
99942.574
99913.416
100080.29
100064.82
100051.81
100014.67
99988.824
99970.984
100038.75
99993.514
100007.05
99981.892
99964.296
99930.212
100082.89
100073.84
100062.01
100023.56
99995.253
99979.185
100044.01
100006.72
100018.45
99997.584
99984.858
99951.449
100083.22
100078.02
100067.84
100029.27
99999.043
99983.117
100046.8
100015.51
100025.49
100006.78
99999.208
99970.677
100082.55
100079.3
100070.42
100032.68
100001.03
99984.925
100048.13
100020.72
100029.37
100011.97
100008.16
99983.447
100081.34
100079.08
100070.99
100034.35
100001.81
99985.324
100048.85
100023.56
100031.27
100014.65
100012.95
99991.29
100079.91
100078.21
100070.53
100034.88
100001.85
99984.997
100049.22
100025.09
100032.12
100015.91
100015.33
99995.594
100078.5
100077.17
100069.65
100034.75
100001.48
99984.361
100049.45
100025.96
100032.46
100016.45
100016.33
99997.783
100077.31
100076.17
100068.63
100034.26
100000.94
99983.662
100049.68
100026.54
100032.62
100016.7
100016.64
99998.813
100076.41
100075.36
100067.71
100033.65
100000.35
99983.048
100049.92
100027
100032.79
100016.9
100016.72
99999.296
100075.77
100074.8
100067.06
100033.16
99999.856
99982.598
100050.12
100027.38
100033
100017.12
100016.86
99999.647
100075.31
100074.42
100066.64
100032.81
99999.475
99982.257
100050.27
100027.69
100033.22
100017.37
100017.06
100000.02
100074.86
100074.06
100066.27
100032.48
99999.099