/*--------------------------------*- C++ -*----------------------------------*\
| =========                 |                                                 |
| \\      /  F ield         | OpenFOAM: The Open Source CFD Toolbox           |
|  \\    /   O peration     | Version:  2206                                  |
|   \\  /    A nd           | Website:  www.openfoam.com                      |
|    \\/     M anipulation  |                                                 |
\*---------------------------------------------------------------------------*/
FoamFile
{
    version     2.0;
    format      ascii;
    arch        "LSB;label=32;scalar=64";
    class       surfaceScalarField;
    location    "500";
    object      phi;
}
// * * * * * * * * * * * * * * * * * * * * * * * * * * * * * * * * * * * * * //

dimensions      [1 0 -1 0 0 0 0];

oriented        oriented;

internalField   nonuniform List<scalar> 
146294
(
9.3544586e-08
-9.1891745e-08
8.1615652e-08
5.9899771e-09
-9.0125189e-08
-6.9512006e-08
5.7721361e-08
6.1529118e-10
1.0483369e-07
1.2229215e-07
-1.2151029e-08
-8.342208e-08
-1.1859577e-07
-1.3777653e-08
-5.2543418e-08
1.1911879e-07
3.8696916e-07
-3.4860188e-07
2.5133748e-07
1.6877966e-07
-3.7757504e-07
-2.8561696e-07
1.6628258e-07
1.4773311e-07
4.1647515e-07
3.9700261e-07
1.0606481e-08
-3.7335607e-07
-3.9498911e-07
-2.0079031e-08
-2.682627e-07
3.8597899e-07
8.0640408e-07
-6.427722e-07
4.6478572e-07
4.2218568e-07
-7.9960249e-07
-5.5511017e-07
3.0338406e-07
3.8195342e-07
8.4250638e-07
6.9964756e-07
5.2311461e-08
-6.7104088e-07
-7.1308218e-07
-2.3091918e-08
-5.3129509e-07
6.788412e-07
1.285366e-06
-9.1121778e-07
7.0506173e-07
6.6286292e-07
-1.2774744e-06
-8.0056159e-07
4.6325218e-07
6.0593154e-07
1.3202493e-06
1.0345283e-06
1.079223e-07
-9.3184352e-07
-1.0695047e-06
-2.5891807e-08
-7.6629119e-07
1.0030769e-06
1.8168393e-06
-1.1728205e-06
9.6780653e-07
8.813211e-07
-1.78817e-06
-1.0414241e-06
6.5120171e-07
8.1281562e-07
1.8575128e-06
1.4463674e-06
1.8941143e-07
-1.205052e-06
-1.4956308e-06
-2.0210771e-08
-1.0032841e-06
1.4025353e-06
2.4193636e-06
-1.4529603e-06
1.2491275e-06
1.1027216e-06
-2.350462e-06
-1.3020347e-06
8.7269354e-07
1.0215438e-06
2.4784465e-06
1.9649983e-06
2.9379266e-07
-1.5105989e-06
-2.0117324e-06
2.8693788e-09
-1.2680521e-06
1.9079495e-06
3.1400139e-06
-1.7774957e-06
1.5412434e-06
1.3618468e-06
-3.0164898e-06
-1.6037396e-06
1.1277866e-06
1.2596e-06
3.229072e-06
2.6205697e-06
4.0694678e-07
-1.8667014e-06
-2.6445245e-06
4.3237374e-08
-1.5820068e-06
2.5584589e-06
3.9530044e-06
-2.1314928e-06
1.843516e-06
1.645884e-06
-3.7696441e-06
-1.9296878e-06
1.4127823e-06
1.5130261e-06
4.0847154e-06
3.3772961e-06
5.2090095e-07
-2.2588424e-06
-3.3638949e-06
1.1287992e-07
-1.9265848e-06
3.3045577e-06
4.843075e-06
-2.5085484e-06
2.1550997e-06
1.9441468e-06
-4.5902377e-06
-2.2770349e-06
1.730409e-06
1.7769635e-06
5.0255308e-06
4.2061244e-06
6.013052e-07
-2.6672421e-06
-4.1278379e-06
1.8100123e-07
-2.2830391e-06
4.1440019e-06
5.7232957e-06
-2.9060351e-06
2.5466901e-06
2.2436024e-06
-5.4524454e-06
-2.6101094e-06
2.1210059e-06
2.0274515e-06
5.9153623e-06
5.0045842e-06
7.1469038e-07
-3.1129705e-06
-4.9110375e-06
2.6875072e-07
-2.6165894e-06
4.9233126e-06
6.7617985e-06
-3.3857183e-06
3.0505584e-06
2.568302e-06
-6.4482338e-06
-3.0168842e-06
2.6097651e-06
2.3060493e-06
6.9838762e-06
5.8430098e-06
8.6932419e-07
-3.6606202e-06
-5.7227423e-06
3.8012361e-07
-3.017732e-06
5.7324797e-06
8.0540747e-06
-3.98394e-06
3.759569e-06
2.9178412e-06
-7.6969992e-06
-3.5221316e-06
3.2759717e-06
2.6050118e-06
8.3049708e-06
6.8197057e-06
1.1342852e-06
-4.386551e-06
-6.6820678e-06
5.7679534e-07
-3.5434026e-06
6.6442955e-06
9.250506e-06
-4.4163094e-06
4.7591649e-06
3.0574297e-06
-8.8912333e-06
-3.871518e-06
4.1804161e-06
2.7197857e-06
9.4977783e-06
7.6639841e-06
1.6746537e-06
-5.0535658e-06
-7.5671067e-06
9.8962358e-07
-3.9892575e-06
7.3688845e-06
1.1040193e-05
-4.6509323e-06
5.8712833e-06
3.0870123e-06
-1.0588418e-05
-4.1023021e-06
5.3268782e-06
2.7422897e-06
1.1253722e-05
8.9202623e-06
2.4953298e-06
-5.6608741e-06
-8.7310123e-06
1.7580331e-06
-4.4311643e-06
8.4807023e-06
1.308974e-05
-3.9224152e-06
6.4753012e-06
2.8729113e-06
-1.264429e-05
-3.517657e-06
6.1650591e-06
2.4879441e-06
1.3281238e-05
1.0210973e-05
3.8233954e-06
-5.4887875e-06
-9.9726899e-06
3.0120154e-06
-4.3289563e-06
9.7682686e-06
1.2889477e-05
-1.5838039e-06
5.2314057e-06
2.4621963e-06
-1.2524034e-05
-1.400557e-06
5.4177981e-06
1.977268e-06
1.3059985e-05
9.5484442e-06
5.2340109e-06
-3.2298286e-06
-9.3130697e-06
4.3912987e-06
-2.5205804e-06
9.2891622e-06
1.3345776e-05
3.0385967e-07
1.2313479e-06
3.1958145e-06
-1.2845457e-05
4.47187e-07
2.18825e-06
2.545617e-06
1.358247e-05
9.1827702e-06
6.2805307e-06
-9.373838e-07
-8.9880789e-06
5.5292507e-06
-5.1446509e-07
9.0064422e-06
1.3814935e-05
9.4918072e-07
-5.9013085e-06
5.5427597e-06
-1.3174297e-05
1.2361647e-06
-4.0192141e-06
4.664049e-06
1.412213e-05
8.9092275e-06
6.2444671e-06
8.089532e-07
-8.7329803e-06
5.762988e-06
1.1358761e-06
8.7757553e-06
1.433691e-05
7.6778854e-07
-1.5612145e-05
8.4284633e-06
-1.3822392e-05
1.2838426e-06
-1.2863569e-05
7.4343956e-06
1.4462962e-05
8.3712904e-06
4.9708668e-06
1.8093676e-06
-8.1393069e-06
4.8658724e-06
2.1294667e-06
8.4227453e-06
1.4413532e-05
1.8503768e-07
-2.6922042e-05
1.0981806e-05
-1.4270551e-05
9.7134548e-07
-2.3440866e-05
1.0034779e-05
1.3984649e-05
7.4646315e-06
2.7097737e-06
2.0462141e-06
-7.0647695e-06
3.1445391e-06
2.3626012e-06
7.7946784e-06
1.345239e-05
-1.1533541e-06
-3.8048773e-05
1.2765267e-05
-1.393764e-05
-2.2799986e-07
-3.4196204e-05
1.1966622e-05
1.2469024e-05
5.9911725e-06
-7.6994935e-07
1.7756375e-06
-5.4404968e-06
3.5862263e-07
2.0497732e-06
6.4992313e-06
1.1714399e-05
-4.2976644e-06
-4.538844e-05
1.2302699e-05
-1.2379795e-05
-3.1061764e-06
-4.1849768e-05
1.1848739e-05
1.062538e-05
4.0397065e-06
-6.1136268e-06
8.4136799e-07
-3.8351381e-06
-4.3371663e-06
1.1672589e-06
4.4619769e-06
7.9758636e-06
-6.7020148e-06
-4.5668843e-05
7.7277008e-06
-8.7212158e-06
-5.7584044e-06
-4.3015519e-05
7.6403666e-06
7.2595348e-06
2.3220485e-06
-1.1504876e-05
-1.0823654e-06
-2.5505187e-06
-9.5267822e-06
-8.2162859e-07
2.574763e-06
5.1777936e-06
-7.7545e-06
-4.1005521e-05
3.6081252e-06
-5.6947016e-06
-7.09762e-06
-3.9341569e-05
3.6566148e-06
4.9448994e-06
1.733218e-06
-1.5496465e-05
-3.4394886e-06
-2.0566718e-06
-1.362736e-05
-3.1100802e-06
1.8461831e-06
3.0550383e-06
-7.7473445e-06
-3.4125555e-05
1.0474749e-06
-3.2352639e-06
-7.3465681e-06
-3.3066318e-05
1.0441943e-06
3.0819777e-06
1.7207695e-06
-1.7091069e-05
-5.9389014e-06
-1.9346987e-06
-1.5583177e-05
-5.5150754e-06
1.8449468e-06
1.2890307e-06
-6.7764037e-06
-2.6916211e-05
-5.1435368e-07
-1.2075533e-06
-6.6365944e-06
-2.6123758e-05
-5.5718688e-07
1.5403399e-06
1.8639786e-06
-1.6375697e-05
-7.3050392e-06
-2.0507255e-06
-1.5230014e-05
-7.0280608e-06
1.9022289e-06
-3.2263756e-08
-5.6491851e-06
-2.0120426e-05
-1.4304007e-06
3.1588505e-07
-5.6164363e-06
-1.940519e-05
-1.5167489e-06
3.8212485e-07
1.8729132e-06
-1.4255551e-05
-7.5343854e-06
-2.1079593e-06
-1.3297873e-05
-7.4468749e-06
1.7710546e-06
-9.9268819e-07
-4.2926262e-06
-1.4366737e-05
-1.8797912e-06
1.4114451e-06
-4.3178451e-06
-1.3608689e-05
-2.0121823e-06
-4.5910892e-07
1.7174615e-06
-1.1473295e-05
-6.77359e-06
-2.0187791e-06
-1.0629717e-05
-6.8051365e-06
1.5365203e-06
-1.5672025e-06
-2.9886612e-06
-9.8594037e-06
-1.9926036e-06
2.0409189e-06
-3.010935e-06
-9.0657732e-06
-2.1211605e-06
-9.7829429e-07
1.4731934e-06
-8.6665399e-06
-5.4843279e-06
-1.7844022e-06
-7.9024694e-06
-5.5631964e-06
1.2980133e-06
-1.8090808e-06
-1.9507397e-06
-6.4713954e-06
-1.8882369e-06
2.2599875e-06
-1.9383261e-06
-5.6976325e-06
-2.0066765e-06
-1.2322867e-06
1.2145925e-06
-6.1265207e-06
-4.2062255e-06
-1.499193e-06
-5.4398306e-06
-4.2638604e-06
1.0773499e-06
-1.8246304e-06
-1.1734751e-06
-4.009423e-06
-1.6804186e-06
2.2162787e-06
-1.1199364e-06
-3.3273658e-06
-1.783179e-06
-1.2921293e-06
9.8393537e-07
-3.9624673e-06
-3.0914932e-06
-1.2301365e-06
-3.379783e-06
-3.0850707e-06
8.887456e-07
-1.6515212e-06
-6.1273964e-07
-2.2981167e-06
-1.4024309e-06
1.9551864e-06
-5.3406168e-07
-1.7645159e-06
-1.4886016e-06
-1.1919585e-06
7.7647544e-07
-2.2606897e-06
-2.112938e-06
-9.7818532e-07
-1.8233508e-06
-2.0315407e-06
7.1729107e-07
-1.3561337e-06
-2.458951e-07
-1.150501e-06
-1.100915e-06
1.55494e-06
-1.680939e-07
-7.9922193e-07
-1.1719917e-06
-9.8184341e-07
5.9537632e-07
-1.0475225e-06
-1.3010273e-06
-7.5364365e-07
-7.8368999e-07
-1.1724426e-06
5.5967446e-07
-9.4234632e-07
-4.2266736e-08
-4.2041542e-07
-7.7247406e-07
1.0264835e-06
1.6630239e-08
-2.5474644e-07
-8.2726603e-07
-6.7685344e-07
4.2568342e-07
-3.2017362e-07
-6.5421354e-07
-5.4141537e-07
-2.148673e-07
-5.3108227e-07
4.0403406e-07
-4.5217794e-07
2.4147319e-08
-6.4964756e-08
-3.9526481e-07
4.673376e-07
5.7572174e-08
-2.3915236e-08
-4.2275263e-07
-3.1847668e-07
2.4644222e-07
-3.6886632e-08
-1.9333607e-07
-3.1259684e-07
-1.8740681e-08
-1.2687951e-07
2.3421033e-07
-1.0612468e-07
1.5553527e-08
-7.7488003e-08
1.0309389e-07
2.528325e-08
-8.3148808e-08
-7.2174512e-08
7.4229406e-08
-1.1902054e-09
-9.437281e-08
1.0196485e-08
7.057494e-08
1.2027306e-07
-1.0399922e-07
2.9409827e-08
-1.2911071e-07
-4.1235628e-08
4.7482484e-08
6.1467018e-08
4.569443e-08
-1.0243443e-07
9.0911471e-10
-4.8173265e-08
-1.9223596e-08
4.9855975e-09
1.8698259e-08
2.5155642e-08
-1.0462142e-07
3.1616317e-09
-2.6122549e-08
-1.1666663e-09
-1.8108811e-09
8.9107103e-09
1.5592893e-08
-1.0509746e-07
8.6477468e-10
-1.597718e-08
1.6620076e-08
-7.2790389e-09
5.08535e-09
1.0233817e-08
-1.054806e-07
8.7356099e-10
-1.0723194e-08
2.8007007e-08
-4.2562683e-09
3.1010009e-09
7.3343476e-09
-1.057642e-07
9.7477359e-10
-8.025275e-09
3.305464e-08
1.7287339e-10
2.1117719e-09
5.9082131e-09
1.3336932e-09
-1.0630147e-07
-6.7049585e-09
3.1454474e-09
3.4126751e-08
1.688993e-09
4.1395026e-07
-3.9485911e-07
5.314643e-08
-4.1617661e-07
-1.9742126e-07
1.460466e-07
2.4452172e-07
1.4102753e-07
-3.8793009e-07
-1.6284857e-08
-1.3075943e-07
-1.6511319e-07
5.7630528e-08
5.6079428e-08
7.5295524e-08
-3.8308309e-07
-8.7699737e-09
-6.820459e-08
-1.460855e-07
3.1545719e-08
2.2913439e-08
4.449961e-08
-3.8012799e-07
-5.9176816e-09
-4.0669995e-08
-1.3684938e-07
1.6785643e-08
1.1198261e-08
2.9131719e-08
-3.78041e-07
-3.1701408e-09
-2.7174133e-08
-1.3466104e-07
1.6262929e-08
6.4238748e-09
2.1325213e-08
-3.7656618e-07
-1.4470703e-09
-2.0378874e-08
-1.3622204e-07
1.8660067e-08
4.3960427e-09
1.7441188e-08
1.0209769e-10
-3.7565942e-07
-1.7115761e-08
2.1165059e-08
-1.4039396e-07
3.5942931e-09
7.0918246e-07
-6.3451074e-07
1.801948e-08
-7.1059598e-07
-3.8564779e-07
2.2790045e-07
4.8167125e-07
2.0907535e-07
-6.1035422e-07
-6.1390481e-08
-1.8812895e-07
-3.5008044e-07
1.4507975e-07
8.6056343e-08
1.0850335e-07
-6.0107049e-07
-3.3367884e-08
-9.3187321e-08
-3.4526024e-07
1.0690147e-07
2.8326496e-08
6.3421103e-08
-5.9844873e-07
-1.7803308e-08
-5.4156926e-08
-3.536449e-07
7.7225611e-08
1.1364483e-08
4.146298e-08
-5.9826777e-07
-9.1676463e-09
-3.5646178e-08
-3.653106e-07
6.3511188e-08
5.8794748e-09
3.0411743e-08
-5.9888084e-07
-4.7341394e-09
-2.6511759e-08
-3.7578339e-07
5.5407139e-08
4.1367191e-09
2.5006616e-08
-1.7460921e-09
-5.998444e-07
-2.2195065e-08
5.1463476e-08
-3.849568e-07
3.8808542e-09
1.0314804e-06
-8.4715294e-07
-2.6508368e-08
-1.0716387e-06
-5.6681937e-07
2.8799433e-07
7.7190477e-07
2.6969062e-07
-8.0704274e-07
-1.152918e-07
-2.5589621e-07
-5.2520054e-07
2.61584e-07
1.1156877e-07
1.3138967e-07
-7.9354329e-07
-6.1482456e-08
-1.1677304e-07
-5.2133985e-07
2.0929675e-07
2.5133641e-08
7.5072933e-08
-7.9222901e-07
-2.8928678e-08
-6.5261081e-08
-5.2908895e-07
1.5415722e-07
5.8898215e-09
4.8423681e-08
-7.950916e-07
-1.2560789e-08
-4.2169101e-08
-5.3751583e-07
1.1862996e-07
1.7295852e-09
3.5069977e-08
-7.9912767e-07
-4.7317509e-09
-3.103543e-08
-5.4457458e-07
9.6131811e-08
1.4046521e-09
2.841952e-08
-3.7817896e-11
-8.0344202e-07
-2.5814634e-08
8.3651409e-08
-5.5049581e-07
2.1508028e-09
1.4645465e-06
-1.0937918e-06
-3.1640191e-08
-1.5706862e-06
-7.4595667e-07
3.2828699e-07
1.166919e-06
3.5147972e-07
-1.0381406e-06
-1.5878997e-07
-3.6363445e-07
-6.8445992e-07
3.899831e-07
1.6158201e-07
1.5984714e-07
-1.0169563e-06
-8.6899405e-08
-1.5561536e-07
-6.6259365e-07
3.2173464e-07
2.5540161e-08
8.6825527e-08
-1.0130561e-06
-3.710518e-08
-8.2549489e-08
-6.564085e-07
2.3432289e-07
4.7360598e-10
5.3288767e-08
-1.0158474e-06
-1.168145e-08
-5.137658e-08
-6.5484296e-07
1.7305336e-07
-2.7005198e-09
3.6359079e-08
-1.0207866e-06
5.7328665e-10
-3.6725657e-08
-6.546122e-07
1.342295e-07
-1.9708473e-09
2.7274452e-08
7.9439709e-09
-1.026205e-06
-2.9837209e-08
1.1285976e-07
-6.5567065e-07
-8.7486524e-10
2.0836898e-06
-1.394164e-06
3.5760636e-08
-2.2675194e-06
-9.389722e-07
3.4925548e-07
1.7336446e-06
4.7616332e-07
-1.3245618e-06
-1.6530822e-07
-5.3924532e-07
-8.4317864e-07
4.8561108e-07
2.8474235e-07
2.002103e-07
-1.2929459e-06
-9.7181479e-08
-2.2154461e-07
-7.8919335e-07
4.197936e-07
4.8164458e-08
1.0159619e-07
-1.2825704e-06
-3.7395713e-08
-1.1168315e-07
-7.6109854e-07
3.017552e-07
6.0661952e-09
5.7114707e-08
-1.2801797e-06
-4.8868621e-09
-6.6298893e-08
-7.4438592e-07
2.1462441e-07
-1.1681736e-09
3.3805272e-08
-1.2794648e-06
1.136049e-08
-4.5308851e-08
-7.3598763e-07
1.6225175e-07
-2.6171817e-09
2.1520037e-08
2.181097e-08
-1.2796164e-06
-3.5233954e-08
1.3454233e-07
-7.3454118e-07
-1.6074441e-09
2.9813485e-06
-1.7668044e-06
1.6889725e-07
-3.2143919e-06
-1.1704016e-06
3.527416e-07
2.5662525e-06
6.8362288e-07
-1.6811807e-06
-1.2079472e-07
-8.1376418e-07
-1.0296112e-06
4.9933065e-07
5.2910797e-07
2.6589135e-07
-1.6320081e-06
-7.9373212e-08
-3.328734e-07
-9.253128e-07
4.596344e-07
1.217504e-07
1.2440867e-07
-1.6105456e-06
-2.2225799e-08
-1.610412e-07
-8.6891643e-07
3.308336e-07
3.8932582e-08
6.2397969e-08
-1.598402e-06
1.1331734e-08
-9.0761084e-08
-8.4123182e-07
2.3300897e-07
1.6327549e-08
3.2384499e-08
-1.5895794e-06
2.8874043e-08
-5.8718976e-08
-8.3193181e-07
1.7565344e-07
9.6842093e-09
1.5853911e-08
4.1961726e-08
-1.582269e-06
-4.3316489e-08
1.4623829e-07
-8.323647e-07
4.5885288e-09
4.1755189e-06
-2.2092592e-06
3.3700552e-07
-4.3932046e-06
-1.4395261e-06
3.4789214e-07
3.6933159e-06
1.0191435e-06
-2.118592e-06
-2.5741752e-08
-1.2048642e-06
-1.2678501e-06
4.4527927e-07
9.0151891e-07
3.8403851e-07
-2.0483672e-06
-2.6947038e-08
-5.0669428e-07
-1.1161197e-06
4.1678443e-07
2.7515157e-07
1.680628e-07
-2.0082751e-06
1.1430841e-08
-2.4181002e-07
-1.035775e-06
3.113971e-07
1.0715581e-07
8.1050444e-08
-1.9855355e-06
3.8827799e-08
-1.3128832e-07
-1.002042e-06
2.2683504e-07
5.3487945e-08
4.017136e-08
-1.9720584e-06
5.5771625e-08
-8.0543964e-08
-9.9060297e-07
1.7585154e-07
2.8536334e-08
1.6995367e-08
7.053632e-08
-1.9622226e-06
-5.5407743e-08
1.4942851e-07
-9.9006561e-07
1.326498e-08
5.5250468e-06
-2.6956308e-06
4.9295386e-07
-5.652612e-06
-1.7329318e-06
3.3234624e-07
4.9904829e-06
1.5271637e-06
-2.6322043e-06
7.7780037e-08
-1.6941168e-06
-1.5793107e-06
3.6964672e-07
1.449169e-06
6.0483958e-07
-2.5544503e-06
3.8615905e-08
-7.4815795e-07
-1.4180293e-06
3.284208e-07
5.3192059e-07
2.6668068e-07
-2.4934585e-06
4.6369698e-08
-3.6261386e-07
-1.3183282e-06
2.5218134e-07
2.2619149e-07
1.2769025e-07
-2.4507169e-06
6.1950215e-08
-1.9355194e-07
-1.2681235e-06
1.9403459e-07
1.1028831e-07
6.3268118e-08
-2.4234425e-06
7.7726069e-08
-1.1249915e-07
-1.2440505e-06
1.5823504e-07
5.6809347e-08
2.8738006e-08
9.5455061e-08
-2.4055223e-06
-7.157429e-08
1.4011166e-07
-1.2333555e-06
2.7362643e-08
6.8360009e-06
-3.1981016e-06
6.5063515e-07
-6.9085522e-06
-1.9868141e-06
3.4049556e-07
6.1980758e-06
2.0798652e-06
-3.1764922e-06
1.5076625e-07
-2.1744664e-06
-1.8983239e-06
3.0157418e-07
2.059443e-06
9.3654507e-07
-3.1321499e-06
9.0234203e-08
-1.0325068e-06
-1.7860452e-06
2.5257634e-07
9.0010936e-07
4.6044852e-07
-3.0845616e-06
6.7646627e-08
-5.2931778e-07
-1.6987472e-06
1.8727124e-07
4.3805527e-07
2.4424068e-07
-3.0392472e-06
6.5049269e-08
-2.9265126e-07
-1.6436323e-06
1.4606532e-07
2.3709697e-07
1.35698e-07
-2.9977681e-06
7.3012042e-08
-1.7246585e-07
-1.6121012e-06
1.2354079e-07
1.3885685e-07
7.4925948e-08
8.9025988e-08
-2.9620813e-06
-1.041799e-07
1.1474379e-07
-1.5960923e-06
8.4286919e-08
8.0442591e-06
-3.8051955e-06
8.0251947e-07
-8.0515731e-06
-2.2142793e-06
3.3096416e-07
7.2503306e-06
2.5172669e-06
-3.806515e-06
2.0190027e-07
-2.5670885e-06
-2.107583e-06
2.2995148e-07
2.4821859e-06
1.2178666e-06
-3.7963942e-06
1.3524666e-07
-1.2730002e-06
-2.0189515e-06
2.0661533e-07
1.1751959e-06
6.468036e-07
-3.783382e-06
9.398936e-08
-6.8616338e-07
-1.9559953e-06
1.5432625e-07
6.1678594e-07
3.7654699e-07
-3.765171e-06
7.3469061e-08
-4.0317394e-07
-1.9099227e-06
1.1884267e-07
3.577007e-07
2.372701e-07
-3.7402343e-06
6.623569e-08
-2.5543353e-07
-1.8747395e-06
9.8802039e-08
2.2682111e-07
1.5821638e-07
6.9292627e-08
-3.7091664e-06
-1.695468e-07
9.0771811e-08
-1.8476521e-06
1.5510398e-07
9.192779e-06
-4.6143075e-06
1.0431028e-06
-9.2056185e-06
-2.5360111e-06
3.9595705e-07
8.120384e-06
2.8338459e-06
-4.6236715e-06
2.7731494e-07
-2.8999089e-06
-2.3482245e-06
2.051406e-07
2.6708572e-06
1.3845806e-06
-4.628218e-06
2.0228933e-07
-1.4470779e-06
-2.2299469e-06
2.1038372e-07
1.2625334e-06
7.4872329e-07
-4.636995e-06
1.4504962e-07
-7.9101602e-07
-2.1626946e-06
1.6703323e-07
6.6875424e-07
4.4797747e-07
-4.6439595e-06
1.0840611e-07
-4.7594757e-07
-2.1177177e-06
1.2824036e-07
3.9360539e-07
2.952965e-07
-4.645867e-06
8.7493156e-08
-3.146529e-07
-2.0810321e-06
1.0201115e-07
2.5539431e-07
2.1265087e-07
7.8176493e-08
-4.6409896e-06
-2.2640951e-07
8.7482178e-08
-2.0467682e-06
1.8167935e-07
9.999495e-06
-5.4838009e-06
1.6264865e-06
-1.0152657e-05
-2.9086458e-06
7.8422194e-07
8.5306026e-06
2.9717467e-06
-5.5315103e-06
4.6703547e-07
-3.1137635e-06
-2.6758612e-06
3.4184015e-07
2.6022568e-06
1.4370787e-06
-5.552866e-06
3.2435746e-07
-1.5377995e-06
-2.5330908e-06
3.111282e-07
1.1935521e-06
7.7591669e-07
-5.5728895e-06
2.2561728e-07
-8.3645777e-07
-2.4545613e-06
2.3682412e-07
6.2759905e-07
4.6552186e-07
-5.5897171e-06
1.6251949e-07
-5.0281525e-07
-2.4038905e-06
1.7398672e-07
3.6909409e-07
3.0842245e-07
-5.6022959e-06
1.2489285e-07
-3.3323944e-07
-2.3638345e-06
1.3120575e-07
2.3917602e-07
2.2430563e-07
1.0437489e-07
-5.6102769e-06
-2.4252755e-07
1.0505666e-07
-2.326506e-06
1.6939594e-07
1.104235e-05
-6.3262045e-06
2.4244621e-06
-1.1175017e-05
-3.3490049e-06
1.6029548e-06
9.1414371e-06
3.2267518e-06
-6.4480445e-06
7.8200654e-07
-3.4198903e-06
-3.0743272e-06
7.1617314e-07
2.5777341e-06
1.5200379e-06
-6.4982089e-06
5.1220547e-07
-1.6577322e-06
-2.912404e-06
5.5498403e-07
1.1142433e-06
8.0506976e-07
-6.5325166e-06
3.4100624e-07
-8.8614932e-07
-2.8319274e-06
3.9088559e-07
5.7053402e-07
4.7499557e-07
-6.5562054e-06
2.3508046e-07
-5.2387762e-07
-2.7836124e-06
2.7153996e-07
3.2911449e-07
3.0957961e-07
-6.5716383e-06
1.7234227e-07
-3.4159253e-07
-2.7461759e-06
1.9500575e-07
2.0834794e-07
2.216195e-07
1.3676904e-07
-6.5807481e-06
-2.4491052e-07
1.4865215e-07
-2.7115491e-06
1.4338869e-07
1.2082095e-05
-6.7792694e-06
3.7411313e-06
-1.2108307e-05
-3.6911275e-06
2.834369e-06
1.0212825e-05
3.833075e-06
-7.1368662e-06
1.2798413e-06
-3.9733209e-06
-3.4426127e-06
1.2035794e-06
3.0971458e-06
1.7946702e-06
-7.2631321e-06
7.5295349e-07
-1.909163e-06
-3.2543274e-06
8.1996937e-07
1.3413834e-06
9.3120558e-07
-7.3230024e-06
4.6800954e-07
-9.9833649e-07
-3.1612377e-06
5.4442774e-07
6.8457564e-07
5.3351878e-07
-7.3553618e-06
3.0655623e-07
-5.7264468e-07
-3.1122653e-06
3.6428247e-07
3.9179028e-07
3.3579878e-07
-7.3728924e-06
2.1467082e-07
-3.6059285e-07
-3.0791062e-06
2.5401514e-07
2.4363477e-07
2.3127651e-07
1.6257637e-07
-7.3811564e-06
-2.4882659e-07
1.882491e-07
-3.050426e-06
1.6298978e-07
1.0989058e-05
-4.6740555e-06
4.8879325e-06
-1.0691669e-05
-2.4501599e-06
3.8702912e-06
9.8826945e-06
4.2430082e-06
-5.2590536e-06
1.628062e-06
-4.0062438e-06
-2.2995227e-06
1.3931741e-06
3.9027655e-06
2.1900708e-06
-5.5215192e-06
8.4048294e-07
-2.0151471e-06
-2.0918501e-06
7.9078941e-07
2.0115615e-06
1.1933925e-06
-5.6525077e-06
4.7839888e-07
-1.0727949e-06
-1.9884604e-06
4.8835328e-07
1.1460768e-06
6.9216716e-07
-5.7227747e-06
2.9538883e-07
-6.10742e-07
-1.9549459e-06
3.1553617e-07
7.0738694e-07
4.2942954e-07
-5.7615116e-06
1.9766201e-07
-3.7368232e-07
-1.9496769e-06
2.1481947e-07
4.6335895e-07
2.8634152e-07
1.4357177e-07
-5.782182e-06
-2.4667241e-07
1.556231e-07
-1.9507078e-06
3.1999147e-07
9.8326941e-06
-2.1052453e-06
5.7367706e-06
-9.5136996e-06
-8.2385606e-07
4.7830432e-06
9.2293039e-06
4.4373531e-06
-2.7372251e-06
1.8134869e-06
-3.9908088e-06
-9.121952e-07
1.5240032e-06
4.3948562e-06
2.4953811e-06
-3.10832e-06
8.1647909e-07
-2.1002925e-06
-8.4240343e-07
6.7995082e-07
2.5364173e-06
1.4468062e-06
-3.3434645e-06
4.1827753e-07
-1.1515404e-06
-8.0228045e-07
3.6094753e-07
1.5340891e-06
8.6827844e-07
-3.4926424e-06
2.3876382e-07
-6.6248208e-07
-8.0942185e-07
2.1354795e-07
9.7740023e-07
5.4479318e-07
-3.5872795e-06
1.4995745e-07
-4.0244999e-07
-8.41343e-07
1.3696441e-07
6.5457117e-07
3.6076571e-07
1.0280827e-07
-3.6477725e-06
-2.5951258e-07
9.4538951e-08
-8.7160761e-07
4.5211067e-07
8.6813595e-06
-3.68262e-08
6.3378278e-06
-8.436673e-06
7.6235511e-07
5.4962266e-06
8.3416841e-06
4.3086391e-06
-6.0496827e-07
1.877629e-06
-3.8046537e-06
5.5707431e-07
1.6644057e-06
4.3735072e-06
2.5490909e-06
-1.0161266e-06
7.2576336e-07
-2.0472273e-06
5.1817703e-07
6.1524284e-07
2.6526878e-06
1.5312162e-06
-1.3207485e-06
3.3161736e-07
-1.1399381e-06
4.9578041e-07
2.7614838e-07
1.6384093e-06
9.3311912e-07
-1.5309227e-06
1.7413798e-07
-6.5832447e-07
4.5653096e-07
1.4488369e-07
1.0410283e-06
5.8515829e-07
-1.6718717e-06
1.0250221e-07
-3.9675476e-07
4.0312222e-07
8.4985009e-08
6.9054646e-07
3.8214444e-07
6.6466753e-08
-1.7667804e-06
-2.5089704e-07
5.4562693e-08
3.4777364e-07
4.7746672e-07
7.675415e-06
1.0273042e-06
6.8715966e-06
-7.4271464e-06
1.6909416e-06
6.1005258e-06
7.5096152e-06
3.9824414e-06
5.3624288e-07
1.8192737e-06
-3.4330366e-06
1.4756327e-06
1.7665985e-06
4.0955493e-06
2.4594292e-06
1.3737123e-07
5.6267558e-07
-1.8974758e-06
1.4449275e-06
5.4345454e-07
2.5619189e-06
1.5215635e-06
-1.7908996e-07
2.0924633e-07
-1.0827363e-06
1.4418201e-06
1.9107684e-07
1.6097377e-06
9.4012924e-07
-4.0540811e-07
9.4066089e-08
-6.3374087e-07
1.4175637e-06
7.8337108e-08
1.0309306e-06
5.9168868e-07
-5.6145497e-07
5.0153972e-08
-3.8329573e-07
1.3686964e-06
3.7311886e-08
6.882267e-07
3.8500942e-07
3.0991637e-08
-6.6974251e-07
-2.4124793e-07
2.0509787e-08
1.3087958e-06
4.7896164e-07
6.6983856e-06
1.366877e-06
7.1658625e-06
-6.3133414e-06
1.9766961e-06
6.4420791e-06
6.742732e-06
3.5563651e-06
8.0157389e-07
1.7152649e-06
-2.8870695e-06
1.6887069e-06
1.8387892e-06
3.7721491e-06
2.2845512e-06
3.7841047e-07
3.5731049e-07
-1.6560286e-06
1.6421281e-06
4.5506041e-07
2.4195199e-06
1.4448151e-06
6.5022825e-08
5.595684e-08
-9.7814812e-07
1.6395967e-06
9.0289261e-08
1.5481247e-06
9.0245624e-07
-1.5345897e-07
-5.1714992e-09
-5.8473687e-07
1.6067286e-06
5.9618985e-10
1.0130661e-06
5.7195375e-07
-3.0338517e-07
-1.3815934e-08
-3.5806282e-07
1.5413183e-06
-1.8017079e-08
6.9268808e-07
3.7457807e-07
-1.1732986e-08
-4.0815724e-07
-2.2708171e-07
-1.8854534e-08
1.4677876e-06
4.8747365e-07
5.3562294e-06
1.3404817e-06
6.9982631e-06
-4.7535116e-06
1.9321252e-06
6.2537395e-06
5.6621563e-06
2.9369076e-06
6.7248217e-07
1.5152829e-06
-2.0689407e-06
1.6270378e-06
1.7666071e-06
3.3141607e-06
1.9696902e-06
2.1564936e-07
7.23448e-08
-1.2278935e-06
1.5893072e-06
2.85539e-07
2.1769417e-06
1.2816647e-06
-8.9085107e-08
-1.5875861e-07
-7.622264e-07
1.603148e-06
-6.4733449e-08
1.422832e-06
8.1330021e-07
-2.9217013e-07
-1.4489879e-07
-4.7048353e-07
1.5769978e-06
-1.1168472e-07
9.5173556e-07
5.2051039e-07
-4.299313e-07
-1.0350162e-07
-2.9307038e-07
1.5152083e-06
-9.5334504e-08
6.5960847e-07
3.4343289e-07
-7.1040802e-08
-5.2678543e-07
-1.8726865e-07
-7.2698722e-08
1.4477647e-06
4.6472305e-07
3.2699785e-06
1.1869586e-06
5.8546506e-06
-2.4719686e-06
1.8175117e-06
5.031444e-06
3.8420407e-06
1.8078019e-06
3.5595588e-07
1.292149e-06
-7.5368829e-07
1.5304729e-06
1.4634235e-06
2.3979819e-06
1.239783e-06
-2.4654265e-07
-1.8023344e-07
-3.8471185e-07
1.4416449e-06
2.6940656e-08
1.5872012e-06
8.2971143e-07
-6.0329167e-07
-3.7795606e-07
-2.5378549e-07
1.4533821e-06
-2.8682543e-07
1.0400394e-06
5.3382767e-07
-8.2120167e-07
-2.970833e-07
-1.6372879e-07
1.4451359e-06
-2.6855754e-07
6.9895259e-07
3.4158527e-07
-9.6332517e-07
-2.0120156e-07
-1.0177336e-07
1.4042474e-06
-1.9812502e-07
4.8524956e-07
2.2288308e-07
-1.3269874e-07
-1.0622322e-06
-6.2315632e-08
-1.3936777e-07
1.3541453e-06
3.3965786e-07
2.3714945e-07
5.6310755e-07
3.4363295e-06
5.3559866e-07
1.1155995e-06
2.7621488e-06
5.6897118e-07
2.1081105e-07
-1.0106336e-07
1.129633e-06
6.1589953e-07
1.02917e-06
1.1217134e-06
6.3896958e-07
1.5122243e-07
-6.9676148e-07
-1.9755696e-07
4.6181239e-07
8.4701417e-07
-1.1357525e-07
4.7389626e-07
1.0592406e-07
-1.0415366e-06
-4.2254455e-07
2.834219e-07
7.7598805e-07
-4.2501316e-07
3.1510208e-07
6.5126351e-08
-1.2401887e-06
-3.37087e-07
1.735373e-07
7.3910249e-07
-3.77275e-07
2.1073524e-07
3.6749135e-08
-1.3649641e-06
-2.242648e-07
1.1107813e-07
7.0467053e-07
-2.7046137e-07
1.4349824e-07
1.9390251e-08
-1.4077371e-07
-1.4512156e-06
7.4938629e-08
-1.8349099e-07
6.7141248e-07
9.6774741e-08
-1.5311658e-06
-9.2116107e-07
1.0345333e-07
2.3457712e-06
-3.3918065e-07
-1.386156e-07
-1.401213e-06
-5.6219511e-07
-1.2689761e-06
7.9672909e-07
1.2428892e-06
-7.5445676e-08
6.9868295e-07
-4.0302757e-07
-2.94589e-07
-1.8624345e-06
-5.2489603e-08
7.4298091e-07
-2.5644302e-07
-7.7340683e-08
-1.4983955e-07
-1.6543831e-07
-2.31132e-06
-2.3568398e-07
4.2747543e-07
-3.9948301e-07
-3.7688682e-07
-7.0518242e-08
-9.9934598e-08
-2.6214242e-06
-1.7671008e-07
2.4965019e-07
-5.0421399e-07
-3.371215e-07
-3.5379513e-08
-6.4683045e-08
-2.8426744e-06
-8.9789979e-08
1.5146191e-07
-5.9099276e-07
-2.2818002e-07
-2.0178993e-08
-4.4403842e-08
-2.5542087e-08
-3.0096114e-06
9.6098622e-08
-1.3747881e-07
-6.6648341e-07
-1.493877e-08
-1.713229e-06
-3.4807678e-06
-3.3014378e-06
2.6597812e-06
-2.6327235e-06
-3.403706e-06
-1.3308929e-06
-7.2533737e-07
-3.4699655e-06
1.1800046e-07
1.3933691e-06
-2.008016e-06
-1.3714737e-07
-5.1396485e-07
-3.974498e-07
-4.0775668e-06
1.5681125e-07
7.9574492e-07
-2.2128924e-06
1.4182522e-08
-2.8412913e-07
-2.3054792e-07
-4.709047e-06
1.7834517e-07
4.4800493e-07
-2.6242346e-06
-1.8157601e-08
-1.779356e-07
-1.3735687e-07
-5.2064101e-06
2.0479414e-07
2.5320729e-07
-3.0082185e-06
2.3566265e-08
-1.1408798e-07
-8.4503338e-08
-5.5705273e-06
2.1297667e-07
1.4585717e-07
-3.3074081e-06
6.1920753e-08
-7.5417155e-08
-5.4412558e-08
2.0384857e-07
-5.8314627e-06
8.5949614e-08
7.9443082e-08
-3.5265606e-06
-5.2202584e-08
-1.2129075e-06
-6.0392882e-06
-5.573258e-06
2.219044e-06
-5.1890783e-06
-5.7043485e-06
-7.5114776e-07
-6.033316e-07
-5.9553832e-06
-6.2231973e-07
1.2596365e-06
-4.6343066e-06
-1.0078983e-06
-2.8777361e-07
-3.3386138e-07
-6.3941794e-06
2.3572633e-07
6.9376592e-07
-4.8714052e-06
9.092215e-08
-1.7346847e-07
-1.7788791e-07
-6.9045703e-06
4.9944668e-07
3.6718644e-07
-5.3331038e-06
3.8016427e-07
-1.1449771e-07
-9.424784e-08
-7.3183912e-06
5.205439e-07
1.9231548e-07
-5.7331389e-06
4.0696828e-07
-7.7620237e-08
-5.0943104e-08
-7.6095448e-06
4.5463248e-07
1.0044077e-07
-6.0104856e-06
3.4342618e-07
-5.5099487e-08
-2.8374736e-08
3.6941736e-07
-7.7985645e-06
5.1820641e-08
2.7048398e-07
-6.1882782e-06
-4.1630717e-08
-7.6152025e-07
-7.4460694e-06
-6.6011834e-06
1.7009308e-06
-6.8709961e-06
-6.6761466e-06
-3.6600436e-07
-4.2438149e-07
-7.458066e-06
-1.2592785e-06
1.0734942e-06
-6.5053269e-06
-1.7033458e-06
-9.4207791e-08
-2.20544e-07
-7.6260484e-06
3.3492716e-08
5.907459e-07
-6.521927e-06
-8.2909441e-08
-3.0162137e-08
-1.0055352e-07
-7.8233726e-06
4.94372e-07
3.0294874e-07
-6.6893306e-06
4.594541e-07
-1.2448777e-08
-4.1910279e-08
-7.9848014e-06
5.7294048e-07
1.5094174e-07
-6.8316087e-06
5.1594221e-07
-8.6064651e-09
-1.5870775e-08
-8.0957084e-06
5.0796923e-07
7.3439367e-08
-6.9152697e-06
4.2077058e-07
-9.5580548e-09
-4.8004134e-09
4.0538268e-07
-8.1611798e-06
3.4297596e-08
3.1701275e-07
-6.9548597e-06
-1.1748582e-08
-4.7988404e-07
-7.502238e-06
-6.6427921e-06
1.2501574e-06
-7.1043017e-06
-6.6670211e-06
-1.8990353e-07
-3.1028783e-07
-7.6771959e-06
-1.6639687e-06
8.8968556e-07
-6.9730687e-06
-2.1192282e-06
-2.6092483e-08
-1.5639017e-07
-7.7110921e-06
-2.8627716e-07
5.1005707e-07
-6.820601e-06
-4.237995e-07
3.2036566e-08
-6.3416969e-08
-7.6797071e-06
2.597315e-07
2.6667011e-07
-6.7187308e-06
2.5615495e-07
3.8008098e-08
-1.9310592e-08
-7.6428087e-06
4.2129105e-07
1.3405139e-07
-6.6699417e-06
4.1838304e-07
2.9446169e-08
-1.3913325e-09
-7.6199885e-06
4.211822e-07
6.5354809e-08
-6.6546306e-06
3.8471503e-07
1.9349364e-08
4.6306603e-09
3.5965018e-07
-7.6092099e-06
3.0310823e-08
2.9960227e-07
-6.6431398e-06
1.0538278e-08
-3.3057688e-07
-6.6465608e-06
-6.0561271e-06
9.059286e-07
-6.4009575e-06
-6.0248318e-06
-1.3541545e-07
-2.4819878e-07
-6.9785429e-06
-1.7972084e-06
7.1360632e-07
-6.5186338e-06
-2.2425781e-06
-6.7751327e-09
-1.3286388e-07
-7.0541436e-06
-5.062225e-07
4.2836884e-07
-6.4293399e-06
-6.8069274e-07
3.4655818e-08
-5.8533991e-08
-6.9837748e-06
1.3705226e-08
2.3417578e-07
-6.258619e-06
-1.2519645e-08
3.9392639e-08
-2.0007494e-08
-6.8669492e-06
2.0108737e-07
1.2338334e-07
-6.1060514e-06
2.1277147e-07
3.3033647e-08
-2.2419057e-09
-6.7629821e-06
2.5602657e-07
6.3420994e-08
-6.0112202e-06
2.6264273e-07
2.4990481e-08
4.3741823e-09
2.5418594e-07
-6.6934096e-06
3.1517193e-08
2.3877897e-07
-5.963505e-06
1.748321e-08
-2.7073271e-07
-5.5489288e-06
-5.1312286e-06
6.884735e-07
-5.3844542e-06
-5.0366403e-06
-1.3856737e-07
-2.175157e-07
-5.9465836e-06
-1.761184e-06
5.7901669e-07
-5.6504247e-06
-2.1781381e-06
-1.6368919e-08
-1.2412845e-07
-6.0771547e-06
-6.0919797e-07
3.5766866e-07
-5.6718691e-06
-8.0285011e-07
1.9459052e-08
-6.2782488e-08
-6.0669125e-06
-1.3639379e-07
2.0263541e-07
-5.5797343e-06
-1.9219919e-07
2.4755548e-08
-2.8517165e-08
-5.9893811e-06