/*--------------------------------*- C++ -*----------------------------------*\
| =========                 |                                                 |
| \\      /  F ield         | OpenFOAM: The Open Source CFD Toolbox           |
|  \\    /   O peration     | Version:  2206                                  |
|   \\  /    A nd           | Website:  www.openfoam.com                      |
|    \\/     M anipulation  |                                                 |
\*---------------------------------------------------------------------------*/
FoamFile
{
    version     2.0;
    format      ascii;
    arch        "LSB;label=32;scalar=64";
    class       volScalarField;
    location    "500";
    object      rho;
}
// * * * * * * * * * * * * * * * * * * * * * * * * * * * * * * * * * * * * * //

dimensions      [1 -3 0 0 0 0 0];

internalField   nonuniform List<scalar> 
50904
(
1.1864932
1.1864498
1.1880672
1.1878247
1.1865232
1.186489
1.1880386
1.1878145
1.1864976
1.1864685
1.187941
1.1877188
1.186414
1.1863939
1.1878184
1.187597
1.1863022
1.1862897
1.1876556
1.1874403
1.1861564
1.1861496
1.1874231
1.1872259
1.1859849
1.1859808
1.1871243
1.1869498
1.1857913
1.1857862
1.1867553
1.1866034
1.1855736
1.1855642
1.1862989
1.1861671
1.1853283
1.1853107
1.1857414
1.1856275
1.1850589
1.1850291
1.1850943
1.1849925
1.1847891
1.1847366
1.1843771
1.1842805
1.1845916
1.1845103
1.1836968
1.1836134
1.1845986
1.1844877
1.1832507
1.1831809
1.1849879
1.1848612
1.1833288
1.1832524
1.1858222
1.1857105
1.1841074
1.1839887
1.1868323
1.1867862
1.1853003
1.1851572
1.1877162
1.1877821
1.1866256
1.1865082
1.1882997
1.1884901
1.18791
1.1878874
1.1885653
1.1888258
1.189035
1.1891811
1.1886765
1.1889186
1.1899382
1.1902964
1.1887598
1.1889197
1.1905593
1.1911019
1.1888233
1.1888568
1.1908908
1.191443
1.1888222
1.1887333
1.1909982
1.1914252
1.1887785
1.1886024
1.19099
1.1912902
1.1886984
1.1884547
1.1909292
1.191136
1.1885973
1.1882951
1.1908466
1.190996
1.1885059
1.1881584
1.1907592
1.1908714
1.1884181
1.188039
1.1906809
1.1907709
1.1883423
1.1879382
1.1906167
1.1906937
1.1882846
1.187858
1.1905615
1.1906321
1.1882464
1.1877974
1.1905075
1.1905718
1.1882276
1.1877588
1.1904411
1.1904881
1.1882276
1.1877485
1.190356
1.1903719
1.1882345
1.1877674
1.1902754
1.1902524
1.1882248
1.187775
1.1902418
1.1901925
1.1874004
1.1870989
1.18733
1.1870212
1.187117
1.1867779
1.1870602
1.1866611
1.1870117
1.1865559
1.1869671
1.186471
1.1869182
1.1863962
1.1873711
1.1870772
1.1873255
1.186998
1.187118
1.1867618
1.1870487
1.1866499
1.1869843
1.1865423
1.1869278
1.1864529
1.1868729
1.1863751
1.1873298
1.1869891
1.1873332
1.1869258
1.1871144
1.1866662
1.187015
1.1865324
1.1869323
1.1864222
1.1868681
1.1863382
1.1868113
1.1862666
1.1872369
1.1868686
1.1872267
1.1867776
1.1870138
1.1865237
1.1869131
1.1863929
1.1868326
1.1862933
1.186772
1.1862162
1.186718
1.1861466
1.1870748
1.1866959
1.187029
1.1865678
1.1868264
1.1863419
1.1867371
1.1862324
1.1866642
1.1861449
1.1866074
1.1860684
1.1865537
1.1859891
1.1868486
1.1864723
1.1867588
1.1862916
1.1865449
1.1860757
1.1864524
1.1859769
1.1863828
1.1858864
1.1863222
1.1857932
1.1862605
1.1856957
1.1865465
1.1861867
1.1863945
1.1859271
1.1861399
1.1856802
1.1860222
1.1855625
1.1859359
1.1854505
1.1858607
1.1853399
1.1857926
1.1852325
1.1861333
1.185801
1.1858906
1.1854398
1.1855796
1.1851319
1.1854168
1.1849797
1.1852994
1.1848551
1.1852058
1.1847437
1.1851293
1.1846396
1.1855655
1.1852759
1.1851987
1.1848145
1.1848491
1.1844871
1.1846599
1.1843401
1.1845325
1.1842371
1.184437
1.1841494
1.1843658
1.1840672
1.1848189
1.1845954
1.1843106
1.1840675
1.1839831
1.1838126
1.1838258
1.1837408
1.1837359
1.1837054
1.1836765
1.1836711
1.1836348
1.1836349
1.1839149
1.1837652
1.1832807
1.1832085
1.1830413
1.1830835
1.1829625
1.1831024
1.1829417
1.1831337
1.182945
1.1831467
1.1829581
1.183143
1.1828228
1.182753
1.1820288
1.1821383
1.1818913
1.1821514
1.1819041
1.1822658
1.1819596
1.182361
1.1820314
1.1824173
1.182106
1.1824461
1.1816541
1.1816903
1.180493
1.1808421
1.180303
1.1808798
1.1803136
1.1810481
1.180398
1.1812009
1.1805168
1.1813174
1.1806543
1.181413
1.1807882
1.1809689
1.179394
1.1800735
1.1792494
1.1802664
1.179346
1.1805703
1.1795018
1.1808286
1.1796857
1.1810347
1.1798989
1.1812199
1.1805313
1.1807838
1.1789979
1.1799225
1.1790001
1.1803549
1.179268
1.1808633
1.1795503
1.1812606
1.1798165
1.1815632
1.1800919
1.1818261
1.1812002
1.1813392
1.1793954
1.180143
1.1792843
1.180475
1.1795339
1.1809976
1.1798125
1.1814151
1.1800628
1.1817153
1.1802946
1.1819387
1.1826964
1.1827063
1.1812136
1.181717
1.1812293
1.182168
1.181557
1.1827872
1.1818544
1.1832479
1.1820715
1.1835321
1.1822184
1.1836881
1.1847242
1.1846839
1.1842911
1.184764
1.1850806
1.1862099
1.1859495
1.1875803
1.1865643
1.1885165
1.1869294
1.189071
1.1871023
1.1893406
1.1869553
1.1869788
1.1878949
1.1886178
1.1897662
1.1914421
1.1913695
1.1937601
1.1924225
1.1952678
1.1930226
1.1961443
1.193296
1.1965759
1.1890921
1.1893411
1.1912366
1.1924736
1.1938833
1.1962012
1.195908
1.1988902
1.1971606
1.200508
1.1978366
1.201379
1.1981098
1.201754
1.1907989
1.1914046
1.1933734
1.1951517
1.1960347
1.1986567
1.1979191
1.2008132
1.1990091
1.2019406
1.1995397
1.2024224
1.1996809
1.2025073
1.1918282
1.1927505
1.1940072
1.1959997
1.1960327
1.1984585
1.1973629
1.1996623
1.198068
1.2000855
1.1983389
1.2000997
1.1983019
1.1998791
1.1921087
1.1930169
1.1933893
1.1950077
1.1944114
1.1963454
1.1950115
1.196919
1.1952632
1.1970535
1.195272
1.1969482
1.19511
1.1966896
1.191838
1.1924518
1.1922754
1.1932933
1.1925144
1.1937944
1.1926063
1.1940071
1.192587
1.1940289
1.1924776
1.1939271
1.1922708
1.1937252
1.19144
1.191729
1.19134
1.1918491
1.1911128
1.191771
1.1908897
1.1916536
1.1907016
1.191515
1.1905315
1.1913528
1.1903738
1.1911631
1.1910835
1.1911491
1.1906873
1.1908975
1.1902698
1.1905451
1.1899266
1.190255
1.1896948
1.1900378
1.1895569
1.1898772
1.1894739
1.1897419
1.190794
1.1907476
1.1902425
1.1903145
1.1898038
1.1898774
1.1894731
1.1895451
1.1892726
1.1893275
1.1891687
1.1891905
1.1891239
1.1890972
1.1905753
1.1904778
1.1899222
1.1899495
1.1895157
1.1895288
1.1892459
1.1892295
1.1890979
1.189044
1.1890339
1.1889372
1.1890186
1.1888752
1.1904157
1.1902901
1.1896762
1.189692
1.1892856
1.1893017
1.1890657
1.1890485
1.1889595
1.1888938
1.1889315
1.1888162
1.1889447
1.1887838
1.1902964
1.1901507
1.1894873
1.1894906
1.1891001
1.1891232
1.1889061
1.1889052
1.188815
1.1887721
1.1888102
1.1887161
1.1888521
1.1887087
1.1901934
1.1900359
1.1893266
1.1893107
1.188948
1.1889617
1.1887794
1.1887749
1.1886955
1.1886553
1.1886894
1.1886068
1.1887475
1.1886192
1.1900911
1.1899353
1.1891617
1.1891304
1.1887982
1.188792
1.1886634
1.1886423
1.1886055
1.1885478
1.1886004
1.1885083
1.1886551
1.1885249
1.1899959
1.1898591
1.1889896
1.1889581
1.1886245
1.1885987
1.1885276
1.1884814
1.188508
1.1884251
1.1885216
1.1884044
1.1885756
1.1884241
1.1899397
1.1898291
1.1888506
1.1888317
1.188417
1.1883798
1.1883329
1.1882685
1.1883502
1.1882476
1.1883906
1.1882476
1.1884468
1.1882678
1.18993
1.1898341
1.1888205
1.1887943
1.1882609
1.1882024
1.1881285
1.1880286
1.188159
1.1880124
1.1882073
1.1880188
1.1882578
1.1880303
1.1899298
1.1898383
1.1888427
1.1888076
1.1882656
1.1881761
1.1880662
1.1879376
1.188057
1.1878893
1.1880923
1.1878909
1.1881273
1.1878941
1.1868666
1.1863242
1.1868198
1.1862597
1.1867722
1.1861958
1.1867237
1.1861243
1.1866704
1.1860358
1.1865934
1.1859042
1.1868203
1.1863023
1.1867794
1.1862391
1.1867415
1.1861794
1.186701
1.186115
1.1866484
1.186029
1.1865723
1.1858988
1.1867571
1.1862013
1.1867178
1.1861482
1.1866823
1.186097
1.1866382
1.1860357
1.186578
1.1859447
1.1865078
1.1858118
1.1866631
1.186078
1.1866224
1.1860204
1.1865842
1.1859641
1.1865328
1.1858951
1.1864624
1.1857878
1.1863864
1.1856454
1.1864949
1.1859056
1.186451
1.1858334
1.186412
1.1857648
1.1863623
1.1856911
1.1862964
1.1855917
1.1862227
1.1854762
1.1861978
1.185598
1.1861553
1.1855206
1.186121
1.1854542
1.1860851
1.1853959
1.1860469
1.1853381
1.1860066
1.1852799
1.185731
1.1851327
1.1856927
1.185058
1.1856658
1.1849984
1.185652
1.1849609
1.185668
1.1849603
1.1857065
1.1849947
1.1850669
1.184544
1.1850356
1.184474
1.1850247
1.1844247
1.1850433
1.1844161
1.1851326
1.1844781
1.1852949
1.1846376
1.1843114
1.183988
1.18429
1.1839304
1.184294
1.1838926
1.1843375
1.1839009
1.1844862
1.1840094
1.1847736
1.1842859
1.1836026
1.1835969
1.1835976
1.1835604
1.1836165
1.1835233
1.1836721
1.1835142
1.1838409
1.1836178
1.1842098
1.1839412
1.1829716
1.1831352
1.1829898
1.1831168
1.1830134
1.1830804
1.1830546
1.1830443
1.1832202
1.1831166
1.1836515
1.1834616
1.1821797
1.1824646
1.1822571
1.1824535
1.1823225
1.1824111
1.1823734
1.1823675
1.1825388
1.182449
1.1830156
1.182843
1.1808098
1.1815188
1.180975
1.1815949
1.1811406
1.1816356
1.1813429
1.1817062
1.1816814
1.18191
1.1822521
1.1823765
1.1801591
1.1814478
1.1804219
1.1816485
1.1806752
1.1817944
1.1809945
1.1819774
1.1814772
1.1823041
1.1822122
1.1828622
1.180424
1.1821281
1.1808043
1.1824412
1.1811549
1.1826813
1.1815521
1.1829332
1.1821006
1.1833038
1.1829058
1.1838777
1.180566
1.182197
1.1809079
1.1825302
1.1812885
1.1828574
1.1817601
1.1832091
1.1824134
1.1836718
1.1833592
1.1843921
1.1823679
1.1838269
1.1825467
1.1839802
1.1827411
1.1841293
1.1830217
1.1843408
1.1835215
1.184758
1.1843796
1.1855482
1.1872056
1.189506
1.1872664
1.189602
1.1872955
1.1896381
1.187317
1.1896343
1.1874393
1.1896773
1.1878546
1.1900245
1.1934003
1.1967936
1.1933982
1.1968704
1.1933231
1.1968283
1.1931926
1.1967115
1.1930853
1.1966236
1.193204
1.1968882
1.1981719
1.2019005
1.1980741
1.20186
1.1978524
1.2016467
1.1974904
1.2012722
1.1970574
1.2008168
1.1967989
1.2007247
1.1996072
1.2023955
1.1993472
1.2020772
1.19892
1.2015479
1.1982287
1.2007279
1.1972841
1.1996069
1.1964012
1.1986402
1.1980716
1.1995074
1.1976618
1.1989442
1.1970894
1.1981878
1.1962013
1.1971217
1.1949325
1.1957078
1.1936843
1.1943506
1.1948338
1.1963314
1.1943877
1.1958227
1.1937819
1.1951607
1.192974
1.1942548
1.1920482
1.1931162
1.1914716
1.1921507
1.1919849
1.1934375
1.1916135
1.1930133
1.191216
1.1925025
1.1907773
1.191881
1.1903676
1.1911987
1.1901944
1.1906984
1.1902213
1.1909437
1.1900486
1.1906736
1.189873
1.1903829
1.1896873
1.190063
1.1894968
1.189739
1.189352
1.1894531
1.1893958
1.1895882
1.1893258
1.1894328
1.189276
1.1893062
1.1892157
1.1891767
1.189108
1.1890101
1.1889698
1.1887804
1.1890918
1.1890018
1.1890742
1.1889222
1.1890751
1.1888701
1.1890568
1.1888072
1.1889737
1.1886869
1.1888329
1.1884886
1.1890096
1.1888105
1.1890081
1.1887572
1.1890208
1.1887276
1.1890115
1.1886828
1.1889448
1.1885823
1.1888411
1.1884324
1.1889545
1.1887463
1.1889631
1.1887114
1.1889801
1.188689
1.1889724
1.1886434
1.1889209
1.188549
1.1888638
1.1884453
1.1888795
1.1886945
1.188896
1.1886812
1.1889159
1.1886748
1.1889082
1.1886371
1.1888691
1.1885526
1.1888522
1.1884799
1.1887956
1.1886257
1.1888263
1.1886267
1.1888527
1.188634
1.1888482
1.1886091
1.1888283
1.1885472
1.188853
1.1885122
1.1887114
1.1885436
1.1887603
1.1885647
1.1888021
1.1885859
1.1888122
1.1885739
1.1888165
1.1885344
1.1888736
1.1885326
1.1886269
1.1884433
1.1886745
1.1884661
1.1887204
1.1884884
1.1887464
1.1884863
1.1887845
1.1884757
1.1888755
1.1885105
1.1884984
1.1882886
1.1885519
1.1883162
1.1886065
1.1883417
1.1886529
1.1883543
1.1887109
1.1883669
1.1888199
1.1884232
1.1883031
1.1880428
1.1883526
1.1880669
1.1884027
1.1880893
1.1884466
1.188102
1.1885037
1.1881143
1.1886147
1.1881723
1.1881544
1.1878928
1.1881904
1.1879024
1.1882291
1.1879123
1.1882674
1.1879199
1.1883137
1.1879235
1.1883925
1.187948
1.1865921
1.185897
1.1866553
1.1859545
1.1866709
1.185964
1.1866603
1.185949
1.1866407
1.1859289
1.1866202
1.1859133
1.1865768
1.185912
1.1866335
1.1859739
1.186645
1.1859802
1.1866354
1.1859651
1.1866194
1.1859465
1.1866021
1.1859314
1.186504
1.1858267
1.1865427
1.1858856
1.1865491
1.1858983
1.186544
1.1858954
1.1865339
1.1858886
1.1865202
1.1858828
1.1863846
1.1856852
1.1864155
1.1857512
1.1864221
1.1857681
1.1864201
1.1857761
1.1864129
1.1857835
1.1864026
1.1857937
1.1862311
1.1855589
1.1862638
1.1856365
1.186274
1.1856632
1.1862766
1.1856813
1.1862742
1.1857002
1.1862709
1.1857217
1.1860393
1.1853922
1.1860897
1.1855186
1.1861085
1.185558
1.1861199
1.1855895
1.1861271
1.1856206
1.1861315
1.1856534
1.1857901
1.1851763
1.1858714
1.185358
1.1859056
1.1854133
1.1859313
1.1854656
1.1859554
1.1855233
1.1859767
1.1855865
1.1854532
1.1849213
1.185574
1.1851387
1.1856305
1.1852254
1.1856753
1.1853019
1.1857267
1.1853929
1.185791
1.1855115
1.1850219
1.1846336
1.1851921
1.1848574
1.1852801
1.1849609
1.1853552
1.1850531
1.1854473
1.1851664
1.1855794
1.1853314
1.1845392
1.1843044
1.1847489
1.1845125
1.1848649
1.1846044
1.1849672
1.1846849
1.185091
1.1847874
1.185277
1.1849394
1.1840431
1.1838067
1.1842799
1.1839616
1.1844163
1.1840115
1.1845424
1.1840478
1.1847032
1.1841282
1.1849449
1.1842829
1.1834265
1.1832185
1.1836573
1.1833656
1.1837739
1.1833942
1.1838876
1.1833991
1.1840691
1.1834498
1.1843792
1.1835753
1.1826397
1.1827961
1.1828101
1.1829825
1.182894
1.1830324
1.1829754
1.1830524
1.1830997
1.1831285
1.1833436
1.1833073
1.1827378
1.1833786
1.1830018
1.1836556
1.1831288
1.1837562
1.1832476
1.1838221
1.1834356
1.1839354
1.1838091
1.1841433
1.1835311
1.1843968
1.18386
1.1847006
1.1840126
1.1848091
1.1841519
1.1848709
1.1843654
1.184981
1.1847384
1.1852229
1.1841043
1.1849979
1.1844488
1.1852941
1.1845856
1.1853824
1.1846921
1.1854095
1.1848495
1.1854619
1.1851392
1.185629
1.1851543
1.1863125
1.1855142
1.1866757
1.1856105
1.1867473
1.1856382
1.1867156
1.1856748
1.1866602
1.1857483
1.1866257
1.1884389
1.1907949
1.1887552
1.1913649
1.1887933
1.1915099
1.1887141
1.1914629
1.1885863
1.1913287
1.1883906
1.1910902
1.1936569
1.1978384
1.1938879
1.198626
1.1938651
1.1988619
1.1936898
1.1988448
1.1934305
1.1987164
1.1930756
1.1984477
1.1970075
1.2016371
1.1971934
1.202621
1.197116
1.202865
1.1968708
1.2028186
1.1965383
1.2026706
1.1961445
1.2024915
1.1961288
1.19882
1.1961886
1.1995034
1.1960627
1.1996038
1.1957679
1.1994546
1.1953818
1.1992147
1.1949963
1.1990148
1.1931802
1.1939376
1.193082
1.1940968
1.1929178
1.1940323
1.1926141
1.1937966
1.1922342
1.1934992
1.1919053
1.1932921
1.1913811
1.191926
1.1912633
1.1919989
1.1911068
1.191901
1.1909046
1.1916617
1.1907191
1.1913969
1.1905665
1.1912275
1.190133
1.1905765
1.1900066
1.1905365
1.1899462
1.1904387
1.1898845
1.1903027
1.1897932
1.1901444
1.1896881
1.1899738
1.1892539
1.1892377
1.189202
1.1891041
1.1891846
1.1890441
1.1891479
1.1889734
1.1890466
1.1888628
1.1888513
1.1887163
1.1888619
1.1885672
1.1887903
1.1884455
1.188763
1.1884033
1.1887203
1.1883675
1.1886
1.188296
1.1883937
1.1881879
1.1887183
1.1883177
1.1885997
1.1882008
1.1885281
1.1881618
1.1884499
1.1881418
1.1883323
1.1880947
1.188174
1.1880132
1.1887581
1.1883313
1.1886149
1.1882356
1.188511
1.1881885
1.1884134
1.1881599
1.1882997
1.1881124
1.1881639
1.1880339
1.188846
1.188416
1.1887437
1.1883472
1.1886379
1.1882825
1.1885208
1.1882265
1.1883913
1.1881614
1.1882493
1.1880763
1.1889132
1.1885009
1.1888747
1.1884601
1.1887755
1.1883815
1.1886393
1.1882899
1.1884897
1.1881951
1.1883356
1.1880968
1.1889748
1.1885798
1.1889775
1.1885606
1.1888774
1.1884713
1.188723
1.1883494
1.1885523
1.1882181
1.1883865
1.188093
1.1890359
1.1886394
1.1890586
1.1886421
1.1889591
1.1885457
1.1888013
1.188411
1.1886226
1.1882626
1.1884477
1.1881173
1.1890619
1.188642
1.1890785
1.1886486
1.188976
1.1885506
1.1888155
1.1884079
1.1886405
1.1882565
1.188474
1.1881139
1.1890133
1.1885639
1.1890018
1.1885502
1.1889022
1.1884594
1.1887644
1.1883327
1.188614
1.1881961
1.1884703
1.1880694
1.1887929
1.1882942
1.1887419
1.1882391
1.1886252
1.1881432
1.1885146
1.1880472
1.188407
1.1879518
1.188304
1.1878642
1.1885083
1.1879958
1.1884031
1.1878863
1.1882901
1.1877964
1.188209
1.1877293
1.1881378
1.1876656
1.1880685
1.1876054
1.1866112
1.1859076
1.1866056
1.1859033
1.1866086
1.1859075
1.1866301
1.1859305
1.1866804
1.185983
1.1867877
1.1861045
1.1871305
1.1865958
1.1865927
1.1859239
1.1865877
1.1859183
1.186592
1.1859201
1.1866138
1.185938
1.1866623
1.1859788
1.1867687
1.1860779
1.1871136
1.1865416
1.1865154
1.1858823
1.18652
1.1858869
1.1865347
1.1858982
1.1865635
1.1859187
1.1866157
1.1859512
1.1867258
1.1860353
1.187071
1.1864794
1.1864056
1.1858081
1.1864212
1.1858264
1.1864461
1.1858481
1.1864823
1.1858721
1.1865392
1.185901
1.1866507
1.185987
1.1869853
1.186445
1.1862824
1.185747
1.1863059
1.1857736
1.1863369
1.1858001
1.1863767
1.185825
1.1864334
1.1858545
1.1865424
1.1859483
1.1868648
1.1864196
1.186146
1.1856862
1.1861714
1.1857173
1.1862021
1.18575
1.1862425
1.1857852
1.1863019
1.1858316
1.186414
1.1859414
1.1867245
1.1864032
1.1859999
1.1856432
1.1860284
1.1856871
1.1860613
1.1857293
1.1861061
1.185781
1.1861741
1.1858511
1.1862958
1.1859822
1.186586
1.1864111
1.1858498
1.1856231
1.1858993
1.185706
1.185948
1.1857724
1.1860088
1.1858389
1.1860921
1.1859199
1.1862273
1.1860684
1.1864883
1.1864555
1.1857141
1.1855053
1.185816
1.1856427
1.1859
1.1857479
1.1859838
1.1858371
1.1860865
1.1859375
1.1862364
1.1861203
1.1864753
1.1865176
1.1854842
1.1851215
1.1856617
1.1852926
1.185817
1.1854663
1.1859594
1.1856395
1.18611
1.1858299
1.1863042
1.1861102
1.1865702
1.1865847
1.185201
1.1844745
1.1854254
1.1846787
1.1856534
1.1849363
1.1858833
1.1852613
1.1861218
1.1856089
1.186413
1.1860411
1.1867443
1.1866276
1.184741
1.1837597
1.1850776
1.1839891
1.1854062
1.1843272
1.1857283
1.1847868
1.1860678
1.185322
1.1864609
1.1859124
1.1868644
1.186611
1.183757
1.183541
1.1842874
1.1838145
1.1848585
1.1841793
1.1853797
1.1846508
1.1858632
1.1852264
1.1863623
1.1858747
1.1868418
1.1865909
1.1842722
1.1843859
1.1846975
1.1846207
1.1851029
1.1848958
1.1855101
1.1852494
1.1859459
1.185702
1.186432
1.1862481
1.1868341
1.1867139
1.1851034
1.1854383
1.1853992
1.1856042
1.1856698
1.1857982
1.1859491
1.1860852
1.1862625
1.186446
1.1865954
1.1867787
1.186758
1.1868549
1.1854402
1.1857919
1.1856904
1.1858989
1.1858827
1.185948
1.1860214
1.1859794
1.1861656
1.1861913
1.1863628
1.1865503
1.1864842
1.1867129
1.1858331
1.1865763
1.1859348
1.1865187
1.1860393
1.1864331
1.1861043
1.1862745
1.1860743
1.1859884
1.1860464
1.185803
1.1862515
1.186381
1.1880811
1.1906365
1.1877446
1.1901003
1.1873855
1.1894486
1.1870657
1.188692
1.1868092
1.1877916
1.1865352
1.1868023
1.1865058
1.1867893
1.1925204
1.1979099
1.1917595
1.1970422
1.190778
1.1957692
1.189626
1.1940761
1.188476
1.1919305
1.1876605
1.18947
1.187471
1.188635
1.1956045
1.2022072
1.1948843
1.2017249
1.1939145
1.2009064
1.1926123
1.1995505
1.1909445
1.1972217
1.1894689
1.1938059
1.1889248
1.1912173
1.1946557
1.1989299
1.1942881
1.1988894
1.1938518
1.1988754
1.1932603
1.1987883
1.1923243
1.1982358
1.1911949
1.1963203
1.1903541
1.1931078
1.1917807
1.1933713
1.1916808
1.1935127
1.1916197
1.1937814
1.1915989
1.1941477
1.1915183
1.1944855
1.1912561
1.1943061
1.1905735
1.1925003
1.1904918
1.1912231
1.1904403
1.1912258
1.1904285
1.1912654
1.1904711
1.1913714
1.1905125
1.1915348
1.190417
1.1915679
1.1898093
1.1907375
1.1895698
1.1898426
1.1894337
1.1897078
1.1893138
1.1895991
1.1892756
1.1895757
1.1892776
1.1896274
1.1892547
1.1896832
1.1889716
1.1895443
1.1886407
1.1885928
1.1884588
1.1884818
1.1883259
1.1884081
1.1882687
1.1883915
1.1882592
1.188423
1.188294
1.1885123
1.1882467
1.1886698
1.188189
1.1880912
1.1880165
1.1880084
1.1878923
1.1879569
1.1878318
1.18793
1.1878326
1.1879195
1.1879357
1.1879946
1.1881194
1.1882491
1.1880242
1.1879361
1.18789
1.1878694
1.1877845
1.1878228
1.1877284
1.1877937
1.1877602
1.187802
1.1879474
1.1879252
1.1883109
1.1882882
1.1880325
1.1879589
1.1879022
1.187885
1.187796
1.1878272
1.187749
1.1877947
1.1878226
1.1878235
1.188081
1.1879903
1.1885497
1.1884423
1.1881084
1.1879937
1.1879605
1.1879048
1.1878541
1.1878373
1.1878311
1.1878152
1.1879507
1.1878768
1.1882612
1.1880966
1.1887796
1.1886257
1.1881849
1.1880044
1.1880309
1.1879073
1.1879448
1.1878458
1.1879585
1.1878486
1.1881203
1.1879577
1.1884639
1.1882296
1.1889923
1.1888095
1.1882357
1.1879876
1.1880942
1.18789
1.1880436
1.1878537
1.188094
1.1878928
1.1882889
1.1880445
1.1886537
1.1883605
1.1891796
1.1889752
1.1882969
1.1880004
1.1881657
1.1879007
1.1881362
1.1878761
1.1882069
1.1879343
1.188421
1.1881127
1.1887974
1.1884612
1.1893205
1.1891018
1.18833
1.1879968
1.1882102
1.187898
1.1881981
1.187885
1.1882836
1.1879577
1.1885127
1.1881573
1.1888972
1.1885289
1.1894218
1.1891874
1.1883449
1.1879675
1.1882398
1.1878802
1.1882354
1.1878762
1.188323
1.1879523
1.1885594
1.1881646
1.1889495
1.1885556
1.1894776
1.1892331
1.1882159
1.1877932
1.1881444
1.1877317
1.1881545
1.1877469
1.1882537
1.187839
1.188507
1.1880728
1.1889224
1.1885019
1.1894699
1.1892219
1.1880092
1.1875591
1.1879564
1.1875148
1.1879806
1.1875391
1.1881068
1.1876559
1.1883978
1.187929
1.1888578
1.1884108
1.1894381
1.1891851
1.1874931
1.1872244
1.1875958
1.1873348
1.1873033
1.1871078
1.1864933
1.1861946
1.1874827
1.1872153
1.1875736
1.1873292
1.1872519
1.1870763
1.1864634
1.1861691
1.1874373
1.1872035
1.1874894
1.1873038
1.1871196
1.1869853
1.1863757
1.1860758
1.1873309
1.1871444
1.1873557
1.187213
1.1869785
1.1868696
1.186282
1.1859646
1.1871829
1.1870428
1.1871944
1.1870734
1.1868415
1.1867367
1.1862018
1.1858599
1.1870045
1.186917
1.1870132
1.1869014
1.1867075
1.1865978
1.1861407
1.1857694
1.1868092
1.1867931
1.186821
1.1867264
1.1865838
1.1864602
1.1861034
1.1856876
1.1866489
1.1867182
1.1866464
1.1865971
1.1864554
1.1862874
1.1860779
1.1855921
1.1865914
1.1867094
1.1865366
1.1865217
1.1863024
1.1860812
1.1860451
1.1854572
1.1866454
1.1867418
1.1865023
1.1864904
1.1861933
1.1859429
1.185997
1.1852739
1.186775
1.1867778
1.1865708
1.1865386
1.1862133
1.1859641
1.1859919
1.1852083
1.1868653
1.1867447
1.1866732
1.1865576
1.1863358
1.1860289
1.1860853
1.1852452
1.186825
1.186675
1.1866359
1.1864897
1.1862803
1.1859719
1.1860052
1.1851412
1.1867602
1.1866672
1.1865384
1.186413
1.1861464
1.1858823
1.1858323
1.1850105
1.1866107
1.1866435
1.1863476
1.1862966
1.1859379
1.1857243
1.185558
1.1848712
1.1863877
1.1865583
1.1861149
1.1861774
1.1856972
1.1855638
1.1852615
1.1847843
1.1863044
1.1865672
1.1860315
1.1862065
1.1855793
1.1855532
1.1851206
1.1848836
1.1865185
1.1869517
1.1861395
1.1864444
1.1856023
1.1857019
1.1851627
1.1851475
1.1872211
1.1880212
1.1864891
1.18691
1.1857673
1.1859696
1.1853749
1.1855249
1.1881535
1.1892908
1.186959
1.1874463
1.1860806
1.1863276
1.1857893
1.1860047
1.1888323
1.1900044
1.1872968
1.1878149
1.1864623
1.1867079
1.1863876
1.186497
1.1887745
1.189771
1.1874413
1.1879318
1.1869588
1.1870601
1.1871519
1.1869769
1.1884934
1.1892499
1.1876847
1.1879912
1.1876091
1.1875141
1.1879081
1.1874925
1.1882663
1.1888674
1.1879554
1.1881193
1.1882378
1.1879527
1.1884587
1.1879153
1.1880112
1.1883813
1.1881487
1.1880835
1.1886965
1.1882224
1.1887746
1.1881901
1.1882336
1.1882034
1.1885902
1.1882404
1.189091
1.1884808
1.1889539
1.1883827
1.1886004
1.1884234
1.1889897
1.1885757
1.1893909
1.1887463
1.1891099
1.1885881
1.1889029
1.1886717
1.1892504
1.1888199
1.1895696
1.18892
1.1892421
1.1887314
1.1891292
1.1888897
1.1894008
1.1889822
1.1896581
1.1890032
1.1893489
1.1888015
1.1892954
1.189065
1.1894781
1.1890801
1.1896795
1.1890188
1.1893759
1.188805
1.189438
1.1892189
1.1895451
1.189166
1.1896752
1.1890132
1.1893379
1.1887498
1.1895546
1.1893389
1.1896215
1.1892415
1.1896967
1.1890202
1.1893029
1.1886865
1.189647
1.1894246
1.189697
1.1893039
1.1897394
1.1890347
1.1893028
1.1886493
1.1897033
1.1894806
1.1897449
1.1893461
1.1897673
1.1890416
1.1893087
1.1886268
1.1897087
1.1894953
1.1897497
1.1893594
1.1897629
1.1890326
1.1892986
1.188606
1.1896881
1.1894827
1.1897315
1.189348
1.1897448
1.1890147
1.1892815
1.1885896
1.1877183
1.1879994
1.1836386
1.1834257
1.1901121
1.1913852
1.1877915
1.1880427
1.1836487
1.1834482
1.1902329
1.1914873
1.1878514
1.1880718
1.1836948
1.1835084
1.1904089
1.1916225
1.187835
1.1880383
1.1837471
1.1835641
1.1905086
1.1917031
1.1877788
1.1879755
1.183787
1.1835957
1.1905626
1.1917561
1.1876829
1.1878798
1.1838146
1.1836147
1.1906083
1.1918098
1.1875577
1.1877589
1.1838437
1.1836398
1.1906577
1.1918724
1.1874114
1.1876194
1.1838924
1.1836902
1.1907095
1.1919453
1.1872494
1.1874632
1.1839723
1.1837754
1.190777
1.1920427
1.1870812
1.1872959
1.1840927
1.183902
1.1908693
1.1921712
1.1869185
1.1871271
1.1842618
1.1840788
1.1909812
1.1923213
1.1867911
1.1869897
1.1844904
1.184323
1.1910963
1.1924775
1.1867586
1.186947
1.1848212
1.1846793
1.191199
1.192584
1.1869263
1.1870868
1.185289
1.1851616
1.1912245
1.19254
1.1873801
1.1874904
1.1858309
1.1857098
1.1911523
1.1922765
1.1879712
1.1880152
1.1862373
1.1861034
1.1908522
1.1917351
1.1883871
1.1883484
1.1864144
1.1862529
1.19039
1.1910263
1.1885228
1.188389
1.1863289
1.1861383
1.1898671
1.1902724
1.1883797
1.1881942
1.1860479
1.1858511
1.1894469
1.1896451
1.1880007
1.187854
1.1856802
1.1854919
1.1891567
1.1891914
1.1874144
1.1873975
1.1851987
1.1850708
1.1887959
1.188715
1.1868176
1.1869664
1.1848283
1.1847757
1.1885064
1.1883366
1.1864766
1.1867274
1.1847851
1.1847411
1.188409
1.1881696
1.1864461
1.1867024
1.1849932
1.1849252
1.1885045
1.1881867
1.186568
1.1867802
1.1853415
1.1852408
1.1887139
1.1883366
1.1866524
1.1868242
1.1857418
1.1856055
1.1889755
1.1885603
1.1866921
1.186847
1.1860176
1.1858708
1.189239
1.1888077
1.1867358
1.1868773
1.1862751
1.1861183
1.1894997
1.1890751
1.1867668
1.1868959
1.1865207
1.1863556
1.189751
1.1893455
1.1867775
1.1868962
1.1867246
1.1865594
1.1899876
1.1896059
1.1867844
1.1868943
1.186883
1.1867157
1.1901882
1.1898177
1.186795
1.1868993
1.1870149
1.1868354
1.1903458
1.1899573
1.1868057
1.1869064
1.1871213
1.1869242
1.1904856
1.1900709
1.1868172
1.1869228
1.1871939
1.1869773
1.1905943
1.190157
1.1868239
1.1869323
1.187206
1.1869712
1.1906335
1.1901908
1.1868464
1.1869557
1.1871805
1.1869408
1.1906055
1.1901748
1.1876045
1.1871667
1.1870305
1.1864931
1.1864424
1.1865368
1.1883758
1.1876495
1.1878926
1.1878088
1.1881496
1.1882734
1.1876714
1.1872007
1.1870577
1.1865181
1.1864644
1.1865579
1.1884897
1.1876858
1.1878725
1.1877638
1.1881024
1.1882296
1.1878231
1.1872636
1.1870776
1.1865088
1.1864334
1.1865188
1.1886883
1.1877589
1.1878351
1.1876395
1.1879615
1.188111
1.1879265
1.187315
1.1870877
1.1864782
1.1863594
1.186426
1.1888121
1.1878103
1.1878104
1.1875173
1.1877975
1.1879675
1.1879974
1.1873533
1.187091
1.186445
1.1862757
1.1863126
1.1888898
1.1878293
1.1877633
1.1873818
1.187602
1.1877816
1.1880596
1.187392
1.1870897
1.1864012
1.1861773
1.1861736
1.188955
1.1878308
1.1876884
1.1872103
1.1873563
1.1875254
1.1881269
1.1874404
1.1870868
1.1863484
1.1860667
1.1860167
1.1890236
1.1878305
1.1875941
1.1870097
1.1870703
1.1872089
1.1881978
1.1874949
1.187076
1.1862833
1.1859431
1.185844
1.1890969
1.1878239
1.1874686
1.1867691
1.1867361
1.1868313
1.18827
1.1875529
1.1870485
1.1861946
1.1857975
1.185651
1.1891706
1.1877942
1.1872853
1.1864572
1.1863253
1.1863718
1.1883346
1.1876078
1.1869955
1.1860744
1.1856205
1.185431
1.1892317
1.187731
1.1870421
1.1860697
1.1858257
1.1858161
1.1883867
1.1876498
1.1869121
1.1859267
1.1854185
1.1851886
1.1892689
1.1876362
1.1867477
1.1856278
1.1852633
1.1851819
1.1883995
1.1876572
1.1868064
1.1857796
1.1852253
1.1849488
1.1892622
1.1875019
1.1864102
1.1851579
1.1846641
1.1844899
1.1883423
1.1876358
1.1867229
1.1856953
1.1851158
1.1847892
1.1891837
1.1873479
1.186092
1.184745
1.1841297
1.1838447
1.1881818
1.1876023
1.1867088
1.1857494
1.185187
1.1848343
1.1890147
1.1872141
1.185891
1.1845325
1.1838358
1.1834523
1.1879937
1.1876202
1.1868479
1.1860478
1.1855668
1.1852368
1.1888755
1.1872208
1.1859733
1.1847267
1.184036
1.1835953
1.1878135
1.1877323
1.1871782
1.1865838
1.1862573
1.1860182
1.1887839
1.1874444
1.186418
1.1853989
1.1848322
1.1844098
1.1877361
1.1879237
1.1875753
1.1871758
1.1870107
1.1869146
1.1887883
1.1877992
1.1870321
1.1862659
1.1858895
1.1855734
1.1877281
1.188161
1.1879556
1.1876929
1.1876351
1.187663
1.1888675
1.1882118
1.1876719
1.1871365
1.1869678
1.1868094
1.1876974
1.188362
1.1882501
1.1880482
1.1880339
1.1881338
1.1889915
1.1886364
1.1882859
1.1879388
1.1879529
1.1879616
1.1876135
1.1884793
1.1884077
1.1882061
1.1881974
1.1883357
1.1891265
1.1890594
1.1888431
1.188618
1.1887602
1.1889258
1.1874207
1.1884894
1.1884355
1.1882508
1.1882601
1.188435
1.1891833
1.1894637
1.1893259
1.1891531
1.1893594
1.1896562
1.1871838
1.1883977
1.1883802
1.1882277
1.1882869
1.1885195
1.1890715
1.1897373
1.1896681
1.1895324
1.18976
1.1901433
1.1870423
1.1883439
1.1883218
1.1881856
1.188306
1.1885952
1.1887483
1.1898543
1.1898645
1.1897885
1.1900339
1.190442
1.1870918
1.1884127
1.1883352
1.1881598
1.1883065
1.1886318
1.1883021
1.1898093
1.1899243
1.1899183
1.1901843
1.1905866
1.1871805
1.188536
1.1883894
1.188141
1.1882787
1.1886195
1.187819
1.189653
1.1898896
1.189964
1.1902529
1.1906348
1.1872068
1.1886351
1.1884421
1.1881278
1.1882355
1.1885723
1.1873525
1.1894316
1.1897918
1.1899458
1.1902595
1.1906299
1.1871698
1.1886934
1.1884792
1.1881197
1.1881873
1.1885069
1.1869309
1.1891986
1.1896662
1.1898873
1.1902226
1.1905914
1.187079
1.18872
1.1885
1.1881174
1.1881524
1.1884483
1.1865482
1.1889837
1.1895432
1.1898149
1.190167
1.1905357
1.1869583
1.1887246
1.1885103
1.1881195
1.1881304
1.1883961
1.1861996
1.1887915
1.1894333
1.1897474
1.1901128
1.1904824
1.1868304
1.1887178
1.188522
1.1881327
1.1881259
1.1883558
1.1858924
1.188628
1.1893427
1.1896944
1.1900721
1.1904405
1.1867086
1.1887101
1.1885435
1.1881613
1.1881447
1.188333
1.1856252
1.1884948
1.1892766
1.1896602
1.1900461
1.1904046
1.1865918
1.1887089
1.1885823
1.1882096
1.188185
1.1883314
1.1853853
1.188387
1.1892354
1.1896428
1.1900278
1.1903675
1.1864771
1.1887193
1.1886382
1.1882749
1.188242
1.1883507
1.1851594
1.1882982
1.1892087
1.1896288
1.190002
1.1903156
1.1863572
1.1887327
1.1886929
1.18834
1.1883054
1.1883874
1.1849254
1.1882115
1.1891752
1.1896019
1.1899524
1.1902385
1.1862349
1.1887259
1.1887156
1.1883754
1.1883488
1.1884193
1.184699
1.1881163
1.1891243
1.1895566
1.1898873
1.1901595
1.1861463
1.188703
1.1887105
1.1883748
1.1883501