/*--------------------------------*- C++ -*----------------------------------*\
| =========                 |                                                 |
| \\      /  F ield         | OpenFOAM: The Open Source CFD Toolbox           |
|  \\    /   O peration     | Version:  2206                                  |
|   \\  /    A nd           | Website:  www.openfoam.com                      |
|    \\/     M anipulation  |                                                 |
\*---------------------------------------------------------------------------*/
FoamFile
{
    version     2.0;
    format      ascii;
    arch        "LSB;label=32;scalar=64";
    class       volScalarField;
    location    "500";
    object      T;
}
// * * * * * * * * * * * * * * * * * * * * * * * * * * * * * * * * * * * * * //

dimensions      [0 0 0 1 0 0 0];

internalField   nonuniform List<scalar> 
50904
(
291.3819
291.62662
292.20598
292.49196
291.37529
291.62579
292.17769
292.47607
291.33269
291.5864
292.02569
292.37069
291.25795
291.48785
291.82422
292.19145
291.19847
291.38609
291.63889
292.00091
291.16638
291.30624
291.47845
291.81597
291.16252
291.2529
291.34709
291.64663
291.18283
291.23948
291.25909
291.51083
291.24029
291.26708
291.23598
291.42752
291.33792
291.34077
291.27269
291.41102
291.47731
291.46446
291.37512
291.46807
291.6624
291.64076
291.54655
291.59457
291.88712
291.8634
291.78555
291.78667
292.12864
292.11572
292.08835
292.05022
292.33211
292.34768
292.4169
292.37343
292.40045
292.44421
292.62837
292.61412
292.31195
292.36684
292.64881
292.66919
292.10587
292.14827
292.56718
292.60305
291.85333
291.86658
292.41928
292.46314
291.66689
291.68837
292.22506
292.29082
291.59021
291.65116
291.9895
292.10858
291.58509
291.71178
291.76748
291.94466
291.63865
291.80504
291.6895
291.96098
291.7007
291.88335
291.69779
292.07805
291.75468
291.93173
291.74267
292.18933
291.79272
291.94937
291.81753
292.27288
291.81195
291.94169
291.89144
292.32271
291.81635
291.91307
291.96017
292.35633
291.80975
291.87311
292.0127
292.37139
291.79678
291.83111
292.04492
292.36129
291.78169
291.79427
292.0529
292.32424
291.76795
291.76572
292.0346
292.26514
291.75649
291.74435
291.99541
292.19333
291.74595
291.7285
291.94326
292.11355
291.73564
291.71571
291.89582
292.04496
291.73125
291.71038
291.87749
292.01956
293.01791
293.10454
293.24285
293.22278
293.23605
293.24429
293.22872
293.24588
293.22463
293.24234
293.22108
293.23958
293.21815
293.23871
292.99266
293.09898
293.24366
293.22591
293.24807
293.24361
293.24075
293.24273
293.23493
293.23712
293.22858
293.2331
293.22201
293.23285
292.86716
293.05185
293.21982
293.22504
293.25594
293.24388
293.25784
293.24426
293.24907
293.24205
293.23974
293.23981
293.23134
293.24022
292.68602
292.95114
293.16691
293.22501
293.24227
293.25722
293.26261
293.26705
293.26574
293.27419
293.2608
293.28113
293.25306
293.28872
292.49054
292.81863
293.08688
293.21965
293.20655
293.27226
293.24509
293.2949
293.26148
293.31219
293.2675
293.32892
293.26764
293.34874
292.28048
292.65578
292.97046
293.18863
293.14586
293.2785
293.20328
293.3152
293.23009
293.34582
293.24425
293.37923
293.25223
293.40358
292.05743
292.45928
292.81231
293.11852
293.05215
293.26828
293.13515
293.33313
293.17185
293.38732
293.19212
293.43283
293.20529
293.46379
291.84204
292.2418
292.60856
292.99366
292.9183
293.23374
293.04264
293.35167
293.10024
293.43493
293.13165
293.49839
293.15136
293.54269
291.66973
292.03669
292.36918
292.79633
292.72982
293.11029
292.90517
293.27295
293.00195
293.37949
293.0591
293.45855
293.09005
293.52176
291.56475
291.87679
292.1518
292.54968
292.49985
292.8375
292.69305
292.97256
292.81865
293.05652
292.91616
293.12436
292.98881
293.18986
291.53215
291.76977
291.97568
292.29398
292.25656
292.52431
292.42472
292.6184
292.53834
292.66711
292.63106
292.70557
292.71877
292.74636
291.54667
291.6998
291.77143
291.9976
291.94717
292.14957
292.06413
292.22079
292.1512
292.26386
292.22775
292.30261
292.30522
292.34583
291.61779
291.68103
291.57403
291.70676
291.62519
291.75543
291.68042
291.78462
291.72961
291.80871
291.77914
291.8379
291.8336
291.87651
291.80774
291.76401
291.52537
291.53145
291.47243
291.48406
291.4657
291.46756
291.47724
291.46732
291.49841
291.47962
291.52776
291.50355
292.1783
292.03567
291.76185
291.58924
291.58718
291.42197
291.50911
291.34813
291.47494
291.31637
291.46105
291.30566
291.45867
291.30843
292.58935
292.46077
292.29837
292.06894
292.10877
291.84401
291.99071
291.71933
291.91701
291.64984
291.86709
291.60927
291.82985
291.5846
292.78793
292.73973
292.69694
292.57415
292.61904
292.4793
292.56892
292.43258
292.53346
292.40753
292.50446
292.38951
292.47768
292.37239
292.78245
292.79199
292.69275
292.69838
292.59382
292.59068
292.53455
292.52649
292.50256
292.49131
292.48481
292.47191
292.47457
292.46109
292.68116
292.73713
292.4458
292.53056
292.17297
292.1945
291.98125
291.92326
291.86356
291.7422
291.79537
291.63013
291.75828
291.56419
292.5127
292.61115
292.13341
292.26326
291.71817
291.73012
291.42735
291.30571
291.24645
291.02218
291.13826
290.84353
291.07539
290.73413
292.30881
292.44438
291.90955
292.06924
291.53177
291.57885
291.28837
291.22412
291.14042
290.99797
291.05078
290.85696
290.99606
290.76942
292.08682
292.25701
291.76141
291.94908
291.50074
291.60332
291.35449
291.37034
291.27155
291.22917
291.22128
291.14301
291.18835
291.08931
291.87137
292.10661
291.59071
291.86353
291.38254
291.62154
291.27197
291.44083
291.21222
291.32078
291.17681
291.24581
291.15324
291.2008
291.71223
292.09319
291.45213
291.90468
291.26717
291.75137
291.16015
291.62065
291.10014
291.52041
291.06604
291.45485
291.04613
291.41794
291.64062
292.17454
291.39557
292.02448
291.24881
291.95169
291.1641
291.89419
291.1196
291.85109
291.09708
291.82521
291.08073
291.81121
291.67414
292.26885
291.43418
292.13948
291.32814
292.11691
291.27136
292.10366
291.24236
292.09266
291.22134
292.07863
291.2022
292.06106
291.76999
292.33673
291.52105
292.20276
291.42365
292.20131
291.3796
292.203
291.36266
292.19835
291.35515
292.19239
291.35207
292.18551
291.88517
292.3836
291.61597
292.19563
291.51243
292.17951
291.47181
292.18301
291.46984
292.19031
291.48599
292.19899
291.50887
292.2096
291.99114
292.41441
291.70918
292.1731
291.59762
292.12036
291.55222
292.10425
291.55368
292.1152
291.58719
292.13725
291.63263
292.15972
292.08539
292.43958
291.78597
292.15662
291.66698
292.06015
291.61691
292.02154
291.60605
292.01596
291.63035
292.04451
291.68616
292.0889
292.16985
292.46088
291.85399
292.15361
291.71533
292.01859
291.65846
291.96468
291.63729
291.93686
291.64061
291.94055
291.67042
291.97621
292.23783
292.47274
291.92623
292.173
291.75675
291.99962
291.68731
291.92721
291.66001
291.89582
291.6539
291.8847
291.66451
291.89931
292.27474
292.4607
292.00891
292.21763
291.80926
292.01582
291.71642
291.92139
291.68161
291.88088
291.67639
291.86973
291.67843
291.88071
292.26893
292.4302
292.09323
292.26628
291.90166
292.09356
291.78284
291.97929
291.73466
291.92761
291.71933
291.91117
291.72244
291.91821
292.2286
292.39806
292.13287
292.27939
292.0289
292.19341
291.94569
292.13303
291.89578
292.09878
291.8711
292.08201
291.86202
292.07773
292.2088
292.38818
292.1221
292.274
292.04878
292.19866
292.05197
292.19435
292.07618
292.22087
292.09393
292.24647
292.10344
292.26488
293.21566
293.24076
293.21362
293.24398
293.21222
293.24959
293.21073
293.2603
293.20949
293.28105
293.2096
293.30338
293.21561
293.23677
293.21066
293.24366
293.20757
293.2531
293.20496
293.26408
293.20221
293.2776
293.19746
293.30424
293.2229
293.24284
293.21762
293.24789
293.21323
293.2568
293.20908
293.26889
293.20423
293.28786
293.20669
293.3499
293.24447
293.29807
293.23757
293.3097
293.23157
293.32249
293.22474
293.33924
293.22309
293.36815
293.23725
293.4288
293.26399
293.36867
293.25889
293.38425
293.25302
293.39867
293.2467
293.41684
293.24545
293.44632
293.25952
293.48774
293.25647
293.41881
293.25798
293.4254
293.25864
293.43181
293.25771
293.44604
293.25729
293.47806
293.26583
293.50919
293.21485
293.47471
293.221
293.47048
293.22624
293.46816
293.22974
293.47436
293.23196
293.49674
293.23564
293.49073
293.16272
293.55948
293.16597
293.54921
293.16616
293.53305
293.16335
293.52016
293.15959
293.51317
293.15088
293.44673
293.10222
293.56893
293.10001
293.58236
293.09172
293.57314
293.07468
293.54797
293.05132
293.50628
293.01559
293.37487
293.02386
293.25969
293.01927
293.31813
293.00171
293.36001
292.9738
293.37664
292.93289
293.34925
292.86359
293.21252
292.81549
292.79566
292.89097
292.84803
292.91506
292.90178
292.88862
292.95009
292.82702
292.95543
292.74433
292.88927
292.39553
292.39917
292.50076
292.45894
292.61489
292.52878
292.70821
292.61377
292.72098
292.67147
292.66567
292.68666
291.90019
291.92858
291.97694
291.9907
292.07181
292.06232
292.2176
292.17916
292.3935
292.36619
292.50536
292.50476
291.56904
291.54169
291.62032
291.5913
291.68155
291.6505
291.77688
291.74155
291.93979
291.90755
292.15121
292.15977
291.46548
291.32338
291.48258
291.35063
291.50757
291.38734
291.55112
291.44738
291.63668
291.56371
291.78403
291.77784
291.79786
291.56879
291.7682
291.55963
291.73902
291.55747
291.70871
291.56481
291.68353
291.58964
291.67783
291.65554
292.44903
292.35338
292.41221
292.33061
292.36258
292.30112
292.28601
292.24652
292.16989
292.1491
292.02522
292.02655
292.466
292.45247
292.45946
292.4466
292.45337
292.44326
292.44378
292.44089
292.42458
292.43788
292.38357
292.43248
291.73775
291.52172
291.72879
291.49548
291.72953
291.48487
291.74113
291.48581
291.77332
291.50305
291.82793
291.54403
291.03436
290.65648
291.00869
290.60026
290.99436
290.56505
290.98493
290.53591
290.9758
290.49642
290.94836
290.39275
290.95638
290.70467
290.92637
290.65405
290.90234
290.61795
290.87255
290.57979
290.81633
290.5137
290.69628
290.34974
291.16103
291.04898
291.13531
291.01463
291.10959
290.98653
291.07247
290.95182
290.99922
290.8902
290.84558
290.75999
291.13179
291.16883
291.10986
291.1428
291.08548
291.12514
291.04649
291.10939
290.96605
291.08819
290.81798
291.04235
291.03055
291.39638
291.01036
291.38145
290.98095
291.37699
290.93737
291.38153
290.87376
291.39294
290.79489
291.39621
291.06354
291.79977
291.03822
291.7789
291.01472
291.75894
290.99052
291.73727
290.96204
291.71125
290.94462
291.69502
291.1829
292.03931
291.16432
292.01376
291.1541
291.99261
291.15028
291.96916
291.15599
291.94305
291.20746
291.93545
291.35128
292.17237
291.35416
292.15412
291.36606
292.14135
291.38614
292.12811
291.42438
292.11313
291.52965
292.10771
291.53063
292.21572
291.55084
292.21465
291.57705
292.21518
291.61039
292.21649
291.66174
292.2154
291.76736
292.21246
291.67176
292.17833
291.7009
292.1959
291.73358
292.2159
291.77223
292.23224
291.82756
292.24459
291.93572
292.25999
291.74974
292.12272
291.79558
292.14478
291.83674
292.17075
291.88015
292.20162
291.93882
292.23403
292.02935
292.27589
291.72726
292.02913
291.80126
292.07853
291.86701
292.12329
291.92324
292.16521
291.979
292.20725
292.05117
292.25133
291.68718
291.931
291.73409
291.9842
291.80798
292.04555
291.88514
292.10445
291.95339
292.15679
292.02818
292.21244
291.69117
291.90193
291.7169
291.93691
291.76422
291.99106
291.83586
292.05522
291.91175
292.11774
291.99753
292.18651
291.7352
291.93666
291.75436
291.96703
291.78459
292.00923
291.8369
292.05943
291.90869
292.11673
291.99237
292.18808
291.86215
292.08047
291.87199
292.09255
291.89267
292.11472
291.92539
292.14251
291.9672
292.18042
292.03016
292.2318
292.10736
292.27648
292.1091
292.2861
292.1102
292.29418
292.11417
292.30425
292.12547
292.31918
292.1533
292.35197
293.21338
293.2982
293.21401
293.28884
293.21045
293.27998
293.20274
293.27162
293.1925
293.26235
293.18061
293.25045
293.21081
293.31624
293.22398
293.31965
293.2323
293.3138
293.23242
293.3046
293.22434
293.29247
293.2087
293.27745
293.24509
293.38029
293.2798
293.37942
293.29345
293.36105
293.28808
293.3364
293.26387
293.30781
293.22221
293.27296
293.27442
293.43023
293.31523
293.40653
293.32431
293.369
293.30202
293.32586
293.2476
293.27447
293.17312
293.21708
293.28992
293.45182
293.31509
293.39001
293.3102
293.34135
293.26487
293.28391
293.18356
293.21421
293.09142
293.14042
293.28019
293.42419
293.28379
293.30996
293.2629
293.26087
293.20312
293.20892
293.11066
293.14299
293.00777
293.06926
293.22824
293.33031
293.20932
293.15848
293.17615
293.11353
293.1161
293.08148
293.03184
293.0464
292.94443
292.99831
293.1138
293.19358
293.07338
292.98764
293.0375
292.9326
292.99149
292.91089
292.93296
292.89651
292.87413
292.88317
292.94233
293.05358
292.8795
292.84033
292.8465
292.77621
292.81906
292.74896
292.79235
292.73882
292.77001
292.74687
292.75293
292.89719
292.67585
292.73829
292.64337
292.69117
292.62377
292.66789
292.60966
292.65551
292.62425
292.66677
292.64177
292.81504
292.56296
292.81535
292.52487
292.80192
292.50733
292.77343
292.49981
292.73942
292.52753
292.71861
292.61019
292.78185
292.56727
292.87797
292.54379
292.89973
292.53075
292.90053
292.52696
292.88846
292.54305
292.8522
292.48159
292.61463
292.4427
292.69175
292.42938
292.70366
292.42941
292.70817
292.43815
292.71309
292.45533
292.71315
292.19669
292.23978
292.16873
292.24864
292.1619
292.24327
292.17008
292.25058
292.19095
292.27275
292.23033
292.31394
291.85577
291.86205
291.85378
291.86321
291.85843
291.8707
291.87397
291.89024
291.90294
291.92532
291.95603
291.98933
291.70251
291.72544
291.72003
291.75764
291.73457
291.77905
291.75311
291.80164
291.78088
291.83237
291.82925
291.88353
291.95642
292.01194
291.94824
292.05583
291.95305
292.08463
291.96136
292.10616
291.97429
292.12835
291.99704
292.15962
292.33904
292.44135
292.3162
292.46092
292.30834
292.47071
292.3056
292.47703
292.3054
292.48278
292.3072
292.48966
291.83482
291.51429
291.82367
291.44921
291.81714
291.41887
291.81841
291.40786
291.82562
291.407
291.8415
291.41653
290.87072
290.12583
290.81622
289.89662
290.80001
289.81939
290.7976
289.78616
290.80272
289.77131
290.8184
289.7702
290.52818
290.03786
290.42886
289.78586
290.39971
289.70916
290.3857
289.67319
290.37583
289.65241
290.36714
289.63848
290.6396
290.54821
290.52057
290.37667
290.48344
290.32231
290.46146
290.29525
290.44129
290.27826
290.41578
290.26454
290.65473
290.93181
290.5764
290.80778
290.55078
290.76739
290.53385
290.75064
290.51924
290.74559
290.50773
290.75025
290.72834
291.3467
290.70271
291.30459
290.70946
291.29788
290.7278
291.3023
290.76127
291.31521
290.84587
291.33923
290.98926
291.70196
291.1008
291.73029
291.18964
291.74985
291.31135
291.76199
291.52392
291.76563
291.74913
291.76491
291.37057
291.95559
291.56693
291.98608
291.68697
291.99807
291.85212
292.00405
292.08019
292.006
292.17339
292.00455
291.72343
292.11642
291.91679
292.1355
292.04916
292.14206
292.17771
292.1461
292.25858
292.14697
292.28941
292.1442
291.95684
292.22136
292.10977
292.23657
292.19193
292.24058
292.26376
292.24278
292.31358
292.24264
292.34107
292.23965
292.08361
292.28591
292.1823
292.3037
292.23851
292.31072
292.2919
292.31411
292.33885
292.31539
292.37042
292.31475
292.13137
292.31103
292.20816
292.33568
292.2572
292.34915
292.30283
292.35948
292.34392
292.36543
292.37644
292.36926
292.13713
292.29804
292.21329
292.33671
292.2611
292.36342
292.3022
292.38097
292.33953
292.39476
292.37084
292.40347
292.1207
292.27513
292.20489
292.32624
292.25467
292.35864
292.29645
292.38797
292.33325
292.41042
292.36498
292.42546
292.10191
292.26349
292.19669
292.32885
292.24753
292.36405
292.2903
292.39161
292.3285
292.41641
292.36208
292.4406
292.10002
292.2734
292.20434
292.35225
292.26061
292.39271
292.30353
292.4224
292.34147
292.44715
292.37579
292.46948
292.13085
292.32133
292.24616
292.41453
292.30823
292.45647
292.34729
292.48134
292.3795
292.50111
292.40775
292.5167
292.20857
292.40283
292.30479
292.47775
292.35064
292.50674
292.37506
292.52341
292.39588
292.53701
292.4186
292.54889
293.16907
293.23764
293.158
293.22504
293.14795
293.21237
293.13968
293.1998
293.13334
293.18725
293.13332
293.17448
293.13942
293.17306
293.19085
293.2571
293.17101
293.23727
293.15123
293.2164
293.13328
293.19552
293.11901
293.17525
293.11225
293.15554
293.11912
293.14774
293.18094
293.23915
293.13785
293.20276
293.09835
293.16575
293.06844
293.13071
293.04907
293.09895
293.04501
293.0702
293.06447
293.07844
293.11319
293.16956
293.05939
293.12528
293.01807
293.08516
292.99134
293.05106
292.98017
293.02173
292.9872
293.00524
293.01656
293.02047
293.03009
293.08823
292.98252
293.04596
292.94831
293.01043
292.93117
292.98324
292.92938
292.96764
292.9442
292.96099
292.9799
292.97943
292.95336
293.01751
292.91928
292.9794
292.89736
292.95147
292.88686
292.93695
292.89033
292.93178
292.91064
292.92928
292.94704
292.9446
292.89983
292.95648
292.87209
292.92761
292.85466
292.90834
292.84722
292.90349
292.86034
292.90798
292.88307
292.90576
292.91457
292.91177
292.84225
292.87333
292.82203
292.86805
292.81292
292.87425
292.82076
292.88914
292.84446
292.89789
292.85997
292.88961
292.88091
292.87928
292.76608
292.78453
292.77727
292.83109
292.80111
292.87088
292.82422
292.88842
292.83466
292.89196
292.83227
292.86988
292.84354
292.84124
292.69133
292.72993
292.75937
292.81142
292.80252
292.86724
292.81982
292.89315
292.81677
292.88191
292.80042
292.84266
292.80828
292.79715
292.65088
292.73634
292.74235
292.78722
292.78604
292.85698
292.79612
292.88714
292.78107
292.85764
292.75816
292.78522
292.78347
292.75743
292.59775
292.80893
292.67408
292.78587
292.72221
292.77845
292.72067
292.76225
292.69439
292.70517
292.68415
292.64273
292.75557
292.72065
292.47939
292.68926
292.51554
292.63998
292.55025
292.57337
292.55558
292.5161
292.55251
292.49604
292.59107
292.53937
292.69255
292.66981
292.28202
292.35762
292.33948
292.39171
292.39181
292.40459
292.41899
292.39876
292.43345
292.41025
292.47063
292.46313
292.57775
292.58525
292.02932
292.07526
292.11692
292.1723
292.21225
292.26127
292.28562
292.30288
292.31727
292.31249
292.33156
292.32659
292.38181
292.40361
291.90019
291.95555
291.99842
292.05044
292.13519
292.18309
292.28365
292.33945
292.36489
292.42127
292.31167
292.32491
292.19176
292.1865
292.03147
292.20012
292.08523
292.25575
292.17593
292.34255
292.31202
292.4763
292.44685
292.63725
292.44312
292.63667
292.11868
292.14247
292.30979
292.49732
292.31256
292.50139
292.31614
292.50351
292.31829
292.49714
292.29783
292.46476
292.17238
292.33437
291.90486
292.0148
291.86733
291.43962
291.9067
291.48239
291.95962
291.54311
292.00968
291.61032
291.98647
291.62603
291.73821
291.46473
291.29729
291.25154
290.85386
289.79144
290.90874
289.83624
290.9951
289.91495
291.11981
290.0389
291.23953
290.20105
291.1478
290.3243
290.71655
290.45534
290.36852
289.63368
290.37801
289.64058
290.40067
289.66435
290.44905
289.71301
290.52789
289.79776
290.56103
289.92951
290.49381
290.34812
290.3922
290.24999
290.37148
290.25174
290.35176
290.26277
290.34392
290.28441
290.37322
290.31717
290.49818
290.41745
290.96873
291.0768
290.50524
290.75948
290.51467
290.78606
290.54567
290.83437
290.63684
290.90937
290.84486
291.0254
291.19646
291.27829
291.7685
291.85538
291.01801
291.36408
291.18753
291.39606
291.3181
291.4389
291.44187
291.50498
291.61825
291.6334
291.87886
291.86668
292.22053
292.22024
291.82241
291.76851
291.86609
291.77847
291.90918
291.8022
291.97412
291.85351
292.07803
291.9507
292.22983
292.11122
292.43231
292.3569
292.17541
292.00645
292.18371
292.01177
292.20645
292.02619
292.24899
292.06013
292.31356
292.12647
292.41178
292.24932
292.54018
292.45404
292.30198
292.14505
292.32142
292.14966
292.34826
292.16301
292.37958
292.19159
292.42512
292.24531
292.4944
292.35245
292.57917
292.53596
292.36105
292.24091
292.38682
292.24686
292.41122
292.26073
292.43638
292.28749
292.47431
292.33777
292.53071
292.43317
292.59339
292.59846
292.39067
292.31733
292.41088
292.32403
292.43128
292.33718
292.45742
292.36269
292.4949
292.40934
292.54652
292.49777
292.60318
292.64465
292.39666
292.37489
292.41499
292.38311
292.43406
292.39426
292.46285
292.41737
292.50446
292.46614
292.55552
292.54696
292.61277
292.67734
292.39131
292.41117
292.41082
292.42098
292.43218
292.43328
292.46455
292.45986
292.51006
292.50856
292.56286
292.58189
292.6218
292.70136
292.38644
292.43621
292.40899
292.44841
292.43217
292.46317
292.46804
292.49174
292.5156
292.53783
292.56992
292.6074
292.63006
292.71973
292.38601
292.45604
292.41305
292.47127
292.43913
292.48721
292.47554
292.51734
292.52329
292.56136
292.57773
292.62919
292.63805
292.73465
292.39998
292.48383
292.42812
292.50028
292.45403
292.5167
292.49056
292.54571
292.53515
292.58728
292.58774
292.65131
292.64627
292.74823
292.42748
292.52733
292.45158
292.54186
292.47575
292.557
292.5114
292.58268
292.55253
292.61882
292.5994
292.67454
292.6531
292.7601
292.43776
292.558
292.45803
292.56758
292.48222
292.58069
292.51791
292.60354
292.55918
292.63664
292.60339
292.6857
292.65415
292.76474
293.16167
293.21474
293.17256
293.22079
293.18307
293.24253
293.19553
293.22318
293.1456
293.19392
293.16495
293.21071
293.18222
293.23938
293.19677
293.22395
293.10239
293.13605
293.13616
293.17069
293.17333
293.22201
293.20533
293.22649
293.06381
293.08853
293.10586
293.13215
293.15728
293.19898
293.21286
293.22477
293.03275
293.04993
293.08092
293.10026
293.14211
293.18009
293.21384
293.22004
293.00336
293.01162
293.05964
293.07161
293.1299
293.16554
293.20893
293.21588
292.97258
292.96994
293.03981
293.04362
293.12103
293.15513
293.20033
293.21472
292.94189
292.93018
293.02141
293.01863
293.11538
293.14818
293.19056
293.21711
292.91604
292.89864
293.00722
293.00197
293.11202
293.14415
293.18046
293.22299
292.89904
292.8802
292.99785
292.99595
293.10885
293.14414
293.16875
293.22974
292.8889
292.87366
292.99277
293.00006
293.10578
293.15069
293.15226
293.23397
292.8713
292.85996
292.98292
293.0004
293.0994
293.15721
293.12567
293.2333
292.81694
292.82021
292.9382
292.96849
293.06568
293.13285
293.07619
293.21191
292.70262
292.72746
292.83075
292.87356
292.97626
293.04531
292.99419
293.14631
292.49044
292.52892
292.62237
292.66783
292.80001
292.85165
292.86866
292.99887
292.2142
292.23651
292.33039
292.36179
292.54286
292.55936
292.70871
292.76594
291.98974
291.99157
292.05533
292.07266
292.27463
292.27413
292.51313
292.51216
291.78841
291.82881
291.86496
291.89168
292.07201
292.09288
292.32713
292.33095
291.42391
291.51177
291.7181
291.8031
291.98312
292.04128
292.2155
292.26383
291.09575
291.19937
291.66492
291.7985
292.02043
292.10843
292.22165
292.30712
291.21129
291.3586
291.84747
291.96443
292.18047
292.27542
292.3282
292.42625
291.76216
291.87615
292.18119
292.25116
292.41248
292.49763
292.47976
292.56211
292.21692
292.26127
292.4471
292.49501
292.58264
292.64393
292.59992
292.65663
292.45941
292.46367
292.5731
292.61601
292.66077
292.7102
292.66827
292.70946
292.57123
292.56284
292.61648
292.66879
292.68927
292.73508
292.70093
292.73602
292.61055
292.6309
292.62775
292.69552
292.70147
292.74555
292.71985
292.75065
292.62157
292.67555
292.63323
292.71169
292.70989
292.75207
292.73351
292.76112
292.62818
292.70645
292.63973
292.72369
292.71628
292.75724
292.74276
292.7686
292.63551
292.73039
292.64706
292.73396
292.72119
292.76146
292.74855
292.77351
292.6441
292.74862
292.65471
292.74263
292.72499
292.76458
292.75158
292.77609
292.65254
292.76216
292.66174
292.74955
292.72782
292.76657
292.75282
292.77686
292.66016
292.77252
292.66769
292.75492
292.72996
292.76755
292.75352
292.77612
292.66678
292.78101
292.67222
292.759
292.73124
292.76748
292.75376
292.77408
292.67259
292.78899
292.67535
292.76255
292.73143
292.76683
292.75311
292.77108
292.67662
292.79552
292.67707
292.76574
292.73085
292.76738
292.75151
292.76957
292.67679
292.79715
292.67728
292.76653
292.73104
292.76809
292.75118
292.77072
291.1751
291.16756
291.38709
291.37643
291.28312
291.32073
291.17388
291.16695
291.39158
291.38148
291.27882
291.31743
291.17765
291.17398
291.40128
291.39328
291.25821
291.30164
291.1927
291.19523
291.42389
291.41869
291.25414
291.30261
291.21497
291.22906
291.46169
291.45708
291.27028
291.31854
291.2471
291.27387
291.50729
291.50195
291.29806
291.34234
291.29348
291.32997
291.55729
291.54971
291.33335
291.37084
291.35788
291.39836
291.60991
291.59889
291.37508
291.40364
291.44164
291.48226
291.66518
291.64948
291.42199
291.44028
291.54557
291.58174
291.72325
291.70158
291.47323
291.4807
291.66954
291.69659
291.784
291.75538
291.52633
291.52293
291.81188
291.82512
291.84743
291.81186
291.57745
291.56289
291.95901
291.95476
291.90899
291.86443
291.61943
291.59147
292.08352
292.06042
291.95366
291.90854
291.63917
291.59877
292.13676
292.10041
291.96424
291.92402
291.64187
291.59011
292.06972
292.0367
291.91958
291.89289
291.62976
291.57486
291.91178
291.9003
291.83323
291.82386
291.61011
291.56396
291.71452
291.73355
291.73104
291.75087
291.59464
291.56093
291.5583
291.59745
291.64792
291.69291
291.58992
291.57071
291.51098
291.54325
291.62088
291.67663
291.59942
291.58809
291.51776
291.54837
291.62294
291.6907
291.61593
291.60872
291.58835
291.59927
291.64941
291.71899
291.65156
291.64624
291.64148
291.66174
291.66566
291.72918
291.70141
291.69536
291.66556
291.70219
291.70214
291.75792
291.75248
291.74834
291.67472
291.71636
291.75756
291.80481
291.79985
291.79717
291.67711
291.7161
291.80937
291.8478
291.83868
291.83644
291.67355
291.70823
291.84164
291.87371
291.86425
291.86398
291.66654
291.69606
291.86086
291.88622
291.87963
291.87988
291.6582
291.68141
291.87215
291.88578
291.88897
291.88522
291.65021
291.66692
291.87763
291.87506
291.89238
291.88163
291.64506
291.65479
291.87935
291.86356
291.88989
291.87284
291.64297
291.64554
291.88012
291.85708
291.88612
291.86475
291.64478
291.64047
291.88218
291.85518
291.88293
291.85904
291.64964
291.63973
291.8872
291.85834
291.87989
291.85458
291.65353
291.6398
291.89773
291.86805
291.87657
291.85073
291.65282
291.63768
291.90522
291.87522
291.87531
291.84977
292.12911
291.50628
291.25682
291.09999
291.03558
291.15517
292.28002
291.49605
291.13344
291.01215
291.24646
291.73535
292.10308
291.50253
291.26288
291.10786
291.04054
291.15252
292.24084
291.48443
291.13737
291.0139
291.2266
291.70264
292.02165
291.48504
291.27891
291.13285
291.05771
291.13646
292.14887
291.45151
291.1452
291.01804
291.15728
291.56811
291.95003
291.4695
291.30015
291.17062
291.08405
291.11223
292.07291
291.42612
291.16094
291.02318
291.08039
291.40138
291.89701
291.46181
291.32336
291.21457
291.11484
291.1019
292.01416
291.41166
291.18227
291.0355
291.03327
291.2673
291.85546
291.46024
291.34725
291.25806
291.15547
291.11226
291.96491
291.40551
291.20651
291.06232
291.02216
291.17497
291.82028
291.46486
291.37283
291.30442
291.20921
291.14597
291.92042
291.40667
291.2357
291.10684
291.03977
291.1212
291.79057
291.47664
291.40274
291.35664
291.27646
291.20107
291.87953
291.41569
291.27229
291.1647
291.08059
291.1076
291.76582
291.49796
291.44077
291.41937
291.35856
291.28026
291.84181
291.43444
291.31991
291.23913
291.14836
291.13533
291.74703
291.53172
291.49376
291.49728
291.45974
291.38836
291.80806
291.46639
291.3845
291.33577
291.25394
291.21643
291.7324
291.58282
291.56807
291.59611
291.58478
291.52845
291.77838
291.51927
291.47532
291.46475
291.40234
291.35244
291.72508
291.65188
291.66839
291.72166
291.73917
291.70572
291.7558
291.60408
291.6084
291.63967
291.60661
291.55365
291.73212
291.7318
291.78825
291.86793
291.91649
291.91465
291.74813
291.72014
291.78366
291.85986
291.86727
291.82188
291.76266
291.81512
291.9125
292.01662
292.09347
292.12888
291.7701
291.8501
291.979
292.10022
292.15576
292.13893
291.79253
291.88388
292.01228
292.13148
292.22567
292.29391
291.79928
291.96904
292.14942
292.30495
292.40454
292.43897
291.8127
291.91694
292.04812
292.16179
292.25342
292.33406
291.82416
292.03396
292.23045
292.39511
292.51673
292.59322
291.82148
291.92616
292.03012
292.11482
292.18041
292.24855
291.83474
292.0599
292.23114
292.38216
292.50028
292.59706
291.83116
291.92669
291.98981
292.02646
292.042
292.07251
291.83968
292.07368
292.18481
292.304
292.40531
292.50363
291.85207
291.93248
291.94347
291.93303
291.89799
291.87811
291.84948
292.10064
292.11307
292.17603
292.2513
292.3495
291.8941
291.94456
291.93316
291.88213
291.80202
291.73368
291.8775
292.12475
292.04462
292.02113
292.04434
292.13878
291.96499
291.95465
291.93946
291.86558
291.75484
291.65303
291.91982
292.13928
292.02501
291.91029
291.84493
291.88797
292.06677
291.99615
291.94739
291.86274
291.74679
291.63022
291.96447
292.16317
292.05901
291.88976
291.73182
291.67897
292.20284
292.03163
291.95271
291.86873
291.76556
291.6534
292.02031
292.17447
292.10299
291.92982
291.71635
291.59695
292.3383
292.06948
291.94922
291.86267
291.78343
291.69629
292.08802
292.17711
292.12955
291.9829
291.75679
291.59393
292.44011
292.09876
291.93701
291.84878
291.791
291.73209
292.16039
292.18901
292.14287
292.02289
291.81212
291.6412
292.51159
292.11339
291.91854
291.82969
291.79068
291.75612
292.23746
292.21072
292.15124
292.04455
291.8591
291.70416
292.5648
292.11313
291.89419
291.80876
291.78292
291.76868
292.31607
292.2368
292.15439
292.05613
291.89233
291.76093
292.6109
292.1079
291.87023
291.78446
291.77084
291.77229
292.39929
292.25759
292.14926
292.05723
291.91206
291.80692
292.65694
292.10634
291.84968
291.76031
291.75624
291.76921
292.48169
292.2773
292.14041
292.05189
291.92246
291.8416
292.70013
292.11123
291.83491
291.73862
291.74127
291.76285
292.55982
292.29355
292.13112
292.04317
291.92573
291.86443
292.74212
292.12203
291.82691
291.72061
291.72741
291.75555
292.63445
292.30732
292.12407
292.03434
291.92414
291.87519
292.78593
292.13568
291.82412
291.70617
291.71533
291.7484
292.70956
292.32036
292.11953
292.02812
291.92092
291.87402
292.83557
292.14763
291.82294
291.69333
291.70471
291.74121
292.78921
292.3332
292.11749
292.02643
291.92063
291.86619
292.88994
292.15057
291.81803
291.67907
291.69394
291.73281
292.87491
292.34542
292.11736
292.02885
291.92469
291.85133
292.92179
292.14264
291.80781
291.6665
291.68353
291.72338
292.93703
292.35401
292.11759
292.03037
291.93091
291.8429