/*--------------------------------*- C++ -*----------------------------------*\
| =========                 |                                                 |
| \\      /  F ield         | OpenFOAM: The Open Source CFD Toolbox           |
|  \\    /   O peration     | Version:  2206                                  |
|   \\  /    A nd           | Website:  www.openfoam.com                      |
|    \\/     M anipulation  |                                                 |
\*---------------------------------------------------------------------------*/
FoamFile
{
    version     2.0;
    format      ascii;
    arch        "LSB;label=32;scalar=64";
    class       volVectorField;
    location    "500";
    object      U;
}
// * * * * * * * * * * * * * * * * * * * * * * * * * * * * * * * * * * * * * //

dimensions      [0 1 -1 0 0 0 0];

internalField   nonuniform List<vector> 
50904
(
(-2.1276451 -0.17328872 -0.26930631)
(-2.3472222 -0.58258916 -0.28550372)
(-3.6554934 2.4817497 0.026487804)
(-4.2442537 1.865648 0.0030981458)
(-6.6583497 1.9203235 -0.13659945)
(-7.3991476 1.1584853 -0.099648881)
(-9.2830203 7.9126139 0.028422061)
(-10.615178 6.6099142 0.051788683)
(-10.891496 4.8197007 -0.33677925)
(-11.934746 4.0372027 -0.26779856)
(-13.055514 11.061156 -0.033578323)
(-14.540589 9.9853136 0.017933326)
(-13.761742 6.033483 -0.51268482)
(-14.900015 5.3230731 -0.40358705)
(-15.536562 11.818365 -0.10366542)
(-16.823014 10.868376 0.010598539)
(-15.353456 6.0328631 -0.70523275)
(-16.611216 5.4318929 -0.56591731)
(-17.351436 11.619323 -0.20158889)
(-18.507058 10.701295 -0.020736092)
(-16.041501 5.704263 -0.91616406)
(-17.461363 5.1093133 -0.76056215)
(-18.655662 11.00395 -0.33319472)
(-19.840785 10.113168 -0.084888184)
(-16.08716 5.2839402 -1.1250505)
(-17.645281 4.626479 -0.97590223)
(-19.379831 10.169184 -0.48630669)
(-20.677635 9.3059605 -0.18692673)
(-15.647087 4.8632934 -1.3314482)
(-17.285365 4.1089126 -1.2113737)
(-19.371193 9.2487228 -0.6426372)
(-20.805561 8.4125682 -0.34232701)
(-14.852172 4.4516673 -1.5300099)
(-16.519805 3.6212813 -1.4588715)
(-18.676174 8.3949219 -0.76685034)
(-20.28876 7.5381487 -0.51169213)
(-13.830294 4.0466672 -1.7100158)
(-15.406645 3.1901748 -1.6935536)
(-17.408116 7.7010031 -0.83885255)
(-19.038343 6.7929632 -0.64459642)
(-12.671881 3.6549149 -1.9184481)
(-14.111262 2.7865312 -1.9516596)
(-15.764934 7.2432658 -0.91706983)
(-17.257081 6.2636675 -0.75999202)
(-11.427647 3.1909757 -2.185486)
(-12.70567 2.3528505 -2.2594065)
(-13.946952 6.87736 -1.0540488)
(-15.246499 5.8519614 -0.91551668)
(-10.183651 2.5120673 -2.5374568)
(-11.285661 1.7553848 -2.6331975)
(-12.149526 6.3912416 -1.3021574)
(-13.252776 5.3768191 -1.1787284)
(-9.0111435 1.4103821 -2.9430687)
(-9.9164912 0.79549036 -3.0475375)
(-10.507853 5.4572433 -1.738597)
(-11.447156 4.5715013 -1.6042329)
(-7.9726266 -0.35047773 -3.1861504)
(-8.6534575 -0.83833351 -3.3245493)
(-9.015505 3.7713955 -2.4099963)
(-9.8613904 3.1461556 -2.2662174)
(-7.2426336 -2.4963977 -2.7841081)
(-7.6779851 -2.9838081 -3.0298127)
(-7.7623663 1.4863769 -3.1099845)
(-8.4926685 1.0588862 -2.9983521)
(-6.9048451 -3.8010897 -1.5861433)
(-7.233038 -4.344713 -1.9601498)
(-6.8029399 -0.72668571 -3.6843948)
(-7.3813992 -1.1200897 -3.6315432)
(-6.8150031 -3.1657395 0.63739494)
(-7.1137751 -3.8407793 0.14527512)
(-6.0702226 -2.4609332 -3.5877929)
(-6.5071946 -2.8923711 -3.6417832)
(-6.9044465 -1.7641218 3.2850013)
(-7.0549758 -2.5039802 2.7080604)
(-5.5116985 -3.3786809 -3.022403)
(-5.8584596 -3.8522089 -3.1732425)
(-6.840739 -0.044016281 5.7826414)
(-6.7554756 -0.81739886 5.2272849)
(-4.96015 -3.2363883 -2.0803927)
(-5.3077273 -3.7763166 -2.2804478)
(-6.4429153 1.8126446 7.8018602)
(-6.1232908 1.1106324 7.3305174)
(-4.110678 -2.0235119 -0.65052247)
(-4.4529068 -2.5715121 -1.0862387)
(-5.7311061 3.3293437 9.030642)
(-5.3241628 2.7503654 8.6801946)
(-3.1335862 0.64171793 1.4709299)
(-3.1481555 0.015220177 0.7687167)
(-5.0039736 4.1125474 9.3795175)
(-4.5730107 3.6602637 9.1122399)
(-2.9825763 4.5545875 3.9159768)
(-2.6358384 4.0587099 3.1071678)
(-4.0186025 4.0709869 8.3545069)
(-3.7466262 3.7088709 8.2745727)
(-3.3861617 8.4778406 5.7446286)
(-3.0316965 8.0998632 4.9769235)
(-2.9584194 3.4496243 6.960646)
(-2.7941064 3.1408493 6.9677793)
(-4.0628644 11.87562 6.590486)
(-4.1269839 11.637751 5.9613047)
(-1.6845719 2.4158337 5.5051435)
(-1.6582187 2.1512356 5.5183468)
(-5.0486179 14.099233 6.5376496)
(-5.408655 14.302955 6.0241318)
(-0.26489894 1.0618502 4.1499441)
(-0.35033537 0.86425719 4.1528562)
(-5.9074958 15.552026 5.710013)
(-6.3264178 15.999973 5.3314054)
(1.2836268 -0.32514704 2.9913866)
(1.0572614 -0.64134165 2.9451511)
(-6.5417626 15.54521 4.7081245)
(-6.7202852 16.395815 4.3538696)
(2.866391 -1.655976 2.0701084)
(2.4702539 -2.1027234 1.9923485)
(-6.8484002 14.587976 3.6085224)
(-6.8468413 15.545691 3.2949959)
(4.3013703 -2.7928829 1.3796404)
(3.8113695 -3.3800488 1.2772539)
(-6.8742844 12.900185 2.6113267)
(-6.7064801 13.724181 2.3300478)
(5.4886728 -3.6456922 0.87432603)
(4.9534356 -4.3510611 0.76845936)
(-6.67788 10.56256 1.7599994)
(-6.3287649 11.041769 1.5168803)
(6.3060232 -4.128587 0.52105632)
(5.7624685 -4.9158924 0.4272331)
(-6.3025323 7.6758959 1.0692781)
(-5.7644871 7.7624456 0.87638744)
(6.5204304 -4.0851952 0.2815044)
(6.0239011 -4.9273979 0.21082388)
(-5.728507 4.4886026 0.55909697)
(-5.023104 4.3589976 0.42933856)
(5.641035 -3.2531344 0.1205679)
(5.2785101 -4.0828415 0.079052147)
(-4.8360253 1.3901062 0.21935059)
(-4.0054419 1.2951245 0.15232848)
(3.3480682 -1.6916276 0.017822148)
(3.1922877 -2.2877579 0.0049428663)
(-3.3385006 -0.65182227 0.057427466)
(-2.6007429 -0.63631456 0.037833844)
(0.96355399 -0.4072498 0.026027949)
(0.95124703 -0.6269922 0.018934784)
(-1.2121385 -0.68166036 -0.067724224)
(-0.8916379 -0.63950019 -0.056456987)
(-3.3113386 2.044249 -0.13940177)
(-3.0876343 0.82460144 -0.13126863)
(-4.197096 3.0845801 -0.058898829)
(-3.9375234 0.98148344 -0.019804735)
(-4.7864555 2.869978 -0.097883892)
(-4.1025002 -0.34503076 -0.093204066)
(-5.3326212 2.9207876 -0.077456648)
(-4.2317222 -1.1583222 -0.053609368)
(-5.6740122 2.862249 -0.076992436)
(-4.0599059 -1.8950205 -0.050521556)
(-5.9087301 2.8449003 -0.072202772)
(-3.7381183 -2.2627676 -0.068673342)
(-6.0672583 2.8330946 -0.072197578)
(-3.4654709 -2.3278609 -0.090718732)
(-8.2662038 8.180906 -0.064346225)
(-8.7345424 5.0053204 -0.090514065)
(-9.4074897 9.7176155 -0.00086937653)
(-9.9602155 4.880354 -0.01008456)
(-10.424224 9.2874418 -0.0016017453)
(-10.22823 3.3404823 0.084257315)
(-11.237001 9.2009749 0.017631547)
(-10.230129 2.8466584 0.21967501)
(-11.811818 9.0593368 0.010467169)
(-10.109107 2.6393325 0.18597575)
(-12.264843 8.9675987 -0.0099081449)
(-9.9397922 2.7432136 -0.021582034)
(-12.621334 8.8936519 -0.04969228)
(-9.6702301 2.9878314 -0.26974402)
(-10.733415 11.638755 -0.059114676)
(-12.009478 8.8196012 -0.25477363)
(-10.174691 12.375991 0.14822456)
(-12.165528 8.1753205 -0.36969478)
(-10.935403 11.935516 0.15694392)
(-12.244475 7.2718412 -0.51595971)
(-11.760728 11.856764 0.16316103)
(-12.139593 7.5425721 -0.65983668)
(-12.409322 11.78439 0.13881935)
(-12.02203 7.9855566 -0.95325392)
(-12.958304 11.753846 0.10158847)
(-11.892977 8.4895559 -1.2765386)
(-13.411116 11.736797 0.039423449)
(-11.723428 8.9543891 -1.586343)
(-12.537 12.422136 -0.0036993696)
(-13.573901 10.422172 -0.35674857)
(-10.181448 13.011882 0.34677138)
(-12.379345 10.003089 -0.87830403)
(-9.8894109 12.722711 0.37243185)
(-12.014785 9.4983283 -1.4022232)
(-10.38097 12.75254 0.32859994)
(-11.71797 9.9187847 -1.853635)
(-11.001475 12.767105 0.25027185)
(-11.35153 10.365533 -2.3261034)
(-11.640399 12.796891 0.16799517)
(-10.903412 10.810725 -2.7348869)
(-12.23161 12.829009 0.067284046)
(-10.353527 11.23814 -3.0533121)
(-14.439608 12.335895 0.020937895)
(-14.899982 10.761126 -0.44358817)
(-10.829498 13.097803 0.53486136)
(-12.302943 10.717681 -1.4556687)
(-9.493882 12.966901 0.57839207)
(-11.397156 10.21717 -2.3953911)
(-9.381457 13.110091 0.45603261)
(-10.644853 10.474283 -3.154098)
(-9.6305704 13.219894 0.27070318)
(-9.6886675 10.818655 -3.7772188)
(-10.024513 13.330812 0.081763878)
(-8.4270909 11.263358 -4.2088174)
(-10.463892 13.424693 -0.11530692)
(-6.7976355 11.774574 -4.4885338)
(-16.521942 11.853374 -0.02953266)
(-16.456051 10.506121 -0.52142433)
(-12.267641 12.875544 0.61812487)
(-12.425279 10.815052 -1.9897074)
(-9.8264038 12.957847 0.71584204)
(-10.744671 10.20182 -3.3905478)
(-9.0147802 13.210958 0.51729913)
(-9.3967246 10.271485 -4.3719277)
(-8.7400453 13.420452 0.18065256)
(-7.5762773 10.560386 -5.0057649)
(-8.6710222 13.608066 -0.18514139)
(-4.9735962 11.090704 -5.3844014)
(-8.6827086 13.766873 -0.56869011)
(-2.3172569 11.769699 -5.6292748)
(-18.565409 11.096723 -0.17544347)
(-18.341432 9.8543626 -0.60019665)
(-14.496523 12.425874 0.50906384)
(-13.27416 10.500011 -2.2252947)
(-11.076719 12.666237 0.66956775)
(-10.343474 9.8003158 -3.9999013)
(-9.3525222 13.047641 0.41874731)
(-8.3099736 9.6877495 -5.0877021)
(-8.3648913 13.375381 -0.041648324)
(-5.6355694 9.9582211 -5.6606481)
(-7.6802869 13.659924 -0.5649394)
(-2.6402249 10.588711 -6.003705)
(-7.1744586 13.92077 -1.1447978)
(0.6365544 11.43152 -6.2617729)
(-20.144258 10.15352 -0.38284901)
(-20.109385 8.8774103 -0.69818204)
(-17.179138 11.737821 0.16063781)
(-15.09324 9.7463492 -2.1197293)
(-13.205732 12.147951 0.32273555)
(-10.917449 9.1487928 -3.8566526)
(-10.515559 12.648865 0.023894661)
(-8.0855637 9.0069455 -5.0037111)
(-8.6966123 13.101515 -0.54455793)
(-5.4384697 9.2963338 -5.6436381)
(-7.3260118 13.550504 -1.2414415)
(-2.5672041 9.9392696 -6.0935698)
(-6.0908074 14.032753 -2.082681)
(0.76166661 10.821068 -6.4862376)
(-20.475557 9.1595797 -0.61454833)
(-20.910374 7.7258288 -0.83078426)
(-19.593803 10.811353 -0.30551022)
(-17.963154 8.6198552 -1.9351936)
(-15.934409 11.398834 -0.23012202)
(-13.573715 8.2593948 -3.2088415)
(-12.653892 12.018464 -0.5479362)
(-10.342032 8.2908499 -4.3031046)
(-9.7849579 12.649444 -1.221125)
(-7.5820344 8.6217077 -5.1425735)
(-7.2927981 13.336183 -2.1460165)
(-4.8106416 9.2343395 -5.8122883)
(-5.1736292 14.047635 -3.2417842)
(-1.6912777 10.050106 -6.3717)
(-19.690316 8.3324232 -0.76836306)
(-20.308535 6.6430022 -0.93088924)
(-20.194562 9.829849 -0.67378629)
(-19.55974 7.2369098 -1.7909031)
(-18.206414 10.347693 -0.70541269)
(-17.195646 6.9268015 -2.6044694)
(-15.853943 10.923148 -0.92077929)
(-14.985774 6.936877 -3.3101241)
(-13.110151 11.571721 -1.4542236)
(-12.825341 7.175953 -4.044064)
(-9.8993932 12.402118 -2.3987719)
(-10.46291 7.7039265 -4.8231084)
(-6.3775081 13.441947 -3.7757261)
(-7.6569433 8.4873523 -5.6482102)
(-17.906301 7.863773 -0.83448486)
(-18.558036 5.8572143 -0.95547365)
(-18.741906 9.258989 -0.79224318)
(-18.515376 5.9691691 -1.5834296)
(-18.091048 9.6412309 -0.94130664)
(-17.558225 5.4678867 -2.224078)
(-17.085981 10.048747 -1.0833321)
(-16.624617 5.3583724 -2.6853067)
(-15.808773 10.446526 -1.336611)
(-15.631511 5.4118013 -3.165571)
(-14.095373 10.933055 -1.79876)
(-14.406577 5.6562275 -3.7359422)
(-11.68081 11.624966 -2.5944606)
(-12.775642 6.1055734 -4.4495496)
(-15.577487 7.6125622 -0.93928633)
(-16.040192 5.3988039 -0.97008811)
(-16.215719 9.0414917 -0.93207948)
(-15.728451 5.2423382 -1.3695529)
(-15.816448 9.4281002 -1.2475761)
(-15.055238 4.6389644 -2.0423705)
(-15.315824 9.8019828 -1.5253101)
(-14.534498 4.4896645 -2.5814134)
(-14.79335 10.098695 -1.8068663)
(-14.071945 4.4699229 -3.059303)
(-14.200126 10.383634 -2.1333784)
(-13.572194 4.5506067 -3.518932)
(-13.331073 10.719656 -2.5615453)
(-12.970477 4.711445 -4.0229839)
(-13.16759 7.3099618 -1.1393744)
(-13.422403 5.0793672 -1.1112966)
(-13.282907 8.852685 -1.1631247)
(-12.562211 4.9855566 -1.425381)
(-12.781352 9.3002673 -1.6271306)
(-11.863996 4.4824447 -2.2185524)
(-12.358972 9.6735562 -2.0506335)
(-11.478159 4.3656933 -2.8993715)
(-12.04656 9.9410627 -2.4420438)
(-11.233196 4.3323335 -3.4488129)
(-11.786459 10.160354 -2.8332341)
(-11.024947 4.3508085 -3.8988848)
(-11.498591 10.373582 -3.2641726)
(-10.77509 4.4154133 -4.3020608)
(-11.098101 6.5886456 -1.5330497)
(-11.212236 4.5573671 -1.498406)
(-10.820436 8.2186719 -1.6198479)
(-9.9198837 4.6871246 -1.9377166)
(-10.158725 8.7173851 -2.1647375)
(-9.0526913 4.360141 -2.8800466)
(-9.6627548 9.0975857 -2.6591351)
(-8.615215 4.3277396 -3.6642122)
(-9.3433728 9.3523604 -3.0964836)
(-8.3720454 4.3391286 -4.2574035)
(-9.1438361 9.5406949 -3.5155617)
(-8.2016874 4.3703544 -4.7046249)
(-9.0052395 9.6999613 -3.960849)
(-8.0394433 4.4202902 -5.0641528)
(-9.4695204 5.1864509 -2.2053083)
(-9.7449792 3.5914622 -2.1952527)
(-9.2025064 7.0473257 -2.3983955)
(-8.7753191 4.1294321 -2.9285068)
(-8.471153 7.6437285 -3.010292)
(-7.949361 3.9267702 -4.1250312)
(-7.8438751 8.0391592 -3.5502684)
(-7.4627376 3.9333949 -5.0606808)
(-7.3872672 8.3000323 -4.0045692)
(-7.1450367 3.9792041 -5.730841)
(-7.0751237 8.4880219 -4.4222971)
(-6.8919251 4.0484595 -6.2241186)
(-6.8471193 8.6410899 -4.8513972)
(-6.6540524 4.1366108 -6.6187908)
(-8.2941889 2.7471652 -2.9316264)
(-8.8747222 1.5601038 -2.8651354)
(-8.7452883 4.4252882 -2.8650189)
(-9.3564938 2.0261819 -3.2021873)
(-8.648142 4.9938179 -3.182815)
(-9.6229351 1.6009958 -4.0689674)
(-8.365951 5.3700727 -3.5218106)
(-9.6927195 1.4150808 -4.8510924)
(-8.0260834 5.6299727 -3.858374)
(-9.6287779 1.3962287 -5.4778564)
(-7.6731892 5.8359732 -4.2146189)
(-9.4550812 1.4786989 -5.9979899)
(-7.3234635 6.0215653 -4.6141334)
(-9.1945009 1.6235163 -6.4595185)
(-7.2251877 0.20183543 -3.4588119)
(-7.8732073 -0.67279663 -3.378061)
(-8.0691958 1.3557088 -2.9401637)
(-9.3811585 -0.34276104 -2.9700932)
(-8.580086 1.7667753 -2.817172)
(-10.790307 -0.80945729 -2.993838)
(-8.8254775 2.0832202 -2.8121416)
(-11.825073 -1.1413226 -3.1919774)
(-8.8593001 2.3214303 -2.8861912)
(-12.453313 -1.2854158 -3.4147797)
(-8.7438221 2.5128487 -3.0273563)
(-12.745591 -1.2962016 -3.6408239)
(-8.5246216 2.6893032 -3.2296505)
(-12.794928 -1.223355 -3.8726706)
(-6.2747511 -1.6873058 -3.8275391)
(-6.872995 -2.463906 -3.8063578)
(-7.1657463 -0.92704327 -2.8539257)
(-8.679134 -2.2881166 -2.9109386)
(-7.9463933 -0.65705705 -2.3803257)
(-10.665488 -2.7305635 -2.4452793)
(-8.4928855 -0.37931738 -2.1485975)
(-12.245921 -3.0680798 -2.2963638)
(-8.7687129 -0.14957918 -2.0584022)
(-13.270268 -3.2673 -2.2855456)
(-8.8337913 0.038770478 -2.0578118)
(-13.832202 -3.3277464 -2.3210555)
(-8.7505976 0.20098367 -2.1203583)
(-14.057029 -3.29337 -2.3797417)
(-5.4399941 -2.7479438 -4.1128596)
(-6.0350314 -3.5185735 -4.1255067)
(-6.3223337 -2.0575324 -2.7240716)
(-7.9690795 -3.3299273 -2.9241658)
(-7.3377154 -1.8768228 -1.8944032)
(-10.319394 -3.8054644 -2.0650528)
(-8.1423323 -1.6687033 -1.4896278)
(-12.196772 -4.2382302 -1.6453688)
(-8.6064353 -1.4811251 -1.299384)
(-13.40219 -4.5106893 -1.4437198)
(-8.7900384 -1.3162377 -1.2231172)
(-14.061125 -4.6243316 -1.3432583)
(-8.7741683 -1.1704677 -1.2155446)
(-14.332702 -4.6193688 -1.2955672)
(-4.5833365 -3.0201367 -4.3622809)
(-5.2979018 -3.7366479 -4.3866391)
(-5.4933951 -2.2147173 -2.5956903)
(-7.3907796 -3.4692761 -2.9841884)
(-6.7781609 -2.0834055 -1.3535871)
(-9.9458236 -3.9712732 -1.7109703)
(-7.8177194 -1.9607253 -0.73879199)
(-11.899399 -4.4528655 -0.9743634)
(-8.4185178 -1.8357697 -0.44116139)
(-13.100268 -4.7563183 -0.55945782)
(-8.6664783 -1.7084919 -0.30029119)
(-13.72942 -4.8604144 -0.31932329)
(-8.6695115 -1.5816932 -0.24565628)
(-13.972899 -4.8417783 -0.17846742)
(-3.4296021 -2.8680072 -4.4315058)
(-4.3201992 -3.483816 -4.3978982)
(-4.2595735 -1.8717633 -2.3857525)
(-6.4830363 -3.1815736 -2.9479138)
(-5.7299731 -1.766493 -0.67707362)
(-9.0556928 -3.7213905 -1.2833803)
(-7.0043316 -1.7365262 0.19282428)
(-10.990725 -4.2689028 -0.21118992)
(-7.7642657 -1.6860771 0.60605907)
(-12.154663 -4.5941614 0.4223066)
(-8.0925247 -1.6060883 0.80048875)
(-12.74636 -4.7102529 0.79871933)
(-8.1205634 -1.500075 0.88146106)
(-12.961963 -4.7053522 1.0249438)
(-1.6786516 -2.4679628 -4.0808925)
(-2.6428972 -2.8969817 -3.9223207)
(-1.9821084 -1.1642155 -2.0111334)
(-4.4763626 -2.6216586 -2.58854)
(-3.04475 -0.83986972 0.27317169)
(-6.5167533 -3.038406 -0.49380376)
(-4.1577443 -0.71406411 1.5429805)
(-8.0560702 -3.4911878 0.99145294)
(-4.8752399 -0.64767493 2.1449699)
(-8.977192 -3.7832327 1.8752466)
(-5.193699 -0.5694371 2.407591)
(-9.4149971 -3.8996327 2.3808047)
(-5.2145488 -0.46438301 2.4934198)
(-9.5171262 -3.8956366 2.6601963)
(0.71069498 -1.342157 -2.981513)
(-0.28882272 -1.5826194 -2.7379744)
(1.0305969 -0.033255176 -1.7398008)
(-1.4810563 -1.6295983 -1.9833156)
(0.92574978 0.60564801 0.67195321)
(-2.5723666 -1.8353004 0.23463006)
(0.65750636 1.0292802 2.3691848)
(-3.342936 -1.9625873 2.1607405)
(0.53262694 1.2702091 3.2899914)
(-3.7373537 -2.0612783 3.3651414)
(0.5718591 1.4474768 3.7048879)
(-3.841539 -2.0808941 4.0234127)
(0.7285143 1.6070401 3.8098216)
(-3.7464895 -2.027581 4.340831)
(2.6173077 1.7731948 -1.191144)
(1.6124404 1.4196482 -0.94240035)
(3.0779269 2.1604678 -1.4354869)
(0.67711421 0.4227038 -1.4574329)
(3.0923678 2.8798683 0.40368292)
(0.048602968 0.11460071 0.28934056)
(2.9049547 3.616207 2.0082061)
(-0.34522077 0.26400059 2.4057744)
(2.7991042 4.1335153 2.9286571)
(-0.49007892 0.37198271 3.9032305)
(2.8338888 4.5301196 3.2712088)
(-0.43626838 0.50765987 4.7265807)
(2.980591 4.8839942 3.1840074)
(-0.2449203 0.67843475 5.0536662)
(2.9338867 7.6801873 0.86714505)
(1.4033101 6.6937108 1.0266844)
(3.7334194 6.6281245 -0.65578715)
(1.0990667 4.196316 -0.41237338)
(3.912832 7.4571024 -0.0092021907)
(0.95803792 3.8281041 0.2574847)
(3.9207256 8.7495624 0.52430995)
(0.87042032 4.5471446 1.6763245)
(3.9625596 9.9226341 0.48856729)
(0.89146489 5.3795329 2.5721516)
(4.1309618 10.781706 -0.18413152)
(1.0645667 6.1359659 2.7256908)
(4.4411817 11.483401 -1.4403894)
(1.4198072 6.7430861 2.2348665)
(2.053409 14.515394 2.4004004)
(-0.31029254 13.06583 2.5927408)
(3.1955702 13.667838 0.26116545)
(-0.086103805 10.750778 0.7247175)
(3.5990475 14.5395 -0.66745828)
(0.25536909 10.693217 -0.17318588)
(3.7514433 15.948537 -1.9074559)
(0.43668842 11.922769 -1.1060175)
(3.8458024 17.158699 -3.524999)
(0.65333038 13.158312 -2.4044331)
(3.9492099 18.052758 -5.4494745)
(0.96055587 14.115934 -3.8662096)
(4.0525149 18.721364 -7.5667276)
(1.338799 14.816432 -5.2991444)
(0.8545142 19.890333 3.1034664)
(-2.1287144 18.549635 3.3271743)
(2.0068415 20.665839 1.0907952)
(-2.1334514 18.017744 1.6385345)
(2.4654092 21.418745 -0.52486261)
(-1.8162545 17.892171 -0.27574846)
(2.6462503 22.196192 -2.5810157)
(-1.6794695 18.514567 -2.3715796)
(2.6894202 22.817857 -4.8654703)
(-1.5921493 19.14543 -4.337898)
(2.6592168 23.248188 -7.1819031)
(-1.4725667 19.573571 -5.9524776)
(2.5820321 23.533368 -9.3399586)
(-1.2699586 19.852367 -7.3849362)
(-0.18964504 23.269748 3.2061181)
(-3.3748456 22.147373 3.3892633)
(0.87532208 25.752195 1.6715105)
(-3.7471075 23.40112 2.2478376)
(1.3739801 26.708652 0.20516086)
(-3.7687008 23.37661 0.47318178)
(1.6075875 26.902499 -1.84269)
(-3.6870737 23.117277 -1.8730755)
(1.6625113 26.848575 -4.2189873)
(-3.6475759 22.943949 -4.0984951)
(1.5814318 26.748232 -6.6740099)
(-3.6371494 22.894457 -5.8630621)
(1.4079872 26.677011 -8.9048735)
(-3.584692 22.922599 -7.253072)
(-0.88455736 25.009399 2.9357669)
(-3.9940363 24.07805 3.066214)
(0.077973754 28.897587 1.8886562)
(-4.6143166 26.788169 2.4462845)
(0.58881136 30.407689 0.86644591)
(-4.9090448 27.376157 1.2345174)
(0.86988803 30.615322 -0.58137774)
(-4.9666993 26.93495 -0.60227881)
(0.97268064 30.245224 -2.4469807)
(-5.0060829 26.228955 -2.6827477)
(0.89961208 29.73985 -4.6854982)
(-5.1077589 25.656864 -4.7353286)
(0.664559 29.302355 -7.0582317)
(-5.2116017 25.367303 -6.3064197)
(-1.1997577 25.593779 2.5015056)
(-4.1073037 24.663444 2.5817109)
(-0.35122111 30.771732 1.8607403)
(-4.9630964 28.882272 2.3754946)
(0.18274303 32.699755 1.1563846)
(-5.3510745 30.055201 1.5960355)
(0.51489566 33.261104 0.27685077)
(-5.4640448 30.038258 0.46181949)
(0.68916233 33.067875 -0.79504683)
(-5.5576436 29.412536 -0.86505675)
(0.68712679 32.602998 -2.2204783)
(-5.7683952 28.660624 -2.5103198)
(0.46635332 32.024666 -4.1647882)
(-6.093247 28.012967 -4.3964277)
(-1.1973779 25.122923 2.0008324)
(-3.810797 23.85379 2.0227041)
(-0.46478566 31.948891 1.7248233)
(-4.9879981 30.121497 2.181836)
(0.081362093 34.138068 1.258372)
(-5.4315373 31.790469 1.7033918)
(0.46654859 34.937571 0.67330976)
(-5.549193 32.167682 0.94625515)
(0.70087127 35.050695 0.057931938)
(-5.6473048 31.957365 0.21097885)
(0.78637333 34.879776 -0.66759213)
(-5.8509968 31.516758 -0.70088723)
(0.68856343 34.561066 -1.7092562)
(-6.2444413 30.968442 -1.9593007)
(-0.98618806 23.25392 1.4636746)
(-3.150095 21.245239 1.4231056)
(-0.34418674 32.436147 1.5101391)
(-4.7794214 30.194683 1.8885364)
(0.17837946 35.110958 1.2875647)
(-5.3958411 32.890503 1.721212)
(0.60120249 36.034243 0.88597179)
(-5.5585101 33.526199 1.1915938)
(0.86953207 36.303336 0.45291953)
(-5.6963889 33.582573 0.69114404)
(0.98829154 36.319108 -0.019237236)
(-5.9202801 33.405223 0.15138886)
(0.95261107 36.213706 -0.60543952)
(-6.288953 33.113474 -0.54937264)
(-0.67978005 19.470486 0.93814019)
(-2.155046 16.616376 0.85166918)
(-0.1041155 31.326046 1.2003504)
(-4.2158681 27.797792 1.4474607)
(0.3338811 35.315032 1.2422573)
(-5.3155905 32.712678 1.6166099)
(0.76950685 36.523412 1.0360041)
(-5.6696454 34.002764 1.3243695)
(1.0316803 36.847599 0.73971687)
(-5.9039669 34.231496 0.99932057)
(1.1261905 36.896492 0.39352488)
(-6.200843 34.126162 0.65224939)
(1.0687753 36.820982 -0.012246783)
(-6.5950875 33.889765 0.23087791)
(-0.34694612 13.45854 0.48430878)
(-1.0261706 10.371673 0.39237214)
(0.10517095 26.541985 0.81085779)
(-3.0317524 21.305629 0.8792682)
(0.27659073 33.014376 1.0829157)
(-4.9167128 28.930966 1.2692891)
(0.63478858 35.375424 1.0859836)
(-5.7813511 32.046151 1.3029363)
(0.85820584 36.108908 0.92680185)
(-6.2454987 32.971493 1.200403)
(0.90322408 36.236264 0.730828)
(-6.6865519 33.119148 1.0739704)
(0.80048831 36.142413 0.50516634)
(-7.1170048 32.965486 0.88821667)
(-0.024958712 5.7631971 0.15882962)
(-0.033129721 3.8053059 0.11307671)
(0.29140409 15.624706 0.31807482)
(-1.1163518 10.975564 0.28965845)
(-0.022174802 23.36001 0.62379032)
(-3.4372659 18.492154 0.58370595)
(-0.04629436 28.143484 0.88480885)
(-4.9117839 23.464548 0.86710184)
(0.04302773 30.392874 0.98152718)
(-5.7288728 25.950867 1.0560853)
(0.06655224 31.339346 0.97673341)
(-6.3815881 27.122055 1.1726686)
(-0.0052828711 31.702067 0.92462663)
(-6.9094487 27.635161 1.2383039)
(0.063026745 0.4859355 -0.10029343)
(0.20294949 0.10466195 -0.077271164)
(0.37964822 3.4253675 -0.041846018)
(0.21691671 2.036897 -0.019128073)
(0.099366917 6.675781 0.025066387)
(-0.56492731 4.5376287 -0.016484871)
(-0.32211219 10.018756 0.14210322)
(-1.4551929 6.9431837 0.035227464)
(-0.59184949 12.653789 0.28227035)
(-2.2179515 9.0290419 0.16576157)
(-0.73096995 14.380686 0.41894716)
(-2.8248363 10.560633 0.31780543)
(-0.80932361 15.481086 0.54392059)
(-3.3110418 11.631152 0.47987521)
(-6.1911145 2.8426648 -0.07318539)
(-3.177922 -2.2888615 -0.1061178)
(-6.2760868 2.8797206 -0.075402973)
(-2.9209315 -2.009702 -0.16263518)
(-6.3293499 2.9103192 -0.078334317)
(-2.6901341 -1.6308469 -0.24443294)
(-6.3638132 2.9707379 -0.080815711)
(-2.4632138 -1.1302364 -0.31382489)
(-6.3841487 3.1377402 -0.088271225)
(-2.4667864 -0.034244077 -0.40049592)
(-6.3098519 3.6973351 -0.071915511)
(-3.1149139 2.5489023 -0.3440576)
(-12.898695 8.8484438 -0.099645598)
(-9.2836114 3.37109 -0.57491553)
(-13.075765 8.8463926 -0.14503615)
(-8.9118059 3.9415422 -0.90064767)
(-13.163225 8.8591272 -0.19362577)
(-8.5448774 4.4097153 -1.1479402)
(-13.151061 8.9259805 -0.24302572)
(-8.1816865 4.9986368 -1.3509651)
(-12.978827 9.1217175 -0.29409041)
(-7.7656154 6.1612552 -1.5026254)
(-12.317885 9.6809256 -0.30157541)
(-6.7096899 8.7264185 -1.3147181)
(-13.769493 11.744034 -0.043894517)
(-11.463898 9.384382 -1.9002959)
(-14.007079 11.778017 -0.12946324)
(-11.13227 9.8741757 -2.179252)
(-14.144008 11.834488 -0.23695167)
(-10.669683 10.257098 -2.3777772)
(-14.17487 11.94831 -0.3525492)
(-9.9766181 10.711168 -2.5275073)
(-14.041953 12.186817 -0.45078901)
(-8.7241406 11.456484 -2.5837832)
(-13.003655 12.720619 -0.48696812)
(-5.2996427 12.907341 -2.1909118)
(-12.746492 12.885767 -0.058950911)
(-9.5887164 11.641331 -3.3080217)
(-13.071101 12.959043 -0.19099998)
(-8.7518356 12.087932 -3.4758124)
(-13.279631 13.054135 -0.35928207)
(-8.0375838 12.437794 -3.571372)
(-13.29418 13.220652 -0.54991936)
(-7.149329 12.844962 -3.6106206)
(-12.948308 13.530966 -0.72458737)
(-5.4969221 13.558782 -3.521385)
(-11.893685 14.112998 -0.86097286)
(-1.2897965 14.788587 -2.9636242)
(-10.89584 13.532695 -0.3297676)
(-5.0086279 12.283686 -4.6833085)
(-11.196298 13.635089 -0.5243455)
(-3.5921832 12.810893 -4.7872543)
(-11.410627 13.753781 -0.73874104)
(-2.6052906 13.198759 -4.8378435)
(-11.448948 13.946649 -0.98239826)
(-1.7677696 13.602513 -4.7952843)
(-11.113355 14.303747 -1.2350971)
(-0.37835331 14.304619 -4.561543)
(-9.9550198 14.956148 -1.4952031)
(3.3550376 15.540383 -3.8779541)
(-8.7154581 13.935688 -0.9731127)
(0.39845218 12.460985 -5.8159581)
(-8.7287931 14.088001 -1.3166106)
(2.3121203 13.115794 -5.8999944)
(-8.7383291 14.240874 -1.6436546)
(3.4855645 13.555519 -5.9878977)
(-8.6740084 14.459279 -1.9696693)
(4.1667849 13.960539 -5.9918047)
(-8.3248449 14.847504 -2.2709746)
(4.9877271 14.653708 -5.7562557)
(-6.9780858 15.59483 -2.5601722)
(7.6375795 16.001162 -5.0860552)
(-6.647259 14.208128 -1.7885634)
(3.9887959 12.304298 -6.47478)
(-6.1357408 14.484597 -2.3491944)
(6.2027171 13.075973 -6.5841494)
(-5.6284123 14.768717 -2.8940382)
(7.4999424 13.596961 -6.7703401)
(-5.0705278 15.100708 -3.4225587)
(8.2530172 14.067325 -6.9496959)
(-4.3960819 15.537597 -3.8324693)
(8.8820722 14.842946 -6.9195942)
(-2.9328772 16.299148 -4.1051685)
(11.002491 16.429873 -6.4608969)
(-4.7945138 14.57347 -3.0532748)
(4.4353636 11.806088 -6.8496645)
(-3.6121282 15.057629 -3.8686118)
(7.1031422 12.698701 -7.0790107)
(-2.4384644 15.517673 -4.6073115)
(8.978412 13.364136 -7.3865847)
(-1.2396917 15.97131 -5.265365)
(10.168102 13.969663 -7.730647)
(-0.046888662 16.456003 -5.7804676)
(11.119494 14.824708 -7.9528132)
(1.6801467 17.205021 -6.1496356)
(13.295292 16.670443 -7.8273097)
(-3.1829471 14.779702 -4.4481589)
(2.0490561 11.017211 -6.8641928)
(-1.4342586 15.434722 -5.4386183)
(5.3863637 12.013511 -7.181633)
(0.36969984 16.069274 -6.3272942)
(8.232379 12.864509 -7.5633696)
(2.3020904 16.718626 -7.2028491)
(10.486126 13.647998 -8.0669708)
(4.2388087 17.336981 -7.8802177)
(12.150211 14.549214 -8.5480109)
(6.5167498 18.080095 -8.3412556)
(14.50161 16.363642 -8.9711617)
(-2.9762434 14.509394 -5.416863)
(-4.000122 9.5247387 -6.5150691)
(-0.39479319 15.412249 -6.7974527)
(-0.044669047 10.690224 -7.0732248)
(1.9850985 16.237043 -8.027433)
(4.0879482 11.829547 -7.4024911)
(4.4085119 17.020824 -9.0298996)
(8.2024392 12.960678 -7.6667755)
(6.8912705 17.730844 -9.7737133)
(11.545688 14.080952 -8.0560242)
(9.744824 18.522262 -10.379297)
(14.415757 15.70304 -9.0934975)
(-8.0010071 12.744016 -4.0023886)
(-10.381446 6.8256752 -5.3938741)
(-3.7694013 14.102367 -5.8346317)
(-7.3160787 7.8311689 -6.4076922)
(0.22745323 15.48042 -7.7669499)
(-3.3340392 9.0760677 -7.3275725)
(3.8605373 16.730375 -9.5802098)
(1.9266099 10.631879 -7.9764382)
(6.9124785 17.6947 -10.832885)
(7.4041457 12.222861 -8.1451533)
(10.090903 18.478561 -11.63412)
(11.584569 13.850988 -8.7060752)
(-11.855539 11.216105 -3.2443473)
(-11.93316 4.9961053 -4.6755048)
(-9.4604656 12.007059 -4.3205939)
(-10.336446 5.5194643 -5.4745328)
(-5.7816768 13.206084 -5.9884683)
(-7.7389279 6.3516318 -6.5427758)
(-0.88645423 14.801753 -8.2469458)
(-3.2575384 7.7487407 -7.8329809)
(3.6845373 16.192457 -10.339822)
(2.2406632 9.345491 -8.4808019)
(7.3344944 17.065627 -11.581199)
(7.0905027 10.679287 -8.5061313)
(-11.03902 10.635579 -3.8198052)
(-10.349136 4.5102366 -4.754163)
(-10.313514 10.974987 -4.4770614)
(-9.7377241 4.709598 -5.2389027)
(-9.0655235 11.452328 -5.3640585)
(-8.7890168 4.9858737 -5.7749881)
(-6.4787348 12.338941 -6.8767009)
(-6.6515859 5.5738432 -6.6172109)
(-2.1456447 13.615821 -9.0074331)
(-2.1151974 6.780425 -7.6919462)
(2.7768089 14.71605 -10.882891)
(3.3958801 7.9274627 -8.0716531)
(-8.8507437 9.8715844 -4.5206403)
(-7.7993248 4.4648493 -5.4267068)
(-8.6116715 10.080057 -5.1726847)
(-7.4567271 4.5787266 -5.7827775)
(-8.2154021 10.329965 -5.9362356)
(-6.9412992 4.7205124 -6.1263621)
(-7.3279561 10.749409 -7.0698851)
(-5.9498489 4.9652152 -6.5796127)
(-5.2093049 11.496408 -8.8078812)
(-3.6451482 5.4985582 -7.2532841)
(-1.087583 12.438597 -10.820924)
(1.1895771 6.4850313 -8.1320013)
(-6.6505244 8.7924811 -5.376113)
(-6.3673927 4.213544 -7.0153564)
(-6.4590442 8.9580013 -5.9842887)
(-6.0406321 4.3478911 -7.4028038)
(-6.2540356 9.1371553 -6.6951556)
(-5.6401695 4.4867044 -7.7873277)
(-5.8883347 9.4101268 -7.7546987)
(-4.9599798 4.6968538 -8.2990315)
(-4.9637944 9.9036578 -9.4643246)
(-3.4786197 5.1279908 -9.1168211)
(-2.4342185 10.688055 -11.688228)
(0.13177879 6.0729207 -10.425478)
(-6.9358059 6.2133215 -5.1261274)
(-8.8307207 1.7740084 -6.9605002)
(-6.4818029 6.4470348 -5.8255979)
(-8.3727959 2.0115068 -7.5800857)
(-5.9878535 6.7173117 -6.7707924)
(-7.8181942 2.2730975 -8.3193902)
(-5.377017 7.0772118 -8.1335592)
(-7.0172989 2.624148 -9.2959453)
(-4.5090087 7.5742285 -9.9905098)
(-5.6806199 3.171319 -10.636361)
(-2.71928 8.3253887 -12.338899)
(-2.9342852 4.1139049 -12.520442)
(-8.19169 2.8703329 -3.5219092)
(-12.661441 -1.1210227 -4.1447379)
(-7.6932042 3.1050734 -3.9917747)
(-12.365899 -0.95089249 -4.4714274)
(-7.020402 3.3968714 -4.7256638)
(-11.904962 -0.7485136 -4.920707)
(-6.0003857 3.8248228 -5.9690814)
(-10.998527 -0.38463373 -5.8131831)
(-4.4780849 4.4549008 -7.9709132)
(-9.2391325 0.30860747 -7.5439985)
(-2.2690514 5.2632695 -10.580002)
(-6.2357793 1.4513362 -10.293324)
(-8.5377429 0.36864368 -2.2396594)
(-14.070791 -3.2159833 -2.4636165)
(-8.1917055 0.56173653 -2.4251131)
(-13.914962 -3.0783125 -2.5824167)