/*--------------------------------*- C++ -*----------------------------------*\
| =========                 |                                                 |
| \\      /  F ield         | OpenFOAM: The Open Source CFD Toolbox           |
|  \\    /   O peration     | Version:  2206                                  |
|   \\  /    A nd           | Website:  www.openfoam.com                      |
|    \\/     M anipulation  |                                                 |
\*---------------------------------------------------------------------------*/
FoamFile
{
    version     2.0;
    format      ascii;
    arch        "LSB;label=32;scalar=64";
    class       volVectorField;
    location    "500";
    object      Urel;
}
// * * * * * * * * * * * * * * * * * * * * * * * * * * * * * * * * * * * * * //

dimensions      [0 1 -1 0 0 0 0];

internalField   nonuniform List<vector> 
50904
(
(-2.1288491 -0.16861533 -0.26930631)
(-2.3483998 -0.57800261 -0.28550372)
(-3.6565976 2.4864104 0.026487804)
(-4.2453362 1.87023 0.0030981458)
(-6.6595564 1.9249969 -0.13659945)
(-7.4003278 1.1630717 -0.099648881)
(-9.2841267 7.9172747 0.028422061)
(-10.616263 6.6144961 0.051788683)
(-10.892706 4.8243742 -0.33677925)
(-11.935929 4.041789 -0.26779856)
(-13.056623 11.065817 -0.033578323)
(-14.541676 9.9898954 0.017933326)
(-13.762956 6.0381565 -0.51268482)
(-14.901203 5.3276592 -0.40358705)
(-15.537675 11.823026 -0.10366542)
(-16.824105 10.872958 0.010598539)
(-15.354676 6.0375367 -0.70523275)
(-16.612409 5.4364787 -0.56591731)
(-17.352553 11.623984 -0.20158889)
(-18.508153 10.705877 -0.020736092)
(-16.042727 5.7089366 -0.91616406)
(-17.462562 5.1138988 -0.76056215)
(-18.656785 11.008611 -0.33319472)
(-19.841886 10.117749 -0.084888184)
(-16.088395 5.2886139 -1.1250505)
(-17.646488 4.6310641 -0.97590223)
(-19.380961 10.173846 -0.48630669)
(-20.678742 9.3105417 -0.18692673)
(-15.648332 4.8679673 -1.3314482)
(-17.286583 4.1134972 -1.2113737)
(-19.372331 9.2533847 -0.6426372)
(-20.806677 8.4171492 -0.34232701)
(-14.85343 4.4563413 -1.5300099)
(-16.521035 3.6258653 -1.4588715)
(-18.677323 8.3995843 -0.76685034)
(-20.289886 7.5427295 -0.51169213)
(-13.831568 4.0513415 -1.7100158)
(-15.407891 3.1947581 -1.6935536)
(-17.409278 7.7056663 -0.83885255)
(-19.039482 6.7975438 -0.64459642)
(-12.673174 3.6595896 -1.9184481)
(-14.112526 2.7911137 -1.9516596)
(-15.766112 7.2479302 -0.91706983)
(-17.258235 6.2682481 -0.75999202)
(-11.428964 3.195651 -2.185486)
(-12.706956 2.357432 -2.2594065)
(-13.948149 6.882026 -1.0540488)
(-15.247671 5.8565421 -0.91551668)
(-10.184995 2.5167436 -2.5374568)
(-11.286974 1.7599653 -2.6331975)
(-12.150745 6.3959102 -1.3021574)
(-13.25397 5.3814003 -1.1787284)
(-9.0125207 1.4150601 -2.9430687)
(-9.9178357 0.8000701 -3.0475375)
(-10.509098 5.4619156 -1.738597)
(-11.448374 4.5760839 -1.6042329)
(-7.9740418 -0.3457967 -3.1861504)
(-8.6548383 -0.83375386 -3.3245493)
(-9.0167792 3.7760737 -2.4099963)
(-9.8626366 3.1507408 -2.2662174)
(-7.2440874 -2.4917121 -2.7841081)
(-7.6794026 -2.9792274 -3.0298127)
(-7.7636689 1.4910627 -3.1099845)
(-8.4939415 1.0634754 -2.9983521)
(-6.906334 -3.7963979 -1.5861433)
(-7.2344887 -4.3401298 -1.9601498)
(-6.8042665 -0.72199088 -3.6843948)
(-7.382695 -1.1154951 -3.6315432)
(-6.8165233 -3.1610395 0.63739494)
(-7.1152553 -3.8361916 0.14527512)
(-6.0715687 -2.456228 -3.5877929)
(-6.5085085 -2.8877697 -3.6417832)
(-6.9059923 -1.7594115 3.2850013)
(-7.0564803 -2.4993859 2.7080604)
(-5.513057 -3.373964 -3.022403)
(-5.8597853 -3.8475993 -3.1732425)
(-6.8423057 -0.039294235 5.7826414)
(-6.7570002 -0.81279634 5.2272849)
(-4.9615156 -3.2316584 -2.0803927)
(-5.3090598 -3.7716974 -2.2804478)
(-6.4445022 1.8173788 7.8018602)
(-6.1248348 1.1152436 7.3305174)
(-4.1120496 -2.0187685 -0.65052247)
(-4.454245 -2.5668827 -1.0862387)
(-5.7327164 3.3340891 9.030642)
(-5.3257289 2.7549843 8.6801946)
(-3.1349677 0.64647487 1.4709299)
(-3.1495029 0.019859651 0.7687167)
(-5.0056089 4.1173012 9.3795175)
(-4.5746004 3.6648881 9.1122399)
(-2.9839715 4.559356 3.9159768)
(-2.6371987 4.0633578 3.1071678)
(-4.0202597 4.075746 8.3545069)
(-3.7482365 3.7134983 8.2745727)
(-3.3875708 8.4826179 5.7446286)
(-3.0330697 8.1045173 4.9769235)
(-2.9600954 3.4543863 6.960646)
(-2.7957347 3.1454779 6.9677793)
(-4.0642867 11.880404 6.590486)
(-4.1283697 11.64241 5.9613047)
(-1.6862641 2.4205969 5.5051435)
(-1.6598624 2.1558643 5.5183468)
(-5.0500525 14.104022 6.5376496)
(-5.4100524 14.307617 6.0241318)
(-0.26660477 1.0666137 4.1499441)
(-0.3519922 0.86888525 4.1528562)
(-5.9089414 15.556818 5.710013)
(-6.3278257 16.004637 5.3314054)
(1.2819096 -0.32038376 2.9913866)
(1.0555935 -0.63671453 2.9451511)
(-6.5432179 15.550005 4.7081245)
(-6.7217024 16.40048 4.3538696)
(2.8646642 -1.6512132 2.0701084)
(2.4685767 -2.0980973 1.9923485)
(-6.8498639 14.592773 3.6085224)
(-6.8482665 15.550357 3.2949959)
(4.2996357 -2.7881208 1.3796404)
(3.8096847 -3.3754238 1.2772539)
(-6.8757551 12.904984 2.6113267)
(-6.707912 13.728848 2.3300478)
(5.4869318 -3.6409308 0.87432603)
(4.9517447 -4.3464371 0.76845936)
(-6.6793565 10.56736 1.7599994)
(-6.3302023 11.046437 1.5168803)
(6.3042771 -4.1238262 0.52105632)
(5.7607726 -4.9112692 0.4272331)
(-6.3040135 7.6806964 1.0692781)
(-5.765929 7.7671135 0.87638744)
(6.5186802 -4.080435 0.2815044)
(6.0222012 -4.9227755 0.21082388)
(-5.729992 4.4934037 0.55909697)
(-5.0245496 4.3636657 0.42933856)
(5.6392815 -3.2483747 0.1205679)
(5.276807 -4.0782197 0.079052147)
(-4.8375134 1.3949078 0.21935059)
(-4.0068904 1.2997928 0.15232848)
(3.3463121 -1.6868682 0.017822148)
(3.1905821 -2.2831366 0.0049428663)
(-3.3399912 -0.64702032 0.057427466)
(-2.6021938 -0.6316461 0.037833844)
(0.96179585 -0.40249074 0.026027949)
(0.94953938 -0.62237126 0.018934784)
(-1.213631 -0.6768581 -0.067724224)
(-0.89309065 -0.63483162 -0.056456987)
(-3.3123532 2.0488983 -0.13940177)
(-3.0886327 0.82917961 -0.13126863)
(-4.1980455 3.0892224 -0.058898829)
(-3.9384594 0.98605925 -0.019804735)
(-4.7873823 2.8746187 -0.097883892)
(-4.1034132 -0.34045483 -0.093204066)
(-5.333536 2.9254275 -0.077456648)
(-4.232623 -1.1537461 -0.053609368)
(-5.6749198 2.8668885 -0.076992436)
(-4.0607995 -1.8904442 -0.050521556)
(-5.9096329 2.8495395 -0.072202772)
(-3.7390071 -2.2581911 -0.068673342)
(-6.0681574 2.8377336 -0.072197578)
(-3.466356 -2.3232842 -0.090718732)
(-8.2672202 8.1855554 -0.064346225)
(-8.7355425 5.0098985 -0.090514065)
(-9.4084406 9.7222579 -0.00086937653)
(-9.9611529 4.8849298 -0.01008456)
(-10.425152 9.2920826 -0.0016017453)
(-10.229144 3.3450582 0.084257315)
(-11.237917 9.2056149 0.017631547)
(-10.231031 2.8512345 0.21967501)
(-11.812727 9.0639764 0.010467169)
(-10.110002 2.6439088 0.18597575)
(-12.265747 8.972238 -0.0099081449)
(-9.9406821 2.7477901 -0.021582034)
(-12.622234 8.898291 -0.04969228)
(-9.6711163 2.9924081 -0.26974402)
(-10.734434 11.643404 -0.059114676)
(-12.01048 8.8241793 -0.25477363)
(-10.175644 12.380634 0.14822456)
(-12.166467 8.1798963 -0.36969478)
(-10.936333 11.940157 0.15694392)
(-12.245391 7.2764171 -0.51595971)
(-11.761645 11.861404 0.16316103)
(-12.140496 7.5471482 -0.65983668)
(-12.410232 11.78903 0.13881935)
(-12.022926 7.990133 -0.95325392)
(-12.959209 11.758485 0.10158847)
(-11.893868 8.4941324 -1.2765386)
(-13.412018 11.741436 0.039423449)
(-11.724316 8.9589658 -1.586343)
(-12.538021 12.426786 -0.0036993696)
(-13.574906 10.42675 -0.35674857)
(-10.182403 13.016525 0.34677138)
(-12.380286 10.007665 -0.87830403)
(-9.8903425 12.727352 0.37243185)
(-12.015703 9.5029042 -1.4022232)
(-10.381889 12.75718 0.32859994)
(-11.718875 9.9233608 -1.853635)
(-11.002387 12.771745 0.25027185)
(-11.352428 10.370109 -2.3261034)
(-11.641306 12.801531 0.16799517)
(-10.904305 10.815302 -2.7348869)
(-12.232513 12.833648 0.067284046)
(-10.354416 11.242717 -3.0533121)
(-14.440633 12.340545 0.020937895)
(-14.90099 10.765704 -0.44358817)
(-10.830456 13.102446 0.53486136)
(-12.303887 10.722257 -1.4556687)
(-9.4948161 12.971542 0.57839207)
(-11.398076 10.221746 -2.3953911)
(-9.3823787 13.114732 0.45603261)
(-10.645761 10.478859 -3.154098)
(-9.6314848 13.224534 0.27070318)
(-9.6895677 10.823231 -3.7772188)
(-10.025422 13.335452 0.081763878)
(-8.4279861 11.267935 -4.2088174)
(-10.464798 13.429333 -0.11530692)
(-6.798527 11.779151 -4.4885338)
(-16.522971 11.858024 -0.02953266)
(-16.457064 10.510699 -0.52142433)
(-12.268602 12.880187 0.61812487)
(-12.426226 10.819628 -1.9897074)
(-9.8273411 12.962489 0.71584204)
(-10.745594 10.206396 -3.3905478)
(-9.0157049 13.215599 0.51729913)
(-9.3976351 10.276061 -4.3719277)
(-8.7409626 13.425092 0.18065256)
(-7.5771803 10.564962 -5.0057649)
(-8.6719345 13.612706 -0.18514139)
(-4.9744942 11.095281 -5.3844014)
(-8.6836171 13.771513 -0.56869011)
(-2.3181512 11.774276 -5.6292748)
(-18.566444 11.101373 -0.17544347)
(-18.34245 9.8589404 -0.60019665)
(-14.497488 12.430517 0.50906384)
(-13.275112 10.504587 -2.2252947)
(-11.07766 12.670879 0.66956775)
(-10.344401 9.8048917 -3.9999013)
(-9.3534507 13.052282 0.41874731)
(-8.3108877 9.6923257 -5.0877021)
(-8.3658122 13.380022 -0.041648324)
(-5.6364759 9.9627975 -5.6606481)
(-7.6812028 13.664565 -0.5649394)
(-2.6411264 10.593288 -6.003705)
(-7.1753707 13.92541 -1.1447978)
(0.63565666 11.436097 -6.2617729)
(-20.1453 10.158171 -0.38284901)
(-20.11041 8.8819881 -0.69818204)
(-17.180109 11.742465 0.16063781)
(-15.094197 9.750925 -2.1197293)
(-13.206678 12.152594 0.32273555)
(-10.918381 9.1533689 -3.8566526)
(-10.516492 12.653507 0.023894661)
(-8.0864823 9.011522 -5.0037111)
(-8.6975377 13.106157 -0.54455793)
(-5.4393806 9.3009105 -5.6436381)
(-7.3269321 13.555145 -1.2414415)
(-2.5681099 9.9438466 -6.0935698)
(-6.0917239 14.037394 -2.082681)
(0.76076462 10.825645 -6.4862376)
(-20.476607 9.1642313 -0.61454833)
(-20.911407 7.7304067 -0.83078426)
(-19.594781 10.815998 -0.30551022)
(-17.964117 8.6244313 -1.9351936)
(-15.935361 11.403478 -0.23012202)
(-13.574653 8.2639713 -3.2088415)
(-12.654831 12.023107 -0.5479362)
(-10.342956 8.2954268 -4.3031046)
(-9.7858888 12.654087 -1.221125)
(-7.5829507 8.6262849 -5.1425735)
(-7.2937239 13.340825 -2.1460165)
(-4.8115527 9.2389169 -5.8122883)
(-5.1745511 14.052277 -3.2417842)
(-1.692185 10.054684 -6.3717)
(-19.691376 8.337076 -0.76836306)
(-20.309578 6.6475804 -0.93088924)
(-20.195548 9.8344955 -0.67378629)
(-19.560711 7.2414866 -1.7909031)
(-18.207374 10.352338 -0.70541269)
(-17.196591 6.9313788 -2.6044694)
(-15.854889 10.927793 -0.92077929)
(-14.986705 6.9414547 -3.3101241)
(-13.111089 11.576365 -1.4542236)
(-12.826264 7.1805311 -4.044064)
(-9.9003257 12.406762 -2.3987719)
(-10.463828 7.7085048 -4.8231084)
(-6.3784367 13.446591 -3.7757261)
(-7.6578571 8.4919309 -5.6482102)
(-17.907374 7.8684276 -0.83448486)
(-18.559091 5.8617931 -0.95547365)
(-18.742901 9.2636378 -0.79224318)
(-18.516357 5.9737469 -1.5834296)
(-18.092016 9.6458786 -0.94130664)
(-17.559179 5.4724653 -2.224078)
(-17.086935 10.053394 -1.0833321)
(-16.625556 5.3629515 -2.6853067)
(-15.809719 10.451173 -1.336611)
(-15.632442 5.4163808 -3.165571)
(-14.096314 10.937702 -1.79876)
(-14.407502 5.6608074 -3.7359422)
(-11.681747 11.629613 -2.5944606)
(-12.776564 6.1101535 -4.4495496)
(-15.578575 7.6172194 -0.93928633)
(-16.041261 5.4033837 -0.97008811)
(-16.216726 9.0461439 -0.93207948)
(-15.729444 5.2469178 -1.3695529)
(-15.817427 9.4327515 -1.2475761)
(-15.056202 4.643545 -2.0423705)
(-15.316789 9.8066338 -1.5253101)
(-14.535447 4.4942459 -2.5814134)
(-14.794306 10.103346 -1.8068663)
(-14.072886 4.4745047 -3.059303)
(-14.201077 10.388285 -2.1333784)
(-13.573129 4.5551889 -3.518932)
(-13.33202 10.724307 -2.5615453)
(-12.971408 4.7160275 -4.0229839)
(-13.168695 7.314623 -1.1393744)
(-13.423489 5.0839489 -1.1112966)
(-13.283928 8.8573423 -1.1631247)
(-12.563217 4.9901391 -1.425381)
(-12.782344 9.3049242 -1.6271306)
(-11.864972 4.4870287 -2.2185524)
(-12.359949 9.678213 -2.0506335)
(-11.47912 4.3702782 -2.8993715)
(-12.047528 9.9457195 -2.4420438)
(-11.234148 4.336919 -3.4488129)
(-11.787421 10.165011 -2.8332341)
(-11.025893 4.3553945 -3.8988848)
(-11.499549 10.378239 -3.2641726)
(-10.776032 4.4199996 -4.3020608)
(-11.099227 6.5933125 -1.5330497)
(-11.213342 4.5619519 -1.498406)
(-10.821475 8.2233366 -1.6198479)
(-9.9209068 4.6917117 -1.9377166)
(-10.159733 8.72205 -2.1647375)
(-9.0536828 4.3647301 -2.8800466)
(-9.6637463 9.1022509 -2.6591351)
(-8.6161901 4.33233 -3.6642122)
(-9.344355 9.3570258 -3.0964836)
(-8.3730111 4.3437198 -4.2574035)
(-9.1448124 9.5453604 -3.5155617)
(-8.2026472 4.3749461 -4.7046249)
(-9.0062118 9.7046268 -3.960849)
(-8.0403992 4.4248823 -5.0641528)
(-9.4706708 5.1911262 -2.2053083)
(-9.7461087 3.5960517 -2.1952527)
(-9.2035672 7.052001 -2.3983955)
(-8.7763625 4.1340258 -2.9285068)
(-8.4721797 7.6484049 -3.010292)
(-7.9503703 3.9313668 -4.1250312)
(-7.844884 8.0438364 -3.5502684)
(-7.4637292 3.9379933 -5.0606808)
(-7.3882661 8.30471 -4.0045692)
(-7.1460182 3.9838035 -5.730841)
(-7.0761164 8.4926998 -4.4222971)
(-6.8929005 4.0530595 -6.2241186)
(-6.8481078 8.6457679 -4.8513972)
(-6.6550237 4.1412113 -6.6187908)
(-8.2953632 2.7518508 -2.9316264)
(-8.8758741 1.5646995 -2.8651354)
(-8.7463709 4.429976 -2.8650189)
(-9.3575575 2.0307837 -3.2021873)
(-8.6491877 4.9985079 -3.182815)
(-9.6239622 1.6056015 -4.0689674)
(-8.3669775 5.374764 -3.5218106)
(-9.6937276 1.4196886 -4.8510924)
(-8.0270991 5.6346648 -3.858374)
(-9.6297753 1.4008378 -5.4778564)
(-7.6741984 5.8406657 -4.2146189)
(-9.4560722 1.4833088 -5.9979899)
(-7.3244685 6.026258 -4.6141334)
(-9.1954877 1.6281267 -6.4595185)
(-7.2263821 0.20653225 -3.4588119)
(-7.8743778 -0.66819374 -3.378061)
(-8.0702977 1.3604095 -2.9401637)
(-9.38224 -0.33815063 -2.9700932)
(-8.5811486 1.771479 -2.817172)
(-10.79135 -0.80484237 -2.993838)
(-8.8265197 2.0879257 -2.8121416)
(-11.826096 -1.1367051 -3.1919774)
(-8.860331 2.3261368 -2.8861912)
(-12.454325 -1.2807969 -3.4147797)
(-8.7448463 2.5175557 -3.0273563)
(-12.746596 -1.2915818 -3.6408239)
(-8.5256415 2.6940105 -3.2296505)
(-12.795929 -1.2187347 -3.8726706)
(-6.2759618 -1.6825972 -3.8275391)
(-6.8741804 -2.4592951 -3.8063578)
(-7.1668647 -0.92232987 -2.8539257)
(-8.6802307 -2.2834975 -2.9109386)
(-7.9474708 -0.65234024 -2.3803257)
(-10.666545 -2.7259395 -2.4452793)
(-8.4939418 -0.37459857 -2.1485975)
(-12.246957 -3.0634531 -2.2963638)
(-8.7697576 -0.14485923 -2.0584022)
(-13.271292 -3.2626717 -2.2855456)
(-8.8348291 0.043491077 -2.0578118)
(-13.83322 -3.3231172 -2.3210555)
(-8.7516312 0.20570463 -2.1203583)
(-14.058042 -3.2887403 -2.3797417)
(-5.4412168 -2.7432229 -4.1128596)
(-6.0362276 -3.5139539 -4.1255067)
(-6.3234652 -2.0528068 -2.7240716)
(-7.970188 -3.3252995 -2.9241658)
(-7.3388056 -1.8720939 -1.8944032)
(-10.320462 -3.8008318 -2.0650528)
(-8.1434012 -1.6639724 -1.4896278)
(-12.197819 -4.2335949 -1.6453688)
(-8.6074925 -1.4763931 -1.299384)
(-13.403226 -4.5060525 -1.4437198)
(-8.7910887 -1.3115051 -1.2231172)
(-14.062154 -4.619694 -1.3432583)
(-8.7752144 -1.1657347 -1.2155446)
(-14.333727 -4.6147306 -1.2955672)
(-4.5845679 -3.0154031 -4.3622809)
(-5.2991056 -3.7320188 -4.3866391)
(-5.4945368 -2.2099797 -2.5956903)
(-7.3918972 -3.4646395 -2.9841884)
(-6.7792621 -2.0786652 -1.3535871)
(-9.9469017 -3.9666323 -1.7109703)
(-7.8187996 -1.9559834 -0.73879199)
(-11.900457 -4.4482223 -0.9743634)
(-8.4195864 -1.8310269 -0.44116139)
(-13.101314 -4.7516737 -0.55945782)
(-8.6675402 -1.7037485 -0.30029119)
(-13.73046 -4.8557691 -0.31932329)
(-8.6705692 -1.5769496 -0.24565628)
(-13.973934 -4.8371325 -0.17846742)
(-3.430841 -2.8632605 -4.4315058)
(-4.3214095 -3.4791768 -4.3978982)
(-4.2607245 -1.8670136 -2.3857525)
(-6.484162 -3.1769279 -2.9479138)
(-5.7310843 -1.7617412 -0.67707362)
(-9.0567797 -3.7167411 -1.2833803)
(-7.0054222 -1.7317732 0.19282428)
(-10.991792 -4.2642514 -0.21118992)
(-7.7653449 -1.6813235 0.60605907)
(-12.155719 -4.5895089 0.4223066)
(-8.0935972 -1.6013343 0.80048875)
(-12.747409 -4.7055998 0.79871933)
(-8.1216318 -1.4953208 0.88146106)
(-12.963008 -4.7006987 1.0249438)
(-1.6798986 -2.4632024 -4.0808925)
(-2.6441144 -2.892332 -3.9223207)
(-1.9832683 -1.1594528 -2.0111334)
(-4.477496 -2.617003 -2.58854)
(-3.0458706 -0.83510538 0.27317169)
(-6.5178483 -3.0337471 -0.49380376)
(-4.1588445 -0.70929884 1.5429805)
(-8.0571453 -3.4865272 0.99145294)
(-4.8763288 -0.64290916 2.1449699)
(-8.9782561 -3.7785711 1.8752466)
(-5.1947814 -0.56467108 2.407591)
(-9.4160547 -3.8949706 2.3808047)
(-5.215627 -0.45961689 2.4934198)
(-9.5181797 -3.8909742 2.6601963)
(0.70943905 -1.3373838 -2.981513)
(-0.29004771 -1.5779599 -2.7379744)
(1.0294286 -0.028479586 -1.7398008)
(-1.4821969 -1.6249328 -1.9833156)
(0.92462108 0.61042529 0.67195321)
(-2.5734685 -1.8306316 0.23463006)
(0.65639811 1.0340584 2.3691848)
(-3.3440179 -1.9579167 2.1607405)
(0.53152987 1.2749879 3.2899914)
(-3.7384247 -2.0566067 3.3651414)
(0.57076851 1.4522558 3.7048879)
(-3.8426036 -2.076222 4.0234127)
(0.7274277 1.6118192 3.8098216)
(-3.7475501 -2.0229086 4.340831)
(2.6160427 1.7779786 -1.191144)
(1.6112072 1.4243157 -0.94240035)
(3.0767512 2.1652549 -1.4354869)
(0.67596707 0.42737812 -1.4574329)
(3.0912324 2.8846575 0.40368292)
(0.047495297 0.11927871 0.28934056)
(2.9038401 3.6209974 2.0082061)
(-0.34630809 0.26868056 2.4057744)
(2.7980009 4.1383063 2.9286571)
(-0.49115515 0.37666375 3.9032305)
(2.8327919 4.534911 3.2712088)
(-0.43733822 0.51234149 4.7265807)
(2.9794981 4.8887857 3.1840074)
(-0.24598625 0.68311668 5.0536662)
(2.9326126 7.6849799 0.86714505)
(1.4020687 6.6983848 1.0266844)
(3.732237 6.6329219 -0.65578715)
(1.0979136 4.2009981 -0.41237338)
(3.9116909 7.4619025 -0.0092021907)
(0.95692538 3.8327904 0.2574847)
(3.9196058 8.7543641 0.52430995)
(0.86932865 4.5518332 1.6763245)
(3.9614513 9.9274366 0.48856729)
(0.89038455 5.3842227 2.5721516)
(4.1298601 10.786509 -0.18413152)
(1.0634928 6.1406564 2.7256908)
(4.4400839 11.488204 -1.4403894)
(1.4187372 6.747777 2.2348665)
(2.0521264 14.520194 2.4004004)
(-0.31154182 13.070509 2.5927408)
(3.1943818 13.672644 0.26116545)
(-0.087262179 10.755467 0.7247175)
(3.5979016 14.54431 -0.66745828)
(0.25425245 10.697911 -0.17318588)
(3.7503193 15.953349 -1.9074559)
(0.43559325 11.927465 -1.1060175)
(3.8446902 17.163512 -3.524999)
(0.65224682 13.16301 -2.4044331)
(3.9481044 18.057571 -5.4494745)
(0.9594789 14.120633 -3.8662096)
(4.0514134 18.726178 -7.5667276)
(1.337726 14.821131 -5.2991444)
(0.85322377 19.895139 3.1034664)
(-2.129971 18.554319 3.3271743)
(2.005648 20.670653 1.0907952)
(-2.1346145 18.022439 1.6385345)
(2.4642594 21.423563 -0.52486261)
(-1.8173746 17.896871 -0.27574846)
(2.6451229 22.201013 -2.5810157)
(-1.6805675 18.51927 -2.3715796)
(2.6883049 22.822679 -4.8654703)
(-1.5932354 19.150135 -4.337898)
(2.6581083 23.253011 -7.1819031)
(-1.4736461 19.578277 -5.9524776)
(2.5809277 23.538191 -9.3399586)
(-1.271034 19.857073 -7.3849362)
(-0.19094251 23.274559 3.2061181)
(-3.3761088 22.15206 3.3892633)
(0.87412403 25.757016 1.6715105)
(-3.7482746 23.40582 2.2478376)
(1.3728269 26.713478 0.20516086)
(-3.7698239 23.381316 0.47318178)
(1.6064573 26.907328 -1.84269)
(-3.6881741 23.121986 -1.8730755)
(1.6613935 26.853405 -4.2189873)
(-3.6486641 22.94866 -4.0984951)
(1.5803209 26.753063 -6.6740099)
(-3.6382307 22.899169 -5.8630621)
(1.4068804 26.681842 -8.9048735)
(-3.5857693 22.927312 -7.253072)
(-0.88586084 25.014214 2.9357669)
(-3.9953051 24.08274 3.066214)
(0.076771927 28.902413 1.8886562)
(-4.6154872 26.792873 2.4462845)
(0.58765538 30.412521 0.86644591)
(-4.9101703 27.380867 1.2345174)
(0.8687556 30.620157 -0.58137774)
(-4.9678016 26.939664 -0.60227881)
(0.97156083 30.250061 -2.4469807)
(-5.0071727 26.233671 -2.6827477)
(0.89849935 29.744688 -4.6854982)
(-5.1088417 25.661581 -4.7353286)
(0.66345042 29.307193 -7.0582317)
(-5.2126804 25.372021 -6.3064197)
(-1.2010662 25.598597 2.5015056)
(-4.1085773 24.668136 2.5817109)
(-0.35242607 30.776563 1.8607403)
(-4.9642698 28.886979 2.3754946)
(0.1815848 32.704592 1.1563846)
(-5.3522019 30.059915 1.5960355)
(0.51376142 33.265945 0.27685077)
(-5.4651486 30.042976 0.46181949)
(0.68804094 33.072717 -0.79504683)
(-5.5587348 29.417256 -0.86505675)
(0.68601259 32.607841 -2.2204783)
(-5.7694792 28.665345 -2.5103198)
(0.46524332 32.02951 -4.1647882)
(-6.0943269 28.017689 -4.3964277)
(-1.1986907 25.127743 2.0008324)
(-3.8120745 23.858484 2.0227041)
(-0.46599318 31.953725 1.7248233)
(-4.9891739 30.126207 2.181836)
(0.080202045 34.142909 1.258372)
(-5.4326663 31.795187 1.7033918)
(0.46541291 34.942416 0.67330976)
(-5.550298 32.172404 0.94625515)
(0.69974863 35.055542 0.057931938)
(-5.648397 31.962089 0.21097885)
(0.78525797 34.884624 -0.66759213)
(-5.8520818 31.521483 -0.70088723)
(0.68745232 34.565915 -1.7092562)
(-6.2455221 30.973168 -1.9593007)
(-0.98750421 23.258742 1.4636746)
(-3.1513757 21.249934 1.4231056)
(-0.34539633 32.440984 1.5101391)
(-4.7805991 30.199395 1.8885364)
(0.17721796 35.115803 1.2875647)
(-5.3969714 32.895223 1.721212)
(0.60006567 36.039092 0.88597179)
(-5.5596161 33.530923 1.1915938)
(0.86840845 36.308187 0.45291953)
(-5.6974819 33.5873 0.69114404)
(0.98717528 36.32396 -0.019237236)
(-5.9213658 33.409951 0.15138886)
(0.95149909 36.218559 -0.60543952)
(-6.2900345 33.118203 -0.54937264)
(-0.68109901 19.47531 0.93814019)
(-2.1563293 16.621072 0.85166918)
(-0.10532677 31.330886 1.2003504)
(-4.2170473 27.802506 1.4474607)
(0.33271843 35.319879 1.2422573)
(-5.3167219 32.7174 1.6166099)
(0.76836912 36.528264 1.0360041)
(-5.6707522 34.007491 1.3243695)
(1.0305559 36.852453 0.73971687)
(-5.9050605 34.236225 0.99932057)
(1.1250735 36.901347 0.39352488)
(-6.2019293 34.130892 0.65224939)
(1.0676626 36.825838 -0.012246783)
(-6.5961695 33.894496 0.23087791)
(-0.34826736 13.463365 0.48430878)
(-1.0274561 10.37637 0.39237214)
(0.10395832 26.546827 0.81085779)
(-3.0329329 21.310344 0.8792682)
(0.27542712 33.019226 1.0829157)
(-4.917845 28.93569 1.2692891)
(0.63365012 35.380278 1.0859836)
(-5.7824585 32.050879 1.3029363)
(0.85708082 36.113764 0.92680185)
(-6.2465929 32.976224 1.200403)
(0.90210654 36.241122 0.730828)
(-6.6876387 33.12388 1.0739704)
(0.7993751 36.147271 0.50516634)
(-7.1180872 32.970219 0.88821667)
(-0.026281758 5.7680234 0.15882962)
(-0.034416911 3.8100036 0.11307671)
(0.29019038 15.629549 0.31807482)
(-1.1175333 10.98028 0.28965845)
(-0.02333916 23.364861 0.62379032)
(-3.4383988 18.496879 0.58370595)
(-0.047433401 28.14834 0.88480885)
(-4.9128918 23.469278 0.86710184)
(0.041902213 30.397732 0.98152718)
(-5.7299674 25.955599 1.0560853)
(0.065434244 31.344206 0.97673341)
(-6.3826752 27.126789 1.1726686)
(-0.0063965086 31.706927 0.92462663)
(-6.9105315 27.639896 1.2383039)
(0.061702266 0.49076262 -0.10029343)
(0.20166095 0.1093602 -0.077271164)
(0.37843366 3.4302118 -0.041846018)
(0.21573445 2.0416139 -0.019128073)
(0.098201967 6.6806339 0.025066387)
(-0.5660607 4.5423548 -0.016484871)
(-0.32325169 10.023613 0.14210322)
(-1.4563012 6.9479146 0.035227464)
(-0.5929754 12.658649 0.28227035)
(-2.2190464 9.0337754 0.16576157)
(-0.7320883 14.385547 0.41894716)
(-2.8259237 10.565368 0.31780543)
(-0.81043759 15.485948 0.54392059)
(-3.3121249 11.635888 0.47987521)
(-6.1920103 2.8473037 -0.07318539)
(-3.1788038 -2.2842847 -0.1061178)
(-6.2769798 2.8843596 -0.075402973)
(-2.9218105 -2.0051249 -0.16263518)
(-6.3302405 2.9149583 -0.078334317)
(-2.6910108 -1.6262696 -0.24443294)
(-6.3647009 2.975377 -0.080815711)
(-2.4640878 -1.125659 -0.31382489)
(-6.3850314 3.1423793 -0.088271225)
(-2.4676556 -0.029666429 -0.40049592)
(-6.3107225 3.7019741 -0.071915511)
(-3.1157714 2.5534805 -0.3440576)
(-12.899592 8.8530828 -0.099645598)
(-9.2844943 3.3756669 -0.57491553)
(-13.076659 8.8510317 -0.14503615)
(-8.912686 3.9461193 -0.90064767)
(-13.164117 8.8637664 -0.19362577)
(-8.5457552 4.4142926 -1.1479402)
(-13.15195 8.9306197 -0.24302572)
(-8.1825616 5.0032142 -1.3509651)
(-12.979711 9.1263567 -0.29409041)
(-7.7664857 6.1658329 -1.5026254)
(-12.318757 9.6855647 -0.30157541)
(-6.7105485 8.7309967 -1.3147181)
(-13.770391 11.748673 -0.043894517)
(-11.464782 9.3889589 -1.9002959)
(-14.007975 11.782656 -0.12946324)
(-11.133151 9.8787528 -2.179252)
(-14.144901 11.839127 -0.23695167)
(-10.670562 10.261675 -2.3777772)
(-14.17576 11.952949 -0.3525492)
(-9.9774945 10.715745 -2.5275073)
(-14.042838 12.191456 -0.45078901)
(-8.7250123 11.461062 -2.5837832)
(-13.004528 12.725258 -0.48696812)
(-5.3005027 12.911919 -2.1909118)
(-12.747392 12.890406 -0.058950911)
(-9.5896024 11.645908 -3.3080217)
(-13.071998 12.963682 -0.19099998)
(-8.7527188 12.092509 -3.4758124)
(-13.280526 13.058775 -0.35928207)
(-8.0384647 12.442371 -3.571372)
(-13.295072 13.225292 -0.54991936)
(-7.1502072 12.849539 -3.6106206)
(-12.949195 13.535606 -0.72458737)
(-5.4977955 13.56336 -3.521385)
(-11.89456 14.117637 -0.86097286)
(-1.2906583 14.793165 -2.9636242)
(-10.896742 13.537335 -0.3297676)
(-5.0095161 12.288263 -4.6833085)
(-11.197198 13.639729 -0.5243455)
(-3.5930686 12.81547 -4.7872543)
(-11.411524 13.758421 -0.73874104)
(-2.6061737 13.203336 -4.8378435)
(-11.449842 13.951289 -0.98239826)
(-1.76865 13.60709 -4.7952843)
(-11.114244 14.308387 -1.2350971)
(-0.37922893 14.309197 -4.561543)
(-9.9558971 14.960788 -1.4952031)
(3.3541736 15.544961 -3.8779541)
(-8.7163633 13.940328 -0.9731127)
(0.3975612 12.465562 -5.8159581)
(-8.7296955 14.092641 -1.3166106)
(2.3112321 13.120371 -5.8999944)
(-8.7392292 14.245514 -1.6436546)
(3.4846786 13.560096 -5.9878977)
(-8.6749056 14.463919 -1.9696693)
(4.1659017 13.965116 -5.9918047)
(-8.3257371 14.852144 -2.2709746)
(4.9868487 14.658286 -5.7562557)
(-6.9789659 15.59947 -2.5601722)
(7.6367127 16.00574 -5.0860552)
(-6.6481678 14.212768 -1.7885634)
(3.9879015 12.308875 -6.47478)
(-6.1366468 14.489237 -2.3491944)
(6.2018254 13.08055 -6.5841494)
(-5.6293159 14.773357 -2.8940382)
(7.499053 13.601538 -6.7703401)
(-5.0714285 15.105348 -3.4225587)
(8.2521306 14.071903 -6.9496959)
(-4.3969776 15.542237 -3.8324693)
(8.8811903 14.847524 -6.9195942)
(-2.9337609 16.303788 -4.1051685)
(11.001621 16.434451 -6.4608969)
(-4.795427 14.578111 -3.0532748)
(4.4344649 11.810665 -6.8496645)
(-3.6130386 15.06227 -3.8686118)
(7.1022463 12.703279 -7.0790107)
(-2.4393724 15.522314 -4.6073115)
(8.9775184 13.368714 -7.3865847)
(-1.2405968 15.975951 -5.265365)
(10.167211 13.974241 -7.730647)
(-0.047788771 16.460644 -5.7804676)
(11.118608 14.829286 -7.9528132)
(1.6792586 17.209662 -6.1496356)
(13.294417 16.675022 -7.8273097)
(-3.1838657 14.784344 -4.4481589)
(2.0481521 11.021789 -6.8641928)
(-1.4351744 15.439364 -5.4386183)
(5.3854625 12.018089 -7.181633)
(0.36878638 16.073916 -6.3272942)
(8.2314801 12.869087 -7.5633696)
(2.3011798 16.723268 -7.2028491)
(10.48523 13.652576 -8.0669708)
(4.2379031 17.341623 -7.8802177)
(12.14932 14.553793 -8.5480109)
(6.5158562 18.084737 -8.3412556)
(14.50073 16.368221 -8.9711617)
(-2.9771687 14.514038 -5.416863)
(-4.0010324 9.5293174 -6.5150691)
(-0.39571571 15.416893 -6.7974527)
(-0.045576721 10.694803 -7.0732248)
(1.9841784 16.241687 -8.027433)
(4.0870428 11.834126 -7.4024911)
(4.4075946 17.025468 -9.0298996)
(8.2015366 12.965257 -7.6667755)
(6.8903582 17.735488 -9.7737133)
(11.54479 14.085532 -8.0560242)
(9.7439237 18.526906 -10.379297)
(14.414871 15.70762 -9.0934975)
(-8.0019405 12.748663 -4.0023886)
(-10.382364 6.8302555 -5.3938741)
(-3.7703319 14.107014 -5.8346317)
(-7.3169942 7.8357495 -6.4076922)
(0.22652495 15.485067 -7.7669499)
(-3.3349524 9.0806485 -7.3275725)
(3.8596119 16.735022 -9.5802098)
(1.9256994 10.63646 -7.9764382)
(6.9115581 17.699347 -10.832885)
(7.40324 12.227442 -8.1451533)
(10.089995 18.483208 -11.63412)
(11.583675 13.85557 -8.7060752)
(-11.856482 11.220756 -3.2443473)
(-11.934088 5.000688 -4.6755048)
(-9.4614061 12.01171 -4.3205939)
(-10.337371 5.5240473 -5.4745328)
(-5.7826149 13.210735 -5.9884683)
(-7.7398506 6.3562151 -6.5427758)
(-0.88738948 14.806404 -8.2469458)
(-3.2584584 7.7533242 -7.8329809)
(3.6836071 16.197108 -10.339822)
(2.2397479 9.3500748 -8.4808019)
(7.3335761 17.070278 -11.581199)
(7.089599 10.683872 -8.5061313)
(-11.039975 10.640236 -3.8198052)
(-10.350075 4.5148232 -4.754163)
(-10.314466 10.979644 -4.4770614)
(-9.7386605 4.7141849 -5.2389027)
(-9.0664734 11.456985 -5.3640585)
(-8.7899509 4.9904609 -5.7749881)
(-6.4796818 12.343598 -6.8767009)
(-6.6525173 5.5784306 -6.6172109)
(-2.1465867 13.620479 -9.0074331)
(-2.116124 6.7850128 -7.6919462)
(2.7758788 14.720708 -10.882891)
(3.394965 7.9320514 -8.0716531)
(-8.8517127 9.87625 -4.5206403)
(-7.8002773 4.4694417 -5.4267068)
(-8.6126377 10.084723 -5.1726847)
(-7.4576769 4.5833194 -5.7827775)
(-8.2163659 10.334631 -5.9362356)
(-6.9422467 4.7251055 -6.1263621)
(-7.328917 10.754075 -7.0698851)
(-5.9507936 4.9698087 -6.5796127)
(-5.2102608 11.501075 -8.8078812)
(-3.6460882 5.5031521 -7.2532841)
(-1.088527 12.443264 -10.820924)
(1.1886487 6.4896262 -8.1320013)
(-6.6515096 8.7971593 -5.376113)
(-6.3683606 4.2181448 -7.0153564)
(-6.4600266 8.96268 -5.9842887)
(-6.0415973 4.3524924 -7.4028038)
(-6.2550156 9.1418344 -6.6951556)
(-5.6411324 4.4913061 -7.7873277)
(-5.8893118 9.4148062 -7.7546987)
(-4.9609399 4.7014559 -8.2990315)
(-4.9647663 9.9083376 -9.4643246)
(-3.479575 5.1325935 -9.1168211)
(-2.4351785 10.692736 -11.688228)
(0.13083503 6.0775246 -10.425478)
(-6.9368076 6.2180145 -5.1261274)
(-8.8317041 1.7786192 -6.9605002)
(-6.4828018 6.4517284 -5.8255979)
(-8.3737766 2.0161182 -7.5800857)
(-5.98885 6.7220058 -6.7707924)
(-7.8191726 2.2777094 -8.3193902)
(-5.3780105 7.0819063 -8.1335592)
(-7.0182745 2.6287603 -9.2959453)
(-4.5099969 7.5789236 -9.9905098)
(-5.6815906 3.175932 -10.636361)
(-2.7202563 8.3300849 -12.338899)
(-2.9352444 4.1185193 -12.520442)
(-8.1927066 2.8750406 -3.5219092)
(-12.662438 -1.1164019 -4.1447379)
(-7.694218 3.1097818 -3.9917747)
(-12.366894 -0.94627102 -4.4714274)
(-7.0214134 3.4015803 -4.7256638)
(-11.905954 -0.74389161 -4.920707)
(-6.001394 3.8295322 -5.9690814)
(-10.999517 -0.38001123 -5.8131831)
(-4.4790879 4.459611 -7.9709132)
(-9.2401171 0.31323074 -7.5439985)
(-2.2700425 5.2679809 -10.580002)
(-6.2367524 1.455961 -10.293324)
(-8.5387732 0.37336505 -2.2396594)
(-14.071801 -3.2113531 -2.4636165)
(-8.192733 0.56645866 -2.4251131)