/*--------------------------------*- C++ -*----------------------------------*\
| =========                 |                                                 |
| \\      /  F ield         | OpenFOAM: The Open Source CFD Toolbox           |
|  \\    /   O peration     | Version:  2206                                  |
|   \\  /    A nd           | Website:  www.openfoam.com                      |
|    \\/     M anipulation  |                                                 |
\*---------------------------------------------------------------------------*/
FoamFile
{
    version     2.0;
    format      ascii;
    arch        "LSB;label=32;scalar=64";
    class       volScalarField;
    location    "480";
    object      p;
}
// * * * * * * * * * * * * * * * * * * * * * * * * * * * * * * * * * * * * * //

dimensions      [0 2 -2 0 0 0 0];

internalField   nonuniform List<scalar> 
50904
(
59.909
70.6337
-149.568
-136.894
56.986
67.7219
-147.71
-134.986
53.4404
64.1956
-145.522
-132.734
49.1065
59.8985
-142.933
-130.064
43.6517
54.487
-139.754
-126.808
36.8386
47.7479
-135.923
-122.885
28.4495
39.4299
-131.376
-118.268
18.2913
29.3381
-126.159
-113.008
6.26805
17.3705
-120.403
-107.281
-6.7295
4.40579
-114.676
-101.709
-20.4017
-9.39301
-109.261
-96.5128
-33.5068
-22.8186
-104.599
-92.1687
-43.7289
-33.5709
-101.272
-89.2582
-49.4882
-40.099
-98.9526
-87.3175
-48.7302
-40.2657
-97.5446
-86.2224
-41.563
-34.2081
-97.1099
-86.2103
-33.3437
-27.0503
-97.1799
-86.8975
-25.7624
-20.3394
-97.9645
-88.4299
-19.6986
-14.7093
-100.017
-91.1684
-16.6618
-11.4561
-103.769
-95.3422
-15.3891
-9.71993
-107.464
-99.4293
-14.0842
-8.03355
-110.104
-102.461
-11.0472
-4.56099
-111.17
-103.604
-8.9289
-2.02627
-111.111
-103.123
-8.2178
-0.995152
-110.435
-101.777
-8.4483
-1.0761
-109.436
-100.166
-9.20785
-1.82493
-108.219
-98.5687
-10.1789
-2.86561
-106.999
-97.1809
-11.1485
-3.96323
-105.851
-96.0193
-12.0428
-5.00776
-104.8
-95.0425
-12.8397
-5.95253
-103.879
-94.2434
-13.5258
-6.7749
-103.094
-93.5914
-14.1011
-7.47053
-102.429
-93.0539
-14.575
-8.0471
-101.881
-92.6206
-14.9682
-8.52791
-101.428
-92.2696
-15.259
-8.88719
-101.059
-91.9775
-42.2287
-28.8788
-35.058
-28.5428
1.9999
5.82512
19.1327
20.7154
32.2193
32.5272
41.3668
40.8191
48.8391
47.0261
-42.7665
-29.4862
-35.6355
-28.9756
0.0494472
4.17479
16.6189
18.6155
28.968
29.7309
37.6536
37.5891
44.7554
43.5796
-43.3544
-30.1362
-36.4229
-29.5529
-2.3716
2.15338
13.4475
15.9803
25.074
26.417
33.4472
33.9679
40.3656
39.8631
-44.2939
-31.1444
-37.6172
-30.4713
-5.62484
-0.615307
9.41889
12.5937
20.2976
22.3373
28.4726
29.6835
35.3969
35.6135
-45.8174
-32.7438
-39.4379
-31.916
-10.1279
-4.51529
4.09646
8.05831
14.2782
17.1598
22.318
24.3535
29.4831
30.5181
-48.1251
-35.1295
-42.1091
-34.0798
-16.1891
-9.8147
-2.92806
1.99907
6.6312
10.5294
14.6719
17.6811
22.2964
24.2655
-51.4574
-38.5358
-45.959
-37.2551
-24.1257
-16.8026
-12.0518
-5.96071
-3.08691
2.02031
5.16308
9.30942
13.4402
16.4813
-56.0371
-43.1746
-51.3836
-41.8061
-34.221
-25.7345
-23.7332
-16.2483
-15.3493
-8.80778
-6.72461
-1.25239
2.54154
6.80534
-62.0618
-49.2126
-58.8816
-48.1964
-46.6261
-36.7691
-38.0411
-29.0088
-30.1456
-22.0632
-21.016
-14.1581
-10.4165
-4.90664
-69.2892
-56.3323
-68.925
-56.8011
-61.9049
-50.3041
-55.8144
-44.8668
-48.668
-38.7027
-38.9294
-30.3984
-26.8818
-19.8569
-77.3947
-64.2272
-81.1342
-67.3205
-79.0195
-65.476
-75.4189
-62.4163
-68.9867
-57.0323
-58.5493
-48.2688
-44.93
-36.3206
-85.813
-72.3725
-95.1452
-79.4804
-97.715
-82.1714
-96.7315
-81.7191
-91.1763
-77.3313
-80.1805
-68.2652
-65.1863
-55.0658
-93.5621
-79.7835
-109.545
-92.02
-116.027
-98.6288
-117.087
-100.407
-112.242
-96.9597
-100.697
-87.6248
-84.79
-73.5618
-99.4955
-85.4794
-121.103
-102.511
-130.429
-112.225
-133.177
-115.995
-129.226
-113.632
-117.808
-104.555
-100.594
-89.2948
-103.507
-89.3521
-128.705
-110.029
-139.824
-121.916
-143.489
-126.967
-140.165
-125.319
-129.2
-116.538
-112.279
-101.426
-105.202
-91.3713
-131.517
-114.079
-143.307
-127.284
-147.356
-133.157
-144.594
-132.105
-134.389
-123.755
-118.139
-109.148
-106.366
-93.1333
-132.609
-116.919
-144.475
-130.817
-148.531
-137.075
-146.024
-136.297
-136.276
-128.08
-120.3
-113.626
-108.002
-95.4877
-133.69
-119.87
-145.335
-134.058
-149.219
-140.418
-146.801
-139.716
-137.292
-131.437
-121.102
-116.702
-110.746
-98.9947
-136.441
-124.31
-147.927
-138.681
-151.597
-144.954
-149.119
-144.175
-139.666
-135.796
-122.992
-120.416
-113.921
-103.073
-140.053
-129.566
-151.714
-144.233
-155.397
-150.465
-152.797
-149.475
-143.109
-140.744
-126.135
-125.026
-116.583
-106.759
-143.399
-134.566
-155.7
-149.838
-159.73
-156.282
-157.189
-155.238
-147.316
-146.223
-129.992
-130.133
-117.339
-108.55
-144.494
-137.369
-157.649
-153.473
-162.477
-160.557
-160.665
-160.039
-151.211
-151.22
-131.507
-133.122
-114.566
-106.326
-140.749
-135.066
-153.632
-151.083
-158.826
-158.512
-157.508
-158.443
-148.443
-149.919
-128.79
-131.464
-110.645
-102.216
-133.697
-128.642
-143.852
-142.279
-148.133
-148.931
-146.782
-148.887
-138.438
-141.042
-120.452
-123.76
-107.5
-98.4365
-126.677
-121.479
-132.044
-130.558
-134.086
-135.084
-132.116
-134.486
-124.522
-127.378
-109.027
-112.223
-105.778
-96.0329
-121.847
-116.106
-121.57
-119.523
-120.6
-120.939
-117.468
-119.103
-110.447
-112.516
-97.4679
-99.6358
-105.218
-94.9731
-119.541
-113.252
-114.139
-111.367
-110.037
-109.456
-105.527
-106.129
-98.7948
-99.7945
-88.06
-89.068
-105.383
-94.8587
-119.173
-112.531
-109.89
-106.553
-102.831
-101.401
-96.772
-96.3256
-90.097
-89.9533
-81.0227
-80.8156
-105.919
-95.2997
-119.993
-113.182
-108.33
-104.665
-98.7855
-96.7634
-91.2162
-90.0013
-84.4589
-83.4838
-76.5484
-75.4953
-106.603
-96.0178
-121.355
-114.552
-108.616
-104.871
-97.1514
-94.8196
-88.1608
-86.4447
-81.1021
-79.5288
-73.9968
-72.3154
-107.297
-96.817
-122.875
-116.185
-109.943
-106.287
-97.1849
-94.7799
-86.9347
-84.971
-79.493
-77.5726
-72.8785
-70.8212
-107.927
-97.5834
-124.352
-117.819
-111.74
-108.27
-98.2488
-95.9482
-86.9594
-84.9698
-79.0374
-76.9997
-72.6743
-70.4797
-108.468
-98.2651
-125.697
-119.344
-113.651
-110.423
-99.8496
-97.7812
-87.788
-85.9476
-79.338
-77.3648
-72.9896
-70.8326
-108.926
-98.8552
-126.884
-120.708
-115.5
-112.532
-101.682
-99.9106
-89.1291
-87.5471
-80.1832
-78.3942
-73.6306
-71.6102
-109.312
-99.36
-127.928
-121.916
-117.225
-114.508
-103.58
-102.127
-90.822
-89.5656
-81.4918
-79.9765
-74.6003
-72.7985
-109.581
-99.7173
-128.722
-122.831
-118.578
-116.064
-105.156
-103.975
-92.3548
-91.4036
-82.8045
-81.5739
-75.6499
-74.1205
55.6602
52.5256
61.2194
57.2292
64.8513
60.4245
68.4535
63.5588
73.7549
68.0313
83.6691
76.2911
51.3166
48.9239
56.8971
53.6253
60.9716
57.1603
65.144
60.7629
70.9745
65.672
81.3695
74.3828
46.8504
45.2207
52.6536
50.1379
57.1871
54.0926
61.741
58.0163
67.7547
63.0389
78.3925
71.9545
42.0488
41.1609
48.2877
46.478
53.5041
51.0722
58.5167
55.4442
64.4971
60.4475
74.8932
69.1182
36.5082
36.4247
43.5017
42.422
49.6845
47.9245
55.3572
52.9536
61.2582
57.9323
70.8456
65.8611
29.9862
30.7892
38.0879
37.7792
45.6374
44.5627
52.2952
50.5635
58.1325
55.5608
66.3328
62.2587
22.1711
23.9681
31.785
32.3158
41.248
40.8885
49.2943
48.2441
55.1941
53.3849
61.5673
58.4857
12.7028
15.6002
24.3959
25.8118
36.3774
36.7256
46.3147
45.9031
52.4827
51.3805
56.7338
54.6426
1.47764
5.47224
15.8025
18.0541
30.8871
31.8606
43.2206
43.3461
49.856
49.3693
51.8661
50.7063
-12.897
-7.57848
4.5807
7.81664
23.3865
25.0648
38.6542
39.34
46.2156
46.3038
46.402
46.0627
-28.7685
-22.0394
-7.95897
-3.64222
14.7612
17.242
33.1397
34.4798
41.7878
42.5293
40.4507
40.9293
-47.0289
-38.9053
-23.0488
-17.622
3.35655
6.72738
24.7504
26.8626
34.7607
36.2406
32.87
34.0911
-65.0373
-55.8112
-38.5356
-32.1422
-9.2566
-4.98773
14.5111
17.5264
25.7865
28.1334
24.1318
26.0608
-80.1786
-70.7266
-53.5768
-46.6075
-22.6612
-17.6155
2.78499
6.72803
15.2544
18.5266
14.4884
17.026
-91.9338
-82.922
-65.0298
-58.277
-33.639
-28.2429
-7.81481
-2.97488
5.21822
9.56866
5.54835
8.75193
-97.7377
-90.7232
-70.5779
-65.5491
-39.6238
-35.134
-14.3615
-9.64237
-1.40104
3.19469
-0.296944
2.905
-99.7952
-95.2329
-72.6712
-69.7515
-42.372
-39.1808
-17.8218
-13.6514
-5.08457
-0.675822
-3.47326
-0.624654
-100.207
-98.0812
-73.1462
-72.3119
-43.4509
-41.5939
-19.5439
-16.0239
-7.07011
-2.96773
-5.16891
-2.74249
-101.534
-101.323
-74.5136
-75.4625
-45.1481
-44.3356
-21.595
-18.3415
-9.27991
-5.00124
-7.28025
-4.79891
-104.262
-105.818
-76.9013
-79.6242
-47.5154
-47.6598
-24.0508
-20.8038
-11.7718
-6.89699
-9.8315
-6.87005
-107.477
-110.586
-79.5316
-83.8258
-50.1146
-51.0955
-26.8096
-23.5295
-14.7097
-9.22961
-13.0527
-9.48575
-106.249
-111.139
-78.4467
-83.9946
-50.1823
-51.7768
-28.2035
-24.9835
-17.2067
-11.3995
-16.0926
-12.0526
-102.743
-108.06
-74.7356
-80.2295
-47.9934
-49.3875
-27.69
-24.3452
-17.86
-12.0318
-17.416
-13.2168
-95.8055
-100.895
-68.9439
-73.6374
-44.7628
-45.4392
-26.7363
-23.0445
-18.1154
-12.2893
-17.7135
-13.5072
-87.1863
-91.36
-63.1038
-66.412
-42.3792
-42.0185
-27.0936
-22.9837
-19.5017
-13.7716
-18.1576
-14.0754
-79.0081
-81.5342
-58.5987
-60.0159
-41.6181
-39.9468
-29.0368
-24.408
-22.1342
-16.4737
-19.0538
-15.0229
-72.734
-73.7456
-56.026
-55.8923
-42.5039
-39.9485
-32.295
-27.5831
-25.7431
-20.5233
-20.5384
-16.7783
-68.4678
-68.0461
-54.9407
-53.4588
-44.3295
-41.0674
-36.0295
-31.3347
-29.5783
-24.8182
-22.2174
-18.7052
-66.2222
-64.834
-55.1814
-52.8651
-46.8592
-43.316
-39.9565
-35.5708
-33.38
-29.2598
-23.9705
-20.8074
-65.2174
-63.1348
-56.0683
-53.2066
-49.4198
-45.7773
-43.4886
-39.4701
-36.6777
-33.1752
-25.5032
-22.6751
-65.1422
-62.6482
-57.3336
-54.1942
-51.8774
-48.3066
-46.5664
-42.9755
-39.4413
-36.5566
-26.7652
-24.2458
-65.5498
-62.8932
-58.6438
-55.4493
-53.9943
-50.6279
-49.0519
-45.9299
-41.616
-39.3382
-27.753
-25.5151
-66.1518
-63.5068
-59.7801
-56.6727
-55.6438
-52.5589
-50.9076
-48.2564
-43.2067
-41.514
-28.4857
-26.5102
-66.7726
-64.216
-60.59
-57.6086
-56.7845
-53.9631
-52.1687
-49.9183
-44.3167
-43.1405
-29.0401
-27.2914
-67.267
-64.8132
-60.9018
-57.9945
-57.3336
-54.677
-52.9205
-50.9605
-45.0748
-44.3285
-29.4866
-27.9276
-67.5422
-65.2093
-60.699
-57.8069
-57.4293
-54.8366
-53.2656
-51.4803
-45.5255
-45.1015
-29.7904
-28.3711
99.1043
88.6002
115.401
101.262
122.552
106.863
126.625
110.09
129.814
112.595
133.569
115.391
96.3612
86.4184
111.562
98.1958
118.138
103.319
122.16
106.523
125.59
109.267
129.577
112.296
92.7448
83.5488
106.775
94.3952
113.075
99.3239
117.402
102.835
121.3
106.018
125.534
109.288
88.3171
80.0027
101.098
89.8566
107.321
94.7671
112.2
98.8138
116.907
102.75
121.716
106.546
82.8765
75.6131
94.2999
84.4053
100.55
89.4008
106.319
94.2936
112.154
99.271
117.902
103.907
76.3922
70.3632
86.2724
77.955
92.701
83.1754
99.6998
89.2172
107.105
95.6255
114.145
101.407
68.956
64.3217
77.0307
70.52
83.7247
76.0701
92.3277
83.6085
101.777
91.8694
110.548
99.1669
60.7675
57.6036
66.8049
62.2099
73.9504
68.2552
84.6439
77.7191
96.7035
88.3304
107.666
97.541
52.0351
50.3301
55.8438
53.1803
63.5735
59.8613
76.7768
71.6444
91.9594
85.0739
105.488
96.5249
42.6299
42.2196
44.0343
43.0978
52.5071
50.5445
68.6565
65.0371
87.4939
81.7576
104.029
95.8277
33.2619
34.0027
32.7122
33.3058
42.1425
41.7318
61.416
59.1199
84.0676
79.2992
103.576
95.9825
23.5044
25.011
21.6914
23.2226
32.2105
32.7314
54.4764
52.9407
80.7405
76.4656
102.986
95.6231
14.2828
16.1193
12.4011
14.0961
24.186
24.8321
48.7944
47.3627
78.0017
73.7713
102.238
94.8452
5.35943
7.10263
4.37031
5.57506
17.2782
17.4256
43.5068
41.7653
74.5941
70.3048
100.31
93.1623
-1.98873
-0.561099
-1.62034
-1.21296
12.1461
11.699
39.1811
37.4795
71.1651
67.5888
97.5402
91.4921
-6.1829
-5.62908
-4.58374
-5.43162
9.62157
8.31094
36.777
35.1237
69.0023
66.3975
96.1868
91.4958
-8.0869
-8.48556
-5.63256
-7.68007
8.77917
6.68933
35.7874
34.2563
67.9467
66.3899
95.7209
92.5559
-8.82306
-10.0528
-5.7743
-8.72599
8.67273
6.07712
35.4668
34.2209
67.395
66.9358
95.4437
93.869
-10.6311
-12.0961
-7.22277
-10.3018
7.51787
5.00897
34.9931
34.4273
67.402
68.1585
95.4535
95.2366
-13.9355
-15.4204
-10.5974
-13.5916
5.13574
3.06188
34.5494
35.194
68.6101
71.252
97.2505
99.1902
-18.3177
-19.6337
-15.5575
-18.2863
1.12587
-0.193269
32.5678
34.9123
68.2324
73.278
97.2758
101.73
-20.985
-22.3726
-19.0222
-21.8755
-3.98916
-4.42027
25.5452
30.3045
59.24
67.9848
86.5183
95.1221
-22.6994
-23.7648
-21.9539
-24.4957
-8.77791
-8.60007
17.8718
23.6882
49.1665
59.4256
77.3664
87.3559
-22.4574
-23.343
-22.1289
-24.6182
-10.8617
-10.7103
12.4552
18.1742
40.5987
50.8958
69.2624
79.5808
-20.4956
-21.2675
-19.2354
-21.8339
-9.67397
-9.99062
9.75364
14.5099
33.8425
43.0136
60.7061
70.4128
-17.6457
-17.992
-14.2365
-16.4477
-5.95326
-6.40249
9.71348
13.5076
29.384
37.0917
52.5987
61.2297
-14.8254
-14.7518
-8.79742
-10.5721
-1.34292
-1.9243
10.9581
13.6663
26.5155
32.4318
45.4896
52.4366
-12.2724
-11.6683
-3.38098
-4.37661
3.52048
3.22183
13.2016
15.3066
25.1467
29.7485
40.5178
46.1525
-10.2626
-9.24197
1.23214
0.852107
7.87659
7.76794
15.5071
17.0325
24.6565
28.0255
37.0614
41.3239
-8.72682
-7.30601
5.11605
5.47302
11.7332
12.0749
17.9136
19.277
24.9971
27.6542
35.1842
38.5737
-7.63498
-5.88207
8.17771
9.21294
14.856
15.6794
20.0318
21.4102
25.6273
27.8721
34.2478
37.0762
-6.91138
-4.91375
10.5221
12.1391
17.3076
18.5847
21.8311
23.3132
26.3911
28.4147
33.9945
36.4867
-6.46819
-4.32012
12.2161
14.2857
19.1151
20.7813
23.2082
24.8263
27.103
29.0315
34.0908
36.3959
-6.23333
-4.01156
13.3673
15.7742
20.303
22.2867
24.1077
25.8962
27.5664
29.5008
34.3162
36.5752
-6.14371
-3.89848
14.0952
16.7252
20.9119
23.1238
24.3721
26.3024
27.5026
29.5051
34.5026
36.8115
-6.11648
-3.88429
14.5265
17.2698
21.1518
23.4884
24.2197
26.2145
27.034
29.0977
34.6833
37.0665
136.869
117.949
139.327
119.709
140.782
120.432
141.271
120.238
139.852
118.286
135.15
113.17
115.314
95.7207
133.102
115.01
135.973
117.114
138.046
118.379
139.2
118.746
138.511
117.386
134.567
112.862
115.361
95.8272
129.213
112.1
132.391
114.453
134.932
116.134
136.671
116.991
136.729
116.223
133.712
112.414
115.344
95.9265
125.743
109.627
129.265
112.269
132.201
114.307
134.302
115.472
134.906
115.114
132.722
111.916
115.306
96.0391
122.491
107.437
126.557
110.541
129.959
113.006
132.336
114.412
133.245
114.252
131.663
111.441
115.287
96.2131
119.597
105.636
124.445
109.401
128.465
112.431
131.094
114.069
132.07
113.913
130.652
111.1
115.32
96.492
117.187
104.357
123.091
109.021
127.946
112.81
130.906
114.748
131.752
114.422
129.947
111.128
115.494
96.9687
115.868
103.99
123.166
109.84
129.09
114.606
132.403
116.875
132.884
116.19
130.039
111.893
115.961
97.7678
115.583
104.513
124.598
111.844
131.79
117.779
135.529
120.438
135.518
119.262
131.209
113.59
116.839
98.9887
116.405
105.673
127.467
114.763
136.169
122.087
140.419
125.224
139.824
123.501
133.783
116.301
118.303
100.692
118.316
107.745
131.564
118.714
141.723
127.371
146.358
130.824
145.087
128.404
137.303
119.608
120.184
102.667
119.895
109.184
135.146
121.888
146.527
131.681
151.482
135.385
149.743
132.443
140.619
122.416
121.914
104.35
120.739
109.82
137.337
123.75
149.298
134.118
154.269
137.807
152.113
134.363
142.164
123.534
122.716
105.098
119.387
108.8
136.004
122.812
147.802
133.147
152.661
136.675
150.55
133.064
140.76
122.211
121.89
104.474
116.587
107.343
132.84
121.342
144.038
131.24
148.334
134.094
146.006
129.932
136.497
118.964
119.012
102.296
115.362
107.736
130.704
121.256
140.779
130.262
144.188
132.202
141.452
127.398
132.008
116.109
115.585
100.055
115.051
109.167
129.724
122.267
138.998
130.649
141.761
131.932
138.669
126.596
129.111
114.861
113.143
98.8529
115.431
111.324
130.277
124.636
139.091
132.672
141.429
133.545
138.063
127.826
128.197
115.502
111.959
98.8562
116.233
113.975
131.971
128.519
140.756
136.434
142.983
137.151
139.405
131.167
129.119
118.114
112.081
100.139
117.856
117.856
133.859
132.626
143.474
141.323
146.376
142.716
143.215
137.094
133.047
123.812
114.409
103.558
117.821
120.394
134.582
135.952
145.388
145.8
149.125
148.041
146.391
142.858
136.475
129.547
116.864
107.403
113.072
118.469
136.509
139.597
146.901
149.539
149.823
151.356
146.898
146.078
137.13
132.705
117.899
109.996
105.943
113.19
130.022
135.765
140.346
145.775
143.022
147.278
140.015
141.766
130.734
128.527
114.012
107.369
96.162
104.556
116.984
124.606
126.732
134.035
129.538
135.513
127.412
130.68
120.478
119.383
108.101
101.793
84.0648
92.5123
100.795
108.859
109.485
117.21
112.739
119.068
112.563
116.085
109.928
108.863
102.696
95.95
71.8192
79.7692
85.1682
92.9154
92.8828
100.226
96.9517
102.844
99.5409
102.611
102.336
100.74
99.492
92.0361
61.2471
67.9117
72.0679
78.6138
79.1679
85.3187
84.5461
89.3869
90.4113
92.6627
98.5377
96.3024
98.5075
90.4518
53.4568
58.9944
62.2977
67.766
69.1833
74.2738
76.1047
80.0058
85.3181
86.8581
97.5416
94.7683
98.65
90.0805
47.7438
52.0135
55.4274
59.7563
62.5097
66.5495
71.1938
74.2704
83.5118
84.5432
98.2898
95.1737
99.1907
90.3255
44.2921
47.7919
51.2896
54.8941
58.7939
62.1768
69.1742
71.7749
83.9099
84.7095
99.7866
96.5126
99.8556
90.8933
42.3661
45.3711
49.0454
52.2035
57.1495
60.1721
69.095
71.5107
85.4168
86.2131
101.438
98.1594
100.54
91.5873
41.5427
44.2661
48.1473
51.077
56.9359
59.8179
70.1483
72.5814
87.3008
88.2158
102.961
99.7578
101.161
92.2693
41.446
44.0456
48.1844
51.0515
57.6727
60.5833
71.7706
74.3438
89.2156
90.3162
104.307
101.214
101.689
92.8677
41.8244
44.4387
48.8829
51.8377
58.989
62.0562
73.5862
76.3875
90.9986
92.3138
105.465
102.501
102.129
93.3842
42.6612
45.4099
50.1432
53.3101
60.6511
63.9709
75.4138
78.4884
92.6124
94.1476
106.46
103.625
102.494
93.8216
43.8135
46.7215
51.5007
54.9027
62.1796
65.7453
76.9255
80.2423
93.8824
95.5932
107.218
104.479
102.748
94.1198
107.074
90.2205
89.6146
77.199
90.5769
81.2453
46.2064
39.2414
107.274
90.3952
89.7953
77.2979
90.8544
81.433
45.9087
38.8728
107.512
90.6194
90.023
77.4213
91.2257
81.6832
45.5024
38.3698
107.768
90.8802
90.2865
77.5724
91.6754
82.0095
44.9911
37.7511
108.049
91.1958
90.6038
77.7785
92.225
82.4351
44.3443
36.9829
108.324
91.5576
90.9725
78.0504
92.9006
83.0019
43.5321
36.0419
108.584
91.9766
91.4091
78.4239
93.7212
83.7516
42.5076
34.8888
108.839
92.4727
91.9154
78.9284
94.6934
84.7291
41.249
33.5207
109.078
93.0438
92.4994
79.5959
95.8125
85.9588
39.7455
31.9524
109.322
93.6713
93.1781
80.4265
97.0803
87.4285
38.0459
30.2281
109.561
94.3028
93.9257
81.3911
98.3104
88.9624
36.0737
28.3081
109.681
94.7289
94.7433
82.4449
99.3629
90.3521
33.9342
26.3155
109.437
94.6627
95.5505
83.4348
99.8586
91.1183
31.9675
24.5072
108.329
93.7525
95.9843
84.0663
99.1445
90.6435
30.922
23.6853
106.245
92.0433
95.7787
84.1244
97.1304
88.8422
30.9726
23.9906
103.577
90.1113
94.2543
83.1514
94.7039
86.6877
29.5121
22.8709
101.29
88.7011
92.2551
81.8764
91.9496
84.2543
27.5982
21.4154
99.7488
88.0719
90.2117
80.6197
89.2682
81.9408
25.0225
19.4202
99.14
88.252
88.5487
79.5639
88.1438
81.1068
21.152
16.1579
100.118
89.8783
87.6928
79.1308
88.7055
81.8762
15.9256
11.4064
101.392
91.916
86.4377
78.2535
89.9804
83.302
10.2837
5.98514
102.202
93.5921
83.9315
76.1644
90.8797
84.4112
3.83588
-0.55314
100.526
92.4781
79.7933
71.9145
92.4469
85.8353
-5.45074
-10.5343
98.177
89.9726
76.3113
67.695
93.8383
86.6434
-12.9656
-19.0266
96.3712
87.571
74.1756
64.5839
94.1858
86.3109
-17.4982
-24.5019
95.5881
86.0512
73.0602
62.5588
93.6935
85.2609
-20.0294
-27.7667
95.0694
85.0127
72.5866
61.5431
92.2423
83.4987
-20.7896
-28.8907
94.5273
84.2677
72.4967
61.2497
90.1177
81.2823
-20.0225
-28.2377
94.2432
83.9375
72.5208
61.2048
87.824
79.0457
-18.641
-26.9126
93.9762
83.6593
72.5257
61.2681
85.6013
76.9507
-17.0694
-25.2889
93.6369
83.3703
72.5481
61.4237
83.6001
75.0937
-15.4176
-23.5122
93.2293
83.057
72.5711
61.6042
81.8058
73.4405
-13.7524
-21.7091
92.8195
82.7391
72.5813
61.7718
80.2537
72.0247
-12.1881
-20.0196
92.4536
82.4736
72.5945
61.9262
78.9541
70.844
-10.7926
-18.5109
92.148
82.2587
72.6108
62.0633
77.8548
69.8501
-9.54334
-17.1637
91.8764
82.0544
72.5997
62.1387
76.9545
69.0334
-8.52332
-16.0676
-333.914
-351.508
458.063
471.745
-770.999
-819.098
-331.275
-348.877
455.627
469.421
-772.396
-820.749
-328.054
-345.62
452.752
466.66
-773.726
-822.378
-324.027
-341.586
449.382
463.436
-775.404
-824.409
-318.894
-336.343
445.192
459.365
-777.685
-827.066
-312.271
-329.498
439.809
454.06
-780.57
-830.324
-303.651
-320.497
432.809
447.067
-784.014
-834.103
-292.559
-308.804
423.818
437.992
-788.039
-838.395
-278.494
-293.849
412.222
426.118
-792.639
-843.039
-261.568
-275.71
397.413
410.764
-797.105
-847.14
-240.574
-253.239
377.626
390.218
-799.37
-848.595
-215.798
-226.762
352.047
363.703
-796.377
-844.166
-188.983
-198.101
321.239
331.814
-783.221
-828.868
-161.408
-168.77
286.201
295.73
-754.335
-797.262
-138.738
-144.72
254.753
263.656
-717.023
-756.967
-127.927
-133.146
240.513
249.617
-693.422
-731.358
-121.788
-126.365
232.609
241.915
-669.783
-705.515
-118.454
-122.431
226.042
235.327
-646.397
-679.567
-118.342
-121.845
221.512
230.595
-624.971
-655.65
-120.216
-123.378
215.628
224.102
-605.583
-633.923
-122.503
-125.291
209.473
217.167
-588.326
-614.509
-125.423
-127.861
206.446
213.256
-576.821
-601.269
-132.514
-134.729
215.022
220.794
-584.68
-608.224
-138.301
-140.446
224.822
229.743
-596.707
-620.263
-140.954
-143.107
231.621
235.989
-606.314
-630.516
-140.748
-142.885
235.209
239.244
-612.896
-637.929
-138.339
-140.414
235.992
239.848
-616.5
-642.319
-134.69
-136.648
235.109
238.85
-618.61
-645.048
-130.515
-132.308
233.334
236.968
-619.908
-646.724
-126.236
-127.849
231
234.534
-620.349
-647.397
-122.152
-123.591
228.448
231.902
-620.152
-647.352
-118.428
-119.712
225.905
229.284
-619.629
-646.898
-115.137
-116.29
223.53
226.847
-618.975
-646.265
-112.304
-113.348
221.418
224.684
-618.312
-645.597
-109.83
-110.78
219.464
222.683
-617.476
-644.727
-107.828
-108.705
217.774
220.949
-616.181
-643.379
-32.6952
28.1241
-8.69109
30.7292
30.6381
48.3796
-136.945
-107.164
-141.667
-140.621
-154.365
-152.062
-37.1578
28.2163
-10.995
28.7412
28.0126
45.7124
-138.205
-105.395
-140.972
-139.142
-152.961
-150.323
-42.5792
28.2983
-13.8055
26.3307
24.8134
42.4701
-139.746
-103.242
-140.147
-137.379
-151.291
-148.253
-49.2533
28.3638
-17.2337
23.3727
20.8993
38.4896
-141.588
-100.683
-139.175
-135.29
-149.309
-145.797
-57.7771
28.4539
-21.5475
19.6421
15.9814
33.469
-143.858
-97.5716
-138.008
-132.743
-146.878
-142.789
-68.6019
28.5641
-26.9177
14.9749
9.85497
27.1826
-146.641
-93.8174
-136.617
-129.686
-143.941
-139.16
-82.2981
28.6993
-33.5435
9.17143
2.32125
19.4023
-150.083
-89.302
-134.992
-126.048
-140.44
-134.871
-99.4277
28.8686
-41.5492
2.07853
-6.77348
9.92322
-154.374
-83.9703
-133.149
-121.853
-136.382
-129.96
-120.693
29.1391
-51.0187
-6.45303
-17.5083
-1.40052
-159.985
-77.6231
-131.188
-117.149
-131.847
-124.56
-146.168
29.5562
-61.4142
-16.0113
-29.1452
-13.8087
-167.532
-70.252
-129.326
-112.288
-127.189
-119.195
-175.264
30.1014
-72.1414
-26.4357
-41.2577
-27.0544
-177.942
-61.6982
-127.733
-107.573
-122.632
-114.21
-205.945
30.9034
-81.711
-36.7791
-52.5072
-39.9071
-192.238
-51.8611
-126.533
-103.423
-118.452
-110.037
-234.097
32.0624
-87.6151
-45.1353
-60.5752
-50.0357
-210.501
-41.2992
-125.498
-100.338
-114.95
-107.155
-254.663
32.3214
-87.155
-50.1885
-63.6683
-55.5837
-229.542
-32.4299
-123.265
-98.547
-111.757
-105.15
-270.311
34.2735
-80.981
-49.9447
-60.5322
-54.4701
-249.47
-24.8499
-120.422
-97.5771
-108.991
-103.685
-286.838
42.4704
-72.0178
-43.5925
-51.9372
-46.8698
-273.861
-14.5524
-118.372
-96.2498
-107.023
-102.81
-300.296
50.9114
-62.7879
-36.1331
-42.6975
-38.262
-298.18
-3.34779
-116.191
-94.5035
-105.359
-102.224
-308.145
56.6689
-53.8086
-29.3303
-34.3516
-30.403
-321.225
7.46933
-113.782
-92.6994
-104.187
-102.18
-307.867
57.7614
-45.448
-24.1012
-27.8057
-24.1769
-343.623
16.3532
-111.835
-91.6266
-104.263
-103.279
-300.242
55.6865
-38.7902
-20.6391
-24.0436
-20.874
-361.85
23.6583
-110.549
-90.9997
-105.786
-105.826
-284.009
50.872
-34.1265
-18.1591
-22.1401
-19.2906
-372.328
30.2834
-109.599
-89.3917
-107.352
-108.117
-264.268
49.9981
-32.0201
-14.5403
-20.2132
-17.4918
-378.391
42.6996
-110.134
-84.6514
-107.823
-108.888
-250.504
57.4576
-32.4479
-8.6218
-17.0459
-13.9122
-393.054
65.5065
-115.834
-76.7074
-107.769
-107.797
-237.898
65.3569
-34.1524
-3.51039
-14.8801
-11.12
-403.221
87.5256
-122.742
-68.461
-107.5
-105.711
-225.245
70.5443
-35.974
-0.0756979
-13.9984
-9.69199
-404.99
104.172
-128.142
-61.3327
-106.886
-103.313
-213.671
73.2467
-37.3434
1.87387
-13.9104
-9.2681
-400.292
115.097
-131.157
-55.9209
-105.863
-101.042
-203.566
74.2417
-38.132
2.70671
-14.2385
-9.49727
-391.228
121.275
-131.864
-52.2593
-104.459
-99.0511
-195.212
74.3269
-38.4965
2.83233
-14.7469
-10.0686
-380.265
124.279
-130.993
-49.9656
-102.9
-97.4119
-188.452
73.9893
-38.5763
2.58085
-15.2736
-10.7367
-369.041
125.402
-129.237
-48.5968
-101.341
-96.0776
-182.954
73.4707
-38.4789
2.13953
-15.7699
-11.4128
-358.25
125.416
-127.078
-47.8519
-99.8855
-95.0001
-178.437
72.8831
-38.2745
1.61817
-16.2191
-12.0577
-348.265
124.818
-124.82
-47.5059
-98.5886
-94.1391
-174.766
72.3116
-38.0268
1.09509
-16.6071
-12.6329
-339.431
123.963
-122.67
-47.3872
-97.4711
-93.4501
-171.781
71.7959
-37.7724
0.611949
-16.9344
-13.1279
-331.804
123.05
-120.727
-47.3865
-96.523
-92.8896
-169.352
71.3442
-37.5263
0.181534
-17.2064
-13.5482
-325.316
122.173
-119.026
-47.4534
-95.7358
-92.4435
-167.31
70.9371
-37.2948
-0.19859
-17.4322
-13.9028
-319.685
121.348
-117.537
-47.5531
-95.0763
-92.0829
-165.615
70.608
-37.1163
-0.489868
-17.5992
-14.1631
-315
120.702
-116.362
-47.6185
-94.5475
-91.7821
-17.705
-94.6549
-52.9351
-65.0865
-56.6938
-52.1623
24.1733
-96.2223
-18.8956
-50.554
-34.8964
-39.1525
82.4458
-63.2351
26.8145
-11.1221
7.00328
-0.445259
109.358
-38.614
50.799
10.2876
27.9413
18.3022
125.161
-20.6692
66.3081
25.3142
42.5778
32.039
132.47
-9.42115
75.2304
34.6886
51.9677
41.3365
142.459
1.12138
83.5138
43.9641
60.8963
49.8128
-19.8622
-94.0746
-53.8836
-65.4621
-57.3718
-52.6663
22.2652
-96.1767
-20.1042
-51.2096
-35.8177
-39.8523
80.0063
-64.3814
24.6696
-12.9456
4.85025
-2.49489
106.838
-40.8133
48.1688
7.79783
25.2338
15.6705
122.638
-23.8091
63.2724
22.1764
39.2821
28.7273
129.841
-13.2964
71.9526
31.0954
48.277
37.5761
138.481
-3.78862
79.475
39.5047
56.4817
45.4601
-22.4149
-93.3127
-54.9724
-65.8548
-58.1273
-53.2096
19.9341
-96.1251
-21.5918
-52.0466
-36.9902
-40.7774
77.0051
-65.8498
22.024
-15.2249
2.18601
-5.04043
103.672
-43.6464
44.8652
4.62966
21.819
12.3444
119.424
-27.7335
59.5306
18.3106
35.265
24.7218
126.712
-17.7855
68.1417
26.9532
44.0446
33.2933
134.625
-8.74534
75.3137
34.9473
51.902
40.8859
-25.6127
-92.5368
-56.4055
-66.4915
-59.2178
-54.0761
17.0717
-96.2805
-23.4886
-53.2322
-38.5925
-42.1223
73.3236
-67.9331
18.69
-18.2283
-1.28544
-8.42
99.8295
-47.3424
40.7824
0.613415
17.5236
8.12843
115.341
-32.7211
54.8743
13.4578
30.2598
19.7578
122.683
-23.223
63.4516
21.9063
38.8987
28.1525
130.46
-14.1383
70.5787
29.8576
46.7199
35.7257
-29.8235
-91.7734
-58.4032
-67.5398
-60.87
-55.4878
13.3595
-96.7662
-26.0402
-54.9723
-40.8644
-44.1176
68.5667
-70.9553
14.2851
-22.3455
-5.98403
-13.0583
94.9615
-52.2856
35.5662
-4.63457
11.9328
2.58903
110.136
-39.0611
49.0359
7.3275
23.9507
13.4934
117.474
-29.9762
57.5754
15.5982
32.4752
21.7622
125.404
-20.4595
64.8918
23.8077
40.5274
29.5777
-35.321
-91.0957
-61.1332
-69.1567
-63.2672
-57.6345
8.57316
-97.7372
-29.4329
-57.4529
-44.0287
-46.9928
62.4239
-75.2246
8.53032
-27.8745
-12.2349
-19.2781
88.7568
-58.7988
28.8642
-11.4876
4.64331
-4.6872
103.542
-47.0397
41.734
-0.389406
15.9877
5.55296
110.871
-38.2437
50.3112
7.79743
24.5068
13.8261
119.212
-27.9565
58.0147
16.5204
33.0239
22.1186
-42.5352
-90.5914
-64.8338
-71.5359
-66.6458
-60.7549
2.32314
-99.3893
-33.9447
-60.9332
-48.397
-51.0726
54.4399
-81.0928
1.05983
-35.1665
-20.3811
-27.4115
80.7329
-67.2624
20.3208
-20.3088
-4.74007
-14.0987
95.1898
-57.0027
32.571
-10.1005
5.93315
-4.50503
102.436
-48.3835
41.332
-1.83462
14.6215
3.96978
111.538
-36.9866
49.5874
7.60736
23.8021
12.9405
-51.8452
-90.3762
-69.7019
-74.8673
-71.202
-65.0625
-5.81099
-101.962
-39.8794
-65.719
-54.311
-56.7266
44.1526
-88.8784
-8.43314
-44.4837
-30.7234
-37.7377
70.2715
-78.0632
9.4924
-31.5116
-16.6589
-26.0852
84.4226
-69.3399
21.144
-22.1798
-6.64162
-17.1217
91.5869
-60.7734
30.2043
-13.7069
2.37151
-8.27317
101.799
-47.8769
39.3213
-3.18465
12.5625
1.72264
-63.8567
-90.4537
-75.998
-79.3377
-77.1624
-70.7944
-16.5697
-105.699
-47.7091
-72.2379
-62.2911
-64.479
30.8506
-98.855
-20.3452
-56.1039
-43.5187
-50.4479
56.6186
-91.4383
-4.03159
-45.329
-31.3553
-40.7575
70.3958
-84.3417
7.03542
-36.8464
-21.9059
-32.3189
77.556
-75.6504
16.551
-28.0018
-12.4405
-22.953
89.3058
-60.9419
26.808
-16.1035
-0.881217
-11.5802
-78.9415
-90.7217
-83.6964
-84.8645
-84.3641
-77.7925
-30.7254
-110.798
-57.8878
-80.9134
-72.8103
-74.8389
13.6932
-111.156
-35.1286
-70.4005
-59.2966
-66.1478
38.7271
-107.732
-20.9085
-62.3918
-49.6064
-59.0069
52.0206
-102.453
-10.5772
-54.9507
-40.9509
-51.3357
59.1293
-93.6385
-0.492472
-45.6513
-30.8972
-41.3257
73.0094
-76.8136
11.1334
-32.1878
-17.8231
-28.4555
-97.5298
-90.7415
-92.636
-91.2105
-92.4939
-85.7861
-49.2438
-117.037
-70.5687
-91.6542
-85.6754
-87.4941
-8.15011
-125.277
-52.6246
-86.7624
-77.3259
-83.8618
15.6959
-126.272
-40.809
-81.7203
-70.2225
-79.2826
28.4574
-122.894
-31.242
-75.2895
-62.3659
-72.3414
35.4252
-114.045
-20.5751
-65.5283
-51.634
-61.5866
51.9859
-94.8913
-7.34157
-50.3056
-36.9131
-47.0968
-119.77
-89.6275
-102.33
-97.8661
-100.92
-94.2024
-72.7117
-123.52
-85.588
-104.071
-100.484
-102.021
-35.5201
-140.379
-72.7788
-104.823
-97.2597
-103.226
-13.489
-146.374
-63.6413
-102.913
-92.9015
-101.307
-1.48089
-145.124
-54.9375
-97.6038
-85.9461
-95.2206
5.44588
-136.237
-43.5767
-87.342
-74.5923
-83.824
25.0229
-114.878
-28.7975
-70.5866
-58.3882
-67.9146
-144.682
-86.3798
-111.464
-103.878