/*--------------------------------*- C++ -*----------------------------------*\
| =========                 |                                                 |
| \\      /  F ield         | OpenFOAM: The Open Source CFD Toolbox           |
|  \\    /   O peration     | Version:  2206                                  |
|   \\  /    A nd           | Website:  www.openfoam.com                      |
|    \\/     M anipulation  |                                                 |
\*---------------------------------------------------------------------------*/
FoamFile
{
    version     2.0;
    format      ascii;
    arch        "LSB;label=32;scalar=64";
    class       surfaceScalarField;
    location    "480";
    object      phi;
}
// * * * * * * * * * * * * * * * * * * * * * * * * * * * * * * * * * * * * * //

dimensions      [0 3 -1 0 0 0 0];

oriented        oriented;

internalField   nonuniform List<scalar> 
146294
(
-1.69705e-11
2.78361e-11
4.22327e-12
-3.12563e-11
1.7782e-11
2.12919e-11
2.1424e-12
-2.34737e-11
-1.64486e-11
-2.23777e-11
6.81668e-12
2.06637e-11
2.25607e-11
6.04018e-12
1.4579e-11
-2.22002e-11
-6.77548e-11
1.06097e-10
7.37408e-12
-1.05364e-10
6.62525e-11
8.11822e-11
3.50147e-12
-7.99503e-11
-6.92145e-11
-8.66581e-11
2.19026e-11
9.1322e-11
8.59332e-11
2.05049e-11
6.61935e-11
-8.70283e-11
-1.61153e-10
2.44425e-10
1.14982e-11
-2.40173e-10
1.5538e-10
1.86726e-10
6.18857e-12
-1.83451e-10
-1.66157e-10
-1.99801e-10
4.80342e-11
2.19919e-10
1.97857e-10
4.63607e-11
1.60377e-10
-2.00462e-10
-3.26958e-10
4.83164e-10
1.5905e-11
-4.70897e-10
3.13828e-10
3.68858e-10
1.12032e-11
-3.61113e-10
-3.37787e-10
-3.91304e-10
8.97968e-11
4.43767e-10
3.88085e-10
8.91012e-11
3.24432e-10
-3.91123e-10
-6.14429e-10
8.85863e-10
1.4573e-11
-8.55706e-10
5.89294e-10
6.76272e-10
1.40602e-11
-6.58346e-10
-6.34133e-10
-7.0703e-10
1.54941e-10
8.24008e-10
7.03272e-10
1.56218e-10
6.03382e-10
-7.02948e-10
-1.10435e-09
1.55508e-09
-7.24132e-12
-1.48511e-09
1.06059e-09
1.18809e-09
6.99895e-12
-1.14611e-09
-1.13643e-09
-1.21813e-09
2.50378e-10
1.45965e-09
1.21644e-09
2.567e-10
1.07054e-09
-1.20321e-09
-1.9527e-09
2.68517e-09
-7.80443e-11
-2.54107e-09
1.88134e-09
2.05432e-09
-3.412e-11
-1.96618e-09
-1.99922e-09
-2.05454e-09
3.95563e-10
2.53239e-09
2.06094e-09
4.07368e-10
1.86146e-09
-2.01431e-09
-3.37553e-09
4.55155e-09
-2.67837e-10
-4.25199e-09
3.26846e-09
3.48791e-09
-1.65146e-10
-3.29858e-09
-3.43124e-09
-3.38904e-09
5.97052e-10
4.31584e-09
3.4203e-09
6.17607e-10
3.17893e-09
-3.29293e-09
-5.69795e-09
7.56316e-09
-7.15524e-10
-6.96397e-09
5.54294e-09
5.82134e-09
-5.05059e-10
-5.43085e-09
-5.75089e-09
-5.47586e-09
8.57129e-10
7.22338e-09
5.5528e-09
8.91466e-10
5.34909e-09
-5.2797e-09
-9.26136e-09
1.22218e-08
-1.6567e-09
-1.11451e-08
9.12128e-09
9.38209e-09
-1.22351e-09
-8.71204e-09
-9.21338e-09
-8.59451e-09
9.91569e-10
1.18439e-08
8.83366e-09
1.08967e-09
8.74864e-09
-8.16222e-09
-1.49802e-08
1.97049e-08
-3.38036e-09
-1.7874e-08
1.48622e-08
1.52048e-08
-2.58784e-09
-1.40724e-08
-1.47551e-08
-1.34385e-08
9.7e-10
1.92667e-08
1.38932e-08
1.19611e-09
1.43178e-08
-1.26611e-08
-2.43809e-08
3.21724e-08
-6.2749e-09
-2.92791e-08
2.43695e-08
2.49984e-08
-4.93088e-09
-2.32757e-08
-2.37661e-08
-2.12452e-08
6.4054e-10
3.16724e-08
2.20685e-08
1.10407e-09
2.37206e-08
-1.98787e-08
-3.78809e-08
5.07489e-08
-1.07502e-08
-4.66392e-08
3.82357e-08
3.95721e-08
-8.39339e-09
-3.75329e-08
-3.64613e-08
-3.23477e-08
-6.35221e-10
5.04245e-08
3.39412e-08
4.50071e-10
3.77954e-08
-2.99203e-08
-6.00245e-08
8.20256e-08
-1.66048e-08
-7.66631e-08
6.05172e-08
6.46388e-08
-1.34908e-08
-6.26506e-08
-5.69087e-08
-5.04531e-08
-2.23556e-09
8.15095e-08
5.25647e-08
-9.51621e-10
6.16354e-08
-4.60487e-08
-9.11651e-08
1.29033e-07
-2.35552e-08
-1.23067e-07
9.21766e-08
1.02699e-07
-1.9588e-08
-1.02241e-07
-8.55022e-08
-7.57246e-08
-4.09265e-09
1.27755e-07
7.88611e-08
-2.65879e-09
9.74086e-08
-6.8726e-08
-1.05658e-07
1.55785e-07
-2.8828e-08
-1.51252e-07
1.0645e-07
1.25985e-07
-2.43133e-08
-1.28038e-07
-9.88397e-08
-8.78591e-08
-5.29658e-09
1.54162e-07
9.06964e-08
-3.81026e-09
1.19417e-07
-8.0133e-08
-1.17153e-07
1.79166e-07
-3.25446e-08
-1.75743e-07
1.17521e-07
1.46988e-07
-2.77078e-08
-1.51154e-07
-1.09538e-07
-9.78995e-08
-5.51664e-09
1.77166e-07
1.00138e-07
-4.01606e-09
1.39167e-07
-8.98611e-08
-1.25479e-07
1.9694e-07
-3.56647e-08
-1.93682e-07
1.25433e-07
1.63586e-07
-3.06116e-08
-1.68899e-07
-1.172e-07
-1.05036e-07
-5.22649e-09
1.95207e-07
1.06503e-07
-3.57669e-09
1.55448e-07
-9.73228e-08
-1.33738e-07
2.08183e-07
-3.92784e-08
-2.04065e-07
1.33338e-07
1.7415e-07
-3.4032e-08
-1.80481e-07
-1.23917e-07
-1.05955e-07
-4.44484e-09
2.06958e-07
1.06423e-07
-2.4987e-09
1.67737e-07
-1.00604e-07
-1.40262e-07
2.11358e-07
-4.21937e-08
-2.06955e-07
1.38884e-07
1.7764e-07
-3.74832e-08
-1.85855e-07
-1.28523e-07
-1.01395e-07
-4.02691e-09
2.12038e-07
1.00318e-07
-1.93581e-09
1.75464e-07
-9.97681e-08
-1.39237e-07
2.05423e-07
-4.38829e-08
-2.00865e-07
1.36479e-07
1.73539e-07
-4.0384e-08
-1.82841e-07
-1.26962e-07
-9.34547e-08
-3.9874e-09
2.08139e-07
9.07155e-08
-2.02525e-09
1.75807e-07
-9.56227e-08
-1.26089e-07
1.88028e-07
-4.22051e-08
-1.85385e-07
1.21871e-07
1.60649e-07
-4.0724e-08
-1.70633e-07
-1.15699e-07
-8.40355e-08
-4.37059e-09
1.9318e-07
7.92778e-08
-2.89458e-09
1.67107e-07
-8.96189e-08
-8.28375e-08
1.29096e-07
-3.60617e-08
-1.31048e-07
7.87146e-08
1.11824e-07
-3.61705e-08
-1.21957e-07
-7.72104e-08
-5.85835e-08
-4.34462e-09
1.34384e-07
5.32757e-08
-3.70062e-09
1.18999e-07
-6.49491e-08
-5.224e-08
8.59241e-08
-2.78419e-08
-9.05999e-08
4.87455e-08
7.51788e-08
-2.88857e-08
-8.50546e-08
-4.96133e-08
-3.92371e-08
-3.5965e-09
9.00703e-08
3.43462e-08
-3.74708e-09
8.1288e-08
-4.5299e-08
-3.20832e-08
5.60624e-08
-2.00375e-08
-6.11574e-08
2.94038e-08
4.93712e-08
-2.1329e-08
-5.78942e-08
-3.10956e-08
-2.54442e-08
-2.6443e-09
5.90642e-08
2.14927e-08
-3.22871e-09
5.40174e-08
-3.06074e-08
-1.91683e-08
3.55697e-08
-1.36082e-08
-4.00959e-08
1.72884e-08
3.14915e-08
-1.48372e-08
-3.81809e-08
-1.89531e-08
-1.58715e-08
-1.73694e-09
3.75711e-08
1.29645e-08
-2.451e-09
3.47554e-08
-1.99125e-08
-1.16192e-08
2.29024e-08
-8.7727e-09
-2.64393e-08
1.03336e-08
2.03608e-08
-9.78477e-09
-2.53152e-08
-1.17084e-08
-9.97282e-09
-1.03611e-09
2.42722e-08
7.90391e-09
-1.68605e-09
2.26419e-08
-1.30176e-08
-6.88005e-09
1.44315e-08
-5.48012e-09
-1.68784e-08
6.04521e-09
1.28642e-08
-6.20076e-09
-1.62592e-08
-7.0611e-09
-6.10911e-09
-6.28382e-10
1.54146e-08
4.7195e-09
-1.11564e-09
1.44488e-08
-8.26333e-09
-3.94535e-09
8.76438e-09
-3.29084e-09
-1.04407e-08
3.43795e-09
7.84177e-09
-3.78453e-09
-1.00848e-08
-4.11529e-09
-3.59264e-09
-3.7122e-10
9.3938e-09
2.70717e-09
-7.04162e-10
8.87027e-09
-5.03179e-09
-2.21868e-09
5.22823e-09
-1.89379e-09
-6.323e-09
1.92131e-09
4.69414e-09
-2.21758e-09
-6.12335e-09
-2.35316e-09
-2.07038e-09
-2.16131e-10
5.61926e-09
1.52508e-09
-4.25269e-10
5.33781e-09
-2.99233e-09
-1.22236e-09
3.0781e-09
-1.03589e-09
-3.7663e-09
1.05526e-09
2.77239e-09
-1.24037e-09
-3.65202e-09
-1.31868e-09
-1.17464e-09
-1.26526e-10
3.31668e-09
8.47109e-10
-2.47881e-10
3.16774e-09
-1.74691e-09
-6.37708e-10
1.7438e-09
-5.28422e-10
-2.16248e-09
5.51074e-10
1.57611e-09
-6.51965e-10
-2.09876e-09
-7.02218e-10
-6.37035e-10
-7.28064e-11
1.87805e-09
4.49561e-10
-1.37099e-10
1.80276e-09
-9.74104e-10
-3.06207e-10
9.47951e-10
-2.43231e-10
-1.19286e-09
2.66862e-10
8.6011e-10
-3.14081e-10
-1.1565e-09
-3.47462e-10
-3.26783e-10
-4.04073e-11
1.01772e-09
2.24902e-10
-7.07195e-11
9.82128e-10
-5.15014e-10
-1.2124e-10
4.79799e-10
-9.33089e-11
-6.16139e-10
1.08355e-10
4.37687e-10
-1.29654e-10
-5.96021e-10
-1.47178e-10
-1.50454e-10
-2.06575e-11
5.10948e-10
9.97977e-11
-3.22199e-11
4.9598e-10
-2.47104e-10
-2.06336e-11
2.06776e-10
-2.3767e-11
-2.77416e-10
2.22113e-11
1.90678e-10
-3.80046e-11
-2.66515e-10
-3.63386e-11
-5.14774e-11
-8.07004e-12
2.14895e-10
3.09376e-11
-1.08612e-11
2.10898e-10
-9.29579e-11
3.06414e-11
5.33733e-11
-8.59945e-11
-2.17869e-11
5.14549e-11
-8.03386e-11
2.15206e-11
1.55078e-12
4.8864e-11
-5.11136e-12
5.04127e-11
-8.26826e-12
-1.3729e-11
1.20822e-11
8.9331e-12
1.34573e-11
7.07453e-12
7.57958e-12
-1.37443e-11
-2.5241e-12
1.0524e-11
1.54601e-12
2.49479e-12
6.35583e-12
1.23955e-12
-3.07183e-12
-7.94114e-13
1.02578e-11
2.28051e-13
8.58556e-13
6.17379e-12
3.66538e-13
-9.60063e-13
-3.08101e-13
1.03907e-11
-2.02701e-13
4.01722e-13
6.1717e-12
4.90247e-14
-3.35079e-13
-1.32208e-13
1.07994e-11
-4.88368e-13
2.18533e-13
6.35421e-12
-1.87258e-13
-1.21305e-13
-6.21927e-14
1.12881e-11
-5.56014e-13
1.38337e-13
6.59534e-12
-2.55217e-13
-3.9999e-14
-2.77339e-14
-5.54141e-13
1.17704e-11
9.96331e-14
-3.09541e-13
6.87898e-12
-1.34707e-15
-6.24529e-11
5.49525e-11
4.92537e-11
5.86998e-11
3.27723e-11
4.13406e-11
-6.27069e-11
-1.13402e-11
4.80214e-11
9.23369e-12
1.05796e-11
2.85048e-11
7.89151e-12
-1.37333e-11
-3.30147e-12
4.66849e-11
1.54332e-12
3.38467e-12
2.75887e-11
1.98178e-12
-3.95595e-12
-1.1476e-12
4.73782e-11
-1.17191e-12
1.45565e-12
2.80222e-11
-2.65061e-13
-1.23989e-12
-4.30909e-13
4.87866e-11
-2.19846e-12
7.45819e-13
2.89914e-11
-1.19971e-12
-3.75846e-13
-1.60628e-13
5.03739e-11
-2.43475e-12
4.50188e-13
3.01082e-11
-1.46829e-12
-6.58055e-14
-3.43229e-14
-2.48303e-12
5.20355e-11
3.12829e-13
-1.59232e-12
3.12938e-11
7.36034e-14
-1.52624e-10
1.3799e-10
1.40603e-10
1.43354e-10
8.34724e-11
1.17882e-10
-1.52234e-10
-2.80935e-11
1.23576e-10
2.54171e-11
2.6272e-11
7.44519e-11
2.22073e-11
-3.34303e-11
-8.4751e-12
1.20902e-10
4.0163e-12
8.71316e-12
7.2668e-11
5.14929e-12
-9.83318e-12
-3.06933e-12
1.22701e-10
-3.70293e-12
3.80784e-12
7.39776e-11
-1.43228e-12
-3.20705e-12
-1.25079e-12
1.25706e-10
-5.93498e-12
1.99546e-12
7.61732e-11
-3.55669e-12
-1.07809e-12
-5.4834e-13
1.28919e-10
-6.32863e-12
1.22957e-12
7.85323e-11
-4.07673e-12
-2.97726e-13
-2.21094e-13
-6.37909e-12
1.32171e-10
8.71561e-13
-4.2532e-12
8.09243e-11
5.31909e-14
-3.13449e-10
2.93913e-10
3.08154e-10
2.96211e-10
1.80547e-10
2.58381e-10
-3.09877e-10
-5.88978e-11
2.69282e-10
5.32424e-11
5.57543e-11
1.65218e-10
4.72828e-11
-6.86228e-11
-1.87114e-11
2.65581e-10
7.03986e-12
1.94508e-11
1.6295e-10
9.71924e-12
-2.09645e-11
-7.19379e-12
2.69278e-10
-8.95094e-12
8.76889e-12
1.65758e-10
-4.14545e-12
-7.26995e-12
-3.20844e-12
2.74625e-10
-1.2831e-11
4.73523e-12
1.69727e-10
-7.99615e-12
-2.75629e-12
-1.61805e-12
2.80096e-10
-1.3147e-11
2.99087e-12
1.73778e-10
-8.67662e-12
-1.04748e-12
-8.73934e-13
-1.30052e-11
2.85416e-10
2.16684e-12
-8.79656e-12
1.77708e-10
-2.7169e-13
-5.93742e-10
5.80046e-10
5.79786e-10
5.66212e-10
3.61999e-10
4.86686e-10
-5.8087e-10
-1.14526e-10
5.42592e-10
9.50488e-11
1.10131e-10
3.39098e-10
8.59923e-11
-1.3039e-10
-3.84488e-11
5.38989e-10
8.59031e-12
4.04625e-11
3.37423e-10
1.45468e-11
-4.1657e-11
-1.56798e-11
5.45818e-10
-1.8937e-11
1.88402e-11
3.42684e-10
-9.68427e-12
-1.54024e-11
-7.5307e-12
5.54536e-10
-2.44636e-11
1.04511e-11
3.49169e-10
-1.55418e-11
-6.4669e-12
-4.17274e-12
5.6297e-10
-2.41522e-11
6.73953e-12
3.55378e-10
-1.60957e-11
-2.96657e-12
-2.59256e-12
-2.3387e-11
5.70998e-10
4.96869e-12
-1.58889e-11
3.61255e-10
-1.35877e-12
-1.07488e-09
1.09638e-09
9.8233e-10
1.03629e-09
6.95125e-10
8.26832e-10
-1.03938e-09
-2.13975e-10
1.04476e-09
1.51419e-10
2.09278e-10
6.64591e-10
1.40409e-10
-2.37867e-10
-7.58395e-11
1.04365e-09
4.80627e-12
8.07226e-11
6.6563e-10
1.73537e-11
-7.971e-11
-3.26127e-11
1.05554e-09
-3.70163e-11
3.8715e-11
6.74802e-10
-2.02382e-11
-3.13188e-11
-1.6589e-11
1.06902e-09
-4.3257e-11
2.19558e-11
6.84764e-10
-2.77943e-11
-1.42596e-11
-9.78973e-12
1.08137e-09
-4.11498e-11
1.43885e-11
6.93711e-10
-2.75232e-11
-7.35208e-12
-6.56973e-12
-3.89622e-11
1.09283e-09
1.07448e-11
-2.64643e-11
7.01899e-10
-4.14096e-12
-1.90168e-09
2.02241e-09
1.53937e-09
1.85447e-09
1.30257e-09
1.30031e-09
-1.81693e-09
-3.91346e-10
1.95703e-09
2.18813e-10
3.89021e-10
1.26649e-09
2.10031e-10
-4.25232e-10
-1.45849e-10
1.96191e-09
-1.10735e-11
1.56728e-10
1.27342e-09
1.38016e-11
-1.49365e-10
-6.56726e-11
1.98165e-09
-6.82805e-11
7.71788e-11
1.28869e-09
-3.92678e-11
-6.19591e-11
-3.49228e-11
2.0015e-09
-7.28008e-11
4.45762e-11
1.3032e-09
-4.72401e-11
-3.00424e-11
-2.15256e-11
2.01902e-09
-6.6658e-11
2.95819e-11
1.3156e-09
-4.46949e-11
-1.67155e-11
-1.51348e-11
-6.16235e-11
2.03448e-09
2.22953e-11
-4.18119e-11
1.32623e-09
-1.04464e-11
-3.29396e-09
3.65798e-09
2.23952e-09
3.25147e-09
2.39047e-09
1.90202e-09
-3.1076e-09
-7.02921e-10
3.58914e-09
2.81194e-10
7.09097e-10
2.35964e-09
2.8596e-10
-7.48308e-10
-2.74215e-10
3.608e-09
-5.31657e-11
2.97035e-10
2.37903e-09
-5.19215e-12
-2.74997e-10
-1.28349e-10
3.64079e-09
-1.22454e-10
1.49777e-10
2.40415e-09
-7.32714e-11
-1.19458e-10
-7.05732e-11
3.67013e-09
-1.19568e-10
8.7835e-11
2.42513e-09
-7.82641e-11
-6.06933e-11
-4.47935e-11
3.6947e-09
-1.05179e-10
5.88439e-11
2.44184e-09
-7.06604e-11
-3.54706e-11
-3.23898e-11
-9.46808e-11
3.71544e-09
4.46115e-11
-6.41453e-11
2.45516e-09
-2.34633e-11
-5.59972e-09
6.47641e-09
2.99524e-09
5.58946e-09
4.29192e-09
2.58029e-09
-5.2224e-09
-1.2427e-09
6.43038e-09
2.99921e-10
1.26906e-09
4.29077e-09
3.44402e-10
-1.30092e-09
-5.04063e-10
6.47508e-09
-1.42783e-10
5.4863e-10
4.33237e-09
-5.30516e-11
-4.98155e-10
-2.4287e-10
6.52648e-09
-2.12474e-10
2.81185e-10
4.37105e-09
-1.30641e-10
-2.24471e-10
-1.36468e-10
6.56883e-09
-1.91628e-10
1.66247e-10
4.4003e-09
-1.26129e-10
-1.17809e-10
-8.8047e-11
6.60179e-09
-1.6199e-10
1.11707e-10
4.42118e-09
-1.08821e-10
-7.09471e-11
-6.45289e-11
-1.417e-10
6.62878e-09
8.46645e-11
-9.56864e-11
4.43665e-09
-4.83799e-11
-9.24252e-09
1.11701e-08
3.51627e-09
9.39187e-09
7.44931e-09
3.109e-09
-8.47441e-09
-2.14008e-09
1.12226e-08
1.66147e-10
2.21995e-09
7.55148e-09
3.02394e-10
-2.20137e-09
-8.99693e-10
1.13263e-08
-3.35218e-10
9.87786e-10
7.64621e-09
-1.71593e-10
-8.76426e-10
-4.44408e-10
1.14114e-08
-3.67713e-10
5.13953e-10
7.71179e-09
-2.33888e-10
-4.07279e-10
-2.53836e-10
1.14736e-08
-3.05776e-10
3.05854e-10
7.75467e-09
-2.03917e-10
-2.18937e-10
-1.65439e-10
1.15184e-08
-2.47386e-10
2.05673e-10
7.78176e-09
-1.67296e-10
-1.34382e-10
-1.21983e-10
-2.09442e-10
1.15529e-08
1.55379e-10
-1.41839e-10
7.79915e-09
-9.3144e-11
-1.50561e-08
1.886e-08
3.512e-09
1.5462e-08
1.2696e-08
3.33338e-09
-1.36622e-08
-3.60863e-09
1.90817e-08
-2.29952e-10
3.78061e-09
1.29676e-08
9.43699e-11
-3.6743e-09
-1.55665e-09
1.92671e-08
-6.8238e-10
1.7175e-09
1.31355e-08
-3.91725e-10
-1.50522e-09
-7.80768e-10
1.93928e-08
-6.14929e-10
9.01415e-10
1.32324e-08
-3.99088e-10
-7.13262e-10
-4.49249e-10
1.9476e-08
-4.76676e-10
5.36945e-10
1.32878e-08
-3.20458e-10
-3.88177e-10
-2.93197e-10
1.95314e-08
-3.69619e-10
3.5943e-10
1.33177e-08
-2.50914e-10
-2.39913e-10
-2.15503e-10
-3.024e-10
1.95709e-08
2.69147e-10
-2.04989e-10
1.33322e-08
-1.66778e-10
-2.45141e-08
3.16104e-08
2.74249e-09
2.53376e-08
2.15224e-08
3.10283e-09
-2.20905e-08
-6.01989e-09
3.20382e-08
-9.74452e-10
6.33267e-09
2.20438e-08
-3.39263e-10
-6.11068e-09
-2.64206e-09
3.22997e-08
-1.21853e-09
2.91527e-09
2.23025e-08
-7.39068e-10
-2.55477e-09
-1.33609e-09
3.24493e-08
-9.65494e-10
1.53544e-09
2.24264e-08
-6.36232e-10
-1.22437e-09
-7.69449e-10
3.25368e-08
-7.06261e-10
9.11396e-10
2.24845e-08
-4.78892e-10
-6.69178e-10
-4.99541e-10
3.25878e-08
-5.26433e-10
6.04445e-10
2.25057e-08
-3.59499e-10
-4.12959e-10
-3.63294e-10
-4.15929e-10
3.26187e-08
4.46102e-10
-2.83e-10
2.25056e-08
-2.85174e-10
-3.81666e-08
5.12833e-08
1.35553e-10
3.99051e-08
3.50123e-08
1.69462e-09
-3.39806e-08
-9.56698e-09
5.20562e-08
-2.35116e-09
1.01664e-08
3.59521e-08
-1.19632e-09
-9.65322e-09
-4.2447e-09
5.24199e-08
-2.06056e-09
4.71988e-09
3.63515e-08
-1.29397e-09
-4.09207e-09
-2.15088e-09
5.25926e-08
-1.47212e-09
2.48404e-09
3.65139e-08
-9.81288e-10
-1.96916e-09
-1.23242e-09
5.26748e-08
-1.02056e-09
1.46296e-09
3.65711e-08
-6.96888e-10
-1.07308e-09
-7.90839e-10
5.27141e-08
-7.31155e-10
9.56398e-10
3.65789e-08
-5.01936e-10
-6.56168e-10
-5.64625e-10
-5.56444e-10
5.27274e-08
6.91025e-10
-3.79949e-10
3.65565e-08
-4.46059e-10
-5.87517e-08
8.24408e-08
-2.99021e-09
6.09368e-08
5.72758e-08
-9.10019e-10
-5.17941e-08
-1.51983e-08
8.33518e-08
-4.00439e-09
1.59354e-08
5.8507e-08
-2.46945e-09
-1.51606e-08
-6.72499e-09
8.3709e-08
-3.05619e-09
7.35943e-09
5.89831e-08
-2.06481e-09
-6.43397e-09
-3.38007e-09
8.38334e-08
-2.05272e-09
3.83528e-09
5.91379e-08
-1.43852e-09
-3.07883e-09
-1.91242e-09
8.38604e-08
-1.36475e-09
2.22761e-09
5.91606e-08
-9.73255e-10
-1.66065e-09
-1.20627e-09
8.38487e-08
-9.42829e-10
1.42985e-09
5.91288e-08
-6.75415e-10
-1.00086e-09
-8.4244e-10
-6.92486e-10
8.38167e-08
1.00938e-09
-4.94082e-10
5.9067e-08
-6.67547e-10
-8.39071e-08
1.28446e-07
-6.82806e-09
8.70471e-08
9.10553e-08
-4.15128e-09
-7.43177e-08
-2.30973e-08
1.29401e-07
-5.93512e-09
2.40676e-08
9.2292e-08
-3.98542e-09
-2.2823e-08
-1.00768e-08
1.29622e-07
-4.15406e-09
1.09493e-08
9.26728e-08
-2.92968e-09
-9.59717e-09
-4.97476e-09
1.29595e-07
-2.66052e-09
5.60834e-09
9.2712e-08
-1.92765e-09
-4.5261e-09
-2.75892e-09
1.29494e-07
-1.70439e-09
3.19663e-09
9.2632e-08
-1.25435e-09
-2.40011e-09
-1.70236e-09
1.29381e-07
-1.13603e-09
2.00955e-09
9.25156e-08
-8.41532e-10
-1.41976e-09
-1.16081e-09
-8.03672e-10
1.29265e-07
1.38649e-09
-5.95248e-10
9.23828e-08
-9.28087e-10
-9.01566e-08
1.53575e-07
-8.51881e-09
9.24338e-08
1.12103e-07
-5.50863e-09
-8.14855e-08
-2.6382e-08
1.53981e-07
-6.97819e-09
2.70156e-08
1.12655e-07
-4.74854e-09
-2.61743e-08
-1.12686e-08
1.53811e-07
-4.73849e-09
1.20195e-08
1.12659e-07
-3.3679e-09
-1.08387e-08
-5.43505e-09
1.5353e-07
-2.96394e-09
6.01897e-09
1.12474e-07
-2.16499e-09
-5.01396e-09
-2.94119e-09
1.53267e-07
-1.85421e-09
3.35175e-09
1.12258e-07
-1.37823e-09
-2.60386e-09
-1.76748e-09
1.53047e-07
-1.20275e-09
2.05446e-09
1.12059e-07
-9.02867e-10
-1.50638e-09
-1.1709e-09
-8.23931e-10
1.52859e-07
1.37839e-09
-6.21263e-10
1.11874e-07
-9.6159e-10
-9.17765e-08
1.75964e-07
-8.29246e-09
9.27576e-08
1.32119e-07
-5.33257e-09
-8.4902e-08
-2.85532e-08
1.75884e-07
-7.02009e-09
2.86739e-08
1.32079e-07
-4.73085e-09
-2.85332e-08
-1.19498e-08
1.75373e-07
-4.74985e-09
1.24699e-08
1.31771e-07
-3.36405e-09
-1.16495e-08
-5.63336e-09
1.74885e-07
-2.94438e-09
6.10103e-09
1.31415e-07
-2.15186e-09
-5.29113e-09
-2.97387e-09
1.74503e-07
-1.81532e-09
3.31515e-09
1.31107e-07
-1.35418e-09
-2.69215e-09
-1.73795e-09
1.74216e-07
-1.153e-09
1.97642e-09
1.30861e-07
-8.71982e-10
-1.52256e-09
-1.11468e-09
-7.67598e-10
1.73989e-07
1.28368e-09
-5.86117e-10
1.30658e-07
-9.47546e-10
-9.00718e-08
1.94354e-07
-7.21333e-09
8.98541e-08
1.49915e-07
-4.64536e-09
-8.52206e-08
-2.98412e-08
1.93966e-07
-6.28439e-09
2.94933e-08
1.49513e-07
-4.20582e-09
-2.99651e-08
-1.23233e-08
1.932e-07
-4.2789e-09
1.26167e-08
1.48988e-07
-3.03369e-09
-1.21321e-08
-5.71305e-09
1.92564e-07
-2.6547e-09
6.05967e-09
1.48516e-07
-1.95107e-09
-5.44227e-09
-2.95563e-09
1.92108e-07
-1.62706e-09
3.22226e-09
1.48155e-07
-1.22409e-09
-2.72684e-09
-1.68417e-09
1.9179e-07
-1.0202e-09
1.86992e-09
1.47894e-07
-7.80906e-10
-1.51337e-09
-1.04566e-09
-6.65217e-10
1.91559e-07
1.17316e-09
-5.1677e-10
1.47698e-07
-9.20177e-10
-8.70655e-08
2.07287e-07
-6.47323e-09
8.60063e-08
1.63656e-07
-3.96206e-09
-8.36627e-08
-2.99974e-08
2.06695e-07
-5.15998e-09
2.94652e-08
1.62974e-07
-3.41351e-09
-3.01081e-08
-1.24412e-08
2.05675e-07
-3.47793e-09
1.26586e-08
1.62184e-07
-2.46629e-09
-1.22213e-08
-5.78258e-09
2.04883e-07
-2.16601e-09
6.08743e-09
1.61547e-07
-1.59958e-09
-5.49748e-09
-2.99115e-09
2.04352e-07
-1.33684e-09
3.23013e-09
1.61102e-07
-1.01261e-09
-2.75909e-09
-1.69815e-09
2.04013e-07
-8.45216e-10
1.86322e-09
1.60806e-07
-6.5205e-10
-1.53073e-09
-1.04585e-09
-5.56403e-10
2.03793e-07
1.15644e-09
-4.35921e-10
1.60607e-07
-9.28085e-10
-8.35201e-08
2.13682e-07
-6.48308e-09
8.18932e-08
1.72699e-07
-3.74052e-09
-8.09726e-08
-2.93841e-08
2.13367e-07
-4.38535e-09
2.89249e-08
1.72147e-07
-2.80811e-09
-2.94381e-08
-1.2454e-08
2.12413e-07
-2.80299e-09
1.27318e-08
1.71299e-07
-1.94307e-09
-1.21328e-08
-5.90726e-09
2.1163e-07
-1.71884e-09
6.24318e-09
1.70595e-07
-1.2483e-09
-5.55441e-09
-3.11027e-09
2.11096e-07
-1.05885e-09
3.36506e-09
1.70098e-07
-7.91343e-10
-2.83603e-09
-1.79385e-09
2.1075e-07
-6.72203e-10
1.96759e-09
1.69765e-07
-5.12657e-10
-1.59917e-09
-1.12142e-09
-4.45865e-10
2.10523e-07
1.23718e-09
-3.45789e-10
1.69537e-07
-9.84937e-10
-7.8031e-08
2.11782e-07
-8.0866e-09
7.59958e-08
1.75606e-07
-5.2629e-09
-7.63064e-08
-2.8297e-08
2.12254e-07
-4.46821e-09
2.79077e-08
1.75821e-07
-3.04115e-09
-2.82805e-08
-1.23196e-08
2.1166e-07
-2.5296e-09
1.26374e-08
1.75262e-07
-1.8004e-09
-1.19059e-08
-5.97723e-09
2.11051e-07
-1.4598e-09
6.32842e-09
1.74678e-07
-1.07524e-09
-5.56629e-09
-3.20512e-09
2.10605e-07
-8.74835e-10
3.46503e-09
1.74235e-07
-6.60132e-10
-2.896e-09
-1.8769e-09
2.10309e-07
-5.49801e-10
2.05209e-09
1.73929e-07
-4.22606e-10
-1.6603e-09
-1.18936e-09
-3.64449e-10
2.1011e-07
1.30524e-09
-2.84701e-10
1.73716e-07
-1.03821e-09
-7.02224e-08
1.98576e-07
-1.09479e-08
6.76874e-08
1.69874e-07
-8.42686e-09
-6.98282e-08
-2.60113e-08
2.00132e-07
-5.52782e-09
2.55123e-08
1.71403e-07
-4.24905e-09
-2.63366e-08
-1.15173e-08
2.00147e-07
-2.78874e-09
1.17568e-08
1.71495e-07
-2.15629e-09
-1.12579e-08
-5.65369e-09
1.99849e-07
-1.45968e-09
5.95166e-09
1.7123e-07
-1.14087e-09
-5.32381e-09
-3.05466e-09
1.99562e-07
-8.1478e-10
3.27996e-09
1.70948e-07
-6.43771e-10
-2.7915e-09
-1.79721e-09
1.99346e-07
-4.86003e-10
1.95006e-09
1.70726e-07
-3.88072e-10
-1.60833e-09
-1.14242e-09
-3.09092e-10
1.99188e-07
1.24376e-09
-2.49549e-10
1.70556e-07
-1.00889e-09
-4.8184e-08
1.38623e-07
-1.25328e-08
4.55274e-08
1.22213e-07
-1.07207e-08
-4.91067e-08
-1.79395e-08
1.40425e-07
-6.66896e-09
1.7275e-08
1.24314e-07
-5.64209e-09
-1.86522e-08
-7.95519e-09
1.40904e-07
-3.29943e-09
7.98276e-09
1.24969e-07
-2.77191e-09
-7.99957e-09
-3.89353e-09
1.40943e-07
-1.63882e-09
4.03315e-09
1.25084e-07
-1.37488e-09
-3.77515e-09
-2.09182e-09
1.40873e-07
-8.67287e-10
2.21242e-09
1.25042e-07
-7.28627e-10
-1.96788e-09
-1.22143e-09
1.40796e-07
-4.93782e-10
1.30702e-09
1.24973e-07
-4.16329e-10
-1.12407e-09
-7.69425e-10
-3.01696e-10
1.40729e-07
8.27277e-10
-2.55848e-10
1.24907e-07
-6.9763e-10
-3.20151e-08
9.22946e-08
-1.20286e-08
2.92853e-08
8.35018e-08
-1.10875e-08
-3.38658e-08
-1.18787e-08
9.34671e-08
-7.03352e-09
1.1067e-08
8.52406e-08
-6.3865e-09
-1.28773e-08
-5.23623e-09
9.39194e-08
-3.61097e-09
5.09358e-09
8.59835e-08
-3.24929e-09
-5.50433e-09
-2.53835e-09
9.40369e-08
-1.77406e-09
2.55321e-09
8.62339e-08
-1.58951e-09
-2.57705e-09
-1.34867e-09
9.40456e-08
-9.14282e-10
1.38714e-09
8.63032e-08
-8.17807e-10
-1.32891e-09
-7.7806e-10
9.40231e-08
-5.05518e-10
8.1084e-10
8.63093e-08
-4.52486e-10
-7.49479e-10
-4.83773e-10
-3.00206e-10
9.39984e-08
5.07347e-10
-2.69553e-10
8.62981e-08
-4.5848e-10
-2.07686e-08
5.96505e-08
-1.01248e-08
1.82788e-08
5.4978e-08
-9.8404e-09
-2.29765e-08
-7.63689e-09
5.99385e-08
-6.51564e-09
6.82836e-09
5.58893e-08
-6.2225e-09
-8.71607e-09
-3.33389e-09
6.0092e-08
-3.55297e-09
3.12091e-09
5.63666e-08
-3.36453e-09
-3.698e-09
-1.5948e-09
6.01248e-08
-1.76142e-09
1.54723e-09
5.65534e-08
-1.66152e-09
-1.71185e-09
-8.3524e-10
6.01136e-08
-8.9767e-10
8.29986e-10
5.66164e-08
-8.45038e-10
-8.71014e-10
-4.749e-10
6.00904e-08
-4.87492e-10
4.78885e-10
5.66308e-08
-4.58842e-10
-4.84135e-10
-2.9091e-10
-2.83837e-10
6.00695e-08
2.95664e-10
-2.67698e-10
5.66299e-08
-2.9154e-10
-1.30222e-08
3.72574e-08
-7.75147e-09
1.09633e-08
3.4947e-08
-7.87504e-09
-1.51796e-08
-4.72857e-09
3.68675e-08
-5.41067e-09
4.0124e-09
3.51286e-08
-5.37881e-09
-5.75532e-09
-2.04063e-09
3.66879e-08
-3.14984e-09
1.8161e-09
3.52513e-08
-3.10745e-09
-2.42195e-09
-9.61539e-10
3.65871e-08
-1.58966e-09
8.8878e-10
3.52991e-08
-1.56544e-09
-1.10732e-09
-4.9545e-10
3.65222e-08
-8.06834e-10
4.69786e-10
3.53084e-08
-7.94251e-10
-5.55409e-10
-2.77229e-10
3.64767e-08
-4.32821e-10
2.67115e-10
3.53019e-08
-4.26432e-10
-3.04077e-10
-1.67157e-10
-2.48256e-10
3.64459e-08
1.6256e-10
-2.45169e-10
3.52927e-08
-1.80221e-10
-8.22811e-09
2.35185e-08
-5.39951e-09
6.6312e-09
2.23089e-08
-5.67158e-09
-1.00978e-08
-2.92371e-09
2.27405e-08
-4.0628e-09
2.35327e-09
2.19629e-08
-4.15642e-09
-3.80138e-09
-1.24108e-09
2.23096e-08
-2.52909e-09
1.05046e-09
2.17616e-08
-2.56906e-09
-1.57938e-09
-5.74889e-10
2.2094e-08
-1.30621e-09
5.06758e-10
2.16605e-08
-1.32792e-09
-7.11729e-10
-2.9103e-10
2.19761e-08
-6.62174e-10
2.6352e-10
2.16004e-08
-6.74329e-10
-3.51695e-10
-1.60115e-10
2.19075e-08
-3.51279e-10
1.47456e-10
2.15623e-08
-3.58504e-10
-1.89676e-10
-9.49929e-11
-1.98706e-10
2.18641e-08
8.83888e-11
-2.03401e-10
2.15358e-08
-1.10708e-10
-5.08731e-09
1.46403e-08
-3.4707e-09
3.934e-09
1.39776e-08
-3.7375e-09
-6.54947e-09
-1.76614e-09
1.37965e-08
-2.79645e-09
1.34391e-09
1.34342e-08
-2.92443e-09
-2.45488e-09
-7.35741e-10
1.32714e-08
-1.85695e-09
5.88188e-10
1.30663e-08
-1.92903e-09
-1.00857e-09
-3.35088e-10
1.30072e-08
-9.86238e-10
2.79408e-10
1.28798e-08
-1.02788e-09
-4.48735e-10
-1.66654e-10
1.28691e-08
-5.0073e-10
1.42811e-10
1.27809e-08
-5.23901e-10
-2.18765e-10
-9.01226e-11
1.27924e-08
-2.62759e-10
7.85577e-11
1.27249e-08
-2.75977e-10
-1.16374e-10
-5.26094e-11
-1.46556e-10
1.27463e-08
4.63544e-11
-1.54539e-10
1.26901e-08
-6.69805e-11
-3.02766e-09
8.82347e-09
-2.11073e-09
2.23896e-09
8.52858e-09
-2.32677e-09
-4.09606e-09
-1.02925e-09
8.12334e-09
-1.80073e-09
7.33952e-10
8.03188e-09
-1.91723e-09
-1.53987e-09
-4.19174e-10
7.639e-09
-1.26627e-09
3.12798e-10
7.64906e-09
-1.33927e-09
-6.26358e-10
-1.87602e-10
7.38852e-09
-6.94543e-10
1.46153e-10
7.44772e-09
-7.38977e-10
-2.75482e-10
-9.17279e-11
7.26072e-09
-3.54537e-10
7.34034e-11
7.34459e-09
-3.79709e-10
-1.32755e-10
-4.8787e-11
7.19108e-09
-1.84162e-10
3.9656e-11
7.28787e-09
-1.98444e-10
-6.98081e-11
-2.80429e-11
-1.01187e-10
7.15088e-09
2.30187e-11
-1.09633e-10
7.25476e-09
-3.97087e-11
-1.76715e-09
5.24041e-09
-1.21777e-09
1.25383e-09
5.11012e-09
-1.36818e-09
-2.49746e-09
-5.89239e-10
4.72399e-09
-1.0881e-09
3.93374e-10
4.72181e-09
-1.17476e-09
-9.43428e-10
-2.34412e-10
4.334e-09
-8.03605e-10
1.61807e-10
4.39153e-09
-8.62039e-10
-3.81413e-10
-1.03168e-10
4.12442e-09
-4.55992e-10
7.41308e-11
4.20888e-09
-4.93193e-10
-1.66415e-10
-4.96643e-11
4.01834e-09
-2.35341e-10
3.65723e-11
4.1158e-09
-2.5681e-10
-7.94874e-11
-2.59919e-11
3.96192e-09
-1.21207e-10
1.93836e-11
4.06601e-09
-1.33345e-10
-4.13939e-11
-1.4713e-11
-6.5568e-11
3.93007e-09
1.10555e-11
-7.26331e-11
4.0377e-09
-2.33061e-11
-1.01602e-09
3.07665e-09
-6.55468e-10
6.94243e-10
3.02335e-09
-7.47743e-10
-1.49173e-09
-3.31281e-10
2.72183e-09
-6.09115e-10
2.07342e-10
2.74641e-09
-6.64616e-10
-5.64559e-10
-1.27682e-10
2.4345e-09
-4.6958e-10
8.10595e-11
2.49216e-09
-5.09448e-10
-2.26051e-10
-5.492e-11
2.2732e-09
-2.75837e-10
3.60531e-11
2.34393e-09
-3.02349e-10
-9.75961e-11
-2.60043e-11
2.19148e-09
-1.44993e-10
1.74363e-11
2.26805e-09
-1.60675e-10
-4.62e-11
-1.34003e-11
2.14896e-09
-7.4431e-11
9.05943e-12
2.22839e-09
-8.33323e-11
-2.38554e-11
-7.47651e-12
-3.96697e-11
2.12556e-09
5.07343e-12
-4.47925e-11
2.20647e-09
-1.33164e-11
-5.61806e-10
1.74144e-09
-3.26648e-10
3.69996e-10
1.72591e-09
-3.78762e-10
-8.53642e-10
-1.8019e-10
1.51913e-09
-3.12193e-10
1.05765e-10
1.54967e-09
-3.43381e-10
-3.25255e-10
-6.73192e-11
1.32748e-09
-2.49638e-10
3.90879e-11
1.37533e-09
-2.73092e-10
-1.29328e-10
-2.82322e-11
1.21472e-09
-1.51556e-10
1.67461e-11
1.26787e-09
-1.67799e-10
-5.53078e-11
-1.31518e-11
1.15666e-09
-8.17182e-11
7.92322e-12
1.21168e-09
-9.16765e-11
-2.59852e-11
-6.68579e-12
1.1271e-09
-4.22121e-11
4.03431e-12
1.18296e-09
-4.79692e-11
-1.33325e-11
-3.68229e-12
-2.22971e-11
1.11118e-09
2.2155e-12
-2.56032e-11
1.16746e-09
-7.39472e-12
-2.9666e-10
9.43715e-10
-1.43952e-10
1.88148e-10
9.41817e-10
-1.70151e-10
-4.64873e-10
-9.38258e-11
8.13872e-10
-1.40036e-10
5.15801e-11
8.37574e-10
-1.54856e-10
-1.7831e-10
-3.39496e-11
6.96122e-10
-1.15749e-10
1.78133e-11
7.28254e-10
-1.27283e-10
-7.04814e-11
-1.3821e-11
6.23624e-10
-7.24163e-11
7.22442e-12
6.57242e-10
-8.07098e-11
-2.98694e-11
-6.31966e-12
5.85129e-10
-4.02879e-11
3.31198e-12
6.18711e-10
-4.56172e-11
-1.39353e-11
-3.17494e-12
5.65712e-10
-2.12459e-11
1.65039e-12
5.99156e-10
-2.44495e-11
-7.11644e-12
-1.7312e-12
-1.1325e-11
5.55551e-10
8.89489e-13
-1.31967e-11
5.88905e-10
-3.93001e-12
-1.44001e-10
4.73542e-10
-5.00695e-11
8.76555e-11
4.74786e-10
-6.07778e-11
-2.32114e-10
-4.51379e-11
4.04538e-10
-4.90442e-11
2.31988e-11
4.1877e-10
-5.44267e-11
-8.97458e-11
-1.58362e-11
3.39321e-10
-4.20941e-11
7.39907e-12
3.57378e-10
-4.64419e-11
-3.53203e-11
-6.23453e-12
2.97474e-10
-2.70794e-11
2.76643e-12
3.15614e-10
-3.03265e-11
-1.48453e-11
-2.7851e-12
2.74317e-10
-1.55583e-11
1.20001e-12
2.91839e-10
-1.77646e-11
-6.87769e-12
-1.38344e-12
2.62414e-10
-8.565e-12
5.80487e-13
2.79463e-10
-9.99069e-12
-3.49947e-12
-7.5049e-13
-4.81452e-12
2.56347e-10
3.08507e-13
-5.69735e-12
2.73137e-10
-1.92859e-12
-5.70228e-11
1.99203e-10
-9.69854e-12
3.24341e-11
2.00949e-10
-1.25755e-11
-9.52292e-11
-1.80572e-11
1.68982e-10
-9.26382e-12
8.53139e-12
1.76257e-10
-1.03335e-11
-3.75933e-11
-6.19958e-12
1.39169e-10
-8.5913e-12
2.51137e-12
1.47906e-10
-9.49363e-12
-1.48218e-11
-2.36556e-12
1.19318e-10
-5.68601e-12
8.40868e-13
1.27817e-10
-6.39458e-12
-6.19945e-12
-1.02921e-12
1.07811e-10
-3.36801e-12
3.30124e-13
1.15751e-10
-3.89125e-12
-2.85534e-12
-5.04475e-13
1.01562e-10
-1.96971e-12
1.50222e-13
1.09045e-10
-2.35263e-12
-1.44814e-12
-2.73514e-13
-1.31259e-12
9.82498e-11
7.91264e-14
-1.58447e-12
1.05448e-10
-7.9779e-13
-9.40929e-12
4.52997e-11
3.27523e-12
4.66572e-11
-1.82291e-11
-3.5274e-12
3.83341e-11
1.22909e-12
4.09697e-11
-8.1739e-12
-1.25297e-12
3.06493e-11
3.46811e-13
3.35771e-11
-3.3538e-12
-4.76419e-13
2.5343e-11
9.60501e-14
2.8127e-11
-1.42171e-12
-2.03865e-13
2.21507e-11
2.75219e-14
2.46872e-11
-6.56284e-13
-9.80455e-14
2.02683e-11
8.13968e-15
2.25645e-11
-3.31836e-13
-5.33857e-14
1.90057e-11
4.15326e-15
2.11098e-11
-1.82808e-13
2.9032e-15
1.22923e-11
-5.90422e-13
7.42444e-14
7.24921e-12
-3.90039e-13
2.86432e-14
1.49064e-14
1.26845e-11
-4.53648e-13
4.9973e-14
7.55112e-12
-3.24398e-13
3.62087e-14
2.52571e-14
1.30996e-11
-4.81268e-13