/*--------------------------------*- C++ -*----------------------------------*\
| =========                 |                                                 |
| \\      /  F ield         | OpenFOAM: The Open Source CFD Toolbox           |
|  \\    /   O peration     | Version:  2206                                  |
|   \\  /    A nd           | Website:  www.openfoam.com                      |
|    \\/     M anipulation  |                                                 |
\*---------------------------------------------------------------------------*/
FoamFile
{
    version     2.0;
    format      ascii;
    arch        "LSB;label=32;scalar=64";
    class       volVectorField;
    location    "480";
    object      U;
}
// * * * * * * * * * * * * * * * * * * * * * * * * * * * * * * * * * * * * * //

dimensions      [0 1 -1 0 0 0 0];

internalField   nonuniform List<vector> 
50904
(
(-0.119898 0.467135 1.22581e-05)
(-0.117186 0.458635 1.32383e-05)
(-0.109662 0.46501 -1.16167e-05)
(-0.10733 0.457333 -1.15058e-05)
(-0.119271 0.466596 6.76839e-06)
(-0.116374 0.458467 9.99425e-06)
(-0.108416 0.462689 -2.43849e-05)
(-0.105721 0.45542 -2.39442e-05)
(-0.118465 0.465814 9.31005e-06)
(-0.115335 0.458144 1.55861e-05)
(-0.106899 0.459883 -5.51836e-05)
(-0.103779 0.453127 -5.5164e-05)
(-0.117435 0.464686 1.62388e-05)
(-0.114012 0.457582 2.62798e-05)
(-0.105066 0.456521 -0.000106263)
(-0.101461 0.450406 -0.000107559)
(-0.116125 0.463065 3.0551e-05)
(-0.112336 0.456653 4.48647e-05)
(-0.102868 0.452519 -0.000184097)
(-0.0987198 0.447199 -0.000187303)
(-0.114469 0.460752 6.33575e-05)
(-0.110232 0.455182 8.16203e-05)
(-0.100253 0.447774 -0.000297602)
(-0.095511 0.443432 -0.000302424)
(-0.112372 0.457464 0.000132756)
(-0.107589 0.452916 0.000152976)
(-0.0971377 0.442113 -0.000453326)
(-0.0917562 0.438967 -0.000457575)
(-0.10972 0.452812 0.000291048)
(-0.104291 0.449504 0.000309911)
(-0.0934292 0.435297 -0.000661612)
(-0.0873766 0.433605 -0.00065912)
(-0.106462 0.446358 0.000627065)
(-0.100293 0.44453 0.000638254)
(-0.0890806 0.427051 -0.000909711)
(-0.0823368 0.427092 -0.000887287)
(-0.102568 0.437719 0.00121717)
(-0.095612 0.437633 0.00120889)
(-0.0840384 0.417016 -0.00111592)
(-0.0766204 0.419107 -0.00104973)
(-0.0980145 0.426406 0.00223809)
(-0.0902486 0.428343 0.00219038)
(-0.0782651 0.404743 -0.00117772)
(-0.0701944 0.409229 -0.00103943)
(-0.0927365 0.411744 0.00388388)
(-0.0841458 0.416001 0.00377546)
(-0.0716796 0.389544 -0.000896414)
(-0.0629505 0.396782 -0.000670202)
(-0.0868206 0.393441 0.00622551)
(-0.0774435 0.400287 0.00601485)
(-0.0643756 0.370987 -6.42627e-05)
(-0.0550076 0.381364 0.000236629)
(-0.0804262 0.371442 0.00909096)
(-0.0702911 0.381055 0.00870123)
(-0.0564715 0.348752 0.00134448)
(-0.0464564 0.362594 0.00165238)
(-0.0741408 0.346497 0.0120697)
(-0.0632883 0.358911 0.0113955)
(-0.0484915 0.323183 0.0029118)
(-0.0377157 0.340638 0.00308041)
(-0.0700283 0.32428 0.014044)
(-0.058586 0.338776 0.0130495)
(-0.0424128 0.299357 0.00376116)
(-0.0307788 0.319687 0.00365147)
(-0.0688732 0.308266 0.0147091)
(-0.0569731 0.323823 0.0134853)
(-0.0391234 0.280872 0.00375126)
(-0.0265615 0.302906 0.00331124)
(-0.0707093 0.299218 0.0147824)
(-0.0584892 0.31484 0.0134561)
(-0.0386393 0.268582 0.00328177)
(-0.0250892 0.291114 0.00249724)
(-0.0751976 0.297683 0.0147874)
(-0.0628636 0.312475 0.0134928)
(-0.0406779 0.263036 0.00292241)
(-0.0261343 0.284903 0.00181986)
(-0.0821458 0.303687 0.0141075)
(-0.0699085 0.316855 0.0130835)
(-0.0453543 0.264866 0.00240853)
(-0.0298651 0.284839 0.0011265)
(-0.0916748 0.317193 0.0132334)
(-0.0797318 0.327936 0.0125866)
(-0.0530299 0.27512 0.00230185)
(-0.0367551 0.291875 0.00097773)
(-0.10386 0.337814 0.0116612)
(-0.0924757 0.345338 0.0115099)
(-0.0642418 0.294997 0.00218703)
(-0.0475637 0.307233 0.00110835)
(-0.116945 0.361985 0.00982791)
(-0.106387 0.365999 0.0100736)
(-0.0774015 0.321558 0.00218482)
(-0.0610232 0.328911 0.00160241)
(-0.128358 0.383959 0.0075711)
(-0.118713 0.384843 0.00800983)
(-0.0897598 0.347954 0.0018737)
(-0.0742928 0.351137 0.00177646)
(-0.137935 0.402698 0.00540207)
(-0.12918 0.400861 0.00587026)
(-0.100779 0.372012 0.00137378)
(-0.0866077 0.37177 0.00158416)
(-0.145814 0.418109 0.00364818)
(-0.137845 0.41395 0.0040551)
(-0.110254 0.392842 0.000902308)
(-0.0975432 0.389833 0.00122603)
(-0.15226 0.43066 0.00235996)
(-0.144957 0.424536 0.00267692)
(-0.118269 0.410512 0.000546295)
(-0.10703 0.405268 0.000860138)
(-0.15755 0.440933 0.00146761)
(-0.150804 0.433145 0.00169514)
(-0.125046 0.425509 0.000309898)
(-0.115199 0.418423 0.000560171)
(-0.161863 0.449211 0.000880186)
(-0.155552 0.440044 0.00103493)
(-0.130661 0.437978 0.000170158)
(-0.122053 0.429392 0.000347025)
(-0.165327 0.455803 0.00051006)
(-0.159354 0.445514 0.000610785)
(-0.135218 0.448136 9.30027e-05)
(-0.127674 0.438357 0.000207382)
(-0.168103 0.461067 0.000283472)
(-0.162389 0.449869 0.000346621)
(-0.1389 0.456386 5.2752e-05)
(-0.132246 0.445658 0.000121103)
(-0.170333 0.46527 0.000148811)
(-0.164819 0.453336 0.000186796)
(-0.141865 0.463065 3.01799e-05)
(-0.135948 0.45158 6.77422e-05)
(-0.172116 0.468612 7.2131e-05)
(-0.166755 0.456089 9.38965e-05)
(-0.144243 0.468431 1.7502e-05)
(-0.138925 0.456346 3.61051e-05)
(-0.173538 0.471281 3.06608e-05)
(-0.168296 0.458284 4.21338e-05)
(-0.146147 0.472749 9.916e-06)
(-0.141315 0.460187 1.77389e-05)
(-0.174674 0.473418 1.02566e-05)
(-0.169524 0.46004 1.54284e-05)
(-0.14767 0.476225 4.61735e-06)
(-0.143231 0.463281 7.06722e-06)
(-0.17558 0.475122 1.85419e-06)
(-0.170502 0.46144 3.31787e-06)
(-0.148885 0.479011 -7.13299e-09)
(-0.144762 0.465762 3.53579e-07)
(-0.10097 0.464476 5.3757e-06)
(-0.09924 0.457571 2.24553e-06)
(-0.0946664 0.463734 3.51651e-06)
(-0.0932349 0.457264 3.35879e-07)
(-0.0925114 0.463645 7.59856e-06)
(-0.0910949 0.457344 4.67161e-06)
(-0.0913684 0.463543 6.80452e-06)
(-0.0899714 0.457331 3.67084e-06)
(-0.0906885 0.463481 9.93578e-06)
(-0.0893078 0.457329 6.04445e-06)
(-0.0902287 0.463428 1.10643e-05)
(-0.0888614 0.457316 6.32158e-06)
(-0.0898773 0.463379 1.05373e-05)
(-0.0885232 0.457304 7.2246e-06)
(-0.100172 0.463372 -2.73505e-05)
(-0.0981961 0.456895 -3.6368e-05)
(-0.094256 0.462524 -2.0648e-05)
(-0.0926472 0.456442 -2.80515e-05)
(-0.0923272 0.462534 -7.30699e-06)
(-0.0908239 0.456612 -1.58329e-05)
(-0.091298 0.462368 7.04679e-06)
(-0.0898793 0.456526 -3.19131e-06)
(-0.0906891 0.462249 2.64009e-05)
(-0.0893298 0.456459 1.39996e-05)
(-0.0902769 0.462139 4.22566e-05)
(-0.0889614 0.456383 2.80733e-05)
(-0.0899619 0.462035 5.33802e-05)
(-0.0886832 0.456312 4.06226e-05)
(-0.0991443 0.46186 -0.000109085)
(-0.0968713 0.455917 -0.000122431)
(-0.0936925 0.460863 -7.51688e-05)
(-0.0918726 0.455286 -8.67065e-05)
(-0.0920203 0.460913 -2.71961e-05)
(-0.0904078 0.455492 -4.56714e-05)
(-0.0911261 0.460662 3.15589e-05)
(-0.0896706 0.455311 6.63238e-06)
(-0.0906005 0.460462 9.20624e-05)
(-0.0892527 0.455158 6.14526e-05)
(-0.0902456 0.460282 0.000141917)
(-0.0889763 0.455008 0.000106936)
(-0.0899754 0.460119 0.000179616)
(-0.0887703 0.454874 0.000143987)
(-0.0978219 0.459792 -0.000272162)
(-0.0951965 0.454513 -0.000286822)
(-0.0929158 0.458571 -0.000175665)
(-0.0908477 0.453655 -0.000191023)
(-0.0915297 0.458578 -5.59434e-05)
(-0.0897805 0.453817 -9.08429e-05)
(-0.0907929 0.458206 8.97641e-05)
(-0.0892789 0.453511 3.88565e-05)
(-0.0903646 0.457903 0.000222747)
(-0.0890115 0.45325 0.000159366)
(-0.0900782 0.457643 0.000328367)
(-0.0888422 0.453017 0.000255816)
(-0.0898626 0.457415 0.000408663)
(-0.0887214 0.452814 0.000331659)
(-0.0961223 0.456966 -0.000547752)
(-0.0930854 0.452514 -0.000557327)
(-0.0918405 0.455402 -0.000333693)
(-0.0894833 0.451347 -0.000352057)
(-0.0907681 0.45525 -8.3648e-05)
(-0.0888477 0.451362 -0.000143497)
(-0.0902111 0.454713 0.000202745)
(-0.0886088 0.450893 0.000110198)
(-0.0898955 0.454279 0.000446961)
(-0.088511 0.4505 0.000330341)
(-0.0896898 0.453926 0.000634366)
(-0.0884642 0.450171 0.00050069)
(-0.0895391 0.453626 0.000775298)
(-0.0884417 0.449893 0.00063142)
(-0.0939422 0.453119 -0.000964124)
(-0.090433 0.449691 -0.000956829)
(-0.0903489 0.451019 -0.0005533)
(-0.0876571 0.448086 -0.000573769)
(-0.0896133 0.450564 -8.48722e-05)
(-0.0874789 0.447826 -0.000181215)
(-0.0892578 0.449806 0.000408111)
(-0.0875268 0.447147 0.000252492)
(-0.0890707 0.449212 0.000808359)
(-0.0876172 0.446597 0.00061052)
(-0.0889577 0.448748 0.00110794)
(-0.0877076 0.446158 0.000880868)
(-0.0888823 0.448368 0.00133018)
(-0.0877962 0.445798 0.00108427)
(-0.0911451 0.447899 -0.00153821)
(-0.0871012 0.445745 -0.00149448)
(-0.0882805 0.444984 -0.000820996)
(-0.0852019 0.443506 -0.000843054)
(-0.0879 0.444055 -1.40635e-05)
(-0.0854992 0.442824 -0.000162297)
(-0.0877659 0.443007 0.000764395)
(-0.0858555 0.441877 0.000518139)
(-0.0877223 0.442218 0.00137076)
(-0.0861518 0.441143 0.00105603)
(-0.0877136 0.441624 0.00181488)
(-0.0863936 0.44058 0.0014533)
(-0.0877233 0.441154 0.00214049)
(-0.0866054 0.440129 0.00174755)
(-0.0875693 0.440865 -0.00224346)
(-0.082933 0.440292 -0.00213289)
(-0.0854401 0.436745 -0.00107504)
(-0.0819145 0.437138 -0.00110167)
(-0.0854243 0.435145 0.000224819)
(-0.0826952 0.435862 1.99882e-06)
(-0.085528 0.433726 0.00138399)
(-0.083379 0.434584 0.00100992)
(-0.085642 0.432706 0.00225256)
(-0.0838991 0.433635 0.00177489)
(-0.0857483 0.431963 0.00287371)
(-0.0843067 0.432932 0.00232619)
(-0.0858521 0.431393 0.00332215)
(-0.0846538 0.432384 0.00272708)
(-0.0830658 0.431523 -0.00297605)
(-0.0777882 0.432903 -0.00276172)
(-0.0816152 0.425712 -0.00117728)
(-0.0775729 0.428479 -0.00122325)
(-0.0819586 0.423227 0.000783091)
(-0.0788288 0.426429 0.000445493)
(-0.0823103 0.42135 0.00242617)
(-0.0798543 0.424749 0.00186695)
(-0.0825914 0.420057 0.00361686)
(-0.0806135 0.423555 0.00290807)
(-0.0828202 0.419142 0.00444993)
(-0.0811995 0.422696 0.00364161)
(-0.0830239 0.418461 0.00503988)
(-0.081692 0.422043 0.00416362)
(-0.077518 0.419439 -0.003555)
(-0.0715857 0.423223 -0.00319617)
(-0.0766182 0.411386 -0.000891881)
(-0.0720034 0.417115 -0.000982426)
(-0.0773016 0.407819 0.00186785)
(-0.0737108 0.41412 0.00136714)
(-0.0779068 0.405414 0.00407189)
(-0.0750895 0.41198 0.00326695)
(-0.0783655 0.403833 0.00562006)
(-0.0761056 0.41053 0.00461274)
(-0.0787253 0.402748 0.00667813)
(-0.0768845 0.409518 0.00553765)
(-0.0790353 0.401966 0.00741075)
(-0.0775331 0.40877 0.0061794)
(-0.070863 0.404205 -0.00367685)
(-0.0642848 0.410909 -0.00316303)
(-0.0703666 0.393474 0.000151947)
(-0.0651416 0.40278 -5.56601e-05)
(-0.0713784 0.388724 0.00383038)
(-0.0672956 0.398742 0.00307316)
(-0.0722445 0.385763 0.00664846)
(-0.0690512 0.39611 0.00549931)
(-0.0728888 0.383895 0.00857056)
(-0.070346 0.394402 0.00716675)
(-0.0733839 0.382648 0.00984999)
(-0.0713318 0.393243 0.00828207)
(-0.0738017 0.381778 0.01071)
(-0.0721435 0.392409 0.00903174)
(-0.0630641 0.385437 -0.00301444)
(-0.0558289 0.395572 -0.00237209)
(-0.0628766 0.37192 0.00226624)
(-0.0569905 0.385327 0.00184074)
(-0.0642497 0.366088 0.00685465)
(-0.0596376 0.380302 0.00574156)
(-0.0654128 0.362678 0.0102349)
(-0.0618276 0.37725 0.00865448)
(-0.0662683 0.360612 0.0124754)
(-0.0634428 0.375351 0.0106004)
(-0.0669134 0.359275 0.0139257)
(-0.0646601 0.3741 0.0118659)
(-0.0674455 0.358375 0.014868)
(-0.0656461 0.373228 0.0126867)
(-0.0543656 0.363199 -0.00127386)
(-0.0465044 0.377287 -0.000614331)
(-0.0545369 0.347293 0.00570602)
(-0.0479821 0.365171 0.00488382)
(-0.056375 0.340749 0.0110577)
(-0.0512475 0.359406 0.00944209)
(-0.0579009 0.337132 0.0148251)
(-0.0539617 0.356095 0.0127095)
(-0.0590021 0.335027 0.0172428)
(-0.0559474 0.354114 0.0148286)
(-0.0598109 0.3337 0.0187575)
(-0.0574171 0.352843 0.0161649)
(-0.0604589 0.332847 0.0197025)
(-0.0585788 0.351988 0.0169974)
(-0.0452656 0.338119 0.00136665)
(-0.0367622 0.356412 0.00189587)
(-0.0459364 0.32092 0.00985882)
(-0.0387073 0.343118 0.00855066)
(-0.048428 0.314115 0.0156865)
(-0.0428059 0.336911 0.0135265)
(-0.0504314 0.310548 0.0195861)
(-0.04618 0.333508 0.0169371)
(-0.0518394 0.308567 0.0220012)
(-0.0486079 0.331557 0.0190804)
(-0.0528404 0.307365 0.0234613)
(-0.0503608 0.330348 0.0203895)
(-0.0536038 0.306603 0.0243284)
(-0.0516962 0.32954 0.0211689)
(-0.0365598 0.311171 0.0043307)
(-0.027268 0.333635 0.00453052)
(-0.0379464 0.294334 0.0133894)
(-0.0299498 0.320248 0.0116613)
(-0.0412998 0.28779 0.01924)
(-0.0351326 0.313941 0.0166877)
(-0.043893 0.284551 0.0229616)
(-0.0393082 0.310611 0.0199893)
(-0.0456523 0.282834 0.0251804)
(-0.0422378 0.308768 0.0219989)
(-0.0468531 0.28183 0.0264722)
(-0.0442866 0.307659 0.0231868)
(-0.0477268 0.281226 0.0272059)
(-0.0457907 0.306946 0.0238671)
(-0.0302764 0.287411 0.00619443)
(-0.0200345 0.312988 0.00596236)
(-0.0323351 0.271914 0.0148667)
(-0.0234938 0.300112 0.012861)
(-0.0364399 0.265938 0.0203435)
(-0.0296699 0.293904 0.0176314)
(-0.0395032 0.263123 0.0236891)
(-0.0345247 0.290706 0.0206753)
(-0.0415153 0.261696 0.0256257)
(-0.0378457 0.288985 0.0224893)
(-0.042839 0.260888 0.0267226)
(-0.0400982 0.287975 0.023539)
(-0.0437608 0.260427 0.0273273)
(-0.0416947 0.287351 0.0241271)
(-0.0269653 0.269349 0.0064808)
(-0.0156472 0.296606 0.00586337)
(-0.0293572 0.255289 0.0142324)
(-0.0196244 0.28427 0.012137)
(-0.0338994 0.249931 0.01919)
(-0.0264899 0.278226 0.0165379)
(-0.0372072 0.247516 0.0221479)
(-0.0317828 0.275172 0.0193013)
(-0.0393256 0.246337 0.0238297)
(-0.0353275 0.273564 0.0209277)
(-0.0406776 0.245687 0.0247679)
(-0.0376694 0.272634 0.0218579)
(-0.0415837 0.245327 0.0252787)
(-0.0392779 0.272079 0.0223751)
(-0.0263721 0.257101 0.00570799)
(-0.0138944 0.284637 0.00475006)
(-0.0286421 0.244133 0.0121791)
(-0.0180067 0.272546 0.0101136)
(-0.0332311 0.23927 0.0165596)
(-0.0251647 0.266623 0.0141078)
(-0.0365344 0.237152 0.0191936)
(-0.0306132 0.263675 0.0166455)
(-0.0386136 0.236147 0.0206967)
(-0.0342044 0.262147 0.0181473)
(-0.0399109 0.235603 0.0215379)
(-0.0365285 0.261273 0.0190092)
(-0.0407525 0.235299 0.0219988)
(-0.0380827 0.260759 0.0194919)
(-0.0283328 0.251036 0.00476182)
(-0.0146887 0.277416 0.00346704)
(-0.0300686 0.238507 0.00979704)
(-0.0185789 0.265053 0.00774345)
(-0.0342583 0.233985 0.0133959)
(-0.0255307 0.259225 0.0111295)
(-0.0372783 0.232073 0.0156473)
(-0.0307829 0.25639 0.0133615)
(-0.0391696 0.231185 0.0169666)
(-0.0342193 0.254941 0.0147135)
(-0.0403414 0.230711 0.0177196)
(-0.0364263 0.254121 0.0155038)
(-0.0410912 0.230433 0.0181386)
(-0.0378859 0.253627 0.0159541)
(-0.0329081 0.252089 0.00431833)
(-0.0181779 0.275772 0.00274609)
(-0.0336868 0.2393 0.00789127)
(-0.0214233 0.262598 0.00585766)
(-0.0370891 0.234854 0.0105399)
(-0.0276991 0.25674 0.00845748)
(-0.039605 0.233019 0.0122773)
(-0.0324555 0.253968 0.0102448)
(-0.041195 0.232178 0.0133359)
(-0.0355727 0.25257 0.0113629)
(-0.0421846 0.23173 0.0139629)
(-0.0375795 0.251779 0.0120377)
(-0.0428198 0.231467 0.0143286)
(-0.0389119 0.251303 0.0124392)
(-0.0403154 0.261658 0.00494973)
(-0.0246681 0.28107 0.00322009)
(-0.0396799 0.248192 0.00720756)
(-0.0267036 0.266751 0.00519564)
(-0.0420333 0.243519 0.00876093)
(-0.0319338 0.260633 0.00682363)
(-0.0439118 0.241605 0.0098312)
(-0.0359899 0.257803 0.00800484)
(-0.0451293 0.240732 0.0105183)
(-0.0386745 0.256391 0.00877881)
(-0.0458953 0.240267 0.010945)
(-0.0404142 0.255595 0.00926538)
(-0.0463894 0.239992 0.0112071)
(-0.0415767 0.255116 0.00956871)
(-0.0509034 0.281594 0.00682477)
(-0.0346755 0.295295 0.00521598)
(-0.0486405 0.267668 0.0082924)
(-0.0350923 0.279983 0.00641242)
(-0.0498243 0.262656 0.00870818)
(-0.0390383 0.27346 0.00695152)
(-0.0509908 0.26058 0.00892086)
(-0.0422558 0.27047 0.0073052)
(-0.051786 0.259645 0.00907353)
(-0.0444147 0.269005 0.00755622)
(-0.0522921 0.259165 0.00918832)
(-0.0458153 0.2682 0.00773262)
(-0.0525987 0.258822 0.00926926)
(-0.0467336 0.267676 0.00785349)
(-0.0634934 0.310295 0.00849725)
(-0.0473328 0.31796 0.00741285)
(-0.0598981 0.297435 0.0103024)
(-0.0461872 0.303049 0.00882725)
(-0.0600524 0.29254 0.0101093)
(-0.0488573 0.29649 0.00868942)
(-0.0605607 0.290428 0.00958278)
(-0.0512181 0.293421 0.0082741)
(-0.0609555 0.289472 0.00918125)
(-0.0528299 0.291925 0.00795589)
(-0.06121 0.288987 0.00892784)
(-0.0538699 0.291119 0.00775428)
(-0.0613488 0.288646 0.00877279)
(-0.0545349 0.290598 0.00763057)
(-0.0755022 0.34005 0.00861367)
(-0.060006 0.342774 0.00817557)
(-0.0711063 0.330144 0.0113493)
(-0.0577283 0.330243 0.01049)
(-0.070556 0.326279 0.0113228)
(-0.0593971 0.324536 0.0104249)
(-0.0705745 0.324508 0.0104845)
(-0.0610432 0.321738 0.00962408)
(-0.0706629 0.323693 0.00974069)
(-0.0621915 0.320359 0.0089162)
(-0.0707255 0.323282 0.00922699)
(-0.0629299 0.319622 0.00842424)
(-0.0707431 0.323002 0.0088938)
(-0.0633922 0.319157 0.00810183)
(-0.0862375 0.367366 0.00738979)
(-0.0718287 0.366304 0.00744621)
(-0.0813288 0.361358 0.0107437)
(-0.0686911 0.357393 0.0104899)
(-0.0803208 0.359292 0.0112924)
(-0.0696141 0.35341 0.0109771)
(-0.0799928 0.358252 0.0105124)
(-0.0706971 0.351313 0.0101824)
(-0.0798588 0.357773 0.00966345)
(-0.0714741 0.35026 0.00932435)
(-0.0797822 0.357534 0.0090329)
(-0.0719724 0.349695 0.00868325)
(-0.0797152 0.357369 0.00860903)
(-0.0722778 0.349344 0.00824761)
(-0.095404 0.390653 0.00561334)
(-0.0823249 0.386756 0.00591829)
(-0.0900254 0.388288 0.00893104)
(-0.0784024 0.381539 0.00908138)
(-0.0886849 0.388268 0.0100138)
(-0.078736 0.3797 0.0101412)
(-0.0881026 0.388162 0.00947752)
(-0.0793728 0.378592 0.00957557)
(-0.0878038 0.388131 0.00869245)
(-0.0798537 0.378019 0.00875482)
(-0.087625 0.388123 0.00806368)
(-0.0801614 0.377706 0.00809261)
(-0.0874975 0.388098 0.00762737)
(-0.0803448 0.377507 0.00762778)
(-0.103089 0.409935 0.00390292)
(-0.0914368 0.403897 0.00426375)
(-0.0971433 0.410258 0.00670591)
(-0.0866728 0.401642 0.00702771)
(-0.0954905 0.412011 0.0080441)
(-0.0864574 0.401806 0.00839809)
(-0.0946961 0.412797 0.00778049)
(-0.0867092 0.401722 0.00812357)
(-0.0942638 0.413207 0.00714185)
(-0.0869401 0.401662 0.00744998)
(-0.0940035 0.413426 0.0065846)
(-0.0870896 0.401618 0.00685536)
(-0.0938294 0.413535 0.00618582)
(-0.0871741 0.401577 0.00642375)
(-0.10954 0.425926 0.00252057)
(-0.0993 0.418194 0.00283751)
(-0.102902 0.427866 0.004621)
(-0.0936069 0.417918 0.00496213)
(-0.100896 0.430846 0.00592198)
(-0.0928125 0.419591 0.00633191)
(-0.0998988 0.432333 0.0058802)
(-0.0927011 0.420377 0.00630266)
(-0.0993445 0.433094 0.00541058)
(-0.0927044 0.420761 0.00580638)
(-0.0990122 0.433493 0.00495461)
(-0.0927134 0.42095 0.00531502)
(-0.0987971 0.433701 0.00461758)
(-0.0927113 0.42104 0.00494558)
(-0.114849 0.439004 0.00153343)
(-0.105917 0.429939 0.00177177)
(-0.107461 0.441704 0.00296556)
(-0.0992918 0.430814 0.0032487)
(-0.105057 0.445302 0.00403677)
(-0.0978877 0.433392 0.00440013)
(-0.103857 0.447228 0.00413417)
(-0.0974244 0.434792 0.00452875)
(-0.103187 0.448215 0.00382314)
(-0.0972165 0.435499 0.0042048)
(-0.102789 0.448728 0.00347531)
(-0.0970985 0.435857 0.0038304)
(-0.102537 0.448997 0.00320756)
(-0.0970197 0.43604 0.00353609)
(-0.119149 0.449555 0.000886829)
(-0.111383 0.439472 0.00104749)
(-0.111031 0.452482 0.00179159)
(-0.103895 0.440954 0.00199304)
(-0.108202 0.456195 0.002569)
(-0.101877 0.443904 0.00284122)
(-0.106798 0.458307 0.00272229)
(-0.101074 0.44565 0.00303222)
(-0.106018 0.459401 0.00254026)
(-0.100671 0.446555 0.00284753)
(-0.105559 0.459964 0.00229132)
(-0.100437 0.447014 0.0025795)
(-0.105273 0.460259 0.00208906)
(-0.10029 0.447252 0.00235597)
(-0.122625 0.458086 0.000485736)
(-0.115863 0.447217 0.000584903)
(-0.113834 0.460949 0.00101599)
(-0.107611 0.448983 0.00114436)
(-0.110579 0.464429 0.00152289)
(-0.104998 0.451914 0.0017041)
(-0.108968 0.466512 0.0016724)
(-0.103866 0.453762 0.00188789)
(-0.108085 0.467614 0.00158562)
(-0.103282 0.454749 0.00180479)
(-0.107568 0.468177 0.00142322)
(-0.102944 0.45525 0.0016302)
(-0.107252 0.468469 0.0012807)
(-0.102736 0.455509 0.00147188)
(-0.125423 0.464983 0.000248142)
(-0.119509 0.453508 0.00030412)
(-0.116043 0.467651 0.000532823)
(-0.110605 0.455387 0.00060593)
(-0.112381 0.470696 0.000829889)
(-0.107438 0.458059 0.000937164)
(-0.110567 0.472592 0.000943824)
(-0.105995 0.459816 0.00107688)
(-0.109585 0.473625 0.000916478)
(-0.105243 0.46079 0.00105636)
(-0.109017 0.474153 0.000824254)
(-0.104812 0.461288 0.000958241)
(-0.108673 0.474425 0.000733361)
(-0.10455 0.461545 0.000857004)
(-0.127671 0.470531 0.000114655)
(-0.122461 0.458589 0.000143019)
(-0.117789 0.472972 0.000250374)
(-0.113013 0.46051 0.00028651)
(-0.113756 0.475503 0.000403831)
(-0.109351 0.462806 0.000458613)
(-0.111747 0.477115 0.000474603)
(-0.107618 0.464348 0.000545336)
(-0.110671 0.478021 0.000475452)
(-0.106712 0.465235 0.000553133)
(-0.110057 0.478492 0.000434031)
(-0.106198 0.465698 0.000510731)
(-0.109689 0.478735 0.000385792)
(-0.10589 0.465938 0.000457226)
(-0.129477 0.475002 4.44792e-05)
(-0.124847 0.462698 5.67284e-05)
(-0.119175 0.477221 9.73927e-05)
(-0.11495 0.464627 0.000111938)
(-0.114814 0.47923 0.00016311)
(-0.110856 0.46651 0.000185795)
(-0.112626 0.480511 0.000197715)
(-0.10886 0.467765 0.000228142)
(-0.11146 0.48125 0.000205316)
(-0.107813 0.468509 0.000240556)
(-0.110804 0.481648 0.000194075)
(-0.107225 0.468912 0.000230928)
(-0.110415 0.481856 0.000177653)
(-0.106877 0.469126 0.000213322)
(-0.130925 0.478605 1.19592e-05)
(-0.126767 0.466016 1.59602e-05)
(-0.120276 0.480622 2.53896e-05)
(-0.116504 0.467937 2.93946e-05)
(-0.115635 0.482141 4.54366e-05)
(-0.112042 0.469417 5.18509e-05)
(-0.113285 0.483082 5.69716e-05)
(-0.109815 0.470361 6.59675e-05)
(-0.112035 0.483631 6.15709e-05)
(-0.108638 0.470925 7.27474e-05)
(-0.111338 0.483937 6.19327e-05)
(-0.107983 0.471244 7.48779e-05)
(-0.110931 0.484107 6.27873e-05)
(-0.1076 0.471424 7.66262e-05)
(-0.132081 0.481496 3.26734e-07)
(-0.128307 0.468684 9.02911e-07)
(-0.121151 0.483339 6.73001e-07)
(-0.117748 0.470591 9.13904e-07)
(-0.116273 0.484421 2.79594e-06)
(-0.112977 0.471704 3.27425e-06)
(-0.113782 0.485042 3.8238e-06)
(-0.110551 0.472347 4.60915e-06)
(-0.112455 0.485394 4.14055e-06)
(-0.109259 0.472716 5.31973e-06)
(-0.111718 0.485594 4.26435e-06)
(-0.108541 0.472928 5.89319e-06)
(-0.111293 0.485713 8.07018e-06)
(-0.108125 0.473058 1.05347e-05)
(-0.0895619 0.463338 8.11072e-06)
(-0.0882185 0.457286 7.77492e-06)
(-0.0892909 0.463311 5.85703e-06)
(-0.0879597 0.457275 7.64242e-06)
(-0.0890609 0.463285 5.84094e-06)
(-0.0877455 0.457262 8.17363e-06)
(-0.0887825 0.463252 7.29295e-06)
(-0.0874894 0.457246 9.40285e-06)
(-0.0883016 0.463201 8.04552e-06)
(-0.0870474 0.457222 1.01489e-05)
(-0.0871558 0.463114 6.25659e-06)
(-0.0859718 0.45719 9.79597e-06)
(-0.089679 0.461937 6.08344e-05)
(-0.0884332 0.456235 5.19502e-05)
(-0.0894351 0.461852 6.50998e-05)
(-0.0882209 0.456167 6.0074e-05)
(-0.0892285 0.461777 6.77017e-05)
(-0.0880453 0.456108 6.50386e-05)
(-0.0889789 0.461687 6.85102e-05)
(-0.0878356 0.456037 6.75816e-05)
(-0.0885498 0.461544 6.31239e-05)
(-0.0874737 0.455922 6.46091e-05)
(-0.0875385 0.461275 4.47621e-05)
(-0.0866002 0.455696 5.22376e-05)
(-0.0897342 0.459964 0.000208865)
(-0.0885871 0.454737 0.000175943)
(-0.0895266 0.459825 0.000226874)
(-0.0884327 0.454613 0.000198138)
(-0.0893514 0.459706 0.000234962)
(-0.088306 0.454508 0.000209821)
(-0.089141 0.459564 0.000234596)
(-0.0881554 0.454387 0.000213633)
(-0.0887805 0.459332 0.000216991)
(-0.0878958 0.454184 0.000203194)
(-0.0879378 0.458858 0.000164821)
(-0.0872725 0.453741 0.00016474)
(-0.089673 0.457201 0.000472594)
(-0.0886179 0.452616 0.000395241)
(-0.0895112 0.457009 0.000513788)
(-0.0885336 0.452435 0.000439165)
(-0.089376 0.456846 0.00053374)
(-0.0884665 0.452286 0.000462497)
(-0.0892157 0.456657 0.000537486)
(-0.0883888 0.452114 0.00047172)
(-0.0889432 0.456342 0.000511726)
(-0.0882559 0.451825 0.0004576)
(-0.0883124 0.455655 0.000418691)
(-0.0879403 0.451159 0.000388484)
(-0.0894116 0.453351 0.000888255)
(-0.0884312 0.449631 0.000739239)
(-0.0893051 0.453103 0.000963352)
(-0.0884292 0.449391 0.000813883)
(-0.0892189 0.452897 0.00100249)
(-0.0884329 0.449196 0.000854556)
(-0.0891201 0.452661 0.0010173)
(-0.0884426 0.448974 0.00087414)
(-0.0889569 0.452268 0.000992934)
(-0.088463 0.448602 0.000863037)
(-0.0885894 0.451373 0.000871098)
(-0.0885199 0.447714 0.000773741)
(-0.088827 0.448026 0.00150868)
(-0.0878913 0.445468 0.00125037)
(-0.0887856 0.447717 0.00162974)
(-0.0879836 0.445165 0.00136568)
(-0.0887572 0.447466 0.00169631)
(-0.0880694 0.444923 0.00143004)
(-0.0887321 0.447182 0.00172967)
(-0.0881817 0.444651 0.00146519)
(-0.0887002 0.446713 0.00171808)
(-0.0883832 0.444196 0.00146444)
(-0.0886523 0.445622 0.00159774)
(-0.0888829 0.443096 0.00137765)
(-0.0877499 0.440738 0.00240167)
(-0.0868181 0.439726 0.00198554)
(-0.0877826 0.440363 0.00258135)
(-0.0870162 0.439356 0.0021511)
(-0.0878209 0.440063 0.00268375)
(-0.0871954 0.439064 0.00224495)
(-0.0878811 0.43973 0.00274312)
(-0.0874255 0.43874 0.00230008)
(-0.0880025 0.439183 0.00275592)
(-0.0878368 0.438203 0.00231599)
(-0.0883314 0.437905 0.00267511)
(-0.0888525 0.4369 0.00225643)
(-0.0859693 0.430898 0.00367889)
(-0.0849959 0.431905 0.00304658)
(-0.0860842 0.430451 0.00392537)
(-0.0853111 0.431463 0.00326766)
(-0.0861972 0.430098 0.00406785)
(-0.0855948 0.431119 0.00339255)
(-0.0863537 0.429712 0.0041559)
(-0.0859585 0.430743 0.0034668)
(-0.0866489 0.429085 0.00419694)
(-0.086609 0.430124 0.00349665)
(-0.0874082 0.427629 0.00418058)
(-0.0882158 0.428631 0.00347176)
(-0.0832375 0.417881 0.00550264)
(-0.082173 0.421486 0.0045718)
(-0.0834407 0.417356 0.00581943)
(-0.0826149 0.42097 0.00484969)
(-0.083635 0.416949 0.00599956)
(-0.0830135 0.420575 0.00500174)
(-0.0838978 0.416515 0.00610763)
(-0.0835259 0.420151 0.00508504)
(-0.0843862 0.415816 0.00615935)
(-0.084445 0.41946 0.00510806)
(-0.0856242 0.414208 0.00618857)
(-0.0867173 0.417808 0.00508422)
(-0.0793498 0.40131 0.00797637)
(-0.0781616 0.408146 0.00667039)
(-0.0796467 0.400715 0.00835745)
(-0.0787396 0.407566 0.00699682)
(-0.0799274 0.400262 0.00856834)
(-0.0792621 0.407127 0.00716727)
(-0.0803031 0.399786 0.00868635)
(-0.0799356 0.406663 0.00724726)
(-0.0809967 0.399025 0.00872882)
(-0.0811467 0.405912 0.00723961)
(-0.0827424 0.397288 0.00875081)
(-0.0841432 0.404129 0.00715389)
(-0.0742175 0.381063 0.0113577)
(-0.0729242 0.391734 0.00958801)
(-0.0746096 0.380416 0.0117801)
(-0.0736436 0.391102 0.00994298)
(-0.0749783 0.37993 0.0119977)
(-0.0742948 0.390631 0.0101105)
(-0.0754695 0.379432 0.0120917)
(-0.0751363 0.390145 0.0101567)
(-0.0763736 0.378645 0.0120634)
(-0.0766531 0.389365 0.0100618)
(-0.0786375 0.376867 0.0119408)
(-0.0804103 0.387529 0.00978361)
(-0.0679644 0.357649 0.0155583)
(-0.066583 0.372539 0.0132756)
(-0.0684531 0.356988 0.0159901)
(-0.0674472 0.37189 0.0136325)
(-0.0689097 0.356501 0.0161901)
(-0.0682284 0.371412 0.0137771)
(-0.0695142 0.356013 0.0162346)
(-0.0692374 0.37093 0.013768)
(-0.0706225 0.35525 0.0160919)
(-0.071058 0.370161 0.0135492)
(-0.0733823 0.353538 0.0156997)
(-0.07557 0.368359 0.0129702)
(-0.0610754 0.332165 0.0203735)
(-0.0596643 0.351327 0.0175731)
(-0.0616561 0.331542 0.0207689)
(-0.0606664 0.350697 0.0178988)
(-0.0621931 0.331089 0.0209213)
(-0.0615674 0.35024 0.0179998)
(-0.0628985 0.33065 0.0208901)
(-0.062727 0.349789 0.017919)
(-0.0641854 0.32997 0.0205974)
(-0.064818 0.349075 0.0175548)
(-0.0673682 0.328461 0.0198358)
(-0.0699999 0.347414 0.0166094)
(-0.0543214 0.306066 0.0249029)
(-0.0529285 0.328982 0.0216712)
(-0.0549766 0.305511 0.0252278)
(-0.0540443 0.328393 0.0219433)
(-0.0555801 0.305131 0.0253214)
(-0.0550437 0.327981 0.0219991)
(-0.0563653 0.304779 0.0252159)
(-0.0563231 0.327586 0.0218594)
(-0.0577869 0.30424 0.0247874)
(-0.0586229 0.326961 0.021385)
(-0.0612585 0.303072 0.0236813)
(-0.0642929 0.32553 0.0201479)
(-0.0485105 0.280825 0.0276673)
(-0.0471307 0.306474 0.0242872)
(-0.0492164 0.280383 0.0279079)
(-0.0483285 0.305951 0.0245019)
(-0.0498602 0.280089 0.0279503)
(-0.0493938 0.30559 0.0245258)
(-0.0506879 0.279834 0.0278053)
(-0.0507468 0.305253 0.0243654)
(-0.0521721 0.279447 0.02733)
(-0.0531665 0.304714 0.0238706)
(-0.0557172 0.278638 0.0261069)
(-0.0590537 0.303511 0.0225756)
(-0.0445564 0.260134 0.0276933)
(-0.0430743 0.286944 0.0244842)
(-0.0452694 0.259794 0.0278743)
(-0.0442996 0.286481 0.024666)
(-0.0459143 0.259574 0.0278951)
(-0.0453829 0.286162 0.0246868)
(-0.0467358 0.259397 0.0277591)
(-0.0467493 0.285869 0.024551)
(-0.048197 0.259134 0.027336)
(-0.0491806 0.285398 0.0241284)
(-0.0516016 0.258601 0.0262518)
(-0.0550013 0.284368 0.0230169)
(-0.0423486 0.245114 0.0255845)
(-0.0406415 0.271723 0.0226925)
(-0.0430333 0.244844 0.0257445)
(-0.0418514 0.271301 0.0228688)
(-0.0436502 0.244674 0.0257776)
(-0.0429173 0.271011 0.0229122)
(-0.0444314 0.24455 0.0256918)
(-0.044255 0.270746 0.0228352)
(-0.0458121 0.244367 0.0253935)
(-0.0466253 0.270316 0.0225479)
(-0.0489565 0.24401 0.0246155)
(-0.0522108 0.269398 0.0217715)
(-0.0414568 0.235141 0.0222831)
(-0.0393886 0.26044 0.0198001)
(-0.0420891 0.234913 0.0224533)
(-0.0405516 0.260044 0.0199952)
(-0.0426581 0.234773 0.0225213)
(-0.0415741 0.259772 0.0200776)
(-0.0433759 0.23468 0.0225077)
(-0.0428528 0.259527 0.0200738)
(-0.0446392 0.234547 0.0223663)
(-0.0451112 0.259127 0.0199416)
(-0.0474609 0.234294 0.0219617)
(-0.0503618 0.258293 0.0195414)
(-0.0417161 0.230309 0.0184244)
(-0.0391102 0.253345 0.016269)
(-0.0422794 0.230103 0.018617)
(-0.0402009 0.25296 0.0164922)
(-0.0427855 0.22998 0.018727)
(-0.0411552 0.252701 0.0166197)
(-0.0434214 0.229903 0.0187896)
(-0.0423421 0.252471 0.0166933)
(-0.0445369 0.229795 0.0188071)
(-0.0444331 0.252092 0.0167197)
(-0.0469992 0.22959 0.018768)
(-0.0492789 0.251317 0.0166892)
(-0.043353 0.231349 0.0145934)
(-0.0400357 0.251036 0.0127365)
(-0.0438348 0.231151 0.0147921)
(-0.0410343 0.250653 0.0129683)
(-0.0442649 0.231031 0.014929)
(-0.0418989 0.2504 0.0131229)
(-0.0448016 0.230956 0.0150488)
(-0.042965 0.250178 0.0132523)
(-0.0457391 0.230849 0.0151928)
(-0.0448366 0.249809 0.0134003)
(-0.0477978 0.230637 0.0154481)
(-0.0492006 0.249067 0.0136612)
(-0.0468087 0.239861 0.0114107)
(-0.0425654 0.254848 0.00980794)
(-0.0471907 0.23966 0.0115747)