/*--------------------------------*- C++ -*----------------------------------*\
| =========                 |                                                 |
| \\      /  F ield         | OpenFOAM: The Open Source CFD Toolbox           |
|  \\    /   O peration     | Version:  2206                                  |
|   \\  /    A nd           | Website:  www.openfoam.com                      |
|    \\/     M anipulation  |                                                 |
\*---------------------------------------------------------------------------*/
FoamFile
{
    version     2.0;
    format      ascii;
    arch        "LSB;label=32;scalar=64";
    class       volVectorField;
    location    "480";
    object      Urel;
}
// * * * * * * * * * * * * * * * * * * * * * * * * * * * * * * * * * * * * * //

dimensions      [0 1 -1 0 0 0 0];

internalField   nonuniform List<vector> 
50904
(
(0.000503348 -0.000203601 1.22581e-05)
(0.000571691 -1.99025e-05 1.32383e-05)
(0.000757093 -0.00106282 -1.16167e-05)
(0.000919393 -0.00086512 -1.15058e-05)
(0.00139784 -0.000745541 6.76839e-06)
(0.00164262 -0.000175455 9.99425e-06)
(0.00222471 -0.00339042 -2.43849e-05)
(0.00274369 -0.00277096 -2.39442e-05)
(0.00254123 -0.00153123 9.31005e-06)
(0.0030082 -0.000482744 1.55861e-05)
(0.00402123 -0.00620471 -5.51836e-05)
(0.00495722 -0.00505491 -5.5164e-05)
(0.00399676 -0.00266389 1.62388e-05)
(0.00474311 -0.00102493 2.62798e-05)
(0.00620677 -0.00957718 -0.000106263)
(0.00761771 -0.0077645 -0.000107559)
(0.00584347 -0.00429075 3.0551e-05)
(0.00693864 -0.00192893 4.48647e-05)
(0.00884943 -0.0135924 -0.000184097)
(0.0107909 -0.0109571 -0.000187303)
(0.00817645 -0.00661116 6.33575e-05)
(0.00969795 -0.00336841 8.16203e-05)
(0.0120253 -0.018354 -0.000297602)
(0.0145445 -0.014706 -0.000302424)
(0.0111209 -0.00990949 0.000132756)
(0.0131603 -0.00559521 0.000152976)
(0.0158403 -0.0240394 -0.000453326)
(0.0189781 -0.0191508 -0.000457575)
(0.0148198 -0.0145755 0.000291048)
(0.0174711 -0.00895839 0.000309911)
(0.0204109 -0.0308936 -0.000661612)
(0.0241947 -0.0244932 -0.00065912)
(0.0193855 -0.0210467 0.000627065)
(0.0227338 -0.0138703 0.000638254)
(0.0258351 -0.0391906 -0.000909711)
(0.0302782 -0.0309836 -0.000887287)
(0.0248612 -0.0297151 0.00121717)
(0.0289432 -0.0206973 0.00120889)
(0.0321792 -0.0493072 -0.00111592)
(0.0372552 -0.0389553 -0.00104973)
(0.0313229 -0.0410669 0.00223809)
(0.0361442 -0.0299025 0.00219038)
(0.039514 -0.0616949 -0.00117772)
(0.0451873 -0.0488278 -0.00103943)
(0.0389309 -0.0557887 0.00388388)
(0.0444888 -0.0421475 0.00377546)
(0.0479943 -0.0770604 -0.000896414)
(0.0542568 -0.0612872 -0.000670202)
(0.0476257 -0.0741905 0.00622551)
(0.053864 -0.0577628 0.00601485)
(0.0575368 -0.0958714 -6.42627e-05)
(0.0643503 -0.0767602 0.000236629)
(0.0572959 -0.0963545 0.00909096)
(0.0641563 -0.0769193 0.00870123)
(0.0680293 -0.118482 0.00134448)
(0.0753796 -0.0956637 0.00165238)
(0.0673832 -0.121606 0.0120697)
(0.0747898 -0.0990536 0.0113955)
(0.0789285 -0.144637 0.0029118)
(0.0869004 -0.117881 0.00308041)
(0.0753537 -0.144281 0.014044)
(0.0831602 -0.11929 0.0130495)
(0.0878434 -0.169227 0.00376116)
(0.0965258 -0.139231 0.00365147)
(0.0800136 -0.160916 0.0147091)
(0.0880922 -0.1345 0.0134853)
(0.0935416 -0.188611 0.00375126)
(0.103015 -0.156549 0.00331124)
(0.0813086 -0.170779 0.0147824)
(0.0895271 -0.143926 0.0134561)
(0.0959666 -0.201938 0.00328177)
(0.106303 -0.169021 0.00249724)
(0.0793775 -0.173343 0.0147874)
(0.0875817 -0.146952 0.0134928)
(0.095172 -0.208658 0.00292241)
(0.106432 -0.176059 0.00181986)
(0.074524 -0.168518 0.0141075)
(0.0825518 -0.143397 0.0130835)
(0.0912034 -0.208124 0.00240853)
(0.103384 -0.177081 0.0011265)
(0.0670128 -0.156227 0.0132334)
(0.0746647 -0.133182 0.0125866)
(0.084131 -0.199222 0.00230185)
(0.0970685 -0.171064 0.00097773)
(0.0571695 -0.136724 0.0116612)
(0.0641385 -0.116553 0.0115099)
(0.0739046 -0.180697 0.00218703)
(0.0871801 -0.156714 0.00110835)
(0.0465859 -0.1134 0.00982791)
(0.0525781 -0.0964388 0.0100736)
(0.0621218 -0.155295 0.00218482)
(0.0750035 -0.13588 0.00160241)
(0.0373629 -0.0919484 0.0075711)
(0.0423199 -0.0778946 0.00800983)
(0.0511457 -0.129776 0.0018737)
(0.0630318 -0.114272 0.00177646)
(0.029668 -0.0734976 0.00540207)
(0.0336464 -0.0619997 0.00587026)
(0.0414517 -0.106375 0.00137378)
(0.0519699 -0.0940822 0.00158416)
(0.0234042 -0.0582138 0.00364818)
(0.0265251 -0.0489169 0.0040551)
(0.0332049 -0.0860282 0.000902308)
(0.0421999 -0.0763276 0.00122603)
(0.0183234 -0.0456914 0.00235996)
(0.0207261 -0.0382696 0.00267692)
(0.0262923 -0.0687159 0.000546295)
(0.0337636 -0.0611074 0.000860138)
(0.0141685 -0.035395 0.00146761)
(0.0159835 -0.0295675 0.00169514)
(0.0204867 -0.0539912 0.000309898)
(0.0265228 -0.0481061 0.000560171)
(0.010816 -0.0270641 0.000880186)
(0.0121632 -0.022563 0.00103493)
(0.0157081 -0.0417239 0.000170158)
(0.0204661 -0.0372424 0.000347025)
(0.00813791 -0.0204047 0.00051006)
(0.00912364 -0.0169858 0.000610785)
(0.0118525 -0.0317143 9.30027e-05)
(0.0155155 -0.0283486 0.000207382)
(0.00599369 -0.0150742 0.000283472)
(0.00670222 -0.0125345 0.000346621)
(0.00874674 -0.0235756 5.2752e-05)
(0.0114944 -0.0210977 0.000121103)
(0.00427724 -0.0108092 0.000148811)
(0.00477172 -0.00898226 0.000186796)
(0.00625159 -0.0169807 3.01799e-05)
(0.00824232 -0.0152108 6.77422e-05)
(0.00290838 -0.00740975 7.2131e-05)
(0.00323771 -0.00615464 9.38965e-05)
(0.00425863 -0.0116772 1.7502e-05)
(0.00563384 -0.0104684 3.61051e-05)
(0.00181251 -0.00469302 3.06608e-05)
(0.00201582 -0.00389803 4.21338e-05)
(0.00266335 -0.00740782 9.916e-06)
(0.00353977 -0.00664508 1.77389e-05)
(0.000935082 -0.00251817 1.02566e-05)
(0.00104084 -0.00209317 1.54284e-05)
(0.00138513 -0.00397034 4.61735e-06)
(0.0018584 -0.00356508 7.06722e-06)
(0.000234076 -0.000784166 1.85419e-06)
(0.000263424 -0.000654425 3.31787e-06)
(0.000364204 -0.00121487 -7.13299e-09)
(0.00051343 -0.00109516 3.53579e-07)
(0.000492644 -0.00045181 5.3757e-06)
(0.000600851 -0.00024599 2.24553e-06)
(0.00028779 -0.00049632 3.51651e-06)
(0.000367299 -0.000316846 3.35879e-07)
(0.000167166 -0.000423169 7.59856e-06)
(0.00020207 -0.000248832 4.67161e-06)
(0.000108989 -0.000451596 6.80452e-06)
(0.000111503 -0.000283411 3.67084e-06)
(7.21352e-05 -0.000471874 9.93578e-06)
(5.3306e-05 -0.00030539 6.04445e-06)
(4.84113e-05 -0.000495972 1.10643e-05)
(1.5549e-05 -0.000337014 6.32158e-06)
(3.10384e-05 -0.00052124 1.05373e-05)
(-1.26797e-05 -0.000367676 7.2246e-06)
(0.00146582 -0.00156414 -2.73505e-05)
(0.00181615 -0.00091819 -3.6368e-05)
(0.00083638 -0.00171559 -2.0648e-05)
(0.00109056 -0.00113727 -2.80515e-05)
(0.000476572 -0.00154396 -7.30699e-06)
(0.000595245 -0.00098032 -1.58329e-05)
(0.000297961 -0.00163671 7.04679e-06)
(0.00031895 -0.00108849 -3.19131e-06)
(0.000186688 -0.0017142 2.64009e-05)
(0.000143144 -0.0011758 1.39996e-05)
(0.000113665 -0.00179544 4.22566e-05)
(2.56552e-05 -0.00127062 2.80733e-05)
(5.92063e-05 -0.00187582 5.33802e-05)
(-6.32615e-05 -0.00136039 4.06226e-05)
(0.00271447 -0.00308661 -0.000109085)
(0.00335713 -0.00189138 -0.000122431)
(0.00157417 -0.00338825 -7.51688e-05)
(0.00203612 -0.00229126 -8.67065e-05)
(0.000941381 -0.00317729 -2.71961e-05)
(0.00116543 -0.00209965 -4.56714e-05)
(0.000619402 -0.00335544 3.15589e-05)
(0.000673122 -0.00230357 6.63238e-06)
(0.000420515 -0.00351419 9.20624e-05)
(0.000361291 -0.0024773 6.14526e-05)
(0.000288049 -0.00366562 0.000141917)
(0.000149617 -0.00264636 0.000106936)
(0.000187927 -0.00380513 0.000179616)
(-1.23672e-05 -0.00279926 0.000143987)
(0.00431553 -0.00516783 -0.000272162)
(0.00530459 -0.00328931 -0.000286822)
(0.00257069 -0.00569496 -0.000175665)
(0.00327665 -0.00391972 -0.000191023)
(0.00163114 -0.00552783 -5.59434e-05)
(0.00198707 -0.00377381 -9.08429e-05)
(0.00114121 -0.0058275 8.97641e-05)
(0.00124829 -0.00410366 3.88565e-05)
(0.000839578 -0.00608958 0.000222747)
(0.00078038 -0.00438592 0.000159366)
(0.000635908 -0.00632123 0.000328367)
(0.00045885 -0.00463829 0.000255816)
(0.000480095 -0.00652592 0.000408663)
(0.000210572 -0.00486037 0.000331659)
(0.00636661 -0.00801048 -0.000547752)
(0.0077596 -0.00528065 -0.000557327)
(0.00392323 -0.00888249 -0.000333693)
(0.00491302 -0.0062245 -0.000352057)
(0.00264393 -0.00887542 -8.3648e-05)
(0.00316497 -0.00622773 -0.000143497)
(0.00196088 -0.00934073 0.000202745)
(0.00214979 -0.00672176 0.000110198)
(0.00153968 -0.00973423 0.000446961)
(0.00150523 -0.00713669 0.000330341)
(0.0012519 -0.0100592 0.000634366)
(0.00105773 -0.00748545 0.00050069)
(0.00102981 -0.0103361 0.000775298)
(0.000709771 -0.00778277 0.00063142)
(0.00899003 -0.0118785 -0.000964124)
(0.0108458 -0.00809398 -0.000956829)
(0.00576451 -0.0132888 -0.0005533)
(0.00708224 -0.00948143 -0.000573769)
(0.00411553 -0.0135861 -8.48722e-05)
(0.00484291 -0.00976234 -0.000181215)
(0.00321418 -0.0142732 0.000408111)
(0.00352363 -0.0104679 0.000252492)
(0.00265583 -0.0148272 0.000808359)
(0.00268199 -0.0110406 0.00061052)
(0.00227104 -0.0152636 0.00110794)
(0.0020929 -0.0114999 0.000880868)
(0.00197192 -0.0156208 0.00133018)
(0.0016321 -0.0118795 0.00108427)
(0.0123423 -0.0171301 -0.00153821)
(0.0147198 -0.0120322 -0.00149448)
(0.00826918 -0.019359 -0.000820996)
(0.00996477 -0.0140616 -0.000843054)
(0.00622421 -0.0201322 -1.40635e-05)
(0.00720781 -0.0147683 -0.000162297)
(0.00508065 -0.0211105 0.000764395)
(0.00555872 -0.0157439 0.000518139)
(0.00436812 -0.0218603 0.00137076)
(0.00450022 -0.0165019 0.00105603)
(0.00387378 -0.0224272 0.00181488)
(0.00375438 -0.0170859 0.0014533)
(0.0034875 -0.0228748 0.00214049)
(0.00316833 -0.0175569 0.00174755)
(0.0165994 -0.0242184 -0.00224346)
(0.0195536 -0.0174865 -0.00213289)
(0.0116458 -0.027663 -0.00107504)
(0.0137778 -0.0204455 -0.00110167)
(0.0091858 -0.0291118 0.000224819)
(0.0104857 -0.0217527 1.99882e-06)
(0.00777878 -0.0304637 0.00138399)
(0.00848271 -0.0230629 0.00100992)
(0.00689551 -0.0314462 0.00225256)
(0.00718697 -0.0240379 0.00177489)
(0.00627976 -0.0321632 0.00287371)
(0.00626882 -0.0247631 0.00232619)
(0.00579696 -0.0327116 0.00332215)
(0.00554505 -0.025332 0.00272708)
(0.0219487 -0.0336374 -0.00297605)
(0.0255259 -0.0248833 -0.00276172)
(0.0161376 -0.0387924 -0.00117728)
(0.0187739 -0.0291346 -0.00122325)
(0.0132554 -0.0411341 0.000783091)
(0.014942 -0.0312254 0.000445493)
(0.0115683 -0.0429483 0.00242617)
(0.0125644 -0.0329427 0.00186695)
(0.0105015 -0.0442064 0.00361686)
(0.0110128 -0.0341658 0.00290807)
(0.00975526 -0.0450973 0.00444993)
(0.00990817 -0.0350489 0.00364161)
(0.00916954 -0.0457582 0.00503988)
(0.00903604 -0.0357241 0.00416362)
(0.0285207 -0.0458426 -0.003555)
(0.0327242 -0.0345936 -0.00319617)
(0.0219485 -0.053269 -0.000891881)
(0.0251386 -0.0405607 -0.000982426)
(0.0186516 -0.0567041 0.00186785)
(0.020779 -0.0436099 0.00136714)
(0.0166727 -0.0590526 0.00407189)
(0.0180093 -0.0457945 0.00326695)
(0.0154089 -0.0606025 0.00562006)
(0.0161812 -0.0472778 0.00461274)
(0.0145225 -0.0616659 0.00667813)
(0.0148744 -0.0483166 0.00553765)
(0.0138273 -0.0624298 0.00741075)
(0.0138431 -0.0490886 0.0061794)
(0.0364045 -0.0612544 -0.00367685)
(0.0412192 -0.0469674 -0.00316303)
(0.0291805 -0.0714077 0.000151947)
(0.032955 -0.0550047 -5.56601e-05)
(0.0254676 -0.0760445 0.00383038)
(0.0280594 -0.0591173 0.00307316)
(0.0231832 -0.0789592 0.00664846)
(0.0248674 -0.0618049 0.00549931)
(0.0217114 -0.0808022 0.00857056)
(0.0227379 -0.0635526 0.00716675)
(0.0206793 -0.0820317 0.00984999)
(0.0212138 -0.0647424 0.00828207)
(0.0198732 -0.0828865 0.01071)
(0.0200165 -0.0656032 0.00903174)
(0.0456945 -0.0802831 -0.00301444)
(0.0511208 -0.0624094 -0.00237209)
(0.0378581 -0.0932963 0.00226624)
(0.0422615 -0.0726335 0.00184074)
(0.033678 -0.0990433 0.00685465)
(0.0367653 -0.0777623 0.00574156)
(0.0310429 -0.102422 0.0102349)
(0.0330843 -0.0808855 0.00865448)
(0.029333 -0.104472 0.0124754)
(0.0306073 -0.0828332 0.0106004)
(0.0281388 -0.105797 0.0139257)
(0.0288396 -0.0841208 0.0118659)
(0.027215 -0.106686 0.014868)
(0.0274648 -0.0850235 0.0126867)
(0.0561374 -0.102918 -0.00127386)
(0.0621305 -0.0808827 -0.000614331)
(0.0476038 -0.118436 0.00570602)
(0.0526329 -0.09308 0.00488382)
(0.0428375 -0.124938 0.0110577)
(0.0463966 -0.0989903 0.00944209)
(0.0397779 -0.128547 0.0148251)
(0.0421296 -0.102395 0.0127095)
(0.037792 -0.13065 0.0172428)
(0.0392518 -0.104437 0.0148286)
(0.0364208 -0.131974 0.0187575)
(0.0372188 -0.105753 0.0161649)
(0.0353782 -0.132822 0.0197025)
(0.0356657 -0.106644 0.0169974)
(0.06733 -0.12857 0.00136665)
(0.0738758 -0.102065 0.00189587)
(0.0579719 -0.145549 0.00985882)
(0.0635983 -0.115587 0.00855066)
(0.0523575 -0.152379 0.0156865)
(0.0563459 -0.122001 0.0135265)
(0.0487219 -0.155973 0.0195861)
(0.0513263 -0.12553 0.0169371)
(0.04638 -0.157971 0.0220012)
(0.0479601 -0.12756 0.0190804)
(0.0447937 -0.159182 0.0234613)
(0.0456226 -0.128823 0.0203895)
(0.0436281 -0.159947 0.0243284)
(0.0438891 -0.129673 0.0211689)
(0.0784771 -0.156358 0.0043307)
(0.0856782 -0.125317 0.00453052)
(0.0681288 -0.173193 0.0133894)
(0.0743919 -0.139124 0.0116613)
(0.0613689 -0.179855 0.01924)
(0.0657984 -0.145724 0.0166877)
(0.0570004 -0.183171 0.0229616)
(0.0598476 -0.149224 0.0199893)
(0.0542361 -0.184934 0.0251804)
(0.0559149 -0.151169 0.0219989)
(0.0524163 -0.185962 0.0264722)
(0.0532503 -0.152344 0.0231868)
(0.0511271 -0.186578 0.0272059)
(0.0513353 -0.153104 0.0238671)
(0.0871503 -0.181151 0.00619443)
(0.0951509 -0.146585 0.00596236)
(0.0759231 -0.196868 0.0148667)
(0.0828804 -0.160072 0.012861)
(0.0681263 -0.203062 0.0203435)
(0.0730393 -0.166661 0.0176314)
(0.0631449 -0.20601 0.0236891)
(0.0662818 -0.170076 0.0206753)
(0.0600588 -0.207512 0.0256257)
(0.0618957 -0.171924 0.0224893)
(0.058086 -0.208362 0.0267226)
(0.0589997 -0.173011 0.023539)
(0.0567394 -0.208846 0.0273273)
(0.0569832 -0.173687 0.0241271)
(0.0924773 -0.200333 0.0064808)
(0.101407 -0.163683 0.00586337)
(0.0808293 -0.214783 0.0142324)
(0.0885286 -0.176771 0.012137)
(0.0723586 -0.22044 0.01919)
(0.0777917 -0.183266 0.0165379)
(0.0670152 -0.223031 0.0221479)
(0.0704935 -0.186573 0.0193013)
(0.0637679 -0.22431 0.0238297)
(0.0658354 -0.188326 0.0209277)
(0.0617449 -0.225017 0.0247679)
(0.0628307 -0.189343 0.0218579)
(0.0604102 -0.225407 0.0252787)
(0.0607984 -0.189953 0.0223751)
(0.0947017 -0.21376 0.00570799)
(0.104649 -0.176449 0.00475006)
(0.0832026 -0.227207 0.0121791)
(0.0916605 -0.189366 0.0101136)
(0.074518 -0.232411 0.0165596)
(0.0804913 -0.195776 0.0141078)
(0.0690967 -0.234729 0.0191936)
(0.0729685 -0.198997 0.0166455)
(0.065852 -0.235848 0.0206967)
(0.0682335 -0.200679 0.0181473)
(0.0638717 -0.236457 0.0215379)
(0.0652367 -0.201644 0.0190092)
(0.0626032 -0.236797 0.0219988)
(0.0632602 -0.202212 0.0194919)
(0.0939404 -0.221053 0.00476182)
(0.104936 -0.184548 0.00346704)
(0.0830796 -0.234056 0.00979704)
(0.0922718 -0.197732 0.00774345)
(0.0747626 -0.238907 0.0133959)
(0.0812901 -0.204036 0.0111295)
(0.0696095 -0.241013 0.0156473)
(0.0739549 -0.207136 0.0133615)
(0.0665475 -0.242011 0.0169666)
(0.0693723 -0.208735 0.0147135)
(0.0646933 -0.242549 0.0177196)
(0.0664942 -0.209642 0.0155038)
(0.0635213 -0.242863 0.0181386)
(0.0646166 -0.210189 0.0159541)
(0.0902287 -0.221268 0.00431833)
(0.102206 -0.187141 0.00274609)
(0.0804848 -0.23446 0.00789127)
(0.0903406 -0.201066 0.00585766)
(0.073027 -0.23918 0.0105399)
(0.0801068 -0.207349 0.00845748)
(0.0684133 -0.241174 0.0122773)
(0.0733026 -0.210355 0.0102448)
(0.0656687 -0.242106 0.0133359)
(0.0690555 -0.211885 0.0113629)
(0.0640032 -0.242605 0.0139629)
(0.0663841 -0.212753 0.0120377)
(0.0629471 -0.242897 0.0143286)
(0.064635 -0.213274 0.0124392)
(0.0835782 -0.213011 0.00494973)
(0.0963601 -0.182846 0.00322009)
(0.0754193 -0.226781 0.00720756)
(0.085869 -0.197824 0.00519564)
(0.0690872 -0.231659 0.00876093)
(0.0767567 -0.204305 0.00682363)
(0.0651486 -0.233692 0.0098312)
(0.0706901 -0.207333 0.00800484)
(0.0627942 -0.234631 0.0105183)
(0.0668929 -0.208856 0.00877881)
(0.0613595 -0.235133 0.010945)
(0.0644957 -0.209716 0.00926538)
(0.0604462 -0.235428 0.0112071)
(0.0629181 -0.210232 0.00956871)
(0.0738005 -0.194442 0.00682477)
(0.0870437 -0.169672 0.00521598)
(0.0673535 -0.208603 0.0082924)
(0.0782508 -0.18558 0.00641242)
(0.0622315 -0.213778 0.00870818)
(0.0704599 -0.192429 0.00695152)
(0.0590267 -0.215947 0.00892086)
(0.0652518 -0.195594 0.0073052)
(0.0571084 -0.216932 0.00907353)
(0.0619934 -0.197156 0.00755622)
(0.0559434 -0.217437 0.00918832)
(0.0599448 -0.198014 0.00773262)
(0.0552245 -0.21779 0.00926926)
(0.0586185 -0.198567 0.00785349)
(0.0621 -0.167021 0.00849725)
(0.075166 -0.147988 0.00741285)
(0.0569307 -0.180124 0.0103024)
(0.0678765 -0.163505 0.00882725)
(0.0528175 -0.185188 0.0101093)
(0.0613353 -0.170395 0.00868942)
(0.0502647 -0.187396 0.00958278)
(0.0569748 -0.173642 0.0082741)
(0.0487517 -0.188403 0.00918125)
(0.0542669 -0.175234 0.00795589)
(0.047849 -0.188913 0.00892784)
(0.0525891 -0.176093 0.00775428)
(0.0473113 -0.189264 0.00877279)
(0.0515294 -0.176642 0.00763057)
(0.0510005 -0.13833 0.00861367)
(0.0633096 -0.123976 0.00817557)
(0.0464666 -0.148566 0.0113493)
(0.0569859 -0.137189 0.01049)
(0.0429863 -0.152643 0.0113228)
(0.05137 -0.143264 0.0104249)
(0.0408901 -0.154533 0.0104845)
(0.0476885 -0.146259 0.00962408)
(0.039672 -0.155411 0.00974069)
(0.0454314 -0.147745 0.0089162)
(0.0389611 -0.155854 0.00922699)
(0.0440545 -0.14854 0.00842424)
(0.0385501 -0.156148 0.0088938)
(0.0432028 -0.149036 0.00810183)
(0.0411682 -0.111897 0.00738979)
(0.0523123 -0.1011 0.00744621)
(0.0369148 -0.118378 0.0107437)
(0.0466168 -0.110815 0.0104899)
(0.033789 -0.120723 0.0112924)
(0.0416402 -0.115224 0.0109771)
(0.0319887 -0.121916 0.0105124)
(0.0384696 -0.117547 0.0101824)
(0.0309707 -0.122478 0.00966345)
(0.0365604 -0.118723 0.00932435)
(0.0303911 -0.12276 0.0090329)
(0.0354151 -0.119355 0.00868325)
(0.0300642 -0.122945 0.00860903)
(0.0347196 -0.119742 0.00824761)
(0.0328551 -0.0893341 0.00561334)
(0.0426031 -0.0811751 0.00591829)
(0.0288109 -0.0923416 0.00893104)
(0.037435 -0.0873432 0.00908138)
(0.0259003 -0.0927192 0.0100138)
(0.0329283 -0.0896764 0.0101412)
(0.024296 -0.0930201 0.00947752)
(0.0301442 -0.0910467 0.00957557)
(0.023415 -0.093156 0.00869245)
(0.0285027 -0.0917612 0.00875482)
(0.0229256 -0.0932197 0.00806368)
(0.0275356 -0.0921519 0.00809261)
(0.0226553 -0.0932729 0.00762737)
(0.0269581 -0.0923937 0.00762778)
(0.0259543 -0.0706456 0.00390292)
(0.0342227 -0.0644595 0.00426375)
(0.0222113 -0.0711422 0.00670591)
(0.0296324 -0.0678183 0.00702771)
(0.0194941 -0.0698285 0.0080441)
(0.0255539 -0.0682198 0.00839809)
(0.0180424 -0.0692799 0.00778049)
(0.0230943 -0.0686028 0.00812357)
(0.0172659 -0.0689978 0.00714185)
(0.0216731 -0.0688241 0.00744998)
(0.0168445 -0.0688476 0.0065846)
(0.0208505 -0.068957 0.00685536)
(0.0166154 -0.0687746 0.00618582)
(0.0203662 -0.0690473 0.00642375)
(0.0202067 -0.0551471 0.00252057)
(0.0270187 -0.0505102 0.00283751)
(0.0169031 -0.0541968 0.004621)
(0.023107 -0.0520352 0.00496213)
(0.0144257 -0.0517346 0.00592198)
(0.0194928 -0.0509953 0.00633191)
(0.0131198 -0.0505256 0.0058802)
(0.0173387 -0.050543 0.00630266)
(0.012437 -0.0499144 0.00541058)
(0.0161164 -0.050339 0.00580638)
(0.0120741 -0.0495965 0.00495461)
(0.0154205 -0.0502493 0.00531502)
(0.0118801 -0.0494319 0.00461758)
(0.0150168 -0.0502148 0.00494558)
(0.0154987 -0.0424647 0.00153343)
(0.0209623 -0.0390397 0.00177177)
(0.0127217 -0.0409053 0.00296556)
(0.0177651 -0.0395402 0.0032487)
(0.0105408 -0.0378946 0.00403677)
(0.0146588 -0.0376543 0.00440013)
(0.00938638 -0.0362826 0.00413417)
(0.012805 -0.0366185 0.00452875)
(0.00879353 -0.0354648 0.00382314)
(0.0117681 -0.0361078 0.0042048)
(0.00848382 -0.0350439 0.00347531)
(0.0111864 -0.0358582 0.0038304)
(0.00832105 -0.0348247 0.00320756)
(0.0108537 -0.035736 0.00353609)
(0.0117059 -0.0322314 0.000886829)
(0.0159721 -0.0297252 0.00104749)
(0.00946516 -0.0305792 0.00179159)
(0.0134483 -0.0297315 0.00199304)
(0.0076211 -0.0275154 0.002569)
(0.0108675 -0.0275262 0.00284122)
(0.00662603 -0.0257493 0.00272229)
(0.00930866 -0.0261715 0.00303222)
(0.00612071 -0.0248417 0.00254026)
(0.00844415 -0.0254772 0.00284753)
(0.00586092 -0.0243803 0.00229132)
(0.00796734 -0.0251347 0.0025795)
(0.00572699 -0.0241408 0.00208906)
(0.00769751 -0.0249622 0.00235597)
(0.00865076 -0.0239543 0.000485736)
(0.011888 -0.0221553 0.000584903)
(0.00691839 -0.0224815 0.00101599)
(0.00996696 -0.0219769 0.00114436)
(0.00542581 -0.0197036 0.00152289)
(0.00790646 -0.0198368 0.0017041)
(0.00460005 -0.0179939 0.0016724)
(0.00663872 -0.0184039 0.00188789)
(0.00417873 -0.0170929 0.00158562)
(0.00593608 -0.0176404 0.00180479)
(0.00396752 -0.0166398 0.00142322)
(0.00555375 -0.0172629 0.0016302)
(0.00385916 -0.016408 0.0012807)
(0.00534042 -0.0170735 0.00147188)
(0.00619248 -0.0172587 0.000248142)
(0.00856016 -0.0160021 0.00030412)
(0.00491562 -0.0160747 0.000532823)
(0.00716195 -0.0157904 0.00060593)
(0.0037688 -0.013775 0.000829889)
(0.00559435 -0.0139466 0.000937164)
(0.00311493 -0.0122746 0.000943824)
(0.00460646 -0.0126239 0.00107688)
(0.00277687 -0.0114546 0.000916478)
(0.00405601 -0.0118837 0.00105636)
(0.00260883 -0.0110432 0.000824254)
(0.00375878 -0.0115149 0.000958241)
(0.00252476 -0.0108353 0.000733361)
(0.00359568 -0.0113308 0.000857004)
(0.0042248 -0.0118707 0.000114655)
(0.00587173 -0.0110289 0.000143019)
(0.00333794 -0.0109925 0.000250374)
(0.00490896 -0.0108408 0.00028651)
(0.00251092 -0.009243 0.000403831)
(0.00378528 -0.00940369 0.000458613)
(0.00202605 -0.00804536 0.000474603)
(0.00306138 -0.00831184 0.000545336)
(0.00176882 -0.00736239 0.000475452)
(0.00265172 -0.00766698 0.000553133)
(0.0016402 -0.00701351 0.000434031)
(0.00243086 -0.00733784 0.000510731)
(0.00157697 -0.00683788 0.000385792)
(0.00231057 -0.00717349 0.000457226)
(0.00264678 -0.00752765 4.44792e-05)
(0.00370115 -0.00700554 5.67284e-05)
(0.00208782 -0.00693635 9.73927e-05)
(0.00309746 -0.00686339 0.000111938)
(0.00154712 -0.00573869 0.00016311)
(0.00236413 -0.00586436 0.000185795)
(0.00122015 -0.00488741 0.000197715)
(0.00188212 -0.0050724 0.000228142)
(0.00104225 -0.00437965 0.000205316)
(0.00160275 -0.0045774 0.000240556)
(0.000950293 -0.00410833 0.000194075)
(0.00145053 -0.00431205 0.000230928)
(0.000905506 -0.00397033 0.000177653)
(0.00136766 -0.00417587 0.000213322)
(0.00137956 -0.00402612 1.19592e-05)
(0.00195196 -0.00375547 1.59602e-05)
(0.00109455 -0.00368834 2.53896e-05)
(0.00164296 -0.00366411 2.93946e-05)
(0.000800792 -0.00300431 4.54366e-05)
(0.00124459 -0.00308797 5.18509e-05)
(0.000619092 -0.00250522 5.69716e-05)
(0.000976845 -0.00261723 6.59675e-05)
(0.000516732 -0.00219396 6.15709e-05)
(0.000818995 -0.00230768 7.27474e-05)
(0.000461553 -0.00201825 6.19327e-05)
(0.000729524 -0.00212932 7.48779e-05)
(0.000432749 -0.00192033 6.27873e-05)
(0.000679619 -0.00202886 7.66262e-05)
(0.000366895 -0.0012156 3.26734e-07)
(0.000547399 -0.00114135 9.02911e-07)
(0.000304954 -0.00109268 6.73001e-07)
(0.000477848 -0.00109792 9.13904e-07)
(0.000221988 -0.000864391 2.79594e-06)
(0.000362283 -0.000904568 3.27425e-06)
(0.000168022 -0.00069496 3.8238e-06)
(0.00028026 -0.000742937 4.60915e-06)
(0.000135959 -0.000585862 4.14055e-06)
(0.000230688 -0.000632689 5.31973e-06)
(0.000117437 -0.000519004 4.26435e-06)
(0.000200853 -0.000563705 5.89319e-06)
(0.00010504 -0.000473734 8.07018e-06)
(0.000182339 -0.000514597 1.05347e-05)
(1.7043e-05 -0.00055338 8.11072e-06)
(-3.74359e-05 -0.000398874 7.77492e-06)
(7.4398e-06 -0.000592899 5.85703e-06)
(-5.7103e-05 -0.000433161 7.64242e-06)
(-3.64059e-07 -0.000626619 5.84094e-06)
(-7.26697e-05 -0.000463677 8.17363e-06)
(-1.14501e-05 -0.000661232 7.29295e-06)
(-9.18998e-05 -0.00049568 9.40285e-06)
(-3.32761e-05 -0.000708179 8.04552e-06)
(-0.000126549 -0.000542763 1.01489e-05)
(-9.38109e-05 -0.000789812 6.25659e-06)
(-0.000217647 -0.000632707 9.79597e-06)
(1.25905e-05 -0.00196501 6.08344e-05)
(-0.000142838 -0.00145061 5.19502e-05)
(-2.40487e-05 -0.00206264 6.50998e-05)
(-0.000208951 -0.00154196 6.0074e-05)
(-5.52035e-05 -0.00214543 6.77017e-05)
(-0.000263073 -0.00161851 6.50386e-05)
(-9.50384e-05 -0.00223711 6.85102e-05)
(-0.000328653 -0.00170555 6.75816e-05)
(-0.000168583 -0.00237613 6.31239e-05)
(-0.000443317 -0.00184367 6.46091e-05)
(-0.000363105 -0.00263977 4.47621e-05)
(-0.000736107 -0.00212758 5.22376e-05)
(9.94589e-05 -0.0039514 0.000208865)
(-0.000158895 -0.00294953 0.000175943)
(2.66007e-05 -0.00410315 0.000226874)
(-0.000282839 -0.00309694 0.000198138)
(-3.58919e-05 -0.00423005 0.000234962)
(-0.000385806 -0.00321955 0.000209821)
(-0.000114862 -0.00437381 0.000234596)
(-0.000510421 -0.00335663 0.000213633)
(-0.000256903 -0.00460193 0.000216991)
(-0.000727278 -0.0035828 0.000203194)
(-0.000619383 -0.00507057 0.000164821)
(-0.00126975 -0.00408367 0.00016474)
(0.000339836 -0.00673128 0.000472594)
(-1.58464e-05 -0.00507169 0.000395241)
(0.000221279 -0.0069362 0.000513788)
(-0.000209804 -0.00527619 0.000439165)
(0.000118865 -0.00710722 0.00053374)
(-0.0003723 -0.00544285 0.000462497)
(-1.01238e-05 -0.00729808 0.000537486)
(-0.000569734 -0.00563099 0.00047172)
(-0.000240035 -0.00760932 0.000511726)
(-0.000913156 -0.00594322 0.0004576)
(-0.000813603 -0.00829097 0.000418691)
(-0.00176268 -0.00666703 0.000388484)
(0.000827213 -0.0106026 0.000888255)
(0.000390113 -0.00805814 0.000739239)
(0.000653486 -0.0108637 0.000963352)
(0.000113964 -0.00832175 0.000813883)
(0.00050217 -0.0110779 0.00100249)
(-0.000119243 -0.0085345 0.000854556)
(0.000311785 -0.0113159 0.0010173)
(-0.000403974 -0.0087727 0.00087414)
(-2.72628e-05 -0.0117053 0.000992934)
(-0.000900526 -0.00916802 0.000863037)
(-0.00086311 -0.0125949 0.000871098)
(-0.00212174 -0.0101138 0.000773741)
(0.00169682 -0.0159544 0.00150868)
(0.00120654 -0.012223 0.00125037)
(0.00145815 -0.0162768 0.00162974)
(0.000836233 -0.0125497 0.00136568)
(0.00124916 -0.0165362 0.00169631)
(0.000521039 -0.0128096 0.00143004)
(0.000985205 -0.0168223 0.00172967)
(0.000133837 -0.0130979 0.00146519)
(0.000515065 -0.0172879 0.00171808)
(-0.000543599 -0.0135763 0.00146444)
(-0.000639097 -0.0183736 0.00159774)
(-0.00220658 -0.0147339 0.00137765)
(0.00313018 -0.0232827 0.00240167)
(0.00262487 -0.0179736 0.00198554)
(0.00281761 -0.0236715 0.00258135)
(0.00214892 -0.0183675 0.0021511)
(0.00254207 -0.0239801 0.00268375)
(0.00174046 -0.0186776 0.00224495)
(0.00219297 -0.0243155 0.00274312)
(0.00123561 -0.019018 0.00230008)
(0.00156977 -0.0248594 0.00275592)
(0.000348621 -0.0195786 0.00231599)
(4.03758e-05 -0.0261323 0.00267511)
(-0.00182912 -0.0209394 0.00225643)
(0.00534871 -0.0331991 0.00367889)
(0.00487187 -0.0258251 0.00304658)
(0.00495414 -0.0336606 0.00392537)
(0.00427899 -0.0262915 0.00326766)
(0.00460405 -0.0340228 0.00406785)
(0.00376616 -0.0266539 0.00339255)
(0.00415879 -0.0344118 0.0041559)
(0.00312787 -0.0270468 0.0034668)
(0.00336201 -0.0350366 0.00419694)
(0.00200194 -0.02769 0.00349665)
(0.00140398 -0.0364887 0.00418058)
(-0.000765497 -0.0292416 0.00347176)
(0.00862447 -0.0463316 0.00550264)
(0.00822359 -0.0362959 0.0045718)
(0.00814181 -0.0468722 0.00581943)
(0.00750419 -0.0368371 0.00484969)
(0.00771057 -0.0472893 0.00599956)
(0.00687662 -0.037251 0.00500174)
(0.00715915 -0.0477272 0.00610763)
(0.00608979 -0.0376925 0.00508504)
(0.00616939 -0.0484253 0.00615935)
(0.00469554 -0.0384086 0.00510806)
(0.00373473 -0.0500316 0.00618857)
(0.00126427 -0.0401208 0.00508422)
(0.0131812 -0.0630807 0.00797637)
(0.0128831 -0.0497285 0.00667039)
(0.012605 -0.063693 0.00835745)
(0.0120278 -0.0503349 0.00699682)
(0.0120875 -0.0641574 0.00856834)
(0.0112764 -0.0507937 0.00716727)
(0.0114233 -0.0646387 0.00868635)
(0.0103286 -0.0512761 0.00724726)
(0.0102285 -0.0654008 0.00872882)
(0.00864264 -0.0520538 0.00723961)
(0.0072884 -0.06714 0.00875081)
(0.004489 -0.0538998 0.00715389)
(0.019126 -0.083599 0.0113577)
(0.0189046 -0.066296 0.00958801)
(0.0184548 -0.0842658 0.0117801)
(0.017908 -0.0669562 0.00994298)
(0.0178493 -0.0847652 0.0119977)
(0.017028 -0.0674484 0.0101105)
(0.0170696 -0.0852705 0.0120917)
(0.0159124 -0.0679544 0.0101567)
(0.0156642 -0.086062 0.0120634)
(0.0139208 -0.0687635 0.0100618)
(0.0122082 -0.0878486 0.0119408)
(0.00900832 -0.0706673 0.00978361)
(0.0263653 -0.107414 0.0155583)
(0.0261974 -0.0857333 0.0132756)
(0.0255974 -0.108098 0.0159901)
(0.0250561 -0.086413 0.0136325)
(0.024904 -0.108602 0.0161901)
(0.0240462 -0.0869144 0.0137771)
(0.0240108 -0.1091 0.0162346)
(0.022763 -0.0874187 0.013768)
(0.0224009 -0.109873 0.0160919)
(0.0204677 -0.0882206 0.0135492)
(0.0184511 -0.111603 0.0156997)
(0.0148022 -0.0900979 0.0129702)
(0.0344325 -0.133511 0.0203735)
(0.0342516 -0.10733 0.0175731)
(0.0335724 -0.134163 0.0207689)
(0.0329723 -0.107995 0.0178988)
(0.0327983 -0.134637 0.0209213)
(0.0318426 -0.108478 0.0179998)
(0.0318038 -0.135091 0.0208901)
(0.0304087 -0.108955 0.017919)
(0.0300144 -0.135788 0.0205974)
(0.0278427 -0.109708 0.0175548)
(0.0256433 -0.137331 0.0198358)
(0.0215092 -0.111455 0.0166094)
(0.0425774 -0.160496 0.0249029)
(0.0423248 -0.13026 0.0216712)
(0.0416437 -0.161088 0.0252278)
(0.0409325 -0.13089 0.0219433)
(0.0408028 -0.161496 0.0253214)
(0.0397042 -0.131334 0.0219991)
(0.0397268 -0.16187 0.0252159)
(0.0381495 -0.13176 0.0218594)
(0.0377989 -0.162438 0.0247874)
(0.0353723 -0.132432 0.021385)
(0.0331391 -0.16366 0.0236813)
(0.0285514 -0.133964 0.0201479)
(0.0500082 -0.186998 0.0276673)
(0.0496611 -0.153611 0.0242872)
(0.0490245 -0.187489 0.0279079)
(0.0481874 -0.154184 0.0245019)
(0.0481415 -0.18782 0.0279503)
(0.0468921 -0.154583 0.0245258)
(0.047019 -0.188107 0.0278053)
(0.0452611 -0.154959 0.0243654)
(0.0450205 -0.188537 0.02733)
(0.0423586 -0.155555 0.0238706)
(0.0402875 -0.189427 0.0261069)
(0.0353221 -0.156879 0.0225756)
(0.0556097 -0.209168 0.0276933)
(0.0552703 -0.174136 0.0244842)
(0.0546186 -0.209568 0.0278743)
(0.0537691 -0.174659 0.024666)
(0.0537318 -0.209834 0.0278951)
(0.0524541 -0.175024 0.0246868)
(0.0526101 -0.210053 0.0277591)
(0.0508063 -0.175362 0.024551)
(0.0506249 -0.210375 0.027336)
(0.0478857 -0.175902 0.0241284)
(0.0460333 -0.211017 0.0262518)
(0.0409182 -0.177071 0.0230169)
(0.0593141 -0.225658 0.0255845)
(0.0591042 -0.190356 0.0226925)