/*--------------------------------*- C++ -*----------------------------------*\
| =========                 |                                                 |
| \\      /  F ield         | OpenFOAM: The Open Source CFD Toolbox           |
|  \\    /   O peration     | Version:  2206                                  |
|   \\  /    A nd           | Website:  www.openfoam.com                      |
|    \\/     M anipulation  |                                                 |
\*---------------------------------------------------------------------------*/
FoamFile
{
    version     2.0;
    format      ascii;
    arch        "LSB;label=32;scalar=64";
    class       volScalarField;
    location    "500";
    object      k;
}
// * * * * * * * * * * * * * * * * * * * * * * * * * * * * * * * * * * * * * //

dimensions      [0 2 -2 0 0 0 0];

internalField   nonuniform List<scalar> 
50904
(
0.0332117
0.0268806
0.120563
0.0905528
0.841534
0.734564
2.7697
2.1679
4.98207
4.42793
12.2688
10.2762
9.90782
8.94561
21.2177
18.2797
13.8456
12.5752
28.4391
24.7633
17.0381
15.5318
34.5414
30.2469
19.6746
17.9974
39.8201
35.0077
21.7874
20.0044
44.3189
39.0853
23.2398
21.4336
47.7743
42.2569
23.8783
22.1323
49.8718
44.2276
23.5295
21.9467
50.2108
44.6601
21.958
20.6571
48.1839
43.0235
19.0672
18.1476
43.3057
38.8925
15.0997
14.6065
35.5131
32.1634
10.784
10.6225
25.4421
23.4561
7.82947
7.76287
16.5277
15.5967
6.47979
6.37696
10.8235
10.3999
6.01744
5.85481
7.81179
7.54877
5.8796
5.68544
6.44428
6.17989
5.77267
5.57568
5.75422
5.47266
5.60419
5.42007
5.31217
5.0177
5.33573
5.17444
4.91513
4.61424
4.97156
4.84044
4.49953
4.2077
4.56297
4.46126
4.07722
3.80578
4.12614
4.05028
3.64788
3.40229
3.67707
3.62012
3.21931
2.99994
3.21886
3.17621
2.79311
2.59881
2.74662
2.71575
2.36242
2.19234
2.26721
2.24419
1.92925
1.78184
1.7818
1.76197
1.49468
1.36728
1.2829
1.26061
1.05221
0.942504
0.770179
0.742036
0.606047
0.518088
0.306683
0.285797
0.225733
0.181655
0.0650099
0.0596822
0.0463213
0.0364547
0.00727297
0.00652236
0.00520074
0.00399611
0.00461488
0.00303886
0.0036542
0.00215183
0.391883
0.272175
0.980642
0.650627
1.43449
0.949025
1.72862
1.14436
1.91299
1.26712
2.02835
1.34491
2.10019
1.39451
8.36329
6.26061
17.564
12.8636
23.4031
17.2355
26.8444
19.8473
28.8991
21.4161
30.1542
22.3792
30.9289
22.9763
26.6679
21.5241
46.1921
36.3427
57.3976
45.1631
63.829
50.2732
67.6181
53.3009
69.9223
55.1526
71.3507
56.3071
41.8427
34.5132
69.3697
55.6055
84.7315
67.871
93.6001
75.0147
98.8492
79.2691
102.069
81.8943
104.094
83.5573
54.4468
45.2967
89.3759
72.2006
108.561
87.6712
119.768
96.7867
126.459
102.266
130.605
105.683
133.25
107.88
65.553
54.8072
107.833
87.5116
130.817
106.214
144.429
117.388
152.637
124.174
157.77
128.447
161.084
131.228
75.5836
63.4311
125.411
102.144
152.334
124.251
168.498
137.648
178.335
145.861
184.536
151.075
188.575
154.499
84.6242
71.2407
142.312
116.281
173.428
142.072
192.346
157.912
203.945
167.7
211.294
173.947
216.108
178.073
92.2406
77.8591
157.943
129.413
193.476
159.121
215.342
177.608
228.836
189.11
237.42
196.481
243.062
201.368
97.8169
82.7527
171.153
140.553
211.08
174.18
235.931
195.356
251.353
208.607
261.188
217.121
267.663
222.773
100.476
85.1402
180.161
148.182
223.929
185.239
251.452
208.819
268.61
223.637
279.564
233.164
286.772
239.485
98.8541
83.8928
182.042
149.787
228.131
188.903
257.353
214.011
275.644
229.838
287.33
240.009
295.008
246.741
91.7744
77.966
173.81
142.603
219.259
181.303
247.873
206.246
265.804
221.98
277.361
232.071
285.038
238.727
77.7166
66.3297
150.058
123.499
191.633
158.547
218.048
181.24
234.58
195.556
245.171
204.707
252.195
210.714
57.6559
49.7483
112.986
93.6918
147.353
122.114
169.39
140.623
183.157
152.298
191.918
159.733
197.713
164.595
38.0738
33.3993
75.9869
63.685
102.163
84.844
119.335
98.8512
130.085
107.728
136.865
113.37
141.294
117.032
23.6742
21.2018
48.1568
40.8319
67.5797
56.2114
80.9041
66.7797
89.341
73.5592
94.6211
77.8663
98.0029
80.6541
14.4924
13.2689
29.3574
25.31
43.4744
36.4462
53.8928
44.6139
60.6583
49.9719
64.8806
53.3774
67.5179
55.5564
9.45672
8.79725
17.9423
15.8119
27.7842
23.7836
35.7955
30.1862
41.2237
34.5151
44.6509
37.2745
46.7581
39.0112
6.96102
6.50085
11.512
10.3616
18.0084
15.8483
23.9779
20.8004
28.2894
24.3254
31.1104
26.6154
32.8844
28.0596
5.71995
5.29734
8.07422
7.31959
12.143
10.8648
16.4145
14.5156
19.7547
17.304
22.0458
19.1833
23.5355
20.3884
4.97031
4.53528
6.21573
5.54479
8.67946
7.69352
11.5744
10.2212
14.0108
12.3167
15.7531
13.793
16.9143
14.7627
4.39483
3.95824
5.10911
4.44806
6.64311
5.72245
8.57063
7.39243
10.2723
8.88028
11.5143
9.96499
12.3412
10.6828
3.89297
3.47375
4.31486
3.67901
5.31872
4.4532
6.61214
5.54029
7.79511
6.56675
8.67414
7.33718
9.25948
7.8496
3.41969
3.03423
3.64965
3.06801
4.32164
3.52938
5.21269
4.24565
6.03848
4.94232
6.66222
5.47889
7.07922
5.83774
2.96828
2.62418
3.07534
2.5622
3.50503
2.80232
4.13306
3.26669
4.72659
3.74453
5.1721
4.11138
5.47027
4.35723
2.53685
2.23507
2.56543
2.12376
2.81873
2.21908
3.21775
2.47389
3.62828
2.77799
3.95652
3.03458
4.18405
3.21474
2.11607
1.85531
2.09703
1.72601
2.23295
1.73745
2.46752
1.85429
2.72707
2.02113
2.95107
2.17987
3.1155
2.2999
1.70357
1.48097
1.65914
1.35306
1.72085
1.32333
1.84347
1.35913
1.9876
1.43206
2.12236
1.51378
2.22958
1.583
1.29821
1.11012
1.24402
0.994976
1.26305
0.950513
1.31883
0.947833
1.38741
0.968716
1.45509
1.00014
1.51342
1.03143
0.893004
0.738528
0.840412
0.645256
0.837387
0.601956
0.857187
0.586366
0.884385
0.585663
0.912116
0.592676
0.937202
0.602442
0.493956
0.381902
0.452994
0.32101
0.442645
0.290947
0.446069
0.277376
0.454216
0.272353
0.463397
0.271948
0.472079
0.27368
0.174234
0.125171
0.155281
0.101552
0.149303
0.0900074
0.148999
0.0845784
0.150748
0.0822191
0.153128
0.0815602
0.155524
0.0817277
0.0350182
0.0245803
0.0309443
0.0197309
0.0296781
0.017393
0.0296161
0.0162791
0.0299846
0.0157815
0.0304811
0.0156301
0.0309831
0.015655
0.00391848
0.00270277
0.00344101
0.00217464
0.00328483
0.001921
0.00326883
0.00179449
0.00330633
0.001735
0.00336085
0.00171474
0.0034174
0.00171526
0.00272224
0.00156701
0.0022005
0.00132719
0.00188998
0.00119462
0.00169837
0.00108987
0.00158871
0.00101712
0.00152836
0.000972587
0.00149388
0.000946539
2.14765
1.42632
2.17279
1.44258
2.17636
1.44333
2.15945
1.42888
2.11634
1.39339
2.05032
1.33885
31.4314
23.3497
31.6805
23.5273
31.7075
23.5259
31.5162
23.3387
31.0169
22.865
30.2017
22.0135
72.2929
57.0336
72.7881
57.4039
72.8639
57.4235
72.5578
57.1077
71.7137
56.283
70.2826
54.7445
105.468
84.637
106.24
85.2321
106.423
85.328
106.096
84.9734
105.058
83.9457
103.181
81.9342
135.086
109.345
136.171
110.2
136.503
110.411
136.218
110.073
135.091
108.935
132.927
106.597
163.426
133.126
164.865
134.281
165.386
134.644
165.195
134.368
164.073
133.202
161.807
130.7
191.475
156.883
193.312
158.381
194.063
158.934
194.018
158.769
192.993
157.655
190.837
155.174
219.602
180.987
221.871
182.869
222.884
183.645
223.029
183.633
222.188
182.652
220.375
180.406
247.192
204.859
249.934
207.167
251.25
208.209
251.642
208.406
251.095
207.664
249.888
205.897
272.44
226.853
275.672
229.604
277.326
230.942
278.03
231.406
277.905
231.018
277.602
230.008
292.117
244.076
295.807
247.235
297.806
248.872
298.872
249.645
299.302
249.728
300.214
249.755
300.719
251.647
304.756
255.101
307.069
257.002
308.533
258.108
309.655
258.771
312.093
260.097
290.781
243.569
294.973
247.08
297.523
249.126
299.399
250.519
301.344
251.789
305.592
254.508
257.515
215.132
261.425
218.368
263.952
220.371
266.049
221.932
268.632
223.714
274.356
227.659
202.084
168.157
205.352
170.814
207.6
172.564
209.669
174.088
212.522
176.088
218.874
180.581
144.584
119.679
147.167
121.743
149.035
123.17
150.866
124.506
153.545
126.391
159.465
130.621
100.463
82.6641
102.487
84.2895
104.006
85.4426
105.541
86.5536
107.845
88.1696
112.903
91.7828
69.4094
57.1519
71.0115
58.4837
72.2533
59.4358
73.5336
60.355
75.4796
61.6972
79.7198
64.6879
48.3174
40.336
49.6054
41.4587
50.6304
42.2693
51.7204
43.0436
53.3936
44.1658
57.0232
46.6558
34.201
29.1492
35.2656
30.0794
36.1159
30.7634
37.0529
31.4248
38.5292
32.3855
41.7711
34.5398
24.6699
21.2982
25.5986
22.0531
26.3217
22.6146
27.1023
23.1781
28.3727
24.0115
31.1684
25.9106
17.7905
15.4805
18.5404
16.0814
19.1408
16.5174
19.7957
16.9589
20.8523
17.6514
23.1796
19.2454
12.9801
11.2294
13.5432
11.6965
14.0053
12.0384
14.518
12.3761
15.3549
12.892
17.1744
14.0825
9.71836
8.24528
10.1333
8.58808
10.4809
8.84299
10.8721
9.09628
11.5179
9.483
12.9065
10.3696
7.40896
6.11579
7.71489
6.35893
7.97677
6.5425
8.27653
6.72777
8.77773
7.01531
9.84044
7.67287
5.70716
4.54839
5.93418
4.72052
6.13493
4.85529
6.37214
4.99399
6.77689
5.20947
7.6224
5.70303
4.36945
3.35779
4.55259
3.48684
4.71786
3.58767
4.91461
3.69092
5.25095
3.85206
5.94249
4.21903
3.25504
2.39921
3.39952
2.49194
3.53609
2.56762
3.70476
2.64806
3.99844
2.77639
4.58937
3.0629
2.32648
1.64434
2.43295
1.70476
2.5401
1.75722
2.67942
1.81599
2.93097
1.91367
3.43713
2.13276
1.57057
1.06204
1.63839
1.09477
1.71286
1.1257
1.81734
1.16285
2.0193
1.22909
2.44139
1.38533
0.963408
0.613169
0.997057
0.626226
1.03808
0.639828
1.10212
0.657557
1.24163
0.692997
1.56472
0.78821
0.481289
0.275966
0.493849
0.279541
0.510423
0.283561
0.539084
0.289067
0.611924
0.30182
0.8123
0.343879
0.158011
0.0820683
0.161667
0.0828383
0.166605
0.0837113
0.175492
0.0848721
0.200298
0.0878699
0.278608
0.0994859
0.031492
0.0157119
0.0322973
0.0158556
0.0333709
0.0160073
0.035285
0.0161975
0.040627
0.0167102
0.0574838
0.0188327
0.00347364
0.00171845
0.0035702
0.00173101
0.00369854
0.00174449
0.00392809
0.00176151
0.00456686
0.00181201
0.00651363
0.00202675
0.00145361
0.000913952
0.00142363
0.000887626
0.00141339
0.00087675
0.00140597
0.000867276
0.00140589
0.000856684
0.00142107
0.000825927
2.10138
1.36838
2.1881
1.42796
2.22792
1.45607
2.23685
1.46351
2.22128
1.45516
2.17587
1.42836
30.586
22.1588
31.4025
22.7548
31.759
23.0397
31.8085
23.1026
31.6195
22.9838
31.12
22.6268
71.0394
55.0844
72.5923
56.3226
73.206
56.8529
73.2548
56.9317
72.8909
56.6748
71.9915
55.9876
104.239
82.46
106.525
84.3243
107.419
85.0956
107.525
85.2204
107.075
84.8861
105.915
83.9722
134.329
107.347
137.443
109.905
138.677
110.959
138.888
111.166
138.402
110.793
137.051
109.703
163.69
131.789
167.773
135.148
169.419
136.535
169.782
136.857
169.299
136.472
167.804
135.241
193.421
156.792
198.639
161.082
200.772
162.859
201.33
163.329
200.885
162.958
199.287
161.612
223.963
182.818
230.486
188.185
233.168
190.405
233.952
191.046
233.568
190.706
231.89
189.263
254.792
209.382
262.774
215.958
266.066
218.668
267.111
219.511
266.82
219.228
265.101
217.717
284.09
234.81
293.588
242.635
297.51
245.847
298.84
246.907
298.672
246.706
296.969
245.177
308.458
256.027
319.336
264.969
323.821
268.618
325.416
269.877
325.392
269.775
323.766
268.285
322.066
267.801
333.912
277.486
338.785
281.411
340.591
282.821
340.729
282.839
339.278
281.486
317.037
263.302
329.113
273.054
334.056
276.978
335.959
278.442
336.262
278.592
335.109
277.498
286.329
236.831
297.609
245.815
302.229
249.41
304.086
250.812
304.547
251.088
303.819
250.364
230.142
189.145
239.781
196.678
243.776
199.699
245.469
200.941
246.061
201.318
245.804
200.998
169.212
137.982
177.186
144.102
180.55
146.579
182.044
147.65
182.684
148.071
182.738
148.03
121.08
97.9635
127.768
103.089
130.652
105.196
131.971
106.134
132.593
106.547
132.775
106.62
86.6
69.9229
92.4119
74.4507
94.9463
76.3181
96.1209
77.1551
96.6915
77.5281
96.8933
77.6046
63.0538
51.2783
68.407
55.6248
70.6334
57.31
71.6761
58.0519
72.1723
58.3596
72.3308
58.3776
47.3267
38.8513
52.2763
42.9878
54.2105
44.5001
55.1415
45.1646
55.6037
45.4387
55.7714
45.4491
36.2355
29.898
41.0427
33.7243
42.7804
35.0502
43.6275
35.6484
44.0667
35.9048
44.2514
35.9317
27.7124
22.6525
32.1671
26.0199
33.8059
27.1669
34.6006
27.7164
35.0462
27.993
35.302
28.0936
20.7964
16.791
24.466
19.6392
25.8901
20.6467
26.6008
21.1374
27.0272
21.4029
27.321
21.5361
15.7022
12.458
18.6047
14.7632
19.7885
15.6206
20.399
16.0407
20.7768
16.2768
21.0551
16.4155
11.9767
9.24179
14.2172
11.0237
15.169
11.7178
15.6728
12.0689
15.9897
12.272
16.2318
12.4009
9.29733
6.89714
11.0461
8.26676
11.8142
8.82335
12.2288
9.11177
12.491
9.28138
12.6954
9.39417
7.28855
5.11859
8.69519
6.18857
9.34299
6.65105
9.69205
6.89013
9.91148
7.03108
10.0875
7.13026
5.69341
3.73916
6.80991
4.54052
7.34713
4.91097
7.64452
5.10924
7.83748
5.23168
8.00061
5.32637
4.34761
2.63027
5.21811
3.20162
5.66525
3.49318
5.92281
3.65807
6.09742
3.76695
6.25397
3.86057
3.18717
1.73406
3.84186
2.10627
4.21063
2.32627
4.43634
2.46226
4.59832
2.56037
4.75248
2.65426
2.15108
1.00861
2.60745
1.21339
2.8939
1.35756
3.08566
1.46007
3.23387
1.54339
3.3836
1.63223
1.21502
0.45234
1.4906
0.53823
1.67933
0.60623
1.82156
0.663012
1.94422
0.716621
2.07794
0.78148
0.463852
0.132461
0.58663
0.156711
0.675203
0.176768
0.748994
0.194916
0.820032
0.213698
0.904778
0.238637
0.0991236
0.0250585
0.127746
0.0296042
0.149313
0.0334151
0.168265
0.0368891
0.187156
0.0404844
0.210368
0.0453332
0.0111596
0.00266216
0.0144402
0.00313378
0.0169033
0.00353646
0.0190454
0.00390127
0.0210985
0.00427129
0.0235444
0.00476591
0.00148401
0.000746252
0.00151893
0.000686034
0.00160227
0.00068266
0.00169299
0.000694075
0.00178345
0.000708947
0.00186032
0.000717239
2.1013
1.38372
2.01256
1.3305
1.89394
1.25821
1.72787
1.15564
1.48671
1.00648
1.14418
0.793403
0.663225
0.486978
30.3496
22.0653
29.3667
21.3561
28.0219
20.3876
26.0701
18.9923
23.1314
16.9082
18.6895
13.7891
11.769
8.95496
70.6103
54.9257
68.8474
53.5948
66.4286
51.7645
62.9012
49.0918
57.4848
45.001
48.9193
38.6273
34.7027
28.1449
104.101
82.5433
101.774
80.7568
98.5469
78.2794
93.7819
74.6203
86.3649
68.9366
74.4909
59.9258
54.4729
44.9351
134.897
107.975
132.102
105.797
128.17
102.74
122.287
98.1755
113.007
90.9992
97.9597
79.4567
72.4409
60.1413
165.37
133.255
162.164
130.723
157.577
127.113
150.623
121.657
139.51
112.981
121.255
98.8564
90.1346
75.0887
196.615
159.396
193.039
156.532
187.825
152.375
179.81
146.013
166.846
135.784
145.286
118.939
108.324
90.457
229.014
186.835
225.09
183.648
219.255
178.932
210.167
171.625
195.314
159.764
170.351
140.042
127.328
106.547
262.073
215.124
257.84
211.641
251.407
206.378
241.252
198.116
224.494
184.577
196.079
161.879
146.942
123.218
293.86
242.478
289.388
238.757
282.431
233.007
271.294
223.855
252.747
208.727
221.07
183.185
166.25
139.646
320.675
265.569
316.064
261.7
308.725
255.587
296.816
245.731
276.822
229.311
242.489
201.443
183.233
154.058
336.342
278.888
331.785
275.052
324.36
268.853
312.152
258.731
291.496
241.737
255.862
212.765
194.688
163.722
332.502
275.185
328.288
271.657
321.273
265.829
309.591
256.193
289.678
239.894
255.186
211.989
196.356
164.997
301.79
248.584
298.303
245.706
292.34
240.823
282.252
232.618
264.886
218.601
234.654
194.469
184.083
154.565
244.529
199.903
242.06
197.924
237.719
194.465
230.225
188.533
217.165
178.263
194.31
160.472
157.193
131.886
182.157
147.548
180.626
146.385
177.787
144.231
172.748
140.42
163.901
133.758
148.548
122.279
124.603
104.511
132.591
106.467
131.596
105.739
129.641
104.305
126.111
101.728
120.004
97.3213
109.891
90.1098
95.4547
79.9648
96.8552
77.545
96.1539
77.0003
94.6554
75.8465
91.9066
73.7609
87.2954
70.3447
80.2835
65.3787
71.7253
59.7966
72.1921
58.1929
71.7259
57.7559
70.5403
56.7215
68.2859
54.8192
64.5305
51.7644
59.1081
47.6581
53.3815
43.9401
55.7053
45.2907
55.2984
44.8522
54.2844
43.8771
52.3826
42.1144
49.2128
39.2782
44.5953
35.4327
39.8446
32.1075
44.2342
35.8092
43.9111
35.4333
43.0833
34.6023
41.5296
33.0954
38.8991
30.6218
34.9095
27.0933
30.4081
23.6485
35.4417
28.1205
35.1863
27.8151
34.5272
27.1392
33.2908
25.9066
31.1552
23.8557
27.849
20.8269
23.9529
17.6547
27.5008
21.5865
27.4041
21.3955
27.0074
20.9034
26.1591
19.9564
24.632
18.3412
22.2265
15.9341
19.5026
13.4952
21.2309
16.4714
21.2306
16.361
21.0279
16.0178
20.5144
15.316
19.5393
14.094
18.0165
12.3096
16.4267
10.6631
16.3992
12.4588
16.4605
12.4024
16.4048
12.1754
16.1719
11.6855
15.6823
10.8225
14.9027
9.59852
14.1528
8.62623
12.8572
9.45406
12.9596
9.43487
13.0125
9.29719
12.994
8.9777
12.873
8.40671
12.6275
7.62465
12.4056
7.14445
10.2473
7.19409
10.3802
7.2049
10.5155
7.14062
10.6598
6.96137
10.8101
6.6254
10.9255
6.18095
11.0044
6.04058
8.16523
5.39822
8.32974
5.43943
8.53981
5.44344
8.81996
5.38714
9.17329
5.24204
9.51755
5.04489
9.7433
5.1202
6.42496
3.94201
6.61757
4.01103
6.89001
4.0746
7.27557
4.12013
7.76771
4.12119
8.2323
4.09131
8.48228
4.27762
4.92915
2.74408
5.14499
2.83734
5.46518
2.95051
5.9245
3.07609
6.49402
3.18107
6.9819
3.25092
7.17408
3.47283
3.55878
1.72292
3.78858
1.83128
4.14036
1.97821
4.64189
2.15782
5.22911
2.32535
5.67567
2.4456
5.78337
2.65146
2.23535
0.852478
2.46076
0.950867
2.81367
1.09766
3.30996
1.28852
3.85148
1.4771
4.20762
1.60018
4.22345
1.7502
1.00812
0.268668
1.17505
0.31647
1.45456
0.398404
1.85649
0.523573
2.26835
0.657073
2.49755
0.736808
2.44116
0.810425
0.241619
0.0515836
0.296501
0.0619576
0.398799
0.0810284
0.559642
0.113696
0.724413
0.151496
0.80156
0.1726
0.748075
0.188907
0.027189
0.00542541
0.0335865
0.00651944
0.0459584
0.00856508
0.0659858
0.0121324
0.0859406
0.016336
0.0936567
0.0185468
0.0846971
0.0200744
0.001978
0.000723342
0.00223031
0.000756244
0.0027651
0.000836784
0.00375595
0.00100364
0.00504977
0.00123813
0.00601212
0.00139417
0.0056955
0.00140557
0.42597
0.328881
0.229008
0.187821
0.0955238
0.0831236
0.0285887
0.0260801
7.84956
6.18029
4.27797
3.51764
1.66593
1.41861
0.476939
0.417342
25.8006
21.5376
16.8633
14.5738
8.69414
7.70123
3.41805
3.06467
41.6027
35.2993
28.7109
25.2054
16.4298
14.8156
7.85692
7.20533
55.7456
47.5807
39.2693
34.6623
23.3509
21.1878
11.9888
11.0858
69.4567
59.4558
49.4399
43.744
29.9727
27.2688
15.9143
14.7664
83.3498
71.4759
59.7117
52.8964
36.6559
33.3941
19.8699
18.4645
97.714
83.9062
70.3416
62.3511
43.6312
39.7733
24.031
22.3453
112.448
96.6793
81.3367
72.12
50.9976
46.4963
28.5147
26.5171
126.969
109.248
92.3428
81.8541
58.6167
53.414
33.2795
30.9318
139.904
120.384
102.511
90.7822
66.0855
60.1525
38.1738
35.4474
149.134
128.284
110.607
97.8294
72.9481
66.2981
43.1815
40.046
151.712
130.378
114.604
101.185
78.0784
70.8021
47.8385
44.2688
145.123
124.568
112.779
99.3455
80.0764
72.4066
51.303
47.3532
128.071
109.791
103.448
90.8777
77.2798
69.6229
52.4379
48.2254
105.272
90.2016
88.4274
77.5425
69.6187
62.4994
50.328
46.0875
83.5337
71.4831
72.7029
63.614
60.0134
53.6788
46.0839
41.9782
64.921
55.3268
58.4629
50.904
50.4146
44.817
40.8922
36.9771
49.9437
42.0913
46.6207
40.1215
41.9975
36.8529
35.6307
31.89
38.0608
31.3746
36.8493
31.0144
34.6637
29.8316
30.651
27.0197
29.1615
23.1411
29.0825
23.606
28.4992
23.8273
26.1936
22.5785
22.858
17.0959
23.2819
17.9072
23.5851
18.9272
22.2873
18.7103
18.8503
13.177
19.4593
14.1561
19.969
15.4259
19.1
15.6762
16.2303
10.6758
16.8849
11.7504
17.2826
12.995
16.5577
13.3954
14.264
8.92072
14.8634
10.0177
15.0585
11.1314
14.3976
11.5584
12.6451
7.60956
13.1196
8.66007
13.1108
9.60262
12.5009
10.01
11.2495
6.58511
11.5683
7.5393
11.3837
8.30091
10.8139
8.66177
9.9263
5.67296
10.091
6.50669
9.77259
7.09871
9.24941
7.41453
8.56951
4.78234
8.60444
5.48535
8.20764
5.93307
7.75784
6.21936
7.16639
3.90091
7.11351
4.47777
6.69445
4.80681
6.33011
5.06569
5.70467
2.98759
5.59841
3.44405
5.19645
3.67557
4.9131
3.90177
4.10256
1.98323
3.97682
2.32175
3.63151
2.47639
3.42359
2.6587
2.3183
0.933241
2.20802
1.1336
1.96421
1.22212
1.82095
1.3315
0.686922
0.220327
0.637795
0.275724
0.548403
0.301669
0.490564
0.330428
0.0763423
0.0232894
0.0696617
0.0289499
0.0593079
0.0317159
0.0519068
0.0344825
0.00521729
0.00155722
0.00421703
0.00150282
0.00431777
0.00215594
0.00173443
0.00208921
0.00761801
0.00957572
0.0150829
0.0130619
0.000892197
0.000566345
0.123706
0.141577
0.0580735
0.058239
0.00546565
0.0048462
1.04399
1.1827
0.467083
0.463785
0.0474689
0.0418242
3.16542
3.48622
1.43631
1.41324
0.190214
0.165169
5.29781
5.71419
2.37502
2.32255
0.436374
0.374417
7.07535
7.51351
3.05641
2.96896
0.74123
0.632514
8.53202
8.93611
3.533
3.40771
1.07947
0.924505
9.66955
9.98971
3.8548
3.68737
1.44213
1.24796
10.4205
10.6276
4.04784
3.83672
1.83436
1.6209
10.7171
10.7926
4.13503
3.88702
2.27786
2.07218
10.5279
10.4486
4.16682
3.89413
2.80201
2.63511
9.80526
9.57446
4.1993
3.93457
3.4454
3.34144
8.5961
8.28022
4.31134
4.11468
4.24535
4.20547
7.18672
6.90821
4.62365
4.54056
5.20354
5.21494
6.07828
5.95345
5.21879
5.25568
6.33223
6.40903
5.74326
5.78541
5.99424
6.11276
7.39323
7.49979
5.891
6.02102
6.72184
6.8827
8.32585
8.45153
6.16601
6.33257
7.29051
7.46338
9.05512
9.20607
6.39557
6.57206
7.63588
7.81086
9.5196
9.67703
6.51631
6.68201
7.74785
7.90775
9.68893
9.82995
6.49896
6.63307
7.64749
7.77477
9.5894
9.6945
6.32472
6.40158
7.35058
7.43355
9.26966
9.3227
6.00835
6.02899
6.92386
6.96377
8.80624
8.79007
5.61746
5.59271
6.46012
6.46398
8.29874
8.20488
5.17161
5.11024
5.96997
5.93464
7.76716
7.58472
4.68551
4.59906
5.45751
5.38158
7.1943
6.91368
4.1677
4.06516
4.91639
4.79157
6.55582
6.17007
3.62087
3.50967
4.32804
4.15888
5.83193
5.34758
3.05353
2.93912
3.69521
3.49393
5.00023
4.42794
2.46832
2.35466
3.02491
2.81504
4.03459
3.40879
1.85529
1.7485
2.32029
2.14075
2.93628
2.34477
1.19788
1.11637
1.56758
1.45408
1.80813
1.32798
0.539465
0.509266
0.766789
0.720681
0.790679
0.592786
0.126514
0.121077
0.189395
0.178559
0.198409
0.144597
0.014628
0.0141966
0.0219827
0.0204215
0.0245849
0.0186537
0.00916191
0.00981573
0.00925683
0.00620778
0.0261227
0.0246704
0.0294559
0.0491943
0.0652845
0.0516352
0.045014
0.0387769
0.109869
0.207624
0.221636
0.179111
0.158766
0.141574
0.37811
1.13213
1.2339
1.12403
0.989683
0.922432
2.06893
4.42488
4.30087
3.8111
3.41586
3.1747
2.71721
6.25513
6.77495
6.267
5.68594
5.35894
9.91051
16.9363
16.7936
15.3739
14.2368
13.4838
6.272
11.9175
12.8588
12.0208
11.0824
10.5276
17.7932
27.9099
27.978
25.8173
24.1293
22.9863
9.18508
16.4112
17.7471
16.6401
15.3943
14.6445
24.1997
36.8266
37.163
34.3642
32.1616
30.6605
11.4539
20.062
21.7789
20.4443
18.902
17.9733
29.5671
44.4754
45.1068
41.7327
39.0159
37.1608
13.1878
23.0522
25.1474
23.625
21.7962
20.7044
34.0893
51.1571
52.1245
48.2314
44.9969
42.7889
14.3804
25.3836
27.8668
26.1971
24.1025
22.869
37.7256
56.8646
58.2306
53.8844
50.1367
47.5861
14.9413
26.9178
29.7817
28.0075
25.6719
24.3213
40.2695
61.3211
63.132
58.3978
54.1443
51.2665
14.7304
27.4668
30.685
28.8653
26.3341
24.9045
41.3837
64.1084
66.4098
61.3782
56.6551
53.4921
13.6098
26.8101
30.3189
28.5316
25.8826
24.4307
40.5574
64.6545
67.4788
62.2806
57.1724
53.8098
11.4934
24.7227
28.3914
26.7216
24.0656
22.6599
37.1773
62.226
65.5458
60.3451
54.9836
51.5493
8.6511
21.211
24.8047
23.3193
20.8
19.5186
30.9089
56.2937
59.9509
54.9393
49.5159
46.1823
5.96442
17.0044
20.0776
18.6978
16.4152
15.3036
23.3664
48.1777
51.4494
46.4395
40.9382
37.7141
4.25771
12.8113
14.8331
13.4897
11.6715
10.8269
16.0242
38.7362
40.3893
35.1635
29.785
26.8645
3.58205
9.2652
10.3498
9.41881
8.35522
7.84302
10.3843
28.9804
28.6758
23.8062
19.4653
17.2398
3.45861
7.14065
7.70818
7.25719
6.78154
6.53835
7.72093
21.3174
19.5276
15.5654
12.6095
11.1943
3.61668
6.21625
6.54588
6.34764
6.17939
6.09019
6.80388
16.5869
13.8672
10.7445
8.88621
8.06205
3.89588
5.94526
6.14965
6.02039
5.97162
5.9504
6.64869
14.694
11.3552
8.51785
7.19011
6.66508
4.14271
5.91824
6.02423
5.86124
5.82859
5.83175
6.89798
14.6585
10.8744
7.72284
6.4322
5.97706
4.2363
5.81008
5.90575
5.69634
5.63855
5.64654
7.19669
15.1581
11.4721
7.6844
6.07305
5.55402
4.11099
5.35573
5.58421
5.41516
5.3505
5.35871
7.10858
14.6005
11.8953
7.81684
5.82139
5.18235
3.94476
4.61781
5.01997
4.98206
4.96183
4.97615
6.534
12.4578
11.0963
7.52
5.46246
4.76733
3.88713
3.92725
4.41558
4.49405
4.53638
4.55461
5.91309
10.1679
9.69424
6.81001
4.97172
4.31635
3.87874
3.33633
3.84399
4.00234
4.10134
4.11483
5.33336
8.09471
8.13998
5.89311
4.40449
3.84567
3.81318
2.83403
3.32554
3.53016
3.67183
3.67115
4.76808
6.37196
6.68326
4.95562
3.82607
3.37958
3.62428
2.39559
2.85729
3.08007
3.2481
3.22594
4.20652
4.99886
5.41799
4.08557
3.27175
2.92573
3.29414
1.99819
2.42353
2.64155
2.82139
2.77451
3.65407
3.90466
4.3435
3.30823
2.7483
2.4783
2.85439
1.62091
2.00789
2.20467
2.3864
2.3166
3.09398
3.0111
3.42581
2.61865
2.2519
2.03545
2.34191
1.24723
1.59255
1.75672
1.93317
1.84662
2.5023
2.25144
2.62144
1.99601
1.77003
1.59313
1.75773
0.861409
1.15485
1.27885
1.44319
1.35273
1.85568
1.5607
1.87801
1.40715
1.28149
1.14101
1.09931
0.466441
0.682343
0.76177
0.901439
0.835791
1.13413
0.90439
1.14858
0.828207
0.777824
0.674397
0.456368
0.157818
0.257984
0.290913
0.371592
0.341334
0.452859
0.343473
0.475722
0.318121
0.308406
0.258752
0.0977763
0.0310414
0.0531164
0.0597924
0.0796609
0.0729128
0.0966143
0.06948
0.101367
0.0649553
0.0646236
0.0536302
0.010427
0.00320781
0.00550227
0.00624941
0.00853016
0.00800899
0.0111133
0.00685742
0.0102561
0.00676831
0.00705718
0.00600969
0.00113727
0.000411983
0.000578144
0.00106508
0.00251779
0.00397032
0.00417871
0.00193505
0.00265097
0.00242868
0.00365835
0.00413664
0.377088
0.671922
0.654961
0.556752
0.515859
0.473302
0.832558
1.58874
1.49287
1.34575
1.28855
1.20695
1.2413
2.39753
2.2377
2.03337
1.92382
1.78167
1.44944
2.89749
2.72866
2.49687
2.34718
2.15685
1.52513
3.15591
3.01117
2.78287
2.61222
2.3917
1.53412
3.27665
3.16523
2.95303
2.77478
2.53773
1.50979
3.32757
3.24471
3.05137
2.87288
2.62773
7.21923
12.3304
11.7429
10.7974
10.2218
9.68988
14.2227
24.5236
23.0563
21.9625
21.3187
20.4429
19.6077
33.3093
31.3819
29.8552
28.7532
27.3038
22.1032
38.187
36.3426
34.6351
33.2236
31.3598
23.0183
40.643
39.0545
37.4227
35.8725
33.7705
23.19
41.7987
40.5004
39.0299
37.4502
35.2285
23.0294
42.2774
41.2304
39.9383
38.3877
36.1171
23.9811
35.2784
34.3284
32.2271
30.9589
29.7031
39.3916
59.2693
57.0624
54.8297
53.6036
51.8323
49.9731
75.3744
72.4523
69.5428
67.4914
64.6923
54.7935
84.118
81.368
78.1943
75.6238
72.1107
56.6825
88.5754
86.2459
83.1818
80.3791
76.4665
57.2428
90.7555
88.8664
86.0494
83.1981
79.091
57.2374
91.7279
90.2179
87.6745
84.8747
80.6948
38.1313
53.785
52.8429
49.8013
47.9495
46.1192
59.7466
86.8321
84.4961
81.2853
79.5864
77.0947
74.3285
108.836
105.525
101.408
98.5619
94.6366
81.1265
120.842
117.701
113.258
109.701
104.808
84.0074
127.103
124.452
120.115
116.237
110.806
85.1157
130.292
128.154
124.095
120.142
114.45
85.4469
131.816
130.12
126.381
122.491
116.706
49.8446
69.2928
68.4829
64.6047
62.1673
59.7852
76.9988
110.522
108.317
104.246
102.086
98.9308
95.3398
138.074
134.646
129.392
125.769
120.78
104.139
153.289
149.994
144.316
139.789
133.587
108.136
161.41
158.631
153.021
148.078
141.203
109.916
165.687
163.458
158.125
153.074
145.873
110.672
167.829
166.081
161.096
156.115
148.802
60.1059
83.1147
82.5293
77.8612
74.8038
71.8555
92.622
132.266
130.402
125.538
122.904
119.093
114.795
165.435
162.088
155.705
151.269
145.214
125.782
184.048
180.755
173.796
168.244
160.724
131.077
194.204
191.415
184.446
178.369
170.033
133.656
199.688
197.465
190.747
184.522
175.791
134.912
202.527
200.81
194.454
188.304
179.441
69.2547
95.724
95.4653
90.0323
86.3068
82.7691
107.179
152.84
151.517
145.901
142.765
138.288
133.442
191.934
188.833
181.288
175.972
168.82
146.916
214.278
211.101
202.756
196.079
187.185
153.73
226.706
223.984
215.506
208.172
198.306
157.241
233.545
231.38
223.106
215.57
205.235
159.074
237.165
235.524
227.611
220.151
209.663
77.2334
107.161
107.35
101.181
96.7444
92.6069
120.726
172.435
171.864
165.525
161.851
156.704
151.48
217.927
215.234
206.468
200.183
191.903
167.82
244.437
241.469
231.596
223.659
213.331
176.405
259.419
256.81
246.631
237.874
226.397
180.995
267.772
265.69
255.637
246.609
234.578
183.486
272.263
270.708
261.002
252.041
239.831
83.6654
117.035
117.756
110.858
105.651
100.906
132.91
190.672
190.987
183.877
179.562
173.72
168.638
243.116
240.874
230.717
223.288
213.815
188.284
274.286
271.478
259.807
250.375
238.51
198.922
292.14
289.539
277.331
266.878
253.662
204.754
302.191
300.055
287.864
277.051
263.182
207.994
307.653
306.033
294.158
283.393
269.314
87.8829
124.635
125.947
118.332
112.304
106.978
142.909
206.624
207.833
199.8
194.653
188.077
184.058
266.484
264.535
252.662
243.798
233.042
207.44
302.77
299.821
285.892
274.591
261.047
220.412
323.795
320.81
306.033
293.456
278.325
227.646
335.713
333.083
318.17
305.112
289.205
231.723
342.238
340.086
325.433
312.386
296.222
88.9392
128.886
130.814
122.527
115.672
109.861
149.286
218.647
220.577
211.37
205.132
197.819
196.03
286.025
283.927
269.844
259.148
247.061
223.443
327.686
323.926
307.061
293.385
278.056
238.96
352.073
347.889
329.747
314.468
297.267
247.713
365.966
361.939
343.441
327.51
309.379
252.685
373.603
369.97
351.634
335.644
317.185
85.4915
128.203
130.659
121.765
114.119
107.995
149.772
224.009
226.146
215.356
207.69
199.707
201.574
298.146
294.96
277.958
264.954
251.601
232.919
344.961
339.082
318.313
301.655
284.57
250.98
372.643
365.705
343.06
324.377
305.096
261.256
388.473
381.348
358.019
338.449
318.048
267.115
397.194
390.291
366.961
347.214
326.384
76.1485
120.991
123.82
114.475
106.18
100.041
141.29
219.104
220.592
207.796
198.52
190.253
196.04
297.454
291.792
271.239
255.722
241.625
230.185
348.056
338.131
312.429
292.417
274.138
250.242
378.353
366.331
337.807
315.188
294.401
261.772
395.77
382.961
353.254
329.418
307.301
268.38
405.387
392.473
362.515
338.342
315.678
62.9912
109.254
111.074
100.498
91.009
84.6675
125.4
205.972
203.592
186.39
173.582
164.429
178.947
283.939
271.948
245.298
225.876
211.235
212.436
334.452
316.227
283.415
259.425
240.865
232.071
364.76
343.035
306.762
280.121
259.193
243.31
382.375
358.95
320.952
292.978
270.766
249.882
392.184
368.229
329.632
301.155
278.342
47.974
93.8637
92.1942
79.6557
68.9601
62.6527
103.259
184.462
172.724
149.134
132.497
123.265
150.654
256.416
231.961
197.753
175.029
161.698
180.403
302.999
270.149
229.19
202.536
186.296
197.588
330.815
293.136
248.34
219.447
201.459
207.32
346.933
306.691
259.882
229.84
210.911