/*--------------------------------*- C++ -*----------------------------------*\
| =========                 |                                                 |
| \\      /  F ield         | OpenFOAM: The Open Source CFD Toolbox           |
|  \\    /   O peration     | Version:  2206                                  |
|   \\  /    A nd           | Website:  www.openfoam.com                      |
|    \\/     M anipulation  |                                                 |
\*---------------------------------------------------------------------------*/
FoamFile
{
    version     2.0;
    format      ascii;
    arch        "LSB;label=32;scalar=64";
    class       volScalarField;
    location    "500";
    object      nut;
}
// * * * * * * * * * * * * * * * * * * * * * * * * * * * * * * * * * * * * * //

dimensions      [0 2 -1 0 0 0 0];

internalField   nonuniform List<scalar> 
50904
(
6.64698e-09
5.48924e-09
2.43166e-08
1.87499e-08
1.142e-06
1.01777e-06
3.77784e-06
3.03228e-06
2.46732e-05
2.25508e-05
5.6322e-05
4.90131e-05
0.000112341
0.000105305
0.000201911
0.000183294
0.000270988
0.000256546
0.000440453
0.000406747
0.000499896
0.000475056
0.000773765
0.000720196
0.000802446
0.000763735
0.00120792
0.00112894
0.00117732
0.00112157
0.00174211
0.0016316
0.00160567
0.00153266
0.00235232
0.0022065
0.00204337
0.00195647
0.00298169
0.00279961
0.00242776
0.00233917
0.00354303
0.00333638
0.00266703
0.0026
0.00390086
0.00370144
0.00264204
0.00262625
0.0038516
0.00371359
0.00228441
0.00234457
0.00321823
0.00321048
0.00181158
0.00190419
0.00247176
0.00255279
0.00161909
0.00170542
0.00190727
0.00201693
0.00170736
0.00177018
0.00159598
0.00169918
0.00189683
0.00194154
0.00152724
0.00161424
0.00205123
0.00208072
0.00162759
0.00172516
0.0021268
0.00213251
0.00179466
0.00183618
0.00208653
0.00207689
0.00183484
0.00183459
0.00191742
0.00189791
0.00173956
0.00169911
0.00163466
0.00161477
0.00150485
0.00145123
0.0013259
0.00131106
0.00122757
0.00117607
0.00103317
0.0010231
0.000956026
0.000912484
0.000776167
0.000769569
0.000715069
0.000680561
0.000560128
0.000555805
0.000512443
0.000486001
0.000381707
0.000378877
0.000345338
0.000325927
0.000240697
0.000238871
0.000213764
0.000200399
0.000135283
0.00013422
0.000116856
0.000108451
6.26336e-05
6.20303e-05
5.19053e-05
4.73107e-05
2.05779e-05
2.01427e-05
1.60921e-05
1.40849e-05
3.7623e-06
3.56464e-06
2.75414e-06
2.26561e-06
3.04913e-07
2.81734e-07
2.16305e-07
1.71969e-07
9.40784e-09
8.44837e-09
6.67725e-09
5.15457e-09
8.94733e-10
5.89615e-10
7.02527e-10
4.15292e-10
7.98517e-08
5.73175e-08
2.01425e-07
1.3849e-07
2.95298e-07
2.02577e-07
3.56159e-07
2.44539e-07
3.94258e-07
2.70858e-07
4.18021e-07
2.8746e-07
4.32742e-07
2.97959e-07
1.13636e-05
8.85153e-06
2.32481e-05
1.79153e-05
3.0376e-05
2.36431e-05
3.44328e-05
2.69598e-05
3.67992e-05
2.89084e-05
3.82146e-05
3.00795e-05
3.90658e-05
3.07846e-05
0.000109414
9.41423e-05
0.000170569
0.000145057
0.000200778
0.00017133
0.000216746
0.000185365
0.000225594
0.00019319
0.000230637
0.000197688
0.000233503
0.000200253
0.000326783
0.000291359
0.000465522
0.000407803
0.000528184
0.000462921
0.000560291
0.000491336
0.000577474
0.00050661
0.000586906
0.000515025
0.000592002
0.000519553
0.000659272
0.000595578
0.0009051
0.000800575
0.00100909
0.000891415
0.00106118
0.000936876
0.00108839
0.000960578
0.00110298
0.000973228
0.00111061
0.000979719
0.00111207
0.00101005
0.00149718
0.00132695
0.00165154
0.00145928
0.00172767
0.00152384
0.00176699
0.00155676
0.00178792
0.00157395
0.00179875
0.0015825
0.00169309
0.00154096
0.00224858
0.00198922
0.00246102
0.00216586
0.00256501
0.00225006
0.00261865
0.00229237
0.0026473
0.00231422
0.00266216
0.00232483
0.00240144
0.00218594
0.00315285
0.00277701
0.00342853
0.00299643
0.00356323
0.00309908
0.00363301
0.00315018
0.00367055
0.00317632
0.00369018
0.00318871
0.00320801
0.0029181
0.00417073
0.00365168
0.00451119
0.003908
0.00467793
0.00402613
0.00476491
0.00408453
0.00481212
0.00411417
0.00483714
0.00412791
0.00404274
0.00367378
0.00521571
0.00453764
0.0056173
0.00482194
0.00581456
0.00495118
0.00591817
0.0050148
0.00597498
0.00504699
0.00600566
0.00506178
0.00479265
0.00436076
0.00615341
0.00533655
0.00660658
0.00563879
0.00682938
0.00577428
0.00694682
0.00584081
0.00701186
0.00587462
0.00704786
0.00589042
0.00527918
0.00484248
0.00677655
0.00591881
0.00726962
0.00623215
0.00751598
0.00637041
0.00764598
0.0064382
0.00771857
0.00647324
0.00776025
0.00649061
0.00522894
0.00489109
0.00674855
0.00611338
0.00725263
0.00644275
0.00755799
0.00658785
0.00773327
0.00665931
0.00783262
0.00669744
0.00788878
0.00671841
0.00445268
0.00445511
0.00606411
0.00581362
0.00665485
0.00617971
0.0069923
0.00633598
0.00718516
0.00641207
0.00729854
0.00645358
0.0073663
0.00647834
0.00350183
0.0036899
0.00492242
0.00503635
0.00551509
0.00542839
0.00585655
0.00559187
0.00605613
0.00566983
0.00617806
0.00571257
0.00625554
0.00573943
0.00262851
0.00283335
0.00370846
0.0039815
0.00424419
0.00437017
0.00456698
0.00454108
0.00476184
0.00462404
0.00488397
0.004669
0.00496434
0.00469726
0.00196524
0.00212009
0.002717
0.00290952
0.00317133
0.00326944
0.0034651
0.00346323
0.00364887
0.00357138
0.00376576
0.00363447
0.00384331
0.0036727
0.00152979
0.0016377
0.00197961
0.0020541
0.00234162
0.00235285
0.00260048
0.00255821
0.00276884
0.00268807
0.00287671
0.00276873
0.00294758
0.00281903
0.00131782
0.00139739
0.00148346
0.00151026
0.00173402
0.00171886
0.00194498
0.00190386
0.00209024
0.00203315
0.00218461
0.00211704
0.00224585
0.0021705
0.00128489
0.00134378
0.00119363
0.00120479
0.00131793
0.0013088
0.00146952
0.00145268
0.00158627
0.00156565
0.00166576
0.00164283
0.00171847
0.00169373
0.00134418
0.00140387
0.00106314
0.00105741
0.00106564
0.00105335
0.00115416
0.00114379
0.00123952
0.00123096
0.00130254
0.00129491
0.00134577
0.00133853
0.00141308
0.00139349
0.0010295
0.000993384
0.000942426
0.000900742
0.000975372
0.000935345
0.00103101
0.000992399
0.00107783
0.00103978
0.00111147
0.00107363
0.00131582
0.0012532
0.00101611
0.000951373
0.000894729
0.000818441
0.000891645
0.000810571
0.000924086
0.000840548
0.000956759
0.000871463
0.000981165
0.000894562
0.00113122
0.00105642
0.000987927
0.00090058
0.000857742
0.000759732
0.000837423
0.000731808
0.000854149
0.000744481
0.000876142
0.000764031
0.000893475
0.000779725
0.000899685
0.000829248
0.000857711
0.000764336
0.000798529
0.000694886
0.000776895
0.000661242
0.000787616
0.000666934
0.000803981
0.000680607
0.000817299
0.00069229
0.000674903
0.000616686
0.000672658
0.000586649
0.000687543
0.000580235
0.000697881
0.000580431
0.000711295
0.000587832
0.000728821
0.00060239
0.000742624
0.000614321
0.000480482
0.0004359
0.000482305
0.000414671
0.000509812
0.000417967
0.000549769
0.000437758
0.000586494
0.000461047
0.000612827
0.000479166
0.000629543
0.000490851
0.000320075
0.000288047
0.000318551
0.00027092
0.000335085
0.00026975
0.000362199
0.000280244
0.000390087
0.00029535
0.000412115
0.000308906
0.000427155
0.00031858
0.000194816
0.000173364
0.000191093
0.000160435
0.000197582
0.000156526
0.000209942
0.000158891
0.000223887
0.000164608
0.000236224
0.000171002
0.000245584
0.000176334
0.000104004
9.08593e-05
0.000100241
8.22598e-05
0.000101658
7.8429e-05
0.000105784
7.76839e-05
0.000110807
7.86905e-05
0.000115633
8.04914e-05
0.000119676
8.23652e-05
4.46667e-05
3.77677e-05
4.21852e-05
3.32086e-05
4.19839e-05
3.08453e-05
4.2886e-05
2.98591e-05
4.41657e-05
2.96443e-05
4.54726e-05
2.9844e-05
4.66403e-05
3.02124e-05
1.31945e-05
1.04757e-05
1.21629e-05
8.87455e-06
1.18925e-05
8.01186e-06
1.19734e-05
7.59811e-06
1.2182e-05
7.42757e-06
1.24219e-05
7.39416e-06
1.26494e-05
7.42727e-06
2.14065e-06
1.57544e-06
1.92653e-06
1.29371e-06
1.8581e-06
1.14746e-06
1.85523e-06
1.07607e-06
1.87697e-06
1.04397e-06
1.90629e-06
1.03414e-06
1.93621e-06
1.03587e-06
1.64371e-07
1.16919e-07
1.46644e-07
9.5088e-08
1.41156e-07
8.41797e-08
1.4104e-07
7.8866e-08
1.4288e-07
7.64681e-08
1.4527e-07
7.57359e-08
1.47716e-07
7.58968e-08
5.04375e-09
3.50945e-09
4.46721e-09
2.86099e-09
4.28034e-09
2.54206e-09
4.26706e-09
2.38103e-09
4.32034e-09
2.30536e-09
4.3939e-09
2.28032e-09
4.47087e-09
2.28313e-09
5.24203e-10
3.04199e-10
4.27283e-10
2.61059e-10
3.68381e-10
2.36416e-10
3.31695e-10
2.16372e-10
3.10639e-10
2.0229e-10
2.99069e-10
1.9365e-10
2.92502e-10
1.88619e-10
4.42475e-07
3.04691e-07
4.47691e-07
3.08173e-07
4.48474e-07
3.0835e-07
4.45076e-07
3.05305e-07
4.36356e-07
2.97812e-07
4.23061e-07
2.86339e-07
3.95971e-05
3.12107e-05
3.98447e-05
3.14e-05
3.98442e-05
3.13728e-05
3.96034e-05
3.11221e-05
3.90314e-05
3.05265e-05
3.81278e-05
2.94372e-05
0.000235144
0.000201621
0.000235768
0.000202093
0.000235472
0.000201712
0.000234286
0.000200453
0.000231875
0.000197842
0.000228351
0.000193208
0.000594679
0.000521686
0.000595436
0.000522139
0.000594396
0.000520927
0.000591451
0.000517828
0.000585629
0.000511602
0.000577038
0.000500857
0.00111438
0.000982373
0.00111515
0.000982513
0.00111301
0.000980017
0.00110754
0.000974233
0.00109655
0.000962552
0.00107893
0.000941545
0.00180399
0.00158554
0.00180492
0.00158519
0.00180154
0.00158103
0.00179298
0.00157175
0.00177527
0.00155274
0.00174406
0.00151633
0.0026696
0.00232815
0.00267118
0.0023272
0.0026667
0.00232106
0.00265485
0.00230757
0.00262951
0.00227951
0.00258106
0.00222236
0.00370048
0.00319193
0.00370335
0.00319025
0.00369819
0.00318189
0.00368334
0.00316369
0.0036505
0.00312538
0.00358381
0.00304374
0.00485096
0.00413066
0.00485595
0.00412823
0.0048509
0.00411768
0.00483409
0.00409481
0.00479547
0.00404625
0.0047136
0.00393941
0.00602391
0.00506421
0.00603203
0.00506137
0.00602843
0.00504928
0.0060118
0.00502286
0.00597149
0.00496623
0.00588313
0.00483883
0.00707069
0.00589291
0.00708297
0.00589055
0.00708269
0.00587832
0.0070696
0.00585082
0.00703447
0.00579113
0.00695527
0.00565469
0.0077886
0.00649447
0.00780701
0.00649433
0.00781314
0.00648441
0.00780907
0.00645998
0.00779019
0.00640556
0.00774508
0.00627925
0.00792753
0.00672613
0.00795705
0.00673087
0.00797533
0.00672668
0.00798907
0.00671096
0.00800317
0.00667304
0.00802882
0.00658292
0.00741564
0.00649161
0.00745452
0.00650257
0.00748429
0.00650615
0.00751627
0.00650286
0.00756582
0.00648925
0.0076709
0.00645481
0.00631258
0.00575718
0.0063573
0.00577328
0.00639514
0.00578427
0.00644077
0.00579372
0.00651765
0.00580586
0.00668388
0.00583139
0.00502383
0.00471734
0.00507178
0.00473761
0.00511354
0.00475458
0.00516544
0.00477426
0.00525459
0.00480711
0.00544588
0.00487997
0.00390133
0.00369888
0.00395001
0.00372434
0.00399235
0.00374605
0.0040448
0.00377194
0.00413476
0.00381592
0.00432554
0.0039125
0.00300127
0.00285443
0.00304814
0.00288584
0.00308897
0.00291154
0.00313911
0.00294126
0.00322446
0.00299064
0.00340278
0.00309706
0.00229485
0.00221218
0.00233758
0.00224791
0.00237521
0.00227581
0.00242141
0.00230686
0.00249927
0.00235714
0.00265889
0.00246379
0.00176061
0.00173414
0.00179746
0.00176963
0.00182992
0.00179719
0.00186969
0.00182727
0.00193651
0.00187539
0.00207082
0.00197741
0.00138068
0.00137372
0.0014113
0.00140494
0.00143772
0.00142943
0.00146934
0.00145577
0.00152269
0.0014972
0.00163071
0.00158341
0.00113806
0.00110021
0.00116232
0.00112457
0.00118315
0.00114371
0.00120769
0.00116438
0.00124879
0.00119644
0.00133473
0.0012619
0.00100115
0.000913242
0.00102028
0.000930958
0.00103685
0.000944767
0.00105624
0.000959231
0.00108884
0.000981632
0.00115797
0.00102952
0.000908057
0.000792772
0.00092285
0.000805768
0.000935806
0.000815777
0.000950914
0.000825812
0.000976486
0.000840888
0.00103141
0.00087369
0.000828728
0.000702231
0.00084102
0.000712679
0.000851976
0.000720647
0.000864797
0.000728191
0.000886554
0.000738635
0.000932671
0.000760534
0.000754599
0.000624339
0.000767763
0.000634659
0.000779782
0.000642145
0.000793908
0.000648676
0.000817091
0.000657435
0.000861679
0.000674669
0.000642534
0.000499515
0.000655883
0.000508077
0.000667793
0.000514356
0.000681911
0.000520247
0.000705962
0.000529273
0.000753839
0.000550902
0.000439535
0.0003263
0.000452572
0.000333937
0.000464897
0.000340081
0.000480181
0.000346551
0.000506505
0.000357077
0.000556788
0.000381134
0.000253918
0.000181036
0.000263199
0.000185891
0.000272655
0.000190173
0.000285133
0.000195122
0.000307594
0.000203713
0.000350868
0.000223568
0.000123613
8.42403e-05
0.000128355
8.6346e-05
0.000133671
8.84043e-05
0.000141306
9.10072e-05
0.000156195
9.59331e-05
0.000186589
0.000108075
4.78494e-05
3.06402e-05
4.94332e-05
3.11978e-05
5.14199e-05
3.18081e-05
5.46182e-05
3.26576e-05
6.17367e-05
3.44779e-05
7.81973e-05
3.95757e-05
1.28861e-05
7.4765e-06
1.32166e-05
7.56276e-06
1.36665e-05
7.6656e-06
1.44688e-05
7.81671e-06
1.65507e-05
8.18645e-06
2.23248e-05
9.41082e-06
1.96648e-06
1.03977e-06
2.0118e-06
1.04918e-06
2.07428e-06
1.06027e-06
2.18851e-06
1.07572e-06
2.50824e-06
1.11577e-06
3.51673e-06
1.26622e-06
1.50154e-07
7.62061e-08
1.53958e-07
7.68949e-08
1.59053e-07
7.76286e-08
1.68154e-07
7.85534e-08
1.9351e-07
8.10297e-08
2.73452e-07
9.12135e-08
4.54612e-09
2.28893e-09
4.66886e-09
2.30455e-09
4.8322e-09
2.32115e-09
5.12634e-09
2.34229e-09
5.94975e-09
2.40733e-09
8.46247e-09
2.68881e-09
2.84741e-10
1.82247e-10
2.78556e-10
1.76859e-10
2.76285e-10
1.74583e-10
2.74539e-10
1.72591e-10
2.74065e-10
1.70336e-10
2.76323e-10
1.64034e-10
4.34211e-07
2.929e-07
4.52639e-07
3.05883e-07
4.6106e-07
3.12075e-07
4.63023e-07
3.13772e-07
4.59912e-07
3.12074e-07
4.50661e-07
3.06447e-07
3.85855e-05
2.95821e-05
3.95727e-05
3.03227e-05
3.99868e-05
3.06833e-05
4.00254e-05
3.07663e-05
3.97888e-05
3.0623e-05
3.92096e-05
3.01893e-05
0.000230395
0.000193814
0.000234245
0.000197083
0.000235408
0.000198272
0.000235142
0.000198245
0.000233893
0.000197341
0.000231355
0.000195292
0.000580904
0.000501779
0.000588522
0.000508435
0.000590229
0.000510227
0.000589228
0.000509623
0.000586315
0.000507282
0.000580656
0.000502489
0.00108305
0.000940837
0.00109444
0.000950649
0.00109654
0.000952829
0.00109458
0.000951385
0.00108957
0.000947158
0.00107994
0.00093876
0.00174468
0.00150952
0.00175918
0.00152138
0.0017617
0.00152376
0.00175872
0.00152134
0.00175138
0.00151497
0.00173722
0.00150246
0.00257311
0.00220317
0.00258967
0.00221534
0.00259275
0.00221792
0.00258885
0.0022146
0.00257909
0.00220602
0.00256011
0.00218918
0.00356345
0.0030061
0.00358119
0.00301713
0.00358495
0.00301992
0.00358025
0.00301574
0.00356809
0.00300496
0.0035442
0.00298377
0.00468105
0.00388038
0.00470025
0.00388959
0.00470513
0.00389276
0.00469999
0.00388797
0.00468581
0.00387524
0.00465758
0.00385011
0.00584457
0.00476099
0.00586711
0.00476914
0.00587402
0.00477315
0.00586926
0.00476824
0.00585411
0.00475425
0.00582322
0.00472634
0.00692451
0.00556802
0.00695381
0.00557732
0.00696379
0.0055827
0.00696049
0.00557827
0.00694599
0.005564
0.00691523
0.00553509
0.00774453
0.0062009
0.00778615
0.0062154
0.00780084
0.00622311
0.00780066
0.0062202
0.00778931
0.00620729
0.00776299
0.00618021
0.00809182
0.00653711
0.00815512
0.00656281
0.00817737
0.00657433
0.00818272
0.00657434
0.00817783
0.00656496
0.00816141
0.00654345
0.00780879
0.00646029
0.00789798
0.00650192
0.00792972
0.00651857
0.00794235
0.00652278
0.0079463
0.00651883
0.00794371
0.00650619
0.00688046
0.00589158
0.00699095
0.00594878
0.00703147
0.00597053
0.00705104
0.00597924
0.00706351
0.00598151
0.00707427
0.00597933
0.00566863
0.00498468
0.0057922
0.00505589
0.00583894
0.00508247
0.00586305
0.00509523
0.00588062
0.00510291
0.00589897
0.0051096
0.00455069
0.00404382
0.00467999
0.00412983
0.00473033
0.00416235
0.00475658
0.00417873
0.00477599
0.00418982
0.00479653
0.00420114
0.00361696
0.00324152
0.00374745
0.00333936
0.00379833
0.00337593
0.00382446
0.00339386
0.00384318
0.00340536
0.00386224
0.00341614
0.00285306
0.00261377
0.00298829
0.00272307
0.00303826
0.00276025
0.00306251
0.00277737
0.00307876
0.00278687
0.0030942
0.00279383
0.00224139
0.00212892
0.00237632
0.00224105
0.00242564
0.00227634
0.00244963
0.00229182
0.00246523
0.00229967
0.00247978
0.00230429
0.00179232
0.00171738
0.0019284
0.00183481
0.00197612
0.00187123
0.00199975
0.00188671
0.00201483
0.00189443
0.00202847
0.00189891
0.00148019
0.00138196
0.00160968
0.00149741
0.00165576
0.0015352
0.00167944
0.00155268
0.00169514
0.00156234
0.00170969
0.00156931
0.00128805
0.0011319
0.00141632
0.00123937
0.00146478
0.0012765
0.00149008
0.0012945
0.00150671
0.00130471
0.00152175
0.00131226
0.00114318
0.000955744
0.00126214
0.00105214
0.00130941
0.00108707
0.00133438
0.00110429
0.00135058
0.00111406
0.00136475
0.00112096
0.00102899
0.000825232
0.00113476
0.000909538
0.00117822
0.000941364
0.0012013
0.000956992
0.00121596
0.000965386
0.00122849
0.000970629
0.000947323
0.000725408
0.00103847
0.000796656
0.0010759
0.000823993
0.00109518
0.000836876
0.00110659
0.000842939
0.00111578
0.000845711
0.000843107
0.000611117
0.000928233
0.00067777
0.000959309
0.0007004
0.00097389
0.000710161
0.00098182
0.000714218
0.000987267
0.000714894
0.000643342
0.00043877
0.000721269
0.000499161
0.000751747
0.000521724
0.000766501
0.000532085
0.000774908
0.00053726
0.000781114
0.00053976
0.000422432
0.000267377
0.000484398
0.000312498
0.000511747
0.000332423
0.000525989
0.000342643
0.000534899
0.000348811
0.000542377
0.000353503
0.000236714
0.000134143
0.000277749
0.000160006
0.00029877
0.000174152
0.00031079
0.000182455
0.000319035
0.000188276
0.00032665
0.000193725
0.000106794
5.09154e-05
0.000128169
6.10982e-05
0.000140975
6.80781e-05
0.000149227
7.29604e-05
0.000155441
7.69267e-05
0.000161623
8.11872e-05
3.38002e-05
1.24483e-05
4.15837e-05
1.48388e-05
4.68402e-05
1.67371e-05
5.07534e-05
1.83271e-05
5.41189e-05
1.98448e-05
5.77986e-05
2.17099e-05
5.91592e-06
1.68238e-06
7.52057e-06
1.98631e-06
8.68162e-06
2.24062e-06
9.65327e-06
2.47311e-06
1.0596e-05
2.71615e-06
1.17339e-05
3.04324e-06
4.71156e-07
1.20918e-07
6.06483e-07
1.42372e-07
7.08681e-07
1.60501e-07
7.99525e-07
1.77175e-07
8.91159e-07
1.94576e-07
1.00517e-06
2.18245e-07
1.44455e-08
3.52265e-09
1.8629e-08
4.13621e-09
2.17687e-08
4.66273e-09
2.45157e-08
5.14287e-09
2.71653e-08
5.63208e-09
3.03372e-08
6.28867e-09
2.8746e-10
1.47892e-10
2.93207e-10
1.35677e-10
3.08945e-10
1.34927e-10
3.26281e-10
1.37156e-10
3.43667e-10
1.401e-10
3.58502e-10
1.41766e-10
4.34675e-07
2.96445e-07
4.16461e-07
2.85128e-07
3.91984e-07
2.69675e-07
3.57538e-07
2.47636e-07
3.07334e-07
2.15456e-07
2.35864e-07
1.69345e-07
1.35538e-07
1.02909e-07
3.82733e-05
2.94387e-05
3.71122e-05
2.85207e-05
3.55283e-05
2.72846e-05
3.31984e-05
2.55064e-05
2.9661e-05
2.28406e-05
2.42546e-05
1.88124e-05
1.55573e-05
1.23684e-05
0.000227482
0.000192008
0.000222765
0.000188031
0.000216482
0.000182712
0.000207436
0.000175071
0.000193486
0.00016341
0.000170586
0.000144948
0.000129787
0.000112423
0.000572201
0.000495203
0.000562146
0.000486701
0.000548842
0.000475416
0.000529836
0.000459251
0.000500697
0.000434575
0.000453026
0.000395266
0.000365698
0.000325218
0.00106568
0.000926379
0.00104878
0.000912127
0.00102627
0.000893182
0.000993894
0.000865972
0.000944113
0.000824376
0.000863099
0.000757962
0.00071531
0.000640488
0.00171642
0.00148441
0.00169166
0.00146378
0.00165818
0.001436
0.00160929
0.00139565
0.0015332
0.00133344
0.001409
0.00123405
0.00118468
0.00105982
0.00253231
0.00216536
0.00249919
0.00213834
0.00245355
0.0021013
0.00238576
0.00204669
0.00227846
0.00196149
0.00210126
0.00182449
0.00178319
0.00158694
0.00350967
0.00295462
0.00346827
0.00292174
0.00341009
0.00287571
0.00332221
0.00280686
0.00318081
0.00269836
0.00294361
0.00252276
0.0025176
0.00222099
0.00461761
0.00381687
0.00456899
0.00377931
0.00449917
0.00372551
0.00439197
0.00364395
0.00421692
0.00351459
0.00391863
0.00330494
0.00337993
0.00294858
0.00578025
0.00469077
0.00572702
0.00465052
0.00564869
0.00459132
0.00552632
0.00450041
0.00532367
0.00435576
0.00497318
0.00412259
0.00433512
0.00373362
0.00687332
0.00549964
0.00681953
0.00545897
0.0067382
0.0053975
0.00660883
0.005302
0.00639153
0.0051502
0.00601032
0.00490871
0.00531007
0.00451802
0.0077271
0.00614781
0.00767885
0.00611021
0.0076034
0.00605146
0.00748072
0.00595912
0.00727096
0.00581289
0.00689628
0.00558519
0.00619822
0.00523296
0.00813726
0.0065175
0.00810232
0.00648727
0.00804487
0.00643801
0.00794815
0.00635957
0.0077778
0.00623646
0.00746346
0.00605163
0.00685826
0.00578544
0.00793569
0.00649054
0.00792061
0.00647236
0.00789246
0.00644076
0.00784099
0.00638973
0.00774331
0.00631183
0.00754718
0.00620507
0.00713589
0.00607362
0.00708228
0.00597694
0.00708745
0.00597393
0.00709185
0.00596668
0.00709383
0.00595537
0.00708643
0.00594388
0.00704586
0.0059496
0.00690551
0.00599641
0.00591826
0.00511996
0.00593694
0.00513159
0.00596421
0.00514855
0.00600556
0.00517727
0.00606848
0.00523316
0.00615759
0.00535264
0.00624347
0.00556701
0.00482049
0.00421881
0.00484302
0.00423767
0.00487805
0.00426757
0.00493491
0.00431968
0.00503049
0.00441912
0.00519263
0.00461928
0.00542361
0.00495835
0.00388512
0.00343336
0.00390587
0.00345038
0.00393819
0.00347728
0.00399217
0.00352607
0.00408989
0.00362718
0.00427743
0.00385432
0.0045821
0.00426582
0.00310964
0.00280305
0.00312989
0.00281613
0.00315725
0.00283312
0.00319942
0.00286316
0.00327699
0.00293316
0.00344561
0.00312122
0.00377105
0.00353793
0.00249491
0.00231061
0.00251135
0.00231687
0.00253098
0.00232241
0.00255613
0.00233182
0.00260156
0.00236249
0.00272235
0.00247749
0.00302875
0.00283427
0.00204197
0.00190411
0.00205483
0.00190763
0.00206724
0.00190818
0.00207774
0.00190711
0.00209409
0.00191294
0.00215751
0.00196628
0.0024053
0.00222339
0.00172466
0.00157788
0.00173357
0.00157891
0.00174007
0.00157614
0.001742
0.00156893
0.00174535
0.00156022
0.00177693
0.00157734
0.0019781
0.00175398
0.00153562
0.00131957
0.00154515
0.00132121
0.00155427
0.00131885
0.00156252
0.00131041
0.00157435
0.00129728
0.00161784
0.0013042
0.00179028
0.00144415
0.00137763
0.00112673
0.00138775
0.00112828
0.00139917
0.00112595
0.00141433
0.0011186
0.00143976
0.00110861
0.00149699
0.00111862
0.00166073
0.00124381
0.00124049
0.000974675
0.00125127
0.000975348
0.0012648
0.00097193
0.00128425
0.00096329
0.00131666
0.000952543
0.00138091
0.000963931
0.00152932
0.00108126
0.00112553
0.000847491
0.00113495
0.000846246
0.00114714
0.000840177
0.00116478
0.000827946
0.00119352
0.000813547
0.001247
0.000822505
0.00135317
0.000921355
0.000993766
0.000714603
0.000999921
0.000711343
0.00100751
0.000702658
0.00101861
0.000687651
0.00103748
0.000671803
0.00107153
0.000678902
0.00113048
0.000753518
0.000788197
0.000540964
0.000795553
0.00053995
0.000804959
0.000535073
0.000817582
0.000525943
0.000834179
0.000517411
0.000854659
0.000525735
0.000881557
0.000576232
0.000550717
0.000357083
0.000560175
0.000359572
0.000572933
0.000360732
0.000589076
0.000360466
0.000605953
0.000361031
0.000618424
0.000368607
0.000623768
0.000395921
0.00033515
0.000198586
0.000345329
0.0002035
0.000359356
0.000209246
0.000376874
0.00021574
0.000393844
0.000222095
0.000401826
0.000227798
0.000396902
0.000240802
0.000168593
8.53792e-05
0.000177484
9.0402e-05
0.00019037
9.72834e-05
0.000206781
0.00010582
0.000222009
0.000113302
0.000228076
0.000117867
0.000221753
0.000123775
6.20211e-05
2.37291e-05
6.79952e-05
2.65761e-05
7.70496e-05
3.09534e-05
8.88427e-05
3.66572e-05
9.96002e-05
4.19964e-05
0.000103681
4.46953e-05
9.89819e-05
4.68463e-05
1.31079e-05
3.43533e-06
1.53334e-05
4.06874e-06
1.9047e-05
5.18378e-06
2.42437e-05
6.90584e-06
2.90744e-05
8.66813e-06
3.09127e-05
9.5278e-06
2.87547e-05
1.00251e-05
1.15649e-06
2.48401e-07
1.42257e-06
2.98632e-07
1.91939e-06
3.91645e-07
2.69415e-06
5.50964e-07
3.45106e-06
7.28374e-07
3.7197e-06
8.10708e-07
3.30948e-06
8.4719e-07
3.49992e-08
7.14747e-09
4.31874e-08
8.57211e-09
5.89681e-08
1.1232e-08
8.42579e-08
1.58324e-08
1.08494e-07
2.10684e-08
1.15476e-07
2.33467e-08
9.9861e-08
2.41175e-08
3.80088e-10
1.42574e-10
4.27542e-10
1.4868e-10
5.28151e-10
1.63883e-10
7.1296e-10
1.95261e-10
9.47511e-10
2.37927e-10
1.10279e-09
2.61516e-10
1.00044e-09
2.5184e-10
8.62331e-08
6.85919e-08
4.56553e-08
3.83853e-08
1.85911e-08
1.64591e-08
5.37738e-09
4.96191e-09
1.04427e-05
8.52581e-06
5.67847e-06
4.80267e-06
2.17325e-06
1.88335e-06
6.01119e-07
5.31576e-07
0.000101372
8.9445e-05
7.02332e-05
6.33335e-05
3.83461e-05
3.48646e-05
1.54751e-05
1.40486e-05
0.000301457
0.000273063
0.000230532
0.000213221
0.000150285
0.000140443
8.13836e-05
7.61729e-05
0.00060333
0.000550862
0.000482334
0.000449873
0.000340535
0.00032153
0.000211176
0.000200348
0.00101185
0.000924453
0.000829206
0.000774764
0.000611391
0.000579209
0.000406829
0.000387986
0.00153597
0.00139908
0.00128002
0.00119444
0.000971362
0.000920549
0.000675487
0.000645201
0.00218389
0.0019782
0.00184465
0.00171572
0.00143192
0.00135508
0.00102848
0.000981956
0.00295282
0.00265525
0.00252655
0.00233937
0.00200262
0.00189041
0.00147894
0.0014097
0.00381729
0.00340241
0.00330695
0.00304415
0.00267073
0.0025123
0.00201701
0.00191804
0.00472169
0.00417055
0.00414609
0.00379174
0.00341459
0.00319871
0.00263579
0.0024996
0.00558399
0.00490084
0.00498566
0.00453514
0.0042056
0.00392475
0.00333506
0.00315442
0.00628417
0.00550487
0.00572156
0.00518858
0.00496176
0.00461669
0.0040593
0.00383047
0.00668758
0.00588604
0.00623718
0.00566116
0.00558202
0.00519009
0.00473167
0.00446127
0.00665985
0.00593849
0.00639033
0.00583971
0.00592637
0.00552729
0.00523502
0.00494382
0.00619386
0.00563802
0.00610518
0.00566033
0.00586465
0.00551735
0.00540698
0.00513172
0.00551376
0.00513848
0.00556144
0.00526064
0.00551985
0.00525591
0.00530176
0.00506767
0.00477067
0.0045379
0.00491669
0.00474551
0.0050111
0.00484729
0.00501758
0.00482536
0.0040374
0.00388665
0.0042628
0.0041706
0.00447835
0.0043667
0.00466285
0.0044999
0.00335047
0.00321798
0.00367029
0.00358345
0.00404256
0.00390408
0.00432356
0.0041653
0.00274351
0.00259356
0.00317996
0.00303133
0.00365538
0.00348643
0.00397941
0.00381619
0.00230851
0.00208232
0.00278831
0.00256282
0.0032913
0.00307664
0.00359853
0.00342025
0.0020815
0.00174522
0.00251233
0.00220665
0.00293347
0.00268014
0.00315865
0.00297479
0.00191508
0.00151474
0.0022575
0.00191433
0.00254936
0.002289
0.0026824
0.00250962
0.00172499
0.0013108
0.00195993
0.00162403
0.00212506
0.00188428
0.00218726
0.00203638
0.00147575
0.00109525
0.00161352
0.00131839
0.00168576
0.00148058
0.00170788
0.00158304
0.0011936
0.000873932
0.00126331
0.00102228
0.00127982
0.00111443
0.00128023
0.00118035
0.00090617
0.000652497
0.000933418
0.000744803
0.000920999
0.000792062
0.000910581
0.000832645
0.000626634
0.000438722
0.000633354
0.000493786
0.000613894
0.000518145
0.000603984
0.000545439
0.000391575
0.000263646
0.000391508
0.000295967
0.00037557
0.000309549
0.00036924
0.000327829
0.000215633
0.00013532
0.00021386
0.000153313
0.000203212
0.000161076
0.000199291
0.000172211
9.46772e-05
5.17059e-05
9.32021e-05
6.03858e-05
8.7478e-05
6.44731e-05
8.53247e-05
7.02152e-05
2.68412e-05
1.13189e-05
2.60346e-05
1.39522e-05
2.37776e-05
1.52805e-05
2.26964e-05
1.70256e-05
2.9825e-06
9.68563e-07
2.82588e-06
1.2359e-06
2.49084e-06
1.38141e-06
2.28894e-06
1.54871e-06
8.84961e-08
2.7425e-08
8.25633e-08
3.47264e-08
7.21809e-08
3.88964e-08
6.49249e-08
4.32443e-08
9.01889e-10
2.73643e-10
7.46023e-10
2.69158e-10
7.84784e-10
3.94858e-10
3.24309e-10
3.91702e-10
1.54578e-09
1.91634e-09
3.08261e-09
2.64663e-09
1.84787e-10
1.1682e-10
1.66826e-07
1.87904e-07
7.9765e-08
7.94347e-08
7.43644e-09
6.55957e-09
5.14504e-06
5.73751e-06
2.46041e-06
2.43451e-06
2.23167e-07
1.94969e-07
3.9282e-05
4.28568e-05
2.18439e-05
2.14516e-05
2.12336e-06
1.81993e-06
0.000124106
0.000133668
7.89412e-05
7.69451e-05
9.05135e-06
7.63384e-06
0.000262863
0.00028124
0.000177214
0.000170863
2.42641e-05
2.03234e-05
0.000457596
0.000486662
0.00031008
0.000294608
5.01087e-05
4.21819e-05
0.00070743
0.000743584
0.000464947
0.000433461
8.81135e-05
7.50457e-05
0.000997006
0.00103362
0.000623052
0.000567407
0.0001402
0.000120827
0.00129338
0.00131846
0.00076301
0.000676273
0.000210748
0.000184796
0.00155556
0.00155027
0.000874111
0.000752237
0.000305981
0.000275171
0.0017302
0.00167345
0.000957777
0.0008095
0.000435967
0.000404193
0.00176649
0.00165256
0.00102688
0.000885966
0.000620313
0.000588013
0.00168396
0.00154056
0.00113861
0.00102782
0.00088016
0.000847441
0.00160655
0.00148446
0.00134519
0.00126986
0.00123543
0.00120641
0.00169893
0.0016192
0.00162907
0.00158195
0.0016163
0.00159302
0.00189048
0.00183928
0.00192575
0.00190185
0.00199591
0.00198394
0.00208728
0.00205791
0.0022006
0.00219125
0.00234873
0.00235152
0.00224405
0.00223002
0.00241611
0.00241447
0.00264239
0.00265188
0.00232663
0.00231992
0.00253315
0.00252814
0.00283814
0.00283725
0.00230037
0.00229159
0.0025087
0.00248918
0.00290221
0.00286981
0.00213421
0.00211695
0.00230951
0.00227457
0.00280531
0.00272752
0.00184132
0.00181591
0.00196581
0.00192503
0.0025455
0.0024264
0.00151208
0.00148273
0.0015932
0.00155591
0.00219531
0.00205462
0.00119196
0.00116261
0.00124322
0.0012132
0.00180439
0.00166227
0.000905854
0.000879101
0.000938064
0.000914686
0.00141045
0.00128074
0.000662662
0.000639736
0.00068327
0.000663877
0.00104285
0.000932737
0.000461074
0.000442515
0.000475306
0.000457848
0.000721129
0.000632681
0.000300481
0.000286424
0.000310864
0.000294715
0.000456463
0.000388438
0.000178006
0.000168171
0.000185889
0.000171951
0.000253259
0.000205536
8.97935e-05
8.3794e-05
9.63125e-05
8.65807e-05
0.000114485
8.83347e-05
3.35499e-05
3.08556e-05
3.8564e-05
3.39425e-05
3.86372e-05
2.74416e-05
7.07094e-06
6.56393e-06
9.52419e-06
8.61812e-06
8.1808e-06
5.82831e-06
6.13162e-07
5.83514e-07
9.37511e-07
8.74564e-07
8.50237e-07
6.19057e-07
1.91739e-08
1.86088e-08
2.93176e-08
2.7191e-08
3.20892e-08
2.42983e-08
1.79637e-09
1.9254e-09
1.83851e-09
1.231e-09
5.25861e-09
4.94783e-09
5.97922e-09
9.92917e-09
1.31158e-08
1.03342e-08
8.9813e-09
7.71786e-09
2.23062e-08
4.19531e-08
4.46222e-08
3.59626e-08
3.18125e-08
2.83268e-08
5.14649e-07
1.54935e-06
1.67619e-06
1.52383e-06
1.33738e-06
1.24451e-06
2.81242e-06
6.03014e-06
5.80125e-06
5.16562e-06
4.62496e-06
4.30084e-06
1.36602e-05
3.06332e-05
3.26544e-05
3.03881e-05
2.77352e-05
2.62583e-05
4.53119e-05
7.41448e-05
7.26407e-05
6.79063e-05
6.36876e-05