/*--------------------------------*- C++ -*----------------------------------*\
| =========                 |                                                 |
| \\      /  F ield         | OpenFOAM: The Open Source CFD Toolbox           |
|  \\    /   O peration     | Version:  2206                                  |
|   \\  /    A nd           | Website:  www.openfoam.com                      |
|    \\/     M anipulation  |                                                 |
\*---------------------------------------------------------------------------*/
FoamFile
{
    version     2.0;
    format      ascii;
    arch        "LSB;label=32;scalar=64";
    class       volScalarField;
    location    "500";
    object      omega;
}
// * * * * * * * * * * * * * * * * * * * * * * * * * * * * * * * * * * * * * //

dimensions      [0 0 -1 0 0 0 0];

internalField   nonuniform List<scalar> 
50904
(
4.99651e+06
4.89696e+06
4.95807e+06
4.8295e+06
736896
721741
733143
714939
201922
196354
217833
209663
88193.8
84949.3
105084
99728.5
51093
49017.3
64567.9
60881.4
34083.3
32694.6
44640.7
41998.1
24518.3
23565
32965.7
31009.5
18506
17836.1
25439.7
23955.3
14473.6
13984.5
20309.4
19151.1
11685.8
11312.3
16726
15797.8
9691.86
9382.26
14171.7
13385.8
8233.13
7945.04
12352.1
11623.4
7216.84
6910.05
11243.6
10473
6609.87
6229.91
11035
10018.3
5952.83
5578.47
10293.1
9188.42
4835.71
4551.89
8665.63
7732.91
3795.22
3602.44
6781.75
6120.53
3172.37
3015.55
5114.96
4676.37
2866.39
2732.44
3959.4
3582.21
2714.25
2614.61
3206.3
2980.46
2685.89
2609.7
2895.17
2735.05
2782.76
2726.38
2825.5
2715.67
3041.35
2997.6
2990.03
2899.41
3441.42
3402.8
3321.37
3236.03
3993.67
3958.84
3815.67
3728.6
4737.47
4704.09
4502.1
4408.03
5746.64
5714.6
5450.59
5347.33
7195.62
7167.9
6840.88
6726.5
9419.37
9394.97
9025.14
8891.49
13170.9
13127.4
12790.8
12607.3
20482.6
20322.5
20271.8
19921.6
37427.4
36839
37661.2
36783.3
81514.8
80175.4
81961.2
80179.2
213208
211839
214148
211984
773076
772025
778874
775256
5.15784e+06
5.15398e+06
5.20151e+06
5.1815e+06
4.90764e+06
4.74855e+06
4.86852e+06
4.698e+06
4.85776e+06
4.68476e+06
4.85349e+06
4.67968e+06
4.85213e+06
4.67817e+06
4.85226e+06
4.6786e+06
4.85321e+06
4.68021e+06
735971
707292
755502
718023
770446
728986
779619
736182
785319
740827
789075
744002
791713
746356
243733
228634
270811
250541
285876
263603
294487
271212
299734
275899
303171
278988
305567
281179
128044
118456
149015
136354
160420
146615
167056
152675
171175
156470
173910
159011
175834
160825
82586.2
76055
98746.9
90186
107583
98350.6
112863
103308
116190
106463
118411
108590
119979
110113
58947.1
54261.8
72023.8
65949.4
79209.2
72784.9
83597.5
77034.6
86382.4
79764.3
88242.1
81607.8
89553.5
82924.3
44642.4
41163.3
55773.6
51348.5
61898.6
57368.1
65691.2
61175.3
68102.1
63629.1
69707.3
65281.2
70835.4
66456.2
35239
32590.5
45137.5
41872.8
50583.7
47413.6
53980.9
50954.5
56136.7
53235.1
57564.8
54763.7
58562.9
55845
28753.2
26681.4
37869.5
35439.3
42887.9
40716.8
46033.7
44113.7
48025.4
46299.1
49338
47757.1
50249.2
48782
24195.7
22525.2
32814.9
30975
37576.7
36122.3
40575.9
39456.3
42471.3
41598.3
43713.6
43019.8
44568.5
44010.9
20964.7
19524.2
29278.2
27767.4
33894.8
32850.8
36819.2
36163.6
38666.6
38288.8
39870.2
39690.2
40689.3
40656.7
18725.3
17324.4
26863.6
25306.9
31381.4
30311.1
34240.8
33594.5
36050.8
35699.2
37225.8
37077.2
38015.2
38015.1
17551.3
15940.4
25755.2
23326.4
30231.7
28140.6
32796.2
31307
34371.5
33333.8
35411
34650.7
36132.1
35533.2
17453.9
14888.5
24745.3
21243
28796
25656.1
31184.1
28604.9
32647.8
30498.1
33591.8
31719.8
34236.3
32525.9
16464.5
13482.3
22953.4
18603.1
26718.1
22495.4
28923.1
25147.7
30243.2
26861.1
31064.5
27961.7
31606.1
28678
14485
11787.9
20490.2
15995.2
24071.3
19414.3
26130
21768.2
27318.1
23297.4
28023.4
24281.4
28461.7
24915
12046.5
10000.4
17724.2
14033.9
21309.5
17193
23348.3
19282.5
24484.6
20596.9
25126.7
21424.4
25499.6
21960.4
9473.48
8102.2
14829.9
12321.7
18565.9
15490.2
20724.1
17439.5
21907.5
18590.2
22553.8
19278.7
22906.2
19707.6
7176.01
6295.51
12094.9
10469.7
16023
13836.8
18404.1
15855.3
19721.9
16976.2
20438.8
17606.9
20819.7
17973.4
5417.59
4837.73
9644.55
8600.31
13664.1
12109.1
16316.7
14318.6
17834
15536.9
18676.4
16200.9
19135.9
16566.8
4255.35
3773.37
7594.68
6922.17
11395
10314.5
14222
12690.9
15937.4
14057.3
16925.3
14814.4
17488.6
15232
3517.36
3254.62
6037.63
5581.71
9209.7
8541.31
11866.7
10927.7
13589.5
12411
14615.6
13265.2
15217.9
13750.2
3339.98
3158.49
5028.13
4675.4
7424.72
6991.89
9612.16
9120.03
11116.1
10564.9
12034.7
11434.8
12578.1
11942
3441.4
3288.23
4367.58
4085.16
6200.85
5861.55
7895.82
7570.68
9126.16
8820.58
9900.38
9603.25
10363.4
10067.1
3800.98
3659.02
4255.1
4013.96
5412
5079.08
6709.65
6420.72
7666.79
7410.5
8286.54
8050.01
8661.73
8432.51
4398.09
4255.29
4571.92
4367.52
5097.91
4829.63
5922.3
5628.04
6645.05
6370.07
7096.54
6825.11
7366.13
7092.76
5279.8
5127.49
5319.1
5121.55
5528.96
5309.23
5852.9
5651.27
6186.39
6025.39
6456.17
6333.04
6646.17
6549.33
6611.18
6440.98
6583.04
6370.93
6663.84
6440.97
6812.59
6616.72
6990.94
6843.17
7160.79
7056.76
7293.6
7219.23
8744.49
8542.54
8682.37
8433.67
8709.58
8454.37
8780.87
8553.91
8877.69
8699.8
8984.51
8852.42
9078.67
8977.26
12482.3
12218
12410.3
12095.5
12424.5
12119.4
12467.1
12201.1
12520.9
12310.5
12583.7
12425.4
12646
12522.7
19992.6
19554.5
19922
19430.4
19945.4
19515.3
19987.6
19637.7
20024.3
19756.3
20058.6
19859.1
20094.3
19940.3
37436.5
36455.8
37244
36171.9
37220.4
36314.6
37255
36506
37285.8
36667.8
37304.9
36778.7
37320.2
36848
81393.1
79451.4
80601.2
78496.4
80352.8
78440.6
80312.8
78599.6
80314.6
78755.9
80327.5
78867.4
80323.9
78897.4
213043
210234
211017
207502
210250
206618
209983
206415
209859
206380
209824
206377
209747
206267
776899
770141
770283
760098
767423
755685
766060
753661
765295
752594
764889
751973
764370
751277
5.19309e+06
5.15127e+06
5.14999e+06
5.08387e+06
5.13051e+06
5.05305e+06
5.12026e+06
5.03704e+06
5.11434e+06
5.02804e+06
5.11039e+06
5.02239e+06
5.10725e+06
5.01826e+06
4.85372e+06
4.68121e+06
4.85333e+06
4.68108e+06
4.85281e+06
4.68081e+06
4.85188e+06
4.68017e+06
4.85003e+06
4.67875e+06
4.84638e+06
4.67575e+06
793780
748131
795098
749277
795786
749883
795796
749908
794665
749022
792119
747814
307441
282876
308727
284047
309438
284680
309698
284893
309278
284485
307783
283344
177352
162237
178424
163236
179043
163800
179383
164096
179394
164084
178812
163588
121220
111308
122110
112162
122643
112663
122991
112984
123197
113173
123203
113214
90591.6
83962.5
91341.8
84709.3
91802.5
85162.2
92134.4
85489.7
92421.5
85785
92776.1
86195.3
71724.3
67385.2
72369.6
68056.6
72772.8
68475
73080.6
68803.3
73395.1
69161.5
73937.4
69823.8
59344.2
56701.5
59910.9
57321.1
60268.5
57715.9
60550.7
58043.9
60865.1
58441.7
61491.7
59271
50957.4
49594.8
51469.5
50183
51794.4
50564.6
52055.8
50895.1
52360.9
51322.5
53014.3
52266
45226.4
44795.3
45701.5
45364
46003
45737.6
46247.3
46070.4
46538.7
46517.8
47186.1
47533.8
41313.8
41418.5
41763.1
41971.4
42047
42337.3
42275.6
42668.4
42547.9
43122.4
43163.6
44167.7
38610.1
38747.9
39036.3
39280.7
39301.6
39633.8
39509.6
39954.9
39749.4
40397.8
40295.7
41421.6
36680
36212.4
37070.6
36708.5
37305.5
37035.5
37476.1
37329.9
37653
37732.3
38061.9
38661.9
34726
33140
35069.4
33581.8
35267.4
33871.2
35396.4
34128.3
35506
34474.6
35765.8
35269.7
32013
29208.2
32301.8
29587
32462.1
29833.3
32553.4
30047.7
32607.2
30329.4
32746.5
30967
28779.6
25370
29016.9
25697.1
29145.1
25905.6
29206.9
26078.5
29221.1
26292.6
29281.8
26766.8
25750.9
22348.4
25946.1
22632.1
26051.3
22808.7
26093
22946.7
26082.6
23105.7
26101.5
23458.9
23126.6
20022.2
23296.7
20265.7
23390.8
20413.9
23425
20520.1
23408.5
20630.1
23427.9
20886.9
21054.7
18233.6
21220.8
18443.3
21316.2
18573.3
21359.6
18659
21363.7
18737
21446.3
18936.6
19425.7
16809
19619.7
16997.6
19736.4
17117.5
19817.6
17197.7
19896.2
17268.7
20171.3
17467.2
17867.9
15504
18138.3
15696.9
18308
15820.7
18445.3
15921.5
18633.3
16037.6
19113.3
16363.7
15632.3
14070.4
15951.2
14300
16177.8
14442
16391.3
14564.7
16698
14753.2
17366.5
15251.1
12965.2
12296.2
13274
12564
13507.6
12742.2
13745
12902.1
14102.1
13133.3
14831.5
13678.8
10702.4
10400.6
10980.4
10658.3
11199.9
10840
11433.3
11015
11795.3
11277.4
12513.4
11868.7
8940.16
8709.09
9173.25
8922.58
9362.67
9078.64
9570.49
9239.01
9900.95
9497.67
10550.8
10088.8
7563.17
7285.13
7729.19
7437.88
7867.49
7561.05
8026.3
7698.74
8293.92
7923.93
8845.99
8453.08
6800.34
6722.1
6941.16
6862.81
7064.85
6975.07
7207.1
7094.55
7438.01
7278.02
7882.97
7658.4
7405.64
7352.77
7511.55
7462.3
7606.18
7550.03
7715.35
7641.2
7894.19
7775.31
8242.58
8036.28
9162.34
9082.97
9243.76
9170.78
9316.17
9240.09
9397.08
9306.97
9528.7
9393.96
9796.08
9539.68
12705.6
12607.3
12764.5
12678.9
12813.9
12733.6
12861
12777.6
12928
12811.9
13084.3
12818.2
20134.1
20011.9
20169.8
20072.8
20188.4
20115.2
20178.6
20134.9
20111.7
20099.8
20009.9
19916.5
37349.5
36911.1
37365.8
36962.8
37348.6
36991.3
37258.4
36980.7
36972.7
36868.2
36385.6
36540.8
80352.1
78929.5
80359.4
78954.9
80319.6
78952.8
80187.8
78898.2
79856.3
78753
79223.6
78569.2
209731
206176
209780
206198
209810
206204
209837
206197
209948
206223
210215
206469
764090
750768
764682
751128
765395
751561
766255
752047
767572
752705
769707
753772
5.10501e+06
5.0149e+06
5.11074e+06
5.01884e+06
5.11571e+06
5.02197e+06
5.1212e+06
5.02503e+06
5.12978e+06
5.02939e+06
5.14277e+06
5.0351e+06
4.83953e+06
4.67183e+06
4.83408e+06
4.66832e+06
4.83216e+06
4.66576e+06
4.83097e+06
4.66425e+06
4.82979e+06
4.66286e+06
4.82817e+06
4.66102e+06
792681
749059
793541
750421
794238
750889
794709
750905
794683
750541
793683
749500
308337
284213
309899
285782
310974
286742
311535
287178
311642
287193
311174
286686
179443
164335
181005
165851
181996
166780
182485
167223
182623
167335
182406
167112
124028
114097
125583
115610
126467
116452
126888
116847
127025
116974
126906
116860
93822.3
87305.1
95370.4
88832.6
96168.1
89604
96536.9
89958
96665.9
90082.5
96593.4
90013.2
75170.4
71166.5
76704.4
72711.9
77436.1
73428.6
77768.1
73751
77890
73869.8
77843.3
73823.3
62850
60815.6
64360.1
62372.4
65040.8
63049.7
65345.3
63349.7
65460.4
63463.8
65428
63430.6
54430.4
53959.2
55906.5
55522.1
56548
56173
56832.3
56459
56942
56571.3
56918.2
56548.4
48607.5
49319.5
50039.7
50876
50648.5
51506.3
50916.1
51781.6
51019.3
51891.7
50997.4
51874.7
44545.9
45981.6
45922.4
47508.3
46500.6
48116.1
46751.9
48380
46846.1
48485.7
46819.3
48469.9
41586.3
43187.4
42885.4
44644.9
43429.2
45220.4
43661.8
45468.2
43743.1
45565.7
43704.6
45546.4
39179.9
40278.1
40356.6
41606.3
40851.3
42130.2
41057.1
42352.9
41118.7
42436.2
41060.2
42408.5
36667.5
36659.6
37681.7
37806.5
38113.5
38261.4
38286.6
38451.7
38325.7
38517.3
38246.5
38480.8
33448.6
32104.2
34298.8
33061.8
34669.2
33447.4
34813.1
33606.5
34835.5
33656.7
34746.1
33615.4
29850.6
27681.3
30590.4
28501.8
30921.7
28840.2
31049.3
28978.1
31065.4
29017
30977.9
28970.9
26607
24225.5
27300.9
24962
27620.2
25273.1
27745
25398.6
27762.4
25430
27681.4
25378.7
23942.7
21571
24659.9
22294.9
24996.9
22606.5
25133.2
22733.7
25159.2
22766.5
25087.4
22717.1
22100.4
19618.5
22891.7
20427.3
23248
20762.6
23404.4
20901.7
23442
20940.9
23376.3
20895.1
21114.9
18249.3
21998.9
19181.9
22349
19549
22510.2
19706.9
22555.1
19758.7
22490.5
19723.7
20217
17409.1
21283.3
18380.2
21648.7
18731.1
21816.5
18894.4
21871.2
18952.8
21815.1
18922.3
18722.2
16391.6
19983.6
17376.6
20417.1
17696
20602.4
17850.7
20674.6
17917.4
20648.2
17901.9
16145.6
14834.3
17274.4
15846.1
17675.1
16174.4
17851.9
16328.6
17937.9
16404.4
17953.6
16411.4
13735.6
13034.8
14740.6
14031.6
15112.5
14369.5
15287.2
14525.8
15383.6
14610.3
15427.7
14644.1
11639.3
11199
12528.7
12120.1
12874.4
12447.7
13046.5
12611.3
13149.9
12712
13212.8
12776.1
9814.32
9507.95
10637
10376.8
10980.7
10708
11166
10887.8
11287.8
11010.7
11378.1
11108
8644.88
8375.79
9367.46
9130.78
9739.29
9496.07
9951.89
9702.21
10095
9844.44
10217.6
9973.87
8849.74
8521.92
9441.56
9096.31
9773.42
9412.95
9973.27
9602.29
10114.1
9737.7
10242.6
9868.03
10291.9
9837.29
10772.4
10245.3
11070.4
10508.3
11260.3
10676
11399.2
10799.4
11530.7
10920.9
13464.2
12926.9
13832.1
13163.7
14093.2
13357.7
14274.4
13495.2
14413.2
13599
14549.2
13701.2
20142.2
19809.6
20343.8
19859.7
20527.7
19941.2
20677.6
20011.7
20804.5
20063.1
20935.1
20104.6
35947.1
36337.6
35845.8
36271.7
35852.2
36220.8
35890.5
36176.6
35925
36111.2
35951.4
35996.5
78407.5
78734.3
78003.5
78895.9
77773.8
78892.5
77589.7
78814.1
77390.9
78676.6
77108
78415.4
210384
207235
210633
207936
210692
208193
210457
208207
210014
208065
209286
207717
772531
755726
775148
757645
776495
758454
776867
758579
776670
758385
776091
757857
5.16249e+06
5.04592e+06
5.18041e+06
5.05639e+06
5.18627e+06
5.05946e+06
5.18875e+06
5.06049e+06
5.18947e+06
5.06031e+06
5.18915e+06
5.05931e+06
4.83419e+06
4.66772e+06
4.83254e+06
4.66633e+06
4.83169e+06
4.66565e+06
4.83269e+06
4.66671e+06
4.83742e+06
4.67142e+06
4.85102e+06
4.68513e+06
4.89329e+06
4.73212e+06
792969
749534
791294
748793
788721
747219
785281
744607
779857
740268
770556
732980
756496
724022
310400
286060
309058
285031
306855
283313
303232
280411
297100
275387
286772
266491
267382
250349
181931
166686
181046
165927
179554
164655
177002
162483
172489
158630
164429
151609
148956
138169
126583
116556
125958
115990
124888
115027
123038
113370
119696
110386
113498
104829
101272
93899.2
96346.1
89769.6
95861.1
89305.4
95030.4
88518.9
93595.6
87169.1
90992.3
84729.1
86057.4
80107.6
76083.4
70850.5
77642.7
73611.9
77240.8
73202.7
76552.3
72514.7
75367.9
71340.8
73227.6
69224.5
69142.4
65190.2
60747.2
57000.9
65252.2
63235
64899.8
62855.6
64295.9
62222
63261.1
61144.8
61403.9
59207.8
57871.5
55511.1
50575.3
47973
56755.2
56361.5
56432.7
55999.8
55878.6
55395.9
54930.2
54368.3
53236.3
52517.5
50037.6
48981.1
43474.8
41788.9
50838.7
51692.6
50530.2
51339.9
49999.4
50749.4
49091.2
49741.2
47476
47919.8
44452.4
44434.4
38349.5
37402.4
46655
48288.5
46346.9
47939.5
45817.1
47352.8
44912
46346.9
43310.8
44524.6
40345.4
41037.8
34506.8
34098.6
43527.6
45363.7
43207.6
45015.2
42659.8
44427.9
41727.6
43417.7
40090.4
41586.4
37101.4
38094.5
31410.3
31286.7
40861.7
42222.5
40517.8
41875.4
39935.1
41290.6
38951.3
40284.6
37244.2
38466.4
34191.3
35030.1
28630.6
28519.4
38029.5
38299.5
37661.6
37962.4
37040.4
37390.4
35996.9
36404.9
34208.3
34633.5
31091.6
31340.4
25796.8
25448.5
34526.9
33445.8
34153.4
33131.4
33520
32591.9
32454.3
31657.6
30645.2
29991
27577.9
26971.9
22763.4
21994.2
30778.9
28818.3
30424.1
28526.2
29809
28013.8
28764.6
27122.5
27008.5
25559.7
24124.3
22844.6
19957.3
18773.2
27505.7
25236.2
27172.2
24952
26576.3
24441.2
25554.8
23550
23855.4
22022.8
21162.8
19507.3
17599.8
16127.3
24929.8
22585.7
24617.8
22316.5
24035.2
21812
23021.7
20918.7
21344.2
19393.8
18769.1
16962.4
15653.4
14017.6
23215.6
20760.6
22916.4
20509
22342.3
20020.9
21343.2
19146.4
19692
17648
17154.6
15269.1
14155.6
12419.7
22327.6
19601.2
22019.4
19359
21448
18892.9
20493
18060.7
18916.7
16625.8
16381.2
14301.8
13155.5
11328.3
21662.5
18806.2
21369.7
18574.5
20841
18133.7
19987.8
17353.7
18575.7
16007.7
16180.4
13779
12642.1
10636.3
20550
17821.7
20297
17616.6
19842.4
17218.7
19110.7
16512.3
17850.4
15289.9
15672.5
13203.8
12109.1
10065.5
17908.5
16358.8
17735.6
16193.8
17376.3
15849.7
16741.6
15229.1
15645.8
14138.2
13738.4
12217.5
10893.6
9344.7
15411.1
14618.7
15298.5
14500.8
15028.9
14226
14504.7
13692.2
13571.2
12713.2
12035.2
11004.3
9891.27
8572.94
13219.9
12782.5
13155.1
12715.9
12970.3
12527.1
12592.5
12130.8
11910.7
11361.7
10791.9
9957.68
9254.3
7977.96
11423.3
11155.3
11418.6
11149.1
11343.4
11065.8
11155.7
10843.3
10785.8
10333.4
10126.3
9270.04
9167.82
7754.29
10311.6
10067.3
10381
10128.6
10437.1
10162.3
10465
10123.4
10419.6
9862.12
10196.2
9104.33
9734.28
8016.51
10359.4
9978.9
10470.4
10073.9
10609
10173.2
10787.9
10242.8
10996.8
10131.3
11136.1
9595.87
11052.4
8885.65
11666.5
11039.5
11813.4
11155
12025.9
11295.4
12350.8
11430
12819
11415.1
13311.8
11099.4
13598.4
10804.2
14707.3
13818.1
14898.8
13942.7
15208.3
14100.7
15720.1
14258.3
16488.8
14323.1
17375.4
14271
18075.2
14422
21108.7
20179.6
21346
20257.1
21749
20334.5
22448.4
20391.4
23553.6
20523.5
24885
20748.9
26080.2
21421.6
36041.9
35925.4
36190.2
35779
36517.6
35461.6
37256.5
35150.5
38669.4
35172.1
40582.5
35802
42668.9
37360.5
76909.2
78207.2
76633.7
77780.9
76366.6
76855.9
76576
75815.9
78018.6
75803.3
80793.9
77332.5
84896.1
80839.4
208924
207663
208426
207472
207774
206892
207725
206358
209910
207992
215491
212900
226040
222981
776846
759067
777693
760541
779376
762564
783141
766303
792126
775380
811052
794406
848150
832358
5.20405e+06
5.07344e+06
5.21659e+06
5.0864e+06
5.23544e+06
5.106e+06
5.2681e+06
5.13998e+06
5.32951e+06
5.20383e+06
5.45175e+06
5.33113e+06
5.69302e+06
5.58119e+06
4.93975e+06
4.79474e+06
5.01602e+06
4.89304e+06
5.13815e+06
5.05032e+06
5.31647e+06
5.25606e+06
751682
724891
753366
732433
766563
753238
793417
785102
254514
240791
240104
230112
226728
220890
220874
218148
138005
129271
124542
118213
109324
105492
96541.8
94591.8
92396.4
86375
81415
77049.1
68571.2
65896.8
56771.4
55332.7
68643
64314.6
59623.2
56461.1
49023.8
47079.4
39117.9
38059.1
54265.3
51087.6
46649
44285.5
37736.7
36276.3
29415.6
28618.2
44743
42415.4
38132.7
36341
30470.4
29351.3
23365.6
22755.9
38081.6
36410.6
32192.9
30828.8
25465.5
24595.9
19280.5
18810.5
33261.7
32109
27923.9
26889
21947.8
21261
16499.4
16126.8
29630
28865.4
24724.7
23942.1
19353.8
18805.2
14482.9
14181.2
26707.5
26176
22185
21571.4
17345.4
16892.3
12947.7
12695.2
24141.9
23684.1
20030.2
19501.5
15736
15336.1
11784.9
11557
21700.4
21163.2
18081.8
17548.6
14345.4
13950.9
10842.5
10614.3
19230.3
18488.1
16188.2
15562
13040
12596.2
10016.7
9754.69
16996.1
15998.8
14484
13699.3
11870.9
11327.8
9307.96
8980.9
15150
13911.3
13072.7
12092.4
10872.3
10213
8692.18
8283.52
13608.4
12192.2
11890.7
10726.8
10060.6
9245.79
8149.79
7663.07
12370.3
10829.7
10936.6
9620.09
9377.91
8439.52
7641.4
7086.83
11359.8
9749.79
10039.9
8654.88
8574.69
7641.15
7089.28
6486.87
10629.3
8922.51
9145.55
7787.33
7796.51
6834.3
6582.29
5916.51
9901.61
8210.04
8349.81
6987.31
7165.88
6151.92
6193.44
5470.44
9056.14
7550.31
7745.5
6415.21
6807.28
5755.64
6046.91
5269.7
8474.97
7047.93
7479.49
6138.13
6779.18
5677.18
6172.73
5337.65
8269.03
6805.57
7583.65
6168.45
7086.16
5907.51
6582.47
5675.97
8568.61
6947.8
8131.02
6568.65
7777.42
6485.73
7319.53
6323.26
9424.82
7535.03
9157.14
7374.95
8894.82
7448.57
8446.84
7338.33
10954.1
8694.22
10810.8
8736.12
10610.9
8962.31
10157.7
8904.79
13675.5
10900.6
13585.5
11108.8
13369.8
11450.6
12844.5
11402.5
18301.5
14796
18169.5
15129.3
17824.8
15528.4
17143.6
15452.2
26455.5
22078
26177.9
22464.1
25571.6
22818.8
24652.8
22656.9
43332
38355.9
42668.8
38448.6
41513.4
38409.6
40124.2
37865
86371
82450
84811
81248.9
82607.5
79978.9
80230.8
78205.9
230318
227479
225697
223097
220168
218378
214319
213356
862664
849202
843737
833658
821657
815394
799491
797388
5.78485e+06
5.6907e+06
5.65268e+06
5.5834e+06
5.50186e+06
5.46004e+06
5.34807e+06
5.33366e+06
4.92827e+06
4.99689e+06
4.89291e+06
4.93528e+06
4.82824e+06
4.84802e+06
741527
753452
728058
733169
734982
738798
202912
206134
189840
190504
212705
214518
80581.9
81345.9
65753.2
65880.3
89581.6
90755.8
42687.8
42749.1
30085.9
30184.5
48210.9
49047
26916.5
26715.6
17247
17376.3
30548.4
31122.5
18645.3
18362
11393.9
11566.9
21542.6
21917.1
13668.6
13434.5
8290.83
8506.81
16366.7
16629.3
10451.8
10281.9
6496.79
6761.84
13083.9
13415.1
8286.1
8185.76
5419.37
5747.71
10808.4
11213.3
6767.94
6739.84
4766.93
5176.74
9157.48
9576.24
5667.12
5721.38
4384.42
4860.49
7902.88
8266.94
4866.2
5010.54
4198.48
4644.29
6843.88
7152
4267.75
4484.23
4060.8
4417.67
5912.04
6153.74
3783.43
4010.52
3879.6
4138.8
5125.54
5312.5
3380.51
3573.01
3679.54
3864.07
4574.17
4707.9
3116.15
3273.58
3490.51
3618.95
4171.45
4259.97
2954.09
3077.18
3312.96
3406
3855.33
3914.95
2850.02
2947.08
3160.4
3235.02
3602.64
3649.13
2800.75
2880.27
3058.59
3127.89
3413.83
3464.6
2825.18
2894.53
3048.38
3123.42
3304.18
3378.1
2963.5
3023.96
3182.74
3268.11
3304.33
3418.02
3263.06
3320.1
3522.15
3617.5
3459.53
3622.69
3715.05
3771.9
4054.81
4154.48
3780.21
3993.38
4338.75
4395.5
4802.01
4891.73
4304.6
4562.88
5172.48
5231.55
5817.84
5883.53
5100.73
5398.21
6289.33
6354.43
7195.39
7217.56
6286.46
6615.01
7853.12
7931.19
9105.79
9083.55
8087.22
8452.25
10162.1
10261.4
11886.9
11855.3
10954.3
11399.3
13866.5
14001.6
16272.7
16371.2
15930.7
16584.9
20661.8
20866.7
24091.2
24725.5
25647.7
26544.1
35704.4
36180.3
40648.8
42839.4
46797.8
48392.9
76293.3
77585.5
80509.6
83623.9
96650.5
101708
206330
207497
202019
204169
233357
233576
762916
762898
749815
751041
766142
767696
5.10025e+06
5.09801e+06
5.03497e+06
5.04288e+06
4.96761e+06
4.98611e+06
4.92638e+06
4.95453e+06
4.97754e+06
4.99654e+06
5.01196e+06
5.0243e+06
4.92549e+06
4.94896e+06
4.96695e+06
4.98047e+06
4.99068e+06
4.99788e+06
734695
730715
736133
737639
740015
741200
735641
733793
741369
737782
738570
738159
198915
204195
207474
206232
205008
204085
218717
228422
231187
226398
223541
221640
81632.5
91902.6
94274
92758.8
90811.1
89643.5
105111
115055
116214
112589
109659
107881
45035.4
54325
56071.3
54792.5
53020.6
52034.9
64723.1
72669.5
73216.4
70502.5
68031.3
66576.8
29082.6
36705.4
38031.4
37002.3
35496.8
34705.2
44903.4
51189.4
51459.1
49357.6
47307.4
46123.3
20503.3
26665.4
27695.4
26840.4
25574.1
24937.1
33268.9
38335.5
38455.2
36775.1
35064.8
34089.2
15303.9
20278.9
21085.9
20369.6
19303.3
18790.9
25708
29880.6
29916.8
28545.3
27115.5
26307
11945.4
15948.4
16571.2
15966.8
15077.1
14669
20512
23996.6
23985.3
22850.8
21658.9
20990.8
9737.51
12903.1
13370.9
12861.3
12135.2
11818.9
16865.2
19772.1
19731.9
18789
17806.9
17264.2
8373.67
10722.6
11036
10601.5
10024.2
9787.65
14353.7
16693.1
16615.2
15827.4
15032.8
14605.8
7788.77
9175.64
9315.76
8928.76
8483.06
8313.7
12884.4
14469.1
14314.5
13651.6
13030
12714.5
7813.51
8178.04
8121.46
7757.38
7421.29
7305.01
12696
13027.3
12737.6
12190.1
11752.2
11562.6
7186.92
7751.37
7471.95
7103.11
6841.33
6745.96
12969.8
12520.7
12045.7
11635
11428.6
11378.5
6171.03
7704.82
7292.06
6732.26
6313.8
6122.45
12215.5
13057.7
12296.4
11537.5
11022.4
10769.9
5357.86
6839.43
6327.55
5674.28
5211.44
4979.68
10475.3
12530.8
11467.6
10339
9524.04
9097.11
4932.73
5783.01
5164.13
4555.79
4161.09
3932.43
8940.01
11331.7
9934.25
8556.58
7596.01
7111.44
4835.42
4978.19
4267.52
3712.09
3417.32
3280.45
8050.75
10091.3
8319.36
6771.31
5808.5
5359.76
4929.63
4530.81
3735.2
3254.08
3044.08
2951.4
7735.3
9339.92
7265.15
5519.61
4568.78
4182.03
5100.64
4307.35
3498.74
3068.02
2867.23
2778.82
7800.38
9088.26
6921.72
4917.91
3816.91
3384.48
5236.81
4147.76
3433.84
3025.53
2812.83
2732.87
7920.08
8900.99
6988.83
4843.03
3438.62
3035.16
5230.34
4038.24
3407.77
3052.18
2866.56
2807.32
7788.57
8230.85
6838.73
4876.53
3368.37
2952.75
5208.76
3965.52
3406.88
3148.12
3039.68
3029.12
7330.84
7028.5
6138.28
4629.07
3417.26
3069.04
5286.45
4057.6
3518.25
3354.42
3326.98
3379.63
6726.09
6011.18
5262.89
4227.01
3537.77
3340.31
5713.81
4341.49
3786.4
3714.41
3750.88
3873.13
6025.69
5737.29
5038.13
4244.63
3816.31
3766.58
6531.2
4812.07
4221.85
4257.49
4351.44
4546.99
5878.12
5922.67
5267.87
4618.7
4329.28
4389.68
7632.48
5510.57
4888.91
5057.95
5206.89
5476.04
6283.05
6496.16
5869.01
5329.51
5127.62
5279.68
9067.19
6564.32
5931.51
6275.42
6485.74
6833.38
7235.41
7536.5
6936.61
6502.21
6368.92
6611.15
11041.3
8238.53
7634.1
8215.21
8507.95
8943.75
8923.35
9280.55
8738.88
8439.25
8380.69
8729.95
14066.6
11172
10639.9
11550.7
11973.2
12528.8
11980.6
12319.1
11901.6
11830.9
11895.4
12415.1
19681.8
17122.3
16679.2
18062.2
18721.5
19546.2
18111.5
18306.9
18096.2
18534.9
18902
19794.2
32963.9
31637.1
31190.8
33228.4
34348.6
36044.2
32799.6
32196.1
32536.3
34225.9
35449.7
37056.2
71377.1
72240.6
71948.8
74607.2
76513.6
79525.3
73328.2
71418.2
72912.9
76331.7
78877.5
81434.5
197982
200045
201012
204177
207119
210965
200947
199435
202307
206491
210140
213596
737536
742757
748351
755089
762026
769372
740871
744788
752491
760648
768757
776732
4.93405e+06
4.97124e+06
5.01091e+06
5.05205e+06
5.09516e+06
5.13843e+06
4.94311e+06
4.99046e+06
5.03882e+06
5.08779e+06
5.13756e+06
5.18644e+06
4.92285e+06
4.93706e+06
4.9458e+06
4.95135e+06
4.95529e+06
4.95688e+06
4.92209e+06
4.93026e+06
4.93039e+06
4.92886e+06
4.92698e+06
4.92295e+06
4.92394e+06
4.93188e+06
4.92862e+06
4.92432e+06
4.9201e+06
4.91383e+06
4.92554e+06
4.934e+06
4.92913e+06
4.92343e+06
4.91792e+06
4.91041e+06
4.92695e+06
4.93578e+06
4.93018e+06
4.92384e+06
4.91765e+06
4.90948e+06
4.92847e+06
4.93741e+06
4.93146e+06
4.92484e+06
4.91832e+06
4.90981e+06
4.93016e+06
4.93909e+06
4.93289e+06
4.92614e+06
4.91947e+06
4.91083e+06
742590
752044
755410
750562
748931
746768
759943
785345
786359
778419
775231
771178
771669
808747
806627
798959
794346
788635
778263
820949
818064
811151
805851
799132
780778
827188
824779
818311
812775
805546
781541
830315
828659
822648
817139
809696
781972
831867
830915
825403
820054
812554
245502
260319
260957
256220
253240
250758
269217
293635
292852
286991
283746
280460
282820
313018
311118
304949
301151
296857
288804
322707
320889
315215
311062
306171
291066
327661
326386
321197
316978
311799
291848
330243
329635
324866
320729
315441
292214
331586
331548
327199
323225
317934
129900
140851
140926
137416
134842
132797
148252
165499
164708
160444
157750
155324
158620
179484
178251
173621
170622
167538
163028
186595
185638
181251
178077
174609
164822
190356
189876
185814
182621
178967
165591
192411
192424
188667
185546
181825
166012
193524
193947
190493
187502
183797
84746.5
92437
92359.2
89697.2
87574.9
85949.9
98700.1
110943
110331
107106
104950
103128
106601
121515
120733
117180
114788
112505
110026
127060
126586
123139
120640
118084
111542
130094
130021
126779
124267
121574
112285
131800
132099
129071
126614
123875
112720
132741
133346
130535
128182
125464
61179.1
66724.2
66595.2
64505.8
62745.5
61440
72224.5
81226.7
80784.4
78294.2
76581.6
75199.8
78542.7
89671.5
89181.5
86406.5
84491.5
82763.7
81390.3
94251.1
94051.3
91307.8
89305.4
87364.9
82743.7
96822.2
96953.7
94334.1
92313.5
90264.3
83456.9
98287.8
98710.5
96238.1
94256.7
92174.5
83886.4
99103.4
99764.2
97449.4
95550.8
93491.4
46796.7
50939.6
50777.7
49093.4
47620.4
46555.1
55939.3
62777.9
62470.3
60535.5
59188.8
58141.1
61260.5
69860.4
69562.1
67380.7
65854.3
64532.8
63772.3
73821.3
73780.5
71587.2
69973.8
68477.3
65032.1
76082.3
76314.8
74191.1
72553
70966.9
65722.6
77378.5
77845.2
75822.3
74211.9
72600.9
66142.9
78103.1
78760.6
76854.5
75310.8
73722.6
37185.8
40406.7
40229.6
38851.6
37619.8
36742.7
45089.2
50445.7
50246
48752.2
47717.3
46933.3
49803
56646.7
56478.9
54771.6
53574.4
52565.2
52133.4
60205.6
60258.4
58513.7
57226.6
56068
53349
62256.9
62535.6
60825.9
59508.7
58274.1
54029.8
63434.5
63905.2
62265.8
60967.4
59714
54444.6
64093.3
64720.8
63170.7
61927
60696
30403.8
33019.8
32840.9
31706.8
30686.1
29963
37527.1
41842.8
41726.4
40591.4
39826.6
39253.2
41907.7
47485.4
47401
46080
45165.6
44398.1
44169.3
50794.1
50892.6
49520.2
48514
47614.1
45383.9
52712.7
52998.3
51640.6
50600.6
49634.3
46072.4
53813.7
54259.6
52953.4
51926.2
50945.1
46490.3
54429.1
55007.2
53772.7
52791.5
51832.4
25476.2
27693.8
27524.7
26596.8
25771
25183.3
32142.6
35709
35657
34823.7
34300.3
33899.4
36391.4
41022.3
40987.4
39991.7
39328.2
38749.5
38674.6
44197.3
44308.1
43255.8
42499.3
41796.1
39929.3
46047
46312.2
45264.6
44471.8
43706.2
40645.5
47107.2
47507.9
46501.2
45717.4
44938.1
41077.1
47698.1
48212.6
47266.9
46522.9
45764.2
21901.8
23805.8
23643.8
22897.1
22258.8
21798.2
28325.2
31304.2
31294.6
30725
30429.6
30174.5
32587.2
36457.1
36440.3
35730.5
35300.9
34867.5
34966.1
39594.8
39687.3
38921.4
38396.3
37833.9
36300
41432.4
41651.1
40886.4
40322.1
39693.3
37064.8
42483.9
42818.5
42090.1
41531.4
40885.3
37521.3
43067.2
43501.4
42828.3
42304.7
41675.1
19471.5
20992.5
20812.5
20233.7
19789.1
19461.6
25780.8
28172.6
28173.4
27855
27804.7
27689.1
30131.8
33278.7
33241.9
32810.2
32630.6
32313.5
32650.4
36453.5
36487.7
35998.3
35710.4
35239.4
34092.3
38327.5
38461.2
37969.6
37632.3
37077.1
34922.9
39398.9
39631.5
39173.9
38834.9
38250.2
35413.5
39989
40310
39904.3
39594.2
39016.7
18400.6
19177.7
18948.5
18566.7
18371.5
18229.6
24633.3
26157.5
26157.2
26156.6
26485
26594
29019
31246.6
31185.7
31161.5
31419.1
31277.7
31615
34470.4
34428.9
34317.1
34389.7
34008
33134.3
36398.5
36415.5
36239.1
36188.8
35666.2
34019.2
37504.6
37597.4
37428.4
37333
36741
34539
38108.8
38276.5
38150.6
38065.4
37457.9
19354.7
18784.1
18415
18295
18417
18439.2
25893.9
25836.5
25821.8
26160
26675.5
26707.9
30177
30908.4
30873.5
31124.4
31450.3
31113
32537.1
33978.4
33873.3
33998.6
34156.3
33574.2
33842.8
35762.4
35609.9
35658.6
35718.4
34997.1
34575.8
36813.1
36642.8
36648.5
36658.6
35863.8
35028.3
37398.4
37267.1
37271.1
37261.6
36429.6
19845.2
20106.5
19114.2
18427
18122.9
17848.5
27539.8
27520.7
26518.7
26088
26050
25631.5
32238.1
32314.9
31257.6
30812.4
30696.6
29903.8
34626.2
35025.4
33958.9
33511.7
33335.3
32297.2
35850.5
36533.2
35470.8
35025.2
34815.3
33640.1
36494.3
37378.6
36324.7
35880.6
35654.1
34408.2
36863.5
37874.8
36819.5
36371.7
36136.7
34856.8
18613.6
20286.2
18549.1
17118.1
16274.9
15733.1
27421.9
28375.4
25960.1
24392.9
23683.5
22862
33036.1
33374.8
30708.8
29121.1
28466.5
27124.4
36097.3
36136.8
33456.6
31943
31336.5
29561.5
37749.2
37618.6
34978.1
33549.4
32984.3
30922.7
38643
38401.9
35800.2
34440.4
33912.1
31681.5
39124.8
38821
36229.7
34914.7
34417.2
32099.5
16736.6
19531.1
16976.4
14857
13583.3
12946.6
26055.6
28197.3
24293.4
21507.5
20191.1
19431.5
32120.1
33664
29191.9
26136.4
24922.2
23763.8
35440.1
36762.5
32143.6
29036.3
27919.7
26341.7
37220.9
38443
33823
30743.1
29692.2
27802
38178.2
39322.4
34744.3
31716
30712.6
28616.5
38685.5
39754
35220
32249.7
31284.6
29058.7
15323.9
18496.3
15071.4
12282.2
10666.6
10022.4
24646.6
27459.3
22161.9
18172.9
16315.4
15811.6
30802.9
33123.4
27060.4