/*--------------------------------*- C++ -*----------------------------------*\
| =========                 |                                                 |
| \\      /  F ield         | OpenFOAM: The Open Source CFD Toolbox           |
|  \\    /   O peration     | Version:  2206                                  |
|   \\  /    A nd           | Website:  www.openfoam.com                      |
|    \\/     M anipulation  |                                                 |
\*---------------------------------------------------------------------------*/
FoamFile
{
    version     2.0;
    format      ascii;
    arch        "LSB;label=32;scalar=64";
    class       volScalarField;
    location    "500";
    object      p;
}
// * * * * * * * * * * * * * * * * * * * * * * * * * * * * * * * * * * * * * //

dimensions      [0 2 -2 0 0 0 0];

internalField   nonuniform List<scalar> 
50904
(
-9.71654
-10.0565
-12.6205
-13.129
-9.77218
-10.1171
-12.5996
-13.1068
-9.8417
-10.1925
-12.5746
-13.0798
-9.91086
-10.2682
-12.5552
-13.0567
-9.97819
-10.3384
-12.5404
-13.0385
-10.0527
-10.4114
-12.5184
-13.0188
-10.1486
-10.5017
-12.4777
-12.9908
-10.2887
-10.6345
-12.4094
-12.9462
-10.5038
-10.8396
-12.3071
-12.88
-10.798
-11.1292
-12.1745
-12.7999
-11.1581
-11.5133
-12.0186
-12.7125
-11.4985
-11.9416
-11.8419
-12.6209
-11.702
-12.2933
-11.6462
-12.5172
-11.6925
-12.444
-11.4253
-12.3721
-11.4364
-12.3169
-11.1617
-12.1588
-11.0305
-11.9865
-10.8957
-11.8925
-10.5575
-11.5681
-10.6842
-11.6445
-10.0454
-11.0946
-10.5
-11.4317
-9.58662
-10.6514
-10.3585
-11.2701
-9.18862
-10.2596
-10.2447
-11.1438
-8.81497
-9.90151
-10.1506
-11.0415
-8.38585
-9.51559
-10.0234
-10.9112
-7.91769
-9.11244
-9.85767
-10.7624
-7.53103
-8.78937
-9.69741
-10.6296
-7.24413
-8.55564
-9.56054
-10.518
-7.03723
-8.39535
-9.44952
-10.4269
-6.89108
-8.28988
-9.35834
-10.3525
-6.79273
-8.2217
-9.28238
-10.2919
-6.7275
-8.17702
-9.21945
-10.2436
-6.68483
-8.14755
-9.16781
-10.205
-6.6526
-8.125
-9.12432
-10.1727
-6.62289
-8.10405
-9.08667
-10.1438
-6.59545
-8.08453
-9.05402
-10.1174
-6.57212
-8.06756
-9.02651
-10.0945
-6.55221
-8.0529
-9.00314
-10.075
-6.53654
-8.04124
-8.9848
-10.0597
-11.7612
-11.9291
-11.2495
-11.3907
-10.8463
-10.9886
-10.5579
-10.7197
-10.3663
-10.5471
-10.2307
-10.4272
-10.1266
-10.3374
-11.7739
-11.9434
-11.2626
-11.3971
-10.8659
-10.9965
-10.5845
-10.7295
-10.3997
-10.5606
-10.27
-10.4449
-10.1714
-10.3583
-11.7785
-11.9456
-11.2736
-11.3853
-10.8909
-10.9824
-10.6269
-10.7186
-10.4585
-10.5577
-10.3414
-10.4539
-10.2545
-10.3786
-11.7659
-11.9226
-11.2834
-11.3502
-10.9362
-10.9534
-10.7084
-10.7005
-10.5693
-10.554
-10.4715
-10.4607
-10.3981
-10.3871
-11.7514
-11.8963
-11.3131
-11.3205
-11.0335
-10.9572
-10.8591
-10.7342
-10.7529
-10.6176
-10.6684
-10.541
-10.599
-10.4659
-11.7531
-11.8982
-11.3819
-11.3271
-11.2043
-11.0306
-11.0969
-10.8559
-11.0231
-10.7685
-10.9443
-10.7018
-10.8686
-10.6206
-11.7827
-11.9466
-11.5063
-11.3956
-11.4619
-11.1973
-11.4336
-11.0818
-11.3905
-11.02
-11.3085
-10.9685
-11.2156
-10.8884
-11.8487
-12.0496
-11.7024
-11.5555
-11.8147
-11.4787
-11.8814
-11.4363
-11.8738
-11.4161
-11.7843
-11.3902
-11.666
-11.3083
-11.9549
-12.2172
-11.9752
-11.8286
-12.2398
-11.8798
-12.3926
-11.915
-12.4078
-11.9342
-12.2977
-11.9193
-12.1429
-11.8191
-12.0862
-12.4465
-12.3208
-12.2226
-12.7391
-12.4024
-12.9908
-12.515
-13.0393
-12.5689
-12.9121
-12.5536
-12.7189
-12.4279
-12.2094
-12.7093
-12.6622
-12.6988
-13.1742
-12.978
-13.478
-13.149
-13.5349
-13.2327
-13.3815
-13.225
-13.147
-13.0801
-12.2638
-12.935
-12.911
-13.1924
-13.4625
-13.5724
-13.7846
-13.8131
-13.842
-13.9374
-13.6699
-13.9457
-13.4047
-13.7881
-12.1786
-13.023
-12.9185
-13.5248
-13.4083
-13.9549
-13.6637
-14.212
-13.6747
-14.3348
-13.4754
-14.3322
-13.1889
-14.1463
-11.9545
-12.9372
-12.6321
-13.5629
-12.9849
-13.9626
-13.1552
-14.1875
-13.1413
-14.2833
-12.9547
-14.2619
-12.69
-14.0774
-11.7043
-12.7445
-12.3281
-13.3928
-12.5434
-13.6931
-12.5945
-13.8284
-12.5278
-13.8631
-12.3511
-13.8105
-12.1241
-13.6438
-11.4931
-12.5154
-12.1025
-13.1507
-12.2449
-13.359
-12.2179
-13.4022
-12.1064
-13.3742
-11.9216
-13.2914
-11.7115
-13.144
-11.334
-12.3156
-11.9489
-12.9637
-12.0853
-13.1609
-12.0566
-13.1735
-11.9807
-13.1184
-11.8554
-13.0215
-11.7021
-12.8936
-11.2037
-12.1477
-11.8284
-12.8175
-12.0088
-13.0786
-12.0214
-13.1332
-11.9837
-13.0946
-11.8949
-13.0035
-11.7774
-12.8945
-11.1127
-12.0209
-11.7401
-12.7011
-11.9824
-13.0182
-12.0508
-13.1263
-12.0367
-13.1262
-11.9596
-13.0593
-11.8479
-12.9639
-11.0365
-11.917
-11.6335
-12.5791
-11.8912
-12.9158
-11.9933
-13.0578
-12.0069
-13.0855
-11.9492
-13.0358
-11.8489
-12.9498
-10.97
-11.8224
-11.5351
-12.4562
-11.7854
-12.7912
-11.8969
-12.9466
-11.9249
-12.9942
-11.8825
-12.9711
-11.7949
-12.9123
-10.8825
-11.708
-11.4299
-12.3161
-11.6746
-12.6442
-11.7851
-12.8018
-11.8135
-12.853
-11.773
-12.8329
-11.6977
-12.7832
-10.7481
-11.5639
-11.29
-12.154
-11.5371
-12.4787
-11.6487
-12.6357
-11.6776
-12.6878
-11.6379
-12.6706
-11.5579
-12.62
-10.5934
-11.4228
-11.1295
-11.9929
-11.3758
-12.3142
-11.4855
-12.4717
-11.5141
-12.5274
-11.4749
-12.5151
-11.3944
-12.4693
-10.446
-11.3025
-10.9691
-11.8521
-11.2042
-12.162
-11.3111
-12.3196
-11.3412
-12.3805
-11.3063
-12.3756
-11.2301
-12.3373
-10.3256
-11.2127
-10.8362
-11.7503
-11.048
-12.0399
-11.141
-12.1874
-11.1697
-12.2495
-11.1409
-12.2514
-11.073
-12.222
-10.2339
-11.1496
-10.7415
-11.6873
-10.9329
-11.9612
-11.0069
-12.0954
-11.029
-12.1523
-11.0071
-12.159
-10.9498
-12.1376
-10.1644
-11.1058
-10.6766
-11.6505
-10.8587
-11.9171
-10.9185
-12.0422
-10.9286
-12.0922
-10.9086
-12.1015
-10.8667
-12.0904
-10.1126
-11.0757
-10.6336
-11.629
-10.8149
-11.8934
-10.8733
-12.0167
-10.882
-12.0673
-10.8668
-12.0815
-10.8401
-12.0803
-10.0735
-11.0525
-10.6032
-11.6136
-10.7867
-11.8773
-10.8505
-12.0016
-10.8663
-12.0562
-10.861
-12.077
-10.8469
-12.0833
-10.0415
-11.0318
-10.5794
-11.5989
-10.7649
-11.8622
-10.8338
-11.9871
-10.8583
-12.0454
-10.864
-12.0719
-10.8613
-12.0839
-10.0138
-11.0118
-10.5579
-11.5832
-10.7446
-11.8461
-10.8163
-11.9708
-10.8454
-12.0302
-10.8584
-12.0599
-10.8629
-12.0746
-9.98902
-10.9922
-10.5377
-11.5672
-10.7246
-11.8302
-10.7969
-11.9545
-10.8267
-12.0136
-10.8413
-12.044
-10.8476
-12.0594
-9.96768
-10.9746
-10.5197
-11.5525
-10.7066
-11.8163
-10.7786
-11.9406
-10.8079
-11.9996
-10.8217
-12.0297
-10.8283
-12.0456
-9.94972
-10.9595
-10.5045
-11.54
-10.6917
-11.8049
-10.7632
-11.9296
-10.7919
-11.9886
-10.8053
-12.0187
-10.8121
-12.0351
-9.93555
-10.9478
-10.4923
-11.5302
-10.68
-11.7961
-10.7511
-11.9212
-10.7794
-11.9804
-10.792
-12.0102
-10.798
-12.0262
-10.033
-10.263
-9.95239
-10.2047
-9.88918
-10.1626
-9.82184
-10.1226
-9.72727
-10.0764
-9.5768
-10.0359
-10.0823
-10.2859
-10.0055
-10.2286
-9.94289
-10.1846
-9.8738
-10.1411
-9.77356
-10.0874
-9.60845
-10.0278
-10.1791
-10.3164
-10.1119
-10.2646
-10.0525
-10.2181
-9.9869
-10.1715
-9.88806
-10.1106
-9.70175
-10.0182
-10.3343
-10.3265
-10.2681
-10.2734
-10.1968
-10.2167
-10.127
-10.1662
-10.043
-10.1176
-9.86582
-10.0252
-10.5351
-10.3976
-10.4548
-10.3317
-10.3528
-10.2452
-10.2648
-10.1719
-10.1992
-10.1322
-10.0817
-10.0864
-10.7936
-10.5414
-10.6852
-10.4574
-10.5335
-10.3341
-10.4094
-10.2323
-10.3553
-10.2025
-10.3338
-10.2426
-11.1183
-10.8004
-10.9661
-10.6949
-10.7445
-10.5241
-10.5672
-10.3852
-10.5193
-10.3687
-10.613
-10.5198
-11.5357
-11.2015
-11.3249
-11.0607
-11.0117
-10.8244
-10.7605
-10.6333
-10.7056
-10.6281
-10.9111
-10.9033
-11.97
-11.6818
-11.6885
-11.4969
-11.2676
-11.1871
-10.9303
-10.9398
-10.8652
-10.9456
-11.1854
-11.3448
-12.4996
-12.2662
-12.1398
-12.0441
-11.6006
-11.664
-11.1619
-11.3587
-11.0614
-11.3664
-11.451
-11.8676
-12.8825
-12.8908
-12.4489
-12.6291
-11.8003
-12.1846
-11.2678
-11.8283
-11.1334
-11.8395
-11.5767
-12.4256
-13.1085
-13.5766
-12.6225
-13.2832
-11.8936
-12.7902
-11.2862
-12.3862
-11.1064
-12.3602
-11.5425
-12.9091
-12.8828
-13.9068
-12.3858
-13.5899
-11.6369
-13.0766
-11.002
-12.6461
-10.7886
-12.5771
-11.176
-13.0478
-12.4087
-13.845
-11.9547
-13.5394
-11.2652
-13.0531
-10.6698
-12.6348
-10.4373
-12.5239
-10.7104
-12.86
-11.8921
-13.4518
-11.5307
-13.198
-10.9626
-12.7813
-10.4598
-12.4095
-10.2274
-12.2637
-10.35
-12.429
-11.5276
-13.0042
-11.2571
-12.8164
-10.8053
-12.4795
-10.3974
-12.1659
-10.1857
-12.0045
-10.2146
-12.0395
-11.5741
-12.7926
-11.3713
-12.6423
-11.0097
-12.3596
-10.674
-12.0909
-10.4751
-11.9328
-10.4339
-11.9101
-11.6788
-12.8148
-11.4965
-12.6717
-11.1756
-12.4113
-10.8791
-12.165
-10.7032
-12.0134
-10.6812
-11.9804
-11.7499
-12.8912
-11.5767
-12.7568
-11.2843
-12.5151
-11.0187
-12.2853
-10.8692
-12.1391
-10.8821
-12.1168
-11.7558
-12.8841
-11.594
-12.7572
-11.3289
-12.5237
-11.0919
-12.3064
-10.9668
-12.1877
-11.0063
-12.2185
-11.7112
-12.8712
-11.563
-12.7639
-11.3231
-12.5448
-11.1107
-12.3366
-11.0045
-12.223
-11.0641
-12.2691
-11.6249
-12.7503
-11.4807
-12.6472
-11.2565
-12.4413
-11.0611
-12.2471
-10.9651
-12.1432
-11.0326
-12.2073
-11.4838
-12.5884
-11.3488
-12.4992
-11.1402
-12.3172
-10.9606
-12.1468
-10.8742
-12.0582
-10.9451
-12.1291
-11.322
-12.4422
-11.1971
-12.3661
-11.0015
-12.2035
-10.8357
-12.0534
-10.7569
-11.9771
-10.8282
-12.0517
-11.1641
-12.3184
-11.0496
-12.2543
-10.8679
-12.1093
-10.7151
-11.9764
-10.644
-11.9113
-10.7144
-11.9878
-11.0162
-12.212
-10.9138
-12.1599
-10.7474
-12.0318
-10.6088
-11.915
-10.5458
-11.8601
-10.6157
-11.9371
-10.9046
-12.1356
-10.8173
-12.0966
-10.6747
-11.9949
-10.5557
-11.9018
-10.5024
-11.8602
-10.5631
-11.9301
-10.836
-12.0944
-10.7744
-12.0717
-10.6741
-12.006
-10.59
-11.9461
-10.5502
-11.9215
-10.5881
-11.9765
-10.821
-12.087
-10.7828
-12.0775
-10.7214
-12.0421
-10.6705
-12.0114
-10.6451
-12.0031
-10.6645
-12.0492
-10.837
-12.0923
-10.815
-12.0906
-10.7822
-12.0762
-10.7555
-12.0658
-10.7433
-12.0712
-10.7538
-12.1154
-10.8588
-12.0944
-10.848
-12.0973
-10.8334
-12.0949
-10.8229
-12.0967
-10.8206
-12.1105
-10.8293
-12.1553
-10.8658
-12.0865
-10.8614
-12.091
-10.8574
-12.0946
-10.8564
-12.102
-10.8609
-12.1197
-10.8716
-12.1645
-10.8525
-12.0719
-10.8505
-12.077
-10.8509
-12.083
-10.8536
-12.0923
-10.8606
-12.1106
-10.8722
-12.1536
-10.8331
-12.0579
-10.832
-12.0635
-10.8329
-12.07
-10.8361
-12.0799
-10.8414
-12.0974
-10.8499
-12.1382
-10.8169
-12.0475
-10.8158
-12.0531
-10.8164
-12.0596
-10.8186
-12.0691
-10.8216
-12.0857
-10.8266
-12.1252
-10.8027
-12.0386
-10.8013
-12.044
-10.8017
-12.0503
-10.8036
-12.0599
-10.8058
-12.0764
-10.8084
-12.1155
-9.45036
-10.1158
-9.29548
-10.1541
-9.21672
-10.1584
-9.16859
-10.1593
-9.13063
-10.1622
-9.09179
-10.1722
-9.47318
-10.0929
-9.32291
-10.1303
-9.25069
-10.1386
-9.20657
-10.1422
-9.17143
-10.147
-9.13643
-10.1604
-9.54982
-10.0538
-9.41293
-10.0906
-9.35655
-10.1065
-9.32125
-10.1156
-9.29177
-10.126
-9.26871
-10.1515
-9.72069
-10.0445
-9.6224
-10.1024
-9.58315
-10.1315
-9.53728
-10.1307
-9.48827
-10.1202
-9.46014
-10.1388
-9.98923
-10.1357
-9.94543
-10.2315
-9.90706
-10.2532
-9.82561
-10.2133
-9.73045
-10.1607
-9.67367
-10.1525
-10.3452
-10.3712
-10.364
-10.4867
-10.3155
-10.4782
-10.1785
-10.3847
-10.0148
-10.2745
-9.90854
-10.2197
-10.7745
-10.7526
-10.8599
-10.8697
-10.7903
-10.8302
-10.5777
-10.6758
-10.3238
-10.4839
-10.151
-10.3564
-11.2527
-11.2499
-11.414
-11.38
-11.316
-11.3075
-11.0098
-11.0725
-10.6457
-10.7843
-10.3909
-10.5767
-11.7116
-11.8209
-11.9274
-11.9578
-11.7836
-11.8371
-11.3693
-11.5205
-10.8834
-11.1385
-10.5417
-10.8514
-12.1354
-12.4838
-12.4127
-12.6458
-12.2242
-12.4778
-11.6959
-12.0802
-11.08
-11.6073
-10.6445
-11.2434
-12.3616
-13.1263
-12.6557
-13.2578
-12.413
-13.0228
-11.7779
-12.5403
-11.0437
-11.9838
-10.5262
-11.5567
-12.3585
-13.59
-12.6588
-13.6822
-12.3753
-13.3986
-11.6594
-12.8565
-10.8352
-12.2464
-10.2552
-11.7819
-11.9362
-13.6677
-12.1991
-13.7331
-11.8923
-13.4325
-11.1483
-12.8707
-10.2937
-12.2407
-9.68727
-11.7588
-11.3111
-13.3542
-11.4963
-13.3928
-11.1858
-13.1061
-10.469
-12.5719
-9.64745
-11.9765
-9.06736
-11.5369
-10.7081
-12.737
-10.7667
-12.7319
-10.4702
-12.4795
-9.84897
-12.0182
-9.15064
-11.5142
-8.68191
-11.172
-10.3992
-12.2008
-10.3705
-12.1669
-10.1002
-11.9565
-9.58549
-11.5835
-9.02409
-11.1904
-8.69055
-10.9705
-10.5007
-11.9941
-10.4118
-11.949
-10.1536
-11.7672
-9.71299
-11.4569
-9.25152
-11.143
-9.01438
-11.006
-10.774
-12.0516
-10.721
-12.0097
-10.4985
-11.8413
-10.112
-11.5603
-9.70718
-11.2823
-9.50968
-11.1784
-11.0144
-12.2138
-10.9779
-12.175
-10.7701
-12.003
-10.3954
-11.7151
-9.99864
-11.4339
-9.79688
-11.3235
-11.1622
-12.3507
-11.1438
-12.3365
-10.952
-12.1918
-10.5848
-11.9141
-10.1969
-11.6338
-9.99587
-11.5087
-11.2464
-12.4321
-11.257
-12.4542
-11.0775
-12.3172
-10.7129
-12.0272
-10.3301
-11.7339
-10.1272
-11.5911
-11.2337
-12.4063
-11.2721
-12.4681
-11.0993
-12.3384
-10.7386
-12.0512
-10.3591
-11.7639
-10.1516
-11.6289
-11.1488
-12.3332
-11.2064
-12.4103
-11.0517
-12.2965
-10.7163
-12.0371
-10.3613
-11.7814
-10.1768
-11.6803
-11.0266
-12.2517
-11.0927
-12.3348
-10.9553
-12.2375
-10.6511
-12.0107
-10.3244
-11.7857
-10.1638
-11.7101
-10.9073
-12.1825
-10.9774
-12.2682
-10.8559
-12.1863
-10.5801
-11.9879
-10.2807
-11.7897
-10.1378
-11.7294
-10.8021
-12.1229
-10.8746
-12.2069
-10.7674
-12.1382
-10.5171
-11.9653
-10.2422
-11.7912
-10.1146
-11.7429
-10.7256
-12.0912
-10.7913
-12.1656
-10.7005
-12.111
-10.4792
-11.9646
-10.2354
-11.8178
-10.1245
-11.7808
-10.694
-12.0922
-10.7244
-12.1366
-10.6504
-12.0945
-10.4788
-11.9869
-10.2848
-11.876
-10.1991
-11.8514
-10.7137
-12.1268
-10.6967
-12.1407
-10.636
-12.1106
-10.5165
-12.0415
-10.3805
-11.969
-10.3211
-11.9547
-10.7654
-12.1725
-10.7116
-12.1691
-10.6572
-12.1469
-10.5784
-12.1071
-10.4914
-12.0655
-10.4524
-12.0575
-10.8213
-12.2051
-10.7539
-12.2044
-10.7052
-12.1907
-10.6532
-12.1703
-10.5998
-12.1492
-10.5719
-12.1439
-10.8541
-12.212
-10.7878
-12.2215
-10.7479
-12.2181
-10.7127
-12.2103
-10.6783
-12.2007
-10.6554
-12.1978
-10.8503
-12.198
-10.7862
-12.2094
-10.7586
-12.2117
-10.7357
-12.2096
-10.7131
-12.2064
-10.6931
-12.2058
-10.8233
-12.1797
-10.7536
-12.1881
-10.7256
-12.1893
-10.7052
-12.1878
-10.6878
-12.1861
-10.6711
-12.1871
-10.7952
-12.1651
-10.7204
-12.1718
-10.6889
-12.1724
-10.6679
-12.171
-10.6502
-12.1698
-10.6331
-12.1706
-10.7733
-12.1545
-10.6951
-12.1598
-10.6605
-12.1587
-10.6372
-12.1565
-10.6187
-12.1554
-10.6013
-12.1566
-9.05526
-10.1932
-9.02938
-10.2226
-9.0175
-10.2693
-9.03102
-10.3503
-9.10535
-10.5024
-9.32132
-10.788
-9.88334
-11.2893
-9.10235
-10.1844
-9.07524
-10.2145
-9.05901
-10.2606
-9.06483
-10.3394
-9.12633
-10.4871
-9.32414
-10.7682
-9.87448
-11.271
-9.24736
-10.1891
-9.22465
-10.2258
-9.2052
-10.2735
-9.19835
-10.3496
-9.23068
-10.4868
-9.37886
-10.7527
-9.88458
-11.2503
-9.44582
-10.1868
-9.42782
-10.2317
-9.41077
-10.284
-9.4036
-10.3653
-9.41845
-10.5017
-9.50894
-10.7501
-9.9355
-11.2368
-9.64643
-10.1887
-9.61861
-10.2247
-9.59859
-10.2716
-9.60131
-10.3597
-9.62472
-10.5101
-9.68163
-10.7542
-10.0157
-11.2265
-9.84875
-10.2235
-9.79217
-10.2302
-9.75321
-10.2539
-9.75884
-10.3379
-9.80336
-10.5045
-9.86362
-10.7608
-10.1093
-11.2215
-10.0417
-10.3099
-9.93941
-10.269
-9.8666
-10.2509
-9.86533
-10.3196
-9.93206
-10.4949
-10.0289
-10.7696
-10.209
-11.2268
-10.2177
-10.4695
-10.0523
-10.3666
-9.92984
-10.2917
-9.90885
-10.3306
-9.99214
-10.4986
-10.1432
-10.7841
-10.2967
-11.2399
-10.2993
-10.683
-10.0658
-10.5183
-9.89315
-10.3886
-9.85704
-10.392
-9.96411
-10.5414
-10.1793
-10.8231
-10.3512
-11.2566
-10.3257
-11.0155
-10.017
-10.7902
-9.78689
-10.6029
-9.7265
-10.5572
-9.84725
-10.667
-10.1178
-10.912
-10.3419
-11.2684
-10.1445
-11.2777
-9.77949
-10.997
-9.51296
-10.7606
-9.44953
-10.6902
-9.60338
-10.7945
-9.94155
-11.0172
-10.2413
-11.2642
-9.83044
-11.4706
-9.43827
-11.1603
-9.15767
-10.8933
-9.09874
-10.8024
-9.27784
-10.9001
-9.66747
-11.1057
-10.0379
-11.2332
-9.25048
-11.4499
-8.86742
-11.1576
-8.60703
-10.9036
-8.59101
-10.8246
-8.83027
-10.9306
-9.29221
-11.1235
-9.74037
-11.1637
-8.66923
-11.2731
-8.34118
-11.029
-8.14342
-10.8274
-8.16998
-10.7859
-8.42893
-10.9006
-8.91355
-11.0677
-9.41124
-11.0469
-8.3755
-10.985
-8.11811
-10.8072
-7.97647
-10.6829
-8.00557
-10.6941
-8.24165
-10.8267
-8.6974
-10.9792
-9.17282
-10.9195
-8.48607
-10.8713
-8.28503
-10.7477
-8.19183
-10.6803
-8.24104
-10.7228
-8.44617
-10.8553
-8.81643
-10.9877
-9.19462
-10.9172
-8.87796
-10.9595
-8.7162
-10.8652
-8.65142
-10.8255
-8.70392
-10.8782
-8.86619
-11.0011
-9.14251
-11.1154
-9.41001
-11.0481
-9.40358
-11.1525
-9.26298
-11.0751
-9.18165
-11.0353
-9.18782
-11.0767
-9.28822
-11.1813
-9.50142
-11.2916
-9.71683
-11.2736
-9.70172
-11.3101
-9.57332
-11.2564
-9.47917
-11.2112
-9.48486
-11.2428
-9.61059
-11.3503
-9.84595
-11.497
-10.0599
-11.5642
-9.89093
-11.4586
-9.76793
-11.3801
-9.68458
-11.3203
-9.68943
-11.3332
-9.79506
-11.4226
-10.0158
-11.5846
-10.2742
-11.7522
-10.0114
-11.5169
-9.8845
-11.4288
-9.79688
-11.3723
-9.79247
-11.3889
-9.88618
-11.4765
-10.1017
-11.6476
-10.3979
-11.8833
-10.0546
-11.5747
-9.95072
-11.5058
-9.84637
-11.4337
-9.82202
-11.4279
-9.89444
-11.4981
-10.0901
-11.6631
-10.4103
-11.9445
-10.0627
-11.622
-9.92998
-11.5363
-9.8232
-11.4737
-9.8068
-11.4797
-9.88995
-11.5586
-10.098
-11.7354
-10.4347
-12.0446
-10.0475
-11.6554
-9.90847
-11.5689
-9.8113
-11.5174
-9.80745
-11.536
-9.90004
-11.6264
-10.1154
-11.8166
-10.466
-12.1482
-10.0337
-11.6876
-9.90683
-11.6148
-9.8259
-11.5773
-9.83473
-11.6064
-9.93653
-11.7082
-10.1486
-11.9052
-10.4892
-12.2402
-10.0282
-11.7173
-9.92071
-11.6625
-9.85922
-11.6395
-9.88497
-11.6818
-9.99754
-11.7955
-10.1883
-11.9886
-10.4811
-12.2979
-10.0586
-11.7696
-9.97287
-11.7314
-9.93235
-11.7218
-9.97235
-11.7728
-10.0853
-11.8905
-10.2194
-12.0573
-10.4374
-12.3181
-10.153
-11.8502
-10.0914
-11.8277
-10.0661
-11.8273
-10.1038
-11.878
-10.1842
-11.9831
-10.2276
-12.1043
-10.3582
-12.304
-10.2918
-11.9581
-10.2498
-11.9458
-10.2304
-11.9482
-10.2475
-11.9876
-10.2621
-12.062
-10.1981
-12.124
-10.2399
-12.2551
-10.4305
-12.0591
-10.3983
-12.0511
-10.3744
-12.0518
-10.3572
-12.0741
-10.2881
-12.1088
-10.1339
-12.1171
-10.1104
-12.1915
-10.5493
-12.1411
-10.5172
-12.1329
-10.4791
-12.1279
-10.4168
-12.1291
-10.2638
-12.1231
-10.0487
-12.0911
-9.98584
-12.1247
-10.6283
-12.1919
-10.5921
-12.1825
-10.5352
-12.1711
-10.4257
-12.152
-10.2051
-12.1128
-9.95816
-12.0555
-9.87714
-12.0635
-10.6632
-12.2003
-10.6219
-12.1918
-10.5463
-12.1778
-10.3991
-12.1469
-10.1337
-12.0882
-9.87787
-12.0186
-9.79137
-12.0128
-10.6412
-12.1817
-10.599
-12.1745
-10.5172
-12.1606
-10.3506
-12.1256
-10.0662
-12.0587
-9.80955
-11.9845
-9.72538
-11.9712
-10.6015
-12.1645
-10.5572
-12.156
-10.4715
-12.1404
-10.2967
-12.1024
-10.0073
-12.0314
-9.75319
-11.9556
-9.67349
-11.9374
-10.5687
-12.1502
-10.5231
-12.1413
-10.434
-12.1244
-10.2542
-12.0838
-9.96288
-12.0102
-9.71076
-11.9334
-9.63478
-11.9114
-9.9479
-11.2903
-9.88368
-11.0802
-8.96298
-10.1639
-9.26659
-10.6918
-9.93515
-11.2748
-9.87276
-11.0707
-8.95263
-10.1539
-9.27999
-10.7037
-9.92742
-11.2561
-9.86359
-11.0637
-8.93851
-10.1408
-9.29872
-10.721
-9.93232
-11.2365
-9.85482
-11.0545
-8.91262
-10.1169
-9.32013
-10.7417
-9.94584
-11.2122
-9.84144
-11.0345
-8.86678
-10.0727
-9.34113
-10.7604
-9.96605
-11.1795
-9.82132
-11.0049
-8.80328
-10.0085
-9.36806
-10.777
-9.99024
-11.1455
-9.79058
-10.9694
-8.72841
-9.92539
-9.39348
-10.7879
-10.0113
-11.12
-9.75193
-10.9283
-8.64566
-9.8236
-9.4143
-10.7927
-10.0194
-11.1003
-9.70697
-10.8782
-8.55818
-9.70706
-9.43689
-10.7857
-9.99597
-11.0761
-9.64905
-10.8189
-8.47341
-9.58769
-9.47471
-10.7693
-9.91843
-11.0329
-9.56006
-10.7413
-8.39269
-9.47451
-9.51284
-10.7305
-9.77159
-10.962
-9.42674
-10.6355
-8.31747
-9.38241
-9.54081
-10.6708
-9.55349
-10.8564
-9.24686
-10.4969
-8.25708
-9.33409
-9.54166
-10.5995
-9.33007
-10.7345
-9.08852
-10.3654
-8.25465
-9.36033
-9.48042
-10.5082
-9.16307
-10.6228
-8.97818
-10.266
-8.32117
-9.45487
-9.36069
-10.4153
-9.20401
-10.651
-9.02929
-10.3116
-8.46411
-9.62268
-9.29611
-10.4217
-9.40301
-10.813
-9.20981
-10.4864
-8.66547
-9.86143
-9.28089
-10.5095
-9.68253
-11.0748
-9.46283
-10.753
-8.8935
-10.1472
-9.3483
-10.702
-10.024
-11.4408
-9.77891
-11.1434
-9.1285
-10.4863
-9.54983
-11.0365
-10.2948
-11.75
-10.0617
-11.5157
-9.30051
-10.7685
-9.82629
-11.438
-10.4817
-11.9926
-10.3147
-11.8686
-9.39883
-10.9877
-10.1119
-11.8403
-10.5107
-12.102
-10.4188
-12.0851
-9.31509
-11.0284
-10.3241
-12.1769
-10.4754
-12.1645
-10.46
-12.2416
-9.06388
-10.889
-10.5084
-12.4904
-10.4144
-12.1932
-10.4504
-12.3152
-8.75449
-10.6603
-10.5808
-12.6571
-10.3326
-12.1929
-10.3769
-12.3131
-8.45864
-10.4364
-10.5237
-12.6515
-10.224
-12.1553
-10.2414
-12.2416
-8.19355
-10.2323
-10.3752
-12.5162
-10.102
-12.095
-10.0653
-12.1145
-7.9935
-10.0688
-10.1639
-12.2835
-9.9713
-12.0182
-9.86724
-11.9485
-7.85657
-9.94847
-9.91762
-11.9933
-9.81985
-11.9203
-9.65658
-11.7642
-7.75405
-9.853
-9.66768
-11.6951
-9.67836
-11.8268
-9.47007
-11.5986
-7.68726
-9.78845
-9.43777
-11.4248
-9.55681
-11.7443
-9.31711
-11.4611
-7.64825
-9.74754
-9.24133
-11.2009
-9.45819
-11.6752
-9.1978
-11.3535
-7.62434
-9.7204
-9.08069
-11.0257
-9.38338
-11.6207
-9.11119
-11.2748
-7.60683
-9.69959
-8.96106
-10.9002
-9.32656
-11.5765
-9.04818
-11.2162
-7.59069
-9.68045
-8.87573
-10.8111
-9.28168
-11.5405
-8.99963
-11.1703
-7.57551
-9.66309
-8.81203
-10.7437
-9.24763
-11.5125
-8.96331
-11.1354
-7.56285
-9.64904
-8.76547
-10.6937
-17.2862
-16.4988
-0.149661
1.44868
-31.7464
-32.6033
-17.2226
-16.4262
-0.219407
1.37353
-31.727
-32.584
-17.1403
-16.3351
-0.313972
1.27177
-31.7113
-32.5687
-17.0484
-16.2379
-0.447039
1.12996
-31.7107
-32.5682
-16.9473
-16.1408
-0.652676
0.917202
-31.7246
-32.5808
-16.8474
-16.0521
-0.93865
0.63475
-31.7463
-32.5973
-16.7512
-15.9667
-1.2845
0.313415
-31.7763
-32.6115
-16.6593
-15.8735
-1.67488
-0.0320597
-31.8241
-32.6182
-16.5476
-15.7294
-2.10144
-0.405017
-31.9068
-32.622
-16.3605
-15.4568
-2.53785
-0.80762
-32.0431
-32.6423
-15.9855
-14.9252
-3.00202
-1.27014
-32.2309
-32.6908
-15.3526
-14.0526
-3.53846
-1.78553
-32.4159
-32.7457
-14.4432
-12.8914
-4.08193
-2.21743
-32.5378
-32.7562
-13.2823
-11.5765
-4.31414
-2.26419
-32.5555
-32.617
-12.1019
-10.3498
-3.77912
-1.54176
-32.7102
-32.6224
-11.2243
-9.47887
-2.40042
-0.0823819
-33.3944
-33.1428
-10.5645
-8.84693
-0.879953
1.40495
-33.5552
-33.1021
-10.0822
-8.39618
0.454776
2.64581
-33.1561
-32.4643
-9.80767
-8.12451
1.55726
3.64594
-32.7
-31.7734
-9.62434
-7.8971
2.36822
4.36231
-32.3325
-31.1599
-9.43378
-7.61586
3.03759
4.95006
-32.0823
-30.6294
-9.25913
-7.315
3.85508
5.67085
-32.1053
-30.3783
-9.25186
-7.1687
5.09916
6.78507
-32.8982
-30.9252
-9.23185
-7.04737
6.21149
7.75822
-33.8194
-31.6599
-9.10966
-6.87809
6.95996
8.38383
-34.6465
-32.339
-8.89919
-6.67823
7.36842
8.69418
-35.3541
-32.9337
-8.64389
-6.46612
7.50935
8.74315
-35.8994
-33.3987
-8.37346
-6.24484
7.42307
8.57578
-36.2986
-33.7559
-8.11639
-6.03119
7.18761
8.28473
-36.5715
-34.0427
-7.89042
-5.83733
6.8812
7.94925
-36.777
-34.2973
-7.69399
-5.66178
6.56559
7.62918
-36.9612
-34.5273
-7.52137
-5.5024
6.28985
7.36347
-37.118
-34.7018
-7.37918
-5.36727
6.08932
7.17953
-37.2268
-34.8175
-7.27162
-5.26199
5.96289
7.06441
-37.3011
-34.9
-7.18665
-5.17818
5.87847
6.98513
-37.36
-34.9657
-7.12227
-5.11519
5.81615
6.92601
-37.4025
-35.0118
-15.0416
4.78808
-6.63197
-5.93299
-8.45837
-9.05111
-15.1673
5.8743
-9.85965
-7.96428
-10.7749
-11.3
-15.0313
4.69383
-6.63953
-5.97317
-8.50031
-9.10524
-15.1688
5.82742
-9.81653
-7.9456
-10.7558
-11.2874
-15.0222
4.58014
-6.64494
-6.01564
-8.54925
-9.17048
-15.143
5.78434
-9.74719
-7.90393
-10.724
-11.269
-15.0217
4.4751
-6.64076
-6.03806
-8.59198
-9.23291
-15.0505
5.77559
-9.64831
-7.81913
-10.6744
-11.2458
-15.0439
4.38434
-6.61884
-6.02824
-8.62633
-9.29239
-14.8982
5.80477
-9.51108
-7.68135
-10.6004
-11.2153
-15.0987
4.2907
-6.58094
-6.00422
-8.6616
-9.36212
-14.7485
5.86261
-9.33767
-7.4932
-10.497
-11.1717
-15.195
4.17503
-6.53229
-5.98892
-8.70177
-9.45245
-14.6622
5.94611
-9.12306
-7.26057
-10.3564
-11.1077
-15.3357
4.01191
-6.48741
-6.00344
-8.75484
-9.58262
-14.6903
6.05015
-8.85771
-6.99723
-10.1748
-11.0201
-15.4915
3.75952
-6.45604
-6.06857
-8.82403
-9.77101
-14.8796
6.15259
-8.53887
-6.72842
-9.95268
-10.9087
-15.57
3.35575
-6.4395
-6.18932
-8.89145
-10.0014
-15.2824
6.17883
-8.1743
-6.49252
-9.69548
-10.7776
-15.405
2.69678
-6.43512
-6.36032
-8.94881
-10.2508
-15.9521
5.93759
-7.78618
-6.34193
-9.4247
-10.6362
-14.8115
1.66169
-6.40183
-6.53971
-8.95183
-10.4425
-16.7171
5.1833
-7.40007
-6.31575
-9.15469
-10.482
-13.7522
0.287496
-6.25443
-6.65381
-8.83683
-10.4781
-17.0574
3.7503
-7.02454
-6.40946
-8.89403
-10.3061
-12.0497
-1.11204
-5.85987
-6.58977
-8.56087
-10.3168
-16.5574
1.67957
-6.51412
-6.46019
-8.58495
-10.0784
-9.88001
-2.10482
-5.47029
-6.41993
-8.21995
-9.99148
-15.388
-0.395787
-6.09132
-6.41706
-8.27223
-9.80858
-7.82785
-2.48229
-5.21403
-6.24295
-7.89892
-9.59415
-13.7062
-1.64494
-5.89612
-6.35681
-8.06025
-9.57507
-6.16392
-2.53574
-5.00341
-6.03617
-7.55447
-9.15574
-11.8034
-2.29818
-5.8509
-6.39255
-7.96855
-9.41961
-4.895
-2.38003
-4.733
-5.74823
-7.16645
-8.68076
-10.0176
-2.65651
-5.87251
-6.46122
-7.926
-9.28997
-3.9737
-2.15869
-4.40415
-5.42637
-6.77776
-8.23923
-8.63437
-2.79356
-5.9134
-6.50866
-7.91421
-9.19193
-3.34165
-1.92444
-4.05987
-5.12058
-6.41787
-7.8391
-7.71729
-2.73099
-5.94749
-6.54011
-7.93191
-9.1242
-2.97818
-1.68749
-3.70204
-4.75917
-6.05971
-7.43837
-7.24526
-2.50887
-5.93312
-6.52084
-7.94522
-9.07773
-2.8662
-1.40658
-3.34984
-4.29012
-5.65402
-6.98618
-7.20599
-2.06296
-5.87577
-6.39721
-7.90341
-8.98846
-2.91126
-1.07583
-3.06551
-3.7949
-5.23359
-6.49985
-7.64137
-1.39279
-5.88008
-6.16666
-7.8185
-8.83681
-2.94198
-0.780284
-2.87015
-3.38161
-4.89139
-6.09732
-8.14899
-0.689238
-5.92776
-5.91876
-7.74454
-8.66366
-2.90431
-0.556126
-2.73265
-3.05947
-4.61635
-5.80039
-8.44317
-0.103411
-5.91965
-5.67697
-7.66075
-8.50097
-2.82068
-0.402336
-2.62354
-2.82325
-4.39312
-5.58888
-8.47123
0.280395
-5.82809
-5.46104
-7.5546
-8.37045
-2.7251
-0.311998
-2.52553
-2.65973
-4.21389
-5.43754
-8.31511
0.489909
-5.68615
-5.28536
-7.43801
-8.27052
-2.63157
-0.275407
-2.43377
-2.5503
-4.06868
-5.32909
-8.06065
0.579601
-5.52941
-5.14903
-7.32299
-8.1914
-2.53846
-0.271135
-2.34897
-2.47836
-3.95235
-5.24747
-7.74237
0.590531
-5.37653
-5.0464
-7.21707
-8.12163
-2.43567
-0.280963
-2.27555
-2.43364
-3.86432
-5.187
-7.41496
0.560146
-5.23882
-4.97279
-7.12589
-8.05866
-2.3319
-0.293394
-2.21716
-2.40712
-3.80123
-5.14138
-7.14909
0.520901
-5.12353
-4.92094
-7.05092
-8.00487
-2.25455
-0.302227
-2.1763
-2.39181
-3.75926
-5.10561
-6.97393
0.490475
-5.03535
-4.88438
-6.99135
-7.9598
-2.21033
-0.306117
-2.15059
-2.38244
-3.73324
-5.07815
-6.87281
0.473528
-4.97327
-4.85669
-6.94447
-7.92198
-2.18595
-0.306859
-2.13421
-2.37609
-3.71697
-5.05728
-6.81287
0.465862
-4.92888
-4.83283
-6.90747
-7.89129
-2.16973
-0.30653
-2.12243
-2.37096
-3.70492
-5.04022
-6.77005
0.461378
-4.89322
-4.81131
-6.877
-7.86597
-2.1573
-0.306216
-2.11344
-2.36646
-3.69528
-5.02682
-6.73569
0.457219
-4.86575
-4.79427
-6.85345
-7.84626
-13.0973
8.1573
-10.234
-7.23975
-10.3166
-10.3969
-11.6287
9.40655
-10.0657
-5.76526
-9.14093
-9.16764
-9.96411
10.239
-8.98195
-4.62813
-8.32496
-8.47409
-9.06994
10.6912
-8.23977
-3.9139
-7.77543
-8.02282
-8.62239
10.8924
-7.77536
-3.47334
-7.42039
-7.73459
-8.38685
10.9951
-7.47934
-3.18905
-7.18142
-7.5392
-8.24636
11.0496
-7.28658
-2.99486
-7.0107
-7.39746
-13.1172
8.11023
-10.2136
-7.24783
-10.3269
-10.4169
-11.6705
9.35621
-10.0662
-5.78751
-9.16352
-9.19601
-10.0421
10.1759
-9.00579
-4.66508
-8.35949
-8.51241
-9.15627
10.6209
-8.28056
-3.96359
-7.82128
-8.07131
-8.7058
10.8204
-7.82919
-3.53464
-7.47673
-7.79251
-8.46463
10.9218
-7.54192
-3.26093
-7.24689
-7.60472
-8.32115
10.978
-7.35441
-3.07459
-7.08448
-7.46964
-13.103
8.06476
-10.1485
-7.21334
-10.3132
-10.4263
-11.6963
9.26877
-10.0216
-5.76741
-9.17069
-9.22841
-10.1585
10.0392
-9.00022
-4.67553
-8.39277
-8.57223
-9.30861
10.4472
-8.32193
-4.00919
-7.88364
-8.1592
-8.86051
10.6247
-7.90425
-3.61101
-7.56553
-7.90458
-8.6058
10.7014
-7.63599
-3.36338
-7.35618
-7.73506
-8.43527
10.7449
-7.45407
-3.19345
-7.21006
-7.6166
-13.0114
8.04458
-10.0154
-7.0936
-10.2509
-10.409
-11.695
9.13656
-9.91063
-5.66747
-9.14803
-9.25979
-10.2975
9.80475
-8.9529
-4.63406
-8.42632
-8.66259
-9.50327
10.1439
-8.36283
-4.03261
-7.97375
-8.30357
-9.05781
10.2752
-8.00652
-3.68681
-7.70071
-8.08908
-8.79902
10.303
-7.77391
-3.47723
-7.52132
-7.94416
-8.64608
10.3412
-7.60028
-3.32231
-7.39284
-7.84324
-12.8551
8.0439
-9.82439
-6.90567
-10.1542
-10.3805
-11.6799
8.96883
-9.77009
-5.51955
-9.11724
-9.31005
-10.4187
9.49357
-8.89766
-4.57663
-8.48867
-8.80587
-9.72114
9.75122
-8.40528
-4.06038
-8.11636
-8.51886
-9.29853
9.83108
-8.11714
-3.77669
-7.89505
-8.347
-9.04134
9.80008
-7.92415
-3.60467
-7.74113
-8.21937
-8.90692
9.84022
-7.7497
-3.45216
-7.61908
-8.12605
-12.669
8.05809
-9.58942
-6.68287
-10.0449
-10.3617
-11.6506
8.7918
-9.61886
-5.35852
-9.1009
-9.39933
-10.486
9.15246
-8.85793
-4.5359
-8.60119
-9.01711
-9.91202
9.32426
-8.45373
-4.11534
-8.32835
-8.81141
-9.50644
9.34824
-8.21942
-3.8939
-8.15765
-8.67816
-9.22515
9.25778
-8.05676
-3.75326
-8.01771
-8.55686
-9.10258
9.3113
-7.86661
-3.58912
-7.88734
-8.45961
-12.4773
8.0879
-9.31955
-6.44741
-9.9343
-10.3651
-11.6088
8.63408
-9.45755
-5.21005
-9.11211
-9.5431
-10.5404
8.81939
-8.85003
-4.53187
-8.76966
-9.30358
-9.96756
8.90166
-8.53072
-4.20927
-8.62123
-9.18317
-9.48352
8.86198
-8.33725
-4.04312
-8.50478
-9.08109
-9.15085
8.70977
-8.19616
-3.92076
-8.36832
-8.95195
-9.08875
8.79405
-7.97528
-3.72667
-8.21511
-8.83719
-12.3138
8.13406
-9.04715
-6.22591
-9.83323
-10.4015
-11.5926
8.53119
-9.2975
-5.10845
-9.16162
-9.75486
-10.6147
8.56233
-8.88245
-4.592
-8.97763
-9.66637
-9.92599
8.54956
-8.65156
-4.37087
-8.96833
-9.6356
-9.43267
8.41382
-8.49747
-4.25738
-8.91335
-9.56171
-9.2052
8.17704
-8.37922
-4.14433
-8.77231
-9.41345