/*--------------------------------*- C++ -*----------------------------------*\
| =========                 |                                                 |
| \\      /  F ield         | OpenFOAM: The Open Source CFD Toolbox           |
|  \\    /   O peration     | Version:  2206                                  |
|   \\  /    A nd           | Website:  www.openfoam.com                      |
|    \\/     M anipulation  |                                                 |
\*---------------------------------------------------------------------------*/
FoamFile
{
    version     2.0;
    format      ascii;
    arch        "LSB;label=32;scalar=64";
    class       surfaceScalarField;
    location    "500";
    object      phi;
}
// * * * * * * * * * * * * * * * * * * * * * * * * * * * * * * * * * * * * * //

dimensions      [0 3 -1 0 0 0 0];

oriented        oriented;

internalField   nonuniform List<scalar> 
146294
(
2.58669e-09
9.9925e-09
-8.52815e-09
7.68875e-10
-3.75582e-09
7.83376e-09
-9.5668e-09
2.1573e-09
2.10022e-09
5.76596e-10
9.33978e-10
1.02018e-08
-1.74367e-09
1.66517e-09
6.91452e-09
-1.88484e-10
8.24705e-09
3.36902e-08
-2.76019e-08
-9.08399e-09
-1.23452e-08
2.55918e-08
-3.02714e-08
-3.18746e-09
6.23789e-09
2.6134e-09
-4.00454e-10
3.83336e-08
-5.94956e-09
2.16939e-09
2.74453e-08
2.35944e-10
1.28708e-08
5.58943e-08
-4.39162e-08
-3.22605e-08
-1.97017e-08
4.20562e-08
-4.73846e-08
-2.08423e-08
8.75908e-09
4.74837e-09
-2.79639e-09
6.30265e-08
-9.49743e-09
1.24311e-09
4.64489e-08
1.25915e-09
1.63383e-08
7.74188e-08
-5.25237e-08
-5.91745e-08
-2.57206e-08
5.81317e-08
-5.62589e-08
-4.31968e-08
1.01058e-08
6.85109e-09
-6.15599e-09
8.6881e-08
-1.29578e-08
-9.1422e-10
6.45864e-08
2.54522e-09
1.98352e-08
1.02641e-07
-5.66367e-08
-8.61562e-08
-3.21977e-08
7.72098e-08
-5.93928e-08
-6.55122e-08
1.12923e-08
9.25184e-09
-1.03717e-08
1.14602e-07
-1.70052e-08
-4.12268e-09
8.54973e-08
4.1563e-09
2.36367e-08
1.33943e-07
-5.90308e-08
-1.15472e-07
-3.96873e-08
1.01095e-07
-5.99334e-08
-8.92866e-08
1.22713e-08
1.20884e-08
-1.53757e-08
1.48761e-07
-2.19085e-08
-8.35149e-09
1.11214e-07
6.18698e-09
2.80107e-08
1.7526e-07
-6.18581e-08
-1.51551e-07
-4.8959e-08
1.32799e-07
-5.97184e-08
-1.17917e-07
1.29137e-08
1.5525e-08
-2.08114e-08
1.93236e-07
-2.8081e-08
-1.34351e-08
1.44768e-07
8.62555e-09
3.2416e-08
2.27763e-07
-6.83946e-08
-1.94063e-07
-5.96039e-08
1.73144e-07
-6.22285e-08
-1.50847e-07
1.25831e-08
1.9375e-08
-2.69423e-08
2.50001e-07
-3.54943e-08
-1.96113e-08
1.87513e-07
1.1169e-08
3.58557e-08
2.92355e-07
-8.35334e-08
-2.42586e-07
-7.05643e-08
2.23302e-07
-7.22896e-08
-1.87426e-07
1.00277e-08
2.29268e-08
-3.45595e-08
3.20517e-07
-4.34925e-08
-2.76533e-08
2.41172e-07
1.30861e-08
3.56347e-08
3.69153e-07
-1.12503e-07
-2.96804e-07
-7.90365e-08
2.8087e-07
-9.46492e-08
-2.2566e-07
2.77506e-09
2.45192e-08
-4.6014e-08
4.0699e-07
-5.09176e-08
-3.92731e-08
3.04546e-07
1.24527e-08
2.7813e-08
4.67428e-07
-1.59876e-07
-3.6689e-07
-8.10243e-08
3.55614e-07
-1.35929e-07
-2.72539e-07
-1.39923e-08
2.19496e-08
-6.18472e-08
5.16952e-07
-5.56587e-08
-5.59118e-08
3.87676e-07
6.51992e-09
-7.9566e-10
6.02115e-07
-2.25163e-07
-4.74107e-07
-6.19471e-08
4.56227e-07
-2.0276e-07
-3.36792e-07
-5.34013e-08
7.96899e-09
-8.46469e-08
6.68433e-07
-5.15047e-08
-8.11222e-08
5.02178e-07
-1.27774e-08
-7.92283e-08
7.597e-07
-2.9451e-07
-6.27899e-07
1.67473e-08
5.67475e-07
-2.89202e-07
-4.22886e-07
-1.37388e-07
-3.35896e-08
-1.18409e-07
8.46566e-07
-1.95257e-08
-1.18522e-07
6.31702e-07
-6.04173e-08
-2.78913e-07
1.01263e-06
-3.22377e-07
-9.43144e-07
2.37264e-07
7.47003e-07
-3.71358e-07
-6.19084e-07
-3.24691e-07
-1.42806e-07
-1.55473e-07
1.10929e-06
8.31942e-08
-1.69199e-07
8.27442e-07
-1.7256e-07
-7.20288e-07
1.4034e-06
-2.31741e-07
-1.5322e-06
7.58393e-07
1.02094e-06
-3.80975e-07
-1.0354e-06
-6.96262e-07
-3.95871e-07
-1.73998e-07
1.45878e-06
3.59018e-07
-2.22913e-07
1.08252e-06
-4.03726e-07
-1.15681e-06
1.64147e-06
-4.4034e-08
-1.98827e-06
1.31583e-06
1.20144e-06
-2.91368e-07
-1.43284e-06
-1.01505e-06
-6.85067e-07
-1.50074e-07
1.58213e-06
7.20461e-07
-2.49683e-07
1.17618e-06
-6.33028e-07
-1.52416e-06
1.92579e-06
1.69751e-07
-2.4114e-06
1.79595e-06
1.44048e-06
-1.46583e-07
-1.8418e-06
-1.26766e-06
-9.69447e-07
-9.34744e-08
1.74308e-06
1.09553e-06
-2.43345e-07
1.30597e-06
-8.41272e-07
-1.80442e-06
2.20159e-06
3.48211e-07
-2.74142e-06
2.16574e-06
1.69429e-06
-1.62912e-09
-2.19297e-06
-1.4507e-06
-1.20779e-06
-3.28839e-08
1.92575e-06
1.42299e-06
-2.17037e-07
1.46482e-06
-1.00463e-06
-2.08298e-06
2.42182e-06
4.52199e-07
-2.97579e-06
2.533e-06
1.91768e-06
8.96456e-08
-2.46928e-06
-1.62267e-06
-1.36298e-06
-2.58716e-09
2.11383e-06
1.64061e-06
-1.86462e-07
1.64412e-06
-1.11999e-06
-2.40282e-06
2.61873e-06
4.50839e-07
-3.1577e-06
2.94316e-06
2.09687e-06
9.60132e-08
-2.69739e-06
-1.80861e-06
-1.45792e-06
-5.3146e-09
2.30907e-06
1.77022e-06
-1.78542e-07
1.83572e-06
-1.20468e-06
-2.71078e-06
2.80944e-06
3.34268e-07
-3.31716e-06
3.3352e-06
2.25577e-06
2.99739e-09
-2.89071e-06
-1.9828e-06
-1.53329e-06
-3.46364e-08
2.50171e-06
1.87025e-06
-1.91879e-07
2.01593e-06
-1.28012e-06
-2.93244e-06
3.01729e-06
1.15724e-07
-3.48274e-06
3.6165e-06
2.41122e-06
-1.701e-07
-3.0679e-06
-2.10248e-06
-1.63777e-06
-8.06714e-08
2.69552e-06
2.00542e-06
-2.27793e-07
2.18702e-06
-1.37765e-06
-2.40529e-06
2.56443e-06
-7.51282e-08
-2.92828e-06
2.96016e-06
2.0463e-06
-3.13083e-07
-2.59824e-06
-1.71034e-06
-1.40032e-06
-1.21283e-07
2.28877e-06
1.71647e-06
-2.55441e-07
1.85548e-06
-1.18186e-06
-1.92545e-06
2.15677e-06
-1.99702e-07
-2.45833e-06
2.3517e-06
1.71333e-06
-3.94296e-07
-2.18874e-06
-1.36861e-06
-1.16153e-06
-1.42579e-07
1.91874e-06
1.42059e-06
-2.63308e-07
1.54659e-06
-9.869e-07
-1.51745e-06
1.80094e-06
-2.64441e-07
-2.04903e-06
1.8304e-06
1.41966e-06
-4.21068e-07
-1.82524e-06
-1.08509e-06
-9.41296e-07
-1.47245e-07
1.59893e-06
1.14791e-06
-2.53993e-07
1.27558e-06
-8.06549e-07
-1.16922e-06
1.47161e-06
-2.73375e-07
-1.68171e-06
1.38836e-06
1.15058e-06
-4.02465e-07
-1.49255e-06
-8.45694e-07
-7.39457e-07
-1.36666e-07
1.30208e-06
8.98135e-07
-2.30724e-07
1.02841e-06
-6.4052e-07
-9.17644e-07
1.22563e-06
-2.47376e-07
-1.40355e-06
1.06966e-06
9.50048e-07
-3.55925e-07
-1.23998e-06
-6.74261e-07
-5.89743e-07
-1.17869e-07
1.08214e-06
7.14421e-07
-1.99297e-07
8.45184e-07
-5.1633e-07
-7.09097e-07
1.0068e-06
-2.08928e-07
-1.14611e-06
8.1006e-07
7.73121e-07
-2.98108e-07
-1.00951e-06
-5.30446e-07
-4.63705e-07
-1.00192e-07
8.90732e-07
5.61901e-07
-1.66438e-07
6.86125e-07
-4.09548e-07
-5.34312e-07
8.01044e-07
-1.6138e-07
-9.13078e-07
5.98924e-07
6.10736e-07
-2.35884e-07
-8.00669e-07
-4.06649e-07
-3.53137e-07
-8.05369e-08
7.07159e-07
4.27393e-07
-1.32738e-07
5.39032e-07
-3.1519e-07
-3.96864e-07
6.26711e-07
-1.15239e-07
-7.13696e-07
4.3784e-07
4.74892e-07
-1.76327e-07
-6.24495e-07
-3.0682e-07
-2.64582e-07
-6.09758e-08
5.5162e-07
3.20013e-07
-9.99892e-08
4.15863e-07
-2.38333e-07
-2.8998e-07
4.82461e-07
-7.70891e-08
-5.47438e-07
3.17041e-07
3.63601e-07
-1.24552e-07
-4.7879e-07
-2.26665e-07
-1.94691e-07
-4.25343e-08
4.22548e-07
2.36228e-07
-6.96411e-08
3.14888e-07
-1.76454e-07
-1.98513e-07
3.49662e-07
-4.84935e-08
-3.9735e-07
2.17874e-07
2.62376e-07
-8.12866e-08
-3.48714e-07
-1.55534e-07
-1.33597e-07
-2.56576e-08
3.02454e-07
1.63942e-07
-4.23253e-08
2.22443e-07
-1.21108e-07
-1.19039e-07
2.26752e-07
-2.76233e-08
-2.62512e-07
1.34284e-07
1.69932e-07
-4.64523e-08
-2.3229e-07
-9.16611e-08
-8.07509e-08
-1.21225e-08
1.92455e-07
1.01607e-07
-2.07689e-08
1.40303e-07
-7.28619e-08
-5.82144e-08
1.24736e-07
-1.23333e-08
-1.50194e-07
6.87219e-08
9.39969e-08
-2.02792e-08
-1.35156e-07
-4.33641e-08
-4.13594e-08
-4.29306e-09
1.04769e-07
5.35907e-08
-7.69238e-09
7.67339e-08
-3.73432e-08
-2.25188e-08
5.57176e-08
-2.99361e-09
-7.02111e-08
2.78436e-08
4.23676e-08
-4.74212e-09
-6.42796e-08
-1.62119e-08
-1.72561e-08
-8.96483e-10
4.66754e-08
2.2949e-08
-1.61075e-09
3.45791e-08
-1.56347e-08
-5.02157e-09
1.43212e-08
-1.86774e-08
6.38417e-09
1.09835e-08
-1.72639e-08
-3.48326e-09
-4.16709e-09
1.19696e-08
5.62215e-09
8.98366e-09
-3.778e-09
3.59575e-09
1.41795e-08
-1.95897e-09
-5.65362e-09
9.67636e-09
-1.32187e-09
2.12658e-09
2.55278e-09
1.55485e-08
-4.99244e-10
-3.4146e-09
1.05033e-08
-2.02352e-10
1.92691e-09
1.74539e-09
1.6387e-08
-3.66966e-10
-2.22378e-09
1.10547e-08
-1.03408e-10
1.29169e-09
1.15414e-09
1.69149e-08
-2.55565e-10
-1.42966e-09
1.14333e-08
-6.00425e-11
8.34965e-10
8.04616e-10
1.72669e-08
-1.82199e-10
-9.74629e-10
1.17052e-08
-3.12795e-11
5.65454e-10
6.13098e-10
1.75238e-08
-1.43214e-10
-7.27245e-10
1.19323e-08
-2.92499e-11
4.15374e-10
5.18253e-10
-1.24322e-10
1.77333e-08
-6.02816e-10
-3.63124e-11
1.21506e-08
3.37422e-10
1.19802e-08
4.46586e-08
-3.88026e-09
-1.63979e-08
3.23817e-08
-1.95981e-09
7.6723e-09
7.60121e-09
4.63349e-08
-9.00597e-10
-8.89125e-09
3.35098e-08
1.78365e-11
6.24198e-09
4.84962e-09
4.71742e-08
-5.95942e-10
-5.4697e-09
3.41101e-08
1.34117e-10
4.00474e-09
3.09101e-09
4.76892e-08
-4.46236e-10
-3.41861e-09
3.45142e-08
9.13128e-11
2.53539e-09
2.10979e-09
4.80498e-08
-3.55175e-10
-2.29808e-09
3.48287e-08
5.76597e-11
1.70729e-09
1.58607e-09
4.83263e-08
-3.03034e-10
-1.7018e-09
3.51029e-08
2.73401e-11
1.25778e-09
1.32899e-09
-2.80175e-10
4.8556e-08
-1.40355e-09
-1.53629e-12
3.53693e-08
1.02726e-09
1.86926e-08
6.80777e-08
-3.48118e-09
-2.41804e-08
5.02706e-08
-1.58284e-11
1.28981e-08
1.13957e-08
6.97029e-08
-1.10044e-09
-1.28065e-08
5.11937e-08
6.2273e-10
9.8701e-09
7.13894e-09
7.05983e-08
-8.44296e-10
-7.78776e-09
5.17482e-08
4.70246e-10
6.24759e-09
4.50677e-09
7.11827e-08
-6.99954e-10
-4.83756e-09
5.21661e-08
2.50091e-10
3.9313e-09
3.05877e-09
7.15958e-08
-5.86679e-10
-3.24046e-09
5.25196e-08
1.21982e-10
2.64174e-09
2.28987e-09
7.19064e-08
-5.09621e-10
-2.39365e-09
5.28384e-08
5.33868e-11
1.94564e-09
1.91168e-09
-4.72947e-10
7.21566e-08
-1.96911e-09
1.29123e-11
5.31467e-08
1.58913e-09
2.53872e-08
9.25303e-08
-2.40271e-09
-3.21155e-08
6.87469e-08
2.78263e-09
1.84276e-08
1.53309e-08
9.45301e-08
-1.48808e-09
-1.69488e-08
6.97576e-08
1.18003e-09
1.37585e-08
9.54699e-09
9.57022e-08
-1.299e-09
-1.02663e-08
7.04227e-08
6.71528e-10
8.67964e-09
6.00596e-09
9.64603e-08
-1.10397e-09
-6.3604e-09
7.09247e-08
3.02747e-10
5.45183e-09
4.06522e-09
9.6976e-08
-9.15702e-10
-4.25116e-09
7.13348e-08
1.16731e-10
3.66152e-09
3.03433e-09
9.7344e-08
-7.79918e-10
-3.13238e-09
7.16938e-08
3.26334e-11
2.69588e-09
2.5248e-09
-7.0861e-10
9.76242e-08
-2.56903e-09
-1.00017e-11
7.2042e-08
2.20005e-09
3.3215e-08
1.22086e-07
-1.6164e-09
-4.15099e-08
9.10105e-08
5.38771e-09
2.50805e-08
2.00434e-08
1.24717e-07
-2.22555e-09
-2.19317e-08
9.22528e-08
1.4685e-09
1.85132e-08
1.24515e-08
1.2628e-07
-2.05283e-09
-1.32592e-08
9.30902e-08
6.16122e-10
1.16712e-08
7.81927e-09
1.27255e-07
-1.69811e-09
-8.20042e-09
9.37044e-08
1.80819e-10
7.32773e-09
5.28112e-09
1.27889e-07
-1.36089e-09
-5.46933e-09
9.41838e-08
-1.50306e-12
4.92035e-09
3.92992e-09
1.28323e-07
-1.12566e-09
-4.01811e-09
9.45931e-08
-6.46605e-11
3.61828e-09
3.25767e-09
-9.98187e-10
1.28638e-07
-3.28313e-09
-9.00572e-11
9.4984e-08
2.94673e-09
4.27119e-08
1.59195e-07
-1.80391e-09
-5.29616e-08
1.18957e-07
7.00575e-09
3.3349e-08
2.58844e-08
1.62708e-07
-3.53149e-09
-2.80933e-08
1.20533e-07
1.26048e-09
2.45144e-08
1.60753e-08
1.64758e-07
-3.2048e-09
-1.69727e-08
1.21574e-07
1.82406e-10
1.54688e-08
1.00849e-08
1.6599e-07
-2.52992e-09
-1.04839e-08
1.2231e-07
-1.8565e-10
9.71706e-09
6.79605e-09
1.66761e-07
-1.95225e-09
-6.97606e-09
1.22859e-07
-2.73246e-10
6.51769e-09
5.03931e-09
1.67272e-07
-1.56877e-09
-5.10666e-09
1.23324e-07
-2.70197e-10
4.7809e-09
4.15809e-09
-1.35935e-09
1.67627e-07
-4.15304e-09
-2.55331e-10
1.23766e-07
3.88065e-09
5.45705e-08
2.07165e-07
-3.02927e-09
-6.72947e-08
1.55183e-07
7.26413e-09
4.38848e-08
3.32875e-08
2.11624e-07
-5.43548e-09
-3.58408e-08
1.57024e-07
4.54398e-10
3.22541e-08
2.0681e-08
2.14144e-07
-4.76428e-09
-2.1641e-08
1.58175e-07
-6.61693e-10
2.03747e-08
1.29615e-08
2.15606e-07
-3.60624e-09
-1.33467e-08
1.58961e-07
-8.09971e-10
1.28002e-08
8.71001e-09
2.16493e-07
-2.6952e-09
-8.85393e-09
1.59549e-07
-7.14274e-10
8.56428e-09
6.42957e-09
2.17059e-07
-2.11357e-09
-6.45115e-09
1.60047e-07
-5.98027e-10
6.25887e-09
5.27391e-09
-1.79447e-09
2.17435e-07
-5.21484e-09
-5.17199e-10
1.60528e-07
5.05501e-09
6.89923e-08
2.69043e-07
-6.02125e-09
-8.5047e-08
2.01886e-07
5.10128e-09
5.67815e-08
4.26059e-08
2.74869e-07
-8.27109e-09
-4.55966e-08
2.04194e-07
-1.30095e-09
4.20527e-08
2.6527e-08
2.78024e-07
-6.90582e-09
-2.75385e-08
2.05498e-07
-2.07409e-09
2.6638e-08
1.66155e-08
2.7979e-07
-5.03292e-09
-1.69564e-08
2.06349e-07
-1.7779e-09
1.67309e-08
1.11294e-08
2.80831e-07
-3.65719e-09
-1.12068e-08
2.06984e-07
-1.37958e-09
1.11612e-08
8.17019e-09
2.8147e-07
-2.80562e-09
-8.11828e-09
2.07519e-07
-1.08042e-09
8.11636e-09
6.6523e-09
-2.33693e-09
2.81874e-07
-6.51291e-09
-8.96499e-10
2.08041e-07
6.51035e-09
8.5413e-08
3.47434e-07
-1.25478e-08
-1.05822e-07
2.61269e-07
-9.54461e-10
7.1364e-08
5.39397e-08
3.55338e-07
-1.2584e-08
-5.753e-08
2.64384e-07
-4.43963e-09
5.39651e-08
3.3752e-08
3.59402e-07
-9.87438e-09
-3.48484e-08
2.65951e-07
-4.25655e-09
3.43678e-08
2.11447e-08
3.61614e-07
-6.94455e-09
-2.14436e-08
2.66927e-07
-3.19327e-09
2.15845e-08
1.41131e-08
3.62884e-07
-4.92283e-09
-1.41189e-08
2.67631e-07
-2.32145e-09
1.43498e-08
1.02932e-08
3.63647e-07
-3.70056e-09
-1.01604e-08
2.68224e-07
-1.74762e-09
1.03684e-08
8.30574e-09
-3.02482e-09
3.64106e-07
-8.0779e-09
-1.41047e-09
2.688e-07
8.24295e-09
1.01907e-07
4.45905e-07
-2.44314e-08
-1.28944e-07
3.3394e-07
-1.32367e-08
8.47971e-08
6.68057e-08
4.57199e-07
-1.91244e-08
-7.15585e-08
3.39101e-07
-9.86874e-09
6.70754e-08
4.21548e-08
4.62793e-07
-1.40834e-08
-4.35402e-08
3.41491e-07
-7.64818e-09
4.3156e-08
2.64381e-08
4.65756e-07
-9.5676e-09
-2.67778e-08
3.42891e-07
-5.29625e-09
2.71425e-08
1.75801e-08
4.67424e-07
-6.61983e-09
-1.75524e-08
3.43851e-07
-3.68623e-09
1.79841e-08
1.27248e-08
4.68406e-07
-4.87528e-09
-1.2531e-08
3.44626e-07
-2.69502e-09
1.28982e-08
1.01572e-08
-3.90636e-09
4.68982e-07
-9.85289e-09
-2.12414e-09
3.4535e-07
1.01456e-08
1.16544e-07
5.71358e-07
-4.33464e-08
-1.52047e-07
4.27732e-07
-3.22917e-08
9.55433e-08
8.08835e-08
5.86782e-07
-2.82776e-08
-8.71536e-08
4.35173e-07
-1.76037e-08
8.118e-08
5.16039e-08
5.94205e-07
-1.97052e-08
-5.34064e-08
4.38419e-07
-1.22215e-08
5.29298e-08
3.24153e-08
5.98074e-07
-1.29972e-08
-3.28539e-08
4.40247e-07
-8.07199e-09
3.33644e-08
2.14619e-08
6.00221e-07
-8.79946e-09
-2.14311e-08
4.41457e-07
-5.45979e-09
2.20235e-08
1.53952e-08
6.01464e-07
-6.35166e-09
-1.51599e-08
4.42402e-07
-3.9024e-09
1.56588e-08
1.21278e-08
-4.98242e-09
6.02174e-07
-1.17633e-08
-3.00888e-09
4.43254e-07
1.21594e-08
1.22515e-07
7.41917e-07
-6.81189e-08
-1.71228e-07
5.55812e-07
-5.88801e-08
9.54747e-08
9.47122e-08
7.62226e-07
-3.98292e-08
-1.03466e-07
5.66536e-07
-2.79323e-08
9.43218e-08
6.14621e-08
7.71761e-07
-2.66951e-08
-6.40095e-08
5.71025e-07
-1.81955e-08
6.29454e-08
3.87308e-08
7.76638e-07
-1.7199e-08
-3.94041e-08
5.73409e-07
-1.16449e-08
3.99222e-08
2.55308e-08
7.7929e-07
-1.14199e-08
-2.55641e-08
5.74902e-07
-7.70256e-09
2.62778e-08
1.81271e-08
7.80784e-07
-8.07926e-09
-1.78916e-08
5.76013e-07
-5.39186e-09
1.85071e-08
1.40577e-08
-6.19252e-09
7.81601e-07
-1.36666e-08
-4.06217e-09
5.76969e-07
1.4154e-08
9.64514e-08
9.54011e-07
-1.0613e-07
-1.65883e-07
7.08021e-07
-9.89982e-08
6.02628e-08
9.91057e-08
9.84135e-07
-5.55631e-08
-1.13495e-07
7.26299e-07
-4.22631e-08
9.51609e-08
6.67255e-08
9.98307e-07
-3.59011e-08
-7.16881e-08
7.34012e-07
-2.62015e-08
6.70206e-08
4.24916e-08
1.00558e-06
-2.26162e-08
-4.43478e-08
7.38001e-07
-1.63262e-08
4.31814e-08
2.79675e-08
1.00958e-06
-1.47264e-08
-2.86603e-08
7.40407e-07
-1.05779e-08
2.84386e-08
1.96659e-08
1.01187e-06
-1.01967e-08
-1.98474e-08
7.42081e-07
-7.24748e-09
1.9846e-08
1.49939e-08
-7.61132e-09
1.01321e-06
-1.49039e-08
-5.31976e-09
7.43414e-07
1.49192e-08
-5.13882e-09
1.23924e-06
-1.4237e-07
-8.85519e-08
9.15843e-07
-1.44543e-07
-4.79749e-08
8.20815e-08
1.28108e-06
-7.50389e-08
-1.04445e-07
9.45421e-07
-6.01063e-08
7.0351e-08
6.14463e-08
1.30151e-06
-4.81084e-08
-6.96609e-08
9.58662e-07
-3.63047e-08
5.83123e-08
4.02984e-08
1.31219e-06
-2.99405e-08
-4.36609e-08
9.65552e-07
-2.22311e-08
3.93108e-08
2.66178e-08
1.31811e-06
-1.91514e-08
-2.81069e-08
9.69536e-07
-1.41415e-08
2.62004e-08
1.85297e-08
1.32153e-06
-1.29598e-08
-1.9189e-08
9.72105e-07
-9.49697e-09
1.82068e-08
1.38573e-08
-9.41308e-09
1.32357e-06
-1.40971e-08
-6.81635e-09
9.73969e-07
1.34923e-08
-2.60813e-07
1.59135e-06
-1.71526e-07
1.57424e-07
1.16424e-06
-1.9675e-07
-2.90281e-07
3.48607e-09
1.64598e-06
-9.60734e-08
-3.70782e-08
1.20716e-06
-8.3729e-08
-1.58052e-08
2.33179e-08
1.67365e-06
-6.22392e-08
-3.68425e-08
1.22735e-06
-5.00041e-08
1.68284e-08
1.9308e-08
1.6884e-06
-3.86161e-08
-2.53906e-08
1.23786e-06
-3.0337e-08
1.68996e-08
1.36855e-08
1.69664e-06
-2.43572e-08
-1.6715e-08
1.24373e-06
-1.90139e-08
1.26965e-08
9.68504e-09
1.70141e-06
-1.611e-08
-1.13097e-08
1.24722e-06
-1.25213e-08
9.21601e-09
7.17783e-09
-1.13558e-08
1.70427e-06
-8.09158e-09
-8.77302e-09
1.24944e-06
6.91745e-09
-5.64101e-07
1.63753e-06
-1.69426e-07
5.0663e-07
1.19722e-06
-2.29819e-07
-5.5202e-07
-1.36634e-07
1.68035e-06
-1.08669e-07
1.0642e-07
1.23387e-06
-1.0616e-07
-1.50838e-07
-5.426e-08
1.70386e-06
-7.31872e-08
4.17106e-08
1.25179e-06
-6.43549e-08
-5.78165e-08
-2.55239e-08
1.71688e-06
-4.59435e-08
1.98279e-08
1.26115e-06
-3.92285e-08
-2.60009e-08
-1.37497e-08
1.72424e-06
-2.88165e-08
1.08528e-08
1.26628e-06
-2.44325e-08
-1.34593e-08
-8.28436e-09
1.72849e-06
-1.87361e-08
6.65695e-09
1.26917e-06
-1.58574e-08
-7.83584e-09
-5.51467e-09
-1.28631e-08
1.731e-06
4.51798e-09
-1.08734e-08
1.27079e-06
-5.03348e-09
-8.35394e-07
1.70487e-06
-1.44344e-07
8.48568e-07
1.25444e-06
-2.42444e-07
-7.71181e-07
-2.87261e-07
1.72307e-06
-1.11423e-07
2.71839e-07
1.27292e-06
-1.25235e-07
-2.86639e-07
-1.39769e-07
1.73618e-06
-7.98179e-08
1.33303e-07
1.28241e-06
-7.82473e-08
-1.35357e-07
-7.48916e-08
1.74438e-06
-5.14389e-08
7.21721e-08
1.28731e-06
-4.83827e-08
-7.06404e-08
-4.32622e-08
1.74929e-06
-3.2365e-08
4.19112e-08
1.28993e-06
-3.01141e-08
-4.01927e-08
-2.68095e-08
1.75216e-06
-2.07995e-08
2.59994e-08
1.29128e-06
-1.93237e-08
-2.46997e-08
-1.78316e-08
-1.3949e-08
1.75382e-06
1.72599e-08
-1.29837e-08
1.29188e-06
-1.63162e-08
-1.03299e-06
1.80537e-06
-1.15962e-07
1.12502e-06
1.34892e-06
-2.42845e-07
-9.16608e-07
-4.22106e-07
1.7901e-06
-1.05636e-07
4.31617e-07
1.33875e-06
-1.38249e-07
-3.98886e-07
-2.18519e-07
1.78698e-06
-8.0488e-08
2.22328e-07
1.33332e-06
-8.89762e-08
-2.02339e-07
-1.20487e-07
1.78689e-06
-5.35199e-08
1.22643e-07
1.32979e-06
-5.58489e-08
-1.09501e-07
-7.00254e-08
1.78739e-06
-3.4008e-08
7.11823e-08
1.32764e-06
-3.48194e-08
-6.31587e-08
-4.30024e-08
1.7878e-06
-2.175e-08
4.35341e-08
1.32625e-06
-2.21719e-08
-3.87702e-08
-2.79956e-08
-1.4349e-08
1.78805e-06
2.81514e-08
-1.46654e-08
1.32525e-06
-2.53126e-08
-1.1618e-06
1.93935e-06
-1.04067e-07
1.32442e-06
1.478e-06
-2.40888e-07
-9.97548e-07
-5.13445e-07
1.89091e-06
-9.59047e-08
5.52198e-07
1.43354e-06
-1.41558e-07
-4.65632e-07
-2.73184e-07
1.86852e-06
-7.46549e-08
2.89774e-07
1.40803e-06
-9.21713e-08
-2.4445e-07
-1.52569e-07
1.85734e-06
-5.07587e-08
1.60967e-07
1.39284e-06
-5.85469e-08
-1.34692e-07
-8.90476e-08
1.85167e-06
-3.28032e-08
9.353e-08
1.38417e-06
-3.68668e-08
-7.83121e-08
-5.46346e-08
1.84877e-06
-2.12628e-08
5.70359e-08
1.37922e-06
-2.36947e-08
-4.81837e-08
-3.53875e-08
-1.42009e-08
1.84738e-06
3.66355e-08
-1.58276e-08
1.37642e-06
-3.14152e-08
-1.2592e-06
2.09191e-06
-1.0421e-07
1.4765e-06
1.62442e-06
-2.35503e-07
-1.05319e-06
-5.63798e-07
2.01861e-06
-8.89555e-08
6.30194e-07
1.55555e-06
-1.39249e-07
-4.97194e-07
-3.02848e-07
1.98153e-06
-6.73006e-08
3.32614e-07
1.51512e-06
-8.9687e-08
-2.64861e-07
-1.70628e-07
1.96167e-06
-4.59066e-08
1.85625e-07
1.49077e-06
-5.70638e-08
-1.47776e-07
-1.0038e-07
1.95076e-06
-2.99459e-08
1.08451e-07
1.47646e-06
-3.6151e-08
-8.67631e-08
-6.20966e-08
1.9446e-06
-1.96077e-08
6.65845e-08
1.46794e-06
-2.34173e-08
-5.38728e-08
-4.05983e-08
-1.32365e-08
1.94112e-06
4.31275e-08
-1.57898e-08
1.46279e-06
-3.54748e-08
-1.33816e-06
2.25798e-06
-1.18253e-07
1.59598e-06
1.78062e-06
-2.38955e-07
-1.0993e-06
-5.98017e-07
2.16824e-06
-8.78587e-08
6.86697e-07
1.69819e-06
-1.37532e-07
-5.17267e-07
-3.20157e-07
2.12161e-06
-6.16574e-08
3.61195e-07
1.64956e-06
-8.54056e-08
-2.7576e-07
-1.8096e-07
2.09615e-06
-4.11054e-08
2.01586e-07
1.61995e-06
-5.36031e-08
-1.54828e-07
-1.07085e-07
2.08189e-06
-2.67438e-08
1.1818e-07
1.60226e-06
-3.39265e-08
-9.15901e-08
-6.67252e-08
2.0736e-06
-1.75814e-08
7.29648e-08
1.5915e-06
-2.20705e-08
-5.7341e-08
-4.40003e-08
-1.19534e-08
2.06873e-06
4.76118e-08
-1.4991e-08
1.58484e-06
-3.81131e-08
-1.41654e-06
2.42843e-06
-1.42707e-07
1.70799e-06
1.93605e-06
-2.51055e-07
-1.15337e-06
-6.29489e-07
2.32749e-06
-9.36149e-08
7.36218e-07
1.84761e-06
-1.38528e-07
-5.40008e-07
-3.33422e-07
2.27511e-06
-6.04247e-08
3.8463e-07
1.79665e-06
-8.20646e-08
-2.85749e-07
-1.87388e-07
2.24632e-06
-3.83164e-08
2.13356e-07
1.76531e-06
-4.97969e-08
-1.59886e-07
-1.10505e-07
2.2298e-06
-2.41724e-08
1.24498e-07
1.74603e-06
-3.07615e-08
-9.43542e-08
-6.85984e-08
2.21976e-06
-1.54951e-08
7.65234e-08
1.73377e-06
-1.95626e-08
-5.88721e-08
-4.50366e-08
-1.02789e-08
2.21345e-06
4.97026e-08
-1.29757e-08
1.7257e-06
-3.89565e-08
-1.18621e-06
2.05713e-06
-1.62756e-07
1.4379e-06
1.64059e-06
-2.60523e-07
-9.6183e-07
-5.25397e-07
1.96925e-06
-1.00149e-07
6.19826e-07
1.56609e-06
-1.4063e-07
-4.4878e-07
-2.75083e-07
1.92397e-06
-6.18356e-08
3.21834e-07
1.52484e-06
-8.07959e-08
-2.35044e-07
-1.52763e-07
1.89929e-06
-3.77538e-08
1.76835e-07
1.49997e-06
-4.76134e-08
-1.30105e-07
-8.89992e-08
1.88527e-06
-2.31308e-08
1.02023e-07
1.48482e-06
-2.87105e-08
-7.587e-08
-5.44549e-08
1.8768e-06
-1.44582e-08
6.18526e-08
1.47526e-06
-1.78498e-08
-4.66336e-08
-3.51397e-08
-9.35629e-09
1.87151e-06
3.95288e-08
-1.15634e-08
1.46903e-06
-3.02969e-08
-9.77701e-07
1.7177e-06
-1.69176e-07
1.18485e-06
1.36261e-06
-2.58225e-07
-7.95929e-07
-4.33287e-07
1.64112e-06
-1.01501e-07
5.11296e-07
1.29976e-06
-1.39054e-07
-3.71948e-07
-2.25228e-07
1.60192e-06
-6.17862e-08
2.64393e-07
1.26611e-06
-7.89351e-08
-1.93434e-07
-1.23829e-07
1.58085e-06
-3.69502e-08
1.44145e-07
1.24636e-06
-4.56494e-08
-1.06003e-07
-7.13585e-08
1.5689e-06
-2.21857e-08
8.23409e-08
1.23441e-06
-2.70326e-08
-6.11149e-08
-4.30955e-08
1.56185e-06
-1.36013e-08
4.93091e-08
1.22705e-06
-1.65082e-08
-3.70496e-08
-2.73741e-08
-8.63081e-09
1.55744e-06
3.10475e-08
-1.04941e-08
1.22226e-06
-2.36706e-08
-7.96014e-07
1.42589e-06
-1.63403e-07
9.63262e-07
1.11775e-06
-2.43475e-07
-6.52994e-07
-3.54204e-07
1.35885e-06
-9.75263e-08
4.17349e-07
1.06364e-06
-1.32342e-07
-3.06758e-07
-1.83575e-07
1.32493e-06
-5.97323e-08
2.1548e-07
1.03579e-06
-7.5588e-08
-1.59048e-07
-1.00191e-07
1.30687e-06
-3.54808e-08
1.16823e-07
1.01981e-06
-4.34042e-08
-8.64289e-08
-5.72388e-08
1.29671e-06
-2.10193e-08
6.62172e-08
1.01025e-06
-2.53902e-08
-4.93485e-08
-3.42048e-08
1.29077e-06
-1.26934e-08
3.92605e-08
1.00444e-06
-1.52925e-08
-2.95809e-08
-2.14457e-08
-7.9285e-09
1.28708e-06
2.44169e-08
-9.57547e-09
1.0007e-06
-1.86419e-08
-6.31548e-07
1.15825e-06
-1.48472e-07
7.60016e-07
8.98543e-07
-2.20184e-07
-5.24865e-07
-2.8265e-07
1.1006e-06
-8.78167e-08
3.30645e-07
8.52757e-07
-1.20251e-07
-2.4892e-07
-1.46532e-07
1.0713e-06
-5.45805e-08
1.70749e-07
8.29685e-07
-6.97424e-08
-1.29257e-07
-7.96091e-08
1.05595e-06
-3.26745e-08
9.22067e-08
8.16837e-07
-4.0251e-08
-6.98708e-08
-4.51835e-08
1.04741e-06
-1.92553e-08
5.19481e-08
8.09254e-07
-2.34213e-08
-3.95868e-08
-2.67762e-08
1.04245e-06
-1.14939e-08
3.0554e-08
8.04683e-07
-1.39599e-08
-2.35184e-08
-1.66115e-08
-7.084e-09
1.0394e-06
1.88096e-08
-8.63338e-09
8.01775e-07
-1.46599e-08
-5.08385e-07
9.56438e-07
-1.24168e-07
6.09732e-07
7.3149e-07
-1.87214e-07
-4.27724e-07
-2.27472e-07
9.04308e-07
-7.33107e-08
2.65151e-07
6.89837e-07
-1.02714e-07
-2.03365e-07
-1.17693e-07
8.77066e-07
-4.6334e-08
1.3676e-07
6.68684e-07
-6.06944e-08
-1.05529e-07
-6.36733e-08
8.62735e-07
-2.82467e-08
7.36079e-08
6.57042e-07
-3.55026e-08
-5.67564e-08
-3.59349e-08
8.54911e-07
-1.6727e-08
4.1253e-08
6.50351e-07
-2.07164e-08
-3.19244e-08
-2.11429e-08
8.50374e-07
-9.91373e-09
2.40958e-08
6.4633e-07
-1.2279e-08
-1.88122e-08
-1.30002e-08
-6.03967e-09
8.47634e-07
1.47056e-08
-7.52202e-09
6.43849e-07
-1.16168e-08
-4.04249e-07
7.82728e-07
-9.75699e-08
4.85241e-07
5.88017e-07
-1.49774e-07
-3.43485e-07
-1.80619e-07
7.36784e-07
-5.74539e-08
2.10713e-07
5.50939e-07
-8.27279e-08
-1.63569e-07
-9.31398e-08
7.11973e-07
-3.66124e-08
1.08363e-07
5.31846e-07
-4.98005e-08
-8.4834e-08
-5.01131e-08
6.98403e-07
-2.26093e-08
5.80782e-08
5.2116e-07
-2.94986e-08
-4.54155e-08
-2.81274e-08
6.90935e-07
-1.35053e-08
3.23953e-08
5.15036e-07
-1.73182e-08
-2.53734e-08
-1.64532e-08
6.86642e-07
-7.9872e-09
1.88133e-08
5.11391e-07
-1.02593e-08
-1.4844e-08
-1.0045e-08
-4.8226e-09
6.84079e-07
1.13992e-08
-6.24936e-09
5.09181e-07
-9.09453e-09
-3.11555e-07
6.20671e-07
-7.2708e-08
3.73116e-07
4.61125e-07
-1.15011e-07
-2.6848e-07
-1.39508e-07
5.83026e-07
-4.24349e-08
1.62114e-07
4.30804e-07
-6.32497e-08
-1.28761e-07
-7.183e-08
5.62241e-07
-2.70619e-08
8.3141e-08
4.14981e-07
-3.87954e-08
-6.69563e-08
-3.84548e-08
5.50432e-07
-1.66564e-08
4.43511e-08
4.05976e-07
-2.31368e-08
-3.5773e-08
-2.14609e-08
5.43739e-07
-9.9579e-09
2.46184e-08
4.0072e-07
-1.36381e-08
-1.98808e-08
-1.2486e-08
5.39895e-07
-5.87012e-09
1.42241e-08
3.97626e-07
-8.07811e-09
-1.15572e-08
-7.57784e-09
-3.51545e-09
5.37597e-07
8.56681e-09
-4.90796e-09
3.9573e-07
-7.03365e-09
-2.35623e-07
4.82958e-07
-5.16029e-08
2.82839e-07
3.54017e-07
-8.32509e-08
-2.05486e-07
-1.05515e-07
4.52466e-07
-2.94451e-08
1.23002e-07
3.29327e-07
-4.51595e-08
-9.90093e-08
-5.42346e-08
4.3555e-07
-1.87026e-08
6.29522e-08
3.16395e-07
-2.83956e-08
-5.15845e-08
-2.89153e-08
4.25823e-07
-1.1407e-08
3.34359e-08
3.09011e-07
-1.71099e-08
-2.75268e-08
-1.60508e-08
4.20202e-07
-6.74328e-09
1.84688e-08
3.04692e-07
-1.01246e-08
-1.52335e-08
-9.28762e-09
4.16937e-07
-3.9287e-09
1.06194e-08
3.02136e-07
-5.99637e-09
-8.80397e-09
-5.60589e-09
-2.32372e-09
4.14986e-07
6.36234e-09
-3.6355e-09
3.00572e-07
-5.32505e-09
-1.74023e-07
3.67438e-07
-3.31778e-08
2.10572e-07
2.65418e-07
-5.4863e-08
-1.53034e-07
-7.75824e-08
3.42541e-07
-1.85817e-08
9.16358e-08
2.45253e-07
-2.91118e-08
-7.37549e-08
-3.9722e-08
3.28721e-07
-1.18615e-08
4.68389e-08
2.34656e-07
-1.90238e-08
-3.84013e-08
-2.10875e-08
3.20848e-07
-7.20468e-09
2.47922e-08
2.28607e-07
-1.16721e-08
-2.04524e-08
-1.16518e-08
3.16356e-07
-4.22306e-09
1.36342e-08
2.25102e-07
-6.98862e-09
-1.12804e-08
-6.70943e-09
3.13769e-07
-2.4237e-09
7.80425e-09
2.23056e-07
-4.1454e-09
-6.48703e-09
-4.02937e-09
-1.41083e-09
3.12227e-07
4.65433e-09
-2.50934e-09
2.21782e-07
-3.90184e-09
-1.18971e-07
2.605e-07
-1.89549e-08
1.46428e-07
1.85547e-07
-3.19387e-08
-1.05045e-07
-5.26178e-08
2.41221e-07
-1.06441e-08
6.38227e-08
1.70318e-07
-1.59671e-08
-5.06081e-08
-2.67768e-08
2.30431e-07
-6.76043e-09
3.26741e-08
1.6225e-07
-1.12712e-08
-2.63186e-08
-1.41432e-08
2.24287e-07
-4.16758e-09
1.72864e-08
1.57541e-07
-7.10365e-09
-1.39863e-08
-7.78242e-09
2.20865e-07
-2.4886e-09
9.48478e-09
1.54834e-07
-4.36406e-09
-7.68672e-09
-4.46429e-09
2.18947e-07
-1.44422e-09
5.41146e-09
1.53251e-07
-2.61277e-09
-4.40085e-09
-2.67052e-09
-8.39295e-10
2.17836e-07
3.21567e-09
-1.58332e-09
1.52298e-07
-2.6338e-09
-7.11684e-08
1.63393e-07
-8.95684e-09
9.00406e-08
1.15805e-07
-1.558e-08
-6.31354e-08
-3.10822e-08
1.49949e-07
-5.00096e-09
3.93072e-08
1.05803e-07
-7.5942e-09
-3.03967e-08
-1.56598e-08
1.42296e-07
-3.40111e-09
2.01787e-08
1.00425e-07
-5.67848e-09
-1.57309e-08
-8.20601e-09
1.37836e-07
-2.17548e-09
1.06934e-08
9.7105e-08
-3.70887e-09
-8.30764e-09
-4.4908e-09
1.35339e-07
-1.33544e-09
5.86762e-09
9.51761e-08
-2.32782e-09
-4.53782e-09
-2.56645e-09
1.33933e-07
-8.12039e-10
3.34372e-09
9.40101e-08
-1.43468e-09
-2.58414e-09
-1.5301e-09
-4.81788e-10
1.33134e-07
1.98294e-09
-8.68319e-10
9.33303e-08
-1.539e-09
-3.62876e-08
8.81575e-08
-3.28171e-09
4.70526e-08
6.33843e-08
-5.88228e-09
-3.27387e-08
-1.57139e-08
8.03682e-08
-1.81157e-09
2.06571e-08
5.79808e-08
-2.91013e-09
-1.57965e-08
-7.83519e-09
7.57633e-08
-1.31832e-09
1.05965e-08
5.49526e-08
-2.22189e-09
-8.12368e-09
-4.06475e-09
7.29677e-08
-8.88975e-10
5.59544e-09
5.29296e-08
-1.51714e-09
-4.25485e-09
-2.20928e-09
7.13657e-08
-5.58803e-10
3.05981e-09
5.17002e-08
-9.74076e-10
-2.30826e-09
-1.25804e-09
7.04426e-08
-3.55358e-10
1.73918e-09
5.09484e-08
-6.10677e-10
-1.30682e-09
-7.47937e-10
-2.15254e-10
6.99017e-08
1.02888e-09
-3.66635e-10
5.04848e-08
-7.74265e-10
-1.51056e-08
3.91542e-08
-7.27933e-10
1.9986e-08
2.87719e-08
-1.28913e-09
-1.39424e-08
-6.5015e-09
3.55266e-08
-3.73141e-10
8.86978e-09
2.64099e-08
-7.07154e-10
-6.75475e-09
-3.2064e-09
3.32904e-08
-2.80984e-10
4.53449e-09
2.50133e-08
-5.05023e-10
-3.4531e-09
-1.64336e-09
3.18887e-08
-2.04966e-10
2.37347e-09
2.39978e-08
-3.64503e-10
-1.79378e-09
-8.85687e-10
3.10759e-08
-1.30858e-10
1.28747e-09
2.33608e-08
-2.39056e-10
-9.66719e-10
-5.02682e-10
3.05958e-08
-8.83671e-11
7.27563e-10
2.2964e-08
-1.53086e-10
-5.44287e-10
-2.98596e-10
-4.55708e-11
3.0301e-08
4.28377e-10
-8.24985e-11
2.27089e-08
-3.20748e-10
-3.57016e-09
1.00076e-08
4.80431e-09
7.52183e-09
-3.39748e-09
-1.51945e-09
9.00394e-09
2.14999e-09
6.94022e-09
-1.64498e-09
-7.32675e-10
8.35948e-09
1.0962e-09
6.54083e-09
-8.3835e-10
-3.67559e-10
7.95519e-09
5.67063e-10
6.24095e-09
-4.32001e-10
-1.94806e-10
7.71552e-09
3.03944e-10
6.0388e-09
-2.3133e-10
-1.09441e-10
7.56716e-09
1.70053e-10
5.90686e-09
-1.29504e-10
-6.4751e-11
7.48754e-09
9.92071e-11
5.83583e-09
-7.56983e-11
5.47548e-10
1.7961e-08
-1.31321e-10
-6.44553e-10
1.2399e-08
-4.37248e-11
3.42729e-10
3.99127e-10
1.81494e-08
-1.05763e-10
-4.8178e-10
1.25994e-08
-3.59192e-11
2.35771e-10
4.03908e-10
1.83515e-08
-1.09211e-10
-4.97459e-10
1.28052e-08
-3.49544e-11
2.32831e-10