/*--------------------------------*- C++ -*----------------------------------*\
| =========                 |                                                 |
| \\      /  F ield         | OpenFOAM: The Open Source CFD Toolbox           |
|  \\    /   O peration     | Version:  2206                                  |
|   \\  /    A nd           | Website:  www.openfoam.com                      |
|    \\/     M anipulation  |                                                 |
\*---------------------------------------------------------------------------*/
FoamFile
{
    version     2.0;
    format      ascii;
    arch        "LSB;label=32;scalar=64";
    class       volVectorField;
    location    "500";
    object      U;
}
// * * * * * * * * * * * * * * * * * * * * * * * * * * * * * * * * * * * * * //

dimensions      [0 1 -1 0 0 0 0];

internalField   nonuniform List<vector> 
50904
(
(1.10076 -4.82051 0.0199833)
(1.11057 -4.66315 0.0227473)
(0.996881 -5.08383 -0.00886269)
(1.05332 -4.92756 -0.0091057)
(0.919775 -5.24797 0.0272483)
(1.01397 -4.94935 0.0327092)
(0.796923 -5.88348 -0.00357835)
(0.978315 -5.58043 -0.00592418)
(0.822312 -5.63819 0.0390159)
(0.980696 -5.25656 0.0484043)
(0.705179 -6.2719 0.0010687)
(0.931133 -5.91562 -0.00326623)
(0.799857 -5.83528 0.0475328)
(0.986813 -5.42856 0.0580755)
(0.676084 -6.415 0.00525583)
(0.912201 -6.03801 -0.000602084)
(0.801904 -5.94643 0.0511645)
(1.00317 -5.53176 0.0613784)
(0.668127 -6.4828 0.00991806)
(0.905714 -6.09396 0.00280243)
(0.814961 -6.02225 0.0521392)
(1.02461 -5.60547 0.060706)
(0.671342 -6.52071 0.0155656)
(0.907223 -6.12376 0.00749499)
(0.836353 -6.07891 0.0523278)
(1.05088 -5.66234 0.0579756)
(0.683527 -6.54341 0.0219205)
(0.916072 -6.14064 0.0133116)
(0.866495 -6.12159 0.054423)
(1.08306 -5.70589 0.0561316)
(0.704947 -6.55653 0.0288245)
(0.933018 -6.14945 0.0200688)
(0.907716 -6.15063 0.0618804)
(1.1236 -5.73548 0.0591582)
(0.738408 -6.56057 0.036754)
(0.961121 -6.15057 0.0283438)
(0.963775 -6.16748 0.0770765)
(1.17553 -5.74983 0.0705621)
(0.786397 -6.5567 0.0469188)
(1.00332 -6.14457 0.039487)
(1.04249 -6.17534 0.103073)
(1.24513 -5.74868 0.0940477)
(0.85414 -6.54336 0.0606606)
(1.06456 -6.12872 0.0552431)
(1.15599 -6.17537 0.141007)
(1.3435 -5.73361 0.134354)
(0.951172 -6.5179 0.0803777)
(1.15411 -6.09931 0.0794102)
(1.32242 -6.17797 0.182332)
(1.48525 -5.71269 0.188389)
(1.09047 -6.48099 0.107665)
(1.28307 -6.05519 0.115226)
(1.5722 -6.21081 0.205095)
(1.69253 -5.7107 0.240025)
(1.29741 -6.43964 0.138501)
(1.47031 -6.00259 0.16241)
(1.93705 -6.32301 0.171085)
(1.98766 -5.78025 0.252889)
(1.60634 -6.41895 0.156844)
(1.73465 -5.96156 0.210019)
(2.32817 -6.51792 0.0703491)
(2.29262 -5.95116 0.196048)
(1.96834 -6.45382 0.13751)
(2.02338 -5.97348 0.22708)
(2.62629 -6.73043 -0.0403092)
(2.51855 -6.16774 0.105636)
(2.28393 -6.55243 0.0889464)
(2.26008 -6.05844 0.207219)
(2.81939 -6.92026 -0.122837)
(2.66598 -6.37742 0.0220414)
(2.5203 -6.69311 0.0349491)
(2.42898 -6.19602 0.166668)
(2.93598 -7.07017 -0.157881)
(2.75638 -6.55006 -0.0268976)
(2.68238 -6.84205 0.00229498)
(2.54665 -6.34938 0.1314)
(3.00921 -7.1894 -0.151269)
(2.81253 -6.68442 -0.0379657)
(2.799 -6.98469 -0.00603174)
(2.63518 -6.49516 0.113033)
(3.06139 -7.30163 -0.112602)
(2.85169 -6.79686 -0.0178148)
(2.89297 -7.12183 0.0076832)
(2.71006 -6.62527 0.112844)
(3.10878 -7.42859 -0.0579514)
(2.88624 -6.90231 0.0207378)
(2.97997 -7.26559 0.0295343)
(2.77945 -6.74442 0.11993)
(3.15253 -7.57127 -0.00292331)
(2.92079 -7.00332 0.0619346)
(3.05307 -7.41011 0.0510953)
(2.83786 -6.84598 0.128008)
(3.1905 -7.71369 0.03488)
(2.95471 -7.09525 0.0867994)
(3.10696 -7.54224 0.0640623)
(2.88103 -6.92577 0.128629)
(3.22373 -7.85309 0.0545525)
(2.98843 -7.1786 0.0957835)
(3.14636 -7.66294 0.0669794)
(2.91175 -6.9886 0.121348)
(3.24979 -7.98263 0.0601265)
(3.02001 -7.24972 0.0934747)
(3.17459 -7.76807 0.0628905)
(2.93167 -7.03561 0.108817)
(3.26602 -8.09429 0.0569676)
(3.04607 -7.3049 0.0841541)
(3.1925 -7.85439 0.0548819)
(2.94101 -7.0667 0.0935508)
(3.27009 -8.17915 0.0489588)
(3.06286 -7.34081 0.0711295)
(3.1984 -7.9185 0.0454005)
(2.9386 -7.0801 0.077344)
(3.25854 -8.22607 0.0387781)
(3.06552 -7.35231 0.0570922)
(3.18795 -7.95113 0.0361308)
(2.92105 -7.07085 0.0616817)
(3.22632 -8.22165 0.028984)
(3.04647 -7.33043 0.0438436)
(3.15321 -7.93769 0.0274753)
(2.88133 -7.02923 0.0471501)
(3.16086 -8.1384 0.0207812)
(2.99155 -7.2544 0.0322371)
(3.07628 -7.84636 0.0199169)
(2.80304 -6.93215 0.0343688)
(3.03109 -7.90421 0.014441)
(2.86741 -7.06961 0.0224377)
(2.91648 -7.60023 0.0125832)
(2.64962 -6.72503 0.0222618)
(2.78523 -7.38738 0.00979288)
(2.62446 -6.67319 0.0143793)
(2.62225 -7.08887 0.00647027)
(2.38285 -6.33772 0.0117913)
(2.44348 -6.60224 0.00657872)
(2.30094 -6.06959 0.00819661)
(2.24785 -6.3851 0.00273981)
(2.0626 -5.82991 0.00514942)
(2.12263 -5.80075 0.00218564)
(2.01495 -5.44482 0.00252688)
(1.90347 -5.6963 -0.000439216)
(1.77929 -5.33227 0.00062956)
(1.86781 -5.09468 -0.0033694)
(1.79781 -4.8874 -0.00267002)
(1.62077 -5.09148 -0.0043147)
(1.55315 -4.88609 -0.00361744)
(0.801726 -5.18231 0.00552146)
(0.880998 -4.97419 0.00872774)
(0.571702 -5.37937 0.00449248)
(0.684866 -5.14006 0.00868708)
(0.452209 -5.47008 0.00625011)
(0.58093 -5.22145 0.0114494)
(0.382553 -5.52164 0.00695932)
(0.521093 -5.27111 0.0124118)
(0.34131 -5.55433 0.00691292)
(0.486109 -5.30391 0.012476)
(0.315173 -5.57684 0.00667755)
(0.463736 -5.3273 0.0123807)
(0.297212 -5.59352 0.00639503)
(0.448034 -5.34648 0.012163)
(0.480629 -6.13276 0.00286507)
(0.683888 -5.74814 0.00563039)
(0.117417 -6.42463 0.00135878)
(0.334915 -6.03267 0.0059034)
(-0.0516811 -6.53531 0.00237293)
(0.165943 -6.15749 0.00696414)
(-0.146126 -6.59547 0.00383705)
(0.0729311 -6.22914 0.00815117)
(-0.201217 -6.63375 0.00526048)
(0.0198244 -6.27552 0.00900202)
(-0.236024 -6.66076 0.00650967)
(-0.0142009 -6.30878 0.0105035)
(-0.260447 -6.68169 0.00766836)
(-0.0386571 -6.33547 0.0127529)
(0.374188 -6.49586 0.00185676)
(0.605792 -6.07211 0.00205195)
(-0.0124189 -6.77158 0.00113936)
(0.220882 -6.34668 0.00228064)
(-0.187345 -6.88083 0.0030734)
(0.0406075 -6.47323 0.00261326)
(-0.28424 -6.9427 0.00606418)
(-0.0576991 -6.54821 0.00410837)
(-0.341064 -6.98257 0.00909434)
(-0.114338 -6.59735 0.00588992)
(-0.377656 -7.01078 0.0117762)
(-0.150868 -6.63259 0.00778727)
(-0.40369 -7.03251 0.0140889)
(-0.177235 -6.66045 0.00971995)
(0.340082 -6.64588 0.000194678)
(0.577357 -6.20755 -0.0025609)
(-0.0566169 -6.92398 0.00137449)
(0.178036 -6.48317 -0.00225816)
(-0.232997 -7.03759 0.00498068)
(-0.00616301 -6.61389 -0.00192861)
(-0.330522 -7.10288 0.00981095)
(-0.106767 -6.69209 0.000103284)
(-0.388024 -7.14457 0.0143945)
(-0.165421 -6.74282 0.00266403)
(-0.425273 -7.17362 0.0182595)
(-0.203476 -6.77858 0.00518671)
(-0.451905 -7.1956 0.0214775)
(-0.230992 -6.80643 0.00759129)
(0.32977 -6.73155 -0.00232787)
(0.566635 -6.28496 -0.008451)
(-0.0727472 -7.01771 0.00197597)
(0.158763 -6.56595 -0.00734821)
(-0.249329 -7.13648 0.00822327)
(-0.0276664 -6.70092 -0.00627004)
(-0.347154 -7.20476 0.0153741)
(-0.130074 -6.78166 -0.00329177)
(-0.405164 -7.2477 0.0216202)
(-0.190433 -6.8334 0.00013393)
(-0.442881 -7.27713 0.0265907)
(-0.229781 -6.86936 0.00306827)
(-0.469901 -7.29908 0.0305251)
(-0.258301 -6.89687 0.00562593)
(0.332574 -6.78976 -0.00457045)
(0.566275 -6.3377 -0.014112)
(-0.0734857 -7.08579 0.00388948)
(0.152385 -6.62533 -0.011735)
(-0.249804 -7.20943 0.0137368)
(-0.0360209 -6.76389 -0.00870566)
(-0.347923 -7.28 0.0234264)
(-0.140147 -6.84647 -0.00425855)
(-0.406401 -7.32374 0.0312284)
(-0.202075 -6.89873 -1.06444e-05)
(-0.444507 -7.35333 0.0371062)
(-0.242672 -6.93458 0.00334418)
(-0.47182 -7.37512 0.0415786)
(-0.272144 -6.96168 0.00601986)
(0.345931 -6.83269 -0.00555353)
(0.574753 -6.37743 -0.0183632)
(-0.062276 -7.13951 0.00801302)
(0.156122 -6.67194 -0.0140643)
(-0.238267 -7.26755 0.0221901)
(-0.0342074 -6.81352 -0.0081337)
(-0.336743 -7.33982 0.0345048)
(-0.140299 -6.89701 -0.00189024)
(-0.395677 -7.38404 0.043748)
(-0.20386 -6.94937 0.00321935)
(-0.434136 -7.41362 0.0504082)
(-0.245709 -6.98489 0.00717192)
(-0.461682 -7.43518 0.055309)
(-0.275995 -7.01158 0.0100859)
(0.369608 -6.86585 -0.00422829)
(0.592393 -6.40942 -0.0196347)
(-0.0398676 -7.18412 0.0154792)
(0.170071 -6.71071 -0.0130269)
(-0.215712 -7.3162 0.0345872)
(-0.0222218 -6.85502 -0.00368444)
(-0.314659 -7.38989 0.0497017)
(-0.130393 -6.93915 0.00470246)
(-0.374071 -7.43442 0.0604021)
(-0.195507 -6.99141 0.0109873)
(-0.412841 -7.46388 0.0678241)
(-0.238337 -7.02645 0.0154915)
(-0.440531 -7.48513 0.0731175)
(-0.269208 -7.05253 0.0186451)
(0.406424 -6.88984 0.000495452)
(0.622658 -6.43304 -0.0159859)
(-0.00305382 -7.21964 0.0273904)
(0.198178 -6.74099 -0.0073877)
(-0.178845 -7.35531 0.0516742)
(0.00410341 -6.88744 0.00554134)
(-0.278313 -7.43025 0.0696602)
(-0.105795 -6.97213 0.016005)
(-0.338164 -7.47506 0.081852)
(-0.172094 -7.02413 0.0233406)
(-0.377149 -7.50444 0.0900462)
(-0.215615 -7.05866 0.0284047)
(-0.404883 -7.52539 0.095731)
(-0.246852 -7.08409 0.0318935)
(0.458564 -6.90549 0.00948422)
(0.668484 -6.44768 -0.00671971)
(0.0516068 -7.24616 0.04483)
(0.244642 -6.76241 0.00398059)
(-0.12358 -7.38496 0.0744292)
(0.0498125 -6.91048 0.0203564)
(-0.223213 -7.46089 0.0952962)
(-0.0611189 -6.99533 0.0327117)
(-0.283235 -7.50579 0.108957)
(-0.128097 -7.04694 0.0409653)
(-0.322234 -7.53491 0.117891)
(-0.171955 -7.08091 0.0464557)
(-0.349837 -7.55542 0.123925)
(-0.203311 -7.10559 0.0501471)
(0.531621 -6.91122 0.0237845)
(0.735826 -6.45183 0.0091302)
(0.130606 -7.2615 0.0690216)
(0.316808 -6.77302 0.0226584)
(-0.0427335 -7.40254 0.104185)
(0.123106 -6.92186 0.0420754)
(-0.141741 -7.47916 0.128063)
(0.0122942 -7.0066 0.0563063)
(-0.201383 -7.52409 0.143236)
(-0.0546266 -7.05774 0.0656085)
(-0.239999 -7.55292 0.1529)
(-0.0982956 -7.09107 0.0716518)
(-0.267163 -7.57297 0.159233)
(-0.129309 -7.11498 0.0755854)
(0.635559 -6.90323 0.0442407)
(0.835234 -6.44258 0.0332665)
(0.246198 -7.26131 0.100081)
(0.427882 -6.76846 0.0497558)
(0.0771964 -7.40353 0.14073)
(0.238703 -6.91671 0.0718902)
(-0.019629 -7.48022 0.167539)
(0.130109 -7.00034 0.0879342)
(-0.077878 -7.52478 0.184166)
(0.0645892 -7.05021 0.0982882)
(-0.115427 -7.55307 0.194498)
(0.0220054 -7.08229 0.104883)
(-0.14167 -7.57244 0.201054)
(-0.00804061 -7.10497 0.109044)
(0.782468 -6.87878 0.0710845)
(0.978954 -6.41628 0.0670778)
(0.415201 -7.23967 0.138239)
(0.594292 -6.7428 0.0869829)
(0.255249 -7.38101 0.18445)
(0.414786 -6.88762 0.112231)
(0.163592 -7.4566 0.214033)
(0.311548 -6.96833 0.130355)
(0.108734 -7.50012 0.231932)
(0.249451 -7.01593 0.141869)
(0.0735662 -7.52744 0.242756)
(0.209265 -7.04615 0.149024)
(0.0491106 -7.54588 0.249363)
(0.181063 -7.06728 0.153356)
(1.00064 -6.82907 0.102095)
(1.18872 -6.36459 0.111241)
(0.674133 -7.17798 0.179648)
(0.844646 -6.68009 0.134951)
(0.529051 -7.31566 0.232008)
(0.680929 -6.81867 0.164097)
(0.446573 -7.38888 0.264634)
(0.587494 -6.89484 0.184808)
(0.3975 -7.43066 0.283904)
(0.53164 -6.93916 0.197789)
(0.366143 -7.45656 0.295256)
(0.495654 -6.9669 0.205653)
(0.344365 -7.47376 0.301924)
(0.470482 -6.986 0.210217)
(1.31657 -6.75242 0.12972)
(1.47868 -6.28506 0.162104)
(1.04923 -7.06258 0.214504)
(1.19737 -6.56848 0.190477)
(0.929632 -7.18997 0.275652)
(1.06051 -6.69424 0.226458)
(0.863342 -7.25713 0.313736)
(0.983913 -6.76207 0.252339)
(0.82438 -7.29522 0.335943)
(0.938673 -6.801 0.268513)
(0.799401 -7.31856 0.348785)
(0.90956 -6.82504 0.278144)
(0.781701 -7.33387 0.3561)
(0.888958 -6.84134 0.283571)
(1.68652 -6.67737 0.136105)
(1.79857 -6.20605 0.201401)
(1.48325 -6.91997 0.229646)
(1.59262 -6.43321 0.24115)
(1.40011 -7.02569 0.301827)
(1.49476 -6.53603 0.288387)
(1.35732 -7.08147 0.347174)
(1.44246 -6.59033 0.322834)
(1.3331 -7.11301 0.373713)
(1.41231 -6.62119 0.344492)
(1.31744 -7.13217 0.389006)
(1.39288 -6.64007 0.357394)
(1.30577 -7.14459 0.397688)
(1.3787 -6.65273 0.364682)
(2.03227 -6.64582 0.120301)
(2.07803 -6.17073 0.217364)
(1.88915 -6.80176 0.222205)
(1.94946 -6.32319 0.273784)
(1.84656 -6.87558 0.307488)
(1.89704 -6.39496 0.335981)
(1.83082 -6.91441 0.362675)
(1.87213 -6.43137 0.381965)
(1.82327 -6.93669 0.394665)
(1.85828 -6.45194 0.411076)
(1.81786 -6.95045 0.413098)
(1.84887 -6.46457 0.428453)
(1.81265 -6.95931 0.423633)
(1.84115 -6.47299 0.438361)
(2.31403 -6.67733 0.0934102)
(2.29084 -6.20171 0.212819)
(2.22508 -6.74215 0.197846)
(2.23213 -6.27171 0.286324)
(2.22191 -6.77808 0.294119)
(2.22615 -6.30699 0.364627)
(2.23238 -6.79651 0.360599)
(2.22848 -6.32262 0.423883)
(2.24005 -6.808 0.400349)
(2.22984 -6.3312 0.461523)
(2.24362 -6.81556 0.423415)
(2.22933 -6.3367 0.483966)
(2.24405 -6.82045 0.436624)
(2.2272 -6.3404 0.496845)
(2.51562 -6.76386 0.0748846)
(2.43353 -6.29069 0.202335)
(2.46591 -6.75669 0.171638)
(2.42225 -6.29189 0.28479)
(2.49046 -6.75654 0.269135)
(2.4542 -6.29052 0.373012)
(2.51951 -6.75578 0.340863)
(2.47948 -6.28497 0.441557)
(2.53833 -6.75617 0.385444)
(2.4934 -6.28128 0.485498)
(2.54891 -6.75703 0.41184)
(2.50022 -6.2795 0.511885)
(2.55423 -6.75762 0.427266)
(2.50292 -6.27846 0.527306)
(2.65897 -6.87731 0.0690003)
(2.53454 -6.40683 0.192217)
(2.62251 -6.82455 0.154254)
(2.53614 -6.36542 0.275497)
(2.65868 -6.79646 0.241876)
(2.58829 -6.33633 0.361824)
(2.69835 -6.77935 0.310614)
(2.62955 -6.313 0.43144)
(2.72432 -6.76988 0.354982)
(2.65304 -6.29853 0.477029)
(2.7394 -6.76473 0.381917)
(2.6655 -6.29014 0.504818)
(2.74767 -6.76154 0.398062)
(2.67177 -6.28485 0.521307)
(2.77406 -6.99974 0.0767191)
(2.61994 -6.52288 0.189026)
(2.73303 -6.92272 0.147139)
(2.61256 -6.46142 0.263319)
(2.76433 -6.87878 0.216096)
(2.66491 -6.41855 0.336179)
(2.80588 -6.85105 0.274029)
(2.71326 -6.38486 0.397903)
(2.83518 -6.83481 0.313417)
(2.74307 -6.36324 0.439874)
(2.85294 -6.82538 0.33807)
(2.75984 -6.35017 0.466128)
(2.8632 -6.81941 0.353231)
(2.76901 -6.34183 0.482193)
(2.87885 -7.12771 0.091773)
(2.70291 -6.6273 0.190842)
(2.83094 -7.03394 0.15269)
(2.68328 -6.55308 0.254885)
(2.84941 -6.98199 0.204253)
(2.7219 -6.50593 0.310568)
(2.88499 -6.94843 0.248429)
(2.76722 -6.46846 0.359138)
(2.91299 -6.92816 0.279769)
(2.79842 -6.44349 0.393578)
(2.93075 -6.91622 0.299844)
(2.81699 -6.42821 0.415532)
(2.94115 -6.90842 0.312336)
(2.82749 -6.41824 0.429097)
(2.96725 -7.24795 0.106194)
(2.77612 -6.7052 0.192964)
(2.91775 -7.13702 0.161207)
(2.75006 -6.61673 0.24862)
(2.92347 -7.07934 0.202355)
(2.77182 -6.56776 0.290727)
(2.94971 -7.04259 0.235976)
(2.80798 -6.53007 0.326653)
(2.97321 -7.02011 0.259804)
(2.83636 -6.50438 0.352466)
(2.98879 -7.0068 0.275009)
(2.85424 -6.4885 0.368919)
(2.99797 -6.99832 0.284286)
(2.86457 -6.47832 0.378896)
(3.03147 -7.35121 0.111707)
(2.83041 -6.75652 0.187565)
(2.98125 -7.22026 0.162396)
(2.80234 -6.6514 0.237766)
(2.97693 -7.15541 0.198404)
(2.81152 -6.59874 0.272091)
(2.99436 -7.11545 0.225608)
(2.83797 -6.56086 0.299513)
(3.01271 -7.09105 0.244125)
(2.86181 -6.53495 0.318839)
(3.02551 -7.07673 0.255624)
(2.87771 -6.51898 0.330937)
(3.03306 -7.06776 0.262417)
(2.887 -6.50885 0.338054)
(3.07438 -7.44252 0.107789)
(2.86622 -6.79118 0.173091)
(3.02449 -7.28877 0.153438)
(2.83922 -6.66562 0.219393)
(3.0131 -7.21381 0.186623)
(2.84059 -6.60632 0.24964)
(3.02271 -7.16993 0.209997)
(2.85863 -6.56726 0.271869)
(3.03614 -7.14353 0.224775)
(2.87777 -6.541 0.286737)
(3.04612 -7.1281 0.233422)
(2.89127 -6.52483 0.295637)
(3.052 -7.1186 0.238273)
(2.8992 -6.5147 0.300625)
(3.10106 -7.52167 0.0961857)
(2.88602 -6.81376 0.151825)
(3.04889 -7.34472 0.136072)
(2.85937 -6.66686 0.19361)
(3.03181 -7.25699 0.167235)
(2.85601 -6.5979 0.222623)
(3.03475 -7.20748 0.188547)
(2.86748 -6.55591 0.242469)
(3.0437 -7.17866 0.200756)
(2.88223 -6.52881 0.254524)
(3.05111 -7.162 0.207144)
(2.89337 -6.51228 0.261079)
(3.05546 -7.15186 0.210389)
(2.89992 -6.50203 0.264406)
(3.11501 -7.58676 0.0805314)
(2.89174 -6.82499 0.127321)
(3.05706 -7.38938 0.113074)
(2.86331 -6.65943 0.162661)
(3.03318 -7.28875 0.141466)
(2.85483 -6.58022 0.190442)
(3.02993 -7.23127 0.162172)
(2.8602 -6.53332 0.210041)
(3.0345 -7.19861 0.173202)
(2.87047 -6.50416 0.220974)
(3.03911 -7.18019 0.177882)
(2.87896 -6.48666 0.225955)
(3.04176 -7.16913 0.17968)
(2.88406 -6.47596 0.22797)
(3.11586 -7.63325 0.0637523)
(2.88336 -6.82231 0.102305)
(3.05085 -7.41856 0.0882596)
(2.85167 -6.64117 0.130033)
(3.01839 -7.30741 0.111481)
(2.83728 -6.55322 0.15446)
(3.00622 -7.24243 0.130191)
(2.83455 -6.50199 0.172797)
(3.00487 -7.20446 0.140649)
(2.83892 -6.47009 0.183317)
(3.00652 -7.18305 0.144473)
(2.84454 -6.45085 0.187747)
(3.00773 -7.17037 0.145289)
(2.84841 -6.43921 0.189093)
(3.09924 -7.65112 0.0481331)
(2.85741 -6.79931 0.0789029)
(3.02695 -7.42199 0.0653712)
(2.82093 -6.60552 0.0992852)
(2.98684 -7.30291 0.0824557)
(2.80123 -6.51034 0.119436)
(2.96581 -7.23297 0.0966825)
(2.79097 -6.45616 0.134729)
(2.95714 -7.19093 0.105225)
(2.78829 -6.42259 0.143878)
(2.95465 -7.16667 0.108254)
(2.7897 -6.40215 0.147869)
(2.95391 -7.15235 0.108489)
(2.79165 -6.38972 0.149029)
(3.05605 -7.62581 0.0345738)
(2.80594 -6.74608 0.0580283)
(2.97527 -7.38483 0.0456028)
(2.7617 -6.5427 0.0716273)
(2.92865 -7.25962 0.0572449)
(2.73636 -6.442 0.0875972)
(2.90101 -7.18709 0.0666246)
(2.72007 -6.38583 0.0994581)
(2.88603 -7.14368 0.072172)
(2.71112 -6.35194 0.106718)
(2.87889 -7.11813 0.0738672)
(2.70761 -6.33135 0.109926)
(2.87557 -7.10303 0.0735642)
(2.70675 -6.31884 0.111022)
(2.96516 -7.52474 0.0234172)
(2.70922 -6.63925 0.040089)
(2.8727 -7.27517 0.0299169)
(2.65162 -6.4308 0.0478456)
(2.8188 -7.14536 0.0372476)
(2.61803 -6.32722 0.0599613)
(2.78571 -7.07123 0.0429085)
(2.59556 -6.27003 0.069078)
(2.7663 -7.02819 0.0458945)
(2.58149 -6.23634 0.0748539)
(2.75553 -7.00323 0.0461971)
(2.5737 -6.21633 0.0773399)
(2.74976 -6.98885 0.0452642)
(2.56983 -6.2044 0.0781683)
(2.7807 -7.27402 0.0132688)
(2.52626 -6.42899 0.0239523)
(2.67127 -7.02549 0.0167486)
(2.44784 -6.22754 0.0270889)
(2.6079 -6.89586 0.0213252)
(2.40233 -6.12797 0.0360484)
(2.56878 -6.82183 0.025021)
(2.37213 -6.07267 0.042792)
(2.54558 -6.77986 0.0270453)
(2.35281 -6.04008 0.0476201)
(2.5322 -6.75614 0.0272428)
(2.34135 -6.02088 0.0498602)
(2.52481 -6.74319 0.0264575)
(2.33495 -6.00984 0.0506773)
(2.45795 -6.79033 0.00589504)
(2.23052 -6.07424 0.0116983)
(2.3333 -6.57294 0.0075486)
(2.13453 -5.91041 0.0122494)
(2.26207 -6.45853 0.010162)
(2.07986 -5.83001 0.0181008)
(2.21799 -6.39213 0.0126208)
(2.04399 -5.78377 0.0226034)
(2.19159 -6.35397 0.0142981)
(2.02102 -5.75541 0.0262688)
(2.17614 -6.33237 0.0150657)
(2.00721 -5.73839 0.0283509)
(2.16739 -6.32063 0.0150514)
(1.99922 -5.72856 0.0291726)
(2.07123 -6.17067 0.00214097)
(1.90175 -5.64963 0.00483591)
(1.9453 -6.02009 0.00268619)
(1.80051 -5.54685 0.00466883)
(1.87478 -5.93797 0.00423342)
(1.74469 -5.4954 0.00747445)
(1.83096 -5.88817 0.0057284)
(1.70876 -5.46326 0.00988981)
(1.80456 -5.85861 0.00687233)
(1.68602 -5.44192 0.0119777)
(1.78907 -5.84161 0.00776229)
(1.67244 -5.4287 0.0134781)
(1.77996 -5.83193 0.00804099)
(1.66447 -5.42073 0.0139662)
(1.72675 -5.58225 -0.000546553)
(1.61724 -5.24279 0.000532308)
(1.60671 -5.5042 -0.000353081)
(1.51394 -5.19667 0.000448587)
(1.54245 -5.45864 0.000254166)
(1.46033 -5.17244 0.00125196)
(1.50371 -5.42967 0.000935141)
(1.42759 -5.15507 0.00218912)
(1.48081 -5.4121 0.00152018)
(1.40763 -5.14241 0.00309364)
(1.46753 -5.4019 0.00224789)
(1.39596 -5.13436 0.00392529)
(1.45964 -5.3956 0.00262899)
(1.38909 -5.12913 0.00422815)
(1.44875 -5.07037 -0.00345004)
(1.38996 -4.87711 -0.00279357)
(1.33516 -5.05699 -0.00283812)
(1.28455 -4.87659 -0.00245309)
(1.2796 -5.04668 -0.00261266)
(1.23379 -4.87529 -0.00219754)
(1.24873 -5.03923 -0.00265493)
(1.20554 -4.87211 -0.00205709)
(1.23133 -5.0345 -0.00272592)
(1.18944 -4.86891 -0.00196188)
(1.22135 -5.03168 -0.00266773)
(1.18015 -4.86659 -0.00181747)
(1.21548 -5.02996 -0.00277858)
(1.17471 -4.86515 -0.00194964)
(0.282678 -5.60833 0.00615345)
(0.435837 -5.36414 0.0117608)
(0.271304 -5.62175 0.00575215)
(0.426406 -5.38063 0.0112031)
(0.263757 -5.63335 0.00517998)
(0.420503 -5.39433 0.0106037)
(0.257402 -5.64652 0.00426093)
(0.415799 -5.40958 0.00950289)
(0.249159 -5.6666 0.00239523)
(0.409671 -5.43233 0.00759648)
(0.226385 -5.70376 -0.000474021)
(0.388949 -5.47705 0.00555425)
(-0.281016 -6.70125 0.00898548)
(-0.0585865 -6.35987 0.014947)
(-0.297873 -6.71899 0.0102232)
(-0.0750471 -6.38246 0.0163128)
(-0.310115 -6.73411 0.0113084)
(-0.0866348 -6.40118 0.0171075)
(-0.322241 -6.75224 0.011966)
(-0.0977301 -6.42311 0.017297)
(-0.340384 -6.78345 0.0106933)
(-0.113821 -6.46053 0.0150238)
(-0.384876 -6.85282 0.0045969)
(-0.157312 -6.54667 0.00883617)
(-0.425697 -7.05247 0.0163043)
(-0.199064 -6.68539 0.0116677)
(-0.443745 -7.0705 0.0181597)
(-0.217121 -6.70789 0.0133326)
(-0.457178 -7.08523 0.0194686)
(-0.230322 -6.72597 0.0144059)
(-0.47106 -7.10225 0.0202509)
(-0.243776 -6.74679 0.014817)
(-0.492496 -7.13155 0.0193503)
(-0.264463 -6.78288 0.0132923)
(-0.543815 -7.2022 0.0123581)
(-0.317453 -6.87224 0.00617188)
(-0.474503 -7.2154 0.024461)
(-0.253851 -6.83097 0.00981264)
(-0.493036 -7.23307 0.0268522)
(-0.272671 -6.8529 0.0114674)
(-0.506919 -7.24727 0.0284181)
(-0.286566 -6.87038 0.0124032)
(-0.521444 -7.26342 0.0293967)
(-0.301022 -6.89029 0.0126777)
(-0.544183 -7.29074 0.0290338)
(-0.323892 -6.92426 0.0113596)
(-0.598452 -7.35801 0.0224974)
(-0.381129 -7.01001 0.00366869)
(-0.492843 -7.31859 0.0340261)
(-0.282059 -6.92074 0.00790317)
(-0.511657 -7.33587 0.0367737)
(-0.301554 -6.94196 0.00958707)
(-0.525797 -7.34967 0.03853)
(-0.316037 -6.95876 0.0105194)
(-0.540668 -7.36526 0.0396796)
(-0.331261 -6.97783 0.0108184)
(-0.564081 -7.39135 0.0398222)
(-0.355515 -7.01017 0.00974929)
(-0.619966 -7.45526 0.0348972)
(-0.415516 -7.0914 0.00267912)
(-0.494988 -7.3943 0.04543)
(-0.296738 -6.98494 0.00824987)
(-0.513992 -7.41123 0.0484197)
(-0.316875 -7.00551 0.00984731)
(-0.528319 -7.42467 0.0503072)
(-0.331908 -7.02173 0.0107126)
(-0.543448 -7.43981 0.0515836)
(-0.347796 -7.04012 0.0109827)
(-0.567323 -7.46504 0.0521393)
(-0.373116 -7.0711 0.0100544)
(-0.624202 -7.52624 0.0493756)
(-0.435337 -7.14806 0.00439174)
(-0.485 -7.45399 0.0594255)
(-0.301266 -7.03425 0.0123885)
(-0.504126 -7.47057 0.0625937)
(-0.321917 -7.05421 0.0139669)
(-0.518592 -7.4837 0.0645765)
(-0.337398 -7.06991 0.0147487)
(-0.533923 -7.49844 0.0659444)
(-0.353854 -7.08764 0.0148962)
(-0.558156 -7.52294 0.0668096)
(-0.380116 -7.11742 0.0139921)
(-0.615721 -7.58184 0.0660892)
(-0.44414 -7.19062 0.0098036)
(-0.46389 -7.5035 0.0774602)
(-0.294941 -7.07444 0.0210674)
(-0.483048 -7.51969 0.0807646)
(-0.315954 -7.0937 0.022708)
(-0.497589 -7.53246 0.0828063)
(-0.331781 -7.1088 0.023493)
(-0.513064 -7.54678 0.0842081)
(-0.348716 -7.12581 0.0236147)
(-0.537579 -7.57056 0.0852288)
(-0.37582 -7.1543 0.0227503)
(-0.595633 -7.6273 0.0859316)
(-0.441456 -7.22366 0.0196984)
(-0.428173 -7.54335 0.100285)
(-0.272815 -7.10521 0.0344901)
(-0.447286 -7.55914 0.103702)
(-0.29401 -7.12374 0.0362141)
(-0.461859 -7.57158 0.10576)
(-0.310061 -7.13822 0.0370048)
(-0.477455 -7.58547 0.107112)
(-0.327352 -7.15448 0.0370876)
(-0.50224 -7.60847 0.108085)
(-0.355119 -7.18164 0.0362252)
(-0.560726 -7.6629 0.109466)
(-0.42199 -7.24721 0.033838)
(-0.372898 -7.5728 0.128649)
(-0.229262 -7.1259 0.0528219)
(-0.391884 -7.58811 0.132127)
(-0.250497 -7.14372 0.0545845)
(-0.406451 -7.60013 0.134157)
(-0.266683 -7.15761 0.0553548)
(-0.42215 -7.61354 0.135398)
(-0.284251 -7.17318 0.0553589)
(-0.447203 -7.63572 0.13616)
(-0.312579 -7.19911 0.0543749)
(-0.506069 -7.68787 0.137435)
(-0.380421 -7.26132 0.052167)
(-0.289733 -7.58978 0.16406)
(-0.154843 -7.13438 0.0783175)
(-0.308436 -7.6046 0.167515)
(-0.175839 -7.15141 0.0800612)
(-0.322906 -7.61622 0.16942)
(-0.191969 -7.16465 0.0807072)
(-0.338652 -7.62914 0.170396)
(-0.209646 -7.17941 0.080441)
(-0.363935 -7.65049 0.170619)
(-0.238318 -7.2039 0.0789036)
(-0.423084 -7.70023 0.170826)
(-0.306715 -7.26192 0.0755041)
(-0.16331 -7.58848 0.205911)
(-0.0326048 -7.12308 0.111824)
(-0.181471 -7.60272 0.209256)
(-0.0530208 -7.13905 0.11354)
(-0.195692 -7.61386 0.210953)
(-0.0688973 -7.15142 0.114044)
(-0.211377 -7.62626 0.211554)
(-0.0865434 -7.1652 0.113461)
(-0.236776 -7.64673 0.211008)
(-0.115441 -7.18804 0.111214)
(-0.295913 -7.6941 0.209374)
(-0.184167 -7.24188 0.105968)
(0.0292188 -7.56094 0.254105)
(0.158306 -7.08384 0.156118)
(0.0120607 -7.57448 0.257178)
(0.138951 -7.09863 0.157694)
(-0.00163442 -7.5851 0.258517)
(0.12362 -7.11011 0.157927)
(-0.0170582 -7.59694 0.258553)
(0.106225 -7.12291 0.156833)
(-0.0423897 -7.61656 0.256888)
(0.0773388 -7.14416 0.153493)
(-0.101199 -7.66159 0.252535)
(0.00874071 -7.19395 0.145358)
(0.326151 -7.48768 0.306343)
(0.449655 -7.00087 0.212837)
(0.310828 -7.5002 0.309091)
(0.432229 -7.01416 0.214321)
(0.298116 -7.51013 0.31002)
(0.417948 -7.02456 0.214295)
(0.283166 -7.52134 0.309396)
(0.401127 -7.03625 0.212654)
(0.257902 -7.5401 0.306408)
(0.372495 -7.05581 0.208091)
(0.19921 -7.58283 0.298799)
(0.304406 -7.10142 0.196703)
(0.766987 -7.34593 0.360731)
(0.8719 -6.85381 0.286699)
(0.754406 -7.35699 0.36338)
(0.857396 -6.86515 0.288483)
(0.743203 -7.36594 0.364093)
(0.844791 -6.87415 0.28848)
(0.729107 -7.37628 0.363059)
(0.829077 -6.88444 0.286566)
(0.704305 -7.3939 0.359176)
(0.801389 -6.90192 0.281179)
(0.64682 -7.43374 0.349342)
(0.735568 -6.94249 0.26749)
(1.29619 -7.15403 0.403154)
(1.367 -6.66215 0.36918)
(1.28691 -7.16327 0.406143)
(1.35606 -6.67124 0.371815)
(1.27774 -7.1709 0.407069)
(1.34571 -6.67856 0.372296)
(1.26523 -7.17993 0.406218)
(1.33185 -6.68708 0.37068)
(1.24226 -7.19568 0.402542)
(1.30646 -6.70187 0.365463)
(1.18944 -7.23102 0.393284)
(1.24622 -6.7362 0.351993)
(1.80823 -6.96582 0.430409)
(1.83457 -6.47907 0.444811)
(1.80255 -6.97292 0.4345)
(1.82729 -6.48556 0.448804)
(1.79591 -6.97887 0.436326)
(1.81948 -6.49085 0.450257)
(1.7858 -6.98607 0.43647)
(1.80806 -6.49711 0.44961)
(1.76621 -6.999 0.434377)
(1.78618 -6.50831 0.445816)
(1.72097 -7.02799 0.428655)
(1.73402 -6.53444 0.4356)
(2.24364 -6.82388 0.445296)
(2.22468 -6.3429 0.505445)
(2.24118 -6.82844 0.450693)
(2.22063 -6.34645 0.511083)
(2.23711 -6.83223 0.453722)
(2.21532 -6.34929 0.513853)
(2.2299 -6.83689 0.455446)
(2.20669 -6.35267 0.514725)
(2.21494 -6.84564 0.456117)
(2.1893 -6.3591 0.513461)
(2.17994 -6.86546 0.456318)
(2.14746 -6.37444 0.509131)
(2.55648 -6.75785 0.437777)
(2.5031 -6.27742 0.537793)
(2.55698 -6.75961 0.444686)
(2.50183 -6.27796 0.545055)
(2.5556 -6.76088 0.449231)
(2.49894 -6.2782 0.549279)
(2.55181 -6.7624 0.453094)
(2.49333 -6.27842 0.552028)
(2.54291 -6.76584 0.457724)
(2.48123 -6.27954 0.554108)
(2.52119 -6.77407 0.466787)
(2.45127 -6.28258 0.55745)
(2.75256 -6.75863 0.409421)
(2.67496 -6.28025 0.53283)
(2.75566 -6.75775 0.41719)
(2.6766 -6.27794 0.54109)
(2.75672 -6.75661 0.422761)
(2.6762 -6.27571 0.54632)
(2.75605 -6.7551 0.428213)
(2.67359 -6.27291 0.55049)
(2.75268 -6.75333 0.435927)
(2.66666 -6.26886 0.55529)
(2.7428 -6.75023 0.451859)
(2.6476 -6.26009 0.565289)
(2.86991 -6.81413 0.3642)
(2.7746 -6.33459 0.493815)
(2.87505 -6.81125 0.371915)
(2.77863 -6.33024 0.502277)
(2.87805 -6.80825 0.377743)
(2.78027 -6.32621 0.507933)
(2.87994 -6.80437 0.383865)
(2.78016 -6.3212 0.512993)
(2.88119 -6.79852 0.393161)
(2.7776 -6.31341 0.519727)
(2.88128 -6.78648 0.412848)
(2.76814 -6.29545 0.53435)
(2.94853 -6.90176 0.321336)
(2.83457 -6.40962 0.438785)
(2.95461 -6.8975 0.327821)
(2.84018 -6.40408 0.446003)
(2.95857 -6.89321 0.332824)
(2.84324 -6.39897 0.450929)
(2.96175 -6.88768 0.338216)
(2.84489 -6.39257 0.455506)
(2.96541 -6.87903 0.346584)
(2.84548 -6.3825 0.461848)
(2.97084 -6.86084 0.364462)
(2.84312 -6.35867 0.475863)
(3.00435 -6.99077 0.290985)
(2.87156 -6.4692 0.386025)
(3.01002 -6.98577 0.295784)
(2.87748 -6.46328 0.391338)
(3.01374 -6.98063 0.299451)
(2.88092 -6.45768 0.394916)
(3.01674 -6.97398 0.303318)
(2.88313 -6.45061 0.398131)
(3.02035 -6.96342 0.309175)
(2.8849 -6.43943 0.402406)
(3.02625 -6.94127 0.321494)
(2.8857 -6.41289 0.41175)
(3.03808 -7.0596 0.267212)
(2.89315 -6.49958 0.343033)
(3.04276 -7.05408 0.270497)
(2.89853 -6.49361 0.346623)
(3.04565 -7.04832 0.272889)
(2.90156 -6.48782 0.348888)
(3.04769 -7.0408 0.275238)
(2.90335 -6.48048 0.350669)
(3.04982 -7.02878 0.278524)
(2.9046 -6.46884 0.352644)
(3.05319 -7.00385 0.285241)
(2.90493 -6.44133 0.356817)
(3.05564 -7.10987 0.241534)
(2.90422 -6.50533 0.303939)
(3.05914 -7.10389 0.243525)
(2.90862 -6.49938 0.306125)
(3.06097 -7.09757 0.244805)
(2.91082 -6.4935 0.307289)
(3.0617 -7.08926 0.245834)
(2.91165 -6.48599 0.307864)
(3.06167 -7.07591 0.246915)
(2.91138 -6.47416 0.307926)
(3.06104 -7.04859 0.249047)
(2.9091 -6.44631 0.308003)
(3.05782 -7.14256 0.212346)
(2.90377 -6.49252 0.266364)
(3.06013 -7.1361 0.213182)
(2.90702 -6.48657 0.267328)
(3.06084 -7.12919 0.213448)
(2.90823 -6.4806 0.267501)
(3.06014 -7.12004 0.213284)
(2.90787 -6.47292 0.266988)
(3.05767 -7.10523 0.212484)
(2.90568 -6.46082 0.265399)
(3.05241 -7.0753 0.211249)
(2.89994 -6.4325 0.262466)
(3.04277 -7.15906 0.180369)
(2.88679 -6.46606 0.228794)
(3.04384 -7.15194 0.179967)
(2.88903 -6.45987 0.22864)
(3.04342 -7.14427 0.179085)
(2.8894 -6.45358 0.227848)
(3.04133 -7.13403 0.177569)
(2.88811 -6.44543 0.226253)
(3.03657 -7.11726 0.174867)
(2.88447 -6.43256 0.223167)
(3.02717 -7.08361 0.17141)
(2.87616 -6.40271 0.218474)
(3.00775 -7.1591 0.144986)
(2.85036 -6.42857 0.189224)
(3.00799 -7.15088 0.143469)
(2.8519 -6.42182 0.188206)
(3.00683 -7.14211 0.141461)
(2.85173 -6.41499 0.186585)
(3.00381 -7.13038 0.138573)
(2.84985 -6.40611 0.184013)
(2.99741 -7.11103 0.134038)
(2.84524 -6.3921 0.179645)
(2.98461 -7.07285 0.129203)
(2.83489 -6.36029 0.174061)
(2.95274 -7.13983 0.107611)
(2.79252 -6.37844 0.149004)
(2.95214 -7.13039 0.105362)
(2.79327 -6.37111 0.147624)
(2.95036 -7.12047 0.102521)
(2.7926 -6.36378 0.145554)
(2.94665 -7.1072 0.0985372)
(2.79028 -6.35427 0.142371)
(2.93904 -7.0852 0.0924314)
(2.785 -6.33925 0.137112)
(2.9234 -7.04237 0.0864406)
(2.77309 -6.30599 0.131077)
(2.87274 -7.08988 0.0723761)
(2.70585 -6.30737 0.111207)
(2.87101 -7.07963 0.0697711)