/*--------------------------------*- C++ -*----------------------------------*\
| =========                 |                                                 |
| \\      /  F ield         | OpenFOAM: The Open Source CFD Toolbox           |
|  \\    /   O peration     | Version:  2206                                  |
|   \\  /    A nd           | Website:  www.openfoam.com                      |
|    \\/     M anipulation  |                                                 |
\*---------------------------------------------------------------------------*/
FoamFile
{
    version     2.0;
    format      ascii;
    arch        "LSB;label=32;scalar=64";
    class       volVectorField;
    location    "500";
    object      Urel;
}
// * * * * * * * * * * * * * * * * * * * * * * * * * * * * * * * * * * * * * //

dimensions      [0 1 -1 0 0 0 0];

internalField   nonuniform List<vector> 
50904
(
(-0.103253 -0.147124 0.0199833)
(-0.0670069 -0.076601 0.0227473)
(-0.10731 -0.423102 -0.00886269)
(-0.0291739 -0.345579 -0.0091057)
(-0.286913 -0.574555 0.0272483)
(-0.166196 -0.362925 0.0327092)
(-0.309484 -1.22269 -0.00357835)
(-0.106332 -0.99852 -0.00592418)
(-0.38775 -0.964738 0.0390159)
(-0.202736 -0.670293 0.0484043)
(-0.404023 -1.61102 0.0010687)
(-0.156229 -1.3338 -0.00326623)
(-0.414461 -1.16178 0.0475328)
(-0.200738 -0.842491 0.0580755)
(-0.436644 -1.75402 0.00525583)
(-0.178586 -1.4563 -0.000602084)
(-0.417781 -1.27287 0.0511645)
(-0.189576 -0.945941 0.0613784)
(-0.449047 -1.82169 0.00991806)
(-0.189393 -1.5124 0.00280243)
(-0.411494 -1.34862 0.0521392)
(-0.174689 -1.01997 0.060706)
(-0.451441 -1.85943 0.0155656)
(-0.193332 -1.54238 0.00749499)
(-0.398576 -1.40518 0.0523278)
(-0.156613 -1.07723 0.0579756)
(-0.446253 -1.88189 0.0219205)
(-0.191271 -1.55946 0.0133116)
(-0.378903 -1.44771 0.054423)
(-0.134561 -1.12127 0.0561316)
(-0.433454 -1.89462 0.0288245)
(-0.182695 -1.56847 0.0200688)
(-0.350759 -1.47658 0.0618804)
(-0.106668 -1.15148 0.0591582)
(-0.410749 -1.89815 0.036754)
(-0.165029 -1.56981 0.0283438)
(-0.310517 -1.49314 0.0770765)
(-0.070022 -1.16653 0.0705621)
(-0.375779 -1.89347 0.0469188)
(-0.135436 -1.56395 0.039487)
(-0.250884 -1.50061 0.103073)
(-0.018798 -1.16623 0.0940477)
(-0.323651 -1.87898 0.0606606)
(-0.0892566 -1.54815 0.0552431)
(-0.160684 -1.50004 0.141007)
(0.0571539 -1.15213 0.134354)
(-0.245567 -1.85186 0.0803777)
(-0.0179633 -1.51862 0.0794102)
(-0.0220428 -1.50165 0.182332)
(0.172175 -1.13219 0.188389)
(-0.128654 -1.81241 0.107665)
(0.0894907 -1.47395 0.115226)
(0.194979 -1.53284 0.205095)
(0.348056 -1.13096 0.240025)
(0.0524017 -1.7673 0.138501)
(0.25195 -1.42001 0.16241)
(0.52181 -1.64198 0.171085)
(0.606879 -1.2006 0.252889)
(0.33214 -1.74075 0.156844)
(0.488489 -1.37637 0.210019)
(0.87435 -1.83231 0.0703491)
(0.875158 -1.3705 0.196048)
(0.665778 -1.76798 0.13751)
(0.750334 -1.3843 0.22708)
(1.13742 -2.03861 -0.0403092)
(1.0679 -1.58451 0.105636)
(0.95728 -1.8576 0.0889464)
(0.964319 -1.46389 0.207219)
(1.29921 -2.22029 -0.122837)
(1.18582 -1.78976 0.0220414)
(1.17424 -1.98791 0.0349491)
(1.11505 -1.59467 0.166668)
(1.39023 -2.35991 -0.157881)
(1.25193 -1.95579 -0.0268976)
(1.32388 -2.12511 0.00229498)
(1.22098 -1.73976 0.1314)
(1.44251 -2.46735 -0.151269)
(1.28793 -2.0819 -0.0379657)
(1.43342 -2.25479 -0.00603174)
(1.30269 -1.87596 0.113033)
(1.47451 -2.56743 -0.112602)
(1.30773 -2.18568 -0.0178148)
(1.52136 -2.37841 0.0076832)
(1.37182 -1.99588 0.112844)
(1.49849 -2.68321 -0.0579514)
(1.3201 -2.2834 0.0207378)
(1.59851 -2.50865 0.0295343)
(1.43201 -2.10495 0.11993)
(1.51722 -2.81742 -0.00292331)
(1.33114 -2.37894 0.0619346)
(1.65784 -2.64158 0.0510953)
(1.47759 -2.19807 0.128008)
(1.53329 -2.95462 0.03488)
(1.34438 -2.46787 0.0867994)
(1.69791 -2.76494 0.0640623)
(1.50778 -2.27168 0.128629)
(1.5477 -3.09113 0.0545525)
(1.36017 -2.54999 0.0957835)
(1.72405 -2.87907 0.0669794)
(1.52597 -2.33008 0.121348)
(1.55761 -3.2194 0.0601265)
(1.37631 -2.62105 0.0934747)
(1.74 -2.97937 0.0628905)
(1.53424 -2.374 0.108817)
(1.56019 -3.33078 0.0569676)
(1.38924 -2.67684 0.0841541)
(1.74689 -3.06211 0.0548819)
(1.53307 -2.40295 0.0935508)
(1.5529 -3.41587 0.0489588)
(1.39499 -2.71369 0.0711295)
(1.74307 -3.1235 0.0454005)
(1.52138 -2.41481 0.077344)
(1.53175 -3.46332 0.0387781)
(1.38837 -2.72624 0.0570922)
(1.72426 -3.15411 0.0361308)
(1.49586 -2.40451 0.0616817)
(1.49167 -3.45957 0.028984)
(1.36169 -2.70543 0.0438436)
(1.6825 -3.13919 0.0274753)
(1.44943 -2.36217 0.0471501)
(1.41989 -3.37699 0.0207812)
(1.30064 -2.63036 0.0322371)
(1.59981 -3.04674 0.0199169)
(1.36564 -2.26459 0.0343688)
(1.28499 -3.14342 0.014441)
(1.1715 -2.44643 0.0224377)
(1.43531 -2.79977 0.0125832)
(1.20772 -2.05712 0.0222618)
(1.03499 -2.62716 0.00979288)
(0.924533 -2.05075 0.0143793)
(1.13723 -2.28779 0.00647027)
(0.937262 -1.66958 0.0117913)
(0.689975 -1.8425 0.00657872)
(0.597822 -1.44777 0.00819661)
(0.759746 -1.58353 0.00273981)
(0.614052 -1.16159 0.00514942)
(0.366539 -1.04139 0.00218564)
(0.309302 -0.823488 0.00252688)
(0.412919 -0.894347 -0.000439216)
(0.328396 -0.663809 0.00062956)
(0.109669 -0.335618 -0.0033694)
(0.0901558 -0.266456 -0.00267002)
(0.128278 -0.289221 -0.0043147)
(0.100396 -0.217518 -0.00361744)
(-0.2129 -0.533032 0.00552146)
(-0.117411 -0.39602 0.00872774)
(-0.37784 -0.737067 0.00449248)
(-0.251156 -0.564252 0.00868708)
(-0.474577 -0.829398 0.00625011)
(-0.33204 -0.645522 0.0114494)
(-0.532221 -0.881694 0.00695932)
(-0.379736 -0.694966 0.0124118)
(-0.566296 -0.914801 0.00691292)
(-0.407502 -0.727566 0.012476)
(-0.587598 -0.9376 0.00667755)
(-0.425033 -0.75077 0.0123807)
(-0.601871 -0.954518 0.00639503)
(-0.437071 -0.769763 0.012163)
(-0.535749 -1.4834 0.00286507)
(-0.316235 -1.17001 0.00563039)
(-0.833507 -1.78223 0.00135878)
(-0.602463 -1.45688 0.0059034)
(-0.979719 -1.89453 0.00237293)
(-0.748248 -1.58157 0.00696414)
(-1.06209 -1.95542 0.00383705)
(-0.829051 -1.653 0.00815117)
(-1.10997 -1.99412 0.00526048)
(-0.874905 -1.69917 0.00900202)
(-1.13993 -2.02142 0.00650967)
(-0.904071 -1.73224 0.0105035)
(-1.16066 -2.04258 0.00766836)
(-0.924856 -1.75875 0.0127529)
(-0.6444 -1.84639 0.00185676)
(-0.396492 -1.49403 0.00205195)
(-0.965086 -2.12907 0.00113936)
(-0.718205 -1.77091 0.00228064)
(-1.11696 -2.23993 0.0030734)
(-0.875125 -1.89731 0.00261326)
(-1.2017 -2.30253 0.00606418)
(-0.961136 -1.97206 0.00410837)
(-1.25127 -2.34281 0.00909434)
(-1.01048 -2.021 0.00588992)
(-1.28299 -2.3713 0.0117762)
(-1.04213 -2.05605 0.00778727)
(-1.30532 -2.39327 0.0140889)
(-1.06481 -2.08372 0.00971995)
(-0.681292 -1.99628 0.000194678)
(-0.427654 -1.62953 -0.0025609)
(-1.01148 -2.28132 0.00137449)
(-0.763208 -1.90742 -0.00225816)
(-1.16461 -2.39653 0.00498068)
(-0.923839 -2.03798 -0.00192861)
(-1.24986 -2.46255 0.00981095)
(-1.01204 -2.11594 0.000103284)
(-1.30007 -2.50464 0.0143945)
(-1.06334 -2.16646 0.00266403)
(-1.33241 -2.53398 0.0182595)
(-1.09649 -2.20203 0.00518671)
(-1.35533 -2.55619 0.0214775)
(-1.12031 -2.22969 0.00759129)
(-0.695119 -2.08179 -0.00232787)
(-0.441815 -1.70701 -0.008451)
(-1.03038 -2.37487 0.00197597)
(-0.7852 -1.99023 -0.00734821)
(-1.18345 -2.49523 0.00822327)
(-0.947793 -2.12502 -0.00627004)
(-1.26887 -2.56422 0.0153741)
(-1.03766 -2.20551 -0.00329177)
(-1.31952 -2.60757 0.0216202)
(-1.0906 -2.25703 0.00013393)
(-1.3523 -2.63728 0.0265907)
(-1.125 -2.2928 0.00306827)
(-1.37559 -2.65946 0.0305251)
(-1.14982 -2.32011 0.00562593)
(-0.696748 -2.13979 -0.00457045)
(-0.446513 -1.75985 -0.014112)
(-1.03462 -2.44271 0.00388948)
(-0.795008 -2.04966 -0.011735)
(-1.18709 -2.56793 0.0137368)
(-0.959239 -2.18801 -0.00870566)
(-1.27264 -2.63921 0.0234264)
(-1.05065 -2.27032 -0.00425855)
(-1.32367 -2.68335 0.0312284)
(-1.10507 -2.32235 -1.06444e-05)
(-1.35679 -2.71321 0.0371062)
(-1.14068 -2.358 0.00334418)
(-1.38036 -2.73523 0.0415786)
(-1.16643 -2.3849 0.00601986)
(-0.688943 -2.1824 -0.00555353)
(-0.443457 -1.79966 -0.0183632)
(-1.02777 -2.49608 0.00801302)
(-0.795545 -2.09626 -0.0140643)
(-1.17951 -2.62568 0.0221901)
(-0.961278 -2.2376 -0.0081337)
(-1.26521 -2.69865 0.0345048)
(-1.05444 -2.3208 -0.00189024)
(-1.31658 -2.74326 0.043748)
(-1.11038 -2.37292 0.00321935)
(-1.35001 -2.77311 0.0504082)
(-1.14719 -2.40823 0.00717192)
(-1.37379 -2.79489 0.055309)
(-1.17373 -2.43472 0.0100859)
(-0.672079 -2.21502 -0.00422829)
(-0.432473 -1.83164 -0.0196347)
(-1.01073 -2.54004 0.0154792)
(-0.786852 -2.13487 -0.0130269)
(-1.16181 -2.67363 0.0345872)
(-0.954031 -2.27887 -0.00368444)
(-1.24773 -2.74799 0.0497017)
(-1.04901 -2.36268 0.00470246)
(-1.29945 -2.7929 0.0604021)
(-1.10637 -2.41468 0.0109873)
(-1.33312 -2.82262 0.0678241)
(-1.14409 -2.4495 0.0154915)
(-1.35702 -2.84408 0.0731175)
(-1.1712 -2.47537 0.0186451)
(-0.643721 -2.23824 0.000495452)
(-0.410483 -1.85518 -0.0159859)
(-0.980582 -2.5746 0.0273904)
(-0.76529 -2.16485 -0.0073877)
(-1.13099 -2.7117 0.0516742)
(-0.933605 -2.3109 0.00554134)
(-1.2171 -2.78727 0.0696602)
(-1.02998 -2.39521 0.016005)
(-1.26909 -2.83243 0.081852)
(-1.08836 -2.44692 0.0233406)
(-1.3029 -2.86205 0.0900462)
(-1.12669 -2.48121 0.0284047)
(-1.32682 -2.8832 0.095731)
(-1.15413 -2.50642 0.0318935)
(-0.601823 -2.25267 0.00948422)
(-0.374615 -1.86951 -0.00671971)
(-0.93406 -2.59961 0.04483)
(-0.726778 -2.18565 0.00398059)
(-1.08311 -2.73973 0.0744292)
(-0.895085 -2.33318 0.0203564)
(-1.16901 -2.81622 0.0952962)
(-0.992107 -2.41758 0.0327117)
(-1.22098 -2.86143 0.108957)
(-1.05096 -2.46886 0.0409653)
(-1.25471 -2.89077 0.117891)
(-1.08954 -2.50256 0.0464557)
(-1.27846 -2.91146 0.123925)
(-1.11707 -2.527 0.0501471)
(-0.541054 -2.25663 0.0237845)
(-0.319214 -1.87307 0.0091302)
(-0.864865 -2.61268 0.0690216)
(-0.664158 -2.19517 0.0226584)
(-1.01119 -2.75485 0.104185)
(-0.830444 -2.34327 0.0420754)
(-1.09602 -2.83194 0.128063)
(-0.926892 -2.42745 0.0563063)
(-1.14739 -2.87712 0.143236)
(-0.985465 -2.47819 0.0656085)
(-1.18063 -2.90612 0.1529)
(-1.02375 -2.51122 0.0716518)
(-1.20391 -2.92632 0.159233)
(-1.05091 -2.53486 0.0755854)
(-0.452027 -2.24603 0.0442407)
(-0.234263 -1.86277 0.0332665)
(-0.761149 -2.60915 0.100081)
(-0.564638 -2.18885 0.0497558)
(-0.902081 -2.75222 0.14073)
(-0.725326 -2.33607 0.0718902)
(-0.984186 -2.82922 0.167539)
(-0.81901 -2.41898 0.0879342)
(-1.03389 -2.87394 0.184166)
(-0.875911 -2.46837 0.0982882)
(-1.06595 -2.90235 0.194498)
(-0.912992 -2.50008 0.104883)
(-1.08827 -2.92183 0.201054)
(-0.93915 -2.52246 0.109044)
(-0.322562 -2.21761 0.0710845)
(-0.107395 -1.83458 0.0670778)
(-0.606206 -2.58238 0.138239)
(-0.411858 -2.16029 0.0869829)
(-0.736876 -2.72414 0.18445)
(-0.561655 -2.30366 0.112231)
(-0.813196 -2.79981 0.214033)
(-0.649365 -2.38343 0.130355)
(-0.859207 -2.84335 0.231932)
(-0.702541 -2.43042 0.141869)
(-0.888751 -2.8707 0.242756)
(-0.737094 -2.46019 0.149024)
(-0.90926 -2.88919 0.249363)
(-0.761382 -2.48096 0.153356)
(-0.125316 -2.16218 0.102095)
(0.0823397 -1.77982 0.111241)
(-0.36495 -2.51329 0.179648)
(-0.17841 -2.09304 0.134951)
(-0.478804 -2.65072 0.232008)
(-0.310589 -2.22955 0.164097)
(-0.54496 -2.72367 0.264634)
(-0.387569 -2.30446 0.184808)
(-0.584694 -2.76528 0.283904)
(-0.43404 -2.34799 0.197789)
(-0.610198 -2.79109 0.295256)
(-0.46418 -2.37519 0.205653)
(-0.627954 -2.80826 0.301924)
(-0.485371 -2.39387 0.210217)
(0.166201 -2.07713 0.12972)
(0.349218 -1.69554 0.162104)
(-0.0115216 -2.38731 0.214504)
(0.153953 -1.97476 0.190477)
(-0.0970547 -2.51352 0.275652)
(0.0511998 -2.09759 0.226458)
(-0.145592 -2.57991 0.313736)
(-0.00764545 -2.16372 0.252339)
(-0.174504 -2.61754 0.335943)
(-0.0428536 -2.20163 0.268513)
(-0.193293 -2.64064 0.348785)
(-0.0658092 -2.22501 0.278144)
(-0.206838 -2.65583 0.3561)
(-0.082302 -2.24084 0.283571)
(0.512253 -1.99175 0.136105)
(0.646716 -1.61032 0.201401)
(0.400668 -2.23215 0.229646)
(0.528878 -1.83137 0.24115)
(0.354448 -2.33569 0.301827)
(0.467668 -1.93038 0.288387)
(0.330839 -2.39014 0.347174)
(0.434395 -1.98251 0.322834)
(0.317359 -2.42093 0.373713)
(0.414896 -2.0121 0.344492)
(0.30819 -2.43967 0.389006)
(0.401901 -2.03021 0.357394)
(0.300768 -2.45186 0.397688)
(0.391921 -2.04235 0.364682)
(0.837844 -1.949 0.120301)
(0.907488 -1.56784 0.217364)
(0.787285 -2.10104 0.222205)
(0.86793 -1.71278 0.273784)
(0.78398 -2.17187 0.307488)
(0.854224 -1.78004 0.335981)
(0.788596 -2.20894 0.362675)
(0.849367 -1.81392 0.381965)
(0.792335 -2.23022 0.394665)
(0.846651 -1.83304 0.411076)
(0.793635 -2.24341 0.413098)
(0.843869 -1.8448 0.428453)
(0.792711 -2.25197 0.423633)
(0.840387 -1.85267 0.438361)
(1.10329 -1.96872 0.0934102)
(1.1054 -1.59085 0.212819)
(1.10663 -2.02875 0.197846)
(1.13546 -1.65259 0.286324)
(1.14442 -2.06127 0.294119)
(1.16959 -1.683 0.364627)
(1.17607 -2.0777 0.360599)
(1.19266 -1.6959 0.423883)
(1.19539 -2.08805 0.400349)
(1.20546 -1.70294 0.461523)
(1.20579 -2.09496 0.423415)
(1.21168 -1.70753 0.483966)
(1.21049 -2.09949 0.436624)
(1.21377 -1.71069 0.496845)
(1.29289 -2.04297 0.0748846)
(1.23728 -1.67105 0.202335)
(1.33443 -2.03106 0.171638)
(1.31374 -1.66404 0.28479)
(1.40025 -2.02762 0.269135)
(1.38599 -1.65791 0.373012)
(1.45063 -2.02492 0.340863)
(1.4321 -1.64971 0.441557)
(1.48116 -2.02421 0.385444)
(1.45748 -1.64452 0.485498)
(1.49856 -2.02443 0.41184)
(1.47101 -1.64187 0.511885)
(1.50811 -2.02466 0.427266)
(1.47789 -1.6403 0.527306)
(1.4276 -2.14374 0.0690003)
(1.3307 -1.7777 0.192217)
(1.48079 -2.08695 0.154254)
(1.4185 -1.72878 0.275497)
(1.55752 -2.05612 0.241876)
(1.51023 -1.69544 0.361824)
(1.61817 -2.03742 0.310614)
(1.57197 -1.66977 0.43144)
(1.65568 -2.02704 0.354982)
(1.60676 -1.65398 0.477029)
(1.67752 -2.02138 0.381917)
(1.62586 -1.64482 0.504818)
(1.69 -2.0179 0.398062)
(1.6363 -1.63908 0.521307)
(1.53512 -2.25305 0.0767191)
(1.40966 -1.88372 0.189026)
(1.58204 -2.17299 0.147139)
(1.48683 -1.81567 0.263319)
(1.65312 -2.127 0.216096)
(1.578 -1.76917 0.336179)
(1.71528 -2.09808 0.274029)
(1.64646 -1.7335 0.397903)
(1.75595 -2.08118 0.313417)
(1.6874 -1.71077 0.439874)
(1.78039 -2.07138 0.33807)
(1.71074 -1.69706 0.466128)
(1.79484 -2.06521 0.353231)
(1.72406 -1.68835 0.482193)
(1.63181 -2.36735 0.091773)
(1.48572 -1.97763 0.190842)
(1.671 -2.27123 0.15269)
(1.54985 -1.89745 0.254885)
(1.72885 -2.21765 0.204253)
(1.62692 -1.84704 0.310568)
(1.78482 -2.18316 0.248429)
(1.69214 -1.80782 0.359138)
(1.82405 -2.16239 0.279769)
(1.73434 -1.78188 0.393578)
(1.8484 -2.1502 0.299844)
(1.75939 -1.76607 0.415532)
(1.86292 -2.1423 0.312336)
(1.77397 -1.75581 0.429097)
(1.71132 -2.47479 0.106194)
(1.55113 -2.04572 0.192964)
(1.74946 -2.36143 0.161207)
(1.60942 -1.95119 0.24862)
(1.79477 -2.30206 0.202355)
(1.66989 -1.89891 0.290727)
(1.84146 -2.26435 0.235976)
(1.72605 -1.85944 0.326653)
(1.87614 -2.24136 0.259804)
(1.76539 -1.83279 0.352466)
(1.8982 -2.2278 0.275009)
(1.78965 -1.81638 0.368919)
(1.91137 -2.21922 0.284286)
(1.80393 -1.80592 0.378896)
(1.76644 -2.56741 0.111707)
(1.59725 -2.08902 0.187565)
(1.80552 -2.43316 0.162396)
(1.6552 -1.97708 0.237766)
(1.84151 -2.36619 0.198404)
(1.70385 -1.92074 0.272091)
(1.87971 -2.32504 0.225608)
(1.75065 -1.88089 0.299513)
(1.90936 -2.30001 0.244125)
(1.78558 -1.85391 0.318839)
(1.92864 -2.28537 0.255624)
(1.80787 -1.83736 0.330937)
(1.94013 -2.27626 0.262417)
(1.82105 -1.82692 0.338054)
(1.80032 -2.64989 0.107789)
(1.62481 -2.11714 0.173091)
(1.84205 -2.49141 0.153438)
(1.68614 -1.98354 0.219393)
(1.872 -2.41366 0.186623)
(1.72805 -1.91998 0.24964)
(1.90289 -2.36825 0.209997)
(1.76696 -1.87866 0.271869)
(1.92785 -2.34102 0.224775)
(1.79743 -1.85117 0.286737)
(1.94439 -2.32516 0.233422)
(1.81739 -1.83433 0.295637)
(1.95421 -2.31546 0.238273)
(1.82923 -1.82384 0.300625)
(1.81847 -2.7218 0.0961857)
(1.63674 -2.13445 0.151825)
(1.86053 -2.53842 0.136072)
(1.701 -1.97804 0.19361)
(1.88596 -2.44712 0.167235)
(1.73937 -1.90414 0.222623)
(1.91076 -2.39566 0.188547)
(1.77231 -1.85952 0.242469)
(1.93151 -2.36579 0.200756)
(1.79867 -1.83101 0.254524)
(1.9456 -2.34857 0.207144)
(1.8164 -1.8137 0.261079)
(1.95393 -2.33815 0.210389)
(1.82689 -1.80302 0.264406)
(1.82458 -2.78095 0.0805314)
(1.63514 -2.14142 0.127321)
(1.86351 -2.57538 0.113074)
(1.70026 -1.96483 0.162661)
(1.88333 -2.47035 0.141466)
(1.73472 -1.87996 0.190442)
(1.90254 -2.4105 0.162172)
(1.76216 -1.83007 0.210041)
(1.9192 -2.37656 0.173202)
(1.78434 -1.7993 0.220974)
(1.93063 -2.35745 0.177882)
(1.79956 -1.78091 0.225955)
(1.93731 -2.34603 0.17968)
(1.80866 -1.76972 0.22797)
(1.81839 -2.82252 0.0637523)
(1.62017 -2.13527 0.102305)
(1.8528 -2.59793 0.0882596)
(1.68453 -1.94164 0.130033)
(1.86517 -2.4816 0.111481)
(1.71423 -1.84736 0.15446)
(1.87603 -2.41384 0.130191)
(1.73415 -1.79279 0.172797)
(1.88706 -2.37438 0.140649)
(1.75071 -1.75909 0.183317)
(1.89566 -2.35215 0.144473)
(1.7632 -1.73886 0.187747)
(1.90096 -2.33904 0.145289)
(1.77113 -1.72666 0.189093)
(1.79576 -2.83643 0.0481331)
(1.58862 -2.10952 0.0789029)
(1.82512 -2.5959 0.0653712)
(1.65036 -1.90198 0.0992852)
(1.83086 -2.47094 0.0824557)
(1.67577 -1.79988 0.119436)
(1.83338 -2.39786 0.0966825)
(1.68868 -1.74205 0.134729)
(1.83733 -2.35413 0.105225)
(1.69844 -1.70652 0.143878)
(1.84192 -2.32895 0.108254)
(1.70685 -1.685 0.147869)
(1.84533 -2.31413 0.108489)
(1.71292 -1.67196 0.149029)
(1.7475 -2.80795 0.0345738)
(1.53239 -2.05411 0.0580283)
(1.77031 -2.55422 0.0456028)
(1.58827 -1.83585 0.0716273)
(1.77042 -2.42252 0.0572449)
(1.60891 -1.7277 0.0875972)
(1.76677 -2.34653 0.0666246)
(1.61624 -1.66762 0.0994581)
(1.76464 -2.30125 0.072172)
(1.61997 -1.63162 0.106718)
(1.76469 -2.27469 0.0738672)
(1.62357 -1.60986 0.109926)
(1.76557 -2.25903 0.0735642)
(1.62687 -1.5967 0.111022)
(1.6524 -2.70434 0.0234172)
(1.43171 -1.94553 0.040089)
(1.66518 -2.44087 0.0299169)
(1.47584 -1.7212 0.0478456)
(1.65875 -2.30403 0.0372476)
(1.48899 -1.60971 0.0599613)
(1.65003 -2.22617 0.0429085)
(1.49051 -1.54837 0.069078)
(1.64366 -2.18112 0.0458945)
(1.48931 -1.51245 0.0748539)
(1.64017 -2.15506 0.0461971)
(1.48872 -1.4912 0.0773399)
(1.63865 -2.14008 0.0452642)
(1.48907 -1.47857 0.0781683)
(1.46455 -2.4516 0.0132688)
(1.24557 -1.73389 0.0239523)
(1.46168 -2.18823 0.0167486)
(1.27017 -1.51577 0.0270889)
(1.4464 -2.05115 0.0213252)
(1.27201 -1.40791 0.0360484)
(1.43196 -1.97316 0.025021)
(1.26612 -1.34827 0.042792)
(1.42196 -1.92906 0.0270453)
(1.25982 -1.31334 0.0476201)
(1.41594 -1.90418 0.0272428)
(1.25564 -1.29285 0.0498602)
(1.41283 -1.89059 0.0264575)
(1.25349 -1.28108 0.0506773)
(1.13899 -1.96631 0.00589504)
(0.947193 -1.37806 0.0116983)
(1.12203 -1.7333 0.0075486)
(0.95531 -1.1969 0.0122494)
(1.0994 -1.61107 0.010162)
(0.948497 -1.10791 0.0181008)
(1.08026 -1.54053 0.0126208)
(0.937196 -1.05717 0.0226034)
(1.06719 -1.50014 0.0142981)
(0.927383 -1.02639 0.0262688)
(1.05917 -1.47731 0.0150657)
(0.920921 -1.00803 0.0283509)
(1.05473 -1.4649 0.0150514)
(0.917214 -0.997445 0.0291726)
(0.749992 -1.34537 0.00214097)
(0.616269 -0.952595 0.00483591)
(0.732672 -1.17852 0.00268619)
(0.620035 -0.831946 0.00466883)
(0.711169 -1.08828 0.00423342)
(0.612489 -0.771656 0.00747445)
(0.692498 -1.03419 0.0057284)
(0.601339 -0.734886 0.00988981)
(0.679537 -1.00231 0.00687233)
(0.591862 -0.711056 0.0119777)
(0.671527 -0.984047 0.00776229)
(0.585685 -0.696459 0.0134781)
(0.666755 -0.973667 0.00804099)
(0.582023 -0.687711 0.0139662)
(0.403704 -0.755939 -0.000546553)
(0.33005 -0.545075 0.000532308)
(0.393005 -0.661097 -0.000353081)
(0.33247 -0.480659 0.000448587)
(0.378092 -0.607187 0.000254166)
(0.327464 -0.44739 0.00125196)
(0.364669 -0.573798 0.000935141)
(0.319672 -0.425288 0.00218912)
(0.355293 -0.55385 0.00152018)
(0.31306 -0.410083 0.00309364)
(0.349534 -0.542348 0.00224789)
(0.308835 -0.400627 0.00392529)
(0.346003 -0.535327 0.00262899)
(0.306294 -0.394601 0.00422815)
(0.124271 -0.243254 -0.00345004)
(0.101416 -0.178857 -0.00279357)
(0.1206 -0.212673 -0.00283812)
(0.102292 -0.159701 -0.00245309)
(0.11465 -0.193826 -0.00261266)
(0.100397 -0.149204 -0.00219754)
(0.10923 -0.18186 -0.00265493)
(0.0972274 -0.141211 -0.00205709)
(0.10542 -0.174701 -0.00272592)
(0.0945431 -0.135423 -0.00196188)
(0.102996 -0.17055 -0.00266773)
(0.0927315 -0.131673 -0.00181747)
(0.1015 -0.168093 -0.00277858)
(0.0916366 -0.129424 -0.00194964)
(-0.613111 -0.969416 0.00615345)
(-0.445974 -0.787291 0.0117608)
(-0.621679 -0.982711 0.00575215)
(-0.45262 -0.803548 0.0112031)
(-0.626848 -0.994234 0.00517998)
(-0.456225 -0.817073 0.0106037)
(-0.630308 -1.00739 0.00426093)
(-0.458176 -0.832163 0.00950289)
(-0.633524 -1.02751 0.00239523)
(-0.459538 -0.854682 0.00759648)
(-0.644235 -1.06472 -0.000474021)
(-0.468593 -0.898823 0.00555425)
(-1.17793 -2.06223 0.00898548)
(-0.94149 -1.78301 0.014947)
(-1.19198 -2.07984 0.0102232)
(-0.955167 -1.80537 0.0163128)
(-1.20185 -2.09489 0.0113084)
(-0.964457 -1.82391 0.0171075)
(-1.21108 -2.113 0.011966)
(-0.9728 -1.84568 0.017297)
(-1.2242 -2.14425 0.0106933)
(-0.984125 -1.88287 0.0150238)
(-1.25663 -2.21367 0.0045969)
(-1.01595 -1.96843 0.00883617)
(-1.32403 -2.41332 0.0163043)
(-1.08335 -2.10852 0.0116677)
(-1.33928 -2.43122 0.0181597)
(-1.09862 -2.13079 0.0133326)
(-1.35033 -2.44587 0.0194686)
(-1.10952 -2.14869 0.0144059)
(-1.36132 -2.46287 0.0202509)
(-1.12023 -2.16935 0.014817)
(-1.37773 -2.49221 0.0193503)
(-1.13615 -2.20521 0.0132923)
(-1.417 -2.56291 0.0123581)
(-1.17748 -2.29399 0.00617188)
(-1.37463 -2.57608 0.024461)
(-1.13987 -2.25409 0.00981264)
(-1.39036 -2.59362 0.0268522)
(-1.15591 -2.27579 0.0114674)
(-1.40187 -2.60774 0.0284181)
(-1.16751 -2.29309 0.0124032)
(-1.4135 -2.62387 0.0293967)
(-1.17921 -2.31284 0.0126777)
(-1.43121 -2.65123 0.0290338)
(-1.19732 -2.34658 0.0113596)
(-1.47344 -2.71855 0.0224974)
(-1.24291 -2.43175 0.00366869)
(-1.39523 -2.67905 0.0340261)
(-1.17027 -2.34385 0.00790317)
(-1.41124 -2.6962 0.0367737)
(-1.18699 -2.36483 0.00958707)
(-1.42301 -2.70992 0.03853)
(-1.19917 -2.38146 0.0105194)
(-1.43499 -2.72549 0.0396796)
(-1.21165 -2.40036 0.0108184)
(-1.45338 -2.75162 0.0398222)
(-1.23114 -2.43247 0.00974929)
(-1.49723 -2.81558 0.0348972)
(-1.2795 -2.51312 0.00267912)
(-1.40023 -2.7545 0.04543)
(-1.18772 -2.40803 0.00824987)
(-1.41643 -2.77129 0.0484197)
(-1.20507 -2.42836 0.00984731)
(-1.42838 -2.78465 0.0503072)
(-1.21781 -2.4444 0.0107126)
(-1.44062 -2.79977 0.0515836)
(-1.23095 -2.46263 0.0109827)
(-1.45948 -2.82503 0.0521393)
(-1.25151 -2.49338 0.0100544)
(-1.50433 -2.88628 0.0493756)
(-1.3021 -2.56976 0.00439174)
(-1.3938 -2.81378 0.0594255)
(-1.1957 -2.45725 0.0123885)
(-1.41013 -2.83023 0.0625937)
(-1.21357 -2.47697 0.0139669)
(-1.42222 -2.84327 0.0645765)
(-1.22676 -2.49249 0.0147487)
(-1.43466 -2.85798 0.0659444)
(-1.24047 -2.51006 0.0148962)
(-1.45388 -2.88252 0.0668096)
(-1.26197 -2.5396 0.0139921)
(-1.49944 -2.94147 0.0660892)
(-1.31437 -2.61223 0.0098036)
(-1.37707 -2.86253 0.0774602)
(-1.19362 -2.49714 0.0210674)
(-1.39343 -2.87857 0.0807646)
(-1.21185 -2.51615 0.022708)
(-1.4056 -2.89125 0.0828063)
(-1.22539 -2.53107 0.023493)
(-1.41819 -2.90554 0.0842081)
(-1.23958 -2.54791 0.0236147)
(-1.43769 -2.92934 0.0852288)
(-1.26193 -2.57616 0.0227503)
(-1.48375 -2.98612 0.0859316)
(-1.31596 -2.64493 0.0196984)
(-1.34679 -2.90122 0.100285)
(-1.17678 -2.52739 0.0344901)
(-1.36311 -2.91686 0.103702)
(-1.1952 -2.54567 0.0362141)
(-1.37531 -2.9292 0.10576)
(-1.20896 -2.55996 0.0370048)
(-1.38802 -2.94305 0.107112)
(-1.22351 -2.57605 0.0370876)
(-1.4078 -2.96606 0.108085)
(-1.24652 -2.60295 0.0362252)
(-1.45432 -3.0205 0.109466)
(-1.30181 -2.66792 0.033838)
(-1.29821 -2.92889 0.128649)
(-1.13971 -2.54715 0.0528219)
(-1.3144 -2.94403 0.132127)
(-1.15817 -2.56471 0.0545845)
(-1.3266 -2.95594 0.134157)
(-1.17207 -2.5784 0.0553548)
(-1.33941 -2.96929 0.135398)
(-1.18689 -2.59379 0.0553589)
(-1.35945 -2.99146 0.13616)
(-1.21047 -2.61945 0.0543749)
(-1.40638 -3.04359 0.137435)
(-1.26674 -2.68103 0.052167)
(-1.22317 -2.94316 0.16406)
(-1.07313 -2.55408 0.0783175)
(-1.23908 -2.95778 0.167515)
(-1.09135 -2.57083 0.0800612)
(-1.25118 -2.96927 0.16942)
(-1.1052 -2.58386 0.0807072)
(-1.26404 -2.98211 0.170396)
(-1.12013 -2.59842 0.080441)
(-1.28431 -3.00342 0.170619)
(-1.14406 -2.62261 0.0789036)
(-1.33154 -3.05307 0.170826)
(-1.2009 -2.67996 0.0755041)
(-1.10661 -2.93785 0.205911)
(-0.960409 -2.54036 0.111824)
(-1.12198 -2.95186 0.209256)
(-0.978054 -2.55602 0.11354)
(-1.13383 -2.96283 0.210953)
(-0.991643 -2.56816 0.114044)
(-1.14663 -2.97513 0.211554)
(-1.00655 -2.58171 0.113461)
(-1.16701 -2.9955 0.211008)
(-1.0307 -2.60422 0.111214)
(-1.21425 -3.04269 0.209374)
(-1.08789 -2.65731 0.105968)
(-0.92586 -2.90418 0.254105)
(-0.780853 -2.49727 0.156118)
(-0.940225 -2.91743 0.257178)
(-0.797436 -2.51171 0.157694)
(-0.951549 -2.92784 0.258517)
(-0.81048 -2.52293 0.157927)
(-0.964081 -2.93953 0.258553)
(-0.825132 -2.53547 0.156833)
(-0.984388 -2.95898 0.256888)
(-0.849268 -2.55633 0.153493)
(-1.03131 -3.00367 0.252535)
(-0.90635 -2.60526 0.145358)
(-0.642837 -2.82206 0.306343)
(-0.502878 -2.40845 0.212837)
(-0.655375 -2.83421 0.309091)
(-0.517539 -2.42133 0.214321)
(-0.665713 -2.84386 0.31002)
(-0.529531 -2.43141 0.214295)
(-0.677755 -2.85485 0.309396)
(-0.543599 -2.44279 0.212654)
(-0.697956 -2.87332 0.306408)
(-0.567457 -2.46188 0.208091)
(-0.744766 -2.91551 0.298799)
(-0.624037 -2.50648 0.196703)
(-0.2182 -2.6677 0.360731)
(-0.096018 -2.25296 0.286699)
(-0.228003 -2.67827 0.36338)
(-0.107763 -2.2638 0.288483)
(-0.236814 -2.68685 0.364093)
(-0.118068 -2.27242 0.28848)
(-0.247962 -2.69687 0.363059)
(-0.131002 -2.28232 0.286566)
(-0.267621 -2.71406 0.359176)
(-0.153862 -2.29923 0.281179)
(-0.313227 -2.75309 0.349342)
(-0.20819 -2.33859 0.26749)
(0.294529 -2.46101 0.403154)
(0.383554 -2.05135 0.36918)
(0.28803 -2.46965 0.406143)
(0.375373 -2.05984 0.371815)
(0.281279 -2.47682 0.407069)
(0.36734 -2.0667 0.372296)
(0.271771 -2.48543 0.406218)
(0.356294 -2.07477 0.37068)
(0.254041 -2.50059 0.402542)
(0.335797 -2.08887 0.365463)
(0.213091 -2.53484 0.393284)
(0.287025 -2.12181 0.351993)
(0.791603 -2.2581 0.430409)
(0.837113 -1.85828 0.444811)
(0.788708 -2.26451 0.4345)
(0.83259 -1.86409 0.448804)
(0.784516 -2.26992 0.436326)
(0.827113 -1.86886 0.450257)
(0.777462 -2.27662 0.43647)
(0.81854 -1.87461 0.44961)
(0.763212 -2.28884 0.434377)
(0.801614 -1.88504 0.445816)
(0.729838 -2.31654 0.428655)
(0.760892 -1.90966 0.4356)
(1.21336 -2.10251 0.445296)
(1.21452 -1.71268 0.505445)
(1.21369 -2.10631 0.450693)
(1.21322 -1.7155 0.511083)
(1.21209 -2.10952 0.453722)
(1.21025 -1.71778 0.513853)
(1.20799 -2.11364 0.455446)
(1.2045 -1.72061 0.514725)
(1.19847 -2.12162 0.456117)
(1.19211 -1.72624 0.513461)
(1.17533 -2.14008 0.456318)
(1.16167 -1.74005 0.509131)
(1.51364 -2.02451 0.437777)
(1.48135 -1.63878 0.537793)
(1.51693 -2.02549 0.444686)
(1.48282 -1.63855 0.545055)
(1.51805 -2.02616 0.449231)
(1.48228 -1.6382 0.549279)
(1.5174 -2.02714 0.453094)
(1.47954 -1.63787 0.552028)
(1.51401 -2.02984 0.457724)
(1.47246 -1.63821 0.554108)
(1.50414 -2.03679 0.466787)
(1.45385 -1.63986 0.55745)
(1.69817 -2.01467 0.409421)
(1.64276 -1.63405 0.53283)
(1.70406 -2.013 0.41719)
(1.64713 -1.63091 0.54109)
(1.70763 -2.01127 0.422761)
(1.64905 -1.62807 0.54632)
(1.71012 -2.00925 0.428213)
(1.6493 -1.62473 0.55049)
(1.71231 -2.00682 0.435927)
(1.64736 -1.61997 0.55529)
(1.7143 -2.00268 0.451859)
(1.63964 -1.61013 0.565289)
(1.80484 -2.05968 0.3642)
(1.73293 -1.68073 0.493815)
(1.81276 -2.05601 0.371915)
(1.73966 -1.67551 0.502277)
(1.81828 -2.05244 0.377743)
(1.7436 -1.67085 0.507933)
(1.82336 -2.04809 0.383865)
(1.74634 -1.66533 0.512993)
(1.83022 -2.04169 0.393161)
(1.74875 -1.65693 0.519727)
(1.84221 -2.02892 0.412848)
(1.75063 -1.63826 0.53435)
(1.87351 -2.13539 0.321336)
(1.78425 -1.74682 0.438785)
(1.88234 -2.13034 0.327821)
(1.79252 -1.74036 0.446003)
(1.88883 -2.12547 0.332824)
(1.79787 -1.7346 0.450929)
(1.89525 -2.1195 0.338216)
(1.80237 -1.7277 0.455506)
(1.90463 -2.11039 0.346584)
(1.80798 -1.71708 0.461848)
(1.92203 -2.09176 0.364462)
(1.81699 -1.69287 0.475863)
(1.92089 -2.21147 0.290985)
(1.81404 -1.79647 0.386025)
(1.92931 -2.20567 0.295784)
(1.8226 -1.7896 0.391338)
(1.93559 -2.19994 0.299451)
(1.82835 -1.78332 0.394916)
(1.94192 -2.19286 0.303318)
(1.83346 -1.77574 0.398131)
(1.9514 -2.18186 0.309175)
(1.84036 -1.76404 0.402406)
(1.96933 -2.15942 0.321494)
(1.85256 -1.73727 0.41175)
(1.94826 -2.2679 0.267212)
(1.83029 -1.81732 0.343033)
(1.95568 -2.26155 0.270497)
(1.83829 -1.81036 0.346623)
(1.96117 -2.25518 0.272889)
(1.84365 -1.80385 0.348888)
(1.96662 -2.2472 0.275238)
(1.8484 -1.79598 0.350669)
(1.97476 -2.23471 0.278524)
(1.85488 -1.78379 0.352644)
(1.99024 -2.20951 0.285241)
(1.86666 -1.7561 0.356817)
(1.96095 -2.30649 0.241534)
(1.83733 -1.81412 0.303939)
(1.9672 -2.29963 0.243525)
(1.84435 -1.80711 0.306125)
(1.97166 -2.29265 0.244805)
(1.8489 -1.80047 0.307289)
(1.97586 -2.28384 0.245834)
(1.85274 -1.79239 0.307864)
(1.98197 -2.26995 0.246915)
(1.85779 -1.77995 0.307926)
(1.99355 -2.24227 0.249047)
(1.86704 -1.75188 0.308003)
(1.9594 -2.32857 0.212346)
(1.83383 -1.79312 0.266364)
(1.96447 -2.32116 0.213182)
(1.8397 -1.78605 0.267328)
(1.96784 -2.31354 0.213448)
(1.84329 -1.77927 0.267501)
(1.97067 -2.30383 0.213284)
(1.84599 -1.77097 0.266988)
(1.97445 -2.28838 0.212484)
(1.8492 -1.7582 0.265399)
(1.98149 -2.25795 0.211249)
(1.85507 -1.72957 0.262466)
(1.94144 -2.33563 0.180369)
(1.81449 -1.75938 0.228794)
(1.94528 -2.3275 0.179967)
(1.81936 -1.75201 0.22864)
(1.94755 -2.31906 0.179085)
(1.82213 -1.74486 0.227848)
(1.94904 -2.30819 0.177569)
(1.82394 -1.73604 0.226253)
(1.95062 -2.29069 0.174867)
(1.82578 -1.72242 0.223167)
(1.95362 -2.25638 0.17141)
(1.82916 -1.69216 0.218474)
(1.90412 -2.32738 0.144986)
(1.7762 -1.71555 0.189224)
(1.90713 -2.31809 0.143469)
(1.78038 -1.70755 0.188206)
(1.90869 -2.30849 0.141461)
(1.78263 -1.69981 0.186585)
(1.90929 -2.29606 0.138573)
(1.78388 -1.6902 0.184013)
(1.90931 -2.27586 0.134038)
(1.78481 -1.67536 0.179645)
(1.90899 -2.23683 0.129203)
(1.78623 -1.64302 0.174061)
(1.84732 -2.30117 0.107611)
(1.71693 -1.66017 0.149004)
(1.8495 -2.2906 0.105362)
(1.72032 -1.65154 0.147624)
(1.85046 -2.2798 0.102521)
(1.72209 -1.64325 0.145554)
(1.85041 -2.26577 0.0985372)
(1.72293 -1.63297 0.142371)
(1.84928 -2.24281 0.0924314)