/*--------------------------------*- C++ -*----------------------------------*\
| =========                 |                                                 |
| \\      /  F ield         | OpenFOAM: The Open Source CFD Toolbox           |
|  \\    /   O peration     | Version:  2212                                  |
|   \\  /    A nd           | Website:  www.openfoam.com                      |
|    \\/     M anipulation  |                                                 |
\*---------------------------------------------------------------------------*/
FoamFile
{
    version     2.0;
    format      ascii;
    arch        "LSB;label=32;scalar=64";
    class       volScalarField;
    location    "0.08";
    object      alphat;
}
// * * * * * * * * * * * * * * * * * * * * * * * * * * * * * * * * * * * * * //

dimensions      [1 -1 -1 0 0 0 0];

internalField   nonuniform List<scalar> 
3072
(
0.000277052
0.000596855
0.00064176
0.000641259
0.000636536
0.000610357
0.000595235
0.000670962
0.0011651
0.00158214
0.00172307
0.00178722
0.000448373
0.00129631
0.00183931
0.00206144
0.00176646
0.00102798
0.000921568
0.00163518
0.00200129
0.00321048
0.00438998
0.0061248
0.00057614
0.00213815
0.00288487
0.00301052
0.00260555
0.00241047
0.00239455
0.00340441
0.00518572
0.00761549
0.0101825
0.0126657
0.0007294
0.00336593
0.00366879
0.00319024
0.00302676
0.00305136
0.00406492
0.00659146
0.00933735
0.0124401
0.0153793
0.0179803
0.000862588
0.00399917
0.00404028
0.00365808
0.00365572
0.00448632
0.00682203
0.0100861
0.0132427
0.0164372
0.0193812
0.0219782
0.00098906
0.00453213
0.00459626
0.00434616
0.00485144
0.00685137
0.0100045
0.0132006
0.0163244
0.0193959
0.0222236
0.0247516
0.00110028
0.0051394
0.00558632
0.00568399
0.00700394
0.00982173
0.012827
0.0157872
0.018698
0.0214727
0.0240966
0.0265056
0.00123589
0.00649034
0.00771986
0.00877167
0.0109386
0.0134
0.0158945
0.01841
0.0209386
0.0233482
0.0256187
0.0277147
0.00139797
0.00880533
0.0115759
0.0138908
0.0159553
0.0178305
0.0196454
0.0214615
0.0233124
0.0251201
0.0268683
0.0285386
0.0016225
0.0106055
0.0147208
0.0175543
0.0196058
0.0211779
0.0225291
0.0237931
0.025021
0.0262446
0.0274913
0.0287764
0.00183587
0.00990193
0.0158877
0.0193389
0.0216149
0.0230186
0.0242933
0.025203
0.0260314
0.0268595
0.0277338
0.0286873
0.00306518
0.00933439
0.0167374
0.0207507
0.0227236
0.0244681
0.025569
0.0263535
0.0269813
0.027573
0.0281993
0.0289105
0.00183685
0.00186133
0.00187582
0.0018785
0.00187998
0.00185121
0.00180742
0.00173232
0.00162898
0.00148774
0.00127887
0.000608352
0.00784046
0.00941622
0.0105185
0.0109904
0.0107811
0.0102136
0.00923496
0.00788899
0.00610405
0.0037309
0.00182369
0.00105755
0.0148042
0.0164373
0.0174604
0.0178582
0.017642
0.0168624
0.0154655
0.0134329
0.0107249
0.00734726
0.00327306
0.00141
0.020183
0.0219097
0.02311
0.0237482
0.0237767
0.0231337
0.0217261
0.0194295
0.0160436
0.0115839
0.00577262
0.00172343
0.0242135
0.0260481
0.0274472
0.0283693
0.0287438
0.0284447
0.0272955
0.0250481
0.0212717
0.0158318
0.0085153
0.00203651
0.0269754
0.0288754
0.0304273
0.0315928
0.032304
0.0324514
0.031824
0.030041
0.0265238
0.0204666
0.0118337
0.00235862
0.0286612
0.0305577
0.0321883
0.033534
0.0345668
0.0352176
0.0352597
0.0342089
0.0312482
0.0251842
0.0153723
0.00269796
0.0296326
0.0313848
0.0329666
0.0343799
0.0356542
0.0367705
0.0375588
0.0375119
0.0355227
0.0297496
0.0188346
0.0030738
0.0300937
0.0315397
0.0329659
0.0343739
0.0357758
0.0372231
0.0386414
0.0396407
0.0389967
0.0340694
0.0220341
0.00349239
0.0300375
0.0312245
0.0324348
0.0338146
0.0353389
0.0369946
0.038803
0.0406382
0.041434
0.0381378
0.0257669
0.00393944
0.0298063
0.0310785
0.0321379
0.0332483
0.0347768
0.0365614
0.0385104
0.0407248
0.0426064
0.0415659
0.0302456
0.00443472
0.0298187
0.031163
0.0323824
0.0333578
0.0346127
0.0363256
0.0381668
0.0403505
0.0426255
0.0435391
0.0349656
0.00500862
0.000277053
0.000596858
0.000641761
0.000641261
0.000636538
0.000610358
0.000595236
0.000670964
0.00116511
0.00158214
0.00172307
0.00178722
0.000448374
0.00129632
0.00183931
0.00206144
0.00176645
0.00102798
0.000921572
0.00163518
0.0020013
0.00321049
0.00439
0.00612483
0.000576142
0.00213815
0.00288487
0.00301051
0.00260554
0.00241047
0.00239456
0.00340444
0.00518576
0.00761554
0.0101825
0.0126657
0.000729403
0.00336594
0.00366878
0.00319023
0.00302676
0.00305137
0.00406496
0.00659151
0.00933742
0.0124402
0.0153794
0.0179803
0.000862592
0.00399918
0.00404029
0.00365809
0.00365573
0.00448635
0.00682211
0.0100862
0.0132428
0.0164372
0.0193813
0.0219783
0.000989063
0.00453214
0.00459628
0.00434618
0.00485148
0.00685146
0.0100046
0.0132007
0.0163245
0.019396
0.0222237
0.0247517
0.00110028
0.00513943
0.00558636
0.00568404
0.00700405
0.00982185
0.0128271
0.0157873
0.0186981
0.0214728
0.0240967
0.0265057
0.00123589
0.00649037
0.00771992
0.00877177
0.0109387
0.0134001
0.0158946
0.0184101
0.0209388
0.0233483
0.0256188
0.0277149
0.00139797
0.00880535
0.011576
0.0138909
0.0159554
0.0178306
0.0196455
0.0214616
0.0233125
0.0251202
0.0268684
0.0285387
0.0016225
0.0106055
0.0147208
0.0175543
0.0196058
0.0211779
0.0225291
0.0237931
0.0250211
0.0262447
0.0274914
0.0287765
0.00183587
0.00990193
0.0158877
0.019339
0.0216149
0.0230186
0.0242933
0.025203
0.0260314
0.0268596
0.0277338
0.0286874
0.00306518
0.00933439
0.0167374
0.0207507
0.0227236
0.0244681
0.025569
0.0263535
0.0269813
0.0275731
0.0281994
0.0289105
0.00183685
0.00186134
0.00187582
0.0018785
0.00187998
0.00185121
0.00180742
0.00173232
0.00162898
0.00148774
0.00127887
0.000608352
0.0078405
0.00941626
0.0105185
0.0109905
0.0107811
0.0102137
0.00923498
0.00788901
0.00610406
0.0037309
0.00182369
0.00105755
0.0148043
0.0164374
0.0174605
0.0178582
0.017642
0.0168625
0.0154656
0.0134329
0.010725
0.00734727
0.00327307
0.00141
0.0201831
0.0219098
0.0231101
0.0237482
0.0237768
0.0231337
0.0217261
0.0194296
0.0160437
0.0115839
0.00577263
0.00172343
0.0242135
0.0260482
0.0274473
0.0283694
0.0287438
0.0284448
0.0272956
0.0250481
0.0212718
0.0158319
0.00851532
0.00203651
0.0269755
0.0288755
0.0304274
0.0315929
0.0323041
0.0324515
0.0318241
0.030041
0.0265239
0.0204667
0.0118337
0.00235862
0.0286613
0.0305578
0.0321884
0.0335341
0.0345669
0.0352177
0.0352598
0.034209
0.0312483
0.0251842
0.0153723
0.00269796
0.0296327
0.0313849
0.0329668
0.0343801
0.0356543
0.0367707
0.0375589
0.037512
0.0355228
0.0297497
0.0188346
0.0030738
0.0300938
0.0315399
0.032966
0.034374
0.035776
0.0372232
0.0386415
0.0396408
0.0389968
0.0340695
0.0220341
0.00349239
0.0300376
0.0312246
0.0324349
0.0338147
0.0353391
0.0369948
0.0388032
0.0406383
0.0414341
0.0381379
0.0257669
0.00393944
0.0298064
0.0310786
0.032138
0.0332484
0.0347769
0.0365615
0.0385105
0.0407249
0.0426065
0.041566
0.0302457
0.00443473
0.0298188
0.031163
0.0323824
0.0333579
0.0346128
0.0363257
0.0381669
0.0403506
0.0426256
0.0435391
0.0349656
0.00500862
0.000277053
0.000596859
0.000641763
0.000641263
0.00063654
0.00061036
0.000595238
0.000670966
0.00116511
0.00158214
0.00172307
0.00178722
0.000448375
0.00129632
0.00183932
0.00206145
0.00176647
0.00102798
0.000921574
0.00163518
0.0020013
0.0032105
0.00439
0.00612483
0.000576143
0.00213816
0.00288489
0.00301053
0.00260555
0.00241047
0.00239456
0.00340444
0.00518576
0.00761555
0.0101825
0.0126657
0.000729405
0.00336595
0.0036688
0.00319025
0.00302677
0.00305138
0.00406496
0.00659152
0.00933742
0.0124402
0.0153794
0.0179803
0.000862593
0.0039992
0.00404031
0.00365811
0.00365574
0.00448635
0.00682211
0.0100862
0.0132428
0.0164373
0.0193813
0.0219783
0.000989065
0.00453215
0.00459629
0.0043462
0.00485148
0.00685146
0.0100046
0.0132007
0.0163245
0.019396
0.0222238
0.0247517
0.00110029
0.00513944
0.00558637
0.00568406
0.00700405
0.00982186
0.0128271
0.0157873
0.0186981
0.0214729
0.0240967
0.0265057
0.00123589
0.00649038
0.00771994
0.00877178
0.0109388
0.0134001
0.0158947
0.0184102
0.0209388
0.0233483
0.0256188
0.0277149
0.00139797
0.00880536
0.011576
0.0138909
0.0159554
0.0178307
0.0196455
0.0214616
0.0233126
0.0251202
0.0268684
0.0285387
0.00162251
0.0106055
0.0147208
0.0175543
0.0196059
0.0211779
0.0225292
0.0237932
0.0250211
0.0262447
0.0274914
0.0287765
0.00183587
0.00990194
0.0158877
0.019339
0.0216149
0.0230186
0.0242933
0.025203
0.0260314
0.0268596
0.0277339
0.0286874
0.00306519
0.0093344
0.0167374
0.0207507
0.0227236
0.0244681
0.025569
0.0263536
0.0269813
0.0275731
0.0281994
0.0289106
0.00183685
0.00186134
0.00187582
0.0018785
0.00187998
0.00185121
0.00180742
0.00173232
0.00162898
0.00148774
0.00127887
0.000608352
0.0078405
0.00941626
0.0105185
0.0109905
0.0107811
0.0102137
0.00923498
0.00788901
0.00610406
0.0037309
0.00182369
0.00105755
0.0148043
0.0164374
0.0174605
0.0178582
0.017642
0.0168625
0.0154656
0.0134329
0.010725
0.00734727
0.00327306
0.00141
0.0201831
0.0219097
0.0231101
0.0237482
0.0237768
0.0231337
0.0217261
0.0194296
0.0160437
0.0115839
0.00577263
0.00172343
0.0242135
0.0260482
0.0274473
0.0283694
0.0287438
0.0284447
0.0272955
0.0250481
0.0212718
0.0158318
0.00851531
0.00203651
0.0269755
0.0288755
0.0304274
0.0315929
0.0323041
0.0324515
0.0318241
0.030041
0.0265239
0.0204667
0.0118337
0.00235862
0.0286613
0.0305578
0.0321884
0.0335341
0.0345669
0.0352177
0.0352598
0.0342089
0.0312483
0.0251842
0.0153723
0.00269796
0.0296327
0.0313849
0.0329667
0.03438
0.0356543
0.0367706
0.0375589
0.0375119
0.0355228
0.0297497
0.0188346
0.0030738
0.0300939
0.0315399
0.032966
0.034374
0.0357759
0.0372232
0.0386415
0.0396408
0.0389968
0.0340694
0.0220341
0.00349239
0.0300376
0.0312246
0.0324349
0.0338147
0.035339
0.0369947
0.0388031
0.0406382
0.0414341
0.0381379
0.0257669
0.00393944
0.0298064
0.0310786
0.032138
0.0332484
0.0347769
0.0365615
0.0385105
0.0407249
0.0426065
0.0415659
0.0302456
0.00443473
0.0298188
0.031163
0.0323824
0.0333579
0.0346128
0.0363257
0.0381668
0.0403505
0.0426256
0.0435391
0.0349656
0.00500862
0.000277052
0.000596856
0.00064176
0.00064126
0.000636537
0.000610357
0.000595235
0.000670962
0.00116511
0.00158214
0.00172307
0.00178722
0.000448373
0.00129632
0.00183931
0.00206144
0.00176646
0.00102798
0.000921567
0.00163518
0.00200129
0.00321048
0.00438998
0.00612481
0.000576141
0.00213815
0.00288487
0.00301051
0.00260554
0.00241047
0.00239455
0.00340443
0.00518573
0.00761551
0.0101825
0.0126657
0.000729402
0.00336593
0.00366878
0.00319023
0.00302676
0.00305137
0.00406493
0.00659148
0.00933738
0.0124402
0.0153793
0.0179803
0.00086259
0.00399918
0.00404028
0.00365809
0.00365572
0.00448633
0.00682207
0.0100862
0.0132427
0.0164372
0.0193813
0.0219783
0.000989061
0.00453213
0.00459627
0.00434617
0.00485146
0.00685142
0.0100046
0.0132006
0.0163244
0.019396
0.0222237
0.0247517
0.00110028
0.00513942
0.00558634
0.00568402
0.00700401
0.00982181
0.012827
0.0157873
0.018698
0.0214728
0.0240966
0.0265056
0.00123589
0.00649036
0.00771991
0.00877174
0.0109387
0.0134
0.0158946
0.0184101
0.0209387
0.0233482
0.0256188
0.0277148
0.00139797
0.00880535
0.011576
0.0138909
0.0159554
0.0178306
0.0196455
0.0214616
0.0233125
0.0251202
0.0268684
0.0285386
0.0016225
0.0106055
0.0147208
0.0175543
0.0196058
0.0211779
0.0225291
0.0237931
0.0250211
0.0262446
0.0274914
0.0287765
0.00183587
0.00990192
0.0158877
0.0193389
0.0216149
0.0230186
0.0242933
0.025203
0.0260314
0.0268596
0.0277338
0.0286874
0.00306518
0.00933439
0.0167374
0.0207507
0.0227236
0.0244681
0.025569
0.0263535
0.0269813
0.0275731
0.0281994
0.0289105
0.00183685
0.00186133
0.00187582
0.0018785
0.00187998
0.00185121
0.00180742
0.00173232
0.00162898
0.00148774
0.00127887
0.000608351
0.00784047
0.00941623
0.0105185
0.0109904
0.0107811
0.0102136
0.00923497
0.007889
0.00610405
0.0037309
0.00182369
0.00105755
0.0148043
0.0164374
0.0174604
0.0178582
0.017642
0.0168625
0.0154655
0.0134329
0.0107249
0.00734726
0.00327306
0.00141
0.020183
0.0219097
0.0231101
0.0237482
0.0237767
0.0231337
0.0217261
0.0194295
0.0160436
0.0115839
0.00577263
0.00172343
0.0242135
0.0260482
0.0274473
0.0283693
0.0287438
0.0284447
0.0272955
0.0250481
0.0212717
0.0158318
0.00851531
0.00203651
0.0269754
0.0288755
0.0304273
0.0315929
0.032304
0.0324514
0.031824
0.030041
0.0265238
0.0204667
0.0118337
0.00235862
0.0286612
0.0305577
0.0321884
0.033534
0.0345668
0.0352177
0.0352598
0.0342089
0.0312482
0.0251842
0.0153723
0.00269796
0.0296327
0.0313849
0.0329667
0.03438
0.0356543
0.0367706
0.0375588
0.0375119
0.0355227
0.0297497
0.0188346
0.00307379
0.0300938
0.0315398
0.032966
0.034374
0.0357759
0.0372231
0.0386414
0.0396408
0.0389968
0.0340694
0.0220341
0.00349239
0.0300376
0.0312245
0.0324348
0.0338146
0.035339
0.0369947
0.0388031
0.0406382
0.041434
0.0381379
0.0257669
0.00393944
0.0298064
0.0310786
0.032138
0.0332484
0.0347769
0.0365614
0.0385105
0.0407248
0.0426064
0.0415659
0.0302456
0.00443472
0.0298188
0.031163
0.0323824
0.0333578
0.0346127
0.0363256
0.0381668
0.0403505
0.0426255
0.0435391
0.0349656
0.00500862
0.0184857
0.0191766
0.0208978
0.0227259
0.0243208
0.0258044
0.0267851
0.0275004
0.0280378
0.0285268
0.0290304
0.0296021
0.0298533
0.0272203
0.0263762
0.0264609
0.0269831
0.0275132
0.0280244
0.0286802
0.0292721
0.0297475
0.0302115
0.0307252
0.0376947
0.0346979
0.0325242
0.0312388
0.0306195
0.030363
0.0304504
0.0306401
0.0308514
0.0311072
0.0315982
0.0321895
0.0400556
0.0379833
0.0360865
0.0345133
0.0334916
0.0328759
0.0326035
0.0325132
0.0327223
0.0329949
0.033388
0.0339946
0.0304378
0.031765
0.0330308
0.034021
0.0351537
0.036598
0.0381376
0.0399633
0.0421446
0.0447265
0.0449184
0.0207516
0.0316739
0.0329272
0.0340838
0.0351378
0.0362546
0.0372723
0.0384136
0.0397063
0.0413927
0.043803
0.0480169
0.0347531
0.0333486
0.034326
0.0353355
0.036239
0.0371343
0.0379113
0.038827
0.0397497
0.040861
0.0425278
0.0464003
0.0414495
0.0352146
0.0360723
0.0368699
0.0375987
0.0381717
0.0387527
0.0394112
0.0400031
0.0407441
0.0416008
0.0436796
0.0424388
0.0184857
0.0191765
0.0208978
0.0227259
0.0243208
0.0258044
0.0267851
0.0275004
0.0280379
0.0285268
0.0290305
0.0296021
0.0298532
0.0272203
0.0263762
0.026461
0.0269832
0.0275133
0.0280244
0.0286802
0.0292721
0.0297476
0.0302115
0.0307252
0.0376947
0.0346979
0.0325243
0.0312388
0.0306196
0.0303631
0.0304504
0.0306401
0.0308514
0.0311072
0.0315982
0.0321896
0.0400557
0.0379834
0.0360866
0.0345134
0.0334917
0.032876
0.0326036
0.0325132
0.0327223
0.0329949
0.033388
0.0339946
0.0304379
0.031765
0.0330309
0.0340211
0.0351538
0.036598
0.0381377
0.0399633
0.0421446
0.0447266
0.0449185
0.0207516
0.0316739
0.0329272
0.0340838
0.0351379
0.0362546
0.0372724
0.0384137
0.0397064
0.0413927
0.0438031
0.048017
0.0347531
0.0333486
0.034326
0.0353355
0.0362391
0.0371343
0.0379113
0.0388271
0.0397497
0.0408611
0.0425279
0.0464004
0.0414495
0.0352146
0.0360723
0.0368699
0.0375987
0.0381717
0.0387527
0.0394112
0.0400032
0.0407441
0.0416008
0.0436797
0.0424389
0.0184857
0.0191766
0.0208978
0.0227259
0.0243209
0.0258044
0.0267851
0.0275005
0.0280379
0.0285269
0.0290305
0.0296022
0.0298533
0.0272204
0.0263762
0.026461
0.0269832
0.0275133
0.0280245
0.0286802
0.0292722
0.0297476
0.0302115
0.0307252
0.0376948
0.034698
0.0325243
0.0312389
0.0306196
0.0303631
0.0304504
0.0306401
0.0308514
0.0311072
0.0315982
0.0321896
0.0400557
0.0379834
0.0360866
0.0345134
0.0334917
0.032876
0.0326036
0.0325132
0.0327223
0.032995
0.033388
0.0339946
0.0304379
0.031765
0.0330309
0.0340211
0.0351538
0.036598
0.0381377
0.0399633
0.0421446
0.0447266
0.0449184
0.0207516
0.0316739
0.0329272
0.0340838
0.0351379
0.0362546
0.0372723
0.0384136
0.0397064
0.0413927
0.043803
0.0480169
0.0347531
0.0333486
0.034326
0.0353355
0.036239
0.0371343
0.0379113
0.038827
0.0397497
0.0408611
0.0425278
0.0464003
0.0414495
0.0352146
0.0360723
0.0368699
0.0375987
0.0381717
0.0387527
0.0394112
0.0400031
0.0407441
0.0416008
0.0436796
0.0424388
0.0184857
0.0191765
0.0208978
0.0227259
0.0243208
0.0258044
0.0267851
0.0275004
0.0280379
0.0285268
0.0290305
0.0296021
0.0298532
0.0272204
0.0263762
0.026461
0.0269832
0.0275133
0.0280244
0.0286802
0.0292721
0.0297476
0.0302115
0.0307252
0.0376947
0.034698
0.0325243
0.0312389
0.0306196
0.0303631
0.0304504
0.0306401
0.0308514
0.0311072
0.0315982
0.0321896
0.0400557
0.0379834
0.0360866
0.0345134
0.0334917
0.032876
0.0326036
0.0325132
0.0327223
0.0329949
0.033388
0.0339946
0.0304379
0.031765
0.0330309
0.0340211
0.0351537
0.036598
0.0381376
0.0399633
0.0421446
0.0447265
0.0449184
0.0207516
0.0316739
0.0329272
0.0340838
0.0351379
0.0362546
0.0372723
0.0384136
0.0397063
0.0413927
0.043803
0.0480169
0.034753
0.0333486
0.034326
0.0353355
0.036239
0.0371343
0.0379113
0.038827
0.0397496
0.040861
0.0425278
0.0464003
0.0414494
0.0352146
0.0360723
0.0368698
0.0375987
0.0381716
0.0387527
0.0394112
0.0400031
0.040744
0.0416007
0.0436796
0.0424387
0.0372897
0.0359469
0.0348228
0.0340794
0.0336618
0.0335021
0.0334402
0.0335158
0.0338762
0.0343594
0.0351895
0.0364528
0.0354725
0.0346115
0.0339189
0.0335198
0.0332746
0.0330454
0.0327641
0.0326222
0.0325406
0.0325858
0.0330513
0.0342861
0.033716
0.033049
0.0325227
0.0321075
0.031545
0.030839
0.0301109
0.0292541
0.0282628
0.0272717
0.0266555
0.0272803
0.0315452
0.0309504
0.0301985
0.0293783
0.0282953
0.0270496
0.0255666
0.0237605
0.0216706
0.0194516
0.017484
0.016356
0.0380209
0.0390472
0.0391287
0.0394028
0.0395922
0.0398232
0.0400433
0.0402306
0.0404218
0.0406187
0.0401415
0.0390736
0.0362773
0.0392139
0.0390204
0.039082
0.0391375
0.0391922
0.039221
0.0391841
0.0389628
0.0384764
0.0378597
0.0367801
0.0302842
0.0371543
0.03769
0.0377303
0.0377548
0.0377483
0.0376798
0.0373656
0.0369141
0.0364428
0.0358158
0.0346842
0.0174187
0.0336766
0.035754
0.0358486
0.0358689
0.0357493
0.0354777
0.0350583
0.0347141
0.0342391
0.0334641
0.0323955
0.0372898
0.035947
0.0348229
0.0340795
0.0336619
0.0335022
0.0334402
0.0335158
0.0338762
0.0343594
0.0351895
0.0364528
0.0354726
0.0346116
0.0339189
0.0335198
0.0332746
0.0330454
0.0327642
0.0326222
0.0325406
0.0325858
0.0330514
0.0342861
0.0337161
0.0330491
0.0325227
0.0321075
0.031545
0.030839
0.0301109
0.0292541
0.0282628
0.0272717
0.0266555
0.0272803
0.0315452
0.0309504
0.0301986
0.0293783
0.0282953
0.0270496
0.0255667
0.0237605
0.0216707
0.0194516
0.017484
0.016356
0.038021
0.0390473
0.0391288
0.0394029
0.0395923
0.0398233
0.0400434
0.0402307
0.0404218
0.0406188
0.0401416
0.0390737
0.0362774
0.039214
0.0390204
0.039082
0.0391375
0.0391922
0.039221
0.0391841
0.0389628
0.0384764
0.0378597
0.0367802
0.0302842
0.0371543
0.03769
0.0377303
0.0377548
0.0377484
0.0376798
0.0373656
0.0369141
0.0364428
0.0358159
0.0346842
0.0174187
0.0336766
0.035754
0.0358487
0.0358689
0.0357493
0.0354778
0.0350583
0.0347141
0.0342391
0.0334641
0.0323955
0.0372899
0.035947
0.0348229
0.0340795
0.0336619
0.0335022
0.0334402
0.0335159
0.0338762
0.0343594
0.0351895
0.0364528
0.0354726
0.0346116
0.0339189
0.0335199
0.0332746
0.0330454
0.0327641
0.0326222
0.0325406
0.0325858
0.0330513
0.0342861
0.0337161
0.0330491
0.0325227
0.0321075
0.031545
0.030839
0.0301109
0.0292541
0.0282628
0.0272717
0.0266555
0.0272803
0.0315452
0.0309504
0.0301985
0.0293783
0.0282953
0.0270496
0.0255666
0.0237605
0.0216706
0.0194516
0.017484
0.016356
0.0380209
0.0390472
0.0391287
0.0394028
0.0395922
0.0398232
0.0400433
0.0402306
0.0404218
0.0406187
0.0401415
0.0390736
0.0362773
0.0392139
0.0390204
0.039082
0.0391375
0.0391922
0.0392209
0.039184
0.0389628
0.0384764
0.0378597
0.0367801
0.0302842
0.0371543
0.03769
0.0377303
0.0377548
0.0377483
0.0376798
0.0373656
0.0369141
0.0364428
0.0358158
0.0346842
0.0174187
0.0336766
0.035754
0.0358486
0.0358689
0.0357492
0.0354777
0.0350582
0.0347141
0.0342391
0.0334641
0.0323955
0.0372898
0.035947
0.0348229
0.0340795
0.0336619
0.0335022
0.0334402
0.0335158
0.0338762
0.0343594
0.0351895
0.0364528
0.0354726
0.0346115
0.0339189
0.0335198
0.0332746
0.0330454
0.0327641
0.0326222
0.0325406
0.0325858
0.0330513
0.0342861
0.0337161
0.0330491
0.0325227
0.0321075
0.031545
0.030839
0.0301109
0.0292541
0.0282628
0.0272717
0.0266555
0.0272803
0.0315452
0.0309504
0.0301985
0.0293783
0.0282953
0.0270496
0.0255666
0.0237604
0.0216706
0.0194516
0.017484
0.016356
0.0380209
0.0390472
0.0391287
0.0394028
0.0395922
0.0398232
0.0400433
0.0402306
0.0404217
0.0406187
0.0401415
0.0390736
0.0362773
0.0392139
0.0390204
0.0390819
0.0391375
0.0391922
0.0392209
0.039184
0.0389627
0.0384763
0.0378597
0.0367801
0.0302842
0.0371542
0.03769
0.0377302
0.0377547
0.0377483
0.0376798
0.0373656
0.036914
0.0364427
0.0358158
0.0346842
0.0174187
0.0336766
0.035754
0.0358486
0.0358689
0.0357492
0.0354777
0.0350582
0.034714
0.034239
0.0334641
0.0323955
0.0287737
0.0278997
0.0267552
0.0254739
0.0239027
0.0220413
0.0197926
0.0171051
0.0139851
0.0105305
0.00643225
0.00332945
0.0251572
0.0239228
0.0224207
0.0206981
0.0186358
0.0162233
0.0133912
0.0101489
0.00646757
0.00314227
0.00145208
0.00141306
0.0207888
0.0191913
0.0173061
0.0151333
0.0125873
0.00967018
0.00623427
0.00280794
0.000879337
0.00044739
0.000475356
0.00060392
0.015727
0.0137496
0.0114642
0.00883417
0.00570255
0.00252626
0.000626314
0.000233494
0.000199086
0.000313798
0.000269181
0.000293172
0.0100424
0.00764392
0.00485025
0.00211334
0.000544087
0.000218162
0.000203319
0.000260313
0.000242253
0.000240796
0.000235978
0.000232113
0.0036974
0.00154231
0.000469433
0.000346337
0.00023228
0.000252753
0.000248765
0.000246522
0.000245014
0.000241584
0.000239752
0.000237886
0.000364411
0.000924663
0.000248834
0.000257621
0.00025668
0.000255428
0.000254108
0.000252122
0.000249748
0.000247356
0.000246054
0.000244732
0.000261143
0.000266488
0.000262399
0.000262426
0.000261868
0.000260953
0.000259675
0.000257973
0.000255852
0.000253954
0.000252797
0.000251652
0.000266812
0.000266158
0.000265699
0.000265325
0.000264909
0.000264379
0.000263601
0.00026254
0.000261165
0.000259497
0.000257921
0.000256924
0.000263803
0.000263618
0.000263504
0.000263511
0.000263422
0.000263232
0.000262744
0.000261954
0.000260793
0.000259365
0.000257887
0.000256992
0.000224916
0.000226654
0.000228723
0.000230587
0.000232695
0.000234531
0.000236342
0.000237936
0.000239438
0.000240818
0.000242256
0.000243651
7.24166e-05
7.14191e-05
7.15326e-05
7.07554e-05
7.08423e-05
7.02514e-05
7.03324e-05
6.99509e-05
7.00381e-05
6.99197e-05
7.00141e-05
7.00944e-05
0.0051065
0.0291136
0.0335536
0.0335631
0.0334872
0.0331819
0.0328496
0.0325798
0.0322191
0.0316335
0.0306801
0.0296601
0.00491245
0.026739
0.0311585
0.0307703
0.030557
0.0302912
0.0300766
0.0297917
0.0292685
0.028429
0.0273641
0.026248
0.00478404
0.0244277
0.0280691
0.0276373
0.0274518
0.0272722
0.0269622
0.026472
0.0256803
0.0245906
0.023425
0.0221637
0.00464
0.0218468
0.0245727
0.0244172
0.0242086
0.0238387
0.0233486
0.0225128
0.0214595
0.0202525
0.0189209
0.0174259
0.004454
0.0190806
0.0211151
0.0209475
0.0205672
0.0199307
0.0190719
0.0180337
0.016819
0.0154223
0.0138587
0.0120787
0.00419217
0.0162528
0.0177271
0.0171134
0.016407
0.0154859
0.0144351
0.0131639
0.0117784
0.010147
0.00828453
0.00610599
0.00387288
0.0127702
0.0140028
0.0125915
0.0119762
0.0107186
0.00951162
0.00790141
0.00622917
0.00427748
0.00248046
0.000972911
0.00344956
0.00898285
0.00980775
0.00783625
0.00724494
0.00539377
0.00416812
0.00247833
0.00138259
0.000519422
0.00028793
0.000570005
0.00281136
0.00443747
0.00489312
0.0029181
0.00254328
0.00106386
0.000752728
0.000411776
0.000276567
0.000285175
0.000265542
0.000268874
0.00208966
0.00103622
0.00119828
0.00047564
0.000432211
0.000331283
0.000260689
0.000258616
0.000265068
0.00026437
0.000264858
0.000264267
0.00135996
0.000182342
0.000220968
0.000184408
0.000199726
0.000196117
0.000211545
0.000212066
0.000215596
0.000218309
0.000220751
0.000222508
0.000471936
8.80993e-05
8.55373e-05
8.10215e-05
8.02953e-05
7.73986e-05
7.74187e-05
7.47944e-05
7.51698e-05
7.33186e-05
7.35764e-05
7.22467e-05
0.0287738
0.0278997
0.0267553
0.025474
0.0239027
0.0220413
0.0197927
0.0171051
0.0139851
0.0105305
0.00643225
0.00332945
0.0251572
0.0239229
0.0224207
0.0206981
0.0186359
0.0162233
0.0133912
0.0101489
0.00646758
0.00314228
0.00145208
0.00141306
0.0207888
0.0191913
0.0173061
0.0151334
0.0125873
0.00967021
0.00623429
0.00280796
0.000879343
0.000447395
0.00047536
0.000603923
0.015727
0.0137496
0.0114642
0.0088342
0.00570258
0.00252628
0.000626324
0.0002335
0.00019909
0.000313803
0.000269186
0.000293176
0.0100424
0.00764395
0.00485028
0.00211336
0.000544096
0.000218165
0.00020332
0.000260315
0.000242255
0.000240799
0.000235981
0.000232116
0.00369743
0.00154232
0.00046944
0.000346361
0.000232279
0.000252752
0.000248763
0.00024652
0.000245015
0.000241584
0.000239752
0.000237886
0.000364398
0.000924807
0.000248832
0.00025762
0.000256678
0.000255427
0.000254107
0.000252121
0.000249747
0.000247354
0.000246053
0.00024473
0.000261141
0.000266487
0.000262398
0.000262426
0.000261867
0.000260952
0.000259674
0.000257972
0.000255851
0.000253953
0.000252796
0.000251651
0.000266811
0.000266158
0.000265698
0.000265324
0.000264908
0.000264378
0.000263601
0.000262539
0.000261164
0.000259496
0.00025792
0.000256923
0.000263803
0.000263617
0.000263503
0.00026351
0.000263421
0.000263231
0.000262743
0.000261953
0.000260793
0.000259364
0.000257887
0.000256991
0.000224911
0.000226653
0.000228723
0.000230587
0.000232695
0.000234531
0.000236341
0.000237936
0.000239438
0.000240818
0.000242256
0.00024365
7.24165e-05
7.1419e-05
7.15325e-05
7.07553e-05
7.08422e-05
7.02514e-05
7.03323e-05
6.99508e-05
7.0038e-05
6.99196e-05
7.0014e-05
7.00943e-05
0.00510651
0.0291136
0.0335536
0.0335631
0.0334872
0.0331819
0.0328496
0.0325798
0.0322191
0.0316335
0.0306801
0.0296601
0.00491245
0.026739
0.0311585
0.0307703
0.030557
0.0302912
0.0300766
0.0297917
0.0292685
0.028429
0.0273641
0.026248
0.00478404
0.0244277
0.0280691
0.0276373
0.0274518
0.0272722
0.0269622
0.026472
0.0256803
0.0245905
0.023425
0.0221637
0.00464
0.0218468
0.0245726
0.0244171
0.0242086
0.0238387
0.0233486
0.0225128
0.0214595
0.0202524
0.0189209
0.0174259
0.004454
0.0190806
0.0211151
0.0209475
0.0205671
0.0199307
0.0190718
0.0180336
0.016819
0.0154222
0.0138587
0.0120786
0.00419217
0.0162528
0.0177271
0.0171134
0.0164069
0.0154859
0.0144351
0.0131638
0.0117784
0.010147
0.00828448
0.00610594
0.00387288
0.0127702
0.0140028
0.0125914
0.0119761
0.0107185
0.00951156
0.00790135
0.00622911
0.00427743
0.00248042
0.000972892
0.00344955
0.0089828
0.00980769
0.00783617
0.00724487
0.00539369
0.00416806
0.00247827
0.00138256
0.000519406
0.000287931
0.000569987
0.00281135
0.00443741
0.00489305
0.00291803
0.00254322
0.00106383
0.000752706
0.000411778
0.000276566
0.000285174
0.000265543
0.000268875
0.00208965
0.0010362
0.00119825
0.000475629
0.000432201
0.00033128
0.000260689
0.000258616
0.000265068
0.000264371
0.000264859
0.000264267
0.00135995
0.00018234
0.000220966
0.000184409
0.000199726
0.000196118
0.000211546
0.000212067
0.000215597
0.000218309
0.000220752
0.000222509
0.000471932
8.80995e-05
8.55373e-05
8.10216e-05
8.02954e-05
7.73987e-05
7.74188e-05
7.47946e-05
7.51699e-05
7.33187e-05
7.35765e-05
7.22468e-05
0.0287737
0.0278997
0.0267553
0.0254739
0.0239027
0.0220413
0.0197926
0.0171051
0.0139851
0.0105305
0.00643225
0.00332945
0.0251572
0.0239228
0.0224207
0.0206981
0.0186358
0.0162233
0.0133912
0.0101489
0.00646757
0.00314227
0.00145208
0.00141306
0.0207888
0.0191913
0.0173061
0.0151333
0.0125873
0.00967018
0.00623426
0.00280794
0.000879341
0.000447395
0.00047536
0.000603922
0.015727
0.0137495
0.0114642
0.00883417
0.00570254
0.00252626
0.000626317
0.0002335
0.000199092
0.000313801
0.000269186
0.000293176
0.0100424
0.00764391
0.00485024
0.00211333
0.000544088
0.000218163
0.000203323
0.000260316
0.000242256
0.000240799
0.000235982
0.000232117
0.00369739
0.0015423
0.000469435
0.000346366
0.00023228
0.000252752
0.000248764
0.000246521
0.000245015
0.000241585
0.000239753
0.000237887
0.000364394
0.000924808
0.000248833
0.000257621
0.000256679
0.000255428
0.000254107
0.000252122
0.000249747
0.000247355
0.000246054
0.000244731
0.000261142
0.000266488
0.000262399
0.000262426
0.000261867
0.000260953
0.000259674
0.000257973
0.000255852
0.000253954
0.000252797
0.000251651
0.000266812
0.000266158
0.000265699
0.000265324
0.000264909
0.000264379
0.000263601
0.00026254
0.000261165
0.000259497
0.000257921
0.000256924
0.000263803
0.000263618
0.000263504
0.000263511
0.000263422
0.000263232
0.000262744
0.000261954
0.000260794
0.000259365
0.000257888
0.000256992
0.000224911
0.000226654
0.000228724
0.000230588
0.000232696
0.000234532
0.000236342
0.000237937
0.000239439
0.000240818
0.000242257
0.000243651
7.24167e-05
7.14192e-05
7.15327e-05
7.07555e-05
7.08424e-05
7.02516e-05
7.03325e-05
6.9951e-05
7.00382e-05
6.99198e-05
7.00142e-05
7.00945e-05
0.0051065
0.0291135
0.0335536
0.0335631
0.0334872
0.0331819
0.0328496
0.0325798
0.0322191
0.0316335
0.0306801
0.0296601
0.00491245
0.026739
0.0311585
0.0307703
0.030557
0.0302911
0.0300766
0.0297917
0.0292684
0.028429
0.0273641
0.026248
0.00478403
0.0244277
0.0280691
0.0276373
0.0274518
0.0272722
0.0269621
0.026472
0.0256803
0.0245905
0.0234249
0.0221636
0.00464
0.0218468
0.0245726
0.0244171
0.0242086
0.0238387
0.0233486
0.0225128
0.0214595
0.0202524
0.0189209
0.0174259
0.004454
0.0190806
0.0211151
0.0209474
0.0205671
0.0199307
0.0190718
0.0180336
0.016819
0.0154222
0.0138587
0.0120786
0.00419217
0.0162527
0.0177271
0.0171133
0.0164069
0.0154859
0.0144351
0.0131638
0.0117784
0.0101469
0.00828448
0.00610593
0.00387288
0.0127702
0.0140028
0.0125914
0.0119761
0.0107185
0.00951155
0.00790135
0.00622911
0.00427743
0.00248042
0.000972893
0.00344955
0.00898279
0.00980768
0.00783616
0.00724486
0.00539369
0.00416805
0.00247827
0.00138256
0.000519401
0.000287936
0.000569982
0.00281135
0.0044374
0.00489304
0.00291803
0.00254322
0.00106383
0.000752706
0.000411777
0.000276566
0.000285175
0.000265543
0.000268875
0.00208965
0.0010362
0.00119824
0.000475627
0.0004322
0.00033128
0.000260689
0.000258616
0.000265068
0.000264371
0.000264859
0.000264267
0.00135996
0.000182339
0.000220965
0.000184408
0.000199726
0.000196117
0.000211546
0.000212067
0.000215596
0.000218309
0.000220752
0.000222508
0.000471935
8.80997e-05
8.55373e-05
8.10217e-05
8.02954e-05
7.73987e-05
7.74188e-05
7.47946e-05
7.51699e-05
7.33187e-05
7.35765e-05
7.22468e-05
0.0287737
0.0278997
0.0267552
0.0254739
0.0239027
0.0220413
0.0197926