/*--------------------------------*- C++ -*----------------------------------*\
| =========                 |                                                 |
| \\      /  F ield         | OpenFOAM: The Open Source CFD Toolbox           |
|  \\    /   O peration     | Version:  2212                                  |
|   \\  /    A nd           | Website:  www.openfoam.com                      |
|    \\/     M anipulation  |                                                 |
\*---------------------------------------------------------------------------*/
FoamFile
{
    version     2.0;
    format      ascii;
    arch        "LSB;label=32;scalar=64";
    class       volScalarField;
    location    "0.08";
    object      alphat;
}
// * * * * * * * * * * * * * * * * * * * * * * * * * * * * * * * * * * * * * //

dimensions      [1 -1 -1 0 0 0 0];

internalField   nonuniform List<scalar> 
3072
(
0.000343034
0.000723989
0.000749837
0.000746343
0.000718319
0.00069116
0.000757852
0.00124532
0.00179494
0.00199484
0.00208191
0.00215101
0.000558481
0.00143838
0.00196163
0.00185655
0.0011859
0.00100367
0.00183738
0.00229146
0.00353866
0.0049563
0.00697554
0.00907861
0.000731391
0.00262539
0.00318313
0.00273903
0.00244916
0.00266093
0.0041006
0.00605205
0.00882351
0.0120352
0.0151091
0.0178961
0.000920193
0.00376984
0.00364683
0.00324796
0.00355171
0.00518179
0.00800147
0.0111872
0.0148285
0.0184775
0.0217404
0.024589
0.00106389
0.00459662
0.00469464
0.00462253
0.00593709
0.00885961
0.0122883
0.0159555
0.0197729
0.0234015
0.0266395
0.0294567
0.00118992
0.00566306
0.00640495
0.00683777
0.00903675
0.0123649
0.015976
0.0196925
0.0234093
0.0269027
0.0300411
0.0327854
0.0012857
0.00642766
0.00785184
0.00923262
0.0120771
0.0155598
0.0191136
0.0227081
0.0261921
0.0294392
0.0323702
0.0349573
0.00138907
0.00764043
0.00977399
0.0122822
0.0155123
0.0189111
0.022279
0.0255687
0.0286646
0.0315091
0.0340738
0.0363391
0.00151531
0.00901919
0.0128489
0.01636
0.0196702
0.0227187
0.0255587
0.0282098
0.0306464
0.0328757
0.0349236
0.0367777
0.00169382
0.0107638
0.0160872
0.0199521
0.0230343
0.0255532
0.0277467
0.0297337
0.0315568
0.0332613
0.0348885
0.0364292
0.0019434
0.0105116
0.0176422
0.0217619
0.0245794
0.0268659
0.0287782
0.0304294
0.0319353
0.0333377
0.0346734
0.035974
0.00343474
0.0104273
0.0188084
0.0233097
0.025888
0.0280957
0.0298333
0.0312691
0.0325365
0.03369
0.0347685
0.0358005
0.00218669
0.00220881
0.00221132
0.00221134
0.00219366
0.00215405
0.00209154
0.00200061
0.00187387
0.00171181
0.00148039
0.000717269
0.011128
0.0128124
0.0138276
0.0140688
0.0137082
0.0128706
0.0115463
0.009769
0.00754074
0.00459392
0.00219063
0.00121877
0.0202226
0.0218914
0.0227507
0.0228554
0.0223553
0.0211659
0.0192772
0.0166407
0.0132291
0.00903177
0.00402576
0.00160212
0.0269183
0.0286469
0.029704
0.0300986
0.029799
0.0287205
0.0267639
0.023754
0.0195353
0.0139907
0.00693191
0.00195787
0.0317953
0.0336073
0.0348536
0.0354986
0.0354855
0.0347267
0.0330599
0.0302002
0.0256214
0.0190779
0.0101913
0.00230779
0.0351022
0.0369657
0.0383566
0.0392478
0.0396079
0.0393456
0.038232
0.0358409
0.031524
0.0244036
0.0139883
0.0026723
0.0371731
0.0389962
0.0404202
0.0414585
0.0421265
0.0423695
0.0419732
0.0404219
0.0367662
0.0296193
0.0180178
0.00305271
0.0382905
0.0399234
0.0412543
0.0423341
0.0432031
0.0438649
0.0441845
0.043668
0.0411362
0.0344477
0.0217379
0.00347817
0.0384238
0.0398566
0.0410954
0.0421731
0.0431508
0.0440936
0.0449861
0.0454956
0.0444315
0.0388736
0.0251439
0.0039436
0.0378567
0.0391394
0.040301
0.0413529
0.0423685
0.0434434
0.0446554
0.0459372
0.0464023
0.0428357
0.0289994
0.00443895
0.0372032
0.0383528
0.0394255
0.0404048
0.0413352
0.0423087
0.0435734
0.0451415
0.0466041
0.0454319
0.0334386
0.0049843
0.0367882
0.0377316
0.038636
0.0395234
0.0404447
0.0413132
0.0422067
0.0436891
0.0456636
0.0466304
0.0381194
0.00561072
0.000322266
0.000682963
0.00071312
0.000709409
0.000689926
0.000654455
0.000689181
0.0010109
0.00163312
0.00187121
0.00196571
0.00203457
0.000524457
0.00135818
0.00189487
0.00188379
0.00129943
0.000817606
0.00160223
0.00200022
0.00295444
0.00432357
0.00610124
0.00803021
0.000684548
0.00244783
0.00314234
0.00280464
0.00247472
0.00237811
0.00339781
0.00513057
0.00754425
0.0105521
0.0134576
0.0160903
0.000861462
0.00363267
0.00360373
0.00314071
0.00318774
0.00416803
0.00671632
0.00967901
0.0130123
0.0164831
0.0196007
0.0223265
0.000999785
0.00431726
0.00431765
0.00408978
0.0048685
0.00733322
0.0106934
0.0140694
0.0176559
0.0211097
0.0242004
0.0269006
0.00112256
0.00519685
0.00567928
0.00582683
0.00763566
0.0108048
0.014213
0.0176981
0.0211221
0.024429
0.0274149
0.0300383
0.00122295
0.0059543
0.00703117
0.00812517
0.0107305
0.0140266
0.0173666
0.0206778
0.0239167
0.0269436
0.0296854
0.032119
0.00133326
0.00721459
0.00909032
0.0114236
0.0143886
0.0175112
0.0205781
0.0235547
0.026395
0.0290087
0.0313656
0.0334589
0.00146471
0.00879115
0.0123387
0.0156066
0.0185922
0.0213149
0.0238335
0.0261807
0.0283559
0.0303882
0.0322177
0.0338748
0.00165376
0.0106466
0.0154667
0.0189437
0.0217154
0.023935
0.02586
0.0275931
0.029202
0.0307417
0.0321827
0.0335351
0.0018988
0.0101464
0.0167315
0.0205218
0.0230734
0.0250924
0.026756
0.0281886
0.0294941
0.0307332
0.0319235
0.0330751
0.00333875
0.00984881
0.0176988
0.021857
0.0241025
0.0260388
0.0275334
0.0287821
0.0299011
0.0309424
0.0319381
0.0329063
0.00207352
0.00209667
0.00210236
0.00210286
0.00209334
0.0020569
0.00200342
0.00191914
0.00180419
0.00165031
0.00142969
0.000690353
0.00999728
0.0116384
0.0126804
0.0129843
0.0126292
0.0118845
0.0106804
0.00907667
0.00702333
0.00430823
0.00208467
0.00117716
0.0183532
0.0199884
0.0208741
0.0210537
0.0206184
0.0195573
0.0178421
0.0154334
0.0123063
0.00843636
0.00379229
0.00155061
0.02459
0.0262806
0.0273551
0.0278001
0.0275863
0.0266384
0.0248636
0.0221083
0.0182246
0.013118
0.00653376
0.00189455
0.0291643
0.0309384
0.0321892
0.032878
0.032946
0.0323092
0.0308188
0.028214
0.0239444
0.0178775
0.00959599
0.00223433
0.032272
0.0340909
0.0354749
0.0363942
0.0368085
0.0366342
0.035659
0.0334879
0.0295229
0.0228963
0.0132063
0.00258764
0.0342277
0.0359933
0.0374048
0.0384629
0.0391757
0.0394924
0.0392113
0.0378452
0.0345008
0.0278639
0.0170518
0.00295683
0.0352882
0.0368581
0.0381713
0.0392598
0.0401621
0.0408811
0.0412903
0.0409208
0.038657
0.0324885
0.0206753
0.00336827
0.0353791
0.036755
0.0379818
0.0390699
0.0400723
0.0410575
0.042016
0.0426346
0.0417849
0.0367116
0.0239501
0.00382404
0.0348238
0.0360635
0.0372014
0.0382601
0.0392918
0.0404057
0.0416692
0.043028
0.0436739
0.0404434
0.0276998
0.00431241
0.03423
0.035348
0.036416
0.0374205
0.0383665
0.0393524
0.040653
0.0423485
0.0439231
0.0431852
0.0321691
0.00485928
0.033867
0.0348153
0.0357418
0.0367138
0.0376948
0.038548
0.0394882
0.0409641
0.0430211
0.0443507
0.0370253
0.0055092
0.00034303
0.000723982
0.00074983
0.000746336
0.000718313
0.000691153
0.000757842
0.0012453
0.00179492
0.00199483
0.0020819
0.002151
0.000558476
0.00143838
0.00196164
0.00185657
0.00118591
0.00100365
0.00183735
0.00229143
0.00353861
0.00495625
0.00697546
0.00907852
0.000731386
0.00262539
0.00318316
0.00273905
0.0024492
0.00266088
0.00410052
0.00605195
0.00882338
0.012035
0.0151089
0.017896
0.000920185
0.00376987
0.00364686
0.00324796
0.00355166
0.00518163
0.00800131
0.011187
0.0148283
0.0184773
0.0217402
0.0245888
0.00106388
0.0045966
0.00469458
0.00462243
0.0059369
0.00885937
0.0122881
0.0159553
0.0197727
0.0234013
0.0266393
0.0294565
0.0011899
0.00566296
0.00640479
0.00683753
0.00903648
0.0123647
0.0159757
0.0196923
0.0234091
0.0269024
0.0300409
0.0327852
0.00128568
0.00642753
0.0078516
0.0092323
0.0120768
0.0155595
0.0191133
0.0227078
0.0261918
0.029439
0.0323699
0.034957
0.00138906
0.00764029
0.00977374
0.0122819
0.015512
0.0189108
0.0222787
0.0255684
0.0286644
0.0315089
0.0340735
0.0363389
0.0015153
0.00901911
0.0128487
0.0163598
0.01967
0.0227185
0.0255584
0.0282096
0.0306461
0.0328754
0.0349233
0.0367775
0.00169382
0.0107638
0.0160872
0.019952
0.0230342
0.025553
0.0277465
0.0297335
0.0315565
0.0332611
0.0348882
0.0364289
0.0019434
0.0105116
0.0176422
0.0217618
0.0245793
0.0268658
0.0287781
0.0304292
0.0319351
0.0333375
0.0346732
0.0359738
0.00343474
0.0104273
0.0188084
0.0233097
0.025888
0.0280957
0.0298333
0.031269
0.0325364
0.0336898
0.0347683
0.0358004
0.00218668
0.00220881
0.00221132
0.00221133
0.00219365
0.00215404
0.00209154
0.00200061
0.00187387
0.00171181
0.00148039
0.000717269
0.0111279
0.0128124
0.0138275
0.0140687
0.0137081
0.0128706
0.0115463
0.00976896
0.00754071
0.00459391
0.00219063
0.00121877
0.0202225
0.0218912
0.0227506
0.0228553
0.0223552
0.0211658
0.0192771
0.0166406
0.0132291
0.00903174
0.00402574
0.00160212
0.0269181
0.0286467
0.0297038
0.0300984
0.0297989
0.0287203
0.0267637
0.0237539
0.0195352
0.0139907
0.00693189
0.00195787
0.0317951
0.0336071
0.0348534
0.0354984
0.0354853
0.0347266
0.0330597
0.0302001
0.0256213
0.0190778
0.0101912
0.00230778
0.035102
0.0369655
0.0383563
0.0392475
0.0396076
0.0393454
0.0382318
0.0358408
0.0315239
0.0244035
0.0139882
0.0026723
0.0371728
0.0389959
0.0404199
0.0414583
0.0421262
0.0423692
0.041973
0.0404217
0.0367661
0.0296192
0.0180177
0.00305271
0.0382903
0.0399231
0.041254
0.0423338
0.0432029
0.0438647
0.0441843
0.0436678
0.041136
0.0344476
0.0217379
0.00347817
0.0384235
0.0398563
0.0410951
0.0421729
0.0431505
0.0440933
0.0449858
0.0454954
0.0444313
0.0388735
0.0251438
0.0039436
0.0378565
0.0391391
0.0403007
0.0413526
0.0423683
0.0434431
0.0446552
0.0459369
0.0464021
0.0428356
0.0289993
0.00443895
0.037203
0.0383526
0.0394252
0.0404046
0.0413349
0.0423085
0.0435732
0.0451413
0.0466039
0.0454317
0.0334385
0.00498429
0.036788
0.0377314
0.0386358
0.0395232
0.0404445
0.041313
0.0422065
0.0436889
0.0456633
0.0466302
0.0381193
0.00561072
0.000322266
0.000682964
0.00071312
0.000709409
0.000689927
0.000654456
0.000689181
0.0010109
0.00163312
0.00187122
0.00196571
0.00203457
0.000524457
0.00135818
0.00189487
0.00188378
0.00129943
0.000817603
0.00160223
0.00200022
0.00295444
0.00432358
0.00610124
0.00803022
0.000684548
0.00244783
0.00314234
0.00280464
0.00247472
0.00237811
0.00339781
0.00513057
0.00754426
0.0105521
0.0134576
0.0160903
0.000861462
0.00363267
0.00360373
0.0031407
0.00318774
0.00416803
0.00671632
0.00967901
0.0130123
0.0164831
0.0196007
0.0223266
0.000999785
0.00431726
0.00431765
0.00408977
0.0048685
0.00733322
0.0106934
0.0140694
0.0176559
0.0211097
0.0242004
0.0269006
0.00112256
0.00519685
0.00567928
0.00582683
0.00763566
0.0108048
0.014213
0.0176981
0.0211221
0.024429
0.0274149
0.0300383
0.00122295
0.0059543
0.00703117
0.00812518
0.0107305
0.0140266
0.0173666
0.0206778
0.0239167
0.0269436
0.0296854
0.032119
0.00133326
0.0072146
0.00909033
0.0114236
0.0143886
0.0175112
0.0205781
0.0235547
0.026395
0.0290087
0.0313656
0.0334589
0.00146471
0.00879116
0.0123387
0.0156066
0.0185922
0.0213149
0.0238335
0.0261807
0.0283559
0.0303882
0.0322177
0.0338748
0.00165376
0.0106466
0.0154667
0.0189437
0.0217154
0.023935
0.02586
0.0275931
0.029202
0.0307417
0.0321827
0.0335351
0.0018988
0.0101464
0.0167315
0.0205218
0.0230734
0.0250924
0.026756
0.0281887
0.0294941
0.0307332
0.0319235
0.0330751
0.00333875
0.0098488
0.0176988
0.021857
0.0241025
0.0260388
0.0275334
0.0287821
0.0299011
0.0309424
0.0319382
0.0329063
0.00207352
0.00209667
0.00210236
0.00210286
0.00209334
0.0020569
0.00200342
0.00191914
0.00180419
0.00165031
0.0014297
0.000690354
0.00999729
0.0116384
0.0126804
0.0129843
0.0126293
0.0118845
0.0106804
0.00907667
0.00702334
0.00430823
0.00208467
0.00117716
0.0183532
0.0199884
0.0208741
0.0210537
0.0206184
0.0195573
0.0178421
0.0154334
0.0123063
0.00843637
0.00379229
0.00155061
0.02459
0.0262806
0.0273551
0.0278001
0.0275863
0.0266384
0.0248636
0.0221083
0.0182246
0.013118
0.00653377
0.00189456
0.0291643
0.0309385
0.0321892
0.032878
0.0329461
0.0323092
0.0308188
0.028214
0.0239444
0.0178775
0.009596
0.00223433
0.032272
0.0340909
0.0354749
0.0363942
0.0368085
0.0366343
0.035659
0.0334879
0.029523
0.0228964
0.0132063
0.00258764
0.0342277
0.0359934
0.0374048
0.038463
0.0391757
0.0394925
0.0392114
0.0378452
0.0345009
0.0278639
0.0170519
0.00295683
0.0352882
0.0368581
0.0381713
0.0392598
0.0401621
0.0408812
0.0412904
0.0409208
0.0386571
0.0324885
0.0206753
0.00336828
0.0353791
0.036755
0.0379819
0.03907
0.0400724
0.0410576
0.0420161
0.0426347
0.0417849
0.0367116
0.0239501
0.00382404
0.0348238
0.0360635
0.0372015
0.0382602
0.0392918
0.0404057
0.0416692
0.043028
0.0436739
0.0404434
0.0276999
0.00431242
0.03423
0.0353481
0.036416
0.0374205
0.0383665
0.0393524
0.0406531
0.0423485
0.0439232
0.0431853
0.0321691
0.00485928
0.033867
0.0348153
0.0357418
0.0367139
0.0376948
0.038548
0.0394882
0.0409642
0.0430212
0.0443508
0.0370253
0.0055092
0.020978
0.0219829
0.0238892
0.0260243
0.0280381
0.0298661
0.0312813
0.0324524
0.0334971
0.0344098
0.0352339
0.0360004
0.0328955
0.0307538
0.0303114
0.0307122
0.0315744
0.0324294
0.0330484
0.0338512
0.0346909
0.0353103
0.0358315
0.0363095
0.0404496
0.0383152
0.0368269
0.0359252
0.0355807
0.0355208
0.0355953
0.0357211
0.0358526
0.0359829
0.0361109
0.0363122
0.0429906
0.0414886
0.0400863
0.0389029
0.0379892
0.0372824
0.0367246
0.0364234
0.0361556
0.0359014
0.0356864
0.0354444
0.0367196
0.0374045
0.0380635
0.0387126
0.0394165
0.0403053
0.0412214
0.0422351
0.0439888
0.0463704
0.0474195
0.0221398
0.0367337
0.0371375
0.0375388
0.0379638
0.0384389
0.0390093
0.0398641
0.0407313
0.0420283
0.0444124
0.0493241
0.0363618
0.0364094
0.0365257
0.0366769
0.0369175
0.0372618
0.0377288
0.038401
0.0393456
0.0404974
0.042274
0.046815
0.0426921
0.0352642
0.0352221
0.0353435
0.0357312
0.0362581
0.0369199
0.0377355
0.0388486
0.0400951
0.0414231
0.0443357
0.0440695
0.0197578
0.0203784
0.0221125
0.0240034
0.0257555
0.0273133
0.0285298
0.0296025
0.0305904
0.0314781
0.0323051
0.033098
0.0313825
0.0288867
0.0280863
0.0281889
0.0287238
0.0293268
0.029954
0.0307641
0.0316016
0.0322648
0.0328881
0.033469
0.0390949
0.0364584
0.0343973
0.0332112
0.0326018
0.0324068
0.0324538
0.0326363
0.0329046
0.0331248
0.0333625
0.033638
0.0418604
0.0397741
0.037975
0.0364374
0.0352777
0.0345248
0.0340137
0.0336349
0.0334599
0.0333422
0.0332506
0.0331828
0.033872
0.0346294
0.0353626
0.0360939
0.0368653
0.0377783
0.0385519
0.0397019
0.0415892
0.0442704
0.0466428
0.0226565
0.034033
0.034574
0.0350795
0.0355744
0.0360811
0.0367681
0.0375194
0.0383178
0.0398371
0.042499
0.0483165
0.037222
0.0339722
0.0342633
0.0344804
0.0346919
0.0349533
0.0353964
0.0360972
0.0368549
0.0383255
0.0402694
0.0453077
0.0432615
0.0331236
0.0330384
0.0330111
0.0330689
0.0332756
0.0338464
0.0346278
0.0355815
0.0372188
0.038881
0.0426408
0.0437998
0.0209779
0.0219829
0.0238892
0.0260243
0.0280381
0.0298661
0.0312813
0.0324524
0.033497
0.0344097
0.0352338
0.0360003
0.0328954
0.0307537
0.0303113
0.0307121
0.0315743
0.0324293
0.0330484
0.0338511
0.0346908
0.0353102
0.0358314
0.0363094
0.0404495
0.0383151
0.0368268
0.0359252
0.0355806
0.0355208
0.0355952
0.035721
0.0358525
0.0359829
0.0361109
0.0363122
0.0429904
0.0414885
0.0400862
0.0389028
0.0379891
0.0372823
0.0367246
0.0364234
0.0361556
0.0359014
0.0356863
0.0354444
0.0367194
0.0374043
0.0380634
0.0387125
0.0394163
0.0403051
0.0412212
0.0422349
0.0439886
0.0463702
0.0474194
0.0221398
0.0367336
0.0371374
0.0375387
0.0379636
0.0384388
0.0390092
0.039864
0.0407312
0.0420282
0.0444123
0.0493239
0.0363617
0.0364094
0.0365257
0.0366768
0.0369174
0.0372617
0.0377287
0.0384009
0.0393455
0.0404972
0.0422739
0.0468148
0.042692
0.0352641
0.035222
0.0353434
0.0357311
0.036258
0.0369198
0.0377354
0.0388485
0.040095
0.0414229
0.0443355
0.0440694
0.0197578
0.0203783
0.0221125
0.0240034
0.0257555
0.0273133
0.0285298
0.0296025
0.0305904
0.0314781
0.0323051
0.033098
0.0313824
0.0288866
0.0280862
0.0281889
0.0287238
0.0293268
0.029954
0.0307641
0.0316016
0.0322648
0.0328881
0.033469
0.0390948
0.0364583
0.0343973
0.0332112
0.0326018
0.0324067
0.0324538
0.0326363
0.0329046
0.0331248
0.0333625
0.033638
0.0418603
0.039774
0.0379749
0.0364373
0.0352776
0.0345248
0.0340137
0.0336349
0.0334599
0.0333422
0.0332506
0.0331829
0.033872
0.0346294
0.0353626
0.0360939
0.0368653
0.0377784
0.0385519
0.039702
0.0415892
0.0442705
0.0466429
0.0226566
0.034033
0.034574
0.0350795
0.0355745
0.0360811
0.0367682
0.0375195
0.0383179
0.0398372
0.0424991
0.0483166
0.0372221
0.0339722
0.0342633
0.0344804
0.0346919
0.0349534
0.0353965
0.0360973
0.036855
0.0383256
0.0402695
0.0453079
0.0432616
0.0331236
0.0330384
0.0330111
0.033069
0.0332757
0.0338465
0.0346279
0.0355816
0.0372189
0.0388811
0.042641
0.0437999
0.0413175
0.0400391
0.038782
0.0376959
0.0368195
0.0361014
0.0354926
0.035038
0.0345806
0.0341005
0.033647
0.0333486
0.0391094
0.038006
0.0368673
0.0358451
0.0349697
0.034214
0.0335388
0.032924
0.0322479
0.0314586
0.0305905
0.0299594
0.0367716
0.0358345
0.0348047
0.0338351
0.0329608
0.0321635
0.0314022
0.0306206
0.029682
0.0284232
0.0266673
0.0247601
0.0344912
0.0337055
0.0327822
0.0318626
0.0309896
0.0301508
0.0293
0.0283516
0.0271143
0.0251844
0.0216629
0.0161408
0.0335315
0.034235
0.0351046
0.0361354
0.0372487
0.03829
0.0393735
0.0404192
0.0413887
0.0423153
0.0428174
0.0422718
0.0305063
0.0323707
0.0341712
0.0358445
0.0374127
0.0387356
0.0398685
0.0407784
0.0414403
0.0416994
0.0416411
0.0407445
0.025381
0.0296177
0.0327705
0.0351016
0.0369599
0.0384211
0.0395477
0.0403262
0.0406664
0.0406628
0.0403124
0.0390773
0.0161691
0.0257316
0.0309255
0.0339586
0.0360437
0.0375717
0.0386743
0.0392769
0.0394634
0.0393472
0.0387562
0.037377
0.0402605
0.0383192
0.0366812
0.0353189
0.0342812
0.0335247
0.0329148
0.0323894
0.0319835
0.0316127
0.0312966
0.0310843
0.0387285
0.036842
0.0352125
0.0338336
0.0327065
0.0317768
0.030951
0.0301784
0.0294501
0.0287141
0.0280125
0.02752
0.0371689
0.0352906
0.0336043
0.0321263
0.0308444
0.0297092
0.0286478
0.027603
0.0265208
0.0252906
0.0238378
0.0225115
0.0355522
0.0336814
0.0319343
0.030349
0.0289168
0.0275966
0.0263243
0.0250237
0.0235725
0.0216799
0.0186811
0.0143422
0.0310156
0.0310372
0.0311411
0.031434
0.0320184
0.0329813
0.0342283
0.0357051
0.0375222
0.0394283
0.0414385
0.0419992
0.0275595
0.0280281
0.0284591
0.0290358
0.0299171
0.0311513
0.0326566
0.0343504
0.0361895
0.0379599
0.0392921
0.0396622
0.0226062
0.0244654
0.0256317
0.0266074
0.0277531
0.0291589
0.0307723
0.0325109
0.0342783
0.0358574
0.0368869
0.0371903
0.0143351
0.0201977
0.0228269
0.0243509
0.0257397
0.0272376
0.0288608
0.0305544
0.032216
0.0336159
0.0345045
0.0347953
0.0413174
0.040039
0.0387818
0.0376959
0.0368194
0.0361014
0.0354926
0.0350379
0.0345805
0.0341004
0.0336469
0.0333485
0.0391092
0.0380059
0.0368672
0.035845
0.0349696
0.0342139
0.0335387
0.0329239
0.0322478
0.0314585
0.0305904
0.0299594
0.0367714
0.0358343
0.0348046
0.033835
0.0329607
0.0321634
0.0314021
0.0306205
0.029682
0.0284232
0.0266673
0.0247601
0.034491
0.0337053
0.032782
0.0318625
0.0309895
0.0301507
0.0292999
0.0283515
0.0271142
0.0251844
0.0216629
0.0161408
0.0335314
0.0342349
0.0351045
0.0361353
0.0372486
0.0382899
0.0393734
0.040419
0.0413886
0.0423152
0.0428172
0.0422717
0.0305062
0.0323707
0.0341712
0.0358444
0.0374126
0.0387354
0.0398683
0.0407782
0.0414401
0.0416993
0.0416409
0.0407444
0.025381
0.0296177
0.0327704
0.0351015
0.0369598
0.038421
0.0395476
0.0403261
0.0406663
0.0406627
0.0403123
0.0390772
0.0161691
0.0257315
0.0309254
0.0339584
0.0360436
0.0375715
0.0386742
0.0392768
0.0394633
0.039347
0.0387561
0.037377
0.0402604
0.0383192
0.0366811
0.0353189
0.0342812
0.0335247
0.0329148
0.0323894
0.0319835
0.0316127
0.0312966
0.0310844
0.0387285
0.0368419
0.0352125
0.0338336
0.0327065
0.0317768
0.030951
0.0301784
0.0294501
0.0287142
0.0280126
0.02752
0.0371688
0.0352906
0.0336043
0.0321263
0.0308445
0.0297093
0.0286479
0.0276031
0.0265209
0.0252907
0.0238379
0.0225116
0.0355522
0.0336814
0.0319344
0.0303491
0.0289169
0.0275967
0.0263244
0.0250239
0.0235727
0.0216801
0.0186812
0.0143422
0.0310157
0.0310373
0.0311412
0.0314342
0.0320186
0.0329815
0.0342285
0.0357052
0.0375224
0.0394284
0.0414387
0.0419994
0.0275596
0.0280283
0.0284593
0.0290361
0.0299174
0.0311516
0.0326569
0.0343506
0.0361897
0.0379601
0.0392923
0.0396624
0.0226063
0.0244657
0.0256321
0.0266079
0.0277536
0.0291593
0.0307727
0.0325113
0.0342786
0.0358577
0.0368871
0.0371905
0.0143352
0.020198
0.0228274
0.0243515
0.0257403
0.0272382
0.0288613
0.0305548
0.0322163
0.0336162
0.0345047
0.0347955
0.0323401
0.0316868
0.0308607
0.0299901
0.0291218
0.0282467
0.0273135
0.0262125
0.0246958
0.022029
0.0159544
0.00353341
0.0303332
0.0297906
0.0290514
0.0282288
0.0273698
0.0264669
0.0254651
0.0242402
0.0225133
0.0195751
0.0137077
0.00245445
0.028458
0.0280062
0.0273435
0.0265677
0.025723
0.0248028
0.0237506
0.0224394
0.020599
0.0176335
0.0123049
0.00200541
0.0266861
0.0263085
0.0257132
0.0249832
0.0241586
0.0232326
0.0221503
0.0207906
0.0189135
0.0160462
0.0112611
0.00178715
0.0249728
0.0246569
0.0241218
0.0234378
0.0226399
0.0217211
0.0206298
0.0192566
0.0173985
0.014687
0.0103707
0.00163136
0.0232478
0.0229855
0.0225065
0.0218711
0.0211088
0.0202121
0.019134
0.0177793
0.0159816
0.0134525
0.00953988
0.00149722
0.0213977
0.0211854
0.0207624
0.0201818
0.019468
0.0186122
0.0175725
0.0162687
0.0145673
0.0122407
0.00870481
0.00137337
0.0192358
0.0190743
0.0187124
0.0181988
0.0175526
0.0167634
0.0157943
0.0145804
0.0130172
0.010928
0.00779725
0.00125252
0.0164586
0.0163514
0.0160616
0.0156358
0.0150867
0.0144017
0.0135495
0.0124814
0.0111195
0.00933895
0.00671538
0.00112622
0.012589
0.0125392
0.012338
0.0120315
0.0116241
0.0111001
0.0104359
0.00960251
0.0085378
0.00719115
0.00527907
0.000981351
0.00699327
0.00699103
0.00689368
0.00674511
0.00653883
0.00625691
0.00588804
0.00542819
0.00480923
0.00406961
0.00311888
0.00079826
0.000748108
0.000743593
0.000731084
0.000713467
0.000690485
0.000662054
0.000627348
0.000583208
0.000527114
0.000456043
0.000363437
0.000173019
0.00366542
0.0209687
0.0288522
0.0325393
0.0348039
0.0363618
0.0373998
0.0378954
0.0380438
0.03782
0.0370342
0.0356507
0.0028765
0.0188187
0.0269679
0.0309699
0.0333516
0.034927
0.0358809
0.0363312
0.0364353
0.036125
0.0352565
0.0339109
0.00254619
0.0173557
0.0252236
0.029322
0.0317579
0.033322
0.0342273
0.0346458
0.0347011
0.034326
0.0334466
0.0321658
0.00235421
0.0161429
0.0235718
0.0276257
0.0300622
0.0315969
0.0324652
0.0328663
0.0328729
0.0324535
0.0316053
0.0304069
0.0022058
0.0150165
0.0219565
0.0258777
0.0282704
0.02976
0.0305998
0.0309725
0.0309377
0.0305047
0.029707
0.0285984
0.00207238
0.0138909
0.0203168
0.0240412
0.0263464
0.0277751
0.02858
0.0289167
0.0288476
0.0284192
0.0276818
0.0266629
0.00194055
0.0127024
0.0185745
0.0220367
0.0242031
0.025546
0.0262956
0.0265895
0.026492
0.0260758
0.0253938
0.0244697
0.00180183
0.0113711
0.0166102
0.019716
0.0216724
0.022883
0.0235478
0.0237873
0.0236641
0.0232619
0.0226282
0.0218137
0.00165325
0.00976667
0.0142059
0.0168103
0.0184496
0.0194578
0.0199958
0.0201646
0.0200224
0.0196386
0.0190614
0.018393
0.00147855
0.00769664
0.010975
0.012849
0.0140232
0.0147379
0.0151008
0.0151932
0.015049
0.0147073
0.0142473
0.0137609
0.00125663
0.00467658
0.00624647
0.00713789
0.00770815
0.00805409
0.00821341
0.00825452
0.00814895
0.00795514
0.00769887
0.00742104
0.000297024
0.000516037
0.000658417
0.000746589
0.000806539
0.000847161
0.000871043
0.000880689
0.000876555
0.00086417
0.00084579
0.000822608
0.0339043
0.0320631
0.0302851
0.0286239
0.0270796
0.0256193
0.0241814
0.022668
0.0208859
0.0183065
0.0130974
0.00295971
0.0322529
0.0304725
0.0287075
0.0270186
0.0254145
0.023869
0.0223214
0.0206601
0.0186608
0.0157817
0.010612
0.00180654
0.0306094
0.0289194
0.0272106
0.0255436
0.0239328
0.0223574
0.0207589
0.0190231
0.0169303
0.0140158
0.00925917
0.00136215
0.0289612
0.0273832
0.025764
0.0241598
0.0225878
0.0210312
0.0194363
0.0176949
0.0156126
0.0128234
0.00859333
0.00119453
0.0272649
0.0258114
0.0243027
0.0227899
0.0212907
0.0197916
0.0182447
0.0165534
0.0145548
0.0119664
0.00822572
0.0011214
0.0254446
0.0241172
0.0227291
0.0213258
0.0199237
0.0185116
0.0170476
0.0154474
0.0135773
0.0112116
0.00787215
0.00107057
0.0233753
0.0221701
0.0209088
0.0196297
0.0183456
0.0170465
0.0156952
0.0142189
0.0125072
0.0103684
0.00741791
0.00103241
0.0208621
0.0197813
0.0186598
0.0175255
0.0163857
0.0152297
0.0140245
0.0127068
0.0111863
0.00928881
0.00677707
0.000987005
0.0176111
0.0166837
0.0157335
0.0147818
0.0138272
0.0128578
0.0118446
0.0107331
0.00945638
0.00784106
0.00584687
0.000929176
0.0131706
0.0124808
0.0117587
0.011052
0.010344
0.00962299
0.00886579
0.00802632
0.0070732
0.00580621
0.0044186
0.000846673
0.00710634
0.00677253
0.00641265
0.00604205
0.00566595
0.0052811
0.00487502
0.0044108
0.00391311
0.0031629
0.00247174
0.000726978
0.000794511
0.000762746
0.00072794
0.000691616
0.00065451
0.00061627
0.00057665
0.000533607
0.000487147
0.000424907
0.000362975
0.000225186
0.00319158
0.0153143
0.020154
0.0223096
0.0239146
0.025448
0.0270252
0.0286321
0.0301755
0.0314395
0.0322511
0.0325506
0.00230948
0.0129275
0.017997
0.0205246
0.0222616
0.0237892
0.0252942
0.0268017
0.0282326
0.0293912
0.0301544
0.0304684
0.0018831
0.0113496
0.0162679
0.0189437
0.0207395
0.0222329
0.0236582
0.0250701
0.0264023
0.0274775
0.0282057
0.0285334
0.00162856
0.0101607
0.0148241
0.0175041
0.019294
0.0207337
0.0220823
0.0234119
0.0246638
0.0256735
0.0263747
0.026714
0.00144666
0.00917651
0.0135414
0.0161334
0.0178628
0.0192321
0.0205102
0.0217751
0.0229685
0.0239299
0.0246114
0.0249619
0.00130652
0.00827861
0.0123282
0.0147582
0.0163755
0.0176544
0.0188647
0.0200813
0.0212384
0.022169
0.0228386
0.0232029
0.00118667
0.00742154
0.0111059
0.0133005
0.0147513
0.0159107
0.0170447
0.0182205
0.0193586
0.0202731
0.0209364
0.0213201
0.00107527
0.00656196
0.00978904
0.0116668
0.0128907
0.0138896
0.0149204
0.0160432
0.0171645
0.0180646
0.0187178
0.0191253
0.000963496
0.00562375
0.00825608
0.00972536
0.0106604
0.0114475
0.0123245
0.0133482
0.0144201
0.0152794
0.0158943
0.016318
0.000839692
0.0044512
0.00629379
0.00724007
0.00782212
0.00833602
0.00897189
0.00979626
0.0107406
0.0115204
0.0120425
0.0124335
0.000685355
0.00270473
0.00357166
0.00394811
0.00416493
0.00437564
0.00470268
0.00521305
0.0058051
0.00630273
0.00665051
0.00688285
0.00014846
0.000313903
0.000387394
0.000429522
0.000462319
0.000500408
0.00054937
0.000606412
0.000656826
0.000695843
0.000724825
0.000742405
0.0323399
0.0316866
0.0308605
0.02999
0.0291217
0.0282466
0.0273134
0.0262124
0.0246957
0.0220289
0.0159544
0.00353341
0.0303329
0.0297903
0.0290512
0.0282286
0.0273696
0.0264668
0.025465
0.02424
0.0225132
0.0195749
0.0137077
0.00245445
0.0284577
0.0280059
0.0273433
0.0265675
0.0257228
0.0248026
0.0237504
0.0224392
0.0205989
0.0176333
0.0123048
0.0020054
0.0266858
0.0263082
0.025713
0.024983
0.0241583
0.0232323
0.02215
0.0207903
0.0189132
0.0160459
0.0112609
0.00178712
0.0249724
0.0246565
0.0241215
0.0234375
0.0226396
0.0217208
0.0206295
0.0192563
0.0173982
0.0146867
0.0103705
0.00163133
0.0232474
0.0229851
0.0225062
0.0218707
0.0211085
0.0202118
0.0191337
0.017779
0.0159813
0.0134522
0.00953966
0.00149717
0.0213973
0.021185
0.0207621
0.0201815
0.0194676
0.0186119
0.0175722
0.0162684
0.0145669
0.0122404
0.00870461
0.0013733
0.0192355
0.019074
0.0187121
0.0181985
0.0175523
0.0167631
0.015794
0.0145801
0.0130169
0.0109277
0.00779712
0.00125244
0.0164583
0.0163512
0.0160614
0.0156356
0.0150865
0.0144015
0.0135493
0.0124812
0.0111193
0.00933883
0.00671537
0.00112612
0.0125889
0.012539
0.0123379
0.0120314
0.011624
0.0111
0.0104358
0.00960243
0.00853775
0.00719115
0.00527918
0.000981225
0.00699319
0.00699096
0.00689361
0.00674505
0.00653877
0.00625686
0.005888
0.00542815
0.00480921
0.00406962
0.00311898
0.000798102
0.000748089
0.000743576
0.000731067
0.000713451
0.000690469
0.000662038
0.000627332
0.000583191
0.000527094
0.000456019
0.000363409
0.000172953
0.00366542
0.0209686
0.028852
0.0325392
0.0348037
0.0363616
0.0373996
0.0378953
0.0380436
0.0378199
0.0370341
0.0356506
0.0028765
0.0188186
0.0269678
0.0309698
0.0333515
0.0349268
0.0358808
0.0363311
0.0364352
0.0361249
0.0352564
0.0339108
0.00254619
0.0173556
0.0252235
0.0293218
0.0317578
0.0333219
0.0342271
0.0346457
0.0347009
0.0343259
0.0334465
0.0321657
0.00235421
0.0161428
0.0235716
0.0276256
0.0300621
0.0315968
0.032465
0.0328662
0.0328728
0.0324534
0.0316052
0.0304068
0.00220579
0.0150165
0.0219564
0.0258776
0.0282703
0.0297598
0.0305996
0.0309724
0.0309376
0.0305046
0.0297069
0.0285984
0.00207237
0.0138909
0.0203167
0.0240411
0.0263463
0.027775
0.0285798
0.0289166
0.0288475
0.0284191
0.0276818
0.0266629
0.00194054
0.0127024
0.0185744
0.0220366
0.024203
0.0255459
0.0262955
0.0265894
0.0264919
0.0260758
0.0253938
0.0244696
0.00180182
0.011371
0.0166101
0.0197159
0.0216723
0.0228829
0.0235477
0.0237872
0.0236641
0.0232618
0.0226281
0.0218136
0.00165323
0.00976665
0.0142058
0.0168102
0.0184495
0.0194577
0.0199957
0.0201645
0.0200223
0.0196385
0.0190614
0.018393
0.00147853
0.00769664
0.010975
0.012849
0.0140232
0.0147379
0.0151008
0.0151931
0.0150489
0.0147073
0.0142473
0.0137609
0.00125661
0.00467658
0.00624646
0.00713787
0.00770814
0.00805407
0.0082134
0.0082545
0.00814893
0.00795514
0.00769886
0.00742104
0.000297018
0.000516031
0.000658411
0.000746584
0.000806533
0.000847156
0.000871038
0.000880685
0.00087655
0.000864166
0.000845787
0.000822605
0.0339043
0.0320631
0.0302852
0.028624
0.0270798
0.0256195
0.0241816
0.0226683
0.0208861
0.0183067
0.0130975
0.00295973
0.0322529
0.0304725
0.0287076
0.0270187
0.0254147
0.0238692
0.0223216
0.0206604
0.0186611
0.0157821
0.0106123
0.0018066
0.0306094
0.0289195
0.0272107
0.0255437
0.023933
0.0223576
0.0207593
0.0190235
0.0169307
0.0140163
0.00925954
0.00136226
0.0289612
0.0273832
0.0257641
0.02416
0.022588
0.0210315
0.0194367
0.0176954
0.0156132
0.012824
0.00859375
0.00119468
0.0272649
0.0258115
0.0243028
0.02279
0.0212909
0.0197919
0.0182451
0.0165539
0.0145554
0.011967
0.00822605
0.00112157
0.0254446
0.0241172
0.0227291
0.0213259
0.0199239
0.0185119
0.0170479
0.0154479
0.0135779
0.0112121
0.00787234
0.00107076
0.0233753
0.0221701
0.0209089
0.0196298
0.0183458
0.0170467
0.0156955