/*--------------------------------*- C++ -*----------------------------------*\
| =========                 |                                                 |
| \\      /  F ield         | OpenFOAM: The Open Source CFD Toolbox           |
|  \\    /   O peration     | Version:  2212                                  |
|   \\  /    A nd           | Website:  www.openfoam.com                      |
|    \\/     M anipulation  |                                                 |
\*---------------------------------------------------------------------------*/
FoamFile
{
    version     2.0;
    format      ascii;
    arch        "LSB;label=32;scalar=64";
    class       volScalarField;
    location    "0.08";
    object      k;
}
// * * * * * * * * * * * * * * * * * * * * * * * * * * * * * * * * * * * * * //

dimensions      [0 2 -2 0 0 0 0];

internalField   nonuniform List<scalar> 
3072
(
2.34276
3.2439
3.75086
3.74545
3.69035
3.39276
3.2256
4.09333
12.33
22.7511
26.9848
29.0244
4.90107
7.92488
8.42995
8.20736
8.35923
8.03555
12.1367
19.1812
21.9613
31.7376
38.5436
46.3142
6.61419
11.2685
13.1135
14.6986
19.3066
21.6923
21.8899
26.9472
35.0719
44.9823
52.9314
60.1903
8.81473
16.6507
18.7308
19.5224
22.1486
23.2867
27.0816
36.4086
45.9281
54.6121
61.6718
67.7397
10.409
20.0582
22.0828
21.9683
23.4554
26.6105
34.8272
45.0639
53.8651
61.2402
67.2762
72.4206
11.6977
22.2378
23.6818
23.5811
26.4353
33.1692
42.8311
52.0108
59.5443
65.6546
70.735
75.1203
12.5121
23.6549
25.6648
27.068
32.4912
41.2503
50.1692
57.848
64.0847
69.1275
73.3801
77.1276
13.7742
26.9284
30.8639
35.7758
44.0919
52.1122
59.1644
64.9352
69.6126
73.4356
76.7338
79.751
15.5036
33.3397
42.9451
53.3672
62.7979
69.273
73.6453
76.644
78.9136
80.808
82.602
84.4739
18.5154
42.9766
62.9548
78.4355
88.6117
93.2771
94.6371
94.2667
93.3713
92.5622
92.1695
92.3425
21.1626
56.5611
91.6593
111.507
120.514
122.364
120.466
116.442
112.1
108.217
105.175
103.113
53.0768
92.9445
130.655
146.991
150.989
149.784
144.665
138.017
131.104
124.767
119.461
115.356
30.6593
31.4729
31.9519
32.0249
32.0513
31.0571
29.583
27.1612
24.0117
20.0338
14.8112
11.2468
53.1766
58.9398
62.9292
64.9324
65.0168
64.3185
62.9574
60.4731
55.7843
45.8613
32.8049
27.1619
66.0971
70.4312
73.2617
74.7972
75.5373
75.8908
75.9082
75.3042
73.1484
67.0298
50.3265
39.4937
72.6552
76.4965
79.3928
81.4998
83.1267
84.5806
86.0867
87.4965
87.8313
85.1061
71.417
49.1219
76.6685
80.1584
83.0273
85.4528
87.7215
90.1566
93.0481
96.3715
99.1154
99.3239
89.7741
57.9199
78.8849
82.1706
85.1175
87.9139
90.8474
94.2742
98.5273
103.681
109.172
112.396
107.761
66.4053
80.4945
83.621
86.6538
89.7897
93.319
97.6218
103.098
109.954
117.767
124.169
124.108
75.0349
82.6284
85.4975
88.5069
91.8518
95.813
100.787
107.255
115.615
125.679
135.024
138.19
84.868
86.526
88.8531
91.5982
94.9292
99.0801
104.427
111.508
120.986
133.111
145.513
150.904
96.2097
93.1137
94.5289
96.7226
99.783
103.853
109.226
116.395
126.307
139.917
155.6
164.702
108.304
102.357
102.957
104.379
106.814
110.544
115.605
122.248
131.603
145.369
164.064
180.29
122.275
112.986
112.91
113.973
115.883
118.916
123.286
128.755
136.47
148.077
168.021
194.477
139.939
2.34277
3.24392
3.75088
3.74547
3.69036
3.39277
3.22561
4.09336
12.3301
22.7512
26.9848
29.0244
4.90111
7.92492
8.42998
8.20737
8.35924
8.03556
12.1368
19.1813
21.9614
31.7377
38.5437
46.3144
6.61424
11.2686
13.1135
14.6987
19.3067
21.6923
21.8899
26.9473
35.0721
44.9826
52.9316
60.1905
8.8148
16.6508
18.7309
19.5225
22.1486
23.2867
27.0817
36.4089
45.9283
54.6124
61.6721
67.74
10.4091
20.0583
22.0829
21.9683
23.4554
26.6106
34.8275
45.0642
53.8654
61.2405
67.2765
72.4209
11.6977
22.2379
23.6819
23.5812
26.4354
33.1695
42.8314
52.0111
59.5446
65.6549
70.7353
75.1206
12.5122
23.6551
25.665
27.0682
32.4915
41.2507
50.1695
57.8483
64.085
69.1279
73.3805
77.1279
13.7742
26.9286
30.8642
35.7761
44.0923
52.1126
59.1648
64.9355
69.6129
73.4359
76.7342
79.7514
15.5036
33.3398
42.9453
53.3675
62.7982
69.2733
73.6456
76.6443
78.9139
80.8083
82.6024
84.4743
18.5154
42.9766
62.9549
78.4356
88.6118
93.2772
94.6374
94.267
93.3716
92.5625
92.1698
92.3428
21.1626
56.5612
91.6594
111.507
120.514
122.364
120.466
116.442
112.1
108.217
105.175
103.114
53.0768
92.9446
130.655
146.991
150.989
149.784
144.665
138.017
131.105
124.767
119.461
115.356
30.6594
31.4729
31.9519
32.0249
32.0514
31.0571
29.5831
27.1612
24.0118
20.0338
14.8112
11.2468
53.1768
58.94
62.9294
64.9326
65.0169
64.3186
62.9575
60.4732
55.7844
45.8613
32.8049
27.1619
66.0973
70.4315
73.2619
74.7974
75.5375
75.891
75.9084
75.3044
73.1486
67.0299
50.3266
39.4937
72.6555
76.4968
79.3931
81.5001
83.127
84.5809
86.087
87.4967
87.8315
85.1063
71.4171
49.122
76.6688
80.1587
83.0276
85.4531
87.7218
90.1568
93.0484
96.3718
99.1156
99.3241
89.7743
57.92
78.8852
82.171
85.1178
87.9143
90.8478
94.2745
98.5275
103.682
109.173
112.397
107.761
66.4054
80.4949
83.6214
86.6541
89.79
93.3193
97.6221
103.098
109.954
117.767
124.17
124.108
75.035
82.6288
85.4978
88.5073
91.8521
95.8133
100.787
107.255
115.616
125.68
135.024
138.19
84.8681
86.5263
88.8534
91.5986
94.9295
99.0804
104.427
111.508
120.987
133.111
145.513
150.904
96.2098
93.114
94.5292
96.7229
99.7833
103.853
109.226
116.395
126.307
139.917
155.601
164.702
108.304
102.357
102.957
104.379
106.814
110.545
115.605
122.248
131.603
145.369
164.064
180.29
122.276
112.987
112.91
113.973
115.884
118.917
123.286
128.755
136.47
148.077
168.021
194.478
139.939
2.34278
3.24393
3.7509
3.74549
3.69039
3.3928
3.22563
4.09337
12.3301
22.7512
26.9848
29.0244
4.90113
7.92496
8.43003
8.20744
8.35931
8.0356
12.1368
19.1813
21.9614
31.7377
38.5437
46.3144
6.61426
11.2687
13.1136
14.6988
19.3068
21.6923
21.8899
26.9473
35.0721
44.9825
52.9316
60.1905
8.81483
16.6509
18.731
19.5226
22.1487
23.2867
27.0817
36.4089
45.9283
54.6124
61.6721
67.74
10.4092
20.0584
22.0829
21.9684
23.4554
26.6106
34.8275
45.0642
53.8654
61.2405
67.2764
72.4209
11.6978
22.238
23.682
23.5813
26.4355
33.1695
42.8314
52.0111
59.5446
65.6549
70.7353
75.1206
12.5122
23.6551
25.6651
27.0682
32.4915
41.2507
50.1695
57.8484
64.0851
69.1279
73.3805
77.1279
13.7742
26.9286
30.8642
35.7762
44.0923
52.1127
59.1648
64.9356
69.613
73.436
76.7342
79.7514
15.5036
33.3399
42.9454
53.3675
62.7983
69.2734
73.6457
76.6444
78.9141
80.8084
82.6024
84.4744
18.5154
42.9767
62.955
78.4357
88.6119
93.2774
94.6375
94.2671
93.3718
92.5626
92.1699
92.343
21.1627
56.5612
91.6595
111.507
120.514
122.364
120.466
116.442
112.1
108.218
105.175
103.114
53.0769
92.9447
130.655
146.991
150.989
149.784
144.665
138.017
131.105
124.767
119.462
115.356
30.6594
31.4729
31.9519
32.0249
32.0513
31.0571
29.583
27.1612
24.0117
20.0338
14.8112
11.2468
53.1767
58.94
62.9294
64.9325
65.0169
64.3186
62.9575
60.4731
55.7843
45.8613
32.8049
27.1619
66.0973
70.4314
73.2619
74.7974
75.5374
75.8909
75.9083
75.3043
73.1485
67.0298
50.3265
39.4936
72.6554
76.4967
79.393
81.5
83.1269
84.5808
86.0869
87.4967
87.8314
85.1062
71.417
49.1219
76.6688
80.1587
83.0275
85.453
87.7217
90.1568
93.0483
96.3717
99.1155
99.324
89.7742
57.9199
78.8852
82.1709
85.1178
87.9142
90.8477
94.2745
98.5275
103.682
109.173
112.396
107.761
66.4053
80.4949
83.6214
86.6541
89.79
93.3193
97.6221
103.098
109.954
117.767
124.17
124.108
75.0349
82.6288
85.4979
88.5073
91.8521
95.8133
100.787
107.255
115.616
125.679
135.024
138.19
84.868
86.5264
88.8535
91.5986
94.9295
99.0804
104.427
111.508
120.987
133.111
145.513
150.904
96.2097
93.1141
94.5293
96.723
99.7834
103.853
109.226
116.395
126.307
139.917
155.601
164.702
108.304
102.357
102.957
104.379
106.815
110.545
115.605
122.248
131.603
145.369
164.064
180.29
122.275
112.987
112.911
113.974
115.884
118.917
123.286
128.755
136.47
148.077
168.021
194.477
139.939
2.34276
3.24391
3.75086
3.74545
3.69035
3.39277
3.2256
4.09333
12.33
22.7511
26.9848
29.0243
4.90109
7.9249
8.42995
8.20735
8.35923
8.03554
12.1367
19.1812
21.9613
31.7376
38.5436
46.3143
6.61421
11.2686
13.1135
14.6986
19.3066
21.6922
21.8899
26.9472
35.0719
44.9824
52.9315
60.1903
8.81476
16.6508
18.7308
19.5224
22.1486
23.2866
27.0816
36.4087
45.9281
54.6122
61.6719
67.7398
10.4091
20.0582
22.0828
21.9682
23.4553
26.6105
34.8273
45.064
53.8652
61.2403
67.2763
72.4207
11.6977
22.2379
23.6818
23.5811
26.4353
33.1694
42.8312
52.0109
59.5444
65.6547
70.7351
75.1204
12.5121
23.655
25.6649
27.0681
32.4914
41.2505
50.1693
57.8481
64.0849
69.1277
73.3803
77.1277
13.7742
26.9285
30.8641
35.776
44.0921
52.1125
59.1646
64.9354
69.6128
73.4358
76.734
79.7512
15.5036
33.3397
42.9453
53.3674
62.7981
69.2732
73.6455
76.6442
78.9138
80.8082
82.6022
84.4742
18.5154
42.9766
62.9548
78.4355
88.6117
93.2772
94.6373
94.267
93.3716
92.5624
92.1697
92.3428
21.1626
56.5611
91.6593
111.507
120.514
122.364
120.466
116.442
112.1
108.217
105.175
103.114
53.0768
92.9446
130.655
146.991
150.989
149.784
144.665
138.017
131.105
124.767
119.462
115.356
30.6593
31.4728
31.9518
32.0249
32.0513
31.0571
29.583
27.1612
24.0117
20.0337
14.8112
11.2468
53.1766
58.9399
62.9293
64.9324
65.0168
64.3185
62.9574
60.4731
55.7842
45.8612
32.8048
27.1619
66.0971
70.4313
73.2617
74.7972
75.5373
75.8908
75.9082
75.3042
73.1484
67.0298
50.3265
39.4936
72.6553
76.4966
79.3928
81.4999
83.1268
84.5807
86.0868
87.4966
87.8314
85.1061
71.417
49.1219
76.6686
80.1585
83.0274
85.4529
87.7216
90.1567
93.0482
96.3716
99.1154
99.3239
89.7741
57.9199
78.885
82.1708
85.1176
87.9141
90.8476
94.2743
98.5274
103.682
109.172
112.396
107.761
66.4053
80.4947
83.6212
86.654
89.7899
93.3192
97.6219
103.098
109.954
117.767
124.17
124.108
75.0349
82.6286
85.4977
88.5071
91.852
95.8132
100.787
107.255
115.616
125.679
135.024
138.19
84.8679
86.5262
88.8533
91.5985
94.9294
99.0803
104.427
111.508
120.987
133.111
145.513
150.904
96.2097
93.1139
94.5291
96.7228
99.7832
103.853
109.226
116.395
126.307
139.917
155.6
164.702
108.304
102.357
102.957
104.379
106.814
110.545
115.605
122.248
131.603
145.369
164.064
180.29
122.275
112.987
112.91
113.973
115.884
118.917
123.286
128.755
136.47
148.077
168.021
194.477
139.939
164.562
161.723
162.462
163.801
163.619
161.685
157.06
150.897
143.971
137.2
131.158
126.129
164.828
158.35
155.642
155.436
155.984
155.702
154.225
151.259
146.854
142.062
137.306
133.039
152.833
148.909
145.673
144.135
143.962
144.296
144.451
143.966
142.79
140.761
138.228
135.973
139.983
138.338
136.434
134.875
134.329
134.569
135.218
135.87
136.304
136.301
136.017
135.78
123.153
122.9
123.85
125.458
127.817
130.924
134.431
139.4
147.524
163.428
192.253
183.846
131.071
131.387
132.269
133.36
134.457
135.431
136.802
139.256
143.594
152.486
172.813
172.324
135.957
136.557
136.838
136.616
135.923
134.955
134.447
134.727
136.549
140.825
152.73
155.374
136.689
136.271
134.704
132.651
130.251
128.521
127.689
127.79
129.151
131.536
137.921
140.96
164.562
161.723
162.462
163.801
163.619
161.685
157.06
150.897
143.971
137.2
131.158
126.129
164.828
158.351
155.642
155.436
155.985
155.702
154.226
151.259
146.855
142.062
137.306
133.039
152.833
148.909
145.674
144.135
143.962
144.296
144.451
143.966
142.79
140.761
138.228
135.973
139.983
138.338
136.434
134.875
134.329
134.569
135.218
135.87
136.304
136.301
136.018
135.78
123.153
122.9
123.851
125.458
127.817
130.924
134.431
139.401
147.524
163.428
192.254
183.846
131.071
131.387
132.269
133.36
134.457
135.431
136.802
139.256
143.595
152.486
172.813
172.324
135.957
136.557
136.838
136.616
135.923
134.956
134.448
134.727
136.549
140.825
152.73
155.374
136.689
136.271
134.704
132.651
130.252
128.522
127.689
127.79
129.151
131.536
137.921
140.96
164.563
161.724
162.462
163.801
163.619
161.685
157.06
150.897
143.971
137.2
131.158
126.129
164.828
158.351
155.642
155.437
155.985
155.702
154.226
151.259
146.855
142.062
137.306
133.039
152.833
148.909
145.674
144.135
143.963
144.297
144.451
143.966
142.79
140.761
138.228
135.973
139.983
138.338
136.434
134.875
134.33
134.569
135.218
135.87
136.304
136.301
136.018
135.78
123.153
122.9
123.851
125.458
127.817
130.924
134.431
139.401
147.524
163.428
192.253
183.846
131.071
131.387
132.269
133.36
134.457
135.431
136.802
139.256
143.595
152.486
172.813
172.324
135.957
136.557
136.838
136.616
135.923
134.955
134.447
134.727
136.549
140.825
152.73
155.374
136.689
136.271
134.704
132.651
130.251
128.521
127.689
127.79
129.151
131.536
137.921
140.96
164.562
161.723
162.462
163.801
163.619
161.685
157.06
150.897
143.971
137.2
131.158
126.129
164.828
158.351
155.642
155.436
155.985
155.702
154.226
151.259
146.855
142.062
137.306
133.039
152.833
148.909
145.674
144.135
143.962
144.296
144.451
143.966
142.79
140.761
138.228
135.973
139.983
138.338
136.434
134.875
134.33
134.569
135.218
135.87
136.304
136.301
136.018
135.78
123.153
122.9
123.851
125.458
127.817
130.924
134.431
139.4
147.524
163.428
192.253
183.846
131.071
131.387
132.269
133.36
134.457
135.431
136.802
139.256
143.594
152.486
172.813
172.324
135.957
136.557
136.838
136.616
135.923
134.955
134.447
134.727
136.549
140.825
152.73
155.374
136.689
136.271
134.704
132.651
130.251
128.521
127.689
127.79
129.151
131.536
137.921
140.959
128.933
128.076
127.491
127.489
127.876
128.474
128.97
129.174
128.9
128.167
127.365
126.932
121.6
121.569
121.71
122.07
122.386
122.404
121.61
119.978
117.455
114.502
111.937
111.068
114.957
115.112
115.211
115.222
114.682
113.366
111.028
107.711
103.616
99.5513
96.5466
96.3234
106.64
106.465
105.862
104.849
102.986
100.204
96.444
91.9457
87.1911
83.1715
81.0637
80.9725
127.187
124.886
121.855
121.136
120.668
121.304
122.46
124.086
126.099
128.439
130.344
130.642
112.274
112.401
111.142
112.409
113.894
115.996
118.096
120.192
121.931
123.09
123.738
122.973
100.28
102.87
102.627
105.312
107.83
110.568
112.967
114.8
116.029
116.734
116.771
115.721
87.3356
94.4601
94.9127
98.0881
100.955
103.662
105.759
107.27
108.302
108.685
108.283
107.263
128.934
128.077
127.491
127.489
127.877
128.474
128.97
129.174
128.9
128.167
127.365
126.933
121.6
121.569
121.71
122.07
122.386
122.404
121.61
119.978
117.455
114.502
111.937
111.068
114.958
115.112
115.211
115.222
114.682
113.366
111.028
107.711
103.616
99.5514
96.5466
96.3234
106.641
106.465
105.862
104.849
102.987
100.204
96.4441
91.9458
87.1912
83.1716
81.0637
80.9726
127.187
124.886
121.855
121.136
120.668
121.304
122.46
124.086
126.099
128.439
130.344
130.643
112.274
112.401
111.142
112.409
113.894
115.996
118.096
120.192
121.931
123.09
123.738
122.973
100.28
102.87
102.627
105.312
107.83
110.568
112.968
114.8
116.029
116.734
116.771
115.721
87.3356
94.4601
94.9127
98.0881
100.955
103.662
105.759
107.27
108.302
108.685
108.283
107.263
128.934
128.077
127.491
127.489
127.877
128.474
128.97
129.174
128.9
128.167
127.365
126.932
121.6
121.569
121.71
122.07
122.386
122.404
121.61
119.978
117.455
114.502
111.937
111.068
114.958
115.112
115.211
115.222
114.682
113.366
111.028
107.711
103.616
99.5513
96.5465
96.3234
106.64
106.465
105.862
104.849
102.986
100.204
96.444
91.9457
87.1911
83.1715
81.0637
80.9725
127.187
124.886
121.855
121.136
120.668
121.304
122.46
124.086
126.099
128.439
130.344
130.642
112.274
112.401
111.142
112.409
113.894
115.996
118.096
120.192
121.931
123.09
123.738
122.973
100.28
102.87
102.627
105.312
107.83
110.567
112.967
114.8
116.029
116.734
116.771
115.721
87.3356
94.46
94.9127
98.088
100.955
103.662
105.759
107.27
108.302
108.685
108.283
107.263
128.934
128.077
127.491
127.489
127.877
128.474
128.97
129.174
128.9
128.167
127.365
126.932
121.6
121.569
121.71
122.07
122.386
122.404
121.61
119.978
117.455
114.502
111.937
111.068
114.958
115.112
115.211
115.222
114.682
113.366
111.028
107.711
103.616
99.5513
96.5465
96.3233
106.64
106.465
105.862
104.849
102.986
100.204
96.444
91.9456
87.1911
83.1714
81.0636
80.9725
127.187
124.886
121.855
121.136
120.668
121.303
122.46
124.086
126.099
128.439
130.344
130.642
112.274
112.401
111.141
112.409
113.894
115.996
118.095
120.192
121.931
123.09
123.738
122.973
100.28
102.87
102.627
105.312
107.83
110.567
112.967
114.8
116.029
116.734
116.77
115.721
87.3355
94.46
94.9126
98.088
100.955
103.662
105.759
107.27
108.301
108.685
108.283
107.263
95.3924
94.2875
92.4335
89.888
86.2432
81.4913
75.5405
68.4575
60.2472
50.6236
38.9156
29.1858
80.7384
78.2395
74.7069
70.1815
64.2479
56.8227
47.6242
36.4783
23.4545
12.1634
6.19036
4.90626
63.0262
58.8887
53.5031
46.871
38.6484
28.8546
17.5205
7.44983
2.31738
0.961165
0.821299
0.838429
43.3351
37.6644
30.7521
22.6428
13.419
5.33625
1.209
0.26041
0.194045
0.180094
0.183335
0.185216
23.4337
16.8642
9.74769
3.77683
0.816079
0.14183
0.128323
0.109169
0.112977
0.111491
0.110842
0.109059
6.33974
2.33898
0.580061
0.101544
0.120725
0.107481
0.108364
0.108003
0.107982
0.107779
0.107815
0.107809
0.393002
0.104276
0.113949
0.106707
0.106957
0.10705
0.107177
0.107259
0.107298
0.107351
0.10748
0.10758
0.108914
0.105161
0.105399
0.105659
0.105891
0.106121
0.106324
0.10654
0.106746
0.106973
0.107211
0.107429
0.102837
0.1031
0.103375
0.103669
0.10396
0.104258
0.104532
0.104792
0.105043
0.105293
0.105586
0.105924
0.0968194
0.0971259
0.0974187
0.0977518
0.0980594
0.0983979
0.0987114
0.0990507
0.0993629
0.0996992
0.100042
0.100402
0.0815642
0.0819175
0.0822633
0.0826135
0.0829646
0.0833275
0.0836934
0.0840733
0.0844644
0.0848651
0.0852668
0.0856204
0.0483942
0.0470725
0.0472243
0.0462057
0.0463212
0.0455537
0.045661
0.0451693
0.0452845
0.045134
0.0452583
0.045364
68.2209
84.7315
86.8129
89.8826
92.5335
94.7704
96.4656
97.7556
98.4509
98.4629
97.6115
96.4382
58.9609
74.1032
77.6942
80.294
82.4057
84.1295
85.4659
86.3095
86.5044
85.8348
84.4541
82.7243
52.3329
64.1724
67.4488
69.4868
71.0388
72.2608
73.0021
73.1834
72.5478
71.0574
68.9468
66.2975
46.187
54.0914
56.4799
58.0308
58.9668
59.4475
59.4542
58.623
57.0621
54.6995
51.6998
47.9532
40.0079
43.9461
45.4568
46.2941
46.5032
46.066
45.0637
43.2649
40.839
37.6218
33.7495
29.0319
33.3799
34.073
34.6461
34.5715
33.878
32.4644
30.5924
27.9738
24.8857
21.003
16.5559
11.4438
26.8782
23.9761
24.2952
22.8614
21.6796
19.3952
16.9919
13.7564
10.4611
6.71037
3.58692
1.19591
20.1508
14.4045
14.5607
11.8231
10.719
7.73317
5.78324
3.12399
1.68291
0.41836
0.281579
0.0898024
12.6676
5.65048
5.96325
3.26895
2.90821
1.00092
0.76325
0.155699
0.16604
0.0955887
0.104396
0.102401
6.63176
0.959422
1.09225
0.301389
0.314298
0.093317
0.112271
0.0940039
0.0965779
0.0959957
0.0963454
0.0965947
2.66583
0.0992718
0.131203
0.0756119
0.083085
0.0784184
0.0798806
0.080085
0.080256
0.0805487
0.080857
0.0812062
2.05489
0.0714216
0.0674354
0.0605129
0.059446
0.0552442
0.0552808
0.0516034
0.0521285
0.0495973
0.0499506
0.0481648
95.3925
94.2877
92.4336
89.8881
86.2433
81.4914
75.5407
68.4576
60.2473
50.6237
38.9157
29.1859
80.7386
78.2397
74.707
70.1816
64.248
56.8229
47.6243
36.4784
23.4546
12.1634
6.19037
4.90628
63.0263
58.8889
53.5032
46.8712
38.6485
28.8548
17.5206
7.44989
2.3174
0.961176
0.821307
0.838438
43.3353
37.6645
30.7522
22.6429
13.4191
5.33632
1.20902
0.260418
0.19405
0.1801
0.18334
0.185222
23.4339
16.8643
9.74779
3.77689
0.816095
0.141835
0.128325
0.109171
0.112979
0.111494
0.110844
0.109062
6.33981
2.33899
0.580079
0.101543
0.120725
0.107481
0.108364
0.108003
0.107981
0.107778
0.107815
0.107809
0.392994
0.104273
0.113949
0.106706
0.106956
0.107049
0.107176
0.107259
0.107297
0.10735
0.107479
0.107579
0.108913
0.10516
0.105399
0.105658
0.105891
0.106121
0.106323
0.10654
0.106745
0.106972
0.10721
0.107429
0.102836
0.103099
0.103374
0.103668
0.10396
0.104258
0.104531
0.104792
0.105042
0.105293
0.105585
0.105924
0.0968192
0.0971257
0.0974185
0.0977517
0.0980593
0.0983977
0.0987112
0.0990505
0.0993627
0.099699
0.100042
0.100402
0.0815642
0.0819175
0.0822633
0.0826135
0.0829646
0.0833275
0.0836933
0.0840733
0.0844643
0.0848651
0.0852668
0.0856204
0.0483942
0.0470725
0.0472243
0.0462057
0.0463212
0.0455538
0.045661
0.0451693
0.0452845
0.045134
0.0452583
0.045364
68.2209
84.7314
86.8129
89.8825
92.5334
94.7703
96.4656
97.7556
98.4508
98.4629
97.6114
96.4381
58.9608
74.1031
77.6941
80.2939
82.4056
84.1294
85.4658
86.3094
86.5043
85.8347
84.454
82.7241
52.3328
64.1723
67.4487
69.4867
71.0387
72.2607
73.002
73.1833
72.5477
71.0572
68.9467
66.2974
46.1869
54.0913
56.4797
58.0306
58.9667
59.4474
59.4541
58.6229
57.062
54.6993
51.6996
47.953
40.0078
43.9459
45.4566
46.2939
46.503
46.0658
45.0635
43.2647
40.8388
37.6216
33.7493
29.0318
33.3798
34.0728
34.646
34.5714
33.8778
32.4642
30.5923
27.9736
24.8856
21.0028
16.5558
11.4437
26.8781
23.976
24.2951
22.8612
21.6794
19.395
16.9917
13.7562
10.4609
6.71026
3.58685
1.19588
20.1507
14.4044
14.5606
11.823
10.7189
7.73303
5.78312
3.1239
1.68287
0.418343
0.281576
0.0898026
12.6675
5.65038
5.96314
3.26886
2.90812
1.00088
0.763222
0.155694
0.166037
0.0955894
0.104397
0.102402
6.63168
0.959392
1.09222
0.301377
0.314287
0.0933166
0.11227
0.0940043
0.0965782
0.0959961
0.0963457
0.096595
2.66579
0.0992707
0.131201
0.0756123
0.083085
0.0784187
0.0798809
0.0800853
0.0802563
0.0805489
0.0808573
0.0812065
2.05486
0.0714217
0.0674352
0.0605129
0.059446
0.0552442
0.0552808
0.0516035
0.0521285
0.0495973
0.0499506
0.0481649
95.3924
94.2875
92.4335
89.888
86.2431
81.4912
75.5405
68.4575
60.2472
50.6236
38.9156
29.1858
80.7384
78.2395
74.7068
70.1815
64.2478
56.8227
47.6241
36.4783
23.4545
12.1634
6.19036
4.90627
63.0262
58.8887
53.503
46.871
38.6484
28.8546
17.5205
7.44984
2.31739
0.961173
0.821303
0.838435
43.3351
37.6644
30.752
22.6428
13.419
5.33625
1.20901
0.260419
0.194049
0.1801
0.18334
0.185222
23.4337
16.8641
9.74768
3.77683
0.816078
0.141833
0.128327
0.109171
0.112979
0.111494
0.110845
0.109063
6.33972
2.33895
0.580068
0.101542
0.120725
0.107481
0.108364
0.108003
0.107982
0.107779
0.107816
0.107809
0.392986
0.104272
0.113949
0.106707
0.106957
0.10705
0.107176
0.107259
0.107297
0.107351
0.107479
0.10758
0.108913
0.10516
0.105399
0.105659
0.105891
0.106121
0.106323
0.10654
0.106745
0.106972
0.107211
0.107429
0.102837
0.103099
0.103375
0.103669
0.10396
0.104258
0.104532
0.104792
0.105043
0.105293
0.105586
0.105924
0.0968196
0.097126
0.0974189
0.097752
0.0980596
0.0983981
0.0987116
0.0990509
0.0993631
0.0996994
0.100042
0.100402
0.0815645
0.0819178
0.0822636
0.0826138
0.0829649
0.0833278
0.0836937
0.0840736
0.0844647
0.0848655
0.0852672
0.0856208
0.0483943
0.0470726
0.0472244
0.0462059
0.0463214
0.0455539
0.0456611
0.0451695
0.0452847
0.0451342
0.0452585
0.0453642
68.2209
84.7314
86.8129
89.8825
92.5334
94.7703
96.4655
97.7555
98.4508
98.4628
97.6114
96.438
58.9608
74.1031
77.6941
80.2939
82.4056
84.1294
85.4658
86.3093
86.5043
85.8347
84.454
82.7241
52.3328
64.1722
67.4486
69.4867
71.0387
72.2606
73.002
73.1832
72.5477
71.0572
68.9467
66.2973
46.1869
54.0913
56.4797
58.0306
58.9667
59.4474
59.4541
58.6229
57.062
54.6993
51.6996
47.953
40.0078
43.9459
45.4566
46.2939
46.503
46.0658
45.0635
43.2647
40.8388
37.6216
33.7493
29.0317
33.3798
34.0729
34.646
34.5714
33.8778
32.4642
30.5923
27.9736
24.8856
21.0028
16.5558
11.4437
26.8781
23.976
24.2951
22.8612
21.6794
19.395
16.9917
13.7562
10.4609
6.71026
3.58685
1.19588
20.1507
14.4044
14.5606
11.823
10.7189
7.73303
5.78312
3.1239
1.68287
0.418342
0.28158
0.089803
12.6675
5.65037
5.96314
3.26885
2.90812
1.00088
0.763223
0.155694
0.166038
0.0955896
0.104397
0.102402
6.6317
0.95939
1.09221
0.301376
0.314287
0.0933166
0.11227
0.0940043
0.0965783
0.0959961
0.0963457
0.096595
2.66581
0.0992706
0.1312
0.0756122
0.083085
0.0784186
0.0798808
0.0800853
0.0802562
0.0805489
0.0808573
0.0812065
2.05488
0.0714221
0.0674353
0.060513
0.0594462
0.0552444
0.0552809
0.0516036
0.0521286
0.0495974
0.0499507
0.0481649
95.3923
94.2875
92.4334
89.8879
86.2431
81.4912
75.5405
68.4574
60.2471
50.6235
38.9156
29.1858
80.7384
78.2395
74.7068
70.1814
64.2478
56.8227
47.6241
36.4783
23.4545
12.1634
6.19036
4.90627
63.0261
58.8886
53.503
46.8709
38.6483
28.8546
17.5205
7.44984
2.3174
0.961178
0.821309
0.838441
43.3351
37.6643
30.752
22.6427
13.419
5.33625
1.20901
0.260423
0.194054
0.180104
0.183345
0.185226
23.4337
16.8641
9.74767
3.77683
0.816082
0.141835
0.128329
0.109173
0.112981
0.111497
0.110847
0.109065
6.33972
2.33895
0.580071
0.101543
0.120726
0.107482
0.108365
0.108004
0.107983
0.10778
0.107816
0.10781
0.392989
0.104273
0.11395
0.106707
0.106957
0.10705
0.107177
0.107259
0.107298
0.107351
0.10748
0.10758
0.108914
0.105161
0.105399
0.105659
0.105891
0.106121
0.106324
0.10654
0.106746
0.106973
0.107211
0.10743
0.102837
0.1031
0.103375
0.103669
0.10396
0.104258
0.104532
0.104792
0.105043
0.105294
0.105586
0.105924
0.0968196
0.0971261
0.0974189
0.0977521
0.0980597
0.0983981
0.0987117
0.0990509
0.0993631
0.0996995
0.100042
0.100402
0.0815644
0.0819178
0.0822635
0.0826137
0.0829648
0.0833278
0.0836936
0.0840735
0.0844646
0.0848654
0.0852671
0.0856207
0.0483943
0.0470726
0.0472244
0.0462058
0.0463213
0.0455539
0.0456611
0.0451694
0.0452846
0.0451341
0.0452584
0.0453641
68.2208
84.7314
86.8128
89.8825
92.5333
94.7702
96.4654
97.7555
98.4507
98.4628
97.6114
96.4381
58.9608
74.1031
77.6941
80.2939
82.4055
84.1294
85.4657
86.3093
86.5042
85.8347
84.454
82.7242
52.3328
64.1722
67.4486
69.4866
71.0387
72.2606
73.002
73.1832
72.5477
71.0572
68.9467
66.2974
46.1869
54.0912
56.4797
58.0306
58.9667
59.4474
59.4541
58.6229
57.062
54.6993
51.6996
47.953
40.0078
43.9459
45.4566
46.2939
46.503
46.0659
45.0635
43.2647
40.8388
37.6216
33.7493
29.0318
33.3798
34.0728
34.646
34.5714
33.8779
32.4642
30.5923
27.9737
24.8856
21.0029
16.5558
11.4437
26.8781
23.976
24.2951
22.8613
21.6794
19.395
16.9918
13.7563
10.461
6.71032
3.58689
1.1959
20.1507
14.4044
14.5606
11.823
10.7189
7.73311
5.7832
3.12398
1.68293
0.418384
0.281599
0.0898146
12.6675
5.65045
5.9632
3.26893
2.9082
1.00094
0.763274
0.155729
0.16607
0.0956162
0.104423
0.102428
6.63174
0.959446
1.09227
0.301418
0.314326
0.0933445
0.112299
0.0940305
0.0966048
0.0960225
0.096372
0.0966212
2.66583
0.0992891
0.131224
0.0756316
0.0831061
0.0784392
0.0799025
0.0801073
0.0802787
0.0805716
0.0808801
0.0812292
2.05489
0.0714279
0.067446
0.0605203
0.059454
0.0552511
0.0552882
0.0516106
0.0521356
0.0496042
0.0499575
0.0481714
)
;

boundaryField
{
    rotor
    {
        type            kqRWallFunction;
        value           nonuniform List<scalar> 
192
(
2.34276
3.2439
3.75086
3.74545
3.69035
3.39276
3.2256
4.09333
12.33
22.7511
26.9848
29.0244
30.6593
31.4729
31.9519
32.0249
32.0513
31.0571
29.583
27.1612
24.0117
20.0338
14.8112
11.2468
2.34277
3.24392
3.75088
3.74547
3.69036
3.39277
3.22561
4.09336
12.3301
22.7512
26.9848
29.0244
30.6594
31.4729
31.9519
32.0249
32.0514
31.0571
29.5831
27.1612
24.0118
20.0338
14.8112
11.2468
2.34278
3.24393
3.7509
3.74549
3.69039
3.3928
3.22563
4.09337
12.3301
22.7512
26.9848
29.0244
30.6594
31.4729
31.9519
32.0249
32.0513
31.0571
29.583
27.1612
24.0117
20.0338
14.8112
11.2468
2.34276
3.24391
3.75086
3.74545
3.69035
3.39277
3.2256
4.09333
12.33
22.7511
26.9848
29.0243
30.6593
31.4728
31.9518
32.0249
32.0513
31.0571
29.583
27.1612
24.0117
20.0337
14.8112
11.2468
2.34276
4.90107
6.61419
8.81473
10.409
11.6977
12.5121
13.7742
15.5036
18.5154
21.1626
53.0768
11.2468
27.1619
39.4936
49.1219
57.9199
66.4053
75.0349
84.8679
96.2097
108.304
122.275
139.939
2.34277
4.90111
6.61424
8.8148
10.4091
11.6977
12.5122
13.7742
15.5036
18.5154
21.1626
53.0768
11.2468
27.1619
39.4937
49.1219
57.9199
66.4053
75.0349
84.868
96.2097
108.304
122.275
139.939
2.34278
4.90113
6.61426
8.81483
10.4092
11.6978
12.5122
13.7742
15.5036
18.5154
21.1627
53.0769
11.2468
27.1619
39.4937
49.122
57.92
66.4054
75.035
84.8681
96.2098
108.304
122.276
139.939
2.34276
4.90109
6.61421
8.81476
10.4091
11.6977
12.5121
13.7742
15.5036
18.5154
21.1626
53.0768
11.2468
27.1619
39.4936
49.1219
57.9199
66.4053
75.0349
84.868
96.2097
108.304
122.275
139.939
)
;
    }
    stator
    {
        type            kqRWallFunction;
        value           nonuniform List<scalar> 
192
(
0.0483942
0.0470725
0.0472243
0.0462057
0.0463212
0.0455537
0.045661
0.0451693
0.0452845
0.045134
0.0452583
0.045364
2.05489
0.0714216
0.0674354
0.0605129
0.059446
0.0552442
0.0552808
0.0516034
0.0521285
0.0495973
0.0499506
0.0481648
0.0483942
0.0470725
0.0472243
0.0462057
0.0463212
0.0455538
0.045661
0.0451693
0.0452845
0.045134
0.0452583
0.045364
2.05486
0.0714217
0.0674352
0.0605129
0.059446
0.0552442
0.0552808
0.0516035
0.0521285
0.0495973
0.0499506
0.0481649
0.0483943
0.0470726
0.0472244
0.0462059
0.0463214
0.0455539
0.0456611
0.0451695
0.0452847
0.0451342
0.0452585
0.0453642
2.05488
0.0714221
0.0674353
0.060513
0.0594462
0.0552444
0.0552809
0.0516036
0.0521286
0.0495974
0.0499507
0.0481649
0.0483943
0.0470726
0.0472244
0.0462058
0.0463213
0.0455539
0.0456611
0.0451694
0.0452846
0.0451341
0.0452584
0.0453641
2.05489
0.0714279
0.067446
0.0605203
0.059454
0.0552511
0.0552882
0.0516106
0.0521356
0.0496042
0.0499575
0.0481714
68.2209
58.9609
52.3329
46.187
40.0079
33.3799
26.8782
20.1508
12.6676
6.63176
2.66583
2.05489
29.1858
4.90626
0.838429
0.185216
0.109059
0.107809
0.10758
0.107429
0.105924
0.100402
0.0856204
0.045364
68.2209
58.9608
52.3328
46.1869
40.0078
33.3798
26.8781
20.1507
12.6675
6.63168
2.66579
2.05486
29.1859
4.90628
0.838438
0.185222
0.109062
0.107809
0.107579
0.107429
0.105924
0.100402
0.0856204
0.045364
68.2209
58.9608
52.3328
46.1869
40.0078
33.3798
26.8781
20.1507
12.6675
6.6317
2.66581
2.05488
29.1858
4.90627
0.838435
0.185222
0.109063
0.107809
0.10758
0.107429
0.105924
0.100402
0.0856208
0.0453642
68.2208
58.9608
52.3328
46.1869
40.0078
33.3798
26.8781
20.1507
12.6675
6.63174
2.66583
2.05489
29.1858
4.90627
0.838441
0.185226
0.109065
0.10781
0.10758
0.10743
0.105924
0.100402
0.0856207
0.0453641
)
;
    }
    front
    {
        type            empty;
    }
    back
    {
        type            empty;
    }
}


// ************************************************************************* //
