/*--------------------------------*- C++ -*----------------------------------*\
| =========                 |                                                 |
| \\      /  F ield         | OpenFOAM: The Open Source CFD Toolbox           |
|  \\    /   O peration     | Version:  2212                                  |
|   \\  /    A nd           | Website:  www.openfoam.com                      |
|    \\/     M anipulation  |                                                 |
\*---------------------------------------------------------------------------*/
FoamFile
{
    version     2.0;
    format      ascii;
    arch        "LSB;label=32;scalar=64";
    class       surfaceScalarField;
    location    "0.08";
    object      phi;
}
// * * * * * * * * * * * * * * * * * * * * * * * * * * * * * * * * * * * * * //

dimensions      [1 0 -1 0 0 0 0];

oriented        oriented;

internalField   nonuniform List<scalar> 
5952
(
6.5483e-05
-6.54829e-05
0.000123401
-5.79176e-05
0.00015458
-3.11792e-05
0.000168013
-1.34326e-05
0.000166559
1.45369e-06
0.000131324
3.52358e-05
5.6228e-05
7.50958e-05
-8.12065e-05
0.000137435
-0.000293881
0.000212675
-0.000468056
0.000174175
-0.000597408
0.000129352
9.81096e-05
-0.000695518
5.21163e-05
-0.000117599
7.88162e-05
-8.46174e-05
7.24284e-05
-2.47913e-05
3.10395e-05
2.79565e-05
-5.39487e-05
8.6442e-05
-0.000187438
0.000168725
-0.000349814
0.000237473
-0.000474132
0.000261752
-0.000517414
0.000255957
-0.000555532
0.000212293
-0.0005946
0.000168419
0.000131127
-0.000627617
2.15137e-05
-0.000139112
1.45727e-05
-7.76762e-05
-2.71308e-05
1.69123e-05
-0.000112529
0.000113355
-0.00023735
0.000211263
-0.000349584
0.000280959
-0.000416439
0.000304328
-0.00045212
0.000297433
-0.000464501
0.000268338
-0.00047669
0.000224482
-0.000490984
0.000182713
0.000142308
-0.000502164
-3.49463e-05
-0.000104166
-8.00926e-05
-3.25296e-05
-0.000145107
8.19264e-05
-0.000225445
0.000193694
-0.000297674
0.000283492
-0.000340788
0.000324072
-0.00036146
0.000325
-0.000369173
0.000305146
-0.000371056
0.000270222
-0.000373718
0.000227144
-0.000375954
0.000184949
0.000143343
-0.000376989
-5.94912e-05
-4.46746e-05
-0.000122121
3.00998e-05
-0.000183428
0.000143234
-0.000235982
0.000246248
-0.000267023
0.000314533
-0.000276439
0.000333488
-0.00027547
0.000324032
-0.000267619
0.000297295
-0.000258925
0.000261527
-0.000253089
0.000221308
-0.00024898
0.000180841
0.000140473
-0.00024611
-6.59916e-05
2.13172e-05
-0.000125413
8.95218e-05
-0.000172087
0.000189908
-0.000197441
0.000271603
-0.000200871
0.000317964
-0.000191645
0.000324262
-0.000176006
0.000308394
-0.00015949
0.000280778
-0.000144974
0.000247012
-0.000133751
0.000210086
-0.000125265
0.000172354
0.000134239
-0.000119031
-6.58976e-05
8.7215e-05
-0.000116871
0.000140495
-0.000144427
0.000217465
-0.000145395
0.00027257
-0.000127655
0.000300225
-0.000102575
0.000299182
-7.66184e-05
0.000282437
-5.28515e-05
0.000257012
-3.26986e-05
0.000226859
-1.65848e-05
0.000193972
-4.01131e-06
0.000159781
0.000124677
5.55046e-06
-6.74886e-05
0.000154704
-0.000104194
0.0001772
-0.00011045
0.000223722
-8.97771e-05
0.000251897
-5.46168e-05
0.000265065
-1.66322e-05
0.000261198
1.90508e-05
0.000246755
5.03306e-05
0.000225732
7.66266e-05
0.000200563
9.80453e-05
0.000172554
0.000115176
0.000142651
0.000111244
0.00012861
-5.70009e-05
0.000211705
-8.26832e-05
0.000202883
-6.76497e-05
0.000208689
-2.91428e-05
0.00021339
2.00446e-05
0.000215878
6.92782e-05
0.000211964
0.000114141
0.000201892
0.000153041
0.000186832
0.000185847
0.000167758
0.000212991
0.00014541
0.000235168
0.000120474
9.33851e-05
0.000253027
-6.0483e-05
0.000272188
-4.97241e-05
0.000192124
-4.76747e-06
0.000163732
5.19821e-05
0.000156641
0.000112811
0.000155049
0.00017046
0.000154315
0.00022197
0.000150382
0.000266509
0.000142294
0.000304333
0.000129934
0.000336091
0.000113652
0.00036254
9.40246e-05
7.15885e-05
0.000384337
7.62567e-06
0.000264563
5.66636e-05
0.000143087
0.000124909
9.54872e-05
0.000192695
8.88557e-05
0.000256136
9.16081e-05
0.000313301
9.71502e-05
0.000363729
9.99539e-05
0.000407613
9.84101e-05
0.000445497
9.20503e-05
0.000478007
8.11419e-05
0.000505777
6.62549e-05
4.80724e-05
0.000529294
0.000219181
4.53822e-05
0.000314276
4.79912e-05
0.000381194
2.85703e-05
0.000433918
3.61314e-05
0.000478178
4.73489e-05
0.000518106
5.72217e-05
0.00055481
6.32505e-05
0.000588443
6.47774e-05
0.000619027
6.14666e-05
0.000646576
5.35933e-05
0.000671207
4.16243e-05
0.000692968
2.63111e-05
-0.000763837
6.832e-05
-0.000804535
4.06974e-05
-0.000821155
1.66201e-05
-0.000814399
-6.7552e-06
-0.00078631
-2.8089e-05
-0.00073579
-5.05205e-05
-0.000661265
-7.45244e-05
-0.000560919
-0.000100346
-0.000432593
-0.000128325
-0.00027656
-0.000156033
-0.000111971
-0.000164588
-0.000111971
-0.000650584
9.12869e-05
-0.000665101
5.52145e-05
-0.000669773
2.12929e-05
-0.000665357
-1.11714e-05
-0.000649677
-4.37689e-05
-0.000621096
-7.91014e-05
-0.000577717
-0.000117903
-0.000517131
-0.000160932
-0.00043636
-0.000209096
-0.000332643
-0.00025975
-0.000197523
-0.000299708
-0.000309494
-0.000511569
0.000100692
-0.000517453
6.10983e-05
-0.000518772
2.2612e-05
-0.000513795
-1.61483e-05
-0.000500658
-5.69058e-05
-0.000478489
-0.00010127
-0.00044583
-0.000150562
-0.000401292
-0.00020547
-0.000343085
-0.000267304
-0.000266156
-0.000336679
-0.000159848
-0.000406017
-0.000469342
-0.000378204
0.000101907
-0.000378468
6.13632e-05
-0.000376389
2.05327e-05
-0.000370793
-2.17438e-05
-0.000360804
-6.68946e-05
-0.000345642
-0.000116433
-0.000324073
-0.000172131
-0.000295127
-0.000234416
-0.000256508
-0.000305923
-0.000203699
-0.000389488
-0.000124714
-0.000485001
-0.000594056
-0.000244278
0.000100076
-0.00024249
5.95753e-05
-0.000239986
1.80286e-05
-0.000236096
-2.5634e-05
-0.000230285
-7.27047e-05
-0.00022197
-0.000124748
-0.000210589
-0.000183512
-0.00019489
-0.000250114
-0.0001728
-0.000328012
-0.000141535
-0.000420753
-8.95948e-05
-0.000536942
-0.00068365
-0.00011461
9.56553e-05
-0.000111348
5.63138e-05
-0.000108767
1.54478e-05
-0.000106505
-2.78958e-05
-0.000104308
-7.49021e-05
-0.000102046
-0.00012701
-9.96944e-05
-0.000185863
-9.64551e-05
-0.000253354
-9.15566e-05
-0.000332911
-8.25859e-05
-0.000429723
-6.02152e-05
-0.000559312
-0.000743865
1.25737e-05
8.86322e-05
1.75097e-05
5.1378e-05
2.0622e-05
1.23356e-05
2.19975e-05
-2.92711e-05
2.15402e-05
-7.44446e-05
1.8989e-05
-0.000124458
1.40007e-05
-0.000180874
6.44281e-06
-0.000245796
-3.58373e-06
-0.000322884
-1.47328e-05
-0.000418574
-2.21781e-05
-0.000551867
-0.000766043
0.000138832
7.84106e-05
0.000146179
4.4031e-05
0.000150753
7.76107e-06
0.00015241
-3.09277e-05
0.00015073
-7.27644e-05
0.000145019
-0.000118747
0.000134299
-0.000170154
0.000117402
-0.000228898
9.29761e-05
-0.000298458
6.03703e-05
-0.000385968
2.23528e-05
-0.000513849
-0.00074369
0.00026707
6.43674e-05
0.000277585
3.35163e-05
0.000284572
7.74121e-07
0.000287721
-3.40766e-05
0.000286351
-7.13938e-05
0.000279373
-0.000111769
0.000265139
-0.00015592
0.000241432
-0.00020519
0.000205082
-0.000262108
0.000152489
-0.000333375
8.13765e-05
-0.000442736
-0.000662314
0.000401981
4.67235e-05
0.00041573
1.97679e-05
0.000425515
-9.01042e-06
0.000430915
-3.94766e-05
0.000431064
-7.15428e-05
0.000424593
-0.000105297
0.000409283
-0.00014061
0.000381994
-0.000177901
0.000337585
-0.000217698
0.000269364
-0.000265154
0.000164791
-0.000338162
-0.000497523
0.000548941
2.70763e-05
0.00056488
3.82963e-06
0.000576945
-2.10754e-05
0.000584622
-4.7154e-05
0.000586914
-7.38338e-05
0.000582303
-0.000100687
0.000568285
-0.000126592
0.000541295
-0.00015091
0.000494568
-0.000170971
0.000419543
-0.00019013
0.000288312
-0.000206931
-0.000209211
0.000711965
8.07939e-06
0.000728139
-1.23439e-05
0.000741145
-3.4081e-05
0.00075034
-5.63488e-05
0.000754653
-7.81468e-05
0.000752553
-9.85863e-05
0.000741556
-0.000115595
0.000718443
-0.000127798
0.000676712
-0.000129239
0.000604156
-0.000117573
0.000452167
-5.49421e-05
0.000242957
6.07573e-05
-6.07572e-05
0.000116483
-5.5726e-05
0.00014797
-3.14866e-05
0.000160438
-1.2468e-05
0.000162076
-1.63799e-06
0.000138411
2.36659e-05
7.42185e-05
6.41921e-05
-3.5477e-05
0.000109696
-0.000235104
0.000199627
-0.000418473
0.000183369
-0.000549982
0.000131509
0.000102928
-0.00065291
5.06086e-05
-0.000111366
7.88654e-05
-8.39827e-05
7.66881e-05
-2.93091e-05
4.50802e-05
1.91401e-05
-2.51651e-05
6.86074e-05
-0.000142377
0.000140878
-0.000297223
0.000219039
-0.000438169
0.000250642
-0.000493162
0.00025462
-0.000527177
0.000217383
-0.000566878
0.000171211
0.00013563
-0.00059958
2.66377e-05
-0.000138003
2.71713e-05
-8.45161e-05
-4.29132e-06
2.15359e-06
-7.52461e-05
9.0095e-05
-0.000190846
0.000184207
-0.000312757
0.000262789
-0.000389783
0.000296065
-0.00043173
0.000292588
-0.000445595
0.000268486
-0.000455587
0.000227375
-0.000469435
0.000185059
0.000146154
-0.000479958
-2.54178e-05
-0.000112585
-6.07129e-05
-4.92208e-05
-0.000116911
5.83517e-05
-0.000193588
0.000166772
-0.000271555
0.000262174
-0.000322128
0.000313362
-0.000345931
0.000319868
-0.000354936
0.000301593
-0.000356583
0.000270133
-0.000358162
0.000228954
-0.000360319
0.000187217
0.000146773
-0.000360939
-5.15061e-05
-6.10789e-05
-0.000108864
8.13705e-06
-0.000168307
0.000117795
-0.000223318
0.000221783
-0.000259175
0.000298032
-0.000269936
0.000324124
-0.000267511
0.000317443
-0.000259419
0.000293501
-0.000249379
0.000260093
-0.000242049
0.000221624
-0.00023705
0.000182218
0.000143085
-0.000233362
-6.3301e-05
2.22232e-06
-0.000121378
6.62145e-05
-0.000169317
0.000165733
-0.000197097
0.000249564
-0.000201494
0.000302428
-0.000190804
0.000313435
-0.000173597
0.000300236
-0.000155447
0.000275351
-0.000139224
0.00024387
-0.000126457
0.000208857
-0.000116914
0.000172675
0.000136144
-0.000109972
-6.7039e-05
6.92615e-05
-0.000119748
0.000118923
-0.000149454
0.00019544
-0.000151663
0.000251774
-0.000133111
0.000283876
-0.000106122
0.000286446
-7.83184e-05
0.000272432
-5.26558e-05
0.000249689
-3.07401e-05
0.000221955
-1.31445e-05
0.000191262
4.57939e-07
0.000159073
0.000125987
1.06146e-05
-7.06424e-05
0.000139904
-0.00011063
0.000158911
-0.000119385
0.000204196
-9.98028e-05
0.000232191
-6.38776e-05
0.000247951
-2.42552e-05
0.000246824
1.32362e-05
0.000234941
4.63693e-05
0.000216556
7.43496e-05
0.000193975
9.71519e-05
0.00016846
0.000115244
0.000140981
0.000112038
0.000129194
-6.12728e-05
0.000201177
-9.0969e-05
0.000188607
-7.88169e-05
0.000192044
-4.19805e-05
0.000195355
7.29977e-06
0.000198671
5.76595e-05
0.000196465
0.000104052
0.000188549
0.000144601
0.000176007
0.000178937
0.000159639
0.000207332
0.000140066
0.000230378
0.000117935
9.37249e-05
0.000248691
-6.54194e-05
0.000266597
-5.851e-05
0.000181698
-1.71354e-05
0.000150669
3.73382e-05
0.000140882
9.75778e-05
0.000138431
0.000155695
0.000138347
0.000208159
0.000136085
0.000253856
0.000130309
0.00029284
0.000120656
0.000325589
0.000107316
0.000352745
9.07791e-05
7.1559e-05
0.000374911
3.21385e-06
0.000263383
4.67276e-05
0.000138184
0.000111664
8.57332e-05
0.000177255
7.52914e-05
0.000239687
7.59991e-05
0.000296517
8.15173e-05
0.000347037
8.55657e-05
0.000391318
8.60289e-05
0.000429784
8.21894e-05
0.00046292
7.4181e-05
0.000491183
6.25167e-05
4.77724e-05
0.000514969
0.000211614
5.17694e-05
0.000302182
4.76167e-05
0.00036735
2.05655e-05
0.000418532
2.41093e-05
0.000461146
3.33855e-05
0.000499704
4.29592e-05
0.000535494
4.97761e-05
0.000568722
5.28011e-05
0.000599336
5.1576e-05
0.000627204
4.63125e-05
0.000652204
3.7517e-05
0.00067424
2.57371e-05
-0.000723994
7.10835e-05
-0.000768288
4.42947e-05
-0.000787774
1.94863e-05
-0.000784142
-3.63241e-06
-0.000758881
-2.52606e-05
-0.000711689
-4.71918e-05
-0.000640322
-7.13669e-05
-0.000543484
-9.68381e-05
-0.000418582
-0.000124902
-0.00026628
-0.000152302
-0.000106041
-0.000160239
-0.000106041
-0.000623594
9.50975e-05
-0.000638751
5.94518e-05
-0.000644676
2.5411e-05
-0.000641463
-6.84562e-06
-0.000627753
-3.897e-05
-0.000601145
-7.37994e-05
-0.000560302
-0.00011221
-0.000502312
-0.000154829
-0.000424494
-0.00020272
-0.000323948
-0.000252848
-0.000192286
-0.000291901
-0.000298327
-0.000489859
0.000104999
-0.000496231
6.58233e-05
-0.000498509
2.76896e-05
-0.000494877
-1.04778e-05
-0.000483316
-5.05303e-05
-0.000462987
-9.41282e-05
-0.000432395
-0.000142802
-0.000390328
-0.000196895
-0.000334951
-0.000258097
-0.000260905
-0.000326893
-0.000157644
-0.000395162
-0.000455971
-0.000361757
0.000105817
-0.00036196
6.60263e-05
-0.000360376
2.61058e-05
-0.0003557
-1.51536e-05
-0.000346998
-5.92322e-05
-0.000333489
-0.000107637
-0.000313827
-0.000162463
-0.000286959
-0.000223763
-0.000250518
-0.000294538
-0.000199532
-0.000377879
-0.000122236
-0.000472458
-0.000578207
-0.000231244
0.0001037
-0.000229614
6.4396e-05
-0.000227679
2.4171e-05
-0.000224724
-1.81083e-05
-0.000220162
-6.37942e-05
-0.000213319
-0.00011448
-0.000203654
-0.000172128
-0.000189722
-0.000237695
-0.000169362
-0.000314898
-0.000140017
-0.000407224
-8.96109e-05
-0.000522864
-0.000667818
-0.000105356
9.90838e-05
-0.000102337
6.13772e-05
-0.000100378
2.2212e-05
-9.90591e-05
-1.94268e-05
-9.80634e-05
-6.47898e-05
-9.71564e-05
-0.000115387
-9.62989e-05
-0.000172985
-9.44909e-05
-0.000239503
-9.08728e-05
-0.000318516
-8.29297e-05
-0.000415167
-6.0918e-05
-0.000544876
-0.000728736
1.77417e-05
9.19569e-05
2.23546e-05
5.67645e-05
2.47863e-05
1.97806e-05
2.51937e-05
-1.9834e-05
2.35567e-05
-6.31526e-05
1.97052e-05
-0.000111535
1.33881e-05
-0.000166668
4.6402e-06
-0.000230755
-6.26432e-06
-0.000307611
-1.78093e-05
-0.000403622
-2.497e-05
-0.000537715
-0.000753705
0.000139458
8.16929e-05
0.000146429
4.97932e-05
0.000150286
1.5924e-05
0.000150968
-2.05162e-05
0.00014815
-6.03341e-05
0.000141239
-0.000104624
0.000129381
-0.00015481
0.000111592
-0.000212965
8.67739e-05
-0.000282793
5.45969e-05
-0.000371445
1.80682e-05
-0.000501186
-0.000735637
0.000262742
6.7642e-05
0.000272857
3.96789e-05
0.000279115
9.6659e-06
0.000281312
-2.27131e-05
0.000278879
-5.79004e-05
0.000270843
-9.65879e-05
0.000255694
-0.000139661
0.000231397
-0.000188668
0.00019506
-0.000246456
0.000143402
-0.000319786
7.49277e-05
-0.000432712
-0.000660709
0.000392524
5.00294e-05
0.000405854
2.63495e-05
0.000414915
6.04665e-07
0.000419412
-2.72094e-05
0.000418607
-5.70954e-05
0.000411271
-8.92515e-05
0.000395351
-0.000123741
0.000367891
-0.000161209
0.000323999
-0.000202563
0.000257227
-0.000253014
0.000156308
-0.000331793
-0.000504401
0.000534532
3.04666e-05
0.000550024
1.08583e-05
0.000561376
-1.07471e-05
0.000568219
-3.40525e-05
0.000569701
-5.85767e-05
0.00056448
-8.40303e-05
0.000550271
-0.000109532
0.000523691
-0.000134628
0.000478186
-0.000157058
0.000405316
-0.000180144
0.000278392
-0.000204869
-0.000226009
0.000693169
1.15379e-05
0.000708892
-4.86428e-06
0.000721192
-2.30469e-05
0.000729632
-4.24928e-05
0.000733343
-6.22873e-05
0.000731039
-8.17266e-05
0.000720567
-9.90596e-05
0.00069888
-0.000112941
0.000659613
-0.00011779
0.000590236
-0.000110768
0.000443681
-5.83142e-05
0.000217672
6.54826e-05
-6.54825e-05
0.0001234
-5.79176e-05
0.00015458
-3.11793e-05
0.000168012
-1.34325e-05
0.000166559
1.45328e-06
0.000131325
3.52345e-05
5.62301e-05
7.5095e-05
-8.12022e-05
0.000137432
-0.000293877
0.000212675
-0.000468053
0.000174177
-0.000597406
0.000129353
9.81104e-05
-0.000695516
5.21163e-05
-0.000117599
7.88166e-05
-8.46176e-05
7.24294e-05
-2.4792e-05
3.10416e-05
2.79555e-05
-5.39451e-05
8.64402e-05
-0.000187433
0.000168723
-0.00034981
0.000237472
-0.00047413
0.000261753
-0.000517414
0.000255958
-0.000555532
0.000212295
-0.000594599
0.00016842
0.000131128
-0.000627617
2.15147e-05
-0.000139113
1.45748e-05
-7.76776e-05
-2.71272e-05
1.69101e-05
-0.000112524
0.000113353
-0.000237345
0.000211261
-0.000349581
0.000280959
-0.000416438
0.000304329
-0.00045212
0.000297434
-0.000464501
0.00026834
-0.00047669
0.000224484
-0.000490984
0.000182714
0.000142309
-0.000502165
-3.49446e-05
-0.000104168
-8.00893e-05
-3.25327e-05
-0.000145102
8.19232e-05
-0.000225441
0.000193692
-0.000297672
0.000283492
-0.000340787
0.000324074
-0.00036146
0.000325002
-0.000369173
0.000305148
-0.000371057
0.000270223
-0.000373718
0.000227145
-0.000375954
0.000184951
0.000143344
-0.000376989
-5.94898e-05
-4.46784e-05
-0.000122118
3.00959e-05
-0.000183426
0.000143231
-0.000235981
0.000246247
-0.000267023
0.000314534
-0.000276439
0.00033349
-0.000275471
0.000324034
-0.00026762
0.000297297
-0.000258926
0.000261529
-0.00025309
0.000221309
-0.000248981
0.000180842
0.000140474
-0.00024611
-6.5991e-05
2.13128e-05
-0.000125413
8.95179e-05
-0.000172087
0.000189905
-0.000197442
0.000271603
-0.000200873
0.000317965
-0.000191646
0.000324264
-0.000176008
0.000308396
-0.00015949
0.00028078
-0.000144974
0.000247013
-0.000133752
0.000210087
-0.000125265
0.000172355
0.00013424
-0.000119031
-6.58979e-05
8.72109e-05
-0.000116871
0.000140492
-0.000144429
0.000217463
-0.000145396
0.00027257
-0.000127657
0.000300226
-0.000102576
0.000299184
-7.66194e-05
0.000282439
-5.28523e-05
0.000257013
-3.26992e-05
0.00022686
-1.65853e-05
0.000193973
-4.01164e-06
0.000159782
0.000124678
5.55019e-06
-6.74894e-05
0.000154701
-0.000104195
0.000177198
-0.000110452
0.000223721
-8.9779e-05
0.000251897
-5.46184e-05
0.000265066
-1.66333e-05
0.000261199
1.905e-05
0.000246756
5.033e-05
0.000225733
7.66262e-05
0.000200564
9.8045e-05
0.000172555
0.000115175
0.000142652
0.000111244
0.00012861
-5.7002e-05
0.000211703
-8.26852e-05
0.000202881
-6.76519e-05
0.000208687
-2.91448e-05
0.00021339
2.00431e-05
0.000215878
6.92771e-05
0.000211965
0.00011414
0.000201893
0.000153041
0.000186833
0.000185847
0.000167758
0.000212991
0.000145411
0.000235168
0.000120475
9.33857e-05
0.000253027
-6.04843e-05
0.000272187
-4.97259e-05
0.000192123
-4.76946e-06
0.000163731
5.19802e-05
0.000156641
0.000112809
0.000155049
0.000170459
0.000154316
0.000221969
0.000150383
0.000266508
0.000142294
0.000304333
0.000129934
0.00033609
0.000113653
0.00036254
9.40252e-05
7.15891e-05
0.000384337
7.62489e-06
0.000264563
5.66623e-05
0.000143086
0.000124907
9.54866e-05
0.000192693
8.88552e-05
0.000256135
9.1608e-05
0.0003133
9.71503e-05
0.000363729
9.99543e-05
0.000407613
9.84105e-05
0.000445496
9.20508e-05
0.000478007
8.11425e-05
0.000505777
6.62554e-05
4.80729e-05
0.000529293
0.000219181
4.53825e-05
0.000314276
4.79909e-05
0.000381193
2.85699e-05
0.000433917
3.61311e-05
0.000478176
4.73487e-05
0.000518105
5.72217e-05
0.000554809
6.32507e-05
0.000588442
6.47776e-05
0.000619026
6.1467e-05
0.000646575
5.35937e-05
0.000671206
4.16246e-05
0.000692968
2.63115e-05
-0.000763837
6.83205e-05
-0.000804534
4.06977e-05
-0.000821155
1.66204e-05
-0.0008144
-6.75503e-06
-0.000786311
-2.80889e-05
-0.00073579
-5.05205e-05
-0.000661266
-7.45244e-05
-0.000560919
-0.000100346
-0.000432594
-0.000128325
-0.00027656
-0.000156034
-0.000111971
-0.000164588
-0.000111971
-0.000650583
9.12876e-05
-0.000665101
5.5215e-05
-0.000669773
2.12932e-05
-0.000665357
-1.11711e-05
-0.000649677
-4.37688e-05
-0.000621096
-7.91013e-05
-0.000577717
-0.000117903
-0.000517131
-0.000160932
-0.00043636
-0.000209096
-0.000332643
-0.00025975
-0.000197523
-0.000299709
-0.000309494
-0.00051157
0.000100693
-0.000517453
6.10988e-05
-0.000518772
2.26124e-05
-0.000513795
-1.6148e-05
-0.000500658
-5.69057e-05
-0.00047849
-0.00010127
-0.000445831
-0.000150562
-0.000401293
-0.00020547
-0.000343085
-0.000267304
-0.000266157
-0.000336679
-0.000159848
-0.000406017
-0.000469342
-0.000378204
0.000101908
-0.000378469
6.13638e-05
-0.000376389
2.05331e-05
-0.000370794
-2.17436e-05
-0.000360805
-6.68945e-05
-0.000345642
-0.000116432
-0.000324073
-0.000172131
-0.000295127
-0.000234416
-0.000256508
-0.000305923
-0.000203699
-0.000389488
-0.000124714
-0.000485001
-0.000594056
-0.000244279
0.000100077
-0.00024249
5.95758e-05
-0.000239986
1.8029e-05
-0.000236096
-2.56337e-05
-0.000230286
-7.27046e-05
-0.00022197
-0.000124748
-0.000210589
-0.000183512
-0.00019489
-0.000250115
-0.000172801
-0.000328013
-0.000141535
-0.000420753
-8.95949e-05
-0.000536942
-0.000683651
-0.00011461
9.56559e-05
-0.000111349
5.63142e-05
-0.000108768
1.54481e-05
-0.000106506
-2.78956e-05
-0.000104308
-7.4902e-05
-0.000102046
-0.00012701
-9.96946e-05
-0.000185863
-9.64552e-05
-0.000253354
-9.15567e-05
-0.000332911
-8.25861e-05
-0.000429724
-6.02153e-05
-0.000559312
-0.000743866
1.25735e-05
8.86328e-05
1.75095e-05
5.13785e-05
2.06218e-05
1.23359e-05
2.19973e-05
-2.92709e-05
2.154e-05
-7.44445e-05
1.89888e-05
-0.000124458
1.40005e-05
-0.000180874
6.44263e-06
-0.000245796
-3.58387e-06
-0.000322884
-1.47329e-05
-0.000418574
-2.21781e-05
-0.000551867
-0.000766044
0.000138831
7.84111e-05
0.000146179
4.40314e-05
0.000150753
7.76139e-06
0.00015241
-3.09275e-05
0.00015073
-7.27643e-05
0.000145019
-0.000118747
0.000134299
-0.000170154
0.000117401
-0.000228898
9.2976e-05
-0.000298459
6.03703e-05
-0.000385968
2.23527e-05
-0.000513849
-0.000743691
0.00026707
6.43679e-05
0.000277585
3.35167e-05
0.000284572
7.74433e-07
0.000287721
-3.40763e-05
0.000286351
-7.13937e-05
0.000279373
-0.000111769
0.000265139
-0.00015592
0.000241432
-0.00020519
0.000205082
-0.000262108
0.000152489
-0.000333376
8.13764e-05
-0.000442736
-0.000662314
0.000401981
4.67239e-05
0.00041573
1.97683e-05
0.000425515
-9.01013e-06
0.000430915
-3.94764e-05
0.000431064
-7.15427e-05
0.000424593
-0.000105297
0.000409283
-0.00014061
0.000381994
-0.000177901
0.000337585
-0.000217699
0.000269364
-0.000265155
0.000164791
-0.000338163
-0.000497524
0.000548941
2.70767e-05
0.000564879
3.82995e-06
0.000576945
-2.10751e-05
0.000584622
-4.71538e-05
0.000586914
-7.38337e-05
0.000582303
-0.000100687
0.000568285
-0.000126592
0.000541295
-0.00015091
0.000494568
-0.000170971
0.000419543
-0.00019013
0.000288312
-0.000206932
-0.000209211
0.000711965
8.07971e-06
0.000728139
-1.23436e-05
0.000741145
-3.40808e-05
0.00075034
-5.63487e-05
0.000754653
-7.81468e-05
0.000752553
-9.85863e-05
0.000741556
-0.000115595
0.000718444
-0.000127798
0.000676712
-0.00012924
0.000604156
-0.000117574
0.000452167
-5.49426e-05
0.000242956
6.07573e-05
-6.07571e-05
0.000116483
-5.57259e-05
0.00014797
-3.14866e-05
0.000160438
-1.2468e-05
0.000162076
-1.638e-06
0.000138411
2.36659e-05
7.42186e-05
6.41921e-05
-3.54769e-05
0.000109696
-0.000235104
0.000199627
-0.000418473
0.000183369
-0.000549982
0.000131509
0.000102928
-0.00065291
5.06086e-05
-0.000111366
7.88654e-05
-8.39827e-05
7.66881e-05
-2.93092e-05
4.50803e-05
1.914e-05
-2.5165e-05
6.86074e-05
-0.000142377
0.000140878
-0.000297223
0.000219039
-0.000438169
0.000250642
-0.000493162
0.00025462
-0.000527177
0.000217384
-0.000566878
0.000171211
0.00013563
-0.00059958
2.66378e-05
-0.000138003
2.71714e-05
-8.45161e-05
-4.29119e-06
2.15352e-06
-7.52459e-05
9.00949e-05
-0.000190846
0.000184207
-0.000312757
0.000262789
-0.000389783
0.000296065
-0.00043173
0.000292588
-0.000445595
0.000268486
-0.000455587
0.000227375
-0.000469435
0.000185059
0.000146154
-0.000479958
-2.54178e-05
-0.000112585
-6.07128e-05
-4.92209e-05
-0.000116911
5.83516e-05
-0.000193588
0.000166772
-0.000271555
0.000262174
-0.000322128
0.000313362
-0.000345931
0.000319868
-0.000354936
0.000301593
-0.000356583
0.000270133
-0.000358162
0.000228955
-0.000360319
0.000187217
0.000146773
-0.000360939
-5.15061e-05
-6.1079e-05
-0.000108864
8.13694e-06
-0.000168307
0.000117795
-0.000223317
0.000221783
-0.000259174
0.000298032
-0.000269936
0.000324124
-0.000267511
0.000317443
-0.000259419
0.000293501
-0.000249379
0.000260093
-0.000242049
0.000221625
-0.00023705
0.000182218
0.000143085
-0.000233362
-6.3301e-05
2.22222e-06
-0.000121378
6.62144e-05
-0.000169317
0.000165733
-0.000197097
0.000249564
-0.000201494
0.000302428
-0.000190804
0.000313435
-0.000173597
0.000300236
-0.000155447
0.000275351
-0.000139224
0.000243871
-0.000126457
0.000208857
-0.000116914
0.000172675
0.000136144
-0.000109972
-6.7039e-05
6.92614e-05
-0.000119748
0.000118923
-0.000149454
0.00019544
-0.000151663
0.000251773
-0.000133111
0.000283876
-0.000106122
0.000286446
-7.83183e-05
0.000272432
-5.26558e-05
0.000249689
-3.074e-05
0.000221955
-1.31444e-05
0.000191262
4.58019e-07
0.000159073
0.000125987
1.06147e-05
-7.06424e-05
0.000139904
-0.00011063
0.00015891
-0.000119385
0.000204195
-9.98028e-05
0.000232191
-6.38776e-05
0.000247951
-2.42551e-05
0.000246824
1.32363e-05
0.000234941
4.63694e-05
0.000216556
7.43497e-05
0.000193975
9.7152e-05
0.00016846
0.000115244
0.000140981
0.000112038
0.000129194
-6.12728e-05
0.000201177
-9.0969e-05
0.000188607
-7.88169e-05
0.000192044
-4.19805e-05
0.000195355
7.29979e-06
0.000198671
5.76595e-05
0.000196464
0.000104052
0.000188549
0.000144601
0.000176007
0.000178938
0.000159639
0.000207332
0.000140066
0.000230378
0.000117935
9.3725e-05
0.000248691
-6.54193e-05
0.000266597
-5.85099e-05
0.000181698
-1.71354e-05
0.000150669
3.73383e-05
0.000140882
9.75779e-05
0.000138431
0.000155695
0.000138347
0.000208159
0.000136085
0.000253856
0.000130309
0.00029284
0.000120656
0.00032559
0.000107316
0.000352745
9.07792e-05
7.15591e-05
0.000374911
3.21391e-06
0.000263383
4.67276e-05
0.000138184
0.000111664
8.5733e-05
0.000177255
7.52913e-05
0.000239687
7.5999e-05
0.000296517
8.15173e-05
0.000347037
8.55657e-05
0.000391318
8.60289e-05
0.000429784
8.21894e-05
0.00046292
7.41811e-05
0.000491183
6.25168e-05
4.77724e-05
0.000514969
0.000211614
5.17692e-05
0.000302182
4.76166e-05
0.00036735
2.05654e-05
0.000418532
2.41092e-05
0.000461146
3.33855e-05
0.000499704
4.29592e-05
0.000535494
4.97761e-05
0.000568722
5.28011e-05
0.000599336
5.15761e-05
0.000627204
4.63126e-05
0.000652204
3.75171e-05
0.00067424
2.57372e-05
-0.000723994
7.10835e-05
-0.000768288
4.42947e-05
-0.000787775
1.94864e-05
-0.000784142
-3.6324e-06
-0.000758881
-2.52606e-05
-0.00071169
-4.71918e-05
-0.000640323
-7.13669e-05
-0.000543484
-9.68381e-05
-0.000418582
-0.000124902
-0.00026628
-0.000152302
-0.000106041
-0.000160239
-0.000106041
-0.000623594
9.50976e-05
-0.000638751
5.94518e-05
-0.000644676
2.54111e-05
-0.000641463
-6.84559e-06
-0.000627753
-3.897e-05
-0.000601145
-7.37993e-05
-0.000560303
-0.00011221
-0.000502312
-0.000154829
-0.000424494
-0.00020272
-0.000323948
-0.000252848
-0.000192286
-0.000291901
-0.000298328
-0.000489859
0.000104999
-0.000496231
6.58233e-05
-0.000498509
2.76896e-05
-0.000494877
-1.04777e-05
-0.000483317
-5.05303e-05
-0.000462988
-9.41282e-05
-0.000432395
-0.000142802
-0.000390329
-0.000196895
-0.000334951
-0.000258097
-0.000260906
-0.000326893
-0.000157644
-0.000395162
-0.000455971
-0.000361757
0.000105817
-0.00036196
6.60263e-05
-0.000360376
2.61058e-05
-0.0003557
-1.51535e-05
-0.000346998
-5.92321e-05
-0.000333489
-0.000107637
-0.000313827
-0.000162463
-0.000286959
-0.000223763
-0.000250519
-0.000294538
-0.000199532
-0.00037788
-0.000122236
-0.000472458
-0.000578207
-0.000231244
0.0001037
-0.000229614
6.4396e-05
-0.000227679
2.41711e-05
-0.000224724
-1.81083e-05
-0.000220162
-6.37942e-05
-0.000213319
-0.00011448
-0.000203654
-0.000172128
-0.000189722
-0.000237695
-0.000169362
-0.000314898
-0.000140017
-0.000407224
-8.96109e-05
-0.000522864
-0.000667818
-0.000105356
9.90839e-05
-0.000102337
6.13773e-05
-0.000100378
2.22121e-05
-9.90591e-05
-1.94267e-05
-9.80634e-05
-6.47897e-05
-9.71564e-05
-0.000115387
-9.62989e-05
-0.000172985
-9.44909e-05
-0.000239503
-9.08728e-05
-0.000318516
-8.29298e-05
-0.000415167
-6.0918e-05
-0.000544876
-0.000728736
1.77418e-05
9.1957e-05
2.23547e-05
5.67645e-05
2.47863e-05
1.97806e-05
2.51937e-05
-1.98339e-05
2.35567e-05
-6.31525e-05
1.97052e-05
-0.000111535
1.33881e-05
-0.000166668
4.6402e-06
-0.000230755
-6.26434e-06
-0.000307611
-1.78093e-05
-0.000403622
-2.497e-05
-0.000537715
-0.000753706
0.000139458
8.1693e-05
0.000146429
4.97932e-05
0.000150286
1.59241e-05
0.000150968
-2.05161e-05
0.00014815
-6.0334e-05
0.000141239
-0.000104624
0.000129381
-0.00015481
0.000111592
-0.000212965
8.67739e-05
-0.000282793
5.45969e-05
-0.000371445
1.80682e-05
-0.000501186
-0.000735637
0.000262742
6.76421e-05
0.000272857
3.9679e-05
0.000279115
9.666e-06
0.000281312
-2.2713e-05
0.000278879
-5.79003e-05
0.000270843
-9.65878e-05
0.000255694
-0.000139661
0.000231397
-0.000188668
0.00019506
-0.000246456
0.000143401
-0.000319786
7.49276e-05
-0.000432712
-0.00066071
0.000392524
5.00295e-05
0.000405854
2.63496e-05
0.000414915
6.04766e-07
0.000419412
-2.72093e-05
0.000418607
-5.70953e-05
0.000411271
-8.92514e-05
0.000395351
-0.000123741
0.000367891
-0.000161209
0.000323999
-0.000202563
0.000257227
-0.000253014
0.000156308
-0.000331793
-0.000504402
0.000534532
3.04667e-05
0.000550024
1.08584e-05
0.000561376
-1.0747e-05
0.000568219
-3.40524e-05
0.000569701
-5.85766e-05
0.00056448
-8.40302e-05
0.000550271
-0.000109532
0.000523691
-0.000134628
0.000478186
-0.000157058
0.000405316
-0.000180144
0.000278392
-0.000204869
-0.000226009
0.000693169
1.15379e-05
0.000708892
-4.86419e-06
0.000721192
-2.30468e-05
0.000729632
-4.24927e-05
0.000733343
-6.22872e-05
0.000731039
-8.17265e-05
0.000720567
-9.90595e-05
0.00069888
-0.000112941
0.000659613
-0.00011779
0.000590236
-0.000110768
0.000443681
-5.83143e-05
0.000217672
0.000817966
9.52403e-05
-0.000867824
0.00079865
6.73076e-05
0.000774688
5.25328e-05
0.000764352
4.64668e-05
0.000765248
4.6453e-05
0.000774111
4.83591e-05
0.00078801
4.93522e-05
0.000804735
4.80525e-05
0.000822715
4.34864e-05
0.00084089
3.54188e-05
0.000858693
2.38214e-05
9.38301e-06
0.000875621
0.00108706
9.14954e-05
-0.00108331
0.00107598
7.838e-05
0.00105981
6.87026e-05
0.001045
6.12798e-05
0.00103495
5.65079e-05
0.00103031
5.29939e-05
0.0010305
4.91695e-05
0.00103452
4.40327e-05
0.00104139
3.66076e-05
0.0010503
2.65122e-05
0.00106069
1.34309e-05
-1.78866e-06
0.00107186
0.00128382
8.37036e-05
-0.00127603
0.00128373
7.84717e-05
0.00127939
7.3049e-05
0.00127299
6.76712e-05
0.00126662
6.28806e-05
0.00126156
5.80541e-05
0.00125845
5.2286e-05
0.0012575
4.49772e-05
0.00125873
3.53829e-05
0.00126204
2.31988e-05
0.00126737
8.10376e-06
-8.67814e-06
0.00127426
0.00147275
-0.00146837
7.93268e-05
0.00147569
7.5532e-05
0.00147662
7.2123e-05
0.0014758
6.84842e-05
0.00147391
6.47751e-05
0.00147166
6.03089e-05
0.00146968
5.42626e-05
0.00146852
4.61386e-05
0.00146854
3.53578e-05
0.00147007
2.16738e-05
0.0014733
4.87025e-06
0.00147856
-1.39393e-05
0.000891482