/*--------------------------------*- C++ -*----------------------------------*\
| =========                 |                                                 |
| \\      /  F ield         | OpenFOAM: The Open Source CFD Toolbox           |
|  \\    /   O peration     | Version:  2212                                  |
|   \\  /    A nd           | Website:  www.openfoam.com                      |
|    \\/     M anipulation  |                                                 |
\*---------------------------------------------------------------------------*/
FoamFile
{
    version     2.0;
    format      ascii;
    arch        "LSB;label=32;scalar=64";
    class       surfaceScalarField;
    location    "0.08";
    object      phi;
}
// * * * * * * * * * * * * * * * * * * * * * * * * * * * * * * * * * * * * * //

dimensions      [1 0 -1 0 0 0 0];

oriented        oriented;

internalField   nonuniform List<scalar> 
5952
(
5.04714e-05
-5.04672e-05
9.96031e-05
-4.91275e-05
0.00013229
-3.26826e-05
0.000147105
-1.48113e-05
0.000152703
-5.59377e-06
0.00014845
4.25709e-06
0.000114716
3.3739e-05
4.19808e-05
7.27392e-05
-9.70132e-05
0.000138998
-0.000290814
0.000193806
-0.000438371
0.00014756
0.000109323
-0.000547691
4.47079e-05
-9.51704e-05
7.56784e-05
-8.00933e-05
8.1122e-05
-3.81214e-05
6.57961e-05
5.19282e-07
2.51076e-05
3.50995e-05
-5.19142e-05
8.12836e-05
-0.000175122
0.000156951
-0.000324981
0.000222603
-0.000428902
0.000242924
-0.000465284
0.000230192
-0.000502054
0.000184336
0.000144886
-0.000537612
3.30617e-05
-0.000128227
4.74443e-05
-9.44707e-05
3.63477e-05
-2.70196e-05
-3.37536e-06
4.02476e-05
-8.43446e-05
0.000116074
-0.000203848
0.000200792
-0.00031541
0.000268518
-0.000380877
0.000288076
-0.000411894
0.000273946
-0.000421637
0.00023994
-0.000432429
0.000195133
0.000154989
-0.000442528
-3.17083e-06
-0.00012505
-1.72959e-05
-8.03399e-05
-5.01505e-05
5.84074e-06
-0.000108199
9.83021e-05
-0.000189426
0.000197306
-0.000266639
0.000278011
-0.000312835
0.000314719
-0.000331469
0.000306716
-0.000337284
0.000279766
-0.000338927
0.000241589
-0.000341751
0.000197963
0.000156597
-0.000343354
-2.87255e-05
-9.63187e-05
-6.69177e-05
-4.21416e-05
-0.000114641
5.35704e-05
-0.000170765
0.000154432
-0.000224044
0.000250591
-0.000254978
0.000308951
-0.000261084
0.000320831
-0.000256648
0.000302286
-0.000248349
0.000271473
-0.000240623
0.000233869
-0.000235765
0.00019311
0.000152815
-0.000231976
-5.16705e-05
-4.46415e-05
-0.000101175
7.36946e-06
-0.000148371
0.000100773
-0.000184891
0.000190959
-0.000203024
0.00026873
-0.000199198
0.000305132
-0.00018449
0.00030613
-0.000167584
0.000285385
-0.000152011
0.000255908
-0.000139388
0.000221253
-0.000130161
0.00018389
0.000145886
-0.000123225
-6.59237e-05
2.12894e-05
-0.000120671
6.21234e-05
-0.000155599
0.000135708
-0.000165964
0.000201331
-0.000153326
0.0002561
-0.000127844
0.000279657
-0.000100085
0.000278378
-7.54723e-05
0.00026078
-5.48788e-05
0.000235321
-3.85856e-05
0.000204967
-2.62793e-05
0.000171591
0.000136612
-1.69986e-05
-7.53284e-05
9.66254e-05
-0.000122854
0.000109656
-0.000139144
0.000152006
-0.000126058
0.000188253
-9.29006e-05
0.00022295
-5.38535e-05
0.000240618
-1.69759e-05
0.000241508
1.41423e-05
0.000229669
3.93467e-05
0.000210124
5.91591e-05
0.000185162
7.44081e-05
0.000156349
0.000124887
8.61407e-05
-7.06627e-05
0.000167296
-0.000107136
0.000146138
-0.000103173
0.000148051
-7.37176e-05
0.000158806
-2.87512e-05
0.000177992
1.92373e-05
0.000192637
6.32208e-05
0.000197533
0.00010016
0.000192738
0.000129984
0.000180308
0.000153577
0.000161578
0.000172119
0.000137815
0.000110197
0.000186817
-7.04837e-05
0.000237789
-7.16079e-05
0.000147271
-4.19372e-05
0.000118389
1.26629e-06
0.000115611
5.28863e-05
0.00012638
0.000104671
0.000140861
0.000151463
0.00015075
0.000191048
0.000153161
0.00022344
0.000147925
0.000249602
0.000135425
0.000270808
0.000116617
9.26675e-05
0.000288346
-3.52535e-08
0.000237833
3.12809e-05
0.000115964
8.04232e-05
6.92563e-05
0.000130294
6.57494e-05
0.000179243
7.74406e-05
0.000225104
9.50087e-05
0.00026611
0.000109753
0.000301384
0.000117897
0.000331104
0.000118214
0.000356071
0.000110467
0.000377355
9.53425e-05
7.38487e-05
0.000396183
0.000193332
4.45113e-05
0.00026668
4.26248e-05
0.000312644
2.33022e-05
0.000344951
3.34521e-05
0.000371348
5.10533e-05
0.000396156
7.021e-05
0.00041981
8.61093e-05
0.00044185
9.58659e-05
0.000462
9.80735e-05
0.000480547
9.19294e-05
0.000498026
7.78737e-05
0.000515564
5.63202e-05
-0.000627145
7.94514e-05
-0.000676292
4.91653e-05
-0.000701624
2.53298e-05
-0.000702342
7.21329e-07
-0.000682283
-2.00546e-05
-0.000640223
-4.20562e-05
-0.000575151
-6.50673e-05
-0.000485436
-8.97112e-05
-0.000369649
-0.000115783
-0.000228847
-0.000140798
-8.54764e-05
-0.000143366
-8.54723e-05
-0.000562992
0.000104835
-0.000580745
6.69247e-05
-0.000588168
3.27574e-05
-0.000587062
-3.80379e-07
-0.000575306
-3.18065e-05
-0.000551644
-6.57133e-05
-0.000514359
-0.000102348
-0.00046134
-0.000142726
-0.000389814
-0.000187305
-0.000297817
-0.00023279
-0.000175167
-0.000266012
-0.000260635
-0.000451829
0.000114141
-0.000459122
7.42226e-05
-0.000462083
3.57236e-05
-0.000459671
-2.78741e-06
-0.000449197
-4.22749e-05
-0.000430552
-8.43535e-05
-0.000402548
-0.000130347
-0.000364171
-0.000181098
-0.000313746
-0.000237725
-0.000246277
-0.000300254
-0.000150943
-0.000361341
-0.000411572
-0.00034429
0.000115083
-0.000344064
7.40022e-05
-0.00034175
3.34151e-05
-0.000336653
-7.87907e-06
-0.000327797
-5.11254e-05
-0.000314463
-9.76816e-05
-0.000295504
-0.0001493
-0.000269814
-0.000206783
-0.000235494
-0.000272039
-0.000186991
-0.000348752
-0.000113772
-0.000434555
-0.000525338
-0.000229143
0.000112256
-0.000226742
7.1607e-05
-0.00022392
3.05995e-05
-0.000220041
-1.17524e-05
-0.00021454
-5.66203e-05
-0.000206879
-0.000105336
-0.000196326
-0.000159847
-0.000181949
-0.000221154
-0.000161742
-0.00029224
-0.000133604
-0.000376883
-8.63183e-05
-0.000481835
-0.000611651
-0.00011815
0.000107188
-0.000114393
6.78559e-05
-0.000111337
2.75499e-05
-0.00010856
-1.45222e-05
-0.000105768
-5.94055e-05
-0.000102709
-0.000108389
-9.94599e-05
-0.00016309
-9.53619e-05
-0.000225245
-8.95719e-05
-0.000298023
-8.00199e-05
-0.000386429
-5.72793e-05
-0.000504569
-0.000668923
-1.0111e-05
0.000100308
-5.08386e-06
6.28359e-05
-1.48165e-06
2.39548e-05
8.80195e-07
-1.68769e-05
1.96408e-06
-6.04823e-05
1.54137e-06
-0.000107959
-8.31632e-07
-0.000160709
-5.45311e-06
-0.000220617
-1.23774e-05
-0.000291092
-2.05229e-05
-0.000378276
-2.50708e-05
-0.000500014
-0.000693987
9.51728e-05
9.12834e-05
0.000102043
5.5973e-05
0.00010709
1.89155e-05
0.000110283
-2.00621e-05
0.000111246
-6.14377e-05
0.000109261
-0.000105966
0.000103215
-0.000154656
9.1743e-05
-0.000209138
7.33309e-05
-0.000272672
4.72965e-05
-0.000352234
1.64141e-05
-0.000469124
-0.000677566
0.000198716
7.93929e-05
0.000208383
4.63137e-05
0.000216141
1.11654e-05
0.000221773
-2.56853e-05
0.000224578
-6.42351e-05
0.000223336
-0.000104716
0.000216145
-0.000147456
0.000200462
-0.000193447
0.000172837
-0.000245039
0.000129613
-0.000309002
6.92193e-05
-0.000408722
-0.000608338
0.000303487
6.42606e-05
0.000316701
3.3108e-05
0.000328323
-4.47745e-07
0.00033794
-3.52939e-05
0.000344538
-7.08237e-05
0.000346401
-0.00010657
0.000340863
-0.00014191
0.000324318
-0.000176893
0.000291337
-0.00021205
0.000235348
-0.000253005
0.00014575
-0.000319116
-0.00046258
0.000414059
4.63935e-05
0.00043098
1.61961e-05
0.000447179
-1.66378e-05
0.000461923
-5.00282e-05
0.000473821
-8.27131e-05
0.000480669
-0.000113409
0.000479231
-0.000140464
0.000465291
-0.000162944
0.000431951
-0.000178701
0.000370851
-0.000191895
0.000256752
-0.000205008
-0.000205818
0.000535068
2.68986e-05
0.000555466
-4.19252e-06
0.000576587
-3.77488e-05
0.000597031
-7.04627e-05
0.00061493
-0.000100603
0.000627551
-0.000126021
0.00063149
-0.000144393
0.000622798
-0.000154242
0.000594974
-0.000150868
0.000537037
-0.000133948
0.000407183
-7.51447e-05
0.000201374
5.04715e-05
-5.04673e-05
9.96034e-05
-4.91277e-05
0.00013229
-3.26826e-05
0.000147106
-1.48112e-05
0.000152704
-5.59376e-06
0.00014845
4.25727e-06
0.000114715
3.37395e-05
4.19799e-05
7.27395e-05
-9.70151e-05
0.000138999
-0.000290816
0.000193806
-0.000438372
0.00014756
0.000109323
-0.000547692
4.4708e-05
-9.51706e-05
7.56784e-05
-8.00934e-05
8.11219e-05
-3.81213e-05
6.57958e-05
5.19516e-07
2.5107e-05
3.50999e-05
-5.19155e-05
8.12844e-05
-0.000175123
0.000156952
-0.000324983
0.000222603
-0.000428902
0.000242924
-0.000465284
0.000230192
-0.000502055
0.000184335
0.000144885
-0.000537613
3.30616e-05
-0.000128227
4.7444e-05
-9.44706e-05
3.63471e-05
-2.70192e-05
-3.3764e-06
4.02483e-05
-8.43463e-05
0.000116075
-0.00020385
0.000200793
-0.000315412
0.000268519
-0.000380878
0.000288075
-0.000411895
0.000273946
-0.000421638
0.00023994
-0.00043243
0.000195132
0.000154989
-0.000442528
-3.17124e-06
-0.00012505
-1.72967e-05
-8.03394e-05
-5.01518e-05
5.84158e-06
-0.000108201
9.83033e-05
-0.000189428
0.000197307
-0.000266641
0.000278011
-0.000312835
0.000314719
-0.000331469
0.000306715
-0.000337284
0.000279766
-0.000338927
0.000241588
-0.000341751
0.000197962
0.000156597
-0.000343354
-2.87261e-05
-9.63178e-05
-6.69187e-05
-4.21406e-05
-0.000114643
5.35716e-05
-0.000170767
0.000154434
-0.000224045
0.000250592
-0.000254978
0.000308951
-0.000261084
0.000320831
-0.000256648
0.000302285
-0.000248349
0.000271473
-0.000240623
0.000233869
-0.000235765
0.00019311
0.000152814
-0.000231976
-5.16709e-05
-4.46403e-05
-0.000101176
7.37073e-06
-0.000148371
0.000100774
-0.000184891
0.00019096
-0.000203024
0.000268731
-0.000199198
0.000305132
-0.00018449
0.000306129
-0.000167583
0.000285385
-0.000152011
0.000255907
-0.000139388
0.000221252
-0.000130161
0.000183889
0.000145885
-0.000123225
-6.59237e-05
2.12906e-05
-0.00012067
6.21246e-05
-0.000155599
0.000135709
-0.000165963
0.000201332
-0.000153325
0.0002561
-0.000127843
0.000279657
-0.000100085
0.000278378
-7.54719e-05
0.000260779
-5.48785e-05
0.000235321
-3.85854e-05
0.000204966
-2.62792e-05
0.00017159
0.000136612
-1.69986e-05
-7.53281e-05
9.66264e-05
-0.000122853
0.000109657
-0.000139143
0.000152007
-0.000126057
0.000188254
-9.28998e-05
0.00022295
-5.38528e-05
0.000240618
-1.69754e-05
0.000241508
1.41426e-05
0.000229669
3.93469e-05
0.000210124
5.91592e-05
0.000185162
7.44081e-05
0.000156349
0.000124887
8.61407e-05
-7.06623e-05
0.000167297
-0.000107135
0.000146138
-0.000103172
0.000148052
-7.37166e-05
0.000158806
-2.87504e-05
0.000177992
1.92379e-05
0.000192637
6.32212e-05
0.000197533
0.000100161
0.000192738
0.000129985
0.000180308
0.000153577
0.000161578
0.000172119
0.000137815
0.000110197
0.000186817
-7.04833e-05
0.000237789
-7.16072e-05
0.000147271
-4.19364e-05
0.00011839
1.26711e-06
0.000115612
5.2887e-05
0.000126381
0.000104672
0.000140861
0.000151463
0.00015075
0.000191048
0.000153161
0.00022344
0.000147925
0.000249602
0.000135425
0.000270808
0.000116617
9.26675e-05
0.000288346
-3.50435e-08
0.000237833
3.12813e-05
0.000115964
8.04237e-05
6.92567e-05
0.000130295
6.57499e-05
0.000179243
7.74411e-05
0.000225105
9.50091e-05
0.00026611
0.000109754
0.000301384
0.000117897
0.000331104
0.000118214
0.000356071
0.000110467
0.000377355
9.53425e-05
7.38487e-05
0.000396183
0.000193332
4.45111e-05
0.00026668
4.26249e-05
0.000312644
2.33024e-05
0.000344951
3.34525e-05
0.000371348
5.10537e-05
0.000396157
7.02104e-05
0.00041981
8.61096e-05
0.00044185
9.58661e-05
0.000462
9.80737e-05
0.000480547
9.19295e-05
0.000498026
7.78738e-05
0.000515564
5.63203e-05
-0.000627146
7.94511e-05
-0.000676293
4.91651e-05
-0.000701625
2.53297e-05
-0.000702342
7.21222e-07
-0.000682283
-2.00547e-05
-0.000640223
-4.20562e-05
-0.000575152
-6.50674e-05
-0.000485436
-8.97112e-05
-0.000369649
-0.000115783
-0.000228847
-0.000140798
-8.54764e-05
-0.000143366
-8.54723e-05
-0.000562992
0.000104835
-0.000580745
6.69244e-05
-0.000588169
3.27572e-05
-0.000587063
-3.80519e-07
-0.000575306
-3.18066e-05
-0.000551644
-6.57134e-05
-0.000514359
-0.000102348
-0.00046134
-0.000142726
-0.000389814
-0.000187305
-0.000297817
-0.00023279
-0.000175167
-0.000266012
-0.000260635
-0.000451829
0.000114141
-0.000459122
7.42223e-05
-0.000462083
3.57234e-05
-0.000459671
-2.78756e-06
-0.000449197
-4.2275e-05
-0.000430552
-8.43536e-05
-0.000402548
-0.000130347
-0.000364171
-0.000181098
-0.000313746
-0.000237725
-0.000246277
-0.000300254
-0.000150943
-0.000361341
-0.000411572
-0.00034429
0.000115083
-0.000344064
7.40019e-05
-0.00034175
3.34149e-05
-0.000336653
-7.87921e-06
-0.000327797
-5.11255e-05
-0.000314463
-9.76817e-05
-0.000295505
-0.0001493
-0.000269814
-0.000206783
-0.000235494
-0.000272039
-0.000186991
-0.000348752
-0.000113772
-0.000434555
-0.000525338
-0.000229143
0.000112256
-0.000226742
7.16068e-05
-0.00022392
3.05993e-05
-0.000220041
-1.17525e-05
-0.00021454
-5.66204e-05
-0.000206879
-0.000105336
-0.000196326
-0.000159847
-0.000181949
-0.000221154
-0.000161742
-0.00029224
-0.000133604
-0.000376884
-8.63183e-05
-0.000481835
-0.000611651
-0.00011815
0.000107188
-0.000114393
6.78557e-05
-0.000111337
2.75497e-05
-0.00010856
-1.45223e-05
-0.000105768
-5.94056e-05
-0.000102709
-0.000108389
-9.946e-05
-0.00016309
-9.5362e-05
-0.000225245
-8.9572e-05
-0.000298023
-8.00199e-05
-0.000386429
-5.72793e-05
-0.000504569
-0.000668924
-1.0111e-05
0.000100308
-5.08391e-06
6.28357e-05
-1.48171e-06
2.39547e-05
8.80115e-07
-1.6877e-05
1.964e-06
-6.04824e-05
1.54128e-06
-0.000107959
-8.3171e-07
-0.00016071
-5.45318e-06
-0.000220617
-1.23774e-05
-0.000291092
-2.05229e-05
-0.000378277
-2.50709e-05
-0.000500014
-0.000693987
9.51728e-05
9.12833e-05
0.000102043
5.59729e-05
0.00010709
1.89154e-05
0.000110283
-2.00622e-05
0.000111246
-6.14378e-05
0.000109261
-0.000105966
0.000103214
-0.000154656
9.1743e-05
-0.000209138
7.33309e-05
-0.000272672
4.72964e-05
-0.000352235
1.6414e-05
-0.000469124
-0.000677566
0.000198716
7.93928e-05
0.000208383
4.63137e-05
0.000216141
1.11653e-05
0.000221773
-2.56854e-05
0.000224578
-6.42352e-05
0.000223336
-0.000104716
0.000216145
-0.000147457
0.000200462
-0.000193447
0.000172837
-0.000245039
0.000129613
-0.000309002
6.92192e-05
-0.000408723
-0.000608339
0.000303487
6.42605e-05
0.000316701
3.31079e-05
0.000328323
-4.47791e-07
0.00033794
-3.5294e-05
0.000344537
-7.08237e-05
0.000346401
-0.00010657
0.000340863
-0.00014191
0.000324317
-0.000176893
0.000291337
-0.00021205
0.000235348
-0.000253005
0.00014575
-0.000319116
-0.00046258
0.000414059
4.63935e-05
0.00043098
1.6196e-05
0.000447179
-1.66378e-05
0.000461922
-5.00283e-05
0.000473821
-8.27131e-05
0.000480669
-0.000113409
0.000479231
-0.000140464
0.000465291
-0.000162944
0.000431951
-0.000178701
0.000370851
-0.000191896
0.000256752
-0.000205008
-0.000205819
0.000535068
2.68987e-05
0.000555466
-4.19248e-06
0.000576587
-3.77488e-05
0.000597031
-7.04627e-05
0.00061493
-0.000100603
0.000627551
-0.000126021
0.00063149
-0.000144393
0.000622798
-0.000154242
0.000594974
-0.000150868
0.000537037
-0.000133949
0.000407183
-7.5145e-05
0.000201374
5.04716e-05
-5.04674e-05
9.96035e-05
-4.91277e-05
0.00013229
-3.26826e-05
0.000147106
-1.48112e-05
0.000152704
-5.59368e-06
0.00014845
4.25736e-06
0.000114715
3.37395e-05
4.19799e-05
7.27395e-05
-9.70149e-05
0.000138999
-0.000290816
0.000193805
-0.000438372
0.00014756
0.000109323
-0.000547692
4.4708e-05
-9.51707e-05
7.56784e-05
-8.00934e-05
8.11218e-05
-3.81213e-05
6.57958e-05
5.19564e-07
2.51069e-05
3.51e-05
-5.19155e-05
8.12845e-05
-0.000175123
0.000156952
-0.000324982
0.000222603
-0.000428902
0.000242924
-0.000465284
0.000230192
-0.000502055
0.000184335
0.000144885
-0.000537612
3.30615e-05
-0.000128227
4.74438e-05
-9.44704e-05
3.63468e-05
-2.70191e-05
-3.37679e-06
4.02484e-05
-8.43466e-05
0.000116075
-0.00020385
0.000200793
-0.000315412
0.000268519
-0.000380878
0.000288075
-0.000411895
0.000273945
-0.000421637
0.00023994
-0.000432429
0.000195132
0.000154989
-0.000442528
-3.17141e-06
-0.00012505
-1.7297e-05
-8.03391e-05
-5.01521e-05
5.84175e-06
-0.000108201
9.83033e-05
-0.000189428
0.000197307
-0.000266641
0.000278011
-0.000312835
0.000314719
-0.000331469
0.000306715
-0.000337284
0.000279765
-0.000338927
0.000241588
-0.000341751
0.000197962
0.000156597
-0.000343353
-2.87262e-05
-9.63175e-05
-6.69189e-05
-4.21403e-05
-0.000114643
5.35717e-05
-0.000170767
0.000154434
-0.000224045
0.000250592
-0.000254979
0.000308951
-0.000261084
0.00032083
-0.000256648
0.000302285
-0.000248349
0.000271472
-0.000240623
0.000233868
-0.000235765
0.00019311
0.000152814
-0.000231976
-5.16709e-05
-4.46399e-05
-0.000101176
7.37109e-06
-0.000148372
0.000100774
-0.000184891
0.00019096
-0.000203024
0.000268731
-0.000199198
0.000305132
-0.00018449
0.000306129
-0.000167583
0.000285384
-0.000152011
0.000255907
-0.000139388
0.000221252
-0.000130161
0.000183889
0.000145885
-0.000123225
-6.59238e-05
2.1291e-05
-0.000120671
6.21249e-05
-0.000155599
0.00013571
-0.000165963
0.000201332
-0.000153326
0.0002561
-0.000127843
0.000279656
-0.000100085
0.000278377
-7.5472e-05
0.000260779
-5.48785e-05
0.00023532
-3.85855e-05
0.000204966
-2.62792e-05
0.00017159
0.000136611
-1.69986e-05
-7.53281e-05
9.66268e-05
-0.000122853
0.000109657
-0.000139143
0.000152007
-0.000126057
0.000188253
-9.28997e-05
0.00022295
-5.38528e-05
0.000240617
-1.69755e-05
0.000241508
1.41425e-05
0.000229669
3.93468e-05
0.000210124
5.91591e-05
0.000185161
7.44081e-05
0.000156349
0.000124887
8.61407e-05
-7.06623e-05
0.000167297
-0.000107135
0.000146139
-0.000103172
0.000148052
-7.37165e-05
0.000158806
-2.87504e-05
0.000177992
1.92379e-05
0.000192637
6.32212e-05
0.000197532
0.000100161
0.000192737
0.000129985
0.000180308
0.000153577
0.000161577
0.000172119
0.000137815
0.000110196
0.000186817
-7.04831e-05
0.000237789
-7.16071e-05
0.000147271
-4.19362e-05
0.00011839
1.2673e-06
0.000115612
5.28872e-05
0.000126381
0.000104672
0.000140861
0.000151463
0.00015075
0.000191048
0.000153161
0.00022344
0.000147925
0.000249602
0.000135424
0.000270808
0.000116617
9.26671e-05
0.000288346
-3.49034e-08
0.000237833
3.12816e-05
0.000115964
8.0424e-05
6.92567e-05
0.000130295
6.57499e-05
0.000179244
7.74409e-05
0.000225105
9.50088e-05
0.000266111
0.000109753
0.000301384
0.000117896
0.000331104
0.000118214
0.000356071
0.000110466
0.000377355
9.5342e-05
7.38483e-05
0.000396183
0.000193332
4.4511e-05
0.000266681
4.26248e-05
0.000312645
2.33024e-05
0.000344952
3.34524e-05
0.000371349
5.10536e-05
0.000396157
7.02101e-05
0.00041981
8.61093e-05
0.000441851
9.58657e-05
0.000462001
9.80732e-05
0.000480548
9.1929e-05
0.000498026
7.78733e-05
0.000515564
5.63198e-05
-0.000627145
7.9451e-05
-0.000676292
4.91651e-05
-0.000701624
2.53296e-05
-0.000702342
7.2119e-07
-0.000682283
-2.00547e-05
-0.000640223
-4.20562e-05
-0.000575151
-6.50674e-05
-0.000485436
-8.97112e-05
-0.000369648
-0.000115783
-0.000228846
-0.000140798
-8.54761e-05
-0.000143366
-8.5472e-05
-0.000562992
0.000104835
-0.000580745
6.69243e-05
-0.000588168
3.27571e-05
-0.000587062
-3.80579e-07
-0.000575306
-3.18067e-05
-0.000551644
-6.57134e-05
-0.000514359
-0.000102348
-0.00046134
-0.000142726
-0.000389814
-0.000187305
-0.000297817
-0.00023279
-0.000175167
-0.000266012
-0.000260634
-0.000451829
0.00011414
-0.000459122
7.42222e-05
-0.000462083
3.57233e-05
-0.000459671
-2.78764e-06
-0.000449197
-4.2275e-05
-0.000430552
-8.43536e-05
-0.000402548
-0.000130347
-0.000364171
-0.000181098
-0.000313746
-0.000237725
-0.000246277
-0.000300254
-0.000150943
-0.000361341
-0.000411572
-0.00034429
0.000115083
-0.000344064
7.40018e-05
-0.00034175
3.34148e-05
-0.000336653
-7.87929e-06
-0.000327797
-5.11255e-05
-0.000314463
-9.76817e-05
-0.000295504
-0.0001493
-0.000269813
-0.000206783
-0.000235494
-0.000272039
-0.000186991
-0.000348751
-0.000113772
-0.000434555
-0.000525338
-0.000229143
0.000112256
-0.000226742
7.16066e-05
-0.00022392
3.05992e-05
-0.000220041
-1.17526e-05
-0.00021454
-5.66204e-05
-0.000206879
-0.000105336
-0.000196326
-0.000159847
-0.000181949
-0.000221154
-0.000161742
-0.00029224
-0.000133604
-0.000376883
-8.63183e-05
-0.000481834
-0.00061165
-0.00011815
0.000107188
-0.000114393
6.78555e-05
-0.000111337
2.75496e-05
-0.00010856
-1.45224e-05
-0.000105768
-5.94056e-05
-0.000102709
-0.000108389
-9.94599e-05
-0.00016309
-9.53619e-05
-0.000225245
-8.95719e-05
-0.000298023
-8.00198e-05
-0.000386429
-5.72793e-05
-0.000504569
-0.000668923
-1.0111e-05
0.000100308
-5.08386e-06
6.28355e-05
-1.48165e-06
2.39545e-05
8.80193e-07
-1.68771e-05
1.96408e-06
-6.04824e-05
1.54137e-06
-0.000107959
-8.31633e-07
-0.000160709
-5.45312e-06
-0.000220617
-1.23774e-05
-0.000291092
-2.05229e-05
-0.000378276
-2.50708e-05
-0.000500014
-0.000693987
9.51728e-05
9.1283e-05
0.000102043
5.59727e-05
0.00010709
1.89152e-05
0.000110283
-2.00623e-05
0.000111246
-6.14379e-05
0.000109261
-0.000105966
0.000103214
-0.000154656
9.1743e-05
-0.000209137
7.33309e-05
-0.000272672
4.72965e-05
-0.000352234
1.64141e-05
-0.000469124
-0.000677565
0.000198716
7.93925e-05
0.000208383
4.63134e-05
0.000216141
1.11651e-05
0.000221773
-2.56855e-05
0.000224578
-6.42352e-05
0.000223336
-0.000104716
0.000216145
-0.000147456
0.000200462
-0.000193447
0.000172837
-0.000245039
0.000129613
-0.000309002
6.92192e-05
-0.000408722
-0.000608338
0.000303487
6.42602e-05
0.000316701
3.31077e-05
0.000328323
-4.47967e-07
0.00033794
-3.52941e-05
0.000344537
-7.08238e-05
0.000346401
-0.00010657
0.000340863
-0.00014191
0.000324317
-0.000176893
0.000291337
-0.00021205
0.000235348
-0.000253005
0.00014575
-0.000319115
-0.000462579
0.000414059
4.63932e-05
0.00043098
1.61958e-05
0.000447179
-1.6638e-05
0.000461923
-5.00283e-05
0.000473821
-8.27131e-05
0.000480669
-0.000113409
0.000479231
-0.000140463
0.000465291
-0.000162943
0.000431951
-0.000178701
0.000370851
-0.000191895
0.000256752
-0.000205008
-0.000205818
0.000535068
2.68984e-05
0.000555466
-4.19272e-06
0.000576587
-3.77489e-05
0.000597031
-7.04627e-05
0.00061493
-0.000100603
0.000627551
-0.000126021
0.00063149
-0.000144393
0.000622797
-0.000154241
0.000594974
-0.000150868
0.000537036
-0.000133948
0.000407183
-7.51445e-05
0.000201374
5.04715e-05
-5.04673e-05
9.96033e-05
-4.91276e-05
0.00013229
-3.26826e-05
0.000147105
-1.48112e-05
0.000152703
-5.59375e-06
0.00014845
4.25718e-06
0.000114716
3.37392e-05
4.19805e-05
7.27392e-05
-9.70136e-05
0.000138998
-0.000290815
0.000193805
-0.000438371
0.00014756
0.000109323
-0.000547691
4.4708e-05
-9.51705e-05
7.56784e-05
-8.00934e-05
8.11219e-05
-3.81214e-05
6.5796e-05
5.19383e-07
2.51074e-05
3.50997e-05
-5.19147e-05
8.12839e-05
-0.000175122
0.000156951
-0.000324981
0.000222603
-0.000428902
0.000242923
-0.000465284
0.000230192
-0.000502054
0.000184335
0.000144885
-0.000537612
3.30617e-05
-0.000128227
4.74441e-05
-9.44706e-05
3.63474e-05
-2.70194e-05
-3.37592e-06
4.02479e-05
-8.43454e-05
0.000116074
-0.000203849
0.000200792
-0.000315411
0.000268518
-0.000380878
0.000288075
-0.000411894
0.000273945
-0.000421637
0.00023994
-0.000432429
0.000195132
0.000154989
-0.000442528
-3.17111e-06
-0.00012505
-1.72964e-05
-8.03396e-05
-5.01513e-05
5.84117e-06
-0.0001082
9.83026e-05
-0.000189427
0.000197307
-0.00026664
0.000278011
-0.000312835
0.000314719
-0.000331469
0.000306715
-0.000337284
0.000279766
-0.000338926
0.000241588
-0.000341751
0.000197962
0.000156597
-0.000343353
-2.87259e-05
-9.63181e-05
-6.69184e-05
-4.2141e-05
-0.000114642
5.3571e-05
-0.000170766
0.000154433
-0.000224045
0.000250591
-0.000254978
0.000308951
-0.000261084
0.000320831
-0.000256648
0.000302285
-0.000248349
0.000271473
-0.000240623
0.000233869
-0.000235765
0.00019311
0.000152814
-0.000231976
-5.16708e-05
-4.46407e-05
-0.000101175
7.37029e-06
-0.000148371
0.000100774
-0.000184891
0.00019096
-0.000203024
0.00026873
-0.000199198
0.000305132
-0.00018449
0.000306129
-0.000167583
0.000285385
-0.000152011
0.000255907
-0.000139388
0.000221252
-0.000130161
0.000183889
0.000145885
-0.000123225
-6.59238e-05
2.12903e-05
-0.000120671
6.21242e-05
-0.000155599
0.000135709
-0.000165964
0.000201331
-0.000153326
0.000256099
-0.000127843
0.000279657
-0.000100085
0.000278378
-7.54721e-05
0.000260779
-5.48786e-05
0.000235321
-3.85854e-05
0.000204966
-2.62791e-05
0.00017159
0.000136612
-1.69985e-05
-7.53282e-05
9.66262e-05
-0.000122853
0.000109657
-0.000139143
0.000152007
-0.000126057
0.000188253
-9.29001e-05
0.00022295
-5.38532e-05
0.000240617
-1.69757e-05
0.000241508
1.41424e-05
0.000229669
3.93468e-05
0.000210124
5.91591e-05
0.000185162
7.44081e-05
0.000156349
0.000124887
8.61407e-05
-7.06624e-05
0.000167297
-0.000107135
0.000146138
-0.000103172
0.000148052
-7.3717e-05
0.000158806
-2.87508e-05
0.000177992
1.92375e-05
0.000192637
6.32209e-05
0.000197533
0.00010016
0.000192737
0.000129984
0.000180308
0.000153577
0.000161577
0.000172119
0.000137815
0.000110196
0.000186817
-7.04833e-05
0.000237789
-7.16074e-05
0.000147271
-4.19366e-05
0.00011839
1.26684e-06
0.000115611
5.28867e-05
0.00012638
0.000104672
0.000140861
0.000151463
0.00015075
0.000191048
0.000153161
0.00022344
0.000147925
0.000249602
0.000135424
0.000270808
0.000116617
9.26673e-05
0.000288346
-3.50327e-08
0.000237833
3.12813e-05
0.000115964
8.04236e-05
6.92566e-05
0.000130294
6.57497e-05
0.000179243
7.74407e-05
0.000225104
9.50086e-05
0.00026611
0.000109753
0.000301384
0.000117896
0.000331104
0.000118214
0.000356071
0.000110466
0.000377355
9.53421e-05
7.38484e-05
0.000396183
0.000193332
4.45111e-05
0.00026668
4.26248e-05
0.000312644
2.33023e-05
0.000344951
3.34522e-05
0.000371348
5.10534e-05
0.000396156
7.021e-05
0.00041981
8.61091e-05
0.00044185
9.58656e-05
0.000462
9.80732e-05
0.000480547
9.1929e-05
0.000498026
7.78734e-05
0.000515564
5.63199e-05
-0.000627145
7.94512e-05
-0.000676292
4.91652e-05
-0.000701624
2.53298e-05
-0.000702341
7.21307e-07
-0.000682283
-2.00546e-05
-0.000640222
-4.20561e-05
-0.000575151
-6.50673e-05
-0.000485436
-8.97111e-05
-0.000369648
-0.000115783
-0.000228846
-0.000140798
-8.54762e-05
-0.000143366
-8.54721e-05
-0.000562991
0.000104835
-0.000580744
6.69245e-05
-0.000588168
3.27573e-05
-0.000587062
-3.80411e-07
-0.000575305
-3.18065e-05
-0.000551644
-6.57132e-05
-0.000514359
-0.000102347
-0.00046134
-0.000142725
-0.000389814
-0.000187305
-0.000297817
-0.00023279
-0.000175167
-0.000266012
-0.000260634
-0.000451829
0.000114141
-0.000459121
7.42224e-05
-0.000462083
3.57235e-05
-0.00045967
-2.78744e-06
-0.000449197
-4.22748e-05
-0.000430552
-8.43534e-05
-0.000402548
-0.000130347
-0.00036417
-0.000181097
-0.000313746
-0.000237725
-0.000246277
-0.000300254
-0.000150943
-0.000361341
-0.000411572
-0.00034429
0.000115083
-0.000344064
7.4002e-05
-0.00034175
3.3415e-05
-0.000336653
-7.87908e-06
-0.000327797
-5.11253e-05
-0.000314463
-9.76815e-05
-0.000295504
-0.0001493
-0.000269813
-0.000206783
-0.000235494
-0.000272038
-0.000186991
-0.000348751
-0.000113772
-0.000434555
-0.000525338
-0.000229143
0.000112256
-0.000226742
7.16069e-05
-0.00022392
3.05994e-05
-0.000220041
-1.17524e-05
-0.00021454
-5.66202e-05
-0.000206879
-0.000105336
-0.000196326
-0.000159847
-0.000181949
-0.000221154
-0.000161742
-0.000292239
-0.000133604
-0.000376883
-8.63183e-05
-0.000481834
-0.00061165
-0.00011815
0.000107188
-0.000114393
6.78558e-05
-0.000111336
2.75498e-05
-0.00010856
-1.45222e-05
-0.000105768
-5.94054e-05
-0.000102709
-0.000108389
-9.94598e-05
-0.000163089
-9.53618e-05
-0.000225245
-8.95718e-05
-0.000298023
-8.00198e-05
-0.000386429
-5.72792e-05
-0.000504568
-0.000668923
-1.01109e-05
0.000100308
-5.08375e-06
6.28358e-05
-1.48154e-06
2.39547e-05
8.80299e-07
-1.68769e-05
1.96418e-06
-6.04822e-05
1.54146e-06
-0.000107959
-8.31553e-07
-0.000160709
-5.45304e-06
-0.000220616
-1.23773e-05
-0.000291092
-2.05228e-05
-0.000378276
-2.50708e-05
-0.000500014
-0.000693987
9.51729e-05
9.12833e-05
0.000102043
5.59729e-05
0.00010709
1.89154e-05
0.000110283
-2.00621e-05
0.000111246
-6.14377e-05
0.000109261
-0.000105966
0.000103215
-0.000154656
9.17431e-05
-0.000209137
7.3331e-05
-0.000272672
4.72965e-05
-0.000352234
1.64141e-05
-0.000469124
-0.000677565
0.000198716
7.93927e-05
0.000208383
4.63136e-05
0.000216141
1.11653e-05
0.000221773
-2.56853e-05
0.000224578
-6.4235e-05
0.000223336
-0.000104715
0.000216145
-0.000147456
0.000200462
-0.000193447
0.000172837
-0.000245039
0.000129613
-0.000309002
6.92192e-05
-0.000408722
-0.000608338
0.000303487
6.42604e-05
0.000316701
3.31078e-05
0.000328323
-4.47798e-07
0.00033794
-3.52939e-05
0.000344537
-7.08236e-05
0.000346401
-0.00010657
0.000340863
-0.00014191
0.000324317
-0.000176892
0.000291337
-0.00021205
0.000235348
-0.000253004
0.00014575
-0.000319115
-0.000462579
0.000414059
4.63933e-05
0.00043098
1.61959e-05
0.000447179
-1.66379e-05
0.000461923
-5.00282e-05
0.000473821
-8.27129e-05
0.000480669
-0.000113409
0.000479231
-0.000140463
0.000465291
-0.000162943
0.000431951
-0.000178701
0.000370851
-0.000191895
0.000256752
-0.000205008
-0.000205818
0.000535068
2.68985e-05
0.000555466
-4.19262e-06
0.000576587
-3.77488e-05
0.000597031
-7.04626e-05
0.00061493
-0.000100602
0.000627551
-0.000126021
0.00063149
-0.000144393
0.000622798
-0.000154241
0.000594974
-0.000150868
0.000537037
-0.000133948
0.000407183
-7.51444e-05
0.000201374
0.000722299
9.68367e-05
-0.000774614
0.000693642
7.12916e-05
0.00065596
6.09942e-05
0.000629496
5.99264e-05
0.000613755
6.68043e-05
0.000606742
7.72326e-05
0.000606009
8.68526e-05
0.000609393
9.24921e-05
0.000615472
9.20041e-05
0.000623895
8.35165e-05
0.000634636
6.71431e-05
4.1841e-05
0.000649125
0.000932437
0.000100645
-0.000936234
0.000911986
9.1753e-05
0.000884726
8.82646e-05
0.000856513
8.81496e-05
0.000831435
9.18929e-05
0.000811164
9.75135e-05
0.000795974
0.000102053
0.000785615
0.000102861
0.000779859
9.77711e-05
0.000779166
8.42196e-05
0.000783838
6.2482e-05
2.90198e-05
0.000796669
0.00106123
9.99984e-05
-0.00106057
0.00105327
9.97261e-05
0.00103983
0.000101709
0.00102245
0.000105541
0.00100323
0.000111123
0.000984123
0.000116632
0.000966663
0.000119525
0.000952225
0.00011731
0.000942231
0.000107776
0.000938576
8.78859e-05
0.000942783
5.82861e-05
1.20605e-05
0.000959753
0.00116991
-0.00116881
9.89113e-05
0.00116787
0.000101784
0.00116185
0.000107737
0.00115226
0.000115138
0.0011402
0.000123196
0.00112732
0.000129527
0.00111529
0.000131564
0.00110602
0.000126591
0.00110171