/*--------------------------------*- C++ -*----------------------------------*\
| =========                 |                                                 |
| \\      /  F ield         | OpenFOAM: The Open Source CFD Toolbox           |
|  \\    /   O peration     | Version:  2212                                  |
|   \\  /    A nd           | Website:  www.openfoam.com                      |
|    \\/     M anipulation  |                                                 |
\*---------------------------------------------------------------------------*/
FoamFile
{
    version     2.0;
    format      ascii;
    arch        "LSB;label=32;scalar=64";
    class       volScalarField;
    location    "0.08";
    object      rho;
}
// * * * * * * * * * * * * * * * * * * * * * * * * * * * * * * * * * * * * * //

dimensions      [1 -3 0 0 0 0 0];

internalField   nonuniform List<scalar> 
3072
(
1.16828
1.16807
1.16796
1.1679
1.16792
1.1681
1.16881
1.17003
1.16964
1.1696
1.16974
1.16967
1.16988
1.16946
1.16949
1.16964
1.17013
1.17033
1.17095
1.1718
1.17292
1.17371
1.17419
1.17442
1.17103
1.17045
1.1707
1.17103
1.17145
1.17205
1.17288
1.17359
1.17433
1.17487
1.17528
1.17557
1.17283
1.17226
1.17259
1.173
1.17362
1.17433
1.17506
1.17572
1.17628
1.17667
1.17698
1.17722
1.1745
1.17422
1.17459
1.17509
1.17574
1.17642
1.17706
1.17761
1.17803
1.17834
1.17857
1.17875
1.17632
1.17626
1.17663
1.17718
1.17778
1.17835
1.17886
1.17927
1.17958
1.1798
1.17996
1.18009
1.17811
1.17827
1.17863
1.17918
1.1797
1.18016
1.18052
1.1808
1.181
1.18113
1.18123
1.1813
1.17985
1.18027
1.18058
1.18106
1.18147
1.18179
1.18202
1.18217
1.18226
1.18231
1.18234
1.18236
1.18175
1.18222
1.18238
1.18277
1.18303
1.18321
1.18331
1.18335
1.18335
1.18334
1.18331
1.18329
1.18349
1.18381
1.18389
1.18417
1.18431
1.18439
1.18439
1.18436
1.1843
1.18423
1.18417
1.18412
1.1849
1.18522
1.18511
1.18533
1.18542
1.18542
1.18536
1.18527
1.18516
1.18505
1.18496
1.18488
1.18495
1.18634
1.18631
1.18646
1.18649
1.18642
1.1863
1.18615
1.186
1.18585
1.18572
1.18561
1.16982
1.17001
1.17034
1.17083
1.17141
1.17197
1.17259
1.17306
1.17337
1.17331
1.17308
1.17244
1.17464
1.17476
1.17489
1.17505
1.17527
1.17547
1.17565
1.17576
1.17575
1.17564
1.17509
1.17356
1.17574
1.1759
1.17606
1.17625
1.17647
1.17667
1.17681
1.17685
1.17673
1.17656
1.17606
1.17391
1.17742
1.1776
1.17775
1.17789
1.178
1.17807
1.1781
1.17803
1.17782
1.17751
1.17704
1.17476
1.17889
1.17901
1.17911
1.1792
1.17927
1.17931
1.1793
1.17923
1.17904
1.17872
1.17833
1.17622
1.18019
1.18028
1.18035
1.18042
1.18048
1.18053
1.18056
1.18054
1.18044
1.18022
1.17994
1.17817
1.18136
1.18141
1.18147
1.18153
1.18161
1.1817
1.18179
1.18187
1.18192
1.18188
1.18184
1.1806
1.18238
1.18241
1.18246
1.18253
1.18263
1.18277
1.18296
1.18317
1.18342
1.18365
1.18401
1.18342
1.18328
1.1833
1.18334
1.18342
1.18355
1.18374
1.18401
1.18437
1.18483
1.18537
1.18623
1.18663
1.18409
1.18408
1.18412
1.1842
1.18435
1.18459
1.18493
1.18541
1.18606
1.1869
1.18833
1.18975
1.18483
1.18481
1.18483
1.18491
1.18506
1.18532
1.1857
1.18624
1.187
1.18805
1.19003
1.19256
1.18554
1.18549
1.1855
1.18556
1.18569
1.18593
1.1863
1.18684
1.1876
1.18872
1.19081
1.19458
1.16819
1.16801
1.16791
1.16784
1.16787
1.16799
1.16848
1.16986
1.16946
1.16941
1.16956
1.16953
1.1698
1.16941
1.16943
1.16953
1.16996
1.17026
1.17063
1.17138
1.17244
1.17331
1.17383
1.1741
1.17091
1.17036
1.17056
1.17087
1.17126
1.17174
1.17249
1.1732
1.17392
1.17448
1.17491
1.17523
1.17268
1.17209
1.17238
1.17272
1.17329
1.17395
1.17465
1.17531
1.17589
1.17632
1.17664
1.17689
1.1743
1.17397
1.17431
1.17475
1.17536
1.17601
1.17666
1.17723
1.17768
1.178
1.17824
1.17842
1.17613
1.176
1.17635
1.17686
1.17743
1.17799
1.17851
1.17892
1.17924
1.17948
1.17965
1.17978
1.17792
1.17803
1.17837
1.17889
1.17939
1.17984
1.18021
1.18048
1.18069
1.18083
1.18093
1.181
1.17968
1.18004
1.18034
1.1808
1.18119
1.18151
1.18174
1.18189
1.18198
1.18204
1.18207
1.18208
1.18159
1.18199
1.18216
1.18254
1.18279
1.18297
1.18306
1.1831
1.18311
1.18309
1.18306
1.18303
1.1833
1.18358
1.18368
1.18397
1.18411
1.18419
1.18419
1.18415
1.18409
1.18401
1.18394
1.18388
1.18471
1.18501
1.18493
1.18516
1.18526
1.18527
1.1852
1.1851
1.18498
1.18486
1.18475
1.18466
1.1848
1.18613
1.18614
1.18632
1.18637
1.18631
1.18619
1.18603
1.18586
1.18569
1.18554
1.18542
1.16964
1.16981
1.1701
1.17054
1.17107
1.17157
1.17214
1.17256
1.17283
1.17275
1.17251
1.17188
1.17433
1.17445
1.17455
1.17469
1.17486
1.17503
1.17518
1.17526
1.17523
1.17509
1.17454
1.17305
1.17541
1.17556
1.17571
1.17588
1.17608
1.17625
1.17637
1.17639
1.17626
1.17608
1.17558
1.17347
1.17709
1.17726
1.1774
1.17752
1.17762
1.17768
1.17769
1.17761
1.17739
1.17707
1.1766
1.17434
1.17856
1.17867
1.17877
1.17885
1.1789
1.17893
1.17892
1.17883
1.17863
1.1783
1.17792
1.17581
1.17987
1.17996
1.18003
1.18009
1.18014
1.18017
1.18019
1.18016
1.18004
1.17979
1.17952
1.17774
1.18105
1.1811
1.18116
1.18121
1.18128
1.18135
1.18143
1.1815
1.18153
1.18146
1.1814
1.18012
1.1821
1.18213
1.18217
1.18223
1.18232
1.18245
1.18261
1.18281
1.18303
1.18321
1.18353
1.18289
1.18302
1.18303
1.18306
1.18313
1.18325
1.18343
1.18368
1.18401
1.18444
1.18494
1.18572
1.18603
1.18384
1.18383
1.18386
1.18394
1.18408
1.1843
1.18462
1.18507
1.18567
1.18647
1.1878
1.18912
1.1846
1.18457
1.18459
1.18466
1.1848
1.18504
1.1854
1.18592
1.18664
1.18764
1.18951
1.19194
1.18532
1.18527
1.18527
1.18532
1.18545
1.18568
1.18603
1.18654
1.18727
1.18835
1.19035
1.19408
1.16828
1.16807
1.16796
1.1679
1.16792
1.1681
1.16881
1.17003
1.16964
1.1696
1.16974
1.16967
1.16988
1.16946
1.16949
1.16964
1.17013
1.17033
1.17095
1.1718
1.17292
1.17371
1.17419
1.17442
1.17103
1.17045
1.1707
1.17103
1.17145
1.17205
1.17288
1.17359
1.17433
1.17486
1.17528
1.17557
1.17283
1.17226
1.17259
1.173
1.17362
1.17433
1.17506
1.17572
1.17628
1.17667
1.17698
1.17722
1.1745
1.17422
1.17459
1.17509
1.17574
1.17642
1.17706
1.17761
1.17803
1.17834
1.17857
1.17875
1.17632
1.17626
1.17663
1.17718
1.17778
1.17835
1.17886
1.17927
1.17958
1.1798
1.17996
1.18009
1.17811
1.17827
1.17863
1.17918
1.1797
1.18016
1.18052
1.1808
1.181
1.18113
1.18123
1.1813
1.17985
1.18027
1.18058
1.18106
1.18147
1.18179
1.18202
1.18217
1.18226
1.18231
1.18234
1.18236
1.18175
1.18222
1.18238
1.18277
1.18303
1.18321
1.18331
1.18335
1.18335
1.18334
1.18331
1.18329
1.18349
1.18381
1.18389
1.18417
1.18431
1.18439
1.18439
1.18436
1.1843
1.18423
1.18417
1.18412
1.1849
1.18522
1.18511
1.18533
1.18542
1.18542
1.18536
1.18527
1.18516
1.18505
1.18496
1.18488
1.18495
1.18633
1.18631
1.18646
1.18649
1.18642
1.1863
1.18615
1.186
1.18585
1.18572
1.18561
1.16982
1.17001
1.17034
1.17083
1.17141
1.17197
1.17259
1.17306
1.17337
1.17331
1.17308
1.17244
1.17464
1.17476
1.17489
1.17505
1.17527
1.17547
1.17565
1.17576
1.17575
1.17564
1.17509
1.17356
1.17574
1.1759
1.17606
1.17625
1.17647
1.17667
1.17681
1.17685
1.17673
1.17656
1.17606
1.17391
1.17742
1.1776
1.17775
1.17789
1.178
1.17807
1.1781
1.17803
1.17782
1.17751
1.17704
1.17476
1.17889
1.17901
1.17911
1.1792
1.17927
1.17931
1.1793
1.17923
1.17904
1.17872
1.17833
1.17622
1.18019
1.18028
1.18035
1.18042
1.18048
1.18053
1.18056
1.18054
1.18044
1.18022
1.17994
1.17817
1.18136
1.18141
1.18147
1.18153
1.18161
1.1817
1.18179
1.18187
1.18192
1.18188
1.18184
1.1806
1.18238
1.18241
1.18246
1.18253
1.18263
1.18277
1.18296
1.18317
1.18342
1.18365
1.18401
1.18342
1.18328
1.1833
1.18334
1.18342
1.18355
1.18374
1.18401
1.18437
1.18483
1.18537
1.18623
1.18663
1.18409
1.18408
1.18412
1.1842
1.18435
1.18459
1.18493
1.18541
1.18606
1.1869
1.18833
1.18975
1.18483
1.18481
1.18483
1.18491
1.18506
1.18532
1.1857
1.18624
1.187
1.18805
1.19003
1.19256
1.18554
1.18549
1.1855
1.18556
1.18569
1.18593
1.1863
1.18684
1.1876
1.18872
1.19081
1.19458
1.16819
1.16801
1.16791
1.16784
1.16787
1.16799
1.16848
1.16986
1.16946
1.16941
1.16956
1.16953
1.1698
1.16941
1.16943
1.16953
1.16996
1.17026
1.17063
1.17138
1.17244
1.17331
1.17383
1.1741
1.17091
1.17036
1.17056
1.17087
1.17126
1.17174
1.17249
1.1732
1.17392
1.17448
1.17491
1.17523
1.17268
1.17209
1.17238
1.17272
1.17329
1.17395
1.17465
1.17531
1.17589
1.17632
1.17664
1.17689
1.1743
1.17397
1.17431
1.17475
1.17536
1.17601
1.17666
1.17723
1.17768
1.178
1.17824
1.17842
1.17613
1.176
1.17635
1.17686
1.17743
1.17799
1.17851
1.17892
1.17924
1.17948
1.17965
1.17978
1.17792
1.17803
1.17837
1.17889
1.17939
1.17984
1.18021
1.18048
1.18069
1.18083
1.18093
1.181
1.17968
1.18004
1.18034
1.1808
1.18119
1.18151
1.18174
1.18189
1.18198
1.18204
1.18207
1.18208
1.18159
1.18199
1.18216
1.18254
1.18279
1.18297
1.18306
1.1831
1.18311
1.18309
1.18306
1.18303
1.1833
1.18358
1.18368
1.18397
1.18411
1.18419
1.18419
1.18415
1.18409
1.18401
1.18394
1.18388
1.18471
1.18501
1.18493
1.18516
1.18526
1.18527
1.1852
1.1851
1.18498
1.18486
1.18475
1.18466
1.1848
1.18613
1.18614
1.18632
1.18637
1.18631
1.18619
1.18603
1.18586
1.18569
1.18554
1.18542
1.16964
1.16981
1.1701
1.17054
1.17107
1.17157
1.17214
1.17256
1.17283
1.17275
1.17251
1.17188
1.17433
1.17445
1.17455
1.17469
1.17486
1.17503
1.17518
1.17526
1.17523
1.17509
1.17454
1.17305
1.17541
1.17556
1.17571
1.17588
1.17608
1.17625
1.17637
1.17639
1.17626
1.17608
1.17558
1.17347
1.17709
1.17726
1.1774
1.17752
1.17762
1.17768
1.17769
1.17761
1.17739
1.17707
1.1766
1.17434
1.17856
1.17867
1.17877
1.17885
1.1789
1.17893
1.17892
1.17883
1.17863
1.1783
1.17792
1.17581
1.17987
1.17996
1.18003
1.18009
1.18014
1.18017
1.18019
1.18016
1.18004
1.17979
1.17952
1.17774
1.18105
1.1811
1.18116
1.18121
1.18128
1.18135
1.18143
1.1815
1.18153
1.18146
1.1814
1.18012
1.1821
1.18213
1.18217
1.18223
1.18232
1.18245
1.18261
1.18281
1.18303
1.18321
1.18353
1.18289
1.18302
1.18303
1.18306
1.18313
1.18325
1.18343
1.18368
1.18401
1.18444
1.18494
1.18572
1.18603
1.18384
1.18383
1.18386
1.18394
1.18408
1.1843
1.18462
1.18507
1.18567
1.18647
1.1878
1.18912
1.1846
1.18457
1.18459
1.18466
1.1848
1.18504
1.1854
1.18591
1.18664
1.18764
1.18951
1.19194
1.18532
1.18527
1.18527
1.18532
1.18545
1.18568
1.18603
1.18654
1.18727
1.18835
1.19035
1.19408
1.1879
1.18797
1.18779
1.18765
1.1875
1.18734
1.18716
1.18696
1.18678
1.1866
1.18645
1.18632
1.18813
1.1879
1.18795
1.18797
1.18795
1.18787
1.18773
1.18757
1.1874
1.18724
1.18708
1.18694
1.18815
1.18804
1.1881
1.18813
1.18813
1.1881
1.18803
1.18793
1.18782
1.18769
1.18756
1.18743
1.18816
1.18814
1.18817
1.1882
1.18821
1.1882
1.18817
1.18812
1.18805
1.18797
1.18788
1.18779
1.18621
1.18615
1.18612
1.18615
1.18625
1.18645
1.18676
1.18724
1.18785
1.1887
1.18947
1.19069
1.18682
1.18673
1.18668
1.18667
1.18672
1.18686
1.1871
1.18748
1.18795
1.1886
1.18901
1.18943
1.18731
1.18721
1.18713
1.18709
1.18709
1.18717
1.18732
1.18758
1.18792
1.1884
1.18871
1.1889
1.18769
1.18758
1.18747
1.1874
1.18735
1.18735
1.1874
1.18754
1.18774
1.18809
1.18834
1.18859
1.18781
1.18784
1.18769
1.18757
1.18743
1.18727
1.18708
1.18687
1.18666
1.18646
1.18628
1.18613
1.18816
1.18787
1.1879
1.18791
1.18789
1.18781
1.18766
1.18749
1.18729
1.1871
1.18691
1.18673
1.18828
1.18811
1.18812
1.18812
1.18811
1.18805
1.18797
1.18784
1.18769
1.18752
1.18735
1.18718
1.18841
1.18833
1.18832
1.1883
1.18827
1.18823
1.18816
1.18807
1.18796
1.18782
1.18767
1.18751
1.186
1.18593
1.1859
1.18592
1.18602
1.18621
1.18651
1.18696
1.18755
1.18838
1.18915
1.19044
1.18659
1.18649
1.18644
1.18644
1.1865
1.18663
1.18686
1.18723
1.18768
1.18832
1.18876
1.18923
1.18704
1.18694
1.18688
1.18685
1.18688
1.18696
1.1871
1.18736
1.18768
1.18815
1.18847
1.18868
1.18738
1.18729
1.18723
1.18719
1.18718
1.1872
1.18726
1.18738
1.18755
1.18785
1.18809
1.18832
1.1879
1.18797
1.18779
1.18765
1.1875
1.18734
1.18716
1.18696
1.18678
1.1866
1.18645
1.18632
1.18813
1.1879
1.18795
1.18797
1.18795
1.18787
1.18773
1.18757
1.1874
1.18724
1.18708
1.18694
1.18815
1.18804
1.1881
1.18813
1.18813
1.1881
1.18803
1.18793
1.18782
1.18769
1.18756
1.18743
1.18816
1.18814
1.18817
1.1882
1.18821
1.1882
1.18817
1.18812
1.18805
1.18797
1.18788
1.18779
1.18621
1.18615
1.18612
1.18615
1.18625
1.18645
1.18676
1.18724
1.18785
1.1887
1.18947
1.19069
1.18682
1.18673
1.18668
1.18667
1.18672
1.18686
1.1871
1.18748
1.18795
1.1886
1.18901
1.18943
1.18731
1.18721
1.18713
1.18709
1.18709
1.18717
1.18732
1.18758
1.18792
1.1884
1.18871
1.1889
1.18769
1.18758
1.18747
1.1874
1.18735
1.18735
1.1874
1.18754
1.18774
1.18809
1.18834
1.18859
1.18781
1.18784
1.18769
1.18757
1.18743
1.18727
1.18708
1.18687
1.18666
1.18646
1.18628
1.18613
1.18816
1.18787
1.1879
1.18791
1.18789
1.18781
1.18766
1.18749
1.18729
1.1871
1.18691
1.18673
1.18828
1.18811
1.18812
1.18812
1.18811
1.18805
1.18797
1.18784
1.18769
1.18752
1.18735
1.18718
1.18841
1.18833
1.18832
1.1883
1.18827
1.18823
1.18816
1.18807
1.18796
1.18782
1.18767
1.18751
1.186
1.18593
1.1859
1.18592
1.18602
1.18621
1.18651
1.18696
1.18755
1.18838
1.18915
1.19044
1.18659
1.18649
1.18644
1.18644
1.1865
1.18663
1.18686
1.18723
1.18768
1.18832
1.18876
1.18923
1.18704
1.18694
1.18688
1.18685
1.18688
1.18696
1.1871
1.18736
1.18768
1.18815
1.18847
1.18868
1.18738
1.18729
1.18723
1.18719
1.18718
1.1872
1.18726
1.18738
1.18755
1.18785
1.18809
1.18832
1.18815
1.1882
1.18825
1.18828
1.1883
1.1883
1.18829
1.18826
1.18821
1.18816
1.1881
1.18804
1.18817
1.18824
1.1883
1.18835
1.18838
1.1884
1.18839
1.18837
1.18833
1.18829
1.18825
1.18821
1.18818
1.18826
1.18834
1.18839
1.18843
1.18845
1.18845
1.18843
1.1884
1.18837
1.18834
1.18832
1.18819
1.18828
1.18836
1.18842
1.18846
1.18848
1.18847
1.18846
1.18843
1.1884
1.18838
1.18837
1.18798
1.1879
1.18782
1.18776
1.18771
1.18768
1.18769
1.18775
1.18784
1.18804
1.18818
1.18836
1.18819
1.18814
1.1881
1.18807
1.18805
1.18804
1.18806
1.1881
1.18816
1.18823
1.18827
1.1883
1.18835
1.18831
1.18829
1.18828
1.18828
1.18828
1.18829
1.1883
1.18832
1.18833
1.1883
1.18826
1.18847
1.18843
1.18842
1.18842
1.18842
1.18842
1.18842
1.18841
1.18839
1.18835
1.18829
1.18821
1.18836
1.18834
1.18831
1.18827
1.18822
1.18816
1.18808
1.188
1.1879
1.18777
1.18763
1.1875
1.18826
1.18821
1.18815
1.18809
1.18802
1.18794
1.18786
1.18776
1.18765
1.18755
1.18745
1.18733
1.18818
1.1881
1.18803
1.18796
1.18788
1.1878
1.18772
1.18762
1.18753
1.18743
1.18734
1.18724
1.18811
1.18803
1.18795
1.18787
1.1878
1.18772
1.18764
1.18755
1.18747
1.18737
1.18729
1.18719
1.18737
1.1873
1.18726
1.18725
1.18726
1.18729
1.18734
1.18742
1.18754
1.18774
1.18791
1.18811
1.18722
1.18716
1.18715
1.18716
1.18719
1.18725
1.18733
1.18744
1.18758
1.18778
1.18794
1.1881
1.18713
1.18708
1.18708
1.1871
1.18715
1.18722
1.18731
1.18744
1.18759
1.18778
1.18795
1.18809
1.18708
1.18704
1.18704
1.18707
1.18713
1.1872
1.1873
1.18743
1.18758
1.18776
1.18793
1.18808
1.18815
1.1882
1.18825
1.18828
1.1883
1.1883
1.18829
1.18826
1.18821
1.18816
1.1881
1.18804
1.18817
1.18824
1.1883
1.18835
1.18838
1.1884
1.18839
1.18837
1.18833
1.18829
1.18825
1.18821
1.18818
1.18826
1.18834
1.18839
1.18843
1.18845
1.18845
1.18843
1.1884
1.18837
1.18834
1.18832
1.18819
1.18828
1.18836
1.18842
1.18846
1.18847
1.18847
1.18846
1.18843
1.1884
1.18838
1.18837
1.18798
1.1879
1.18782
1.18776
1.18771
1.18768
1.18769
1.18775
1.18784
1.18804
1.18818
1.18836
1.18819
1.18814
1.1881
1.18807
1.18805
1.18804
1.18806
1.1881
1.18816
1.18823
1.18827
1.1883
1.18835
1.18831
1.18829
1.18828
1.18828
1.18828
1.18829
1.1883
1.18832
1.18833
1.1883
1.18826
1.18847
1.18843
1.18842
1.18842
1.18842
1.18842
1.18842
1.18841
1.18838
1.18835
1.18829
1.18821
1.18836
1.18834
1.18831
1.18827
1.18822
1.18816
1.18808
1.188
1.1879
1.18777
1.18763
1.1875
1.18826
1.18821
1.18815
1.18809
1.18802
1.18794
1.18786
1.18776
1.18765
1.18755
1.18745
1.18733
1.18818
1.1881
1.18803
1.18796
1.18788
1.1878
1.18772
1.18762
1.18753
1.18743
1.18734
1.18724
1.18811
1.18803
1.18795
1.18787
1.1878
1.18772
1.18764
1.18755
1.18747
1.18737
1.18729
1.18719
1.18737
1.1873
1.18726
1.18725
1.18726
1.18729
1.18734
1.18742
1.18754
1.18774
1.18791
1.18811
1.18722
1.18716
1.18715
1.18716
1.18719
1.18725
1.18733
1.18744
1.18758
1.18778
1.18794
1.1881
1.18713
1.18708
1.18708
1.1871
1.18715
1.18722
1.18731
1.18744
1.18759
1.18778
1.18795
1.18809
1.18708
1.18704
1.18704
1.18707
1.18713
1.1872
1.1873
1.18743
1.18758
1.18776
1.18793
1.18808
1.18819
1.18829
1.18837
1.18843
1.18847
1.18849
1.18849
1.18847
1.18844
1.1884
1.18836
1.18833
1.18819
1.1883
1.18838
1.18844
1.18848
1.1885
1.18849
1.18847
1.18844
1.1884
1.18835
1.18834
1.1882
1.18831
1.18839
1.18845
1.18849
1.1885
1.18849
1.18847
1.18843
1.18839
1.18834
1.18832
1.1882
1.18831
1.1884
1.18846
1.18849
1.1885
1.18849
1.18846
1.18842
1.18837
1.18832
1.18829
1.1882
1.18832
1.1884
1.18847
1.1885
1.18851
1.18849
1.18846
1.18841
1.18836
1.1883
1.18827
1.1882
1.18832
1.18841
1.18847
1.1885
1.18851
1.18849
1.18845
1.1884
1.18834
1.18828
1.18823
1.18821
1.18833
1.18842
1.18848
1.1885
1.1885
1.18848
1.18844
1.18839
1.18832
1.18826
1.18819
1.18821
1.18833
1.18842
1.18848
1.18851
1.1885
1.18848
1.18843
1.18837
1.1883
1.18823
1.18814
1.18821
1.18834
1.18843
1.18849
1.18851
1.1885
1.18847
1.18842
1.18836
1.18829
1.1882
1.18807
1.18822
1.18835
1.18844
1.18849
1.18852
1.18851
1.18847
1.18842
1.18835
1.18827
1.18816
1.18798
1.18823
1.18836
1.18845
1.1885
1.18852
1.18851
1.18847
1.18841
1.18834
1.18825
1.18812
1.18786
1.18824
1.18837
1.18846
1.18851
1.18853
1.18851
1.18846
1.1884
1.18833
1.18823
1.18806
1.18766
1.18859
1.18853
1.1885
1.1885
1.1885
1.18849
1.18848
1.18845
1.1884
1.18834
1.18826
1.18816
1.18861
1.18858
1.18855
1.18855
1.18854
1.18853
1.1885
1.18845
1.18839
1.18831
1.18822
1.18813
1.18862
1.18859
1.18858
1.18857
1.18855
1.18853
1.18849
1.18844
1.18836
1.18828
1.18819
1.1881
1.18862
1.1886
1.18858
1.18857
1.18855
1.18851
1.18847
1.1884
1.18833
1.18825
1.18816
1.18808
1.18862
1.18859
1.18857
1.18856
1.18853
1.18849
1.18843
1.18837
1.18829
1.18822
1.18814
1.18807
1.18861
1.18857
1.18856
1.18853
1.1885
1.18845
1.18839
1.18832
1.18825
1.18818
1.18812
1.18806
1.18859
1.18856
1.18854
1.18851
1.18846
1.18841
1.18835
1.18828
1.18822
1.18816
1.1881
1.18806
1.18858
1.18853
1.18851
1.18847
1.18843
1.18837
1.1883
1.18824
1.18818
1.18813
1.18809
1.18805
1.18855
1.18851
1.18849
1.18844
1.18839
1.18832
1.18826
1.1882
1.18815
1.18811
1.18808
1.18805
1.18852
1.18848
1.18846
1.18841
1.18835
1.18829
1.18822
1.18817
1.18812
1.18809
1.18807
1.18805
1.18848
1.18845
1.18843
1.18838
1.18832
1.18825
1.18819
1.18813
1.18809
1.18807
1.18805
1.18805
1.18841
1.18839
1.18838
1.18832
1.18826
1.18819
1.18813
1.18808
1.18805
1.18803
1.18803
1.18804
1.18807
1.18798
1.1879
1.18783
1.18775
1.18768
1.1876
1.18752
1.18744
1.18734
1.18725
1.18711
1.18804
1.18795
1.18788
1.18781
1.18774
1.18767
1.18759
1.18752
1.18743
1.18734
1.18724
1.18705
1.18802
1.18794
1.18787
1.18781
1.18774
1.18768
1.18761
1.18753
1.18745
1.18735
1.18726
1.18705
1.18801
1.18794
1.18788
1.18782
1.18776
1.1877
1.18763
1.18756
1.18748
1.18738
1.18729
1.18708
1.18801
1.18795
1.1879
1.18784
1.18779
1.18773
1.18767
1.1876
1.18752
1.18741
1.18733
1.18712
1.18801
1.18796
1.18792
1.18787
1.18782
1.18777
1.18771
1.18764
1.18756
1.18745
1.18737
1.18716
1.18802
1.18798
1.18794
1.1879
1.18786
1.18781
1.18775
1.18768
1.1876
1.18749
1.18741
1.1872
1.18803
1.188
1.18797
1.18794
1.1879
1.18785
1.18779
1.18772
1.18764
1.18754
1.18745
1.18724
1.18803
1.18802
1.18799
1.18797
1.18794
1.18789
1.18784
1.18776
1.18769
1.18758
1.18749
1.18728
1.18804
1.18803
1.18802
1.188
1.18797
1.18793
1.18788
1.18781
1.18773
1.18762
1.18753
1.18733
1.18805
1.18804
1.18804
1.18802
1.188
1.18796
1.18791
1.18784
1.18776
1.18765
1.18756
1.18736
1.18805
1.18806
1.18806
1.18806
1.18804
1.18801
1.18797
1.18791
1.18783
1.18772
1.18763
1.18742
1.18707
1.18701
1.18701
1.18705
1.18711
1.18719
1.18729
1.18742
1.18757
1.18775
1.18792
1.18807
1.187
1.18698
1.18699
1.18703
1.18709
1.18717
1.18728
1.18741
1.18757
1.18774
1.18791
1.18807
1.18695
1.18695
1.18696
1.187
1.18707
1.18716
1.18727
1.1874
1.18756
1.18773
1.1879
1.18806
1.1869
1.18691
1.18693
1.18698
1.18705
1.18715
1.18726
1.18739
1.18755
1.18772
1.1879
1.18806
1.18685
1.18687
1.1869
1.18696
1.18704
1.18713
1.18725
1.18738
1.18754
1.18771
1.18789
1.18806
1.18678
1.18682
1.18686
1.18693
1.18702
1.18712
1.18723
1.18737
1.18753
1.1877
1.18789
1.18806
1.1867
1.18676
1.18682
1.1869
1.187
1.18711
1.18722
1.18736
1.18752
1.1877
1.18788
1.18806
1.1866
1.1867
1.18678
1.18688
1.18698
1.18709
1.18721
1.18734
1.18751
1.18769
1.18788
1.18806
1.18647
1.18663
1.18674
1.18685
1.18696
1.18708
1.1872
1.18733
1.18749
1.18768
1.18787
1.18806
1.18631
1.18655
1.18669
1.18682
1.18695
1.18707
1.18718
1.18732
1.18748
1.18767
1.18787
1.18806
1.18611
1.18647
1.18664
1.18678
1.18693
1.18706
1.18717
1.1873
1.18747
1.18766
1.18787
1.18806
1.18582
1.18637
1.18658
1.18674
1.18691
1.18705
1.18715
1.18728
1.18744
1.18764
1.18786
1.18806
1.18819
1.18829
1.18837
1.18843
1.18847
1.18849
1.18849
1.18847
1.18844
1.1884
1.18836
1.18833
1.18819
1.1883
1.18838
1.18844
1.18848
1.1885
1.18849
1.18847
1.18844
1.1884
1.18835
1.18834
1.1882
1.18831
1.18839
1.18845
1.18849
1.1885
1.18849
1.18847
1.18843
1.18839
1.18834
1.18832
1.1882
1.18831
1.1884
1.18846
1.18849
1.1885
1.18849
1.18846
1.18842
1.18837
1.18832
1.18829
1.1882
1.18832
1.1884
1.18846
1.1885
1.18851
1.18849
1.18846
1.18841
1.18836
1.1883
1.18827
1.1882
1.18832
1.18841
1.18847
1.1885
1.18851
1.18849
1.18845
1.1884
1.18834
1.18828
1.18823
1.18821
1.18833
1.18842
1.18848
1.1885
1.1885
1.18848
1.18844
1.18839
1.18832
1.18826
1.18819
1.18821
1.18833
1.18842
1.18848
1.18851
1.1885
1.18848
1.18843
1.18837
1.1883
1.18823
1.18814
1.18821
1.18834
1.18843
1.18849
1.18851
1.1885
1.18847
1.18842
1.18836
1.18829
1.1882
1.18807
1.18822
1.18835
1.18844
1.18849
1.18852
1.18851
1.18847
1.18842
1.18835
1.18827
1.18816
1.18798
1.18823
1.18836
1.18845
1.1885
1.18852
1.18851
1.18847
1.18841
1.18834
1.18825
1.18812
1.18786
1.18824
1.18837
1.18846
1.18851
1.18853
1.18851
1.18846
1.1884
1.18833
1.18823
1.18806
1.18766
1.18859
1.18853
1.1885
1.1885
1.1885
1.18849
1.18848
1.18845
1.1884
1.18834
1.18826
1.18816
1.18861
1.18858
1.18855
1.18855
1.18854
1.18853
1.1885
1.18845
1.18839
1.18831
1.18822
1.18813
1.18862
1.18859
1.18858
1.18857
1.18855
1.18853
1.18849
1.18844
1.18836
1.18828
1.18819
1.1881
1.18862
1.1886
1.18858
1.18857
1.18855
1.18851
1.18847
1.1884
1.18833
1.18825
1.18816
1.18808
1.18862
1.18859
1.18857
1.18856
1.18853
1.18849
1.18843
1.18837
1.18829
1.18822
1.18814
1.18807
1.18861
1.18857
1.18856
1.18853
1.1885
1.18845
1.18839
1.18832
1.18825
1.18818
1.18812
1.18806
1.18859
1.18856
1.18854
1.18851
1.18846
1.18841
1.18835
1.18828
1.18822
1.18816
1.1881
1.18806
1.18858
1.18853
1.18851
1.18847
1.18843
1.18837
1.1883
1.18824
1.18818
1.18813
1.18809
1.18805
1.18855
1.18851
1.18849
1.18844
1.18839
1.18832
1.18826
1.1882
1.18815
1.18811
1.18808
1.18805
1.18852
1.18848
1.18846
1.18841
1.18835
1.18829
1.18822
1.18817
1.18812
1.18809
1.18807
1.18805
1.18848
1.18845
1.18843
1.18838
1.18832
1.18825
1.18819
1.18813
1.18809
1.18807
1.18805
1.18805
1.18841
1.18839
1.18838
1.18832
1.18826
1.18819
1.18813
1.18808
1.18805
1.18803
1.18803
1.18804
1.18807
1.18798
1.1879
1.18783
1.18775
1.18768
1.1876
1.18752
1.18744
1.18734
1.18725
1.18711
1.18804
1.18795
1.18788
1.18781
1.18774
1.18767
1.18759
1.18752
1.18743
1.18734
1.18724
1.18705
1.18802
1.18794
1.18787
1.18781
1.18774
1.18768
1.18761
1.18753
1.18745
1.18735
1.18726
1.18705
1.18801
1.18794
1.18788
1.18782
1.18776
1.1877
1.18763
1.18756
1.18748
1.18738
1.18729
1.18708
1.18801
1.18795
1.1879
1.18784
1.18779
1.18773
1.18767
1.1876
1.18752
1.18741
1.18733
1.18712
1.18801
1.18796
1.18792
1.18787
1.18782
1.18777
1.18771
1.18764
1.18756
1.18745
1.18737
1.18716
1.18802
1.18798
1.18794
1.1879
1.18786
1.18781
1.18775
1.18768
1.1876
1.18749
1.18741
1.1872
1.18803
1.188
1.18797
1.18794
1.1879
1.18785
1.18779
1.18772
1.18764
1.18754
1.18745
1.18724
1.18803
1.18802
1.18799
1.18797
1.18794
1.18789
1.18784
1.18777
1.18769
1.18758
1.18749
1.18728
1.18804
1.18803
1.18802
1.188
1.18797
1.18793
1.18788
1.18781
1.18773
1.18762
1.18753
1.18733
1.18805
1.18804
1.18804
1.18802
1.188
1.18796
1.18791
1.18784
1.18776
1.18765
1.18756
1.18736
1.18805
1.18806
1.18806
1.18806
1.18804
1.18801
1.18797
1.18791
1.18783
1.18772
1.18763
1.18742
1.18707
1.18701
1.18701
1.18705
1.18711
1.18719
1.18729
1.18742
1.18757
1.18775
1.18792
1.18807
1.187
1.18698
1.18699
1.18703
1.18709
1.18717
1.18728
1.18741
1.18757
1.18774
1.18791
1.18807
1.18695
1.18695
1.18696
1.187
1.18707
1.18716
1.18727
1.1874
1.18756
1.18773
1.1879
1.18806
1.1869
1.18691
1.18693
1.18698
1.18705
1.18715
1.18726
1.18739
1.18755
1.18772
1.1879
1.18806
1.18685
1.18687
1.1869
1.18696
1.18704
1.18713
1.18725
1.18738
1.18754
1.18771
1.18789
1.18806
1.18678
1.18682
1.18686
1.18693
1.18702
1.18712
1.18723
1.18737
1.18753
1.1877
1.18789
1.18806
1.1867
1.18676
1.18682
1.18691
1.187
1.18711
1.18722
1.18736
1.18752
1.1877
1.18788
1.18806
1.1866
1.1867
1.18678
1.18688
1.18698
1.18709
1.18721
1.18734
1.18751
1.18769
1.18788
1.18806
1.18647
1.18663
1.18674
1.18685
1.18696
1.18708
1.1872
1.18733
1.18749
1.18768
1.18787
1.18806
1.18631
1.18655
1.18669
1.18682
1.18695
1.18707
1.18719
1.18732
1.18748
1.18767
1.18787
1.18806
1.18611
1.18647
1.18664
1.18679
1.18693
1.18706
1.18717
1.1873
1.18747
1.18766
1.18787
1.18806
1.18582
1.18637
1.18658
1.18675
1.18691
1.18705
1.18715
1.18728
1.18744
1.18764
1.18786
1.18806
)
;

boundaryField
{
    rotor
    {
        type            calculated;
        value           nonuniform List<scalar> 
192
(
1.16828
1.16807
1.16796
1.1679
1.16792
1.1681
1.16881
1.17003
1.16964
1.1696
1.16974
1.16967
1.16982
1.17001
1.17034
1.17083
1.17141
1.17197
1.17259
1.17306
1.17337
1.17331
1.17308
1.17244
1.16819
1.16801
1.16791
1.16784
1.16787
1.16799
1.16848
1.16986
1.16946
1.16941
1.16956
1.16953
1.16964
1.16981
1.1701
1.17054
1.17107
1.17157
1.17214
1.17256
1.17283
1.17275
1.17251
1.17188
1.16828
1.16807
1.16796
1.1679
1.16792
1.1681
1.16881
1.17003
1.16964
1.1696
1.16974
1.16967
1.16982
1.17001
1.17034
1.17083
1.17141
1.17197
1.17259
1.17306
1.17337
1.17331
1.17308
1.17244
1.16819
1.16801
1.16791
1.16784
1.16787
1.16799
1.16848
1.16986
1.16946
1.16941
1.16956
1.16953
1.16964
1.16981
1.1701
1.17054
1.17107
1.17157
1.17214
1.17256
1.17283
1.17275
1.17251
1.17188
1.16828
1.16988
1.17103
1.17283
1.1745
1.17632
1.17811
1.17985
1.18175
1.18349
1.1849
1.18495
1.17188
1.17305
1.17347
1.17434
1.17581
1.17774
1.18012
1.18289
1.18603
1.18912
1.19194
1.19408
1.16819
1.1698
1.17091
1.17268
1.1743
1.17613
1.17792
1.17968
1.18159
1.1833
1.18471
1.1848
1.17244
1.17356
1.17391
1.17476
1.17622
1.17817
1.1806
1.18342
1.18663
1.18975
1.19256
1.19458
1.16828
1.16988
1.17103
1.17283
1.1745
1.17632
1.17811
1.17985
1.18175
1.18349
1.1849
1.18495
1.17188
1.17305
1.17347
1.17434
1.17581
1.17774
1.18012
1.18289
1.18603
1.18912
1.19194
1.19408
1.16819
1.1698
1.17091
1.17268
1.1743
1.17613
1.17792
1.17968
1.18159
1.1833
1.18471
1.1848
1.17244
1.17356
1.17391
1.17476
1.17622
1.17817
1.1806
1.18342
1.18663
1.18975
1.19256
1.19458
)
;
    }
    stator
    {
        type            calculated;
        value           nonuniform List<scalar> 
192
(
1.18824
1.18837
1.18846
1.18851
1.18853
1.18851
1.18846
1.1884
1.18833
1.18823
1.18806
1.18766
1.18841
1.18839
1.18838
1.18832
1.18826
1.18819
1.18813
1.18808
1.18805
1.18803
1.18803
1.18804
1.18805
1.18806
1.18806
1.18806
1.18804
1.18801
1.18797
1.18791
1.18783
1.18772
1.18763
1.18742
1.18582
1.18637
1.18658
1.18674
1.18691
1.18705
1.18715
1.18728
1.18744
1.18764
1.18786
1.18806
1.18824
1.18837
1.18846
1.18851
1.18853
1.18851
1.18846
1.1884
1.18833
1.18823
1.18806
1.18766
1.18841
1.18839
1.18838
1.18832
1.18826
1.18819
1.18813
1.18808
1.18805
1.18803
1.18803
1.18804
1.18805
1.18806
1.18806
1.18806
1.18804
1.18801
1.18797
1.18791
1.18783
1.18772
1.18763
1.18742
1.18582
1.18637
1.18658
1.18675
1.18691
1.18705
1.18715
1.18728
1.18744
1.18764
1.18786
1.18806
1.18859
1.18861
1.18862
1.18862
1.18862
1.18861
1.18859
1.18858
1.18855
1.18852
1.18848
1.18841
1.18833
1.18834
1.18832
1.18829
1.18827
1.18823
1.18819
1.18814
1.18807
1.18798
1.18786
1.18766
1.18707
1.187
1.18695
1.1869
1.18685
1.18678
1.1867
1.1866
1.18647
1.18631
1.18611
1.18582
1.18711
1.18705
1.18705
1.18708
1.18712
1.18716
1.1872
1.18724
1.18728
1.18733
1.18736
1.18742
1.18859
1.18861
1.18862
1.18862
1.18862
1.18861
1.18859
1.18858
1.18855
1.18852
1.18848
1.18841
1.18833
1.18834
1.18832
1.18829
1.18827
1.18823
1.18819
1.18814
1.18807
1.18798
1.18786
1.18766
1.18707
1.187
1.18695
1.1869
1.18685
1.18678
1.1867
1.1866
1.18647
1.18631
1.18611
1.18582
1.18711
1.18705
1.18705
1.18708
1.18712
1.18716
1.1872
1.18724
1.18728
1.18733
1.18736
1.18742
)
;
    }
    front
    {
        type            empty;
    }
    back
    {
        type            empty;
    }
}


// ************************************************************************* //
