/*--------------------------------*- C++ -*----------------------------------*\
| =========                 |                                                 |
| \\      /  F ield         | OpenFOAM: The Open Source CFD Toolbox           |
|  \\    /   O peration     | Version:  2212                                  |
|   \\  /    A nd           | Website:  www.openfoam.com                      |
|    \\/     M anipulation  |                                                 |
\*---------------------------------------------------------------------------*/
FoamFile
{
    version     2.0;
    format      ascii;
    arch        "LSB;label=32;scalar=64";
    class       volScalarField;
    location    "0.08";
    object      tracer0;
}
// * * * * * * * * * * * * * * * * * * * * * * * * * * * * * * * * * * * * * //

dimensions      [0 0 0 0 0 0 0];

internalField   nonuniform List<scalar> 
3072
(
2.78004e-05
2.77884e-05
2.77546e-05
2.76896e-05
2.76242e-05
2.75792e-05
2.76938e-05
2.8961e-05
3.0042e-05
3.01277e-05
3.01467e-05
3.01615e-05
2.80429e-05
2.80009e-05
2.78617e-05
2.76978e-05
2.77901e-05
2.83797e-05
2.93537e-05
2.97769e-05
2.99265e-05
2.97929e-05
2.9515e-05
2.92047e-05
2.81476e-05
2.80856e-05
2.78561e-05
2.80075e-05
2.87331e-05
2.93539e-05
2.95632e-05
2.96187e-05
2.93292e-05
2.85125e-05
2.73895e-05
2.60538e-05
2.82559e-05
2.83103e-05
2.83048e-05
2.87594e-05
2.92038e-05
2.93472e-05
2.93699e-05
2.88617e-05
2.73764e-05
2.50919e-05
2.3125e-05
2.15823e-05
2.83195e-05
2.86046e-05
2.8735e-05
2.90633e-05
2.91878e-05
2.92064e-05
2.87547e-05
2.71248e-05
2.46035e-05
2.21679e-05
2.02288e-05
1.86641e-05
2.83523e-05
2.87219e-05
2.88931e-05
2.90583e-05
2.91049e-05
2.88631e-05
2.763e-05
2.5182e-05
2.23886e-05
2.00594e-05
1.82629e-05
1.69119e-05
2.83591e-05
2.8742e-05
2.89184e-05
2.90023e-05
2.89082e-05
2.82239e-05
2.64402e-05
2.40151e-05
2.15661e-05
1.9557e-05
1.79758e-05
1.67606e-05
2.84156e-05
2.87677e-05
2.88694e-05
2.89104e-05
2.86656e-05
2.78465e-05
2.63364e-05
2.41375e-05
2.1848e-05
1.99347e-05
1.84157e-05
1.72334e-05
3.05158e-05
3.0537e-05
2.88749e-05
2.87224e-05
2.85094e-05
2.78925e-05
2.66108e-05
2.47863e-05
2.28234e-05
2.10957e-05
1.97074e-05
1.85861e-05
3.39523e-05
3.26473e-05
3.06894e-05
2.88047e-05
2.85576e-05
2.81423e-05
2.72842e-05
2.61854e-05
2.49701e-05
2.36404e-05
2.26185e-05
2.15958e-05
3.58797e-05
3.7192e-05
3.6404e-05
3.16634e-05
2.9948e-05
2.92308e-05
2.8692e-05
2.79962e-05
2.72568e-05
2.64237e-05
2.56828e-05
2.50931e-05
3.97634e-05
4.04897e-05
4.22357e-05
4.12211e-05
3.90944e-05
3.72373e-05
3.57878e-05
3.46704e-05
3.37539e-05
3.303e-05
3.24053e-05
3.19409e-05
3.01786e-05
3.0197e-05
3.02176e-05
3.02493e-05
3.02911e-05
3.0348e-05
3.0423e-05
3.05002e-05
3.05716e-05
3.06134e-05
3.06341e-05
3.06307e-05
2.88718e-05
2.86256e-05
2.84922e-05
2.85095e-05
2.86672e-05
2.89507e-05
2.93498e-05
2.98186e-05
3.02677e-05
3.05516e-05
3.06946e-05
3.07511e-05
2.50748e-05
2.43276e-05
2.39973e-05
2.39754e-05
2.42874e-05
2.4982e-05
2.59959e-05
2.73576e-05
2.88711e-05
3.00308e-05
3.05832e-05
3.07928e-05
2.03281e-05
1.95467e-05
1.91248e-05
1.91007e-05
1.94386e-05
2.02369e-05
2.15783e-05
2.35579e-05
2.62187e-05
2.89589e-05
3.03192e-05
3.08254e-05
1.75678e-05
1.6922e-05
1.66509e-05
1.66352e-05
1.70682e-05
1.78488e-05
1.91345e-05
2.09934e-05
2.3747e-05
2.74446e-05
2.99734e-05
3.08621e-05
1.60656e-05
1.56015e-05
1.54304e-05
1.54364e-05
1.58863e-05
1.66866e-05
1.79749e-05
1.98002e-05
2.25654e-05
2.6529e-05
2.97351e-05
3.0899e-05
1.59448e-05
1.54115e-05
1.5043e-05
1.51048e-05
1.54964e-05
1.62892e-05
1.7571e-05
1.93685e-05
2.21025e-05
2.61214e-05
2.95812e-05
3.0937e-05
1.64222e-05
1.58952e-05
1.56365e-05
1.5766e-05
1.61014e-05
1.67451e-05
1.79343e-05
1.95815e-05
2.2133e-05
2.60882e-05
2.95604e-05
3.09756e-05
1.78511e-05
1.72899e-05
1.72242e-05
1.74579e-05
1.79005e-05
1.86592e-05
1.99308e-05
2.15923e-05
2.42632e-05
2.76482e-05
3.01628e-05
3.10575e-05
2.10482e-05
2.05088e-05
2.05279e-05
2.08327e-05
2.13135e-05
2.20647e-05
2.3163e-05
2.46529e-05
2.70103e-05
2.92416e-05
3.065e-05
3.11513e-05
2.46403e-05
2.45089e-05
2.47434e-05
2.52324e-05
2.59022e-05
2.67932e-05
2.78884e-05
2.93807e-05
3.04062e-05
3.09749e-05
3.12425e-05
3.1246e-05
3.1601e-05
3.14113e-05
3.14382e-05
3.15366e-05
3.16499e-05
3.17276e-05
3.17622e-05
3.16839e-05
3.1621e-05
3.14943e-05
3.13962e-05
3.1276e-05
2.21292e-05
2.21234e-05
2.21125e-05
2.20851e-05
2.2056e-05
2.20324e-05
2.207e-05
2.25115e-05
2.33254e-05
2.34064e-05
2.34207e-05
2.34318e-05
2.22442e-05
2.22335e-05
2.21817e-05
2.20981e-05
2.21065e-05
2.23424e-05
2.2889e-05
2.31396e-05
2.32472e-05
2.31541e-05
2.29064e-05
2.26335e-05
2.22937e-05
2.22828e-05
2.21811e-05
2.22109e-05
2.25166e-05
2.28709e-05
2.2988e-05
2.30186e-05
2.27851e-05
2.21114e-05
2.10831e-05
2.03626e-05
2.2339e-05
2.23797e-05
2.23722e-05
2.2539e-05
2.27768e-05
2.2852e-05
2.28477e-05
2.24632e-05
2.13458e-05
1.99235e-05
1.89845e-05
1.81225e-05
2.23637e-05
2.24959e-05
2.25531e-05
2.26962e-05
2.27551e-05
2.27415e-05
2.24028e-05
2.12898e-05
1.98098e-05
1.85115e-05
1.75677e-05
1.66733e-05
2.23777e-05
2.25462e-05
2.26231e-05
2.26803e-05
2.2688e-05
2.24864e-05
2.16679e-05
2.01752e-05
1.86535e-05
1.74548e-05
1.65294e-05
1.57452e-05
2.23844e-05
2.25463e-05
2.26119e-05
2.26348e-05
2.25403e-05
2.20598e-05
2.09439e-05
1.9516e-05
1.8232e-05
1.72109e-05
1.63955e-05
1.57014e-05
2.23884e-05
2.25323e-05
2.2572e-05
2.25439e-05
2.23484e-05
2.17811e-05
2.08443e-05
1.95775e-05
1.83755e-05
1.74027e-05
1.66285e-05
1.59652e-05
2.23801e-05
2.2494e-05
2.25086e-05
2.2451e-05
2.22383e-05
2.1803e-05
2.10026e-05
1.99349e-05
1.88889e-05
1.80005e-05
1.73013e-05
1.67031e-05
2.23694e-05
2.24451e-05
2.24406e-05
2.23748e-05
2.22483e-05
2.19682e-05
2.14867e-05
2.08305e-05
2.01057e-05
1.93818e-05
1.88038e-05
1.8282e-05
2.23321e-05
2.23742e-05
2.23796e-05
2.23682e-05
2.23201e-05
2.21934e-05
2.20242e-05
2.17199e-05
2.14375e-05
2.10445e-05
2.07543e-05
2.04175e-05
2.25942e-05
2.26713e-05
2.27606e-05
2.28099e-05
2.2834e-05
2.28117e-05
2.27971e-05
2.26964e-05
2.25886e-05
2.24381e-05
2.22987e-05
2.21842e-05
2.34437e-05
2.34572e-05
2.34729e-05
2.34957e-05
2.35307e-05
2.35811e-05
2.36536e-05
2.37386e-05
2.38296e-05
2.39029e-05
2.39391e-05
2.39498e-05
2.23111e-05
2.20685e-05
2.19138e-05
2.19075e-05
2.19969e-05
2.21887e-05
2.2474e-05
2.2861e-05
2.32952e-05
2.37281e-05
2.3955e-05
2.40374e-05
1.9621e-05
1.93042e-05
1.90325e-05
1.90194e-05
1.91268e-05
1.94742e-05
1.99796e-05
2.07544e-05
2.17069e-05
2.28633e-05
2.37445e-05
2.40685e-05
1.74908e-05
1.71081e-05
1.68735e-05
1.68525e-05
1.69858e-05
1.73798e-05
1.79715e-05
1.88603e-05
2.00495e-05
2.15164e-05
2.3316e-05
2.41011e-05
1.61206e-05
1.57256e-05
1.55631e-05
1.5542e-05
1.57283e-05
1.61358e-05
1.67979e-05
1.7752e-05
1.90981e-05
2.06171e-05
2.27209e-05
2.41386e-05
1.53095e-05
1.50165e-05
1.49077e-05
1.48977e-05
1.51037e-05
1.55113e-05
1.61755e-05
1.70922e-05
1.85269e-05
2.01327e-05
2.22932e-05
2.41832e-05
1.52692e-05
1.49612e-05
1.47456e-05
1.4731e-05
1.49004e-05
1.52979e-05
1.59618e-05
1.68606e-05
1.83094e-05
1.99245e-05
2.20747e-05
2.42261e-05
1.5524e-05
1.52321e-05
1.50484e-05
1.50995e-05
1.52511e-05
1.55619e-05
1.6148e-05
1.69407e-05
1.83268e-05
1.99035e-05
2.20131e-05
2.4271e-05
1.62816e-05
1.59902e-05
1.58908e-05
1.5995e-05
1.61978e-05
1.65581e-05
1.71588e-05
1.7987e-05
1.93146e-05
2.05698e-05
2.23457e-05
2.43692e-05
1.79616e-05
1.7671e-05
1.76433e-05
1.7777e-05
1.80024e-05
1.83457e-05
1.88338e-05
1.95219e-05
2.04721e-05
2.13701e-05
2.29239e-05
2.45785e-05
2.02377e-05
2.00473e-05
2.00537e-05
2.01726e-05
2.03876e-05
2.06783e-05
2.1071e-05
2.15752e-05
2.2236e-05
2.30401e-05
2.41726e-05
2.4919e-05
2.21013e-05
2.21351e-05
2.22834e-05
2.25397e-05
2.28492e-05
2.32257e-05
2.36562e-05
2.41132e-05
2.46669e-05
2.50003e-05
2.52993e-05
2.52525e-05
2.00355e-05
2.00402e-05
2.00499e-05
2.00657e-05
2.00731e-05
2.00858e-05
2.008e-05
1.99752e-05
1.99119e-05
1.99166e-05
1.99242e-05
1.99322e-05
2.00091e-05
2.00343e-05
2.00708e-05
2.00959e-05
2.00835e-05
2.00468e-05
1.99751e-05
1.98408e-05
1.97287e-05
1.9535e-05
1.92251e-05
1.88598e-05
1.99991e-05
2.00517e-05
2.00965e-05
2.00792e-05
2.00294e-05
1.99265e-05
1.97464e-05
1.9455e-05
1.89839e-05
1.8063e-05
1.68468e-05
1.59912e-05
1.99867e-05
2.00542e-05
2.00636e-05
2.0016e-05
1.99028e-05
1.96762e-05
1.92439e-05
1.83942e-05
1.70329e-05
1.53833e-05
1.43196e-05
1.32991e-05
1.99405e-05
1.9988e-05
1.99922e-05
1.98726e-05
1.96142e-05
1.91076e-05
1.82273e-05
1.69031e-05
1.5196e-05
1.36599e-05
1.25776e-05
1.15225e-05
1.99033e-05
1.99153e-05
1.98545e-05
1.96226e-05
1.92225e-05
1.85121e-05
1.73056e-05
1.55984e-05
1.38154e-05
1.23961e-05
1.13349e-05
1.04123e-05
1.98659e-05
1.98109e-05
1.96606e-05
1.93636e-05
1.8849e-05
1.7883e-05
1.64609e-05
1.48743e-05
1.33246e-05
1.21003e-05
1.11545e-05
1.03303e-05
1.97913e-05
1.96813e-05
1.95082e-05
1.91314e-05
1.85019e-05
1.75985e-05
1.64231e-05
1.49637e-05
1.35091e-05
1.23332e-05
1.14301e-05
1.06412e-05
1.97607e-05
1.9605e-05
1.93256e-05
1.89172e-05
1.84322e-05
1.76638e-05
1.66372e-05
1.54078e-05
1.41448e-05
1.30552e-05
1.22319e-05
1.1512e-05
1.96894e-05
1.94536e-05
1.92168e-05
1.89207e-05
1.85229e-05
1.79414e-05
1.72322e-05
1.64229e-05
1.55801e-05
1.46773e-05
1.39989e-05
1.3364e-05
1.96804e-05
1.94708e-05
1.92854e-05
1.90664e-05
1.88363e-05
1.85007e-05
1.81564e-05
1.76996e-05
1.72803e-05
1.67855e-05
1.63827e-05
1.60017e-05
1.99143e-05
1.98285e-05
1.98346e-05
1.97679e-05
1.96926e-05
1.95475e-05
1.93799e-05
1.9135e-05
1.88917e-05
1.86318e-05
1.84017e-05
1.82323e-05
1.99414e-05
1.9953e-05
1.99677e-05
1.999e-05
2.00324e-05
2.00908e-05
2.01788e-05
2.02771e-05
2.03882e-05
2.04749e-05
2.05203e-05
2.05375e-05
1.84738e-05
1.81761e-05
1.80254e-05
1.80194e-05
1.81396e-05
1.8371e-05
1.87213e-05
1.91785e-05
1.97033e-05
2.02195e-05
2.04963e-05
2.05972e-05
1.51815e-05
1.48275e-05
1.4536e-05
1.45386e-05
1.46954e-05
1.51223e-05
1.57482e-05
1.66663e-05
1.78078e-05
1.91566e-05
2.02224e-05
2.06181e-05
1.26091e-05
1.21536e-05
1.19115e-05
1.19015e-05
1.21154e-05
1.2594e-05
1.33587e-05
1.4427e-05
1.58658e-05
1.7581e-05
1.96948e-05
2.06487e-05
1.09154e-05
1.04503e-05
1.02882e-05
1.02772e-05
1.05576e-05
1.10631e-05
1.18903e-05
1.30832e-05
1.47303e-05
1.65567e-05
1.89609e-05
2.0684e-05
9.93211e-06
9.5958e-06
9.48382e-06
9.48765e-06
9.78451e-06
1.03086e-05
1.11425e-05
1.22841e-05
1.40454e-05
1.60002e-05
1.84785e-05
2.07306e-05
9.84237e-06
9.47722e-06
9.22793e-06
9.26827e-06
9.52728e-06
1.00485e-05
1.08839e-05
1.20063e-05
1.3786e-05
1.57655e-05
1.82301e-05
2.07721e-05
1.01424e-05
9.79686e-06
9.62414e-06
9.70813e-06
9.92545e-06
1.03405e-05
1.11123e-05
1.21225e-05
1.38311e-05
1.57476e-05
1.81664e-05
2.08185e-05
1.10487e-05
1.06912e-05
1.06509e-05
1.08001e-05
1.1083e-05
1.15658e-05
1.23687e-05
1.34124e-05
1.50379e-05
1.65728e-05
1.85713e-05
2.09384e-05
1.3005e-05
1.26912e-05
1.27211e-05
1.2925e-05
1.32352e-05
1.37003e-05
1.43704e-05
1.5229e-05
1.64245e-05
1.7494e-05
1.92308e-05
2.11807e-05
1.57565e-05
1.55933e-05
1.56482e-05
1.58455e-05
1.61312e-05
1.65195e-05
1.70286e-05
1.76646e-05
1.85302e-05
1.93994e-05
2.06833e-05
2.15981e-05
1.81371e-05
1.81878e-05
1.83559e-05
1.86399e-05
1.89866e-05
1.94165e-05
1.99245e-05
2.04862e-05
2.11593e-05
2.16417e-05
2.20851e-05
2.20194e-05
2.92474e-05
2.92363e-05
2.92089e-05
2.91438e-05
2.90819e-05
2.90238e-05
2.90991e-05
3.00119e-05
3.16775e-05
3.18275e-05
3.18499e-05
3.18676e-05
2.94983e-05
2.94673e-05
2.93425e-05
2.9157e-05
2.91693e-05
2.96305e-05
3.07993e-05
3.13283e-05
3.15481e-05
3.13955e-05
3.09607e-05
3.04892e-05
2.96064e-05
2.95651e-05
2.93252e-05
2.93892e-05
3.00337e-05
3.0812e-05
3.10671e-05
3.11346e-05
3.07622e-05
2.9587e-05
2.7799e-05
2.62883e-05
2.97084e-05
2.97647e-05
2.97325e-05
3.00931e-05
3.06315e-05
3.08062e-05
3.08317e-05
3.01826e-05
2.82358e-05
2.54349e-05
2.33833e-05
2.16484e-05
2.97713e-05
3.004e-05
3.01506e-05
3.04777e-05
3.06174e-05
3.06389e-05
3.00814e-05
2.80738e-05
2.5163e-05
2.24683e-05
2.04896e-05
1.87273e-05
2.98043e-05
3.01581e-05
3.03181e-05
3.04747e-05
3.05214e-05
3.02231e-05
2.87351e-05
2.5908e-05
2.28108e-05
2.03276e-05
1.84551e-05
1.69186e-05
2.98216e-05
3.01837e-05
3.03391e-05
3.04138e-05
3.02915e-05
2.94582e-05
2.73665e-05
2.46022e-05
2.19594e-05
1.98535e-05
1.82128e-05
1.68488e-05
2.98387e-05
3.01771e-05
3.0288e-05
3.02887e-05
2.99628e-05
2.89475e-05
2.71794e-05
2.47248e-05
2.22575e-05
2.02503e-05
1.86834e-05
1.73736e-05
2.9835e-05
3.01296e-05
3.01774e-05
3.0113e-05
2.976e-05
2.89884e-05
2.74802e-05
2.543e-05
2.33054e-05
2.14745e-05
2.00395e-05
1.88416e-05
2.98229e-05
3.00441e-05
3.00724e-05
3.0006e-05
2.97841e-05
2.9308e-05
2.84006e-05
2.71408e-05
2.57087e-05
2.42267e-05
2.30212e-05
2.19458e-05
2.97708e-05
2.99191e-05
2.99054e-05
2.98607e-05
2.97754e-05
2.96284e-05
2.94002e-05
2.8973e-05
2.85108e-05
2.78353e-05
2.72545e-05
2.66201e-05
2.93999e-05
2.9368e-05
2.92572e-05
2.91835e-05
2.91523e-05
2.91231e-05
2.9066e-05
2.89421e-05
2.87994e-05
2.86615e-05
2.85177e-05
2.83535e-05
3.1886e-05
3.19074e-05
3.19325e-05
3.1969e-05
3.20284e-05
3.21128e-05
3.22336e-05
3.23703e-05
3.2508e-05
3.26067e-05
3.26553e-05
3.2669e-05
2.99303e-05
2.95136e-05
2.92343e-05
2.92228e-05
2.93919e-05
2.97555e-05
3.0285e-05
3.09914e-05
3.17405e-05
3.23776e-05
3.26816e-05
3.27945e-05
2.48875e-05
2.41374e-05
2.36168e-05
2.35927e-05
2.38134e-05
2.4531e-05
2.55653e-05
2.71483e-05
2.90443e-05
3.12336e-05
3.23953e-05
3.28388e-05
2.03018e-05
1.94938e-05
1.90019e-05
1.895e-05
1.91887e-05
1.99918e-05
2.11905e-05
2.3041e-05
2.55176e-05
2.89134e-05
3.18074e-05
3.28842e-05
1.75823e-05
1.6832e-05
1.65053e-05
1.64622e-05
1.68129e-05
1.76172e-05
1.89391e-05
2.08545e-05
2.32803e-05
2.68281e-05
3.10188e-05
3.29367e-05
1.60334e-05
1.5471e-05
1.52547e-05
1.52317e-05
1.56104e-05
1.63724e-05
1.7621e-05
1.96837e-05
2.2173e-05
2.57883e-05
3.03419e-05
3.29974e-05
1.59811e-05
1.5379e-05
1.49592e-05
1.49235e-05
1.52366e-05
1.5976e-05
1.71719e-05
1.92464e-05
2.17377e-05
2.53351e-05
2.99825e-05
3.30598e-05
1.64898e-05
1.59147e-05
1.55439e-05
1.56369e-05
1.59191e-05
1.65067e-05
1.75296e-05
1.95009e-05
2.17546e-05
2.52886e-05
2.9872e-05
3.31229e-05
1.79855e-05
1.74118e-05
1.71826e-05
1.73772e-05
1.7763e-05
1.84675e-05
1.96076e-05
2.16643e-05
2.36537e-05
2.6767e-05
3.02327e-05
3.31944e-05
2.12625e-05
2.06765e-05
2.05927e-05
2.088e-05
2.13669e-05
2.21247e-05
2.31701e-05
2.48128e-05
2.55975e-05
2.76936e-05
2.90538e-05
3.19667e-05
2.6198e-05
2.58162e-05
2.56989e-05
2.58071e-05
2.60125e-05
2.6232e-05
2.64104e-05
2.65362e-05
2.6484e-05
2.73732e-05
2.85449e-05
3.14102e-05
2.81723e-05
2.80382e-05
2.7894e-05
2.77446e-05
2.75516e-05
2.73561e-05
2.71099e-05
2.68676e-05
2.64496e-05
2.70034e-05
2.7729e-05
3.04355e-05
2.89029e-05
3.01948e-05
3.27572e-05
3.33889e-05
3.385e-05
3.43153e-05
3.44771e-05
3.43993e-05
3.42572e-05
3.40994e-05
3.39537e-05
3.38157e-05
2.49763e-05
2.54535e-05
2.72996e-05
2.75232e-05
2.78465e-05
2.80596e-05
2.84185e-05
2.87456e-05
2.91138e-05
2.93227e-05
2.95185e-05
2.95089e-05
2.0171e-05
2.17596e-05
2.20574e-05
2.2303e-05
2.25518e-05
2.27675e-05
2.29846e-05
2.31712e-05
2.33446e-05
2.34681e-05
2.35472e-05
2.35125e-05
1.66242e-05
1.68172e-05
1.69881e-05
1.71858e-05
1.73543e-05
1.75546e-05
1.77183e-05
1.79045e-05
1.80268e-05
1.81385e-05
1.81115e-05
1.79765e-05
3.36766e-05
3.35146e-05
3.33126e-05
3.30648e-05
3.27708e-05
3.2431e-05
3.20581e-05
3.16536e-05
3.12461e-05
3.08495e-05
3.05468e-05
3.07342e-05
2.93963e-05
2.91943e-05
2.89026e-05
2.85259e-05
2.80747e-05
2.75707e-05
2.70483e-05
2.65222e-05
2.60438e-05
2.57383e-05
2.54688e-05
2.61928e-05
2.33906e-05
2.31759e-05
2.28733e-05
2.24968e-05
2.20697e-05
2.16205e-05
2.11657e-05
2.07403e-05
2.0418e-05
2.02839e-05
2.01028e-05
2.05639e-05
1.77125e-05
1.73479e-05
1.69403e-05
1.65426e-05
1.62138e-05
1.5937e-05
1.5735e-05
1.56207e-05
1.55582e-05
1.55946e-05
1.55581e-05
1.58108e-05
3.04583e-05
2.96796e-05
2.93445e-05
2.9029e-05
2.867e-05
2.8273e-05
2.78636e-05
2.74891e-05
2.71438e-05
2.68561e-05
2.66183e-05
2.64382e-05
2.70035e-05
2.73816e-05
2.75619e-05
2.76593e-05
2.76792e-05
2.7652e-05
2.75938e-05
2.75134e-05
2.7427e-05
2.7339e-05
2.72513e-05
2.71574e-05
2.10389e-05
2.14953e-05
2.18948e-05
2.22427e-05
2.25267e-05
2.27833e-05
2.29908e-05
2.31752e-05
2.32983e-05
2.33743e-05
2.33459e-05
2.32556e-05
1.60819e-05
1.64017e-05
1.6653e-05
1.69357e-05
1.7132e-05
1.73537e-05
1.7478e-05
1.76146e-05
1.76276e-05
1.7555e-05
1.73856e-05
1.71309e-05
2.63156e-05
2.6242e-05
2.62134e-05
2.61726e-05
2.61586e-05
2.60911e-05
2.60419e-05
2.59564e-05
2.58918e-05
2.579e-05
2.57349e-05
2.56653e-05
2.70437e-05
2.69055e-05
2.67404e-05
2.65528e-05
2.63387e-05
2.60959e-05
2.58209e-05
2.55227e-05
2.52216e-05
2.49751e-05
2.47849e-05
2.49433e-05
2.31132e-05
2.29142e-05
2.26546e-05
2.23357e-05
2.19659e-05
2.15142e-05
2.10007e-05
2.05012e-05
2.00894e-05
1.98718e-05
1.96331e-05
2.0074e-05
1.68209e-05
1.64835e-05
1.61326e-05
1.58117e-05
1.55279e-05
1.53323e-05
1.52368e-05
1.52067e-05
1.51893e-05
1.52408e-05
1.52012e-05
1.53588e-05
2.54625e-05
2.49574e-05
2.47083e-05
2.44447e-05
2.41371e-05
2.3807e-05
2.34684e-05
2.3154e-05
2.28613e-05
2.26197e-05
2.24237e-05
2.22824e-05
2.49801e-05
2.49204e-05
2.48504e-05
2.47778e-05
2.47004e-05
2.46169e-05
2.45395e-05
2.44631e-05
2.43799e-05
2.42891e-05
2.41961e-05
2.41231e-05
2.05181e-05
2.09161e-05
2.12512e-05
2.15328e-05
2.17663e-05
2.19729e-05
2.21353e-05
2.22592e-05
2.23435e-05
2.23856e-05
2.23607e-05
2.22846e-05
1.55293e-05
1.57371e-05
1.59107e-05
1.61212e-05
1.6292e-05
1.65022e-05
1.66694e-05
1.68775e-05
1.70057e-05
1.7139e-05
1.71193e-05
1.69943e-05
2.21941e-05
2.2226e-05
2.23158e-05
2.2438e-05
2.25628e-05
2.26655e-05
2.27295e-05
2.27495e-05
2.27545e-05
2.26953e-05
2.26897e-05
2.25565e-05
2.40503e-05
2.39621e-05
2.38546e-05
2.37277e-05
2.35792e-05
2.33955e-05
2.32212e-05
2.30016e-05
2.28384e-05
2.26654e-05
2.25991e-05
2.25501e-05
2.21534e-05
2.19621e-05
2.17118e-05
2.14097e-05
2.107e-05
2.07112e-05
2.03231e-05
1.99542e-05
1.96683e-05
1.95429e-05
1.93653e-05
1.97779e-05
1.67491e-05
1.6412e-05
1.60351e-05
1.56663e-05
1.53598e-05
1.5098e-05
1.49212e-05
1.48234e-05
1.47682e-05
1.48093e-05
1.47822e-05
1.50136e-05
2.27346e-05
2.33426e-05
2.35579e-05
2.37853e-05
2.40176e-05
2.43369e-05
2.46443e-05
2.49986e-05
2.52846e-05
2.5548e-05
2.56978e-05
2.58223e-05
2.25169e-05
2.257e-05
2.26325e-05
2.26817e-05
2.27315e-05
2.27727e-05
2.28306e-05
2.28792e-05
2.29451e-05
2.29857e-05
2.30318e-05
2.30288e-05
2.01976e-05
2.04369e-05
2.06038e-05
2.07235e-05
2.0814e-05
2.08854e-05
2.09389e-05
2.09788e-05
2.09982e-05
2.09823e-05
2.09373e-05
2.08582e-05
1.5296e-05
1.5598e-05
1.58597e-05
1.61107e-05
1.63051e-05
1.64856e-05
1.66044e-05
1.66958e-05
1.66809e-05
1.6604e-05
1.64489e-05
1.62272e-05
2.58146e-05
2.57451e-05
2.56282e-05
2.54629e-05
2.52505e-05
2.5009e-05
2.47397e-05
2.44416e-05
2.40599e-05
2.45087e-05
2.4957e-05
2.64819e-05
2.29945e-05
2.29245e-05
2.28156e-05
2.26661e-05
2.24777e-05
2.22519e-05
2.19987e-05
2.17359e-05
2.1486e-05
2.16767e-05
2.25813e-05
2.31691e-05
2.07438e-05
2.05906e-05
2.03958e-05
2.01604e-05
1.98851e-05
1.95223e-05
1.91385e-05
1.87654e-05
1.84394e-05
1.81981e-05
1.84136e-05
1.974e-05
1.59774e-05
1.57247e-05
1.54719e-05
1.5237e-05
1.50523e-05
1.49806e-05
1.49628e-05
1.50104e-05
1.50319e-05
1.50922e-05
1.50427e-05
1.53978e-05
1.61699e-05
1.60173e-05
1.57037e-05
1.52326e-05
1.45811e-05
1.37507e-05
1.2736e-05
1.16254e-05
1.0483e-05
9.49103e-06
8.7685e-06
8.52568e-06
1.493e-05
1.42779e-05
1.3495e-05
1.25208e-05
1.13699e-05
1.0086e-05
8.75564e-06
7.51414e-06
6.47571e-06
5.76924e-06
5.42967e-06
5.48119e-06
1.3321e-05
1.25116e-05
1.14441e-05
1.02551e-05
8.93522e-06
7.58156e-06
6.29374e-06
5.18922e-06
4.33965e-06
3.8036e-06
3.63492e-06
3.75182e-06
1.18919e-05
1.0977e-05
9.78175e-06
8.54518e-06
7.21682e-06
5.92513e-06
4.74084e-06
3.74558e-06
2.96287e-06
2.4172e-06
2.22957e-06
2.33823e-06
8.56235e-06
8.97305e-06
9.6777e-06
1.05209e-05
1.15189e-05
1.25311e-05
1.32636e-05
1.37707e-05
1.40993e-05
1.42753e-05
1.42511e-05
1.40012e-05
5.88984e-06
6.63734e-06
7.43601e-06
8.3617e-06
9.21194e-06
9.89467e-06
1.04419e-05
1.08497e-05
1.10912e-05
1.10116e-05
1.0281e-05
9.25978e-06
4.32412e-06
4.95129e-06
5.59315e-06
6.20392e-06
6.68549e-06
7.06079e-06
7.3518e-06
7.46883e-06
7.25736e-06
6.65259e-06
5.74639e-06
4.69217e-06
3.38271e-06
3.99592e-06
4.43335e-06
4.73785e-06
4.94837e-06
5.07489e-06
5.05255e-06
4.73084e-06
4.26118e-06
3.55841e-06
2.78083e-06
2.01075e-06
1.33007e-05
1.23919e-05
1.15131e-05
1.04891e-05
9.54536e-06
8.52982e-06
7.60339e-06
6.72082e-06
6.01796e-06
5.59397e-06
5.53465e-06
5.64447e-06
7.6652e-06
6.71226e-06
5.39142e-06
4.54879e-06
3.56207e-06
2.92295e-06
2.25167e-06
1.87854e-06
1.5829e-06
1.58684e-06
1.65799e-06
2.00265e-06
3.50184e-06
2.78922e-06
1.91023e-06
1.52272e-06
9.5914e-07
7.84177e-07
4.78658e-07
4.4923e-07
3.42604e-07
3.63436e-07
4.27938e-07
6.39116e-07
1.3347e-06
9.51116e-07
5.47203e-07
4.2528e-07
2.21816e-07
1.84544e-07
1.10621e-07
1.03416e-07
7.15194e-08
7.43088e-08
9.0129e-08
1.67547e-07
6.09317e-06
6.97872e-06
8.11842e-06
9.73875e-06
1.15467e-05
1.29101e-05
1.38456e-05
1.44289e-05
1.4775e-05
1.49673e-05
1.50715e-05
1.51347e-05
2.50267e-06
3.24356e-06
4.62556e-06
6.46383e-06
8.70167e-06
1.0895e-05
1.25024e-05
1.34699e-05
1.40519e-05
1.43662e-05
1.45098e-05
1.44759e-05
1.00773e-06
1.43269e-06
2.3167e-06
3.74347e-06
5.91349e-06
8.47708e-06
1.07617e-05
1.21517e-05
1.29532e-05
1.3362e-05
1.35247e-05
1.32942e-05
4.32181e-07
6.77556e-07
1.27794e-06
2.41126e-06
4.16946e-06
6.53412e-06
9.02253e-06
1.07853e-05
1.17606e-05
1.22536e-05
1.24376e-05
1.20769e-05
1.51467e-05
1.50399e-05
1.47728e-05
1.43522e-05
1.37671e-05
1.30121e-05
1.20852e-05
1.10668e-05
1.00125e-05
9.10119e-06
8.43515e-06
8.22293e-06
1.40407e-05
1.34606e-05
1.2727e-05
1.18517e-05
1.07863e-05
9.60733e-06
8.37333e-06
7.22207e-06
6.25507e-06
5.60038e-06
5.28993e-06
5.35385e-06
1.25673e-05
1.18021e-05
1.08267e-05
9.73725e-06
8.5085e-06
7.25672e-06
6.04966e-06
5.01488e-06
4.21123e-06
3.70452e-06
3.54962e-06
3.66924e-06
1.12239e-05
1.03627e-05
9.27351e-06
8.12765e-06
6.88814e-06
5.6852e-06
4.5662e-06
3.62406e-06
2.8734e-06
2.3494e-06
2.17082e-06
2.27977e-06
8.26555e-06
8.68473e-06
9.35941e-06
1.01568e-05
1.10942e-05
1.20329e-05
1.27053e-05
1.31703e-05
1.34708e-05
1.36363e-05
1.36312e-05
1.34183e-05
5.7588e-06
6.48572e-06
7.26052e-06
8.15246e-06
8.96527e-06
9.61524e-06
1.01341e-05
1.05185e-05
1.07518e-05
1.06978e-05
1.00257e-05
9.0865e-06
4.23734e-06
4.85616e-06
5.48336e-06
6.08573e-06
6.55733e-06
6.92387e-06
7.20609e-06
7.32392e-06
7.13537e-06
6.5623e-06
5.70467e-06
4.69367e-06
3.31383e-06
3.92882e-06
4.36422e-06
4.66785e-06
4.87725e-06
5.00727e-06
4.99772e-06
4.68892e-06
4.24201e-06
3.56116e-06
2.80727e-06
2.04906e-06
1.28185e-05
1.20163e-05
1.12071e-05
1.02891e-05
9.43081e-06
8.52177e-06
7.69757e-06
6.91151e-06
6.24012e-06
5.90287e-06
5.90865e-06
6.0717e-06
7.5881e-06
6.65673e-06
5.43948e-06
4.62107e-06
3.69856e-06
3.0764e-06
2.44127e-06
2.07435e-06
1.79838e-06
1.81716e-06
1.95725e-06
2.36392e-06
3.54414e-06
2.84464e-06
1.99804e-06
1.59771e-06
1.05129e-06
8.57632e-07
5.52242e-07
5.19882e-07
4.14923e-07
4.47973e-07
5.50645e-07
8.37482e-07
1.38068e-06
9.91647e-07
5.87802e-07
4.51839e-07
2.40607e-07
2.01146e-07
1.20847e-07
1.14686e-07
8.35175e-08
9.18744e-08
1.20197e-07
2.38368e-07
6.75618e-06
7.72662e-06
9.32237e-06
1.09463e-05
1.27056e-05
1.39322e-05
1.47051e-05
1.51417e-05
1.53857e-05
1.55659e-05
1.56935e-05
1.59706e-05
2.93218e-06
3.67011e-06
5.05722e-06
7.01488e-06
9.36583e-06
1.17042e-05
1.33651e-05
1.43477e-05
1.49201e-05
1.5225e-05
1.53681e-05
1.54214e-05
1.3224e-06
1.77746e-06
2.75885e-06
4.27235e-06
6.54428e-06
9.17671e-06
1.15647e-05
1.30076e-05
1.38429e-05
1.42712e-05
1.44453e-05
1.41756e-05
6.5395e-07
9.39871e-07
1.65896e-06
2.86055e-06
4.69338e-06
7.15552e-06
9.73269e-06
1.15601e-05
1.25729e-05
1.30819e-05
1.32685e-05
1.2839e-05
1.06316e-05
9.67005e-06
8.45272e-06
7.24819e-06
5.98051e-06
4.78719e-06
3.70552e-06
2.79031e-06
2.03665e-06
1.44471e-06
1.01011e-06
7.03623e-07
9.48849e-06
8.53179e-06
7.35449e-06
6.22151e-06
5.04534e-06
3.96015e-06
2.9795e-06
2.14583e-06
1.45089e-06
8.99247e-07
4.8848e-07
2.26724e-07
8.41602e-06
7.50549e-06
6.40447e-06
5.36484e-06
4.29504e-06
3.32011e-06
2.44016e-06
1.69301e-06
1.07635e-06
6.02047e-07
2.7502e-07
1.03557e-07
7.38282e-06
6.55081e-06
5.54741e-06
4.6142e-06
3.65793e-06
2.79246e-06
2.0115e-06
1.35114e-06
8.16465e-07
4.2376e-07
1.75051e-07
6.15156e-08
6.37079e-06
5.64182e-06
4.74811e-06
3.92946e-06
3.08948e-06
2.33142e-06
1.64687e-06
1.07133e-06
6.16578e-07
2.99573e-07
1.16041e-07
4.11948e-08
5.37158e-06
4.76119e-06
3.98384e-06
3.28478e-06
2.56182e-06
1.90967e-06
1.32039e-06
8.29464e-07
4.53509e-07
2.06654e-07
7.59064e-08
2.72517e-08
4.38664e-06
3.897e-06
3.24155e-06
2.66492e-06
2.05995e-06
1.51449e-06
1.02239e-06
6.18331e-07
3.20799e-07
1.37556e-07
4.82307e-08
1.74919e-08
3.42622e-06
3.0488e-06
2.5212e-06
2.06769e-06
1.58285e-06
1.14683e-06
7.5548e-07
4.4019e-07
2.17563e-07
8.8467e-08
2.97951e-08
1.08603e-08
2.51602e-06
2.2404e-06
1.84305e-06
1.50945e-06
1.14526e-06
8.19416e-07
5.2882e-07
2.99102e-07
1.4243e-07
5.55758e-08
1.8051e-08
6.53311e-09
1.7136e-06
1.52694e-06
1.25175e-06
1.0266e-06
7.75294e-07
5.51791e-07
3.52792e-07
1.96949e-07
9.20683e-08
3.49508e-08
1.09265e-08
3.84497e-09
1.10592e-06
9.86379e-07
8.08703e-07
6.67725e-07
5.06437e-07
3.63471e-07
2.34692e-07
1.32377e-07
6.2191e-08
2.32518e-08
6.90821e-09
2.31798e-09
7.78663e-07
6.94848e-07
5.71946e-07
4.77255e-07
3.66363e-07
2.67858e-07
1.77136e-07
1.02194e-07
4.89091e-08
1.80974e-08
5.05665e-09
1.63303e-09
2.67931e-06
3.32022e-06
3.6155e-06
3.76331e-06
3.81522e-06
3.68574e-06
3.37563e-06
2.92233e-06
2.38897e-06
1.78727e-06
1.2399e-06
7.85153e-07
2.39777e-06
2.88002e-06
3.06269e-06
3.12412e-06
3.01379e-06
2.7173e-06
2.31208e-06
1.83719e-06
1.35611e-06
9.0612e-07
5.6191e-07
3.23954e-07
2.17838e-06
2.5565e-06
2.6793e-06
2.67616e-06
2.44891e-06
2.09162e-06
1.66947e-06
1.22946e-06
8.32703e-07
5.10925e-07
3.00125e-07
1.81431e-07
1.98985e-06
2.3009e-06
2.39415e-06
2.34419e-06
2.07101e-06
1.70466e-06
1.30357e-06
9.1647e-07
5.95816e-07
3.62286e-07
2.28192e-07
1.66034e-07
1.81672e-06
2.0808e-06
2.16279e-06
2.10068e-06
1.82822e-06
1.48262e-06
1.12065e-06
7.89683e-07
5.37368e-07
3.58592e-07
2.48362e-07
2.01316e-07
1.64923e-06
1.87521e-06
1.95963e-06
1.91585e-06
1.67829e-06
1.37394e-06
1.06454e-06
7.92833e-07
5.67787e-07
4.10917e-07
3.23958e-07
2.85926e-07
1.47981e-06
1.66456e-06
1.76058e-06
1.75178e-06
1.58308e-06
1.33387e-06
1.07599e-06
8.38557e-07
6.55218e-07
5.26402e-07
4.46582e-07
4.00246e-07
1.30302e-06
1.43195e-06
1.53699e-06
1.56508e-06
1.47867e-06
1.30608e-06
1.10429e-06
9.20152e-07
7.67192e-07
6.51337e-07
5.68135e-07
5.08935e-07
1.11166e-06
1.17012e-06
1.26798e-06
1.3285e-06
1.29637e-06
1.22114e-06
1.08794e-06
9.47772e-07
8.25481e-07
7.23694e-07
6.40683e-07
5.70369e-07
9.01381e-07
8.95746e-07
9.64071e-07
1.03528e-06
1.04222e-06
1.01464e-06
9.65169e-07
8.90324e-07
7.95567e-07
7.1214e-07
6.37832e-07
5.71174e-07
6.87006e-07
6.56391e-07
6.81079e-07
7.35235e-07
7.65069e-07
7.63172e-07
7.44275e-07
7.14903e-07
6.77702e-07
6.30892e-07
5.7797e-07
5.26983e-07
5.3475e-07
5.09483e-07
5.09832e-07
5.40197e-07
5.70844e-07
5.89412e-07
5.89456e-07
5.8057e-07
5.6702e-07
5.4823e-07
5.21142e-07
4.86111e-07
4.69561e-07
3.05017e-07
1.70758e-07
1.35132e-07
8.661e-08
7.65221e-08
5.29242e-08
4.54151e-08
2.98169e-08
2.25885e-08
1.96171e-08
2.4574e-08
1.95137e-07
1.35953e-07
1.03533e-07
9.4501e-08
8.01508e-08
7.25097e-08
5.8202e-08
4.49439e-08
2.99209e-08
1.83545e-08
1.05266e-08
7.35805e-09
1.34563e-07
1.1901e-07
1.1509e-07
1.15538e-07
1.11554e-07
1.02901e-07
8.74597e-08
6.73311e-08
4.55066e-08
2.57586e-08
1.14785e-08
6.18606e-09
1.45607e-07
1.45546e-07
1.51235e-07
1.54713e-07
1.51055e-07
1.38718e-07
1.17903e-07
9.07023e-08
6.11567e-08
3.50613e-08
1.56119e-08
7.45603e-09
1.93834e-07
1.97443e-07
2.01577e-07
2.01546e-07
1.92528e-07
1.73865e-07
1.46397e-07
1.12408e-07
7.59424e-08
4.3665e-08
1.93897e-08
8.86911e-09
2.73662e-07
2.69516e-07
2.64285e-07
2.53161e-07
2.33901e-07
2.06266e-07
1.71336e-07
1.31203e-07
8.91855e-08
5.2012e-08
2.35477e-08
1.04769e-08
3.72642e-07
3.51513e-07
3.29381e-07
3.0275e-07
2.70568e-07
2.3299e-07
1.90965e-07
1.45967e-07
1.00216e-07
5.96917e-08
2.78303e-08
1.22953e-08
4.62929e-07
4.21178e-07
3.8002e-07
3.37966e-07
2.94424e-07
2.49238e-07
2.02713e-07
1.55555e-07
1.08503e-07
6.64064e-08
3.21749e-08
1.41713e-08
5.08996e-07
4.53584e-07
4.01884e-07
3.5228e-07
3.03678e-07
2.55446e-07
2.07424e-07
1.60146e-07
1.14036e-07
7.20084e-08
3.65373e-08
1.61873e-08
5.10416e-07
4.54156e-07
4.01204e-07
3.50618e-07
3.01647e-07
2.5379e-07
2.06995e-07
1.61351e-07
1.17259e-07
7.65555e-08
4.09257e-08
1.8342e-08
4.77507e-07
4.29309e-07
3.8218e-07
3.35971e-07
2.90574e-07
2.45912e-07
2.02281e-07
1.59847e-07
1.18919e-07
8.04801e-08
4.56048e-08
2.07251e-08
4.47544e-07
4.06676e-07
3.64689e-07
3.22405e-07
2.80369e-07
2.38819e-07
1.983e-07
1.5883e-07
1.21042e-07
8.47315e-08
5.12257e-08
2.28742e-08
2.09634e-07
3.46048e-07
7.48682e-07
1.55416e-06
2.96529e-06
5.02002e-06
7.42656e-06
9.43002e-06
1.05391e-05
1.11101e-05
1.1323e-05
1.0918e-05
1.28976e-07
1.91667e-07
4.58513e-07
1.0435e-06
2.13288e-06
3.84575e-06
6.0249e-06
8.11387e-06
9.31756e-06
9.95394e-06
1.02004e-05
9.81944e-06
8.43221e-08
1.14464e-07
2.85511e-07
7.02163e-07
1.53618e-06
2.93101e-06
4.83531e-06
6.82733e-06
8.11033e-06
8.79283e-06
9.07175e-06
8.76131e-06
5.50229e-08
6.98063e-08
1.80381e-07
4.74672e-07
1.1014e-06
2.20779e-06
3.81383e-06
5.6318e-06
6.92955e-06
7.6326e-06
7.93775e-06
7.7235e-06
3.49407e-08
4.25542e-08
1.1355e-07
3.19623e-07
7.85559e-07
1.64447e-06
2.95105e-06
4.53473e-06
5.78542e-06
6.48043e-06
6.80141e-06
6.69107e-06
2.12386e-08
2.55753e-08
7.07321e-08
2.1382e-07
5.57206e-07
1.21197e-06
2.23839e-06
3.5509e-06
4.69138e-06
5.34654e-06
5.66876e-06
5.65204e-06
1.21933e-08
1.49849e-08
4.32722e-08
1.41863e-07
3.94209e-07
8.8766e-07
1.6675e-06
2.69646e-06
3.66772e-06
4.25027e-06
4.55714e-06
4.59081e-06
6.55812e-09
8.51893e-09
2.57945e-08
9.32532e-08
2.79469e-07
6.5114e-07
1.22777e-06
1.98745e-06
2.74222e-06
3.21736e-06
3.4862e-06
3.53976e-06
3.30013e-09
4.70775e-09