/*--------------------------------*- C++ -*----------------------------------*\
| =========                 |                                                 |
| \\      /  F ield         | OpenFOAM: The Open Source CFD Toolbox           |
|  \\    /   O peration     | Version:  2212                                  |
|   \\  /    A nd           | Website:  www.openfoam.com                      |
|    \\/     M anipulation  |                                                 |
\*---------------------------------------------------------------------------*/
FoamFile
{
    version     2.0;
    format      ascii;
    arch        "LSB;label=32;scalar=64";
    class       volScalarField;
    location    "0.08";
    object      tracer0;
}
// * * * * * * * * * * * * * * * * * * * * * * * * * * * * * * * * * * * * * //

dimensions      [0 0 0 0 0 0 0];

internalField   nonuniform List<scalar> 
3072
(
2.56746e-05
2.56696e-05
2.56345e-05
2.55512e-05
2.54839e-05
2.53832e-05
2.53781e-05
2.56302e-05
2.78016e-05
2.9084e-05
2.91778e-05
2.91995e-05
2.6011e-05
2.59421e-05
2.57645e-05
2.55675e-05
2.5443e-05
2.56936e-05
2.66886e-05
2.81286e-05
2.87548e-05
2.89415e-05
2.87763e-05
2.84731e-05
2.61592e-05
2.60234e-05
2.57259e-05
2.55409e-05
2.58451e-05
2.70812e-05
2.81381e-05
2.8483e-05
2.85686e-05
2.82266e-05
2.72712e-05
2.60533e-05
2.62934e-05
2.60745e-05
2.57958e-05
2.59766e-05
2.69697e-05
2.79223e-05
2.8216e-05
2.82682e-05
2.7694e-05
2.59698e-05
2.35096e-05
2.1676e-05
2.64452e-05
2.64767e-05
2.64012e-05
2.6873e-05
2.76834e-05
2.79998e-05
2.80641e-05
2.75646e-05
2.56493e-05
2.28389e-05
2.04262e-05
1.86257e-05
2.65621e-05
2.67967e-05
2.69276e-05
2.74723e-05
2.78203e-05
2.79185e-05
2.7676e-05
2.62595e-05
2.34923e-05
2.05599e-05
1.83669e-05
1.67017e-05
2.6693e-05
2.70872e-05
2.7315e-05
2.76495e-05
2.77695e-05
2.7713e-05
2.69315e-05
2.48608e-05
2.21263e-05
1.95934e-05
1.76948e-05
1.62063e-05
2.69121e-05
2.72287e-05
2.74213e-05
2.76218e-05
2.76696e-05
2.74259e-05
2.64818e-05
2.47082e-05
2.22345e-05
1.98343e-05
1.79951e-05
1.65529e-05
3.03477e-05
2.94572e-05
2.75185e-05
2.74919e-05
2.74739e-05
2.72472e-05
2.65355e-05
2.50169e-05
2.28922e-05
2.07349e-05
1.89952e-05
1.76284e-05
3.41344e-05
3.2036e-05
2.97336e-05
2.76147e-05
2.74617e-05
2.72774e-05
2.68061e-05
2.58244e-05
2.44578e-05
2.28495e-05
2.13757e-05
2.0099e-05
3.63871e-05
3.79582e-05
3.70913e-05
3.10898e-05
2.8983e-05
2.81527e-05
2.76732e-05
2.70553e-05
2.6186e-05
2.50566e-05
2.39628e-05
2.29335e-05
4.06362e-05
4.14384e-05
4.36747e-05
4.24986e-05
3.99039e-05
3.7241e-05
3.5062e-05
3.32001e-05
3.16626e-05
3.03841e-05
2.92953e-05
2.84864e-05
2.92169e-05
2.92377e-05
2.92611e-05
2.92936e-05
2.93317e-05
2.93881e-05
2.94654e-05
2.95482e-05
2.9624e-05
2.96726e-05
2.96948e-05
2.96782e-05
2.81445e-05
2.78399e-05
2.7661e-05
2.76249e-05
2.77384e-05
2.80052e-05
2.83852e-05
2.88676e-05
2.93134e-05
2.96264e-05
2.97751e-05
2.98339e-05
2.47893e-05
2.39266e-05
2.33766e-05
2.32752e-05
2.34496e-05
2.40989e-05
2.50243e-05
2.63993e-05
2.78619e-05
2.90915e-05
2.967e-05
2.98884e-05
2.01474e-05
1.91217e-05
1.84969e-05
1.83723e-05
1.85225e-05
1.93611e-05
2.05883e-05
2.25729e-05
2.51377e-05
2.79331e-05
2.93776e-05
2.99259e-05
1.71639e-05
1.63183e-05
1.58699e-05
1.57862e-05
1.60091e-05
1.67729e-05
1.7989e-05
1.98938e-05
2.26085e-05
2.6293e-05
2.89925e-05
2.99714e-05
1.5488e-05
1.48183e-05
1.44951e-05
1.44327e-05
1.47973e-05
1.55252e-05
1.67303e-05
1.86112e-05
2.13481e-05
2.52771e-05
2.8697e-05
3.00148e-05
1.51018e-05
1.4403e-05
1.39763e-05
1.39192e-05
1.43592e-05
1.50848e-05
1.62667e-05
1.81162e-05
2.08084e-05
2.4808e-05
2.85154e-05
3.00621e-05
1.54711e-05
1.47806e-05
1.43512e-05
1.44249e-05
1.46945e-05
1.52779e-05
1.63635e-05
1.81219e-05
2.07738e-05
2.47334e-05
2.84549e-05
3.01076e-05
1.66069e-05
1.59332e-05
1.56295e-05
1.58133e-05
1.62164e-05
1.69588e-05
1.82041e-05
2.00853e-05
2.2666e-05
2.61212e-05
2.90365e-05
3.0197e-05
1.92356e-05
1.85353e-05
1.83852e-05
1.8653e-05
1.9126e-05
1.99099e-05
2.11141e-05
2.28047e-05
2.5166e-05
2.78424e-05
2.96631e-05
3.03223e-05
2.22921e-05
2.18616e-05
2.19994e-05
2.24473e-05
2.31061e-05
2.41144e-05
2.55342e-05
2.73633e-05
2.90617e-05
2.99742e-05
3.03899e-05
3.04395e-05
2.7822e-05
2.76362e-05
2.7979e-05
2.85188e-05
2.91809e-05
2.98769e-05
3.04161e-05
3.07238e-05
3.0759e-05
3.06892e-05
3.06052e-05
3.04817e-05
2.08826e-05
2.08804e-05
2.08693e-05
2.08392e-05
2.08124e-05
2.0775e-05
2.07802e-05
2.09003e-05
2.19084e-05
2.25093e-05
2.2557e-05
2.25696e-05
2.10262e-05
2.10073e-05
2.09473e-05
2.08659e-05
2.08212e-05
2.09479e-05
2.14599e-05
2.20405e-05
2.22953e-05
2.23752e-05
2.21929e-05
2.19298e-05
2.1091e-05
2.1057e-05
2.09518e-05
2.08756e-05
2.10139e-05
2.15892e-05
2.19618e-05
2.20728e-05
2.20943e-05
2.16868e-05
2.08048e-05
1.98631e-05
2.11494e-05
2.11109e-05
2.09975e-05
2.10741e-05
2.15192e-05
2.18435e-05
2.19259e-05
2.18676e-05
2.13184e-05
1.98342e-05
1.8513e-05
1.76021e-05
2.12105e-05
2.12708e-05
2.12614e-05
2.14671e-05
2.173e-05
2.18113e-05
2.17565e-05
2.12254e-05
1.97697e-05
1.8156e-05
1.6984e-05
1.60197e-05
2.12443e-05
2.13987e-05
2.1466e-05
2.164e-05
2.1713e-05
2.1718e-05
2.13958e-05
2.02827e-05
1.84991e-05
1.69969e-05
1.59048e-05
1.49893e-05
2.12702e-05
2.14663e-05
2.15527e-05
2.16339e-05
2.16592e-05
2.15127e-05
2.08148e-05
1.94096e-05
1.78028e-05
1.65462e-05
1.5584e-05
1.4762e-05
2.12831e-05
2.14736e-05
2.15541e-05
2.15945e-05
2.15472e-05
2.12683e-05
2.05386e-05
1.93594e-05
1.78809e-05
1.66794e-05
1.57526e-05
1.49649e-05
2.12847e-05
2.14628e-05
2.15169e-05
2.15189e-05
2.14435e-05
2.11853e-05
2.05958e-05
1.95711e-05
1.82776e-05
1.71623e-05
1.6291e-05
1.55641e-05
2.1283e-05
2.14225e-05
2.14422e-05
2.1439e-05
2.13774e-05
2.12163e-05
2.08538e-05
2.02186e-05
1.92722e-05
1.83086e-05
1.74819e-05
1.68004e-05
2.12474e-05
2.13332e-05
2.13444e-05
2.13477e-05
2.1345e-05
2.12941e-05
2.11329e-05
2.08247e-05
2.0448e-05
1.98619e-05
1.93878e-05
1.88334e-05
2.15582e-05
2.16695e-05
2.17781e-05
2.18242e-05
2.18342e-05
2.17622e-05
2.17091e-05
2.1531e-05
2.13232e-05
2.10041e-05
2.06688e-05
2.03953e-05
2.25822e-05
2.25963e-05
2.26128e-05
2.26357e-05
2.26683e-05
2.27161e-05
2.27889e-05
2.28713e-05
2.29625e-05
2.3029e-05
2.30609e-05
2.30659e-05
2.16249e-05
2.13454e-05
2.11689e-05
2.11272e-05
2.12032e-05
2.13846e-05
2.16697e-05
2.20518e-05
2.2483e-05
2.2889e-05
2.30948e-05
2.31694e-05
1.91205e-05
1.85806e-05
1.83204e-05
1.82328e-05
1.83191e-05
1.8657e-05
1.91702e-05
1.99663e-05
2.09313e-05
2.21111e-05
2.29148e-05
2.32067e-05
1.67724e-05
1.62967e-05
1.59838e-05
1.5928e-05
1.60084e-05
1.64257e-05
1.70088e-05
1.7954e-05
1.91647e-05
2.07239e-05
2.2512e-05
2.32403e-05
1.52589e-05
1.48279e-05
1.45835e-05
1.45404e-05
1.46715e-05
1.5104e-05
1.57825e-05
1.67909e-05
1.81569e-05
1.97218e-05
2.19648e-05
2.32815e-05
1.43662e-05
1.39975e-05
1.38229e-05
1.37905e-05
1.40019e-05
1.44108e-05
1.5077e-05
1.60773e-05
1.75509e-05
1.91989e-05
2.15031e-05
2.33271e-05
1.41788e-05
1.37835e-05
1.35388e-05
1.35067e-05
1.37614e-05
1.41717e-05
1.48323e-05
1.58176e-05
1.73123e-05
1.89665e-05
2.1276e-05
2.33751e-05
1.43904e-05
1.40079e-05
1.37666e-05
1.3812e-05
1.39684e-05
1.42982e-05
1.49144e-05
1.58263e-05
1.73028e-05
1.8935e-05
2.12061e-05
2.3422e-05
1.50212e-05
1.46594e-05
1.44999e-05
1.46025e-05
1.48257e-05
1.52324e-05
1.59107e-05
1.68931e-05
1.82609e-05
1.95821e-05
2.15499e-05
2.35238e-05
1.63508e-05
1.59837e-05
1.59534e-05
1.61179e-05
1.6394e-05
1.68245e-05
1.74524e-05
1.83079e-05
1.93431e-05
2.04376e-05
2.2159e-05
2.37317e-05
1.85335e-05
1.82279e-05
1.82417e-05
1.84221e-05
1.86906e-05
1.90853e-05
1.96235e-05
2.03535e-05
2.12171e-05
2.22297e-05
2.34089e-05
2.40638e-05
2.01359e-05
2.0133e-05
2.02895e-05
2.05614e-05
2.09391e-05
2.14611e-05
2.21528e-05
2.28951e-05
2.36712e-05
2.4087e-05
2.43911e-05
2.43296e-05
2.09968e-05
2.10094e-05
2.10582e-05
2.11167e-05
2.11727e-05
2.12294e-05
2.12552e-05
2.11265e-05
1.9965e-05
1.93298e-05
1.92941e-05
1.93016e-05
2.08138e-05
2.09188e-05
2.1089e-05
2.1219e-05
2.13035e-05
2.11551e-05
2.07529e-05
1.98822e-05
1.933e-05
1.90504e-05
1.88493e-05
1.85011e-05
2.07356e-05
2.09844e-05
2.12248e-05
2.13414e-05
2.11428e-05
2.05855e-05
1.97518e-05
1.92615e-05
1.87562e-05
1.81617e-05
1.71791e-05
1.59165e-05
2.06502e-05
2.10302e-05
2.1252e-05
2.11549e-05
2.07094e-05
1.98848e-05
1.91798e-05
1.84918e-05
1.74517e-05
1.60127e-05
1.4285e-05
1.31627e-05
2.05574e-05
2.08217e-05
2.09407e-05
2.06839e-05
1.99717e-05
1.91496e-05
1.83373e-05
1.72912e-05
1.57646e-05
1.39526e-05
1.23206e-05
1.12246e-05
2.04116e-05
2.05087e-05
2.0524e-05
2.00499e-05
1.93268e-05
1.85203e-05
1.76149e-05
1.6234e-05
1.43362e-05
1.24677e-05
1.09865e-05
9.9502e-06
2.02426e-05
2.01904e-05
2.00118e-05
1.9482e-05
1.87968e-05
1.79849e-05
1.68648e-05
1.52561e-05
1.34751e-05
1.1847e-05
1.05586e-05
9.61521e-06
2.00844e-05
1.98784e-05
1.96099e-05
1.90193e-05
1.83768e-05
1.75395e-05
1.65353e-05
1.51895e-05
1.35544e-05
1.20105e-05
1.0763e-05
9.84443e-06
2.00098e-05
1.96371e-05
1.91488e-05
1.85977e-05
1.80773e-05
1.74589e-05
1.66108e-05
1.54248e-05
1.40011e-05
1.26147e-05
1.14352e-05
1.05547e-05
1.98219e-05
1.92317e-05
1.88546e-05
1.84596e-05
1.80967e-05
1.7579e-05
1.69149e-05
1.61058e-05
1.50633e-05
1.39944e-05
1.29644e-05
1.20894e-05
1.98138e-05
1.92722e-05
1.89683e-05
1.86505e-05
1.83709e-05
1.80021e-05
1.75609e-05
1.70159e-05
1.64722e-05
1.57504e-05
1.51739e-05
1.45009e-05
2.01052e-05
1.98225e-05
1.97778e-05
1.96545e-05
1.94732e-05
1.91621e-05
1.88325e-05
1.83879e-05
1.79335e-05
1.74397e-05
1.69337e-05
1.65957e-05
1.93115e-05
1.93235e-05
1.93387e-05
1.9359e-05
1.93965e-05
1.94509e-05
1.95385e-05
1.9636e-05
1.97471e-05
1.98298e-05
1.98722e-05
1.9887e-05
1.81223e-05
1.77635e-05
1.75413e-05
1.74831e-05
1.75728e-05
1.77883e-05
1.81335e-05
1.85947e-05
1.91184e-05
1.96156e-05
1.987e-05
1.99598e-05
1.50727e-05
1.4353e-05
1.4075e-05
1.39423e-05
1.40458e-05
1.44571e-05
1.50825e-05
1.60512e-05
1.7218e-05
1.86391e-05
1.96252e-05
1.99856e-05
1.2158e-05
1.15285e-05
1.11516e-05
1.10789e-05
1.11766e-05
1.16945e-05
1.24187e-05
1.359e-05
1.50783e-05
1.69528e-05
1.91192e-05
2.00172e-05
1.0223e-05
9.695e-06
9.37914e-06
9.32162e-06
9.47387e-06
1.00097e-05
1.08527e-05
1.21141e-05
1.38296e-05
1.57441e-05
1.84288e-05
2.00565e-05
9.08386e-06
8.65906e-06
8.41706e-06
8.37197e-06
8.62544e-06
9.1296e-06
9.95733e-06
1.11914e-05
1.30561e-05
1.50953e-05
1.78551e-05
2.01049e-05
8.82827e-06
8.36214e-06
8.05337e-06
8.01075e-06
8.3193e-06
8.82313e-06
9.6442e-06
1.08486e-05
1.27465e-05
1.48049e-05
1.75695e-05
2.01539e-05
9.08723e-06
8.62044e-06
8.31751e-06
8.36749e-06
8.55158e-06
8.95013e-06
9.71076e-06
1.08465e-05
1.27263e-05
1.476e-05
1.74786e-05
2.02032e-05
9.862e-06
9.40354e-06
9.19413e-06
9.31717e-06
9.59003e-06
1.00938e-05
1.09515e-05
1.21617e-05
1.38987e-05
1.55256e-05
1.78625e-05
2.03169e-05
1.15263e-05
1.10505e-05
1.09979e-05
1.11982e-05
1.15381e-05
1.20729e-05
1.2866e-05
1.39092e-05
1.524e-05
1.65421e-05
1.8592e-05
2.05647e-05
1.4126e-05
1.37616e-05
1.37888e-05
1.40198e-05
1.43633e-05
1.48631e-05
1.55349e-05
1.64332e-05
1.75146e-05
1.86303e-05
2.00685e-05
2.09623e-05
1.62741e-05
1.62623e-05
1.64483e-05
1.67728e-05
1.72279e-05
1.78387e-05
1.86308e-05
1.94674e-05
2.0344e-05
2.09019e-05
2.13793e-05
2.13386e-05
2.75737e-05
2.75686e-05
2.754e-05
2.74672e-05
2.74074e-05
2.73134e-05
2.73144e-05
2.75578e-05
2.96516e-05
3.08845e-05
3.0973e-05
3.09937e-05
2.78841e-05
2.78322e-05
2.76847e-05
2.74999e-05
2.73904e-05
2.76466e-05
2.86771e-05
2.99357e-05
3.04824e-05
3.06487e-05
3.03274e-05
2.98559e-05
2.80204e-05
2.7923e-05
2.7668e-05
2.7495e-05
2.77864e-05
2.89931e-05
2.98344e-05
3.00877e-05
3.01413e-05
2.94513e-05
2.79037e-05
2.60467e-05
2.81413e-05
2.80071e-05
2.77459e-05
2.79141e-05
2.88666e-05
2.95983e-05
2.97841e-05
2.97297e-05
2.87401e-05
2.60323e-05
2.33078e-05
2.1573e-05
2.82724e-05
2.8374e-05
2.83351e-05
2.87738e-05
2.93684e-05
2.95508e-05
2.95014e-05
2.85761e-05
2.58298e-05
2.26437e-05
2.02824e-05
1.8483e-05
2.83434e-05
2.86369e-05
2.87687e-05
2.91749e-05
2.93585e-05
2.9398e-05
2.88798e-05
2.6798e-05
2.33654e-05
2.03583e-05
1.82225e-05
1.64972e-05
2.8426e-05
2.88083e-05
2.89893e-05
2.92054e-05
2.92766e-05
2.9052e-05
2.77979e-05
2.50984e-05
2.19243e-05
1.94044e-05
1.75374e-05
1.59872e-05
2.84781e-05
2.88717e-05
2.90442e-05
2.91429e-05
2.91031e-05
2.86017e-05
2.7248e-05
2.49557e-05
2.2058e-05
1.96465e-05
1.78365e-05
1.63465e-05
2.84898e-05
2.88582e-05
2.89823e-05
2.90025e-05
2.88898e-05
2.84318e-05
2.73491e-05
2.53546e-05
2.28096e-05
2.05669e-05
1.88318e-05
1.7455e-05
2.84911e-05
2.8797e-05
2.88617e-05
2.88784e-05
2.87949e-05
2.85107e-05
2.78515e-05
2.65708e-05
2.464e-05
2.26804e-05
2.09719e-05
1.96057e-05
2.84396e-05
2.86517e-05
2.86448e-05
2.86455e-05
2.86149e-05
2.85258e-05
2.8351e-05
2.79566e-05
2.73539e-05
2.6208e-05
2.52436e-05
2.40452e-05
2.80526e-05
2.80319e-05
2.79242e-05
2.78782e-05
2.78619e-05
2.79661e-05
2.8e-05
2.78978e-05
2.77693e-05
2.75685e-05
2.72851e-05
2.69178e-05
3.1015e-05
3.10382e-05
3.10656e-05
3.11032e-05
3.116e-05
3.12424e-05
3.13681e-05
3.15068e-05
3.16544e-05
3.17526e-05
3.18003e-05
3.18082e-05
2.93145e-05
2.88175e-05
2.85079e-05
2.84278e-05
2.85707e-05
2.89118e-05
2.94408e-05
3.01421e-05
3.09061e-05
3.15463e-05
3.18507e-05
3.19638e-05
2.46709e-05
2.35551e-05
2.3066e-05
2.28852e-05
2.30566e-05
2.37265e-05
2.47409e-05
2.63088e-05
2.8199e-05
3.04072e-05
3.15745e-05
3.20189e-05
1.98971e-05
1.89602e-05
1.83311e-05
1.8212e-05
1.83618e-05
1.91635e-05
2.0309e-05
2.21587e-05
2.45812e-05
2.80147e-05
3.09566e-05
3.20686e-05
1.69596e-05
1.61744e-05
1.56883e-05
1.56038e-05
1.58479e-05
1.66889e-05
1.80155e-05
1.99549e-05
2.23227e-05
2.58626e-05
3.01354e-05
3.21301e-05
1.52453e-05
1.45653e-05
1.41957e-05
1.41242e-05
1.4499e-05
1.52565e-05
1.65309e-05
1.87052e-05
2.11288e-05
2.47612e-05
2.93793e-05
3.21975e-05
1.48446e-05
1.41203e-05
1.36512e-05
1.35836e-05
1.40385e-05
1.4786e-05
1.60025e-05
1.82219e-05
2.06405e-05
2.42664e-05
2.89883e-05
3.2271e-05
1.52262e-05
1.45134e-05
1.40507e-05
1.4123e-05
1.43938e-05
1.49869e-05
1.60562e-05
1.82707e-05
2.06119e-05
2.41914e-05
2.88598e-05
3.23415e-05
1.63853e-05
1.5697e-05
1.53634e-05
1.55395e-05
1.5942e-05
1.67128e-05
1.79974e-05
2.0443e-05
2.23139e-05
2.55415e-05
2.92092e-05
3.24209e-05
1.87352e-05
1.8e-05
1.79603e-05
1.82942e-05
1.88671e-05
1.98241e-05
2.12259e-05
2.32414e-05
2.41547e-05
2.64973e-05
2.79051e-05
3.11218e-05
2.34094e-05
2.27404e-05
2.2792e-05
2.31589e-05
2.3652e-05
2.42391e-05
2.47175e-05
2.5091e-05
2.50711e-05
2.60324e-05
2.73384e-05
3.05433e-05
2.66023e-05
2.63791e-05
2.62296e-05
2.61163e-05
2.59622e-05
2.58392e-05
2.5647e-05
2.54835e-05
2.51303e-05
2.57865e-05
2.66602e-05
2.96117e-05
2.8923e-05
3.03305e-05
3.33375e-05
3.40304e-05
3.47991e-05
3.5399e-05
3.5227e-05
3.50131e-05
3.47019e-05
3.42784e-05
3.37819e-05
3.33974e-05
2.49527e-05
2.55938e-05
2.77413e-05
2.80958e-05
2.86029e-05
2.90832e-05
2.99997e-05
3.07982e-05
3.15793e-05
3.20743e-05
3.23498e-05
3.23418e-05
2.12853e-05
2.30398e-05
2.34005e-05
2.37228e-05
2.41158e-05
2.45035e-05
2.49718e-05
2.54678e-05
2.59907e-05
2.64671e-05
2.69508e-05
2.72268e-05
1.96163e-05
1.98196e-05
2.00486e-05
2.03135e-05
2.06283e-05
2.10001e-05
2.14466e-05
2.19379e-05
2.24707e-05
2.28371e-05
2.31251e-05
2.2936e-05
3.30294e-05
3.28713e-05
3.26793e-05
3.24802e-05
3.22297e-05
3.19582e-05
3.16197e-05
3.12719e-05
3.08702e-05
3.0534e-05
3.01484e-05
3.01981e-05
3.21834e-05
3.18882e-05
3.15095e-05
3.10256e-05
3.04308e-05
2.97656e-05
2.89926e-05
2.82628e-05
2.75136e-05
2.69674e-05
2.65435e-05
2.69511e-05
2.70367e-05
2.66327e-05
2.60688e-05
2.54103e-05
2.46666e-05
2.38972e-05
2.30565e-05
2.23349e-05
2.16417e-05
2.12562e-05
2.10243e-05
2.13541e-05
2.22344e-05
2.14923e-05
2.07406e-05
2.00441e-05
1.94358e-05
1.8869e-05
1.85265e-05
1.82528e-05
1.81806e-05
1.81654e-05
1.81408e-05
1.82412e-05
2.99141e-05
2.90843e-05
2.87122e-05
2.82778e-05
2.77548e-05
2.70821e-05
2.63172e-05
2.55782e-05
2.48538e-05
2.42937e-05
2.3797e-05
2.34809e-05
2.75873e-05
2.77795e-05
2.78845e-05
2.78688e-05
2.77824e-05
2.76664e-05
2.75564e-05
2.74119e-05
2.72031e-05
2.69497e-05
2.67389e-05
2.65171e-05
2.18327e-05
2.23458e-05
2.28992e-05
2.34118e-05
2.39805e-05
2.45202e-05
2.50483e-05
2.54984e-05
2.58053e-05
2.59785e-05
2.60311e-05
2.59822e-05
1.84565e-05
1.86433e-05
1.89154e-05
1.91762e-05
1.95467e-05
1.99334e-05
2.04459e-05
2.09577e-05
2.16092e-05
2.21192e-05
2.24853e-05
2.23172e-05
2.32854e-05
2.33922e-05
2.36655e-05
2.39899e-05
2.43369e-05
2.46439e-05
2.4853e-05
2.49116e-05
2.48806e-05
2.48158e-05
2.47738e-05
2.47173e-05
2.64058e-05
2.63062e-05
2.61853e-05
2.60359e-05
2.58516e-05
2.56285e-05
2.53777e-05
2.5097e-05
2.48261e-05
2.45864e-05
2.43948e-05
2.44139e-05
2.57944e-05
2.55138e-05
2.51483e-05
2.46949e-05
2.4183e-05
2.35754e-05
2.29729e-05
2.23001e-05
2.17649e-05
2.13913e-05
2.11853e-05
2.14507e-05
2.16747e-05
2.1004e-05
2.03285e-05
1.96967e-05
1.91039e-05
1.86455e-05
1.82427e-05
1.80821e-05
1.80178e-05
1.80093e-05
1.79608e-05
1.81186e-05
2.45255e-05
2.40946e-05
2.38811e-05
2.36535e-05
2.33427e-05
2.29554e-05
2.24604e-05
2.19696e-05
2.14017e-05
2.09371e-05
2.04838e-05
2.01586e-05
2.43895e-05
2.43245e-05
2.42583e-05
2.42002e-05
2.414e-05
2.40517e-05
2.39348e-05
2.37752e-05
2.36039e-05
2.33892e-05
2.32143e-05
2.302e-05
2.18388e-05
2.21679e-05
2.24745e-05
2.27247e-05
2.29312e-05
2.31073e-05
2.32347e-05
2.33233e-05
2.33437e-05
2.33124e-05
2.32634e-05
2.32087e-05
1.82925e-05
1.85325e-05
1.87357e-05
1.90367e-05
1.93471e-05
1.97756e-05
2.01985e-05
2.07274e-05
2.11149e-05
2.13987e-05
2.14965e-05
2.13168e-05
1.99428e-05
2.00482e-05
2.0338e-05
2.06865e-05
2.10618e-05
2.14068e-05
2.16881e-05
2.18524e-05
2.19288e-05
2.1924e-05
2.19204e-05
2.17987e-05
2.29299e-05
2.28777e-05
2.28169e-05
2.27547e-05
2.26696e-05
2.25713e-05
2.24412e-05
2.23035e-05
2.21482e-05
2.2025e-05
2.19265e-05
2.18642e-05
2.30977e-05
2.2939e-05
2.27195e-05
2.24448e-05
2.21015e-05
2.17692e-05
2.13178e-05
2.09372e-05
2.0558e-05
2.03086e-05
2.01499e-05
2.03168e-05
2.07751e-05
2.02155e-05
1.96586e-05
1.91322e-05
1.86744e-05
1.82266e-05
1.79392e-05
1.77074e-05
1.76412e-05
1.76271e-05
1.75976e-05
1.76964e-05
2.19625e-05
2.25079e-05
2.27336e-05
2.30128e-05
2.33583e-05
2.3844e-05
2.44237e-05
2.5046e-05
2.56136e-05
2.60575e-05
2.63246e-05
2.63398e-05
2.18266e-05
2.18917e-05
2.19339e-05
2.20145e-05
2.20747e-05
2.22031e-05
2.23355e-05
2.25597e-05
2.27794e-05
2.30583e-05
2.32602e-05
2.35442e-05
2.05553e-05
2.06922e-05
2.08131e-05
2.09322e-05
2.10553e-05
2.11768e-05
2.13289e-05
2.14613e-05
2.16294e-05
2.17376e-05
2.18673e-05
2.18943e-05
1.78539e-05
1.80175e-05
1.81968e-05
1.83917e-05
1.86101e-05
1.8865e-05
1.91397e-05
1.94524e-05
1.97124e-05
1.99072e-05
1.99907e-05
1.98714e-05
2.62704e-05
2.61335e-05
2.59569e-05
2.57272e-05
2.54431e-05
2.51062e-05
2.47177e-05
2.43163e-05
2.37029e-05
2.41305e-05
2.47354e-05
2.60544e-05
2.35356e-05
2.34179e-05
2.32047e-05
2.29499e-05
2.26461e-05
2.23003e-05
2.19344e-05
2.15588e-05
2.11172e-05
2.13518e-05
2.23078e-05
2.30093e-05
2.17926e-05
2.16021e-05
2.13579e-05
2.10688e-05
2.07465e-05
2.03801e-05
2.00071e-05
1.9586e-05
1.93256e-05
1.90875e-05
1.94041e-05
2.06963e-05
1.95317e-05
1.91581e-05
1.87952e-05
1.84588e-05
1.81683e-05
1.79425e-05
1.78324e-05
1.78187e-05
1.78264e-05
1.78411e-05
1.78171e-05
1.8242e-05
1.83131e-05
1.80573e-05
1.78662e-05
1.74299e-05
1.70532e-05
1.6434e-05
1.58533e-05
1.5061e-05
1.43627e-05
1.34865e-05
1.29688e-05
1.2668e-05
1.42774e-05
1.38648e-05
1.33061e-05
1.27999e-05
1.21714e-05
1.15616e-05
1.09143e-05
1.03262e-05
9.83077e-06
9.48539e-06
9.39659e-06
9.53706e-06
9.81206e-06
9.39946e-06
8.89169e-06
8.40373e-06
7.83822e-06
7.32306e-06
6.77827e-06
6.33337e-06
5.93371e-06
5.70078e-06
5.62425e-06
5.81347e-06
6.18541e-06
5.85345e-06
5.41934e-06
5.03103e-06
4.57289e-06
4.18461e-06
3.77028e-06
3.46056e-06
3.178e-06
3.04117e-06
3.00081e-06
3.22018e-06
1.28718e-05
1.33962e-05
1.40808e-05
1.48543e-05
1.5614e-05
1.62475e-05
1.67351e-05
1.70853e-05
1.73297e-05
1.74889e-05
1.75497e-05
1.75687e-05
1.00532e-05
1.07269e-05
1.13468e-05
1.20152e-05
1.26715e-05
1.329e-05
1.38285e-05
1.4276e-05
1.46317e-05
1.48207e-05
1.48374e-05
1.45183e-05
6.30399e-06
7.03267e-06
7.58714e-06
8.18168e-06
8.75697e-06
9.29593e-06
9.7727e-06
1.01974e-05
1.04764e-05
1.05881e-05
1.04608e-05
1.01541e-05
3.6473e-06
4.35677e-06
4.74459e-06
5.17426e-06
5.59501e-06
5.99832e-06
6.37434e-06
6.67591e-06
6.8633e-06
6.91929e-06
6.76127e-06
6.52773e-06
1.75057e-05
1.74018e-05
1.72281e-05
1.69406e-05
1.65461e-05
1.60754e-05
1.54939e-05
1.48414e-05
1.41468e-05
1.34858e-05
1.29425e-05
1.27188e-05
1.41235e-05
1.36806e-05
1.31664e-05
1.26469e-05
1.20992e-05
1.14933e-05
1.09003e-05
1.03234e-05
9.85409e-06
9.51812e-06
9.42362e-06
9.57352e-06
9.76703e-06
9.35548e-06
8.87055e-06
8.38242e-06
7.8428e-06
7.3169e-06
6.79535e-06
6.33258e-06
5.95107e-06
5.69896e-06
5.63802e-06
5.81176e-06
6.1812e-06
5.84947e-06
5.42157e-06
5.03168e-06
4.57959e-06
4.18569e-06
3.77856e-06
3.45982e-06
3.18643e-06
3.03929e-06
3.00913e-06
3.22037e-06
1.28959e-05
1.34652e-05
1.41471e-05
1.49187e-05
1.56412e-05
1.62482e-05
1.671e-05
1.70421e-05
1.72735e-05
1.74262e-05
1.74867e-05
1.75136e-05
1.00863e-05
1.07657e-05
1.13911e-05
1.20649e-05
1.27259e-05
1.33462e-05
1.38845e-05
1.43299e-05
1.46845e-05
1.4874e-05
1.48938e-05
1.45803e-05
6.31931e-06
7.04248e-06
7.59925e-06
8.19668e-06
8.77506e-06
9.31715e-06
9.79674e-06
1.02239e-05
1.05044e-05
1.06165e-05
1.04885e-05
1.01798e-05
3.65375e-06
4.36272e-06
4.75105e-06
5.18136e-06
5.60284e-06
6.00698e-06
6.38394e-06
6.68614e-06
6.87382e-06
6.92963e-06
6.77024e-06
6.53582e-06
1.74685e-05
1.73865e-05
1.72238e-05
1.6989e-05
1.6591e-05
1.61634e-05
1.55759e-05
1.49798e-05
1.42203e-05
1.34412e-05
1.28221e-05
1.26177e-05
1.41927e-05
1.3741e-05
1.32319e-05
1.26823e-05
1.214e-05
1.15254e-05
1.09285e-05
1.03434e-05
9.8604e-06
9.5274e-06
9.43558e-06
9.59022e-06
9.7894e-06
9.37366e-06
8.88538e-06
8.39114e-06
7.85216e-06
7.31898e-06
6.79878e-06
6.32977e-06
5.95072e-06
5.69519e-06
5.63643e-06
5.80733e-06
6.18735e-06
5.85463e-06
5.4251e-06
5.03439e-06
4.58165e-06
4.18663e-06
3.78021e-06
3.46015e-06
3.18853e-06
3.0398e-06
3.01156e-06
3.22109e-06
1.28027e-05
1.33656e-05
1.40248e-05
1.47494e-05
1.54279e-05
1.59934e-05
1.64282e-05
1.67389e-05
1.69537e-05
1.70953e-05
1.71524e-05
1.71778e-05
1.00977e-05
1.07723e-05
1.13901e-05
1.2052e-05
1.26985e-05
1.3302e-05
1.38232e-05
1.42526e-05
1.45953e-05
1.478e-05
1.48032e-05
1.45188e-05
6.31832e-06
7.04011e-06
7.59693e-06
8.19389e-06
8.77103e-06
9.31109e-06
9.78801e-06
1.02119e-05
1.04902e-05
1.06019e-05
1.04774e-05
1.01723e-05
3.65576e-06
4.36446e-06
4.7527e-06
5.18292e-06
5.60427e-06
6.0082e-06
6.38483e-06
6.68676e-06
6.87428e-06
6.93021e-06
6.77167e-06
6.53747e-06
1.71501e-05
1.70821e-05
1.69694e-05
1.67831e-05
1.65023e-05
1.60841e-05
1.56259e-05
1.50741e-05
1.44996e-05
1.3876e-05
1.3468e-05
1.33508e-05
1.4148e-05
1.37219e-05
1.3215e-05
1.26614e-05
1.20675e-05
1.14905e-05
1.08682e-05
1.02943e-05
9.78068e-06
9.42918e-06
9.29716e-06
9.4395e-06
9.78517e-06
9.37174e-06
8.8836e-06
8.3915e-06
7.85384e-06
7.33261e-06
6.80817e-06
6.355e-06
5.97081e-06
5.73332e-06
5.66949e-06
5.85262e-06
6.18978e-06
5.85698e-06
5.42791e-06
5.03716e-06
4.58449e-06
4.1892e-06
3.78048e-06
3.46076e-06
3.18431e-06
3.03683e-06
3.00338e-06
3.21632e-06
1.37389e-05
1.44099e-05
1.51212e-05
1.5839e-05
1.64809e-05
1.70147e-05
1.74239e-05
1.77203e-05
1.79277e-05
1.80782e-05
1.81521e-05
1.82377e-05
9.95548e-06
1.06875e-05
1.13772e-05
1.21254e-05
1.28582e-05
1.35407e-05
1.41287e-05
1.46133e-05
1.49937e-05
1.51938e-05
1.52075e-05
1.47952e-05
6.34662e-06
7.06776e-06
7.62049e-06
8.21767e-06
8.80046e-06
9.35076e-06
9.84083e-06
1.02798e-05
1.05669e-05
1.06794e-05
1.05373e-05
1.02158e-05
3.65059e-06
4.36187e-06
4.7516e-06
5.18322e-06
5.60591e-06
6.01143e-06
6.39016e-06
6.69367e-06
6.88193e-06
6.93706e-06
6.77364e-06
6.53806e-06
2.92836e-06
2.68258e-06
2.30643e-06
2.03075e-06
1.65341e-06
1.39397e-06
1.06379e-06
8.65026e-07
6.22778e-07
5.17605e-07
4.1127e-07
4.30006e-07
9.75553e-07
8.31976e-07
6.45827e-07
5.20135e-07
3.55078e-07
2.73637e-07
1.52627e-07
1.2618e-07
6.17403e-08
6.98711e-08
5.37965e-08
5.82045e-08
2.23195e-07
1.68602e-07
1.17424e-07
8.16531e-08
4.55433e-08
3.36235e-08
1.48546e-08
1.61623e-08
1.04165e-08
1.18384e-08
1.0723e-08
1.13298e-08
3.3201e-08
2.26656e-08
1.35117e-08
8.76816e-09
4.51967e-09
4.53822e-09
2.92558e-09
3.24188e-09
2.8143e-09
3.01353e-09
3.00893e-09
3.0638e-09
3.58637e-09
2.40512e-09
1.56456e-09
1.34699e-09
1.04717e-09
1.10437e-09
9.68714e-10
1.02372e-09
1.00767e-09
1.03044e-09
1.04401e-09
1.05682e-09
5.66938e-10
4.71631e-10
4.44343e-10
4.23331e-10
4.12429e-10
4.14968e-10
4.07072e-10
4.13421e-10
4.16219e-10
4.21888e-10
4.27805e-10
4.31936e-10
1.96006e-10
1.86632e-10
1.88903e-10
1.86871e-10
1.87331e-10
1.87522e-10
1.87939e-10
1.89272e-10
1.90996e-10
1.93284e-10
1.95659e-10
1.97094e-10
9.08777e-11
9.1074e-11
9.14768e-11
9.16334e-11
9.18733e-11
9.21452e-11
9.25542e-11
9.31542e-11
9.39413e-11
9.48755e-11
9.58087e-11
9.63142e-11
4.66294e-11
4.69005e-11
4.71209e-11
4.72648e-11
4.74137e-11
4.75701e-11
4.77786e-11
4.80427e-11
4.83728e-11
4.87383e-11
4.90962e-11
4.92646e-11
2.52977e-11
2.54163e-11
2.55176e-11
2.55852e-11
2.56568e-11
2.57259e-11
2.58138e-11
2.59168e-11
2.60423e-11
2.61736e-11
2.63015e-11
2.63548e-11
1.50145e-11
1.50553e-11
1.50929e-11
1.5118e-11
1.51452e-11
1.51698e-11
1.52e-11
1.52322e-11
1.52705e-11
1.53081e-11
1.5344e-11
1.53558e-11
1.08729e-11
1.08847e-11
1.08952e-11
1.09046e-11
1.09133e-11
1.09213e-11
1.09285e-11
1.09348e-11
1.09399e-11
1.09437e-11
1.09459e-11
1.09467e-11
1.69845e-06
2.05042e-06
2.26183e-06
2.52753e-06
2.80018e-06
3.07885e-06
3.32139e-06
3.50455e-06
3.60378e-06
3.60606e-06
3.41889e-06
3.24886e-06
8.68504e-07
8.15292e-07
8.8297e-07
9.84936e-07
1.09636e-06
1.21324e-06
1.3143e-06
1.38737e-06
1.41725e-06
1.37295e-06
1.26916e-06
1.14596e-06
4.01052e-07
2.6106e-07
2.83995e-07
3.10381e-07
3.39778e-07
3.70328e-07
3.94134e-07
4.07551e-07
4.06075e-07
3.74073e-07
3.35487e-07
2.78863e-07
1.71238e-07
6.62538e-08
7.20163e-08
7.60685e-08
8.07389e-08
8.52715e-08
8.77064e-08
8.71969e-08
8.09147e-08
7.33461e-08
6.00445e-08
4.70478e-08
7.1112e-08
1.32444e-08
1.45306e-08
1.47308e-08
1.50109e-08
1.51075e-08
1.44243e-08
1.3269e-08
1.16169e-08
9.77629e-09
7.61542e-09
5.43604e-09
3.02757e-08
2.27571e-09
2.51091e-09
2.40759e-09
2.39173e-09
2.19533e-09
2.0096e-09
1.7107e-09
1.4546e-09
1.14006e-09
9.07819e-10
6.82091e-10
1.33879e-08
4.06394e-10
4.29481e-10
4.04126e-10
3.98834e-10
3.52771e-10
3.33147e-10
2.85343e-10
2.67015e-10
2.28321e-10
2.20227e-10
1.97088e-10
6.20943e-09
9.98985e-11
9.62019e-11
9.84643e-11
9.92922e-11
9.5295e-11
9.55611e-11
9.19326e-11
9.27642e-11
9.12851e-11
9.22481e-11
9.23035e-11
2.88941e-09
4.1141e-11
3.58534e-11
3.95457e-11
4.149e-11
4.25048e-11
4.37021e-11
4.46322e-11
4.56942e-11
4.65132e-11
4.73088e-11
4.78435e-11
1.35879e-09
2.23289e-11
2.02987e-11
2.18323e-11
2.30046e-11
2.36916e-11
2.43955e-11
2.49374e-11
2.54556e-11
2.58467e-11
2.61973e-11
2.64316e-11
5.50734e-10
1.45314e-11
1.37585e-11
1.4398e-11
1.48643e-11
1.51195e-11
1.53738e-11
1.55591e-11
1.57356e-11
1.58641e-11
1.59814e-11
1.60582e-11
3.60968e-10
1.33638e-11
1.13875e-11
1.15315e-11
1.16129e-11
1.16737e-11
1.17241e-11
1.17644e-11
1.17976e-11
1.18239e-11
1.18455e-11
1.18627e-11
2.92987e-06
2.68318e-06
2.30853e-06
2.03149e-06
1.65568e-06
1.3939e-06
1.06595e-06
8.63829e-07
6.24981e-07
5.15545e-07
4.13334e-07
4.30029e-07
9.76173e-07
8.32318e-07
6.46357e-07
5.20252e-07
3.55552e-07
2.73443e-07
1.53118e-07
1.25718e-07
6.16871e-08
6.98319e-08
5.39289e-08
5.82057e-08
2.23329e-07
1.68665e-07
1.17502e-07
8.16531e-08
4.56132e-08
3.35603e-08
1.48382e-08
1.61463e-08
1.0422e-08
1.18436e-08
1.0733e-08
1.13335e-08
3.32215e-08
2.26723e-08
1.35218e-08
8.76639e-09
4.52975e-09
4.53882e-09
2.92969e-09
3.24574e-09
2.81967e-09
3.0183e-09
3.01369e-09
3.06834e-09
3.59167e-09
2.40896e-09
1.56907e-09
1.35026e-09
1.05199e-09
1.10825e-09
9.72863e-10
1.02777e-09
1.01179e-09
1.03452e-09
1.04809e-09
1.0609e-09
5.70387e-10
4.74979e-10
4.47717e-10
4.26616e-10
4.15856e-10
4.18301e-10
4.10416e-10
4.16761e-10
4.19566e-10
4.25243e-10
4.31173e-10
4.35312e-10
1.98675e-10
1.89307e-10
1.91578e-10
1.89545e-10
1.90009e-10
1.90197e-10
1.90617e-10
1.91954e-10
1.93686e-10
1.95985e-10
1.9837e-10
1.99811e-10
9.2985e-11
9.31866e-11
9.35927e-11
9.37512e-11
9.39929e-11
9.42667e-11
9.46788e-11
9.52835e-11
9.60769e-11
9.70188e-11
9.79595e-11
9.84692e-11
4.82929e-11
4.85679e-11
4.87912e-11
4.89369e-11
4.90877e-11
4.9246e-11
4.94571e-11
4.97246e-11
5.00589e-11
5.04293e-11
5.07919e-11
5.09627e-11
2.66295e-11
2.67503e-11
2.68535e-11
2.69222e-11
2.69951e-11
2.70654e-11
2.7155e-11
2.72599e-11
2.73878e-11
2.75217e-11
2.7652e-11
2.77064e-11
1.61266e-11
1.61684e-11
1.62069e-11
1.62326e-11
1.62604e-11
1.62855e-11
1.63164e-11
1.63494e-11
1.63886e-11
1.64272e-11
1.6464e-11
1.64761e-11
1.18772e-11
1.18893e-11
1.19001e-11
1.19097e-11
1.19187e-11
1.19268e-11
1.19343e-11
1.19407e-11
1.1946e-11
1.19498e-11
1.19521e-11
1.19529e-11
1.70015e-06
2.05244e-06
2.26408e-06
2.53011e-06
2.80309e-06
3.08213e-06
3.32494e-06
3.50828e-06
3.60751e-06
3.60961e-06
3.42174e-06
3.25151e-06
8.69305e-07
8.16077e-07
8.8381e-07
9.8588e-07
1.09741e-06
1.21439e-06
1.31552e-06
1.38862e-06
1.41847e-06
1.37401e-06
1.2701e-06
1.14672e-06
4.01389e-07
2.61277e-07
2.84236e-07
3.10648e-07
3.40071e-07
3.70645e-07
3.94468e-07
4.07887e-07
4.06387e-07
3.74348e-07
3.35719e-07
2.7904e-07
1.71369e-07
6.63029e-08
7.20712e-08
7.61281e-08
8.08032e-08
8.53397e-08
8.77764e-08
8.72647e-08
8.09748e-08
7.33994e-08
6.00846e-08
4.70785e-08
7.11626e-08
1.32539e-08
1.45414e-08
1.47422e-08
1.50228e-08
1.51198e-08
1.44363e-08
1.32797e-08
1.16264e-08
9.78398e-09
7.62152e-09
5.44048e-09
3.02962e-08
2.278e-09
2.51342e-09
2.41025e-09
2.39436e-09
2.19797e-09
2.01205e-09
1.71299e-09
1.45667e-09
1.14189e-09
9.09497e-10
6.83579e-10
1.33968e-08
4.07419e-10
4.30546e-10
4.05235e-10
3.99943e-10
3.53891e-10
3.34241e-10
2.86434e-10
2.6808e-10
2.29376e-10
2.2127e-10
1.98119e-10
6.2136e-09
1.00602e-10
9.6935e-11
9.92036e-11
1.00047e-10
9.60687e-11
9.63347e-11
9.27194e-11
9.35515e-11
9.20827e-11
9.30463e-11
9.31052e-11