/*--------------------------------*- C++ -*----------------------------------*\
| =========                 |                                                 |
| \\      /  F ield         | OpenFOAM: The Open Source CFD Toolbox           |
|  \\    /   O peration     | Version:  2212                                  |
|   \\  /    A nd           | Website:  www.openfoam.com                      |
|    \\/     M anipulation  |                                                 |
\*---------------------------------------------------------------------------*/
FoamFile
{
    version     2.0;
    format      ascii;
    arch        "LSB;label=32;scalar=64";
    class       volVectorField;
    location    "0.08";
    object      U;
}
// * * * * * * * * * * * * * * * * * * * * * * * * * * * * * * * * * * * * * //

dimensions      [0 1 -1 0 0 0 0];

internalField   nonuniform List<vector> 
3072
(
(1.34513 21.9121 0)
(1.79846 19.241 0)
(3.14875 18.0066 5.98155e-19)
(4.55085 16.6307 -8.79016e-15)
(5.77555 16.0633 1.40853e-14)
(6.97368 15.5139 -7.04925e-15)
(7.75833 15.3596 -3.27139e-15)
(9.64535 17.1875 -1.55161e-14)
(17.1991 15.293 2.57224e-14)
(28.6485 14.853 -9.68846e-15)
(32.5301 19.5725 6.57934e-15)
(35.0931 21.3737 3.05501e-15)
(-4.70183 25.5619 -3.83747e-16)
(-2.67502 22.4767 -2.933e-15)
(0.446416 22.4097 1.48493e-15)
(3.45763 21.975 0)
(5.90993 22.1995 5.99526e-15)
(8.99918 23.6239 -9.15094e-15)
(15.2602 23.9961 0)
(24.2195 25.6571 0)
(29.9592 26.4359 0)
(32.0881 26.3407 7.59017e-18)
(32.686 27.2786 -1.35859e-14)
(33.3232 27.2344 4.40828e-18)
(-4.25714 28.7859 3.50438e-16)
(-1.72921 25.5653 0)
(2.80608 26.0186 0)
(7.08044 25.6951 -7.8121e-15)
(12.076 26.2406 5.25472e-15)
(18.9795 27.4902 -7.93266e-15)
(26.3098 28.3974 1.04887e-14)
(31.111 28.5953 0)
(33.355 27.9338 0)
(34.2039 26.9199 -3.78975e-15)
(34.3456 26.3518 -3.45839e-15)
(34.7728 25.6594 9.96116e-15)
(-5.76222 32.2647 -1.29363e-15)
(-1.60114 30.0014 -2.40747e-15)
(4.26571 31.1629 2.35278e-15)
(10.3643 31.0372 -2.37357e-15)
(17.3676 31.4998 9.54509e-15)
(24.2653 31.6207 -9.46252e-15)
(29.3443 31.0029 -4.53611e-15)
(31.7499 29.9282 -1.24024e-14)
(32.8999 28.5388 -3.30047e-18)
(33.3811 27.3933 6.51057e-15)
(33.5681 26.4926 6.14343e-15)
(33.8833 25.6059 -5.83672e-15)
(-3.1627 34.7173 0)
(0.884084 33.965 1.09599e-15)
(7.27291 35.3522 -2.15729e-15)
(14.0465 35.2942 4.34543e-15)
(21.0202 35.0864 4.70305e-18)
(26.5136 34.0006 4.18031e-15)
(29.5942 32.4008 3.83168e-15)
(31.0113 30.6486 3.52546e-15)
(31.6796 29.0276 -6.5441e-15)
(32.0135 27.5965 6.07332e-15)
(32.2528 26.3942 -8.51999e-15)
(32.562 25.2949 1.07483e-14)
(-2.00542 37.535 -1.10553e-15)
(2.9324 37.5675 1.00883e-15)
(9.56606 38.8833 3.96222e-15)
(16.1625 38.4893 0)
(22.264 37.3672 -7.77318e-15)
(26.3213 35.3501 7.34986e-15)
(28.5252 33.142 0)
(29.5978 31.0932 -6.26931e-15)
(30.2411 29.2298 5.8286e-15)
(30.6515 27.6108 0)
(30.9838 26.2239 2.97682e-18)
(31.3358 24.9845 4.91412e-15)
(1.11317 39.6144 0)
(5.42985 40.9591 -1.8585e-15)
(11.4408 41.6726 1.81224e-15)
(17.0906 40.8756 0)
(21.9328 38.8895 -3.44612e-15)
(25.0575 36.3216 5.37366e-18)
(26.9137 33.7622 6.02062e-15)
(27.9979 31.4544 5.64094e-15)
(28.7288 29.4231 -5.30901e-15)
(29.2662 27.6519 5.03064e-15)
(29.7195 26.1137 -4.7876e-15)
(30.1556 24.7487 -1.37614e-14)
(3.16889 42.0126 0)
(7.31787 43.8801 1.68887e-15)
(12.3306 43.8821 -3.22476e-15)
(16.8307 42.6565 3.13179e-15)
(20.6869 40.136 0)
(23.4179 37.2464 -5.66214e-15)
(25.2267 34.423 5.37968e-15)
(26.4245 31.8989 1.41319e-18)
(27.297 29.6892 -9.76382e-15)
(27.9754 27.7619 -4.67512e-15)
(28.5471 26.0789 -3.04837e-18)
(29.0666 24.5883 8.68046e-15)
(5.94026 43.6969 0)
(8.87507 46.3968 -1.52522e-15)
(12.52 45.4851 -2.83496e-15)
(15.9765 43.9657 -2.69849e-15)
(19.1515 41.2347 5.18161e-15)
(21.6846 38.1801 0)
(23.5499 35.1761 0)
(24.9125 32.4547 0)
(25.9535 30.0565 0)
(26.7771 27.9602 4.3725e-15)
(27.4578 26.1251 -4.2511e-15)
(28.0469 24.5015 4.13859e-15)
(7.23672 46.6266 0)
(9.30586 48.3535 1.33872e-15)
(11.8146 46.4292 -3.9121e-18)
(14.6346 44.5049 2.39763e-15)
(17.3918 41.69 2.33045e-15)
(19.823 38.6279 -4.52056e-15)
(21.7922 35.601 0)
(23.3473 32.8073 -2.11135e-18)
(24.5783 30.3054 -1.26822e-14)
(25.5581 28.094 0)
(26.3494 26.1421 8.12436e-15)
(27.0028 24.4081 -3.98052e-15)
(9.9628 46.9283 0)
(8.87229 48.062 1.25587e-15)
(10.3284 45.339 4.60541e-15)
(12.7032 43.12 -4.43423e-15)
(15.222 40.5057 -6.4718e-15)
(17.6574 37.7501 1.05169e-14)
(19.7907 35.0092 -1.86894e-18)
(21.5662 32.4125 -4.06637e-15)
(23.0111 30.0201 4.00194e-15)
(24.1672 27.8539 -7.91064e-15)
(25.0833 25.9029 -1.16967e-14)
(25.8078 24.1438 1.15341e-14)
(4.62187 43.8992 -6.58544e-16)
(6.4826 43.1385 -4.74126e-15)
(7.74928 40.2794 1.0886e-15)
(10.0958 38.5214 0)
(12.7004 36.7872 0)
(15.2649 34.884 3.74076e-18)
(17.5793 32.8731 1.16869e-14)
(19.5633 30.8283 7.69169e-15)
(21.2108 28.8346 0)
(22.5385 26.9428 7.54689e-15)
(23.5801 25.1705 0)
(24.3742 23.5273 6.01416e-18)
(38.415 21.7421 -2.1525e-14)
(40.4461 21.5168 9.324e-15)
(42.1773 20.5382 -9.42662e-15)
(42.8437 19.3168 -3.19114e-15)
(42.9296 17.8521 -3.15078e-15)
(42.2584 16.1631 0)
(40.861 14.3991 0)
(38.6268 12.5891 6.17141e-15)
(35.6378 10.7874 -6.22728e-15)
(31.7883 8.79156 0)
(26.6277 5.24398 0)
(24.6838 -0.586004 -4.20657e-16)
(34.3744 27.6224 8.3844e-15)
(35.2865 27.2685 0)
(36.3997 26.5567 -1.03241e-17)
(37.3502 25.4196 4.07163e-15)
(38.198 23.8557 2.02307e-15)
(38.5751 22.267 8.23119e-15)
(38.447 20.6894 -1.26556e-14)
(37.7611 19.2928 2.19894e-15)
(36.5693 18.2086 0)
(34.2612 17.2626 0)
(31.0392 15.8722 0)
(31.565 11.4779 -4.6777e-23)
(35.3068 25.0313 3.22249e-15)
(35.8706 24.308 -9.54752e-15)
(36.4904 23.4962 3.16814e-15)
(36.9819 22.6182 6.35141e-15)
(37.3026 21.731 -6.36514e-15)
(37.349 20.87 0)
(37.1121 20.1494 0)
(36.5717 19.652 -1.95965e-18)
(35.8059 19.4807 1.84282e-15)
(34.3409 19.4698 0)
(32.0141 19.3035 0)
(33.6585 18.8968 0)
(34.2017 24.7796 3.6992e-18)
(34.5463 23.9705 8.24018e-15)
(34.9253 23.1482 5.41511e-15)
(35.2783 22.3295 -5.35482e-15)
(35.5538 21.5526 0)
(35.6967 20.8883 2.71201e-15)
(35.6733 20.4065 0)
(35.4997 20.1833 4.31788e-15)
(35.1745 20.312 -1.41511e-15)
(34.4457 20.9498 0)
(32.4726 21.8451 -9.27646e-16)
(35.7811 22.8622 -1.19303e-15)
(32.8909 24.2878 -5.12931e-15)
(33.2578 23.3524 0)
(33.648 22.4686 0)
(34.0215 21.6537 0)
(34.3492 20.9436 0)
(34.6119 20.3873 -4.61536e-15)
(34.7849 20.0813 -1.53742e-18)
(34.8788 20.0482 -2.41549e-15)
(34.9404 20.4232 0)
(34.7917 21.3466 -1.38195e-15)
(33.5645 22.882 8.5308e-16)
(37.7863 25.4403 1.09967e-15)
(31.7032 23.8656 -2.7637e-18)
(32.0979 22.8476 -9.11222e-15)
(32.5112 21.9171 4.43537e-15)
(32.9241 21.0856 2.72805e-20)
(33.3239 20.383 2.55325e-18)
(33.7047 19.8529 6.43734e-15)
(34.077 19.556 -1.71221e-18)
(34.4584 19.5575 -6.72092e-15)
(34.8654 19.9701 -2.39174e-15)
(35.3371 20.9479 1.3443e-15)
(34.7685 22.9 -1.6039e-15)
(39.4965 26.3226 -5.10231e-16)
(30.5877 23.5229 1.32649e-14)
(31.0287 22.414 4.28637e-15)
(31.4787 21.4112 0)
(31.9347 20.5216 0)
(32.4001 19.7686 2.38149e-18)
(32.8872 19.1888 -3.98848e-15)
(33.4221 18.8325 5.98665e-15)
(34.0438 18.7597 -1.40689e-18)
(34.7877 19.0754 2.13124e-15)
(35.7463 19.9694 0)
(35.9613 21.9065 -2.26996e-18)
(40.944 26.2019 4.75029e-16)
(29.555 23.2523 -4.2076e-15)
(30.0298 22.044 -4.09167e-15)
(30.4992 20.9516 3.99836e-15)
(30.9736 19.9756 -3.91236e-15)
(31.471 19.1325 7.45597e-20)
(32.0206 18.4498 7.56343e-15)
(32.6691 17.9649 -3.74013e-15)
(33.4808 17.7286 1.8772e-15)
(34.52 17.8319 0)
(35.9495 18.475 1.0611e-15)
(36.9635 20.187 6.4272e-16)
(41.9323 24.71 -1.77516e-15)
(28.5703 23.0479 4.03889e-15)
(29.0523 21.7298 -3.94977e-15)
(29.5082 20.5335 -3.86503e-15)
(29.9595 19.4507 -7.57854e-15)
(30.4385 18.4887 7.42539e-15)
(30.991 17.6643 -7.27634e-15)
(31.6856 16.9985 0)
(32.6163 16.5242 -1.76508e-15)
(33.8859 16.303 0)
(35.7291 16.5212 0)
(37.5884 17.7675 0)
(42.477 21.9864 1.64628e-15)
(27.5429 22.8513 3.9043e-15)
(28.0042 21.4283 -7.66887e-15)
(28.4109 20.1287 7.53195e-15)
(28.7944 18.9338 7.38664e-15)
(29.1995 17.8426 3.61526e-15)
(29.6889 16.858 0)
(30.3545 15.9799 0)
(31.3154 15.2156 3.37868e-15)
(32.7176 14.5802 0)
(34.8756 14.2143 -8.82977e-16)
(37.3852 14.6075 5.26731e-16)
(42.2999 17.6983 -2.30756e-15)
(26.3541 22.5436 -7.56582e-15)
(26.7714 21.052 7.42496e-15)
(27.0931 19.6772 -7.30601e-15)
(27.3656 18.3876 -1.79758e-14)
(27.6482 17.1783 -2.60285e-18)
(28.0175 16.0398 1.29302e-18)
(28.5883 14.9487 -3.35578e-15)
(29.4892 13.8791 -3.26388e-15)
(30.9067 12.7813 0)
(33.2151 11.7411 2.46018e-15)
(36.0321 10.8395 4.80541e-16)
(41.1353 11.4598 -4.47727e-19)
(24.9032 21.9911 -5.87629e-18)
(25.2465 20.4949 0)
(25.4449 19.0944 0)
(25.5649 17.7508 3.47184e-15)
(25.6877 16.4592 1.02402e-14)
(25.9054 15.1982 -3.33907e-15)
(26.3475 13.9273 -2.15137e-18)
(27.1236 12.5894 -1.5887e-15)
(28.4414 11.0574 -1.548e-15)
(30.5669 9.31954 -1.54573e-15)
(33.8396 6.83703 0)
(38.272 -0.677732 6.30737e-16)
(21.9121 -1.34513 -4.42572e-16)
(19.241 -1.79845 0)
(18.0066 -3.14875 -5.98154e-19)
(16.6307 -4.55084 0)
(16.0633 -5.77555 7.04259e-15)
(15.5139 -6.97368 -7.04925e-15)
(15.3596 -7.75833 0)
(17.1875 -9.64537 -1.2413e-14)
(15.293 -17.1992 2.25072e-14)
(14.8531 -28.6486 -1.61605e-14)
(19.5726 -32.5301 -3.29405e-15)
(21.3737 -35.0931 -3.055e-15)
(25.5619 4.70184 -1.91802e-15)
(22.4767 2.67503 -1.46618e-15)
(22.4097 -0.446419 4.45238e-15)
(21.975 -3.45764 0)
(22.1996 -5.90993 -5.99526e-15)
(23.6239 -8.9992 6.09976e-15)
(23.9962 -15.2603 0)
(25.6571 -24.2196 5.60329e-15)
(26.4359 -29.9592 -1.52011e-14)
(26.3408 -32.0881 9.5162e-15)
(27.2786 -32.686 9.05349e-15)
(27.2345 -33.3232 -1.29817e-14)
(28.7859 4.25715 3.50438e-16)
(25.5653 1.72921 0)
(26.0186 -2.80609 -2.61517e-15)
(25.6951 -7.08046 0)
(26.2406 -12.0761 0)
(27.4903 -18.9795 -5.28463e-15)
(28.3975 -26.3098 2.09825e-14)
(28.5953 -31.111 -1.49713e-14)
(27.9338 -33.355 4.01905e-15)
(26.92 -34.2039 0)
(26.3518 -34.3456 6.92128e-15)
(25.6594 -34.7728 -3.32374e-15)
(32.2647 5.76222 -1.29469e-15)
(30.0015 1.60112 1.20432e-15)
(31.163 -4.26575 2.35149e-15)
(31.0372 -10.3643 4.74384e-15)
(31.4999 -17.3677 -4.77158e-15)
(31.6207 -24.2653 -4.7264e-15)
(31.003 -29.3443 0)
(29.9282 -31.7499 0)
(28.5388 -32.8999 3.48045e-15)
(27.3933 -33.381 0)
(26.4926 -33.5681 4.74467e-18)
(25.6059 -33.8833 2.91646e-15)
(34.7173 3.16268 1.79317e-15)
(33.965 -0.884121 -1.09545e-15)
(35.3522 -7.27296 -2.15729e-15)
(35.2942 -14.0466 0)
(35.0864 -21.0202 0)
(34.0006 -26.5136 4.18745e-15)
(32.4008 -29.5942 0)
(30.6486 -31.0112 -7.05857e-15)
(29.0277 -31.6796 -3.27153e-15)
(27.5965 -32.0135 6.07331e-15)
(26.3942 -32.2527 -8.51997e-15)
(25.2949 -32.562 5.372e-15)
(37.535 2.00538 -7.31397e-19)
(37.5675 -2.93245 -1.00791e-15)
(38.8833 -9.56611 1.97955e-15)
(38.4893 -16.1626 2.3379e-18)
(37.3672 -22.264 3.88666e-15)
(35.3501 -26.3213 -7.34772e-15)
(33.142 -28.5251 6.69121e-15)
(31.0932 -29.5977 6.32747e-18)
(29.2299 -30.2411 0)
(27.6108 -30.6515 0)
(26.2239 -30.9838 1.03113e-14)
(24.9845 -31.3358 7.28968e-19)
(39.6144 -1.11321 -1.02812e-15)
(40.9591 -5.4299 -9.29907e-16)
(41.6726 -11.4408 0)
(40.8756 -17.0906 -3.57259e-15)
(38.8894 -21.9328 3.44797e-15)
(36.3216 -25.0575 9.69248e-15)
(33.7622 -26.9137 6.02664e-15)
(31.4544 -27.9978 8.40089e-18)
(29.4231 -28.7288 -1.06239e-14)
(27.6519 -29.2662 5.0268e-15)
(26.1137 -29.7195 4.79473e-15)
(24.7487 -30.1556 3.05212e-18)
(42.0126 -3.16893 -6.41754e-19)
(43.8801 -7.3179 1.68887e-15)
(43.882 -12.3306 0)
(42.6564 -16.8307 -3.13178e-15)
(40.1359 -20.6869 -2.9865e-15)
(37.2464 -23.4179 5.77696e-18)
(34.423 -25.2267 -1.07524e-14)
(31.8989 -26.4245 4.31119e-18)
(29.6892 -27.297 -2.76875e-18)
(27.7619 -27.9754 4.67776e-15)
(26.0789 -28.5471 -4.4899e-15)
(24.5884 -29.0666 2.45321e-18)
(43.6969 -5.94028 -4.46292e-16)
(46.3968 -8.87509 7.60965e-16)
(45.4851 -12.52 -4.25113e-15)
(43.9657 -15.9765 2.69848e-15)
(41.2346 -19.1515 0)
(38.1801 -21.6846 0)
(35.176 -23.5499 4.82048e-15)
(32.4547 -24.9125 9.32268e-15)
(30.0565 -25.9535 -4.51096e-15)
(27.9602 -26.7771 -4.37249e-15)
(26.1251 -27.4578 -4.24849e-15)
(24.5016 -28.0469 0)
(46.6266 -7.23672 -8.27787e-16)
(48.3535 -9.30587 2.0084e-15)
(46.4292 -11.8146 4.97318e-15)
(44.5049 -14.6346 0)
(41.69 -17.3918 4.65163e-15)
(38.6279 -19.823 0)
(35.601 -21.7922 3.21278e-18)
(32.8073 -23.3473 -4.31113e-15)
(30.3054 -24.5783 4.23062e-15)
(28.094 -25.5581 0)
(26.1421 -26.3494 0)
(24.4081 -27.0028 -7.96472e-15)
(46.9283 -9.9628 2.19596e-23)
(48.0619 -8.8723 1.25587e-15)
(45.3389 -10.3284 3.5169e-18)
(43.12 -12.7032 -4.44042e-15)
(40.5057 -15.2221 -2.15498e-15)
(37.75 -17.6574 -2.10331e-15)
(35.0092 -19.7906 -4.12577e-15)
(32.4125 -21.5662 -1.21857e-14)
(30.0201 -23.0111 -4.00194e-15)
(27.8539 -24.1672 -7.91064e-15)
(25.9029 -25.0833 7.80369e-15)
(24.1438 -25.8078 7.68356e-15)
(43.8992 -4.62187 -1.31663e-15)
(43.1385 -6.4826 -5.91965e-16)
(40.2794 -7.74929 2.94565e-18)
(38.5214 -10.0958 4.19874e-15)
(36.7872 -12.7004 0)
(34.884 -15.2649 -3.96616e-15)
(32.8731 -17.5793 3.89333e-15)
(30.8283 -19.5633 3.84115e-15)
(28.8345 -21.2108 -1.14327e-14)
(26.9428 -22.5385 7.54689e-15)
(25.1705 -23.5801 -7.47526e-15)
(23.5273 -24.3742 0)
(21.7421 -38.415 9.21966e-15)
(21.5168 -40.4461 -2.48625e-14)
(20.5382 -42.1773 6.26449e-15)
(19.3168 -42.8437 1.59014e-14)
(17.8521 -42.9296 -1.57308e-14)
(16.1631 -42.2584 3.1147e-15)
(14.3991 -40.861 -1.7398e-18)
(12.5891 -38.6268 -3.08401e-15)
(10.7874 -35.6378 -6.22728e-15)
(8.79156 -31.7884 0)
(5.24398 -26.6277 0)
(-0.586003 -24.6838 -6.31112e-16)
(27.6224 -34.3744 -3.64392e-19)
(27.2685 -35.2865 8.19631e-15)
(26.5567 -36.3997 -1.03241e-17)
(25.4196 -37.3502 0)
(23.8557 -38.198 6.07867e-15)
(22.267 -38.5751 0)
(20.6894 -38.447 4.21721e-15)
(19.2928 -37.7611 6.59959e-15)
(18.2086 -36.5693 -4.71146e-15)
(17.2626 -34.2612 0)
(15.8722 -31.0392 0)
(11.4779 -31.565 -1.19714e-19)
(25.0313 -35.3068 3.21829e-15)
(24.308 -35.8706 -3.17899e-15)
(23.4962 -36.4904 3.16814e-15)
(22.6182 -36.9819 0)
(21.7311 -37.3026 -3.18065e-15)
(20.87 -37.349 6.5197e-15)
(20.1494 -37.1121 -8.46659e-15)
(19.652 -36.5717 -8.84866e-15)
(19.4807 -35.8059 5.52666e-15)
(19.4698 -34.3409 0)
(19.3035 -32.0141 1.03741e-15)
(18.8968 -33.6585 -3.81919e-20)
(24.7797 -34.2017 2.80548e-15)
(23.9705 -34.5463 -5.4949e-15)
(23.1482 -34.9253 5.4151e-15)
(22.3295 -35.2783 -5.35481e-15)
(21.5526 -35.5538 0)
(20.8883 -35.6967 2.712e-15)
(20.4066 -35.6733 2.75368e-15)
(20.1833 -35.4997 1.43778e-15)
(20.312 -35.1745 -2.83043e-15)
(20.9498 -34.4457 0)
(21.8451 -32.4726 -9.25777e-16)
(22.8622 -35.7811 1.49168e-15)
(24.2878 -32.8909 5.13339e-15)
(23.3524 -33.2578 -2.47768e-15)
(22.4686 -33.648 0)
(21.6537 -34.0215 0)
(20.9436 -34.3492 2.35787e-15)
(20.3873 -34.6119 -2.30621e-15)
(20.0813 -34.7849 -2.7886e-18)
(20.0482 -34.8788 0)
(20.4232 -34.9405 -1.27573e-15)
(21.3466 -34.7917 1.38195e-15)
(22.882 -33.5645 -1.70705e-15)
(25.4403 -37.7863 0)
(23.8656 -31.7032 -9.42144e-15)
(22.8476 -32.0979 4.5546e-15)
(21.9171 -32.5112 8.87338e-15)
(21.0856 -32.9241 2.72811e-20)
(20.383 -33.3239 -1.0753e-14)
(19.8529 -33.7047 -4.29516e-15)
(19.556 -34.077 -2.68166e-18)
(19.5575 -34.4584 0)
(19.9701 -34.8654 0)
(20.9479 -35.3371 -1.3443e-15)
(22.9 -34.7685 -8.03019e-16)
(26.3226 -39.4965 5.1023e-16)
(23.5229 -30.5876 4.42272e-15)
(22.414 -31.0287 -8.57528e-15)
(21.4112 -31.4787 -4.1736e-15)
(20.5216 -31.9347 -2.3309e-18)
(19.7686 -32.4001 4.02339e-15)
(19.1888 -32.8872 3.98573e-15)
(18.8325 -33.4221 1.99577e-15)
(18.7597 -34.0438 2.02992e-15)
(19.0754 -34.7877 -2.13284e-15)
(19.9694 -35.7463 0)
(21.9066 -35.9613 1.43045e-15)
(26.2019 -40.944 -9.50958e-16)
(23.2523 -29.555 0)
(22.044 -30.0298 4.09167e-15)
(20.9516 -30.4993 0)
(19.9756 -30.9736 -2.22049e-18)
(19.1325 -31.471 7.45583e-20)
(18.4498 -32.0206 7.56342e-15)
(17.9649 -32.6691 -1.86899e-15)
(17.7287 -33.4808 -3.75334e-15)
(17.8319 -34.52 -1.93797e-15)
(18.475 -35.9495 1.0611e-15)
(20.187 -36.9635 -1.93255e-15)
(24.71 -41.9323 8.86276e-16)
(23.0479 -28.5703 4.03888e-15)
(21.7298 -29.0523 -3.94976e-15)
(20.5335 -29.5082 -3.86896e-15)
(19.4507 -29.9595 3.79018e-15)
(18.4887 -30.4385 3.71267e-15)
(17.6643 -30.991 -1.09173e-14)
(16.9985 -31.6856 0)
(16.5242 -32.6163 1.76508e-15)
(16.303 -33.8859 1.78776e-15)
(16.5212 -35.7291 0)
(17.7675 -37.5884 1.74612e-15)
(21.9864 -42.477 -4.12267e-16)
(22.8513 -27.5429 0)
(21.4283 -28.0042 -7.66886e-15)
(20.1287 -28.4109 -3.76948e-15)
(18.9338 -28.7944 -7.38339e-15)
(17.8426 -29.1995 3.61525e-15)
(16.858 -29.6889 3.53245e-15)
(15.9799 -30.3545 0)
(15.2156 -31.3154 0)
(14.5802 -32.7176 0)
(14.2143 -34.8757 0)
(14.6075 -37.3852 -5.26718e-16)
(17.6983 -42.2999 -7.69104e-16)
(22.5436 -26.3541 3.78128e-15)
(21.052 -26.7714 3.71074e-15)
(19.6772 -27.0931 1.46182e-14)
(18.3876 -27.3656 3.59804e-15)
(17.1783 -27.6482 1.40946e-14)
(16.0398 -28.0175 -3.44075e-15)
(14.9488 -28.5883 -3.35578e-15)
(13.8791 -29.4892 0)
(12.7813 -30.9067 -3.20498e-15)
(11.7411 -33.2151 -1.64006e-15)
(10.8395 -36.0321 -9.61474e-16)
(11.4598 -41.1353 0)
(21.9911 -24.9032 0)
(20.4949 -25.2465 0)
(19.0944 -25.4449 -1.40988e-14)
(17.7508 -25.5649 -1.04207e-14)
(16.4592 -25.6877 -3.41158e-15)
(15.1982 -25.9054 0)
(13.9273 -26.3475 3.26071e-15)
(12.5894 -27.1236 0)
(11.0574 -28.4414 -1.94902e-18)
(9.31955 -30.5669 1.54573e-15)
(6.83704 -33.8396 4.2743e-16)
(-0.677723 -38.272 -1.88133e-19)
(-1.34512 -21.9121 -2.21286e-16)
(-1.79845 -19.241 -3.45566e-15)
(-3.14875 -18.0066 3.49569e-15)
(-4.55084 -16.6307 -3.51727e-15)
(-5.77555 -16.0633 0)
(-6.97368 -15.5139 3.52596e-15)
(-7.75833 -15.3596 0)
(-9.64538 -17.1875 3.10493e-15)
(-17.1992 -15.293 -9.64224e-15)
(-28.6486 -14.8531 9.69559e-15)
(-32.5301 -19.5726 1.97179e-14)
(-35.0931 -21.3737 -6.08313e-15)
(4.70185 -25.5619 0)
(2.67503 -22.4767 -2.933e-15)
(-0.44642 -22.4097 2.96866e-15)
(-3.45764 -21.975 2.95914e-15)
(-5.90994 -22.1996 -5.99525e-15)
(-8.99921 -23.6239 -1.677e-19)
(-15.2603 -23.9962 -6.03831e-15)
(-24.2196 -25.6571 -1.40005e-14)
(-29.9592 -26.4359 1.51994e-14)
(-32.0881 -26.3408 -4.75384e-15)
(-32.686 -27.2786 8.19866e-18)
(-33.3232 -27.2345 5.4627e-18)
(4.25715 -28.7859 0)
(1.72921 -25.5654 0)
(-2.8061 -26.0186 0)
(-7.08047 -25.6952 -2.60482e-15)
(-12.0761 -26.2406 0)
(-18.9795 -27.4903 -2.64803e-15)
(-26.3098 -28.3975 5.24266e-15)
(-31.111 -28.5953 9.98752e-15)
(-33.355 -27.9338 -4.02083e-15)
(-34.2039 -26.92 -7.57628e-15)
(-34.3456 -26.3518 -1.03797e-14)
(-34.7728 -25.6594 9.96115e-15)
(5.76221 -32.2647 0)
(1.60111 -30.0015 -1.20432e-15)
(-4.26576 -31.163 2.35414e-15)
(-10.3643 -31.0372 2.37027e-15)
(-17.3677 -31.4999 0)
(-24.2653 -31.6207 -9.47017e-15)
(-29.3443 -31.003 9.06185e-15)
(-31.7498 -29.9282 0)
(-32.8999 -28.5388 6.951e-15)
(-33.381 -27.3933 -9.76389e-15)
(-33.5681 -26.4926 6.13868e-15)
(-33.8833 -25.6059 5.05737e-18)
(3.16267 -34.7173 -7.13074e-23)
(-0.884134 -33.965 2.19342e-15)
(-7.27297 -35.3522 3.02456e-18)
(-14.0466 -35.2942 0)
(-21.0202 -35.0864 -4.32627e-15)
(-26.5136 -34.0006 8.36283e-15)
(-29.5942 -32.4008 0)
(-31.0112 -30.6486 -3.53127e-15)
(-31.6796 -29.0277 -3.27537e-15)
(-32.0135 -27.5965 6.07331e-15)
(-32.2527 -26.3942 0)
(-32.5619 -25.2949 -5.36848e-15)
(2.00536 -37.535 5.5231e-16)
(-2.93246 -37.5675 2.07761e-18)
(-9.56612 -38.8833 -1.97954e-15)
(-16.1626 -38.4893 -7.93999e-15)
(-22.264 -37.3672 -2.25119e-18)
(-26.3213 -35.3501 7.34984e-15)
(-28.5251 -33.142 0)
(-29.5977 -31.0932 9.40431e-15)
(-30.241 -29.2299 -5.83062e-15)
(-30.6515 -27.6108 5.45757e-15)
(-30.9837 -26.2239 2.97681e-18)
(-31.3358 -24.9845 -7.28965e-19)
(-1.11322 -39.6144 -1.54221e-15)
(-5.42991 -40.9591 -9.2704e-16)
(-11.4408 -41.6726 0)
(-17.0906 -40.8756 7.14933e-15)
(-21.9328 -38.8894 -1.03382e-14)
(-25.0574 -36.3216 -1.63787e-18)
(-26.9137 -33.7622 -1.20472e-14)
(-27.9978 -31.4544 5.28448e-18)
(-28.7287 -29.4231 -5.309e-15)
(-29.2662 -27.652 -5.03063e-15)
(-29.7195 -26.1137 4.79473e-15)
(-30.1556 -24.7487 -4.58787e-15)
(-3.16894 -42.0126 1.43398e-15)
(-7.31791 -43.8801 -8.45072e-16)
(-12.3306 -43.882 0)
(-16.8307 -42.6564 3.13178e-15)
(-20.6869 -40.1359 2.98492e-15)
(-23.4179 -37.2464 2.82948e-15)
(-25.2267 -34.423 -4.95922e-18)
(-26.4245 -31.8989 -1.41318e-18)
(-27.297 -29.6892 -4.886e-15)
(-27.9753 -27.7619 -6.54952e-18)
(-28.5471 -26.079 2.54519e-18)
(-29.0666 -24.5884 0)
(-5.9403 -43.6969 4.45542e-16)
(-8.8751 -46.3968 0)
(-12.52 -45.4851 0)
(-15.9765 -43.9657 -2.69848e-15)
(-19.1515 -41.2346 2.58682e-15)
(-21.6846 -38.1801 -4.99069e-15)
(-23.5499 -35.176 0)
(-24.9125 -32.4547 4.66014e-15)
(-25.9535 -30.0565 -2.45267e-18)
(-26.7771 -27.9602 4.37249e-15)
(-27.4578 -26.1251 -4.2532e-15)
(-28.0469 -24.5016 8.28163e-15)
(-7.23673 -46.6265 -3.52661e-19)
(-9.30587 -48.3535 -6.69687e-16)
(-11.8146 -46.4292 -2.48854e-15)
(-14.6346 -44.5049 -4.79265e-15)
(-17.3918 -41.6899 0)
(-19.823 -38.6279 4.51456e-15)
(-21.7921 -35.601 -8.82096e-15)
(-23.3473 -32.8073 4.31188e-15)
(-24.5783 -30.3054 4.23062e-15)
(-25.5581 -28.094 0)
(-26.3494 -26.1421 -4.0663e-15)
(-27.0028 -24.4081 -7.95683e-15)
(-9.96281 -46.9283 -7.38076e-16)
(-8.8723 -48.0619 6.27199e-16)
(-10.3284 -45.3389 2.30094e-15)
(-12.7032 -43.12 2.21514e-15)
(-15.222 -40.5057 -5.12097e-19)
(-17.6574 -37.75 -6.31325e-15)
(-19.7906 -35.0092 8.24475e-15)
(-21.5662 -32.4125 1.6244e-14)
(-23.0111 -30.0201 -1.20138e-14)
(-24.1671 -27.8539 -7.91063e-15)
(-25.0833 -25.9029 7.7965e-15)
(-25.8078 -24.1438 0)
(-4.62187 -43.8992 1.31538e-15)
(-6.4826 -43.1385 5.94523e-16)
(-7.74929 -40.2794 1.08565e-15)
(-10.0958 -38.5213 4.2036e-15)
(-12.7004 -36.7871 0)
(-15.2649 -34.884 3.96242e-15)
(-17.5793 -32.8731 -7.79357e-15)
(-19.5632 -30.8283 -3.84397e-15)
(-21.2108 -28.8345 -3.80992e-15)
(-22.5385 -26.9428 7.54688e-15)
(-23.5801 -25.1705 3.74212e-15)
(-24.3742 -23.5273 1.11011e-14)
(-38.415 -21.7421 -3.07356e-15)
(-40.4461 -21.5168 3.1194e-15)
(-42.1773 -20.5382 -9.41625e-15)
(-42.8437 -19.3168 2.8619e-14)
(-42.9296 -17.8521 -1.258e-14)
(-42.2584 -16.1631 0)
(-40.861 -14.3991 -6.18289e-15)
(-38.6268 -12.5891 4.62514e-15)
(-35.6377 -10.7874 0)
(-31.7883 -8.79156 1.07438e-18)
(-26.6277 -5.24397 0)
(-24.6838 0.586007 4.20657e-16)
(-34.3744 -27.6224 -1.67797e-14)
(-35.2865 -27.2685 8.20666e-15)
(-36.3997 -26.5567 8.09746e-15)
(-37.3501 -25.4196 -4.07644e-15)
(-38.198 -23.8557 0)
(-38.5751 -22.267 0)
(-38.447 -20.6894 4.21908e-15)
(-37.761 -19.2928 -4.40057e-15)
(-36.5693 -18.2086 0)
(-34.2612 -17.2626 1.22231e-15)
(-31.0392 -15.8722 -1.41412e-19)
(-31.565 -11.4779 -1.57025e-15)
(-35.3068 -25.0313 3.2229e-15)
(-35.8706 -24.308 -6.36415e-15)
(-36.4904 -23.4962 0)
(-36.9818 -22.6182 -6.35145e-15)
(-37.3026 -21.731 -6.36587e-15)
(-37.349 -20.87 1.30387e-14)
(-37.1121 -20.1494 -1.01609e-14)
(-36.5717 -19.652 0)
(-35.8059 -19.4807 0)
(-34.3409 -19.4698 0)
(-32.0141 -19.3035 -1.03688e-15)
(-33.6585 -18.8968 0)
(-34.2017 -24.7797 -2.80548e-15)
(-34.5463 -23.9705 -4.16252e-18)
(-34.9253 -23.1482 0)
(-35.2783 -22.3295 -3.9701e-18)
(-35.5538 -21.5526 0)
(-35.6967 -20.8883 0)
(-35.6733 -20.4065 2.75546e-15)
(-35.4997 -20.1833 -2.87777e-15)
(-35.1745 -20.312 2.83193e-15)
(-34.4457 -20.9498 0)
(-32.4726 -21.8451 -9.27646e-16)
(-35.7811 -22.8622 1.19303e-15)
(-32.8909 -24.2879 1.02699e-14)
(-33.2578 -23.3524 -2.47768e-15)
(-33.648 -22.4686 4.82332e-15)
(-34.0215 -21.6537 2.36988e-15)
(-34.3492 -20.9436 -7.07061e-15)
(-34.6118 -20.3873 0)
(-34.7849 -20.0813 -2.25865e-15)
(-34.8788 -20.0482 0)
(-34.9404 -20.4232 0)
(-34.7917 -21.3466 1.38195e-15)
(-33.5645 -22.882 3.76601e-19)
(-37.7863 -25.4403 1.40195e-18)
(-31.7031 -23.8656 -4.70802e-15)
(-32.0979 -22.8476 -2.99895e-18)
(-32.5112 -21.9171 0)
(-32.9241 -21.0856 0)
(-33.3239 -20.383 -6.45496e-15)
(-33.7047 -19.8529 4.29268e-15)
(-34.077 -19.556 4.34128e-15)
(-34.4584 -19.5575 2.23999e-15)
(-34.8654 -19.9701 -4.78221e-15)
(-35.3371 -20.9479 -1.3443e-15)
(-34.7685 -22.9 0)
(-39.4965 -26.3225 5.10231e-16)
(-30.5876 -23.5229 -8.84789e-15)
(-31.0286 -22.414 4.28118e-15)
(-31.4787 -21.4112 4.17621e-15)
(-31.9347 -20.5216 2.3161e-18)
(-32.4001 -19.7686 -4.72959e-18)
(-32.8872 -19.1888 -3.99067e-15)
(-33.4221 -18.8325 -5.98552e-15)
(-34.0438 -18.7597 -2.03136e-15)
(-34.7877 -19.0753 2.13123e-15)
(-35.7463 -19.9694 0)
(-35.9613 -21.9065 2.14793e-15)
(-40.944 -26.2018 -1.42664e-15)
(-29.555 -23.2523 8.41302e-15)
(-30.0298 -22.044 -4.09856e-15)
(-30.4992 -20.9516 -3.99835e-15)
(-30.9736 -19.9757 -7.82248e-15)
(-31.471 -19.1325 7.67854e-15)
(-32.0206 -18.4498 -2.13064e-18)
(-32.6691 -17.9649 1.1227e-14)
(-33.4808 -17.7286 1.87491e-15)
(-34.52 -17.8319 1.93797e-15)
(-35.9495 -18.475 0)
(-36.9635 -20.187 -1.28745e-15)
(-41.9323 -24.71 4.43935e-16)
(-28.5703 -23.0479 0)
(-29.0523 -21.7298 3.94765e-15)
(-29.5082 -20.5335 3.86502e-15)
(-29.9595 -19.4507 -3.78835e-15)
(-30.4385 -18.4887 -1.75937e-18)
(-30.991 -17.6643 -3.64092e-15)
(-31.6856 -16.9985 -3.57037e-15)
(-32.6163 -16.5242 0)
(-33.8859 -16.303 -1.78776e-15)
(-35.7291 -16.5212 -9.62831e-16)
(-37.5884 -17.7674 2.9095e-15)
(-42.477 -21.9864 -4.10147e-16)
(-27.5429 -22.8513 0)
(-28.0042 -21.4283 0)
(-28.4109 -20.1287 0)
(-28.7944 -18.9338 -1.1081e-14)
(-29.1995 -17.8426 7.23027e-15)
(-29.6889 -16.858 7.06665e-15)
(-30.3545 -15.9799 0)
(-31.3154 -15.2156 -3.37868e-15)
(-32.7177 -14.5802 0)
(-34.8757 -14.2143 -1.76646e-15)
(-37.3852 -14.6075 -5.26718e-16)
(-42.2999 -17.6983 -7.67078e-16)
(-26.3541 -22.5436 0)
(-26.7714 -21.052 0)
(-27.0931 -19.6772 7.31217e-15)
(-27.3656 -18.3876 1.07825e-14)
(-27.6482 -17.1783 4.16591e-18)
(-28.0175 -16.0398 3.44205e-15)
(-28.5883 -14.9487 -1.67738e-15)
(-29.4892 -13.8791 4.89648e-15)
(-30.9067 -12.7813 3.20498e-15)
(-33.2151 -11.7411 1.63842e-15)
(-36.0321 -10.8395 -9.61475e-16)
(-41.1353 -11.4598 -1.43414e-15)
(-24.9032 -21.9911 0)
(-25.2465 -20.4949 0)
(-25.4449 -19.0944 -7.04672e-15)
(-25.5649 -17.7508 3.4769e-15)
(-25.6877 -16.4592 -3.41158e-15)
(-25.9054 -15.1982 -3.33907e-15)
(-26.3475 -13.9273 3.26286e-15)
(-27.1236 -12.5894 0)
(-28.4414 -11.0574 -3.09518e-15)
(-30.5669 -9.31954 -1.54665e-15)
(-33.8396 -6.83703 1.28538e-15)
(-38.272 0.677735 1.13774e-19)
(-21.9121 1.34513 -2.01725e-19)
(-19.241 1.79845 0)
(-18.0066 3.14875 0)
(-16.6307 4.55085 -7.03212e-15)
(-16.0633 5.77555 1.05653e-14)
(-15.5139 6.97368 0)
(-15.3596 7.75833 0)
(-17.1875 9.64536 3.10493e-15)
(-15.293 17.1991 3.22039e-15)
(-14.853 28.6485 9.70452e-15)
(-19.5725 32.5301 1.64238e-14)
(-21.3737 35.0931 -3.03789e-15)
(-25.5619 -4.70184 -2.9601e-19)
(-22.4767 -2.67503 0)
(-22.4097 0.446416 0)
(-21.975 3.45764 -2.96088e-15)
(-22.1996 5.90993 5.99726e-15)
(-23.6239 8.99919 -1.83007e-14)
(-23.9961 15.2602 1.20692e-14)
(-25.6571 24.2195 2.80524e-15)
(-26.4359 29.9592 -5.06025e-15)
(-26.3408 32.0881 7.59018e-18)
(-27.2786 32.686 0)
(-27.2344 33.3232 -8.64481e-15)
(-28.7859 -4.25715 3.50438e-16)
(-25.5653 -1.72921 0)
(-26.0186 2.80609 0)
(-25.6951 7.08045 -2.01243e-18)
(-26.2406 12.0761 2.4019e-18)
(-27.4902 18.9795 -5.29002e-15)
(-28.3974 26.3098 0)
(-28.5953 31.111 -1.49767e-14)
(-27.9338 33.355 1.20663e-14)
(-26.9199 34.2039 -3.78975e-15)
(-26.3518 34.3456 -6.92112e-15)
(-25.6594 34.7728 9.96115e-15)
(-32.2647 -5.76222 1.29469e-15)
(-30.0015 -1.60113 1.20432e-15)
(-31.163 4.26573 0)
(-31.0372 10.3643 2.37028e-15)
(-31.4999 17.3676 -2.38467e-15)
(-31.6207 24.2653 4.7264e-15)
(-31.003 29.3443 0)
(-29.9282 31.7498 -4.1357e-15)
(-28.5388 32.8999 -1.04315e-14)
(-27.3933 33.381 6.51057e-15)
(-26.4926 33.5681 6.13868e-15)
(-25.6059 33.8833 -1.16785e-14)
(-34.7173 -3.16269 -5.97104e-16)
(-33.965 0.884106 -1.09599e-15)
(-35.3522 7.27294 2.15729e-15)
(-35.2942 14.0466 0)
(-35.0864 21.0202 -8.65495e-15)
(-34.0006 26.5136 8.36998e-15)
(-32.4008 29.5942 3.83817e-15)
(-30.6486 31.0112 3.52546e-15)
(-29.0276 31.6796 0)
(-27.5965 32.0135 0)
(-26.3942 32.2527 0)
(-25.2949 32.562 -7.75065e-18)
(-37.535 -2.00539 7.31397e-19)
(-37.5675 2.93243 0)
(-38.8833 9.56609 -1.97955e-15)
(-38.4893 16.1625 3.97117e-15)
(-37.3672 22.264 3.88643e-15)
(-35.3501 26.3213 -7.34792e-15)
(-33.142 28.5251 3.34568e-15)
(-31.0932 29.5977 -1.25422e-14)
(-29.2299 30.2411 -2.03844e-18)
(-27.6108 30.6515 -4.60289e-18)
(-26.2239 30.9838 2.97682e-18)
(-24.9845 31.3358 1.47231e-14)
(-39.6144 1.1132 5.14781e-16)
(-40.9591 5.42988 1.8585e-15)
(-41.6726 11.4408 -3.61857e-15)
(-40.8756 17.0906 -3.5726e-15)
(-38.8895 21.9328 -6.88813e-15)
(-36.3216 25.0575 -3.23615e-15)
(-33.7622 26.9137 -6.02333e-15)
(-31.4544 27.9978 1.12746e-14)
(-29.4231 28.7288 0)
(-27.6519 29.2662 1.00545e-14)
(-26.1137 29.7195 -1.43646e-14)
(-24.7487 30.1556 4.59111e-15)
(-42.0126 3.16892 -9.55364e-16)
(-43.8801 7.31789 -2.5342e-15)
(-43.8821 12.3306 4.83828e-15)
(-42.6564 16.8307 0)
(-40.136 20.6869 -2.99139e-15)
(-37.2464 23.4179 5.66213e-15)
(-34.423 25.2267 -2.86247e-18)
(-31.8989 26.4245 1.41318e-18)
(-29.6892 27.297 -4.88139e-15)
(-27.7619 27.9754 -9.3497e-15)
(-26.0789 28.5471 4.49225e-15)
(-24.5884 29.0666 -4.34039e-15)
(-43.6969 5.94028 -8.91085e-16)
(-46.3968 8.87509 0)
(-45.4851 12.52 0)
(-43.9657 15.9765 0)
(-41.2346 19.1515 2.58682e-15)
(-38.1801 21.6846 0)
(-35.1761 23.5499 -3.9525e-18)
(-32.4547 24.9125 9.31934e-15)
(-30.0565 25.9535 2.95274e-18)
(-27.9602 26.7771 4.37249e-15)
(-26.1251 27.4578 -4.25109e-15)
(-24.5016 28.0469 1.24202e-14)
(-46.6266 7.23672 -1.65593e-15)
(-48.3535 9.30586 3.35049e-15)
(-46.4292 11.8146 -1.2431e-15)
(-44.5049 14.6346 0)
(-41.69 17.3918 0)
(-38.6279 19.823 0)
(-35.601 21.7922 0)
(-32.8073 23.3473 4.31457e-15)
(-30.3054 24.5783 -1.69058e-14)
(-28.094 25.5581 -8.28793e-15)
(-26.1421 26.3494 8.12435e-15)
(-24.4081 27.0028 3.9884e-15)
(-46.9283 9.9628 -7.38076e-16)
(-48.0619 8.8723 -1.8817e-15)
(-45.339 10.3284 -1.15323e-15)
(-43.12 12.7032 0)
(-40.5057 15.222 0)
(-37.7501 17.6574 4.20926e-15)
(-35.0092 19.7906 -8.24967e-15)
(-32.4125 21.5662 1.62461e-14)
(-30.0201 23.0111 1.20176e-14)
(-27.8539 24.1672 7.90317e-15)
(-25.9029 25.0833 -7.7965e-15)
(-24.1438 25.8078 6.94089e-18)
(-43.8992 4.62187 -1.24242e-18)
(-43.1385 6.4826 0)
(-40.2794 7.74929 2.16986e-15)
(-38.5214 10.0958 -6.30451e-15)
(-36.7872 12.7004 6.10146e-15)
(-34.884 15.2649 3.74076e-18)
(-32.8731 17.5793 3.89333e-15)
(-30.8283 19.5632 -3.84398e-15)
(-28.8346 21.2108 -1.90491e-14)
(-26.9428 22.5385 0)
(-25.1705 23.5801 0)