/*--------------------------------*- C++ -*----------------------------------*\
| =========                 |                                                 |
| \\      /  F ield         | OpenFOAM: The Open Source CFD Toolbox           |
|  \\    /   O peration     | Version:  2212                                  |
|   \\  /    A nd           | Website:  www.openfoam.com                      |
|    \\/     M anipulation  |                                                 |
\*---------------------------------------------------------------------------*/
FoamFile
{
    version     2.0;
    format      ascii;
    arch        "LSB;label=32;scalar=64";
    class       volVectorField;
    location    "0.08";
    object      U;
}
// * * * * * * * * * * * * * * * * * * * * * * * * * * * * * * * * * * * * * //

dimensions      [0 1 -1 0 0 0 0];

internalField   nonuniform List<vector> 
3072
(
(0.35044 21.7238 0)
(0.950175 18.6827 0)
(2.65471 17.1407 4.52733e-19)
(4.06003 16.1419 -7.6017e-15)
(5.39764 15.4679 1.21908e-14)
(6.24522 15.4554 -5.69669e-15)
(7.74308 17.398 -2.70722e-15)
(14.7587 16.9263 -1.39318e-14)
(27.5706 15.6966 2.27028e-14)
(32.7577 21.5173 -8.48247e-15)
(35.1085 23.5913 5.59432e-15)
(38.7247 25.4285 2.65529e-15)
(-5.71107 25.6493 -3.32125e-16)
(-3.18814 22.139 -2.54505e-15)
(0.741004 22.5785 1.30177e-15)
(3.76742 22.2792 0)
(7.23737 24.1685 5.29799e-15)
(13.9895 24.9698 -7.85078e-15)
(23.2083 27.4038 0)
(29.5547 29.055 0)
(32.1668 28.9622 0)
(32.9097 29.9003 7.62472e-18)
(33.3678 30.0676 -1.17219e-14)
(34.7902 30.2256 5.20744e-18)
(-5.46496 29.1693 3.06659e-16)
(-1.58232 26.1785 0)
(4.25423 27.4718 0)
(10.3356 27.6833 -6.88072e-15)
(18.1121 29.5403 4.60976e-15)
(25.5052 30.7976 -6.82323e-15)
(30.3215 31.1805 8.63683e-15)
(32.9265 30.6483 0)
(34.1345 29.5131 0)
(34.4473 28.8522 -2.98138e-15)
(34.9182 28.1797 -2.84319e-15)
(35.6114 27.5207 8.32444e-15)
(-5.33139 32.7672 -1.12387e-15)
(0.303605 31.4637 -2.08827e-15)
(7.85505 33.3271 2.05819e-15)
(15.5014 33.6303 -2.07286e-15)
(22.7793 34.1701 8.15285e-15)
(27.8337 33.5354 -7.747e-15)
(30.6119 32.4977 -3.37487e-15)
(32.2963 31.0318 -8.9394e-15)
(33.061 29.7226 -2.21681e-18)
(33.3585 28.7005 5.24788e-15)
(33.7154 27.7623 4.97068e-15)
(34.0875 26.8521 -4.81578e-15)
(-1.52425 34.868 0)
(3.65227 35.3857 9.45385e-16)
(11.1528 36.8601 -1.85675e-15)
(18.4033 36.7278 3.68835e-15)
(24.3305 36.0344 4.13646e-18)
(27.7779 34.5017 3.19426e-15)
(29.8513 32.7867 2.87774e-15)
(30.8568 31.0972 2.7716e-15)
(31.3576 29.5396 -5.18474e-15)
(31.6755 28.2262 4.83517e-15)
(32.0246 27.0562 -6.83941e-15)
(32.4053 25.9779 8.6939e-15)
(0.496826 37.2044 -9.51442e-16)
(6.14088 38.151 8.61388e-16)
(13.1228 39.0714 3.33332e-15)
(19.4209 38.3882 0)
(24.1014 36.8794 -6.20298e-15)
(26.7969 34.8655 5.6067e-15)
(28.2977 32.8695 0)
(29.1588 30.9327 -4.97297e-15)
(29.6875 29.2063 4.64728e-15)
(30.0723 27.7105 0)
(30.4465 26.3852 2.41705e-18)
(30.8352 25.1898 3.9939e-15)
(3.49803 39.1213 0)
(8.32176 40.7494 -1.58622e-15)
(14.337 40.8495 1.5175e-15)
(19.4442 39.7078 0)
(23.0895 37.618 -2.75319e-15)
(25.2455 35.2631 4.17929e-18)
(26.5716 32.9732 4.80818e-15)
(27.4115 30.8535 4.51703e-15)
(27.997 28.9622 -4.2641e-15)
(28.4584 27.2972 4.0563e-15)
(28.8829 25.821 -3.88004e-15)
(29.3004 24.5002 -1.12163e-14)
(5.24061 41.4835 0)
(9.67447 43.2727 1.45707e-15)
(14.6606 42.5809 -2.74164e-15)
(18.6858 41.0085 2.60749e-15)
(21.6175 38.4671 0)
(23.5255 35.8025 -4.61721e-15)
(24.7992 33.2489 4.36797e-15)
(25.6868 30.915 9.10463e-19)
(26.3495 28.8287 -7.91334e-15)
(26.8825 26.9813 -3.79695e-15)
(27.3512 25.3431 -2.30323e-18)
(27.7888 23.8841 7.10518e-15)
(7.57287 43.0475 0)
(10.7192 45.6436 -1.34048e-15)
(14.3521 44.0791 -2.47105e-15)
(17.4279 42.1734 -2.3176e-15)
(19.856 39.3165 4.39012e-15)
(21.6512 36.3872 0)
(22.9599 33.5841 0)
(23.9336 31.0229 0)
(24.6812 28.7281 0)
(25.2775 26.6904 3.59703e-15)
(25.7788 24.8835 -3.50089e-15)
(26.2221 23.279 3.41636e-15)
(8.16946 46.1922 0)
(10.69 47.7822 1.17872e-15)
(13.179 45.1444 -3.36898e-18)
(15.6594 42.7062 2.09485e-15)
(17.7753 39.5874 2.008e-15)
(19.5202 36.4713 -3.85628e-15)
(20.8979 33.5124 0)
(21.9746 30.8018 -1.69932e-18)
(22.8149 28.3627 -1.06068e-14)
(23.477 26.1875 0)
(24.0118 24.2542 6.76387e-15)
(24.4597 22.537 -3.31441e-15)
(10.942 46.8176 0)
(9.88472 47.4524 1.09116e-15)
(11.1146 44.0213 4.0505e-15)
(13.1587 41.1693 -3.89072e-15)
(15.1176 38.0929 -5.63072e-15)
(16.8938 35.0921 9.0831e-15)
(18.3867 32.2623 -1.50508e-18)
(19.5961 29.6456 -3.46315e-15)
(20.5525 27.2608 3.38684e-15)
(21.3009 25.108 -6.65976e-15)
(21.8883 23.1748 -9.81433e-15)
(22.3583 21.4441 9.66222e-15)
(4.77849 43.286 -5.72915e-16)
(6.67449 41.9765 -4.1383e-15)
(7.80538 38.3798 9.51195e-16)
(9.8073 35.9404 0)
(11.872 33.6645 0)
(13.7859 31.4087 2.8427e-18)
(15.4241 29.1953 1.00887e-14)
(16.7717 27.0555 6.59825e-15)
(17.8468 25.0274 0)
(18.6887 23.1372 6.39856e-15)
(19.3408 21.3959 0)
(19.8488 19.8047 3.77015e-18)
(41.3282 25.0057 -1.86554e-14)
(43.7468 24.6364 8.056e-15)
(45.0499 23.1411 -8.14071e-15)
(45.9016 21.7266 -2.73321e-15)
(45.7233 19.789 -2.70238e-15)
(45.0869 17.8701 0)
(43.394 15.766 0)
(41.0427 13.7524 5.3526e-15)
(37.6739 11.7957 -5.40045e-15)
(33.407 9.69792 0)
(27.7871 6.354 0)
(25.3103 -0.101086 -3.70541e-16)
(35.7845 30.0913 6.96657e-15)
(37.0393 29.5514 0)
(38.1786 28.5515 -9.75772e-18)
(39.2588 27.18 3.37909e-15)
(40.0578 25.4983 1.69573e-15)
(40.393 23.769 6.91145e-15)
(40.1541 22.0918 -1.06916e-14)
(39.3323 20.6166 1.87219e-15)
(37.9472 19.4792 0)
(35.2636 18.5665 0)
(31.8655 17.4509 0)
(31.8721 14.2484 -4.03546e-23)
(36.2256 26.8033 2.7221e-15)
(36.9218 25.9918 -7.94652e-15)
(37.5864 25.0638 2.61838e-15)
(38.1325 24.078 5.24841e-15)
(38.4479 23.0917 -5.30805e-15)
(38.4656 22.1843 0)
(38.1466 21.4422 0)
(37.4877 20.9653 -1.59799e-18)
(36.5235 20.8889 1.60207e-15)
(34.8491 21.1021 0)
(32.2694 21.1648 0)
(33.5782 21.0268 0)
(34.469 25.9922 3.17078e-18)
(34.9525 25.1442 6.82113e-15)
(35.4347 24.2775 4.46495e-15)
(35.8549 23.4247 -4.43533e-15)
(36.1498 22.6434 0)
(36.2769 22.0098 2.25447e-15)
(36.2103 21.6135 0)
(35.9494 21.5021 3.74968e-15)
(35.5628 21.7949 -1.32731e-15)
(34.7617 22.6376 0)
(32.7208 23.8892 -7.75649e-16)
(35.7468 25.8094 -1.03248e-15)
(32.8208 24.9853 -4.17897e-15)
(33.2742 24.0533 0)
(33.7191 23.1811 0)
(34.1242 22.3943 0)
(34.4615 21.7363 0)
(34.7147 21.2746 -3.81629e-15)
(34.8646 21.0922 -1.31317e-18)
(34.9498 21.2226 -2.15156e-15)
(34.9546 21.8232 0)
(34.8496 23.0056 -1.17503e-15)
(33.5225 24.9074 7.31545e-16)
(37.5254 28.0046 9.52526e-16)
(31.2487 24.1071 -2.22976e-18)
(31.6851 23.1205 -7.50589e-15)
(32.1243 22.2339 3.67977e-15)
(32.5525 21.4686 6.44139e-20)
(32.9606 20.8609 2.13981e-18)
(33.3505 20.4622 5.44993e-15)
(33.7395 20.3331 -1.37089e-18)
(34.1485 20.5416 -5.74095e-15)
(34.5959 21.2062 -2.04749e-15)
(35.1284 22.5034 1.15177e-15)
(34.6769 24.8799 -1.38161e-15)
(39.2778 29.049 -4.4143e-16)
(29.7254 23.3152 1.08786e-14)
(30.1624 22.2533 3.53918e-15)
(30.6091 21.3164 0)
(31.0675 20.5202 0)
(31.5458 19.8929 2.02887e-18)
(32.0628 19.4751 -3.3908e-15)
(32.6496 19.3172 5.1193e-15)
(33.3459 19.4806 -1.17812e-18)
(34.1873 20.0733 1.83459e-15)
(35.2761 21.2878 0)
(35.6593 23.6142 -2.09834e-18)
(40.5878 28.5389 4.11161e-16)
(28.2151 22.583 -3.46217e-15)
(28.6436 21.4263 -3.38798e-15)
(29.0855 20.412 3.3345e-15)
(29.5563 19.5485 -3.28836e-15)
(30.0796 18.8549 -6.32898e-20)
(30.6897 18.3595 6.45975e-15)
(31.4354 18.0993 -3.21791e-15)
(32.3814 18.1253 1.62414e-15)
(33.5902 18.5281 0)
(35.2347 19.5112 9.20602e-16)
(36.5081 21.6364 5.57324e-16)
(41.5948 26.8618 -1.53555e-15)
(26.6343 21.8541 3.34472e-15)
(27.0378 20.5921 -3.28476e-15)
(27.4547 19.4851 -3.23314e-15)
(27.9122 18.5334 -6.38647e-15)
(28.4463 17.7446 6.31083e-15)
(29.1046 17.133 -6.24059e-15)
(29.9541 16.7176 0)
(31.0848 16.5295 -1.5387e-15)
(32.5939 16.6266 0)
(34.7254 17.1888 0)
(36.9079 18.8137 0)
(42.0388 23.6481 1.42782e-15)
(24.8543 21.0136 3.25581e-15)
(25.2256 19.6644 -6.4116e-15)
(25.6051 18.4758 6.32198e-15)
(26.0288 17.4399 6.24147e-15)
(26.5427 16.5527 3.08334e-15)
(27.204 15.8137 0)
(28.0946 15.2181 0)
(29.3252 14.7699 2.9688e-15)
(31.0332 14.4781 0)
(33.5502 14.472 -7.78923e-16)
(36.448 15.2111 4.62968e-16)
(41.7734 18.87 -2.00678e-15)
(22.7489 19.9 -6.34604e-15)
(23.0961 18.5243 6.25466e-15)
(23.4387 17.3013 -6.17603e-15)
(23.8189 16.2178 -1.52679e-14)
(24.2901 15.2597 -1.76683e-18)
(24.9149 14.4117 1.09571e-18)
(25.7858 13.6462 -2.94596e-15)
(27.0146 12.9333 -2.89562e-15)
(28.7778 12.209 0)
(31.4858 11.5444 2.19641e-15)
(34.7134 10.9379 4.25307e-16)
(40.3323 12.0493 -3.27501e-19)
(20.2517 18.3625 -3.64209e-18)
(20.5882 17.0586 0)
(20.9024 15.8804 0)
(21.2398 14.8139 2.98315e-15)
(21.6586 13.8413 8.86295e-15)
(22.2175 12.9364 -2.92406e-15)
(23.0177 12.0479 -1.59749e-18)
(24.1497 11.1173 -1.42381e-15)
(25.8145 9.99483 -1.39672e-15)
(28.3169 8.64275 -1.39586e-15)
(32.0499 6.35831 0)
(37.2679 -1.48076 5.5096e-16)
(21.7775 -0.641864 -3.82634e-16)
(18.8651 -1.15756 0)
(17.4051 -2.78046 -4.76468e-19)
(16.2892 -4.25896 0)
(15.7274 -5.52405 6.10769e-15)
(15.4238 -6.62945 -5.75188e-15)
(16.6948 -7.46952 0)
(17.739 -12.2258 -1.11756e-14)
(14.6453 -24.8847 1.99455e-14)
(19.6497 -31.9775 -1.41782e-14)
(22.5031 -34.0221 -2.83923e-15)
(24.2131 -37.7033 -2.66958e-15)
(25.5911 5.38542 -1.66357e-15)
(22.1892 3.03744 -1.27712e-15)
(22.5431 -0.693405 3.91219e-15)
(22.034 -3.74885 0)
(23.4953 -6.68036 -5.29321e-15)
(24.584 -11.9754 5.29754e-15)
(25.9935 -21.0468 0)
(28.3439 -28.314 4.58918e-15)
(28.0644 -31.6357 -1.28934e-14)
(28.9261 -32.7121 7.98638e-15)
(29.2325 -32.9316 8.06711e-15)
(29.3114 -34.3387 -1.11357e-14)
(28.9728 5.15281 3.06626e-16)
(25.9346 1.68609 0)
(26.9467 -3.72731 -2.28615e-15)
(26.9953 -9.153 0)
(28.3759 -16.118 0)
(29.9413 -23.9177 -4.60766e-15)
(30.351 -29.317 1.77087e-14)
(30.2191 -32.3795 -1.09553e-14)
(28.9283 -33.7807 3.43764e-15)
(28.1969 -34.2138 0)
(27.5328 -34.5693 5.90688e-15)
(26.8322 -35.2405 -2.84145e-15)
(32.6343 5.59567 -1.12722e-15)
(31.0088 0.396315 1.04919e-15)
(32.6819 -6.68449 2.06415e-15)
(32.8889 -13.9948 4.16502e-15)
(33.4628 -21.4082 -4.13813e-15)
(33.0802 -27.0727 -3.9848e-15)
(32.0403 -30.2161 0)
(30.708 -31.918 0)
(29.301 -32.8136 2.91774e-15)
(28.2265 -33.1557 0)
(27.2731 -33.4677 4.09554e-18)
(26.3447 -33.8613 2.47668e-15)
(34.7845 2.04027 1.54953e-15)
(35.0502 -2.79044 -9.52575e-16)
(36.5447 -10.0538 -1.8783e-15)
(36.4768 -17.27 0)
(35.91 -23.5607 0)
(34.439 -27.3857 3.33717e-15)
(32.6545 -29.5189 0)
(30.9257 -30.6318 -5.74848e-15)
(29.2995 -31.18 -2.70616e-15)
(27.9173 -31.5091 5.05146e-15)
(26.7049 -31.8365 -7.14662e-15)
(25.5905 -32.2088 4.54006e-15)
(37.3059 0.272357 -6.30665e-19)
(38.0508 -5.21587 -8.70675e-16)
(39.1312 -12.1566 1.69617e-15)
(38.5323 -18.5687 1.81782e-18)
(37.0723 -23.5629 3.20321e-15)
(35.002 -26.4503 -5.82973e-15)
(32.9303 -28.0277 5.54696e-15)
(30.9222 -28.96 4.87741e-18)
(29.1109 -29.5294 0)
(27.5388 -29.9305 0)
(26.1567 -30.3042 8.68803e-15)
(24.9136 -30.6961 4.79728e-19)
(39.2641 -2.85468 -8.88078e-16)
(40.8551 -7.52336 -8.02745e-16)
(41.1364 -13.559 0)
(40.0777 -18.7636 -2.98683e-15)
(37.9843 -22.6153 2.83323e-15)
(35.5565 -24.9084 7.95086e-15)
(33.1874 -26.316 4.97232e-15)
(30.985 -27.225 6.67486e-18)
(29.0066 -27.8555 -8.85918e-15)
(27.2626 -28.3464 4.21525e-15)
(25.7199 -28.7908 4.04526e-15)
(24.3412 -29.2297 2.39923e-18)
(41.647 -4.66979 -5.39695e-19)
(43.4783 -9.02184 1.47002e-15)
(42.9703 -14.0221 0)
(41.4914 -18.1005 -2.6543e-15)
(38.954 -21.1748 -2.50549e-15)
(36.2347 -23.1993 4.49422e-18)
(33.6087 -24.5601 -8.98589e-15)
(31.1919 -25.5213 3.35797e-18)
(29.0189 -26.2411 -2.29925e-18)
(27.0893 -26.8194 3.94071e-15)
(25.3767 -27.3272 -3.80192e-15)
(23.8494 -27.8044 2.04092e-18)
(43.2014 -7.18471 -3.87417e-16)
(45.8982 -10.2325 6.72265e-16)
(44.5068 -13.8495 -3.74389e-15)
(42.7192 -16.948 2.35132e-15)
(39.8975 -19.4673 0)
(36.9438 -21.3578 0)
(34.0839 -22.7516 4.10948e-15)
(31.448 -23.8038 7.9273e-15)
(29.0694 -24.6209 -3.83617e-15)
(26.9473 -25.2788 -3.7241e-15)
(25.0594 -25.8374 -3.62942e-15)
(23.3765 -26.3379 0)
(46.3751 -7.9336 -7.20241e-16)
(48.0257 -10.3569 1.77778e-15)
(45.5796 -12.8014 4.44525e-15)
(43.2786 -15.2779 0)
(40.2253 -17.446 4.09066e-15)
(37.1152 -19.2641 0)
(34.1239 -20.7241 2.56031e-18)
(31.3567 -21.8865 -3.73375e-15)
(28.8448 -22.8101 3.65392e-15)
(26.5886 -23.551 0)
(24.5712 -24.1608 0)
(22.768 -24.6825 -6.88324e-15)
(46.8871 -10.854 1.91243e-23)
(47.738 -9.68255 1.10378e-15)
(44.4604 -10.8839 3.08548e-18)
(41.7401 -12.8868 -3.96487e-15)
(38.7418 -14.8484 -1.9172e-15)
(35.7767 -16.6781 -1.86328e-15)
(32.9462 -18.2529 -3.64041e-15)
(30.3002 -19.556 -1.07008e-14)
(27.8625 -20.6087 -3.49882e-15)
(25.6387 -21.451 -6.8903e-15)
(23.6224 -22.1288 6.7824e-15)
(21.8007 -22.6864 6.67641e-15)
(43.5121 -4.80916 -1.15052e-15)
(42.3185 -6.63433 -5.20509e-16)
(38.8583 -7.63053 2.60791e-18)
(36.4918 -9.57613 3.74949e-15)
(34.3039 -11.6457 0)
(32.1131 -13.619 -3.54076e-15)
(29.933 -15.3463 3.46649e-15)
(27.7931 -16.7953 3.40499e-15)
(25.7333 -17.9749 -1.00805e-14)
(23.7834 -18.919 6.62542e-15)
(21.9607 -19.6707 -6.54101e-15)
(20.2736 -20.2741 0)
(24.0964 -40.3323 8.04483e-15)
(23.7095 -42.7845 -2.1623e-14)
(22.4129 -44.1567 5.44416e-15)
(21.0188 -45.0445 1.37449e-14)
(19.2582 -44.9181 -1.36128e-14)
(17.3842 -44.3394 2.70189e-15)
(15.4175 -42.7249 -1.38829e-18)
(13.4473 -40.4507 -2.68849e-15)
(11.5718 -37.1856 -5.42538e-15)
(9.50967 -33.0444 0)
(6.1748 -27.5168 0)
(-0.178434 -25.1422 -5.5491e-16)
(29.3263 -35.2431 -1.09152e-19)
(28.8255 -36.4612 7.02519e-15)
(27.9134 -37.5675 -9.69733e-18)
(26.6128 -38.6331 0)
(24.9692 -39.4644 5.25959e-15)
(23.2801 -39.8388 0)
(21.6405 -39.6531 3.65866e-15)
(20.2016 -38.8881 5.74527e-15)
(19.1057 -37.5712 -4.0984e-15)
(18.2188 -34.9991 0)
(17.0726 -31.6449 0)
(13.5995 -31.7503 -4.64447e-20)
(26.1331 -35.836 2.8138e-15)
(25.3416 -36.5177 -2.75485e-15)
(24.4437 -37.1662 2.72383e-15)
(23.4882 -37.7179 0)
(22.5361 -38.0503 -2.75472e-15)
(21.6587 -38.0954 5.64806e-15)
(20.9474 -37.8124 -7.35032e-15)
(20.4926 -37.1974 -7.77413e-15)
(20.4353 -36.3008 4.89043e-15)
(20.6439 -34.7134 0)
(20.6771 -32.168 8.99542e-16)
(20.4909 -33.5688 1.02335e-20)
(25.4736 -34.1991 2.43675e-15)
(24.6241 -34.6524 -4.74968e-15)
(23.7633 -35.1242 4.65727e-15)
(22.9157 -35.5509 -4.6206e-15)
(22.1374 -35.8658 0)
(21.5035 -36.0238 2.32534e-15)
(21.1152 -35.9945 2.40006e-15)
(20.9939 -35.7819 1.28639e-15)
(21.283 -35.4377 -2.69283e-15)
(22.1362 -34.6862 0)
(23.3482 -32.6315 -7.95106e-16)
(25.0882 -35.7431 1.2965e-15)
(24.5727 -32.6058 4.368e-15)
(23.622 -33.0583 -2.12215e-15)
(22.7338 -33.5137 0)
(21.9323 -33.9387 0)
(21.2601 -34.3032 2.04883e-15)
(20.7814 -34.5907 -1.98437e-15)
(20.5891 -34.7722 -2.50251e-18)
(20.7066 -34.894 0)
(21.2996 -34.934 -1.19319e-15)
(22.4865 -34.8502 1.2005e-15)
(24.3591 -33.5347 -1.49285e-15)
(27.3811 -37.604 0)
(23.7943 -31.1131 -8.04189e-15)
(22.7765 -31.5648 3.91262e-15)
(21.8604 -32.0277 7.67164e-15)
(21.0662 -32.486 4.90383e-20)
(20.43 -32.9279 -9.41058e-15)
(20.0031 -33.352 -3.77759e-15)
(19.8485 -33.7732 -2.35999e-18)
(20.0335 -34.2099 0)
(20.6814 -34.6742 0)
(21.966 -35.2284 -1.18239e-15)
(24.3307 -34.7174 -7.03279e-16)
(28.434 -39.3829 4.4326e-16)
(23.1068 -29.679 3.77983e-15)
(22 -30.1477 -7.37714e-15)
(21.0204 -30.6312 -3.61502e-15)
(20.1824 -31.1292 -1.91076e-18)
(19.5141 -31.6473 3.53132e-15)
(19.0572 -32.2012 3.51838e-15)
(18.8649 -32.8187 1.76957e-15)
(19.0004 -33.5363 1.80423e-15)
(19.5766 -34.3829 -1.89492e-15)
(20.7887 -35.4697 0)
(23.1216 -35.7831 1.25746e-15)
(28.0684 -40.756 -8.26367e-16)
(22.4859 -28.2729 0)
(21.271 -28.7477 3.52645e-15)
(20.2008 -29.238 0)
(19.2833 -29.7569 -1.89853e-18)
(18.5373 -30.3249 -4.77149e-20)
(17.9928 -30.9732 6.70337e-15)
(17.6902 -31.7468 -1.66649e-15)
(17.6847 -32.7064 -3.35977e-15)
(18.0732 -33.9065 -1.73531e-15)
(19.0621 -35.5263 9.45773e-16)
(21.2049 -36.7051 -1.70666e-15)
(26.5262 -41.794 7.70429e-16)
(21.8761 -26.8086 3.47845e-15)
(20.542 -27.2718 -3.4163e-15)
(19.366 -27.7478 -3.36436e-15)
(18.3481 -28.2606 3.31834e-15)
(17.496 -28.843 3.27589e-15)
(16.826 -29.5394 -9.711e-15)
(16.3613 -30.4123 0)
(16.1396 -31.5483 1.59144e-15)
(16.2274 -33.0353 1.61403e-15)
(16.8121 -35.1211 0)
(18.4937 -37.2065 1.55175e-15)
(23.5156 -42.2721 -3.59248e-16)
(21.1574 -25.1503 0)
(19.7231 -25.5941 -6.66142e-15)
(18.4527 -26.0425 -3.28574e-15)
(17.3389 -26.5277 -6.4765e-15)
(16.3782 -27.0921 3.19836e-15)
(15.5726 -27.7898 3.15532e-15)
(14.922 -28.6972 0)
(14.438 -29.9215 0)
(14.1417 -31.5904 0)
(14.1693 -34.0395 0)
(15.0129 -36.8407 -4.71033e-16)
(18.9677 -42.0258 -6.71285e-16)
(20.1595 -23.1635 3.29121e-15)
(18.6874 -23.5949 3.24311e-15)
(17.3717 -24.0151 1.28133e-14)
(16.2003 -24.4614 3.16601e-15)
(15.1599 -24.9839 1.25106e-14)
(14.2387 -25.6413 -3.08944e-15)
(13.4139 -26.5191 -3.04554e-15)
(12.665 -27.7252 0)
(11.9411 -29.4268 -2.94771e-15)
(11.3228 -32.0425 -1.50149e-15)
(10.8631 -35.1539 -8.6441e-16)
(12.4021 -40.5927 0)
(18.7242 -20.7726 0)
(17.313 -21.2022 0)
(16.0326 -21.6013 -1.24821e-14)
(14.8708 -22.0084 -9.2549e-15)
(13.8103 -22.4769 -3.04975e-15)
(12.8278 -23.0592 0)
(11.881 -23.8484 2.98303e-15)
(10.917 -24.9282 0)
(9.8 -26.4916 -1.66224e-18)
(8.50237 -28.8647 1.42934e-15)
(6.4166 -32.4593 3.8656e-16)
(-0.911345 -37.3874 -1.63707e-19)
(-0.350468 -21.7238 -1.90867e-16)
(-0.950187 -18.6827 -2.98191e-15)
(-2.65471 -17.1407 3.04015e-15)
(-4.06004 -16.1419 -3.04165e-15)
(-5.39765 -15.4679 0)
(-6.24524 -15.4554 2.84964e-15)
(-7.74302 -17.3979 0)
(-14.7584 -16.9264 2.78822e-15)
(-27.5704 -15.6965 -8.5077e-15)
(-32.7577 -21.5172 8.49052e-15)
(-35.1085 -23.5912 1.67612e-14)
(-38.7247 -25.4284 -5.28147e-15)
(5.71105 -25.6493 0)
(3.18814 -22.139 -2.54505e-15)
(-0.740997 -22.5785 2.6026e-15)
(-3.76742 -22.2792 2.60821e-15)
(-7.23731 -24.1684 -5.29799e-15)
(-13.9893 -24.9698 -7.7934e-19)
(-23.2081 -27.4037 -4.91546e-15)
(-29.5546 -29.055 -1.11161e-14)
(-32.1669 -28.9621 1.29744e-14)
(-32.9097 -29.9003 -4.04308e-15)
(-33.3678 -30.0675 8.8176e-18)
(-34.7903 -30.2256 5.52216e-18)
(5.46495 -29.1692 0)
(1.58236 -26.1784 0)
(-4.25415 -27.4717 0)
(-10.3354 -27.6831 -2.29447e-15)
(-18.1119 -29.5401 0)
(-25.5051 -30.7975 -2.27853e-15)
(-30.3215 -31.1804 4.31675e-15)
(-32.9265 -30.6483 7.05534e-15)
(-34.1346 -29.5131 -3.30471e-15)
(-34.4474 -28.8521 -5.96038e-15)
(-34.9182 -28.1797 -8.53384e-15)
(-35.6114 -27.5206 8.32446e-15)
(5.33147 -32.7671 0)
(-0.30348 -31.4636 -1.04466e-15)
(-7.85488 -33.327 2.05983e-15)
(-15.5012 -33.6302 2.06871e-15)
(-22.7792 -34.17 0)
(-27.8338 -33.5353 -7.75423e-15)
(-30.6119 -32.4977 6.74187e-15)
(-32.2963 -31.0317 0)
(-33.061 -29.7225 5.5965e-15)
(-33.3586 -28.7005 -7.87011e-15)
(-33.7154 -27.7623 4.96674e-15)
(-34.0875 -26.8521 4.13304e-18)
(1.52438 -34.868 -6.14494e-23)
(-3.65211 -35.3856 1.89221e-15)
(-11.1527 -36.86 3.02422e-18)
(-18.4032 -36.7277 0)
(-24.3305 -36.0344 -3.54922e-15)
(-27.778 -34.5017 6.3905e-15)
(-29.8513 -32.7866 0)
(-30.8569 -31.0972 -2.77621e-15)
(-31.3576 -29.5396 -2.59494e-15)
(-31.6755 -28.2262 4.83519e-15)
(-32.0247 -27.0562 0)
(-32.4053 -25.9779 -4.34229e-15)
(-0.496654 -37.2045 4.75389e-16)
(-6.14072 -38.151 1.8983e-18)
(-13.1227 -39.0714 -1.66531e-15)
(-19.4209 -38.3882 -6.53591e-15)
(-24.1015 -36.8795 -1.79885e-18)
(-26.797 -34.8655 5.60672e-15)
(-28.2978 -32.8695 0)
(-29.1589 -30.9327 7.45995e-15)
(-29.6875 -29.2063 -4.64859e-15)
(-30.0723 -27.7105 4.37839e-15)
(-30.4466 -26.3852 2.41707e-18)
(-30.8352 -25.1898 -4.48414e-19)
(-3.49788 -39.1214 -1.32818e-15)
(-8.32162 -40.7494 -7.91352e-16)
(-14.3369 -40.8496 0)
(-19.4442 -39.7078 5.83557e-15)
(-23.0896 -37.618 -8.25951e-15)
(-25.2456 -35.2631 -1.29446e-18)
(-26.5716 -32.9732 -9.62085e-15)
(-27.4116 -30.8535 3.94177e-18)
(-27.9971 -28.9622 -4.26412e-15)
(-28.4584 -27.2972 -4.05632e-15)
(-28.8829 -25.821 3.88554e-15)
(-29.3004 -24.5001 -3.73943e-15)
(-5.24048 -41.4835 1.23803e-15)
(-9.67438 -43.2728 -7.28977e-16)
(-14.6605 -42.581 0)
(-18.6858 -41.0086 2.6075e-15)
(-21.6176 -38.4671 2.45062e-15)
(-23.5255 -35.8025 2.30739e-15)
(-24.7992 -33.2489 -3.72651e-18)
(-25.6868 -30.915 -9.1047e-19)
(-26.3495 -28.8287 -3.95966e-15)
(-26.8825 -26.9813 -4.87491e-18)
(-27.3513 -25.3431 2.05279e-18)
(-27.7888 -23.8841 0)
(-7.57278 -43.0476 3.86152e-16)
(-10.7192 -45.6436 0)
(-14.3521 -44.0792 0)
(-17.4279 -42.1735 -2.31761e-15)
(-19.856 -39.3165 2.19189e-15)
(-21.6513 -36.3872 -4.17954e-15)
(-22.9599 -33.5841 0)
(-23.9337 -31.0229 3.84471e-15)
(-24.6813 -28.7281 -1.99331e-18)
(-25.2776 -26.6904 3.59704e-15)
(-25.7788 -24.8835 -3.50253e-15)
(-26.2221 -23.279 6.83593e-15)
(-8.16942 -46.1922 -2.4057e-19)
(-10.69 -47.7822 -5.89577e-16)
(-13.179 -45.1444 -2.20518e-15)
(-15.6594 -42.7063 -4.18758e-15)
(-17.7753 -39.5874 0)
(-19.5203 -36.4714 3.85151e-15)
(-20.8979 -33.5125 -7.46334e-15)
(-21.9747 -30.8018 3.62385e-15)
(-22.815 -28.3627 3.53788e-15)
(-23.477 -26.1875 0)
(-24.0118 -24.2542 -3.38498e-15)
(-24.4598 -22.537 -6.62583e-15)
(-10.942 -46.8176 -6.40952e-16)
(-9.8847 -47.4525 5.44889e-16)
(-11.1146 -44.0214 2.02374e-15)
(-13.1587 -41.1693 1.94371e-15)
(-15.1176 -38.0929 -3.95494e-19)
(-16.8938 -35.0922 -5.45221e-15)
(-18.3868 -32.2623 7.07331e-15)
(-19.5961 -29.6456 1.38356e-14)
(-20.5526 -27.2608 -1.0167e-14)
(-21.3009 -25.108 -6.65978e-15)
(-21.8883 -23.1748 6.54204e-15)
(-22.3583 -21.4441 0)
(-4.7785 -43.286 1.14427e-15)
(-6.67449 -41.9765 5.19043e-16)
(-7.80537 -38.3798 9.48656e-16)
(-9.8073 -35.9405 3.6726e-15)
(-11.872 -33.6646 0)
(-13.786 -31.4087 3.43894e-15)
(-15.4241 -29.1953 -6.72752e-15)
(-16.7717 -27.0555 -3.2979e-15)
(-17.8468 -25.0274 -3.24741e-15)
(-18.6888 -23.1372 6.39857e-15)
(-19.3408 -21.3959 3.15975e-15)
(-19.8488 -19.8047 9.35685e-15)
(-41.3282 -25.0057 -2.66347e-15)
(-43.7468 -24.6364 2.6971e-15)
(-45.0499 -23.141 -8.13091e-15)
(-45.9016 -21.7266 2.44995e-14)
(-45.7233 -19.789 -1.07865e-14)
(-45.0869 -17.8701 0)
(-43.394 -15.766 -5.33414e-15)
(-41.0427 -13.7524 4.01055e-15)
(-37.6739 -11.7957 0)
(-33.407 -9.69792 9.14364e-19)
(-27.7871 -6.354 0)
(-25.3103 0.101086 3.70541e-16)
(-35.7845 -30.0913 -1.39448e-14)
(-37.0393 -29.5514 6.81913e-15)
(-38.1786 -28.5515 6.75711e-15)
(-39.2588 -27.18 -3.38371e-15)
(-40.0579 -25.4983 0)
(-40.393 -23.769 0)
(-40.1541 -22.0918 3.56459e-15)
(-39.3324 -20.6166 -3.74671e-15)
(-37.9472 -19.4792 0)
(-35.2636 -18.5665 1.03398e-15)
(-31.8655 -17.4509 -2.47823e-19)
(-31.8721 -14.2484 -1.35474e-15)
(-36.2256 -26.8033 2.7225e-15)
(-36.9218 -25.9918 -5.29691e-15)
(-37.5865 -25.0638 0)
(-38.1325 -24.078 -5.24839e-15)
(-38.4479 -23.0917 -5.30898e-15)
(-38.4657 -22.1843 1.0895e-14)
(-38.1466 -21.4422 -8.53032e-15)
(-37.4877 -20.9654 0)
(-36.5235 -20.8889 0)
(-34.8491 -21.1021 0)
(-32.2694 -21.1648 -8.85674e-16)
(-33.5782 -21.0268 0)
(-34.4691 -25.9922 -2.34476e-15)
(-34.9526 -25.1442 -3.62174e-18)
(-35.4347 -24.2775 0)
(-35.8549 -23.4247 -3.39982e-18)
(-36.1498 -22.6434 0)
(-36.2769 -22.0098 0)
(-36.2103 -21.6135 2.33391e-15)
(-35.9494 -21.5021 -2.49913e-15)
(-35.5628 -21.7949 2.65612e-15)
(-34.7617 -22.6376 0)
(-32.7208 -23.8892 -7.7565e-16)
(-35.7468 -25.8094 1.03248e-15)
(-32.8209 -24.9853 8.36732e-15)
(-33.2743 -24.0533 -2.03328e-15)
(-33.7191 -23.1811 3.98696e-15)
(-34.1242 -22.3943 1.97313e-15)
(-34.4615 -21.7363 -5.89549e-15)
(-34.7147 -21.2746 0)
(-34.8646 -21.0922 -1.96916e-15)
(-34.9498 -21.2226 0)
(-34.9546 -21.8232 0)
(-34.8496 -23.0056 1.17503e-15)
(-33.5225 -24.9074 3.94235e-19)
(-37.5254 -28.0046 1.27482e-18)
(-31.2487 -24.1071 -3.85148e-15)
(-31.6851 -23.1205 -2.38262e-18)
(-32.1243 -22.2339 0)
(-32.5525 -21.4686 0)
(-32.9606 -20.8609 -5.43144e-15)
(-33.3505 -20.4622 3.63417e-15)
(-33.7395 -20.3331 3.69415e-15)
(-34.1485 -20.5416 1.91342e-15)
(-34.596 -21.2063 -4.09384e-15)
(-35.1284 -22.5034 -1.15177e-15)
(-34.6769 -24.8799 0)
(-39.2778 -29.049 4.4143e-16)
(-29.7254 -23.3152 -7.25606e-15)
(-30.1624 -22.2533 3.53518e-15)
(-30.6091 -21.3164 3.47387e-15)
(-31.0675 -20.5202 1.87569e-18)
(-31.5458 -19.8929 -3.89202e-18)
(-32.0628 -19.4751 -3.39269e-15)
(-32.6496 -19.3172 -5.11832e-15)
(-33.3459 -19.4806 -1.74448e-15)
(-34.1873 -20.0733 1.83459e-15)
(-35.2761 -21.2879 0)
(-35.6593 -23.6142 1.85606e-15)
(-40.5878 -28.5389 -1.23491e-15)
(-28.2151 -22.583 6.92256e-15)
(-28.6436 -21.4263 -3.39338e-15)
(-29.0855 -20.412 -3.33451e-15)
(-29.5563 -19.5485 -6.57489e-15)
(-30.0796 -18.8549 6.5058e-15)
(-30.6897 -18.3595 -1.87355e-18)
(-31.4354 -18.0993 9.65931e-15)
(-32.3814 -18.1253 1.62215e-15)
(-33.5902 -18.5282 1.68145e-15)
(-35.2347 -19.5112 0)
(-36.5081 -21.6364 -1.11635e-15)
(-41.5948 -26.8618 3.84039e-16)
(-26.6343 -21.8541 0)
(-27.0378 -20.5921 3.28314e-15)
(-27.4547 -19.4851 3.23315e-15)
(-27.9122 -18.5334 -3.19259e-15)
(-28.4463 -17.7446 -1.43251e-18)
(-29.1046 -17.133 -3.12258e-15)
(-29.9541 -16.7176 -3.0896e-15)
(-31.0848 -16.5295 0)
(-32.5939 -16.6266 -1.56421e-15)
(-34.7254 -17.1888 -8.41673e-16)
(-36.9079 -18.8137 2.53902e-15)
(-42.0388 -23.6482 -3.55533e-16)
(-24.8543 -21.0136 0)
(-25.2256 -19.6644 0)
(-25.6051 -18.4757 0)
(-26.0288 -17.4399 -9.36332e-15)
(-26.5427 -16.5527 6.16641e-15)
(-27.204 -15.8137 6.09035e-15)
(-28.0946 -15.2181 0)
(-29.3252 -14.7699 -2.96881e-15)
(-31.0332 -14.4781 0)
(-33.5502 -14.472 -1.55812e-15)
(-36.448 -15.2111 -4.62916e-16)
(-41.7734 -18.87 -6.66894e-16)
(-22.7489 -19.9 0)
(-23.0961 -18.5243 0)
(-23.4387 -17.3013 6.1803e-15)
(-23.8189 -16.2178 9.15874e-15)
(-24.2901 -15.2597 3.08718e-18)
(-24.9149 -14.4117 2.98645e-15)
(-25.7858 -13.6462 -1.47272e-15)
(-27.0146 -12.9334 4.34389e-15)
(-28.7778 -12.209 2.862e-15)
(-31.4858 -11.5444 1.46269e-15)
(-34.7134 -10.9379 -8.50596e-16)
(-40.3323 -12.0493 -1.24719e-15)
(-20.2517 -18.3625 0)
(-20.5882 -17.0586 0)
(-20.9024 -15.8804 -6.02909e-15)
(-21.2398 -14.8139 2.9865e-15)
(-21.6586 -13.8413 -2.95321e-15)
(-22.2175 -12.9364 -2.92407e-15)
(-23.0177 -12.0479 2.89267e-15)
(-24.1497 -11.1173 0)
(-25.8145 -9.99484 -2.79305e-15)
(-28.3169 -8.64276 -1.39658e-15)
(-32.0499 -6.35832 1.14736e-15)
(-37.2679 1.48075 2.08462e-19)
(-21.7775 0.641865 -1.64611e-19)
(-18.8651 1.15756 0)
(-17.4051 2.78046 0)
(-16.2892 4.25897 -6.09089e-15)
(-15.7274 5.52405 9.16265e-15)
(-15.4238 6.62945 0)
(-16.6948 7.46952 0)
(-17.739 12.2258 2.79559e-15)
(-14.6453 24.8846 2.85553e-15)
(-19.6497 31.9775 8.51502e-15)
(-22.5031 34.0221 1.41482e-14)
(-24.2131 37.7033 -2.65198e-15)
(-25.5911 -5.38542 -2.47393e-19)
(-22.1892 -3.03744 0)
(-22.5431 0.693404 0)
(-22.034 3.74885 -2.61097e-15)
(-23.4953 6.68036 5.29516e-15)
(-24.584 11.9754 -1.58951e-14)
(-25.9935 21.0468 1.0061e-14)
(-28.3439 28.314 2.2979e-15)
(-28.0644 31.6357 -4.29132e-15)
(-28.9261 32.7121 7.1547e-18)
(-29.2325 32.9316 0)
(-29.3114 34.3387 -7.41391e-15)
(-28.9728 -5.15281 3.06626e-16)
(-25.9346 -1.6861 0)
(-26.9467 3.72731 0)
(-26.9952 9.153 -2.16902e-18)
(-28.3758 16.118 2.6731e-18)
(-29.9413 23.9177 -4.61309e-15)
(-30.351 29.317 0)
(-30.2191 32.3795 -1.09594e-14)
(-28.9283 33.7807 1.03194e-14)
(-28.1969 34.2138 -3.08405e-15)
(-27.5328 34.5693 -5.9066e-15)
(-26.8322 35.2405 8.51555e-15)
(-32.6343 -5.59567 1.12722e-15)
(-31.0088 -0.39632 1.04919e-15)
(-32.6819 6.68448 0)
(-32.8889 13.9948 2.08061e-15)
(-33.4628 21.4082 -2.06791e-15)
(-33.0802 27.0727 3.9848e-15)
(-32.0403 30.2161 0)
(-30.708 31.918 -3.07743e-15)
(-29.301 32.8136 -8.74457e-15)
(-28.2265 33.1557 5.46883e-15)
(-27.2731 33.4677 5.18067e-15)
(-26.3447 33.8613 -9.91789e-15)
(-34.7845 -2.04027 -5.15917e-16)
(-35.0502 2.79043 -9.53119e-16)
(-36.5447 10.0538 1.8783e-15)
(-36.4768 17.27 0)
(-35.91 23.5607 -7.30842e-15)
(-34.439 27.3857 6.67042e-15)
(-32.6545 29.5189 3.13461e-15)
(-30.9257 30.6318 2.87116e-15)
(-29.2995 31.18 0)
(-27.9173 31.5091 0)
(-26.7049 31.8365 0)
(-25.5905 32.2088 -6.55233e-18)
(-37.3059 -0.272361 6.30665e-19)
(-38.0508 5.21587 0)
(-39.1312 12.1566 -1.69617e-15)
(-38.5323 18.5687 3.3523e-15)
(-37.0723 23.5629 3.20301e-15)
(-35.002 26.4503 -5.82973e-15)
(-32.9303 28.0277 2.7738e-15)
(-30.9222 28.96 -1.03428e-14)
(-29.1109 29.5294 -1.40193e-18)
(-27.5388 29.9305 -3.61916e-18)
(-26.1567 30.3042 2.49958e-18)
(-24.9136 30.6961 1.24874e-14)
(-39.2641 2.85468 4.44606e-16)
(-40.8551 7.52335 1.60426e-15)
(-41.1364 13.559 -3.08663e-15)
(-40.0777 18.7636 -2.98683e-15)
(-37.9843 22.6153 -5.66034e-15)
(-35.5565 24.9084 -2.65439e-15)
(-33.1874 26.316 -4.96962e-15)
(-30.985 27.225 9.35356e-15)
(-29.0066 27.8555 0)
(-27.2626 28.3464 8.431e-15)
(-25.7199 28.7908 -1.212e-14)
(-24.3412 29.2297 3.89858e-15)
(-41.647 4.66978 -8.26821e-16)
(-43.4783 9.02184 -2.20593e-15)
(-42.9703 14.0221 4.17179e-15)
(-41.4914 18.1005 0)
(-38.954 21.1748 -2.50938e-15)
(-36.2347 23.1993 4.73526e-15)
(-33.6087 24.5601 -2.36764e-18)
(-31.1919 25.5213 9.68048e-19)
(-29.0189 26.2411 -4.09594e-15)
(-27.0893 26.8194 -7.87678e-15)
(-25.3767 27.3272 3.80384e-15)
(-23.8494 27.8044 -3.69562e-15)
(-43.2014 7.18471 -7.73418e-16)
(-45.8982 10.2325 0)
(-44.5068 13.8495 0)
(-42.7192 16.948 0)
(-39.8975 19.4673 2.23352e-15)
(-36.9438 21.3578 0)
(-34.0839 22.7516 -3.13867e-18)
(-31.448 23.8038 7.9247e-15)
(-29.0694 24.6209 2.25636e-18)
(-26.9473 25.2788 3.7241e-15)
(-25.0594 25.8374 -3.63142e-15)
(-23.3765 26.3379 1.06519e-14)
(-46.3751 7.93359 -1.44074e-15)
(-48.0257 10.3569 2.96579e-15)
(-45.5796 12.8014 -1.1111e-15)
(-43.2786 15.2779 0)
(-40.2253 17.446 0)
(-37.1152 19.264 0)
(-34.1239 20.7241 0)
(-31.3567 21.8865 3.73625e-15)
(-28.8448 22.8101 -1.46031e-14)
(-26.5886 23.551 -7.14876e-15)
(-24.5712 24.1608 7.0092e-15)
(-22.768 24.6825 3.44616e-15)
(-46.8871 10.854 -6.42806e-16)
(-47.738 9.68254 -1.65388e-15)
(-44.4604 10.8839 -1.02865e-15)
(-41.7401 12.8868 0)
(-38.7418 14.8484 0)
(-35.7767 16.6781 3.72866e-15)
(-32.9462 18.2529 -7.27923e-15)
(-30.3002 19.556 1.42667e-14)
(-27.8625 20.6087 1.05058e-14)
(-25.6387 21.451 6.88475e-15)
(-23.6224 22.1288 -6.77718e-15)
(-21.8007 22.6864 4.93331e-18)
(-43.5121 4.80916 -1.15559e-18)
(-42.3185 6.63432 0)
(-38.8583 7.63053 1.92303e-15)
(-36.4918 9.57613 -5.62966e-15)
(-34.3039 11.6457 5.4516e-15)
(-32.1131 13.619 2.98172e-18)
(-29.933 15.3463 3.46649e-15)
(-27.7931 16.7953 -3.40731e-15)
(-25.7333 17.9749 -1.67969e-14)