/*--------------------------------*- C++ -*----------------------------------*\
| =========                 |                                                 |
| \\      /  F ield         | OpenFOAM: The Open Source CFD Toolbox           |
|  \\    /   O peration     | Version:  2212                                  |
|   \\  /    A nd           | Website:  www.openfoam.com                      |
|    \\/     M anipulation  |                                                 |
\*---------------------------------------------------------------------------*/
FoamFile
{
    version     2.0;
    format      ascii;
    arch        "LSB;label=32;scalar=64";
    class       volScalarField;
    location    "0.01";
    object      alphat;
}
// * * * * * * * * * * * * * * * * * * * * * * * * * * * * * * * * * * * * * //

dimensions      [1 -1 -1 0 0 0 0];

internalField   nonuniform List<scalar> 
3072
(
0.000417606
0.000845813
0.000890149
0.000867942
0.000825151
0.000857449
0.00122506
0.00180427
0.00202431
0.0021149
0.00218558
0.00222287
0.000668722
0.00157512
0.00200943
0.00120301
0.00125612
0.00175617
0.00235655
0.00341523
0.0047691
0.00662229
0.00861073
0.0105726
0.00088773
0.00316114
0.00282277
0.00247099
0.00298861
0.00432076
0.00616934
0.00866805
0.0117196
0.0147218
0.0174729
0.0197585
0.00107867
0.00415654
0.00430863
0.00452771
0.00603661
0.00840765
0.0111905
0.0145558
0.0179883
0.021219
0.0240179
0.0263035
0.00122768
0.00559429
0.00647865
0.00725731
0.00942693
0.0123403
0.0155853
0.0191665
0.0226273
0.0257945
0.0285091
0.0308323
0.00133364
0.00656195
0.0084116
0.00990534
0.0123203
0.0153823
0.0188263
0.0223252
0.0256438
0.0286283
0.0312618
0.0335714
0.00139928
0.00728328
0.00972965
0.011813
0.0144863
0.0176285
0.0209714
0.0242756
0.0273552
0.0302032
0.0327788
0.0350343
0.00146715
0.007937
0.0109645
0.0133971
0.0161434
0.0191851
0.0223286
0.0253974
0.0282771
0.0308871
0.033224
0.0353087
0.0015137
0.00849599
0.0120417
0.0148384
0.01764
0.0204238
0.0231726
0.0258787
0.028396
0.0307208
0.0328385
0.0347431
0.00161798
0.00895778
0.0134365
0.0166302
0.0193786
0.0217979
0.0240077
0.0261493
0.0281971
0.0301356
0.0318692
0.0335304
0.00180718
0.00879708
0.0145002
0.0179788
0.0206868
0.0227321
0.024438
0.0259908
0.0275168
0.0290676
0.0305985
0.03207
0.00323227
0.00944676
0.0160916
0.0190007
0.0212063
0.0226612
0.0239207
0.0251286
0.0263431
0.0275505
0.0287753
0.0301779
0.00224711
0.00225158
0.00225196
0.00224469
0.00221973
0.0021755
0.00211065
0.00201542
0.00188469
0.00172192
0.00150072
0.000729667
0.0122827
0.0134623
0.0140805
0.0140559
0.0134593
0.012522
0.0111435
0.00941892
0.00731599
0.00449585
0.00215424
0.00122606
0.0214705
0.0225456
0.0230874
0.0229563
0.0222291
0.0208852
0.0188751
0.0161879
0.012808
0.00873304
0.0038377
0.00159523
0.0281365
0.0293768
0.0300922
0.0301441
0.029644
0.0283724
0.0261962
0.0230447
0.0187845
0.0133462
0.00664137
0.00193751
0.0327498
0.03418
0.0351464
0.0355102
0.035384
0.0344508
0.0325555
0.0294775
0.0247232
0.018249
0.00971095
0.00227125
0.035536
0.0371258
0.0383266
0.0390314
0.0393264
0.0389795
0.0376686
0.0350266
0.0305062
0.023282
0.0132766
0.00261986
0.0369624
0.0385748
0.0398921
0.0409143
0.0416279
0.0418722
0.0413665
0.039607
0.0357079
0.0284354
0.0171371
0.00298254
0.0371452
0.0387435
0.040129
0.0413554
0.0424076
0.0431368
0.043443
0.0428364
0.04015
0.0333001
0.0208601
0.00338748
0.0364531
0.0379714
0.0393279
0.040704
0.0420482
0.043232
0.0442703
0.0448374
0.043642
0.0378483
0.0242989
0.00383317
0.0351053
0.0364984
0.0378486
0.0393943
0.0409085
0.0423001
0.0438086
0.045384
0.0458415
0.0420356
0.028311
0.00430675
0.033467
0.0346501
0.0359707
0.0376652
0.0393059
0.0408111
0.0425136
0.0446883
0.0463127
0.0448569
0.0330218
0.0048255
0.0317565
0.0327611
0.0340773
0.0360392
0.0377519
0.0392889
0.0409568
0.0431094
0.0455013
0.0465512
0.0379976
0.00540652
0.000417748
0.000846084
0.000890372
0.00086813
0.000825369
0.000857786
0.00122612
0.00180504
0.00202504
0.00211553
0.0021862
0.00222348
0.000668918
0.0015753
0.00200942
0.00120262
0.00125654
0.00175707
0.00235787
0.00341739
0.0047716
0.00662557
0.00861456
0.0105765
0.00088797
0.00316132
0.00282267
0.00247118
0.00299008
0.0043232
0.0061724
0.0086723
0.0117247
0.0147276
0.017479
0.0197643
0.00107895
0.00415679
0.00430864
0.00452837
0.00603862
0.00841091
0.0111945
0.0145613
0.0179947
0.0212259
0.0240248
0.0263106
0.00122799
0.00559474
0.00647879
0.00725801
0.00942908
0.0123435
0.0155901
0.0191725
0.0226341
0.0258017
0.0285163
0.0308398
0.00133398
0.00656272
0.00841218
0.00990622
0.0123224
0.0153856
0.0188311
0.022331
0.0256502
0.0286348
0.0312686
0.0335785
0.00139962
0.00728411
0.00973051
0.0118142
0.0144883
0.0176317
0.0209755
0.0242805
0.0273604
0.0302092
0.0327852
0.0350408
0.0014675
0.00793785
0.010965
0.0133984
0.0161453
0.0191877
0.022332
0.0254011
0.0282816
0.0308918
0.0332289
0.0353138
0.001514
0.00849658
0.0120426
0.0148386
0.0176401
0.0204242
0.0231736
0.025881
0.0283988
0.0307241
0.0328421
0.0347467
0.00161824
0.00895824
0.0134366
0.0166296
0.0193774
0.0217967
0.0240067
0.0261487
0.0281979
0.0301359
0.0318699
0.0335326
0.00180741
0.00879827
0.0145005
0.017978
0.0206852
0.02273
0.0244358
0.0259887
0.0275163
0.0290683
0.0305998
0.0320708
0.00323215
0.00944704
0.0160906
0.0189991
0.0212048
0.0226595
0.0239191
0.0251273
0.0263418
0.02755
0.0287754
0.0301794
0.0022477
0.00225215
0.00225253
0.00224525
0.00222027
0.00217603
0.00211117
0.0020159
0.00188514
0.00172232
0.00150112
0.000729887
0.0122869
0.0134663
0.0140841
0.0140591
0.0134621
0.0125244
0.0111456
0.00942068
0.0073175
0.00449702
0.00215478
0.00122636
0.0214766
0.0225513
0.0230933
0.022962
0.0222342
0.0208899
0.0188793
0.0161914
0.0128107
0.00873482
0.00383859
0.00159555
0.0281437
0.0293837
0.0300993
0.0301511
0.0296503
0.0283782
0.0262009
0.0230494
0.0187881
0.0133488
0.00664269
0.00193786
0.0327574
0.0341873
0.0351534
0.0355174
0.0353908
0.0344572
0.0325612
0.0294825
0.0247274
0.0182521
0.00971276
0.00227164
0.0355432
0.0371329
0.0383336
0.0390381
0.0393327
0.0389854
0.0376742
0.0350318
0.0305107
0.0232854
0.0132787
0.00262028
0.0369689
0.0385812
0.0398983
0.0409203
0.0416337
0.0418778
0.0413722
0.0396121
0.0357126
0.0284392
0.0171396
0.00298299
0.0371504
0.0387488
0.0401342
0.0413605
0.0424128
0.0431421
0.0434476
0.0428411
0.0401544
0.0333039
0.0208628
0.00338797
0.0364569
0.0379754
0.039332
0.0407077
0.0420517
0.0432356
0.0442736
0.0448404
0.0436452
0.0378519
0.0243019
0.00383369
0.0351079
0.0365014
0.0378516
0.0393974
0.0409115
0.0423027
0.0438106
0.0453857
0.045843
0.0420384
0.0283142
0.0043073
0.033468
0.0346517
0.0359729
0.0376676
0.0393078
0.0408124
0.042514
0.0446884
0.0463133
0.0448581
0.0330253
0.00482607
0.0317571
0.0327612
0.0340788
0.0360408
0.0377522
0.0392886
0.0409556
0.0431083
0.0454998
0.0465511
0.0380013
0.00540707
0.000417695
0.00084598
0.000890287
0.000868058
0.000825284
0.000857655
0.00122571
0.00180476
0.00202477
0.00211531
0.00218598
0.00222327
0.000668847
0.00157522
0.00200942
0.00120277
0.00125638
0.00175672
0.00235734
0.00341653
0.00477059
0.00662425
0.00861301
0.0105749
0.000887885
0.00316125
0.00282269
0.0024711
0.0029895
0.00432222
0.00617118
0.00867061
0.0117227
0.0147253
0.0174765
0.019762
0.00107886
0.0041567
0.00430862
0.00452813
0.00603784
0.00840965
0.011193
0.0145592
0.0179922
0.0212232
0.0240221
0.0263078
0.00122789
0.00559461
0.00647876
0.0072578
0.00942832
0.0123423
0.0155883
0.0191703
0.0226316
0.025799
0.0285136
0.0308369
0.00133387
0.00656249
0.00841202
0.00990601
0.0123217
0.0153845
0.0188294
0.0223289
0.0256479
0.0286325
0.0312662
0.0335759
0.00139951
0.00728388
0.0097303
0.0118139
0.0144877
0.0176307
0.0209742
0.024279
0.0273587
0.0302073
0.0327831
0.0350386
0.00146739
0.00793765
0.010965
0.0133982
0.0161448
0.019187
0.0223311
0.0254001
0.0282803
0.0308904
0.0332274
0.0353121
0.00151392
0.00849648
0.0120424
0.0148386
0.0176402
0.0204243
0.0231735
0.0258805
0.028398
0.0307231
0.032841
0.0347455
0.00161817
0.00895807
0.0134364
0.0166295
0.0193775
0.0217969
0.0240069
0.0261488
0.0281975
0.0301357
0.0318695
0.0335314
0.00180734
0.00879729
0.0144995
0.0179767
0.0206842
0.0227293
0.0244353
0.0259883
0.0275155
0.029067
0.0305982
0.0320692
0.00323224
0.00944567
0.0160897
0.0189976
0.0212031
0.0226577
0.0239172
0.0251253
0.0263398
0.0275477
0.0287727
0.0301759
0.00224749
0.00225195
0.00225233
0.00224506
0.00222009
0.00217585
0.002111
0.00201575
0.001885
0.0017222
0.00150101
0.000729825
0.0122852
0.0134646
0.0140825
0.0140577
0.0134608
0.0125233
0.0111446
0.00941991
0.00731686
0.00449654
0.0021546
0.00122628
0.0214741
0.0225489
0.0230908
0.0229595
0.0222319
0.0208878
0.0188774
0.0161898
0.0128096
0.0087341
0.00383824
0.00159546
0.0281408
0.0293809
0.0300964
0.0301481
0.0296475
0.0283755
0.0261985
0.0230474
0.0187865
0.0133477
0.00664216
0.00193776
0.0327545
0.0341844
0.0351505
0.0355144
0.0353879
0.0344544
0.0325586
0.0294802
0.0247255
0.0182507
0.009712
0.00227153
0.0355405
0.0371302
0.0383308
0.0390353
0.03933
0.0389827
0.0376716
0.0350294
0.0305087
0.0232839
0.0132777
0.00262016
0.0369666
0.0385789
0.0398958
0.0409178
0.0416311
0.0418751
0.0413695
0.0396096
0.0357104
0.0284374
0.0171385
0.00298286
0.0371486
0.0387468
0.040132
0.0413581
0.0424102
0.0431394
0.0434451
0.0428386
0.0401522
0.0333022
0.0208618
0.00338783
0.0364555
0.0379737
0.0393299
0.0407055
0.0420493
0.0432331
0.0442713
0.0448383
0.0436433
0.0378501
0.0243007
0.00383355
0.0351063
0.0364995
0.0378492
0.0393947
0.0409088
0.0423001
0.0438084
0.0453839
0.0458418
0.042037
0.0283131
0.00430715
0.0334661
0.0346493
0.0359699
0.0376642
0.0393048
0.0408098
0.0425121
0.0446871
0.0463122
0.0448575
0.0330243
0.00482593
0.0317539
0.0327581
0.0340746
0.0360367
0.0377492
0.0392863
0.0409543
0.0431074
0.0454998
0.0465513
0.0380004
0.00540696
0.000417642
0.000845919
0.000890205
0.000867956
0.000825194
0.000857575
0.00122561
0.0018046
0.00202464
0.00211518
0.00218586
0.00222315
0.000668773
0.00157531
0.00200932
0.00120245
0.00125637
0.00175681
0.00235742
0.0034166
0.00477076
0.00662443
0.00861324
0.0105752
0.000887819
0.00316122
0.00282282
0.00247139
0.00299032
0.00432308
0.00617193
0.00867131
0.0117234
0.014726
0.0174773
0.0197629
0.00107877
0.00415728
0.00430963
0.00452968
0.00603942
0.00841113
0.0111943
0.0145601
0.0179931
0.021224
0.0240231
0.0263089
0.00122781
0.00559534
0.00648041
0.00726017
0.00943031
0.0123441
0.0155896
0.0191712
0.0226324
0.0258
0.0285148
0.0308382
0.00133378
0.0065631
0.00841368
0.00990844
0.0123238
0.0153862
0.0188308
0.02233
0.025649
0.0286338
0.0312676
0.0335775
0.00139943
0.00728458
0.00973201
0.0118161
0.01449
0.0176327
0.0209758
0.0242804
0.0273602
0.0302087
0.0327847
0.0350404
0.00146732
0.00793831
0.010967
0.0134005
0.0161472
0.0191892
0.0223331
0.025402
0.0282821
0.0308924
0.0332295
0.0353145
0.00151388
0.00849721
0.0120441
0.0148415
0.0176434
0.0204276
0.0231766
0.025883
0.0284006
0.0307256
0.0328436
0.0347484
0.00161813
0.0089587
0.0134383
0.0166324
0.0193811
0.0218007
0.0240109
0.0261527
0.0282009
0.0301394
0.0318732
0.0335348
0.00180732
0.00879717
0.0145007
0.0179792
0.0206876
0.0227333
0.0244395
0.0259927
0.0275193
0.0290705
0.0306017
0.0320731
0.0032324
0.00944591
0.0160906
0.0189997
0.0212055
0.0226608
0.0239206
0.025129
0.0263438
0.0275517
0.0287768
0.0301797
0.00224737
0.00225183
0.00225221
0.00224493
0.00221995
0.0021757
0.00211084
0.00201559
0.00188483
0.00172204
0.0015008
0.000729705
0.0122856
0.0134653
0.0140835
0.0140588
0.0134621
0.0125245
0.0111456
0.0094206
0.00731719
0.0044965
0.00215445
0.00122612
0.0214751
0.0225502
0.0230921
0.022961
0.0222334
0.0208892
0.0188785
0.0161907
0.0128101
0.00873433
0.00383818
0.00159532
0.0281421
0.0293825
0.030098
0.0301498
0.0296492
0.0283772
0.0262001
0.0230487
0.0187874
0.0133481
0.00664213
0.00193761
0.0327559
0.0341863
0.0351526
0.0355165
0.0353902
0.0344567
0.0325608
0.0294822
0.0247267
0.0182514
0.00971201
0.00227137
0.0355423
0.0371324
0.0383333
0.0390382
0.0393331
0.0389859
0.0376747
0.035032
0.0305105
0.023285
0.0132779
0.00262
0.0369687
0.0385814
0.0398988
0.0409212
0.0416349
0.0418792
0.0413735
0.0396132
0.035713
0.0284388
0.0171386
0.00298269
0.0371513
0.0387499
0.0401356
0.0413622
0.0424148
0.0431443
0.0434503
0.0428434
0.0401558
0.0333041
0.0208619
0.00338764
0.0364587
0.0379773
0.039334
0.0407102
0.0420547
0.043239
0.0442775
0.0448443
0.0436481
0.0378527
0.0243008
0.00383334
0.03511
0.0365035
0.0378538
0.0393998
0.0409144
0.0423065
0.0438155
0.0453912
0.0458481
0.0420405
0.028313
0.00430692
0.0334703
0.034654
0.0359748
0.0376695
0.0393108
0.0408166
0.0425198
0.0446952
0.0463202
0.0448628
0.033024
0.00482568
0.0317584
0.0327635
0.0340799
0.0360421
0.0377555
0.0392933
0.0409621
0.0431161
0.0455088
0.0465581
0.0380004
0.00540672
0.0196663
0.019854
0.0208437
0.0218818
0.022724
0.023342
0.0239972
0.0247295
0.0255426
0.0264417
0.0273859
0.0286921
0.0304394
0.0270547
0.0257654
0.025268
0.0247357
0.0247455
0.0252169
0.0255311
0.0259081
0.0264546
0.0271009
0.0285
0.0376488
0.0340269
0.0313684
0.0295988
0.0284376
0.0277277
0.0271348
0.0267271
0.0270811
0.027516
0.0280845
0.0297241
0.0398195
0.0370863
0.0346569
0.032705
0.0312338
0.0302045
0.029613
0.0293252
0.0290687
0.029282
0.0302771
0.0316163
0.030473
0.0314644
0.03295
0.0350597
0.0366445
0.0381178
0.0396349
0.0417122
0.0438786
0.0468669
0.0483369
0.0218984
0.0301668
0.0313089
0.0331835
0.0349656
0.036302
0.0376473
0.0388582
0.0402819
0.0420034
0.04482
0.0503799
0.0359695
0.0311116
0.0327943
0.0342293
0.0354387
0.0363244
0.0373871
0.0384057
0.0395179
0.0406246
0.0425505
0.0472427
0.042216
0.0335119
0.0344601
0.0353527
0.0364499
0.0371689
0.0378919
0.0386722
0.0392203
0.0399855
0.0408675
0.0432172
0.0424214
0.019664
0.0198511
0.0208404
0.021878
0.0227199
0.0233375
0.0239929
0.0247255
0.0255389
0.0264387
0.0273835
0.0286916
0.0304347
0.0270489
0.0257594
0.0252619
0.0247295
0.0247402
0.025211
0.0255253
0.0259023
0.0264494
0.0270961
0.0284979
0.0376415
0.0340188
0.0313602
0.029591
0.0284297
0.0277202
0.0271271
0.0267203
0.0270753
0.0275104
0.028079
0.029721
0.0398108
0.0370776
0.0346486
0.0326972
0.0312259
0.0301968
0.0296057
0.0293183
0.0290614
0.0292773
0.0302724
0.0316117
0.0304711
0.0314622
0.03295
0.0350598
0.036643
0.0381159
0.0396328
0.0417094
0.0438751
0.0468644
0.0483396
0.0218981
0.0301629
0.0313056
0.0331822
0.0349634
0.0362991
0.0376444
0.0388545
0.0402777
0.0419985
0.0448157
0.0503788
0.0359683
0.0311071
0.0327905
0.034226
0.0354351
0.0363203
0.037383
0.0384009
0.0395132
0.0406192
0.0425453
0.0472388
0.0422132
0.0335082
0.034455
0.035348
0.0364454
0.0371644
0.0378875
0.0386674
0.0392157
0.0399804
0.0408622
0.0432121
0.0424173
0.0196641
0.0198504
0.020839
0.0218762
0.022718
0.0233354
0.0239904
0.0247227
0.025536
0.0264355
0.02738
0.0286868
0.030433
0.0270465
0.0257565
0.0252588
0.0247271
0.0247363
0.0252075
0.0255216
0.0258986
0.0264454
0.0270919
0.0284922
0.0376375
0.0340146
0.0313558
0.0295863
0.028425
0.0277157
0.0271236
0.0267157
0.02707
0.0275054
0.0280741
0.0297154
0.0398069
0.0370734
0.034644
0.0326922
0.0312207
0.0301912
0.0296
0.0293129
0.0290575
0.0292722
0.0302681
0.0316084
0.0304673
0.0314586
0.0329453
0.0350558
0.0366405
0.0381144
0.0396322
0.0417098
0.0438766
0.0468662
0.0483403
0.0219004
0.0301587
0.0313014
0.0331778
0.034961
0.036298
0.0376441
0.0388557
0.0402798
0.0420017
0.0448192
0.0503816
0.0359718
0.0311031
0.0327876
0.0342241
0.035435
0.0363209
0.0373848
0.0384043
0.0395172
0.0406243
0.0425507
0.0472438
0.042218
0.0335061
0.034456
0.0353495
0.0364484
0.0371687
0.0378926
0.0386736
0.0392222
0.0399873
0.0408694
0.0432189
0.0424235
0.0196667
0.0198531
0.0208418
0.0218795
0.0227217
0.0233397
0.0239951
0.0247277
0.0255412
0.0264407
0.0273853
0.0286916
0.0304375
0.0270513
0.0257615
0.0252639
0.0247321
0.0247411
0.0252129
0.0255274
0.0259048
0.0264516
0.0270982
0.0284976
0.0376431
0.0340206
0.031362
0.0295925
0.0284316
0.027722
0.0271302
0.0267222
0.0270762
0.0275118
0.0280806
0.0297209
0.0398127
0.0370794
0.0346503
0.0326987
0.0312276
0.0301982
0.0296069
0.0293197
0.0290646
0.029278
0.0302739
0.0316141
0.030473
0.0314648
0.0329508
0.0350613
0.0366471
0.0381213
0.0396398
0.041718
0.0438859
0.0468749
0.0483421
0.0219008
0.0301652
0.0313079
0.0331833
0.0349668
0.0363044
0.0376505
0.0388628
0.0402877
0.0420108
0.0448281
0.0503877
0.0359747
0.0311095
0.0327936
0.0342296
0.0354407
0.0363272
0.0373911
0.0384112
0.0395241
0.0406323
0.0425591
0.0472519
0.0422237
0.0335113
0.0344618
0.0353552
0.0364538
0.0371741
0.037898
0.0386796
0.0392279
0.039994
0.0408767
0.0432272
0.04243
0.0359555
0.0341779
0.0327716
0.0317507
0.0311782
0.0308857
0.0307339
0.0307642
0.0310296
0.0316474
0.0331194
0.0349351
0.0340212
0.032916
0.0321037
0.0316171
0.0313659
0.0310554
0.030772
0.0305983
0.0305187
0.0304558
0.0308171
0.0320487
0.0327895
0.0320008
0.0315181
0.031012
0.0303625
0.0296871
0.0288333
0.0277942
0.0265012
0.0250349
0.0238953
0.0242203
0.0313664
0.0307392
0.029943
0.0290338
0.0279165
0.0265683
0.0248313
0.0226584
0.0200309
0.0170376
0.0148135
0.0135604
0.0368824
0.0377771
0.0377233
0.0379406
0.0382424
0.0385322
0.0388565
0.0390601
0.0392991
0.039501
0.0390868
0.0378094
0.0341867
0.037302
0.0375136
0.0375469
0.037787
0.0378673
0.0379266
0.0378688
0.0377187
0.037282
0.0363602
0.0353148
0.0279326
0.0350997
0.0364022
0.0362011
0.0364914
0.0365262
0.0365201
0.0363556
0.0359724
0.0353448
0.0345567
0.0337303
0.0159508
0.0321132
0.0347624
0.0344935
0.0348377
0.0348617
0.0348326
0.0345354
0.034083
0.0335262
0.0328758
0.0321233
0.0359467
0.0341701
0.0327643
0.0317429
0.0311709
0.0308791
0.0307277
0.030758
0.0310241
0.0316424
0.0331154
0.0349309
0.0340138
0.0329093
0.0320971
0.0316106
0.0313599
0.0310498
0.030767
0.0305938
0.030514
0.0304506
0.0308117
0.0320431
0.0327834
0.031995
0.0315126
0.0310062
0.0303575
0.0296821
0.0288285
0.0277893
0.0264957
0.0250286
0.0238887
0.0242136
0.0313613
0.0307339
0.0299379
0.029029
0.0279118
0.0265634
0.0248264
0.0226529
0.0200248
0.0170305
0.0148072
0.0135546
0.0368786
0.0377728
0.0377185
0.037936
0.0382385
0.0385279
0.0388522
0.0390555
0.039294
0.0394959
0.0390819
0.0378045
0.0341817
0.0372977
0.0375096
0.0375431
0.0377834
0.0378634
0.0379224
0.0378643
0.0377139
0.0372772
0.0363553
0.0353097
0.0279274
0.035096
0.0363994
0.0361979
0.0364883
0.0365228
0.0365164
0.0363516
0.0359683
0.0353408
0.0345525
0.033726
0.0159472
0.0321102
0.0347604
0.034491
0.0348353
0.0348591
0.0348297
0.0345325
0.03408
0.0335233
0.0328732
0.0321204
0.035942
0.0341651
0.0327592
0.0317377
0.0311657
0.0308743
0.0307233
0.0307549
0.0310216
0.0316412
0.0331152
0.034933
0.0340091
0.0329046
0.0320928
0.031606
0.0313559
0.0310473
0.0307647
0.0305929
0.0305144
0.0304528
0.0308152
0.0320486
0.03278
0.031991
0.0315089
0.031004
0.0303557
0.0296816
0.0288288
0.027791
0.0264987
0.0250329
0.023894
0.0242197
0.0313588
0.0307322
0.0299371
0.0290289
0.0279123
0.0265651
0.0248289
0.0226567
0.0200295
0.0170359
0.0148117
0.0135584
0.0368825
0.037779
0.037726
0.0379441
0.0382468
0.0385365
0.0388607
0.0390639
0.0393021
0.0395039
0.0390894
0.0378121
0.0341885
0.0373072
0.0375198
0.0375536
0.0377936
0.0378734
0.0379321
0.0378735
0.0377228
0.0372856
0.0363638
0.0353181
0.0279339
0.0351065
0.0364106
0.0362095
0.0364992
0.0365333
0.0365264
0.036361
0.0359771
0.0353492
0.0345609
0.0337341
0.0159502
0.0321203
0.0347719
0.0345029
0.0348463
0.0348697
0.0348397
0.0345417
0.0340888
0.0335319
0.0328816
0.032128
0.0359491
0.0341721
0.0327661
0.0317453
0.0311731
0.0308812
0.0307301
0.0307615
0.0310278
0.031647
0.0331201
0.0349377
0.0340166
0.032912
0.0321001
0.0316134
0.0313629
0.0310537
0.0307708
0.0305984
0.0305199
0.0304583
0.0308206
0.0320538
0.0327873
0.0319983
0.0315159
0.0310109
0.0303621
0.0296877
0.0288346
0.0277967
0.0265045
0.025039
0.0239
0.0242255
0.0313658
0.0307391
0.0299438
0.0290352
0.0279184
0.026571
0.0248346
0.0226624
0.0200354
0.0170423
0.0148174
0.0135635
0.0368867
0.0377833
0.0377306
0.0379486
0.0382507
0.0385412
0.0388657
0.0390693
0.0393084
0.0395107
0.0390964
0.0378192
0.0341931
0.0373109
0.0375229
0.0375566
0.0377965
0.0378768
0.0379359
0.0378779
0.0377278
0.0372909
0.0363692
0.0353237
0.0279381
0.0351091
0.0364121
0.0362111
0.0365008
0.0365354
0.0365288
0.0363639
0.0359803
0.0353524
0.0345642
0.0337375
0.0159531
0.0321217
0.0347721
0.0345034
0.0348466
0.0348703
0.0348406
0.0345427
0.0340899
0.033533
0.0328825
0.0321291
0.0292552
0.0283162
0.0271572
0.0257716
0.0240563
0.0219557
0.0193598
0.0162688
0.0127711
0.00905735
0.00571447
0.00288351
0.0261649
0.0248552
0.0232497
0.0213263
0.0189932
0.0162113
0.0129274
0.00921632
0.00522023
0.00228902
0.0012356
0.00104216
0.0221235
0.0203888
0.0182954
0.0158201
0.0128881
0.00950418
0.00558888
0.00201023
0.000703913
0.000516282
0.000464398
0.000532762
0.0171932
0.0150033
0.012404
0.00938682
0.00582879
0.00228551
0.000821294
0.000492987
0.000473384
0.000468233
0.000462046
0.000450671
0.0114801
0.00883358
0.00569831
0.00250993
0.000904756
0.000602891
0.000500751
0.000479623
0.000475026
0.000465237
0.000460234
0.000453881
0.00511219
0.00243022
0.000911209
0.000503365
0.000526
0.00050682
0.000494595
0.000489855
0.000482756
0.000477853
0.000473216
0.000470205
0.000794029
0.000643902
0.000539301
0.000530693
0.000520981
0.000516058
0.000509532
0.000504409
0.000498695
0.000493095
0.000490244
0.000486325
0.000574161
0.000557683
0.000547996
0.000542953
0.000536344
0.000530472
0.00052561
0.000519396
0.000514251
0.000509409
0.000505683
0.000501938
0.000572834
0.000567381
0.000561968
0.000555808
0.000550771
0.000544794
0.000539455
0.000534222
0.000528893
0.000524068
0.000521043
0.000516399
0.000574693
0.000569566
0.000564135
0.000558993
0.00055445
0.000550077
0.000545842
0.000541738
0.000537892
0.000534483
0.000531786
0.000527972
0.000504854
0.000505284
0.000505015
0.00050452
0.000504393
0.000504676
0.00050548
0.000507074
0.000508624
0.000512303
0.000517421
0.000520866
0.000151963
0.000152272
0.000152607
0.000152934
0.000153251
0.000153557
0.000153866
0.000154207
0.000154584
0.000154998
0.0001555
0.000156076
0.0051109
0.0284663
0.032883
0.0325029
0.0328715
0.0328915
0.0327047
0.0323341
0.0319201
0.031522
0.0310013
0.0301394
0.00496418
0.026441
0.0308271
0.0302127
0.0305327
0.0303751
0.0300901
0.0298587
0.0296158
0.0291631
0.0283568
0.0272561
0.00485398
0.024387
0.028193
0.0275974
0.0276069
0.0274084
0.0272802
0.0271208
0.0267051
0.0259323
0.0248042
0.0235554
0.00471449
0.0219852
0.0249519
0.0244647
0.0244009
0.0243224
0.0241372
0.0237404
0.0229924
0.021862
0.0205629
0.0190203
0.00451797
0.0191676
0.0212018
0.0211099
0.0210983
0.0208472
0.0204391
0.0196053
0.0185578
0.0172044
0.0156284
0.0137244
0.00423394
0.0159756
0.0175034
0.0175331
0.0173942
0.016893
0.0160154
0.0149367
0.0136197
0.0119926
0.0100903
0.00779693
0.00383741
0.0124639
0.0136231
0.0135819
0.0132826
0.0123547
0.0112465
0.00988577
0.00824501
0.00624191
0.00408093
0.00200755
0.00329729
0.00865671
0.00952046
0.00933515
0.00875328
0.00749055
0.00601069
0.00439965
0.0028789
0.0014754
0.000798144
0.000590005
0.00250062
0.00425869
0.0049607
0.00463754
0.00402207
0.00278213
0.00172988
0.00101715
0.000719093
0.00061931
0.000598352
0.0005814
0.0016156
0.00126102
0.00151722
0.00138808
0.00114264
0.000785097
0.000637968
0.000601067
0.000601242
0.000588891
0.000585777
0.000580311
0.000902499
0.000385335
0.000491213
0.000497081
0.000498923
0.000486569
0.000493712
0.000494975
0.000499835
0.000502077
0.000503429
0.000503376
0.000219306
0.000162709
0.000163046
0.000157813
0.000158129
0.000153571
0.000153437
0.000151225
0.00015187
0.000151432
0.000151613
0.000151708
0.02925
0.0283116
0.0271525
0.0257669
0.0240515
0.0219507
0.0193543
0.0162627
0.0127648
0.00905133
0.00571067
0.00288274
0.0261602
0.0248506
0.023245
0.0213214
0.0189879
0.0162056
0.0129213
0.00920982
0.00521453
0.0022871
0.00123541
0.00104262
0.0221187
0.020384
0.0182902
0.0158146
0.0128822
0.00949792
0.00558262
0.00200721
0.00070327
0.000516949
0.000464749
0.000533495
0.0171882
0.0149981
0.0123983
0.00938062
0.00582202
0.00228083
0.000820209
0.000491871
0.000473424
0.000468176
0.000461935
0.000450802
0.0114747
0.00882787
0.00569211
0.00250504
0.000903516
0.000602504
0.000500698
0.000479623
0.000475045
0.000465274
0.000460263
0.000453897
0.00510675
0.00242613
0.000910081
0.000503223
0.000526081
0.000506811
0.000494597
0.000489855
0.000482754
0.000477855
0.000473212
0.0004702
0.000792672
0.000643995
0.000539491
0.000530693
0.000520975
0.000516056
0.000509528
0.000504404
0.000498694
0.000493092
0.00049024
0.000486324
0.00057408
0.000557687
0.000547982
0.000542948
0.000536334
0.000530481
0.000525596
0.000519395
0.000514253
0.0005094
0.000505685
0.000501936
0.000572817
0.000567383
0.00056196
0.000555801
0.000550766
0.000544799
0.000539443
0.000534225
0.000528885
0.000524068
0.00052104
0.000516397
0.00057469
0.000569565
0.00056413
0.00055899
0.000554448
0.000550075
0.00054584
0.000541735
0.00053789
0.00053448
0.000531784
0.000527969
0.000504871
0.000505301
0.000505032
0.000504535
0.000504412
0.000504692
0.000505488
0.000507078
0.000508628
0.000512302
0.000517419
0.000520864
0.000151958
0.000152268
0.000152604
0.000152932
0.000153249
0.000153555
0.000153865
0.000154206
0.000154584
0.000154998
0.0001555
0.000156076
0.00511027
0.0284645
0.0328817
0.032501
0.03287
0.0328898
0.0327031
0.0323327
0.031918
0.0315199
0.0309998
0.0301385
0.00496368
0.0264402
0.0308267
0.0302118
0.0305324
0.0303751
0.0300898
0.0298581
0.0296151
0.029163
0.0283577
0.0272573
0.00485356
0.024387
0.0281937
0.0275979
0.027608
0.0274093
0.0272808
0.027122
0.0267065
0.0259347
0.0248069
0.0235587
0.00471416
0.0219865
0.0249544
0.0244664
0.0244023
0.024324
0.0241397
0.0237435
0.0229965
0.0218663
0.0205677
0.0190257
0.00451778
0.0191699
0.021205
0.0211118
0.021101
0.0208508
0.0204433
0.0196112
0.0185636
0.0172107
0.0156353
0.0137318
0.00423393
0.0159787
0.0175068
0.0175364
0.017398
0.0168988
0.0160217
0.0149443
0.0136273
0.0120008
0.0100992
0.00780654
0.00383765
0.0124681
0.0136275
0.0135865
0.0132883
0.0123617
0.0112544
0.00989504
0.00825485
0.00625269
0.00409079
0.00201444
0.00329787
0.0086624
0.00952611
0.00934139
0.00876028
0.00749888
0.0060204
0.00440891
0.00288739
0.00148062
0.000799786
0.000590278
0.00250156
0.00426473
0.00496754
0.00464415
0.00402877
0.00278839
0.00173487
0.00101966
0.0007202
0.000619614
0.000598447
0.000581324
0.00161654
0.00126367
0.00152057
0.00139099
0.00114486
0.000786107
0.000638295
0.000601137
0.000601285
0.000588882
0.000585785
0.000580312
0.000903042
0.000385529
0.000491516
0.000497319
0.000499053
0.00048652
0.000493757
0.000494979
0.000499853
0.000502096
0.000503446
0.000503387
0.000219343
0.000162718
0.000163057
0.00015782
0.000158134
0.00015357
0.000153438
0.000151224
0.00015187
0.000151431
0.000151612
0.000151707
0.0292499
0.0283119
0.0271537
0.0257689
0.0240542
0.0219543
0.0193587
0.0162678
0.0127699
0.00905588
0.00571323
0.0028833
0.0261621
0.0248531
0.0232483
0.0213254
0.0189926
0.0162111
0.0129272
0.00921589
0.0052196
0.0022886
0.00123581
0.00104236
0.0221227
0.0203886
0.0182956
0.0158207
0.0128889
0.00950505
0.00558983
0.00201043
0.000703913
0.000516489
0.000464857
0.00053303
0.0171942
0.0150048
0.0124057
0.00938867
0.00583083
0.00228677
0.000821697
0.000493388
0.000473449
0.000468258
0.000462099
0.000450735
0.0114827
0.00883654
0.00570144
0.00251201
0.000905189
0.000602936
0.000500786
0.000479627
0.000475043
0.000465257
0.00046025
0.00045389
0.00511661
0.00243327
0.00091231
0.000503872
0.000525495
0.000506819
0.000494593
0.000489853
0.000482751
0.000477846
0.000473217
0.000470201
0.000794755
0.000643627
0.000539026
0.000530674
0.000520983
0.000516044
0.000509535
0.000504402
0.000498694
0.000493089
0.000490246
0.000486326
0.000574179
0.000557637
0.000547989
0.000542935
0.000536344
0.000530468
0.000525604
0.000519394
0.000514254
0.000509404
0.000505685
0.000501938
0.000572838
0.000567364
0.00056197
0.000555793
0.000550771
0.000544795
0.000539445
0.000534227
0.000528885
0.00052407
0.000521042
0.000516399
0.000574697
0.000569565
0.000564136
0.000558992
0.000554449
0.000550076
0.000545841
0.000541737
0.000537891
0.000534482
0.000531786
0.000527971
0.000504883
0.000505312
0.000505041
0.000504544
0.00050442
0.000504699
0.000505492
0.000507083
0.000508633
0.000512305
0.000517421
0.000520866
0.000151957
0.000152267
0.000152603
0.000152931
0.000153248
0.000153555
0.000153865
0.000154207
0.000154584
0.000154999
0.0001555
0.000156077
0.00511092
0.0284733
0.0328932
0.032513
0.032881
0.0329004
0.0327128
0.0323419
0.0319268
0.0315283
0.0310077
0.0301458
0.00496432
0.026449
0.0308382
0.0302237
0.0305433
0.0303855
0.0300995
0.0298673
0.0296238
0.0291713
0.0283655
0.0272645
0.00485426
0.0243961
0.0282054
0.0276095
0.0276189
0.0274196
0.0272907
0.0271314
0.0267153
0.0259431
0.0248147
0.023566
0.00471493
0.021996
0.0249665
0.0244778
0.0244133
0.0243346
0.0241499
0.0237532
0.0230056
0.0218749
0.0205759
0.0190335
0.00451866
0.0191796
0.0212173
0.0211231
0.0211122
0.0208619
0.0204539
0.0196214
0.0185731
0.0172198
0.015644
0.0137403
0.00423498
0.0159888
0.0175185
0.0175477
0.0174093
0.0169111
0.0160325
0.014955
0.0136372
0.0120104
0.0101086
0.00781574
0.00383895
0.0124786
0.0136392
0.0135981
0.0133
0.0123738
0.0112653
0.00990645
0.00826563
0.0062634
0.0041
0.00202061
0.0032996
0.00867344
0.0095378
0.00935347
0.00877232
0.00751125
0.00603253
0.00441931
0.00289587
0.00148549
0.000801286
0.000590592
0.00250366
0.00427444
0.00497895
0.00465508
0.00403912
0.00279709
0.00174088
0.00102233
0.000721214
0.000619832
0.000598515
0.000581338
0.00161846
0.00126744
0.00152551
0.00139533
0.00114811
0.000787495
0.000638653
0.000601188
0.000601323
0.000588871
0.000585794
0.000580313
0.00090419
0.000385655
0.000491881
0.000497644
0.000499216
0.000486449
0.000493775
0.000494952
0.000499828
0.000502067
0.000503418
0.000503365
0.000219527
0.000162719
0.000163059
0.000157821
0.000158137
0.000153575
0.000153445
0.000151232
0.000151877
0.000151436
0.000151617
0.000151712
0.029257
0.0283185
0.0271601
0.025775
0.0240603
0.0219602
0.0193645
0.0162737
0.0127755
0.00906091
0.0057163
0.00288405
0.0261691
0.0248597
0.0232548
0.0213317
0.0189989
0.0162173
0.0129334
0.00922198