/*--------------------------------*- C++ -*----------------------------------*\
| =========                 |                                                 |
| \\      /  F ield         | OpenFOAM: The Open Source CFD Toolbox           |
|  \\    /   O peration     | Version:  2212                                  |
|   \\  /    A nd           | Website:  www.openfoam.com                      |
|    \\/     M anipulation  |                                                 |
\*---------------------------------------------------------------------------*/
FoamFile
{
    version     2.0;
    format      ascii;
    arch        "LSB;label=32;scalar=64";
    class       volScalarField;
    location    "0.01";
    object      alphat;
}
// * * * * * * * * * * * * * * * * * * * * * * * * * * * * * * * * * * * * * //

dimensions      [1 -1 -1 0 0 0 0];

internalField   nonuniform List<scalar> 
3072
(
0.000391356
0.000812399
0.000838499
0.000808445
0.000777138
0.000839859
0.00131141
0.00186772
0.00208541
0.00219028
0.00226927
0.00231407
0.000638742
0.00160298
0.00183364
0.00109376
0.00132987
0.00195191
0.00262485
0.00379633
0.00532715
0.00737348
0.00957171
0.0117425
0.000874138
0.00326886
0.00302267
0.00278568
0.00366185
0.00521677
0.00720778
0.00988447
0.0132289
0.0163918
0.019405
0.0220238
0.00106915
0.00457465
0.005001
0.00555845
0.00734462
0.00993093
0.0129577
0.0164492
0.0201619
0.0235608
0.0266636
0.0293242
0.00122876
0.00618175
0.00755612
0.00879289
0.011223
0.0143571
0.0177996
0.0216051
0.0253349
0.0287609
0.0318323
0.0344754
0.00133658
0.00714863
0.00957753
0.0116487
0.0144227
0.0178365
0.0215655
0.0253554
0.0289934
0.0323425
0.035345
0.0379476
0.00141149
0.00796629
0.0111583
0.0138765
0.0170524
0.0206187
0.024331
0.0279956
0.0314699
0.0346645
0.0375296
0.0400292
0.00148897
0.00873884
0.0126351
0.0157226
0.0192593
0.0229281
0.0265472
0.0300056
0.0332227
0.0361595
0.0387911
0.0410966
0.00156249
0.00946351
0.0141099
0.018033
0.021784
0.0253484
0.028638
0.0316428
0.0343791
0.0368844
0.0391399
0.0411389
0.00167693
0.00998095
0.0156904
0.0200196
0.0238048
0.0269866
0.0297603
0.0321978
0.034394
0.036499
0.0384207
0.0401758
0.00188518
0.00933844
0.0165744
0.0212832
0.0246354
0.0273287
0.0296433
0.0317439
0.0336958
0.0355359
0.0372407
0.0388246
0.00348403
0.0100768
0.0182579
0.0225569
0.0255466
0.0279242
0.0299331
0.0317275
0.0333837
0.034938
0.036397
0.0377642
0.00234118
0.00234645
0.00234541
0.00233254
0.00230255
0.00225177
0.00218007
0.00207759
0.0019429
0.00176752
0.00152355
0.000737436
0.0136509
0.0149911
0.015779
0.0158273
0.015248
0.0142067
0.0126655
0.0106039
0.00811469
0.00490976
0.00229498
0.00125322
0.0240103
0.0252226
0.0257898
0.0257013
0.024884
0.0233597
0.021102
0.0180742
0.0142605
0.00965846
0.00427257
0.001649
0.0313988
0.032792
0.0335458
0.0336388
0.0330157
0.0316026
0.029232
0.0257609
0.0210392
0.0149442
0.00733376
0.00201653
0.0366273
0.0382049
0.0391872
0.0395651
0.039259
0.0381573
0.0360693
0.0326926
0.0275836
0.0203666
0.0107709
0.00237705
0.0401072
0.0417881
0.0429766
0.0436506
0.0437681
0.0432077
0.0417098
0.0388205
0.0338332
0.025991
0.014734
0.00275205
0.04214
0.0438534
0.0451591
0.0460567
0.0465466
0.0465484
0.0458137
0.043783
0.039463
0.0314692
0.0189293
0.00314239
0.0430604
0.0446791
0.0459743
0.0469927
0.0477567
0.048248
0.0483005
0.0473652
0.0441859
0.036572
0.0227966
0.00357836
0.0428751
0.0443674
0.0456407
0.04673
0.0476739
0.0485193
0.0492385
0.0494403
0.0478015
0.0413338
0.026311
0.00405379
0.0417733
0.0432032
0.0444709
0.0456088
0.0466536
0.0476988
0.0488412
0.0499242
0.0498872
0.0455316
0.0302372
0.00456068
0.0403089
0.0416771
0.0429252
0.0440494
0.0450689
0.0461502
0.0474121
0.0489432
0.050332
0.0483294
0.0347823
0.00511528
0.0390462
0.040262
0.0413981
0.042433
0.0433887
0.044319
0.0454791
0.0472421
0.0492924
0.0498227
0.0396893
0.00575285
0.000380875
0.000794357
0.000827175
0.000800554
0.000758791
0.000793634
0.00114247
0.00172292
0.00197058
0.00207468
0.00215494
0.00220032
0.000622268
0.00162139
0.00193202
0.00113972
0.00120529
0.00175626
0.00237205
0.00334766
0.00480672
0.00668655
0.00871195
0.0107856
0.000847923
0.00323285
0.00298589
0.00266622
0.00330611
0.00471947
0.00656248
0.00896259
0.0121024
0.0150993
0.0179338
0.0204474
0.00103718
0.00451687
0.00494211
0.00529678
0.00682861
0.00919607
0.0120144
0.0152071
0.0187035
0.021918
0.0248396
0.0273721
0.00119108
0.00608169
0.0074391
0.0084496
0.0106006
0.0134983
0.0167099
0.0202141
0.0237082
0.026928
0.0298194
0.0323178
0.00129627
0.00704274
0.00944853
0.0113439
0.0138727
0.0169872
0.0204084
0.0239198
0.0273056
0.0304293
0.0332367
0.035681
0.00137038
0.00785292
0.0110257
0.0135695
0.0164871
0.0197755
0.0231887
0.0265653
0.0297714
0.0327241
0.0353797
0.0377078
0.00144798
0.00863211
0.0124715
0.0154292
0.0187829
0.0221842
0.0254961
0.0286439
0.0315673
0.0342368
0.0366365
0.0387525
0.00152168
0.00929879
0.0138865
0.0176272
0.0211521
0.0244373
0.0274275
0.0301341
0.0325955
0.0348513
0.0368928
0.0387167
0.00163265
0.00973701
0.0151796
0.0192314
0.022722
0.0256428
0.0281679
0.0303641
0.03236
0.0342628
0.0360133
0.0376341
0.00182986
0.00891011
0.0156444
0.0200037
0.0230734
0.0255315
0.0276399
0.0295611
0.0313607
0.0330534
0.0346342
0.0361246
0.00338217
0.00945466
0.0170483
0.0209291
0.0235777
0.0256884
0.0274932
0.0291301
0.0306663
0.0321308
0.0335306
0.0348715
0.00222848
0.00223528
0.00223485
0.00222515
0.00219835
0.00215343
0.00208764
0.00199413
0.00187016
0.00170371
0.00146961
0.000708866
0.0126209
0.0139309
0.0147004
0.0147902
0.0142355
0.0132695
0.0118337
0.00993175
0.00760081
0.00462404
0.00218715
0.00120942
0.0223852
0.0235539
0.0240814
0.0240077
0.0232572
0.0218338
0.0197277
0.0169032
0.0133568
0.00907071
0.00404393
0.00159553
0.0293708
0.0307089
0.0314289
0.0315219
0.0309727
0.0296696
0.0274633
0.0241884
0.0197731
0.0140871
0.00694227
0.0019516
0.0343655
0.0358774
0.0368233
0.0372036
0.0369434
0.0359272
0.0339754
0.0308085
0.0259863
0.0192091
0.0101842
0.00230231
0.0377213
0.03932
0.040461
0.0411225
0.041257
0.0407463
0.0393426
0.0366185
0.0319422
0.0245421
0.0139608
0.00266651
0.0396875
0.0413101
0.0425586
0.043431
0.0439234
0.0439578
0.0432922
0.0413933
0.0373296
0.0298008
0.0179739
0.003046
0.040574
0.0420935
0.0433268
0.0443095
0.0450653
0.045577
0.0456777
0.0448351
0.0418586
0.0346957
0.0217397
0.00346845
0.0403271
0.0417333
0.0429499
0.0440024
0.0449337
0.0457991
0.046557
0.0468198
0.04533
0.0392353
0.0251135
0.00393577
0.0391341
0.0405043
0.0417329
0.0428379
0.0438881
0.0449577
0.0461369
0.0473134
0.0474394
0.0433103
0.0289777
0.00443447
0.0375505
0.0389079
0.0401501
0.0412685
0.0423013
0.04341
0.0447608
0.0463706
0.047775
0.0462067
0.0335538
0.00499234
0.0361869
0.0374355
0.0385952
0.0396505
0.0406808
0.0416204
0.0428234
0.0446302
0.0468088
0.0476519
0.038628
0.00565553
0.000391322
0.00081232
0.000838501
0.000808468
0.000777086
0.000839585
0.00131037
0.00186702
0.00208488
0.00218976
0.00226876
0.00231357
0.00063869
0.001603
0.00183444
0.00109417
0.00132936
0.00195074
0.00262297
0.00379363
0.00532392
0.00736954
0.00956694
0.0117374
0.000874032
0.00326877
0.00302254
0.00278498
0.00365941
0.00521316
0.00720321
0.00987878
0.0132222
0.0163845
0.019397
0.0220156
0.00106903
0.00457422
0.00500023
0.0055564
0.00734092
0.00992588
0.012952
0.0164419
0.0201537
0.0235519
0.026654
0.0293141
0.00122861
0.00618105
0.00755487
0.00879021
0.0112188
0.0143518
0.0177928
0.0215972
0.025326
0.0287512
0.0318218
0.0344644
0.0013364
0.00714779
0.00957606
0.011646
0.0144186
0.0178307
0.0215585
0.0253472
0.0289842
0.0323323
0.0353341
0.037936
0.0014113
0.00796535
0.0111566
0.0138735
0.0170479
0.0206129
0.0243239
0.0279873
0.0314605
0.0346542
0.0375185
0.0400174
0.00148876
0.00873775
0.0126332
0.0157194
0.0192548
0.0229224
0.0265402
0.0299975
0.0332136
0.0361494
0.0387801
0.0410849
0.00156226
0.00946223
0.0141075
0.0180294
0.0217792
0.0253424
0.0286309
0.0316346
0.0343699
0.0368743
0.039129
0.0411272
0.00167668
0.00997932
0.0156872
0.0200152
0.0237992
0.02698
0.0297527
0.0321894
0.0343848
0.0364889
0.0384098
0.0401641
0.0018849
0.00933631
0.0165705
0.021278
0.0246292
0.0273216
0.0296354
0.0317351
0.0336863
0.0355257
0.0372297
0.0388129
0.00348358
0.0100743
0.0182537
0.0225514
0.0255398
0.0279165
0.0299246
0.0317183
0.0333738
0.0349274
0.0363858
0.0377524
0.00234069
0.00234597
0.00234493
0.00233209
0.00230212
0.00225137
0.00217969
0.00207726
0.0019426
0.00176727
0.00152335
0.000737332
0.0136456
0.0149858
0.0157737
0.0158222
0.0152431
0.0142022
0.0126616
0.0106008
0.00811238
0.00490847
0.00229452
0.00125306
0.024002
0.0252142
0.0257812
0.0256929
0.0248761
0.0233524
0.0210956
0.0180689
0.0142565
0.00965589
0.00427152
0.00164879
0.0313884
0.0327814
0.0335351
0.0336283
0.0330056
0.0315933
0.0292236
0.0257536
0.0210335
0.0149404
0.00733206
0.00201627
0.0366158
0.0381931
0.0391753
0.0395532
0.0392473
0.0381462
0.036059
0.0326837
0.0275763
0.0203615
0.0107684
0.00237675
0.040095
0.0417756
0.0429639
0.0436378
0.0437553
0.0431952
0.041698
0.0388098
0.0338244
0.0259847
0.0147307
0.0027517
0.0421276
0.0438406
0.0451459
0.0460433
0.046533
0.046535
0.0458006
0.043771
0.0394527
0.0314616
0.0189252
0.003142
0.043048
0.0446662
0.0459609
0.0469789
0.0477426
0.0482339
0.0482865
0.0473519
0.0441743
0.0365633
0.0227921
0.00357792
0.0428627
0.0443544
0.0456272
0.0467161
0.0476596
0.0485047
0.0492239
0.049426
0.0477886
0.0413239
0.0263058
0.00405331
0.0417609
0.0431902
0.0444575
0.0455948
0.0466393
0.0476842
0.0488263
0.0499097
0.0498735
0.0455207
0.0302318
0.00456015
0.0402964
0.0416642
0.0429119
0.0440357
0.0450549
0.0461358
0.0473977
0.0489283
0.0503176
0.0483179
0.0347767
0.00511472
0.0390338
0.0402493
0.0413851
0.0424198
0.0433753
0.0443053
0.0454649
0.0472273
0.0492778
0.04981
0.039683
0.00575225
0.000380912
0.000794542
0.000827172
0.000800519
0.000758839
0.000793791
0.00114312
0.00172333
0.00197081
0.0020749
0.00215516
0.00220053
0.000622312
0.00162203
0.00193095
0.00113921
0.00120664
0.00175719
0.00237318
0.00334941
0.00480863
0.0066889
0.0087146
0.0107882
0.000848058
0.00323354
0.00298673
0.0026679
0.00330928
0.00472283
0.00656614
0.00896673
0.0121069
0.0151037
0.0179383
0.0204519
0.00103727
0.00451862
0.00494519
0.0053011
0.00683362
0.0092013
0.0120197
0.0152125
0.0187089
0.0219235
0.0248451
0.0273777
0.00119117
0.00608376
0.00744304
0.00845505
0.0106066
0.0135043
0.0167156
0.02022
0.0237142
0.0269341
0.0298256
0.0323241
0.00129635
0.00704434
0.00945191
0.0113488
0.0138783
0.0169931
0.0204146
0.0239262
0.0273121
0.030436
0.0332436
0.0356881
0.00137046
0.00785455
0.0110294
0.0135746
0.0164931
0.019782
0.0231954
0.0265723
0.0297784
0.0327313
0.0353872
0.0377154
0.00144807
0.00863345
0.0124751
0.0154343
0.0187886
0.0221904
0.0255027
0.0286508
0.0315744
0.0342441
0.036644
0.0387604
0.00152175
0.00929993
0.0138897
0.0176315
0.0211571
0.0244428
0.0274334
0.0301404
0.0326021
0.0348581
0.0369
0.0387244
0.00163268
0.00973764
0.0151817
0.0192343
0.0227254
0.0256468
0.0281725
0.0303693
0.0323652
0.0342687
0.0360199
0.0376413
0.00182986
0.0089098
0.0156448
0.0200046
0.0230749
0.0255337
0.0276428
0.0295648
0.0313647
0.0330581
0.0346397
0.0361309
0.00338202
0.00945382
0.0170475
0.0209286
0.0235778
0.0256892
0.0274947
0.0291324
0.0306692
0.0321344
0.0335349
0.0348766
0.00222869
0.00223547
0.00223505
0.00222533
0.00219852
0.00215359
0.00208778
0.00199427
0.00187029
0.00170381
0.00146969
0.000708901
0.0126236
0.0139335
0.0147031
0.0147927
0.014238
0.0132718
0.0118358
0.00993334
0.00760189
0.00462467
0.00218736
0.00120948
0.0223896
0.0235583
0.0240859
0.0240119
0.0232612
0.0218375
0.0197309
0.0169057
0.0133587
0.00907193
0.00404453
0.00159564
0.0293764
0.0307146
0.0314345
0.0315274
0.030978
0.0296746
0.0274676
0.0241921
0.019776
0.0140889
0.00694315
0.00195174
0.034372
0.035884
0.03683
0.0372103
0.0369499
0.0359335
0.0339812
0.0308135
0.0259903
0.0192118
0.0101855
0.00230249
0.0377286
0.0393275
0.0404686
0.0411303
0.0412647
0.0407539
0.0393497
0.0366249
0.0319472
0.0245456
0.0139625
0.00266672
0.0396954
0.0413182
0.0425669
0.0434395
0.043932
0.0439665
0.0433006
0.041401
0.037336
0.0298053
0.0179762
0.00304625
0.0405821
0.042102
0.0433356
0.0443186
0.0450746
0.0455866
0.0456873
0.0448442
0.0418663
0.0347013
0.0217425
0.00346875
0.0403352
0.0417419
0.0429588
0.0440117
0.0449434
0.0458092
0.0465675
0.0468301
0.0453392
0.0392422
0.0251167
0.00393612
0.039142
0.0405126
0.0417416
0.042847
0.0438977
0.0449678
0.0461478
0.0473247
0.0474502
0.0433188
0.0289816
0.00443487
0.037558
0.0389157
0.0401581
0.0412769
0.0423102
0.0434198
0.0447715
0.0463824
0.0477874
0.0462172
0.0335585
0.00499281
0.0361931
0.0374421
0.038602
0.0396579
0.0406888
0.0416294
0.0428339
0.0446425
0.0468222
0.0476646
0.0386345
0.0056561
0.0216889
0.022497
0.0242786
0.0262914
0.0281701
0.029825
0.0313109
0.0326786
0.0339496
0.0351339
0.0362426
0.0372819
0.0344027
0.0319314
0.031397
0.0316184
0.0321142
0.0327386
0.0335644
0.0344436
0.0352461
0.0359506
0.0366089
0.0372271
0.0428241
0.0402925
0.0385742
0.0375137
0.0368588
0.0365982
0.0365076
0.0365696
0.0366175
0.0367093
0.0368954
0.0370701
0.0459988
0.0440726
0.0422993
0.04081
0.0395872
0.038617
0.0379995
0.03752
0.037139
0.0368467
0.0364839
0.0361469
0.0382552
0.039172
0.0400493
0.0409097
0.04182
0.0427903
0.043742
0.0450793
0.0471535
0.0497853
0.0497485
0.0228553
0.0378109
0.038376
0.0389464
0.0395387
0.0401944
0.0409445
0.041935
0.0429692
0.0447383
0.0474591
0.0524187
0.0379717
0.0372349
0.037427
0.0377018
0.0380886
0.0386095
0.0392771
0.0402195
0.04138
0.0429399
0.0450229
0.0500257
0.0451346
0.0359384
0.0359423
0.0362352
0.0367747
0.0375057
0.0384279
0.0396407
0.0409705
0.0425327
0.0441177
0.0474713
0.0469005
0.0204327
0.0209864
0.0224189
0.0240739
0.0256329
0.0270418
0.0283715
0.0296331
0.0308382
0.0320004
0.0331263
0.0342211
0.03265
0.0300387
0.0290397
0.0288515
0.029047
0.0294865
0.0302381
0.0310294
0.0318257
0.0326066
0.0333638
0.0341224
0.0410837
0.0381556
0.0358829
0.034487
0.0337015
0.0332309
0.033077
0.0331274
0.0332416
0.0334401
0.0337305
0.0341155
0.0442906
0.0418439
0.0397673
0.0379923
0.0365526
0.0354322
0.0347459
0.0343075
0.0339823
0.0337433
0.0335834
0.0334967
0.0352878
0.0363088
0.0372734
0.0382179
0.0391751
0.0401155
0.0410606
0.0426613
0.0448511
0.0477428
0.049114
0.0234501
0.0348626
0.0355765
0.0362629
0.0369408
0.0376437
0.0384682
0.0393163
0.0405993
0.0425981
0.0455454
0.0515668
0.0389976
0.0344664
0.0348084
0.035156
0.0355319
0.0360028
0.0366906
0.0375776
0.0387282
0.0406316
0.0430105
0.0487412
0.0460199
0.0334051
0.0333885
0.033472
0.0337096
0.0342596
0.0350718
0.0361443
0.0375559
0.039622
0.0417263
0.0461062
0.0470913
0.0216854
0.0224923
0.0242727
0.0262844
0.0281622
0.0298163
0.0313015
0.0326686
0.033939
0.0351229
0.0362312
0.0372701
0.0343942
0.0319225
0.0313877
0.0316087
0.0321043
0.0327284
0.0335537
0.0344324
0.0352347
0.0359391
0.0365972
0.0372152
0.0428087
0.0402776
0.03856
0.0375003
0.0368458
0.0365857
0.0364953
0.0365573
0.0366052
0.0366975
0.0368833
0.0370582
0.045978
0.0440532
0.0422816
0.0407938
0.0395721
0.0386026
0.0379857
0.0375066
0.0371257
0.0368341
0.036472
0.0361356
0.038243
0.0391596
0.0400366
0.0408969
0.0418071
0.0427772
0.0437288
0.0450658
0.0471399
0.0497719
0.0497404
0.0228536
0.0377989
0.038364
0.0389344
0.0395267
0.0401825
0.0409325
0.041923
0.0429572
0.044726
0.0474468
0.0524087
0.0379674
0.0372233
0.0374156
0.0376905
0.0380775
0.0385986
0.0392664
0.0402091
0.0413697
0.0429296
0.0450125
0.0500154
0.0451287
0.0359275
0.0359319
0.0362248
0.0367649
0.0374963
0.0384191
0.0396325
0.0409626
0.0425251
0.0441102
0.0474636
0.0468952
0.0204322
0.0209858
0.0224182
0.0240732
0.0256325
0.0270418
0.028372
0.0296343
0.0308401
0.0320029
0.0331295
0.034225
0.0326477
0.0300372
0.0290387
0.028851
0.0290467
0.0294864
0.0302384
0.0310302
0.0318271
0.0326086
0.0333662
0.0341254
0.0410799
0.0381531
0.0358814
0.0344862
0.033701
0.0332309
0.0330775
0.0331286
0.0332431
0.033442
0.0337326
0.0341181
0.0442872
0.0418417
0.0397661
0.037992
0.036553
0.0354333
0.0347476
0.0343095
0.0339845
0.0337457
0.0335862
0.0334999
0.0352925
0.0363141
0.0372793
0.0382248
0.0391825
0.0401237
0.0410704
0.0426735
0.0448649
0.0477584
0.0491253
0.0234541
0.0348663
0.0355808
0.036268
0.0369467
0.0376512
0.0384765
0.039326
0.0406116
0.0426131
0.0455622
0.0515842
0.0390082
0.0344696
0.0348123
0.0351608
0.035538
0.0360107
0.036701
0.0375893
0.0387424
0.0406482
0.0430295
0.048763
0.0460379
0.0334089
0.0333934
0.0334787
0.0337184
0.0342721
0.0350855
0.0361596
0.0375744
0.0396426
0.0417491
0.0461313
0.047114
0.04433
0.0426934
0.0410588
0.0396289
0.0384288
0.0374521
0.0367277
0.036099
0.0355125
0.0349391
0.0343626
0.0340025
0.0422331
0.040781
0.039255
0.0378573
0.0366523
0.0356297
0.0347712
0.0339603
0.0331244
0.0322063
0.0312157
0.0305245
0.0400244
0.0387312
0.0373069
0.03595
0.0347244
0.0336278
0.0326242
0.0316113
0.0304796
0.0290683
0.0271764
0.0251608
0.0378656
0.0367138
0.0353897
0.0340664
0.0328122
0.0316301
0.0304775
0.0292514
0.027785
0.0256973
0.0220318
0.0162783
0.0342242
0.035089
0.0362313
0.0375384
0.0388714
0.0402447
0.041632
0.0428483
0.0440094
0.0450905
0.0456396
0.0448341
0.0311473
0.0332587
0.0354131
0.0374336
0.0392951
0.0408928
0.042273
0.0433336
0.0441027
0.0444236
0.0442428
0.0432065
0.025832
0.0304709
0.0340389
0.0367419
0.038911
0.040642
0.0419885
0.0429137
0.0432984
0.043239
0.0428172
0.0414454
0.01633
0.0264418
0.0321428
0.0355369
0.0379428
0.0397452
0.0410591
0.0417961
0.0419823
0.0418326
0.0411685
0.0396269
0.0425523
0.0403002
0.0383762
0.0367409
0.0354025
0.0343553
0.0335942
0.0329824
0.0324367
0.0319555
0.0315766
0.0313545
0.0409151
0.0387403
0.0368324
0.0351821
0.0337822
0.0326132
0.0316352
0.0307468
0.0298824
0.0290338
0.0282598
0.0277582
0.0392708
0.0371235
0.0351715
0.0334337
0.0319021
0.0305519
0.0293323
0.0281546
0.0269353
0.0255865
0.0240407
0.0226953
0.0375597
0.0354344
0.0334324
0.0315978
0.0299294
0.0284023
0.0269613
0.0255127
0.0239206
0.0219132
0.0187924
0.0144111
0.0313276
0.0315066
0.0318629
0.0325098
0.0334899
0.03487
0.0364873
0.0383532
0.0404896
0.042672
0.0449186
0.0452436
0.027881
0.0285773
0.0293695
0.0303982
0.0318062
0.0335296
0.0354474
0.0374855
0.0395656
0.0414952
0.042822
0.0430174
0.0228681
0.0250218
0.0266219
0.0281343
0.0298831
0.0318479
0.0339157
0.0359872
0.0379508
0.0396032
0.0405376
0.0406735
0.0144362
0.0206463
0.0237522
0.0258512
0.0279039
0.0300426
0.032189
0.0342444
0.0360981
0.0375171
0.0382805
0.0384003
0.0443074
0.0426725
0.0410398
0.0396115
0.0384126
0.0374367
0.0367131
0.0360851
0.0354992
0.0349268
0.0343514
0.0339924
0.0422086
0.0407584
0.0392343
0.0378383
0.0366346
0.0356131
0.0347555
0.0339456
0.0331108
0.0321941
0.0312052
0.0305157
0.039998
0.0387067
0.0372844
0.0359292
0.034705
0.0336096
0.0326073
0.0315956
0.0304654
0.0290562
0.0271668
0.0251541
0.0378369
0.0366871
0.035365
0.0340434
0.0327909
0.0316102
0.030459
0.0292345
0.02777
0.0256849
0.0220232
0.0162746
0.0342149
0.0350802
0.0362231
0.0375311
0.0388647
0.0402389
0.041627
0.0428438
0.0440053
0.0450866
0.0456366
0.0448322
0.0311396
0.0332516
0.0354071
0.0374286
0.039291
0.0408898
0.0422708
0.0433321
0.0441017
0.0444233
0.0442433
0.0432079
0.0258263
0.0304658
0.0340349
0.036739
0.0389093
0.0406415
0.041989
0.0429151
0.0433007
0.0432419
0.0428208
0.0414501
0.0163271
0.0264388
0.0321409
0.0355363
0.0379435
0.0397472
0.0410623
0.0418006
0.0419876
0.0418386
0.0411754
0.0396351
0.0425519
0.0403009
0.0383777
0.036743
0.0354052
0.0343584
0.0335976
0.032986
0.0324404
0.0319595
0.0315808
0.0313596
0.0409178
0.0387439
0.0368367
0.0351868
0.0337872
0.0326184
0.0316406
0.0307523
0.0298878
0.0290392
0.0282652
0.0277643
0.0392767
0.0371303
0.0351787
0.0334413
0.03191
0.0305598
0.0293402
0.0281623
0.0269426
0.0255932
0.0240465
0.0227006
0.0375691
0.0354447
0.0334433
0.0316089
0.0299406
0.0284133
0.0269721
0.025523
0.02393
0.0219211
0.0187979
0.0144143
0.0313346
0.0315166
0.0318764
0.0325267
0.0335098
0.0348918
0.0365103
0.0383776
0.0405147
0.0426978
0.0449448
0.0452684
0.0278899
0.0285917
0.0293895
0.0304218
0.0318336
0.0335585
0.0354767
0.037515
0.0395948
0.0415239
0.0428497
0.0430437
0.0228763
0.0250393
0.0266473
0.0281649
0.0299172
0.0318831
0.0339506
0.0360213
0.0379837
0.0396347
0.0405674
0.0407017
0.0144407
0.0206653
0.0237823
0.0258879
0.027944
0.0300835
0.032229
0.0342828
0.0361346
0.0375514
0.0383127
0.0384308
0.0358137
0.034787
0.0335485
0.0322503
0.0309609
0.0296863
0.0283824
0.026942
0.025147
0.0223306
0.0162057
0.00353186
0.0338737
0.0329487
0.0317778
0.0304926
0.0291584
0.0277829
0.0263241
0.0246768
0.0226092
0.0194934
0.0136666
0.00241083
0.0320196
0.0311713
0.0300471
0.028759
0.0273662
0.0258782
0.0242585
0.0224138
0.0201399
0.0169435
0.0117183
0.00188321
0.0302056
0.029411
0.0283126
0.0270037
0.0255369
0.0239233
0.0221353
0.0201009
0.0176666
0.0144917
0.00989649
0.00153082
0.0283686
0.0276104
0.0265217
0.0251783
0.023625
0.021875
0.0199138
0.0176978
0.0151358
0.0120319
0.00802388
0.00119377
0.0264239
0.0256962
0.0246137
0.0232345
0.0215932
0.0197049
0.0175728
0.0151897
0.0125358
0.00955269
0.00612423
0.000880723
0.0242529
0.0235679
0.0225103
0.0211194
0.0194128
0.0174023
0.015115
0.0125947
0.00990962
0.00715659
0.00435467
0.000661911
0.0216778
0.0210699
0.0200884
0.0187517
0.0170483
0.0149687
0.0125659
0.00996702
0.00737437
0.00504517
0.00318791
0.000563624
0.0184139
0.0179365
0.0171174
0.0159574
0.0144055
0.0123922
0.00996551
0.00739962
0.00511544
0.00359746
0.00254073
0.000531698
0.0140023
0.0137038
0.0131471
0.0123296
0.0111803
0.00954231
0.00732748
0.00499683
0.00331625
0.00256862
0.00185636
0.000518736
0.00778305
0.00766163
0.00740979
0.00703682
0.00651933
0.00574212
0.0043645
0.00260381
0.00162989
0.0013429
0.00104756
0.000496953
0.000839244
0.000817053
0.000778322
0.000719922
0.000634084
0.000508676
0.000346143
0.000225201
0.000185961
0.000175687
0.000164573
0.00014371
0.00366809
0.0215663
0.0299265
0.0339535
0.0365476
0.0383946
0.0396618
0.0402705
0.0404126
0.0401716
0.0393132
0.0377571
0.00285986
0.0193252
0.0278038
0.0321232
0.0348441
0.0367263
0.0379291
0.0384886
0.0386207
0.0382957
0.0373399
0.0358232
0.00250211
0.0177046
0.0257383
0.0301211
0.0329084
0.034809
0.0359716
0.0365217
0.0366293
0.0362465
0.0352718
0.0338178
0.00226127
0.016256
0.0236788
0.0279834
0.0307854
0.0326854
0.0338345
0.0343904
0.0344732
0.0340512
0.0331045
0.0317293
0.00204358
0.0148104
0.021578
0.0257219
0.0284979
0.0303839
0.0315306
0.0320928
0.0321535
0.0317215
0.0308258
0.0295386
0.00181819
0.0133038
0.0194003
0.0233347
0.0260521
0.0279091
0.0290533
0.0296126
0.0296574
0.0292362
0.0284076
0.0272117
0.00157271
0.0116948
0.0171193
0.0208123
0.0234367
0.0252457
0.0263678
0.026911
0.026943
0.0265438
0.0257836
0.0246897
0.00130544
0.00995444
0.0147181
0.0181363
0.0206174
0.0223299
0.0233867
0.0238869
0.0238976
0.0235221
0.0228257
0.021854
0.00103305
0.00806926
0.0121817
0.0152483
0.0174719
0.0189772
0.0198809
0.0202832
0.0202499
0.0198966
0.0192623
0.0184533
0.000792588
0.00605103
0.00942486
0.0118924
0.0135848
0.0146673
0.0152759
0.0155065
0.0154113
0.0150945
0.0145477
0.0139653
0.00061315
0.00369069
0.00579887
0.00702964
0.00777295
0.00822175
0.00845573
0.00851759
0.00841868
0.00820732
0.00790545
0.00757941
0.000155149
0.000280587
0.000441219
0.000584812
0.000694236
0.000769937
0.000818393
0.000843906
0.00084704
0.000837015
0.000816842
0.000788811
0.0357805
0.0336916
0.0316624
0.0297534
0.0279724
0.0262964
0.0246681
0.0229826
0.021046
0.0183555
0.0130448
0.00293124
0.0339384
0.0319074
0.029883
0.0279329
0.0260721
0.0242803
0.0225004
0.0206215
0.0184321
0.0154321
0.0102652
0.00170204
0.0320302
0.0300763
0.0280858
0.0261259
0.0242159
0.0223385
0.0204393
0.0184117
0.016061
0.0129863
0.00835196
0.0011441
0.0300422
0.0281784
0.0262426
0.024297
0.0223623
0.0204249
0.0184367
0.0163036
0.0138689
0.0108519
0.00686628
0.00087163
0.0279511
0.0261858
0.0243186
0.0224049
0.0204658
0.0184924
0.0164458
0.0142517
0.0118045
0.00894062
0.00562474
0.000732107
0.0257279
0.0240668
0.0222802
0.0204155
0.018493
0.0165095
0.0144395
0.0122336
0.00985102
0.00725095
0.00465755
0.000672561
0.023326
0.0217784
0.0200916
0.0183014
0.016425
0.014465
0.012413
0.0102521
0.00802626
0.00583064
0.00403275
0.000640605
0.0206465
0.0192378
0.0176903
0.0160231
0.0142444
0.0123581
0.0103775
0.00832929
0.00637145
0.00470572
0.00361851
0.000621171
0.0174657
0.0162546
0.0149226
0.0134729
0.0118927
0.0101718
0.00834222
0.00649072
0.00491772
0.00380287
0.0031205
0.000601109
0.0132622
0.0123745
0.0113851
0.0103266
0.00914371
0.00777922
0.00625629
0.00470827
0.00353997
0.00274235
0.00224819
0.000570187
0.00722936
0.0068145
0.00633658
0.00581369
0.00524408
0.00453168
0.00361397
0.00256104
0.001891
0.00139481
0.00117726
0.000511277
0.000753625
0.000711086
0.000659296
0.000594572
0.000514823
0.000425709
0.000334453
0.000258689
0.000222937
0.000203733
0.000195465
0.000165383
0.00317672
0.0156078
0.0208381
0.0235702
0.0258949
0.0281774
0.0303825
0.0324185
0.0341817
0.0354495
0.0361312
0.0362566
0.00227643
0.0129382
0.0182532
0.0213128
0.023855
0.0262707
0.0285409
0.0305757
0.0322793
0.0334601
0.0341021
0.0342428
0.0017929
0.0109148
0.0158848
0.0190742
0.021779
0.0243237
0.0266738
0.0287315
0.0304088
0.0315447
0.0321704
0.0323302
0.00142714
0.00914754
0.0136495
0.0168454
0.0196614
0.0223277
0.0247685
0.0268691
0.0285477
0.0296666
0.0302904
0.0304709
0.00110631
0.00750628
0.0115208
0.0146255
0.017497
0.0202671
0.0227962
0.0249468
0.0266441
0.0277629
0.0283941
0.0285977
0.000856926
0.00600184
0.00951894
0.0124258
0.015283
0.0181228
0.0207157
0.0229015
0.0246186
0.025743
0.0263878
0.0266194
0.000697573
0.00474906
0.00770496
0.0102734
0.0130224
0.0158746
0.0184728
0.0206452
0.0223606
0.0234815
0.0241413
0.0244092
0.000611878
0.00378994
0.00614015
0.00820784
0.0107236
0.0134979
0.0159906
0.0180554
0.0197159
0.0208027
0.0214681
0.0217808
0.00056714
0.00297701
0.00478546
0.00625776
0.00839261
0.0109464
0.0131435
0.0149511
0.0164619
0.0174539
0.0180934
0.0184481
0.000539404
0.00215434
0.00340188
0.00434034
0.00600051
0.00809077
0.009667
0.0109886
0.0122139
0.0130598
0.0136126
0.0139631
0.000506628
0.00123508
0.00176573
0.00213823
0.00309014
0.00433416
0.00511944
0.0058918
0.00661831
0.00715095
0.00750748
0.00772026
0.000144986
0.000176707
0.000195971
0.000205107
0.000258965
0.000413302
0.000571317
0.000681937
0.000751302
0.000796055
0.000826063
0.000840549
0.0357826
0.0347579
0.0335213
0.032225
0.0309374
0.0296644
0.0283621
0.0269236
0.0251308
0.0223175
0.0161977
0.00353107
0.03384
0.032917
0.031748
0.0304648
0.0291324
0.0277586
0.0263016
0.0246564
0.0225914
0.0194791
0.0136575
0.00240987
0.0319832
0.0311369
0.0300147
0.0287284
0.0273375
0.0258514
0.0242336
0.0223912
0.0201201
0.0169275
0.0117075
0.0018819
0.0301667
0.0293739
0.0282773
0.0269702
0.0255052
0.0238935
0.0221076
0.0200757
0.0176445
0.0144736
0.009884
0.00152916
0.0283276
0.027571
0.0264838
0.0251418
0.0235901
0.021842
0.019883
0.0176697
0.0151113
0.0120119
0.00800989
0.0011919
0.0263817
0.0256552
0.0245736
0.0231954
0.0215553
0.0196686
0.0175388
0.0151588
0.012509
0.0095314
0.00610984
0.000879093
0.0242111
0.0235267
0.0224693
0.0210786
0.0193723
0.0173629
0.0150779
0.0125612
0.00988147
0.00713581
0.00434274
0.000661031
0.0216387
0.0210308
0.0200488
0.0187111
0.0170066
0.0149269
0.0125262
0.00993196
0.00734701
0.00502838
0.00318266
0.000563373
0.0183808
0.0179031
0.017083
0.015921
0.0143661
0.0123502
0.00992461
0.00736518
0.00509279
0.00358975
0.00253942
0.000531663
0.0139785
0.0136799
0.0131224
0.0123032
0.0111502
0.00950593
0.00728872
0.00496696
0.00330318
0.00256624
0.00185602
0.000518741
0.00777098
0.00764974
0.00739786
0.00702462
0.00650606
0.00572388
0.00433715
0.00258406
0.00162456
0.00134233
0.00104763
0.000496959
0.000837838
0.000815589
0.000776742
0.000718131
0.000631921
0.000506019
0.000343722
0.000224263
0.000185827
0.00017569
0.000164582
0.000143709
0.00366765
0.0215654
0.0299266
0.0339551
0.0365507
0.0383991
0.0396678
0.0402781
0.040421
0.0401809
0.0393237
0.037769
0.00285971
0.0193257
0.0278058
0.0321269
0.0348496
0.0367334
0.0379381
0.0384993
0.0386324
0.0383087
0.0373544
0.0358393
0.00250216
0.0177064
0.0257423
0.0301271
0.0329164
0.0348188
0.0359837
0.0365357
0.0366447
0.0362634
0.0352905
0.0338385
0.00226148
0.016259
0.0236846
0.0279916
0.0307959
0.0326982
0.0338499
0.0344077
0.0344925
0.0340725
0.0331279
0.0317549
0.00204396
0.0148148
0.0215857
0.0257324
0.028511
0.0303996
0.0315491
0.0321137
0.0321767
0.0317472
0.0308538
0.0295693
0.00181874
0.0133095
0.0194099
0.0233474
0.0260677
0.0279277
0.0290749
0.0296368
0.0296845
0.029266
0.0284399
0.027247
0.0015734
0.0117018
0.0171306
0.020827
0.0234545
0.0252666
0.0263917
0.0269378
0.0269728
0.0265764
0.0258189
0.024728
0.00130621
0.00996246
0.0147308
0.0181526
0.0206366
0.0223518
0.0234113
0.0239142
0.0239277
0.0235547
0.0228607
0.021892
0.0010338
0.0080777
0.012195
0.0152648
0.0174904
0.0189973
0.0199028
0.020307
0.0202759
0.0199247
0.0192921
0.0184857
0.000793118
0.00605882
0.00943701
0.0119059
0.0135984
0.0146812
0.0152904
0.0155221
0.0154282
0.0151127
0.014567
0.013986
0.000613329
0.00369597
0.00580593
0.00703531
0.00777782
0.00822665
0.0084611
0.00852375
0.00842573
0.00821518
0.00791403
0.0075884
0.000155133
0.000280843
0.000441872
0.000585688
0.000695214
0.000770993
0.000819542
0.000845172
0.000848514
0.000838607
0.000818585
0.000790714
0.0357938
0.0337059
0.0316774
0.0297687
0.0279877
0.0263113
0.0246825
0.0229959
0.0210579
0.0183649
0.0130499
0.00293227
0.033956
0.0319264
0.0299028
0.0279531
0.0260922
0.0242999
0.0225189
0.0206384
0.0184468
0.0154437
0.0102723
0.00170331
0.0320527
0.0301005
0.028111
0.0261516
0.0242414
0.0223632
0.0204625
0.0184327
0.0160791
0.0130004
0.00836113
0.00114537
0.0300701
0.0282082
0.0262738
0.0243288
0.0223938
0.0204554
0.0184651
0.0163291
0.0138905
0.0108684
0.00687694
0.000872572
0.0279845
0.0262214
0.0243559
0.022443
0.0205037
0.0185288
0.0164797
0.0142818
0.0118295
0.00895887
0.00563536
0.000732606
0.0257662
0.0241078
0.0223233
0.0204598
0.0185371
0.016552
0.0144788
0.0122681
0.00987875
0.00726933
0.00466556
0.000672659
0.0233677
0.0218232
0.0201391
0.0183507