/*--------------------------------*- C++ -*----------------------------------*\
| =========                 |                                                 |
| \\      /  F ield         | OpenFOAM: The Open Source CFD Toolbox           |
|  \\    /   O peration     | Version:  2212                                  |
|   \\  /    A nd           | Website:  www.openfoam.com                      |
|    \\/     M anipulation  |                                                 |
\*---------------------------------------------------------------------------*/
FoamFile
{
    version     2.0;
    format      ascii;
    arch        "LSB;label=32;scalar=64";
    class       volScalarField;
    location    "0.01";
    object      epsilon;
}
// * * * * * * * * * * * * * * * * * * * * * * * * * * * * * * * * * * * * * //

dimensions      [0 2 -3 0 0 0 0];

internalField   nonuniform List<scalar> 
3072
(
7063.74
5272.32
6029.3
5527.47
4822.89
5557.99
17563
51967.4
71908.2
81694.3
89928
94486.4
18483.5
14002.6
12995.3
14549.7
28847.7
37248.3
40738
53998.7
59835.1
62448.4
64197.8
65235.4
29089.6
24329.5
27889.1
26902.1
32100.7
37134.8
42776.7
48437.7
50506.9
52227.4
53196.9
53665.6
35932.2
28351.2
28833.7
28770.5
33449.8
37797.7
42199.6
44682.9
45988.1
46813.2
47206.7
47207.4
37855.8
30608.1
30830.7
30653.5
34300.3
37766
40843.8
42348.1
43116
43491.6
43525.1
43156.6
35501.5
29170.7
30288.4
30947.4
34184.1
37238.9
39293.1
40257.1
40654.9
40767.5
40564.9
40072.9
30702.1
25518.5
28477
30451.6
33564.9
36113.5
37690.5
38362.9
38552.1
38466.2
38133.3
37605.1
26983.8
22175.9
25971.3
29343.9
32899.9
35179
36412.8
36855
36856
36611.9
36182.4
35634.3
22898.6
19360.2
25329.8
29842.2
33671.2
35739.2
36621.8
36637.6
36251.4
35650
34994.5
34347
21855.9
20453.9
29482.6
35078.7
38670.3
39683.2
39420.5
38455.8
37342.4
36214.5
35155.6
34206.9
24227.4
32687.5
49667.6
55369
55368.7
52339.2
48539.2
44876.1
41763.2
39214.5
37156.7
35577.6
111821
107403
111012
105330
92507.8
79345.4
67875.5
58632.5
51518.5
46139.3
42107.2
39245.5
97436.7
97870.6
97765.2
96569.4
93176.7
87477.5
79701.9
69236.7
56520.1
43063.1
28517.7
36939.2
65941.3
65816.9
65035.8
64205.8
64030.8
64875
67768.6
72344.6
78556.9
85895.6
92043.9
112037
53597.3
52697.9
51613.3
50883.5
50987.7
52549
56234.9
62819.3
73571.7
89738.2
114621
165269
46732.9
45904.6
45042.3
44602.6
44775.5
46344.1
50012.9
56865
68787.1
89478.1
126330
205490
42490.2
41625.6
40785.6
40378.1
40558.5
42046.6
45585.9
52347.2
64461
86584.7
131910
236361
39378
38580.4
37860.9
37535.7
37836.9
39353.2
42819
49474.1
61634.2
84545.9
135305
265427
36959.3
36294.5
35764.5
35597.3
36072.4
37680.9
41127.4
47599
59553.2
82432.2
136091
292557
35059.1
34554.9
34256.3
34337.7
35076.1
36918.9
40448.3
46787.4
58450.7
81375.5
136585
326007
33789.8
33429.4
33393.3
33753.9
34804
36916.4
40547
46771.7
58243
81163.6
137985
364935
33505.8
33229.7
33407.5
34086.4
35559.2
38084.1
41876.7
47868
58844
81348.3
139448
405816
34572.6
34377.5
34794.3
35857.1
37845.7
40793.5
44645
50084.3
59918.3
81356.9
140851
453755
37603.7
37469.9
38156.3
39628.7
42100.4
45185.3
48658.2
52932.6
60563.6
79365
139113
514028
7071.21
5277.6
6033.89
5531.23
4826.89
5565.22
17611.6
52042.1
71980.6
81771.5
90007.1
94566.5
18500.7
14015.1
13006
14567.4
28885.3
37283.2
40783.7
54052.3
59888.8
62502.8
64252.3
65290.1
29115.4
24352.3
27913.9
26928.2
32136.1
37170.8
42819.4
48482.6
50551.7
52271.7
53240.4
53708.5
35961.7
28377.7
28860.4
28797.6
33482.9
37833.5
42239.4
44721.8
46026.7
46851.3
47244.1
47243.1
37886.3
30637.2
30859.4
30681
34331.5
37800.2
40878.7
42383
43150.6
43525.8
43558.3
43187.9
35530.7
29198.8
30317.5
30975.9
34214.5
37270.7
39325
40288.8
40686.4
40798.5
40594.6
40100.9
30726.3
25543.6
28506.1
30480.2
33594.2
36143.1
37720.1
38392
38580.7
38494
38159.8
37630
27004.1
22198.1
25998.5
29371.8
32927.7
35206.1
36439
36880.8
36881
36635.9
36205.1
35655.4
22913.4
19377
25352.4
29867.6
33696.5
35763.3
36644.6
36658.1
36270.4
35668.2
35011.8
34363.2
21866.9
20468
29500.1
35096.3
38686.8
39698.2
39434.4
38469.1
37355
36226.6
35167
34216.7
24236.4
32694.5
49670.4
55367.5
55365.7
52335.4
48536
44874.3
41762.8
39215.3
37158.2
35579.6
111805
107390
110995
105306
92481
79318
67849.8
58610.3
51500.3
46124.7
42095.8
39237.2
97516.3
97948.9
97842.6
96644.5
93248.4
87543.8
79762
69288.8
56562.5
43094.1
28541.3
36973.7
65995.1
65868.7
65085.3
64253.7
64077.4
64921.9
67816.6
72395.2
78610.7
85951.8
92108.8
112123
53637.9
52735.9
51648.8
50916.6
51019.7
52580.8
56267.9
62855.6
73614.4
89791.4
114689
165372
46766.3
45935.6
45070.9
44628.8
44800.4
46368.4
50037.9
56892.8
68820.7
89522.9
126397
205609
42519.2
41652.3
40809.9
40400.1
40579
42066.5
45606.3
52370
64489.2
86624
131973
236487
39403.8
38603.9
37882
37555.1
37854.6
39370.2
42836.3
49493.5
61658.7
84581.4
135366
265561
36982.1
36315.2
35783
35614
36087.6
37695.1
41141.7
47615.4
59574.3
82463.8
136148
292697
35078.5
34572.3
34271.7
34351.5
35088.5
36930.5
40460.5
46801.2
58469.1
81404.3
136639
326155
33804.6
33442.6
33404.9
33764.6
34813.8
36925.8
40557
46783.6
58259.5
81189.8
138037
365090
33514.7
33237.5
33414.6
34093
35565.6
38090.9
41884.5
47877.5
58858
81372.2
139497
405979
34574.8
34379.6
34796.2
35859.3
37849
40798.1
44651.1
50092.1
59929.4
81377.3
140898
453922
37597.8
37466.1
38153.4
39627.6
42102.1
45188.9
48663.5
52939
60572.5
79381.3
139155
514192
7068.37
5275.56
6032.12
5529.77
4825.32
5562.38
17592.8
52014.7
71955.1
81744.3
89979.6
94538.6
18494.3
14010.4
13002
14560.8
28871.7
37271.2
40767.3
54033.6
59870.4
62484.4
64234.1
65272
29106
24344.1
27905.1
26919
32123.6
37158.3
42804.5
48467.3
50536.6
52257
53226.2
53694.6
35951.4
28368.3
28851
28788.1
33471.3
37821.1
42225.7
44708.8
46013.9
46838.8
47231.9
47231.6
37875.9
30627
30849.2
30671.4
34320.7
37788.5
40867
42371.4
43139.2
43514.6
43547.5
43177.8
35521
29188.9
30307.1
30965.8
34204
37259.9
39314.4
40278.3
40676
40788.4
40584.9
40091.8
30718.4
25534.7
28495.5
30470
33584.1
36133.1
37710.2
38382.3
38571.3
38484.9
38151.1
37621.9
26997.7
22190.2
25988.5
29361.6
32917.8
35196.8
36430.2
36872.3
36872.8
36628
36197.8
35648.7
22909.1
19371
25344.1
29858.3
33687.5
35755.1
36637.1
36651.6
36264.6
35662.7
35006.6
34358.5
21864
20463.1
29494.2
35090.7
38682.1
39694.3
39431
38465.9
37352.1
36223.8
35164.4
34214.8
24233.7
32693.6
49674.8
55374.9
55373.6
52342.8
48542.2
44879.2
41766.6
39218.1
37160.4
35581.4
111815
107418
111031
105346
92516.5
79347.7
67874
58629.5
51515.3
46136.6
42105.1
39244.3
97488.8
97922
97816
96619
93224.2
87521.9
79742.4
69272.1
56549.2
43084.8
28534.5
36963.9
65977.5
65852.2
65069.8
64238.9
64063.3
64907.9
67802.5
72380.5
78595.5
85936.1
92090.5
112099
53625
52724
51637.9
50906.7
51010.2
52571.7
56258.8
62845.8
73603.1
89777.3
114671
165343
46755.7
45925.9
45062.1
44620.9
44793.1
46361.5
50031.2
56885.7
68812.5
89511.9
126380
205576
42510
41643.9
40802.4
40393.4
40573
42060.9
45600.8
52364.3
64482.4
86614.6
131957
236452
39395.5
38596.5
37875.5
37549.2
37849.4
39365.4
42831.6
49488.5
61652.7
84572.8
135351
265524
36974.8
36308.7
35777.3
35609
36083.1
37691.1
41137.8
47611.1
59568.9
82455.8
136134
292658
35072.5
34567
34267.1
34347.5
35085
36927.4
40457.2
46797.6
58464.3
81396.7
136625
326114
33800.4
33439
33401.9
33761.9
34811.3
36923.5
40554.5
46780.6
58255.1
81182.8
138023
365048
33513.1
33236.2
33413.5
34092
35564.5
38089.7
41883
47875.6
58854.7
81366
139484
405936
34576.2
34380.8
34797.4
35860.2
37849.3
40798.1
44650.8
50091.4
59927.7
81372.8
140886
453882
37603.2
37470.1
38156.8
39630.1
42103.5
45189.9
48664.2
52939.5
60572.1
79378.5
139145
514160
7065.71
5274.49
6030.37
5527.86
4823.79
5560.89
17588
52001.7
71939.8
81729.4
89964.3
94523.7
18488.2
14005.5
12997.4
14557.1
28861.9
37258
40756.4
54021
59857.5
62471.5
64221
65258.6
29099.7
24336.8
27892
26906.5
32113.5
37148.2
42795.4
48457
50526.5
52247.1
53216.5
53684.9
35943.3
28358.9
28842.1
28780.1
33464
37813.3
42217.2
44700.5
46005.9
46831.1
47224.4
47224.7
37868.3
30615.8
30838.9
30663.6
34313.5
37781
40859.4
42364
43132.2
43507.9
43541.4
43172.5
35513.3
29178
30296.3
30957.4
34196.5
37252.5
39307.2
40271.6
40669.7
40782.6
40579.9
40087.7
30713
25525.1
28484.5
30461.2
33576.1
36125.5
37703.3
38376.1
38565.7
38480
38147
37618.8
26993.9
22182.3
25978.6
29352.9
32910.1
35190.1
36424.5
36867.2
36868.5
36624.5
36195.1
35646.8
22907.2
19366.1
25337
29850.9
33681.1
35749.9
36633
36649
36262.9
35661.6
35006.1
34358.5
21862.4
20459.4
29489.7
35087.2
38679.9
39693.7
39431.3
38466.9
37353.5
36225.6
35166.4
34217.4
24233
32692.8
49675.5
55378.8
55379.2
52350.1
48550.1
44887
41773.8
39224.8
37166.6
35587.1
111833
107421
111033
105351
92525.5
79360.6
67888.7
58644.2
51529.1
46148.9
42116
39253.7
97473.8
97907
97800.8
96602.7
93207.6
87504.8
79725.4
69255.8
56534.4
43072.9
28523
36945.9
65963.7
65837.7
65055
64223.8
64047.3
64890.9
67784.2
72360.7
78573.3
85912.6
92060.8
112057
53615.8
52715.4
51629.8
50899
51002.6
52563.6
56249.6
62834.4
73587.9
89756.2
114642
165299
46749.5
45920.5
45057.5
44617
44789.5
46357.9
50026.8
56879.4
68802.9
89496.3
126354
205528
42505.6
41640.5
40799.9
40391.7
40571.7
42059.7
45599.1
52361
64476.1
86602.6
131934
236404
39392.3
38594.2
37874.2
37548.6
37849.4
39365.5
42831.4
49487.2
61648.7
84563.3
135329
265474
36972.6
36307.4
35776.9
35609.2
36083.9
37692.2
41138.7
47611
59566.6
82448.6
136114
292607
35071.4
34566.8
34267.7
34348.6
35086.6
36929.1
40458.6
46798.1
58462.8
81390.5
136607
326060
33801
33440.2
33403.6
33763.9
34813.5
36925.5
40556.1
46781.3
58253.9
81176.9
138006
364990
33516
33239.3
33416.7
34095.2
35567.4
38091.8
41884.2
47875.7
58852.9
81359.7
139466
405874
34581.6
34385.8
34802.2
35864.3
37852.2
40799.4
44650.5
50089.8
59924.4
81365.3
140867
453814
37611.1
37476.5
38162.3
39634
42104.8
45189
48661.4
52935.6
60567.5
79370.6
139124
514093
186931
176431
158895
140878
121989
104038
87910
74434.4
63768.1
55538.4
49350.5
45006.7
110855
117082
117773
115243
110445
101574
90480.4
80184.8
70765.6
62577.1
56027.7
51280.2
70380.2
75522.7
79461.5
82067.3
83283.1
82595.7
80192.9
75988.9
69952.3
64541.4
60031.2
56539
53318.6
56618.2
59691.1
62359.5
64495.5
65919.8
66401.4
66047.9
65102.9
63587.6
61612.5
59897
42746.9
42818.8
43816.7
45592
48145.8
50468.5
52261.7
54515
58919.9
70011.2
100471
205611
49378.6
49980.6
51118.1
52554.5
53246
53318.6
53213.8
53361.7
54606.8
58896.6
70858.8
101106
56051.5
56558.4
56498.2
55687.7
53994.3
51728.8
49560.1
48121.3
47986
49247.4
53967.4
64275.7
59160.7
57525.7
54647.1
50983.7
47479.3
44892.3
43247.6
42768.1
42951
43775.9
46015.9
49952
186925
176429
158893
140870
121973
104015
87882.5
74406.3
63741.9
55515.5
49331.4
44991.6
110853
117085
117779
115248
110446
101565
90467.4
80167.4
70746.3
62557.4
56010.2
51265.9
70377.1
75521.3
79462.6
82070
83288.4
82599.4
80193.8
75983.5
69943.3
64532.9
60023.7
56533.6
53315.9
56616.1
59690.5
62360.7
64499.2
65924.9
66407.3
66054.1
65109.1
63592.1
61617.9
59903.3
42736.9
42811.8
43811.8
45590.3
48148.2
50472.3
52265.7
54519.6
58925.1
70019.6
100490
205669
49370.7
49976.3
51116.2
52556.2
53248.8
53321.3
53215.8
53362.6
54606.7
58896.3
70860.8
101117
56052
56560.9
56500.9
55690.1
53995.7
51727.8
49556.9
48116.2
47979.9
49240.4
53960.2
64270.4
59166.5
57529.9
54648.2
50981.2
47473.7
44884.7
43238.8
42758.6
42941.1
43765.6
46005.1
49941
186983
176490
158953
140927
122024
104060
87920.9
74437.7
63767.2
55535.4
49346.8
45003.3
110870
117108
117808
115280
110479
101601
90499.2
80196.2
70771.2
62578.3
56026.6
51278
70375
75522.2
79466.7
82077.1
83298.1
82612.1
80207.8
76000.6
69959.3
64545.6
60033.2
56539.9
53306.3
56607.9
59683.9
62355.5
64495.2
65922.2
66405.7
66053.2
65108.1
63592.8
61617.1
59901.9
42744.6
42817.5
43816.4
45593.6
48150.1
50474
52267.6
54521.3
58926.5
70019.8
100486
205645
49377.6
49981.2
51120.1
52558.6
53251.1
53323.8
53218.6
53365.8
54610.2
58899.6
70862.7
101113
56054.4
56562.6
56502.8
55692.3
53998.6
51731.4
49561.3
48121.2
47985.1
49245.8
53965.4
64273.6
59165.6
57530.1
54650
50984.5
47478
44889.6
43243.9
42763.7
42946.3
43770.8
46010.5
49946
186962
176468
158931
140911
122016
104060
87928
74448.8
63779.8
55548.1
49358.6
45013.6
110861
117094
117789
115261
110463
101592
90495.4
80197.5
70776.1
62585.5
56034.2
51285
70375.5
75519.8
79460.8
82068.7
83286.6
82600.9
80198.5
75995.7
69958
64545.4
60033.6
56539.9
53309.8
56609.8
59683.5
62352.9
64490.1
65915.4
66397.8
66044.8
65099.7
63585.3
61609.2
59893.2
42752.2
42823.2
43820.4
45595
48147.8
50469.8
52262.7
54516.3
58921.7
70014.2
100476
205620
49381.3
49982.3
51119.1
52554.6
53245.6
53318.3
53213.6
53361.9
54607.7
58898.5
70862
101111
56050.6
56556.9
56496.5
55686
53992.9
51727.8
49559.8
48121.9
47987.1
49249.3
53970.6
64279.8
59156.9
57522.1
54644.1
50981.6
47478
44891.8
43247.6
42768.7
42951.8
43777.2
46018.2
49955
50179
52539.6
54688.7
56563.9
57904.3
58804.1
59304.2
59122.1
57953.4
56006.6
52857.6
49589.5
48897.3
50825.5
52537.2
53766.3
54475.4
54746.3
53971.1
51932.7
48753.6
44938.7
41277
38690.8
48269.1
49714.2
50588
51056.6
50986
49843.7
47674.1
44515
40872.5
37699.7
36319.7
36199.3
46286.4
46863.5
47016
46555
45285
43136.3
40329
37242.2
34705.3
34239.1
36398.7
42039.8
46682.5
42863
40430.9
39849.8
39489.4
39874.4
40454.4
41299.6
42320.8
43701.8
45760.4
48005.3
37247.8
34477.9
34107.7
35662.9
36923.5
38442.5
39800
41103.8
42439.5
43955.4
45725.8
47283.1
36236.1
31287.9
31153.9
33663.1
35645.6
37707.2
39545.9
41225.8
42776.9
44273.1
45727.1
46949.3
49102.1
29963.6
29058.6
31714.9
33981.1
36286.8
38400.2
40305.3
41948.4
43360
44586.7
45533.6
50180.6
52542.7
54693.7
56572
57914.1
58814.7
59315.5
59133.3
57963
56013.1
52859.3
49587.3
48903.7
50833.6
52547.1
53777.1
54486.2
54756.4
53978.4
51936.8
48753.2
44933.8
41268.5
38680.6
48278
49723.4
50596.9
51064.8
50991.3
49845.4
47671.4
44507.6
40860.9
37685.6
36305.5
36186.1
46293.5
46869.8
47020.5
46555.4
45281.1
43127.4
40315.2
37224
34684.1
34217.3
36377.2
42022.1
46676.4
42854.8
40421.7
39839.8
39478.7
39863.4
40442.8
41287.3
42308.3
43688.6
45746.9
47992.2
37236.8
34466.9
34096.9
35651.9
36912.2
38430.4
39787
41089.5
42424.3
43939.5
45709.7
47267.4
36223.5
31276.8
31143.4
33652.3
35634.3
37694.8
39532.4
41211.1
42761.2
44256.8
45710.7
46933.4
49086.4
29952.9
29048.9
31704.8
33970.6
36275.3
38387.8
40291.9
41934.6
43345.7
44572.2
45520.8
50168.4
52531.1
54682.6
56560.8
57903.4
58804.5
59306.3
59125.9
57957.5
56010.1
52859.6
49589.8
48888.4
50818.6
52532.5
53763.6
54473.6
54745.6
53971.4
51933
48753.1
44937.1
41274.5
38687.6
48262.4
49709.4
50584.4
51053.5
50983.2
49840.7
47670.7
44510.7
40867.3
37694.1
36315
36195.6
46282.2
46859.8
47012.3
46550.8
45280
43130.2
40321.7
37233.6
34695.9
34229.5
36390.1
42035.6
46680.7
42859.4
40426.5
39844.4
39483.1
39867.5
40446.9
41291.3
42312.4
43692.5
45750.4
47994.6
37243.7
34471.9
34101.3
35655.3
36915.4
38433.3
39789.7
41092.4
42426.9
43941.6
45711
47267.4
36232.5
31281.4
31146.8
33654.6
35636.3
37696.4
39533.7
41212.2
42761.7
44256.7
45709.8
46931.6
49102
29957.5
29051.8
31706.4
33971.9
36275.9
38387.9
40291.4
41933.5
43344.1
44570
45518.4
50169.2
52530.1
54679.7
56555.3
57896.1
58796.2
59296.9
59115.8
57947.9
56002.2
52854.7
49587.6
48886.9
50815.5
52527.6
53757.5
54467.1
54738.9
53965.6
51928.9
48751.7
44938.6
41278.4
38692.8
48259.5
49705.7
50580.4
51049.6
50980.6
49840
47672.6
44515.6
40875.1
37703.6
36324.2
36203.6
46279.8
46857.6
47011.2
46551.9
45283.6
43137
40331.9
37247.1
34711.8
34246
36406.3
42047.5
46681.3
42862
40430.2
39848.7
39488.3
39873.3
40453.4
41298.8
42320.7
43701.9
45760.5
48004.8
37249.3
34477.7
34107
35660.9
36921.2
38439.9
39797.2
41101.1
42436.8
43952.5
45722.4
47278.4
36239.5
31287.8
31152.7
33660.3
35642.3
37703.1
39541.2
41220.8
42771.3
44267.1
45720.4
46941.7
49110.6
29963.9
29057.4
31711.9
33977.6
36282.3
38394.8
40299.1
41941.6
43352.7
44578.8
45526
41866.9
41674.3
40762.9
39178.5
36771.2
33642.2
30005.6
26151.7
22493.3
19090.3
16491.3
17017.7
35010.2
33834.6
31827.7
29112.1
25547.5
21252.4
16309.5
10924.2
5863.65
2858.29
1558.56
712.699
26288.9
24177.3
21245.4
17651.9
13334.8
8618.11
4019.54
1123.21
359.259
137.048
109.504
84.9497
16878.3
14143.9
10789.4
7103.55
3396.95
921.114
152.249
44.3594
50.199
42.8463
44.8807
45.115
8244.51
5537.49
2799.41
865.99
146.323
32.1912
39.3778
37.8808
38.5161
39.3682
39.95
40.5892
2038.72
677.724
124.397
38.8215
36.6148
35.1614
36.2385
36.8684
37.744
38.4888
39.3497
39.9624
106.837
32.0026
35.0302
33.329
34.199
34.7866
35.651
36.3005
37.1686
37.9013
38.7138
39.3052
33.0237
31.6965
32.4804
32.9944
33.6589
34.2681
34.998
35.6928
36.4523
37.2456
37.9634
38.5509
30.9136
31.3681
31.9237
32.4446
33.0221
33.6252
34.2689
34.9388
35.6362
36.3761
36.982
37.5675
30.0675
30.487
30.9586
31.4471
31.9383
32.4527
32.9975
33.5715
34.1681
34.7707
35.3602
36.0532
28.4056
28.6372
28.8946
29.1666
29.4306
29.6978
29.9833
30.2684
30.5731
30.7877
30.9555
31.2068
31.8187
32.0259
32.2515
32.4717
32.6796
32.8812
33.0843
33.3069
33.5588
33.836
34.169
34.5568
94927.9
28427.6
26609
29181.4
31462.6
33778
35908.2
37791.4
39315.4
40438.2
41209.4
41707.5
75764.9
24258.9
23444.9
25979.9
28037.9
30126
32010.6
33478.8
34567.2
35343.8
35734
35674.4
61861.5
20272.8
19944.1
22180.9
23881.5
25472.8
26776.1
27765.8
28501.2
28832.5
28639.7
27758.8
49645.8
16341.5
16308.1
17943.9
19133.1
20112.5
20935.8
21514.5
21748.9
21456.7
20533.7
18995.8
38324.6
12498.2
12625.2
13542.3
14248
14780.4
15142.7
15215.9
14854.3
13930.8
12531.1
10600.8
27653.7
8812.55
8950.55
9400.26
9744.44
9866.09
9762.4
9274.07
8488.13
7238.26
5700.36
3857.71
17990.1
5469.29
5643.1
5784.76
5846.57
5588.66
5075.26
4320.89
3409.18
2274
1220.42
424.491
9693.65
2685.8
2894.23
2849.35
2716.03
2240.97
1691.86
1101.1
618.96
218.463
70.3676
31.738
3467.39
794.066
957.521
876.04
749.319
448.358
224.988
90.3921
56.2868
27.4048
30.5873
30.3339
752.685
108.325
144.991
126.775
96.1869
47.4167
31.2396
28.9561
29.2483
28.9162
29.3149
29.6604
115.979
31.5946
33.036
31.2856
30.0245
28.0904
27.9207
27.7973
27.7488
27.8038
27.9865
28.2173
81.3657
38.3324
38.686
35.5257
35.7943
33.1411
32.7903
31.329
31.6582
31.4552
31.5696
31.6516
41869.9
41674.2
40759.4
39170.5
36758.9
33625.3
29985
26128.5
22469.3
19067.7
16475.5
17003.6
35006.8
33828.1
31817.8
29098.7
25531.1
21233.8
16290.6
10907.1
5852.98
2854.37
1557.54
713.628
26280.9
24166.9
21232.7
17637.6
13320.3
8604.84
4010.65
1120.31
358.621
137.235
109.568
85.277
16868.6
14133.2
10778.3
7093.26
3389.38
918.111
151.751
44.4386
50.2079
42.8903
44.9238
45.1517
8236.29
5529.9
2793.63
863.351
145.813
32.1689
39.3696
37.8851
38.5193
39.3704
39.9528
40.5933
2034.77
675.839
124.023
38.796
36.6144
35.161
36.2385
36.868
37.7434
38.488
39.3484
39.9611
106.587
31.9746
35.021
33.3289
34.1991
34.7865
35.6507
36.3003
37.1683
37.9012
38.7136
39.305
33.0157
31.6964
32.4807
32.9943
33.6589
34.2676
34.998
35.6925
36.4514
37.2457
37.963
38.5505
30.9138
31.3678
31.9237
32.4445
33.022
33.6246
34.2689
34.9383
35.636
36.3756
36.9817
37.5671
30.0676
30.487
30.9586
31.447
31.9381
32.4525
32.9972
33.5712
34.1678
34.7703
35.3598
36.0528
28.4055
28.637
28.8943
29.1663
29.4303
29.6974
29.983
30.2681
30.5728
30.7875
30.9553
31.2067
31.8157
32.0235
32.2496
32.4703
32.6784
32.8804
33.0839
33.3065
33.5586
33.836
34.1689
34.5567
94892.1
28417.9
26600.6
29172.8
31453.8
33768.5
35898.4
37781
39305.6
40428.7
41200.2
41699.9
75741.2
24251.8
23438.2
25973.3
28031.4
30119.3
32004.5
33473
34562.1
35339.1
35730.3
35673
61845
20268
19939.4
22176.8
23877.8
25470.1
26774.1
27764.1
28500.3
28832.6
28641.8
27762.9
49635.3
16338.8
16305.4
17942.5
19132.7
20113
20936.9
21516.5
21752
21461.6
20540.1
19003.9
38319.6
12497.6
12624.7
13543.3
14249.5
14782.9
15146.4
15220.6
14860.8
13938.4
12539.9
10610.4
27653.9
8813.66
8951.84
9402.33
9747.4
9870.1
9768.15
9280.87
8495.86
7246.63
5709.08
3865.93
17993.9
5471.45
5645.33
5787.58
5850.11
5593.62
5081.43
4327.68
3416
2280.15
1225
426.635
9699.75
2688.44
2896.82
2852.31
2719.52
2245.06
1696.07
1104.89
621.628
219.731
70.6932
31.7573
3472.12
795.769
959.419
877.905
751.195
449.925
226.073
90.892
56.4737
27.3995
30.593
30.338
754.135
108.689
145.48
127.196
96.5092
47.5454
31.2761
28.9615
29.2538
28.9168
29.3154
29.661
116.178
31.6092
33.0643
31.3079
30.038
28.093
27.921
27.7984
27.7497
27.8042
27.9868
28.2176
81.384
38.3392
38.6938
35.531
35.7984
33.1413
32.791
31.329
31.6584
31.4547
31.5689
31.6508
41863.8
41670.7
40758.7
39173.4
36765
33634.9
29997.3
26143
22484.5
19082.8
16486.3
17014.2
35007.4
33831.4
31823.9
29107.7
25542.6
21247.2
16304.6
10920.4
5861.39
2857.24
1558.59
713.153
26287.2
24175.5
21243.3
17649.9
13333.1
8617.16
4019.35
1123.06
359.091
137.178
109.579
85.0829
16878.3
14144.2
10789.9
7104.42
3397.93
921.505
152.31
44.3511
50.2133
42.8632
44.8976
45.1341
8246.37
5539.66
2801.25
866.866
146.549
32.2045
39.3823
37.8825
38.5176
39.3695
39.9517
40.5916
2041.09
678.928
124.647
38.8224
36.632
35.1617
36.2381
36.868
37.7436
38.4879
39.3487
39.9614
107.011
32.0429
35.0407
33.3298
34.1987
34.7868
35.6508
36.3005
37.1689
37.9011
38.7139
39.3053
33.0322
31.6979
32.4804
32.9949
33.6588
34.2681
34.9979
35.6928
36.4517
37.2458
37.9632
38.5508
30.9138
31.3684
31.9234
32.4451
33.0219
33.625
34.2691
34.9385
35.6363
36.3758
36.9819
37.5674
30.0678
30.4875
30.9588
31.4473
31.9385
32.4528
32.9975
33.5716
34.1681
34.7707
35.3601
36.0532
28.4058
28.6373
28.8946
29.1666
29.4305
29.6976
29.9833
30.2684
30.5731
30.7878
30.9556
31.207
31.815
32.0229
32.2491
32.47
32.6782
32.8803
33.0838
33.3065
33.5586
33.8361
34.169
34.5569
94928.8
28423.1
26603.4
29174.3
31454.9
33768.9
35898.2
37780.2
39304.4
40427.3
41198.8
41698.8
75771.4
24256.7
23441.2
25975.3
28033.1
30120.4
32005
33473.3
34562.3
35339.3
35730.8
35674.7
61872
20272.7
19942.7
22179.6
23880.5
25472.5
26776.3
27766.2
28502.5
28835.1
28645.3
27767.6
49660
16343.6
16309
17946.3
19136.6
20117.1
20940.9
21520.5
21756.3
21466.6
20546
19010.9
38342.5
12502.8
12629
13548.1
14254.6
14788.2
15151.9
15226.3
14866.9
13945.2
12547.3
10618.3
27675.3
8819.07
8956.74
9407.63
9753.04
9876.12
9774.61
9287.56
8502.71
7253.76
5716.2
3872.53
18013
5476.77
5650.33
5792.89
5855.72
5599.82
5087.92
4334.19
3422.07
2285.47
1228.87
428.419
9716.17
2693.16
2901.39
2857.1
2724.46
2250.07
1700.56
1108.6
624.027
220.856
70.9804
31.7663
3481.85
798.385
962.342
880.708
753.81
451.875
227.242
91.3628
56.6344
27.3983
30.5997
30.3374
756.989
109.2
146.174
127.794
96.9527
47.7029
31.3088
28.9639
29.2575
28.9167
29.3151
29.661
116.6
31.6245
33.0994
31.3308
30.0534
28.0931
27.9198
27.7981
27.7496
27.8044
27.9871
28.2177
81.5554
38.3387
38.6935
35.5303
35.7991
33.1433
32.7943
31.3329
31.6623
31.458
31.5722
31.6537
41863.5
41672.2
40762.2
39179.8
36774.4
33647.5
30012.9
26160.9
22503.7
19101.9
16501.1
17028.4
35010.6
33836.7
31831.5
29117.9
25555
21261.6
16319.6
10934.5
5870.75
2861.14
1560.16
713.221
26293.5
24183.5
21253.2
17661.1
13345
8628.43
4027.26
1125.82
359.843
137.171
109.676
84.9795
16886.5
14153.3
10799.5
7113.75
3405.07
924.342
152.83
44.302
50.2347
42.8508
44.8917
45.1297
8254.49
5547.46
2807.34
869.575
147.103
32.2364
39.3954
37.8822
38.5175
39.3704
39.9523
40.5923
2046.12
681.305
125.091
38.8208
36.6529
35.1622
36.2375
36.868
37.7433
38.4878
39.3485
39.9612
107.365
32.0993
35.0537
33.3298
34.1983
34.7872
35.6507
36.3005
37.1693
37.9012
38.7142
39.3056
33.0447
31.6988
32.4802
32.9952
33.6587
34.2687
34.9981
35.6931
36.4524
37.2459
37.9637
38.5512
30.9137
31.3688
31.9233
32.4456
33.022
33.6255
34.2693
34.9389
35.6367
36.3763
36.9824
37.5678
30.0677
30.4877
30.9588
31.4474
31.9386
32.4529
32.9977
33.5718
34.1684
34.7709
35.3604
36.0535
28.4058
28.6374
28.8947
29.1667
29.4307
29.6978
29.9834
30.2685
30.5731
30.7878
30.9556
31.207
31.8175
32.0249
32.2507
32.4711
32.6791
32.8808
33.0841
33.3067
33.5587
33.836
34.169
34.5568
94953.3
28428.9
26608.4
29179.2
31459.9
33774.3
35903.8
37786.2
39310.1
40432.9
41204.2
41703.2
75787.6
24260.9
23445.3
25979.1
28036.8
30124.2
32008.6
33476.6
34565.2
35342
35732.9
35675.3
61883.6
20275.5
19945.5
22181.9
23882.5
25473.9
26777.2
27766.8
28502.6
28834.6
28643.4
27764.5
49668.1
16345.1
16310.5
17946.8
19136.3
20115.9
20939.3
21518.3
21753.2
21462.2
20540.5
19004
38347.3
12502.9
12628.7
13546.7
14252.5
14785.2
15147.8
15221.3
14860.4
13937.6
12538.7
10608.9
27676.8
8817.92
8955.2
9405.2
9749.55
9871.39
9768.1
9280.02
8494.19
7244.41
5706.41
3863.08
18012.2
5474.91
5648.11
5789.77
5851.54
5593.53
5080.31
4325.84
3413.52
2277.61
1223.09
425.754
9714.6
2691.07
2899.04
2853.87
2720.06
2244.37
1694.83
1103.52
620.408
219.063
70.595
31.7452
3480.5
797.065
960.745
878.666
751.35
449.456
225.642
90.7009
56.3762
27.3956
30.5935
30.3356
756.868
108.926
145.786
127.352
96.5252
47.4645
31.2545
28.9633
29.251
28.9158
29.3146
29.6604
116.643
31.6169
33.0793
31.3101
30.0369
28.0883
27.9208
27.7975
27.7491
27.8041
27.987
28.2175
81.6145
38.3407
38.6939
35.5285
35.7986
33.1435
32.7954
31.3339
31.6636
31.4588
31.5734
31.6549
)
;

boundaryField
{
    rotor
    {
        type            epsilonWallFunction;
        blending        stepwise;
        value           nonuniform List<scalar> 
192
(
7063.74
5272.32
6029.3
5527.47
4822.89
5557.99
17563
51967.4
71908.2
81694.3
89928
94486.4
97436.7
97870.6
97765.2
96569.4
93176.7
87477.5
79701.9
69236.7
56520.1
43063.1
28517.7
36939.2
7071.21
5277.6
6033.89
5531.23
4826.89
5565.22
17611.6
52042.1
71980.6
81771.5
90007.1
94566.5
97516.3
97948.9
97842.6
96644.5
93248.4
87543.8
79762
69288.8
56562.5
43094.1
28541.3
36973.7
7068.37
5275.56
6032.12
5529.77
4825.32
5562.38
17592.8
52014.7
71955.1
81744.3
89979.6
94538.6
97488.8
97922
97816
96619
93224.2
87521.9
79742.4
69272.1
56549.2
43084.8
28534.5
36963.9
7065.71
5274.49
6030.37
5527.86
4823.79
5560.89
17588
52001.7
71939.8
81729.4
89964.3
94523.7
97473.8
97907
97800.8
96602.7
93207.6
87504.8
79725.4
69255.8
56534.4
43072.9
28523
36945.9
7063.74
18483.5
29089.6
35932.2
37855.8
35501.5
30702.1
26983.8
22898.6
21855.9
24227.4
111821
36945.9
112057
165299
205528
236404
265474
292607
326060
364990
405874
453814
514093
7071.21
18500.7
29115.4
35961.7
37886.3
35530.7
30726.3
27004.1
22913.4
21866.9
24236.4
111805
36939.2
112037
165269
205490
236361
265427
292557
326007
364935
405816
453755
514028
7068.37
18494.3
29106
35951.4
37875.9
35521
30718.4
26997.7
22909.1
21864
24233.7
111815
36973.7
112123
165372
205609
236487
265561
292697
326155
365090
405979
453922
514192
7065.71
18488.2
29099.7
35943.3
37868.3
35513.3
30713
26993.9
22907.2
21862.4
24233
111833
36963.9
112099
165343
205576
236452
265524
292658
326114
365048
405936
453882
514160
)
;
    }
    stator
    {
        type            epsilonWallFunction;
        blending        stepwise;
        value           nonuniform List<scalar> 
192
(
31.8187
32.0259
32.2515
32.4717
32.6796
32.8812
33.0843
33.3069
33.5588
33.836
34.169
34.5568
81.3657
38.3324
38.686
35.5257
35.7943
33.1411
32.7903
31.329
31.6582
31.4552
31.5696
31.6516
31.8157
32.0235
32.2496
32.4703
32.6784
32.8804
33.0839
33.3065
33.5586
33.836
34.1689
34.5567
81.384
38.3392
38.6938
35.531
35.7984
33.1413
32.791
31.329
31.6584
31.4547
31.5689
31.6508
31.815
32.0229
32.2491
32.47
32.6782
32.8803
33.0838
33.3065
33.5586
33.8361
34.169
34.5569
81.5554
38.3387
38.6935
35.5303
35.7991
33.1433
32.7943
31.3329
31.6623
31.458
31.5722
31.6537
31.8175
32.0249
32.2507
32.4711
32.6791
32.8808
33.0841
33.3067
33.5587
33.836
34.169
34.5568
81.6145
38.3407
38.6939
35.5285
35.7986
33.1435
32.7954
31.3339
31.6636
31.4588
31.5734
31.6549
94927.9
75764.9
61861.5
49645.8
38324.6
27653.7
17990.1
9693.65
3467.39
752.685
115.979
81.3657
17017.7
712.699
84.9497
45.115
40.5892
39.9624
39.3052
38.5509
37.5675
36.0532
31.2068
34.5568
94892.1
75741.2
61845
49635.3
38319.6
27653.9
17993.9
9699.75
3472.12
754.135
116.178
81.384
17003.6
713.628
85.277
45.1517
40.5933
39.9611
39.305
38.5505
37.5671
36.0528
31.2067
34.5567
94928.8
75771.4
61872
49660
38342.5
27675.3
18013
9716.17
3481.85
756.989
116.6
81.5554
17014.2
713.153
85.0829
45.1341
40.5916
39.9614
39.3053
38.5508
37.5674
36.0532
31.207
34.5569
94953.3
75787.6
61883.6
49668.1
38347.3
27676.8
18012.2
9714.6
3480.5
756.868
116.643
81.6145
17028.4
713.221
84.9795
45.1297
40.5923
39.9612
39.3056
38.5512
37.5678
36.0535
31.207
34.5568
)
;
    }
    front
    {
        type            empty;
    }
    back
    {
        type            empty;
    }
}


// ************************************************************************* //
