/*--------------------------------*- C++ -*----------------------------------*\
| =========                 |                                                 |
| \\      /  F ield         | OpenFOAM: The Open Source CFD Toolbox           |
|  \\    /   O peration     | Version:  2212                                  |
|   \\  /    A nd           | Website:  www.openfoam.com                      |
|    \\/     M anipulation  |                                                 |
\*---------------------------------------------------------------------------*/
FoamFile
{
    version     2.0;
    format      ascii;
    arch        "LSB;label=32;scalar=64";
    class       volScalarField;
    location    "0.01";
    object      epsilon;
}
// * * * * * * * * * * * * * * * * * * * * * * * * * * * * * * * * * * * * * //

dimensions      [0 2 -3 0 0 0 0];

internalField   nonuniform List<scalar> 
3072
(
5719.53
4583.85
4947.29
4420.11
3973.41
5137.33
20345.6
55938.2
76815.2
88874.3
98656.7
104520
15856.3
12131.8
11370.3
14169
27829.1
35473.5
41549.8
56643.4
63714.6
67534.3
70115.3
71622.8
27309.8
23044.3
25348.4
24893.7
31726.5
37589.4
44881.8
51641.6
54653.5
57742.7
59648.3
60718
34411.9
26511.4
27467.6
28412.8
34070.6
39410.1
44626.3
48410.8
50810.5
53043.5
54528.3
55373.6
37265.5
27967
28613.9
30107.8
34768.3
39367.4
43598.8
46353.1
48444.6
50259.5
51583.9
52471
35096.6
26654.4
27811.9
29986.3
34440.7
38684.9
42131.5
44608.8
46572
48269.9
49647.7
50717.5
30941
23369.8
25706.6
29025.9
33641.5
37821.4
41193
43717.3
45740.7
47487.2
48992.9
50268.6
27690.4
20561.9
24048.8
28772.5
34016.4
38417
41904.2
44546.3
46658.1
48465
50055.2
51464.2
24755.1
19139.9
24991.9
31181.1
37618.8
42592.2
46270.9
48948.1
50995.8
52658.9
54104.5
55401.7
23997.6
21442.9
33090.9
42791.7
50839.2
55938.3
58958.8
60741.2
61841.7
62454.3
62948.1
63390.7
27174.2
38437.7
63683.9
77761.7
84456.9
86208.2
85379
83410.6
81170.7
79018.8
77159.4
75627.2
138967
133907
145018
146257
139432
130196
120999
112647
105418
99306.3
94235.3
90055
108083
108681
108377
106369
102120
95301.8
86311.7
74568.7
60912.8
45830.1
29342
37443.7
72585.8
72605.8
71608.1
70468
69749.5
70165.9
72584.3
77380.8
83915.8
92131.2
97209.4
117720
61234.3
61045.7
60246
59606
59657.1
61132.6
64780.9
71516.9
82690.9
99827.9
125491
179865
55786.6
55829.5
55540.9
55388.9
55770.2
57433
61229.5
68356
80805.8
102322
142451
228327
52981.9
53196.3
53237.5
53363.4
54016.7
55816.8
59648.4
66821.3
79664.4
103190
152225
267123
51496.7
52020.8
52391.6
52836.6
53722.7
55631.8
59451.9
66583.7
79567.3
103939
158562
303331
51316.9
52153.2
52867.4
53638.6
54765.3
56769.8
60511.6
67435.7
80254
104876
162393
337343
52708.7
53810.9
54817.9
55836.6
57124.1
59143.2
62708
69289.9
81763.6
106427
166082
378826
56584.9
57658.3
58654.5
59667.4
60907.1
62765.9
65975.4
72003.8
83872.2
108165
169813
425514
63812.9
64250.7
64735.8
65320.4
66168.4
67584.9
70186.8
75367
86244.5
109661
172845
475119
74404.2
73480.4
72840.7
72518.8
72631.6
73295.5
74955.8
78901
87995.7
110186
175356
532990
86625.1
83876.2
81715
80095.1
78996.2
78651.8
79241.5
81499.5
88267.5
108032
175120
610993
5283.26
4303.51
4758.75
4296.37
3705.49
4305.93
13401
44078.6
64853.1
75555.7
84521.8
89882
14690.7
11136.4
10295.7
11743.7
22527.8
30430.1
34657.9
48144.2
54942.2
58379.3
61114.2
62685
25055.2
20284.2
21952
21238.8
26604.3
32097.8
38324.3
44671.1
47623.2
50498.7
52526.6
53664.5
31498.1
23463.2
23937.5
24506.8
29257.8
34134.2
38871.5
42511.9
44740.7
46822.5
48318.9
49175.7
34003.6
24846.7
25220.6
26463.3
30487.5
34623.1
38472
41121.8
43013.6
44665.7
45909.1
46733.7
32030.1
23678.6
24548.4
26485.2
30442.3
34346.6
37601.7
39892.8
41632.7
43126
44342.7
45278
28317.2
20815.4
22734.8
25811.1
30090.5
33955.6
37096.2
39397.9
41167.3
42659.5
43933.5
45004
25453.7
18401.3
21391.3
25735.5
30580
34692.1
37946.5
40353.4
42197.3
43724
45042.6
46199
22855.8
17272.7
22351.1
28059.4
34102.2
38793.8
42229.2
44650.5
46403.4
47756.5
48893.7
49904.3
22141.6
19391.6
29879.7
38899.5
46512.4
51338.9
54130.9
55678.1
56479.6
56821.1
57042.8
57235.4
24851.4
34931.2
58370.4
71614.3
77934.4
79487
78515.4
76407.1
74040.6
71788.2
69845
68261.2
127076
125393
136172
136954
129674
120161
110847
102532
95455.3
89587.3
84804
80955.1
93261.8
93991.6
93818.7
92405.9
88944.4
83426.9
75876.8
66012.4
54404.8
41092.8
26370.7
33293.8
63695.8
63924.1
63394.6
62511.6
62099.1
62627.6
65016.4
69478.3
75655.9
83413.4
87873.1
105940
54230.5
54248.6
53670.2
53224.1
53367.3
54850.4
58362.1
64728.7
75164
91023.1
113979
163148
49606.6
49722
49555.6
49480.7
49925.1
51565.5
55227.3
62024.1
73756.8
93794.8
130464
207252
47218.2
47431.2
47497.5
47641.3
48289.6
50024.5
53689.7
60515.4
72669.1
94762.5
140186
243053
45957.8
46410.6
46731
47129.2
47958.9
49769.9
53406.2
60188.7
72498.1
95475.3
146407
276337
45878.8
46568.7
47160.8
47820.9
48833.7
50691.8
54210.5
60751.6
72863.6
96034.5
150069
307760
47215
48113.8
48939.9
49800.5
50933.8
52774.5
56093.8
62276.4
74026.6
97220
153197
345637
50823.7
51665.4
52462.1
53305.7
54388
56065.8
59041.2
64691.9
75853.4
98751.5
156561
390242
57448.6
57711.7
58051.3
58527.9
59257.7
60553.8
62999.3
67895.3
78144.4
100288
159497
437709
67026.9
66110
65480.7
65182.5
65320.4
66019.5
67684.4
71543.9
80415.9
101487
162767
496543
77889
75477.1
73606.6
72243
71395.7
71421.7
72294.1
74869.6
81723.3
101037
165070
581562
5718
4582.58
4947.23
4420.38
3972.55
5131.9
20295.3
55874.4
76756.2
88808.5
98588.8
104450
15852.1
12128.4
11366.9
14157
27805.2
35452.7
41513.8
56603.5
63673.1
67490.5
70072.6
71580.5
27299.4
23032.4
25336.3
24879.2
31702.5
37563.1
44849.7
51607.9
54619
57707
59613.3
60683.4
34398.9
26498.5
27453.5
28396.2
34048.7
39385.4
44597.7
48382.3
50780.6
53012.6
54497.4
55342.7
37250.6
27954.4
28600.6
30092.6
34749.3
39345.1
43575.3
46328.2
48418.2
50231.9
51555.7
52442.3
35081.8
26642.1
27799
29971.6
34423.3
38665.8
42110.8
44586.6
46548.1
48244.5
49621.3
50690.4
30927.8
23358.8
25694.4
29012.2
33625.9
37804
41174
43696.8
45718.4
47463.5
48967.8
50242.6
27678.3
20552
24037
28758.8
34000.9
38399.8
41885.5
44526.1
46636.2
48441.6
50030.6
51438.5
24744.1
19130.6
24979.7
31166.5
37602.3
42574
46251.4
48927.2
50973.5
52635.4
54079.8
55376.1
23986.9
21432.6
33075.8
42773.7
50819.2
55917.2
58936.8
60718.4
61817.9
62429.7
62923
63365
27161.5
38421.1
63660.7
77735.7
84430.6
86182.2
85353.4
83385.4
81145.6
78993.7
77134.3
75602.1
138912
133866
144980
146222
139401
130167
120972
112621
105393
99282.1
94211.5
90031.7
108014
108612
108310
106306
102061
95249.6
86266.4
74531.7
60884.7
45810
29330
37427.3
72544.2
72565.5
71570.8
70432.4
69716
70133.7
72552.7
77348.2
83882
92095.4
97171.6
117673
61200.1
61012.9
60214.6
59576
59628
61104
64752.2
71486.9
82658
99789.8
125443
179796
55755.9
55799.3
55511.7
55360.3
55742.4
57405.5
61201.7
68326.8
80773.6
102283
142398
228238
52953.1
53167.6
53209.3
53335.6
53989.4
55789.5
59620.7
66792.2
79632.1
103151
152170
267019
51469.2
51993.1
52363.9
52809.2
53695.4
55604.5
59424
66554.3
79534.7
103899
158506
303214
51290.2
52126.1
52840
53611.2
54737.9
56742.3
60483.3
67405.9
80220.8
104836
162336
337215
52682.3
53784
54790.7
55809.3
57096.7
59115.6
62679.6
69259.9
81730.2
106387
166023
378683
56558.7
57631.6
58627.6
59640.4
60880.2
62738.7
65947.5
71974.3
83839.3
108125
169754
425359
63787
64224.6
64709.6
65294.4
66142.4
67558.9
70160.3
75339
86213.4
109622
172785
474951
74379.1
73455.5
72816
72494.5
72607.5
73271.6
74931.7
78875.7
87967.6
110151
175299
532813
86602.2
83853.6
81692.8
80073.4
78975
78631.2
79221.1
81478.6
88244.1
108003
175070
610804
5284.85
4306.5
4758.69
4295.88
3706.3
4308.74
13424.5
44110.3
64875.6
75580.8
84547.5
89908.5
14693.6
11138.6
10296
11756.1
22548.5
30432
34670.8
48160.9
54957
58395.7
61130.8
62701.8
25066.6
20292.1
21951.8
21242.3
26617.1
32107.6
38339.3
44685.3
47637.4
50514
52542
53679.9
31505.7
23469.8
23944.8
24517.1
29270.2
34145.7
38883.9
42524.4
44753.8
46836.4
48333
49190
34010.7
24848.6
25224.1
26470.9
30496.6
34632.8
38482.8
41132.4
43025
44677.9
45921.7
46746.9
32035.7
23679.7
24550.8
26490.9
30449.6
34354.5
37609.9
39901.6
41642.5
43136.7
44354.2
45290.2
28322.4
20816.4
22736
25814.4
30094.9
33960.9
37102.4
39405.2
41175.8
42669.2
43944.3
45015.6
25458.8
18402.8
21392.7
25737.6
30583.3
34696.4
37951.8
40360
42205.3
43733.3
45053
46210.4
22859.8
17274.3
22352.4
28060.8
34103.8
38796.5
42233.4
44656.2
46410.7
47765.3
48903.7
49915.4
22143.3
19392.2
29878.8
38897.6
46510.5
51338.5
54132.6
55681.6
56485.7
56828.6
57051.7
57245.4
24851.8
34926.8
58360.7
71602.9
77924.2
79479.7
78511.4
76406.2
74042.6
71792.4
69851
68268.7
127060
125371
136146
136929
129653
120145
110836
102525
95451.8
89586.7
84805.8
80958.8
93288.1
94017.2
93843.7
92428.9
88965.6
83445.6
75893.3
66026.1
54416.4
41100.2
26374.9
33298.7
63712.4
63940.2
63409.5
62525.8
62112.3
62640.4
65028.7
69491.3
75669.8
83428.8
87888.7
105958
54245.9
54263.7
53684.9
53238.4
53381.5
54864.7
58377
64744.7
75181.9
91043.7
114003
163181
49621
49736.4
49570
49495.2
49939.7
51580.5
55243.3
62041.6
73776.8
93818.9
130494
207299
47231.8
47445
47511.6
47655.6
48304.3
50039.8
53706
60533.4
72690
94788.3
140222
243111
45970.6
46423.9
46744.8
47143.4
47973.5
49785.2
53422.6
60207
72519.5
95502.4
146445
276407
45891.1
46581.7
47174.3
47834.9
48848.2
50707.1
54226.9
60769.9
72885.3
96062.3
150109
307841
47227.2
48126.6
48953.3
49814.3
50948.1
52789.5
56109.9
62294.4
74048.1
97247.9
153239
345730
50835.6
51677.9
52475.1
53319.1
54402
56080.4
59056.9
64709.4
75874.4
98779
156604
390351
57459.6
57723.3
58063.5
58540.4
59270.8
60567.5
63014
67911.9
78164.6
100315
159540
437834
67035.7
66119.7
65491.1
65193.6
65332.1
66031.8
67697.6
71559.1
80434.4
101513
162811
496690
77894.2
75483.6
73614.1
72251.4
71405.2
71432
72305.1
74882.4
81739.6
101060
165113
581747
229105
217952
200122
184204
169288
155742
143514
132552
122962
114681
107606
101580
147802
153221
153111
151268
148160
143867
137777
130645
123661
117036
110729
104895
104670
109695
113150
115508
116980
116979
115865
113767
111023
107495
103047
98549.8
82501
86088.1
88931.5
91129.1
92780.8
93782.2
93701.1
92917.3
91453.4
89341.4
86849.7
83847.1
96473
92187.9
88628.5
85719.2
83355.7
81665.3
81044.3
81857.4
85380.8
97057.3
131814
259593
99570.9
94828.9
90643.6
86992.1
83784.1
81114.9
79030.3
78405.9
79207.2
83781.9
97696.6
134744
94139.6
89868.1
85706.7
81727.4
77964.3
74594.2
71760
69883.5
69412.6
70681.9
76183.5
89143.5
80386.5
76583.3
72491.3
68445.1
64753.8
61637.8
59302
57864.5
57746.8
58502.7
61763.9
67536.7
232187
212818
190637
172242
155964
141665
129155
118440
109402
101866
95625.3
90486.7
143454
143674
140629
136635
131985
126397
119709
113185
107102
101578
96655.9
92259.8
95029.7
97944.1
99216.9
99626.8
99430.3
98707.7
97369.5
95581
93598.4
91310.8
88730.6
85917.7
71150.1
73571.9
75221.3
76345.2
77121.6
77662
77767.1
77515.5
76945.4
76041.7
74802.1
73204.7
86270.9
82795.3
79934.3
77647.8
75912.2
74884.8
75055.8
76409.3
80705.6
93182.6
128330
249481
88370.2
84909.7
81838.6
79185.8
76996
75350.4
74709.2
75137.1
77320.5
83553.9
99641.3
138068
83186.2
80450.9
77738.1
75156
72825
70899.3
69663.2
69440.3
70731.1
73798.7
82164.1
97797.1
71332.1
69102.5
66627.7
64114.1
61799.2
59932
58882.7
58791.7
60535
63178
69148.6
77628.4
229045
217901
200079
184166
169254
155711
143486
132527
122938
114659
107584
101559
147763
153182
153071
151230
148124
143834
137748
130618
123636
117013
110708
104875
104643
109665
113118
115474
116947
116947
115835
113738
110997
107471
103026
98530.4
82477.7
86062.6
88904.1
91100.5
92751.7
93753.9
93673.7
92891.2
91429
89318.3
86828.7
83828.3
96452.6
92168.2
88609.5
85701
83338.3
81648.4
81027.7
81840.7
85363.1
97036
131782
259518
99552.3
94811.4
90627.2
86976.8
83769.9
81101.7
79017.8
78393.7
79194.7
83767.8
97678.3
134713
94122
89852.1
85692.6
81714.9
77953.1
74584.2
71750.7
69874.6
69403.7
70672.4
76172.1
89127.9
80370.1
76569.2
72479.9
68435
64744.8
61629.6
59294.4
57857.2
57739.7
58495.4
61755.7
67527
232129
212777
190604
172214
155939
141645
129140
118429
109394
101861
95623
90486.3
143421
143647
140605
136612
131965
126380
119695
113174
107092
101570
96650.6
92256.1
95011.4
97926.4
99200.2
99611.8
99416.2
98694.8
97357.8
95570.2
93588.7
91302.4
88723.7
85911.6
71138.9
73560.4
75210
76334.5
77111.4
77652.3
77758.1
77506.8
76937.1
76033.8
74794.7
73197.7
86272.1
82797.9
79938.1
77652.7
75918.3
74892.4
75064.5
76419.8
80719.1
93201.5
128360
249551
88367.8
84908.6
81838.9
79187.5
76999.2
75355
74716
75145
77330.8
83568.1
99662.5
138104
83180.9
80446.8
77735.4
75154.8
72825.6
70901.5
69667.8
69446.5
70739.9
73810.3
82180.7
97820.7
71325.8
69097.5
66624.3
64112.5
61799.8
59934.9
58889.1
58799.6
60545.4
63191.2
69165.4
77649.2
68795.1
70405.5
71599.2
72346.2
72673.5
72483.1
71579.1
70101.3
68088.9
65622.3
62859.4
59804.2
53607.8
54218.8
54494.9
54441.9
54044.7
53248.9
51977
50273
48201.3
45909.9
43649.5
41503.9
40779.9
40935.8
40762.5
40305.5
39574.2
38536.2
37159.4
35473.2
33573
31699.5
30358.6
29937.7
30830.8
30788.6
30417.5
29799.2
28953.4
27866.3
26527.5
24969.4
23300.7
21832.1
21538
24599.7
56542.8
53283.9
50424.4
48315.6
46992.7
46487.2
46696.1
47667.7
49430.6
51743.1
55183.5
57875.1
39119.8
36788.9
35508.9
35252.1
35698.5
36793.7
38342.9
40303.7
42647.2
45116.7
47295.8
48468.4
28687
26272.1
25888.9
26658.1
28050.7
29851.9
31906.6
34117.9
36353.6
38167.1
39384.1
39638.8
24838.2
19692.1
19451.6
20652.3
22385.7
24374.5
26474.1
28560.1
30322.9
31518.8
32095.7
31711.7
59138.3
59967.5
60476.9
60703.9
60745.7
60561.2
60058.2
59222.5
58063.6
56705.4
55203.6
53360.7
48357.6
47961.2
47402.3
46660
45782.8
44732.9
43466.9
41974
40313.2
38706.7
37336
35980
38685
37521.6
36248.7
34869.1
33418.9
31884.5
30247.5
28520.2
26795.1
25306.9
24442.8
24162.5
30349.4
28807.1
27193.3
25543.3
23892.9
22242.2
20582
18924.2
17344.7
16058.1
15782.7
17809.7
50888.3
48063
45692
43971.1
43061
43145.5
44491.6
47123.1
51228.7
56024.5
62092.4
66659.7
33854.7
31071.3
29200.9
28303.9
28369.1
29508.1
31813.5
35279.8
39805.2
44789.6
49571.4
52474.1
22920.7
19903
18476.8
18162.8
18760.6
20270.2
22725.9
26093.7
30186.7
34490
38033.1
40070.7
17941.6
13000.5
11806.4
11836.2
12641
14163.4
16409.8
19333.9
22742.5
26199.1
28832.3
30332.3
68771.5
70380.7
71573.5
72320.3
72647.8
72458.2
71555.4
70078.9
68068.1
65603.1
62842
59788.9
53584
54194.4
54470.3
54417.6
54021.1
53226.2
51955.6
50253.1
48183
45893.2
43634.4
41490.5
40756.7
40912.5
40739.5
40283.1
39552.7
38515.8
37140.3
35455.6
33557
31685.1
30345.4
29925.6
30808.9
30766.9
30396.4
29778.8
28934.1
27848
26510.6
24954
23286.9
21819.8
21526.4
24587.3
56529.8
53273
50415.3
48307.6
46985.5
46480.7
46689.9
47661.9
49424.9
51737.2
55176.9
57867.7
39108.7
36780
35501.4
35245.4
35692.6
36788.3
38337.9
40299
42642.6
45111.9
47290.6
48462.9
28677.4
26265
25883
26652.8
28045.8
29847.4
31902.4
34114
36349.8
38163.3
39380.3
39635
24829.1
19686.7
19447.1
20648.3
22381.9
24370.9
26470.8
28557
30320.1
31516.1
32093.2
31709.7
59130.5
59959.8
60469.5
60696.9
60739
60554.9
60052.4
59217.1
58058.6
56700.9
55199.6
53357.4
48352.2
47956.2
47397.8
46656.1
45779.4
44730.1
43464.7
41972.7
40312.6
38706.9
37337
35981.9
38681.8
37519.1
36246.9
34867.9
33418.4
31884.8
30248.6
28522.2
26798.2
25311
24448.1
24169.4
30348.2
28806.8
27193.8
25544.6
23894.9
22245
20585.6
18928.5
17349.9
16064.4
15790.6
17820.8
50887
48064.8
45696.7
43979
43071.8
43158.2
44506.4
47138.7
51245.1
56042.1
62112
66681.8
33858.7
31079
29212.2
28318.7
28386.4
29527.3
31833.7
35300.4
39825.7
44810.3
49593.3
52497.2
22929.7
19914.4
18491.5
18180.8
18780.9
20291.8
22748.2
26116
30208.8
34511.8
38055.4
40093.5
17955.8
13013.8
11822.3
11854.8
12661.6
14185.2
16432.1
19356.2
22764.4
26220.7
28854
30354
23346
23223.2
22791
22139.1
21294.1
20254.2
19020.1
17623.2
16153.3
14902.3
15189.7
31459.8
17764.5
17618.1
17191
16568
15778.4
14827.1
13720
12482.9
11172.7
9900.08
8886.53
8701.66
13603.3
13458.2
13064.1
12495.9
11781.8
10930
9948.34
8857.58
7690.36
6467.86
5123.89
3593.97
10491.6
10355.7
10002.2
9493.77
8856.28
8098.62
7229.39
6267.18
5236.25
4139.49
2909.82
1661.42
8155.64
8028.25
7711.72
7257.09
6687.02
6010.55
5236.81
4385.1
3482.98
2547.44
1566.41
674.445
6396.64
6273.02
5984.29
5571.6
5054.99
4444.27
3749.75
2993.88
2214.7
1454.17
749.947
235.272
5072.36
4946.14
4673.77
4288.53
3809.38
3249.02
2621.19
1953.62
1299.45
726.434
300.846
91.1795
4084.68
3949.41
3681.51
3308.22
2849.39
2324.72
1756.28
1180.02
666.597
299.879
107.271
52.6576
3374.98
3224.59
2949.28
2571.67
2114.26
1609.57
1098.31
628.967
283.144
109.06
46.616
40.4819
2937.65
2764.87
2467.33
2064.56
1583.13
1075.48
619.334
280.15
105.344
48.1826
31.5173
34.0346
2937.26
2720.68
2363.55
1884.61
1316.18
743.011
314.965
108.306
49.1183
35.2223
29.3507
27.053
5250.85
4831.45
4153.2
3249.61
2167.45
1061.61
313.797
91.4758
56.0129
48.332
40.1199
26.9683
35218.3
15260.9
14859.2
16202.1
17965.8
19875.4
21801
23545.2
24828.1
25585.1
25709.2
24951.1
14506.7
10723.6
11342.9
12765.6
14422.6
16134.6
17786.7
19147.5
20057.3
20487.7
20310.4
19408.3
8457.67
7567.24
8653.18
10052.4
11544
13021.3
14372.6
15399.4
16031.7
16226.6
15881.8
14984
5441.53
5385.58
6580.88
7882.85
9189.4
10433.2
11507.7
12272.6
12697.5
12735.3
12327.3
11514.6
3506.18
3825.16
4966.36
6132.58
7256.05
8285.85
9130.4
9701.13
9975
9917.78
9514.46
8824.41
2156.92
2673.52
3694.42
4711.29
5665.3
6510.81
7176.35
7606.02
7775.06
7671.13
7312.81
6753.41
1219.36
1810.25
2684.38
3552.43
4356.9
5053.08
5586.01
5914.3
6018.69
5904.31
5606.85
5165.52
609.811
1163.73
1880.94
2608.74
3287.76
3870.57
4310.41
4573.92
4645.06
4541.44
4305.11
3961.33
266.238
689.488
1249.06
1852.32
2435.53
2942.19
3326.06
3555.95
3616.31
3532.6
3348.47
3077.4
108.809
362.054
774.488
1281.78
1810.9
2285.67
2652.12
2875.89
2939.13
2874.37
2726.25
2498.79
47.2849
173.016
478.767
961.659
1528.05
2055.95
2469.34
2723.2
2794.19
2732.95
2577.42
2349.6
33.2051
174.969
672.706
1625.27
2794.01
3872.57
4694.14
5172.41
5243.76
5062.03
4701.84
4227.17
23471.7
21835.3
20164.5
18513.7
16916
15373.5
13876.9
12423.6
11044.4
9862.81
9648.8
18030.1
17987.8
16439.8
14887.5
13389.4
11972.6
10637.1
9369.03
8151.43
6973.54
5820.83
4645.23
3077.35
13717.7
12354.6
11005.6
9724.1
8530.54
7421.63
6380.83
5384.24
4404.24
3386.15
2213.34
812.749
10441.4
9296.73
8174.05
7117.28
6140.87
5239.68
4397.24
3589.65
2791.06
1956.7
1074.56
313.638
7946.74
7014.62
6105.4
5252.37
4465.58
3739.6
3060.23
2407.46
1766.06
1112.13
525.754
164.256
6051.42
5306.51
4581.03
3899.04
3268.07
2683.8
2135.51
1608.53
1101.3
610.816
259.727
113.943
4612.47
4022.31
3445.34
2899.26
2391.16
1919.04
1476.26
1053.64
663.617
320.892
135.723
88.237
3527.15
3058.01
2594.45
2150.55
1735.27
1350.46
993.932
661.747
378.027
165.524
80.4738
72.1902
2730.59
2350.09
1966.4
1592.62
1242.28
923.035
638.128
388.275
201.955
89.8448
55.9169
58.8557
2207.59
1882.2
1542.62
1203.31
887.252
610.987
383.764
209.225
105.424
56.7803
45.1021
45.2755
2064.78
1740.76
1391.5
1031.37
698.556
426.684
232.665
115.993
65.9764
48.8333
44.9228
29.4236
3676.62
3076.8
2433.76
1757.88
1115.81
614.927
294.601
140.864
94.8312
74.5482
66.6624
40.5605
22961.3
8624.62
7620.74
7850.35
8691.6
10077.6
12003.1
14419.1
17155.8
19850
21835.6
22970.5
7341.84
5018.26
4882.87
5271.74
6075.9
7284.23
8888.95
10842.9
13005.4
15085.8
16599.9
17472
3106.72
2875.15
3107.91
3559.4
4294.81
5330.79
6656.5
8226.8
9927.59
11534.4
12697.6
13372.7
1349.41
1612.67
1947.66
2394.99
3051.07
3936.33
5034.41
6300.57
7641.97
8888.41
9786.59
10310.4
543.298
862.689
1182.73
1588.67
2163.96
2922.79
3841.65
4873.56
5940.48
6914.08
7610.22
8015.94
223.597
429.935
683.139
1025.57
1520.51
2174.16
2955.34
3811.21
4671.57
5439.2
5980.51
6293.14
109.919
201.629
370.012
634.712
1048.15
1612.85
2290.91
3018.66
3726.29
4339.3
4762.14
5001.13
67.9537
97.046
189.481
370.802
699.462
1186.23
1790.34
2430.46
3028.58
3527.4
3861.07
4042.36
49.2114
55.1162
97.374
202.868
443.627
859.123
1416.23
2005.95
2531.36
2949.7
3220.31
3358.26
38.337
39.5232
56.6282
106.552
261.25
611.237
1155.62
1743.66
2232.89
2596.81
2832.73
2943.56
28.7514
35.2349
43.7757
61.9974
147.385
454.946
1047.33
1705.98
2227.87
2594.94
2845.49
2962.79
27.8256
49.6229
66.655
74.1433
138.927
578.256
1613.37
2803.6
3770.8
4490.31
5017.42
5282.65
23325.7
23203.3
22771.8
22120.7
21276.8
20237.9
19005.2
17609.8
16141.5
14891.9
15179.6
31438.5
17745.7
17599.9
17173.5
16551.4
15762.8
14812.6
13706.8
12471.2
11162.5
9891.35
8878.68
8690.99
13586
13441.5
13048.2
12480.9
11767.8
10917.1
9936.64
8847.22
7681.46
6460.43
5117.61
3586.26
10475.7
10340.3
9987.64
9480.13
8843.63
8087.02
7218.9
6257.92
5228.37
4133.06
2904.68
1655.82
8140.87
8014.09
7698.33
7244.59
6675.49
6000.02
5227.3
4376.73
3475.92
2541.83
1562.27
671.184
6382.85
6259.8
5971.81
5559.99
5044.35
4434.58
3741.03
2986.24
2208.37
1449.41
746.903
233.986
5059.33
4933.63
4661.94
4277.54
3799.36
3240
2613.13
1946.66
1293.95
722.754
299.121
90.8519
4072.19
3937.32
3670.02
3297.52
2839.7
2316.18
1748.84
1173.89
662.275
297.7
106.627
52.6007
3362.69
3212.61
2937.76
2560.85
2104.52
1601.31
1091.61
624.031
280.507
108.209
46.4597
40.4765
2925.04
2752.44
2455.23
2053.07
1572.81
1067.21
613.576
276.932
104.282
47.969
31.4926
34.036
2922.8
2706.29
2349.41
1871
1303.9
733.87
310.276
106.849
48.8664
35.1918
29.351
27.054
5223.83
4804.75
4127.01
3224.2
2143.83
1043.82
307.155
90.4813
55.9196
48.3373
40.1262
26.9683
35205.7
15257
14856.1
16199.2
17963
19872.8
21798.5
23543.1
24826.4
25583.6
25708.1
24950.8
14504.6
10721.6
11341
12763.7
14420.8
16132.9
17785.3
19146.5
20056.7
20487.5
20310.9
19409.7
8458.38
7566.52
8652.24
10051.5
11543.1
13020.6
14372.2
15399.6
16032.3
16227.8
15883.8
14987
5443.32
5385.7
6580.73
7882.68
9189.36
10433.4
11508.4
12274
12699.4
12737.9
12330.8
11519.1
3508.35
3825.82
4966.83
6133.11
7256.82
8287
9132.2
9703.67
9978.28
9921.89
9519.5
8830.39
2159.01
2674.5
3695.37
4712.44
5666.82
6512.88
7179.24
7609.81
7779.8
7676.81
7319.4
6760.87
1221.05
1811.38
2685.7
3554.11
4359.14
5056.09
5590.02
5919.42
6024.99
5911.63
5615.03
5174.49
610.934
1164.88
1882.5
2610.87
3290.71
3874.56
4315.64
4580.46
4653.01
4550.47
4314.95
3971.91
266.819
690.521
1250.74
1854.88
2439.24
2947.26
3332.62
3564.06
3626.05
3543.44
3360.09
3089.7
109.014
362.847
776.184
1284.77
1815.5
2292.02
2660.27
2885.82
2950.94
2887.3
2739.96
2513.15
47.3174
173.48
480.431
965.362
1534.15
2064.44
2480.14
2736.16
2809.42
2749.38
2594.72
2367.41
33.1943
175.396
675.794
1633.22
2807.03
3890.15
4715.89
5197.98
5273.71
5093.6
4734.74
4260.56
23472.5
21837
20167.1
18517.1
16920
15378.1
13882.1
12429.2
11050.6
9869.58
9657.22
18049.8
17990.3
16443.3
14891.8
13394.4
11978.1
10642.9
9375.06
8157.6
6979.79
5827.08
4651.48
3084.38
13721.8
12359.6
11011.3
9730.34
8537.03
7428.2
6387.32
5390.53
4410.22
3391.62
2217.84
815.487
10446.9
9303.03
8180.91
7124.43
6148.07
5246.71
4403.92
3595.85
2796.61
1961.36
1077.7
314.636
7953.59
7022.09
6113.22
5260.26
4473.29
3746.9
3066.96
2413.47
1771.13
1115.98
527.791
164.554
6059.61
5315.12
4589.76
3907.59
3276.19
2691.28
2142.2
1614.28
1105.85
613.824
260.878
113.967
4622.05
4032.1
3455.03
2908.5
2399.66
1926.64
1482.83
1059.05
667.559
323.008
136.273
88.1761
3538.21
3069.1
2605.22
2160.6
1744.23
1358.14
1000.28
666.651
381.186
166.787
80.696
72.0993
2743.25
2362.65
1978.48
1603.71
1251.84
930.795
644.078
392.403
204.151
90.4994
55.988
58.7599
2222.19
1896.64
1556.5
1215.99
897.757
618.909
389.138
212.284
106.671
57.062
45.1122
45.2004
2082.64
1758.36
1408.52
1047.12
711.189
435.396
237.563
118.048
66.5864
48.9299
44.9082
29.3902
3709.62
3108.95
2465.44
1788.54
1140.83
631.488
302.551
143.32
95.4254
74.5834
66.5861
40.5339
22989.8
8638.61
7636.23
7868.18
8711.26
10098.3
12024.3
14440.4
17176.9
19870.6
21856
22990.9
7361.48
5030.9
4896.94
5288.06
6093.95
7303.38
8908.7
10862.8
13025.1
15105.2
16619
17490.9
3121.28
2885.73
3120.24
3573.9
4311.02
5348.15
6674.57
8245.18
9945.96
11552.4
12715.4
13390.2
1359.02
1621.03
1958.03
2407.54
3065.37
3951.87
5050.78
6317.4
7658.93
8905.14
9803.07
10326.7
548.201
868.777
1191.06
1599.23
2176.37
2936.56
3856.4
4888.91
5956.09
6929.58
7625.53
8031.06
225.486
433.817
689.34
1034.12
1531.08
2186.28
2968.62
3825.21
4685.95
5453.57
5994.79
6307.26
110.482
203.643
374.127
641.25
1056.95
1623.47
2302.9
3031.51
3739.59
4352.71
4775.54
5014.43
68.0889
97.8457
191.774
375.381
706.553
1195.5
1801.3
2442.41
3041.03
3540.07
3873.81
4055.07
49.2343
55.3545
98.4011
205.666
449.06
867.245
1426.48
2017.31
2543.25
2961.91
3232.69
3370.67
38.3373
39.5693
56.9743
107.932
265.093
618.512
1165.8
1755.01
2244.77
2609.06
2845.29
2956.22
28.7509
35.232
43.8433
62.5044
149.925
462.107
1058.48
1718.49
2241.01
2608.7
2859.7
2977.2
27.8248
49.6123
66.6806
74.4924
141.721
590.413
1632.99
2825.51
3794.26
4515.58
5043.85
5309.63
)
;

boundaryField
{
    rotor
    {
        type            epsilonWallFunction;
        blending        stepwise;
        value           nonuniform List<scalar> 
192
(
5719.53
4583.85
4947.29
4420.11
3973.41
5137.33
20345.6
55938.2
76815.2
88874.3
98656.7
104520
108083
108681
108377
106369
102120
95301.8
86311.7
74568.7
60912.8
45830.1
29342
37443.7
5283.26
4303.51
4758.75
4296.37
3705.49
4305.93
13401
44078.6
64853.1
75555.7
84521.8
89882
93261.8
93991.6
93818.7
92405.9
88944.4
83426.9
75876.8
66012.4
54404.8
41092.8
26370.7
33293.8
5718
4582.58
4947.23
4420.38
3972.55
5131.9
20295.3
55874.4
76756.2
88808.5
98588.8
104450
108014
108612
108310
106306
102061
95249.6
86266.4
74531.7
60884.7
45810
29330
37427.3
5284.85
4306.5
4758.69
4295.88
3706.3
4308.74
13424.5
44110.3
64875.6
75580.8
84547.5
89908.5
93288.1
94017.2
93843.7
92428.9
88965.6
83445.6
75893.3
66026.1
54416.4
41100.2
26374.9
33298.7
5719.53
15856.3
27309.8
34411.9
37265.5
35096.6
30941
27690.4
24755.1
23997.6
27174.2
138967
33298.7
105958
163181
207299
243111
276407
307841
345730
390351
437834
496690
581747
5283.26
14690.7
25055.2
31498.1
34003.6
32030.1
28317.2
25453.7
22855.8
22141.6
24851.4
127076
37443.7
117720
179865
228327
267123
303331
337343
378826
425514
475119
532990
610993
5718
15852.1
27299.4
34398.9
37250.6
35081.8
30927.8
27678.3
24744.1
23986.9
27161.5
138912
33293.8
105940
163148
207252
243053
276337
307760
345637
390242
437709
496543
581562
5284.85
14693.6
25066.6
31505.7
34010.7
32035.7
28322.4
25458.8
22859.8
22143.3
24851.8
127060
37427.3
117673
179796
228238
267019
303214
337215
378683
425359
474951
532813
610804
)
;
    }
    stator
    {
        type            epsilonWallFunction;
        blending        stepwise;
        value           nonuniform List<scalar> 
192
(
5250.85
4831.45
4153.2
3249.61
2167.45
1061.61
313.797
91.4758
56.0129
48.332
40.1199
26.9683
33.2051
174.969
672.706
1625.27
2794.01
3872.57
4694.14
5172.41
5243.76
5062.03
4701.84
4227.17
3676.62
3076.8
2433.76
1757.88
1115.81
614.927
294.601
140.864
94.8312
74.5482
66.6624
40.5605
27.8256
49.6229
66.655
74.1433
138.927
578.256
1613.37
2803.6
3770.8
4490.31
5017.42
5282.65
5223.83
4804.75
4127.01
3224.2
2143.83
1043.82
307.155
90.4813
55.9196
48.3373
40.1262
26.9683
33.1943
175.396
675.794
1633.22
2807.03
3890.15
4715.89
5197.98
5273.71
5093.6
4734.74
4260.56
3709.62
3108.95
2465.44
1788.54
1140.83
631.488
302.551
143.32
95.4254
74.5834
66.5861
40.5339
27.8248
49.6123
66.6806
74.4924
141.721
590.413
1632.99
2825.51
3794.26
4515.58
5043.85
5309.63
35218.3
14506.7
8457.67
5441.53
3506.18
2156.92
1219.36
609.811
266.238
108.809
47.2849
33.2051
31459.8
8701.66
3593.97
1661.42
674.445
235.272
91.1795
52.6576
40.4819
34.0346
27.053
26.9683
22961.3
7341.84
3106.72
1349.41
543.298
223.597
109.919
67.9537
49.2114
38.337
28.7514
27.8256
18030.1
3077.35
812.749
313.638
164.256
113.943
88.237
72.1902
58.8557
45.2755
29.4236
40.5605
35205.7
14504.6
8458.38
5443.32
3508.35
2159.01
1221.05
610.934
266.819
109.014
47.3174
33.1943
31438.5
8690.99
3586.26
1655.82
671.184
233.986
90.8519
52.6007
40.4765
34.036
27.054
26.9683
22989.8
7361.48
3121.28
1359.02
548.201
225.486
110.482
68.0889
49.2343
38.3373
28.7509
27.8248
18049.8
3084.38
815.487
314.636
164.554
113.967
88.1761
72.0993
58.7599
45.2004
29.3902
40.5339
)
;
    }
    front
    {
        type            empty;
    }
    back
    {
        type            empty;
    }
}


// ************************************************************************* //
