/*--------------------------------*- C++ -*----------------------------------*\
| =========                 |                                                 |
| \\      /  F ield         | OpenFOAM: The Open Source CFD Toolbox           |
|  \\    /   O peration     | Version:  2212                                  |
|   \\  /    A nd           | Website:  www.openfoam.com                      |
|    \\/     M anipulation  |                                                 |
\*---------------------------------------------------------------------------*/
FoamFile
{
    version     2.0;
    format      ascii;
    arch        "LSB;label=32;scalar=64";
    class       volScalarField;
    location    "0.01";
    object      k;
}
// * * * * * * * * * * * * * * * * * * * * * * * * * * * * * * * * * * * * * //

dimensions      [0 2 -2 0 0 0 0];

internalField   nonuniform List<scalar> 
3072
(
4.60988
5.94671
6.27677
5.82587
5.415
6.39843
15.9069
31.4838
38.9861
42.9746
46.0882
47.9024
9.79983
13.5819
14.0619
12.1223
18.7314
25.6145
32.1363
45.1039
56.647
68.5978
79.627
89.1279
15.0361
26.7151
26.9399
25.6244
33.1582
43.0665
55.2993
69.4438
82.6282
94.5239
104.515
112.329
18.6514
33.8666
36.0363
38.6311
48.6148
60.7826
73.8639
86.6604
98.2756
108.531
117.049
123.686
20.7936
40.4015
45.1734
49.9741
60.6564
72.984
85.5007
97.1101
107.49
116.64
124.306
130.463
21.0313
42.3804
50.1003
57.3581
68.3838
80.5795
92.4492
103.134
112.673
121.142
128.427
134.491
20.2789
41.8577
51.9491
61.5445
73.4345
85.6038
97.0343
107.216
116.266
124.326
131.392
137.448
19.6888
41.089
53.4258
65.1751
78.4206
90.9197
102.167
111.984
120.59
128.217
134.96
140.853
19.0552
41.2192
57.511
72.6118
87.6521
100.602
111.449
120.489
128.19
134.927
140.887
146.162
19.4196
44.7735
69.7394
89.5733
106.462
118.902
128.19
135.339
141.144
146.12
150.513
154.455
21.8963
57.9487
99.3858
124.446
139.534
148.483
153.903
157.422
160.003
162.128
164.013
165.799
67.3215
112.319
157.352
175.64
182.507
184.39
184.052
182.841
181.446
180.17
179.145
178.393
48.993
49.1771
49.0885
48.4859
47.1893
45.0687
42.191
38.2745
33.4486
27.6731
20.5597
16.1627
96.7357
101.38
103.287
102.608
100.189
96.9871
93.1329
87.9837
80.1524
65.3312
45.892
37.3439
117.775
120.518
121.055
120.193
118.306
116.025
113.512
110.379
105.433
95.3451
71.1168
52.9435
128.453
131.313
132.462
132.457
131.67
130.724
129.814
128.766
126.536
120.023
99.2291
65.9419
135.118
138.27
140.085
140.92
141.228
141.532
142.252
143.348
143.784
140.638
124.244
77.3906
139.317
142.924
145.454
147.208
148.634
150.279
152.638
155.842
159.051
159.349
148.208
88.6627
142.485
146.53
149.706
152.283
154.686
157.491
161.307
166.466
172.408
176.005
169.867
99.8099
145.911
150.172
153.75
156.877
159.955
163.585
168.524
175.412
184.026
190.996
188.347
112.731
150.8
154.849
158.405
161.658
164.963
168.928
174.455
182.6
193.748
204.555
204.416
126.994
158.022
161.255
164.218
167.051
170.037
173.747
179.145
187.651
200.611
216.038
220.894
142.146
167.57
169.331
171.098
172.936
175.052
177.931
182.352
190.046
203.467
223.009
238.467
159.261
177.913
177.775
177.929
178.342
179.089
180.588
183.595
189.726
201.625
224.154
254.491
180.68
4.37073
5.69746
6.1141
5.71546
5.16708
5.69474
12.0489
26.8431
34.823
38.5654
41.5714
43.3171
9.31012
13.0871
13.7353
11.2658
16.0447
22.5046
27.9042
39.0532
49.9736
60.7423
70.9302
79.9194
14.1844
24.9258
24.9178
23.1566
28.8529
37.8548
48.7636
61.508
73.7816
84.8485
94.2954
101.763
17.5756
31.6589
33.4437
35.0249
43.4422
54.4396
66.3868
78.0903
88.8295
98.3586
106.357
112.623
19.556
37.7726
42.0827
45.9311
55.2065
66.3722
77.8262
88.4806
97.9886
106.406
113.511
119.219
19.7865
39.6487
46.7531
53.1987
63.0582
74.1029
84.9694
94.7364
103.392
111.076
117.706
123.231
19.1156
39.2228
48.5647
57.3935
68.294
79.4405
89.9014
99.1547
107.291
114.5
120.815
126.233
18.6154
38.6331
50.0619
61.0642
73.4328
84.9915
95.2847
104.143
111.794
118.51
124.426
129.6
18.0691
38.8155
53.9569
68.1045
82.2389
94.274
104.2
112.306
119.074
124.908
130.036
134.582
18.4057
42.0554
65.1831
83.7068
99.4907
111.04
119.502
125.837
130.841
135.043
138.724
142.053
20.63
53.9611
92.4424
115.782
129.721
137.812
142.516
145.399
147.429
149.042
150.492
151.948
63.4286
105.282
147.342
163.718
169.089
169.905
168.832
167.15
165.487
164.113
163.121
162.54
44.4026
44.6386
44.586
44.143
43.0368
41.2423
38.7172
35.2877
31.0204
25.7321
19.1471
14.9458
87.1406
91.7099
93.8123
93.4339
91.3552
88.5692
85.2156
80.6999
73.6714
60.3409
42.6045
34.8085
107.029
109.798
110.42
109.783
108.19
106.267
104.19
101.568
97.2999
88.246
65.9501
49.6072
117.163
119.934
121.122
121.204
120.677
120.034
119.516
118.872
117.215
111.587
92.408
61.8147
123.567
126.535
128.277
129.129
129.547
130.028
131
132.445
133.31
130.906
115.954
72.6628
127.648
130.961
133.302
134.956
136.36
138.048
140.519
143.923
147.537
148.427
138.648
83.3138
130.754
134.397
137.275
139.64
141.906
144.635
148.432
153.647
159.796
163.922
159.146
93.8768
134.06
137.839
141.038
143.874
146.734
150.202
155.017
161.813
170.451
177.83
176.682
106.036
138.613
142.172
145.336
148.281
151.35
155.13
160.491
168.45
179.45
190.455
191.796
119.862
145.129
147.986
150.654
153.257
156.082
159.678
164.974
173.406
186.239
201.528
207.769
134.57
153.515
155.195
156.901
158.705
160.841
163.791
168.382
176.168
189.526
209.305
225.7
151.9
162.418
162.622
163.064
163.738
164.869
166.779
170.18
176.766
189.08
212.032
243.801
174.815
4.60907
5.9456
6.27674
5.82612
5.41423
6.39401
15.8809
31.4599
38.9662
42.9535
46.0671
47.8811
9.79812
13.5801
14.0629
12.1194
18.7197
25.5994
32.111
45.072
56.6114
68.5573
79.5828
89.0823
15.0323
26.7079
26.9329
25.6137
33.1347
43.0365
55.262
69.4012
82.5815
94.4739
104.463
112.276
18.6468
33.8568
36.0243
38.6128
48.587
60.7481
73.8239
86.6156
98.2267
108.479
116.994
123.63
20.7881
40.3901
45.1592
49.9538
60.6284
72.9499
85.4613
97.0662
107.442
116.589
124.252
130.406
21.0254
42.3682
50.0848
57.3374
68.3568
80.5466
92.4114
103.092
112.626
121.092
128.373
134.435
20.2732
41.8454
51.9328
61.5234
73.4079
85.572
96.9978
107.175
116.221
124.277
131.339
137.392
19.6831
41.0766
53.4086
65.1531
78.3936
90.888
102.131
111.943
120.546
128.169
134.908
140.798
19.0496
41.2064
57.492
72.5877
87.623
100.568
111.411
120.448
128.145
134.878
140.835
146.108
19.4138
44.7592
69.7165
89.5446
106.428
118.865
128.15
135.296
141.097
146.071
150.461
154.402
21.8895
57.9296
99.3558
124.41
139.495
148.441
153.859
157.376
159.956
162.079
163.962
165.746
67.3037
112.287
157.313
175.598
182.463
184.345
184.005
182.794
181.397
180.12
179.095
178.342
48.972
49.1566
49.0683
48.4668
47.1713
45.0524
42.1763
38.2619
33.4384
27.665
20.5541
16.1581
96.6892
101.334
103.242
102.566
100.149
96.9496
93.0983
87.9523
80.1249
65.3099
45.8785
37.334
117.722
120.465
121.003
120.143
118.258
115.98
113.47
110.34
105.397
95.3143
71.0944
52.93
128.396
131.257
132.406
132.402
131.617
130.674
129.766
128.72
126.494
119.986
99.1993
65.9248
135.06
138.211
140.026
140.863
141.171
141.477
142.199
143.297
143.736
140.594
124.208
77.3707
139.259
142.865
145.394
147.148
148.575
150.221
152.58
155.786
158.998
159.299
148.165
88.64
142.427
146.47
149.646
152.222
154.625
157.43
161.246
166.406
172.349
175.95
169.819
99.7846
145.853
150.113
153.689
156.816
159.893
163.523
168.462
175.349
183.964
190.937
188.295
112.703
150.743
154.791
158.345
161.597
164.901
168.866
174.392
182.536
193.684
204.493
204.36
126.963
157.966
161.198
164.16
166.992
169.978
173.687
179.084
187.589
200.548
215.974
220.836
142.113
167.516
169.276
171.042
172.88
174.996
177.874
182.295
189.987
203.405
222.947
238.409
159.226
177.861
177.723
177.877
178.29
179.038
180.537
183.543
189.672
201.569
224.095
254.434
180.643
4.3716
5.7001
6.11405
5.715
5.16781
5.69716
12.0629
26.856
34.831
38.5739
41.5798
43.3256
9.31137
13.091
13.7317
11.2692
16.0611
22.5113
27.916
39.0702
49.9902
60.7615
70.9506
79.94
14.1887
24.9333
24.9211
23.1658
28.8737
37.8741
48.7867
61.532
73.8061
84.8738
94.321
101.789
17.5785
31.6695
33.4592
35.0466
43.4673
54.4643
66.412
78.1157
88.8555
98.3853
106.384
112.65
19.5588
37.7805
42.0967
45.9524
55.2303
66.3962
77.8504
88.5051
98.014
106.432
113.538
119.247
19.7888
39.6541
46.7637
53.216
63.0785
74.1244
84.9916
94.7595
103.416
111.102
117.733
123.26
19.118
39.2277
48.574
57.4079
68.3114
79.4597
89.922
99.1767
107.314
114.525
120.842
126.262
18.6178
38.6376
50.0707
61.0769
73.4478
85.0085
95.3037
104.164
111.817
118.535
124.453
129.629
18.0712
38.8197
53.9647
68.1145
82.2508
94.288
104.217
112.326
119.095
124.931
130.062
134.611
18.4066
42.0573
65.1867
83.7109
99.4962
111.048
119.514
125.851
130.859
135.064
138.747
142.079
20.6302
53.9569
92.436
115.776
129.717
137.812
142.519
145.407
147.44
149.057
150.51
151.97
63.4231
105.268
147.325
163.701
169.076
169.896
168.828
167.151
165.491
164.121
163.134
162.556
44.4109
44.6467
44.5938
44.1503
43.0436
41.2484
38.7227
35.2925
31.0248
25.7352
19.1491
14.9473
87.1613
91.7302
93.8319
93.4526
91.373
88.5858
85.231
80.7139
73.6834
60.3506
42.6104
34.8125
107.055
109.824
110.446
109.808
108.214
106.29
104.212
101.588
97.3184
88.2619
65.9619
49.6138
117.191
119.962
121.15
121.232
120.705
120.062
119.543
118.898
117.24
111.609
92.4248
61.8238
123.596
126.565
128.307
129.16
129.579
130.059
131.031
132.475
133.339
130.933
115.976
72.6743
127.678
130.992
133.334
134.989
136.394
138.082
140.554
143.958
147.571
148.459
138.675
83.3277
130.785
134.429
137.308
139.674
141.941
144.671
148.469
153.684
159.834
163.958
159.178
93.893
134.09
137.871
141.071
143.909
146.77
150.239
155.055
161.853
170.492
177.87
176.717
106.055
138.643
142.204
145.369
148.315
151.385
155.167
160.53
168.491
179.493
190.498
191.835
119.884
145.157
148.016
150.686
153.29
156.116
159.714
165.013
173.448
186.284
201.574
207.812
134.595
153.541
155.222
156.929
158.735
160.872
163.825
168.418
176.209
189.572
209.355
225.746
151.93
162.437
162.643
163.087
163.763
164.896
166.809
170.214
176.806
189.126
212.084
243.853
174.851
215.459
214.008
213.056
212.726
211.106
208.362
204.952
201.239
197.569
194.112
190.983
188.21
217.951
213.809
211.933
211.394
210.848
209.788
207.883
205.076
201.842
198.326
194.677
191.082
204.649
203.222
201.945
201.211
200.713
200.004
198.808
197.173
194.917
192.044
188.514
184.8
188.314
188.292
187.483
186.412
185.252
183.953
182.4
180.49
178.156
175.398
172.089
168.312
185.804
183.8
182.226
181.125
180.581
180.789
182.07
185.722
193.944
212.399
247.356
235.155
187.633
184.481
181.705
179.358
177.471
176.235
176.031
177.456
181.961
192.696
218.65
218.506
181.028
177.337
173.825
170.616
167.779
165.521
164.273
164.415
166.897
172.416
188.659
193.825
164.334
160.418
156.717
153.418
150.704
148.83
148.265
148.884
151.528
155.307
165.513
172.011
210.535
204.255
199.826
196.84
193.29
189.225
185.08
181.148
177.618
174.603
172.132
170.198
209.175
200.811
195.339
191.92
189.268
186.621
183.926
181.18
178.504
175.972
173.65
171.584
190.979
186.861
182.384
179.171
176.946
175.072
173.484
172.023
170.532
168.949
167.277
165.552
171.583
169.595
167.177
164.622
162.295
160.351
158.904
157.649
156.33
154.871
153.249
151.418
168.765
167.711
166.965
166.631
166.804
167.637
169.775
174.575
183.92
203.831
242.537
233.536
169.75
168.095
166.616
165.42
164.659
164.657
165.738
168.879
175.449
188.539
219.04
224.176
163.745
161.835
159.88
158.045
156.602
155.983
156.467
158.574
163.905
172.218
193.417
205.02
149.273
146.893
144.424
142.18
140.726
140.217
141.09
143.699
149.758
156.98
172.614
184.814
215.413
213.962
213.007
212.676
211.055
208.311
204.901
201.189
197.519
194.062
190.934
188.161
217.895
213.752
211.875
211.335
210.79
209.731
207.827
205.022
201.789
198.274
194.627
191.033
204.585
203.157
201.879
201.146
200.649
199.942
198.748
197.115
194.861
191.992
188.464
184.753
188.245
188.223
187.415
186.345
185.188
183.891
182.341
180.433
178.101
175.346
172.04
168.267
185.755
183.751
182.178
181.077
180.534
180.742
182.024
185.675
193.895
212.348
247.306
235.112
187.586
184.435
181.66
179.315
177.43
176.195
175.992
177.418
181.921
192.655
218.609
218.469
180.983
177.295
173.785
170.578
167.743
165.488
164.241
164.384
166.866
172.385
188.626
193.795
164.292
160.38
156.683
153.386
150.674
148.803
148.24
148.86
151.505
155.285
165.488
171.989
210.506
204.232
199.805
196.821
193.273
189.212
185.071
181.143
177.617
174.606
172.139
170.207
209.144
200.787
195.319
191.902
189.252
186.608
183.916
181.173
178.5
175.971
173.652
171.588
190.952
186.838
182.365
179.155
176.932
175.06
173.475
172.016
170.528
168.946
167.276
165.553
171.563
169.577
167.162
164.61
162.285
160.344
158.898
157.645
156.327
154.868
153.247
151.418
168.777
167.726
166.982
166.652
166.826
167.662
169.805
174.612
183.964
203.884
242.593
233.588
169.756
168.104
166.628
165.435
164.679
164.679
165.766
168.913
175.492
188.59
219.101
224.235
163.747
161.84
159.889
158.057
156.62
156.008
156.497
158.61
163.948
172.27
193.48
205.084
149.275
146.898
144.435
142.197
140.753
140.248
141.127
143.744
149.81
157.039
172.682
184.883
168.82
167.597
165.741
163.674
161.539
159.265
156.733
153.777
150.322
146.382
142.086
137.868
145.462
143.747
141.386
138.776
136.05
133.149
129.957
126.313
122.156
117.557
112.854
108.824
123.513
121.729
119.213
116.365
113.322
110.047
106.442
102.375
97.8
92.8094
87.8227
83.9172
104.464
102.788
100.305
97.4048
94.2289
90.764
86.9311
82.6291
77.7975
72.4247
66.6097
61.1905
134.497
132.21
130.696
130.224
130.692
132.263
134.823
138.189
142.608
147.672
153.419
155.711
106.728
106.954
108.429
111.075
114.521
118.602
123.096
127.774
132.592
136.867
139.845
139.898
83.2354
86.5149
90.7705
95.6944
101.015
106.498
111.908
116.986
121.296
124.198
125.548
123.921
61.5838
69.7777
76.4604
82.8373
89.1119
95.1659
100.804
105.634
109.087
111.02
111.142
108.392
153.343
150.274
147.268
144.37
141.769
139.45
137.328
135.128
132.695
130.165
127.674
125.091
135.986
131.783
127.751
123.88
120.249
116.793
113.395
109.861
106.147
102.528
99.3504
96.6658
119.172
114.118
109.182
104.411
99.8529
95.4526
91.1002
86.6715
82.1747
77.8389
74.1549
71.6391
103.241
97.7019
92.2104
86.8874
81.7895
76.8782
72.0571
67.2162
62.3131
57.3897
52.6908
49.0169
122.115
119.021
116.706
115.645
116.154
118.637
123.231
130.016
139.275
149.505
161.467
167.887
93.9811
91.1575
89.5899
89.7342
91.892
96.2194
102.718
111.225
121.364
131.825
140.869
145.252
70.0441
68.2793
67.8596
69.1644
72.442
77.731
84.9274
93.7308
103.516
113.018
120.06
123.43
49.2441
50.1338
51.2444
53.527
57.4679
63.1133
70.3123
78.7099
87.6358
95.8788
101.589
104.351
168.748
167.527
165.673
163.608
161.477
159.205
156.676
153.723
150.271
146.335
142.043
137.829
145.388
143.675
141.317
138.711
135.988
133.089
129.901
126.261
122.107
117.514
112.816
108.791
123.438
121.656
119.143
116.299
113.26
109.989
106.387
102.324
97.754
92.7689
87.7882
83.8892
104.388
102.715
100.235
97.3387
94.1667
90.7057
86.8771
82.5797
77.7535
72.3869
66.5789
61.1681
134.463
132.18
130.669
130.201
130.67
132.244
134.806
138.174
142.593
147.658
153.404
155.697
106.699
106.93
108.408
111.057
114.505
118.589
123.085
127.764
132.583
136.859
139.838
139.892
83.2123
86.496
90.755
95.6813
101.005
106.489
111.901
116.982
121.293
124.197
125.547
123.923
61.5669
69.7642
76.4495
82.8285
89.1051
95.1614
100.801
105.634
109.089
111.024
111.147
108.399
153.332
150.266
147.261
144.365
141.767
139.448
137.329
135.129
132.697
130.168
127.678
125.097
135.983
131.782
127.752
123.883
120.253
116.799
113.402
109.869
106.156
102.538
99.3613
96.679
119.176
114.125
109.191
104.421
99.8645
95.4653
91.1141
86.6864
82.1905
77.8553
74.1719
71.6577
103.252
97.7157
92.2263
86.905
81.8083
76.898
72.0778
67.2374
62.3347
57.4111
52.7115
49.0377
122.127
119.042
116.737
115.686
116.203
118.691
123.29
130.079
139.34
149.573
161.539
167.961
94.0017
91.1917
89.6377
89.7924
91.9596
96.292
102.793
111.301
121.44
131.901
140.945
145.329
70.0702
68.3227
67.919
69.236
72.5225
77.8154
85.0127
93.8153
103.599
113.098
120.139
123.508
49.2714
50.1826
51.3114
53.607
57.5561
63.2047
70.4038
78.7995
87.7224
95.962
101.669
104.43
88.4119
86.9019
84.5406
81.6939
78.5023
74.9706
71.0401
66.6271
61.6299
55.7851
47.9816
32.2376
75.0095
73.6694
71.4641
68.7235
65.5829
62.0593
58.1116
53.6706
48.6053
42.487
33.7075
14.0115
63.8218
62.631
60.5829
57.9663
54.9068
51.4286
47.5068
43.0915
38.0635
32.0202
23.7038
7.95991
54.4422
53.3697
51.461
48.9634
45.9895
42.5678
38.6886
34.3291
29.4197
23.6931
16.4175
4.87992
46.5213
45.5334
43.7372
41.3399
38.4404
35.07
31.2349
26.947
22.2113
16.9375
10.8472
2.74576
39.7658
38.832
37.1196
34.7991
31.9553
28.624
24.8309
20.6298
16.1201
11.4035
6.55756
1.39296
33.9277
33.025
31.3739
29.11
26.3047
23.0018
19.2559
15.1759
10.9794
6.97669
3.50242
0.751761
28.7862
27.9047
26.3064
24.0935
21.3214
18.0468
14.3728
10.4931
6.78415
3.76382
1.78944
0.527168
24.1176
23.2658
21.7363
19.5977
16.8841
13.6643
10.1227
6.60122
3.68269
1.91671
1.0531
0.44893
19.6224
18.8321
17.4248
15.4361
12.8722
9.80209
6.51856
3.6205
1.80866
1.07651
0.740154
0.406576
14.6294
13.9691
12.8043
11.1424
8.96312
6.32053
3.58783
1.62504
0.86582
0.665501
0.53655
0.354787
6.42353
6.07952
5.50147
4.68035
3.58744
2.2488
1.00855
0.439209
0.312302
0.281967
0.248635
0.190488
34.7584
55.4798
64.4864
71.7217
78.353
84.4658
89.9089
94.1503
96.8531
98.0274
97.2133
93.8597
19.7021
44.0284
54.3111
61.9267
68.5511
74.4357
79.4219
83.0099
85.1065
85.6552
84.2169
80.6406
14.0736
35.4045
45.6445
53.2172
59.6063
65.1056
69.5323
72.5222
74.1069
74.1683
72.3864
68.8502
10.7329
28.623
38.1831
45.4265
51.4412
56.4765
60.3465
62.8303
63.9874
63.6916
61.7888
58.467
8.19101
23.0274
31.6676
38.4176
43.9836
48.5302
51.8954
53.9682
54.7779
54.2544
52.3866
49.3891
6.06035
18.2477
25.9005
32.0752
37.1628
41.2339
44.1683
45.9073
46.4509
45.8121
44.0927
41.4731
4.23819
14.0793
20.7413
26.3065
30.914
34.5524
37.1271
38.5944
38.9574
38.2996
36.7853
34.552
2.7308
10.4156
16.0999
21.046
25.19
28.4433
30.7178
31.9796
32.2349
31.6227
30.3305
28.4691
1.6052
7.21877
11.9369
16.2626
19.9604
22.8635
24.8811
25.9857
26.184
25.6528
24.5744
23.0593
0.898884
4.53015
8.26852
11.9481
15.178
17.7179
19.4772
20.4347
20.5947
20.1563
19.2714
18.0772
0.521194
2.44586
5.09974
7.95741
10.5473
12.5822
13.984
14.7387
14.8426
14.4936
13.814
12.9146
0.219704
0.678226
1.6676
2.98408
4.26283
5.28506
5.99895
6.39446
6.45028
6.29985
5.99792
5.58867
88.6253
82.9524
77.2823
71.7885
66.5394
61.507
56.6017
51.6966
46.6467
41.1694
34.3298
22.2475
75.5682
70.0529
64.518
59.1591
54.0495
49.167
44.4224
39.6699
34.6916
29.0031
21.133
7.0053
64.1159
58.9655
53.7833
48.7622
43.973
39.3957
34.9437
30.4672
25.7378
20.2944
13.1593
2.9518
54.1787
49.5143
44.8079
40.2337
35.8554
31.6547
27.5525
23.4111
19.0409
14.1035
8.31408
1.60051
45.5942
41.4643
37.2811
33.1921
29.2525
25.4473
21.7101
17.9265
13.9744
9.65149
5.26373
1.06149
38.1749
34.5766
30.9123
27.3005
23.7894
20.3704
16.9944
13.5767
10.0813
6.44169
3.36661
0.847365
31.7368
28.6381
25.4588
22.2905
19.1784
16.1242
13.1014
10.0594
7.06404
4.18689
2.26454
0.727732
26.1119
23.4701
20.7312
17.964
15.2153
12.5029
9.82964
7.18592
4.75035
2.70145
1.65173
0.648166
21.1323
18.9135
16.5773
14.1762
11.7636
9.37812
7.06186
4.85909
3.0504
1.78917
1.27857
0.57571
16.5583
14.7691
12.8254
10.7883
8.71742
6.67271
4.74266
3.03794
1.86988
1.20782
0.974648
0.491772
11.8238
10.5406
9.08779
7.49437
5.85802
4.25608
2.80669
1.66827
1.08113
0.798823
0.703877
0.3754
5.09449
4.52703
3.87692
3.12906
2.31979
1.56602
0.960765
0.584277
0.445034
0.3772
0.349373
0.250673
26.1363
35.5081
38.567
41.6294
45.9097
51.5631
58.428
66.1417
74.0724
81.1301
85.8955
88.244
12.5136
24.6636
28.8964
32.4426
36.8454
42.3327
48.7371
55.7065
62.6773
68.7191
72.7649
74.7985
7.22516
17.1486
21.5082
25.2214
29.6018
34.8495
40.7757
47.0408
53.1548
58.3476
61.8159
63.5892
4.24885
11.7587
15.7845
19.4441
23.708
28.6938
34.1738
39.8134
45.19
49.6755
52.6638
54.2104
2.37387
7.79125
11.3015
14.757
18.8365
23.5584
28.6412
33.7424
38.4944
42.3865
44.9665
46.3103
1.34036
4.91855
7.80775
10.9295
14.7578
19.215
23.9489
28.5916
32.8156
36.204
38.4308
39.5913
0.847927
2.99635
5.17001
7.8185
11.3111
15.4902
19.9127
24.1613
27.9335
30.886
32.8035
33.7994
0.624415
1.85707
3.30283
5.34174
8.38541
12.2504
16.379
20.2758
23.6484
26.2122
27.856
28.7066
0.511585
1.2404
2.0903
3.45007
5.9081
9.38901
13.2078
16.763
19.7567
21.9573
23.3563
24.0817
0.440363
0.893555
1.34403
2.08241
3.8338
6.80889
10.2326
13.3992
15.9839
17.822
19.0017
19.6159
0.369592
0.638815
0.851366
1.11493
2.0665
4.29961
7.08939
9.70541
11.7534
13.1837
14.144
14.6343
0.194507
0.286757
0.349989
0.377627
0.580823
1.49696
2.93961
4.23315
5.15229
5.78676
6.23053
6.44831
88.335
86.8282
84.4708
81.628
78.4404
74.9129
70.9869
66.5789
61.5875
55.7494
47.9538
32.2231
74.9326
73.5958
71.3943
68.6577
65.5213
62.002
58.059
53.6232
48.564
42.4526
33.6814
14.0001
63.7451
62.5576
60.5132
57.9007
54.8454
51.3716
47.4545
43.0445
38.0228
31.9866
23.6784
7.9486
54.3658
53.2966
51.3915
48.8978
45.9281
42.5108
38.6363
34.2823
29.3792
23.6599
16.3927
4.86904
46.4456
45.4608
43.668
41.2744
38.3789
35.0128
31.1824
26.8999
22.1708
16.9049
10.8234
2.73696
39.6913
38.7601
37.0507
34.7336
31.8935
28.5665
24.778
20.5824
16.0799
11.3722
6.53655
1.38787
33.8549
32.9544
31.3056
29.0446
26.2426
22.9439
19.2027
15.1287
10.9406
6.94889
3.48758
0.74991
28.7162
27.8362
26.2395
24.0285
21.2591
17.9884
14.3197
10.4474
6.74956
3.74387
1.7826
0.526766
24.052
23.2009
21.672
19.5342
16.8222
13.6061
10.071
6.55995
3.65738
1.90717
1.05106
0.448885
19.5636
18.7733
17.3657
15.3766
12.8129
9.74571
6.47101
3.58887
1.79597
1.07362
0.739797
0.406586
14.582
13.9213
12.7556
11.0925
8.91212
6.27155
3.54985
1.60794
0.862183
0.665071
0.536569
0.354796
6.40161
6.05727
5.47854
4.65622
3.56175
2.22405
0.994328
0.435904
0.311929
0.281984
0.248661
0.190488
34.7502
55.4716
64.4798
71.7169
78.3502
84.4652
89.9108
94.155
96.8597
98.0359
97.2244
93.874
19.7002
44.0249
54.3085
61.9257
68.5522
74.439
79.4282
83.0193
85.1182
85.6692
84.2342
80.6616
14.0743
35.4047
45.6455
53.22
59.6112
65.113
69.5431
72.5365
74.1239
74.1882
72.4101
68.8781
10.7352
28.6261
38.1874
45.4328
51.4499
56.4881
60.362
62.8496
64.0101
63.718
61.8193
58.502
8.1943
23.0328
31.6747
38.4271
43.9961
48.5461
51.9158
53.9929
54.8067
54.2876
52.4243
49.4314
6.06419
18.2549
25.9102
32.0878
37.1789
41.2542
44.1936
45.9376
46.4862
45.8524
44.1377
41.5228
4.24205
14.0879
20.7533
26.322
30.9337
34.5771
37.1573
38.6303
38.9993
38.3468
36.8372
34.6088
2.73412
10.425
16.1135
21.0641
25.213
28.4719
30.7525
32.0207
32.2828
31.676
30.3884
28.5319
1.60753
7.22796
11.9515
16.2826
19.9862
22.8953
24.9193
26.0305
26.236
25.7102
24.6361
23.1256
0.900029
4.53803
8.2829
11.9689
15.2049
17.7509
19.5163
20.4802
20.6473
20.2137
19.3326
18.1425
0.521449
2.45089
5.1117
7.97593
10.5717
12.6119
14.0189
14.779
14.8892
14.5441
13.8677
12.9711
0.219657
0.679362
1.67266
2.99361
4.27576
5.30067
6.01704
6.41504
6.4743
6.32547
6.02528
5.61746
88.6432
82.9733
77.3056
71.8136
66.5655
61.5337
56.6286
51.7233
46.6728
41.194
34.3514
22.2635
75.5932
70.0812
64.5488
59.1916
54.0827
49.2002
44.4549
39.7013
34.721
29.0296
21.1545
7.0159
64.148
59.0011
53.8215
48.8019
44.013
39.435
34.9814
30.5024
25.7697
20.3218
13.1799
2.95842
54.2181
49.5572
44.8533
40.2802
35.9017
31.6995
27.5947
23.4497
19.0746
14.131
8.3327
1.60392
45.6411
41.5145
37.3336
33.2453
29.3048
25.4973
21.7563
17.9678
14.0092
9.67804
5.2789
1.06282
38.2291
34.634
30.9716
27.36
23.8473
20.425
17.0442
13.6201
10.1164
6.46571
3.37696
0.847515
31.7981
28.7024
25.5246
22.3561
19.2415
16.1829
13.1539
10.1039
7.09781
4.20649
2.27023
0.727417
26.179
23.5401
20.8027
18.0348
15.283
12.5649
9.88369
7.22986
4.78061
2.7152
1.65427
0.647633
21.2028
18.9867
16.6521
14.2507
11.8344
9.44191
7.11554
4.89967
3.07435
1.79723
1.27948
0.575093
16.6269
14.8409
12.8989
10.8624
8.78787
6.73528
4.79273
3.07147
1.88574
1.21169
0.974797
0.491221
11.8821
10.6017
9.15128
7.56005
5.92015
4.31049
2.84741
1.69072
1.08913
0.800075
0.703539
0.37511
5.12431
4.55785
3.90978
3.1645
2.35372
1.59361
0.977937
0.59118
0.446962
0.377338
0.34911
0.250562
26.1577
35.561
38.6381
41.7139
46.002
51.6583
58.5227
66.234
74.1611
81.2149
85.9772
88.3233
12.5357
24.7179
28.9689
32.5284
36.939
42.4291
48.8329
55.7998
62.7669
68.8046
72.847
74.878
7.24758
17.2019
21.5796
25.3063
29.6946
34.9452
40.8711
47.1338
53.2443
58.4331
61.8979
63.6685
4.26891
11.8083
15.8523
19.5258
23.7983
28.7875
34.2675
39.9051
45.2786
49.7602
52.7452
54.2893
2.38813
7.83436
11.3632
14.8336
18.9227
23.6488
28.7321
33.8317
38.5811
42.4698
45.0469
46.3884
1.34798
4.95187
7.86036
10.9988
14.8385
19.301
24.0361
28.6777
32.8995
36.2851
38.5094
39.668
0.8509
3.01763
5.2106
7.87811
11.3848
15.571
19.9954
24.2433
28.0137
30.9639
32.8794
33.8738
0.625282
1.86762
3.32976
5.38924
8.45054
12.3249
16.4562
20.3525
23.7236
26.2858
27.9282
28.7777
0.511756
1.2443
2.10487
3.48368
5.96283
9.4561
13.2784
16.8331
19.8255
22.0249
23.4232
24.1481
0.440368
0.894492
1.35008
2.10226
3.87613
6.86686
10.2945
13.4606
16.0439
17.8814
19.061
19.6749
0.369588
0.638839
0.852915
1.1232
2.09418
4.345
7.13852
9.75349
11.8004
13.2309
14.1912
14.6816
0.194503
0.286717
0.350092
0.378875
0.588688
1.51766
2.96313
4.25501
5.17351
5.80832
6.25226
6.47012
)
;

boundaryField
{
    rotor
    {
        type            kqRWallFunction;
        value           nonuniform List<scalar> 
192
(
4.60988
5.94671
6.27677
5.82587
5.415
6.39843
15.9069
31.4838
38.9861
42.9746
46.0882
47.9024
48.993
49.1771
49.0885
48.4859
47.1893
45.0687
42.191
38.2745
33.4486
27.6731
20.5597
16.1627
4.37073
5.69746
6.1141
5.71546
5.16708
5.69474
12.0489
26.8431
34.823
38.5654
41.5714
43.3171
44.4026
44.6386
44.586
44.143
43.0368
41.2423
38.7172
35.2877
31.0204
25.7321
19.1471
14.9458
4.60907
5.9456
6.27674
5.82612
5.41423
6.39401
15.8809
31.4599
38.9662
42.9535
46.0671
47.8811
48.972
49.1566
49.0683
48.4668
47.1713
45.0524
42.1763
38.2619
33.4384
27.665
20.5541
16.1581
4.3716
5.7001
6.11405
5.715
5.16781
5.69716
12.0629
26.856
34.831
38.5739
41.5798
43.3256
44.4109
44.6467
44.5938
44.1503
43.0436
41.2484
38.7227
35.2925
31.0248
25.7352
19.1491
14.9473
4.60988
9.79983
15.0361
18.6514
20.7936
21.0313
20.2789
19.6888
19.0552
19.4196
21.8963
67.3215
14.9473
34.8125
49.6138
61.8238
72.6743
83.3277
93.893
106.055
119.884
134.595
151.93
174.851
4.37073
9.31012
14.1844
17.5756
19.556
19.7865
19.1156
18.6154
18.0691
18.4057
20.63
63.4286
16.1627
37.3439
52.9435
65.9419
77.3906
88.6627
99.8099
112.731
126.994
142.146
159.261
180.68
4.60907
9.79812
15.0323
18.6468
20.7881
21.0254
20.2732
19.6831
19.0496
19.4138
21.8895
67.3037
14.9458
34.8085
49.6072
61.8147
72.6628
83.3138
93.8768
106.036
119.862
134.57
151.9
174.815
4.3716
9.31137
14.1887
17.5785
19.5588
19.7888
19.118
18.6178
18.0712
18.4066
20.6302
63.4231
16.1581
37.334
52.93
65.9248
77.3707
88.64
99.7846
112.703
126.963
142.113
159.226
180.643
)
;
    }
    stator
    {
        type            kqRWallFunction;
        value           nonuniform List<scalar> 
192
(
6.42353
6.07952
5.50147
4.68035
3.58744
2.2488
1.00855
0.439209
0.312302
0.281967
0.248635
0.190488
0.219704
0.678226
1.6676
2.98408
4.26283
5.28506
5.99895
6.39446
6.45028
6.29985
5.99792
5.58867
5.09449
4.52703
3.87692
3.12906
2.31979
1.56602
0.960765
0.584277
0.445034
0.3772
0.349373
0.250673
0.194507
0.286757
0.349989
0.377627
0.580823
1.49696
2.93961
4.23315
5.15229
5.78676
6.23053
6.44831
6.40161
6.05727
5.47854
4.65622
3.56175
2.22405
0.994328
0.435904
0.311929
0.281984
0.248661
0.190488
0.219657
0.679362
1.67266
2.99361
4.27576
5.30067
6.01704
6.41504
6.4743
6.32547
6.02528
5.61746
5.12431
4.55785
3.90978
3.1645
2.35372
1.59361
0.977937
0.59118
0.446962
0.377338
0.34911
0.250562
0.194503
0.286717
0.350092
0.378875
0.588688
1.51766
2.96313
4.25501
5.17351
5.80832
6.25226
6.47012
34.7584
19.7021
14.0736
10.7329
8.19101
6.06035
4.23819
2.7308
1.6052
0.898884
0.521194
0.219704
32.2376
14.0115
7.95991
4.87992
2.74576
1.39296
0.751761
0.527168
0.44893
0.406576
0.354787
0.190488
26.1363
12.5136
7.22516
4.24885
2.37387
1.34036
0.847927
0.624415
0.511585
0.440363
0.369592
0.194507
22.2475
7.0053
2.9518
1.60051
1.06149
0.847365
0.727732
0.648166
0.57571
0.491772
0.3754
0.250673
34.7502
19.7002
14.0743
10.7352
8.1943
6.06419
4.24205
2.73412
1.60753
0.900029
0.521449
0.219657
32.2231
14.0001
7.9486
4.86904
2.73696
1.38787
0.74991
0.526766
0.448885
0.406586
0.354796
0.190488
26.1577
12.5357
7.24758
4.26891
2.38813
1.34798
0.8509
0.625282
0.511756
0.440368
0.369588
0.194503
22.2635
7.0159
2.95842
1.60392
1.06282
0.847515
0.727417
0.647633
0.575093
0.491221
0.37511
0.250562
)
;
    }
    front
    {
        type            empty;
    }
    back
    {
        type            empty;
    }
}


// ************************************************************************* //
