/*--------------------------------*- C++ -*----------------------------------*\
| =========                 |                                                 |
| \\      /  F ield         | OpenFOAM: The Open Source CFD Toolbox           |
|  \\    /   O peration     | Version:  2212                                  |
|   \\  /    A nd           | Website:  www.openfoam.com                      |
|    \\/     M anipulation  |                                                 |
\*---------------------------------------------------------------------------*/
FoamFile
{
    version     2.0;
    format      ascii;
    arch        "LSB;label=32;scalar=64";
    class       volScalarField;
    location    "0.01";
    object      k;
}
// * * * * * * * * * * * * * * * * * * * * * * * * * * * * * * * * * * * * * //

dimensions      [0 2 -2 0 0 0 0];

internalField   nonuniform List<scalar> 
3072
(
5.29716
6.51388
7.14658
6.75716
6.15364
6.73165
14.2972
29.8541
37.1992
40.5262
43.226
44.6838
10.8366
14.4792
15.754
12.8959
18.5537
24.9217
30.1806
41.8092
51.9874
62.5698
72.3319
80.7857
15.6538
27.0223
27.3362
25.1149
30.163
38.9954
49.9956
63.0402
74.8324
85.2723
93.7443
100.117
19.1618
33.4173
34.3053
35.1197
43.7132
54.8232
66.812
78.3894
88.3908
96.8437
103.453
108.255
20.9673
40.2467
43.4607
45.8541
55.2672
66.3332
77.5052
87.5
95.9153
102.841
108.149
111.985
21.1475
42.5171
49.0432
53.7822
63.0244
73.4833
83.4893
92.0097
99.0844
104.826
109.26
112.53
20.1299
41.8605
51.1031
58.2145
67.666
77.4112
86.2418
93.5986
99.5925
104.524
108.411
111.295
19.3089
40.7024
51.7652
60.8091
70.6681
79.6497
87.4106
93.7789
98.9467
103.063
106.258
108.705
18.0528
39.3119
53.5302
64.4886
74.6799
82.7793
89.2492
94.3311
98.2858
101.375
103.84
105.815
18.2177
41.459
60.9614
73.9694
83.8315
90.0634
94.2017
97.1001
99.3573
101.151
102.486
103.695
20.2574
51.9047
82.1492
96.5751
103.592
105.578
105.418
104.531
103.757
103.333
103.2
103.383
58.2055
97.4632
129.331
136.883
135.52
129.742
123.288
117.442
112.714
109.082
106.497
105.292
45.6204
45.7622
45.7334
45.3684
44.3049
42.4865
39.9349
36.3626
31.7666
26.5035
20.1369
15.9852
87.5407
91.5573
93.074
92.3906
90.2779
87.6429
84.4958
80.2598
73.7107
60.4261
43.3094
36.0721
104.292
105.965
106.114
105.054
103.473
101.814
100.123
98.0011
94.345
86.0468
64.4812
49.9686
111.391
112.8
113.083
112.622
111.898
111.372
111.173
111.193
110.428
106.178
89.0185
61.386
114.514
115.787
116.219
116.233
116.286
116.831
118.26
120.597
122.575
122.075
109.936
71.2392
114.763
116.105
116.862
117.425
118.342
120.16
123.219
127.729
133.061
136.168
130.104
81.015
113.328
114.727
115.815
117.017
118.82
121.8
126.482
133.15
141.421
148.49
148.127
90.6607
110.592
112.132
113.627
115.49
118.204
122.31
128.478
137.211
148.473
159.541
163.578
101.873
107.505
109.137
111.012
113.55
117.195
122.388
129.795
140.286
154.431
169.747
177.289
114.503
105.011
106.635
108.885
112.215
116.8
122.916
131.166
142.723
159.011
178.984
192.214
127.82
104.111
105.641
108.293
112.502
118.077
124.917
133.376
144.821
161.221
184.82
208.492
142.901
105.731
107.207
110.346
115.658
122.02
128.966
136.64
146.198
160.629
185.917
222.201
160.851
5.30087
6.5182
7.15021
6.7602
6.15702
6.73735
14.3231
29.882
37.2247
40.5514
43.2511
44.7089
10.8433
14.4865
15.7605
12.9017
18.5689
24.9398
30.206
41.8432
52.0244
62.6126
72.3787
80.8346
15.6629
27.0358
27.348
25.1281
30.1871
39.0253
50.033
63.0849
74.8817
85.3253
93.7989
100.172
19.1722
33.4339
34.3212
35.1388
43.7422
54.8599
66.8552
78.4385
88.4437
96.899
103.509
108.311
20.9784
40.2675
43.4815
45.8769
55.2987
66.372
77.5503
87.5498
95.9684
102.896
108.204
112.039
21.1589
42.5401
49.0685
53.8094
63.0576
73.5227
83.5337
92.0578
99.1351
104.878
109.312
112.581
20.1404
41.8836
51.1314
58.245
67.7004
77.4499
86.284
93.6435
99.639
104.572
108.459
111.342
19.3184
40.725
51.7937
60.841
70.7021
79.6859
87.4487
93.8188
98.988
103.105
106.299
108.746
18.0605
39.3305
53.5563
64.5165
74.7083
82.8082
89.2789
94.3619
98.3164
101.406
103.871
105.846
18.2237
41.4744
60.9799
73.9865
83.847
90.078
94.2164
97.1159
99.3756
101.168
102.504
103.713
20.2624
51.9138
82.1523
96.5716
103.585
105.57
105.41
104.525
103.755
103.336
103.204
103.387
58.2002
97.4589
129.318
136.862
135.495
129.715
123.26
117.417
112.691
109.064
106.483
105.283
45.6451
45.7864
45.7573
45.3918
44.3274
42.5078
39.9548
36.3807
31.7824
26.5161
20.148
15.995
87.5912
91.6072
93.1214
92.4356
90.3202
87.6831
84.5337
80.2953
73.7435
60.4537
43.33
36.0903
104.347
106.017
106.165
105.101
103.518
101.856
100.164
98.0401
94.3823
86.081
64.5078
49.9893
111.445
112.852
113.132
112.668
111.941
111.413
111.211
111.231
110.465
106.215
89.051
61.4096
114.566
115.837
116.265
116.276
116.326
116.869
118.297
120.633
122.612
122.113
109.973
71.2643
114.812
116.152
116.905
117.465
118.379
120.195
123.254
127.763
133.098
136.206
130.144
81.0419
113.373
114.769
115.854
117.053
118.854
121.831
126.513
133.181
141.455
148.529
148.169
90.6891
110.63
112.168
113.66
115.52
118.232
122.337
128.504
137.238
148.504
159.579
163.621
101.904
107.535
109.164
111.037
113.573
117.216
122.409
129.816
140.308
154.458
169.782
177.333
114.535
105.029
106.652
108.901
112.23
116.815
122.931
131.182
142.74
159.033
179.016
192.26
127.854
104.116
105.647
108.299
112.509
118.085
124.926
133.386
144.832
161.237
184.846
208.538
142.936
105.724
107.201
110.344
115.659
122.023
128.97
136.645
146.205
160.638
185.936
222.245
160.884
5.29946
6.51654
7.14881
6.75902
6.15569
6.73512
14.3131
29.8718
37.2157
40.5426
43.2424
44.7002
10.8408
14.4838
15.7581
12.8995
18.5633
24.9333
30.1966
41.8307
52.0109
62.5971
72.362
80.8173
15.6596
27.031
27.3438
25.1234
30.1783
39.0143
50.0194
63.0688
74.8641
85.3066
93.7799
100.153
19.1686
33.4281
34.3155
35.1321
43.7318
54.8468
66.8399
78.4213
88.4253
96.8799
103.49
108.292
20.9747
40.2603
43.4742
45.8691
55.2878
66.3586
77.5348
87.5328
95.9504
102.877
108.186
112.021
21.1551
42.5321
49.0596
53.8001
63.0463
73.5094
83.5188
92.0417
99.1182
104.86
109.295
112.564
20.137
41.8756
51.1214
58.2344
67.6888
77.4371
86.2701
93.6288
99.6238
104.556
108.443
111.327
19.3154
40.7172
51.7835
60.8298
70.6906
79.674
87.4364
93.806
98.9748
103.092
106.286
108.733
18.0582
39.3241
53.5469
64.5065
74.6986
82.7988
89.2697
94.3525
98.3072
101.397
103.862
105.836
18.2221
41.469
60.9732
73.9803
83.8421
90.0739
94.2128
97.1121
99.3711
101.164
102.499
103.708
20.2609
51.9102
82.1531
96.5748
103.59
105.575
105.416
104.53
103.759
103.337
103.204
103.387
58.2039
97.4648
129.335
136.882
135.516
129.734
123.277
117.431
112.703
109.074
106.49
105.287
45.6366
45.7781
45.7491
45.3838
44.3198
42.5007
39.9483
36.3749
31.7774
26.5123
20.1448
15.9922
87.5735
91.5899
93.1052
92.4203
90.306
87.6697
84.5213
80.284
73.7332
60.445
43.324
36.0852
104.328
105.999
106.148
105.085
103.503
101.842
100.151
98.0278
94.3709
86.0707
64.4997
49.9835
111.427
112.834
113.116
112.653
111.926
111.399
111.199
111.219
110.454
106.204
89.0414
61.4031
114.549
115.82
116.25
116.262
116.313
116.857
118.285
120.622
122.601
122.101
109.962
71.2574
114.796
116.137
116.891
117.452
118.367
120.183
123.243
127.752
133.087
136.195
130.132
81.0345
113.358
114.755
115.841
117.041
118.843
121.821
126.502
133.171
141.444
148.517
148.157
90.6812
110.618
112.156
113.649
115.51
118.222
122.328
128.495
137.229
148.494
159.567
163.609
101.895
107.526
109.156
111.029
113.565
117.208
122.401
129.808
140.301
154.449
169.771
177.32
114.527
105.024
106.647
108.895
112.224
116.809
122.925
131.176
142.734
159.026
179.007
192.246
127.845
104.115
105.645
108.296
112.505
118.081
124.923
133.382
144.829
161.233
184.84
208.526
142.927
105.726
107.202
110.343
115.656
122.02
128.968
136.644
146.205
160.638
185.933
222.234
160.878
5.29813
6.51564
7.14745
6.75746
6.15438
6.7339
14.3105
29.8668
37.2105
40.5376
43.2374
44.6954
10.8384
14.4816
15.7549
12.8962
18.5601
24.9295
30.193
41.8262
52.0062
62.5915
72.3555
80.8102
15.6573
27.0268
27.338
25.119
30.1776
39.0129
50.0171
63.0646
74.8588
85.3004
93.7732
100.146
19.1657
33.4249
34.3143
35.1332
43.7327
54.8459
66.8371
78.4166
88.4196
96.8738
103.484
108.286
20.9718
40.2556
43.4725
45.8707
55.2878
66.3567
77.5309
87.5274
95.9444
102.871
108.18
112.016
21.1521
42.5262
49.0557
53.7994
63.0447
73.5062
83.5141
92.0362
99.1125
104.855
109.291
112.561
20.1346
41.8697
51.116
58.2315
67.6859
77.4332
86.2655
93.6239
99.6193
104.552
108.44
111.325
19.3136
40.7117
51.7784
60.826
70.6875
79.671
87.4333
93.8031
98.9723
103.09
106.285
108.734
18.0573
39.3208
53.5433
64.5047
74.6983
82.7994
89.2707
94.3538
98.3094
101.399
103.865
105.841
18.2213
41.4667
60.973
73.9832
83.8475
90.0812
94.2209
97.1204
99.3788
101.172
102.508
103.718
20.2605
51.9092
82.1572
96.5849
103.603
105.592
105.433
104.548
103.775
103.352
103.219
103.402
58.21
97.4674
129.339
136.893
135.53
129.753
123.299
117.455
112.727
109.096
106.511
105.306
45.6318
45.7734
45.7443
45.3786
44.3145
42.4951
39.9426
36.3691
31.7719
26.5074
20.1394
15.987
87.5658
91.5821
93.0977
92.413
90.299
87.6625
84.5138
80.2759
73.7244
60.4364
43.3154
36.0762
104.322
105.994
106.142
105.08
103.499
101.838
100.145
98.0215
94.363
86.0618
64.4914
49.9746
111.422
112.831
113.113
112.651
111.925
111.398
111.197
111.217
110.449
106.196
89.0318
61.3934
114.546
115.819
116.25
116.263
116.315
116.859
118.287
120.622
122.598
122.095
109.952
71.2477
114.794
116.137
116.893
117.455
118.371
120.189
123.247
127.756
133.086
136.19
130.122
81.0243
113.358
114.757
115.845
117.046
118.849
121.828
126.51
133.177
141.447
148.514
148.146
90.6706
110.621
112.16
113.655
115.518
118.231
122.337
128.505
137.238
148.499
159.566
163.598
101.884
107.531
109.163
111.038
113.575
117.22
122.413
129.82
140.311
154.456
169.771
177.309
114.515
105.034
106.658
108.907
112.237
116.822
122.938
131.189
142.746
159.035
179.007
192.234
127.832
104.13
105.66
108.311
112.519
118.094
124.935
133.394
144.84
161.242
184.842
208.51
142.913
105.745
107.22
110.359
115.67
122.032
128.978
136.653
146.214
160.648
185.937
222.218
160.864
185.478
181.021
176.02
169.817
161.036
150.726
140.483
131.224
123.437
117.205
112.437
109.907
177.708
172.177
168.496
165.04
159.842
153.308
146.059
138.347
130.919
124.4
119.137
116.885
157.491
155.085
152.715
150.734
148.817
146.322
142.614
137.768
133.046
128.813
125.503
125.305
140.988
140.192
139.13
138.12
137.247
136.426
135.557
134.521
132.955
131.867
131.979
132.973
110.392
112.28
116.245
122.33
128.534
134.228
139.287
145.93
155.579
175.222
213.109
205.074
118.014
120.977
125.974
131.138
134.516
137.096
139.157
141.88
146.55
157.185
182.765
184.419
127.656
131.681
134.482
135.879
135.484
134.561
133.51
133.458
135.124
140.078
154.495
159.355
136.074
136.102
134.385
131.833
128.501
126.192
125.156
125.361
126.86
129.47
136.492
140.864
185.463
181.007
176.005
169.798
161.011
150.695
140.448
131.189
123.403
117.174
112.41
109.887
177.693
172.161
168.481
165.024
159.823
153.285
146.032
138.316
130.886
124.368
119.108
116.865
157.472
155.065
152.695
150.717
148.801
146.306
142.594
137.745
133.023
128.791
125.483
125.293
140.969
140.173
139.113
138.105
137.233
136.414
135.547
134.511
132.945
131.861
131.974
132.971
110.376
112.267
116.239
122.328
128.534
134.229
139.288
145.931
155.58
175.228
213.135
205.102
117.997
120.965
125.969
131.136
134.515
137.094
139.153
141.874
146.541
157.178
182.766
184.426
127.648
131.676
134.479
135.875
135.478
134.552
133.497
133.443
135.107
140.06
154.479
159.343
136.073
136.097
134.378
131.822
128.485
126.174
125.136
125.34
126.837
129.447
136.468
140.841
185.493
181.035
176.033
169.825
161.038
150.721
140.472
131.209
123.421
117.188
112.421
109.893
177.702
172.17
168.493
165.036
159.839
153.3
146.047
138.331
130.9
124.379
119.116
116.867
157.461
155.057
152.689
150.711
148.798
146.305
142.598
137.749
133.025
128.792
125.482
125.288
140.95
140.156
139.096
138.088
137.218
136.399
135.532
134.498
132.935
131.85
131.964
132.962
110.379
112.268
116.237
122.325
128.533
134.229
139.29
145.934
155.584
175.231
213.132
205.101
117.997
120.963
125.966
131.134
134.516
137.097
139.158
141.882
146.552
157.188
182.773
184.431
127.642
131.672
134.477
135.877
135.483
134.56
133.509
133.457
135.123
140.077
154.494
159.356
136.068
136.099
134.383
131.832
128.498
126.189
125.153
125.358
126.856
129.465
136.486
140.859
185.495
181.036
176.033
169.828
161.046
150.735
140.491
131.232
123.445
117.213
112.445
109.914
177.708
172.175
168.495
165.039
159.843
153.308
146.06
138.348
130.92
124.401
119.139
116.886
157.474
155.068
152.698
150.719
148.805
146.312
142.607
137.761
133.039
128.807
125.497
125.299
140.965
140.169
139.108
138.099
137.227
136.408
135.54
134.505
132.942
131.856
131.968
132.965
110.399
112.287
116.252
122.337
128.541
134.236
139.296
145.942
155.594
175.24
213.125
205.09
118.014
120.977
125.975
131.14
134.52
137.102
139.165
141.89
146.564
157.202
182.783
184.437
127.651
131.678
134.481
135.88
135.487
134.567
133.519
133.469
135.139
140.095
154.515
159.374
136.068
136.101
134.387
131.838
128.508
126.201
125.168
125.374
126.874
129.486
136.511
140.882
129.963
129.637
129.493
129.609
129.929
130.302
130.519
130.369
129.618
128.673
127.869
127.195
124.774
125.113
125.61
126.091
126.404
126.079
124.604
121.877
117.931
113.104
109.036
107.65
121.695
121.999
122.126
121.694
120.324
117.634
113.377
107.563
100.644
93.9467
90.0867
90.5459
116.552
116.093
114.762
112.447
108.747
103.541
96.7888
88.8505
80.6482
73.879
71.028
73.0439
126.803
122.998
119.394
118.902
118.86
119.919
121.322
122.926
124.83
127.175
129.445
130.373
109.072
109.638
109.366
111.901
114.242
116.712
118.865
120.718
122.428
123.871
124.765
125.02
97.2444
101.322
102.966
106.752
110.301
113.515
116.252
118.438
120.013
121.024
121.614
121.737
85.5332
94.8497
97.1799
101.144
105.224
108.784
111.869
114.128
115.671
116.637
117.122
116.991
129.949
129.626
129.485
129.602
129.925
130.3
130.518
130.368
129.617
128.67
127.863
127.185
124.768
125.11
125.609
126.091
126.404
126.079
124.602
121.873
117.922
113.088
109.016
107.626
121.695
121.999
122.126
121.692
120.32
117.626
113.364
107.545
100.619
93.9174
90.0565
90.5168
116.552
116.091
114.757
112.439
108.733
103.521
96.7626
88.8182
80.6111
73.8402
70.9919
73.013
126.789
122.98
119.373
118.88
118.838
119.895
121.298
122.901
124.804
127.147
129.418
130.347
109.048
109.614
109.343
111.878
114.219
116.687
118.839
120.69
122.399
123.841
124.735
124.99
97.2186
101.298
102.945
106.73
110.28
113.491
116.227
118.411
119.985
120.995
121.584
121.709
85.51
94.8284
97.1609
101.124
105.204
108.763
111.846
114.104
115.647
116.613
117.098
116.97
129.925
129.602
129.462
129.579
129.902
130.278
130.498
130.353
129.606
128.664
127.863
127.192
124.74
125.083
125.583
126.066
126.382
126.062
124.589
121.867
117.922
113.096
109.03
107.645
121.669
121.975
122.104
121.675
120.307
117.619
113.364
107.552
100.633
93.9362
90.0784
90.54
116.533
116.075
114.746
112.433
108.733
103.528
96.7753
88.8371
80.6342
73.865
71.0153
73.0349
126.801
122.996
119.392
118.9
118.857
119.915
121.317
122.92
124.823
127.166
129.435
130.363
109.069
109.636
109.365
111.899
114.239
116.707
118.858
120.709
122.417
123.858
124.751
125.005
97.2418
101.321
102.966
106.751
110.299
113.51
116.244
118.427
120
121.009
121.598
121.721
85.5317
94.8505
97.1819
101.144
105.223
108.78
111.863
114.119
115.66
116.626
117.11
116.981
129.939
129.614
129.472
129.588
129.91
130.284
130.502
130.356
129.608
128.667
127.866
127.198
124.752
125.093
125.592
126.074
126.388
126.067
124.595
121.873
117.931
113.108
109.044
107.661
121.678
121.984
122.113
121.684
120.317
117.631
113.378
107.569
100.653
93.9593
90.1011
90.561
116.543
116.085
114.757
112.446
108.749
103.547
96.7987
88.8643
80.6646
73.8966
71.0447
73.0592
126.809
123.007
119.405
118.913
118.871
119.931
121.335
122.939
124.845
127.19
129.461
130.389
109.084
109.65
109.378
111.912
114.253
116.722
118.875
120.729
122.439
123.882
124.775
125.03
97.2586
101.335
102.978
106.762
110.311
113.523
116.259
118.445
120.019
121.029
121.618
121.74
85.5467
94.8626
97.1914
101.153
105.232
108.791
111.874
114.131
115.673
116.639
117.123
116.992
107.057
105.081
101.776
97.2
90.9808
83.1403
73.7341
63.106
51.8586
40.2369
29.7079
21.4443
92.5922
88.7179
83.2232
76.2329
67.3972
56.7948
44.4332
30.7077
16.9338
7.82966
4.24805
2.63859
73.788
67.9341
60.327
51.1368
40.1193
27.6992
14.5077
4.59976
1.53944
0.814312
0.690375
0.651352
52.1292
44.5799
35.4054
24.993
13.6205
4.44156
1.08249
0.452703
0.471912
0.433612
0.440853
0.436555
29.7756
21.4071
12.2256
4.5131
1.11383
0.426469
0.42987
0.412631
0.414082
0.414308
0.415117
0.415544
9.88209
3.92858
1.03064
0.427931
0.424832
0.408654
0.409832
0.411395
0.413228
0.415167
0.417749
0.419661
0.891593
0.439433
0.420755
0.407123
0.408611
0.410155
0.412587
0.414233
0.416779
0.418503
0.421747
0.423263
0.421516
0.406992
0.408402
0.409723
0.411303
0.412731
0.415189
0.416806
0.419129
0.421671
0.424161
0.425852
0.407351
0.40838
0.410013
0.411074
0.412835
0.414322
0.416215
0.418223
0.420268
0.422672
0.42495
0.426394
0.402386
0.403376
0.404543
0.405861
0.407354
0.409
0.41083
0.41283
0.415004
0.417323
0.419787
0.422362
0.366571
0.368223
0.369778
0.371333
0.372965
0.37476
0.376859
0.379245
0.381734
0.384458
0.387429
0.390295
0.212854
0.213765
0.214754
0.215718
0.216631
0.217516
0.218408
0.219385
0.220484
0.221692
0.223142
0.224822
67.2954
86.9894
90.4482
94.1804
98.3516
101.946
104.819
106.928
108.367
109.217
109.34
108.457
59.2634
77.4547
82.2086
85.68
89.4836
92.5232
94.9303
96.7144
97.8774
98.214
97.3816
95.3942
52.9592
68.0046
72.5162
75.6689
78.5334
80.8213
82.6737
83.9459
84.3997
83.6547
81.5439
78.2354
46.7665
57.9766
61.6952
64.0853
66.0916
67.6574
68.7687
69.1413
68.4168
66.2674
62.874
58.1639
40.2327
47.3466
50.0432
51.7203
53.0384
53.7013
53.824
52.8453
50.8031
47.3732
42.8257
36.9141
33.0911
36.299
38.2887
39.2746
39.8304
39.4991
38.2593
36.015
32.9034
28.5137
23.212
16.7867
25.4152
25.2603
26.8241
27.1192
26.963
25.4259
23.1194
20.0014
16.2264
11.5315
6.83113
2.82582
17.2967
14.753
16.0607
15.7806
14.92
12.5377
9.75941
6.73644
4.08583
1.7378
0.725433
0.418887
9.01038
5.62656
6.66882
6.1677
5.31256
3.41801
1.90937
0.928066
0.615796
0.398769
0.41411
0.406514
3.37467
1.13079
1.4352
1.28366
1.01454
0.59048
0.432069
0.403786
0.405894
0.399428
0.401119
0.401596
0.990149
0.33757
0.389803
0.381602
0.374548
0.357788
0.359334
0.359012
0.360471
0.361647
0.363332
0.364814
0.408811
0.241585
0.24302
0.22912
0.23023
0.218329
0.217087
0.210669
0.212233
0.211252
0.211768
0.212114
107.051
105.072
101.763
97.1815
90.9564
83.1099
73.6984
63.0663
51.8181
40.1998
29.6838
21.4326
92.5793
88.7014
83.2018
76.2065
67.3662
56.7601
44.397
30.673
16.9092
7.821
4.24634
2.6409
73.7689
67.9116
60.3006
51.1074
40.0882
27.6687
14.4835
4.59037
1.53736
0.815393
0.690838
0.653054
52.1066
44.5553
35.3791
24.9667
13.5974
4.42977
1.08001
0.452594
0.471973
0.433808
0.441012
0.436796
29.7538
21.3856
12.2064
4.50183
1.11113
0.426184
0.429802
0.412654
0.414108
0.414336
0.415145
0.415572
9.86726
3.91981
1.02846
0.42773
0.424862
0.408648
0.409833
0.411393
0.413224
0.415163
0.417741
0.419652
0.889787
0.439273
0.420774
0.407122
0.408609
0.410154
0.412584
0.41423
0.416777
0.418502
0.421744
0.423262
0.421435
0.406993
0.408398
0.409721
0.411299
0.412731
0.415183
0.416804
0.419126
0.421668
0.424159
0.425849
0.407347
0.408379
0.410011
0.411071
0.412832
0.41432
0.416211
0.418222
0.420264
0.422669
0.424948
0.426391
0.402386
0.403375
0.404542
0.405859
0.407352
0.408998
0.410827
0.412827
0.415001
0.41732
0.419784
0.422359
0.366577
0.368228
0.369782
0.371337
0.372969
0.374763
0.37686
0.379245
0.381734
0.384457
0.387427
0.390294
0.212841
0.213754
0.214746
0.215711
0.216626
0.217513
0.218406
0.219384
0.220483
0.221691
0.223142
0.224822
67.2787
86.972
90.4321
94.1638
98.3356
101.929
104.802
106.911
108.35
109.201
109.325
108.445
59.2511
77.4422
82.1964
85.6678
89.4728
92.5131
94.9208
96.7052
97.8692
98.2073
97.3781
95.3943
52.9498
67.9965
72.5087
75.6626
78.5289
80.8183
82.6715
83.9452
84.4008
83.6589
81.5514
78.2466
46.76
57.9733
61.6932
64.085
66.0927
67.6606
68.774
69.1489
68.4277
66.2813
62.8912
58.1845
40.2292
47.3482
50.0462
51.7244
53.0448
53.7105
53.8361
52.8616
50.822
47.3949
42.8501
36.941
33.0912
36.3048
38.2952
39.2826
39.8408
39.514
38.2781
36.0373
32.9276
28.54
23.24
16.8149
25.4186
25.2695
26.8337
27.1303
26.9769
25.4443
23.1415
20.0265
16.2523
11.557
6.85219
2.83781
17.3036
14.765
16.0727
15.794
14.9355
12.5562
9.77943
6.75512
4.10066
1.74591
0.727857
0.41911
9.01822
5.63658
6.68002
6.17866
5.32363
3.42783
1.91672
0.931776
0.617293
0.398829
0.414182
0.406515
3.3789
1.13388
1.4392
1.28714
1.01722
0.591661
0.432432
0.403847
0.405946
0.39943
0.401125
0.4016
0.991295
0.337733
0.39009
0.381829
0.374681
0.357786
0.359352
0.359021
0.360483
0.361657
0.36334
0.36482
0.40889
0.241613
0.243053
0.229142
0.230247
0.218329
0.21709
0.210668
0.212233
0.21125
0.211765
0.21211
107.043
105.068
101.764
97.1887
90.9692
83.1286
73.7218
63.0936
51.846
40.2258
29.7002
21.4414
92.5835
88.7102
83.2158
76.2255
67.3898
56.7876
44.4261
30.7017
16.9296
7.82751
4.24845
2.63968
73.7843
67.9312
60.3246
51.1348
40.118
27.6989
14.5086
4.59969
1.53907
0.814863
0.690951
0.652026
52.1307
44.5826
35.4086
24.997
13.6248
4.44372
1.08298
0.452845
0.472011
0.433709
0.440962
0.436678
29.7824
21.4149
12.233
4.51726
1.11496
0.426573
0.429909
0.412642
0.414098
0.414324
0.415133
0.41556
9.89211
3.93454
1.0323
0.428151
0.424728
0.408655
0.409829
0.411392
0.413224
0.415159
0.417744
0.419654
0.892725
0.439616
0.420711
0.40712
0.40861
0.410151
0.412587
0.41423
0.416781
0.4185
0.421748
0.423264
0.421576
0.406984
0.408399
0.40972
0.411302
0.412729
0.415186
0.416806
0.419127
0.42167
0.424161
0.425851
0.407354
0.408376
0.410012
0.411072
0.412833
0.414321
0.416213
0.418223
0.420266
0.422671
0.424949
0.426393
0.40239
0.403378
0.404545
0.405862
0.407355
0.409001
0.41083
0.41283
0.415004
0.417322
0.419786
0.422362
0.366583
0.368233
0.369788
0.371342
0.372974
0.374768
0.376863
0.379249
0.381738
0.38446
0.38743
0.390296
0.212837
0.213751
0.214743
0.21571
0.216625
0.217512
0.218405
0.219384
0.220484
0.221692
0.223142
0.224823
67.2959
86.9933
90.4528
94.1837
98.3538
101.946
104.817
106.925
108.363
109.214
109.337
108.457
59.2668
77.4629
82.217
85.688
89.4915
92.5305
94.937
96.7205
97.8837
98.2215
97.3923
95.4092
52.9652
68.0172
72.5297
75.6833
78.5488
80.8375
82.6899
83.9629
84.418
83.6761
81.5691
78.2655
46.7754
57.9944
61.715
64.1069
66.1144
67.6821
68.7951
69.1696
68.4481
66.3021
62.9127
58.2071
40.2451
47.3701
50.069
51.7475
53.0682
53.7344
53.8598
52.8852
50.8454
47.4188
42.8746
36.966
33.1081
36.3274
38.3184
39.3064
39.8652
39.5404
38.3036
36.0632
32.9528
28.5654
23.2653
16.8392
25.4364
25.2925
26.8571
27.1544
27.0017
25.4709
23.1675
20.0531
16.2773
11.5804
6.87072
2.84809
17.3228
14.7874
16.0952
15.8175
14.9594
12.5805
9.80223
6.77444
4.11459
1.75326
0.730018
0.419281
9.03462
5.65227
6.69787
6.19579
5.33973
3.4406
1.925
0.935413
0.618605
0.39889
0.41425
0.406516
3.3873
1.13823
1.44497
1.29217
1.021
0.593163
0.43278
0.403881
0.405985
0.399426
0.401126
0.4016
0.993726
0.33787
0.390442
0.382093
0.374838
0.357761
0.359351
0.359009
0.360474
0.361647
0.363332
0.364813
0.409493
0.241612
0.243053
0.229141
0.230252
0.218339
0.217106
0.210687
0.212251
0.211265
0.21178
0.212123
107.056
105.082
101.781
97.2081
90.9922
83.1553
73.7521
63.1266
51.8796
40.257
29.7215
21.4531
92.6001
88.7289
83.2373
76.2501
67.4174
56.8177
44.4572
30.7317
16.9515
7.83614
4.25156
2.63981
73.8051
67.9541
60.3499
51.1622
40.1464
27.7268
14.5312
4.60894
1.54167
0.814615
0.691331
0.651466
52.1549
44.608
35.435
25.0234
13.6481
4.45544
1.08567
0.453144
0.47213
0.433677
0.440979
0.436647
29.8077
21.4399
12.2552
4.52959
1.11797
0.426913
0.430015
0.412644
0.414104
0.414329
0.415138
0.415565
9.91284
3.94635
1.03525
0.428417
0.424626
0.408663
0.409827
0.411393
0.413223
0.415158
0.417745
0.419653
0.895217
0.439892
0.420649
0.407119
0.408613
0.41015
0.41259
0.414229
0.416783
0.418501
0.42175
0.423266
0.421693
0.40698
0.408403
0.409721
0.411307
0.41273
0.41519
0.416807
0.419131
0.421673
0.424163
0.425854
0.407361
0.408376
0.410015
0.411075
0.412837
0.414323
0.416217
0.418226
0.42027
0.422674
0.424953
0.426396
0.40239
0.403379
0.404545
0.405863
0.407356
0.409002
0.410832
0.412832
0.415006
0.417325
0.419789
0.422364
0.366576
0.368227
0.369782
0.371337
0.372968
0.374763
0.376861
0.379247
0.381736
0.384459
0.38743
0.390296
0.212849
0.21376
0.214751
0.215715
0.216629
0.217515
0.218407
0.219385
0.220484
0.221692
0.223142
0.224822
67.3074
87.0024
90.46
94.1905
98.3599
101.952
104.824
106.932
108.37
109.22
109.343
108.461
59.2751
77.4683
82.2213
85.6916
89.4935
92.5317
94.9376
96.7209
97.8836
98.2203
97.3892
95.4039
52.9717
68.0196
72.5307
75.6824
78.546
80.833
82.6847
83.9564
84.4102
83.6663
81.5572
78.2512
46.7804
57.9935
61.7118
64.1015
66.1072
67.6725
68.7835
69.1559
68.4317
66.2835
62.8918
58.1839
40.2484
47.3658
50.0622
51.739
53.0566
53.7191
53.8417
52.8631
50.8209
47.392
42.8456
36.9351
33.1092
36.3205
38.3098
39.2952
39.8502
39.5181
38.2784
36.034
32.9218
28.5322
23.2305
16.8042
25.4355
25.2841
26.8467
27.1408
26.9831
25.4442
23.1375
20.0193
16.2423
11.5458
6.84279
2.83255
17.3209
14.7776
16.084
15.802
14.9384
12.5532
9.77344
6.74812
4.09368
1.74161
0.726999
0.418978
9.03235
5.64456
6.68835
6.18355
5.32467
3.42502
1.91377
0.930263
0.616498
0.398789
0.414189
0.406514
3.38688
1.1359
1.44179
1.2885
1.01736
0.590962
0.432205
0.403856
0.405915
0.399427
0.40112
0.401596
0.993959
0.337757
0.390227
0.381871
0.374676
0.35774
0.359328
0.359001
0.36046
0.361637
0.363324
0.364807
0.409695
0.24162
0.243055
0.229133
0.23025
0.218341
0.217111
0.210691
0.212257
0.211269
0.211785
0.212129
)
;

boundaryField
{
    rotor
    {
        type            kqRWallFunction;
        value           nonuniform List<scalar> 
192
(
5.29716
6.51388
7.14658
6.75716
6.15364
6.73165
14.2972
29.8541
37.1992
40.5262
43.226
44.6838
45.6204
45.7622
45.7334
45.3684
44.3049
42.4865
39.9349
36.3626
31.7666
26.5035
20.1369
15.9852
5.30087
6.5182
7.15021
6.7602
6.15702
6.73735
14.3231
29.882
37.2247
40.5514
43.2511
44.7089
45.6451
45.7864
45.7573
45.3918
44.3274
42.5078
39.9548
36.3807
31.7824
26.5161
20.148
15.995
5.29946
6.51654
7.14881
6.75902
6.15569
6.73512
14.3131
29.8718
37.2157
40.5426
43.2424
44.7002
45.6366
45.7781
45.7491
45.3838
44.3198
42.5007
39.9483
36.3749
31.7774
26.5123
20.1448
15.9922
5.29813
6.51564
7.14745
6.75746
6.15438
6.7339
14.3105
29.8668
37.2105
40.5376
43.2374
44.6954
45.6318
45.7734
45.7443
45.3786
44.3145
42.4951
39.9426
36.3691
31.7719
26.5074
20.1394
15.987
5.29716
10.8366
15.6538
19.1618
20.9673
21.1475
20.1299
19.3089
18.0528
18.2177
20.2574
58.2055
15.987
36.0762
49.9746
61.3934
71.2477
81.0243
90.6706
101.884
114.515
127.832
142.913
160.864
5.30087
10.8433
15.6629
19.1722
20.9784
21.1589
20.1404
19.3184
18.0605
18.2237
20.2624
58.2002
15.9852
36.0721
49.9686
61.386
71.2392
81.015
90.6607
101.873
114.503
127.82
142.901
160.851
5.29946
10.8408
15.6596
19.1686
20.9747
21.1551
20.137
19.3154
18.0582
18.2221
20.2609
58.2039
15.995
36.0903
49.9893
61.4096
71.2643
81.0419
90.6891
101.904
114.535
127.854
142.936
160.884
5.29813
10.8384
15.6573
19.1657
20.9718
21.1521
20.1346
19.3136
18.0573
18.2213
20.2605
58.21
15.9922
36.0852
49.9835
61.4031
71.2574
81.0345
90.6812
101.895
114.527
127.845
142.927
160.878
)
;
    }
    stator
    {
        type            kqRWallFunction;
        value           nonuniform List<scalar> 
192
(
0.212854
0.213765
0.214754
0.215718
0.216631
0.217516
0.218408
0.219385
0.220484
0.221692
0.223142
0.224822
0.408811
0.241585
0.24302
0.22912
0.23023
0.218329
0.217087
0.210669
0.212233
0.211252
0.211768
0.212114
0.212841
0.213754
0.214746
0.215711
0.216626
0.217513
0.218406
0.219384
0.220483
0.221691
0.223142
0.224822
0.40889
0.241613
0.243053
0.229142
0.230247
0.218329
0.21709
0.210668
0.212233
0.21125
0.211765
0.21211
0.212837
0.213751
0.214743
0.21571
0.216625
0.217512
0.218405
0.219384
0.220484
0.221692
0.223142
0.224823
0.409493
0.241612
0.243053
0.229141
0.230252
0.218339
0.217106
0.210687
0.212251
0.211265
0.21178
0.212123
0.212849
0.21376
0.214751
0.215715
0.216629
0.217515
0.218407
0.219385
0.220484
0.221692
0.223142
0.224822
0.409695
0.24162
0.243055
0.229133
0.23025
0.218341
0.217111
0.210691
0.212257
0.211269
0.211785
0.212129
67.2954
59.2634
52.9592
46.7665
40.2327
33.0911
25.4152
17.2967
9.01038
3.37467
0.990149
0.408811
21.4443
2.63859
0.651352
0.436555
0.415544
0.419661
0.423263
0.425852
0.426394
0.422362
0.390295
0.224822
67.2787
59.2511
52.9498
46.76
40.2292
33.0912
25.4186
17.3036
9.01822
3.3789
0.991295
0.40889
21.4326
2.6409
0.653054
0.436796
0.415572
0.419652
0.423262
0.425849
0.426391
0.422359
0.390294
0.224822
67.2959
59.2668
52.9652
46.7754
40.2451
33.1081
25.4364
17.3228
9.03462
3.3873
0.993726
0.409493
21.4414
2.63968
0.652026
0.436678
0.41556
0.419654
0.423264
0.425851
0.426393
0.422362
0.390296
0.224823
67.3074
59.2751
52.9717
46.7804
40.2484
33.1092
25.4355
17.3209
9.03235
3.38688
0.993959
0.409695
21.4531
2.63981
0.651466
0.436647
0.415565
0.419653
0.423266
0.425854
0.426396
0.422364
0.390296
0.224822
)
;
    }
    front
    {
        type            empty;
    }
    back
    {
        type            empty;
    }
}


// ************************************************************************* //
