/*--------------------------------*- C++ -*----------------------------------*\
| =========                 |                                                 |
| \\      /  F ield         | OpenFOAM: The Open Source CFD Toolbox           |
|  \\    /   O peration     | Version:  2212                                  |
|   \\  /    A nd           | Website:  www.openfoam.com                      |
|    \\/     M anipulation  |                                                 |
\*---------------------------------------------------------------------------*/
FoamFile
{
    version     2.0;
    format      ascii;
    arch        "LSB;label=32;scalar=64";
    class       volScalarField;
    location    "0.01";
    object      nut;
}
// * * * * * * * * * * * * * * * * * * * * * * * * * * * * * * * * * * * * * //

dimensions      [0 2 -1 0 0 0 0];

internalField   nonuniform List<scalar> 
3072
(
0.000334396
0.00069433
0.000716716
0.000691084
0.000664166
0.000717219
0.00111929
0.0015948
0.0017808
0.00187021
0.00193774
0.00197586
0.0005451
0.00136849
0.00156515
0.00093341
0.00113471
0.0016646
0.002237
0.00323237
0.00453271
0.00627103
0.0081386
0.00998202
0.000745061
0.00278736
0.00257683
0.00237389
0.00311891
0.00444074
0.00613212
0.00840446
0.011243
0.0139261
0.0164816
0.0187028
0.000909826
0.00389362
0.00425504
0.0047272
0.0062431
0.00843712
0.0110031
0.0139618
0.0171073
0.0199858
0.0226128
0.0248646
0.00104422
0.00525282
0.00641848
0.00746538
0.00952383
0.0121776
0.0150906
0.0183102
0.0214651
0.0243625
0.0269596
0.0291942
0.00113425
0.00606462
0.00812256
0.00987434
0.0122202
0.015106
0.0182575
0.0214597
0.0245334
0.0273627
0.0298991
0.0320975
0.00119618
0.00674743
0.0094483
0.0117445
0.0144267
0.0174377
0.0205717
0.0236651
0.026598
0.0292949
0.0317136
0.0338239
0.00125994
0.00738977
0.010682
0.013287
0.016271
0.0193658
0.0224187
0.0253363
0.0280505
0.0305287
0.0327495
0.0346952
0.0013201
0.00798918
0.0119109
0.0152183
0.0183807
0.0213856
0.0241593
0.0266932
0.0290012
0.0311148
0.033018
0.0347047
0.00141434
0.008414
0.0132279
0.0168748
0.0200647
0.0227462
0.0250844
0.0271399
0.0289923
0.0307682
0.0323897
0.0338706
0.00158791
0.00786272
0.0139592
0.0179241
0.0207476
0.0230169
0.024968
0.0267394
0.0283858
0.0299384
0.0313769
0.0327134
0.0029352
0.00847896
0.0153661
0.0189834
0.0215
0.0235029
0.0251964
0.0267099
0.0281073
0.0294191
0.0306505
0.0318044
0.00199872
0.0020027
0.00200107
0.00198911
0.00196254
0.00191819
0.00185614
0.00176809
0.00165307
0.00150385
0.00129654
0.000627903
0.0116028
0.0127403
0.0134081
0.0134467
0.0129522
0.0120655
0.0107549
0.00900355
0.00689021
0.00416943
0.00194988
0.00106618
0.020387
0.0214135
0.0218917
0.0218127
0.0211151
0.0198185
0.0179011
0.0153324
0.0120987
0.00819573
0.00362721
0.00140256
0.0266195
0.0277969
0.0284324
0.0285083
0.0279778
0.026779
0.0247701
0.0218306
0.0178332
0.0126709
0.00622093
0.00171399
0.0310129
0.0323456
0.0331747
0.0334925
0.0332319
0.032299
0.0305324
0.0276766
0.0233561
0.0172508
0.00912665
0.00201794
0.0339214
0.0353408
0.0363439
0.0369123
0.0370104
0.0365358
0.0352695
0.0328279
0.0286141
0.0219868
0.0124677
0.00233243
0.0356057
0.037052
0.0381537
0.0389104
0.0393225
0.0393222
0.0386997
0.0369831
0.033334
0.0265838
0.0159917
0.00265777
0.0363525
0.0377182
0.0388104
0.0396683
0.0403106
0.0407216
0.040761
0.0399658
0.037277
0.0308488
0.0192237
0.0030192
0.0361696
0.0374283
0.0385016
0.0394184
0.0402111
0.0409185
0.041517
0.0416762
0.0402808
0.0348159
0.0221462
0.00341111
0.0352183
0.0364241
0.0374923
0.0384494
0.0393261
0.0402002
0.0411525
0.0420498
0.0419974
0.0383045
0.0254069
0.00382747
0.0339656
0.0351193
0.0361706
0.037116
0.037971
0.0388747
0.0399262
0.0411981
0.0423417
0.040622
0.0291862
0.00428295
0.0328861
0.0339115
0.0348687
0.0357392
0.0365406
0.0373175
0.0382835
0.0397505
0.0414507
0.0418582
0.0332853
0.00480867
0.000325423
0.000678863
0.000706993
0.000684293
0.000648467
0.000677834
0.000974988
0.00147123
0.00168285
0.00177163
0.00184019
0.00187884
0.000531021
0.00138416
0.00164916
0.000972662
0.00102845
0.0014979
0.00202199
0.0028511
0.00409089
0.00568809
0.00740906
0.00917031
0.000722711
0.00275667
0.00254558
0.00227227
0.00281625
0.004018
0.0055842
0.00762217
0.0102877
0.0128307
0.0152351
0.0173674
0.00088263
0.00384457
0.00420525
0.00450517
0.0058053
0.00781417
0.0102041
0.01291
0.0158728
0.0185957
0.0210696
0.0232136
0.00101223
0.00516806
0.00631965
0.00717481
0.00899707
0.0114511
0.0141694
0.0171343
0.0200904
0.0228138
0.0252591
0.0273717
0.00110007
0.00597509
0.00801382
0.00961705
0.0117557
0.0143889
0.0172807
0.020248
0.0231089
0.0257481
0.02812
0.0301851
0.00116137
0.00665171
0.00933669
0.0114858
0.0139501
0.0167269
0.0196086
0.0224593
0.0251659
0.0276589
0.0299011
0.0318668
0.00122528
0.00729983
0.0105444
0.0130402
0.0158703
0.0187397
0.0215336
0.0241894
0.0266561
0.0289089
0.0309342
0.0327203
0.00128564
0.00785042
0.011723
0.014877
0.0178491
0.0206188
0.0231403
0.025423
0.0274994
0.0294027
0.0311255
0.0326649
0.00137701
0.00820864
0.0127978
0.0162113
0.0191531
0.0216149
0.0237438
0.025596
0.0272798
0.0288855
0.0303628
0.0317308
0.00154132
0.00750226
0.0131762
0.0168471
0.0194327
0.021504
0.0232816
0.0249019
0.0264203
0.0278488
0.0291831
0.0304411
0.00284936
0.00795577
0.0143486
0.0176141
0.0198436
0.0216217
0.0231433
0.0245242
0.0258207
0.027057
0.0282389
0.029371
0.00190263
0.00190799
0.00190699
0.00189787
0.00187414
0.00183494
0.00177803
0.00169771
0.00159184
0.0014502
0.0012512
0.000603837
0.0107293
0.0118416
0.0124942
0.0125687
0.0120955
0.0112731
0.0100521
0.00843605
0.0064565
0.00392854
0.00185908
0.00102933
0.0190108
0.0200007
0.020446
0.0203801
0.0197398
0.0185293
0.0167405
0.0143437
0.0113359
0.00769982
0.00343439
0.00135753
0.0249048
0.0260362
0.0266437
0.02672
0.0262527
0.0251474
0.0232777
0.0205041
0.0167652
0.011948
0.00589078
0.00165931
0.0291029
0.0303806
0.0311794
0.0314998
0.0312785
0.0304183
0.0287671
0.0260884
0.0220098
0.0162752
0.00863202
0.00195509
0.0319087
0.033259
0.0342225
0.0347808
0.0348938
0.0344617
0.0332754
0.0309735
0.027022
0.0207672
0.011817
0.00226067
0.0335384
0.0349083
0.0359621
0.0366982
0.037113
0.037141
0.0365776
0.0349728
0.0315403
0.0251818
0.0151896
0.00257719
0.0342577
0.0355401
0.0365806
0.0374089
0.038045
0.0384741
0.0385554
0.0378397
0.0353228
0.0292751
0.018339
0.00292774
0.0340239
0.0352104
0.0362361
0.0371226
0.0379054
0.038631
0.0392636
0.039476
0.0382082
0.0330586
0.0211464
0.00331338
0.0329966
0.0341523
0.0351879
0.0361179
0.0370001
0.037896
0.0388811
0.0398595
0.0399472
0.0364472
0.0243587
0.00372351
0.0316444
0.0327892
0.0338361
0.0347771
0.035644
0.0365721
0.0377003
0.039041
0.0402009
0.0388498
0.0281669
0.00418217
0.0304812
0.0315345
0.0325119
0.0333999
0.034265
0.0350507
0.0360545
0.037561
0.039372
0.0400463
0.0324074
0.00472937
0.000334368
0.000694263
0.000716718
0.000691103
0.000664121
0.000716986
0.0011184
0.00159421
0.00178035
0.00186976
0.0019373
0.00197542
0.000545055
0.0013685
0.00156584
0.000933761
0.00113427
0.00166361
0.00223541
0.00323007
0.00452996
0.00626768
0.00813455
0.0099777
0.000744971
0.00278729
0.00257672
0.00237329
0.00311683
0.00443767
0.00612824
0.00839963
0.0112373
0.0139199
0.0164748
0.0186958
0.000909717
0.00389326
0.00425438
0.00472545
0.00623995
0.00843283
0.0109983
0.0139556
0.0171003
0.0199783
0.0226046
0.0248561
0.00104409
0.00525222
0.00641742
0.00746311
0.00952025
0.0121731
0.0150849
0.0183034
0.0214576
0.0243543
0.0269507
0.0291848
0.0011341
0.00606391
0.00812131
0.00987205
0.0122167
0.0151012
0.0182516
0.0214528
0.0245256
0.0273541
0.0298899
0.0320877
0.00119602
0.00674663
0.00944683
0.011742
0.0144229
0.0174328
0.0205657
0.0236581
0.0265901
0.0292862
0.0317042
0.0338139
0.00125977
0.00738885
0.0106803
0.0132844
0.0162672
0.019361
0.0224128
0.0253294
0.0280428
0.0305202
0.0327402
0.0346853
0.00131991
0.00798811
0.0119089
0.0152153
0.0183766
0.0213805
0.0241533
0.0266863
0.0289935
0.0311064
0.0330088
0.0346948
0.00141413
0.00841263
0.0132252
0.0168711
0.02006
0.0227406
0.025078
0.0271327
0.0289846
0.0307597
0.0323805
0.0338607
0.00158767
0.00786093
0.0139559
0.0179198
0.0207424
0.0230109
0.0249613
0.026732
0.0283779
0.0299298
0.0313677
0.0327035
0.00293482
0.00847685
0.0153626
0.0189788
0.0214943
0.0234965
0.0251893
0.0267022
0.028099
0.0294102
0.030641
0.0317945
0.0019983
0.00200229
0.00200067
0.00198873
0.00196217
0.00191785
0.00185583
0.00176781
0.00165282
0.00150364
0.00129637
0.000627815
0.0115983
0.0127358
0.0134036
0.0134424
0.012948
0.0120617
0.0107516
0.00900092
0.00688826
0.00416833
0.00194949
0.00106604
0.02038
0.0214064
0.0218844
0.0218056
0.0211084
0.0198124
0.0178957
0.0153279
0.0120953
0.00819356
0.00362632
0.00140238
0.0266108
0.027788
0.0284234
0.0284993
0.0279693
0.0267711
0.024763
0.0218245
0.0178284
0.0126677
0.0062195
0.00171377
0.0310031
0.0323357
0.0331646
0.0334824
0.0332221
0.0322896
0.0305237
0.027669
0.0233499
0.0172465
0.00912453
0.00201769
0.0339111
0.0353302
0.0363332
0.0369014
0.0369995
0.0365252
0.0352595
0.0328189
0.0286067
0.0219814
0.0124649
0.00233213
0.0355953
0.0370411
0.0381425
0.0388991
0.039311
0.0393109
0.0386887
0.0369729
0.0333254
0.0265774
0.0159883
0.00265744
0.036342
0.0377073
0.0387991
0.0396567
0.0402987
0.0407097
0.0407492
0.0399547
0.0372672
0.0308415
0.0192199
0.00301883
0.0361592
0.0374174
0.0384902
0.0394067
0.0401991
0.0409063
0.0415047
0.0416642
0.04027
0.0348075
0.0221419
0.0034107
0.0352078
0.0364131
0.0374809
0.0384376
0.039314
0.0401879
0.04114
0.0420375
0.041986
0.0382954
0.0254024
0.00382703
0.033955
0.0351084
0.0361594
0.0371045
0.0379591
0.0388626
0.0399141
0.0411856
0.0423296
0.0406123
0.0291815
0.00428248
0.0328757
0.0339008
0.0348578
0.035728
0.0365293
0.0373059
0.0382715
0.0397381
0.0414385
0.0418476
0.03328
0.00480818
0.000325454
0.000679021
0.00070699
0.000684262
0.000648508
0.000677967
0.000975545
0.00147158
0.00168304
0.00177182
0.00184037
0.00187902
0.000531058
0.0013847
0.00164824
0.000972227
0.00102961
0.00149869
0.00202295
0.00285258
0.00409251
0.00569009
0.00741131
0.00917257
0.000722826
0.00275725
0.00254629
0.00227371
0.00281895
0.00402085
0.0055873
0.00762569
0.0102915
0.0128345
0.0152389
0.0173712
0.000882706
0.00384605
0.00420787
0.00450884
0.00580955
0.00781861
0.0102086
0.0129146
0.0158775
0.0186003
0.0210743
0.0232183
0.00101231
0.00516982
0.006323
0.00717944
0.00900215
0.0114562
0.0141742
0.0171394
0.0200955
0.022819
0.0252644
0.0273771
0.00110014
0.00597645
0.00801669
0.00962121
0.0117604
0.014394
0.0172859
0.0202534
0.0231144
0.0257538
0.0281259
0.0301911
0.00116144
0.00665309
0.00933977
0.0114901
0.0139552
0.0167323
0.0196143
0.0224651
0.0251719
0.027665
0.0299074
0.0318733
0.00122536
0.00730096
0.0105474
0.0130445
0.0158751
0.0187449
0.0215392
0.0241952
0.026662
0.0289151
0.0309406
0.0327269
0.00128571
0.00785138
0.0117257
0.0148806
0.0178533
0.0206235
0.0231453
0.0254283
0.0275049
0.0294085
0.0311317
0.0326714
0.00137704
0.00820917
0.0127996
0.0162138
0.019156
0.0216183
0.0237477
0.0256004
0.0272842
0.0288904
0.0303683
0.0317368
0.00154132
0.007502
0.0131766
0.0168479
0.019434
0.0215059
0.023284
0.0249051
0.0264236
0.0278528
0.0291878
0.0304464
0.00284924
0.00795506
0.0143479
0.0176137
0.0198437
0.0216223
0.0231445
0.0245261
0.0258231
0.02706
0.0282426
0.0293753
0.00190281
0.00190815
0.00190716
0.00189803
0.00187429
0.00183507
0.00177816
0.00169783
0.00159195
0.00145029
0.00125126
0.000603867
0.0107316
0.0118439
0.0124965
0.0125709
0.0120976
0.011275
0.0100539
0.0084374
0.00645742
0.00392907
0.00185926
0.00102939
0.0190145
0.0200045
0.0204497
0.0203837
0.0197432
0.0185323
0.0167431
0.0143459
0.0113375
0.00770086
0.0034349
0.00135762
0.0249096
0.026041
0.0266485
0.0267247
0.0262572
0.0251516
0.0232814
0.0205072
0.0167676
0.0119496
0.00589152
0.00165943
0.0291084
0.0303862
0.0311851
0.0315055
0.0312841
0.0304236
0.0287719
0.0260926
0.0220132
0.0162775
0.00863311
0.00195524
0.0319148
0.0332654
0.034229
0.0347873
0.0349003
0.0344681
0.0332814
0.0309789
0.0270263
0.0207702
0.0118185
0.00226085
0.033545
0.0349152
0.0359692
0.0367054
0.0371204
0.0371483
0.0365847
0.0349792
0.0315456
0.0251856
0.0151914
0.00257741
0.0342646
0.0355473
0.036588
0.0374165
0.0380529
0.0384822
0.0385634
0.0378473
0.0353293
0.0292798
0.0183413
0.00292799
0.0340308
0.0352176
0.0362436
0.0371304
0.0379136
0.0386395
0.0392724
0.0394847
0.0382159
0.0330644
0.0211492
0.00331368
0.0330032
0.0341594
0.0351952
0.0361256
0.0370081
0.0379046
0.0388903
0.039869
0.0399562
0.0364544
0.0243619
0.00372385
0.0316506
0.0327958
0.0338428
0.0347842
0.0356516
0.0365804
0.0377093
0.039051
0.0402113
0.0388587
0.0281708
0.00418256
0.0304864
0.0315401
0.0325176
0.0334061
0.0342716
0.0350582
0.0360633
0.0375712
0.0393833
0.0400569
0.0324129
0.00472985
0.0182363
0.0189123
0.0204143
0.0221098
0.0236929
0.0250884
0.0263422
0.0274967
0.0285699
0.0295702
0.0305068
0.0313848
0.0289255
0.026852
0.0264019
0.0265878
0.0270054
0.0275323
0.0282294
0.0289721
0.0296506
0.0302468
0.0308042
0.0313278
0.0360113
0.0338844
0.0324379
0.0315452
0.0309943
0.030776
0.0307013
0.0307556
0.0307984
0.0308785
0.0310381
0.0311884
0.0386855
0.037065
0.0355721
0.0343187
0.0332899
0.0324742
0.0319558
0.0315539
0.0312353
0.0309914
0.0306887
0.0304079
0.0322067
0.0329806
0.0337203
0.0344445
0.0352087
0.0360203
0.0368125
0.0379237
0.0396491
0.0418332
0.041776
0.0191715
0.031822
0.0323002
0.0327823
0.0332817
0.0338328
0.0344607
0.035288
0.0361473
0.0376212
0.0398878
0.0440416
0.0318906
0.0313301
0.0314947
0.0317287
0.0320563
0.0324953
0.0330556
0.0338449
0.0348137
0.036116
0.0378522
0.0420473
0.0379291
0.0302352
0.0302421
0.0304924
0.0309493
0.0315663
0.0323427
0.033362
0.0344766
0.0357847
0.0371066
0.0399183
0.039429
0.0171812
0.0176432
0.0188512
0.0202456
0.0215594
0.0227477
0.0238699
0.0249351
0.0259531
0.0269351
0.0278866
0.0288116
0.0274504
0.0252603
0.02442
0.0242617
0.024427
0.0247985
0.0254332
0.0261021
0.0267758
0.0274368
0.0280779
0.0287201
0.0345426
0.032085
0.0301737
0.0290002
0.0283404
0.0279462
0.027819
0.0278641
0.0279633
0.0281339
0.028382
0.0287098
0.0372405
0.035185
0.0334392
0.0319475
0.030738
0.0297975
0.0292223
0.0288562
0.0285855
0.0283876
0.0282567
0.0281875
0.0297126
0.0305744
0.0313878
0.032183
0.032987
0.0337744
0.0345624
0.0358973
0.0377224
0.0401279
0.0412544
0.0196749
0.0293465
0.0299499
0.0305295
0.0311008
0.0316917
0.0323828
0.0330913
0.0341615
0.0358304
0.0382895
0.0433363
0.0327587
0.0290085
0.0292991
0.0295937
0.0299115
0.0303081
0.0308857
0.0316289
0.0325908
0.0341834
0.0361702
0.0409778
0.0386819
0.0281139
0.0281027
0.0281753
0.0283769
0.028841
0.0295246
0.0304261
0.0316106
0.0333439
0.0351046
0.0387803
0.0395996
0.0182334
0.0189084
0.0204093
0.0221039
0.0236862
0.0250811
0.0263343
0.0274883
0.0285611
0.029561
0.0304972
0.0313748
0.0289183
0.0268445
0.0263941
0.0265796
0.0269971
0.0275237
0.0282203
0.0289627
0.029641
0.0302372
0.0307943
0.0313178
0.0359984
0.0338719
0.032426
0.0315339
0.0309834
0.0307654
0.0306909
0.0307452
0.0307881
0.0308685
0.0310279
0.0311784
0.0386679
0.0370487
0.0355572
0.034305
0.0332772
0.0324621
0.0319441
0.0315427
0.0312241
0.0309808
0.0306787
0.0303984
0.0321964
0.0329701
0.0337096
0.0344337
0.0351978
0.0360093
0.0368014
0.0379124
0.0396376
0.041822
0.0417691
0.0191701
0.0318119
0.0322901
0.0327721
0.0332716
0.0338227
0.0344506
0.0352779
0.0361373
0.0376108
0.0398775
0.0440332
0.031887
0.0313203
0.0314851
0.0317192
0.0320469
0.0324861
0.0330466
0.0338361
0.0348051
0.0361073
0.0378435
0.0420387
0.0379241
0.0302261
0.0302334
0.0304836
0.0309411
0.0315584
0.0323354
0.033355
0.03447
0.0357783
0.0371003
0.0399118
0.0394246
0.0171807
0.0176427
0.0188506
0.020245
0.021559
0.0227477
0.0238703
0.0249361
0.0259547
0.0269372
0.0278893
0.0288149
0.0274486
0.025259
0.0244192
0.0242613
0.0244268
0.0247984
0.0254335
0.0261028
0.0267769
0.0274384
0.0280799
0.0287226
0.0345394
0.0320829
0.0301725
0.0289995
0.02834
0.0279462
0.0278194
0.0278651
0.0279646
0.0281355
0.0283838
0.028712
0.0372377
0.0351831
0.0334382
0.0319473
0.0307384
0.0297983
0.0292238
0.0288578
0.0285873
0.0283897
0.028259
0.0281902
0.0297166
0.0305789
0.0313928
0.0321888
0.0329932
0.0337813
0.0345707
0.0359076
0.037734
0.040141
0.0412639
0.0196782
0.0293495
0.0299536
0.0305337
0.0311057
0.031698
0.0323899
0.0330994
0.0341718
0.035843
0.0383036
0.0433509
0.0327676
0.0290112
0.0293024
0.0295978
0.0299166
0.0303148
0.0308945
0.0316388
0.0326027
0.0341974
0.0361862
0.0409962
0.038697
0.0281171
0.0281069
0.0281808
0.0283843
0.0288515
0.0295361
0.030439
0.0316262
0.0333613
0.0351237
0.0388014
0.0396186
0.0372848
0.0359061
0.0345297
0.0333261
0.0323164
0.0314954
0.0308871
0.0303598
0.0298683
0.0293879
0.0289052
0.0286045
0.0355234
0.0342995
0.0330142
0.0318376
0.0308239
0.0299644
0.0292435
0.0285631
0.0278619
0.0270916
0.0262602
0.0256804
0.0336686
0.0325781
0.0313783
0.0302361
0.0292051
0.0282835
0.0274408
0.0265906
0.0256407
0.0244554
0.0228652
0.0211703
0.0318561
0.0308844
0.0297688
0.0286549
0.0276001
0.0266067
0.0256387
0.0246093
0.0233778
0.0216232
0.0185401
0.0136987
0.0287934
0.0295239
0.0304876
0.0315893
0.032712
0.0338677
0.0350342
0.0360551
0.0370284
0.0379305
0.0383875
0.037704
0.026206
0.0279847
0.0297984
0.0314986
0.0330644
0.0344075
0.0355671
0.036457
0.037101
0.0373681
0.0372147
0.0363419
0.0217357
0.0256407
0.028643
0.0309163
0.0327397
0.0341942
0.0353252
0.0361019
0.0364241
0.0363736
0.0360195
0.0348671
0.0137421
0.0222527
0.0270496
0.0299038
0.0319259
0.0334403
0.0345441
0.0351632
0.0353198
0.0351947
0.0346381
0.0333438
0.0357851
0.0338919
0.0322751
0.0309013
0.0297776
0.028899
0.0282611
0.027749
0.0272926
0.026891
0.0265754
0.0263921
0.0344163
0.032589
0.0309863
0.0296003
0.0284251
0.0274441
0.0266238
0.025879
0.0251542
0.0244424
0.0237933
0.0233737
0.0330407
0.031237
0.0295974
0.0281379
0.0268517
0.025718
0.024694
0.0237052
0.022681
0.0215475
0.0202475
0.0191162
0.031608
0.0298228
0.0281411
0.0265998
0.0251981
0.0239151
0.0227043
0.0214868
0.0201481
0.0184593
0.0158318
0.0121417
0.026373
0.0265265
0.0268282
0.0273736
0.0281987
0.0293594
0.0307186
0.0322853
0.034078
0.0359066
0.0377895
0.0380553
0.0234803
0.0240696
0.024738
0.0256042
0.0267887
0.0282375
0.0298485
0.0315589
0.0333032
0.0349187
0.0360279
0.0361862
0.0192645
0.0210815
0.0224305
0.0237041
0.0251754
0.0268271
0.0285639
0.030302
0.0319479
0.0333305
0.0341095
0.034218
0.0121644
0.0173999
0.0200179
0.0217858
0.0235132
0.0253115
0.0271145
0.0288391
0.0303926
0.0315792
0.0322146
0.0323096
0.0372657
0.0358886
0.0345137
0.0333115
0.0323028
0.0314825
0.0308749
0.0303481
0.0298571
0.0293776
0.0288958
0.028596
0.0355028
0.0342805
0.0329968
0.0318216
0.0308091
0.0299504
0.0292303
0.0285507
0.0278505
0.0270814
0.0262514
0.0256731
0.0336464
0.0325575
0.0313593
0.0302185
0.0291888
0.0282682
0.0274265
0.0265774
0.0256288
0.0244452
0.0228571
0.0211647
0.031832
0.0308619
0.029748
0.0286356
0.0275821
0.0265899
0.0256232
0.0245951
0.0233652
0.0216128
0.0185329
0.0136956
0.0287855
0.0295166
0.0304808
0.0315832
0.0327064
0.0338629
0.03503
0.0360514
0.0370249
0.0379272
0.038385
0.0377025
0.0261995
0.0279787
0.0297934
0.0314944
0.0330609
0.034405
0.0355653
0.0364558
0.0371002
0.0373678
0.0372151
0.0363431
0.0217309
0.0256365
0.0286397
0.0309139
0.0327383
0.0341938
0.0353257
0.0361031
0.0364261
0.036376
0.0360226
0.034871
0.0137396
0.0222503
0.0270481
0.0299033
0.0319265
0.033442
0.0345468
0.035167
0.0353243
0.0351998
0.034644
0.0333507
0.0357848
0.0338925
0.0322763
0.0309031
0.0297799
0.0289015
0.028264
0.027752
0.0272958
0.0268943
0.026579
0.0263963
0.0344186
0.032592
0.0309898
0.0296043
0.0284293
0.0274485
0.0266284
0.0258836
0.0251588
0.024447
0.0237978
0.0233788
0.0330457
0.0312427
0.0296035
0.0281443
0.0268583
0.0257247
0.0247006
0.0237117
0.0226872
0.0215531
0.0202524
0.0191206
0.031616
0.0298315
0.0281503
0.0266092
0.0252076
0.0239244
0.0227134
0.0214955
0.0201561
0.0184659
0.0158364
0.0121444
0.0263788
0.0265349
0.0268396
0.0273878
0.0282154
0.0293777
0.0307379
0.0323058
0.0340992
0.0359283
0.0378116
0.0380761
0.0234878
0.0240817
0.0247548
0.0256241
0.0268118
0.0282618
0.0298731
0.0315837
0.0333277
0.0349428
0.0360512
0.0362083
0.0192713
0.0210962
0.0224519
0.0237298
0.0252041
0.0268567
0.0285933
0.0303307
0.0319755
0.0333569
0.0341346
0.0342418
0.0121682
0.0174158
0.0200433
0.0218167
0.023547
0.0253459
0.0271482
0.0288715
0.0304233
0.0316081
0.0322417
0.0323353
0.0301336
0.029267
0.0282234
0.0271307
0.0260464
0.0249753
0.0238801
0.0226704
0.0211623
0.0187943
0.0136409
0.00297311
0.0285051
0.0277241
0.0267374
0.0256557
0.0245336
0.0233776
0.0221521
0.0207682
0.0190305
0.0164102
0.011507
0.00203052
0.0269486
0.0262323
0.0252849
0.0242007
0.0230294
0.0217787
0.0204175
0.0188673
0.0169556
0.0142669
0.00986911
0.00158666
0.0254257
0.0247545
0.0238289
0.0227272
0.0214936
0.020137
0.018634
0.0169237
0.0148764
0.012205
0.00833664
0.00128999
0.0238829
0.0232425
0.0223251
0.0211943
0.0198877
0.0184161
0.016767
0.0149033
0.0127479
0.0101354
0.00676039
0.00100605
0.022249
0.0216345
0.0207223
0.0195613
0.0181805
0.0165922
0.0147987
0.0127937
0.01056
0.00804834
0.00516056
0.000742252
0.020424
0.0198455
0.0189544
0.0177836
0.0163476
0.014656
0.0127313
0.0106099
0.00834917
0.0060304
0.00366974
0.000557834
0.018258
0.0177446
0.0169177
0.0157924
0.0143589
0.0126087
0.0105861
0.00839772
0.00621398
0.00425161
0.00268657
0.000474985
0.0155111
0.0151079
0.0144178
0.0134412
0.012135
0.0104402
0.0083967
0.00623539
0.00431088
0.00303171
0.00214114
0.000448063
0.0117964
0.0115442
0.0110751
0.010387
0.00941961
0.00804041
0.00617478
0.00421103
0.00279477
0.00216465
0.00156436
0.000437124
0.00655771
0.00645506
0.00624291
0.005929
0.00549345
0.00483899
0.00367827
0.00219442
0.00137358
0.00113167
0.000882763
0.000418758
0.000707229
0.000688498
0.000655869
0.000606693
0.000534397
0.000428727
0.000291737
0.000189792
0.000156713
0.000148048
0.000138678
0.000121094
0.00308741
0.0181523
0.0251874
0.028574
0.0307544
0.0323063
0.0333713
0.0338832
0.0340036
0.0338026
0.0330831
0.0317769
0.00240823
0.0162692
0.0234043
0.027037
0.0293243
0.0309062
0.0319174
0.0323884
0.0325009
0.0322297
0.0314284
0.0301552
0.00210766
0.0149081
0.0216693
0.0253557
0.0276993
0.029297
0.0302748
0.0307383
0.0308305
0.0305106
0.0296931
0.0284725
0.00190527
0.0136912
0.0199389
0.0235602
0.0259166
0.0275144
0.0284811
0.0289497
0.029021
0.028668
0.0278737
0.0267188
0.0017222
0.0124762
0.0181733
0.0216601
0.0239952
0.0255817
0.0265467
0.0270207
0.0270732
0.0267115
0.0259596
0.0248782
0.00153251
0.0112092
0.0163422
0.0196536
0.02194
0.0235026
0.0244658
0.0249373
0.0249762
0.0246232
0.0239272
0.0229219
0.00132578
0.00985519
0.0144235
0.0175324
0.0197413
0.021264
0.0222087
0.0226666
0.0226945
0.0223594
0.0217206
0.0208006
0.0011006
0.00838997
0.0124026
0.015281
0.0173699
0.0188117
0.0197017
0.0201233
0.0201329
0.0198173
0.0192317
0.0184141
0.000871023
0.00680209
0.0102671
0.0128501
0.0147227
0.0159903
0.0167514
0.0170905
0.0170627
0.0167655
0.0162316
0.0155507
0.000668317
0.00510147
0.0079448
0.0100237
0.0114493
0.0123611
0.0128736
0.0130679
0.0129877
0.012721
0.0122604
0.01177
0.000517034
0.00311187
0.00488893
0.00592604
0.00655222
0.00693021
0.00712723
0.00717928
0.00709587
0.00691773
0.00666336
0.00638867
0.000130831
0.000236608
0.000372049
0.000493105
0.000585344
0.000649146
0.00068998
0.000711471
0.000714098
0.000705632
0.000688614
0.000664981
0.0301171
0.0283623
0.0266573
0.025053
0.023556
0.0221472
0.0207782
0.0193606
0.0177313
0.0154664
0.0109929
0.00247062
0.0285722
0.0268657
0.0251642
0.0235248
0.0219602
0.0204535
0.0189562
0.0173753
0.0155324
0.0130061
0.00865286
0.00143522
0.0269707
0.0253286
0.0236551
0.0220069
0.0204004
0.018821
0.0172228
0.0155161
0.0135368
0.0109468
0.0070414
0.000964853
0.025301
0.0237341
0.0221062
0.0204695
0.0188417
0.0172113
0.0155376
0.0137415
0.0116909
0.00914892
0.0057895
0.000735071
0.0235436
0.022059
0.0204883
0.0188781
0.0172461
0.0155848
0.0138616
0.0120136
0.00995183
0.00753836
0.00474294
0.000617388
0.0216741
0.0202767
0.0187733
0.0172038
0.0155854
0.0139153
0.0121718
0.0103134
0.00830566
0.00611409
0.00392745
0.000567148
0.0196533
0.0183509
0.0169311
0.0154239
0.0138439
0.0121931
0.0104645
0.0086436
0.00676755
0.00491662
0.00340056
0.000540176
0.0173978
0.0162119
0.014909
0.0135051
0.0120071
0.010418
0.00874905
0.00702287
0.00537244
0.00396805
0.00305118
0.000523765
0.0147191
0.0136993
0.0125776
0.0113566
0.0100255
0.00857543
0.00703353
0.00547285
0.00414668
0.00320667
0.00263117
0.000506828
0.0111778
0.0104301
0.00959671
0.00870513
0.00770854
0.00655867
0.005275
0.00396996
0.0029849
0.00231233
0.00189558
0.000480737
0.00609376
0.00574427
0.00534165
0.00490115
0.00442123
0.00382082
0.00304719
0.00215944
0.00159445
0.00117605
0.000992587
0.000431057
0.000635324
0.000599472
0.000555826
0.000501281
0.000434061
0.000358935
0.000281996
0.000218113
0.000187965
0.000171771
0.000164794
0.000139429
0.00267753
0.013157
0.0175662
0.019868
0.0218249
0.0237445
0.0255972
0.0273059
0.0287835
0.0298433
0.0304102
0.0305101
0.00191955
0.0109095
0.0153906
0.0179688
0.0201094
0.0221417
0.0240498
0.0257578
0.0271857
0.0281727
0.0287065
0.0288195
0.00151229
0.00920538
0.0133962
0.0160844
0.0183626
0.0205042
0.0224802
0.0242081
0.0256144
0.026564
0.0270846
0.0272139
0.00120404
0.00771641
0.0115131
0.0142074
0.0165799
0.0188246
0.0208776
0.0226424
0.0240504
0.0249863
0.0255056
0.0256526
0.000933507
0.0063329
0.00971909
0.0123369
0.0147569
0.0170898
0.019218
0.0210256
0.02245
0.0233864
0.0239124
0.0240792
0.000723133
0.00506423
0.00803128
0.0104828
0.0128913
0.0152838
0.0174665
0.0193044
0.0207462
0.021688
0.0222261
0.0224169
0.000588689
0.00400751
0.00650143
0.00866787
0.0109858
0.0133895
0.0155774
0.0174049
0.0188459
0.0197854
0.0203367
0.0205585
0.000516387
0.00319833
0.00518142
0.00692574
0.00904746
0.0113862
0.0134859
0.0152234
0.016619
0.0175306
0.0180872
0.0183472
0.000478644
0.00251239
0.00403846
0.00528064
0.00708141
0.00923479
0.0110859
0.0126075
0.0138777
0.0147103
0.0152459
0.0155419
0.000455246
0.00181816
0.00287094
0.0036628
0.00506341
0.0068263
0.00815457
0.00926708
0.0102977
0.0110082
0.0114716
0.0117649
0.00042759
0.00104237
0.00149019
0.00180452
0.00260772
0.00365712
0.00431895
0.00496931
0.00558059
0.00602824
0.00632743
0.00650559
0.000122368
0.000149138
0.000165393
0.0001731
0.000218546
0.000348772
0.000482046
0.000575245
0.000633592
0.000671175
0.000696325
0.000708407
0.0301074
0.0292425
0.0282006
0.0271095
0.0260266
0.0249568
0.023863
0.0226549
0.0211487
0.0187833
0.0136341
0.00297246
0.0284767
0.0276974
0.0267124
0.0256323
0.0245117
0.0233572
0.0221332
0.0207511
0.0190156
0.0163982
0.0114994
0.00202971
0.026918
0.0262033
0.0252576
0.0241749
0.0230052
0.0217561
0.0203966
0.0188483
0.016939
0.0142534
0.00986009
0.00158556
0.0253929
0.0247233
0.0237992
0.022699
0.0214669
0.0201119
0.0186107
0.0169025
0.0148578
0.0121898
0.00832613
0.00128859
0.0238485
0.0232093
0.0222932
0.0211636
0.0198584
0.0183884
0.0167411
0.0148797
0.0127273
0.0101186
0.00674861
0.00100447
0.0222135
0.0215999
0.0206885
0.0195284
0.0181486
0.0165617
0.0147702
0.0127677
0.0105375
0.00803041
0.00514844
0.000740879
0.0203888
0.0198108
0.0189199
0.0177492
0.0163135
0.0146228
0.0127001
0.0105817
0.00832546
0.00601289
0.00365969
0.000557093
0.0182251
0.0177117
0.0168844
0.0157583
0.0143238
0.0125735
0.0105527
0.00836819
0.00619093
0.00423746
0.00268214
0.000474774
0.0154832
0.0150797
0.0143888
0.0134106
0.0121019
0.0104048
0.00836225
0.00620637
0.00429179
0.00302521
0.00214004
0.000448033
0.0117763
0.0115241
0.0110544
0.0103648
0.00939425
0.00800977
0.00614213
0.00418586
0.00278375
0.00216265
0.00156408
0.000437129
0.00654756
0.00644506
0.00623287
0.00591873
0.00548228
0.00482362
0.00365522
0.00217778
0.00136909
0.0011312
0.000882817
0.000418763
0.000706046
0.000687266
0.000654539
0.000605185
0.000532575
0.000426488
0.000289696
0.000189002
0.0001566
0.000148051
0.000138685
0.000121094
0.00308705
0.0181516
0.0251875
0.0285754
0.030757
0.0323102
0.0333764
0.0338895
0.0340107
0.0338105
0.033092
0.0317869
0.00240811
0.0162697
0.023406
0.0270402
0.029329
0.0309122
0.031925
0.0323974
0.0325108
0.0322406
0.0314406
0.0301688
0.0021077
0.0149096
0.0216726
0.0253608
0.027706
0.0293054
0.030285
0.0307501
0.0308434
0.0305248
0.0297089
0.0284899
0.00190545
0.0136938
0.0199438
0.0235671
0.0259255
0.0275252
0.0284941
0.0289643
0.0290372
0.0286859
0.0278934
0.0267403
0.00172252
0.0124799
0.0181798
0.0216689
0.0240063
0.025595
0.0265624
0.0270383
0.0270928
0.0267331
0.0259833
0.024904
0.00153297
0.011214
0.0163503
0.0196643
0.0219532
0.0235183
0.024484
0.0249577
0.024999
0.0246482
0.0239545
0.0229517
0.00132636
0.00986108
0.014433
0.0175448
0.0197563
0.0212816
0.0222289
0.0226892
0.0227196
0.0223869
0.0217503
0.0208329
0.00110125
0.00839674
0.0124133
0.0152947
0.0173861
0.0188302
0.0197224
0.0201462
0.0201582
0.0198449
0.0192612
0.0184461
0.000871655
0.00680921
0.0102783
0.012864
0.0147383
0.0160073
0.0167699
0.0171105
0.0170846
0.0167892
0.0162568
0.0155779
0.000668764
0.00510804
0.00795505
0.0100351
0.0114608
0.0123727
0.0128858
0.013081
0.0130019
0.0127363
0.0122767
0.0117874
0.000517184
0.00311631
0.00489488
0.00593083
0.00655632
0.00693433
0.00713175
0.00718446
0.0071018
0.00692434
0.00667058
0.00639623
0.000130819
0.000236823
0.000372599
0.000493843
0.000586168
0.000650035
0.000690947
0.000712537
0.000715339
0.000706973
0.000690082
0.000666584
0.0301283
0.0283744
0.0266699
0.0250659
0.0235689
0.0221598
0.0207903
0.0193719
0.0177413
0.0154743
0.0109972
0.00247148
0.0285871
0.0268817
0.0251809
0.0235419
0.0219772
0.0204699
0.0189718
0.0173896
0.0155448
0.0130159
0.00865879
0.00143629
0.0269897
0.0253489
0.0236763
0.0220286
0.0204219
0.0188418
0.0172424
0.0155338
0.013552
0.0109587
0.00704913
0.000965928
0.0253245
0.0237592
0.0221324
0.0204963
0.0188683
0.017237
0.0155616
0.013763
0.0117091
0.00916287
0.00579848
0.000735865
0.0235717
0.022089
0.0205197
0.0189102
0.017278
0.0156155
0.0138901
0.012039
0.00997288
0.00755373
0.0047519
0.000617808
0.0217064
0.0203112
0.0188096
0.0172411
0.0156226
0.0139511
0.0122049
0.0103425
0.00832903
0.00612959
0.0039342