/*--------------------------------*- C++ -*----------------------------------*\
| =========                 |                                                 |
| \\      /  F ield         | OpenFOAM: The Open Source CFD Toolbox           |
|  \\    /   O peration     | Version:  2212                                  |
|   \\  /    A nd           | Website:  www.openfoam.com                      |
|    \\/     M anipulation  |                                                 |
\*---------------------------------------------------------------------------*/
FoamFile
{
    version     2.0;
    format      ascii;
    arch        "LSB;label=32;scalar=64";
    class       volScalarField;
    location    "0.01";
    object      p;
}
// * * * * * * * * * * * * * * * * * * * * * * * * * * * * * * * * * * * * * //

dimensions      [1 -1 -2 0 0 0 0];

internalField   nonuniform List<scalar> 
3072
(
98320.6
98294.8
98278.7
98265.2
98267.2
98265.8
98272.6
98303.1
98302.5
98260
98212.8
98172.3
98395.5
98351.7
98341.4
98337.3
98360.3
98382.4
98434.6
98534.5
98590.9
98611.7
98621.7
98626.3
98488.6
98443.4
98447.2
98462.5
98504.7
98550.7
98600
98652.2
98690.6
98718
98737.6
98747.6
98630.3
98605.9
98625.8
98657.6
98701.7
98745.9
98790.5
98829.2
98858.7
98882.9
98902.8
98918.4
98749.2
98752.3
98779.4
98821.3
98867.8
98912.1
98955.1
98990.9
99018.4
99040.1
99056.7
99069.6
98867.5
98894.1
98927
98975
99022.4
99067.1
99105.4
99136.9
99161.3
99180.4
99194.8
99205.7
98980.4
99031.9
99069.1
99122.7
99171
99213.3
99247.4
99274.3
99294.7
99310
99321.2
99329.4
99100.1
99169.7
99209.8
99266.5
99312.6
99351
99380.3
99402.1
99417.8
99428.8
99436.5
99441.7
99228.7
99315.3
99354.2
99409.5
99450
99482
99504.8
99520.4
99530.6
99537.1
99540.8
99542.9
99360
99461.4
99498
99549.7
99582.5
99605.7
99620.3
99628.8
99633.1
99634.6
99634.4
99633.2
99509.3
99621.3
99646.9
99685.6
99707.3
99719.2
99724.4
99725.4
99723.8
99720.5
99716.5
99712.2
99612.2
99776.4
99786.1
99803.9
99812.1
99813.3
99810.5
99805.5
99799.3
99792.4
99785.5
99779
98155.5
98158.4
98184.9
98230.1
98293.8
98371.1
98458.9
98548.4
98629.1
98692.6
98734.3
98707.1
98628.3
98633.5
98642.6
98657.8
98678.6
98705.3
98736.2
98767.4
98793.6
98826
98845.9
98748.2
98755.3
98764.1
98775.8
98791.6
98809.8
98829
98847.3
98860.3
98863.8
98867.3
98858
98715.6
98931
98941.7
98951.6
98960.6
98968.6
98974.8
98977.8
98973.9
98958
98934.7
98906.5
98725.2
99079.7
99087.6
99093.9
99098.6
99101.4
99101.5
99097.5
99087.2
99065.5
99030.9
98990.5
98796.2
99213.8
99219.8
99224
99226.7
99227.6
99226
99220.5
99209.8
99189.5
99156.3
99114.3
98925
99335.3
99339.5
99342.3
99344.2
99345
99344.5
99341.8
99335.5
99322.7
99298.9
99271
99109
99445.2
99447.7
99449.6
99451.5
99453.6
99456.1
99458.6
99460.4
99460.5
99455.3
99455.3
99342.7
99543.9
99544.7
99545.9
99548.2
99552.1
99558.2
99566.9
99578.5
99593.9
99612.6
99651.4
99618.2
99631.8
99630.8
99631.2
99633.6
99639
99648.5
99663.1
99684.2
99714.2
99757.3
99845.8
99916.3
99708.5
99705.8
99705.1
99707.2
99713.4
99725.2
99744
99772.1
99812.6
99874.2
100013
100195
99773.4
99769.2
99767.3
99768.6
99774.5
99787
99807.4
99838.6
99882.2
99951.3
100107
100440
98315.4
98291.3
98275.8
98263.5
98265.7
98265.8
98268.1
98293.1
98301.9
98268.6
98224.9
98186.6
98391.1
98348.9
98338.1
98331.8
98353.9
98377
98416.5
98511.7
98576
98598.2
98612.5
98618.5
98482.5
98438.5
98440.7
98453
98491.9
98537.7
98583.7
98635.5
98675.8
98703.2
98724.8
98735.7
98621.3
98597.1
98614.4
98643.5
98685.5
98728.7
98772.1
98811.9
98842.4
98867.1
98887.4
98902.9
98738.1
98740.8
98765
98804.4
98849.2
98892.8
98935.3
98971.6
98999.7
99021.7
99038.8
99051.6
98855.8
98881.1
98911.2
98956.7
99002.8
99046.6
99084.5
99116.1
99140.8
99160.1
99174.8
99185.8
98968.3
99017.9
99052.1
99103.1
99149.6
99191.1
99225
99252.1
99272.7
99288.3
99299.8
99308.2
99087.7
99154.8
99192
99246
99290.1
99327.8
99357
99378.9
99394.8
99406.2
99414.1
99419.5
99215.8
99299.7
99335.7
99388.6
99427.3
99458.6
99481.2
99497
99507.4
99514
99518
99520.2
99346.6
99444.9
99479.3
99529
99560.5
99583.1
99597.5
99606
99610.3
99611.8
99611.6
99610.4
99495.5
99604.1
99628.3
99665.7
99686.5
99698
99702.9
99703.6
99701.7
99698.2
99693.9
99689.5
99598.8
99757.9
99767.5
99784.8
99792.7
99793.5
99790.3
99784.8
99778
99770.6
99763.1
99756.2
98168.9
98169.7
98192.2
98232.3
98289.7
98360.2
98440.7
98523.4
98598
98655.8
98694.2
98667.8
98621.4
98625.7
98633.4
98645.8
98663.3
98685.9
98712.5
98739.8
98762.5
98790.8
98809.2
98714.6
98743.5
98751.5
98761.9
98775.6
98791.6
98808.3
98824
98834.5
98836
98837.4
98828.4
98689.6
98915.6
98925.8
98934.8
98942.7
98949.2
98953.7
98955.1
98949.5
98932.5
98908.4
98881.2
98703.8
99061.6
99069.2
99074.9
99078.9
99080.8
99079.8
99074.7
99063.5
99041
99006.2
98967
98775
99193.9
99199.8
99203.7
99205.9
99206.1
99203.8
99197.4
99185.8
99164.6
99130.4
99089.2
98900.9
99314.2
99318.3
99321
99322.6
99322.9
99321.7
99318.2
99310.9
99297
99271.8
99243
99079.4
99423.2
99425.7
99427.6
99429.3
99431
99432.7
99434.2
99434.8
99433.3
99425.6
99422.7
99305.6
99521.4
99522.4
99523.6
99525.7
99529.1
99534.4
99542
99552
99565.4
99580.9
99614.3
99573.1
99609.1
99608.3
99608.7
99611
99616
99624.7
99638.1
99657.3
99685
99724.5
99805.3
99865.4
99685.7
99683.2
99682.5
99684.7
99690.7
99701.8
99719.3
99745.5
99783.8
99841.9
99972.8
100144
99750.4
99746.3
99744.6
99746.3
99752.2
99764.2
99783.5
99813
99855.2
99921.6
100072
100400
98320.7
98294.8
98278.7
98265.2
98267.2
98265.8
98272.6
98303.1
98302.6
98260.1
98212.9
98172.4
98395.5
98351.7
98341.4
98337.2
98360.3
98382.4
98434.5
98534.4
98590.9
98611.7
98621.7
98626.3
98488.6
98443.4
98447.2
98462.5
98504.7
98550.7
98599.9
98652.2
98690.6
98718
98737.6
98747.6
98630.3
98605.9
98625.8
98657.6
98701.7
98745.8
98790.4
98829.2
98858.6
98882.9
98902.8
98918.4
98749.2
98752.3
98779.4
98821.2
98867.8
98912
98955
98990.9
99018.4
99040
99056.7
99069.6
98867.5
98894.1
98927
98975
99022.4
99067.1
99105.4
99136.9
99161.3
99180.3
99194.8
99205.6
98980.4
99031.9
99069
99122.7
99170.9
99213.3
99247.4
99274.3
99294.6
99309.9
99321.2
99329.4
99100.1
99169.7
99209.8
99266.5
99312.6
99351
99380.3
99402.1
99417.7
99428.8
99436.4
99441.6
99228.7
99315.3
99354.1
99409.5
99449.9
99481.9
99504.7
99520.4
99530.6
99537
99540.8
99542.8
99360
99461.3
99498
99549.7
99582.5
99605.7
99620.3
99628.8
99633.1
99634.6
99634.4
99633.1
99509.3
99621.3
99646.9
99685.5
99707.2
99719.1
99724.4
99725.4
99723.8
99720.5
99716.5
99712.2
99612.2
99776.3
99786.1
99803.8
99812.1
99813.3
99810.5
99805.5
99799.2
99792.4
99785.5
99779
98155.6
98158.5
98184.9
98230.2
98293.8
98371.1
98458.9
98548.3
98629
98692.5
98734.2
98707
98628.3
98633.5
98642.6
98657.8
98678.6
98705.3
98736.2
98767.3
98793.6
98826
98845.9
98748.2
98755.3
98764
98775.8
98791.6
98809.8
98829
98847.3
98860.2
98863.7
98867.2
98858
98715.6
98931
98941.7
98951.5
98960.6
98968.6
98974.8
98977.8
98973.8
98958
98934.6
98906.5
98725.2
99079.6
99087.6
99093.8
99098.5
99101.4
99101.4
99097.5
99087.1
99065.5
99030.8
98990.5
98796.2
99213.8
99219.8
99224
99226.7
99227.5
99225.9
99220.5
99209.7
99189.4
99156.2
99114.3
98924.9
99335.3
99339.4
99342.3
99344.2
99345
99344.5
99341.8
99335.5
99322.7
99298.9
99270.9
99109
99445.2
99447.6
99449.6
99451.5
99453.6
99456
99458.5
99460.4
99460.5
99455.2
99455.3
99342.6
99543.9
99544.7
99545.9
99548.1
99552
99558.1
99566.9
99578.5
99593.8
99612.5
99651.3
99618
99631.7
99630.8
99631.1
99633.6
99639
99648.5
99663.1
99684.2
99714.2
99757.3
99845.7
99916.1
99708.5
99705.8
99705
99707.2
99713.4
99725.2
99744
99772.1
99812.6
99874.1
100013
100195
99773.4
99769.2
99767.3
99768.6
99774.5
99786.9
99807.4
99838.5
99882.2
99951.3
100107
100440
98315.4
98291.4
98275.9
98263.5
98265.7
98265.8
98268.1
98293.2
98301.9
98268.5
98224.9
98186.6
98391.1
98349
98338.1
98331.8
98353.9
98377
98416.6
98511.8
98576
98598.2
98612.5
98618.5
98482.6
98438.6
98440.8
98453.1
98492
98537.8
98583.8
98635.5
98675.8
98703.2
98724.9
98735.7
98621.3
98597.2
98614.5
98643.7
98685.6
98728.8
98772.2
98812
98842.5
98867.1
98887.5
98902.9
98738.1
98740.8
98765.1
98804.5
98849.3
98892.9
98935.4
98971.7
98999.7
99021.8
99038.8
99051.6
98855.9
98881.1
98911.3
98956.8
99002.8
99046.6
99084.6
99116.1
99140.9
99160.1
99174.8
99185.8
98968.4
99017.9
99052.1
99103.1
99149.6
99191.2
99225.1
99252.1
99272.7
99288.3
99299.8
99308.2
99087.7
99154.9
99192
99246
99290.2
99327.8
99357
99378.9
99394.9
99406.2
99414.1
99419.5
99215.8
99299.7
99335.8
99388.6
99427.3
99458.6
99481.2
99497
99507.4
99514.1
99518
99520.2
99346.6
99444.9
99479.3
99529
99560.5
99583.1
99597.5
99606
99610.3
99611.8
99611.6
99610.5
99495.5
99604.1
99628.4
99665.7
99686.5
99698
99702.9
99703.6
99701.7
99698.2
99693.9
99689.5
99598.9
99758
99767.5
99784.9
99792.7
99793.5
99790.3
99784.8
99778
99770.6
99763.1
99756.2
98169
98169.8
98192.2
98232.4
98289.8
98360.2
98440.8
98523.4
98598.1
98655.9
98694.3
98667.8
98621.4
98625.8
98633.4
98645.9
98663.3
98685.9
98712.6
98739.9
98762.5
98790.8
98809.3
98714.6
98743.6
98751.6
98762
98775.7
98791.6
98808.3
98824.1
98834.6
98836.1
98837.5
98828.5
98689.6
98915.6
98925.8
98934.8
98942.7
98949.2
98953.8
98955.1
98949.6
98932.6
98908.5
98881.2
98703.8
99061.6
99069.2
99075
99079
99080.9
99079.9
99074.8
99063.5
99041.1
99006.2
98967.1
98775.1
99194
99199.8
99203.8
99205.9
99206.2
99203.8
99197.5
99185.8
99164.7
99130.5
99089.3
98901
99314.2
99318.3
99321.1
99322.6
99322.9
99321.8
99318.2
99310.9
99297
99271.8
99243.1
99079.5
99423.2
99425.8
99427.7
99429.4
99431
99432.8
99434.3
99434.9
99433.3
99425.7
99422.8
99305.6
99521.5
99522.4
99523.6
99525.7
99529.1
99534.5
99542
99552.1
99565.4
99580.9
99614.4
99573.2
99609.1
99608.3
99608.7
99611
99616.1
99624.8
99638.1
99657.3
99685.1
99724.6
99805.3
99865.5
99685.7
99683.2
99682.6
99684.8
99690.7
99701.8
99719.3
99745.5
99783.9
99841.9
99972.9
100144
99750.4
99746.3
99744.7
99746.3
99752.2
99764.2
99783.6
99813
99855.2
99921.6
100072
100400
99912.3
99925.6
99906.5
99896.3
99888.9
99881.6
99873.8
99865.6
99857.2
99848.7
99840.5
99832.8
99946.8
99927.9
99926.6
99926.1
99923.9
99919.5
99913.3
99906.1
99898.3
99890.2
99882.3
99874.4
99951.8
99944.3
99946.2
99946.5
99945.2
99942.4
99938.1
99932.8
99926.7
99920.2
99913.6
99906.3
99953.3
99953.2
99955.6
99956.6
99956.6
99955.5
99953.3
99950.2
99946.6
99942.6
99937.9
99932.6
99826.3
99821
99817.9
99818
99822.7
99833.9
99853
99882.3
99920
99970.7
100024
100146
99867.8
99862
99857.8
99856.2
99858.9
99867.4
99882.7
99907.3
99938
99977.7
100002
100048
99900.2
99894
99888.4
99884.3
99883.9
99888.3
99898
99915.9
99938.6
99970.2
99986.1
100006
99927.8
99920.2
99911.7
99904.5
99899.7
99898.1
99900.6
99909.4
99922.5
99946.1
99959.7
99981.5
99899.8
99910.5
99890.8
99879.4
99871.4
99863.4
99854.9
99845.9
99836.6
99827.1
99817.9
99809.5
99943.1
99918.8
99914.5
99911.8
99908.4
99903
99895.8
99887.4
99878.1
99868.4
99858.8
99849.8
99956.5
99942.4
99940.7
99938
99934.4
99929.5
99923.2
99915.6
99907.2
99898
99888.6
99879.5
99967
99962.8
99961.4
99958.8
99955.4
99951
99945.6
99939.1
99931.7
99923.2
99914
99904.4
99802.4
99797.3
99794.8
99795.6
99800.8
99812
99830.5
99858.7
99895.8
99946
100001
100128
99842.1
99836.5
99833.4
99833.3
99837
99846.1
99861.7
99886.2
99917.2
99957.8
99986.1
100037
99871.7
99866
99862.4
99861.1
99862.8
99868.7
99879.5
99897.8
99921.2
99953.7
99972.9
99994.5
99896.1
99890.7
99887
99884.5
99883.3
99884.4
99888.3
99897.3
99910
99932.3
99946.5
99966.2
99912.2
99925.6
99906.5
99896.2
99888.9
99881.6
99873.8
99865.6
99857.2
99848.7
99840.5
99832.8
99946.8
99927.9
99926.6
99926.1
99923.9
99919.5
99913.3
99906.1
99898.3
99890.2
99882.3
99874.4
99951.8
99944.3
99946.2
99946.4
99945.2
99942.3
99938.1
99932.8
99926.7
99920.2
99913.6
99906.3
99953.3
99953.2
99955.5
99956.5
99956.5
99955.4
99953.2
99950.2
99946.5
99942.5
99937.8
99932.6
99826.2
99821
99817.9
99818
99822.7
99833.9
99853
99882.3
99919.9
99970.7
100024
100146
99867.8
99862
99857.8
99856.2
99858.9
99867.4
99882.6
99907.3
99938
99977.7
100002
100048
99900.2
99894
99888.4
99884.3
99883.9
99888.3
99898
99915.9
99938.6
99970.2
99986.1
100006
99927.8
99920.2
99911.7
99904.5
99899.7
99898.1
99900.6
99909.4
99922.5
99946.1
99959.7
99981.5
99899.8
99910.5
99890.8
99879.4
99871.4
99863.4
99854.9
99846
99836.6
99827.1
99817.9
99809.5
99943.1
99918.8
99914.5
99911.8
99908.4
99903.1
99895.8
99887.4
99878.1
99868.4
99858.8
99849.8
99956.5
99942.4
99940.7
99938
99934.4
99929.5
99923.2
99915.6
99907.2
99898
99888.6
99879.6
99967
99962.8
99961.4
99958.8
99955.4
99951
99945.6
99939.1
99931.7
99923.2
99914
99904.5
99802.4
99797.3
99794.8
99795.6
99800.8
99812
99830.5
99858.7
99895.9
99946.1
100001
100129
99842.1
99836.5
99833.4
99833.3
99837
99846.2
99861.8
99886.2
99917.2
99957.8
99986.1
100037
99871.7
99866
99862.4
99861.2
99862.8
99868.7
99879.5
99897.8
99921.2
99953.7
99972.9
99994.5
99896.2
99890.7
99887
99884.5
99883.3
99884.5
99888.3
99897.3
99910
99932.3
99946.5
99966.3
99954
99958.6
99962.5
99965.2
99966.7
99967.1
99966.4
99964.9
99962.8
99960.3
99957.1
99954
99956.8
99962.9
99968.1
99972.1
99974.8
99976.3
99976.5
99975.7
99974.2
99972.3
99970.3
99968.4
99958.4
99965.6
99971.6
99976.3
99979.6
99981.5
99982.1
99981.6
99980.4
99979
99977.9
99977.3
99959.3
99967.2
99973.8
99978.9
99982.5
99984.5
99985.1
99984.6
99983.5
99982.3
99981.6
99981.7
99951.2
99945.3
99938.8
99932.8
99927.7
99924.2
99922.9
99924.8
99929.1
99941.8
99949.5
99963.4
99968.4
99964.8
99961.4
99958.2
99955.6
99953.7
99952.9
99953.6
99956
99958.5
99958.6
99960.2
99980.9
99978.5
99976.9
99975.5
99974.3
99973.1
99971.9
99970.6
99969.1
99966.9
99962.4
99957.6
99990.9
99988.5
99987.3
99986.7
99985.8
99984.4
99982.1
99978.9
99974.5
99969.1
99961.8
99954.2
99963.7
99963
99960.6
99956.9
99952.5
99947.5
99942.1
99936.2
99929.7
99921.5
99913.1
99904.2
99956.2
99952.3
99947.5
99942.2
99936.6
99930.9
99924.8
99918.3
99911.7
99905.7
99899.3
99891.8
99950.1
99943.9
99937.7
99931.7
99925.8
99920.1
99914.4
99908.8
99903.1
99897.7
99892.6
99885.9
99945.5
99938.3
99931.7
99925.6
99919.9
99914.5
99909.3
99904.3
99899.4
99894.5
99890.2
99883.4
99896.1
99891.2
99888.6
99887.3
99887
99888.1
99891.1
99897.4
99906.5
99921.7
99934
99950.3
99884.3
99880.2
99878.9
99879.2
99880.8
99884
99889.3
99897.8
99909.2
99924.8
99937.6
99950.6
99877.7
99874.3
99873.9
99874.9
99877.2
99881.3
99887.7
99897.2
99909.5
99924.6
99938.2
99950.8
99874.9
99871.9
99871.8
99872.9
99875.5
99879.8
99886.6
99896.3
99908.7
99923.3
99937.4
99950.2
99953.9
99958.6
99962.5
99965.1
99966.6
99967
99966.4
99964.9
99962.8
99960.3
99957.1
99954
99956.7
99962.9
99968.1
99972.1
99974.8
99976.3
99976.5
99975.7
99974.2
99972.3
99970.3
99968.4
99958.4
99965.5
99971.6
99976.3
99979.6
99981.5
99982.1
99981.6
99980.3
99979
99977.9
99977.3
99959.3
99967.2
99973.8
99978.9
99982.4
99984.5
99985.1
99984.6
99983.5
99982.3
99981.6
99981.7
99951.1
99945.3
99938.8
99932.8
99927.7
99924.2
99922.9
99924.8
99929.1
99941.8
99949.6
99963.4
99968.4
99964.8
99961.4
99958.2
99955.6
99953.7
99952.9
99953.6
99956
99958.5
99958.6
99960.2
99980.9
99978.4
99976.9
99975.5
99974.3
99973.1
99971.9
99970.6
99969.1
99966.9
99962.4
99957.6
99990.9
99988.5
99987.3
99986.7
99985.8
99984.4
99982.1
99978.9
99974.5
99969.1
99961.8
99954.2
99963.7
99963
99960.6
99956.9
99952.5
99947.5
99942.1
99936.2
99929.7
99921.5
99913.1
99904.2
99956.2
99952.3
99947.5
99942.2
99936.7
99930.9
99924.8
99918.3
99911.7
99905.7
99899.3
99891.8
99950.1
99943.9
99937.7
99931.7
99925.9
99920.1
99914.5
99908.8
99903.1
99897.7
99892.6
99885.9
99945.6
99938.4
99931.7
99925.6
99919.9
99914.5
99909.3
99904.3
99899.4
99894.5
99890.2
99883.4
99896.1
99891.2
99888.6
99887.3
99887
99888.1
99891.1
99897.4
99906.6
99921.7
99934.1
99950.4
99884.3
99880.2
99879
99879.2
99880.8
99884
99889.4
99897.8
99909.2
99924.9
99937.6
99950.6
99877.8
99874.4
99873.9
99874.9
99877.2
99881.3
99887.8
99897.2
99909.5
99924.6
99938.3
99950.8
99874.9
99872
99871.8
99873
99875.5
99879.8
99886.6
99896.3
99908.7
99923.4
99937.4
99950.2
99959.8
99968.4
99975.4
99980.7
99984.3
99986.3
99986.8
99986.2
99985
99983.5
99981.5
99979.6
99960.3
99969.4
99976.6
99982
99985.6
99987.4
99987.8
99987.1
99985.6
99983.8
99981.3
99981.9
99960.7
99970.2
99977.6
99983.1
99986.5
99988.2
99988.3
99987.4
99985.8
99983.9
99981.9
99982.5
99961
99970.9
99978.5
99983.9
99987.2
99988.7
99988.6
99987.5
99985.8
99983.9
99982.4
99982.8
99961.4
99971.5
99979.3
99984.7
99987.8
99989
99988.7
99987.4
99985.6
99983.9
99982.7
99982.8
99961.7
99972.1
99980
99985.3
99988.3
99989.3
99988.7
99987.2
99985.4
99983.7
99982.7
99982.8
99962.1
99972.7
99980.7
99986
99988.8
99989.5
99988.7
99987
99985.1
99983.5
99982.7
99982.8
99962.4
99973.3
99981.4
99986.6
99989.2
99989.7
99988.6
99986.7
99984.7
99983.2
99982.6
99982.8
99962.9
99974
99982.1
99987.2
99989.6
99989.8
99988.4
99986.3
99984.3
99983
99982.6
99982.8
99963.4
99974.8
99982.9
99987.8
99990
99989.8
99988.1
99985.8
99983.9
99982.8
99982.6
99982.9
99964.1
99975.7
99983.8
99988.6
99990.5
99989.9
99988
99985.5
99983.5
99982.6
99982.6
99982.9
99965
99976.9
99985
99989.5
99990.9
99989.7
99987.2
99984.7
99983.1
99982.5
99982.7
99983
100001
99996.5
99994.3
99993.5
99992.4
99990.4
99987.1
99982.3
99976.1
99968.6
99959.8
99951
100003
100001
99998.4
99997.3
99995.7
99993
99988.7
99982.8
99975.4
99966.9
99957.6
99948.5
100004
100002
100000
99998.9
99996.7
99993.2
99988.1
99981.4
99973.4
99964.6
99955.5
99946.8
100004
100003
100001
99998.9
99996.1
99991.8
99986.1
99979
99970.9
99962.3
99953.7
99945.7
100004
100002
100000
99998
99994.4
99989.6
99983.3
99976
99968.1
99960
99952.2
99945.3
100004
100001
99999.3
99996.3
99992.2
99986.7
99980.2
99972.9
99965.3
99957.9
99951.1
99945.2
100003
100000
99997.9
99994.3
99989.5
99983.6
99976.9
99969.7
99962.7
99956.1
99950.3
99945.4
100002
99999
99996.2
99992.1
99986.7
99980.4
99973.5
99966.6
99960.2
99954.5
99949.7
99945.8
100001
99997.8
99994.5
99989.7
99983.8
99977.2
99970.3
99963.7
99957.8
99953
99949.2
99946.3
100000
99996.5
99992.8
99987.5
99981.1
99974.2
99967.3
99961
99955.8
99951.7
99948.8
99946.7
99999.3
99995.6
99991.4
99985.5
99978.7
99971.6
99964.7
99958.7
99954.1
99950.7
99948.3
99946.9
99998.1
99993.4
99988.2
99981.6
99974.1
99966.7
99959.9
99954.3
99950.4
99948
99947
99946.8
99942.2
99934.8
99928.2
99922.3
99916.9
99912
99907.3
99902.7
99898.3
99893.6
99889.4
99880.1
99940
99932.9
99926.6
99921.1
99916.2
99911.6
99907.4
99903.2
99899.1
99894.4
99891
99882.1
99938.9
99932.3
99926.6
99921.6
99917
99912.9
99908.9
99904.9
99901.1
99896.4
99893.8
99884.7
99938.7
99932.8
99927.7
99923.2
99919
99915.1
99911.4
99907.5
99903.9
99899.1
99897.1
99887.6
99939.2
99934.1
99929.6
99925.6
99921.8
99918.1
99914.5
99910.6
99907.1
99902.2
99900.3
99890.6
99940.1
99935.8
99932
99928.4
99924.9
99921.4
99917.9
99914
99910.3
99905.3
99903.4
99893.8
99941.3
99937.8
99934.6
99931.5
99928.3
99924.9
99921.4
99917.4
99913.7
99908.5
99906.4
99897.1
99942.6
99939.9
99937.3
99934.6
99931.7
99928.5
99925
99920.9
99917
99911.7
99909.3
99900.4
99944
99941.9
99939.9
99937.7
99935.1
99932
99928.5
99924.3
99920.3
99914.8
99912.1
99903.7
99945.2
99943.8
99942.3
99940.5
99938.3
99935.4
99932
99927.8
99923.7
99918
99914.9
99906.9
99946.1
99945.4
99944.4
99942.9
99940.9
99938
99934.6
99930.2
99925.9
99920
99916.5
99909.1
99947
99947.1
99947
99946.2
99944.8
99942.5
99939.5
99935.3
99931.1
99924.7
99921
99912.8
99875.7
99871.5
99870.8
99871.8
99874.3
99878.7
99885.6
99895.3
99907.8
99922.3
99936.5
99949.7
99872.8
99871.6
99870.3
99871
99873.4
99877.7
99884.7
99894.5
99907
99921.4
99935.9
99949.4
99871.9
99871.3
99869.9
99870.4
99872.6
99876.8
99883.7
99893.6
99906.2
99920.7
99935.4
99949.2
99871
99870.9
99869.6
99869.9
99871.8
99876
99882.8
99892.7
99905.4
99920
99934.9
99949
99870.6
99870.5
99869.3
99869.4
99871.1
99875.1
99881.9
99891.8
99904.5
99919.3
99934.5
99949
99870.3
99870.3
99869.1
99868.9
99870.4
99874.1
99880.8
99890.8
99903.6
99918.6
99934.1
99948.9
99870.2
99870.1
99868.9
99868.5
99869.7
99873.2
99879.7
99889.7
99902.7
99917.9
99933.8
99948.9
99870.2
99870
99868.9
99868.2
99869
99872.2
99878.6
99888.5
99901.6
99917.1
99933.4
99948.9
99870.2
99870.1
99868.9
99868
99868.3
99871.2
99877.3
99887.1
99900.4
99916.3
99933
99949
99870.2
99870.1
99869.1
99867.8
99867.7
99870.1
99875.9
99885.6
99899.2
99915.4
99932.7
99949.1
99870.2
99870.3
99869.2
99867.7
99867.1
99869
99874.5
99884.1
99897.9
99914.7
99932.4
99949.4
99870.2
99870.4
99869.6
99868.1
99866.8
99867.6
99872
99881.3
99895.3
99912.8
99931.7
99949.7
99959.8
99968.4
99975.4
99980.7
99984.3
99986.3
99986.8
99986.2
99985
99983.5
99981.5
99979.6
99960.3
99969.4
99976.6
99982
99985.6
99987.4
99987.8
99987
99985.6
99983.8
99981.3
99981.9
99960.6
99970.1
99977.6
99983
99986.5
99988.2
99988.3
99987.4
99985.8
99983.9
99981.9
99982.5
99961
99970.8
99978.5
99983.9
99987.2
99988.7
99988.6
99987.5
99985.8
99983.9
99982.4
99982.7
99961.3
99971.5
99979.2
99984.6
99987.8
99989
99988.7
99987.4
99985.6
99983.9
99982.7
99982.8
99961.7
99972.1
99980
99985.3
99988.3
99989.3
99988.7
99987.2
99985.4
99983.7
99982.7
99982.8
99962
99972.7
99980.6
99985.9
99988.8
99989.5
99988.7
99987
99985.1
99983.5
99982.7
99982.8
99962.4
99973.3
99981.3
99986.6
99989.2
99989.6
99988.5
99986.7
99984.7
99983.2
99982.6
99982.8
99962.9
99974
99982.1
99987.2
99989.6
99989.7
99988.4
99986.3
99984.3
99982.9
99982.6
99982.8
99963.4
99974.7
99982.9
99987.8
99990
99989.8
99988.1
99985.8
99983.9
99982.7
99982.6
99982.9
99964.1
99975.6
99983.8
99988.6
99990.4
99989.9
99987.9
99985.5
99983.5
99982.6
99982.6
99982.9
99965
99976.9
99985
99989.5
99990.8
99989.7
99987.2
99984.7
99983
99982.5
99982.7
99983
100001
99996.5
99994.3
99993.5
99992.4
99990.4
99987.1
99982.3
99976.1
99968.6
99959.8
99951
100003
100001
99998.4
99997.3
99995.7
99992.9
99988.7
99982.8
99975.4
99966.9
99957.6
99948.5
100004
100002
100000
99998.9
99996.7
99993.2
99988.1
99981.4
99973.4
99964.6
99955.5
99946.8
100004
100002
100001
99998.9
99996.1
99991.8
99986.1
99979
99970.9
99962.3
99953.7
99945.8
100004
100002
100000
99998
99994.4
99989.5
99983.3
99976
99968.1
99960
99952.2
99945.3
100004
100001
99999.2
99996.3
99992.2
99986.7
99980.2
99972.9
99965.3
99957.9
99951.1
99945.2
100003
100000
99997.9
99994.3
99989.5
99983.6
99976.9
99969.7
99962.7
99956.1
99950.3
99945.4
100002
99999
99996.2
99992.1
99986.7
99980.4
99973.5
99966.6
99960.2
99954.5
99949.7
99945.8
100001
99997.7
99994.5
99989.7
99983.8
99977.2
99970.3
99963.7
99957.9
99953
99949.2
99946.3
100000
99996.5
99992.8
99987.5
99981.1
99974.2
99967.3
99961
99955.8
99951.7
99948.8
99946.7
99999.2
99995.6
99991.4
99985.5
99978.7
99971.6
99964.7
99958.7
99954.1
99950.7
99948.3
99946.9
99998.1
99993.4
99988.2
99981.6
99974.1
99966.7
99959.9
99954.4
99950.4
99948
99947
99946.8
99942.2
99934.8
99928.2
99922.3
99916.9
99912
99907.3
99902.7
99898.3
99893.6
99889.4
99880.1
99940
99932.9
99926.6
99921.1
99916.2
99911.6
99907.4
99903.2
99899.1
99894.4
99891
99882.1
99939
99932.3
99926.6
99921.6
99917
99912.9
99908.9
99904.9
99901.1
99896.4
99893.8
99884.7
99938.7
99932.8
99927.7
99923.2
99919
99915.1
99911.4
99907.5
99903.9
99899.1
99897
99887.6
99939.2
99934.1
99929.6
99925.5
99921.8
99918.1
99914.5
99910.6
99907.1
99902.2
99900.3
99890.6
99940.1
99935.8
99931.9
99928.4
99924.9
99921.4
99917.8
99914
99910.3
99905.3
99903.4
99893.8
99941.3
99937.8
99934.6
99931.5
99928.3
99924.9
99921.4
99917.4
99913.7
99908.5
99906.4
99897.1
99942.6
99939.9
99937.3
99934.6
99931.7
99928.5
99925
99920.9
99917
99911.7
99909.3
99900.4
99944
99941.9
99939.9
99937.7
99935.1
99932
99928.5
99924.3
99920.3
99914.8
99912.1
99903.6
99945.2
99943.8
99942.3
99940.5
99938.2
99935.3
99932
99927.8
99923.7
99917.9
99914.9
99906.9
99946.1
99945.4
99944.4
99942.9
99940.9
99938
99934.6
99930.2
99925.9
99920
99916.5
99909.1
99947
99947.1
99946.9
99946.2
99944.8
99942.5
99939.5
99935.3
99931.1
99924.7
99921
99912.8
99875.7
99871.5
99870.8
99871.8
99874.3
99878.7
99885.6
99895.4
99907.8
99922.3
99936.5
99949.7
99872.8
99871.6
99870.3
99871.1
99873.4
99877.8
99884.7
99894.5
99907
99921.4
99935.9
99949.4
99871.9
99871.3
99870
99870.5
99872.6
99876.9
99883.8
99893.6
99906.2
99920.7
99935.4
99949.2
99871.1
99870.9
99869.7
99869.9
99871.8
99876
99882.9
99892.7
99905.4
99920
99935
99949.1
99870.6
99870.6
99869.4
99869.4
99871.1
99875.1
99881.9
99891.8
99904.5
99919.3
99934.6
99949
99870.4
99870.3
99869.1
99869
99870.4
99874.2
99880.9
99890.8
99903.6
99918.6
99934.2
99948.9
99870.3
99870.1
99869
99868.6
99869.7
99873.2
99879.8
99889.7
99902.7
99917.9
99933.8
99948.9
99870.2
99870.1
99868.9
99868.2
99869
99872.2
99878.6
99888.5
99901.6
99917.1
99933.4
99948.9
99870.2
99870.1
99868.9
99868
99868.3
99871.2
99877.3
99887.1
99900.5
99916.3
99933
99949
99870.2
99870.2
99869.1
99867.8
99867.7
99870.1
99875.9
99885.7
99899.2
99915.4
99932.7
99949.2
99870.3
99870.3
99869.2
99867.7
99867.2
99869
99874.5
99884.2
99897.9
99914.8
99932.5
99949.4
99870.2
99870.5
99869.7
99868.1
99866.9
99867.6
99872.1
99881.4
99895.4
99912.8
99931.7
99949.7
)
;

boundaryField
{
    rotor
    {
        type            zeroGradient;
    }
    stator
    {
        type            zeroGradient;
    }
    front
    {
        type            empty;
    }
    back
    {
        type            empty;
    }
}


// ************************************************************************* //
