/*--------------------------------*- C++ -*----------------------------------*\
| =========                 |                                                 |
| \\      /  F ield         | OpenFOAM: The Open Source CFD Toolbox           |
|  \\    /   O peration     | Version:  2212                                  |
|   \\  /    A nd           | Website:  www.openfoam.com                      |
|    \\/     M anipulation  |                                                 |
\*---------------------------------------------------------------------------*/
FoamFile
{
    version     2.0;
    format      ascii;
    arch        "LSB;label=32;scalar=64";
    class       surfaceScalarField;
    location    "0.01";
    object      phi;
}
// * * * * * * * * * * * * * * * * * * * * * * * * * * * * * * * * * * * * * //

dimensions      [1 0 -1 0 0 0 0];

oriented        oriented;

internalField   nonuniform List<scalar> 
5952
(
8.09092e-05
-8.09041e-05
0.000142981
-6.20683e-05
0.000184725
-4.17407e-05
0.000187767
-3.03896e-06
0.000149242
3.85309e-05
7.76337e-05
7.16315e-05
-5.84924e-05
0.000136116
-0.00027429
0.000215798
-0.000458917
0.000184628
-0.000599754
0.000140839
-0.000709216
0.000109462
8.10183e-05
-0.000790233
4.888e-05
-0.000129778
5.58489e-05
-6.90305e-05
1.24877e-05
1.6314e-06
-7.47466e-05
8.42066e-05
-0.000208648
0.000172442
-0.000367364
0.00023036
-0.000493525
0.000262293
-0.000541305
0.000263596
-0.000581172
0.000224508
-0.000623253
0.000182932
-0.000661353
0.000147572
0.000109053
-0.000689378
-2.26472e-05
-0.000107121
-7.45393e-05
-1.71257e-05
-0.000168909
9.60171e-05
-0.000276957
0.000192275
-0.000367314
0.000262821
-0.000431639
0.000294704
-0.000469731
0.000300403
-0.00048593
0.000279812
-0.000501747
0.000240339
-0.00052028
0.000201478
-0.000535522
0.000162826
0.000122227
-0.000548684
-8.10637e-05
-2.60462e-05
-0.000154635
5.64625e-05
-0.0002271
0.0001685
-0.000290717
0.000255913
-0.000336395
0.000308519
-0.00036532
0.00032365
-0.000381212
0.000316314
-0.000389509
0.000288126
-0.00039783
0.000248676
-0.00040501
0.000208672
-0.000410278
0.000168107
0.000127175
-0.000415212
-7.75673e-05
5.15308e-05
-0.00014587
0.000124781
-0.000200011
0.000222658
-0.000237994
0.000293916
-0.000260554
0.000331099
-0.000272937
0.000336053
-0.000275906
0.000319302
-0.000275906
0.000288143
-0.000277294
0.00025008
-0.000279055
0.000210448
-0.000280918
0.000169985
0.00012909
-0.000282819
-6.43637e-05
0.000115904
-0.000114984
0.000175417
-0.000148958
0.000256648
-0.000166911
0.000311888
-0.000173815
0.000338022
-0.000172664
0.000334922
-0.000167654
0.00031431
-0.000162949
0.000283455
-0.000160005
0.000247153
-0.000158276
0.000208736
-0.000157371
0.000169094
0.000128616
-0.00015688
-4.57618e-05
0.000161673
-7.99676e-05
0.000209637
-9.4697e-05
0.000271393
-9.47767e-05
0.000311985
-8.61454e-05
0.000329409
-7.40908e-05
0.000322885
-6.25221e-05
0.000302759
-5.32028e-05
0.000274153
-4.6535e-05
0.000240502
-4.18964e-05
0.000204114
-3.86491e-05
0.000165864
0.000126161
-3.61781e-05
-3.51125e-05
0.000196794
-5.08344e-05
0.000225372
-4.63931e-05
0.000266967
-2.83666e-05
0.000293974
-4.51591e-06
0.000305575
1.81243e-05
0.000300261
3.70196e-05
0.00028388
5.14859e-05
0.000259704
6.19572e-05
0.000230048
6.94682e-05
0.00019662
7.50345e-05
0.000160314
0.000121676
7.95364e-05
-2.01413e-05
0.000216943
-2.47214e-05
0.000229966
-2.77837e-06
0.000245038
3.22677e-05
0.000258944
7.03849e-05
0.000267474
0.000103954
0.000266708
0.000130719
0.000257132
0.000150749
0.00023969
0.000165243
0.000215571
0.000175771
0.000186109
0.000183819
0.000152284
0.000114863
0.000190649
-3.04696e-05
0.000247423
-8.77348e-06
0.000208286
4.10613e-05
0.000195219
9.46425e-05
0.000205379
0.00014556
0.000216572
0.000188281
0.000224003
0.000221693
0.000223737
0.0002466
0.000214801
0.000264747
0.000197442
0.000278126
0.000172748
0.000288674
0.000141754
0.000105427
0.000298129
9.06983e-06
0.000238366
6.27058e-05
0.000154668
0.000129827
0.000128116
0.000191074
0.000144149
0.000243703
0.000163959
0.000286795
0.000180928
0.000320603
0.000189946
0.000346267
0.000189154
0.000365488
0.000178239
0.000380142
0.000158113
0.000392339
0.000129577
9.34686e-05
0.000404316
0.000191041
4.73387e-05
0.000271216
7.45115e-05
0.000325421
7.39284e-05
0.000365311
0.000104276
0.000396854
0.000132432
0.000422928
0.000154871
0.000444524
0.000168367
0.000462135
0.000171562
0.000476453
0.000163941
0.00048842
0.000146166
0.000499936
0.000118081
0.000513704
7.97212e-05
-0.000843583
5.33531e-05
-0.000874102
3.05228e-05
-0.000881094
6.99634e-06
-0.000867585
-1.35019e-05
-0.000832722
-3.48553e-05
-0.000775904
-5.68086e-05
-0.000694772
-8.11213e-05
-0.000587691
-0.000107069
-0.000452455
-0.000135223
-0.000289112
-0.000163329
-0.000117031
-0.000172067
-0.000117017
-0.000709669
7.36518e-05
-0.000719707
4.05703e-05
-0.000721285
8.58366e-06
-0.000712346
-2.2431e-05
-0.000691986
-5.52043e-05
-0.000657908
-9.08744e-05
-0.000608857
-0.000130159
-0.00054227
-0.000173642
-0.000455293
-0.000222186
-0.000345483
-0.000273125
-0.00020454
-0.000312996
-0.000321544
-0.000558372
8.33501e-05
-0.000563535
4.57446e-05
-0.000563134
8.19376e-06
-0.000554921
-3.06325e-05
-0.000537949
-7.21635e-05
-0.000511228
-0.000117583
-0.00047357
-0.000167803
-0.000423586
-0.000223612
-0.00035954
-0.000286218
-0.000276669
-0.000355982
-0.000164958
-0.000424693
-0.000486491
-0.000418815
8.69655e-05
-0.000419718
4.66608e-05
-0.000416848
5.33629e-06
-0.00040932
-3.81471e-05
-0.00039646
-8.50097e-05
-0.000377466
-0.000136564
-0.00035129
-0.000193965
-0.000317125
-0.000257763
-0.000273083
-0.000330246
-0.000214618
-0.000414433
-0.000130163
-0.000509134
-0.000616643
-0.000283859
8.80198e-05
-0.000283335
4.615e-05
-0.000280635
2.65111e-06
-0.000275271
-4.34972e-05
-0.000266835
-9.34318e-05
-0.00025488
-0.000148504
-0.000238805
-0.000210025
-0.000217672
-0.000278882
-0.000189642
-0.000358262
-0.000152534
-0.000451527
-9.47481e-05
-0.000566907
-0.000711379
-0.000156178
8.73331e-05
-0.000154821
4.48075e-05
-0.000152478
3.23432e-07
-0.000148909
-4.70516e-05
-0.000143927
-9.83993e-05
-0.000137521
-0.000154895
-0.000129798
-0.000217733
-0.000120304
-0.00028836
-0.000108696
-0.000369855
-9.31352e-05
-0.000467073
-6.48282e-05
-0.0005952
-0.000776194
-3.39201e-05
8.50911e-05
-3.15838e-05
4.2487e-05
-2.90422e-05
-2.20256e-06
-2.62836e-05
-4.97949e-05
-2.34461e-05
-0.000101222
-2.09299e-05
-0.000157396
-1.93703e-05
-0.000219278
-1.93565e-05
-0.000288359
-2.14512e-05
-0.000367745
-2.51281e-05
-0.00046338
-2.65914e-05
-0.000593721
-0.000802771
8.36499e-05
8.09942e-05
8.76001e-05
3.85531e-05
9.13987e-05
-5.98509e-06
9.48744e-05
-5.32549e-05
9.7557e-05
-0.000103889
9.84949e-05
-0.000158319
9.61973e-05
-0.000216965
8.87811e-05
-0.000280927
7.39576e-05
-0.000352906
5.0072e-05
-0.000439478
1.86203e-05
-0.000562251
-0.000784131
0.000197227
7.44334e-05
0.000203772
3.20251e-05
0.000210291
-1.24875e-05
0.000216487
-5.94351e-05
0.000221543
-0.000108929
0.000223881
-0.000160642
0.000220989
-0.000214057
0.000209542
-0.000269465
0.000185018
-0.000328365
0.000142519
-0.000396961
7.87844e-05
-0.000498496
-0.000705324
0.000307917
6.46635e-05
0.000318248
2.17108e-05
0.000329258
-2.34809e-05
0.000340532
-7.0693e-05
0.000350824
-0.000119206
0.000357846
-0.000167649
0.000358001
-0.000214196
0.000346538
-0.000257988
0.00031649
-0.0002983
0.000259681
-0.000340134
0.000162979
-0.000401772
-0.000542316
0.000418034
5.09642e-05
0.000433498
6.2649e-06
0.000451066
-4.10326e-05
0.000469991
-8.96018e-05
0.000488364
-0.000137565
0.000503096
-0.000182367
0.00050965
-0.000220737
0.000502321
-0.000250643
0.000472218
-0.000268182
0.000409326
-0.000277223
0.000286469
-0.000278892
-0.000255815
0.000532034
3.26529e-05
0.00055419
-1.5873e-05
0.000580619
-6.74451e-05
0.000609537
-0.000118505
0.00063803
-0.000166044
0.000662138
-0.000206462
0.00067679
-0.000235376
0.000676143
-0.000249984
0.000651613
-0.000243638
0.000590127
-0.000215721
0.000447164
-0.000135907
0.000191382
8.09426e-05
-8.09374e-05
0.000143034
-6.20883e-05
0.000184783
-4.17448e-05
0.000187807
-3.02153e-06
0.000149254
3.85592e-05
7.75914e-05
7.16856e-05
-5.86955e-05
0.000136277
-0.000274593
0.000215898
-0.00045922
0.000184627
-0.00060008
0.000140862
-0.000709543
0.000109464
8.10262e-05
-0.000790568
4.88889e-05
-0.000129821
5.58441e-05
-6.90368e-05
1.24425e-05
1.66763e-06
-7.48581e-05
8.42903e-05
-0.000208844
0.000172555
-0.000367618
0.000230472
-0.000493741
0.000262416
-0.00054149
0.000263664
-0.000581389
0.00022454
-0.000623482
0.000182967
-0.000661599
0.000147589
0.000109064
-0.000689628
-2.26548e-05
-0.000107156
-7.45699e-05
-1.71091e-05
-0.000168983
9.60972e-05
-0.000277079
0.000192407
-0.000367464
0.00026296
-0.000431802
0.000294829
-0.000469883
0.000300516
-0.000486089
0.000279887
-0.000501926
0.000240392
-0.000520469
0.000201523
-0.000535719
0.000162852
0.00012224
-0.000548884
-8.10837e-05
-2.6061e-05
-0.000154679
5.65031e-05
-0.00022717
0.000168606
-0.000290808
0.000256066
-0.000336499
0.000308672
-0.000365435
0.000323786
-0.000381333
0.000316433
-0.000389639
0.000288211
-0.000397971
0.000248739
-0.000405154
0.00020872
-0.000410425
0.000168137
0.000127191
-0.000415363
-7.75843e-05
5.15329e-05
-0.000145904
0.000124839
-0.000200056
0.000222776
-0.000238045
0.000294074
-0.000260616
0.000331263
-0.000273011
0.000336201
-0.000275984
0.000319425
-0.000275993
0.000288238
-0.000277391
0.000250152
-0.000279157
0.000210502
-0.000281024
0.000170019
0.000129109
-0.000282928
-6.43751e-05
0.000115917
-0.000115003
0.000175481
-0.000148979
0.000256769
-0.000166933
0.000312047
-0.000173841
0.000338189
-0.000172696
0.000335074
-0.000167692
0.00031444
-0.000162996
0.000283559
-0.00016006
0.000247233
-0.000158337
0.000208795
-0.000157436
0.000169134
0.000128637
-0.000156948
-4.57612e-05
0.000161686
-7.99627e-05
0.000209697
-9.46846e-05
0.000271507
-9.47611e-05
0.00031214
-8.613e-05
0.000329576
-7.40798e-05
0.000323041
-6.25184e-05
0.000302896
-5.32083e-05
0.000274266
-4.6549e-05
0.000240591
-4.19171e-05
0.00020418
-3.86749e-05
0.000165908
0.000126185
-3.62069e-05
-3.51015e-05
0.000196796
-5.08121e-05
0.000225421
-4.6356e-05
0.000267065
-2.83172e-05
0.000294118
-4.4626e-06
0.000305738
1.81744e-05
0.000300421
3.70623e-05
0.000284025
5.15192e-05
0.000259826
6.19814e-05
0.000230146
6.94847e-05
0.000196693
7.50451e-05
0.000160364
0.000121704
7.95432e-05
-2.01252e-05
0.000216928
-2.46877e-05
0.000229997
-2.72567e-06
0.000245118
3.23376e-05
0.00025907
7.04636e-05
0.000267628
0.000104033
0.000266868
0.000130793
0.000257282
0.000150814
0.000239821
0.000165298
0.000215678
0.000175818
0.000186191
0.00018386
0.00015234
0.000114895
0.000190686
-3.045e-05
0.000247389
-8.74368e-06
0.000208307
4.11071e-05
0.000195283
9.47065e-05
0.000205487
0.000145638
0.000216713
0.000188365
0.000224157
0.000221777
0.000223887
0.000246679
0.000214936
0.00026482
0.000197556
0.000278192
0.000172836
0.000288736
0.000141815
0.000105462
0.000298187
9.06022e-06
0.000238342
6.26973e-05
0.000154688
0.000129827
0.000128171
0.00019109
0.000144241
0.000243739
0.000164081
0.000286846
0.000181066
0.000320664
0.000190086
0.000346333
0.000189285
0.000365556
0.000178352
0.000380208
0.000158203
0.000392403
0.00012964
9.35046e-05
0.00040438
0.000190991
4.73644e-05
0.00027115
7.45476e-05
0.000325356
7.39821e-05
0.000365258
0.000104356
0.00039682
0.000132535
0.000422915
0.000154988
0.00044453
0.000168488
0.000462156
0.000171677
0.000476485
0.000164042
0.000488461
0.000146247
0.000499983
0.000118138
0.000513758
7.97503e-05
-0.000843912
5.33473e-05
-0.000874427
3.05184e-05
-0.000881405
6.98293e-06
-0.000867883
-1.35156e-05
-0.000833
-3.48749e-05
-0.000776159
-5.68314e-05
-0.000694999
-8.11497e-05
-0.000587885
-0.000107102
-0.000452611
-0.000135261
-0.000289223
-0.000163374
-0.00011709
-0.000172119
-0.000117076
-0.000709924
7.36517e-05
-0.00071996
4.0564e-05
-0.000721536
8.56844e-06
-0.000712589
-2.24532e-05
-0.000692216
-5.5236e-05
-0.000658121
-9.09151e-05
-0.000609048
-0.00013021
-0.000542435
-0.000173701
-0.000455427
-0.000222255
-0.000345581
-0.000273205
-0.0002046
-0.000313086
-0.000321663
-0.000558573
8.33516e-05
-0.000563734
4.57356e-05
-0.000563328
8.17365e-06
-0.000555105
-3.06637e-05
-0.000538122
-7.22068e-05
-0.000511385
-0.000117638
-0.000473711
-0.000167871
-0.000423704
-0.000223694
-0.000359631
-0.000286313
-0.00027673
-0.000356093
-0.000164986
-0.000424816
-0.000486637
-0.000418966
8.69679e-05
-0.000419868
4.665e-05
-0.000416994
5.31215e-06
-0.000409459
-3.81849e-05
-0.000396591
-8.50615e-05
-0.000377585
-0.000136631
-0.000351397
-0.000194046
-0.000317216
-0.00025786
-0.000273156
-0.00033036
-0.000214672
-0.000414563
-0.000130196
-0.000509279
-0.000616822
-0.000283968
8.80227e-05
-0.000283442
4.61378e-05
-0.00028074
2.62382e-06
-0.000275371
-4.35398e-05
-0.000266928
-9.34901e-05
-0.000254965
-0.000148579
-0.00023888
-0.000210116
-0.000217736
-0.000278991
-0.000189692
-0.000358389
-0.000152569
-0.000451672
-9.4763e-05
-0.000567072
-0.000711573
-0.000156247
8.73369e-05
-0.000154889
4.47946e-05
-0.000152544
2.94102e-07
-0.000148971
-4.70975e-05
-0.000143985
-9.8462e-05
-0.000137574
-0.000154976
-0.000129844
-0.000217831
-0.000120343
-0.000288477
-0.000108726
-0.00036999
-9.31568e-05
-0.000467226
-6.484e-05
-0.000595374
-0.0007764
-3.39504e-05
8.50964e-05
-3.16144e-05
4.24743e-05
-2.90718e-05
-2.23284e-06
-2.63112e-05
-4.98427e-05
-2.3471e-05
-0.000101287
-2.09514e-05
-0.00015748
-1.93875e-05
-0.00021938
-1.93689e-05
-0.00028848
-2.14584e-05
-0.000367886
-2.51306e-05
-0.000463538
-2.65906e-05
-0.000593898
-0.000802976
8.36544e-05
8.10017e-05
8.76037e-05
3.85414e-05
9.14022e-05
-6.01538e-06
9.48789e-05
-5.33037e-05
9.75632e-05
-0.000103956
9.85033e-05
-0.000158405
9.62083e-05
-0.000217069
8.87945e-05
-0.000281051
7.39724e-05
-0.000353047
5.00857e-05
-0.000439635
1.86293e-05
-0.000562424
-0.000784327
0.000197262
7.44435e-05
0.000203805
3.20149e-05
0.000210323
-1.25174e-05
0.00021652
-5.94849e-05
0.000221578
-0.000108998
0.000223918
-0.00016073
0.000221028
-0.000214164
0.000209584
-0.000269591
0.000185059
-0.000328506
0.000142555
-0.000397113
7.88081e-05
-0.000498657
-0.000705496
0.000307972
6.46757e-05
0.000318303
2.17016e-05
0.000329313
-2.35114e-05
0.00034059
-7.07452e-05
0.000350885
-0.000119278
0.000357912
-0.000167742
0.00035807
-0.000214307
0.00034661
-0.000258115
0.000316559
-0.000298439
0.000259741
-0.000340277
0.00016302
-0.000401914
-0.000542447
0.000418099
5.09757e-05
0.000433564
6.25416e-06
0.000451136
-4.10667e-05
0.000470067
-8.966e-05
0.000488447
-0.000137644
0.000503188
-0.000182468
0.00050975
-0.000220855
0.000502425
-0.000250775
0.000472321
-0.000268319
0.000409416
-0.000277354
0.000286533
-0.000279007
-0.000255882
0.000532095
3.2658e-05
0.000554259
-1.58914e-05
0.000580697
-6.7489e-05
0.000609627
-0.000118575
0.000638134
-0.000166137
0.000662256
-0.000206578
0.000676921
-0.000235508
0.000676283
-0.000250124
0.000651753
-0.000243775
0.000590255
-0.00021584
0.000447258
-0.000135988
0.000191409
8.0931e-05
-8.09259e-05
0.000143016
-6.20808e-05
0.000184762
-4.17437e-05
0.000187793
-3.02822e-06
0.000149251
3.85487e-05
7.76088e-05
7.16654e-05
-5.86167e-05
0.000136215
-0.00027448
0.000215863
-0.000459112
0.000184632
-0.000599967
0.000140857
-0.000709433
0.000109467
8.10258e-05
-0.000790457
4.88867e-05
-0.000129807
5.58476e-05
-6.9035e-05
1.24609e-05
1.65388e-06
-7.48151e-05
8.42591e-05
-0.00020877
0.000172514
-0.000367526
0.000230433
-0.000493667
0.000262373
-0.00054143
0.000263644
-0.000581318
0.000224533
-0.000623408
0.000182958
-0.000661519
0.000147587
0.000109064
-0.000689548
-2.26524e-05
-0.000107145
-7.45599e-05
-1.71149e-05
-0.000168958
9.60687e-05
-0.000277039
0.00019236
-0.000367415
0.000262911
-0.000431749
0.000294787
-0.000469836
0.000300479
-0.00048604
0.000279865
-0.00050187
0.000240377
-0.000520409
0.000201511
-0.000535656
0.000162847
0.000122239
-0.000548821
-8.10784e-05
-2.60549e-05
-0.000154667
5.64906e-05
-0.00022715
0.00016857
-0.000290782
0.000256012
-0.000336469
0.000308619
-0.000365402
0.00032374
-0.000381298
0.000316394
-0.0003896
0.000288185
-0.000397928
0.000248721
-0.000405109
0.000208707
-0.000410379
0.00016813
0.000127189
-0.000415316
-7.75811e-05
5.15358e-05
-0.000145897
0.000124823
-0.000200047
0.000222738
-0.000238035
0.000294021
-0.000260603
0.000331207
-0.000272994
0.000336151
-0.000275965
0.000319384
-0.00027597
0.000288208
-0.000277364
0.00025013
-0.000279127
0.000210486
-0.000280993
0.000170011
0.000129106
-0.000282896
-6.43748e-05
0.00011592
-0.000115002
0.000175465
-0.00014898
0.000256732
-0.000166935
0.000311994
-0.000173842
0.000338132
-0.000172695
0.000335022
-0.000167688
0.000314396
-0.000162988
0.000283524
-0.000160048
0.000247207
-0.000158323
0.000208777
-0.00015742
0.000169123
0.000128633
-0.000156931
-4.57651e-05
0.000161693
-7.99712e-05
0.000209686
-9.46983e-05
0.000271475
-9.47774e-05
0.00031209
-8.61468e-05
0.00032952
-7.40949e-05
0.000322988
-6.25304e-05
0.000302849
-5.32164e-05
0.000274227
-4.65534e-05
0.000240561
-4.19186e-05
0.000204159
-3.86742e-05
0.000165895
0.00012618
-3.62051e-05
-3.51096e-05
0.000196811
-5.08272e-05
0.000225417
-4.63789e-05
0.000267041
-2.83463e-05
0.000294074
-4.49399e-06
0.000305684
1.8144e-05
0.000300367
3.70348e-05
0.000283975
5.14955e-05
0.000259784
6.19615e-05
0.000230112
6.9468e-05
0.000196669
7.50308e-05
0.000160349
0.000121698
7.95304e-05
-2.01355e-05
0.000216953
-2.47075e-05
0.000230002
-2.75507e-06
0.000245103
3.23001e-05
0.000259034
7.04219e-05
0.000267578
0.000103991
0.000266814
0.000130753
0.00025723
0.000150778
0.000239776
0.000165266
0.000215641
0.000175789
0.000186163
0.000183833
0.000152323
0.000114887
0.000190661
-3.04646e-05
0.000247428
-8.76558e-06
0.000208319
4.10778e-05
0.000195275
9.46698e-05
0.000205458
0.000145596
0.000216668
0.000188321
0.000224104
0.000221733
0.000223835
0.000246637
0.000214888
0.00026478
0.000197516
0.000278155
0.000172806
0.0002887
0.000141796
0.000105453
0.000298153
9.05639e-06
0.000238385
6.26892e-05
0.000154705
0.000129817
0.000128165
0.000191075
0.000144217
0.000243717
0.000164043
0.000286819
0.000181019
0.000320633
0.000190038
0.000346299
0.00018924
0.000365521
0.000178313
0.000380173
0.000158173
0.000392368
0.00012962
9.34952e-05
0.000404345
0.000191027
4.73713e-05
0.000271191
7.45592e-05
0.000325397
7.39762e-05
0.000365293
0.000104338
0.000396845
0.000132507
0.000422928
0.000154953
0.000444533
0.00016845
0.00046215
0.000171641
0.000476472
0.000164011
0.000488442
0.000146224
0.00049996
0.000118123
0.00051373
7.97449e-05
-0.000843806
5.33518e-05
-0.000874325
3.05218e-05
-0.000881309
6.98936e-06
-0.000867793
-1.35096e-05
-0.000832918
-3.48672e-05
-0.000776085
-5.68231e-05
-0.000694934
-8.114e-05
-0.000587831
-0.000107091
-0.000452568
-0.00013525
-0.000289193
-0.000163361
-0.000117074
-0.000172105
-0.00011706
-0.000709843
7.36551e-05
-0.000719881
4.05691e-05
-0.000721459
8.5764e-06
-0.000712515
-2.24433e-05
-0.000692148
-5.52232e-05
-0.000658059
-9.09001e-05
-0.000608994
-0.000130192
-0.000542389
-0.000173682
-0.00045539
-0.000222234
-0.000345555
-0.000273182
-0.000204584
-0.000313061
-0.000321631
-0.00055851
8.33548e-05
-0.000563672
4.57423e-05
-0.000563268
8.18398e-06
-0.00055505
-3.06499e-05
-0.000538071
-7.21894e-05
-0.00051134
-0.000117618
-0.000473672
-0.000167847
-0.000423673
-0.000223668
-0.000359608
-0.000286285
-0.000276715
-0.000356061
-0.00016498
-0.000424783
-0.000486599
-0.000418919
8.6971e-05
-0.000419822
4.66578e-05
-0.00041695
5.32454e-06
-0.000409418
-3.8168e-05
-0.000396554
-8.50403e-05
-0.000377553
-0.000136605
-0.000351369
-0.000194017
-0.000317194
-0.000257829
-0.00027314
-0.000330325
-0.000214661
-0.000414526
-0.000130189
-0.000509241
-0.000616777
-0.000283936
8.80259e-05
-0.000283411
4.61466e-05
-0.00028071
2.63802e-06
-0.000275344
-4.35203e-05
-0.000266904
-9.34658e-05
-0.000254945
-0.00014855
-0.000238864
-0.000210084
-0.000217724
-0.000278955
-0.000189684
-0.00035835
-0.000152565
-0.000451632
-9.47623e-05
-0.00056703
-0.000711527
-0.00015623
8.73399e-05
-0.000154872
4.4804e-05
-0.000152529
3.09755e-07
-0.000148958
-4.7076e-05
-0.000143974
-9.84351e-05
-0.000137566
-0.000154944
-0.000129839
-0.000217796
-0.00012034
-0.000288438
-0.000108726
-0.00036995
-9.31575e-05
-0.000467185
-6.4841e-05
-0.000595333
-0.000776356
-3.39482e-05
8.5099e-05
-3.16124e-05
4.24841e-05
-2.9071e-05
-2.21612e-06
-2.6312e-05
-4.98195e-05
-2.34738e-05
-0.000101258
-2.09563e-05
-0.000157446
-1.93943e-05
-0.000219343
-1.9377e-05
-0.000288441
-2.1467e-05
-0.000367845
-2.51385e-05
-0.000463498
-2.65963e-05
-0.000593859
-0.000802937
8.36424e-05
8.10036e-05
8.75917e-05
3.85512e-05
9.13895e-05
-5.99793e-06
9.48648e-05
-5.32792e-05
9.75475e-05
-0.000103925
9.8486e-05
-0.00015837
9.61898e-05
-0.000217031
8.87759e-05
-0.000281011
7.39549e-05
-0.000353008
5.00715e-05
-0.000439598
1.86204e-05
-0.00056239
-0.000784297
0.000197237
7.44445e-05
0.000203781
3.20245e-05
0.000210299
-1.24993e-05
0.000216494
-5.94589e-05
0.00022155
-0.000108966
0.000223889
-0.000160693
0.000220998
-0.000214125
0.000209554
-0.000269551
0.000185032
-0.000328469
0.000142533
-0.000397081
7.87946e-05
-0.000498632
-0.000705479
0.000307939
6.4676e-05
0.00031827
2.17112e-05
0.000329279
-2.34922e-05
0.000340553
-7.07173e-05
0.000350847
-0.000119244
0.000357872
-0.000167704
0.000358029
-0.000214268
0.00034657
-0.000258076
0.000316522
-0.000298405
0.000259711
-0.000340251
0.000163001
-0.000401899
-0.00054245
0.000418063
5.09767e-05
0.000433527
6.26518e-06
0.000451096
-4.1045e-05
0.000470024
-8.9629e-05
0.000488402
-0.000137607
0.000503139
-0.000182427
0.0005097
-0.000220814
0.000502376
-0.000250737
0.000472275
-0.000268288
0.000409378
-0.000277336
0.000286507
-0.000279005
-0.000255911
0.000532063
3.26627e-05
0.000554223
-1.5876e-05
0.000580656
-6.74623e-05
0.000609582
-0.000118539
0.000638084
-0.000166096
0.000662203
-0.000206533
0.000676865
-0.000235464
0.000676226
-0.000250086
0.000651699
-0.000243748
0.000590209
-0.000215829
0.000447226
-0.000135999
0.000191348
8.09111e-05
-8.0906e-05
0.000142992
-6.20769e-05
0.000184732
-4.17369e-05
0.00018775
-3.01541e-06
0.000149213
3.85429e-05
7.75904e-05
7.16461e-05
-5.86013e-05
0.000136182
-0.000274413
0.000215812
-0.000459007
0.000184594
-0.000599833
0.000140828
-0.000709277
0.000109445
8.10106e-05
-0.000790287
4.88623e-05
-0.000129763
5.57996e-05
-6.90076e-05
1.24089e-05
1.66476e-06
-7.48514e-05
8.42561e-05
-0.000208776
0.000172478
-0.000367485
0.000230366
-0.000493585
0.000262298
-0.00054133
0.000263575
-0.0005812
0.000224478
-0.000623276
0.000182915
-0.000661375
0.000147554
0.000109041
-0.000689396
-2.26748e-05
-0.000107078
-7.45993e-05
-1.70704e-05
-0.000168984
9.60658e-05
-0.00027702
0.000192312
-0.000367353
0.000262832
-0.000431662
0.000294695
-0.000469735
0.000300389
-0.000485933
0.000279789
-0.000501755
0.000240315
-0.000520287
0.00020146
-0.00053553
0.000162809
0.000122213
-0.000548692
-8.10785e-05
-2.59883e-05
-0.000154654
5.65218e-05
-0.000227117
0.000168547
-0.000290725
0.000255941
-0.000336393
0.000308521
-0.000365316
0.000323637
-0.000381204
0.000316297
-0.000389501
0.000288104
-0.000397825
0.000248655
-0.000405005
0.000208655
-0.000410275
0.000168092
0.000127163
-0.000415211
-7.75721e-05
5.15935e-05
-0.000145873
0.000124839
-0.000200007
0.000222698
-0.000237981
0.000293935
-0.000260538
0.000331098
-0.000272921
0.00033604
-0.000275888
0.000319284
-0.000275891
0.000288124
-0.000277283
0.000250062
-0.000279046
0.000210433
-0.000280912
0.000169972
0.000129081
-0.000282815
-6.43643e-05
0.000115967
-0.00011498
0.000175469
-0.000148945
0.000256681
-0.000166892
0.0003119
-0.000173793
0.000338018
-0.000172643
0.000334908
-0.000167634
0.000314294
-0.000162932
0.000283439
-0.000159991
0.000247138
-0.000158264
0.000208723
-0.000157361
0.000169084
0.000128608
-0.000156873
-4.57586e-05
0.000161733
-7.99578e-05
0.000209683
-9.468e-05
0.000271419
-9.47551e-05
0.000311992
-8.61219e-05
0.000329402
-7.40682e-05
0.000322872
-6.25012e-05
0.000302745
-5.31843e-05
0.000274139
-4.65189e-05
0.00024049
-4.18824e-05
0.000204103
-3.86371e-05
0.000165855
0.000126155
-3.61679e-05
-3.51056e-05
0.000196847
-5.08206e-05
0.000225412
-4.63733e-05
0.000266986
-2.83439e-05
0.000293979
-4.49312e-06
0.000305568
1.81459e-05
0.00030025
3.70398e-05
0.000283868
5.15043e-05
0.000259691
6.19737e-05
0.000230037
6.94831e-05
0.000196611
7.50477e-05
0.000160308
0.000121671
7.95481e-05
-2.01333e-05
0.000216988
-2.47039e-05
0.000229995
-2.75624e-06
0.000245053
3.22907e-05
0.000258947
7.04067e-05
0.000267468
0.000103974
0.000266699
0.000130738
0.00025712
0.000150767
0.000239679
0.000165259
0.000215562
0.000175786
0.000186101
0.000183833
0.000152278
0.00011486
0.000190662
-3.04546e-05
0.000247453
-8.75187e-06
0.000208309
4.10858e-05
0.000195231
9.46665e-05
0.000205382
0.000145582
0.000216568
0.000188302
0.000223995
0.000221712
0.000223727
0.000246617
0.000214791
0.000264763
0.000197434
0.000278141
0.000172741
0.000288689
0.000141749
0.000105424
0.000298142
9.0816e-06
0.000238384
6.27259e-05
0.000154683
0.000129852
0.000128123
0.0001911
0.000144152
0.000243729
0.000163957
0.000286818
0.000180922
0.000320624
0.000189938
0.000346287
0.000189146
0.000365507
0.000178232
0.000380159
0.000158108
0.000392355
0.000129573
9.34672e-05
0.000404331
0.000191068
4.73297e-05
0.000271252
7.45172e-05
0.000325461
7.39313e-05
0.000365351
0.000104278
0.000396892
0.000132433
0.000422962
0.000154869
0.000444554
0.000168363
0.000462161
0.000171558
0.000476476
0.000163937
0.000488441
0.000146163
0.000499954
0.00011808
0.00051372
7.97216e-05
-0.000843627
5.33432e-05
-0.000874141
3.05171e-05
-0.000881125
6.98958e-06
-0.000867612
-1.35067e-05
-0.000832744
-3.48604e-05
-0.000775921
-5.6813e-05
-0.000694785
-8.11255e-05
-0.0005877
-0.000107072
-0.000452461
-0.000135226
-0.000289116
-0.000163331
-0.000117034
-0.000172068
-0.00011702
-0.000709685
7.36407e-05
-0.000719721
4.05621e-05
-0.000721298
8.57638e-06
-0.000712358
-2.24369e-05
-0.000691997
-5.521e-05
-0.000657918
-9.08797e-05
-0.000608867
-0.000130164
-0.000542279
-0.000173647
-0.000455301
-0.00022219
-0.000345488
-0.000273129
-0.000204542
-0.000313
-0.000321549
-0.000558379
8.33393e-05
-0.000563543
4.57361e-05
-0.000563142
8.1867e-06
-0.000554928
-3.06384e-05
-0.000537957
-7.21689e-05
-0.000511235
-0.000117588
-0.000473578
-0.000167808
-0.000423593
-0.000223618
-0.000359546
-0.000286223
-0.000276673
-0.000355988
-0.00016496
-0.000424699
-0.000486497
-0.000418815
8.69562e-05
-0.00041972
4.66535e-05
-0.000416851
5.33029e-06
-0.000409324
-3.81523e-05
-0.000396465
-8.50145e-05
-0.00037747
-0.000136569
-0.000351295
-0.00019397
-0.00031713
-0.000257769
-0.000273087
-0.000330252
-0.000214621
-0.00041444
-0.000130165
-0.000509142
-0.000616651
-0.000283857
8.80122e-05
-0.000283333
4.61441e-05
-0.000280635
2.64628e-06
-0.000275272
-4.35014e-05
-0.000266836
-9.3436e-05
-0.000254882
-0.000148508
-0.000238807
-0.00021003
-0.000217675
-0.000278887
-0.000189645
-0.000358268
-0.000152536
-0.000451534
-9.4749e-05
-0.000566916
-0.000711388
-0.000156172
8.73272e-05
-0.000154816
4.48031e-05
-0.000152475
3.19935e-07
-0.000148907
-4.70547e-05
-0.000143925
-9.84024e-05
-0.00013752
-0.000154899
-0.000129798
-0.000217737
-0.000120306
-0.000288365
-0.000108698
-0.000369861
-9.31368e-05
-0.00046708
-6.48292e-05
-0.000595209
-0.000776205
-3.39116e-05
8.50869e-05
-3.15769e-05
4.24842e-05
-2.90369e-05
-2.20454e-06
-2.62796e-05
-4.97966e-05
-2.34435e-05
-0.000101223
-2.09284e-05
-0.000157399
-1.93699e-05
-0.000219281
-1.9357e-05
-0.000288363
-2.14523e-05
-0.00036775
-2.51296e-05
-0.000463387
-2.65923e-05
-0.000593731
-0.000802782
8.36601e-05
8.09916e-05
8.76087e-05
3.85519e-05
9.14055e-05
-5.98535e-06
9.48795e-05
-5.32548e-05
9.75604e-05
-0.000103889
9.84967e-05
-0.00015832
9.61978e-05
-0.000216966
8.87805e-05
-0.00028093
7.39561e-05
-0.00035291
5.00702e-05
-0.000439485
1.86188e-05
-0.000562262
-0.000784144
0.000197239
7.44321e-05
0.000203782
3.20255e-05
0.000210299
-1.24858e-05
0.000216493
-5.94328e-05
0.000221546
-0.000108927
0.000223882
-0.00016064
0.000220988
-0.000214057
0.000209541
-0.000269467
0.000185016
-0.000328368
0.000142517
-0.000396968
7.87823e-05
-0.000498507
-0.000705339
0.000307929
6.46635e-05
0.000318259
2.17129e-05
0.000329266
-2.34769e-05
0.000340538
-7.06881e-05
0.000350827
-0.000119201
0.000357846
-0.000167645
0.000357998
-0.000214194
0.000346534
-0.000257987
0.000316485
-0.000298302
0.000259676
-0.000340141
0.000162976
-0.000401784
-0.000542334
0.000418048
5.09656e-05
0.000433509
6.26917e-06
0.000451075
-4.10258e-05
0.000469996
-8.95934e-05
0.000488365
-0.000137556
0.000503094
-0.000182359
0.000509645
-0.000220731
0.000502312
-0.00025064
0.00047221
-0.000268184
0.000409318
-0.000277231
0.000286463
-0.000278905
-0.000255839
0.000532049
3.26564e-05
0.000554202
-1.58659e-05
0.000580627
-6.74346e-05
0.000609541
-0.000118492
0.000638029
-0.000166031
0.000662132
-0.00020645
0.000676779
-0.000235366
0.000676129
-0.000249977
0.000651599
-0.000243639
0.000590116
-0.000215732
0.000447157
-0.000135924
0.000191351
0.000764241
0.000114813
-0.000831701
0.000723126
0.000115646
0.000673602
0.000123471
0.000639906
0.00013799
0.000619046
0.000153309
0.00060811
0.000165823
0.000603741
0.000172754
0.000603349
0.000171973
0.00060558
0.00016173
0.000609779
0.000141987
0.000617666
0.000110215
6.48129e-05
0.000632596
0.000983588
0.000129865
-0.000998628
0.000949503
0.000149746
0.000906782
0.000166209
0.000864986
0.000179805
0.000828463
0.000189851
0.000798794
0.000195512
0.000776046
0.000195523
0.000759845
0.000188195
0.000749731
0.000171866
0.000745437
0.000146302
0.000750204
0.000105471
4.66279e-05
0.000768411
0.00109745
0.000140898
-0.00110847
0.00107729
0.000169918
0.00105051
0.000193001
0.00102036
0.000209968
0.000989545
0.000220692
0.000960315
0.000224766
0.000934393
0.000221468
0.000913571
0.00020904
0.000899352
0.000186109
0.000894298
0.00015138
0.000904563
9.52313e-05
1.9549e-05
0.000931664
0.00117416
-0.00118508
0.000151827
0.00116114
0.000182943
0.00114509
0.000209066
0.00112667
0.000228406
0.00110726
0.000240123
0.00108857
0.000243488
0.00107253
0.000237531
0.00106131
0.000220286
0.00105851
0.000188939