/*--------------------------------*- C++ -*----------------------------------*\
| =========                 |                                                 |
| \\      /  F ield         | OpenFOAM: The Open Source CFD Toolbox           |
|  \\    /   O peration     | Version:  2212                                  |
|   \\  /    A nd           | Website:  www.openfoam.com                      |
|    \\/     M anipulation  |                                                 |
\*---------------------------------------------------------------------------*/
FoamFile
{
    version     2.0;
    format      ascii;
    arch        "LSB;label=32;scalar=64";
    class       surfaceScalarField;
    location    "0.01";
    object      phi;
}
// * * * * * * * * * * * * * * * * * * * * * * * * * * * * * * * * * * * * * //

dimensions      [1 0 -1 0 0 0 0];

oriented        oriented;

internalField   nonuniform List<scalar> 
5952
(
7.17992e-05
-7.17963e-05
0.000130213
-5.84118e-05
0.000166674
-3.64598e-05
0.00016365
3.02766e-06
0.000125135
3.85206e-05
5.70941e-05
6.80562e-05
-7.9077e-05
0.000136163
-0.000282793
0.000203717
-0.000452211
0.000169418
-0.000583415
0.000131207
-0.000685368
0.000101955
7.64935e-05
-0.000761858
3.71894e-05
-0.000108983
3.15031e-05
-5.27215e-05
-1.77865e-05
1.28376e-05
-0.000105474
9.07217e-05
-0.000233735
0.000166791
-0.000378019
0.000212347
-0.00048339
0.000241546
-0.000520374
0.00024071
-0.000555806
0.000204859
-0.000593295
0.000168703
-0.000628068
0.000136733
0.000102192
-0.000653761
-3.18114e-05
-7.71668e-05
-9.36904e-05
9.165e-06
-0.000186683
0.00010584
-0.000281909
0.00018596
-0.000357949
0.000242843
-0.000412835
0.000267244
-0.000443639
0.000272361
-0.000457161
0.000254242
-0.000471289
0.000218995
-0.000487323
0.000184745
-0.000500668
0.000150085
0.000113785
-0.000512254
-8.27307e-05
5.56891e-06
-0.000154308
8.07515e-05
-0.000222275
0.000173816
-0.000278573
0.000242268
-0.000317384
0.000281665
-0.000341727
0.000291597
-0.0003536
0.000284245
-0.000358818
0.00025947
-0.000364638
0.000224823
-0.00036951
0.000189625
-0.000373299
0.000153882
0.00011787
-0.000377376
-7.80878e-05
8.36599e-05
-0.000143376
0.000146048
-0.000193037
0.000223486
-0.000225956
0.000275196
-0.000243696
0.000299415
-0.000251497
0.000299407
-0.000250536
0.000283294
-0.00024716
0.000256102
-0.000245272
0.000222943
-0.000244168
0.000188529
-0.000243815
0.000153536
0.000118159
-0.000244096
-6.48774e-05
0.00014854
-0.000113649
0.000194826
-0.000144673
0.000254517
-0.000159144
0.000289677
-0.00016211
0.000302388
-0.000156721
0.000294027
-0.000147223
0.000273805
-0.000137564
0.00024645
-0.000129718
0.000215105
-0.00012358
0.000182399
-0.000118999
0.000148963
0.000114879
-0.000115711
-4.76418e-05
0.000196183
-8.21908e-05
0.00022938
-9.64397e-05
0.000268772
-9.4573e-05
0.000287817
-8.23582e-05
0.000290181
-6.54856e-05
0.000277162
-4.76957e-05
0.000256022
-3.13195e-05
0.000230081
-1.75162e-05
0.000201308
-6.26013e-06
0.000171151
2.68589e-06
0.000140025
0.000107948
9.62478e-06
-3.86271e-05
0.000234811
-5.59167e-05
0.000246674
-5.25294e-05
0.00026539
-3.41345e-05
0.000269428
-7.33083e-06
0.000263384
2.11266e-05
0.000248711
4.81133e-05
0.000229042
7.20246e-05
0.000206177
9.22842e-05
0.000181055
0.000109081
0.000154361
0.000122786
0.000126326
9.69753e-05
0.000133767
-2.41374e-05
0.000258948
-2.92715e-05
0.000251812
-8.2e-06
0.000244323
2.69751e-05
0.000234258
6.80109e-05
0.000222353
0.000108143
0.000208584
0.00014455
0.000192641
0.000176242
0.00017449
0.000203151
0.000154153
0.000225698
0.00013182
0.000244416
0.000107615
8.16399e-05
0.000259758
-2.75776e-05
0.000286528
-3.96551e-06
0.000228204
4.72477e-05
0.000193114
0.000102843
0.000178668
0.000158061
0.000167141
0.000208469
0.000158181
0.000252693
0.000148422
0.000290713
0.000136477
0.000323046
0.000121825
0.000350371
0.000104502
0.000373379
8.46131e-05
6.24307e-05
0.000392594
2.15691e-05
0.000264962
8.59926e-05
0.000163787
0.000161903
0.000117211
0.000231595
0.000108981
0.000292802
0.000105939
0.000345796
0.000105192
0.00039132
0.000102904
0.000430361
9.74406e-05
0.000463861
8.83306e-05
0.000492615
7.57536e-05
0.000517324
5.99096e-05
4.13274e-05
0.000538434
0.000221096
4.38708e-05
0.00032526
5.96304e-05
0.000399566
4.29125e-05
0.000457312
5.12421e-05
0.000503304
5.99531e-05
0.000542433
6.60688e-05
0.000576899
6.84433e-05
0.000607692
6.66536e-05
0.000635322
6.07058e-05
0.000660103
5.0978e-05
0.000682343
3.76759e-05
0.000702104
2.15713e-05
-0.000812621
5.0767e-05
-0.000842086
2.94687e-05
-0.000849409
7.32807e-06
-0.000837027
-1.23768e-05
-0.000804274
-3.27467e-05
-0.000750338
-5.39307e-05
-0.000672909
-7.74226e-05
-0.000570237
-0.000102665
-0.000439935
-0.000130296
-0.000281923
-0.000158005
-0.000114956
-0.000166961
-0.00011495
-0.000672708
6.97197e-05
-0.000682534
3.92999e-05
-0.000684836
9.63649e-06
-0.000677766
-1.94397e-05
-0.000660262
-5.02437e-05
-0.000630051
-8.41347e-05
-0.000585522
-0.000121944
-0.000523913
-0.000164267
-0.000442106
-0.000212095
-0.000336978
-0.000263125
-0.000200051
-0.000303881
-0.000314994
-0.000521235
7.87077e-05
-0.000526527
4.45996e-05
-0.000527224
1.03404e-05
-0.000521285
-2.53711e-05
-0.0005075
-6.40212e-05
-0.000484759
-0.000106867
-0.000451471
-0.000155224
-0.000406169
-0.000209561
-0.000347009
-0.000271248
-0.000269166
-0.00034096
-0.000161489
-0.00041155
-0.000476476
-0.000380755
8.20945e-05
-0.000382179
4.60324e-05
-0.00038062
8.78865e-06
-0.000375165
-3.08178e-05
-0.000365109
-7.40681e-05
-0.000349719
-0.000122249
-0.00032774
-0.000177195
-0.000298262
-0.00023903
-0.000259034
-0.000310467
-0.000205754
-0.000394232
-0.000126033
-0.000491263
-0.000602501
-0.000244347
8.23542e-05
-0.000243885
4.55789e-05
-0.000242104
7.01549e-06
-0.000238521
-3.43914e-05
-0.000232745
-7.98352e-05
-0.000224271
-0.000130715
-0.000212647
-0.00018881
-0.000196649
-0.000255019
-0.000174233
-0.000332875
-0.000142367
-0.000426089
-8.99447e-05
-0.000543678
-0.000692438
-0.000113276
7.9928e-05
-0.000111283
4.35938e-05
-0.000109406
5.14767e-06
-0.000107446
-3.63431e-05
-0.000105282
-8.19898e-05
-0.000102864
-0.000133123
-0.000100327
-0.000191338
-9.68963e-05
-0.000258439
-9.18354e-05
-0.000337926
-8.27137e-05
-0.000435201
-6.04874e-05
-0.000565895
-0.000752917
1.48818e-05
7.46791e-05
1.87032e-05
3.97807e-05
2.12057e-05
2.65374e-06
2.23414e-05
-3.74699e-05
2.18978e-05
-8.1537e-05
1.95115e-05
-0.000130728
1.47129e-05
-0.00018653
7.27994e-06
-0.000250997
-2.77081e-06
-0.000327866
-1.41004e-05
-0.000423862
-2.18019e-05
-0.000558184
-0.00077471
0.000142322
6.61313e-05
0.00014861
3.35012e-05
0.000152594
-1.32226e-06
0.00015401
-3.88776e-05
0.000152337
-7.98548e-05
0.000146778
-0.00012516
0.000136237
-0.00017598
0.000119421
-0.000234171
9.48547e-05
-0.00030329
6.18351e-05
-0.000390832
2.31558e-05
-0.000519495
-0.000751544
0.000272053
5.38441e-05
0.000281419
2.41421e-05
0.000287726
-7.62116e-06
0.000290546
-4.16895e-05
0.000289105
-7.84047e-05
0.00028222
-0.000118267
0.000268141
-0.000161891
0.000244502
-0.000210523
0.00020798
-0.000266758
0.000154896
-0.000337738
8.27893e-05
-0.000447377
-0.000668743
0.000408385
3.80602e-05
0.000420863
1.1671e-05
0.000429845
-1.65959e-05
0.000434796
-4.66333e-05
0.000434769
-7.83696e-05
0.000428314
-0.000111804
0.000413135
-0.000146703
0.000385931
-0.00018331
0.000341408
-0.000222226
0.000272672
-0.000268992
0.000166784
-0.000341478
-0.000501947
0.000556283
2.02173e-05
0.00057094
-2.97942e-06
0.000582159
-2.78094e-05
0.000589311
-5.37788e-05
0.000591336
-8.0387e-05
0.000586663
-0.000107124
0.000572724
-0.000132757
0.00054583
-0.000156408
0.000499186
-0.000175574
0.000423934
-0.000193731
0.000291556
-0.000209089
-0.000210378
0.000719559
2.7681e-06
0.000734621
-1.80363e-05
0.000746921
-4.01047e-05
0.000755687
-6.25395e-05
0.000759757
-8.4451e-05
0.000757506
-0.000104867
0.000746437
-0.000121683
0.000723291
-0.000133254
0.000681577
-0.000133853
0.000608983
-0.000121129
0.000456021
-5.61166e-05
0.000245657
6.90799e-05
-6.90768e-05
0.000126155
-5.70736e-05
0.000162776
-3.66187e-05
0.000162685
9.3373e-08
0.000128336
3.43542e-05
6.73557e-05
6.0993e-05
-4.64531e-05
0.000113806
-0.000237894
0.000191442
-0.000409596
0.000171704
-0.000539413
0.000129821
-0.000642649
0.000103239
7.68683e-05
-0.000719513
3.68109e-05
-0.000105884
3.40944e-05
-5.43531e-05
-8.79976e-06
6.28229e-06
-8.6906e-05
7.82028e-05
-0.00020422
0.000151672
-0.0003418
0.00019858
-0.00045443
0.000226445
-0.000496853
0.000233874
-0.000528118
0.000202978
-0.000564519
0.000166229
-0.000597686
0.000136412
0.000102484
-0.000623295
-3.01764e-05
-7.57018e-05
-8.74842e-05
2.96382e-06
-0.000173694
9.25032e-05
-0.000263798
0.000168318
-0.000337724
0.00022561
-0.000391434
0.000252302
-0.00042423
0.000259252
-0.000436934
0.000246589
-0.000448248
0.000214301
-0.000463036
0.000181026
-0.000475241
0.000148625
0.000113793
-0.000486543
-7.96939e-05
3.99836e-06
-0.000147703
7.09835e-05
-0.000212039
0.00015685
-0.00026586
0.00022215
-0.000303448
0.00026321
-0.000326553
0.000275418
-0.000337942
0.000270652
-0.000341683
0.000250341
-0.000345842
0.00021847
-0.00034996
0.000185152
-0.000352922
0.000151595
0.000117288
-0.000356409
-7.53396e-05
7.93423e-05
-0.000138223
0.000133876
-0.000186109
0.000204745
-0.000217947
0.000253998
-0.000234391
0.000279665
-0.000240938
0.000281976
-0.000239282
0.000269006
-0.000234354
0.000245423
-0.000230982
0.000215106
-0.000228867
0.000183046
-0.000227666
0.000150403
0.000117185
-0.000227555
-6.32359e-05
0.000142582
-0.000110768
0.000181416
-0.000141127
0.000235113
-0.000155004
0.000267884
-0.000156811
0.000281483
-0.000150627
0.000275801
-0.000140185
0.000258574
-0.000129206
0.000234453
-0.00012009
0.000205999
-0.00011297
0.000175935
-0.000107666
0.000145107
0.00011357
-0.000104042
-4.69477e-05
0.000189531
-8.14083e-05
0.000215883
-9.6003e-05
0.000249716
-9.43725e-05
0.000266262
-8.18036e-05
0.000268922
-6.42321e-05
0.000258238
-4.5498e-05
0.000239848
-2.79421e-05
0.000216905
-1.29913e-05
0.000191057
-8.00983e-07
0.000163753
8.80668e-06
0.000135508
0.000106331
1.60545e-05
-3.88609e-05
0.000228394
-5.68183e-05
0.000233846
-5.46408e-05
0.000247544
-3.73616e-05
0.00024899
-1.11311e-05
0.000242699
1.75379e-05
0.000229577
4.52117e-05
0.000212182
7.01012e-05
0.000192023
9.13811e-05
0.000169784
0.000109054
0.000146087
0.000123385
0.000121185
9.50623e-05
0.000134661
-2.47311e-05
0.000253125
-3.13934e-05
0.000240512
-1.255e-05
0.000228706
2.06137e-05
0.000215833
6.03606e-05
0.000202958
0.000100117
0.000189826
0.000136801
0.000175505
0.000169167
0.000159663
0.000196888
0.000142071
0.000220183
0.000122799
0.000239443
0.000101933
7.94781e-05
0.000255035
-2.84685e-05
0.000281595
-7.51365e-06
0.000219563
4.05648e-05
0.000180634
9.35603e-05
0.000162843
0.000147103
0.000149422
0.000196713
0.000140221
0.000240783
0.000131441
0.00027908
0.000121373
0.000311894
0.000109263
0.000339723
9.49769e-05
0.000363096
7.85666e-05
6.01306e-05
0.000382451
1.89588e-05
0.000262639
7.90446e-05
0.000159483
0.000152156
0.000107529
0.000219539
9.54663e-05
0.000279135
8.98316e-05
0.00033104
8.83216e-05
0.000375976
8.65105e-05
0.000414827
8.25271e-05
0.000448396
7.57006e-05
0.000477348
6.60314e-05
0.000502206
5.37151e-05
3.90073e-05
0.000523335
0.000213487
4.91565e-05
0.000313802
5.91752e-05
0.0003866
3.47377e-05
0.000443007
3.90659e-05
0.000487413
4.54311e-05
0.000525131
5.06088e-05
0.00055851
5.31376e-05
0.000588621
5.24212e-05
0.000615948
4.83796e-05
0.000640706
4.12791e-05
0.000662976
3.14507e-05
0.000682756
1.92332e-05
-0.000772027
5.25185e-05
-0.000803098
3.10753e-05
-0.000812863
9.77113e-06
-0.000802934
-9.92325e-06
-0.00077314
-2.97881e-05
-0.000722488
-5.06453e-05
-0.00064875
-7.37316e-05
-0.000550048
-9.86951e-05
-0.000423916
-0.000126126
-0.000270376
-0.000153533
-0.000108541
-0.000161829
-0.000108534
-0.000641986
7.12158e-05
-0.000652381
4.14765e-05
-0.000655342
1.27385e-05
-0.000649675
-1.55836e-05
-0.000634073
-4.53831e-05
-0.000606315
-7.8395e-05
-0.000564639
-0.000115401
-0.000506211
-0.000157115
-0.000427915
-0.000204415
-0.000326654
-0.000254786
-0.000193893
-0.000294583
-0.00030242
-0.000495402
8.00821e-05
-0.000501169
4.72512e-05
-0.000502771
1.43482e-05
-0.000498321
-2.00254e-05
-0.000486382
-5.73144e-05
-0.000465891
-9.88779e-05
-0.00043509
-0.000146193
-0.000392781
-0.000199416
-0.000336995
-0.000260193
-0.000262619
-0.000329154
-0.000158574
-0.00039862
-0.000460986
-0.000359663
8.33437e-05
-0.000361467
4.90635e-05
-0.000360725
1.36152e-05
-0.000356524
-2.42178e-05
-0.000348089
-6.57413e-05
-0.000334725
-0.000112233
-0.00031507
-0.00016584
-0.000288137
-0.00022634
-0.000251534
-0.000296788
-0.000200537
-0.000380142
-0.000122934
-0.000476215
-0.000583912
-0.0002278
8.35978e-05
-0.000227751
4.90233e-05
-0.000226778
1.26513e-05
-0.000224376
-2.6611e-05
-0.000220102
-7.00069e-05
-0.000213381
-0.000118944
-0.00020378
-0.000175432
-0.000189867
-0.000240244
-0.000169546
-0.000317099
-0.000140023
-0.000409656
-8.95525e-05
-0.000526677
-0.000673456
-0.000101642
8.12068e-05
-0.000100063
4.74528e-05
-9.8958e-05
1.15554e-05
-9.80937e-05
-2.74661e-05
-9.73076e-05
-7.07837e-05
-9.6442e-05
-0.0001198
-9.56193e-05
-0.000176245
-9.38892e-05
-0.000241965
-9.03924e-05
-0.000320586
-8.25517e-05
-0.000417487
-6.1016e-05
-0.000548204
-0.000734464
2.12618e-05
7.60081e-05
2.46776e-05
4.40459e-05
2.64464e-05
9.79561e-06
2.65616e-05
-2.75721e-05
2.48651e-05
-6.90777e-05
2.10748e-05
-0.000116
1.48044e-05
-0.000169965
5.99748e-06
-0.000233148
-5.12496e-06
-0.000309454
-1.70152e-05
-0.000405587
-2.4549e-05
-0.00054066
-0.000759003
0.000143161
6.75169e-05
0.000149049
3.81666e-05
0.000152328
6.52545e-06
0.000152789
-2.80248e-05
0.000149981
-6.62596e-05
0.000143195
-0.000109205
0.00013145
-0.00015821
0.000113641
-0.00021533
8.85771e-05
-0.00028438
5.59019e-05
-0.000372902
1.86917e-05
-0.00050344
-0.000740301
0.000267238
5.53213e-05
0.000276181
2.9232e-05
0.00028178
9.35185e-07
0.000283685
-2.99218e-05
0.000281211
-6.37762e-05
0.00027328
-0.000101265
0.000258268
-0.000143189
0.000234005
-0.000191056
0.000197477
-0.000247843
0.000145339
-0.000320753
7.59798e-05
-0.00043407
-0.00066431
0.000398067
3.97121e-05
0.000410052
1.72547e-05
0.000418276
-7.28077e-06
0.000422313
-3.39509e-05
0.000421332
-6.27867e-05
0.000414018
-9.39429e-05
0.000398221
-0.000127383
0.000370843
-0.000163669
0.0003269
-0.00020389
0.000259751
-0.000253593
0.000157766
-0.000332073
-0.00050653
0.000540917
2.21377e-05
0.000554981
3.1973e-06
0.000565347
-1.76404e-05
0.00057155
-4.01466e-05
0.000572684
-6.39134e-05
0.000567376
-8.86277e-05
0.000553266
-0.000113266
0.000526832
-0.000137228
0.00048154
-0.000158589
0.000408679
-0.000180723
0.000280955
-0.000204337
-0.000225562
0.000699918
4.98161e-06
0.000714306
-1.11849e-05
0.000725643
-2.89713e-05
0.00073342
-4.79175e-05
0.000736706
-6.7194e-05
0.000734192
-8.61078e-05
0.000723696
-0.000102763
0.000702112
-0.000115636
0.000663105
-0.000119575
0.000594027
-0.000111636
0.000446964
-5.72635e-05
0.000221417
7.1796e-05
-7.17932e-05
0.000130208
-5.84104e-05
0.000166685
-3.64746e-05
0.000163683
3.00508e-06
0.00012519
3.84988e-05
5.7183e-05
6.8022e-05
-7.88652e-05
0.00013604
-0.000282555
0.00020369
-0.000452017
0.000169463
-0.000583234
0.00013122
-0.000685211
0.00010198
7.6505e-05
-0.000761713
3.72041e-05
-0.000108995
3.1549e-05
-5.27514e-05
-1.77008e-05
1.2783e-05
-0.000105332
9.06429e-05
-0.000233545
0.000166722
-0.000377823
0.000212307
-0.000483278
0.000241506
-0.000520298
0.00024072
-0.000555714
0.000204887
-0.000593207
0.000168719
-0.000627977
0.000136755
0.000102209
-0.000653675
-3.17959e-05
-7.71939e-05
-9.36455e-05
9.10567e-06
-0.000186613
0.00010576
-0.000281832
0.000185874
-0.000357878
0.00024278
-0.00041277
0.000267209
-0.000443595
0.000272342
-0.000457115
0.000254249
-0.00047123
0.00021901
-0.000487261
0.000184758
-0.000500602
0.000150103
0.000113803
-0.000512189
-8.27194e-05
5.53054e-06
-0.000154286
8.06815e-05
-0.000222245
0.000173729
-0.000278543
0.000242183
-0.000317359
0.000281606
-0.000341701
0.000291561
-0.000353574
0.000284226
-0.000358787
0.000259471
-0.000364599
0.000224831
-0.000369468
0.000189635
-0.000373253
0.000153896
0.000117885
-0.000377328
-7.80799e-05
8.36137e-05
-0.000143365
0.000145974
-0.000193027
0.000223399
-0.00022595
0.000275116
-0.00024369
0.000299356
-0.000251489
0.00029937
-0.000250527
0.000283273
-0.000247142
0.000256095
-0.000245247
0.000222945
-0.00024414
0.000188536
-0.000243783
0.000153547
0.000118173
-0.000244062
-6.48742e-05
0.000148491
-0.000113647
0.000194753
-0.000144674
0.000254434
-0.00015915
0.0002896
-0.000162116
0.00030233
-0.000156725
0.000293988
-0.000147224
0.00027378
-0.000137559
0.000246438
-0.000129708
0.000215101
-0.000123566
0.000182402
-0.000118983
0.000148971
0.000114892
-0.000115693
-4.76421e-05
0.000196133
-8.21952e-05
0.000229311
-9.64504e-05
0.000268696
-9.45889e-05
0.000287746
-8.2376e-05
0.000290125
-6.55018e-05
0.000277121
-4.77088e-05
0.000255994
-3.13284e-05
0.000230065
-1.75212e-05
0.000201301
-6.26208e-06
0.00017115
2.68602e-06
0.000140031
0.00010796
9.62584e-06
-3.86306e-05
0.000234765
-5.59265e-05
0.000246611
-5.25479e-05
0.000265322
-3.41599e-05
0.000269364
-7.35959e-06
0.000263331
2.10977e-05
0.00024867
4.80862e-05
0.000229012
7.20003e-05
0.000206158
9.22628e-05
0.000181045
0.000109062
0.000154358
0.000122769
0.000126331
9.69863e-05
0.00013375
-2.41415e-05
0.000258907
-2.92854e-05
0.000251759
-8.22505e-06
0.000244266
2.69409e-05
0.000234203
6.79713e-05
0.000222306
0.000108102
0.000208545
0.000144508
0.000192611
0.000176202
0.00017447
0.000203112
0.000154141
0.000225661
0.000131816
0.00024438
0.000107618
8.165e-05
0.000259724
-2.7585e-05
0.000286493
-3.98387e-06
0.000228162
4.72163e-05
0.000193071
0.000102801
0.000178624
0.000158011
0.0001671
0.000208416
0.000158146
0.000252638
0.000148394
0.000290658
0.000136456
0.000322992
0.000121812
0.000350317
0.000104497
0.000373327
8.46151e-05
6.24397e-05
0.000392543
2.15596e-05
0.000264937
8.59678e-05
0.00016376
0.000161865
0.00011718
0.000231547
0.000108948
0.000292746
0.000105906
0.000345735
0.000105162
0.000391256
0.000102879
0.000430296
9.74213e-05
0.000463796
8.8318e-05
0.00049255
7.5748e-05
0.00051726
5.99109e-05
4.13354e-05
0.000538371
0.000221078
4.3864e-05
0.000325229
5.96172e-05
0.000399525
4.28905e-05
0.000457263
5.12169e-05
0.000503249
5.99268e-05
0.000542373
6.60439e-05
0.000576836
6.84217e-05
0.000607626
6.66367e-05
0.000635255
6.06945e-05
0.000660035
5.0973e-05
0.000682274
3.76771e-05
0.000702036
2.15788e-05
-0.000812492
5.07831e-05
-0.000841967
2.94792e-05
-0.000849303
7.34061e-06
-0.000836931
-1.2367e-05
-0.000804189
-3.27363e-05
-0.000750262
-5.39206e-05
-0.000672844
-7.74122e-05
-0.000570183
-0.000102655
-0.000439891
-0.000130286
-0.00028189
-0.000157994
-0.000114937
-0.000166947
-0.00011493
-0.000672624
6.97373e-05
-0.000682454
3.93153e-05
-0.000684759
9.65206e-06
-0.000677695
-1.94247e-05
-0.000660196
-5.02276e-05
-0.000629992
-8.4118e-05
-0.00058547
-0.000121927
-0.000523868
-0.000164249
-0.000442069
-0.000212077
-0.000336951
-0.000263105
-0.000200034
-0.000303856
-0.000314958
-0.00052117
7.87256e-05
-0.000526465
4.46174e-05
-0.000527165
1.0359e-05
-0.00052123
-2.53515e-05
-0.00050745
-6.40002e-05
-0.000484715
-0.000106845
-0.000451433
-0.000155201
-0.000406138
-0.000209536
-0.000346985
-0.000271222
-0.00026915
-0.000340932
-0.000161482
-0.000411517
-0.000476432
-0.000380707
8.21118e-05
-0.000382133
4.60514e-05
-0.000380575
8.8096e-06
-0.000375124
-3.07948e-05
-0.000365072
-7.40431e-05
-0.000349686
-0.000122222
-0.000327712
-0.000177167
-0.00029824
-0.000239
-0.000259018
-0.000310436
-0.000205742
-0.000394199
-0.000126026
-0.000491226
-0.00060245
-0.000244314
8.23714e-05
-0.000243853
4.55991e-05
-0.000242074
7.03866e-06
-0.000238495
-3.43654e-05
-0.000232722
-7.98066e-05
-0.000224252
-0.000130684
-0.000212632
-0.000188777
-0.000196638
-0.000254985
-0.000174225
-0.00033284
-0.000142364
-0.000426052
-8.9945e-05
-0.000543636
-0.000692388
-0.000113259
7.99451e-05
-0.000111266
4.36151e-05
-0.000109392
5.17284e-06
-0.000107434
-3.63144e-05
-0.000105273
-8.19581e-05
-0.000102858
-0.000133089
-0.000100324
-0.000191303
-9.68961e-05
-0.000258403
-9.18368e-05
-0.00033789
-8.2716e-05
-0.000435163
-6.0489e-05
-0.000565854
-0.000752868
1.48828e-05
7.46963e-05
1.87033e-05
3.98029e-05
2.12042e-05
2.68053e-06
2.23378e-05
-3.74391e-05
2.18917e-05
-8.1503e-05
1.95031e-05
-0.000130691
1.47026e-05
-0.000186493
7.26851e-06
-0.00025096
-2.78206e-06
-0.000327829
-1.41102e-05
-0.000423825
-2.18092e-05
-0.000558146
-0.000774668
0.000142306
6.61484e-05
0.000148593
3.35239e-05
0.000152576
-1.29445e-06
0.000153991
-3.88455e-05
0.000152316
-7.98192e-05
0.000146756
-0.000125122
0.000136214
-0.000175942
0.000119399
-0.000234134
9.4834e-05
-0.000303255
6.18185e-05
-0.0003908
2.31452e-05
-0.000519462
-0.000751513
0.000272019
5.38607e-05
0.000281385
2.41648e-05
0.000287692
-7.59309e-06
0.000290512
-4.16569e-05
0.00028907
-7.83687e-05
0.000282185
-0.000118229
0.000268106
-0.000161854
0.000244469
-0.000210487
0.00020795
-0.000266727
0.000154871
-0.000337712
8.27739e-05
-0.000447354
-0.000668728
0.000408335
3.8076e-05
0.000420814
1.16931e-05
0.000429796
-1.65684e-05
0.000434748
-4.66013e-05
0.000434722
-7.83343e-05
0.000428268
-0.000111767
0.00041309
-0.000146668
0.000385889
-0.000183278
0.000341371
-0.000222199
0.000272641
-0.000268972
0.000166765
-0.000341467
-0.00050195
0.000556221
2.0232e-05
0.000570879
-2.95851e-06
0.0005821
-2.77831e-05
0.000589253
-5.37482e-05
0.000591279
-8.03534e-05
0.000586608
-0.000107089
0.000572673
-0.000132724
0.000545782
-0.000156379
0.000499143
-0.000175551
0.000423898
-0.000193718
0.000291532
-0.00020909
-0.000210405
0.000719492
2.78202e-06
0.000734555
-1.80164e-05
0.000746857
-4.00796e-05
0.000755625
-6.25106e-05
0.000759696
-8.44198e-05
0.000757449
-0.000104836
0.000746384
-0.000121654
0.000723242
-0.00013323
0.000681534
-0.000133836
0.000608946
-0.000121122
0.000455995
-5.61288e-05
0.000245604
6.90816e-05
-6.90785e-05
0.000126174
-5.709e-05
0.000162767
-3.65918e-05
0.000162632
1.38272e-07
0.000128273
3.4363e-05
6.72896e-05
6.09967e-05
-4.65868e-05
0.000113873
-0.000238034
0.000191448
-0.000409675
0.000171644
-0.000539468
0.000129796
-0.000642675
0.000103211
7.68544e-05
-0.000719525
3.67632e-05
-0.000105838
3.39895e-05
-5.43123e-05
-8.93962e-06
6.34422e-06
-8.70757e-05
7.82776e-05
-0.000204406
0.000151697
-0.000341957
0.000198555
-0.000454494
0.000226419
-0.000496857
0.000233822
-0.000528123
0.000202919
-0.000564513
0.000166193
-0.000597675
0.00013638
0.000102463
-0.000623278
-3.02378e-05
-7.55944e-05
-8.76105e-05
3.06949e-06
-0.000173822
9.25662e-05
-0.000263871
0.000168338
-0.000337747
0.000225586
-0.000391433
0.000252253
-0.000424204
0.000259202
-0.000436905
0.000246532
-0.000448225
0.000214248
-0.000463012
0.000180988
-0.000475217
0.000148593
0.00011377
-0.000486517
-7.97067e-05
4.11856e-06
-0.000147715
7.10883e-05
-0.000212042
0.000156904
-0.000265845
0.000222153
-0.00030342
0.000263171
-0.000326519
0.000275363
-0.000337903
0.000270597
-0.000341645
0.000250285
-0.000345809
0.000218421
-0.000349927
0.000185115
-0.000352892
0.000151566
0.000117268
-0.000356382
-7.53381e-05
7.9461e-05
-0.00013821
0.000133969
-0.000186082
0.000204786
-0.000217909
0.00025399
-0.00023435
0.000279623
-0.000240897
0.000281921
-0.000239241
0.000268951
-0.000234318
0.000245372
-0.000230951
0.000215063
-0.000228839
0.000183012
-0.000227642
0.000150377
0.000117167
-0.000227532
-6.32266e-05
0.000142691
-0.000110744
0.000181495
-0.000141092
0.000235143
-0.000154963
0.00026787
-0.000156771
0.00028144
-0.000150589
0.000275749
-0.000140152
0.000258523
-0.000129177
0.000234407
-0.000120066
0.00020596
-0.000112949
0.000175904
-0.000107647
0.000145083
0.000113553
-0.000104025
-4.6933e-05
0.000189626
-8.13786e-05
0.000215947
-9.59639e-05
0.000249736
-9.43319e-05
0.000266247
-8.1767e-05
0.000268884
-6.42016e-05
0.000258192
-4.54732e-05
0.000239803
-2.79223e-05
0.000216864
-1.29755e-05
0.000191022
-7.87849e-07
0.000163724
8.81798e-06
0.000135486
0.000106315
1.60649e-05
-3.8839e-05
0.000228466
-5.67823e-05
0.000233895
-5.45978e-05
0.000247558
-3.73208e-05
0.000248977
-1.10978e-05
0.000242668
1.75631e-05
0.000229539
4.523e-05
0.000212144
7.01142e-05
0.000191987
9.13902e-05
0.000169753
0.000109061
0.000146061
0.00012339
0.000121165
9.50469e-05
0.000134666
-2.47081e-05
0.000253175
-3.1351e-05
0.000240543
-1.25026e-05
0.000228714
2.06565e-05
0.000215824
6.0394e-05
0.000202937
0.000100141
0.000189798
0.000136817
0.000175475
0.000169177
0.000159633
0.000196894
0.000142044
0.000220187
0.000122776
0.000239445
0.000101914
7.94629e-05
0.000255037
-2.84298e-05
0.000281606
-7.46363e-06
0.000219582
4.06159e-05
0.000180641
9.3605e-05
0.000162841
0.000147137
0.00014941
0.000196738
0.000140203
0.0002408
0.000131419
0.00027909
0.000121349
0.0003119
0.00010924
0.000339726
9.49562e-05
0.000363098
7.85486e-05
6.01159e-05
0.000382452
1.89866e-05
0.000262622
7.90856e-05
0.000159489
0.000152199
0.000107534
0.000219578
9.54675e-05
0.000279167
8.98265e-05
0.000331065
8.83104e-05
0.000375994
8.64952e-05
0.00041484
8.25094e-05
0.000448404
7.56819e-05
0.000477353
6.60134e-05
0.00050221
5.36987e-05
3.89934e-05
0.000523339
0.000213493
4.91335e-05
0.000313821
5.91688e-05
0.000386624
3.47382e-05
0.000443032
3.90658e-05
0.000487437
4.54272e-05
0.000525153
5.06005e-05
0.000558527
5.31258e-05
0.000588635
5.24071e-05
0.000615959
4.83642e-05
0.000640714
4.12637e-05
0.000662983
3.1436e-05
0.000682762
1.92204e-05
-0.000772026
5.25057e-05
-0.000803091
3.10694e-05
-0.000812852
9.76661e-06
-0.000802922
-9.92424e-06
-0.000773127
-2.97883e-05
-0.000722477
-5.06437e-05
-0.000648741
-7.37295e-05
-0.000550043
-9.86919e-05
-0.000423913
-0.000126123
-0.000270377
-0.00015353
-0.000108543
-0.000161827
-0.000108537
-0.000641966
7.12005e-05
-0.000652358
4.14679e-05
-0.000655319
1.27341e-05
-0.000649652
-1.55842e-05
-0.000634052
-4.5381e-05
-0.000606298
-7.83906e-05
-0.000564626
-0.000115395
-0.000506202
-0.000157108
-0.000427909
-0.000204408
-0.000326651
-0.00025478
-0.000193892
-0.000294579
-0.000302422
-0.000495376
8.0067e-05
-0.000501144
4.72428e-05
-0.000502747
1.43449e-05
-0.000498299
-2.00242e-05
-0.000486362
-5.73095e-05
-0.000465875
-9.88701e-05
-0.000435078
-0.000146184
-0.000392773
-0.000199405
-0.00033699
-0.000260182
-0.000262617
-0.000329145
-0.000158573
-0.000398615
-0.000460987
-0.000359637
8.33307e-05
-0.000361443
4.90568e-05
-0.000360703
1.36138e-05
-0.000356504
-2.42146e-05
-0.000348071
-6.57341e-05
-0.00033471
-0.000112222
-0.000315058
-0.000165827
-0.000288129
-0.000226326
-0.000251529
-0.000296773
-0.000200536
-0.00038013
-0.000122934
-0.000476209
-0.000583913
-0.000227779
8.35863e-05
-0.000227731
4.90179e-05
-0.00022676
1.26511e-05
-0.000224359
-2.66064e-05
-0.000220086
-6.99982e-05
-0.000213367
-0.000118931
-0.000203769
-0.000175416
-0.000189858
-0.000240227
-0.000169541
-0.000317082
-0.00014002
-0.000409641
-8.9552e-05
-0.000526669
-0.000673457
-0.000101627
8.11964e-05
-0.000100048
4.74479e-05
-9.89431e-05
1.15556e-05
-9.80793e-05
-2.7461e-05
-9.7294e-05
-7.07741e-05
-9.64295e-05
-0.000119786
-9.56086e-05
-0.000176228
-9.38811e-05
-0.000241945
-9.03875e-05
-0.000320566
-8.25497e-05
-0.000417469
-6.10172e-05
-0.000548192
-0.000734465
2.1272e-05
7.59979e-05
2.4688e-05
4.40408e-05
2.64572e-05
9.79544e-06
2.65729e-05
-2.75674e-05
2.48765e-05
-6.90683e-05
2.10859e-05
-0.000115986
1.48144e-05
-0.000169947
6.00545e-06
-0.000233126
-5.11996e-06
-0.00030943
-1.70134e-05
-0.000405566
-2.45494e-05
-0.000540646
-0.000759005
0.000143166
6.75063e-05
0.000149055
3.81607e-05
0.000152335
6.52418e-06
0.000152798
-2.80213e-05
0.00014999
-6.62511e-05
0.000143205
-0.000109191
0.000131459
-0.000158192
0.000113649
-0.000215306
8.85829e-05
-0.000284354
5.59044e-05
-0.000372877
1.86916e-05
-0.000503423
-0.000740303
0.000267241
5.53101e-05
0.000276185
2.92249e-05
0.000281785
9.32573e-07
0.000283692
-2.99197e-05
0.000281219
-6.37691e-05
0.000273289
-0.000101252
0.000258278
-0.000143171
0.000234014
-0.000191033
0.000197485
-0.000247815
0.000145343
-0.000320725
7.5981e-05
-0.00043405
-0.000664311
0.000398069
3.97006e-05
0.000410055
1.72468e-05
0.00041828
-7.28453e-06
0.000422319
-3.39501e-05
0.000421339
-6.2781e-05
0.000414027
-9.39319e-05
0.000398231
-0.000127367
0.000370854
-0.000163646
0.00032691
-0.000203862
0.000259758
-0.000253563
0.000157769
-0.00033205
-0.000506528
0.00054092
2.21263e-05
0.000554984
3.18899e-06
0.000565352
-1.76449e-05
0.000571555
-4.01468e-05
0.000572691
-6.39089e-05
0.000567384
-8.86183e-05
0.000553276
-0.000113251
0.000526844
-0.000137206
0.000481553
-0.000158562
0.000408692
-0.000180692
0.000280963
-0.000204309
-0.000225551
0.000699923
4.97057e-06
0.000714312
-1.11934e-05
0.000725649
-2.89765e-05
0.000733426
-4.79186e-05
0.000736714
-6.71906e-05
0.000734202
-8.60998e-05
0.000723707
-0.00010275
0.000702125
-0.000115617
0.000663122
-0.00011955
0.000594046
-0.000111608
0.000446982
-5.72339e-05
0.000221445
0.000819842
9.65872e-05
-0.00087255
0.000804523
7.49595e-05
0.000785121
6.23238e-05
0.000778811
5.75606e-05
0.000781921
5.68504e-05
0.000791334
5.66629e-05
0.000804573
5.52106e-05
0.000819868
5.13652e-05
0.000836042
4.45372e-05
0.000852366
3.46595e-05
0.000868504
2.15433e-05
6.12829e-06
0.000883952
0.00109053
9.3867e-05
-0.0010878
0.00108057
8.49257e-05
0.00106594
7.69674e-05
0.0010531
7.04024e-05
0.0010447
6.52661e-05
0.00104093
6.04362e-05
0.00104122
5.49262e-05
0.00104479
4.78082e-05
0.00105086
3.84701e-05
0.00105886
2.66692e-05
0.00106841
1.19917e-05
-4.2106e-06
0.00107876
0.00128669
8.65953e-05
-0.00127941
0.00128685
8.47734e-05
0.00128276
8.10645e-05
0.00127689
7.62813e-05
0.00127114
7.10275e-05
0.00126654
6.50431e-05
0.00126367
5.77983e-05
0.00126281
4.86764e-05
0.00126403
3.72642e-05
0.0012673
2.34035e-05
0.00127266
6.63475e-06
-1.10183e-05
0.00127947
0.00147343
-0.00146942
8.25891e-05
0.00147615
8.2061e-05
0.00147685
8.03736e-05
0.00147597
7.71642e-05
0.00147422
7.27909e-05
0.00147224
6.70297e-05
0.00147067
5.93835e-05
0.00146998
4.93708e-05
0.00147056
3.66861e-05
0.00147271
2.12662e-05
0.00147674
2.60299e-06
0.00148283
-1.71038e-05
0.000898677