/*--------------------------------*- C++ -*----------------------------------*\
| =========                 |                                                 |
| \\      /  F ield         | OpenFOAM: The Open Source CFD Toolbox           |
|  \\    /   O peration     | Version:  2212                                  |
|   \\  /    A nd           | Website:  www.openfoam.com                      |
|    \\/     M anipulation  |                                                 |
\*---------------------------------------------------------------------------*/
FoamFile
{
    version     2.0;
    format      ascii;
    arch        "LSB;label=32;scalar=64";
    class       volScalarField;
    location    "0.01";
    object      rho;
}
// * * * * * * * * * * * * * * * * * * * * * * * * * * * * * * * * * * * * * //

dimensions      [1 -3 0 0 0 0 0];

internalField   nonuniform List<scalar> 
3072
(
1.17033
1.17005
1.16992
1.16982
1.1701
1.17099
1.17165
1.17113
1.17105
1.17115
1.17109
1.17117
1.17179
1.17135
1.17154
1.17179
1.172
1.1726
1.17338
1.17447
1.17527
1.1758
1.17609
1.17637
1.17324
1.17274
1.17302
1.17347
1.17408
1.17475
1.17541
1.1761
1.17663
1.17705
1.17737
1.17757
1.17512
1.17491
1.17531
1.17585
1.17644
1.17705
1.17764
1.17816
1.17856
1.17888
1.17914
1.17936
1.17673
1.17684
1.17724
1.17782
1.17841
1.17898
1.17951
1.17995
1.18028
1.18054
1.18074
1.1809
1.17838
1.17874
1.17913
1.1797
1.18024
1.18075
1.18118
1.18153
1.18179
1.18199
1.18214
1.18226
1.18
1.18064
1.18099
1.18153
1.182
1.18242
1.18274
1.18299
1.18317
1.1833
1.18339
1.18346
1.18178
1.18256
1.18284
1.1833
1.18366
1.18395
1.18415
1.1843
1.18439
1.18444
1.18448
1.1845
1.18362
1.18454
1.18462
1.18495
1.18516
1.1853
1.18538
1.18542
1.18543
1.18543
1.18541
1.1854
1.18566
1.18623
1.18616
1.18636
1.1864
1.18642
1.18641
1.18637
1.18631
1.18626
1.1862
1.18616
1.18721
1.18769
1.18734
1.1874
1.18739
1.18733
1.18725
1.18716
1.18706
1.18697
1.18688
1.18681
1.18698
1.18845
1.1882
1.18824
1.18821
1.18811
1.18799
1.18785
1.18772
1.1876
1.18749
1.18739
1.17134
1.17164
1.17208
1.17265
1.17325
1.1739
1.17451
1.17505
1.17533
1.17533
1.17509
1.17444
1.17652
1.17667
1.17683
1.17703
1.17725
1.17747
1.17765
1.17775
1.17771
1.17756
1.17699
1.17543
1.17772
1.17788
1.17806
1.17827
1.17849
1.17868
1.17881
1.17883
1.17868
1.17847
1.17792
1.17571
1.17954
1.1797
1.17984
1.17997
1.18007
1.18013
1.18013
1.18003
1.17978
1.17941
1.17888
1.17651
1.18104
1.18115
1.18124
1.18131
1.18136
1.18138
1.18134
1.18124
1.181
1.18061
1.18016
1.17796
1.18236
1.18243
1.1825
1.18255
1.18259
1.18261
1.1826
1.18255
1.1824
1.18212
1.18177
1.17991
1.18352
1.18357
1.18361
1.18366
1.18371
1.18377
1.18382
1.18387
1.18386
1.18377
1.18369
1.18234
1.18453
1.18455
1.18459
1.18464
1.18472
1.18483
1.18497
1.18514
1.18534
1.18552
1.18586
1.1852
1.18539
1.1854
1.18542
1.18549
1.18559
1.18575
1.18598
1.1863
1.18671
1.18721
1.18806
1.18841
1.18612
1.18611
1.18614
1.1862
1.18633
1.18653
1.18683
1.18726
1.18786
1.18867
1.19012
1.19156
1.18676
1.18673
1.18674
1.1868
1.18693
1.18715
1.18749
1.18799
1.18871
1.18973
1.19174
1.19434
1.18731
1.18727
1.18726
1.1873
1.18741
1.18762
1.18796
1.18846
1.18918
1.19027
1.1924
1.19635
1.1704
1.17013
1.16999
1.1699
1.17013
1.17084
1.17178
1.17107
1.17098
1.17106
1.17104
1.17111
1.17183
1.17139
1.17152
1.17175
1.17194
1.17248
1.17313
1.17417
1.17498
1.17553
1.17585
1.17614
1.17325
1.17274
1.17297
1.17337
1.17394
1.17458
1.17519
1.17586
1.17639
1.17681
1.17714
1.17735
1.1751
1.17487
1.17522
1.17571
1.17627
1.17685
1.17741
1.17793
1.17833
1.17866
1.17893
1.17914
1.17669
1.17678
1.17714
1.17767
1.17823
1.17877
1.1793
1.17974
1.18008
1.18034
1.18054
1.1807
1.17835
1.17868
1.17903
1.17956
1.18008
1.18057
1.181
1.18134
1.18161
1.18181
1.18196
1.18207
1.17997
1.18059
1.1809
1.18141
1.18186
1.18226
1.18258
1.18282
1.183
1.18313
1.18322
1.18329
1.18175
1.18251
1.18277
1.1832
1.18353
1.18381
1.18401
1.18415
1.18424
1.1843
1.18434
1.18436
1.18359
1.1845
1.18456
1.18486
1.18505
1.18519
1.18527
1.18531
1.18532
1.18531
1.18529
1.18527
1.18564
1.18619
1.18611
1.18629
1.18634
1.18635
1.18633
1.18628
1.18622
1.18616
1.1861
1.18605
1.1872
1.18766
1.18732
1.18737
1.18735
1.18729
1.1872
1.1871
1.18699
1.18689
1.18679
1.18671
1.18699
1.1884
1.18815
1.1882
1.18818
1.18809
1.18796
1.18781
1.18766
1.18752
1.18739
1.18728
1.17126
1.17154
1.17192
1.17244
1.17299
1.17357
1.17413
1.1746
1.17484
1.17481
1.17456
1.17394
1.1763
1.17643
1.17657
1.17674
1.17693
1.17709
1.17724
1.1773
1.17723
1.17704
1.17647
1.17496
1.1775
1.17765
1.17781
1.17799
1.17819
1.17834
1.17845
1.17844
1.17827
1.17804
1.17748
1.17532
1.17932
1.17947
1.1796
1.17971
1.17979
1.17983
1.17981
1.17969
1.17942
1.17903
1.1785
1.17615
1.18083
1.18093
1.18101
1.18107
1.18111
1.18111
1.18105
1.18093
1.18067
1.18027
1.17981
1.1776
1.18216
1.18224
1.18229
1.18233
1.18236
1.18236
1.18233
1.18225
1.18208
1.18177
1.18142
1.17952
1.18335
1.18339
1.18343
1.18346
1.1835
1.18354
1.18357
1.18359
1.18356
1.18342
1.18331
1.1819
1.18437
1.18439
1.18442
1.18446
1.18453
1.18461
1.18473
1.18487
1.18503
1.18516
1.18544
1.18469
1.18526
1.18526
1.18528
1.18533
1.18542
1.18556
1.18576
1.18603
1.1864
1.18684
1.1876
1.18784
1.18601
1.18599
1.186
1.18606
1.18616
1.18634
1.18662
1.187
1.18755
1.1883
1.18963
1.19094
1.18664
1.18661
1.18661
1.18666
1.18677
1.18697
1.18728
1.18774
1.18841
1.18937
1.19125
1.19372
1.18719
1.18713
1.18711
1.18714
1.18724
1.18744
1.18774
1.18821
1.18888
1.18992
1.19195
1.19583
1.17033
1.17005
1.16992
1.16982
1.1701
1.17099
1.17165
1.17113
1.17105
1.17115
1.17109
1.17117
1.17179
1.17135
1.17154
1.17179
1.172
1.1726
1.17338
1.17447
1.17527
1.1758
1.17609
1.17637
1.17324
1.17274
1.17302
1.17347
1.17408
1.17475
1.17541
1.1761
1.17663
1.17705
1.17737
1.17757
1.17512
1.17491
1.17531
1.17584
1.17644
1.17705
1.17764
1.17816
1.17856
1.17888
1.17914
1.17936
1.17673
1.17684
1.17724
1.17782
1.17841
1.17898
1.17951
1.17995
1.18028
1.18054
1.18074
1.1809
1.17838
1.17874
1.17913
1.1797
1.18024
1.18075
1.18118
1.18153
1.18179
1.18199
1.18214
1.18226
1.18
1.18064
1.18099
1.18153
1.182
1.18242
1.18274
1.18299
1.18317
1.1833
1.18339
1.18346
1.18178
1.18256
1.18284
1.1833
1.18366
1.18395
1.18415
1.1843
1.18439
1.18444
1.18448
1.1845
1.18362
1.18454
1.18462
1.18495
1.18516
1.1853
1.18538
1.18542
1.18543
1.18543
1.18541
1.1854
1.18566
1.18623
1.18616
1.18636
1.1864
1.18642
1.18641
1.18637
1.18631
1.18626
1.1862
1.18616
1.18721
1.18769
1.18734
1.1874
1.18739
1.18733
1.18725
1.18716
1.18706
1.18697
1.18688
1.18681
1.18698
1.18845
1.1882
1.18824
1.18821
1.18811
1.18799
1.18785
1.18772
1.1876
1.18749
1.18739
1.17134
1.17164
1.17208
1.17265
1.17325
1.1739
1.17451
1.17505
1.17533
1.17533
1.17509
1.17444
1.17652
1.17667
1.17683
1.17703
1.17725
1.17747
1.17765
1.17775
1.17771
1.17756
1.17699
1.17543
1.17772
1.17788
1.17806
1.17827
1.17849
1.17868
1.17881
1.17883
1.17868
1.17847
1.17792
1.17571
1.17954
1.1797
1.17984
1.17997
1.18007
1.18013
1.18013
1.18003
1.17978
1.17941
1.17888
1.17651
1.18103
1.18115
1.18124
1.18131
1.18136
1.18138
1.18134
1.18124
1.181
1.18061
1.18016
1.17796
1.18236
1.18243
1.1825
1.18255
1.18259
1.18261
1.1826
1.18254
1.1824
1.18212
1.18177
1.17991
1.18352
1.18357
1.18361
1.18366
1.18371
1.18377
1.18382
1.18387
1.18386
1.18377
1.18369
1.18234
1.18453
1.18455
1.18459
1.18464
1.18472
1.18483
1.18497
1.18514
1.18534
1.18552
1.18586
1.1852
1.18539
1.1854
1.18542
1.18549
1.18559
1.18575
1.18598
1.1863
1.18671
1.18721
1.18806
1.18841
1.18612
1.18611
1.18614
1.1862
1.18633
1.18653
1.18683
1.18726
1.18786
1.18867
1.19011
1.19156
1.18676
1.18673
1.18674
1.1868
1.18693
1.18715
1.18749
1.18799
1.18871
1.18973
1.19174
1.19433
1.18731
1.18727
1.18726
1.1873
1.18741
1.18762
1.18796
1.18846
1.18918
1.19027
1.1924
1.19635
1.1704
1.17013
1.16999
1.1699
1.17013
1.17084
1.17178
1.17107
1.17098
1.17106
1.17104
1.17111
1.17183
1.17139
1.17152
1.17175
1.17194
1.17248
1.17313
1.17417
1.17498
1.17553
1.17585
1.17614
1.17325
1.17274
1.17297
1.17337
1.17394
1.17458
1.17519
1.17586
1.17639
1.17681
1.17714
1.17735
1.17511
1.17487
1.17522
1.17571
1.17627
1.17685
1.17741
1.17793
1.17833
1.17866
1.17893
1.17914
1.17669
1.17679
1.17714
1.17768
1.17823
1.17878
1.1793
1.17974
1.18008
1.18034
1.18054
1.1807
1.17835
1.17868
1.17903
1.17956
1.18008
1.18057
1.181
1.18134
1.18161
1.18181
1.18196
1.18207
1.17997
1.18059
1.1809
1.18141
1.18186
1.18226
1.18258
1.18282
1.183
1.18313
1.18322
1.18329
1.18175
1.18251
1.18277
1.1832
1.18353
1.18381
1.18401
1.18415
1.18424
1.1843
1.18434
1.18436
1.18359
1.1845
1.18456
1.18486
1.18505
1.18519
1.18527
1.18531
1.18532
1.18531
1.18529
1.18527
1.18564
1.18619
1.18611
1.18629
1.18633
1.18635
1.18633
1.18628
1.18622
1.18616
1.1861
1.18605
1.1872
1.18766
1.18732
1.18737
1.18735
1.18729
1.1872
1.1871
1.18699
1.18689
1.18679
1.18671
1.18699
1.1884
1.18815
1.1882
1.18818
1.18809
1.18796
1.18781
1.18766
1.18752
1.18739
1.18728
1.17126
1.17154
1.17192
1.17244
1.17299
1.17357
1.17413
1.1746
1.17484
1.17481
1.17456
1.17394
1.1763
1.17643
1.17657
1.17675
1.17693
1.1771
1.17724
1.1773
1.17723
1.17704
1.17647
1.17496
1.1775
1.17765
1.17781
1.17799
1.17819
1.17834
1.17845
1.17844
1.17827
1.17804
1.17748
1.17532
1.17932
1.17947
1.1796
1.17971
1.17979
1.17983
1.17981
1.17969
1.17942
1.17903
1.1785
1.17615
1.18083
1.18093
1.18101
1.18107
1.18111
1.18111
1.18105
1.18093
1.18067
1.18027
1.17981
1.1776
1.18217
1.18224
1.18229
1.18233
1.18236
1.18236
1.18233
1.18225
1.18208
1.18177
1.18142
1.17952
1.18335
1.18339
1.18343
1.18346
1.1835
1.18354
1.18357
1.18359
1.18356
1.18343
1.18331
1.18191
1.18437
1.18439
1.18442
1.18446
1.18453
1.18461
1.18473
1.18487
1.18503
1.18516
1.18544
1.18469
1.18526
1.18526
1.18528
1.18533
1.18542
1.18556
1.18576
1.18603
1.1864
1.18684
1.1876
1.18784
1.18601
1.18599
1.186
1.18606
1.18616
1.18634
1.18662
1.187
1.18755
1.1883
1.18963
1.19094
1.18664
1.18661
1.18661
1.18666
1.18677
1.18697
1.18728
1.18774
1.18841
1.18937
1.19125
1.19372
1.18719
1.18713
1.18711
1.18714
1.18724
1.18744
1.18774
1.18821
1.18888
1.18992
1.19195
1.19583
1.18933
1.18954
1.18929
1.18913
1.18897
1.18879
1.18862
1.18846
1.1883
1.18815
1.18802
1.1879
1.18936
1.18916
1.18919
1.18921
1.18917
1.1891
1.18899
1.18886
1.18871
1.18857
1.18844
1.18831
1.18918
1.18912
1.18917
1.1892
1.18921
1.18918
1.18912
1.18904
1.18894
1.18883
1.18871
1.18859
1.18905
1.18906
1.18911
1.18915
1.18917
1.18916
1.18913
1.18908
1.18901
1.18893
1.18884
1.18873
1.1878
1.18773
1.18769
1.1877
1.18778
1.18795
1.18824
1.18869
1.18927
1.19009
1.19084
1.19215
1.1882
1.1881
1.18803
1.188
1.18803
1.18815
1.18837
1.18872
1.18918
1.18982
1.19021
1.19069
1.18847
1.18836
1.18826
1.18818
1.18816
1.18821
1.18835
1.18861
1.18894
1.18944
1.18975
1.18997
1.18863
1.18848
1.18834
1.18822
1.18816
1.18815
1.1882
1.18836
1.18857
1.18894
1.18921
1.18949
1.18925
1.18948
1.18926
1.18909
1.18894
1.18877
1.18859
1.18841
1.18823
1.18806
1.1879
1.18775
1.18942
1.18917
1.18918
1.18918
1.18913
1.18904
1.18892
1.18877
1.1886
1.18843
1.18826
1.1881
1.18936
1.1892
1.18921
1.1892
1.18917
1.1891
1.18901
1.18889
1.18876
1.18861
1.18845
1.18829
1.18931
1.18926
1.18924
1.18921
1.18917
1.1891
1.18902
1.18892
1.1888
1.18866
1.18851
1.18835
1.18764
1.18756
1.18751
1.18752
1.18759
1.18775
1.18801
1.18843
1.18898
1.18977
1.19052
1.19188
1.18797
1.18787
1.1878
1.18778
1.18781
1.18792
1.18812
1.18845
1.18888
1.1895
1.18992
1.19045
1.18815
1.18804
1.18795
1.1879
1.18789
1.18795
1.18807
1.18832
1.18864
1.18911
1.18945
1.1897
1.1882
1.18809
1.18799
1.18792
1.18788
1.18788
1.18794
1.18808
1.18828
1.18863
1.18891
1.18919
1.18933
1.18954
1.18929
1.18913
1.18897
1.18879
1.18862
1.18846
1.1883
1.18815
1.18802
1.1879
1.18935
1.18916
1.18919
1.18921
1.18917
1.1891
1.18899
1.18886
1.18871
1.18857
1.18844
1.18831
1.18918
1.18911
1.18917
1.1892
1.18921
1.18918
1.18912
1.18904
1.18894
1.18883
1.18871
1.18859
1.18905
1.18906
1.18911
1.18915
1.18917
1.18916
1.18913
1.18908
1.18901
1.18893
1.18884
1.18873
1.1878
1.18773
1.18769
1.1877
1.18778
1.18795
1.18824
1.18868
1.18927
1.19009
1.19084
1.19215
1.1882
1.1881
1.18803
1.188
1.18803
1.18815
1.18837
1.18872
1.18918
1.18981
1.19021
1.19069
1.18847
1.18836
1.18826
1.18818
1.18816
1.18821
1.18835
1.18861
1.18894
1.18944
1.18975
1.18997
1.18863
1.18848
1.18834
1.18822
1.18816
1.18815
1.1882
1.18835
1.18857
1.18894
1.18921
1.18949
1.18925
1.18948
1.18926
1.18909
1.18894
1.18877
1.18859
1.18841
1.18823
1.18806
1.1879
1.18775
1.18942
1.18917
1.18918
1.18918
1.18913
1.18904
1.18892
1.18877
1.1886
1.18843
1.18826
1.1881
1.18936
1.1892
1.18921
1.1892
1.18917
1.1891
1.18901
1.18889
1.18876
1.18861
1.18845
1.18829
1.18931
1.18926
1.18924
1.18921
1.18917
1.1891
1.18902
1.18892
1.1888
1.18866
1.18851
1.18835
1.18764
1.18756
1.18751
1.18752
1.18759
1.18775
1.18801
1.18843
1.18898
1.18977
1.19052
1.19188
1.18797
1.18787
1.1878
1.18778
1.18781
1.18792
1.18812
1.18845
1.18888
1.1895
1.18992
1.19045
1.18815
1.18804
1.18795
1.1879
1.18789
1.18795
1.18808
1.18832
1.18864
1.18912
1.18945
1.1897
1.1882
1.18809
1.18799
1.18792
1.18788
1.18788
1.18794
1.18808
1.18828
1.18863
1.18891
1.18919
1.18896
1.18903
1.18909
1.18912
1.18914
1.18913
1.18909
1.18904
1.18897
1.18889
1.1888
1.18871
1.18888
1.18897
1.18903
1.18907
1.18909
1.18907
1.18902
1.18896
1.18888
1.18879
1.18871
1.18863
1.18878
1.18887
1.18894
1.18898
1.18898
1.18895
1.1889
1.18881
1.18872
1.18863
1.18855
1.1885
1.18865
1.18875
1.18882
1.18885
1.18884
1.1888
1.18873
1.18863
1.18852
1.18841
1.18833
1.18831
1.18862
1.18849
1.18839
1.18833
1.18829
1.18829
1.18832
1.18841
1.18853
1.18877
1.18892
1.18911
1.18856
1.18846
1.18842
1.18842
1.18844
1.18848
1.18854
1.18862
1.18872
1.18881
1.18885
1.18889
1.18846
1.18838
1.18838
1.18843
1.1885
1.18856
1.18863
1.18868
1.18873
1.18875
1.18872
1.18867
1.18832
1.18825
1.18829
1.18837
1.18846
1.18854
1.1886
1.18863
1.18863
1.1886
1.18853
1.18843
1.18911
1.18908
1.18904
1.18897
1.1889
1.18881
1.18871
1.1886
1.18848
1.18833
1.18819
1.18803
1.18883
1.18876
1.18867
1.18857
1.18846
1.18835
1.18823
1.1881
1.18797
1.18784
1.18772
1.18758
1.18856
1.18845
1.18833
1.18821
1.18809
1.18796
1.18783
1.1877
1.18757
1.18745
1.18734
1.18723
1.1883
1.18816
1.18803
1.1879
1.18776
1.18763
1.1875
1.18736
1.18723
1.18711
1.18701
1.18691
1.18787
1.18774
1.18766
1.18763
1.18764
1.18769
1.18779
1.18795
1.18814
1.18842
1.18865
1.18889
1.18742
1.18728
1.18722
1.18723
1.1873
1.18741
1.18758
1.18779
1.18804
1.18834
1.18858
1.18878
1.18706
1.1869
1.18686
1.1869
1.187
1.18716
1.18736
1.18762
1.1879
1.1882
1.18845
1.18866
1.18676
1.18658
1.18655
1.18661
1.18673
1.18692
1.18715
1.18743
1.18773
1.18803
1.1883
1.18851
1.18896
1.18903
1.18909
1.18912
1.18914
1.18913
1.18909
1.18904
1.18897
1.18889
1.1888
1.18871
1.18888
1.18897
1.18903
1.18907
1.18909
1.18907
1.18902
1.18896
1.18888
1.18879
1.18871
1.18863
1.18878
1.18887
1.18894
1.18898
1.18898
1.18895
1.1889
1.18881
1.18872
1.18863
1.18855
1.1885
1.18865
1.18875
1.18882
1.18885
1.18884
1.1888
1.18873
1.18863
1.18852
1.18841
1.18833
1.1883
1.18861
1.18849
1.18839
1.18833
1.18829
1.18829
1.18832
1.18841
1.18853
1.18876
1.18892
1.18911
1.18856
1.18846
1.18842
1.18842
1.18844
1.18848
1.18854
1.18862
1.18872
1.18881
1.18885
1.18889
1.18846
1.18838
1.18838
1.18843
1.1885
1.18856
1.18863
1.18868
1.18873
1.18875
1.18872
1.18867
1.18832
1.18825
1.18829
1.18837
1.18846
1.18854
1.1886
1.18863
1.18863
1.1886
1.18853
1.18843
1.1891
1.18908
1.18904
1.18897
1.1889
1.18881
1.18871
1.1886
1.18848
1.18833
1.18819
1.18803
1.18883
1.18876
1.18867
1.18857
1.18846
1.18835
1.18823
1.1881
1.18797
1.18784
1.18772
1.18758
1.18856
1.18845
1.18833
1.18821
1.18808
1.18796
1.18783
1.1877
1.18757
1.18745
1.18734
1.18723
1.18829
1.18816
1.18803
1.18789
1.18776
1.18763
1.1875
1.18736
1.18723
1.18711
1.18701
1.18691
1.18787
1.18774
1.18766
1.18763
1.18764
1.1877
1.18779
1.18795
1.18814
1.18842
1.18865
1.18889
1.18742
1.18728
1.18723
1.18723
1.1873
1.18742
1.18758
1.18779
1.18804
1.18834
1.18858
1.18878
1.18706
1.18691
1.18686
1.1869
1.187
1.18716
1.18736
1.18762
1.1879
1.1882
1.18845
1.18866
1.18676
1.18658
1.18655
1.18661
1.18673
1.18692
1.18715
1.18743
1.18773
1.18803
1.1883
1.18851
1.1885
1.18861
1.18867
1.1887
1.18868
1.18863
1.18854
1.18842
1.18829
1.18816
1.18802
1.18793
1.18834
1.18845
1.18851
1.18853
1.18851
1.18844
1.18833
1.1882
1.18805
1.18788
1.18767
1.1873
1.18817
1.18828
1.18834
1.18835
1.18832
1.18824
1.18812
1.18797
1.1878
1.18761
1.18737
1.1869
1.18799
1.18811
1.18816
1.18817
1.18812
1.18803
1.1879
1.18774
1.18755
1.18735
1.18711
1.18669
1.18782
1.18793
1.18798
1.18797
1.18792
1.18781
1.18767
1.1875
1.18732
1.18712
1.1869
1.18659
1.18764
1.18775
1.18779
1.18778
1.18771
1.1876
1.18745
1.18728
1.1871
1.18691
1.18674
1.18655
1.18747
1.18757
1.1876
1.18758
1.1875
1.18738
1.18723
1.18706
1.1869
1.18675
1.18664
1.18657
1.1873
1.1874
1.18742
1.18739
1.1873
1.18717
1.18703
1.18687
1.18674
1.18665
1.18661
1.18661
1.18715
1.18723
1.18725
1.1872
1.1871
1.18697
1.18684
1.18671
1.18663
1.18661
1.18662
1.18666
1.187
1.18707
1.18708
1.18702
1.18692
1.18679
1.18668
1.18661
1.18659
1.18662
1.18665
1.1867
1.18685
1.18692
1.18691
1.18685
1.18675
1.18664
1.18656
1.18656
1.1866
1.18665
1.18669
1.18673
1.18667
1.18672
1.1867
1.18663
1.18654
1.18648
1.18649
1.18657
1.18664
1.18669
1.18673
1.18676
1.18808
1.18807
1.18815
1.18827
1.18837
1.18845
1.1885
1.18851
1.18848
1.18842
1.18832
1.18819
1.18754
1.18784
1.18798
1.18812
1.18823
1.18831
1.18835
1.18835
1.1883
1.18821
1.1881
1.18796
1.18715
1.18758
1.18778
1.18794
1.18806
1.18814
1.18817
1.18815
1.18809
1.188
1.18788
1.18774
1.18685
1.18733
1.18757
1.18774
1.18786
1.18794
1.18796
1.18794
1.18787
1.18778
1.18766
1.18753
1.18661
1.18709
1.18735
1.18753
1.18765
1.18772
1.18774
1.18771
1.18765
1.18756
1.18745
1.18733
1.18641
1.18687
1.18712
1.1873
1.18742
1.18749
1.18751
1.18748
1.18743
1.18735
1.18725
1.18714
1.18625
1.18666
1.1869
1.18708
1.18719
1.18726
1.18727
1.18725
1.18721
1.18714
1.18706
1.18697
1.18612
1.18647
1.18669
1.18685
1.18696
1.18702
1.18704
1.18703
1.18699
1.18694
1.18688
1.18681
1.18602
1.18629
1.18648
1.18663
1.18673
1.18679
1.18682
1.18681
1.18679
1.18676
1.18671
1.18666
1.18595
1.18613
1.18629
1.18642
1.18652
1.18658
1.1866
1.18661
1.1866
1.18659
1.18656
1.18652
1.1859
1.18601
1.18612
1.18623
1.18631
1.18636
1.1864
1.18641
1.18642
1.18642
1.18641
1.18638
1.18587
1.18588
1.18592
1.18598
1.18603
1.18608
1.18611
1.18614
1.18617
1.18619
1.18621
1.18622
1.18805
1.1879
1.18776
1.18762
1.18748
1.18735
1.18721
1.18708
1.18694
1.1868
1.18666
1.18644
1.18781
1.18766
1.18752
1.18738
1.18724
1.1871
1.18697
1.18683
1.18669
1.18653
1.18634
1.18591
1.18759
1.18745
1.18731
1.18717
1.18703
1.18689
1.18676
1.18662
1.18647
1.18631
1.18612
1.18577
1.18739
1.18725
1.18712
1.18698
1.18685
1.18672
1.18658
1.18644
1.1863
1.18614
1.18599
1.18578
1.18721
1.18708
1.18695
1.18682
1.18669
1.18656
1.18643
1.1863
1.18616
1.18602
1.18592
1.18582
1.18703
1.18692
1.1868
1.18668
1.18656
1.18643
1.18631
1.18618
1.18606
1.18594
1.1859
1.18587
1.18688
1.18678
1.18667
1.18656
1.18644
1.18632
1.1862
1.18609
1.18599
1.1859
1.18591
1.18592
1.18673
1.18665
1.18655
1.18645
1.18634
1.18623
1.18612
1.18602
1.18595
1.1859
1.18594
1.18597
1.1866
1.18653
1.18645
1.18635
1.18625
1.18615
1.18606
1.18599
1.18594
1.18593
1.18598
1.18602
1.18648
1.18642
1.18635
1.18627
1.18618
1.1861
1.18603
1.18597
1.18596
1.18597
1.18602
1.18607
1.18635
1.18631
1.18626
1.18619
1.18611
1.18605
1.186
1.18597
1.18598
1.18601
1.18606
1.1861
1.18621
1.18619
1.18615
1.1861
1.18606
1.18603
1.18602
1.18603
1.18606
1.18608
1.18612
1.18614
1.18644
1.18627
1.18626
1.18634
1.18649
1.18669
1.18694
1.18723
1.18755
1.18786
1.18813
1.18835
1.18592
1.18596
1.186
1.1861
1.18626
1.18648
1.18674
1.18704
1.18736
1.18768
1.18796
1.18818
1.18556
1.18569
1.18577
1.18588
1.18605
1.18628
1.18655
1.18685
1.18718
1.1875
1.18778
1.188
1.18529
1.18547
1.18556
1.18568
1.18586
1.18609
1.18636
1.18667
1.187
1.18732
1.1876
1.18783
1.18512
1.18528
1.18538
1.18551
1.18569
1.18591
1.18619
1.1865
1.18682
1.18714
1.18742
1.18765
1.18502
1.18514
1.18523
1.18536
1.18553
1.18575
1.18603
1.18633
1.18665
1.18697
1.18725
1.18747
1.18496
1.18504
1.18512
1.18523
1.18539
1.18561
1.18587
1.18618
1.1865
1.18681
1.18708
1.1873
1.18492
1.18498
1.18503
1.18512
1.18527
1.18547
1.18573
1.18603
1.18635
1.18665
1.18692
1.18714
1.18489
1.18493
1.18497
1.18504
1.18516
1.18535
1.1856
1.18589
1.18621
1.18651
1.18677
1.18699
1.18486
1.1849
1.18493
1.18498
1.18507
1.18523
1.18547
1.18576
1.18608
1.18637
1.18664
1.18685
1.18484
1.18488
1.1849
1.18493
1.185
1.18513
1.18535
1.18564
1.18595
1.18624
1.1865
1.18671
1.18483
1.18486
1.18488
1.1849
1.18494
1.18502
1.18519
1.18547
1.18578
1.18606
1.18632
1.18653
1.1885
1.18861
1.18867
1.1887
1.18868
1.18863
1.18854
1.18842
1.18829
1.18816
1.18802
1.18793
1.18834
1.18845
1.18851
1.18853
1.18851
1.18844
1.18833
1.1882
1.18805
1.18788
1.18767
1.18729
1.18817
1.18828
1.18834
1.18835
1.18832
1.18824
1.18812
1.18797
1.1878
1.18761
1.18737
1.1869
1.18799
1.18811
1.18816
1.18817
1.18812
1.18803
1.1879
1.18774
1.18755
1.18735
1.18711
1.18669
1.18782
1.18793
1.18798
1.18797
1.18792
1.18781
1.18767
1.1875
1.18732
1.18712
1.1869
1.18659
1.18764
1.18775
1.18779
1.18778
1.18771
1.1876
1.18745
1.18728
1.18709
1.18691
1.18674
1.18655
1.18747
1.18757
1.1876
1.18758
1.1875
1.18738
1.18723
1.18706
1.1869
1.18675
1.18664
1.18657
1.1873
1.18739
1.18742
1.18738
1.1873
1.18717
1.18702
1.18687
1.18674
1.18665
1.18661
1.18661
1.18715
1.18723
1.18724
1.1872
1.1871
1.18697
1.18684
1.18671
1.18663
1.18661
1.18662
1.18666
1.187
1.18707
1.18708
1.18702
1.18692
1.18679
1.18668
1.1866
1.18659
1.18662
1.18665
1.1867
1.18685
1.18692
1.18691
1.18685
1.18674
1.18664
1.18656
1.18656
1.1866
1.18665
1.18669
1.18673
1.18666
1.18672
1.1867
1.18663
1.18654
1.18648
1.18649
1.18657
1.18664
1.18669
1.18673
1.18676
1.18808
1.18807
1.18815
1.18826
1.18837
1.18845
1.1885
1.18851
1.18848
1.18842
1.18832
1.18819
1.18754
1.18783
1.18798
1.18812
1.18823
1.18831
1.18835
1.18834
1.18829
1.18821
1.1881
1.18796
1.18715
1.18758
1.18778
1.18794
1.18806
1.18814
1.18817
1.18815
1.18809
1.188
1.18788
1.18774
1.18685
1.18733
1.18757
1.18774
1.18786
1.18794
1.18796
1.18793
1.18787
1.18778
1.18766
1.18753
1.18661
1.18709
1.18735
1.18753
1.18765
1.18772
1.18774
1.18771
1.18765
1.18756
1.18745
1.18733
1.18641
1.18687
1.18712
1.1873
1.18742
1.18749
1.18751
1.18748
1.18742
1.18735
1.18725
1.18714
1.18625
1.18666
1.1869
1.18708
1.18719
1.18725
1.18727
1.18725
1.18721
1.18714
1.18706
1.18697
1.18612
1.18647
1.18669
1.18685
1.18696
1.18702
1.18704
1.18703
1.18699
1.18694
1.18688
1.18681
1.18602
1.18629
1.18648
1.18663
1.18673
1.18679
1.18682
1.18682
1.18679
1.18676
1.18671
1.18666
1.18595
1.18613
1.18629
1.18642
1.18652
1.18658
1.18661
1.18661
1.18661
1.18659
1.18656
1.18652
1.1859
1.18601
1.18612
1.18623
1.18631
1.18637
1.1864
1.18641
1.18642
1.18642
1.18641
1.18639
1.18587
1.18588
1.18592
1.18598
1.18603
1.18608
1.18611
1.18614
1.18617
1.18619
1.18621
1.18622
1.18804
1.1879
1.18776
1.18762
1.18748
1.18735
1.18721
1.18708
1.18694
1.1868
1.18666
1.18644
1.18781
1.18766
1.18752
1.18738
1.18724
1.1871
1.18697
1.18683
1.18669
1.18653
1.18634
1.18591
1.18759
1.18745
1.18731
1.18717
1.18703
1.18689
1.18676
1.18662
1.18648
1.18631
1.18612
1.18577
1.18739
1.18725
1.18712
1.18698
1.18685
1.18672
1.18658
1.18644
1.1863
1.18614
1.18599
1.18578
1.18721
1.18708
1.18695
1.18682
1.18669
1.18656
1.18643
1.1863
1.18617
1.18602
1.18592
1.18582
1.18704
1.18692
1.1868
1.18668
1.18656
1.18643
1.18631
1.18618
1.18606
1.18594
1.1859
1.18587
1.18688
1.18678
1.18667
1.18656
1.18644
1.18632
1.18621
1.18609
1.18599
1.18591
1.18591
1.18592
1.18673
1.18665
1.18655
1.18645
1.18634
1.18623
1.18612
1.18602
1.18595
1.1859
1.18594
1.18597
1.1866
1.18653
1.18645
1.18635
1.18625
1.18616
1.18607
1.18599
1.18594
1.18593
1.18598
1.18602
1.18648
1.18642
1.18635
1.18627
1.18618
1.1861
1.18603
1.18598
1.18596
1.18597
1.18602
1.18607
1.18636
1.18632
1.18626
1.18619
1.18612
1.18605
1.186
1.18598
1.18598
1.18601
1.18606
1.1861
1.18621
1.18619
1.18616
1.18611
1.18606
1.18603
1.18602
1.18603
1.18606
1.18608
1.18612
1.18614
1.18644
1.18627
1.18626
1.18634
1.18649
1.18669
1.18695
1.18724
1.18755
1.18786
1.18813
1.18835
1.18592
1.18597
1.186
1.1861
1.18626
1.18648
1.18674
1.18704
1.18736
1.18768
1.18796
1.18818
1.18556
1.1857
1.18577
1.18588
1.18605
1.18628
1.18655
1.18686
1.18718
1.1875
1.18778
1.188
1.18529
1.18547
1.18556
1.18569
1.18586
1.18609
1.18637
1.18667
1.187
1.18732
1.1876
1.18783
1.18512
1.18529
1.18538
1.18551
1.18569
1.18592
1.18619
1.1865
1.18682
1.18714
1.18742
1.18765
1.18502
1.18514
1.18524
1.18536
1.18553
1.18576
1.18603
1.18633
1.18665
1.18697
1.18725
1.18747
1.18496
1.18504
1.18512
1.18523
1.18539
1.18561
1.18587
1.18618
1.1865
1.18681
1.18708
1.18731
1.18492
1.18498
1.18503
1.18512
1.18527
1.18547
1.18573
1.18603
1.18635
1.18666
1.18692
1.18714
1.18489
1.18493
1.18497
1.18504
1.18516
1.18535
1.1856
1.1859
1.18621
1.18651
1.18678
1.18699
1.18486
1.1849
1.18493
1.18498
1.18507
1.18524
1.18547
1.18577
1.18608
1.18638
1.18664
1.18685
1.18484
1.18488
1.1849
1.18493
1.185
1.18513
1.18535
1.18564
1.18595
1.18624
1.1865
1.18671
1.18483
1.18486
1.18488
1.1849
1.18494
1.18502
1.1852
1.18548
1.18578
1.18606
1.18632
1.18654
)
;

boundaryField
{
    rotor
    {
        type            calculated;
        value           nonuniform List<scalar> 
192
(
1.17033
1.17005
1.16992
1.16982
1.1701
1.17099
1.17165
1.17113
1.17105
1.17115
1.17109
1.17117
1.17134
1.17164
1.17208
1.17265
1.17325
1.1739
1.17451
1.17505
1.17533
1.17533
1.17509
1.17444
1.1704
1.17013
1.16999
1.1699
1.17013
1.17084
1.17178
1.17107
1.17098
1.17106
1.17104
1.17111
1.17126
1.17154
1.17192
1.17244
1.17299
1.17357
1.17413
1.1746
1.17484
1.17481
1.17456
1.17394
1.17033
1.17005
1.16992
1.16982
1.1701
1.17099
1.17165
1.17113
1.17105
1.17115
1.17109
1.17117
1.17134
1.17164
1.17208
1.17265
1.17325
1.1739
1.17451
1.17505
1.17533
1.17533
1.17509
1.17444
1.1704
1.17013
1.16999
1.1699
1.17013
1.17084
1.17178
1.17107
1.17098
1.17106
1.17104
1.17111
1.17126
1.17154
1.17192
1.17244
1.17299
1.17357
1.17413
1.1746
1.17484
1.17481
1.17456
1.17394
1.17033
1.17179
1.17324
1.17512
1.17673
1.17838
1.18
1.18178
1.18362
1.18566
1.18721
1.18698
1.17394
1.17496
1.17532
1.17615
1.1776
1.17952
1.18191
1.18469
1.18784
1.19094
1.19372
1.19583
1.1704
1.17183
1.17325
1.1751
1.17669
1.17835
1.17997
1.18175
1.18359
1.18564
1.1872
1.18699
1.17444
1.17543
1.17571
1.17651
1.17796
1.17991
1.18234
1.1852
1.18841
1.19156
1.19434
1.19635
1.17033
1.17179
1.17324
1.17512
1.17673
1.17838
1.18
1.18178
1.18362
1.18566
1.18721
1.18698
1.17394
1.17496
1.17532
1.17615
1.1776
1.17952
1.1819
1.18469
1.18784
1.19094
1.19372
1.19583
1.1704
1.17183
1.17325
1.17511
1.17669
1.17835
1.17997
1.18175
1.18359
1.18564
1.1872
1.18699
1.17444
1.17543
1.17571
1.17651
1.17796
1.17991
1.18234
1.1852
1.18841
1.19156
1.19433
1.19635
)
;
    }
    stator
    {
        type            calculated;
        value           nonuniform List<scalar> 
192
(
1.18667
1.18672
1.1867
1.18663
1.18654
1.18648
1.18649
1.18657
1.18664
1.18669
1.18673
1.18676
1.18587
1.18588
1.18592
1.18598
1.18603
1.18608
1.18611
1.18614
1.18617
1.18619
1.18621
1.18622
1.18621
1.18619
1.18615
1.1861
1.18606
1.18603
1.18602
1.18603
1.18606
1.18608
1.18612
1.18614
1.18483
1.18486
1.18488
1.1849
1.18494
1.18502
1.18519
1.18547
1.18578
1.18606
1.18632
1.18653
1.18666
1.18672
1.1867
1.18663
1.18654
1.18648
1.18649
1.18657
1.18664
1.18669
1.18673
1.18676
1.18587
1.18588
1.18592
1.18598
1.18603
1.18608
1.18611
1.18614
1.18617
1.18619
1.18621
1.18622
1.18621
1.18619
1.18616
1.18611
1.18606
1.18603
1.18602
1.18603
1.18606
1.18608
1.18612
1.18614
1.18483
1.18486
1.18488
1.1849
1.18494
1.18502
1.1852
1.18548
1.18578
1.18606
1.18632
1.18654
1.18808
1.18754
1.18715
1.18685
1.18661
1.18641
1.18625
1.18612
1.18602
1.18595
1.1859
1.18587
1.18793
1.1873
1.1869
1.18669
1.18659
1.18655
1.18657
1.18661
1.18666
1.1867
1.18673
1.18676
1.18644
1.18592
1.18556
1.18529
1.18512
1.18502
1.18496
1.18492
1.18489
1.18486
1.18484
1.18483
1.18644
1.18591
1.18577
1.18578
1.18582
1.18587
1.18592
1.18597
1.18602
1.18607
1.1861
1.18614
1.18808
1.18754
1.18715
1.18685
1.18661
1.18641
1.18625
1.18612
1.18602
1.18595
1.1859
1.18587
1.18793
1.18729
1.1869
1.18669
1.18659
1.18655
1.18657
1.18661
1.18666
1.1867
1.18673
1.18676
1.18644
1.18592
1.18556
1.18529
1.18512
1.18502
1.18496
1.18492
1.18489
1.18486
1.18484
1.18483
1.18644
1.18591
1.18577
1.18578
1.18582
1.18587
1.18592
1.18597
1.18602
1.18607
1.1861
1.18614
)
;
    }
    front
    {
        type            empty;
    }
    back
    {
        type            empty;
    }
}


// ************************************************************************* //
