/*--------------------------------*- C++ -*----------------------------------*\
| =========                 |                                                 |
| \\      /  F ield         | OpenFOAM: The Open Source CFD Toolbox           |
|  \\    /   O peration     | Version:  2212                                  |
|   \\  /    A nd           | Website:  www.openfoam.com                      |
|    \\/     M anipulation  |                                                 |
\*---------------------------------------------------------------------------*/
FoamFile
{
    version     2.0;
    format      ascii;
    arch        "LSB;label=32;scalar=64";
    class       volScalarField;
    location    "0.01";
    object      T;
}
// * * * * * * * * * * * * * * * * * * * * * * * * * * * * * * * * * * * * * //

dimensions      [0 0 0 1 0 0 0];

internalField   nonuniform List<scalar> 
3072
(
291.875
291.872
291.86
291.845
291.791
291.586
291.354
291.603
291.632
291.473
291.333
291.18
291.727
291.71
291.645
291.524
291.557
291.485
291.431
291.456
291.416
291.333
291.288
291.225
291.631
291.627
291.563
291.488
291.455
291.42
291.395
291.371
291.348
291.321
291.299
291.274
291.583
291.574
291.518
291.473
291.453
291.424
291.401
291.377
291.359
291.344
291.334
291.323
291.538
291.528
291.5
291.471
291.457
291.436
291.418
291.402
291.393
291.386
291.379
291.373
291.48
291.476
291.475
291.467
291.465
291.456
291.446
291.437
291.432
291.428
291.424
291.421
291.413
291.413
291.437
291.455
291.468
291.474
291.474
291.472
291.471
291.469
291.468
291.468
291.324
291.342
291.386
291.429
291.466
291.487
291.5
291.506
291.509
291.511
291.513
291.514
291.245
291.255
291.338
291.412
291.469
291.506
291.529
291.543
291.551
291.556
291.559
291.563
291.102
291.244
291.353
291.439
291.503
291.549
291.577
291.593
291.602
291.607
291.611
291.615
291.15
291.333
291.459
291.538
291.593
291.629
291.649
291.659
291.663
291.664
291.666
291.671
291.491
291.591
291.659
291.683
291.701
291.714
291.721
291.722
291.721
291.719
291.72
291.726
291.083
291.014
290.985
290.977
291.027
291.098
291.219
291.358
291.54
291.734
291.923
292.006
291.191
291.167
291.155
291.149
291.161
291.195
291.251
291.329
291.424
291.571
291.781
291.882
291.256
291.242
291.234
291.23
291.236
291.254
291.285
291.328
291.384
291.454
291.573
291.707
291.314
291.308
291.304
291.303
291.309
291.322
291.34
291.362
291.388
291.416
291.471
291.526
291.369
291.366
291.365
291.367
291.371
291.378
291.386
291.393
291.397
291.398
291.397
291.368
291.42
291.419
291.421
291.424
291.427
291.43
291.43
291.425
291.414
291.394
291.361
291.26
291.469
291.471
291.474
291.478
291.482
291.483
291.478
291.465
291.442
291.404
291.348
291.2
291.517
291.522
291.528
291.535
291.54
291.541
291.535
291.517
291.484
291.434
291.358
291.182
291.568
291.575
291.585
291.595
291.604
291.608
291.602
291.582
291.543
291.485
291.397
291.208
291.622
291.632
291.646
291.662
291.676
291.683
291.68
291.66
291.62
291.558
291.469
291.315
291.68
291.694
291.713
291.736
291.755
291.767
291.767
291.751
291.712
291.651
291.57
291.459
291.738
291.759
291.786
291.815
291.839
291.855
291.858
291.847
291.815
291.756
291.692
291.685
291.876
291.872
291.861
291.846
291.791
291.586
291.355
291.603
291.632
291.473
291.332
291.18
291.728
291.711
291.645
291.525
291.558
291.485
291.431
291.457
291.416
291.333
291.288
291.225
291.631
291.628
291.563
291.488
291.455
291.42
291.395
291.371
291.348
291.321
291.299
291.274
291.584
291.574
291.518
291.473
291.453
291.425
291.401
291.378
291.359
291.344
291.334
291.323
291.538
291.529
291.5
291.471
291.457
291.436
291.419
291.403
291.393
291.386
291.379
291.374
291.481
291.476
291.475
291.468
291.466
291.457
291.447
291.438
291.432
291.428
291.424
291.422
291.413
291.414
291.438
291.456
291.469
291.474
291.474
291.473
291.471
291.47
291.469
291.468
291.325
291.342
291.387
291.43
291.466
291.488
291.5
291.506
291.51
291.512
291.513
291.515
291.246
291.256
291.338
291.413
291.47
291.506
291.53
291.544
291.552
291.556
291.56
291.563
291.102
291.245
291.353
291.439
291.504
291.549
291.578
291.594
291.602
291.607
291.611
291.616
291.15
291.334
291.459
291.539
291.594
291.629
291.649
291.659
291.663
291.664
291.667
291.672
291.492
291.591
291.659
291.683
291.702
291.714
291.721
291.723
291.721
291.72
291.721
291.727
291.083
291.014
290.985
290.977
291.026
291.098
291.219
291.358
291.54
291.734
291.924
292.006
291.191
291.167
291.155
291.149
291.161
291.195
291.251
291.329
291.424
291.571
291.781
291.882
291.256
291.242
291.234
291.23
291.236
291.254
291.285
291.329
291.384
291.454
291.573
291.707
291.314
291.308
291.304
291.304
291.31
291.322
291.34
291.363
291.388
291.416
291.471
291.526
291.369
291.366
291.365
291.367
291.371
291.378
291.386
291.393
291.397
291.398
291.397
291.368
291.42
291.42
291.421
291.424
291.427
291.43
291.43
291.426
291.414
291.394
291.361
291.26
291.469
291.471
291.474
291.479
291.482
291.483
291.479
291.466
291.442
291.404
291.348
291.2
291.518
291.522
291.528
291.535
291.541
291.542
291.535
291.517
291.484
291.435
291.358
291.182
291.569
291.576
291.585
291.596
291.605
291.608
291.602
291.582
291.543
291.486
291.398
291.209
291.623
291.633
291.646
291.663
291.676
291.684
291.68
291.661
291.62
291.558
291.469
291.315
291.68
291.694
291.714
291.736
291.756
291.768
291.768
291.752
291.713
291.651
291.571
291.459
291.739
291.759
291.787
291.815
291.839
291.855
291.858
291.848
291.815
291.756
291.692
291.686
291.876
291.872
291.861
291.846
291.791
291.586
291.354
291.603
291.632
291.473
291.333
291.18
291.728
291.711
291.645
291.525
291.557
291.485
291.431
291.457
291.416
291.333
291.288
291.225
291.631
291.628
291.563
291.488
291.455
291.42
291.395
291.371
291.348
291.322
291.299
291.274
291.584
291.574
291.518
291.473
291.453
291.425
291.401
291.378
291.359
291.344
291.334
291.323
291.538
291.529
291.5
291.471
291.457
291.436
291.419
291.402
291.393
291.386
291.379
291.374
291.481
291.476
291.475
291.468
291.466
291.457
291.446
291.438
291.432
291.428
291.424
291.422
291.413
291.414
291.438
291.455
291.469
291.474
291.474
291.473
291.471
291.47
291.469
291.468
291.325
291.342
291.387
291.43
291.466
291.488
291.5
291.506
291.51
291.511
291.513
291.515
291.246
291.256
291.338
291.413
291.47
291.506
291.53
291.544
291.552
291.556
291.56
291.563
291.102
291.245
291.353
291.439
291.504
291.549
291.578
291.594
291.602
291.607
291.611
291.616
291.15
291.334
291.459
291.539
291.594
291.629
291.649
291.659
291.663
291.664
291.667
291.672
291.492
291.591
291.659
291.683
291.702
291.714
291.721
291.723
291.721
291.72
291.721
291.727
291.083
291.014
290.985
290.977
291.027
291.098
291.219
291.358
291.54
291.734
291.924
292.006
291.191
291.167
291.155
291.149
291.161
291.195
291.251
291.329
291.424
291.571
291.781
291.882
291.256
291.242
291.234
291.23
291.236
291.254
291.285
291.329
291.384
291.454
291.573
291.707
291.314
291.308
291.304
291.304
291.31
291.322
291.34
291.363
291.388
291.416
291.471
291.526
291.369
291.366
291.365
291.367
291.371
291.378
291.386
291.393
291.397
291.398
291.397
291.368
291.42
291.42
291.421
291.424
291.427
291.43
291.43
291.426
291.414
291.394
291.361
291.26
291.469
291.471
291.474
291.479
291.482
291.483
291.479
291.466
291.442
291.404
291.348
291.2
291.518
291.522
291.528
291.535
291.541
291.542
291.535
291.517
291.484
291.435
291.358
291.182
291.568
291.576
291.585
291.596
291.605
291.608
291.602
291.582
291.543
291.486
291.398
291.209
291.623
291.633
291.646
291.662
291.676
291.684
291.68
291.661
291.62
291.558
291.469
291.315
291.68
291.694
291.714
291.736
291.755
291.768
291.767
291.752
291.713
291.651
291.571
291.459
291.739
291.759
291.787
291.815
291.839
291.855
291.858
291.848
291.815
291.756
291.692
291.686
291.876
291.872
291.861
291.846
291.791
291.586
291.354
291.603
291.632
291.473
291.333
291.18
291.728
291.711
291.645
291.525
291.558
291.485
291.431
291.457
291.416
291.333
291.288
291.225
291.631
291.628
291.563
291.488
291.455
291.42
291.395
291.371
291.348
291.322
291.299
291.274
291.584
291.574
291.518
291.473
291.453
291.425
291.401
291.378
291.359
291.344
291.334
291.323
291.538
291.529
291.5
291.471
291.457
291.436
291.419
291.403
291.393
291.386
291.379
291.374
291.481
291.476
291.475
291.468
291.466
291.457
291.446
291.438
291.432
291.428
291.424
291.422
291.413
291.414
291.438
291.455
291.469
291.474
291.474
291.473
291.471
291.47
291.469
291.468
291.325
291.342
291.387
291.43
291.466
291.488
291.5
291.506
291.51
291.511
291.513
291.515
291.246
291.256
291.338
291.413
291.47
291.506
291.53
291.544
291.552
291.556
291.56
291.563
291.102
291.245
291.353
291.439
291.504
291.549
291.578
291.594
291.602
291.607
291.611
291.616
291.15
291.334
291.459
291.539
291.594
291.629
291.649
291.659
291.663
291.664
291.667
291.672
291.492
291.591
291.659
291.683
291.702
291.714
291.721
291.723
291.721
291.72
291.721
291.727
291.083
291.014
290.985
290.977
291.027
291.098
291.219
291.358
291.54
291.734
291.923
292.006
291.192
291.167
291.155
291.149
291.162
291.196
291.251
291.329
291.424
291.571
291.781
291.882
291.256
291.243
291.234
291.23
291.236
291.254
291.285
291.329
291.385
291.454
291.573
291.707
291.314
291.308
291.304
291.304
291.31
291.322
291.34
291.363
291.388
291.416
291.471
291.526
291.369
291.366
291.365
291.367
291.372
291.378
291.386
291.393
291.397
291.398
291.397
291.368
291.42
291.42
291.421
291.424
291.427
291.43
291.43
291.426
291.414
291.394
291.361
291.26
291.469
291.471
291.474
291.479
291.482
291.483
291.479
291.466
291.442
291.404
291.348
291.2
291.518
291.522
291.528
291.535
291.541
291.542
291.535
291.517
291.484
291.435
291.358
291.182
291.568
291.576
291.585
291.596
291.605
291.608
291.602
291.582
291.543
291.486
291.398
291.209
291.623
291.633
291.646
291.662
291.676
291.683
291.68
291.661
291.62
291.558
291.469
291.315
291.68
291.694
291.714
291.736
291.755
291.767
291.767
291.752
291.713
291.651
291.57
291.459
291.739
291.759
291.787
291.815
291.839
291.855
291.858
291.848
291.815
291.756
291.692
291.685
291.826
291.778
291.748
291.738
291.741
291.746
291.752
291.756
291.758
291.759
291.764
291.775
291.909
291.874
291.83
291.796
291.776
291.766
291.766
291.77
291.775
291.784
291.798
291.823
291.946
291.921
291.888
291.854
291.826
291.805
291.796
291.798
291.806
291.821
291.847
291.886
291.968
291.949
291.925
291.9
291.878
291.861
291.856
291.862
291.875
291.899
291.933
291.978
291.796
291.829
291.864
291.897
291.922
291.939
291.944
291.938
291.916
291.866
291.828
291.848
291.86
291.903
291.943
291.975
291.998
292.013
292.018
292.013
291.998
291.956
291.914
291.918
291.935
291.983
292.019
292.045
292.062
292.072
292.074
292.068
292.054
292.019
291.973
291.958
292.027
292.066
292.091
292.106
292.115
292.117
292.114
292.103
292.083
292.051
292.007
291.982
291.826
291.778
291.748
291.738
291.741
291.746
291.752
291.756
291.758
291.759
291.764
291.776
291.909
291.874
291.83
291.796
291.776
291.766
291.766
291.77
291.775
291.784
291.799
291.823
291.946
291.921
291.888
291.854
291.826
291.805
291.796
291.799
291.806
291.822
291.848
291.887
291.968
291.948
291.925
291.9
291.878
291.861
291.856
291.862
291.876
291.899
291.933
291.979
291.797
291.829
291.864
291.897
291.923
291.94
291.945
291.938
291.916
291.866
291.828
291.849
291.86
291.903
291.943
291.975
291.999
292.013
292.018
292.013
291.998
291.956
291.915
291.918
291.936
291.983
292.019
292.045
292.062
292.072
292.074
292.068
292.054
292.02
291.973
291.958
292.027
292.066
292.091
292.107
292.115
292.117
292.114
292.103
292.084
292.052
292.008
291.982
291.827
291.778
291.748
291.738
291.741
291.746
291.753
291.756
291.758
291.759
291.764
291.776
291.91
291.874
291.831
291.797
291.777
291.767
291.767
291.77
291.775
291.784
291.799
291.823
291.946
291.921
291.888
291.854
291.826
291.806
291.796
291.799
291.807
291.822
291.848
291.887
291.968
291.949
291.925
291.901
291.879
291.861
291.856
291.862
291.876
291.899
291.933
291.979
291.797
291.829
291.864
291.897
291.923
291.94
291.945
291.938
291.916
291.866
291.828
291.849
291.86
291.903
291.943
291.975
291.999
292.013
292.018
292.013
291.998
291.956
291.915
291.918
291.936
291.983
292.019
292.045
292.062
292.072
292.074
292.068
292.054
292.02
291.973
291.958
292.027
292.066
292.091
292.107
292.115
292.117
292.114
292.103
292.084
292.052
292.008
291.982
291.827
291.778
291.748
291.738
291.741
291.746
291.753
291.756
291.758
291.759
291.764
291.776
291.91
291.874
291.831
291.797
291.777
291.767
291.767
291.77
291.775
291.784
291.798
291.823
291.946
291.921
291.888
291.854
291.826
291.806
291.796
291.799
291.806
291.822
291.848
291.887
291.968
291.949
291.925
291.901
291.879
291.861
291.856
291.862
291.876
291.899
291.933
291.979
291.797
291.829
291.864
291.897
291.923
291.94
291.944
291.938
291.916
291.866
291.828
291.848
291.86
291.903
291.943
291.975
291.998
292.013
292.018
292.013
291.998
291.956
291.914
291.918
291.936
291.983
292.019
292.045
292.062
292.072
292.074
292.068
292.054
292.019
291.973
291.958
292.027
292.066
292.091
292.106
292.115
292.117
292.114
292.103
292.083
292.051
292.007
291.982
291.984
291.97
291.956
291.946
291.94
291.938
291.946
291.961
291.981
292.009
292.044
292.082
292.024
292.017
292.012
292.01
292.013
292.023
292.039
292.06
292.084
292.113
292.143
292.17
292.081
292.079
292.081
292.088
292.1
292.118
292.14
292.166
292.193
292.22
292.24
292.246
292.149
292.154
292.164
292.179
292.2
292.225
292.254
292.286
292.316
292.342
292.349
292.329
292.121
292.151
292.164
292.167
292.165
292.155
292.14
292.118
292.09
292.057
292.022
291.998
292.195
292.215
292.219
292.212
292.202
292.184
292.163
292.136
292.106
292.076
292.05
292.034
292.25
292.261
292.261
292.246
292.233
292.211
292.188
292.162
292.136
292.112
292.096
292.086
292.3
292.297
292.296
292.278
292.263
292.242
292.221
292.199
292.179
292.165
292.155
292.15
291.984
291.97
291.956
291.947
291.94
291.938
291.946
291.961
291.982
292.009
292.044
292.083
292.024
292.017
292.012
292.01
292.013
292.023
292.039
292.06
292.085
292.113
292.143
292.171
292.081
292.079
292.081
292.088
292.1
292.118
292.141
292.166
292.194
292.22
292.24
292.247
292.149
292.155
292.164
292.18
292.2
292.225
292.254
292.286
292.317
292.342
292.349
292.329
292.121
292.151
292.164
292.167
292.165
292.155
292.14
292.118
292.09
292.057
292.022
291.999
292.195
292.215
292.219
292.212
292.202
292.185
292.163
292.136
292.106
292.076
292.05
292.034
292.25
292.261
292.261
292.246
292.233
292.211
292.188
292.162
292.136
292.112
292.096
292.086
292.3
292.297
292.297
292.278
292.263
292.242
292.221
292.199
292.179
292.165
292.155
292.15
291.985
291.97
291.956
291.947
291.94
291.938
291.946
291.961
291.982
292.009
292.044
292.083
292.024
292.017
292.012
292.01
292.013
292.023
292.039
292.06
292.085
292.113
292.143
292.171
292.081
292.08
292.081
292.088
292.1
292.118
292.141
292.166
292.194
292.22
292.24
292.247
292.149
292.155
292.164
292.179
292.2
292.225
292.254
292.286
292.316
292.342
292.349
292.329
292.121
292.151
292.164
292.167
292.165
292.155
292.14
292.118
292.09
292.057
292.022
291.999
292.195
292.215
292.219
292.212
292.202
292.185
292.163
292.136
292.106
292.076
292.05
292.034
292.25
292.261
292.261
292.246
292.233
292.211
292.188
292.162
292.136
292.112
292.096
292.086
292.3
292.297
292.296
292.278
292.263
292.242
292.221
292.199
292.179
292.165
292.155
292.15
291.985
291.97
291.956
291.947
291.94
291.938
291.946
291.961
291.982
292.009
292.044
292.082
292.024
292.017
292.012
292.01
292.013
292.023
292.039
292.06
292.084
292.113
292.143
292.17
292.081
292.079
292.081
292.088
292.1
292.118
292.14
292.166
292.193
292.22
292.24
292.246
292.149
292.155
292.164
292.179
292.2
292.225
292.254
292.285
292.316
292.342
292.349
292.329
292.121
292.151
292.164
292.167
292.165
292.155
292.14
292.118
292.09
292.057
292.022
291.998
292.195
292.215
292.219
292.212
292.202
292.184
292.163
292.136
292.106
292.076
292.05
292.034
292.25
292.261
292.261
292.246
292.232
292.211
292.188
292.162
292.136
292.112
292.096
292.086
292.3
292.297
292.296
292.278
292.263
292.242
292.221
292.198
292.179
292.164
292.155
292.149
292.23
292.242
292.26
292.283
292.312
292.346
292.384
292.425
292.467
292.506
292.539
292.56
292.32
292.34
292.366
292.399
292.437
292.481
292.531
292.587
292.648
292.697
292.72
292.733
292.418
292.446
292.48
292.52
292.567
292.62
292.678
292.728
292.747
292.754
292.756
292.759
292.519
292.553
292.594
292.639
292.689
292.733
292.752
292.756
292.756
292.758
292.758
292.759
292.617
292.655
292.695
292.731
292.747
292.751
292.752
292.752
292.753
292.754
292.755
292.756
292.701
292.728
292.741
292.744
292.744
292.745
292.746
292.746
292.747
292.748
292.749
292.75
292.735
292.737
292.738
292.739
292.74
292.74
292.741
292.742
292.743
292.743
292.744
292.745
292.733
292.734
292.735
292.735
292.736
292.737
292.738
292.738
292.739
292.74
292.741
292.742
292.73
292.731
292.731
292.732
292.733
292.734
292.735
292.735
292.736
292.737
292.738
292.738
292.726
292.727
292.728
292.729
292.73
292.73
292.731
292.732
292.733
292.733
292.734
292.735
292.724
292.724
292.725
292.726
292.727
292.728
292.729
292.73
292.73
292.731
292.732
292.732
292.722
292.723
292.724
292.725
292.726
292.726
292.728
292.728
292.729
292.73
292.73
292.731
292.355
292.335
292.331
292.312
292.298
292.28
292.263
292.247
292.235
292.227
292.222
292.222
292.389
292.374
292.367
292.352
292.339
292.326
292.315
292.306
292.299
292.296
292.297
292.305
292.42
292.413
292.407
292.397
292.389
292.381
292.375
292.37
292.369
292.372
292.381
292.396
292.453
292.454
292.453
292.447
292.443
292.44
292.438
292.438
292.443
292.453
292.469
292.491
292.49
292.502
292.504
292.501
292.5
292.5
292.504
292.51
292.521
292.537
292.558
292.585
292.533
292.555
292.557
292.556
292.557
292.562
292.571
292.582
292.598
292.617
292.642
292.671
292.583
292.61
292.611
292.611
292.614
292.622
292.635
292.65
292.668
292.688
292.709
292.728
292.639
292.663
292.663
292.663
292.667
292.677
292.691
292.705
292.717
292.727
292.731
292.733
292.694
292.708
292.706
292.706
292.708
292.715
292.722
292.727
292.728
292.728
292.729
292.729
292.736
292.728
292.727
292.724
292.724
292.724
292.724
292.724
292.725
292.725
292.725
292.726
292.735
292.73
292.728
292.724
292.723
292.722
292.722
292.722
292.722
292.722
292.723
292.723
292.767
292.711
292.728
292.722
292.721
292.72
292.72
292.72
292.72
292.721
292.721
292.722
292.23
292.242
292.26
292.284
292.313
292.347
292.385
292.426
292.467
292.507
292.54
292.56
292.32
292.34
292.366
292.399
292.437
292.482
292.532
292.587
292.648
292.697
292.721
292.733
292.418
292.446
292.48
292.521
292.568
292.62
292.679
292.729
292.748
292.755
292.757
292.759
292.519
292.554
292.594
292.639
292.689
292.733
292.752
292.756
292.756
292.758
292.758
292.759
292.618
292.655
292.695
292.731
292.747
292.751
292.752
292.752
292.753
292.754
292.755
292.756
292.702
292.728
292.741
292.744
292.745
292.745
292.746
292.747
292.747
292.748
292.749
292.75
292.736
292.738
292.739
292.739
292.74
292.741
292.741
292.742
292.743
292.744
292.745
292.745
292.733
292.734
292.735
292.736
292.737
292.737
292.738
292.739
292.74
292.74
292.741
292.742
292.73
292.731
292.732
292.733
292.733
292.734
292.735
292.736
292.737
292.737
292.738
292.739
292.726
292.727
292.728
292.729
292.73
292.731
292.731
292.732
292.733
292.734
292.735
292.735
292.724
292.725
292.726
292.727
292.728
292.728
292.729
292.73
292.731
292.732
292.732
292.733
292.722
292.723
292.724
292.725
292.726
292.727
292.728
292.729
292.729
292.73
292.731
292.731
292.355
292.335
292.331
292.312
292.298
292.28
292.263
292.247
292.235
292.227
292.222
292.222
292.39
292.374
292.367
292.352
292.339
292.326
292.315
292.306
292.299
292.296
292.297
292.305
292.421
292.413
292.407
292.397
292.389
292.381
292.375
292.37
292.369
292.371
292.381
292.396
292.453
292.454
292.453
292.447
292.443
292.439
292.438
292.438
292.443
292.453
292.469
292.491
292.49
292.502
292.504
292.501
292.5
292.5
292.503
292.51
292.521
292.537
292.558
292.585
292.533
292.555
292.557
292.556
292.557
292.562
292.57
292.582
292.597
292.617
292.642
292.671
292.583
292.61
292.611
292.611
292.614
292.622
292.635
292.65
292.667
292.688
292.709
292.727
292.639
292.663
292.663
292.663
292.667
292.677
292.691
292.705
292.716
292.726
292.731
292.732
292.694
292.708
292.706
292.705
292.708
292.715
292.722
292.726
292.727
292.728
292.729
292.729
292.736
292.728
292.726
292.724
292.724
292.724
292.724
292.724
292.724
292.725
292.725
292.725
292.735
292.73
292.728
292.723
292.723
292.722
292.722
292.721
292.722
292.722
292.722
292.723
292.766
292.71
292.728
292.722
292.721
292.72
292.72
292.72
292.72
292.72
292.721
292.721
292.23
292.242
292.26
292.284
292.313
292.347
292.385
292.425
292.467
292.507
292.539
292.56
292.32
292.34
292.366
292.399
292.437
292.481
292.532
292.587
292.648
292.697
292.72
292.733
292.418
292.446
292.48
292.52
292.567
292.62
292.678
292.728
292.747
292.754
292.756
292.759
292.519
292.553
292.594
292.639
292.689
292.733
292.752
292.756
292.756
292.758
292.758
292.759
292.617
292.655
292.695
292.731
292.747
292.751
292.752
292.752
292.753
292.754
292.755
292.756
292.701
292.728
292.741
292.744
292.744
292.745
292.746
292.746
292.747
292.748
292.749
292.75
292.735
292.737
292.738
292.739
292.74
292.74
292.741
292.742
292.743
292.743
292.744
292.745
292.733
292.734
292.735
292.735
292.736
292.737
292.738
292.738
292.739
292.74
292.741
292.742
292.73
292.731
292.731
292.732
292.733
292.734
292.735
292.735
292.736
292.737
292.738
292.738
292.726
292.727
292.728
292.729
292.73
292.73
292.731
292.732
292.733
292.733
292.734
292.735
292.724
292.724
292.725
292.726
292.727
292.728
292.729
292.73
292.73
292.731
292.732
292.732
292.722
292.723
292.724
292.725
292.726
292.726
292.727
292.728
292.729
292.73
292.73
292.731
292.355
292.335
292.331
292.312
292.298
292.28
292.263
292.247
292.235
292.227
292.222
292.222
292.39
292.374
292.367
292.352
292.339
292.326
292.315
292.306
292.299
292.296
292.297
292.305
292.421
292.413
292.407
292.397
292.389
292.381
292.375
292.37
292.369
292.371
292.381
292.396
292.453
292.454
292.453
292.447
292.443
292.44
292.438
292.438
292.443
292.453
292.469
292.491
292.49
292.502
292.504
292.501
292.5
292.5
292.503
292.51
292.521
292.537
292.558
292.585
292.533
292.555
292.557
292.556
292.557
292.562
292.57
292.582
292.597
292.617
292.642
292.671
292.583
292.61
292.611
292.611
292.614
292.622
292.635
292.65
292.667
292.688
292.709
292.727
292.639
292.663
292.663
292.663
292.667
292.677
292.691
292.705
292.717
292.726
292.731
292.733
292.694
292.708
292.706
292.706
292.708
292.715
292.722
292.726
292.727
292.728
292.729
292.729
292.736
292.728
292.726
292.724
292.724
292.724
292.724
292.724
292.724
292.725
292.725
292.726
292.735
292.73
292.728
292.724
292.723
292.722
292.722
292.722
292.722
292.722
292.723
292.723
292.767
292.71
292.728
292.722
292.721
292.72
292.72
292.72
292.72
292.721
292.721
292.722
292.23
292.242
292.26
292.283
292.312
292.346
292.384
292.425
292.467
292.506
292.539
292.56
292.32
292.34
292.366
292.399
292.437
292.481
292.531
292.587
292.648
292.697
292.72
292.733
292.418
292.446
292.48
292.52
292.567
292.62
292.678
292.728
292.748
292.755
292.757
292.759
292.519
292.553
292.594
292.639
292.689
292.733
292.752
292.756
292.756
292.758
292.758
292.759
292.617
292.655
292.695
292.731
292.747
292.751
292.752
292.753
292.753
292.754
292.755
292.756
292.701
292.728
292.741
292.744
292.745
292.745
292.746
292.746
292.747
292.748
292.749
292.75
292.735
292.738
292.738
292.739
292.74
292.74
292.741
292.742
292.743
292.744
292.744
292.745
292.733
292.734
292.735
292.736
292.736
292.737
292.738
292.739
292.739
292.74
292.741
292.742
292.73
292.731
292.732
292.732
292.733
292.734
292.735
292.736
292.736
292.737
292.738
292.739
292.726
292.727
292.728
292.729
292.73
292.731
292.731
292.732
292.733
292.734
292.734
292.735
292.724
292.725
292.726
292.726
292.727
292.728
292.729
292.73
292.731
292.731
292.732
292.733
292.722
292.723
292.724
292.725
292.726
292.727
292.728
292.728
292.729
292.73
292.731
292.731
292.355
292.335
292.331
292.312
292.298
292.28
292.263
292.247
292.235
292.227
292.222
292.222
292.389
292.373
292.367
292.351
292.339
292.326
292.315
292.306
292.299
292.296
292.297
292.305
292.42
292.412
292.407
292.397
292.388
292.381
292.375
292.37
292.369
292.371
292.381
292.396
292.453
292.454
292.453
292.447
292.443
292.439
292.438
292.438
292.443
292.453
292.469
292.491
292.489
292.502
292.504
292.501
292.5
292.5
292.503
292.51
292.521
292.537
292.558
292.585
292.533
292.555
292.557
292.556
292.557
292.562
292.57
292.582
292.597
292.617
292.642
292.671
292.583
292.61
292.611
292.611
292.614
292.622
292.635
292.65
292.667
292.688
292.709
292.727
292.639
292.663
292.663
292.663
292.666
292.677
292.691
292.705
292.716
292.726
292.731
292.732
292.694
292.708
292.706
292.705
292.708
292.715
292.722
292.726
292.727
292.728
292.728
292.729
292.736
292.727
292.726
292.724
292.724
292.724
292.724
292.724
292.724
292.725
292.725
292.725
292.735
292.73
292.728
292.723
292.723
292.722
292.722
292.721
292.722
292.722
292.722
292.723
292.766
292.71
292.728
292.722
292.721
292.72
292.72
292.72
292.72
292.72
292.721
292.721
)
;

boundaryField
{
    rotor
    {
        type            zeroGradient;
    }
    stator
    {
        type            zeroGradient;
    }
    front
    {
        type            empty;
    }
    back
    {
        type            empty;
    }
}


// ************************************************************************* //
