/*--------------------------------*- C++ -*----------------------------------*\
| =========                 |                                                 |
| \\      /  F ield         | OpenFOAM: The Open Source CFD Toolbox           |
|  \\    /   O peration     | Version:  2212                                  |
|   \\  /    A nd           | Website:  www.openfoam.com                      |
|    \\/     M anipulation  |                                                 |
\*---------------------------------------------------------------------------*/
FoamFile
{
    version     2.0;
    format      ascii;
    arch        "LSB;label=32;scalar=64";
    class       volScalarField;
    location    "0.01";
    object      T;
}
// * * * * * * * * * * * * * * * * * * * * * * * * * * * * * * * * * * * * * //

dimensions      [0 0 0 1 0 0 0];

internalField   nonuniform List<scalar> 
3072
(
292.01
292.005
291.99
291.973
291.911
291.683
291.541
291.76
291.778
291.628
291.501
291.361
291.87
291.849
291.771
291.696
291.714
291.63
291.591
291.614
291.583
291.513
291.471
291.416
291.784
291.774
291.716
291.651
291.624
291.593
291.575
291.559
291.54
291.516
291.496
291.477
291.737
291.717
291.676
291.638
291.621
291.6
291.585
291.571
291.56
291.552
291.546
291.538
291.69
291.67
291.651
291.631
291.623
291.613
291.608
291.604
291.604
291.604
291.604
291.602
291.629
291.618
291.62
291.621
291.627
291.631
291.637
291.644
291.652
291.659
291.664
291.666
291.562
291.555
291.578
291.602
291.628
291.65
291.67
291.688
291.704
291.718
291.728
291.734
291.476
291.487
291.535
291.588
291.636
291.677
291.713
291.742
291.765
291.784
291.797
291.807
291.4
291.427
291.521
291.602
291.67
291.729
291.775
291.811
291.838
291.859
291.874
291.883
291.282
291.439
291.565
291.668
291.752
291.816
291.862
291.897
291.922
291.941
291.953
291.961
291.339
291.551
291.709
291.808
291.875
291.924
291.959
291.985
292.004
292.017
292.027
292.032
291.697
291.816
291.908
291.948
291.98
292.007
292.03
292.048
292.062
292.073
292.081
292.085
291.269
291.203
291.174
291.165
291.205
291.272
291.38
291.513
291.681
291.87
292.052
292.132
291.385
291.363
291.35
291.344
291.351
291.377
291.423
291.491
291.577
291.71
291.911
292.009
291.461
291.447
291.437
291.432
291.431
291.442
291.463
291.497
291.543
291.605
291.715
291.844
291.53
291.522
291.516
291.512
291.51
291.513
291.522
291.535
291.551
291.573
291.62
291.672
291.598
291.594
291.59
291.585
291.581
291.578
291.574
291.57
291.565
291.559
291.551
291.523
291.667
291.665
291.662
291.657
291.649
291.639
291.626
291.608
291.585
291.556
291.518
291.421
291.738
291.738
291.735
291.728
291.718
291.702
291.681
291.652
291.615
291.568
291.505
291.363
291.812
291.813
291.81
291.802
291.789
291.769
291.742
291.705
291.656
291.596
291.513
291.345
291.889
291.889
291.886
291.877
291.863
291.841
291.809
291.767
291.711
291.642
291.547
291.364
291.965
291.965
291.96
291.951
291.936
291.914
291.882
291.838
291.779
291.706
291.611
291.462
292.034
292.033
292.028
292.019
292.006
291.986
291.957
291.916
291.859
291.787
291.702
291.597
292.087
292.086
292.083
292.077
292.067
292.051
292.029
291.995
291.947
291.881
291.815
291.819
291.978
291.975
291.963
291.949
291.898
291.722
291.495
291.744
291.793
291.675
291.549
291.419
291.845
291.83
291.767
291.689
291.709
291.643
291.599
291.623
291.61
291.539
291.503
291.449
291.763
291.761
291.709
291.646
291.62
291.596
291.582
291.569
291.555
291.533
291.515
291.496
291.714
291.701
291.664
291.629
291.614
291.6
291.589
291.577
291.567
291.558
291.553
291.546
291.665
291.651
291.635
291.618
291.612
291.606
291.603
291.6
291.599
291.6
291.6
291.599
291.602
291.595
291.598
291.6
291.608
291.615
291.622
291.63
291.638
291.645
291.65
291.654
291.533
291.527
291.55
291.574
291.6
291.624
291.646
291.664
291.681
291.695
291.705
291.713
291.444
291.456
291.502
291.553
291.603
291.644
291.679
291.709
291.733
291.753
291.767
291.778
291.368
291.392
291.483
291.563
291.629
291.687
291.734
291.771
291.799
291.821
291.837
291.848
291.247
291.401
291.523
291.623
291.704
291.768
291.815
291.851
291.877
291.897
291.912
291.922
291.301
291.507
291.662
291.759
291.825
291.873
291.908
291.935
291.956
291.972
291.983
291.991
291.656
291.774
291.864
291.902
291.931
291.956
291.979
291.998
292.015
292.028
292.038
292.046
291.329
291.263
291.233
291.224
291.258
291.321
291.423
291.549
291.711
291.889
292.065
292.142
291.419
291.397
291.386
291.38
291.386
291.411
291.455
291.521
291.603
291.735
291.931
292.027
291.481
291.468
291.459
291.454
291.454
291.464
291.485
291.518
291.564
291.625
291.736
291.864
291.539
291.532
291.526
291.523
291.522
291.525
291.534
291.547
291.565
291.588
291.641
291.698
291.597
291.593
291.59
291.587
291.584
291.581
291.579
291.577
291.575
291.571
291.569
291.55
291.656
291.655
291.653
291.649
291.643
291.635
291.625
291.61
291.591
291.566
291.533
291.446
291.718
291.719
291.718
291.713
291.705
291.692
291.674
291.649
291.616
291.574
291.518
291.383
291.784
291.787
291.786
291.78
291.77
291.753
291.729
291.696
291.653
291.598
291.521
291.362
291.855
291.858
291.856
291.85
291.838
291.82
291.792
291.754
291.704
291.64
291.552
291.371
291.928
291.93
291.928
291.921
291.909
291.891
291.863
291.823
291.769
291.702
291.613
291.468
291.996
291.997
291.995
291.989
291.979
291.962
291.937
291.901
291.849
291.783
291.704
291.599
292.051
292.054
292.053
292.05
292.043
292.03
292.012
291.983
291.94
291.88
291.823
291.828
292.01
292.005
291.99
291.973
291.911
291.683
291.54
291.76
291.778
291.628
291.501
291.361
291.87
291.849
291.772
291.696
291.714
291.63
291.591
291.614
291.583
291.513
291.471
291.416
291.784
291.775
291.716
291.651
291.624
291.593
291.574
291.559
291.54
291.516
291.496
291.477
291.737
291.717
291.676
291.638
291.621
291.6
291.585
291.571
291.56
291.552
291.546
291.538
291.69
291.67
291.651
291.631
291.623
291.613
291.607
291.604
291.604
291.604
291.603
291.602
291.629
291.618
291.62
291.621
291.626
291.631
291.637
291.644
291.652
291.659
291.664
291.666
291.562
291.555
291.578
291.602
291.628
291.65
291.67
291.688
291.704
291.717
291.727
291.734
291.476
291.487
291.535
291.588
291.636
291.677
291.713
291.742
291.765
291.784
291.797
291.807
291.4
291.427
291.521
291.602
291.67
291.729
291.775
291.811
291.838
291.859
291.874
291.883
291.282
291.439
291.565
291.668
291.752
291.815
291.862
291.897
291.922
291.94
291.953
291.961
291.339
291.551
291.709
291.808
291.875
291.924
291.959
291.985
292.004
292.017
292.027
292.032
291.697
291.816
291.908
291.948
291.98
292.007
292.03
292.048
292.062
292.073
292.081
292.085
291.269
291.203
291.174
291.165
291.205
291.272
291.38
291.513
291.681
291.87
292.052
292.132
291.385
291.363
291.35
291.344
291.351
291.377
291.423
291.491
291.577
291.71
291.911
292.009
291.461
291.447
291.437
291.432
291.431
291.442
291.463
291.497
291.543
291.605
291.715
291.844
291.53
291.522
291.516
291.512
291.51
291.513
291.522
291.535
291.551
291.573
291.62
291.672
291.598
291.594
291.59
291.585
291.581
291.578
291.574
291.57
291.565
291.559
291.551
291.524
291.667
291.665
291.662
291.657
291.649
291.639
291.626
291.608
291.585
291.556
291.518
291.421
291.738
291.738
291.735
291.728
291.718
291.702
291.681
291.652
291.615
291.568
291.505
291.363
291.812
291.813
291.81
291.802
291.789
291.769
291.742
291.705
291.656
291.596
291.513
291.345
291.889
291.889
291.886
291.877
291.863
291.841
291.809
291.767
291.711
291.642
291.547
291.364
291.965
291.965
291.96
291.951
291.936
291.914
291.882
291.838
291.779
291.706
291.611
291.462
292.034
292.033
292.028
292.019
292.006
291.986
291.957
291.916
291.859
291.787
291.702
291.597
292.087
292.086
292.083
292.077
292.067
292.051
292.029
291.995
291.947
291.881
291.815
291.819
291.978
291.975
291.963
291.949
291.898
291.721
291.495
291.745
291.793
291.675
291.549
291.419
291.845
291.83
291.767
291.689
291.709
291.643
291.599
291.623
291.61
291.539
291.503
291.449
291.763
291.761
291.71
291.647
291.62
291.596
291.582
291.569
291.555
291.533
291.515
291.496
291.714
291.701
291.665
291.629
291.614
291.6
291.589
291.577
291.567
291.558
291.553
291.546
291.666
291.651
291.635
291.618
291.612
291.607
291.603
291.6
291.599
291.6
291.6
291.599
291.602
291.595
291.598
291.6
291.608
291.615
291.623
291.63
291.638
291.645
291.651
291.654
291.533
291.527
291.55
291.574
291.601
291.624
291.646
291.664
291.681
291.695
291.706
291.713
291.445
291.456
291.502
291.554
291.603
291.644
291.679
291.709
291.733
291.753
291.767
291.778
291.368
291.392
291.483
291.563
291.629
291.687
291.734
291.771
291.799
291.821
291.837
291.848
291.247
291.401
291.523
291.623
291.704
291.768
291.815
291.851
291.877
291.897
291.912
291.922
291.301
291.507
291.662
291.759
291.825
291.873
291.908
291.935
291.956
291.972
291.983
291.991
291.656
291.774
291.864
291.902
291.931
291.956
291.979
291.998
292.015
292.028
292.038
292.046
291.329
291.263
291.233
291.224
291.258
291.321
291.423
291.549
291.711
291.889
292.065
292.142
291.419
291.397
291.386
291.38
291.386
291.412
291.455
291.521
291.603
291.735
291.931
292.027
291.481
291.468
291.459
291.454
291.454
291.464
291.485
291.518
291.564
291.625
291.736
291.864
291.539
291.532
291.526
291.523
291.522
291.525
291.534
291.547
291.565
291.588
291.641
291.698
291.597
291.593
291.59
291.587
291.584
291.581
291.579
291.577
291.575
291.571
291.569
291.55
291.656
291.655
291.653
291.649
291.643
291.635
291.625
291.61
291.591
291.566
291.533
291.446
291.718
291.719
291.718
291.713
291.705
291.692
291.674
291.649
291.616
291.574
291.518
291.383
291.784
291.787
291.786
291.78
291.77
291.753
291.729
291.696
291.653
291.598
291.521
291.363
291.855
291.858
291.856
291.85
291.839
291.82
291.793
291.754
291.704
291.64
291.552
291.371
291.928
291.93
291.928
291.921
291.909
291.891
291.863
291.823
291.769
291.702
291.613
291.468
291.996
291.997
291.995
291.989
291.979
291.962
291.937
291.901
291.849
291.783
291.704
291.6
292.051
292.054
292.053
292.05
292.043
292.03
292.012
291.983
291.94
291.88
291.823
291.828
291.999
291.984
291.99
292.001
292.019
292.04
292.059
292.076
292.09
292.102
292.111
292.117
292.093
292.085
292.073
292.068
292.07
292.076
292.085
292.097
292.108
292.119
292.129
292.138
292.149
292.144
292.136
292.129
292.123
292.122
292.125
292.129
292.135
292.143
292.153
292.163
292.187
292.183
292.178
292.172
292.167
292.166
292.167
292.171
292.177
292.184
292.193
292.204
292.122
292.124
292.125
292.123
292.118
292.108
292.093
292.069
292.035
291.982
291.952
291.989
292.146
292.152
292.157
292.161
292.161
292.157
292.148
292.132
292.11
292.07
292.044
292.061
292.173
292.183
292.192
292.199
292.203
292.202
292.197
292.185
292.17
292.14
292.111
292.115
292.216
292.229
292.24
292.247
292.25
292.247
292.241
292.229
292.214
292.191
292.165
292.16
291.981
291.955
291.953
291.96
291.973
291.992
292.012
292.03
292.047
292.062
292.074
292.085
292.067
292.057
292.042
292.034
292.035
292.041
292.05
292.063
292.077
292.091
292.105
292.117
292.119
292.117
292.111
292.105
292.102
292.104
292.108
292.115
292.124
292.134
292.146
292.158
292.162
292.164
292.164
292.164
292.164
292.167
292.172
292.178
292.186
292.194
292.204
292.215
292.092
292.098
292.101
292.101
292.099
292.093
292.082
292.063
292.036
291.989
291.967
292.004
292.128
292.136
292.143
292.149
292.151
292.151
292.148
292.137
292.122
292.089
292.068
292.086
292.169
292.18
292.19
292.199
292.207
292.21
292.211
292.204
292.194
292.172
292.145
292.147
292.227
292.24
292.252
292.263
292.27
292.272
292.27
292.262
292.249
292.229
292.202
292.191
291.999
291.984
291.99
292.001
292.019
292.04
292.059
292.076
292.09
292.102
292.111
292.117
292.093
292.085
292.073
292.068
292.07
292.076
292.085
292.096
292.108
292.119
292.129
292.138
292.149
292.144
292.136
292.129
292.123
292.122
292.125
292.129
292.135
292.143
292.153
292.163
292.187
292.183
292.178
292.172
292.167
292.166
292.167
292.171
292.177
292.184
292.193
292.204
292.122
292.124
292.125
292.123
292.118
292.108
292.093
292.069
292.035
291.982
291.952
291.989
292.146
292.152
292.157
292.161
292.161
292.157
292.148
292.132
292.11
292.07
292.044
292.061
292.173
292.183
292.192
292.199
292.203
292.202
292.197
292.185
292.17
292.141
292.111
292.115
292.216
292.229
292.24
292.247
292.25
292.247
292.241
292.229
292.214
292.191
292.165
292.16
291.981
291.955
291.953
291.96
291.973
291.992
292.012
292.03
292.047
292.062
292.074
292.085
292.067
292.057
292.042
292.034
292.035
292.041
292.05
292.063
292.077
292.091
292.105
292.117
292.119
292.117
292.111
292.105
292.102
292.104
292.108
292.115
292.124
292.134
292.146
292.158
292.163
292.164
292.164
292.164
292.164
292.167
292.172
292.178
292.186
292.194
292.204
292.215
292.092
292.098
292.101
292.101
292.099
292.093
292.082
292.063
292.036
291.99
291.967
292.004
292.128
292.136
292.143
292.149
292.151
292.151
292.148
292.137
292.122
292.089
292.068
292.086
292.169
292.18
292.19
292.199
292.207
292.21
292.211
292.204
292.194
292.172
292.145
292.147
292.227
292.24
292.252
292.263
292.27
292.272
292.27
292.261
292.249
292.229
292.202
292.191
292.211
292.208
292.205
292.203
292.203
292.207
292.214
292.223
292.234
292.246
292.258
292.272
292.238
292.235
292.234
292.236
292.241
292.249
292.261
292.275
292.29
292.306
292.32
292.334
292.269
292.266
292.267
292.272
292.28
292.293
292.309
292.327
292.347
292.366
292.381
292.393
292.303
292.301
292.304
292.311
292.322
292.338
292.359
292.381
292.406
292.429
292.446
292.453
292.287
292.3
292.306
292.304
292.298
292.289
292.276
292.261
292.243
292.223
292.208
292.202
292.352
292.364
292.365
292.356
292.342
292.327
292.31
292.293
292.276
292.26
292.25
292.247
292.413
292.425
292.42
292.404
292.384
292.364
292.345
292.327
292.312
292.3
292.294
292.293
292.476
292.487
292.473
292.45
292.426
292.402
292.382
292.364
292.351
292.343
292.339
292.341
292.204
292.207
292.211
292.216
292.222
292.229
292.238
292.248
292.259
292.27
292.281
292.294
292.249
292.256
292.263
292.272
292.282
292.293
292.305
292.318
292.331
292.344
292.356
292.368
292.298
292.308
292.318
292.33
292.344
292.358
292.373
292.389
292.404
292.418
292.429
292.437
292.349
292.361
292.375
292.39
292.405
292.422
292.44
292.458
292.476
292.492
292.505
292.509
292.31
292.327
292.338
292.342
292.339
292.329
292.314
292.295
292.273
292.25
292.228
292.217
292.386
292.408
292.418
292.417
292.406
292.386
292.361
292.333
292.305
292.278
292.257
292.245
292.455
292.483
292.493
292.487
292.469
292.442
292.41
292.375
292.342
292.312
292.289
292.276
292.521
292.557
292.564
292.553
292.529
292.496
292.458
292.419
292.381
292.349
292.325
292.31
292.211
292.208
292.205
292.203
292.203
292.207
292.214
292.223
292.234
292.246
292.258
292.272
292.238
292.235
292.234
292.236
292.241
292.249
292.261
292.275
292.29
292.306
292.32
292.334
292.269
292.266
292.267
292.272
292.28
292.293
292.309
292.327
292.347
292.366
292.381
292.393
292.303
292.301
292.304
292.311
292.322
292.339
292.359
292.381
292.406
292.429
292.446
292.453
292.287
292.3
292.306
292.305
292.298
292.289
292.276
292.261
292.243
292.223
292.208
292.203
292.352
292.365
292.365
292.356
292.343
292.327
292.311
292.293
292.276
292.26
292.251
292.247
292.413
292.425
292.42
292.404
292.384
292.364
292.345
292.328
292.312
292.301
292.294
292.293
292.477
292.487
292.473
292.451
292.426
292.403
292.382
292.364
292.351
292.343
292.34
292.341
292.204
292.207
292.211
292.216
292.222
292.229
292.238
292.248
292.259
292.27
292.281
292.294
292.249
292.256
292.263
292.272
292.282
292.293
292.305
292.318
292.331
292.344
292.356
292.368
292.299
292.308
292.318
292.33
292.344
292.358
292.373
292.389
292.404
292.418
292.429
292.437
292.35
292.361
292.375
292.39
292.406
292.422
292.44
292.458
292.476
292.492
292.505
292.509
292.31
292.327
292.338
292.342
292.339
292.329
292.314
292.295
292.273
292.25
292.228
292.217
292.386
292.408
292.418
292.417
292.405
292.386
292.361
292.333
292.305
292.278
292.257
292.245
292.455
292.483
292.493
292.487
292.469
292.442
292.409
292.375
292.342
292.312
292.289
292.276
292.521
292.557
292.564
292.553
292.529
292.496
292.458
292.419
292.381
292.349
292.325
292.311
292.341
292.34
292.344
292.353
292.367
292.387
292.41
292.437
292.466
292.495
292.521
292.539
292.382
292.381
292.386
292.398
292.415
292.437
292.463
292.494
292.527
292.563
292.607
292.702
292.425
292.425
292.432
292.445
292.464
292.488
292.518
292.552
292.589
292.631
292.685
292.8
292.469
292.47
292.478
292.493
292.514
292.541
292.573
292.61
292.65
292.694
292.75
292.853
292.513
292.516
292.526
292.543
292.566
292.595
292.629
292.667
292.708
292.752
292.803
292.879
292.558
292.562
292.575
292.594
292.619
292.649
292.684
292.722
292.762
292.801
292.842
292.887
292.601
292.608
292.623
292.644
292.671
292.703
292.737
292.774
292.809
292.841
292.866
292.883
292.643
292.652
292.67
292.694
292.723
292.755
292.788
292.821
292.848
292.865
292.873
292.873
292.683
292.695
292.715
292.741
292.772
292.804
292.834
292.858
292.872
292.874
292.87
292.862
292.721
292.736
292.758
292.787
292.819
292.849
292.872
292.884
292.881
292.872
292.862
292.852
292.759
292.777
292.802
292.832
292.863
292.888
292.9
292.895
292.878
292.864
292.854
292.844
292.808
292.83
292.858
292.888
292.914
292.926
292.916
292.89
292.868
292.854
292.845
292.838
292.565
292.553
292.527
292.497
292.468
292.442
292.42
292.404
292.393
292.387
292.386
292.391
292.704
292.624
292.582
292.545
292.511
292.483
292.461
292.446
292.437
292.433
292.434
292.441
292.802
292.692
292.636
292.593
292.557
292.527
292.505
292.49
292.482
292.479
292.482
292.49
292.876
292.754
292.69
292.642
292.603
292.573
292.55
292.536
292.528
292.526
292.53
292.539
292.935
292.811
292.743
292.692
292.652
292.62
292.597
292.583
292.575
292.573
292.577
292.586
292.983
292.864
292.795
292.742
292.701
292.668
292.645
292.63
292.622
292.62
292.623
292.632
293.021
292.912
292.845
292.792
292.75
292.717
292.693
292.677
292.668
292.665
292.668
292.676
293.051
292.956
292.893
292.841
292.799
292.765
292.74
292.723
292.713
292.709
292.71
292.717
293.073
292.997
292.939
292.889
292.846
292.812
292.786
292.767
292.756
292.75
292.75
292.755
293.088
293.032
292.981
292.934
292.892
292.857
292.83
292.81
292.796
292.789
292.787
292.79
293.097
293.061
293.02
292.976
292.936
292.902
292.873
292.852
292.837
292.827
292.823
292.825
293.102
293.086
293.06
293.026
292.991
292.958
292.93
292.906
292.888
292.875
292.867
292.866
292.401
292.415
292.431
292.448
292.466
292.485
292.504
292.524
292.545
292.566
292.589
292.615
292.453
292.468
292.485
292.504
292.524
292.544
292.565
292.587
292.61
292.636
292.672
292.752
292.503
292.519
292.538
292.557
292.578
292.599
292.621
292.644
292.668
292.696
292.734
292.793
292.552
292.569
292.587
292.607
292.628
292.65
292.672
292.695
292.719
292.745
292.776
292.801
292.599
292.615
292.634
292.654
292.675
292.696
292.718
292.74
292.762
292.784
292.803
292.8
292.644
292.659
292.677
292.697
292.717
292.738
292.758
292.778
292.797
292.812
292.817
292.797
292.686
292.701
292.718
292.737
292.756
292.775
292.794
292.811
292.824
292.83
292.823
292.793
292.726
292.739
292.755
292.773
292.791
292.809
292.824
292.837
292.844
292.84
292.825
292.79
292.763
292.774
292.789
292.806
292.822
292.838
292.85
292.857
292.856
292.843
292.823
292.787
292.797
292.806
292.819
292.835
292.849
292.862
292.869
292.87
292.861
292.842
292.82
292.785
292.83
292.837
292.848
292.861
292.873
292.881
292.883
292.877
292.862
292.839
292.816
292.784
292.869
292.874
292.881
292.891
292.898
292.898
292.892
292.877
292.859
292.835
292.814
292.784
292.603
292.632
292.631
292.615
292.586
292.549
292.507
292.464
292.423
292.389
292.364
292.349
292.723
292.707
292.695
292.672
292.639
292.598
292.554
292.508
292.466
292.431
292.405
292.389
292.809
292.773
292.752
292.725
292.688
292.645
292.599
292.552
292.509
292.473
292.447
292.432
292.873
292.828
292.802
292.772
292.734
292.689
292.642
292.595
292.552
292.516
292.49
292.475
292.914
292.872
292.845
292.814
292.775
292.73
292.682
292.635
292.592
292.557
292.533
292.519
292.937
292.906
292.881
292.85
292.811
292.767
292.719
292.673
292.631
292.597
292.574
292.562
292.951
292.931
292.909
292.881
292.844
292.801
292.754
292.708
292.667
292.635
292.614
292.603
292.961
292.947
292.93
292.906
292.872
292.831
292.786
292.74
292.701
292.671
292.652
292.643
292.969
292.958
292.944
292.925
292.896
292.859
292.815
292.77
292.731
292.703
292.687
292.68
292.975
292.965
292.955
292.94
292.916
292.883
292.842
292.798
292.76
292.734
292.721
292.716
292.98
292.972
292.962
292.951
292.933
292.906
292.869
292.825
292.788
292.766
292.754
292.751
292.983
292.978
292.97
292.959
292.946
292.929
292.899
292.857
292.822
292.804
292.796
292.796
292.341
292.34
292.344
292.353
292.367
292.387
292.41
292.437
292.466
292.495
292.521
292.539
292.382
292.381
292.386
292.398
292.415
292.437
292.464
292.494
292.528
292.563
292.607
292.702
292.425
292.425
292.432
292.445
292.464
292.488
292.518
292.552
292.589
292.631
292.685
292.8
292.469
292.47
292.478
292.493
292.515
292.541
292.573
292.61
292.65
292.694
292.75
292.853
292.513
292.516
292.526
292.543
292.566
292.595
292.629
292.667
292.708
292.752
292.803
292.879
292.558
292.562
292.575
292.594
292.619
292.649
292.684
292.722
292.762
292.802
292.842
292.887
292.601
292.608
292.623
292.644
292.671
292.703
292.738
292.774
292.81
292.841
292.866
292.883
292.643
292.653
292.67
292.694
292.723
292.755
292.789
292.821
292.848
292.865
292.873
292.873
292.683
292.695
292.715
292.742
292.772
292.805
292.835
292.859
292.872
292.874
292.87
292.862
292.721
292.736
292.759
292.787
292.819
292.849
292.873
292.884
292.881
292.872
292.862
292.851
292.759
292.777
292.803
292.833
292.863
292.888
292.9
292.895
292.878
292.864
292.854
292.844
292.809
292.83
292.858
292.888
292.915
292.926
292.916
292.89
292.868
292.854
292.845
292.838
292.565
292.554
292.527
292.497
292.468
292.442
292.421
292.404
292.393
292.387
292.386
292.391
292.704
292.625
292.582
292.545
292.512
292.484
292.462
292.446
292.437
292.433
292.434
292.441
292.802
292.692
292.637
292.593
292.557
292.527
292.505
292.49
292.482
292.479
292.482
292.49
292.877
292.754
292.691
292.642
292.604
292.573
292.551
292.536
292.528
292.526
292.53
292.539
292.936
292.811
292.743
292.692
292.652
292.62
292.597
292.583
292.575
292.573
292.577
292.586
292.983
292.864
292.795
292.742
292.701
292.668
292.645
292.63
292.622
292.62
292.623
292.632
293.021
292.912
292.845
292.792
292.75
292.717
292.693
292.677
292.668
292.665
292.668
292.675
293.051
292.956
292.893
292.841
292.799
292.765
292.74
292.723
292.713
292.709
292.71
292.716
293.073
292.997
292.939
292.889
292.846
292.812
292.786
292.767
292.755
292.75
292.75
292.754
293.088
293.032
292.981
292.934
292.892
292.857
292.829
292.809
292.796
292.788
292.787
292.79
293.097
293.061
293.02
292.976
292.936
292.901
292.873
292.852
292.836
292.827
292.823
292.824
293.102
293.086
293.06
293.026
292.991
292.958
292.929
292.905
292.888
292.875
292.867
292.865
292.401
292.415
292.431
292.448
292.466
292.485
292.504
292.524
292.545
292.566
292.588
292.614
292.453
292.468
292.486
292.504
292.524
292.544
292.565
292.587
292.61
292.635
292.672
292.751
292.503
292.52
292.538
292.557
292.578
292.599
292.621
292.644
292.668
292.695
292.733
292.792
292.552
292.569
292.587
292.607
292.628
292.65
292.672
292.695
292.719
292.745
292.776
292.8
292.599
292.615
292.634
292.654
292.674
292.696
292.717
292.739
292.762
292.784
292.803
292.8
292.644
292.659
292.677
292.697
292.717
292.738
292.758
292.778
292.797
292.812
292.817
292.797
292.686
292.7
292.718
292.736
292.756
292.775
292.794
292.811
292.824
292.83
292.823
292.793
292.726
292.739
292.755
292.772
292.791
292.808
292.824
292.837
292.843
292.84
292.825
292.79
292.763
292.774
292.788
292.805
292.822
292.837
292.849
292.856
292.855
292.843
292.823
292.787
292.796
292.806
292.819
292.834
292.849
292.861
292.869
292.869
292.861
292.842
292.82
292.785
292.829
292.837
292.847
292.861
292.873
292.881
292.882
292.877
292.862
292.839
292.816
292.784
292.868
292.873
292.881
292.891
292.897
292.898
292.892
292.877
292.859
292.835
292.814
292.784
292.602
292.632
292.631
292.615
292.586
292.548
292.506
292.464
292.423
292.389
292.364
292.349
292.722
292.707
292.694
292.672
292.639
292.598
292.553
292.508
292.466
292.431
292.405
292.389
292.809
292.773
292.751
292.724
292.688
292.645
292.599
292.552
292.509
292.473
292.447
292.432
292.872
292.828
292.801
292.771
292.733
292.689
292.641
292.595
292.552
292.516
292.49
292.475
292.914
292.872
292.844
292.813
292.774
292.729
292.682
292.635
292.592
292.557
292.533
292.519
292.937
292.906
292.88
292.849
292.811
292.766
292.719
292.673
292.631
292.597
292.574
292.562
292.951
292.93
292.908
292.88
292.843
292.8
292.754
292.708
292.667
292.635
292.614
292.603
292.961
292.947
292.93
292.905
292.872
292.831
292.785
292.74
292.7
292.67
292.652
292.643
292.969
292.958
292.944
292.925
292.896
292.858
292.814
292.77
292.731
292.703
292.687
292.68
292.975
292.965
292.955
292.94
292.916
292.883
292.841
292.797
292.759
292.734
292.72
292.715
292.98
292.972
292.962
292.95
292.933
292.906
292.868
292.825
292.787
292.765
292.754
292.75
292.983
292.978
292.97
292.959
292.946
292.929
292.899
292.857
292.821
292.804
292.796
292.795
)
;

boundaryField
{
    rotor
    {
        type            zeroGradient;
    }
    stator
    {
        type            zeroGradient;
    }
    front
    {
        type            empty;
    }
    back
    {
        type            empty;
    }
}


// ************************************************************************* //
