/*--------------------------------*- C++ -*----------------------------------*\
| =========                 |                                                 |
| \\      /  F ield         | OpenFOAM: The Open Source CFD Toolbox           |
|  \\    /   O peration     | Version:  2212                                  |
|   \\  /    A nd           | Website:  www.openfoam.com                      |
|    \\/     M anipulation  |                                                 |
\*---------------------------------------------------------------------------*/
FoamFile
{
    version     2.0;
    format      ascii;
    arch        "LSB;label=32;scalar=64";
    class       volScalarField;
    location    "0.01";
    object      tracer0;
}
// * * * * * * * * * * * * * * * * * * * * * * * * * * * * * * * * * * * * * //

dimensions      [0 0 0 0 0 0 0];

internalField   nonuniform List<scalar> 
3072
(
2.36291e-06
2.35403e-06
2.32621e-06
2.27598e-06
2.25597e-06
2.3467e-06
3.33737e-06
4.6394e-06
4.87442e-06
4.9456e-06
4.99371e-06
5.03134e-06
2.57472e-06
2.57126e-06
2.44905e-06
2.54077e-06
3.06067e-06
3.91481e-06
4.48311e-06
4.73684e-06
4.78884e-06
4.79769e-06
4.77179e-06
4.72677e-06
2.69025e-06
2.86924e-06
3.0401e-06
3.41874e-06
4.01887e-06
4.35607e-06
4.50972e-06
4.56962e-06
4.4245e-06
4.20431e-06
4.01615e-06
3.83162e-06
2.76032e-06
3.19085e-06
3.45764e-06
3.86132e-06
4.16373e-06
4.29284e-06
4.32326e-06
4.07222e-06
3.74855e-06
3.59871e-06
3.41365e-06
3.3248e-06
2.76446e-06
3.24599e-06
3.58782e-06
3.9177e-06
4.07502e-06
4.09873e-06
3.88687e-06
3.52272e-06
3.35409e-06
3.25105e-06
3.1777e-06
3.14917e-06
2.73975e-06
3.21798e-06
3.57982e-06
3.82705e-06
3.87851e-06
3.74942e-06
3.4576e-06
3.20598e-06
3.10266e-06
3.06651e-06
3.0924e-06
3.11932e-06
2.64837e-06
3.16412e-06
3.49076e-06
3.59694e-06
3.58236e-06
3.39633e-06
3.09585e-06
2.91759e-06
2.85816e-06
2.87549e-06
2.97067e-06
3.05538e-06
2.64485e-06
3.04471e-06
3.29842e-06
3.4354e-06
3.384e-06
3.12002e-06
2.84693e-06
2.69372e-06
2.62532e-06
2.61843e-06
2.68732e-06
2.84555e-06
4.25001e-06
4.3404e-06
3.13807e-06
3.09406e-06
3.06631e-06
2.88075e-06
2.59841e-06
2.4318e-06
2.3368e-06
2.29938e-06
2.29393e-06
2.33096e-06
7.66265e-06
7.07872e-06
4.76938e-06
3.14096e-06
2.91792e-06
2.72692e-06
2.48522e-06
2.29232e-06
2.14622e-06
2.04179e-06
1.96932e-06
1.92423e-06
9.68855e-06
1.01529e-05
9.09444e-06
4.73869e-06
3.44882e-06
2.94919e-06
2.60363e-06
2.35343e-06
2.16847e-06
2.03431e-06
1.92632e-06
1.83242e-06
1.41458e-05
1.48383e-05
1.57424e-05
1.37267e-05
1.02425e-05
7.06514e-06
4.72992e-06
3.51313e-06
2.84809e-06
2.4575e-06
2.21343e-06
2.07045e-06
5.06357e-06
5.09162e-06
5.11882e-06
5.14415e-06
5.17676e-06
5.21236e-06
5.25592e-06
5.3005e-06
5.34876e-06
5.37701e-06
5.38285e-06
5.32475e-06
4.6898e-06
4.66488e-06
4.66481e-06
4.69555e-06
4.75732e-06
4.84857e-06
4.98292e-06
5.14804e-06
5.33154e-06
5.49349e-06
5.57648e-06
5.61414e-06
3.71604e-06
3.62101e-06
3.56692e-06
3.55992e-06
3.59198e-06
3.71115e-06
3.92368e-06
4.27422e-06
4.72952e-06
5.26868e-06
5.57746e-06
5.68964e-06
3.22986e-06
3.15791e-06
3.08681e-06
3.02089e-06
2.96165e-06
2.95159e-06
3.01288e-06
3.26018e-06
3.83345e-06
4.67049e-06
5.4458e-06
5.72275e-06
3.11228e-06
3.06791e-06
2.99272e-06
2.88137e-06
2.72966e-06
2.63692e-06
2.6149e-06
2.72448e-06
3.16892e-06
4.05489e-06
5.25218e-06
5.76557e-06
3.12223e-06
3.10879e-06
3.04004e-06
2.86731e-06
2.6158e-06
2.36942e-06
2.2827e-06
2.31173e-06
2.72066e-06
3.61915e-06
5.02822e-06
5.79456e-06
3.10451e-06
3.11262e-06
3.0602e-06
2.84004e-06
2.49485e-06
2.14386e-06
1.96981e-06
2.03496e-06
2.41256e-06
3.35175e-06
4.89475e-06
5.83535e-06
2.94647e-06
2.94615e-06
2.84404e-06
2.61251e-06
2.17162e-06
1.84944e-06
1.80255e-06
1.91786e-06
2.30088e-06
3.25505e-06
4.83566e-06
5.86536e-06
2.42e-06
2.37448e-06
2.26391e-06
2.037e-06
1.79111e-06
1.71648e-06
1.74837e-06
1.89696e-06
2.29969e-06
3.27446e-06
4.94293e-06
5.93274e-06
1.88224e-06
1.83014e-06
1.76321e-06
1.68502e-06
1.6638e-06
1.6928e-06
1.80894e-06
2.10158e-06
2.72466e-06
3.98272e-06
5.37427e-06
6.0526e-06
1.7686e-06
1.6783e-06
1.64972e-06
1.67886e-06
1.76755e-06
1.97122e-06
2.35892e-06
2.99999e-06
4.07736e-06
5.26406e-06
6.02439e-06
6.21855e-06
1.94062e-06
1.94453e-06
2.06793e-06
2.29343e-06
2.6732e-06
3.28534e-06
4.18483e-06
5.33124e-06
6.04067e-06
6.37825e-06
6.43019e-06
6.34026e-06
4.06577e-06
4.05441e-06
4.01878e-06
3.93628e-06
3.89653e-06
3.99668e-06
5.11765e-06
6.28924e-06
6.37667e-06
6.39225e-06
6.4046e-06
6.41748e-06
4.44699e-06
4.47465e-06
4.29854e-06
4.3091e-06
4.9324e-06
5.6354e-06
6.03307e-06
6.18502e-06
6.06402e-06
5.7969e-06
5.48095e-06
5.20579e-06
4.62503e-06
4.91523e-06
4.99815e-06
5.31439e-06
5.718e-06
5.87388e-06
5.92508e-06
5.74077e-06
5.15186e-06
4.50871e-06
4.03887e-06
3.56306e-06
4.72073e-06
5.21257e-06
5.38076e-06
5.62061e-06
5.71882e-06
5.74325e-06
5.43349e-06
4.51209e-06
3.48669e-06
2.77725e-06
2.05332e-06
1.54131e-06
4.69541e-06
5.28246e-06
5.4991e-06
5.59887e-06
5.61636e-06
5.32323e-06
4.32543e-06
3.17305e-06
2.27686e-06
1.55134e-06
9.63012e-07
6.22073e-07
4.64451e-06
5.26118e-06
5.4677e-06
5.51805e-06
5.34945e-06
4.63523e-06
3.48754e-06
2.40374e-06
1.58851e-06
9.2323e-07
5.16162e-07
2.7678e-07
4.54418e-06
5.19461e-06
5.36443e-06
5.34334e-06
5.02115e-06
4.13206e-06
2.9001e-06
1.91467e-06
1.18674e-06
6.3345e-07
3.36274e-07
1.62675e-07
4.47263e-06
5.0791e-06
5.24261e-06
5.20494e-06
4.79059e-06
3.8887e-06
2.7916e-06
1.90814e-06
1.20958e-06
6.64098e-07
3.61577e-07
1.83266e-07
4.25985e-06
4.83658e-06
5.01262e-06
4.99521e-06
4.67956e-06
3.93328e-06
2.9044e-06
2.04206e-06
1.36563e-06
8.17142e-07
4.81866e-07
2.77228e-07
4.16426e-06
4.63914e-06
4.80223e-06
4.79474e-06
4.60613e-06
4.16742e-06
3.23413e-06
2.38769e-06
1.72167e-06
1.16358e-06
7.73526e-07
5.15087e-07
3.90364e-06
4.20088e-06
4.32096e-06
4.35074e-06
4.32721e-06
4.16755e-06
3.82288e-06
3.16491e-06
2.51205e-06
1.91725e-06
1.43144e-06
1.06885e-06
3.84726e-06
3.89888e-06
3.92518e-06
3.94101e-06
3.93382e-06
3.93756e-06
3.85476e-06
3.60718e-06
3.20955e-06
2.79667e-06
2.40382e-06
2.04206e-06
6.43118e-06
6.44671e-06
6.46447e-06
6.48716e-06
6.53566e-06
6.58583e-06
6.64158e-06
6.42923e-06
6.37584e-06
6.3299e-06
6.45106e-06
6.68128e-06
4.96883e-06
4.83322e-06
4.75095e-06
4.77859e-06
4.85827e-06
4.97811e-06
5.08809e-06
4.90885e-06
4.87056e-06
4.73307e-06
4.69304e-06
4.72391e-06
3.27676e-06
3.05483e-06
2.98498e-06
3.01385e-06
3.24335e-06
3.66288e-06
4.05725e-06
4.19749e-06
4.23671e-06
4.19483e-06
4.07981e-06
4.01019e-06
1.15767e-06
9.21722e-07
8.01444e-07
8.08001e-07
8.93197e-07
1.12537e-06
1.62954e-06
2.7428e-06
3.31773e-06
3.57457e-06
3.6565e-06
3.64219e-06
3.91377e-07
2.8322e-07
2.40738e-07
2.40837e-07
2.85525e-07
3.82088e-07
5.75536e-07
9.7013e-07
1.99775e-06
2.85644e-06
3.12108e-06
3.20623e-06
1.60212e-07
1.0698e-07
8.92423e-08
8.96518e-08
1.23079e-07
1.92158e-07
3.27706e-07
5.74132e-07
1.06053e-06
2.08895e-06
2.67212e-06
2.89638e-06
8.45356e-08
4.97671e-08
3.8665e-08
4.84766e-08
7.49859e-08
1.34473e-07
2.56105e-07
4.73392e-07
9.03374e-07
1.64174e-06
2.38153e-06
2.70256e-06
9.79523e-08
5.66855e-08
4.04854e-08
4.68067e-08
7.05645e-08
1.27788e-07
2.4789e-07
4.59948e-07
8.79704e-07
1.60634e-06
2.36451e-06
2.74062e-06
1.70259e-07
1.0752e-07
9.49064e-08
1.1105e-07
1.52173e-07
2.36349e-07
3.96772e-07
6.42337e-07
1.09427e-06
1.78051e-06
2.47165e-06
2.76234e-06
3.73447e-07
2.72808e-07
2.68684e-07
3.04985e-07
3.77787e-07
5.05974e-07
7.19195e-07
1.01639e-06
1.52374e-06
2.14767e-06
2.64486e-06
2.82945e-06
8.57255e-07
7.13653e-07
7.22469e-07
7.92549e-07
9.10023e-07
1.09443e-06
1.35988e-06
1.75206e-06
2.29517e-06
2.71014e-06
2.90979e-06
2.89106e-06
1.81883e-06
1.62573e-06
1.63018e-06
1.72233e-06
1.86616e-06
2.10397e-06
2.44553e-06
2.83692e-06
3.02775e-06
3.05716e-06
3.04252e-06
2.94689e-06
1.72128e-05
1.73896e-05
1.7879e-05
1.84102e-05
1.90732e-05
1.84722e-05
9.78615e-06
1.86365e-06
1.44386e-06
1.46554e-06
1.49898e-06
1.51671e-06
1.49213e-05
1.51619e-05
1.67839e-05
1.65478e-05
1.26614e-05
6.23118e-06
2.69366e-06
1.45337e-06
1.39437e-06
1.39788e-06
1.39294e-06
1.37543e-06
1.39057e-05
1.32936e-05
1.25608e-05
9.74167e-06
5.13982e-06
2.59986e-06
1.51905e-06
1.28119e-06
1.23298e-06
1.12113e-06
1.01616e-06
9.26175e-07
1.29953e-05
1.03162e-05
8.92819e-06
5.66352e-06
2.8014e-06
1.51397e-06
1.151e-06
1.02447e-06
8.82268e-07
7.18001e-07
6.27812e-07
5.34048e-07
1.26362e-05
8.82101e-06
6.95962e-06
3.76397e-06
1.67658e-06
1.10305e-06
9.00858e-07
7.68854e-07
5.91875e-07
4.71648e-07
3.94551e-07
3.32397e-07
1.28658e-05
8.62222e-06
5.98688e-06
2.35386e-06
1.24171e-06
8.93152e-07
7.45388e-07
5.94917e-07
4.22085e-07
3.33318e-07
2.62374e-07
2.21832e-07
1.19398e-05
7.53528e-06
4.44397e-06
1.80856e-06
1.03579e-06
7.67746e-07
6.32758e-07
4.64523e-07
3.11794e-07
2.40818e-07
1.7977e-07
1.48958e-07
1.06606e-05
6.44979e-06
3.60011e-06
1.55789e-06
9.30693e-07
6.95505e-07
5.72999e-07
4.24147e-07
2.85167e-07
2.0705e-07
1.4835e-07
1.13616e-07
1.01915e-05
6.08881e-06
3.37775e-06
1.58521e-06
9.51226e-07
7.02166e-07
5.77387e-07
4.38507e-07
3.0307e-07
2.18446e-07
1.57208e-07
1.18661e-07
9.45356e-06
5.68735e-06
3.4604e-06
1.75483e-06
1.06587e-06
7.61886e-07
6.16836e-07
4.89128e-07
3.59713e-07
2.6476e-07
1.96235e-07
1.51214e-07
9.23734e-06
6.01505e-06
4.10135e-06
2.47786e-06
1.56956e-06
1.06722e-06
8.00273e-07
6.32454e-07
4.93017e-07
3.80187e-07
2.97437e-07
2.43625e-07
8.74973e-06
7.7993e-06
6.70146e-06
5.52876e-06
4.36054e-06
3.25465e-06
2.13706e-06
1.41355e-06
1.01628e-06
7.65154e-07
6.12634e-07
5.16527e-07
1.53878e-06
1.55384e-06
1.5725e-06
1.58746e-06
1.60798e-06
1.62805e-06
1.65233e-06
1.67652e-06
1.69952e-06
1.70884e-06
1.70323e-06
1.66464e-06
1.36853e-06
1.36715e-06
1.38313e-06
1.40985e-06
1.45167e-06
1.50861e-06
1.57957e-06
1.66202e-06
1.74341e-06
1.82424e-06
1.86362e-06
1.87535e-06
8.67697e-07
8.34769e-07
8.32382e-07
8.57903e-07
9.12486e-07
1.0062e-06
1.14265e-06
1.3297e-06
1.54791e-06
1.77397e-06
1.89221e-06
1.94581e-06
4.97417e-07
4.64258e-07
4.62557e-07
4.77138e-07
5.14769e-07
5.82073e-07
6.94647e-07
8.8523e-07
1.19862e-06
1.5957e-06
1.88139e-06
1.98466e-06
3.10092e-07
2.93386e-07
2.9272e-07
3.07484e-07
3.39066e-07
3.91841e-07
4.83139e-07
6.38583e-07
9.12188e-07
1.36917e-06
1.83423e-06
2.02384e-06
2.00695e-07
1.92562e-07
1.92925e-07
2.00839e-07
2.25045e-07
2.67186e-07
3.39176e-07
4.72839e-07
7.47068e-07
1.22547e-06
1.79471e-06
2.05411e-06
1.29912e-07
1.19913e-07
1.17146e-07
1.17141e-07
1.36172e-07
1.77897e-07
2.60445e-07
3.91467e-07
6.56776e-07
1.15562e-06
1.76888e-06
2.087e-06
9.26955e-08
8.17326e-08
7.7817e-08
8.2838e-08
1.00528e-07
1.40104e-07
2.2544e-07
3.62183e-07
6.30832e-07
1.13818e-06
1.76953e-06
2.11556e-06
9.44563e-08
8.11095e-08
7.91544e-08
8.36307e-08
9.91063e-08
1.37883e-07
2.22116e-07
3.82883e-07
7.10236e-07
1.26303e-06
1.86812e-06
2.15604e-06
1.1897e-07
1.0532e-07
1.09962e-07
1.24556e-07
1.59836e-07
2.31912e-07
3.64975e-07
5.98284e-07
1.02027e-06
1.54048e-06
2.02562e-06
2.21052e-06
1.98676e-07
1.93773e-07
2.15298e-07
2.60692e-07
3.48207e-07
5.01138e-07
7.45317e-07
1.12425e-06
1.62212e-06
2.04285e-06
2.26805e-06
2.27966e-06
4.62623e-07
4.90438e-07
5.75075e-07
7.1199e-07
9.28699e-07
1.26271e-06
1.70806e-06
2.11397e-06
2.30944e-06
2.37846e-06
2.38167e-06
2.32911e-06
4.47009e-06
4.4645e-06
4.43957e-06
4.37882e-06
4.34101e-06
4.43941e-06
5.60223e-06
7.0284e-06
7.21858e-06
7.2695e-06
7.30101e-06
7.33105e-06
4.72014e-06
4.77902e-06
4.6681e-06
4.74817e-06
5.44891e-06
6.19488e-06
6.67055e-06
6.8769e-06
6.7672e-06
6.38802e-06
5.95297e-06
5.44455e-06
4.83467e-06
5.1611e-06
5.35134e-06
5.67774e-06
6.11901e-06
6.30814e-06
6.38e-06
5.92638e-06
4.70906e-06
3.67165e-06
2.78228e-06
2.2466e-06
4.89883e-06
5.37575e-06
5.62449e-06
5.89518e-06
6.0212e-06
5.97561e-06
5.28554e-06
3.66515e-06
2.54578e-06
1.75293e-06
1.18788e-06
8.70437e-07
4.8664e-06
5.35975e-06
5.6369e-06
5.78038e-06
5.70691e-06
5.01579e-06
3.49561e-06
2.16248e-06
1.4449e-06
8.32735e-07
5.51813e-07
3.34903e-07
4.84296e-06
5.31283e-06
5.51488e-06
5.50925e-06
5.03928e-06
3.93125e-06
2.45089e-06
1.43884e-06
9.10113e-07
4.70191e-07
2.8474e-07
1.45956e-07
4.79023e-06
5.18017e-06
5.28574e-06
5.13386e-06
4.46806e-06
3.21054e-06
1.83237e-06
1.02792e-06
6.24513e-07
2.95832e-07
1.65334e-07
7.78309e-08
4.67865e-06
4.95927e-06
5.02996e-06
4.81486e-06
4.02201e-06
2.81872e-06
1.67943e-06
9.66855e-07
5.79157e-07
2.97008e-07
1.57984e-07
7.94496e-08
4.57118e-06
4.77552e-06
4.8313e-06
4.55093e-06
3.86721e-06
2.84119e-06
1.77409e-06
1.05617e-06
6.42864e-07
3.54491e-07
1.96173e-07
1.07628e-07
4.4417e-06
4.57832e-06
4.57927e-06
4.37748e-06
3.90105e-06
3.01813e-06
2.05785e-06
1.32229e-06
8.47192e-07
5.22711e-07
3.21117e-07
2.02353e-07
4.35466e-06
4.43035e-06
4.40117e-06
4.30073e-06
4.07346e-06
3.57949e-06
2.73906e-06
1.92171e-06
1.33261e-06
9.21735e-07
6.39669e-07
4.66412e-07
4.10681e-06
4.12668e-06
4.11017e-06
4.09669e-06
4.02871e-06
3.91162e-06
3.66515e-06
3.26251e-06
2.6722e-06
2.1129e-06
1.61378e-06
1.29494e-06
7.36598e-06
7.4043e-06
7.44249e-06
7.50418e-06
7.57128e-06
7.67432e-06
7.80283e-06
7.95087e-06
8.09525e-06
8.21463e-06
8.26886e-06
8.27591e-06
5.10381e-06
4.8497e-06
4.77e-06
4.81077e-06
5.01281e-06
5.36485e-06
5.90588e-06
6.60898e-06
7.29966e-06
8.00938e-06
8.36579e-06
8.49551e-06
1.82004e-06
1.62284e-06
1.47258e-06
1.49564e-06
1.59737e-06
1.84608e-06
2.29712e-06
3.12252e-06
4.68812e-06
6.63696e-06
8.04993e-06
8.5528e-06
6.22065e-07
5.34877e-07
4.66756e-07
4.72863e-07
5.2968e-07
6.58913e-07
9.09593e-07
1.38231e-06
2.33483e-06
4.38959e-06
7.39058e-06
8.59702e-06
2.30013e-07
1.75368e-07
1.49113e-07
1.50135e-07
1.84461e-07
2.58684e-07
4.13216e-07
7.20273e-07
1.34989e-06
3.01691e-06
6.4828e-06
8.65643e-06
8.94876e-08
5.81839e-08
4.73285e-08
4.74071e-08
6.75526e-08
1.15245e-07
2.22122e-07
4.57091e-07
9.02838e-07
2.29225e-06
5.77319e-06
8.71654e-06
4.05915e-08
2.24128e-08
1.57432e-08
1.91959e-08
3.28354e-08
6.88653e-08
1.54208e-07
3.62649e-07
7.27828e-07
1.95603e-06
5.4133e-06
8.78397e-06
4.08623e-08
2.10643e-08
1.35952e-08
1.61895e-08
2.81181e-08
6.18338e-08
1.4312e-07
3.45876e-07
7.00095e-07
1.90144e-06
5.30184e-06
8.84502e-06
6.23278e-08
3.64668e-08
3.23324e-08
4.02137e-08
6.32932e-08
1.17993e-07
2.33138e-07
5.02025e-07
8.60314e-07
2.33194e-06
5.55989e-06
8.92127e-06
1.38698e-07
9.96992e-08
1.03512e-07
1.27795e-07
1.82323e-07
2.8848e-07
4.76143e-07
8.56163e-07
1.21296e-06
3.08015e-06
4.64119e-06
7.84454e-06
3.59955e-07
3.13425e-07
3.47702e-07
4.21342e-07
5.52008e-07
7.60676e-07
1.07665e-06
1.5562e-06
1.81309e-06
3.02832e-06
4.29584e-06
7.3476e-06
1.03913e-06
1.02198e-06
1.12606e-06
1.29344e-06
1.52278e-06
1.84376e-06
2.05151e-06
2.18333e-06
2.24857e-06
2.98658e-06
4.03264e-06
6.79374e-06
6.86215e-06
8.08318e-06
1.08837e-05
1.19528e-05
1.17781e-05
1.13795e-05
1.04348e-05
8.89475e-06
7.24571e-06
5.82716e-06
4.70885e-06
4.01107e-06
5.82757e-06
6.4656e-06
8.19811e-06
8.61607e-06
9.10197e-06
1.00747e-05
1.01698e-05
1.00435e-05
9.79584e-06
9.2869e-06
8.83321e-06
8.33239e-06
5.21265e-06
6.50984e-06
6.69292e-06
6.78995e-06
7.10944e-06
7.28783e-06
7.94386e-06
8.38545e-06
8.88877e-06
8.99823e-06
8.95217e-06
8.89935e-06
6.34784e-06
6.34895e-06
6.41327e-06
6.43082e-06
6.59421e-06
6.66992e-06
6.95572e-06
7.26404e-06
7.5788e-06
7.88145e-06
7.99907e-06
7.7843e-06
3.69282e-06
3.90735e-06
4.31446e-06
4.9047e-06
5.66317e-06
6.43153e-06
6.80001e-06
6.8665e-06
6.7999e-06
6.72396e-06
6.57528e-06
6.50329e-06
8.06388e-06
7.98862e-06
7.99244e-06
7.92406e-06
7.77719e-06
7.63812e-06
7.33707e-06
7.05484e-06
6.65806e-06
6.37886e-06
6.02741e-06
6.04146e-06
8.80079e-06
8.62018e-06
8.3292e-06
7.93104e-06
7.40165e-06
6.67888e-06
5.79948e-06
5.05068e-06
4.38864e-06
4.02559e-06
3.74027e-06
3.81066e-06
7.21651e-06
6.46934e-06
5.54823e-06
4.60673e-06
3.67923e-06
3.12531e-06
2.84742e-06
2.69386e-06
2.62587e-06
2.59662e-06
2.57029e-06
2.56376e-06
6.36321e-06
6.00002e-06
5.74411e-06
5.37345e-06
4.99746e-06
4.56751e-06
4.23607e-06
4.00484e-06
3.69248e-06
3.38615e-06
3.0408e-06
2.81717e-06
6.03592e-06
5.96442e-06
5.88785e-06
5.80484e-06
5.67539e-06
5.51838e-06
5.27446e-06
5.0407e-06
4.77473e-06
4.53617e-06
4.26143e-06
4.06979e-06
3.97638e-06
4.27536e-06
4.54333e-06
4.87489e-06
5.09526e-06
5.2039e-06
5.16852e-06
5.10293e-06
5.02075e-06
4.91789e-06
4.78498e-06
4.67627e-06
2.62623e-06
2.68165e-06
2.81647e-06
2.94013e-06
3.16563e-06
3.49508e-06
3.8359e-06
4.21149e-06
4.42081e-06
4.47645e-06
4.42506e-06
4.24267e-06
2.58962e-06
2.56334e-06
2.66662e-06
2.82971e-06
3.03357e-06
3.28358e-06
3.34925e-06
3.33545e-06
3.26661e-06
3.16839e-06
3.10289e-06
2.98529e-06
3.90004e-06
3.88842e-06
3.90024e-06
3.89404e-06
3.79682e-06
3.71173e-06
3.5359e-06
3.382e-06
3.15215e-06
3.0008e-06
2.79989e-06
2.7709e-06
4.57179e-06
4.43752e-06
4.24953e-06
3.9904e-06
3.7094e-06
3.32156e-06
2.83832e-06
2.44631e-06
2.08079e-06
1.89004e-06
1.7117e-06
1.72684e-06
3.9072e-06
3.46616e-06
2.89862e-06
2.38362e-06
1.84017e-06
1.50777e-06
1.31222e-06
1.20987e-06
1.14622e-06
1.11084e-06
1.0893e-06
1.07766e-06
3.04576e-06
3.73069e-06
3.95631e-06
4.50024e-06
4.44584e-06
4.34689e-06
4.11093e-06
3.64423e-06
3.07752e-06
2.49581e-06
2.04909e-06
1.72974e-06
2.74308e-06
2.7933e-06
2.90659e-06
3.00839e-06
3.27567e-06
3.60428e-06
3.81105e-06
3.76964e-06
3.71191e-06
3.57378e-06
3.42077e-06
3.26077e-06
1.80534e-06
1.86554e-06
1.95914e-06
2.06145e-06
2.20589e-06
2.37789e-06
2.61108e-06
2.9489e-06
3.18647e-06
3.29872e-06
3.29243e-06
3.25504e-06
1.11484e-06
1.11888e-06
1.18794e-06
1.21149e-06
1.30937e-06
1.35502e-06
1.48936e-06
1.56827e-06
1.76466e-06
1.92139e-06
2.12578e-06
2.10965e-06
1.57106e-06
1.66342e-06
1.8263e-06
2.04451e-06
2.30946e-06
2.51472e-06
2.56598e-06
2.55342e-06
2.52047e-06
2.46686e-06
2.42696e-06
2.36039e-06
3.17323e-06
3.12914e-06
3.06062e-06
3.00996e-06
2.91142e-06
2.82009e-06
2.67173e-06
2.55459e-06
2.39623e-06
2.28424e-06
2.14654e-06
2.16178e-06
3.18459e-06
3.08337e-06
2.93604e-06
2.73458e-06
2.46724e-06
2.18868e-06
1.91486e-06
1.70188e-06
1.51322e-06
1.41692e-06
1.34562e-06
1.35772e-06
1.98991e-06
1.83561e-06
1.66495e-06
1.49309e-06
1.35852e-06
1.25411e-06
1.17995e-06
1.12907e-06
1.0937e-06
1.06915e-06
1.04944e-06
1.03836e-06
2.36869e-06
2.56019e-06
2.63171e-06
2.85136e-06
3.02211e-06
3.35307e-06
3.45573e-06
3.40145e-06
3.28301e-06
3.12184e-06
2.86592e-06
2.68202e-06
2.14718e-06
2.20587e-06
2.23914e-06
2.307e-06
2.38947e-06
2.48785e-06
2.64528e-06
2.83588e-06
2.99081e-06
2.9894e-06
2.95069e-06
2.89969e-06
1.44486e-06
1.48954e-06
1.59014e-06
1.65314e-06
1.78145e-06
1.86244e-06
2.00814e-06
2.1044e-06
2.26236e-06
2.36697e-06
2.48851e-06
2.47724e-06
1.04462e-06
1.04929e-06
1.08359e-06
1.111e-06
1.16808e-06
1.22211e-06
1.2926e-06
1.36689e-06
1.43712e-06
1.51668e-06
1.56525e-06
1.61836e-06
2.50375e-06
2.43042e-06
2.42652e-06
2.43014e-06
2.4148e-06
2.39036e-06
2.39119e-06
2.40418e-06
2.42088e-06
2.92534e-06
4.02048e-06
4.89027e-06
2.83563e-06
2.78246e-06
2.67317e-06
2.57182e-06
2.47653e-06
2.45182e-06
2.46438e-06
2.49386e-06
2.54174e-06
2.99478e-06
3.98097e-06
4.57449e-06
2.40455e-06
2.30552e-06
2.26699e-06
2.28992e-06
2.35893e-06
2.48271e-06
2.6546e-06
2.85274e-06
3.07589e-06
3.2108e-06
3.6778e-06
4.60502e-06
1.75189e-06
1.98481e-06
2.29512e-06
2.75455e-06
3.17343e-06
3.71368e-06
4.14132e-06
4.56352e-06
4.82273e-06
5.02133e-06
5.01449e-06
5.40093e-06
6.07894e-06
5.98564e-06
5.93761e-06
5.76131e-06
5.55842e-06
5.11955e-06
4.49392e-06
3.8549e-06
2.97527e-06
2.25168e-06
1.4165e-06
1.30766e-06
4.83337e-06
4.48105e-06
3.98136e-06
3.37206e-06
2.70075e-06
2.04702e-06
1.58245e-06
1.07475e-06
7.95796e-07
5.92239e-07
5.65571e-07
6.13001e-07
2.42043e-06
2.07077e-06
1.6468e-06
1.27216e-06
9.09743e-07
6.49569e-07
4.45414e-07
3.0929e-07
2.54903e-07
2.13415e-07
2.20879e-07
2.47467e-07
9.41067e-07
7.49358e-07
5.46753e-07
3.97135e-07
2.6298e-07
1.87721e-07
1.25276e-07
1.01332e-07
8.35663e-08
8.19289e-08
8.38096e-08
1.04305e-07
1.34087e-06
1.43267e-06
1.54027e-06
1.70463e-06
1.89129e-06
2.07395e-06
2.22641e-06
2.36584e-06
2.46127e-06
2.52768e-06
2.57614e-06
2.62889e-06
7.44976e-07
9.78281e-07
1.14875e-06
1.41329e-06
1.59459e-06
1.82112e-06
1.98551e-06
2.12004e-06
2.22347e-06
2.29817e-06
2.35227e-06
2.37791e-06
3.03292e-07
4.1676e-07
5.09662e-07
6.75199e-07
8.5676e-07
1.03723e-06
1.1949e-06
1.32617e-06
1.42939e-06
1.49574e-06
1.50562e-06
1.39254e-06
1.38632e-07
2.00311e-07
2.41324e-07
3.05304e-07
3.68103e-07
4.35915e-07
5.03882e-07
5.68839e-07
6.21078e-07
6.42394e-07
6.05557e-07
5.26784e-07
2.69306e-06
2.74212e-06
2.7845e-06
2.82495e-06
2.84207e-06
2.72786e-06
2.40646e-06
2.11324e-06
1.62701e-06
1.11077e-06
6.92025e-07
5.72187e-07
2.35606e-06
2.25522e-06
2.0667e-06
1.7523e-06
1.41106e-06
1.00235e-06
7.74485e-07
4.93683e-07
3.40065e-07
2.35885e-07
2.39904e-07
2.7454e-07
1.22616e-06
1.0111e-06
7.92042e-07
6.05243e-07
4.06047e-07
2.77481e-07
1.77586e-07
1.10147e-07
8.73539e-08
7.7978e-08
8.3452e-08
1.04949e-07
4.30418e-07
3.29831e-07
2.38235e-07
1.61168e-07
9.85996e-08
6.77147e-08
3.72318e-08
3.19934e-08
2.35799e-08
2.43847e-08
2.6146e-08
3.56705e-08
6.33645e-07
6.90505e-07
7.5026e-07
8.2622e-07
8.91926e-07
9.51255e-07
9.90862e-07
1.02079e-06
1.04137e-06
1.0671e-06
1.09532e-06
1.12891e-06
3.62754e-07
5.06637e-07
6.0177e-07
7.49264e-07
8.3776e-07
9.40575e-07
9.98495e-07
1.06097e-06
1.09961e-06
1.14639e-06
1.17691e-06
1.22501e-06
1.43101e-07
2.43802e-07
3.40703e-07
5.01054e-07
6.36544e-07
7.80974e-07
8.89528e-07
9.87969e-07
1.05731e-06
1.11545e-06
1.15996e-06
1.2017e-06
5.45319e-08
1.02194e-07
1.38104e-07
2.15837e-07
3.10865e-07
4.48469e-07
5.77459e-07
6.96404e-07
7.93332e-07
8.72816e-07
9.34904e-07
9.82193e-07
1.17789e-06
1.22206e-06
1.28888e-06
1.32977e-06
1.39023e-06
1.41288e-06
1.43095e-06
1.42729e-06
1.39242e-06
1.32677e-06
1.27519e-06
1.21022e-06
1.25903e-06
1.3024e-06
1.33451e-06
1.35999e-06
1.37288e-06
1.37895e-06
1.37432e-06
1.35026e-06
1.32465e-06
1.29858e-06
1.2861e-06
1.25546e-06
1.23446e-06
1.26071e-06
1.28007e-06
1.29343e-06
1.29536e-06
1.28702e-06
1.26985e-06
1.25125e-06
1.23248e-06
1.21233e-06
1.1892e-06
1.1847e-06
1.01428e-06
1.03201e-06
1.03717e-06
1.02684e-06
1.00383e-06
9.70661e-07
9.32991e-07
8.98017e-07
8.61873e-07
8.3983e-07
8.39386e-07
8.90968e-07
1.20373e-06
1.14047e-06
1.12898e-06
1.09935e-06
1.08662e-06
1.0624e-06
1.05247e-06
1.04493e-06
1.04241e-06
1.05796e-06
1.083e-06
1.11886e-06
1.23632e-06
1.20679e-06
1.19295e-06
1.18954e-06
1.19129e-06
1.20626e-06
1.22979e-06
1.25409e-06
1.28202e-06
1.31472e-06
1.35448e-06
1.41526e-06
1.18739e-06
1.1975e-06
1.16681e-06
1.16783e-06
1.17893e-06
1.20785e-06
1.24423e-06
1.28489e-06
1.32457e-06
1.35947e-06
1.39119e-06
1.42107e-06
9.77509e-07
1.03224e-06
1.02962e-06
1.01757e-06
1.01399e-06
1.03769e-06
1.06972e-06
1.10561e-06
1.13833e-06
1.1633e-06
1.1745e-06
1.15372e-06
1.17535e-06
1.25444e-06
1.3637e-06
1.48309e-06
1.6401e-06
1.79525e-06
1.98872e-06
2.20629e-06
2.45731e-06
2.72589e-06
2.96964e-06
3.12522e-06
1.48641e-06
1.5479e-06
1.62315e-06
1.68249e-06
1.73581e-06
1.77206e-06
1.80723e-06
1.74004e-06
1.51844e-06
1.33875e-06
1.19879e-06
1.27501e-06
1.446e-06
1.46916e-06
1.47775e-06
1.43036e-06
1.31641e-06
1.10211e-06
8.92444e-07
6.67107e-07
5.78013e-07
4.90453e-07
4.95436e-07
5.45759e-07
1.08389e-06
9.8572e-07
8.47735e-07
6.758e-07
5.15154e-07
4.13172e-07
2.90084e-07
2.41489e-07
1.98843e-07
1.77291e-07
1.87805e-07
2.19623e-07
3.40152e-06
3.85386e-06
4.14581e-06
4.64989e-06
4.92034e-06
5.31485e-06
5.49711e-06
5.72762e-06
5.82848e-06
5.92727e-06
5.96484e-06
6.03181e-06
1.49529e-06
1.9854e-06
2.41381e-06
3.07055e-06
3.56904e-06
4.08593e-06
4.48449e-06
4.78834e-06
5.00885e-06
5.16655e-06
5.2161e-06
5.12494e-06
6.72291e-07
9.24617e-07
1.12241e-06
1.47e-06
1.82421e-06
2.17922e-06
2.4954e-06
2.75957e-06
2.97226e-06
3.07979e-06
3.03417e-06
2.74317e-06
3.01502e-07
4.39696e-07
5.33314e-07
6.79634e-07
8.19866e-07
9.67363e-07
1.11103e-06
1.24513e-06
1.34758e-06
1.3819e-06
1.28719e-06
1.13701e-06
2.90988e-07
2.29034e-07
1.42535e-07
1.10251e-07
5.87467e-08
4.93786e-08
2.50168e-08
2.20558e-08
1.114e-08
1.10109e-08
6.81608e-09
8.09551e-09
7.50414e-08
5.71078e-08
2.98957e-08
2.55417e-08
1.07624e-08
9.03614e-09
3.08099e-09
2.62362e-09
8.00212e-10
9.13527e-10
5.84901e-10
7.00013e-10
1.59737e-08
1.14849e-08
5.14991e-09
4.39767e-09
1.29563e-09
1.06184e-09
2.10737e-10
1.98688e-10
7.79453e-11
9.45323e-11
7.32724e-11
8.39116e-11
2.58749e-09
1.7436e-09
6.04108e-10
5.16726e-10
8.76945e-11
7.82976e-11
1.54876e-11
1.87114e-11
1.09712e-11
1.30811e-11
1.19203e-11
1.27769e-11
2.85271e-10
1.53628e-10
4.22231e-11
4.02774e-11
4.55698e-12
5.32986e-12
1.92956e-12
2.29975e-12
1.73006e-12
1.99268e-12
1.96218e-12
2.02136e-12
2.42534e-11
3.04819e-12
4.05827e-12
2.02406e-12
3.88485e-13
4.67068e-13
2.42971e-13
2.9948e-13
2.65557e-13
2.88423e-13
2.9072e-13
2.95512e-13
1.54927e-12
2.02221e-13
2.74764e-13
1.19546e-13
3.74022e-14
4.65145e-14
2.94872e-14
3.73344e-14
3.58495e-14
3.74741e-14
3.79729e-14
3.84494e-14
9.85775e-14
1.23319e-14
1.69747e-14
8.54728e-15
3.56132e-15
4.63512e-15
3.62767e-15
4.26419e-15
4.23843e-15
4.3368e-15
4.39737e-15
4.44322e-15
5.80413e-15
6.98928e-16
1.02662e-15
6.63724e-16
3.30636e-16
4.50455e-16
4.04964e-16
4.41768e-16
4.43566e-16
4.50263e-16
4.56153e-16
4.60165e-16
3.19273e-16
4.22818e-17
6.41207e-17
5.15387e-17
2.92864e-17
4.12878e-17
4.01022e-17
4.15796e-17
4.18652e-17
4.23598e-17
4.28461e-17
4.31689e-17
1.67171e-17
2.67848e-18
4.14381e-18
3.83741e-18
2.67543e-18
3.51631e-18
3.52971e-18
3.5852e-18
3.61225e-18
3.6477e-18
3.68343e-18
3.70765e-18
8.93409e-19
1.96416e-19
2.94302e-19
2.98255e-19
2.52463e-19
2.9947e-19
3.04603e-19
3.08078e-19
3.10714e-19
3.13279e-19
3.15449e-19
3.17008e-19
6.35905e-08
9.38669e-08
1.11222e-07
1.3102e-07
1.5216e-07
1.74143e-07
1.96973e-07
2.16442e-07
2.2748e-07
2.2472e-07
1.9581e-07
1.65056e-07
3.33589e-08
3.92911e-08
4.46434e-08
5.11016e-08
5.80642e-08
6.49067e-08
7.04179e-08
7.35168e-08
7.26692e-08
6.49517e-08
5.60755e-08
4.11836e-08
1.4921e-08
1.41327e-08
1.58081e-08
1.80569e-08
2.02262e-08
2.20104e-08
2.2987e-08
2.26025e-08
1.94734e-08
1.69541e-08
1.36963e-08
8.38725e-09
5.93076e-09
4.13991e-09
4.72951e-09
5.37109e-09
5.9605e-09
6.3822e-09
6.51074e-09
5.90491e-09
4.48411e-09
3.63566e-09
2.83858e-09
1.46248e-09
2.10644e-09
9.60249e-10
1.12785e-09
1.26898e-09
1.39344e-09
1.46877e-09
1.46825e-09
1.23942e-09
8.21578e-10
5.66887e-10
4.36509e-10
2.13952e-10
6.9069e-10
1.71674e-10
2.10674e-10
2.33288e-10
2.51883e-10
2.59656e-10
2.49525e-10
1.92568e-10
1.0862e-10
5.5911e-11
4.28115e-11
2.01675e-11
2.14982e-10
2.43583e-11
3.14945e-11
3.41045e-11
3.59581e-11
3.58398e-11
3.17324e-11
2.16264e-11
1.04459e-11
3.78321e-12
2.35661e-12
1.09108e-12
6.45227e-11
2.93314e-12
3.94778e-12
4.17428e-12
4.29807e-12
4.00343e-12
3.15407e-12
1.8517e-12
7.98597e-13
2.25725e-13
1.05213e-13
5.73374e-14
1.81218e-11
3.24606e-13
4.34709e-13
4.49641e-13
4.49976e-13
3.76065e-13
2.54319e-13
1.20961e-13
5.13437e-14
1.66547e-14
4.7606e-15
4.03818e-15
4.41019e-12
3.50424e-14
4.34249e-14
4.41736e-14
4.21556e-14
3.04871e-14
1.66008e-14
5.66802e-15
3.30483e-15
1.58642e-15
2.33761e-16
2.73596e-16
8.13101e-13
3.662e-15
3.96926e-15
3.99225e-15
3.54284e-15
2.14576e-15
8.40099e-16
1.64151e-16
2.43931e-16
1.22965e-16
1.21827e-17
1.78768e-17
1.27107e-13
5.13086e-16
3.14151e-16
3.68953e-16
2.86747e-16
1.37047e-16
2.353e-17
1.1943e-17
1.76053e-17
7.8002e-18
7.67102e-19
1.19176e-18
1.20814e-07
9.0974e-08
5.47959e-08
3.82526e-08
1.91305e-08
1.48976e-08
7.04229e-09
6.22908e-09
2.99608e-09
3.01814e-09
1.94213e-09
2.34136e-09
2.90978e-08
2.05318e-08
9.99713e-09
8.17631e-09
3.16501e-09
2.56138e-09
8.38401e-10
7.10364e-10
2.1235e-10
2.43469e-10
1.59592e-10
1.91189e-10
5.93906e-09
3.97328e-09
1.64449e-09
1.34379e-09
3.63467e-10
2.94134e-10
6.24837e-11
5.81079e-11
2.46639e-11
2.87456e-11
2.26808e-11
2.58952e-11
9.49156e-10
6.52652e-10
1.96547e-10
1.60036e-10
2.36826e-11
2.11451e-11
6.86381e-12
7.62535e-12
4.86702e-12
5.46986e-12
5.0356e-12
5.39501e-12
1.07514e-10
8.16109e-11
1.3679e-11
1.31344e-11
1.76493e-12
1.87618e-12
1.33684e-12
1.35456e-12
1.01678e-12
1.15926e-12
1.14616e-12
1.18424e-12
7.71299e-12
7.19329e-12
7.42321e-13
8.84157e-13
2.60795e-13
2.96444e-13
2.0124e-13
2.2932e-13
1.97771e-13
2.16867e-13
2.19099e-13
2.23187e-13
6.83436e-13
3.79752e-13
6.05552e-14
7.33784e-14
3.3405e-14
4.04259e-14
3.02699e-14
3.41469e-14
3.23231e-14
3.37852e-14
3.42676e-14
3.4731e-14
5.99462e-14
1.38255e-14
5.6217e-15
6.91284e-15
3.64271e-15
4.67866e-15
4.20718e-15
4.35725e-15
4.34403e-15
4.41628e-15
4.47856e-15
4.52622e-15
4.17129e-15
4.60552e-16
5.70204e-16
6.39554e-16
4.01674e-16
4.83986e-16
4.85459e-16
4.83646e-16
4.89938e-16
4.9534e-16
5.01707e-16
5.06052e-16
2.57945e-16
3.55917e-17
5.03369e-17
5.56473e-17
4.04681e-17
4.57629e-17
4.77206e-17
4.75761e-17
4.8264e-17
4.87263e-17
4.927e-17
4.96301e-17
1.55337e-17
2.73125e-18
4.02802e-18
4.49378e-18
3.6676e-18
3.96554e-18
4.18329e-18
4.19767e-18
4.24726e-18
4.28382e-18
4.32465e-18
4.35228e-18
9.47613e-19
2.1872e-19
3.21639e-19
3.62257e-19
3.26909e-19
3.41683e-19
3.59205e-19
3.62104e-19
3.66039e-19
3.68854e-19
3.71364e-19
3.73169e-19
2.0342e-08
4.02895e-08
5.45285e-08
8.48794e-08
1.22189e-07
1.76844e-07
2.39233e-07
2.99719e-07
3.56914e-07
4.07007e-07
4.51327e-07
4.81047e-07
8.66777e-09
1.38669e-08
1.86781e-08
2.83377e-08
4.07975e-08
5.83702e-08
7.69498e-08
9.70733e-08
1.17614e-07
1.38517e-07
1.54605e-07
1.63272e-07
3.38937e-09
3.85279e-09
5.45376e-09
7.74143e-09
1.06055e-08
1.41698e-08
1.84893e-08
2.35592e-08
2.91184e-08
3.43955e-08
3.80856e-08
3.92475e-08
1.22056e-09
9.56214e-10
1.19752e-09
1.56212e-09
2.05211e-09
2.68408e-09
3.46576e-09
4.36123e-09
5.29763e-09
6.1673e-09
6.65516e-09
6.45395e-09
3.93958e-10
1.69497e-10
2.13017e-10
2.62174e-10
3.26404e-10
4.05745e-10
5.00195e-10
6.02297e-10
7.01579e-10
7.83984e-10
8.07358e-10
6.66048e-10
1.22904e-10
2.55012e-11
3.22597e-11
3.6865e-11
4.25599e-11
4.88502e-11
5.56915e-11
6.19873e-11
6.64867e-11
6.76764e-11
6.21572e-11
4.12424e-11
3.8096e-11
3.38526e-12
4.32301e-12
4.5478e-12
4.7775e-12
4.91755e-12
5.04569e-12
5.10172e-12
4.7964e-12
4.02028e-12
3.09709e-12
1.69084e-12
1.17694e-11
4.20107e-13
5.37072e-13
5.26655e-13
4.91879e-13
4.13343e-13
3.78664e-13
3.49942e-13
2.89428e-13
1.8326e-13