/*--------------------------------*- C++ -*----------------------------------*\
| =========                 |                                                 |
| \\      /  F ield         | OpenFOAM: The Open Source CFD Toolbox           |
|  \\    /   O peration     | Version:  2212                                  |
|   \\  /    A nd           | Website:  www.openfoam.com                      |
|    \\/     M anipulation  |                                                 |
\*---------------------------------------------------------------------------*/
FoamFile
{
    version     2.0;
    format      ascii;
    arch        "LSB;label=32;scalar=64";
    class       volScalarField;
    location    "0.01";
    object      tracer0;
}
// * * * * * * * * * * * * * * * * * * * * * * * * * * * * * * * * * * * * * //

dimensions      [0 0 0 0 0 0 0];

internalField   nonuniform List<scalar> 
3072
(
1.50862e-06
1.51995e-06
1.538e-06
1.55448e-06
1.6054e-06
1.86255e-06
3.74304e-06
5.49171e-06
5.77386e-06
5.86771e-06
5.93098e-06
5.98174e-06
1.59968e-06
1.68833e-06
1.78575e-06
2.21115e-06
3.26591e-06
4.44545e-06
5.21551e-06
5.54131e-06
5.6085e-06
5.593e-06
5.50927e-06
5.42823e-06
1.81474e-06
2.3663e-06
2.98782e-06
3.72596e-06
4.53663e-06
4.96679e-06
5.15765e-06
5.2129e-06
4.87029e-06
4.50421e-06
4.17414e-06
3.95563e-06
1.93449e-06
2.81366e-06
3.56407e-06
4.19673e-06
4.62166e-06
4.79363e-06
4.77127e-06
4.26033e-06
3.71917e-06
3.4933e-06
3.2501e-06
3.16928e-06
1.89416e-06
2.79497e-06
3.62797e-06
4.16793e-06
4.40656e-06
4.33922e-06
3.91067e-06
3.321e-06
3.01882e-06
2.87805e-06
2.82543e-06
2.85317e-06
1.832e-06
2.70051e-06
3.54697e-06
3.92434e-06
3.95738e-06
3.65557e-06
3.15689e-06
2.77343e-06
2.62196e-06
2.57726e-06
2.63831e-06
2.77728e-06
1.70576e-06
2.55075e-06
3.24057e-06
3.38104e-06
3.35381e-06
3.0334e-06
2.62409e-06
2.39061e-06
2.31067e-06
2.33438e-06
2.45747e-06
2.64625e-06
1.63786e-06
2.14719e-06
2.7653e-06
2.96569e-06
2.90933e-06
2.58708e-06
2.28614e-06
2.12241e-06
2.07265e-06
2.10118e-06
2.2206e-06
2.39976e-06
2.97928e-06
3.25783e-06
2.18546e-06
2.17099e-06
2.23405e-06
2.11066e-06
1.91828e-06
1.80013e-06
1.74358e-06
1.72868e-06
1.76428e-06
1.8997e-06
5.86936e-06
5.46255e-06
3.74058e-06
2.12219e-06
1.85262e-06
1.71344e-06
1.59245e-06
1.5058e-06
1.45036e-06
1.42051e-06
1.41245e-06
1.4214e-06
7.76725e-06
8.55549e-06
8.08259e-06
4.40365e-06
2.8977e-06
2.30031e-06
1.98834e-06
1.80065e-06
1.68929e-06
1.61371e-06
1.57947e-06
1.58271e-06
1.22076e-05
1.28087e-05
1.42793e-05
1.3252e-05
1.1216e-05
9.53045e-06
8.11811e-06
6.9275e-06
6.06027e-06
5.31056e-06
4.87372e-06
4.52162e-06
6.02439e-06
6.06297e-06
6.09928e-06
6.13439e-06
6.17951e-06
6.23051e-06
6.29014e-06
6.35376e-06
6.41901e-06
6.45843e-06
6.46935e-06
6.40587e-06
5.35061e-06
5.31408e-06
5.31439e-06
5.37535e-06
5.48047e-06
5.64557e-06
5.84e-06
6.08441e-06
6.35169e-06
6.57446e-06
6.68986e-06
6.74088e-06
3.79381e-06
3.73854e-06
3.71476e-06
3.74912e-06
3.83248e-06
4.00897e-06
4.31971e-06
4.81813e-06
5.47723e-06
6.24689e-06
6.67344e-06
6.82529e-06
3.12622e-06
3.12067e-06
3.12202e-06
3.13965e-06
3.1626e-06
3.21767e-06
3.33949e-06
3.64138e-06
4.2475e-06
5.39749e-06
6.48125e-06
6.85977e-06
2.90468e-06
2.95527e-06
2.98663e-06
2.99626e-06
2.97442e-06
2.94549e-06
2.95381e-06
3.12672e-06
3.60187e-06
4.6003e-06
6.2218e-06
6.90437e-06
2.91785e-06
3.01047e-06
3.03902e-06
3.02275e-06
2.93709e-06
2.82714e-06
2.76835e-06
2.78785e-06
3.13026e-06
4.10963e-06
5.93274e-06
6.92942e-06
2.83646e-06
2.97334e-06
3.06833e-06
3.02262e-06
2.90548e-06
2.70826e-06
2.56432e-06
2.55972e-06
2.88082e-06
3.81848e-06
5.75939e-06
6.96661e-06
2.59073e-06
2.74471e-06
2.77226e-06
2.71005e-06
2.58709e-06
2.36005e-06
2.24023e-06
2.35624e-06
2.77802e-06
3.72657e-06
5.68351e-06
6.98469e-06
2.04823e-06
2.15969e-06
2.13899e-06
2.06746e-06
1.9502e-06
1.93862e-06
2.03829e-06
2.28596e-06
2.77906e-06
3.82706e-06
5.81806e-06
7.05142e-06
1.46089e-06
1.50541e-06
1.51582e-06
1.56077e-06
1.64843e-06
1.80783e-06
2.06907e-06
2.51992e-06
3.29884e-06
4.64527e-06
6.27983e-06
7.1637e-06
1.61183e-06
1.67595e-06
1.81347e-06
2.00738e-06
2.28788e-06
2.67935e-06
3.23936e-06
4.08576e-06
5.13252e-06
6.2908e-06
7.05918e-06
7.33181e-06
4.40717e-06
4.54888e-06
4.83333e-06
5.17436e-06
5.58746e-06
6.05733e-06
6.58727e-06
6.99646e-06
7.25289e-06
7.38542e-06
7.42094e-06
7.4029e-06
4.01402e-06
4.02329e-06
4.01094e-06
3.96013e-06
3.96679e-06
4.12563e-06
5.55788e-06
7.46207e-06
7.68858e-06
7.7474e-06
7.77281e-06
7.79439e-06
4.33466e-06
4.42606e-06
4.34865e-06
4.55837e-06
5.44317e-06
6.48827e-06
7.12582e-06
7.38486e-06
7.38823e-06
7.09122e-06
6.77907e-06
6.4687e-06
4.54438e-06
5.06529e-06
5.46411e-06
5.97334e-06
6.62586e-06
6.91477e-06
7.02704e-06
6.98359e-06
6.44434e-06
5.67093e-06
5.26286e-06
4.67156e-06
4.66389e-06
5.46069e-06
5.93344e-06
6.39041e-06
6.64813e-06
6.74391e-06
6.53296e-06
5.73054e-06
4.51093e-06
3.80453e-06
2.99008e-06
2.35933e-06
4.62787e-06
5.45594e-06
6.02406e-06
6.34787e-06
6.46742e-06
6.24697e-06
5.35358e-06
4.14209e-06
3.08783e-06
2.34406e-06
1.58864e-06
1.1472e-06
4.54793e-06
5.40562e-06
5.93685e-06
6.13872e-06
6.02682e-06
5.34831e-06
4.27993e-06
3.1188e-06
2.18197e-06
1.48723e-06
8.9369e-07
5.83318e-07
4.45044e-06
5.27624e-06
5.66335e-06
5.7138e-06
5.4269e-06
4.61268e-06
3.5013e-06
2.44159e-06
1.58982e-06
1.01145e-06
5.96475e-07
3.53721e-07
4.38713e-06
5.01324e-06
5.24099e-06
5.25807e-06
4.86911e-06
4.02814e-06
3.00461e-06
2.18924e-06
1.53352e-06
1.01518e-06
6.29126e-07
3.85392e-07
4.214e-06
4.64962e-06
4.81167e-06
4.74671e-06
4.38559e-06
3.71233e-06
2.98041e-06
2.26423e-06
1.67213e-06
1.18345e-06
8.1907e-07
5.72943e-07
4.14243e-06
4.41192e-06
4.4571e-06
4.35716e-06
4.10639e-06
3.69599e-06
3.12387e-06
2.55573e-06
2.06643e-06
1.65231e-06
1.30924e-06
1.08029e-06
3.96118e-06
4.03979e-06
4.02497e-06
3.98493e-06
3.90544e-06
3.73322e-06
3.46233e-06
3.17873e-06
2.86941e-06
2.61976e-06
2.35872e-06
2.17746e-06
3.99929e-06
4.02254e-06
4.02786e-06
4.0171e-06
3.98901e-06
3.92974e-06
3.8422e-06
3.72708e-06
3.57479e-06
3.44766e-06
3.29526e-06
3.20909e-06
7.81773e-06
7.84657e-06
7.87289e-06
7.91523e-06
7.9602e-06
8.02895e-06
8.09017e-06
7.88161e-06
7.83225e-06
7.79072e-06
7.91195e-06
8.15461e-06
6.21266e-06
6.04326e-06
5.94994e-06
5.95994e-06
6.04102e-06
6.16365e-06
6.28396e-06
6.11408e-06
6.09451e-06
6.02248e-06
6.03569e-06
6.09243e-06
4.39877e-06
4.09704e-06
4.03471e-06
4.02718e-06
4.2569e-06
4.66658e-06
5.07855e-06
5.23425e-06
5.3018e-06
5.34266e-06
5.33898e-06
5.32293e-06
1.90642e-06
1.5713e-06
1.41504e-06
1.40079e-06
1.50008e-06
1.76407e-06
2.30248e-06
3.49809e-06
4.16047e-06
4.56366e-06
4.79529e-06
4.91423e-06
8.18035e-07
6.51375e-07
5.70286e-07
5.64486e-07
6.44585e-07
8.08331e-07
1.08547e-06
1.55881e-06
2.53991e-06
3.59018e-06
4.13352e-06
4.45078e-06
3.79864e-07
2.80722e-07
2.46241e-07
2.47432e-07
3.21616e-07
4.64697e-07
7.08694e-07
1.09648e-06
1.66379e-06
2.64947e-06
3.49268e-06
4.11535e-06
2.14168e-07
1.42299e-07
1.1249e-07
1.31345e-07
2.0382e-07
3.26534e-07
5.55212e-07
9.39117e-07
1.49359e-06
2.17405e-06
3.10972e-06
3.90854e-06
2.42066e-07
1.60967e-07
1.37528e-07
1.51949e-07
1.97692e-07
3.04131e-07
5.22166e-07
9.04534e-07
1.46257e-06
2.13355e-06
3.06227e-06
3.93611e-06
4.14611e-07
3.13504e-07
3.09487e-07
3.46719e-07
4.2458e-07
5.67901e-07
8.12154e-07
1.2004e-06
1.73627e-06
2.31213e-06
3.12926e-06
3.96417e-06
9.08625e-07
8.09167e-07
8.28319e-07
8.99334e-07
1.01113e-06
1.18225e-06
1.43127e-06
1.78158e-06
2.22421e-06
2.69085e-06
3.39478e-06
4.06692e-06
2.03575e-06
1.93637e-06
1.94599e-06
2.01444e-06
2.12327e-06
2.26973e-06
2.46375e-06
2.70707e-06
3.03485e-06
3.38759e-06
3.8707e-06
4.193e-06
3.11405e-06
3.10388e-06
3.14737e-06
3.24121e-06
3.3702e-06
3.5234e-06
3.70508e-06
3.90623e-06
4.14412e-06
4.32094e-06
4.46259e-06
4.42979e-06
1.88886e-05
1.90733e-05
1.95791e-05
2.02904e-05
2.0854e-05
1.9906e-05
9.13355e-06
2.34661e-06
2.04554e-06
2.11696e-06
2.15362e-06
2.19159e-06
1.613e-05
1.64411e-05
1.82531e-05
1.71563e-05
1.19124e-05
6.35116e-06
3.03644e-06
2.01883e-06
1.9776e-06
1.99088e-06
1.96907e-06
1.93803e-06
1.48847e-05
1.3833e-05
1.25825e-05
9.38611e-06
5.29448e-06
2.99927e-06
1.99813e-06
1.77834e-06
1.71673e-06
1.51782e-06
1.34161e-06
1.16964e-06
1.37426e-05
1.08939e-05
8.95871e-06
5.7677e-06
3.13297e-06
1.89735e-06
1.53673e-06
1.39361e-06
1.15429e-06
8.95176e-07
7.3361e-07
5.76286e-07
1.32187e-05
9.21564e-06
7.10379e-06
4.05129e-06
1.98429e-06
1.41404e-06
1.19669e-06
9.95754e-07
7.20822e-07
5.3187e-07
4.00906e-07
3.03322e-07
1.33787e-05
8.94579e-06
6.13601e-06
2.5435e-06
1.44547e-06
1.08788e-06
9.21288e-07
6.99818e-07
4.68996e-07
3.37581e-07
2.35758e-07
1.78322e-07
1.26172e-05
7.76182e-06
4.46749e-06
1.92341e-06
1.16189e-06
8.82312e-07
7.25558e-07
5.18935e-07
3.31599e-07
2.33479e-07
1.55954e-07
1.14763e-07
1.13949e-05
6.602e-06
3.48858e-06
1.52009e-06
9.22953e-07
7.02453e-07
5.7818e-07
4.12359e-07
2.57056e-07
1.72302e-07
1.16461e-07
8.44185e-08
1.08862e-05
6.00897e-06
2.93844e-06
1.34586e-06
7.9541e-07
5.64505e-07
4.43987e-07
3.36585e-07
2.36173e-07
1.67878e-07
1.19012e-07
8.73833e-08
1.01329e-05
5.5572e-06
2.97893e-06
1.46762e-06
8.66634e-07
5.92519e-07
4.49684e-07
3.47844e-07
2.60189e-07
1.95836e-07
1.50424e-07
1.17204e-07
9.88887e-06
6.07896e-06
3.76094e-06
2.32106e-06
1.53686e-06
1.0826e-06
8.0967e-07
6.36079e-07
5.14978e-07
4.33114e-07
3.77807e-07
3.37477e-07
9.43031e-06
8.45065e-06
7.24494e-06
6.19853e-06
5.34575e-06
4.54535e-06
3.86321e-06
3.26017e-06
2.80151e-06
2.42075e-06
2.17377e-06
1.99273e-06
2.21783e-06
2.24748e-06
2.2706e-06
2.29801e-06
2.32599e-06
2.3621e-06
2.3994e-06
2.44336e-06
2.48557e-06
2.51128e-06
2.5153e-06
2.4578e-06
1.90793e-06
1.89519e-06
1.89903e-06
1.93353e-06
1.98936e-06
2.07649e-06
2.19301e-06
2.33534e-06
2.49527e-06
2.64006e-06
2.72746e-06
2.76078e-06
1.05568e-06
9.73183e-07
9.45087e-07
9.52515e-07
1.01961e-06
1.13642e-06
1.3383e-06
1.62479e-06
2.01345e-06
2.45333e-06
2.74414e-06
2.85404e-06
5.05256e-07
4.42321e-07
4.30149e-07
4.36127e-07
4.76095e-07
5.49914e-07
6.82746e-07
9.09086e-07
1.3063e-06
1.98039e-06
2.64751e-06
2.90158e-06
2.64078e-07
2.35346e-07
2.31954e-07
2.44496e-07
2.68525e-07
3.19725e-07
4.12963e-07
5.89176e-07
9.16645e-07
1.52854e-06
2.48945e-06
2.95641e-06
1.51636e-07
1.42265e-07
1.44959e-07
1.58308e-07
1.76509e-07
2.13042e-07
2.82738e-07
4.26214e-07
7.11516e-07
1.31173e-06
2.33473e-06
2.99693e-06
9.57563e-08
9.03757e-08
9.6731e-08
1.06082e-07
1.23456e-07
1.58778e-07
2.20947e-07
3.50547e-07
6.18565e-07
1.18934e-06
2.2541e-06
3.04623e-06
6.86779e-08
6.30545e-08
6.27003e-08
7.00456e-08
9.09387e-08
1.34332e-07
1.99277e-07
3.28656e-07
5.97765e-07
1.16484e-06
2.22906e-06
3.08622e-06
6.99841e-08
6.39889e-08
6.50622e-08
7.15544e-08
9.0409e-08
1.34036e-07
2.251e-07
4.00795e-07
7.41619e-07
1.3621e-06
2.3906e-06
3.16214e-06
1.00432e-07
1.01671e-07
1.16423e-07
1.45721e-07
2.01729e-07
3.00311e-07
4.63014e-07
7.25244e-07
1.17539e-06
1.81658e-06
2.67316e-06
3.27302e-06
3.38268e-07
3.68508e-07
4.473e-07
5.56735e-07
7.13209e-07
9.30318e-07
1.21972e-06
1.62746e-06
2.17465e-06
2.75844e-06
3.27183e-06
3.46214e-06
1.91789e-06
1.98276e-06
2.13005e-06
2.31433e-06
2.53721e-06
2.79483e-06
3.09397e-06
3.36764e-06
3.56464e-06
3.67401e-06
3.72083e-06
3.62622e-06
4.65222e-06
4.64834e-06
4.62369e-06
4.56087e-06
4.52406e-06
4.61504e-06
5.61665e-06
7.06767e-06
7.33179e-06
7.4248e-06
7.49384e-06
7.54037e-06
4.93238e-06
4.98796e-06
4.88813e-06
5.04123e-06
5.63656e-06
6.27338e-06
6.74674e-06
6.95895e-06
6.96063e-06
6.6539e-06
6.33313e-06
5.92586e-06
5.0597e-06
5.36708e-06
5.58339e-06
5.84965e-06
6.19353e-06
6.39049e-06
6.47404e-06
6.13704e-06
5.1489e-06
4.1571e-06
3.39779e-06
2.81834e-06
5.1263e-06
5.54516e-06
5.75078e-06
5.9745e-06
6.08489e-06
6.05503e-06
5.45103e-06
4.06797e-06
2.97825e-06
2.22826e-06
1.672e-06
1.33289e-06
5.11232e-06
5.5273e-06
5.73632e-06
5.84433e-06
5.74025e-06
5.07845e-06
3.74139e-06
2.54412e-06
1.77881e-06
1.19139e-06
8.67179e-07
6.27911e-07
5.09991e-06
5.46805e-06
5.5983e-06
5.53083e-06
5.02222e-06
4.01216e-06
2.68431e-06
1.72005e-06
1.14404e-06
6.82793e-07
4.72616e-07
3.03264e-07
5.04967e-06
5.32448e-06
5.36605e-06
5.11107e-06
4.3915e-06
3.20988e-06
1.98893e-06
1.20787e-06
7.74364e-07
4.30866e-07
2.70109e-07
1.60521e-07
4.94825e-06
5.12831e-06
5.10336e-06
4.72737e-06
3.83589e-06
2.75497e-06
1.79413e-06
1.13657e-06
7.48478e-07
4.37122e-07
2.68916e-07
1.62987e-07
4.86175e-06
4.98122e-06
4.90241e-06
4.41664e-06
3.70766e-06
2.77953e-06
1.90134e-06
1.25935e-06
8.58955e-07
5.54283e-07
3.6261e-07
2.4729e-07
4.74356e-06
4.82168e-06
4.69026e-06
4.37196e-06
3.81007e-06
3.04517e-06
2.31131e-06
1.70238e-06
1.2713e-06
9.5436e-07
7.24544e-07
5.89249e-07
4.67158e-06
4.6775e-06
4.60298e-06
4.43662e-06
4.17933e-06
3.80296e-06
3.39913e-06
2.93943e-06
2.53473e-06
2.18562e-06
1.89252e-06
1.71872e-06
4.50565e-06
4.4826e-06
4.43855e-06
4.38793e-06
4.32448e-06
4.23391e-06
4.11569e-06
3.98757e-06
3.82737e-06
3.69496e-06
3.54034e-06
3.4392e-06
7.61339e-06
7.65269e-06
7.73111e-06
7.78663e-06
7.86914e-06
7.98003e-06
8.11104e-06
8.26387e-06
8.41533e-06
8.54059e-06
8.5939e-06
8.5326e-06
5.63107e-06
5.43755e-06
5.38886e-06
5.45905e-06
5.67396e-06
6.01453e-06
6.52935e-06
7.16916e-06
7.85122e-06
8.532e-06
8.87019e-06
9.00651e-06
2.4805e-06
2.24714e-06
2.14425e-06
2.17986e-06
2.30934e-06
2.59157e-06
3.07287e-06
3.92579e-06
5.41286e-06
7.33977e-06
8.69282e-06
9.16042e-06
1.09395e-06
9.89536e-07
9.25233e-07
9.40048e-07
1.03885e-06
1.2327e-06
1.56205e-06
2.1193e-06
3.08896e-06
5.14773e-06
8.11551e-06
9.24802e-06
4.94775e-07
4.23068e-07
3.92418e-07
3.96993e-07
4.66687e-07
6.14728e-07
8.87277e-07
1.34463e-06
2.08025e-06
3.79462e-06
7.34545e-06
9.35115e-06
2.2127e-07
1.68065e-07
1.49106e-07
1.52567e-07
2.04164e-07
3.1153e-07
5.21635e-07
9.59778e-07
1.55219e-06
3.01858e-06
6.70193e-06
9.43961e-06
1.03581e-07
7.14084e-08
5.67147e-08
6.83703e-08
1.10649e-07
1.96515e-07
3.70727e-07
7.84069e-07
1.33296e-06
2.68176e-06
6.37893e-06
9.53842e-06
1.03563e-07
7.01641e-08
6.11256e-08
6.96601e-08
1.00302e-07
1.77301e-07
3.43336e-07
7.3926e-07
1.28709e-06
2.63052e-06
6.2853e-06
9.62756e-06
1.73482e-07
1.37681e-07
1.43743e-07
1.7288e-07
2.35997e-07
3.58241e-07
5.77481e-07
1.03725e-06
1.5738e-06
3.17253e-06
6.63082e-06
9.71914e-06
4.81533e-07
4.55324e-07
4.92664e-07
5.69991e-07
6.9499e-07
8.89818e-07
1.18064e-06
1.72477e-06
2.19279e-06
4.09506e-06
5.54918e-06
8.58546e-06
1.5561e-06
1.54195e-06
1.62544e-06
1.75847e-06
1.9371e-06
2.16291e-06
2.45598e-06
2.74003e-06
2.84047e-06
3.827e-06
5.08756e-06
8.06668e-06
3.3301e-06
3.28241e-06
3.23948e-06
3.2135e-06
3.17638e-06
3.15537e-06
3.11822e-06
3.09762e-06
3.01956e-06
3.70679e-06
4.63375e-06
7.34068e-06
6.8652e-06
7.64607e-06
9.8682e-06
1.02462e-05
1.0334e-05
1.02178e-05
1.00898e-05
9.85658e-06
9.63039e-06
9.34675e-06
9.14128e-06
8.92588e-06
5.24219e-06
5.72072e-06
7.16623e-06
7.26977e-06
7.33887e-06
7.5008e-06
7.6372e-06
7.75366e-06
7.83051e-06
7.86591e-06
7.84154e-06
7.77889e-06
3.53973e-06
4.78142e-06
4.85869e-06
4.9342e-06
4.99653e-06
5.04925e-06
5.10534e-06
5.13854e-06
5.17639e-06
5.17253e-06
5.14046e-06
5.07803e-06
2.81449e-06
2.87419e-06
2.93342e-06
2.99062e-06
3.04558e-06
3.09532e-06
3.14207e-06
3.17713e-06
3.20217e-06
3.18816e-06
3.14523e-06
3.06175e-06
8.80643e-06
8.68226e-06
8.56764e-06
8.43435e-06
8.30924e-06
8.16296e-06
8.02631e-06
7.87078e-06
7.73019e-06
7.58441e-06
7.48788e-06
7.42407e-06
7.68259e-06
7.55385e-06
7.39188e-06
7.20257e-06
6.99431e-06
6.76597e-06
6.52178e-06
6.27238e-06
6.03552e-06
5.84013e-06
5.71225e-06
5.98472e-06
4.98001e-06
4.84512e-06
4.67542e-06
4.47867e-06
4.26429e-06
4.03716e-06
3.81095e-06
3.59788e-06
3.42776e-06
3.34154e-06
3.25021e-06
3.40773e-06
2.93166e-06
2.76914e-06
2.59402e-06
2.4308e-06
2.28823e-06
2.18057e-06
2.10748e-06
2.05788e-06
2.02597e-06
2.00932e-06
1.99089e-06
2.02872e-06
7.33191e-06
6.95384e-06
6.75801e-06
6.55001e-06
6.33856e-06
6.10819e-06
5.90164e-06
5.70108e-06
5.52631e-06
5.3697e-06
5.23761e-06
5.12652e-06
6.24239e-06
6.3411e-06
6.34636e-06
6.31676e-06
6.26497e-06
6.19913e-06
6.13063e-06
6.06585e-06
6.00142e-06
5.93535e-06
5.86761e-06
5.79524e-06
3.57992e-06
3.77885e-06
3.96221e-06
4.10982e-06
4.24578e-06
4.34744e-06
4.44155e-06
4.49178e-06
4.54167e-06
4.54119e-06
4.51549e-06
4.46877e-06
2.09092e-06
2.15034e-06
2.21927e-06
2.27802e-06
2.33973e-06
2.38836e-06
2.43426e-06
2.46474e-06
2.48283e-06
2.47086e-06
2.43211e-06
2.36783e-06
5.03808e-06
4.9802e-06
4.94681e-06
4.92983e-06
4.92863e-06
4.91688e-06
4.90683e-06
4.86645e-06
4.82859e-06
4.75877e-06
4.72986e-06
4.62735e-06
5.71212e-06
5.62239e-06
5.52494e-06
5.42077e-06
5.30926e-06
5.19136e-06
5.06846e-06
4.9446e-06
4.81883e-06
4.7156e-06
4.62352e-06
4.57722e-06
4.40353e-06
4.31875e-06
4.21329e-06
4.08723e-06
3.94307e-06
3.78615e-06
3.62248e-06
3.4494e-06
3.2906e-06
3.19842e-06
3.11594e-06
3.23484e-06
2.28102e-06
2.17088e-06
2.03817e-06
1.88822e-06
1.73058e-06
1.58245e-06
1.46946e-06
1.42075e-06
1.40459e-06
1.4085e-06
1.39052e-06
1.44262e-06
4.69094e-06
5.10612e-06
5.24379e-06
5.34769e-06
5.31344e-06
5.26906e-06
5.18382e-06
5.03552e-06
4.90682e-06
4.74454e-06
4.62553e-06
4.49627e-06
4.54606e-06
4.55618e-06
4.59945e-06
4.60135e-06
4.64753e-06
4.66932e-06
4.70949e-06
4.7083e-06
4.69203e-06
4.66191e-06
4.62593e-06
4.59015e-06
3.38272e-06
3.45366e-06
3.52672e-06
3.58599e-06
3.64266e-06
3.69466e-06
3.73637e-06
3.77896e-06
3.81011e-06
3.82975e-06
3.81945e-06
3.78818e-06
1.50511e-06
1.57356e-06
1.63588e-06
1.70258e-06
1.76106e-06
1.82695e-06
1.87997e-06
1.93928e-06
1.97624e-06
2.01739e-06
2.02172e-06
1.99382e-06
4.42368e-06
4.3544e-06
4.30624e-06
4.25482e-06
4.22041e-06
4.1697e-06
4.13124e-06
4.06684e-06
4.02911e-06
3.95536e-06
3.91842e-06
3.80073e-06
4.54994e-06
4.50261e-06
4.44597e-06
4.37967e-06
4.30289e-06
4.21848e-06
4.12456e-06
4.02975e-06
3.93046e-06
3.84644e-06
3.77444e-06
3.72963e-06
3.73581e-06
3.6613e-06
3.56495e-06
3.45027e-06
3.32222e-06
3.18756e-06
3.04744e-06
2.91151e-06
2.80387e-06
2.75455e-06
2.69475e-06
2.81756e-06
1.92973e-06
1.83539e-06
1.71825e-06
1.59311e-06
1.47585e-06
1.37911e-06
1.32341e-06
1.29502e-06
1.28055e-06
1.29036e-06
1.28308e-06
1.3441e-06
3.79301e-06
3.78901e-06
3.76789e-06
3.75148e-06
3.73877e-06
3.72428e-06
3.70403e-06
3.67707e-06
3.64589e-06
3.60836e-06
3.55994e-06
3.50803e-06
3.69508e-06
3.66175e-06
3.62815e-06
3.59434e-06
3.5589e-06
3.52167e-06
3.4825e-06
3.44059e-06
3.39499e-06
3.34582e-06
3.29136e-06
3.23307e-06
2.94089e-06
3.01191e-06
3.05577e-06
3.08008e-06
3.07672e-06
3.06255e-06
3.03982e-06
3.00964e-06
2.97163e-06
2.92558e-06
2.87083e-06
2.80724e-06
1.42671e-06
1.50685e-06
1.58911e-06
1.66431e-06
1.72444e-06
1.77915e-06
1.81074e-06
1.84192e-06
1.84143e-06
1.82443e-06
1.7883e-06
1.73674e-06
3.45263e-06
3.40063e-06
3.33949e-06
3.28416e-06
3.2125e-06
3.14604e-06
3.05052e-06
2.96053e-06
2.77977e-06
3.24603e-06
3.99062e-06
5.04508e-06
3.16341e-06
3.0915e-06
3.00942e-06
2.9242e-06
2.82373e-06
2.72547e-06
2.60533e-06
2.50052e-06
2.33116e-06
2.65177e-06
3.50598e-06
4.01916e-06
2.73672e-06
2.66271e-06
2.58432e-06
2.49463e-06
2.39197e-06
2.28549e-06
2.18156e-06
2.07004e-06
1.99096e-06
1.89023e-06
2.18525e-06
3.10621e-06
1.67716e-06
1.61598e-06
1.56159e-06
1.5304e-06
1.5193e-06
1.53636e-06
1.53789e-06
1.529e-06
1.51668e-06
1.5056e-06
1.49546e-06
1.81664e-06
2.32388e-06
2.31555e-06
2.24039e-06
2.12075e-06
1.95351e-06
1.72992e-06
1.46395e-06
1.17843e-06
8.97612e-07
6.5286e-07
4.81688e-07
4.24497e-07
2.05215e-06
1.96317e-06
1.80064e-06
1.56103e-06
1.25907e-06
9.24535e-07
6.182e-07
3.8662e-07
2.23852e-07
1.07253e-07
7.1054e-08
6.21128e-08
2.0108e-06
1.90885e-06
1.71704e-06
1.41725e-06
1.03109e-06
6.18735e-07
2.90597e-07
1.4218e-07
6.10764e-08
2.18756e-08
1.10413e-08
9.54022e-09
2.06482e-06
1.95555e-06
1.7558e-06
1.44302e-06
1.01724e-06
5.21255e-07
1.96376e-07
7.33554e-08
2.40881e-08
6.668e-09
2.21095e-09
1.56134e-09
3.87396e-07
4.56704e-07
6.27995e-07
9.0877e-07
1.19452e-06
1.384e-06
1.51598e-06
1.61402e-06
1.68025e-06
1.72404e-06
1.74886e-06
1.75013e-06
6.59138e-08
1.19846e-07
2.50644e-07
5.08161e-07
8.67105e-07
1.10565e-06
1.23877e-06
1.31666e-06
1.36311e-06
1.37184e-06
1.29284e-06
1.15893e-06
1.23731e-08
3.48556e-08
1.01651e-07
2.53616e-07
4.95764e-07
6.98886e-07
8.15097e-07
8.83469e-07
9.21721e-07
8.98435e-07
7.57623e-07
6.1174e-07
2.29594e-09
1.0108e-08
3.99953e-08
1.20922e-07
2.67428e-07
3.98192e-07
4.73823e-07
5.20503e-07
5.42745e-07
5.08421e-07
3.85858e-07
2.77875e-07
1.6617e-06
1.53622e-06
1.4048e-06
1.24768e-06
1.08255e-06
9.20266e-07
7.56909e-07
6.04793e-07
4.70464e-07
3.77515e-07
3.27758e-07
2.77431e-07
9.64397e-07
8.05529e-07
6.29012e-07
4.75325e-07
3.41605e-07
2.34959e-07
1.55061e-07
9.90954e-08
6.60366e-08
4.91453e-08
3.85232e-08
3.08672e-08
4.70554e-07
3.4959e-07
2.28222e-07
1.55671e-07
8.86942e-08
5.10139e-08
2.72101e-08
1.63542e-08
1.00188e-08
6.27858e-09
4.45494e-09
3.50961e-09
1.99197e-07
1.35603e-07
7.27055e-08
4.71837e-08
2.2052e-08
1.13863e-08
5.61249e-09
3.07624e-09
1.73386e-09
9.14165e-10
5.54133e-10
4.18601e-10
2.36412e-07
1.99734e-07
1.73607e-07
1.63367e-07
1.72887e-07
2.47473e-07
4.36375e-07
8.22536e-07
1.11423e-06
1.26117e-06
1.34021e-06
1.39322e-06
2.40474e-08
1.82904e-08
1.52356e-08
1.57131e-08
2.2715e-08
4.83738e-08
1.21937e-07
3.04927e-07
6.61275e-07
9.6764e-07
1.11502e-06
1.18366e-06
2.63818e-09
1.80144e-09
1.43208e-09
1.81935e-09
3.80145e-09
1.11852e-08
3.46892e-08
9.95533e-08
2.49537e-07
4.8158e-07
6.25157e-07
7.05553e-07
3.21079e-10
1.92724e-10
1.58083e-10
2.73486e-10
8.81494e-10
3.43618e-09
1.2533e-08
3.85191e-08
9.66096e-08
2.00698e-07
2.91641e-07
3.43939e-07
1.42885e-06
1.4527e-06
1.45967e-06
1.41667e-06
1.29768e-06
1.16649e-06
9.92392e-07
8.1024e-07
6.24474e-07
4.58219e-07
3.24149e-07
2.65736e-07
1.19487e-06
1.14515e-06
1.05605e-06
9.13486e-07
7.64505e-07
5.83468e-07
4.04663e-07
2.52175e-07
1.42929e-07
7.77511e-08
4.34005e-08
3.18301e-08
7.19513e-07
6.87012e-07
6.16142e-07
5.13799e-07
3.98587e-07
2.68526e-07
1.54141e-07
7.19874e-08
2.8439e-08
1.15927e-08
5.61214e-09
3.60587e-09
3.62472e-07
3.55466e-07
3.22669e-07
2.69287e-07
2.01273e-07
1.24798e-07
5.95967e-08
2.11798e-08
6.54199e-09
1.93504e-09
7.02064e-10
4.1896e-10
2.09428e-07
1.97802e-07
1.99258e-07
2.40401e-07
3.4245e-07
4.89402e-07
6.81156e-07
8.51684e-07
9.60625e-07
1.02719e-06
1.06774e-06
1.08358e-06
2.25219e-08
2.51797e-08
3.69914e-08
7.00451e-08
1.35957e-07
2.35986e-07
3.62434e-07
4.5964e-07
5.28393e-07
5.75545e-07
5.91954e-07
5.4874e-07
2.56157e-09
3.93216e-09
9.28768e-09
2.52315e-08
5.92667e-08
1.12563e-07
1.69964e-07
2.10918e-07
2.41268e-07
2.60922e-07
2.5475e-07
2.02289e-07
2.88627e-10
6.77659e-10
2.51749e-09
9.02068e-09
2.48319e-08
5.06237e-08
7.29708e-08
8.88076e-08
1.00582e-07
1.05086e-07
9.21485e-08
6.27122e-08
1.02355e-06
9.61397e-07
8.76996e-07
7.82209e-07
6.82746e-07
5.80925e-07
4.82997e-07
3.95579e-07
3.24884e-07
2.87925e-07
2.89381e-07
3.01522e-07
4.42955e-07
3.83128e-07
2.86749e-07
2.2749e-07
1.58762e-07
1.12942e-07
7.35247e-08
4.94757e-08
3.7749e-08
3.54414e-08
3.61693e-08
4.53411e-08
1.44929e-07
1.16317e-07
6.77987e-08
5.10383e-08
2.67292e-08
1.62885e-08
8.11872e-09
5.1729e-09
4.00429e-09
3.65865e-09
3.84824e-09
5.66225e-09
4.05682e-08
3.05321e-08
1.39545e-08
1.01003e-08
4.25011e-09
2.2744e-09
1.13082e-09
6.57622e-10
4.377e-10
3.54482e-10
3.71549e-10
6.18206e-10
3.83266e-07
5.18623e-07
8.22676e-07
1.28949e-06
1.6415e-06
1.80437e-06
1.83362e-06
1.69011e-06
1.645e-06
1.71102e-06
1.93932e-06
2.17554e-06
6.76261e-08
1.10594e-07
2.12994e-07
4.58941e-07
1.06083e-06
1.74078e-06
1.99626e-06
2.02751e-06
1.89952e-06
1.86511e-06
1.98251e-06
2.05034e-06
1.01711e-08
2.02469e-08
4.90516e-08
1.37309e-07
4.03599e-07
1.11678e-06
1.93307e-06
2.17089e-06
2.1624e-06
2.03798e-06
2.01591e-06
2.03455e-06
1.4508e-09
3.65124e-09
1.15538e-08
4.18363e-08
1.54078e-07
5.2107e-07
1.46392e-06
2.18631e-06
2.33535e-06
2.28291e-06
2.17287e-06
2.1119e-06
2.23085e-06
2.07983e-06
1.82851e-06
1.47026e-06
9.97669e-07
4.44643e-07
1.53003e-07
4.83141e-08
1.29867e-08
2.8289e-09
6.00146e-10
2.4123e-10
2.31967e-06
2.11739e-06
1.82334e-06
1.41526e-06
8.67408e-07
3.33054e-07
1.08732e-07
3.01896e-08
6.78961e-09
1.17509e-09
1.74355e-10
3.96022e-11
2.28277e-06
2.04316e-06
1.68604e-06
1.16214e-06
5.84512e-07
2.11536e-07
6.40001e-08
1.55004e-08
2.85944e-09
3.82638e-10
4.61633e-11
7.65059e-12
2.03566e-06
1.70918e-06
1.26407e-06
7.40183e-07
3.28251e-07
1.11481e-07
3.04526e-08
6.26663e-09
9.11109e-10
1.03663e-10
1.13248e-11
1.55568e-12
1.4333e-06
1.08799e-06
7.5578e-07
3.91057e-07
1.54712e-07
4.87006e-08
1.17028e-08
1.97634e-09
2.32004e-10
2.4136e-11
2.42221e-12
2.96366e-13
8.34368e-07
5.60911e-07
3.78487e-07
1.71415e-07
6.19335e-08
1.77075e-08
3.64836e-09
4.94506e-10
5.03282e-11
4.83632e-12
4.47064e-13
4.95573e-14
4.12621e-07
2.3711e-07
1.58401e-07
6.29608e-08
2.10671e-08
5.37368e-09
9.25327e-10
1.04624e-10
9.60566e-12
8.46099e-13
7.12692e-14
7.11515e-15
1.73184e-07
8.42321e-08
5.51611e-08
1.96046e-08
6.0701e-09
1.3621e-09
1.93962e-10
1.91012e-11
1.61868e-12
1.30089e-13
9.84795e-15
8.82914e-16
6.13672e-08
2.56155e-08
1.59258e-08
5.19632e-09
1.47634e-09
2.87938e-10
3.49403e-11
3.08489e-12
2.43864e-13
1.77405e-14
1.19432e-15
9.84329e-17
1.82677e-08
6.57911e-09
3.80517e-09
1.16021e-09
3.01445e-10
5.09223e-11
5.51925e-12
4.54762e-13
3.33207e-14
2.1697e-15
1.28975e-16
1.0026e-17
4.50507e-09
1.40659e-09
7.48658e-10
2.15918e-10
5.13676e-11
7.63901e-12
7.72361e-13
6.12363e-14
4.1567e-15
2.40929e-16
1.26445e-17
9.39601e-19
1.02517e-09
2.81972e-10
1.33972e-10
3.72057e-11
8.11408e-12
1.12216e-12
1.10766e-13
8.61808e-15
5.33355e-16
2.66349e-17
1.23542e-18
8.77827e-20
4.20414e-10
2.85432e-09
1.49142e-08
5.38044e-08
1.33234e-07
2.05184e-07
2.46474e-07
2.72655e-07
2.8184e-07
2.53007e-07
1.75938e-07
1.12308e-07
8.67722e-11
7.92829e-10
5.15782e-09
2.18873e-08
6.0841e-08
9.6282e-08
1.1563e-07
1.27905e-07
1.29753e-07
1.10513e-07
7.16173e-08
4.08553e-08
1.8445e-11
2.12296e-10
1.66106e-09
8.09962e-09
2.50334e-08
4.09176e-08
4.9346e-08
5.39631e-08
5.30974e-08
4.24487e-08
2.5805e-08
1.32992e-08
3.96168e-12
5.53657e-11
4.91033e-10
2.67861e-09
9.13782e-09
1.56757e-08
1.90554e-08
2.04836e-08
1.92282e-08
1.4405e-08
8.21973e-09
3.8608e-09
8.4406e-13
1.33806e-11
1.30092e-10
7.79454e-10
2.91235e-09
5.34477e-09
6.5801e-09
6.91742e-09
6.1436e-09
4.31374e-09
2.31463e-09
1.00247e-09
1.69917e-13
2.91651e-12
3.03061e-11
1.96486e-10
7.94626e-10
1.59447e-09
2.00208e-09
2.04126e-09
1.69885e-09
1.14359e-09
5.80389e-10
2.33124e-10
3.13175e-14
5.61207e-13
6.09755e-12
4.22832e-11
1.82916e-10
4.09861e-10
5.25296e-10
5.13722e-10
4.03477e-10
2.64914e-10
1.28535e-10
4.80654e-11
5.16593e-15
9.42997e-14
1.06901e-12
7.79375e-12
3.53858e-11
8.85449e-11
1.16134e-10
1.09028e-10
8.1505e-11
5.22547e-11
2.48735e-11
8.94453e-12
7.72747e-16
1.42636e-14
1.61972e-13
1.20388e-12
5.63478e-12
1.58207e-11
2.12726e-11
1.92928e-11
1.38642e-11
8.64699e-12
4.15376e-12
1.47655e-12
1.04255e-16
1.86492e-15
2.05422e-14
1.52177e-13
7.22971e-13
2.30101e-12
3.18281e-12
2.81834e-12
1.9718e-12
1.19486e-12
6.06654e-13
2.16088e-13
1.21413e-17
2.02826e-16
2.10317e-15
1.52628e-14
7.27437e-14
2.67696e-13
3.84652e-13
3.37957e-13
2.34384e-13
1.38898e-13
7.55239e-14
3.00049e-14
1.22362e-18
1.79078e-17
1.72066e-16
1.2159e-15
5.69123e-15
2.59678e-14
4.02253e-14
3.6209e-14
2.57327e-14
1.579e-14
9.00415e-15
4.00045e-15
7.28396e-08
4.7043e-08
2.18614e-08
1.30149e-08
5.90573e-09
2.99485e-09
1.33364e-09
6.01815e-10
3.16401e-10
1.49363e-10
7.66445e-11
5.05035e-11
2.30212e-08
1.39338e-08
6.11545e-09
3.45851e-09
1.65206e-09
7.94261e-10
3.35169e-10
1.24393e-10
5.62966e-11
2.43201e-11
1.08894e-11
5.62653e-12
6.40072e-09
3.46924e-09
1.58336e-09
8.74849e-10
4.30914e-10
2.00814e-10
8.27727e-11
2.7171e-11
9.90226e-12
3.74429e-12
1.50094e-12
6.07632e-13
1.60326e-09
7.77294e-10
3.7251e-10
2.01429e-10
1.01749e-10
4.72056e-11
1.93177e-11
6.01155e-12
1.79118e-12
5.54163e-13
1.98304e-13
6.29095e-14
3.66752e-10
1.64601e-10
7.92668e-11
4.20342e-11
2.16568e-11
1.01958e-11
4.18665e-12
1.29544e-12
3.36837e-13
8.24597e-14
2.53344e-14
6.19887e-15
8.058e-11
3.30706e-11
1.54609e-11
8.00994e-12
4.17571e-12
2.01622e-12
8.39016e-13
2.63626e-13
6.42435e-14
1.28218e-14
3.20715e-15
5.93912e-16
1.63802e-11
6.26804e-12
2.79484e-12
1.40532e-12
7.33953e-13
3.64865e-13
1.55319e-13
4.99477e-14
1.19907e-14
2.09289e-15
4.13988e-16
5.72705e-17
3.02063e-12
1.10467e-12
4.6976e-13
2.28322e-13
1.18255e-13
6.0298e-14
2.65585e-14
8.76382e-15
2.12715e-15
3.4868e-16
5.59906e-17
5.80087e-18
4.98212e-13
1.7816e-13
7.31444e-14
3.44305e-14
1.75494e-14
9.07367e-15
4.18513e-15
1.41812e-15
3.51391e-16
5.69255e-17
7.95814e-18
6.50804e-19
7.32831e-14
2.60457e-14
1.04885e-14
4.81598e-15
2.40704e-15
1.24352e-15
6.02331e-16
2.10684e-16
5.33146e-17
8.78235e-18
1.14738e-18
8.23517e-20
9.87806e-15
3.46918e-15
1.38188e-15
6.2393e-16
3.05813e-16
1.56029e-16
7.81145e-17
2.89052e-17
7.38042e-18
1.23976e-18
1.5739e-19
1.09883e-20
1.32631e-15
4.65608e-16
1.85231e-16
8.27723e-17
3.97811e-17
1.99931e-17
1.01575e-17
3.97758e-18
1.05479e-18
1.94436e-19
2.59323e-20
2.25624e-21
5.04743e-11
2.28923e-11
2.03341e-11
5.53773e-11
2.62094e-10
1.28972e-09
5.579e-09
1.93014e-08
5.01756e-08
9.97867e-08
1.4937e-07
1.76907e-07
1.06537e-11
3.15379e-12
3.15147e-12
1.37596e-11
8.54737e-11
5.05323e-10
2.59475e-09
1.06731e-08
3.16526e-08
6.67315e-08
1.02687e-07
1.21758e-07
2.7557e-12
4.9956e-13
5.80122e-13
3.71786e-12
2.78526e-11
1.89451e-10
1.10899e-09
5.30613e-09
1.89092e-08
4.71547e-08
8.28287e-08
1.0224e-07
7.5824e-13
9.03339e-14
1.19049e-13
1.01382e-12
8.76791e-12
6.69278e-11
4.36331e-10
2.33339e-09
9.7078e-09
2.89473e-08
6.0399e-08
8.14913e-08
1.89408e-13
1.79504e-14
2.52837e-14
2.67778e-13
2.62205e-12
2.21305e-11
1.5801e-10
9.26144e-10
4.27499e-09
1.46997e-08
3.5509e-08
5.22209e-08
3.96155e-14
3.82741e-15
5.22352e-15
6.67166e-14
7.3546e-13
6.80373e-12
5.24841e-11
3.30822e-10
1.6521e-09
6.26018e-09
1.69723e-08
2.68557e-08
6.83928e-15
7.17197e-16
1.00135e-15
1.53651e-14
1.9147e-13
1.93472e-12
1.59631e-11
1.0646e-10
5.62219e-10
2.27828e-09
6.75377e-09
1.13148e-08
9.76876e-16
1.14316e-16
1.72166e-16
3.21513e-15
4.58585e-14
5.07028e-13
4.44517e-12
3.09463e-11
1.6947e-10
7.16944e-10