/*--------------------------------*- C++ -*----------------------------------*\
| =========                 |                                                 |
| \\      /  F ield         | OpenFOAM: The Open Source CFD Toolbox           |
|  \\    /   O peration     | Version:  2212                                  |
|   \\  /    A nd           | Website:  www.openfoam.com                      |
|    \\/     M anipulation  |                                                 |
\*---------------------------------------------------------------------------*/
FoamFile
{
    version     2.0;
    format      ascii;
    arch        "LSB;label=32;scalar=64";
    class       volVectorField;
    location    "0.01";
    object      U;
}
// * * * * * * * * * * * * * * * * * * * * * * * * * * * * * * * * * * * * * //

dimensions      [0 1 -1 0 0 0 0];

internalField   nonuniform List<vector> 
3072
(
(-0.892461 21.5574 0)
(0.208225 18.0362 0)
(1.56491 16.6438 3.4658e-19)
(3.0486 15.1003 -6.95049e-15)
(3.84702 15.5724 1.05481e-14)
(5.53273 17.5455 -5.04691e-15)
(12.7731 17.5477 -2.54516e-15)
(25.8374 16.7825 -1.31463e-14)
(31.3928 22.9593 2.09517e-14)
(33.8748 25.3889 -7.77193e-15)
(37.6421 27.8097 4.8925e-15)
(40.6942 27.5718 2.46703e-15)
(-6.75659 25.9766 -3.03172e-16)
(-3.52366 22.2545 -2.30639e-15)
(0.213783 24.0972 1.1897e-15)
(5.91016 24.8907 0)
(13.8193 26.2492 4.7835e-15)
(21.7034 29.5184 -6.93033e-15)
(27.9744 31.2995 0)
(30.964 31.5037 0)
(31.8528 32.3656 0)
(32.4128 32.5612 8.63493e-18)
(33.9592 32.7951 -1.02201e-14)
(35.1152 32.7883 6.12587e-18)
(-5.29268 30.0707 2.82412e-16)
(1.00463 28.0633 0)
(8.86122 30.7533 0)
(16.4273 32.2702 -6.36696e-15)
(23.0834 33.391 4.15362e-15)
(27.9206 33.7569 -5.96365e-15)
(31.1527 33.1711 6.64791e-15)
(32.8934 32.0544 0)
(33.5054 31.3402 0)
(34.2399 30.6607 -2.698e-15)
(35.1523 30.0157 -2.64352e-15)
(35.9622 29.3021 7.80025e-15)
(-2.2055 33.064 -1.02643e-15)
(4.18051 33.5197 -1.90036e-15)
(12.0864 35.3681 1.85949e-15)
(19.0102 35.6353 -1.837e-15)
(24.5656 35.405 7.03683e-15)
(28.0803 34.4877 -6.00761e-15)
(30.5442 33.2719 -2.80525e-15)
(31.8333 31.9981 -7.96771e-15)
(32.4891 31.0093 -1.37552e-18)
(33.1302 30.0985 4.74875e-15)
(33.7215 29.2025 4.63122e-15)
(34.2868 28.3449 -4.52166e-15)
(2.0807 34.5241 0)
(7.63766 36.0409 8.51871e-16)
(14.6379 36.929 -1.64217e-15)
(20.5322 36.6166 3.19509e-15)
(24.8236 35.6641 2.91901e-18)
(27.69 34.3399 2.56461e-15)
(29.4271 32.8867 2.6273e-15)
(30.3725 31.485 2.47572e-15)
(31.0158 30.2947 -4.64996e-15)
(31.6225 29.2106 4.40025e-15)
(32.2075 28.1883 -6.30647e-15)
(32.7939 27.2233 8.10744e-15)
(4.42617 36.338 -8.68662e-16)
(9.70286 37.925 7.78474e-16)
(15.7811 37.8983 2.95244e-15)
(20.7618 37.1147 0)
(24.4064 35.6693 -4.89042e-15)
(26.6966 34.0706 4.98474e-15)
(28.0895 32.4227 0)
(28.992 30.9192 -4.48466e-15)
(29.6645 29.602 4.24376e-15)
(30.2697 28.4134 0)
(30.8442 27.3167 2.37928e-18)
(31.4101 26.2945 3.76503e-15)
(6.55765 37.9417 0)
(11.0048 39.7445 -1.44194e-15)
(16.1502 38.8777 1.35772e-15)
(20.3776 37.6735 0)
(23.4394 35.8247 -2.41901e-15)
(25.3782 33.9353 3.80442e-18)
(26.6789 32.1188 4.39482e-15)
(27.6014 30.4897 4.16749e-15)
(28.3275 29.0524 -3.97237e-15)
(28.9691 27.7657 3.81219e-15)
(29.5646 26.5947 -3.67391e-15)
(30.1327 25.5152 -1.06865e-14)
(7.20043 40.1683 0)
(11.5273 41.7689 1.34166e-15)
(15.8801 40.1774 -2.50868e-15)
(19.4924 38.5737 2.39485e-15)
(22.1626 36.2817 0)
(23.9933 34.0735 -4.32901e-15)
(25.296 32.0352 4.12228e-15)
(26.2787 30.234 7.60689e-19)
(27.075 28.6587 -7.54778e-15)
(27.7678 27.2667 -3.63829e-15)
(28.3933 26.0163 -2.30171e-18)
(28.969 24.876 6.85815e-15)
(8.32084 42.0132 0)
(11.5825 43.8999 -1.25939e-15)
(15.1414 41.7188 -2.34196e-15)
(18.2573 39.7368 -2.22364e-15)
(20.6898 37.0391 4.25247e-15)
(22.5226 34.497 0)
(23.9165 32.1851 0)
(25.0122 30.1709 0)
(25.9068 28.4322 0)
(26.6672 26.918 3.51043e-15)
(27.3286 25.5786 -3.41707e-15)
(27.9095 24.3719 3.33485e-15)
(7.63571 45.1326 0)
(11.2781 46.6412 1.18251e-15)
(13.9766 43.4199 -3.27722e-18)
(16.681 40.9036 2.07504e-15)
(18.9837 37.8356 1.99037e-15)
(20.9247 35.0014 -3.83162e-15)
(22.4943 32.4452 0)
(23.761 30.2281 -1.72535e-18)
(24.7888 28.3269 -1.0505e-14)
(25.6364 26.6894 0)
(26.3415 25.2589 6.67395e-15)
(26.9249 23.9847 -3.26596e-15)
(10.0564 46.8757 0)
(10.0266 47.3337 1.07734e-15)
(11.8018 43.6467 4.00905e-15)
(14.4966 40.805 -3.86395e-15)
(16.9478 37.7553 -5.60538e-15)
(19.1281 34.939 9.09099e-15)
(20.9525 32.376 -1.6085e-18)
(22.4451 30.1171 -3.47844e-15)
(23.6467 28.1534 3.39855e-15)
(24.611 26.4518 -6.67073e-15)
(25.375 24.969 -9.80756e-15)
(25.9576 23.6544 9.63336e-15)
(4.43196 43.8819 -5.37969e-16)
(7.35557 43.2961 -3.93411e-15)
(9.06476 39.7853 9.29111e-16)
(11.8772 37.6685 0)
(14.6021 35.4781 0)
(17.0885 33.3477 3.24505e-18)
(19.218 31.2785 1.02892e-14)
(20.9747 29.3358 6.7472e-15)
(22.3832 27.5587 0)
(23.4944 25.9598 6.53856e-15)
(24.338 24.5366 0)
(24.9123 23.2549 5.60483e-18)
(43.5501 27.5477 -1.73263e-14)
(45.4372 26.1185 7.47344e-15)
(46.8735 24.8057 -7.5576e-15)
(47.286 22.819 -2.5193e-15)
(47.2523 20.897 -2.49467e-15)
(46.2489 18.6294 0)
(44.5826 16.4862 0)
(41.8878 14.2867 4.96368e-15)
(38.4431 12.2791 -5.00902e-15)
(33.8731 10.1221 0)
(28.0595 6.73722 0)
(25.3631 -0.00119528 -3.41745e-16)
(36.5518 32.3808 6.45113e-15)
(37.9169 31.4835 0)
(39.2346 30.2356 -9.94495e-18)
(40.3763 28.5596 3.1873e-15)
(41.1518 26.7202 1.6089e-15)
(41.393 24.8352 6.57605e-15)
(41.0495 23.0325 -1.01888e-14)
(40.0824 21.4426 1.77907e-15)
(38.5596 20.2168 0)
(35.7213 19.2431 0)
(32.1042 18.0746 0)
(31.9935 14.8084 -3.71017e-23)
(36.8438 28.4876 2.53267e-15)
(37.7131 27.53 -7.48283e-15)
(38.48 26.4807 2.48396e-15)
(39.0457 25.3887 4.9893e-15)
(39.3215 24.304 -5.06792e-15)
(39.2711 23.3127 0)
(38.8577 22.4946 0)
(38.0813 21.9535 -1.49943e-18)
(36.9982 21.8225 1.52891e-15)
(35.1783 21.9752 0)
(32.421 21.9752 0)
(33.6455 21.7364 0)
(34.9364 27.4892 3.141e-18)
(35.5811 26.5877 6.43005e-15)
(36.1632 25.6625 4.23883e-15)
(36.62 24.7523 -4.23409e-15)
(36.9021 23.9248 0)
(36.9822 23.2536 2.18625e-15)
(36.8387 22.8056 0)
(36.4838 22.6548 3.60487e-15)
(35.9762 22.9121 -1.25213e-15)
(35.0767 23.7347 0)
(32.8445 24.9054 -7.36178e-16)
(35.8468 26.7612 -9.5455e-16)
(33.394 26.2892 -3.93205e-15)
(33.9668 25.3775 0)
(34.4813 24.5083 0)
(34.9068 23.7171 0)
(35.2234 23.0542 0)
(35.4185 22.5912 -3.6417e-15)
(35.4918 22.3994 -1.29e-18)
(35.4661 22.5079 -2.07686e-15)
(35.3663 23.0768 0)
(35.1398 24.2214 -1.11689e-15)
(33.6374 26.0404 6.89433e-16)
(37.6079 29.0685 8.81395e-16)
(31.9688 25.328 -2.26706e-18)
(32.5011 24.4169 -7.1606e-15)
(32.9909 23.5803 3.52309e-15)
(33.4243 22.8496 -4.22043e-20)
(33.7954 22.2688 2.0789e-18)
(34.111 21.8906 5.23403e-15)
(34.3937 21.7725 -1.42403e-18)
(34.6737 21.9779 -5.54907e-15)
(34.9783 22.6248 -1.98112e-15)
(35.4023 23.8863 1.11112e-15)
(34.7273 26.1976 -1.31366e-15)
(39.3795 30.2539 -4.08869e-16)
(30.6762 24.5095 1.04161e-14)
(31.19 23.5762 3.40066e-15)
(31.67 22.7314 0)
(32.1141 22.0035 0)
(32.5294 21.4303 1.95149e-18)
(32.938 21.0549 -3.26786e-15)
(33.3805 20.9229 4.93964e-15)
(33.9092 21.09 -1.18434e-18)
(34.5734 21.6578 1.77588e-15)
(35.5199 22.814 0)
(35.7172 25.0188 -1.95998e-18)
(40.6584 29.7933 3.81008e-16)
(29.4998 23.8237 -3.3494e-15)
(29.9914 22.8508 -3.28131e-15)
(30.4486 21.9704 3.22982e-15)
(30.8776 21.2064 -3.18096e-15)
(31.2968 20.5895 1.16472e-19)
(31.7457 20.1512 6.23439e-15)
(32.2885 19.9235 -3.10625e-15)
(33.0093 19.9514 1.56914e-15)
(33.9922 20.3156 0)
(35.4546 21.2114 8.89162e-16)
(36.5494 23.1678 5.32444e-16)
(41.6395 28.2031 -1.42503e-15)
(28.4169 23.2654 3.26435e-15)
(28.8671 22.2387 -3.20435e-15)
(29.2707 21.3013 -3.14988e-15)
(29.6377 20.4715 -6.20322e-15)
(29.9987 19.7724 6.1079e-15)
(30.4113 19.2212 -6.02627e-15)
(30.9679 18.8315 0)
(31.789 18.6272 -1.48326e-15)
(33.0063 18.652 0)
(34.9076 19.0748 0)
(36.9342 20.4608 0)
(42.0249 24.9688 1.32458e-15)
(27.3906 22.8218 3.20377e-15)
(27.7692 21.7325 -6.30313e-15)
(28.0722 20.7261 6.20095e-15)
(28.3122 19.8131 6.09028e-15)
(28.5349 19.0086 2.99269e-15)
(28.8197 18.3127 0)
(29.2916 17.7146 0)
(30.1041 17.2091 2.85581e-15)
(31.446 16.786 0)
(33.6917 16.5654 -7.49527e-16)
(36.4512 16.9866 4.41354e-16)
(41.738 20.2078 -1.86102e-15)
(26.3542 22.4506 -6.31135e-15)
(26.619 21.3004 6.21348e-15)
(26.7581 20.2245 -6.11491e-15)
(26.7885 19.2223 -1.49995e-14)
(26.7847 18.3033 -2.23411e-18)
(26.8507 17.4499 1.06364e-18)
(27.1467 16.6236 -2.84262e-15)
(27.843 15.7837 -2.78014e-15)
(29.1813 14.8414 0)
(31.5992 13.8576 2.10714e-15)
(34.7316 12.8502 4.05111e-16)
(40.2831 13.3297 -3.30989e-19)
(25.196 22.0555 -5.44463e-18)
(25.2837 20.8621 0)
(25.1719 19.7312 0)
(24.9015 18.6471 2.9492e-15)
(24.5961 17.6224 8.68474e-15)
(24.3841 16.6225 -2.845e-15)
(24.4601 15.5849 -1.80798e-18)
(24.9778 14.4252 -1.36602e-15)
(26.2256 12.9693 -1.33568e-15)
(28.488 11.171 -1.33296e-15)
(32.2106 8.40034 0)
(37.2498 -0.117709 5.14748e-16)
(21.5568 0.894506 -3.41671e-16)
(18.0351 -0.206431 0)
(16.6417 -1.56329 -3.46533e-19)
(15.0989 -3.04758 0)
(15.5716 -3.84458 5.27213e-15)
(17.5467 -5.53369 -5.04628e-15)
(17.5433 -12.7859 0)
(16.7874 -25.8518 -1.05167e-14)
(22.9679 -31.3991 1.83318e-14)
(25.3953 -33.8841 -1.29665e-14)
(27.8173 -37.6507 -2.45131e-15)
(27.5783 -40.704 -2.46694e-15)
(25.9771 6.75878 -1.51498e-15)
(22.254 3.52471 -1.15279e-15)
(24.098 -0.214474 3.56755e-15)
(24.8919 -5.91327 0)
(26.253 -13.8261 -4.78336e-15)
(29.5248 -21.7121 4.61848e-15)
(31.303 -27.983 0)
(31.5092 -30.9697 4.17342e-15)
(32.3707 -31.8565 -1.15729e-14)
(32.5671 -32.4181 7.39742e-15)
(32.8013 -33.9644 6.80827e-15)
(32.7945 -35.121 -9.92354e-15)
(30.0716 5.29488 2.82411e-16)
(28.0634 -1.00502 0)
(30.7545 -8.86482 -2.11213e-15)
(32.272 -16.4339 0)
(33.3937 -23.0911 0)
(33.7602 -27.9282 -3.97101e-15)
(33.1732 -31.1599 1.32976e-14)
(32.0574 -32.8991 -9.4025e-15)
(31.3438 -33.5104 2.82075e-15)
(30.6647 -34.2453 0)
(30.0201 -35.1575 5.29156e-15)
(29.3066 -35.9673 -2.6026e-15)
(33.0648 2.20637 -1.02727e-15)
(33.5205 -4.18207 9.50548e-16)
(35.3694 -12.0912 1.85786e-15)
(35.6365 -19.0173 3.66916e-15)
(35.4064 -24.573 -3.51739e-15)
(34.4891 -28.0871 -2.99934e-15)
(33.2734 -30.5507 0)
(32.0001 -31.8386 0)
(31.0118 -32.4939 2.50402e-15)
(30.1013 -33.1348 0)
(29.2055 -33.7256 3.82731e-18)
(28.3482 -34.2908 2.25867e-15)
(34.5248 -2.08037 1.4082e-15)
(36.0415 -7.63983 -8.51254e-16)
(36.9298 -14.6428 -1.64215e-15)
(36.6167 -20.539 0)
(35.6639 -24.8304 0)
(34.3402 -27.6964 2.5688e-15)
(32.8869 -29.4327 0)
(31.4857 -30.3771 -4.95582e-15)
(30.2959 -31.0199 -2.32363e-15)
(29.2122 -31.6262 4.39972e-15)
(28.1901 -32.2108 -6.30572e-15)
(27.2254 -32.7969 4.05169e-15)
(36.3384 -4.42665 -5.3506e-19)
(37.9252 -9.70539 -7.77938e-16)
(37.8983 -15.7858 1.47507e-15)
(37.1141 -20.7678 1.4618e-18)
(35.6682 -24.4128 2.44515e-15)
(34.0695 -26.7023 -4.98309e-15)
(32.4218 -28.0944 4.768e-15)
(30.9187 -28.9961 3.89113e-18)
(29.6019 -29.6679 0)
(28.4138 -30.2726 0)
(27.3174 -30.8466 7.77943e-15)
(26.2956 -31.4122 3.18685e-19)
(37.9418 -6.55822 -8.09595e-16)
(39.7441 -11.0071 -7.21622e-16)
(38.8768 -16.1544 0)
(37.6716 -20.3831 -2.55351e-15)
(35.8225 -23.445 2.42015e-15)
(33.9329 -25.3833 6.98071e-15)
(32.1166 -26.6831 4.39828e-15)
(30.4879 -27.6048 5.78945e-18)
(29.051 -28.3303 -7.94776e-15)
(27.7649 -28.9713 3.80918e-15)
(26.5944 -29.5662 3.67885e-15)
(25.5153 -30.134 2.28067e-18)
(40.1681 -7.20075 -4.88938e-19)
(41.7681 -11.5292 1.34164e-15)
(40.1759 -15.8835 0)
(38.571 -19.4969 -2.3948e-15)
(36.2784 -22.1674 -2.27708e-15)
(34.0699 -23.9977 3.76571e-18)
(32.0318 -25.2996 -8.23976e-15)
(30.231 -26.2815 2.98472e-18)
(28.6563 -27.0771 -2.16609e-18)
(27.2648 -27.7693 3.64016e-15)
(26.015 -28.3942 -3.52013e-15)
(24.8752 -28.9694 2.01047e-18)
(42.0132 -8.32071 -3.53651e-16)
(43.8988 -11.5836 6.28299e-16)
(41.717 -15.144 -3.51181e-15)
(39.7338 -18.261 2.22363e-15)
(37.0352 -20.6939 0)
(34.4927 -22.5263 0)
(32.1808 -23.9197 3.90461e-15)
(30.167 -25.0146 7.5098e-15)
(28.4288 -25.9085 -3.62391e-15)
(26.9152 -26.6681 -3.51029e-15)
(25.5764 -27.3289 -3.41488e-15)
(24.3703 -27.9093 0)
(45.1322 -7.63496 -6.64673e-16)
(46.6402 -11.2787 1.77393e-15)
(43.4184 -13.9784 4.37179e-15)
(40.901 -16.684 0)
(37.832 -18.9872 3.97351e-15)
(34.9971 -20.928 0)
(32.4407 -22.4972 2.46673e-18)
(30.2238 -23.7632 -3.5965e-15)
(28.3229 -24.7902 3.50419e-15)
(26.686 -25.6371 0)
(25.2561 -26.3415 0)
(23.9825 -26.9243 -6.5349e-15)
(46.8763 -10.0553 1.7815e-23)
(47.3338 -10.0269 1.07732e-15)
(43.6467 -11.8034 2.94882e-18)
(40.8042 -14.4992 -3.86911e-15)
(37.7534 -16.9511 -1.86672e-15)
(34.9361 -19.1314 -1.8182e-15)
(32.3726 -20.9554 -3.55185e-15)
(30.1133 -22.4474 -1.04242e-14)
(28.1498 -23.6482 -3.39857e-15)
(26.4485 -24.6117 -6.67069e-15)
(24.9662 -25.375 6.54341e-15)
(23.6521 -25.9569 6.41707e-15)
(43.8833 -4.43204 -1.07561e-15)
(43.2981 -7.35652 -4.91263e-16)
(39.7874 -9.06654 2.44741e-18)
(37.67 -11.8798 3.63807e-15)
(35.4787 -14.6053 0)
(33.3472 -17.0919 -3.48945e-15)
(31.2771 -19.2212 3.4278e-15)
(29.3338 -20.9774 3.36942e-15)
(27.5564 -22.3852 -9.97034e-15)
(25.9574 -23.4955 6.53862e-15)
(24.5344 -24.3383 -6.43632e-15)
(23.2529 -24.9118 0)
(27.5545 -43.5594 7.4201e-15)
(26.1244 -45.447 -1.99297e-14)
(24.8115 -46.8828 5.01715e-15)
(22.824 -47.2953 1.25441e-14)
(20.9016 -47.261 -1.24499e-14)
(18.6333 -46.2573 2.47514e-15)
(16.4896 -44.5901 -1.10196e-18)
(14.2896 -41.8945 -2.47888e-15)
(12.2817 -38.4486 -5.0089e-15)
(10.1244 -33.8771 0)
(6.73944 -28.0623 0)
(-0.000559021 -25.3648 -5.1269e-16)
(32.387 -36.5577 7.66973e-20)
(31.4896 -37.9232 6.37508e-15)
(30.2414 -39.241 -9.94692e-18)
(28.5651 -40.3829 0)
(26.7254 -41.1582 4.83504e-15)
(24.84 -41.3992 0)
(23.0372 -41.0551 3.39471e-15)
(21.4469 -40.0874 5.33969e-15)
(20.221 -38.5639 -3.805e-15)
(19.2472 -35.7242 0)
(18.079 -32.1066 0)
(14.815 -31.9953 -4.45545e-22)
(28.4922 -36.8489 2.52845e-15)
(27.5347 -37.7181 -2.49082e-15)
(26.4854 -38.4849 2.48367e-15)
(25.3933 -39.0504 0)
(24.3087 -39.3259 -2.53217e-15)
(23.3173 -39.2752 5.21391e-15)
(22.4993 -38.8614 -6.80956e-15)
(21.9582 -38.0845 -7.22539e-15)
(21.8275 -37.0008 4.58519e-15)
(21.9805 -35.1799 0)
(21.9808 -32.4219 8.32695e-16)
(21.7425 -33.6463 5.12601e-20)
(27.4926 -34.9402 2.18802e-15)
(26.5913 -35.5848 -4.28725e-15)
(25.6663 -36.1667 4.23833e-15)
(24.7562 -36.6233 -4.2336e-15)
(23.9289 -36.9051 0)
(23.258 -36.9849 2.18602e-15)
(22.8101 -36.8411 2.26765e-15)
(22.6597 -36.4858 1.20037e-15)
(22.9175 -35.9779 -2.50463e-15)
(23.7405 -35.0778 0)
(24.9117 -32.8453 -7.34648e-16)
(26.7691 -35.8478 1.1937e-15)
(26.2917 -33.3968 3.9348e-15)
(25.3802 -33.9693 -1.92694e-15)
(24.5113 -34.4836 0)
(23.7204 -34.9088 0)
(23.0578 -35.2252 1.87987e-15)
(22.5951 -35.42 -1.81942e-15)
(22.4037 -35.4931 -2.32877e-18)
(22.5127 -35.4671 0)
(23.0822 -35.367 -1.10527e-15)
(24.2273 -35.1404 1.11679e-15)
(26.0468 -33.6376 -1.37941e-15)
(29.0761 -37.6082 0)
(25.3295 -31.9706 -7.31445e-15)
(24.4187 -32.5026 3.57878e-15)
(23.5825 -32.9921 7.04772e-15)
(22.8522 -33.4252 -4.22232e-20)
(22.2718 -33.7961 -8.69687e-15)
(21.8941 -34.1115 -3.49207e-15)
(21.7765 -34.394 -2.21657e-18)
(21.9825 -34.6737 0)
(22.63 -34.9783 0)
(23.8921 -35.4022 -1.11105e-15)
(26.2043 -34.7272 -6.57681e-16)
(30.2619 -39.3798 4.08862e-16)
(24.5101 -30.6771 3.47255e-15)
(23.5772 -31.1905 -6.80305e-15)
(22.7329 -31.6702 -3.34213e-15)
(22.0054 -32.114 -1.94504e-18)
(21.4327 -32.5291 3.27269e-15)
(21.0579 -32.9375 3.26529e-15)
(20.9265 -33.3799 1.64661e-15)
(21.0943 -33.9084 1.68506e-15)
(21.6627 -34.5726 -1.77714e-15)
(22.8196 -35.5191 0)
(25.0251 -35.7167 1.17879e-15)
(29.8006 -40.6582 -7.62784e-16)
(23.8234 -29.4998 0)
(22.851 -29.991 3.28109e-15)
(21.9712 -30.4479 0)
(21.2076 -30.8766 -1.80316e-18)
(20.5914 -31.2956 1.16497e-19)
(20.1536 -31.7443 6.23401e-15)
(19.9267 -32.2869 -1.55213e-15)
(19.9552 -33.0076 -3.13721e-15)
(20.3201 -33.9906 -1.62594e-15)
(21.2166 -35.4532 8.89117e-16)
(23.1736 -36.5484 -1.60106e-15)
(28.21 -41.6391 7.11348e-16)
(23.2644 -28.4162 3.2642e-15)
(22.2382 -28.866 -3.20419e-15)
(21.3014 -29.2692 -3.15299e-15)
(20.4722 -29.636 3.10225e-15)
(19.7737 -29.9967 3.05378e-15)
(19.2232 -30.409 -9.04131e-15)
(18.8342 -30.9655 0)
(18.6305 -31.7866 1.48321e-15)
(18.656 -33.0039 1.50896e-15)
(19.0794 -34.9055 0)
(20.466 -36.9327 1.45486e-15)
(24.9745 -42.0239 -3.31736e-16)
(22.8203 -27.3895 0)
(21.7315 -27.7676 -6.30291e-15)
(20.7257 -28.0702 -3.10332e-15)
(19.8134 -28.3098 -6.08724e-15)
(19.0095 -28.5321 2.99259e-15)
(18.3142 -28.8167 2.94409e-15)
(17.7168 -29.2883 0)
(17.2119 -30.1007 0)
(16.7894 -31.4427 0)
(16.5693 -33.6888 0)
(16.9909 -36.449 -4.41288e-16)
(20.2123 -41.7366 -6.20234e-16)
(22.4488 -26.3529 3.15414e-15)
(21.2991 -26.6172 3.10513e-15)
(20.2239 -26.7557 1.22349e-14)
(19.2223 -26.7856 3.00241e-15)
(18.3038 -26.7814 1.1782e-14)
(17.451 -26.8469 -2.8951e-15)
(16.6254 -27.1425 -2.84261e-15)
(15.7861 -27.8386 0)
(14.8443 -29.1769 -2.74413e-15)
(13.8608 -31.5953 -1.40464e-15)
(12.8534 -34.7285 -8.10282e-16)
(13.3323 -40.2809 0)
(22.0539 -25.1947 0)
(20.861 -25.2818 0)
(19.7306 -25.1693 -1.2063e-14)
(18.647 -24.8982 -8.85185e-15)
(17.6228 -24.5921 -2.89322e-15)
(16.6235 -24.3795 0)
(15.5864 -24.455 2.79309e-15)
(14.4273 -24.9723 0)
(12.9717 -26.2201 -1.54117e-18)
(11.1734 -28.4829 1.33296e-15)
(8.40249 -32.2064 3.62858e-16)
(-0.117612 -37.2469 -1.43838e-19)
(0.89377 -21.557 -1.70837e-16)
(-0.20711 -18.0354 -2.67839e-15)
(-1.56387 -16.6424 2.77646e-15)
(-3.04798 -15.0994 -2.78048e-15)
(-3.84549 -15.5718 0)
(-5.53323 -17.5462 2.52464e-15)
(-12.7808 -17.5451 0)
(-25.8464 -16.7854 2.63223e-15)
(-31.3971 -22.9647 -7.84752e-15)
(-33.8809 -25.3929 7.78103e-15)
(-37.6479 -27.8146 1.46541e-14)
(-40.7008 -27.5761 -4.90172e-15)
(6.75806 -25.9769 0)
(3.52436 -22.2541 -2.30637e-15)
(-0.214156 -24.0977 2.37863e-15)
(-5.91202 -24.8915 2.43765e-15)
(-13.8235 -26.2515 -4.78341e-15)
(-21.7089 -29.5224 -1.19685e-18)
(-27.98 -31.3018 -4.23961e-15)
(-30.9679 -31.5072 -1.04285e-14)
(-31.8555 -32.3689 1.1575e-14)
(-32.4165 -32.5651 -3.69674e-15)
(-33.9629 -32.7991 9.2692e-18)
(-35.1193 -32.7924 6.02668e-18)
(5.29419 -30.0713 0)
(-1.00485 -28.0634 0)
(-8.86352 -30.7541 0)
(-16.4315 -32.2715 -2.12345e-15)
(-23.0884 -33.3928 0)
(-27.9257 -33.7591 -1.99225e-15)
(-31.1576 -33.1726 3.32178e-15)
(-32.8974 -32.0565 6.27239e-15)
(-33.509 -31.3426 -2.82263e-15)
(-34.2437 -30.6634 -5.39385e-15)
(-35.156 -30.0186 -7.93512e-15)
(-35.9658 -29.3051 7.79963e-15)
(2.20607 -33.0646 0)
(-4.18157 -33.5203 -9.5055e-16)
(-12.0895 -35.3691 1.86119e-15)
(-19.0148 -35.6363 1.83221e-15)
(-24.5705 -35.4061 0)
(-28.0849 -34.4888 -6.01248e-15)
(-30.5487 -33.273 5.60397e-15)
(-31.8371 -31.9996 0)
(-32.4925 -31.011 5.00054e-15)
(-33.1334 -30.1004 -7.12074e-15)
(-33.7244 -29.2045 4.62724e-15)
(-34.2896 -28.3471 3.83804e-18)
(-2.08058 -34.5246 -5.59943e-23)
(-7.6392 -36.0414 1.70505e-15)
(-14.6412 -36.9297 2.67284e-18)
(-20.5367 -36.6169 0)
(-24.8282 -35.6643 -2.7743e-15)
(-27.6943 -34.3403 5.1307e-15)
(-29.431 -32.8871 0)
(-30.3757 -31.4856 -2.47954e-15)
(-31.0187 -30.2956 -2.32702e-15)
(-31.6252 -29.2117 4.39992e-15)
(-32.2099 -28.1895 0)
(-32.7961 -27.2247 -4.04887e-15)
(-4.42668 -36.3383 4.34111e-16)
(-9.70473 -37.9253 1.77416e-18)
(-15.7843 -37.8985 -1.47507e-15)
(-20.7659 -37.1146 -5.60313e-15)
(-24.4107 -35.6689 -1.14382e-18)
(-26.7005 -34.0702 4.98462e-15)
(-28.0929 -32.4224 0)
(-28.9949 -30.9191 6.72719e-15)
(-29.6669 -29.6021 -4.24439e-15)
(-30.2719 -28.4138 4.04707e-15)
(-30.846 -27.3173 2.37935e-18)
(-31.4118 -26.2953 -3.18787e-19)
(-6.55837 -37.9418 -1.21431e-15)
(-11.0066 -39.7444 -7.19558e-16)
(-16.1532 -38.8773 0)
(-20.3814 -37.6726 5.10999e-15)
(-23.4432 -35.8237 -7.25694e-15)
(-25.3817 -33.9341 -1.19565e-18)
(-26.6818 -32.1177 -8.79298e-15)
(-27.6038 -30.4888 3.4555e-18)
(-28.3295 -29.0517 -3.97215e-15)
(-28.9708 -27.7654 -3.81197e-15)
(-29.5659 -26.5946 3.67896e-15)
(-30.1338 -25.5154 -3.56264e-15)
(-7.20105 -40.1682 1.13533e-15)
(-11.5289 -41.7686 -6.71107e-16)
(-15.8827 -40.1767 0)
(-19.4956 -38.5723 2.39481e-15)
(-22.1659 -36.2799 2.27595e-15)
(-23.9963 -34.0716 2.1633e-15)
(-25.2986 -32.0333 -3.33972e-18)
(-26.2808 -30.2324 -7.60446e-19)
(-27.0766 -28.6574 -3.77655e-15)
(-27.769 -27.2657 -4.80815e-18)
(-28.3942 -26.0157 2.05423e-18)
(-28.9696 -24.8757 0)
(-8.32136 -42.0132 3.52909e-16)
(-11.5837 -43.8994 0)
(-15.1435 -41.7179 0)
(-18.26 -39.7352 -2.22363e-15)
(-20.6927 -37.037 2.12329e-15)
(-22.5252 -34.4946 -4.06983e-15)
(-23.9188 -32.1827 0)
(-25.014 -30.1688 3.75397e-15)
(-25.9082 -28.4303 -1.9754e-18)
(-26.6681 -26.9165 3.51033e-15)
(-27.3291 -25.5774 -3.4187e-15)
(-27.9098 -24.3711 6.67307e-15)
(-7.63583 -45.1324 -1.96226e-19)
(-11.2791 -46.6409 -5.91428e-16)
(-13.9783 -43.4192 -2.18755e-15)
(-16.6833 -40.9023 -4.14795e-15)
(-18.9862 -37.8337 0)
(-20.9271 -34.9991 3.82698e-15)
(-22.4964 -32.4427 -7.41857e-15)
(-23.7627 -30.2257 3.59702e-15)
(-24.7899 -28.3247 3.50421e-15)
(-25.6372 -26.6875 0)
(-26.3418 -25.2574 -3.34036e-15)
(-26.9249 -23.9835 -6.52842e-15)
(-10.0567 -46.876 -5.98847e-16)
(-10.0274 -47.3342 5.37967e-16)
(-11.8033 -43.647 2.00307e-15)
(-14.4987 -40.8047 1.93045e-15)
(-16.9502 -37.7543 -3.36159e-19)
(-19.1304 -34.9374 -5.45722e-15)
(-20.9545 -32.3741 7.09817e-15)
(-22.4468 -30.1149 1.38961e-14)
(-23.6479 -28.1513 -1.02025e-14)
(-24.6117 -26.45 -6.6708e-15)
(-25.3753 -24.9674 6.53733e-15)
(-25.9575 -23.6531 0)
(-4.43257 -43.8819 1.07456e-15)
(-7.35688 -43.2968 4.93405e-16)
(-9.06615 -39.786 9.26671e-16)
(-11.879 -37.6688 3.64218e-15)
(-14.6042 -35.4779 0)
(-17.0906 -33.347 3.48629e-15)
(-19.2201 -31.2774 -6.86189e-15)
(-20.9764 -29.3344 -3.3721e-15)
(-22.3845 -27.5572 -3.3226e-15)
(-23.4952 -25.9583 6.53881e-15)
(-24.3384 -24.5353 3.22246e-15)
(-24.9122 -23.2537 9.4953e-15)
(-43.5565 -27.5522 -2.47341e-15)
(-45.444 -26.1224 2.50334e-15)
(-46.88 -24.8095 -7.54787e-15)
(-47.2925 -22.8224 2.25747e-14)
(-47.2584 -20.9001 -9.95545e-15)
(-46.2549 -18.6321 0)
(-44.588 -16.4886 -4.94506e-15)
(-41.8926 -14.2887 3.71869e-15)
(-38.4471 -12.281 0)
(-33.876 -10.1238 8.38037e-19)
(-28.0616 -6.73885 0)
(-25.3643 0.000728082 3.41749e-16)
(-36.556 -32.3849 -1.29139e-14)
(-37.9213 -31.4875 6.38552e-15)
(-39.2391 -30.2395 6.38788e-15)
(-40.381 -28.5633 -3.19182e-15)
(-41.1563 -26.7237 0)
(-41.3974 -24.8385 0)
(-41.0535 -23.0357 3.39691e-15)
(-40.086 -21.4456 -3.56028e-15)
(-38.5628 -20.2198 0)
(-35.7234 -19.2461 9.73786e-16)
(-32.106 -18.0778 -2.47672e-19)
(-31.9949 -14.8132 -1.24555e-15)
(-36.8474 -28.4906 2.53299e-15)
(-37.7166 -27.5331 -4.98741e-15)
(-38.4835 -26.4838 0)
(-39.0491 -25.3917 -4.98894e-15)
(-39.3247 -24.3071 -5.06858e-15)
(-39.2741 -23.3158 1.04273e-14)
(-38.8604 -22.4978 -8.17273e-15)
(-38.0837 -21.9568 0)
(-37.0002 -21.826 0)
(-35.1796 -21.979 0)
(-32.4217 -21.9793 -8.32514e-16)
(-33.6462 -21.7409 0)
(-34.9392 -27.4914 -2.18813e-15)
(-35.5838 -26.59 -3.62808e-18)
(-36.1658 -25.665 0)
(-36.6225 -24.7549 -3.38473e-18)
(-36.9044 -23.9275 0)
(-36.9843 -23.2565 0)
(-36.8406 -22.8087 2.26917e-15)
(-36.4854 -22.6582 -2.40253e-15)
(-35.9776 -22.9159 2.50579e-15)
(-35.0776 -23.7389 0)
(-32.8452 -24.91 -7.36116e-16)
(-35.8477 -26.7671 9.54534e-16)
(-33.396 -26.2908 7.87258e-15)
(-33.9687 -25.3792 -1.92703e-15)
(-34.4831 -24.5102 3.79848e-15)
(-34.9084 -23.7192 1.88765e-15)
(-35.2249 -23.0565 -5.63742e-15)
(-35.4198 -22.5938 0)
(-35.4929 -22.4023 -1.88833e-15)
(-35.4671 -22.5112 0)
(-35.367 -23.0806 0)
(-35.1404 -24.2257 1.11683e-15)
(-33.6376 -26.0452 4.37568e-19)
(-37.6083 -29.0743 1.19184e-18)
(-31.9703 -25.329 -3.65498e-15)
(-32.5023 -24.4181 -2.33635e-18)
(-32.992 -23.5817 0)
(-33.4252 -22.8513 0)
(-33.7962 -22.2708 -5.22089e-15)
(-34.1117 -21.8929 3.49016e-15)
(-34.3942 -21.7752 3.5548e-15)
(-34.6741 -21.9811 1.84934e-15)
(-34.9786 -22.6285 -3.96105e-15)
(-35.4025 -23.8906 -1.11108e-15)
(-34.7274 -26.2027 0)
(-39.3799 -30.2601 4.08864e-16)
(-30.6771 -24.51 -6.94732e-15)
(-31.1907 -23.5769 3.39644e-15)
(-31.6705 -22.7324 3.34433e-15)
(-32.1144 -22.0048 1.85994e-18)
(-32.5297 -21.4319 -3.91328e-18)
(-32.9381 -21.0569 -3.26955e-15)
(-33.3805 -20.9253 -4.93853e-15)
(-33.9091 -21.093 -1.68633e-15)
(-34.5732 -21.6613 1.77582e-15)
(-35.5196 -22.8182 0)
(-35.717 -25.0237 1.77012e-15)
(-40.6584 -29.7992 -1.14437e-15)
(-29.5001 -23.8236 6.69659e-15)
(-29.9915 -22.851 -3.28684e-15)
(-30.4486 -21.9709 -3.2297e-15)
(-30.8774 -21.2072 -6.3599e-15)
(-31.2965 -20.5908 6.28281e-15)
(-31.7453 -20.1528 -1.77142e-18)
(-32.288 -19.9257 9.3241e-15)
(-33.0086 -19.9541 1.56715e-15)
(-33.9915 -20.3189 1.62599e-15)
(-35.4539 -21.2154 0)
(-36.5489 -23.1724 -1.0666e-15)
(-41.6394 -28.2088 3.56385e-16)
(-28.4168 -23.2649 0)
(-28.8669 -22.2385 3.20248e-15)
(-29.2702 -21.3014 3.14981e-15)
(-29.6371 -20.472 -3.10078e-15)
(-29.9979 -19.7733 -1.43366e-18)
(-30.4104 -19.2226 -3.01539e-15)
(-30.9668 -18.8334 -2.97956e-15)
(-31.7879 -18.6296 0)
(-33.0051 -18.6551 -1.50899e-15)
(-34.9065 -19.0785 -8.11715e-16)
(-36.9334 -20.4651 2.42413e-15)
(-42.0243 -24.9738 -3.29838e-16)
(-27.3903 -22.821 0)
(-27.7686 -21.732 0)
(-28.0715 -20.7259 0)
(-28.3112 -19.8133 -9.13614e-15)
(-28.5337 -19.0093 5.98515e-15)
(-28.8183 -18.3138 5.88982e-15)
(-29.29 -17.7162 0)
(-30.1023 -17.2112 -2.85581e-15)
(-31.4442 -16.7887 0)
(-33.6901 -16.5687 -1.49937e-15)
(-36.4499 -16.9904 -4.41293e-16)
(-41.7371 -20.2122 -6.18428e-16)
(-26.3538 -22.4497 0)
(-26.6183 -21.2997 0)
(-26.757 -20.2242 6.12038e-15)
(-26.7872 -19.2224 8.99725e-15)
(-26.7831 -18.3037 3.52743e-18)
(-26.8488 -17.4507 2.89624e-15)
(-27.1445 -16.625 -1.42092e-15)
(-27.8406 -15.7856 4.17081e-15)
(-29.1787 -14.8438 2.74415e-15)
(-31.5968 -13.8604 1.40323e-15)
(-34.7297 -12.8533 -8.1029e-16)
(-40.2817 -13.3327 -1.15785e-15)
(-25.1955 -22.0546 0)
(-25.2829 -20.8615 0)
(-25.1707 -19.7308 -6.02934e-15)
(-24.8999 -18.647 2.95388e-15)
(-24.594 -17.6227 -2.89331e-15)
(-24.3815 -16.6232 -2.84508e-15)
(-24.4571 -15.586 2.79494e-15)
(-24.9744 -14.4269 0)
(-26.2221 -12.9714 -2.67079e-15)
(-28.4846 -11.1733 -1.33365e-15)
(-32.2078 -8.40276 1.09169e-15)
(-37.2476 0.116355 1.78918e-19)
(-21.5573 -0.893072 -1.1757e-19)
(-18.0364 0.207209 0)
(-16.6432 1.56387 0)
(-15.1007 3.04819 -5.55866e-15)
(-15.5735 3.84513 7.90934e-15)
(-17.5473 5.53323 0)
(-17.5457 12.78 0)
(-16.786 25.843 2.63224e-15)
(-22.9632 31.393 2.62689e-15)
(-25.3912 33.8766 7.78781e-15)
(-27.812 37.6429 1.2203e-14)
(-27.5735 40.6954 -2.44633e-15)
(-25.9766 -6.7564 -2.43164e-19)
(-22.2555 -3.52358 0)
(-24.0995 0.215551 0)
(-24.8923 5.91406 -2.43983e-15)
(-26.2526 13.824 4.78605e-15)
(-29.5224 21.7068 -1.38596e-14)
(-31.3011 27.9762 8.47046e-15)
(-31.506 30.9637 2.09047e-15)
(-32.3669 31.8515 -3.85121e-15)
(-32.5626 32.4127 8.63561e-18)
(-32.7962 33.9589 0)
(-32.7891 35.1154 -6.6046e-15)
(-30.0707 -5.29095 2.82412e-16)
(-28.0646 1.00748 0)
(-30.7555 8.8641 0)
(-32.272 16.4297 -3.48194e-18)
(-33.3925 23.0845 3.63233e-18)
(-33.7582 27.9204 -3.97706e-15)
(-33.1715 31.1523 0)
(-32.0551 32.8925 -9.40652e-15)
(-31.341 33.5044 8.46789e-15)
(-30.6615 34.2394 -2.69778e-15)
(-30.0164 35.1518 -5.29101e-15)
(-29.3028 35.9619 7.79953e-15)
(-33.064 -2.20317 1.02727e-15)
(-33.5201 4.18307 9.50535e-16)
(-35.3685 12.0886 0)
(-35.6355 19.0116 1.83214e-15)
(-35.4051 24.5658 -1.75718e-15)
(-34.4878 28.0797 2.99946e-15)
(-33.272 30.5435 0)
(-31.9984 31.8323 -2.65689e-15)
(-31.0097 32.4881 -7.50468e-15)
(-30.0989 33.1294 4.74831e-15)
(-29.2029 33.7208 4.6271e-15)
(-28.3453 34.2863 -9.04627e-15)
(-34.5238 2.08329 -4.68802e-16)
(-36.041 7.64018 -8.51849e-16)
(-36.9287 14.6397 1.64209e-15)
(-36.6161 20.5331 0)
(-35.6636 24.8235 -5.55012e-15)
(-34.3396 27.6893 5.13503e-15)
(-32.8865 29.4262 2.63149e-15)
(-31.4849 30.3715 2.4755e-15)
(-30.2948 31.0149 0)
(-29.2107 31.6218 0)
(-28.1884 32.2069 0)
(-27.2234 32.7935 -6.09673e-18)
(-36.3376 4.42857 5.34986e-19)
(-37.9249 9.705 0)
(-37.8978 15.7824 -1.47502e-15)
(-37.114 20.7622 2.8024e-15)
(-35.6687 24.4061 2.44511e-15)
(-34.0701 26.6958 -4.9826e-15)
(-32.4223 28.0887 2.38462e-15)
(-30.919 28.9912 -8.97122e-15)
(-29.6018 29.6637 -9.14777e-19)
(-28.4134 30.2691 -3.11227e-18)
(-27.3167 30.8436 2.37909e-18)
(-26.2945 31.4097 1.12787e-14)
(-37.9412 6.55994 4.0521e-16)
(-39.7442 11.0065 1.4419e-15)
(-38.877 16.1512 -2.71132e-15)
(-37.6728 20.3778 -2.55377e-15)
(-35.8241 23.439 -4.83533e-15)
(-33.9347 25.3776 -2.33015e-15)
(-32.1184 26.6781 -4.39583e-15)
(-30.4893 27.6006 8.32991e-15)
(-29.0521 28.3268 0)
(-27.7655 28.9685 7.61875e-15)
(-26.5946 29.564 -1.10219e-14)
(-25.5151 30.1323 3.565e-15)
(-40.1677 7.20228 -7.56466e-16)
(-41.7685 11.5287 -2.0134e-15)
(-40.1767 15.8808 3.76352e-15)
(-38.5729 19.4924 0)
(-36.281 22.1622 -2.28028e-15)
(-34.0729 23.9927 4.32872e-15)
(-32.0347 25.2953 -2.18129e-18)
(-30.2336 26.278 7.60558e-19)
(-28.6584 27.0743 -3.77335e-15)
(-27.2664 27.7672 -7.27583e-15)
(-26.0161 28.3928 3.522e-15)
(-24.8758 28.9686 -3.42889e-15)
(-42.0128 8.32246 -7.05816e-16)
(-43.8994 11.5835 0)
(-41.718 15.1418 0)
(-39.736 18.2573 0)
(-37.0384 20.6894 2.12319e-15)
(-34.4965 22.522 0)
(-32.1846 23.9159 -2.8827e-18)
(-30.1705 25.0116 7.5071e-15)
(-28.4319 25.9063 2.21537e-18)
(-26.9177 26.6667 3.51021e-15)
(-25.5783 27.3281 -3.41685e-15)
(-24.3716 27.9091 1.00074e-14)
(-45.1318 7.63679 -1.32953e-15)
(-46.6406 11.2787 2.95935e-15)
(-43.419 13.9768 -1.09271e-15)
(-40.9028 16.681 0)
(-37.8349 18.9834 0)
(-35.0008 20.9242 0)
(-32.4447 22.4938 0)
(-30.2277 23.7605 3.59893e-15)
(-28.3265 24.7882 -1.40029e-14)
(-26.6891 25.6359 -6.82802e-15)
(-25.2586 26.341 6.67359e-15)
(-23.9844 26.9245 3.27236e-15)
(-46.8752 10.0571 -5.98843e-16)
(-47.3331 10.027 -1.61426e-15)
(-43.6459 11.802 -1.00384e-15)
(-40.8041 14.4965 0)
(-37.7544 16.9475 0)
(-34.9382 19.1276 3.63838e-15)
(-32.3754 20.9519 -7.10176e-15)
(-30.1166 22.4446 1.3897e-14)
(-28.153 23.6462 1.02053e-14)
(-26.4514 24.6105 6.6641e-15)
(-24.9686 25.3746 -6.53703e-15)
(-23.654 25.9572 6.04486e-18)
(-43.8808 4.43197 -1.04144e-18)
(-43.2951 7.3558 0)
(-39.784 9.06469 1.8521e-15)
(-37.6671 11.8769 -5.46236e-15)
(-35.4768 14.6017 5.33264e-15)
(-33.3465 17.0879 3.24497e-18)
(-31.2776 19.2174 3.42771e-15)
(-29.3351 20.9741 -3.37193e-15)