/*--------------------------------*- C++ -*----------------------------------*\
| =========                 |                                                 |
| \\      /  F ield         | OpenFOAM: The Open Source CFD Toolbox           |
|  \\    /   O peration     | Version:  2212                                  |
|   \\  /    A nd           | Website:  www.openfoam.com                      |
|    \\/     M anipulation  |                                                 |
\*---------------------------------------------------------------------------*/
FoamFile
{
    version     2.0;
    format      ascii;
    arch        "LSB;label=32;scalar=64";
    class       volVectorField;
    location    "0.01";
    object      U;
}
// * * * * * * * * * * * * * * * * * * * * * * * * * * * * * * * * * * * * * //

dimensions      [0 1 -1 0 0 0 0];

internalField   nonuniform List<vector> 
3072
(
(-0.514227 21.6929 0)
(0.388891 18.4756 0)
(1.73387 17.0602 4.52333e-19)
(3.14628 15.9032 -6.91691e-15)
(3.76628 16.4795 1.05084e-14)
(5.86398 18.3832 -5.26404e-15)
(13.7699 17.6631 -2.66237e-15)
(25.8955 17.6515 -1.35968e-14)
(30.5218 23.3315 2.1615e-14)
(33.1193 25.423 -8.00763e-15)
(36.6407 27.5669 5.04556e-15)
(39.6619 27.275 2.53878e-15)
(-5.97468 25.9039 -3.14963e-16)
(-3.0143 22.899 -2.41156e-15)
(1.05081 25.051 1.24202e-15)
(7.05076 25.5618 0)
(14.5761 27.2501 4.93888e-15)
(21.5545 30.2425 -7.12524e-15)
(27.1972 31.4822 0)
(29.7731 31.5644 0)
(30.6111 32.0532 0)
(31.4091 32.1185 8.75901e-18)
(32.9475 32.1428 -1.02621e-14)
(34.1976 31.9874 5.57532e-18)
(-3.81399 29.8305 2.92975e-16)
(2.39296 28.5593 0)
(9.53849 31.3739 0)
(16.2805 32.6958 -6.50607e-15)
(22.1401 33.5718 4.20465e-15)
(26.4313 33.7412 -5.99177e-15)
(29.5351 32.9844 6.80051e-15)
(31.329 31.7956 0)
(32.0558 31.0157 0)
(32.9245 30.2463 -2.68357e-15)
(33.8995 29.5057 -2.6278e-15)
(34.7712 28.7025 7.62502e-15)
(-0.873025 32.881 -1.0629e-15)
(5.28182 33.4838 -1.94358e-15)
(12.3464 35.2206 1.88353e-15)
(18.4413 35.477 -1.84409e-15)
(23.3081 35.1753 7.01074e-15)
(26.5148 34.2776 -6.01364e-15)
(28.9086 33.0218 -2.81928e-15)
(30.2369 31.6972 -7.90022e-15)
(31.0111 30.6253 -1.34144e-18)
(31.7599 29.6189 4.66561e-15)
(32.4366 28.6213 4.54987e-15)
(33.1113 27.6762 -4.38254e-15)
(3.44132 34.314 0)
(8.57562 35.9825 8.67803e-16)
(14.6971 36.714 -1.6511e-15)
(19.7426 36.4574 3.17886e-15)
(23.4799 35.543 2.78902e-18)
(26.1008 34.2151 2.56195e-15)
(27.7839 32.7338 2.60205e-15)
(28.8225 31.2601 2.42335e-15)
(29.5665 29.9655 -4.53691e-15)
(30.2624 28.7691 4.27963e-15)
(30.9318 27.6325 -6.10939e-15)
(31.5973 26.5588 7.82577e-15)
(5.62391 36.1177 -8.99133e-16)
(10.4459 37.9036 7.93062e-16)
(15.7001 37.7843 2.96564e-15)
(19.9298 37.0909 0)
(23.0517 35.7218 -4.90102e-15)
(25.1095 34.1548 4.91183e-15)
(26.489 32.4681 0)
(27.4537 30.8569 -4.36498e-15)
(28.1994 29.3936 4.11593e-15)
(28.8739 28.0474 0)
(29.5144 26.7932 2.15243e-18)
(30.14 25.6222 3.61535e-15)
(7.75449 37.7272 0)
(11.6862 39.81 -1.46728e-15)
(16.0389 38.9372 1.36001e-15)
(19.538 37.9107 0)
(22.1078 36.1526 -2.39178e-15)
(23.8517 34.2929 3.53898e-18)
(25.0999 32.4065 4.26405e-15)
(26.0385 30.6246 4.02805e-15)
(26.7996 28.9873 -3.82546e-15)
(27.4777 27.484 3.65951e-15)
(28.1086 26.0972 -3.51801e-15)
(28.7104 24.8163 -1.02146e-14)
(8.3574 39.9834 0)
(12.204 41.9086 1.36315e-15)
(15.8117 40.3626 -2.50594e-15)
(18.7284 38.9713 2.36059e-15)
(20.8961 36.835 0)
(22.4727 34.6631 -4.18277e-15)
(23.6606 32.5329 3.96155e-15)
(24.6014 30.5373 7.09584e-19)
(25.3838 28.7046 -7.20863e-15)
(26.0707 27.0294 -3.46667e-15)
(26.6938 25.4966 -2.05186e-18)
(27.2725 24.0941 6.51483e-15)
(9.59558 41.8696 0)
(12.2932 44.0179 -1.27384e-15)
(15.1512 41.8781 -2.32822e-15)
(17.5504 40.0916 -2.17371e-15)
(19.4194 37.5897 4.10106e-15)
(20.9082 35.1018 0)
(22.0984 32.7036 0)
(23.0731 30.4767 0)
(23.8879 28.4407 0)
(24.5871 26.5893 3.3212e-15)
(25.2011 24.9075 -3.23102e-15)
(25.7526 23.3801 3.15342e-15)
(8.89017 44.805 0)
(11.8564 46.4945 1.19644e-15)
(13.8843 43.2455 -3.17561e-18)
(15.8941 40.8284 2.02125e-15)
(17.5761 37.929 1.91897e-15)
(19.0448 35.1501 -3.66058e-15)
(20.2816 32.5328 0)
(21.3144 30.1271 -1.56326e-18)
(22.1742 27.9372 -9.93552e-15)
(22.8948 25.9528 0)
(23.5052 24.1581 6.30148e-15)
(24.0324 22.5352 -3.08389e-15)
(11.0319 46.4166 0)
(10.5261 46.6942 1.09435e-15)
(11.5871 42.7549 3.97165e-15)
(13.4434 39.7582 -3.79003e-15)
(15.1174 36.7467 -5.44385e-15)
(16.6604 33.9375 8.74297e-15)
(18.0034 31.3386 -1.43315e-18)
(19.1344 28.9542 -3.3032e-15)
(20.0679 26.7769 3.21625e-15)
(20.8343 24.7956 -6.29736e-15)
(21.4616 22.9964 -9.2488e-15)
(21.9822 21.3646 9.08278e-15)
(4.62372 43.1782 -5.48807e-16)
(7.04761 41.842 -3.98707e-15)
(8.18192 37.8046 9.23341e-16)
(10.1075 35.1441 0)
(11.993 32.7675 0)
(13.7216 30.5499 2.71995e-18)
(15.2206 28.4456 9.76024e-15)
(16.4763 26.4496 6.35993e-15)
(17.5039 24.5693 0)
(18.3354 22.8131 6.11816e-15)
(18.999 21.1851 0)
(19.5332 19.6837 3.58273e-18)
(42.4057 27.1299 -1.78074e-14)
(44.3177 25.7207 7.67292e-15)
(45.7436 24.3533 -7.75226e-15)
(46.2406 22.3973 -2.58577e-15)
(46.2445 20.4642 -2.56184e-15)
(45.3587 18.2474 0)
(43.7802 16.1274 0)
(41.2478 13.9685 5.10164e-15)
(37.9407 11.9818 -5.1538e-15)
(33.5588 9.83736 0)
(27.9349 6.49143 0)
(25.3101 -0.025018 -3.54469e-16)
(35.6215 31.4766 6.38588e-15)
(36.9907 30.5441 0)
(38.2913 29.2999 -9.47612e-18)
(39.4309 27.6902 3.1223e-15)
(40.242 25.9106 1.57531e-15)
(40.5612 24.0952 6.45275e-15)
(40.3274 22.3554 -1.00343e-14)
(39.4915 20.8236 1.76496e-15)
(38.0958 19.6445 0)
(35.4225 18.7264 0)
(31.9458 17.6243 0)
(31.8296 14.5273 -3.8438e-23)
(35.699 27.8197 2.46331e-15)
(36.6185 26.8123 -7.25535e-15)
(37.4472 25.723 2.40463e-15)
(38.0935 24.6 4.83087e-15)
(38.4719 23.501 -4.90926e-15)
(38.5352 22.5037 0)
(38.2422 21.6946 0)
(37.5888 21.1682 -1.48245e-18)
(36.6115 21.063 1.51398e-15)
(34.9329 21.2887 0)
(32.3378 21.3859 0)
(33.4894 21.2702 0)
(33.8359 26.7378 2.90589e-18)
(34.5538 25.7716 6.20213e-15)
(35.2096 24.7936 4.08682e-15)
(35.7453 23.8421 -4.08143e-15)
(36.1136 22.9822 0)
(36.287 22.2864 2.09064e-15)
(36.2438 21.8486 0)
(35.9909 21.7055 3.51426e-15)
(35.5977 21.9831 -1.25224e-15)
(34.8063 22.8262 0)
(32.7694 24.1327 -7.36377e-16)
(35.6393 26.1599 -9.8499e-16)
(32.2624 25.5284 -3.78676e-15)
(32.9014 24.5347 0)
(33.4856 23.594 0)
(33.9868 22.7415 0)
(34.3872 22.0274 0)
(34.6806 21.5175 -3.55793e-15)
(34.8517 21.304 -1.22266e-18)
(34.9488 21.4112 -2.01556e-15)
(34.9556 22.0005 0)
(34.8621 23.1869 -1.12136e-15)
(33.5253 25.1489 6.9788e-16)
(37.4036 28.3034 9.0838e-16)
(30.7526 24.5247 -2.0162e-18)
(31.3412 23.5022 -6.86331e-15)
(31.8936 22.5701 3.37909e-15)
(32.4006 21.7585 5.955e-20)
(32.8605 21.1092 1.97248e-18)
(33.2821 20.6758 5.05973e-15)
(33.6895 20.5213 -1.26866e-18)
(34.1098 20.7136 -5.37561e-15)
(34.5636 21.3746 -1.92696e-15)
(35.0993 22.6896 1.08943e-15)
(34.6805 25.1027 -1.31394e-15)
(39.1606 29.3652 -4.20842e-16)
(29.2896 23.6352 9.94572e-15)
(29.8465 22.556 3.24674e-15)
(30.3825 21.5914 0)
(30.903 20.7641 0)
(31.4221 20.1074 1.87361e-18)
(31.9639 19.6638 -3.14756e-15)
(32.5656 19.4856 4.76984e-15)
(33.2722 19.6345 -1.09673e-18)
(34.1233 20.2221 1.72635e-15)
(35.2231 21.4499 0)
(35.6377 23.8128 -2.02017e-18)
(40.4772 28.8075 3.91911e-16)
(27.8187 22.8148 -3.18091e-15)
(28.3423 21.6583 -3.11867e-15)
(28.8555 20.632 3.07492e-15)
(29.3763 19.7513 -3.03788e-15)
(29.9324 19.0395 -6.88163e-20)
(30.5627 18.5266 5.99553e-15)
(31.3211 18.2503 -2.99666e-15)
(32.2766 18.2623 1.51905e-15)
(33.4976 18.6574 0)
(35.1561 19.6488 8.71256e-16)
(36.4629 21.8065 5.30416e-16)
(41.5049 27.1064 -1.4636e-15)
(26.2597 21.9972 3.08885e-15)
(26.7402 20.7539 -3.03544e-15)
(27.216 19.6513 -2.99005e-15)
(27.7155 18.6964 -5.91155e-15)
(28.2775 17.9009 5.84919e-15)
(28.9536 17.2803 -5.7953e-15)
(29.8146 16.8535 0)
(30.9543 16.6519 -1.43829e-15)
(32.4768 16.7376 0)
(34.6211 17.3003 0)
(36.836 18.946 0)
(41.967 23.8368 1.3616e-15)
(24.5 21.0721 3.02689e-15)
(24.933 19.759 -5.95762e-15)
(25.3609 18.5905 5.87304e-15)
(25.8201 17.5649 5.79836e-15)
(26.3583 16.6825 2.86604e-15)
(27.0356 15.9431 0)
(27.9369 15.3421 0)
(29.1757 14.8819 2.77644e-15)
(30.8961 14.5736 0)
(33.422 14.5596 -7.3695e-16)
(36.3554 15.3045 4.41493e-16)
(41.7164 19.0045 -1.91441e-15)
(22.424 19.8908 -5.95357e-15)
(22.8172 18.5627 5.85846e-15)
(23.1969 17.3713 -5.77817e-15)
(23.6058 16.3081 -1.42741e-14)
(24.0978 15.3639 -1.63596e-18)
(24.7367 14.5247 1.02177e-18)
(25.6169 13.7609 -2.75545e-15)
(26.8544 13.0374 -2.71172e-15)
(28.6277 12.2968 0)
(31.3341 11.6156 2.07674e-15)
(34.5872 10.9954 4.05947e-16)
(40.264 12.1571 -2.95135e-19)
(19.9669 18.3113 -3.44928e-18)
(20.333 17.0585 0)
(20.6706 15.9174 0)
(21.0261 14.8765 2.8106e-15)
(21.4578 13.9226 8.34776e-15)
(22.0293 13.0302 -2.75314e-15)
(22.8412 12.1486 -1.48723e-18)
(23.9847 11.2138 -1.33723e-15)
(25.6624 10.082 -1.3125e-15)
(28.1667 8.70962 -1.31797e-15)
(31.9105 6.37504 0)
(37.2037 -1.54247 5.26461e-16)
(21.737 0.339838 -3.55243e-16)
(18.5581 -0.530131 0)
(17.2424 -1.89212 -4.4883e-19)
(15.9142 -3.30881 0)
(16.4304 -4.09054 5.51077e-15)
(18.0617 -5.66262 -5.35154e-15)
(18.1773 -11.8374 0)
(16.8158 -23.9054 -1.09301e-14)
(21.9802 -29.765 1.90397e-14)
(24.45 -31.998 -1.34532e-14)
(26.4651 -35.6261 -2.54362e-15)
(26.3377 -38.551 -2.55645e-15)
(25.8205 5.80655 -1.57463e-15)
(22.9503 2.9635 -1.20554e-15)
(24.8417 -0.881485 3.71852e-15)
(25.3301 -6.4655 0)
(26.6162 -13.5231 -4.97303e-15)
(29.3202 -20.3781 4.80488e-15)
(30.9511 -26.0919 0)
(30.8024 -29.1185 4.36507e-15)
(31.3555 -30.2247 -1.20076e-14)
(31.3317 -30.8034 7.64178e-15)
(31.3318 -32.3546 7.00799e-15)
(31.2016 -33.5216 -1.01533e-14)
(29.7244 3.6733 2.93168e-16)
(28.5159 -2.1603 0)
(31.1185 -8.92101 -2.17291e-15)
(32.3618 -15.3895 0)
(33.1561 -21.196 0)
(33.2742 -25.5096 -4.05658e-15)
(32.6751 -28.6792 1.39227e-14)
(31.3648 -30.6994 -9.81022e-15)
(30.4969 -31.5251 2.90477e-15)
(29.6712 -32.3327 0)
(28.8761 -33.3255 5.37293e-15)
(28.0546 -34.1976 -2.62904e-15)
(32.7676 0.900279 -1.06453e-15)
(33.3914 -4.88456 9.73612e-16)
(35.0371 -11.5854 1.88706e-15)
(35.2988 -17.4885 3.71192e-15)
(34.9687 -22.3869 -3.55457e-15)
(34.0662 -25.6942 -3.07017e-15)
(32.7961 -28.1472 0)
(31.3929 -29.6401 0)
(30.2438 -30.4722 2.54531e-15)
(29.1928 -31.2271 0)
(28.158 -31.9504 3.70003e-18)
(27.1711 -32.618 2.2655e-15)
(34.2244 -3.31974 1.45878e-15)
(35.91 -8.10365 -8.69178e-16)
(36.6192 -13.9264 -1.65691e-15)
(36.4068 -18.8583 0)
(35.4927 -22.6576 0)
(34.1354 -25.3265 2.61614e-15)
(32.6422 -27.1199 0)
(31.0978 -28.2691 -4.97973e-15)
(29.7319 -29.072 -2.33362e-15)
(28.4811 -29.8019 4.41265e-15)
(27.2945 -30.5058 -6.30835e-15)
(26.1758 -31.1936 4.04264e-15)
(36.0754 -5.40422 -5.24412e-19)
(37.8822 -9.93681 -7.94472e-16)
(37.7892 -14.9491 1.48664e-15)
(37.1627 -19.0934 1.41517e-18)
(35.7958 -22.2495 2.55647e-15)
(34.2151 -24.4015 -4.98235e-15)
(32.5056 -25.885 4.75315e-15)
(30.8349 -26.9483 3.74187e-18)
(29.3068 -27.7628 0)
(27.9017 -28.4886 0)
(26.5906 -29.175 7.72262e-15)
(25.3667 -29.8413 3.59202e-19)
(37.7072 -7.53068 -8.38735e-16)
(39.8361 -11.2006 -7.35991e-16)
(39.0229 -15.3522 0)
(38.0855 -18.7789 -2.57796e-15)
(36.3648 -21.3764 2.43231e-15)
(34.5011 -23.2199 6.90256e-15)
(32.5886 -24.567 4.34669e-15)
(30.7556 -25.5984 5.45494e-18)
(29.0567 -26.4356 -7.8458e-15)
(27.4903 -27.1781 3.75734e-15)
(26.0396 -27.8683 3.62604e-15)
(24.6957 -28.5264 2.09365e-18)
(39.9955 -8.12174 -4.89504e-19)
(41.9693 -11.7635 1.3663e-15)
(40.5084 -15.2064 0)
(39.226 -18.0635 -2.37376e-15)
(37.1577 -20.2603 -2.23814e-15)
(35.0101 -21.9218 3.56954e-18)
(32.8647 -23.2041 -8.04889e-15)
(30.8268 -24.2378 2.78811e-18)
(28.9356 -25.1039 -1.99563e-18)
(27.194 -25.8669 3.55851e-15)
(25.5903 -26.5623 -3.44234e-15)
(24.1145 -27.2112 1.80791e-18)
(41.8884 -9.41682 -3.64399e-16)
(44.0929 -11.9168 6.37057e-16)
(42.0678 -14.6464 -3.50769e-15)
(40.4129 -16.9988 2.18973e-15)
(38.0047 -18.8884 0)
(35.5653 -20.4477 0)
(33.1704 -21.7247 3.77527e-15)
(30.9142 -22.7916 7.2674e-15)
(28.826 -23.6964 -3.51312e-15)
(26.9084 -24.4824 -3.40857e-15)
(25.1509 -25.1815 -3.32056e-15)
(23.5417 -25.8167 0)
(44.8282 -8.71465 -6.84386e-16)
(46.5853 -11.5604 1.80234e-15)
(43.4844 -13.5007 4.35283e-15)
(41.2128 -15.4633 0)
(38.4201 -17.1558 3.89247e-15)
(35.7048 -18.6763 0)
(33.1081 -19.99 2.2744e-18)
(30.6884 -21.1132 -3.4887e-15)
(28.4571 -22.0686 3.40142e-15)
(26.4115 -22.8863 0)
(24.5403 -23.5947 0)
(22.8305 -24.2188 -6.35988e-15)
(46.4372 -10.9217 1.82867e-23)
(46.8935 -10.3591 1.10355e-15)
(43.0757 -11.3457 2.91642e-18)
(40.2132 -13.1483 -3.86003e-15)
(37.297 -14.8005 -1.85213e-15)
(34.5598 -16.3802 -1.79174e-15)
(31.9957 -17.7917 -3.48233e-15)
(29.6132 -19.012 -1.0182e-14)
(27.4083 -20.0463 -3.31234e-15)
(25.3738 -20.9182 -6.49291e-15)
(23.5005 -21.6544 6.36663e-15)
(21.7793 -22.2829 6.24741e-15)
(43.3985 -4.61045 -1.10239e-15)
(42.179 -7.00567 -5.01178e-16)
(38.2562 -8.00214 2.45977e-18)
(35.6638 -9.87193 3.65292e-15)
(33.3728 -11.7485 0)
(31.2268 -13.5151 -3.43879e-15)
(29.1704 -15.0854 3.35554e-15)
(27.1917 -16.4338 3.28208e-15)
(25.2967 -17.567 -9.67307e-15)
(23.4944 -18.5085 6.3292e-15)
(21.7936 -19.2876 -6.22263e-15)
(20.1996 -19.9347 0)
(26.1809 -41.3451 7.6777e-15)
(24.8972 -43.2419 -2.0603e-14)
(23.5653 -44.7224 5.18112e-15)
(21.7161 -45.2531 1.29889e-14)
(19.864 -45.3086 -1.28969e-14)
(17.7498 -44.4888 2.56504e-15)
(15.72 -42.9967 -1.31555e-18)
(13.6313 -40.5662 -2.56149e-15)
(11.709 -37.3751 -5.17651e-15)
(9.61817 -33.1495 0)
(6.28298 -27.6361 0)
(-0.103429 -25.1338 -5.30815e-16)
(30.7022 -34.9263 -2.41018e-19)
(29.8089 -36.2558 6.45011e-15)
(28.6059 -37.5451 -9.38526e-18)
(27.0494 -38.6767 0)
(25.3071 -39.5234 4.86803e-15)
(23.5283 -39.8917 0)
(21.8228 -39.7252 3.42281e-15)
(20.3345 -38.9569 5.40553e-15)
(19.1955 -37.6453 -3.87665e-15)
(18.3062 -35.1044 0)
(17.1783 -31.6912 0)
(13.8214 -31.6774 -3.77956e-20)
(27.1596 -35.1182 2.54117e-15)
(26.1544 -36.0333 -2.49599e-15)
(25.0715 -36.8749 2.48528e-15)
(23.961 -37.5443 0)
(22.8777 -37.9587 -2.53493e-15)
(21.9011 -38.0666 5.22586e-15)
(21.1139 -37.8256 -6.8386e-15)
(20.6047 -37.2311 -7.27924e-15)
(20.5146 -36.3343 4.61277e-15)
(20.7353 -34.7611 0)
(20.8026 -32.2133 8.59229e-16)
(20.641 -33.4565 1.55622e-20)
(26.209 -33.3535 2.18812e-15)
(25.2248 -34.0848 -4.28066e-15)
(24.2335 -34.764 4.23043e-15)
(23.2714 -35.3314 -4.2241e-15)
(22.4005 -35.7401 0)
(21.6933 -35.9607 2.14629e-15)
(21.2554 -35.968 2.22658e-15)
(21.097 -35.7752 1.20199e-15)
(21.3656 -35.4384 -2.55134e-15)
(22.2156 -34.7042 0)
(23.4842 -32.6658 -7.56346e-16)
(25.3269 -35.6124 1.23686e-15)
(25.1067 -31.8885 3.91894e-15)
(24.0783 -32.5589 -1.91733e-15)
(23.1056 -33.1794 0)
(22.2231 -33.7212 0)
(21.4805 -34.1653 1.887e-15)
(20.9395 -34.5065 -1.84934e-15)
(20.7035 -34.7208 -2.33357e-18)
(20.7898 -34.8628 0)
(21.365 -34.9089 -1.12582e-15)
(22.5509 -34.8465 1.14514e-15)
(24.4893 -33.5323 -1.42748e-15)
(27.5536 -37.4645 0)
(24.2189 -30.4972 -7.24441e-15)
(23.1476 -31.1305 3.54452e-15)
(22.168 -31.7296 6.9855e-15)
(21.3096 -32.2845 4.22008e-20)
(20.6148 -32.7924 -8.64533e-15)
(20.1375 -33.2591 -3.48549e-15)
(19.9441 -33.7067 -2.18094e-18)
(20.1021 -34.1609 0)
(20.737 -34.6371 0)
(22.0326 -35.1962 -1.11556e-15)
(24.43 -34.7275 -6.68093e-16)
(28.625 -39.2524 4.22501e-16)
(23.4519 -29.1624 3.42084e-15)
(22.3104 -29.776 -6.7042e-15)
(21.2835 -30.3683 -3.29785e-15)
(20.3946 -30.9434 -1.72963e-18)
(19.6774 -31.5136 3.2446e-15)
(19.1764 -32.1007 3.24523e-15)
(18.9474 -32.739 1.63955e-15)
(19.0552 -33.4709 1.68072e-15)
(19.6163 -34.3301 -1.7764e-15)
(20.835 -35.4267 0)
(23.2026 -35.7737 1.19481e-15)
(28.2156 -40.6385 -7.87505e-16)
(22.7603 -27.8269 0)
(21.5283 -28.4187 3.21642e-15)
(20.4262 -28.9974 0)
(19.4702 -29.5794 -1.72753e-18)
(18.6846 -30.1898 -5.30524e-20)
(18.102 -30.865 6.18155e-15)
(17.7647 -31.6555 -1.54299e-15)
(17.7298 -32.6268 -3.12703e-15)
(18.0991 -33.8393 -1.62574e-15)
(19.0897 -35.4691 8.92736e-16)
(21.2633 -36.6796 -1.62233e-15)
(26.6611 -41.7062 7.34099e-16)
(22.073 -26.4063 3.18349e-15)
(20.7423 -26.9666 -3.12994e-15)
(19.5518 -27.5175 -3.08659e-15)
(18.5096 -28.0848 3.04912e-15)
(17.6286 -28.7046 3.01571e-15)
(16.9278 -29.4251 -8.96121e-15)
(16.4316 -30.3132 0)
(16.1791 -31.459 1.48004e-15)
(16.2427 -32.9574 1.51083e-15)
(16.8203 -35.0495 0)
(18.5228 -37.161 1.47642e-15)
(23.6098 -42.2092 -3.42488e-16)
(21.2728 -24.7818 0)
(19.8621 -25.3064 -6.14515e-15)
(18.5955 -25.8194 -3.03137e-15)
(17.4727 -26.3537 -5.97823e-15)
(16.4956 -26.9532 2.95481e-15)
(15.668 -27.6739 2.91899e-15)
(14.9907 -28.5961 0)
(14.4767 -29.8294 0)
(14.1524 -31.5074 0)
(14.1651 -33.955 0)
(15.0159 -36.7807 -4.48486e-16)
(19.0244 -41.983 -6.4012e-16)
(20.2034 -22.8311 3.0722e-15)
(18.7691 -23.3271 3.02201e-15)
(17.4714 -23.8022 1.19268e-14)
(16.3042 -24.2932 2.94608e-15)
(15.2591 -24.8493 1.16411e-14)
(14.3267 -25.5296 -2.87458e-15)
(13.4833 -26.4208 -2.83495e-15)
(12.7063 -27.6346 0)
(11.9549 -29.3406 -2.75811e-15)
(11.3143 -31.9435 -1.41571e-15)
(10.8452 -35.063 -8.23839e-16)
(12.4603 -40.5458 0)
(18.7168 -20.4819 0)
(17.3494 -20.9597 0)
(16.0952 -21.4018 -1.17383e-14)
(14.9462 -21.8453 -8.69758e-15)
(13.8888 -22.3423 -2.86539e-15)
(12.9029 -22.9471 0)
(11.9447 -23.7517 2.79723e-15)
(10.9583 -24.8399 0)
(9.82218 -26.4061 -1.51391e-18)
(8.50237 -28.7684 1.34626e-15)
(6.37086 -32.3495 3.68397e-16)
(-1.00696 -37.3428 -1.5415e-19)
(0.513748 -21.693 -1.77335e-16)
(-0.389351 -18.4755 -2.79199e-15)
(-1.73394 -17.0605 2.88945e-15)
(-3.14703 -15.9021 -2.76792e-15)
(-3.76729 -16.478 0)
(-5.86106 -18.3806 2.63364e-15)
(-13.7563 -17.6664 0)
(-25.8857 -17.6447 2.72255e-15)
(-30.5202 -23.3244 -8.09666e-15)
(-33.1148 -25.4181 8.01729e-15)
(-36.6379 -27.5622 1.51144e-14)
(-39.6582 -27.2711 -5.04538e-15)
(5.97483 -25.9036 0)
(3.01483 -22.8983 -2.41151e-15)
(-1.0484 -25.0489 2.48305e-15)
(-7.04599 -25.5597 2.5298e-15)
(-14.57 -27.2451 -4.93905e-15)
(-21.5494 -30.2365 -1.09815e-18)
(-27.1937 -31.4795 -4.37976e-15)
(-29.7724 -31.5602 -1.06854e-14)
(-30.6117 -32.0503 1.17777e-14)
(-31.4081 -32.1151 -3.73081e-15)
(-32.9467 -32.1397 9.20511e-18)
(-34.1961 -31.9846 5.79448e-18)
(3.81511 -29.8304 0)
(-2.39019 -28.5587 0)
(-9.53449 -31.3723 0)
(-16.2761 -32.6944 -2.16986e-15)
(-22.1366 -33.5701 0)
(-26.4289 -33.7394 -2.00187e-15)
(-29.5335 -32.9835 3.39855e-15)
(-31.3286 -31.794 6.37535e-15)
(-32.0558 -31.0137 -2.82785e-15)
(-32.9239 -30.2441 -5.36646e-15)
(-33.8989 -29.5034 -7.88869e-15)
(-34.7704 -28.7002 7.62628e-15)
(0.87454 -32.8808 0)
(-5.27879 -33.4836 -9.72122e-16)
(-12.3424 -35.2203 1.88522e-15)
(-18.4373 -35.477 1.83968e-15)
(-23.3052 -35.1752 0)
(-26.5132 -34.2773 -6.01944e-15)
(-28.9075 -33.0213 5.63321e-15)
(-30.2366 -31.6963 0)
(-31.011 -30.624 4.93491e-15)
(-31.7595 -29.6174 -6.99785e-15)
(-32.4363 -28.6197 4.54679e-15)
(-33.1107 -27.6745 3.64859e-18)
(-3.43953 -34.3139 -5.79397e-23)
(-8.57258 -35.9824 1.73691e-15)
(-14.6935 -36.7142 2.51761e-18)
(-19.7393 -36.458 0)
(-23.4776 -35.5436 -2.76955e-15)
(-26.0993 -34.2154 5.12602e-15)
(-27.7831 -32.7339 0)
(-28.8222 -31.2597 -2.42748e-15)
(-29.5662 -29.9648 -2.27091e-15)
(-30.2622 -28.7682 4.28032e-15)
(-30.9316 -27.6314 0)
(-31.597 -26.5576 -3.90931e-15)
(-5.62202 -36.1177 4.49376e-16)
(-10.443 -37.9038 1.77431e-18)
(-15.6968 -37.7848 -1.48179e-15)
(-19.927 -37.0918 -5.648e-15)
(-23.0495 -35.7227 -1.13996e-18)
(-25.1082 -34.1555 4.91228e-15)
(-26.4882 -32.4686 0)
(-27.4533 -30.857 6.54892e-15)
(-28.1993 -29.3934 -4.11742e-15)
(-28.8738 -28.047 3.91165e-15)
(-29.5143 -26.7926 2.15274e-18)
(-30.14 -25.6214 -3.45952e-19)
(-7.75272 -37.7273 -1.25674e-15)
(-11.6837 -39.8103 -7.3231e-16)
(-16.0361 -38.9379 0)
(-19.5356 -37.9118 5.12759e-15)
(-22.106 -36.1537 -7.17599e-15)
(-23.8505 -34.294 -1.12604e-18)
(-25.0992 -32.4074 -8.53263e-15)
(-26.0382 -30.6252 3.23424e-18)
(-26.7995 -28.9876 -3.82598e-15)
(-27.4778 -27.4841 -3.66003e-15)
(-28.1088 -26.097 3.52335e-15)
(-28.7107 -24.816 -3.40597e-15)
(-8.35579 -39.9836 1.1748e-15)
(-12.2018 -41.909 -6.81833e-16)
(-15.8094 -40.3635 0)
(-18.7264 -38.9726 2.36073e-15)
(-20.8946 -36.8365 2.21793e-15)
(-22.4718 -34.6645 2.09052e-15)
(-23.6601 -32.5341 -3.1134e-18)
(-24.6013 -30.5383 -7.09773e-19)
(-25.384 -28.7054 -3.60732e-15)
(-26.0711 -27.03 -4.28926e-18)
(-26.6943 -25.497 1.83554e-18)
(-27.2731 -24.0942 0)
(-9.59424 -41.8698 3.63507e-16)
(-12.2914 -44.0183 0)
(-15.1494 -41.879 0)
(-17.5488 -40.093 -2.17384e-15)
(-19.4182 -37.5914 2.0479e-15)
(-20.9075 -35.1035 -3.88864e-15)
(-22.0981 -32.7052 0)
(-23.0732 -30.4782 3.55851e-15)
(-23.8883 -28.442 -1.78976e-18)
(-24.5877 -26.5904 3.32163e-15)
(-25.2019 -24.9083 -3.23292e-15)
(-25.7537 -23.3807 6.31063e-15)
(-8.889 -44.8053 -1.60231e-19)
(-11.855 -46.4951 -5.98375e-16)
(-13.883 -43.2466 -2.16018e-15)
(-15.893 -40.8299 -4.04068e-15)
(-17.5753 -37.9309 0)
(-19.0444 -35.1521 3.65656e-15)
(-20.2816 -32.5348 -7.04567e-15)
(-21.3148 -30.129 3.40658e-15)
(-22.1748 -27.9389 3.31432e-15)
(-22.8957 -25.9543 0)
(-23.5064 -24.1594 -3.15394e-15)
(-24.0338 -22.5363 -6.16586e-15)
(-11.0311 -46.4167 -6.13059e-16)
(-10.5251 -46.6949 5.46469e-16)
(-11.5863 -42.756 1.9845e-15)
(-13.4427 -39.7599 1.89363e-15)
(-15.117 -36.7486 -3.05752e-19)
(-16.6603 -33.9397 -5.24841e-15)
(-18.0036 -31.3409 6.77873e-15)
(-19.135 -28.9564 1.31983e-14)
(-20.0687 -26.779 -9.65592e-15)
(-20.8355 -24.7975 -6.29815e-15)
(-21.463 -22.9981 6.16587e-15)
(-21.9839 -21.366 0)
(-4.62344 -43.1787 1.09617e-15)
(-7.04732 -41.8429 5.00147e-16)
(-8.18148 -37.8059 9.20995e-16)
(-10.1071 -35.1458 3.57361e-15)
(-11.9928 -32.7694 0)
(-13.7216 -30.552 3.33612e-15)
(-15.2209 -28.4477 -6.50916e-15)
(-16.4769 -26.4517 -3.17915e-15)
(-17.5048 -24.5713 -3.11807e-15)
(-18.3366 -22.815 6.11894e-15)
(-19.0005 -21.1869 3.01047e-15)
(-19.5349 -19.6852 8.88696e-15)
(-42.4028 -27.1264 -2.54224e-15)
(-44.3145 -25.7177 2.56992e-15)
(-45.741 -24.3506 -7.74305e-15)
(-46.2379 -22.395 2.31748e-14)
(-46.2421 -20.4624 -1.02248e-14)
(-45.3563 -18.2458 0)
(-43.7781 -16.1263 -5.08034e-15)
(-41.2459 -13.9675 3.82243e-15)
(-37.9391 -11.9811 0)
(-33.5576 -9.83678 8.74494e-19)
(-27.934 -6.49086 0)
(-25.3096 0.0252622 3.54467e-16)
(-35.62 -31.4741 -1.27851e-14)
(-36.9889 -30.5418 6.28817e-15)
(-38.2895 -29.2979 6.26187e-15)
(-39.429 -27.6884 -3.12706e-15)
(-40.2403 -25.909 0)
(-40.5595 -24.0937 0)
(-40.3259 -22.3541 3.34584e-15)
(-39.4902 -20.8224 -3.53243e-15)
(-38.0947 -19.6434 0)
(-35.4217 -18.7254 9.87955e-16)
(-31.9451 -17.6231 -2.51811e-19)
(-31.8293 -14.5251 -1.29041e-15)
(-35.698 -27.8175 2.46404e-15)
(-36.6174 -26.8102 -4.83692e-15)
(-37.4461 -25.7211 0)
(-38.0924 -24.5982 -4.83158e-15)
(-38.4708 -23.4992 -4.91097e-15)
(-38.5342 -22.5021 1.01275e-14)
(-38.2412 -21.6932 -7.96731e-15)
(-37.5879 -21.1668 0)
(-36.6108 -21.0617 0)
(-34.9325 -21.2874 0)
(-32.3374 -21.3844 -8.45764e-16)
(-33.4894 -21.2684 0)
(-33.8353 -26.7361 -2.11467e-15)
(-34.5531 -25.77 -3.38851e-18)
(-35.2089 -24.792 0)
(-35.7446 -23.8406 -3.17253e-18)
(-36.1129 -22.9807 0)
(-36.2863 -22.2849 0)
(-36.2433 -21.8472 2.17415e-15)
(-35.9905 -21.7041 -2.34254e-15)
(-35.5974 -21.9816 2.50614e-15)
(-34.806 -22.8248 0)
(-32.7691 -24.131 -7.36453e-16)
(-35.6393 -26.1576 9.85005e-16)
(-32.2621 -25.5271 7.58326e-15)
(-32.9011 -24.5334 -1.85403e-15)
(-33.4852 -23.5926 3.65497e-15)
(-33.9865 -22.7401 1.81723e-15)
(-34.3869 -22.026 -5.4617e-15)
(-34.6805 -21.5161 0)
(-34.8516 -21.3026 -1.84097e-15)
(-34.9487 -21.4098 0)
(-34.9556 -21.999 0)
(-34.8621 -23.1854 1.12145e-15)
(-33.5254 -25.1473 3.84865e-19)
(-37.4039 -28.3015 1.22482e-18)
(-30.7526 -24.5238 -3.50557e-15)
(-31.3413 -23.5012 -2.14824e-18)
(-31.8937 -22.5691 0)
(-32.4007 -21.7573 0)
(-32.8607 -21.108 -5.02514e-15)
(-33.2824 -20.6745 3.3745e-15)
(-33.6899 -20.5201 3.44383e-15)
(-34.1101 -20.7123 1.79192e-15)
(-34.5639 -21.3732 -3.85333e-15)
(-35.0996 -22.6882 -1.08954e-15)
(-34.6806 -25.1011 0)
(-39.161 -29.3632 4.20849e-16)
(-29.2899 -23.6347 -6.63479e-15)
(-29.847 -22.5554 3.24362e-15)
(-30.383 -21.5906 3.19696e-15)
(-30.9036 -20.7633 1.71926e-18)
(-31.4228 -20.1064 -3.58297e-18)
(-31.9646 -19.6628 -3.14981e-15)
(-32.5663 -19.4845 -4.76966e-15)
(-33.2729 -19.6333 -1.63299e-15)
(-34.124 -20.2209 1.72658e-15)
(-35.2237 -21.4487 0)
(-35.638 -23.8114 1.76588e-15)
(-40.4777 -28.806 -1.17713e-15)
(-27.8195 -22.8147 6.36115e-15)
(-28.3432 -21.658 -3.12406e-15)
(-28.8565 -20.6316 -3.0754e-15)
(-29.3774 -19.7508 -6.07504e-15)
(-29.9336 -19.0388 6.02364e-15)
(-30.5639 -18.5257 -1.73732e-18)
(-31.3223 -18.2494 8.99653e-15)
(-32.2777 -18.2614 1.51742e-15)
(-33.4986 -18.6564 1.5816e-15)
(-35.1569 -19.6478 0)
(-36.4634 -21.8054 -1.06251e-15)
(-41.5054 -27.1051 3.66055e-16)
(-26.2609 -21.9976 0)
(-26.7416 -20.754 3.03441e-15)
(-27.2175 -19.6513 2.99051e-15)
(-27.717 -18.6962 -2.95564e-15)
(-28.2791 -17.9004 -1.32202e-18)
(-28.9552 -17.2797 -2.90021e-15)
(-29.8162 -16.8528 -2.87731e-15)
(-30.9558 -16.6511 0)
(-32.4781 -16.7369 -1.47039e-15)
(-34.6222 -17.2996 -7.96325e-16)
(-36.8368 -18.9452 2.41862e-15)
(-41.9676 -23.8362 -3.39022e-16)
(-24.5016 -21.0729 0)
(-24.9347 -19.7596 0)
(-25.3627 -18.5908 0)
(-25.822 -17.565 -8.69991e-15)
(-26.3603 -16.6823 5.73271e-15)
(-27.0375 -15.9427 5.66817e-15)
(-27.9388 -15.3416 0)
(-29.1774 -14.8814 -2.77686e-15)
(-30.8976 -14.5731 0)
(-33.4232 -14.5591 -1.47428e-15)
(-36.3564 -15.3041 -4.4147e-16)
(-41.717 -19.0044 -6.36181e-16)
(-22.4259 -19.8919 0)
(-22.8191 -18.5636 0)
(-23.199 -17.3719 5.78298e-15)
(-23.6079 -16.3084 8.56391e-15)
(-24.0999 -15.364 2.86637e-18)
(-24.7388 -14.5246 2.79224e-15)
(-25.6189 -13.7606 -1.3777e-15)
(-26.8562 -13.0371 4.06862e-15)
(-28.6293 -12.2965 2.68806e-15)
(-31.3355 -11.6154 1.38317e-15)
(-34.5883 -10.9954 -8.11836e-16)
(-40.2647 -12.1575 -1.19003e-15)
(-19.9688 -18.3126 0)
(-20.3351 -17.0595 0)
(-20.6728 -15.9181 -5.68739e-15)
(-21.0284 -14.877 2.81413e-15)
(-21.4601 -13.9228 -2.78196e-15)
(-22.0314 -13.0302 -2.75354e-15)
(-22.8433 -12.1485 2.72085e-15)
(-23.9865 -11.2136 0)
(-25.664 -10.0818 -2.62504e-15)
(-28.1681 -8.70957 -1.31878e-15)
(-31.9116 -6.37535 1.09506e-15)
(-37.2044 1.54131 2.24364e-19)
(-21.7367 -0.341417 -1.34164e-19)
(-18.5587 0.528084 0)
(-17.2412 1.89068 0)
(-15.9164 3.30704 -5.73294e-15)
(-16.4333 4.08721 8.26482e-15)
(-18.065 5.66251 0)
(-18.1752 11.8456 0)
(-16.82 23.9121 2.73532e-15)
(-21.9848 29.7639 2.72769e-15)
(-24.4521 31.9987 8.07954e-15)
(-26.467 35.6257 1.2667e-14)
(-26.3386 38.5509 -2.53644e-15)
(-25.8201 -5.80565 -2.6732e-19)
(-22.9535 -2.96316 0)
(-24.8456 0.88643 0)
(-25.3324 6.47389 -2.53474e-15)
(-26.6217 13.5302 4.97565e-15)
(-29.3259 20.3817 -1.4417e-14)
(-30.9535 26.0929 8.91362e-15)
(-30.8051 29.1167 2.18616e-15)
(-31.357 30.2217 -3.99572e-15)
(-31.3329 30.802 8.50738e-18)
(-31.3326 32.3531 0)
(-31.2018 33.5206 -6.75791e-15)
(-29.7239 -3.66849 2.93166e-16)
(-28.5193 2.16577 0)
(-31.123 8.92492 0)
(-32.3647 15.391 -3.44062e-18)
(-33.1581 21.1949 3.57521e-18)
(-33.2756 25.507 -4.06198e-15)
(-32.6754 28.6765 0)
(-31.3653 30.6965 -9.81263e-15)
(-30.4976 31.5223 8.71939e-15)
(-29.6717 32.3307 -2.7654e-15)
(-28.8765 33.3237 -5.37235e-15)
(-28.0548 34.1962 7.87796e-15)
(-32.7668 -0.895241 1.06452e-15)
(-33.3917 4.88922 9.73562e-16)
(-35.037 11.5879 0)
(-35.2986 17.4888 1.85352e-15)
(-34.9684 22.3851 -1.77565e-15)
(-34.066 25.6915 3.06984e-15)
(-32.796 28.1444 0)
(-31.393 29.6371 -2.70812e-15)
(-30.244 30.4696 -7.62767e-15)
(-29.1929 31.225 4.81419e-15)
(-28.1581 31.9485 4.65655e-15)
(-27.1711 32.6166 -9.07187e-15)
(-34.2234 3.32491 -4.8567e-16)
(-35.9096 8.10779 -8.69754e-16)
(-36.6181 13.9282 1.65675e-15)
(-36.4058 18.8578 0)
(-35.4919 22.6556 -5.77274e-15)
(-34.1349 25.3239 5.2292e-15)
(-32.6418 27.1172 2.65534e-15)
(-31.0977 28.2666 2.48719e-15)
(-29.732 29.0699 0)
(-28.4811 29.8002 0)
(-27.2945 30.5044 0)
(-26.1757 31.1925 -5.77969e-18)
(-36.0743 5.40851 5.24349e-19)
(-37.8815 9.94003 0)
(-37.7879 14.9502 -1.48652e-15)
(-37.1615 19.0926 2.84342e-15)
(-35.7949 22.2475 2.5561e-15)
(-34.2145 24.3991 -4.98154e-15)
(-32.5053 25.8827 2.37683e-15)
(-30.8348 26.9462 -8.94361e-15)
(-29.3069 27.761 -9.38211e-19)
(-27.9018 28.4871 -2.96171e-18)
(-26.5907 29.1738 2.18982e-18)
(-25.3667 29.8404 1.11781e-14)
(-37.7061 7.53445 4.19755e-16)
(-39.8353 11.2031 1.47056e-15)
(-39.0215 15.3529 -2.72446e-15)
(-38.0843 18.778 -2.5777e-15)
(-36.364 21.3746 -4.85939e-15)
(-34.5006 23.2179 -2.30373e-15)
(-32.5885 24.5651 -4.34395e-15)
(-30.7557 25.5967 8.2287e-15)
(-29.0569 26.4341 0)
(-27.4905 27.177 7.51424e-15)
(-26.0398 27.8675 -1.08634e-14)
(-24.6959 28.5258 3.51191e-15)
(-39.9942 8.12444 -7.83503e-16)
(-41.9683 11.7653 -2.05036e-15)
(-40.5068 15.2067 3.77166e-15)
(-39.2247 18.0626 0)
(-37.1568 20.2588 -2.24106e-15)
(-35.0096 21.9201 4.23448e-15)
(-32.8646 23.2025 -2.04563e-18)
(-30.827 24.2365 7.32591e-19)
(-28.9358 25.1028 -3.68752e-15)
(-27.1944 25.866 -7.11227e-15)
(-25.5906 26.5617 3.44368e-15)
(-24.1147 27.2107 -3.35378e-15)
(-41.8876 9.4188 -7.27222e-16)
(-44.0916 11.9179 0)
(-42.0661 14.6465 0)
(-40.4114 16.998 0)
(-38.0036 18.8873 2.06926e-15)
(-35.5648 20.4464 0)
(-33.1702 21.7235 -2.67919e-18)
(-30.9143 22.7905 7.26451e-15)
(-28.8263 23.6954 1.98234e-18)
(-26.9088 24.4817 3.40827e-15)
(-25.1512 25.181 -3.32205e-15)
(-23.542 25.8163 9.74346e-15)
(-44.8266 8.71559 -1.36894e-15)
(-46.5839 11.561 3.00671e-15)
(-43.4826 13.5006 -1.08799e-15)
(-41.2112 15.4628 0)
(-38.4189 17.1549 0)
(-35.7041 18.6753 0)
(-33.1078 19.989 0)
(-30.6884 21.1123 3.49068e-15)
(-28.4572 22.0678 -1.35933e-14)
(-26.4117 22.8857 -6.63385e-15)
(-24.5405 23.5942 6.48813e-15)
(-22.8307 24.2185 3.1838e-15)
(-46.4364 10.9214 -6.14713e-16)
(-46.8922 10.3594 -1.65358e-15)
(-43.0742 11.3457 -1.00909e-15)
(-40.2118 13.148 0)
(-37.2959 14.7999 0)
(-34.5591 16.3795 3.58528e-15)
(-31.9952 17.7909 -6.96288e-15)
(-29.613 19.0112 1.35745e-14)
(-27.4083 20.0456 9.94522e-15)
(-25.374 20.9176 6.48735e-15)
(-23.5007 21.654 -6.36135e-15)
(-21.7795 22.2825 4.57289e-18)
(-43.3983 4.60993 -1.11293e-18)
(-42.1786 7.00566 0)
(-38.2555 8.00218 1.86758e-15)
(-35.6629 9.87182 -5.48449e-15)
(-33.372 11.7482 5.30182e-15)
(-31.2261 13.5146 2.85389e-18)
(-29.1699 15.0848 3.35547e-15)
(-27.1915 16.4332 -3.28421e-15)