/*--------------------------------*- C++ -*----------------------------------*\
| =========                 |                                                 |
| \\      /  F ield         | OpenFOAM: The Open Source CFD Toolbox           |
|  \\    /   O peration     | Version:  2206                                  |
|   \\  /    A nd           | Website:  www.openfoam.com                      |
|    \\/     M anipulation  |                                                 |
\*---------------------------------------------------------------------------*/
FoamFile
{
    version     2.0;
    format      ascii;
    arch        "LSB;label=32;scalar=64";
    class       volScalarField;
    location    "300";
    object      alphat;
}
// * * * * * * * * * * * * * * * * * * * * * * * * * * * * * * * * * * * * * //

dimensions      [1 -1 -1 0 0 0 0];

internalField   nonuniform List<scalar> 
50904
(
2.7712428e-07
2.9776504e-07
5.8620188e-07
6.912553e-07
5.7297633e-06
6.127091e-06
1.0713664e-05
1.0537079e-05
4.5965873e-05
4.7352768e-05
7.1494088e-05
6.8490578e-05
0.00013800941
0.00013829831
0.00020843248
0.00019947275
0.00032009603
0.00031571731
0.00044263323
0.00042385452
0.00060883799
0.00059743853
0.00076315686
0.00073208032
0.00099236971
0.00097245683
0.001146251
0.0011012845
0.001447812
0.001417584
0.0015660314
0.0015055452
0.0019524535
0.0019107405
0.0018558368
0.0017976132
0.0023891657
0.0023602201
0.0021876946
0.0020745527
0.002859821
0.002743329
0.0027442194
0.0025243681
0.0035770409
0.0033712772
0.0032993003
0.0031051236
0.0038925491
0.0038233874
0.0035504014
0.0033800991
0.0039445158
0.0039085085
0.0036626533
0.0035037861
0.0037490885
0.0037352005
0.003633884
0.0035606104
0.0034728391
0.0034325135
0.0034757963
0.0035129916
0.0032231567
0.0031323687
0.0032639039
0.0033104358
0.0029761426
0.0028300861
0.0030596503
0.0030770761
0.0027286391
0.0025248058
0.0028821993
0.0028719168
0.0024739868
0.0022210344
0.0027252112
0.0026896991
0.0022116768
0.0019344202
0.0025931627
0.0025308441
0.0019420831
0.0016849229
0.0024842584
0.0023956529
0.0016595492
0.0014607874
0.0023880397
0.0022791434
0.0014147399
0.0012950766
0.0022507422
0.0021345619
0.0012124338
0.0011701272
0.0020316759
0.0019115998
0.0010267376
0.0010521473
0.0017514466
0.0016244292
0.00084708313
0.00091699282
0.0014420156
0.0013090173
0.00067363829
0.00077002991
0.0011226367
0.00099510382
0.00051296213
0.00061671561
0.00081904501
0.00070499537
0.00037127009
0.00046474338
0.00055145731
0.00045862058
0.00025126214
0.00032137774
0.00033210289
0.00026648509
0.00015212502
0.00019385571
0.00016916479
0.00013242236
7.4658713e-05
9.3443861e-05
6.8507071e-05
5.5319156e-05
2.2842271e-05
3.0491961e-05
2.4100417e-05
2.1419961e-05
1.8558376e-06
3.1381037e-06
2.7204676e-06
2.3666968e-06
1.9792571e-08
5.9010366e-08
2.1782271e-07
1.8481469e-07
4.312055e-07
5.1171973e-07
4.7599572e-07
6.4459472e-07
3.89942e-07
4.9260232e-07
3.6893746e-07
4.1972897e-07
3.4684722e-07
3.6901201e-07
3.2648903e-07
3.425298e-07
3.0041811e-07
3.2351103e-07
8.4252599e-06
8.5595671e-06
7.9230561e-06
8.89649e-06
6.8190936e-06
7.826497e-06
6.8157244e-06
7.31433e-06
7.0419531e-06
6.8639037e-06
6.9024853e-06
6.5233718e-06
6.6435683e-06
6.1899768e-06
6.1265061e-05
6.0564361e-05
5.7207902e-05
5.8503896e-05
5.4864845e-05
5.5269561e-05
5.3874476e-05
5.3887133e-05
5.0124723e-05
5.1797553e-05
4.7381036e-05
4.944221e-05
4.5290355e-05
4.7746927e-05
0.00018606931
0.00018228401
0.00015951859
0.00016188262
0.00014261925
0.00014028862
0.00013451067
0.00012758417
0.00012732016
0.00011947531
0.00012188042
0.00011477327
0.00011522435
0.00011222003
0.00040929979
0.0003979258
0.00034298451
0.00034026805
0.00029111991
0.00028169506
0.00025523379
0.00023921645
0.00022946942
0.00021161379
0.00021220888
0.00019503113
0.00020062624
0.00018530269
0.00072104057
0.00069565836
0.00060714073
0.00058492339
0.00051844735
0.00048604691
0.00044917155
0.00040956087
0.00039804018
0.0003564808
0.00036075035
0.00032020815
0.00033239169
0.00029455662
0.001095277
0.0010498632
0.00093397855
0.00087807379
0.00081930414
0.00074653372
0.00072586021
0.00064348339
0.00065512699
0.00056928503
0.00060012878
0.00051438158
0.00055384755
0.00047092341
0.0015066089
0.0014367699
0.0013029292
0.0012036279
0.0011742105
0.0010474614
0.001071282
0.00092757849
0.00094715888
0.00083985163
0.00087281317
0.00077267485
0.00086920965
0.00071665649
0.0019334682
0.0018357891
0.0016980112
0.0015514408
0.0015689912
0.0013843672
0.0014274287
0.0012622181
0.0012390321
0.0011723851
0.0011823396
0.0011014942
0.0012402518
0.0010394526
0.0023495192
0.0022188386
0.0020910498
0.0018956256
0.0019696129
0.0017333581
0.0018852329
0.0016228225
0.0016370292
0.0015430003
0.0014724018
0.0014793716
0.001561535
0.0014226438
0.0027148792
0.0025436861
0.0024230974
0.0021724603
0.0022956649
0.0020137212
0.0022177612
0.0019202067
0.001887336
0.0018582374
0.0013160838
0.0014386047
0.0012097111
0.0013518746
0.0029892699
0.0027709927
0.002633318
0.0023230311
0.0024647235
0.0021449048
0.0023603549
0.0020508291
0.0021962199
0.0019974248
0.0010973953
0.0012054121
0.00081396191
0.0009236549
0.0031471942
0.0028810701
0.0027527486
0.0023797161
0.0025732706
0.0021947702
0.0024682509
0.002104263
0.0024079544
0.0020568783
0.0013181225
0.0015026479
0.00082812421
0.000926955
0.0031670422
0.0028687611
0.0027000774
0.0022669857
0.0024837007
0.0020126401
0.002360007
0.0018691064
0.0022905175
0.0017849492
0.0020858067
0.0017311261
0.00094977184
0.00090542287
0.0030844802
0.0028462945
0.0025135406
0.0021760312
0.0022579107
0.0018706136
0.0021223995
0.001693016
0.0020460036
0.0015896676
0.0019999468
0.0015249806
0.0019473535
0.0014785545
0.0030394416
0.0029387389
0.0025014844
0.0023524936
0.0023157251
0.0020949726
0.0022172885
0.0019260701
0.0021617393
0.0018206056
0.0021297787
0.0017572412
0.0021092529
0.0017144245
0.003002443
0.0029869436
0.0025505271
0.0025193129
0.0024584282
0.0023570512
0.0024115615
0.0022377506
0.0023841816
0.0021451957
0.0023694713
0.002085302
0.0023614233
0.0020492485
0.0029370818
0.0029438934
0.002614841
0.0025887355
0.0025940663
0.0025209262
0.0025830259
0.0024502788
0.0025736658
0.0023836747
0.0025692638
0.0023379662
0.0025683762
0.0023119919
0.0028369445
0.0028436526
0.0026846607
0.0026115861
0.0027208854
0.0026031309
0.0027387387
0.00256119
0.0027458222
0.0025160091
0.0027515839
0.0024854203
0.0027574141
0.0024691667
0.0027019693
0.0026841291
0.0027052644
0.0025906306
0.0027813004
0.0025958943
0.0028222811
0.0025610989
0.0028445731
0.0025267659
0.0028595953
0.0025050366
0.0028702198
0.0024930404
0.0025458871
0.0024844953
0.0026152309
0.0024937306
0.0027140974
0.0024943791
0.0027826583
0.0024685925
0.002826933
0.0024454917
0.0028557992
0.002431823
0.0028735973
0.0024217838
0.0024201525
0.0023219029
0.0024221933
0.002292147
0.0024924748
0.0022766041
0.0025716245
0.0022617939
0.0026356508
0.0022536074
0.0026800506
0.0022449593
0.0027052687
0.0022343167
0.0023828592
0.0022471409
0.0022957947
0.0021234462
0.0022191486
0.0020429272
0.0021729696
0.0020047488
0.0021462411
0.001988466
0.0021258421
0.0019767626
0.0019817635
0.0019611856
0.0023825786
0.0022432479
0.0024294843
0.0021943894
0.0024255141
0.0021134104
0.0024068294
0.0020464927
0.0023818519
0.0019973794
0.0014210776
0.0016819419
0.0011119565
0.00086864645
0.0022478438
0.002135864
0.0023832886
0.0022252965
0.0024418171
0.0022406814
0.0024567788
0.0022335427
0.0024453014
0.0022144173
0.0024145601
0.0021845128
0.0021841551
0.0015790947
0.0019985645
0.0018947949
0.0021587091
0.0020386078
0.0022265847
0.0020791267
0.0022417867
0.0020778794
0.0022291215
0.0020580398
0.0021992922
0.0020264701
0.0021567028
0.0019852256
0.0016940402
0.001591142
0.0018661659
0.0017601496
0.0019378196
0.0018105084
0.0019517279
0.0018102574
0.0019403388
0.0017923349
0.0019164691
0.0017657808
0.0018844795
0.0017327599
0.00135911
0.0012592439
0.0015403533
0.0014454667
0.0016232309
0.0015091152
0.0016427284
0.0015120724
0.0016365027
0.0014966397
0.0016200744
0.0014754277
0.0015984619
0.001451277
0.001016334
0.00092558385
0.0011963302
0.0011172662
0.0012943134
0.0012007382
0.0013258745
0.0012154495
0.0013289338
0.00120768
0.0013213878
0.0011940792
0.0013092305
0.0011789602
0.0006950005
0.00061934848
0.0008553298
0.0007945434
0.00096366465
0.00089536665
0.0010097551
0.00092797812
0.0010231579
0.00093208708
0.0010237118
0.00092754256
0.0010189204
0.00092066985
0.0004221003
0.00036713176
0.00054383095
0.00050126583
0.00064849083
0.00060421683
0.00070743189
0.00065411781
0.0007308421
0.00067073677
0.00073759837
0.0006740243
0.00073744925
0.00067297964
0.00021994878
0.00018797292
0.000292728
0.00026608961
0.00037336206
0.00034768219
0.00043446833
0.00040414166
0.0004644552
0.00043027936
0.00047426346
0.0004385792
0.00047544066
0.00044000436
9.6804001e-05
8.3806824e-05
0.00012654347
0.00011269386
0.00016891071
0.00015481702
0.00021330489
0.00019837658
0.00024209859
0.00022668503
0.0002526134
0.00023755075
0.00025386259
0.00023973722
3.3965181e-05
3.0449653e-05
4.139374e-05
3.6808346e-05
5.2900126e-05
4.81767e-05
6.9702382e-05
6.510266e-05
8.5277343e-05
8.140126e-05
9.270403e-05
8.988822e-05
9.3595104e-05
9.1696012e-05
4.2247369e-06
3.8283467e-06
5.9573073e-06
5.6382665e-06
7.6965618e-06
7.4269568e-06
9.7796449e-06
9.7698063e-06
1.2174488e-05
1.2424757e-05
1.3665206e-05
1.4186063e-05
1.3959986e-05
1.4677638e-05
2.3482351e-07
2.1627511e-07
3.0594033e-07
3.5787612e-07
5.5553982e-07
7.1187564e-07
9.1538896e-07
1.1948084e-06
1.1655597e-06
1.5122686e-06
1.21836e-06
1.5774548e-06
1.1898695e-06
1.5361414e-06
2.7054102e-07
3.0868424e-07
2.3496424e-07
2.9448165e-07
2.0579173e-07
2.8841589e-07
1.7580713e-07
2.8181009e-07
1.421313e-07
2.6017638e-07
1.120804e-07
2.1193845e-07
6.2907381e-06
5.7924067e-06
5.7782151e-06
5.2226838e-06
5.3191175e-06
4.6616991e-06
4.8115406e-06
3.976353e-06
4.1640743e-06
2.9808996e-06
3.3241758e-06
1.6161173e-06
4.3983013e-05
4.6126089e-05
4.2830045e-05
4.3706857e-05
4.3122381e-05
4.1426579e-05
4.571342e-05
3.8679897e-05
4.5844092e-05
3.4400267e-05
4.3924969e-05
2.6596315e-05
0.00010109557
0.00011082915
9.0355582e-05
0.00010995155
8.6021396e-05
0.00010452705
9.2075134e-05
0.00010706778
9.7514665e-05
0.0001073481
9.3428491e-05
0.00010265724
0.00019289836
0.00017978433
0.00017850708
0.00017729814
0.00014910541
0.00017711815
0.00015676875
0.00017792504
0.0001727643
0.00017901099
0.00015724422
0.00017963678
0.00030930548
0.00027528553
0.00029078606
0.00026145654
0.00027755234
0.00025286543
0.00026572786
0.00024645262
0.00025474297
0.00024193907
0.00024679363
0.00023979256
0.00051055293
0.00043304339
0.00047052523
0.00040058748
0.00043603096
0.00037481187
0.000399796
0.00034931552
0.00036049027
0.00032323585
0.00032521435
0.00030126258
0.00081284679
0.00066393359
0.00075640814
0.00061473037
0.00070270265
0.0004046471
0.00063819871
0.00035520901
0.00055513774
0.00046231578
0.00046524272
0.00040465229
0.0012099465
0.00097759187
0.0011473876
0.00091709043
0.0010832346
0.00064938316
0.00086496363
0.00044485049
0.00085943616
0.00052072921
0.00071644546
0.00058908854
0.0016630773
0.0013636323
0.0016081384
0.0013030505
0.0015474734
0.0012421804
0.001380645
0.00086372234
0.001229171
0.0007933605
0.0011154907
0.00088295852
0.0015171115
0.0016247625
0.0020297116
0.0016747234
0.0019929071
0.0016259418
0.001931746
0.0015542895
0.0018183196
0.0014358272
0.0016217645
0.0012560275
0.00091680107
0.00096288973
0.0012703753
0.0012120731
0.0018802209
0.0016706179
0.0022329886
0.0018405073
0.0021920805
0.0017639133
0.0020722267
0.001612268
0.00076264393
0.00076479603
0.00089705635
0.00075897943
0.0012172712
0.00086057844
0.0019612912
0.0012435457
0.002413344
0.001966276
0.0023699162
0.0018774508
0.0006586959
0.00058541716
0.00063440197
0.00049103253
0.00074840533
0.00050328638
0.0011140637
0.00067313531
0.0020809026
0.0012267591
0.0024225877
0.0018212031
0.00088558743
0.00073830482
0.00057882899
0.00045501327
0.00053377001
0.00038778822
0.00065908388
0.00045648755
0.0011207635
0.00076813609
0.0021469083
0.0014746419
0.0018335866
0.0016783343
0.00099203381
0.00081304922
0.00072125986
0.00052797164
0.00074604134
0.0005199437
0.0010644398
0.00076226119
0.0019576262
0.0015392876
0.0023555194
0.0020234775
0.0014621895
0.0016588451
0.00099493755
0.00094174139
0.00095783888
0.00075848777
0.0012873485
0.00093491567
0.0021226538
0.0015673484
0.0025701749
0.002295415
0.0017993033
0.0022837912
0.0012309328
0.001355231
0.0011579947
0.0010346847
0.0015107185
0.0011753476
0.0023633241
0.0017587092
0.0027637942
0.002460052
0.0019725374
0.0023783114
0.0013695319
0.0014503014
0.0012940278
0.00116688
0.0016735177
0.0013327587
0.0025445127
0.0018933804
0.0028788274
0.0024855064
0.0019962504
0.0017986928
0.0014238041
0.0012055366
0.0013804095
0.0010960348
0.0018018894
0.0013583594
0.0027105498
0.0019853915
0.0028850357
0.0024114919
0.0020187815
0.001428969
0.0014597857
0.0010173113
0.0014246875
0.0010033205
0.0018599688
0.0013181435
0.0027940645
0.002027205
0.0027157587
0.0018424484
0.001877393
0.0011410131
0.0014229577
0.00090239593
0.0013952332
0.00095104906
0.0018269711
0.0012985268
0.0024698954
0.0020215286
0.0010761951
0.0012608993
0.00080129341
0.00086598793
0.00081134892
0.00077285552
0.00106146
0.00089894
0.0017912567
0.0013596202
0.0019905631
0.0018118122
0.0012300239
0.00065794113
0.0014186161
0.00068488718
0.0015789285
0.00085763861
0.0019269271
0.0012628773
0.0019767733
0.0017961469
0.0018042112
0.0017207042
0.0017355293
0.0013721771
0.0015262311
0.0013584992
0.0014154989
0.0012891874
0.0014510056
0.0012821418
0.0017738114
0.0015645595
0.001604989
0.0015298716
0.0020976544
0.0019049412
0.001729543
0.0015326768
0.0014004252
0.0012240201
0.0013604621
0.0011561443
0.0016451115
0.0014424444
0.001539362
0.0014199293
0.0018422247
0.0016903739
0.0017286257
0.0016380095
0.0014598079
0.001321567
0.0013906806
0.001216401
0.0015400664
0.0014036042
0.0014857456
0.001335593
0.0015710481
0.0014225003
0.0014903623
0.001388669
0.0012986465
0.0012891625
0.0012369015
0.0012131116
0.0013446542
0.0012577702
0.0013715164
0.0012170831
0.001293287
0.0011620229
0.0011263958
0.0011430463
0.00093505854
0.0010769679
0.0009325884
0.0010168678
0.0011273644
0.0010760854
0.0011902271
0.001057905
0.0010108891
0.00091265235
0.00077879688
0.00090360915
0.00064500061
0.00078076657
0.00071129483
0.0007506279
0.00096437884
0.00087082733
0.00095785279
0.00086207918
0.00073387641
0.00067026259
0.00056171052
0.00066625322
0.00049020181
0.00055397847
0.00057989795
0.00055855774
0.00070588841
0.00064738628
0.0007011842
0.00064084958
0.00047306233
0.00043894135
0.00041558796
0.00043642899
0.00038435971
0.00038842106
0.00045896762
0.0004107181
0.00045392474
0.00042393611
0.00045025509
0.00041910842
0.00025219044
0.00023920028
0.0002491688
0.00023771962
0.00024581106
0.00023552677
0.00024221562
0.00023253852
0.00023803918
0.00022862941
0.00023566745
0.00022522792
9.2673325e-05
9.1408331e-05
9.0963145e-05
9.0311784e-05
8.9065412e-05
8.8884503e-05
8.6919788e-05
8.7063024e-05
8.4533701e-05
8.482315e-05
8.2332157e-05
8.2461022e-05
1.3752578e-05
1.454169e-05
1.3342464e-05
1.419361e-05
1.2894039e-05
1.378005e-05
1.2384252e-05
1.3295805e-05
1.1788339e-05
1.2708266e-05
1.1232201e-05
1.2092668e-05
1.1463335e-06
1.4777669e-06
1.0880127e-06
1.399861e-06
1.0293197e-06
1.3246155e-06
9.6747296e-07
1.2462978e-06
9.0625187e-07
1.1612046e-06
9.0376996e-07
1.1062091e-06
1.3031118e-07
1.9188411e-07
1.7169874e-07
1.9641498e-07
1.8470743e-07
1.9460637e-07
1.8579734e-07
2.0171623e-07
1.8502819e-07
2.1821184e-07
1.8375931e-07
2.4005936e-07
2.7010066e-06
1.0184937e-06
3.8870092e-06
1.1505131e-06
4.6998069e-06
1.2846513e-06
5.0280055e-06
1.2843876e-06
5.2267114e-06
1.2429379e-06
5.3769824e-06
1.190755e-06
4.1778117e-05
1.8314637e-05
4.5070295e-05
1.9922985e-05
4.8065096e-05
2.1484534e-05
4.9782537e-05
2.0692383e-05
5.1097623e-05
1.8963111e-05
5.217322e-05
1.6764561e-05
8.6981444e-05
9.1435064e-05
8.4670249e-05
9.2993991e-05
8.6286716e-05
9.2102526e-05
8.9424531e-05
8.699159e-05
0.00012469765
8.0106565e-05
0.00013675276
7.1663283e-05
0.00013382899
0.00017202665
0.00011592503
0.00015493437
9.7829405e-05
0.0001297869
8.3462028e-05
0.00011032043
8.7234565e-05
0.0001105585
0.00011461918
0.0001301233
0.00023112503
0.00023592731
0.00017606451
0.00022825987
0.00011853102
0.00015648741
8.560016e-05
0.00011018362
8.1533014e-05
0.00010085225
0.00010126638
0.00012081544
0.00029723881
0.00028504173
0.00027796953
0.0002753938
0.00015244678
0.00019076811
0.00010059137
0.00012263284
8.9868222e-05
0.00010817852
0.00010260013
0.00012228796
0.00039666835
0.00035953691
0.00035691738
0.00033792471
0.00023452902
0.00027910301
0.0001304574
0.00015078934
0.00010806012
0.00012208265
0.00011977443
0.00013515106
0.00058694299
0.00049899661
0.00050850419
0.00044819144
0.00047904702
0.0004312023
0.00028887428
0.00042037049
0.00016772311
0.00019660159
0.00014699297
0.00016056277
0.00093419921
0.00074716515
0.00081916462
0.00066290424
0.0007688557
0.00062938795
0.00073214629
0.00060563155
0.00069450781
0.00058153538
0.00034772031
0.00055285492
0.0014276681
0.0010894569
0.0013008012
0.0009837198
0.0012373391
0.00093561125
0.0011836811
0.00089697664
0.0011225464
0.00085424382
0.0010429791
0.00080046017
0.0019070679
0.001451995
0.0017826459
0.001348073
0.0017139674
0.0012944344
0.0016525102
0.0012454938
0.0014552535
0.001186127
0.0011270162
0.0011049727
0.0022486953
0.0017529277
0.0021408198
0.0016697097
0.0020745974
0.0016203357
0.0020102593
0.0015695641
0.0019294928
0.0015031985
0.0017135477
0.0012372959
0.0023889259
0.0017907611
0.0023212062
0.0017470903
0.0022689268
0.0017183752
0.0022112311
0.0016845908
0.0017561712
0.0015961332
0.00086525103
0.0013449534
0.0022013926
0.0014929812
0.0022010918
0.0014706488
0.002185178
0.0014533359
0.0016623238
0.00090686411
0.0010435538
0.00061996986
0.00085112991
0.0007359227
0.0020466048
0.0014770615
0.0019780761
0.0014034012
0.0019444718
0.0013700359
0.0013842789
0.00091192333
0.00081250586
0.00051826788
0.00068908048
0.00046559809
0.0021861916
0.0017474382
0.002057771
0.0016372241
0.002003608
0.0015909699
0.0019721964
0.0014627686
0.0011937926
0.00082558682
0.00083230666
0.00061785291
0.0024412777
0.002115444
0.0022895015
0.0019858225
0.0022249475
0.0019290309
0.0021891727
0.0018965553
0.0019884529
0.0012986271
0.0011405029
0.00095473071
0.002677591
0.0023833808
0.0025184407
0.0022467719
0.002453334
0.0021883659
0.0024180864
0.0020148847
0.0023907948
0.001572648
0.0015364109
0.001345833
0.0027425394
0.0023901118
0.0025938886
0.0022641511
0.0025382466
0.0022155142
0.0025082367
0.0019497493
0.0024852422
0.0015544739
0.0015857152
0.001419386
0.0026467862
0.0022413321
0.0025456745
0.0021713267
0.0025083606
0.002144644
0.0024849247
0.0021274527
0.0022395112
0.0016981141
0.0015299053
0.0014059503
0.0023716655
0.00201705
0.0023475004
0.0020362926
0.0023330193
0.0020345069
0.0023145514
0.0020234055
0.0022876292
0.0019699971
0.0013725014
0.0013122587
0.0019947715
0.0018654122
0.0019944477
0.0019053574
0.0019753645
0.0019014084
0.0019400558
0.001878174
0.0016843123
0.0015691591
0.00072376996
0.00085900438
0.001672085
0.001651555
0.0016106391
0.0016297874
0.0015678939
0.0016032663
0.0012621487
0.0010381996
0.00050931177
0.00053692559
0.00031795633
0.00039395212
0.0014811956
0.0014226757
0.0014040383
0.0013645001
0.00096219277
0.00084204704
0.00040772432
0.00036278367
0.00026129177
0.00025572957
0.00024852781
0.00028047547
0.0014610875
0.0013481031
0.0014008376
0.0013079138
0.00061040371
0.00053300713
0.00032535187
0.0002811718
0.00026068974
0.00024125819
0.00027956212
0.00030351089
0.0014496114
0.0012967333
0.0011657062
0.0011039063
0.00054334452
0.00046413471
0.00033473637
0.00027190172
0.00030253329
0.00025747134
0.00034384917
0.00034335811
0.0013645119
0.0012033
0.001073117
0.00097252882
0.00054619027
0.00043100256
0.00037061495
0.00027896726
0.00035573206
0.00028564343
0.00041575734
0.00039206794
0.0011988991
0.0010594436
0.0010510859
0.00087273118
0.00056982415
0.00041931351
0.00040224318
0.00029759308
0.0003875002
0.00031737914
0.00045393187
0.0004277827
0.00097151313
0.00087043668
0.0010046242
0.000812774
0.00057020971
0.0004222929
0.00039826923
0.00031288647
0.00037737182
0.00032861727
0.00044476493
0.00042568078
0.00071383848
0.00064806787
0.00074462726
0.00067098329
0.00054009026
0.0004228909
0.00036715706
0.0003070877
0.0003411189
0.00030815559
0.0004055441
0.00039208534
0.00045932309
0.00042240556
0.00048331132
0.00043811547
0.00046659867
0.00038494387
0.00031809187
0.0002767978
0.00029352441
0.00027110239
0.00035103573
0.00034345883
0.00024106831
0.0002255552
0.00025847535
0.00023538939
0.00026223076
0.00023632123
0.00025348803
0.00022486393
0.00023735126
0.00022119975
0.00026576645
0.00023933938
8.377997e-05
8.1854007e-05
9.2933951e-05
8.7459388e-05
9.3295062e-05
8.7315901e-05
9.3029708e-05
8.6843469e-05
9.2957558e-05
8.6644929e-05
9.3235186e-05
8.6745426e-05
1.192046e-05
1.2440752e-05
1.5302118e-05
1.5691729e-05
1.6239923e-05
1.6176931e-05
1.6246166e-05
1.6098721e-05
1.6109088e-05
1.5948639e-05
1.59612e-05
1.578789e-05
1.0708571e-06
1.2130287e-06
1.2178782e-06
1.2931995e-06
1.195985e-06
1.2342224e-06
1.1456997e-06
1.1669264e-06
1.0935278e-06
1.1047775e-06
1.0366616e-06
1.0368015e-06
1.8043938e-07
2.5892719e-07
1.7786263e-07
2.8078017e-07
1.7446747e-07
3.03063e-07
1.7099204e-07
3.1835975e-07
1.6813619e-07
3.1687848e-07
1.6785145e-07
2.9648916e-07
1.4301445e-07
1.9059678e-07
5.4700012e-06
1.1345562e-06
5.4740169e-06
1.0791154e-06
5.3603391e-06
1.0239528e-06
5.1036143e-06
9.650487e-07
4.6777834e-06
9.0048637e-07
4.1320293e-06
9.2600534e-07
3.6822961e-06
1.3522308e-06
5.2643701e-05
1.4329902e-05
5.2661593e-05
1.208978e-05
5.207293e-05
1.0393225e-05
5.0586606e-05
9.2510459e-06
4.7820808e-05
8.890726e-06
4.3587923e-05
1.0454782e-05
3.8754587e-05
1.8665804e-05
0.0001363786
6.2018749e-05
0.00013530611
5.2733028e-05
0.00013296664
4.3971543e-05
0.0001291136
3.743816e-05
0.00012298486
3.5823607e-05
0.00011352203
4.1466525e-05
0.00010305323
6.3501384e-05
0.00016078141
0.00013561004
0.00020883976
0.00012061882
0.00020404283
0.00010505746
0.0001966902
9.1121311e-05
0.00018710088
8.3380843e-05
0.00017552101
9.1285017e-05
0.0001671048
0.00012383005
0.00012717346
0.00013671926
0.00015197992
0.00014640875
0.00021316062
0.00017939169
0.0002559621
0.00016067732
0.00024284132
0.00014573567
0.00022954145
0.00015101984
0.00022356794
0.00018584816
0.00011660458
0.00013637043
0.00013376314
0.00014170048
0.00019137464
0.00017449023
0.00030699471
0.00024192871
0.0003031609
0.00022278627
0.00028643851
0.00021830163
0.00028075849
0.00024802623
0.00012645389
0.00014461962
0.00012896687
0.0001466938
0.00017158857
0.00017506265
0.00027844021
0.00024851467
0.00037464727
0.0003043867
0.00035576084
0.00029159907
0.00034959204
0.00031575173
0.00014922803
0.00015702941
0.00014857222
0.00015896471
0.0001716763
0.00018506255
0.00024850412
0.00024966424
0.00040805169
0.0003564751
0.00044784199
0.00037521763
0.00044516965
0.00039740627
0.00022140356
0.00023802455
0.00018988193
0.00019153185
0.00020520431
0.00020565699
0.00026607254
0.00026344487
0.00040069502
0.00036906847
0.00057321304
0.00047639939
0.00057104697
0.00049808162
0.00071129837
0.0007469208
0.00039284584
0.00046880169
0.00030246519
0.00026488791
0.00032709389
0.00027049271
0.00044057433
0.00038410158
0.00063155605
0.00055994619
0.00071343735
0.00061461675
0.00093187387
0.0010180473
0.00075588532
0.00093747702
0.00063057682
0.00060808216
0.00057503837
0.00040029092
0.00060610751
0.00042892674
0.00073534909
0.00060330752
0.00083479999
0.00073592508
0.0005549181
0.00089253942
0.00045161386
0.00074799642
0.00063694175
0.00077374923
0.00099439766
0.00073504787
0.001071659
0.00064814388
0.0010316403
0.0007271293
0.0010146242
0.00084531862
0.0005393398
0.00098925641
0.00048572075
0.00069920522
0.00061079869
0.0006628763
0.0009988084
0.00090531567
0.0014383474
0.001042841
0.0013566946
0.00097517539
0.0012891466
0.00098308888
0.00075217917
0.00097344455
0.00066321041
0.00079249109
0.00068547766
0.00064526553
0.00094649322
0.00078031174
0.0016051218
0.0012012172
0.0016441584
0.0011275197
0.0015753786
0.0011122993
0.00075017554
0.00059651123
0.0008309517
0.00076541484
0.00088774624
0.00078621326
0.0010491595
0.00081881379
0.0015793776
0.0011394421
0.0018589699
0.0012410977
0.0017998916
0.001217569
0.00080669885
0.00062246365
0.00092642635
0.00073663359
0.0010962185
0.00087709197
0.0012785471
0.00096307593
0.001642823
0.0011120051
0.001970785
0.001311876
0.0019344661
0.0012923309
0.00095263335
0.00086060324
0.0010463001
0.00089910374
0.0012259214
0.00099137549
0.0014728052
0.0010889756
0.0018120097
0.0012017098
0.0019655105
0.0013879171
0.0019594064
0.0013371742
0.0011933647
0.0012687468
0.0011910163
0.0012340715
0.001318709
0.0012226497
0.0015257125
0.0012390253
0.0018520191
0.001289684
0.0019047584
0.001440274
0.0019323175
0.0013676102
0.0013171025
0.0014528261
0.0013379413
0.0014778813
0.0014239142
0.0014325601
0.0015496027
0.0013800882
0.0017610277
0.0013567657
0.0019022737
0.0013579134
0.0018875223
0.0014130288
0.0012575522
0.0013391789
0.0012803513
0.0013551995
0.0014086991
0.0013596964
0.0015301853
0.0013580858
0.0016845084
0.0013796035
0.0019319357
0.0013867844
0.0018476907
0.0014707278
0.00097176228
0.0009718219
0.00095373328
0.00089501943
0.0011457503
0.0009761834
0.0013847462
0.0011333481
0.0015686349
0.0012694391
0.001880218
0.0013388726
0.0018317699
0.0014368789
0.00047021088
0.00057167991
0.00048700162
0.00054795594
0.00069434176
0.00070874929
0.0010078982
0.00097433118
0.0012837024
0.0011555661
0.001687426
0.0013246185
0.0018510322
0.0015503639
0.00027423744
0.00035636486
0.00033245459
0.00039600311
0.00055652606
0.00055092614
0.0008930007
0.00077818874
0.0012979141
0.0010916763
0.0017480728
0.0015243678
0.0017824404
0.0015915194
0.00026037123
0.00032483666
0.0003200481
0.00037816172
0.00054205193
0.00054755105
0.0009286478
0.00082067754
0.001417538
0.001272279
0.0016605198
0.0015966681
0.0014675024
0.0015081433
0.00029078177
0.00035988497
0.00034301542
0.0004160307
0.00057522216
0.00062225939
0.0010196492
0.00097637602
0.0015151295
0.0015212597
0.001461054
0.001604923
0.001243834
0.0011807307
0.00035965763
0.00041686282
0.00041473433
0.00048926856
0.00065600725
0.00074357968
0.0010547357
0.0011475268
0.0013838714
0.0016039058
0.0012688933
0.0013487495
0.0011561971
0.0010272442
0.00044784099
0.00047975706
0.00052324103
0.00057234477
0.00078809953
0.00086345646
0.0010945222
0.0012362791
0.0011971054
0.001469659
0.0010558475
0.0011144567
0.0010471147
0.00090956723
0.00051084601
0.00052049808
0.00062284719
0.00063619906
0.00092976905
0.00095036702
0.0011981343
0.0012787065
0.0011705657
0.0013973329
0.00092000437
0.001025872
0.00082329664
0.00075494127
0.00052159898
0.00051996972
0.00066192339
0.00065455985
0.0010006647
0.00097555988
0.0011702761
0.0010801736
0.0012190085
0.0011453006
0.00092817407
0.0010564704
0.0007050433
0.00069114974
0.00048993859
0.00048687693
0.00063930303
0.00061936815
0.00084180901
0.00076420118
0.00087399511
0.0008018761
0.00092523278
0.00086884452
0.00098466968
0.0009621324
0.00071990738
0.00075420218
0.00043033396
0.00042681332
0.00052758915
0.00047317953
0.00054299969
0.00048805211
0.00057099681
0.00051797833
0.00062021361
0.00057790045
0.00068529927
0.00067207419
0.00073050469
0.00074531816
0.00026826152
0.00024108508
0.00027163866
0.00024351001
0.00027840458
0.00024918284
0.00029567319
0.0002650252
0.00033264881
0.000305409
0.00038858871
0.00038383293
0.00043071404
0.00044819876
9.3546181e-05
8.7106324e-05
9.4123468e-05
8.7705483e-05
9.5164132e-05
8.8623571e-05
9.98468e-05
9.1718504e-05
0.0001156542
0.00010590952
0.00014735697
0.00014551539
0.00017083992
0.00018213899
1.5816549e-05
1.5599775e-05
1.574655e-05
1.5479951e-05
1.5839806e-05
1.5491823e-05
1.5899249e-05
1.580022e-05
1.7546283e-05
1.6770185e-05
2.3151677e-05
2.2050601e-05
2.8656635e-05
3.1052571e-05
9.6162664e-07
9.422281e-07
8.9325904e-07
8.5000386e-07
8.2864436e-07
7.3856063e-07
9.1589568e-07
7.538878e-07
1.2622824e-06
1.1296488e-06
1.7884898e-06
1.8821807e-06
1.8795204e-06
2.1480655e-06
1.0721502e-07
1.1630675e-07
8.9912903e-08
1.5128467e-07
1.1819762e-07
9.2062782e-08
1.6881563e-07
8.0889838e-08
3.9307005e-06
3.5437141e-06
4.0577537e-06
4.9108802e-06
3.3373944e-06
5.0761096e-06
2.0478699e-06
3.0636792e-06
4.2913624e-05
4.1222722e-05
4.5782729e-05
5.0596071e-05
4.240024e-05
5.2963477e-05
3.3079051e-05
3.8384579e-05
0.00011569229
0.00010424429
0.00012865207
0.00012484458
0.00013120391
0.00013442891
0.00011544739
0.00011469531
0.00018506041
0.00016199783
0.00020873779
0.00018443392
0.00022652552
0.00020650613
0.00021132813
0.00020410314
0.00024375506
0.00021337677
0.00027671175
0.00023693953
0.00031420407
0.00027673285
0.0003043433
0.00030433014
0.00030535186
0.00027124887
0.00034931735
0.00030454438
0.00040713168
0.00036271404
0.00040894991
0.00042519739
0.000382771
0.00034415013
0.00044103724
0.00039421124
0.00052461959
0.00048635399
0.00054048985
0.00056629042
0.00049533369
0.00043904037
0.00056488345
0.00050805921
0.00067212708
0.00062674985
0.00072049951
0.00071648848
0.00063018923
0.00055646068
0.00071334934
0.00064123533
0.00082117329
0.00076706182
0.00095075097
0.00081427615
0.00078218372
0.00069043717
0.0008287217
0.00075735866
0.00089950369
0.00080795967
0.0012358676
0.00090069911
0.0008640492
0.00082231767
0.0009037257
0.00084186455
0.0010348584
0.00088013276
0.0015276934
0.0010315912
0.0010220404
0.00096798572
0.001065714
0.00097033158
0.0012579181
0.0010120427
0.0019051415
0.0012260243
0.0013268288
0.0011053444
0.0013785837
0.0012137934
0.0016261579
0.0012517817
0.0022286364
0.001535015
0.0016134022
0.0012528851
0.0017285599
0.0013933016
0.0019907826
0.0015855352
0.0024744293
0.0017805275
0.0018222432
0.0013736797
0.0019251842
0.0015356591
0.0021669456
0.0017524071
0.0025900356
0.0019220701
0.0019532366
0.0014662329
0.0020476941
0.0016540365
0.0022648934
0.0018994049
0.0026105101
0.0020648709
0.0020003242
0.0015208771
0.0021154626
0.0017407105
0.0023326815
0.0020324466
0.0026133
0.0022198554
0.0019976442
0.0015242485