/*--------------------------------*- C++ -*----------------------------------*\
| =========                 |                                                 |
| \\      /  F ield         | OpenFOAM: The Open Source CFD Toolbox           |
|  \\    /   O peration     | Version:  2206                                  |
|   \\  /    A nd           | Website:  www.openfoam.com                      |
|    \\/     M anipulation  |                                                 |
\*---------------------------------------------------------------------------*/
FoamFile
{
    version     2.0;
    format      ascii;
    arch        "LSB;label=32;scalar=64";
    class       volScalarField;
    location    "300";
    object      k;
}
// * * * * * * * * * * * * * * * * * * * * * * * * * * * * * * * * * * * * * //

dimensions      [0 2 -2 0 0 0 0];

internalField   nonuniform List<scalar> 
50904
(
1.2067631
1.2709672
2.5364643
2.9162202
5.0691631
5.2949951
9.1240143
8.8429491
16.466958
16.538058
21.628405
20.492422
23.976963
23.482979
30.589885
28.784412
32.140088
30.97411
40.369443
37.983928
41.714206
40.039618
51.134965
48.379458
52.015157
50.09652
62.35918
59.484764
61.902235
60.025666
72.868725
70.140447
69.863328
68.313829
80.942138
78.691331
74.454703
73.456616
84.992001
83.507307
74.75168
74.366283
84.492817
83.914986
70.95458
70.982481
80.395052
80.661508
64.700622
64.882168
74.012278
74.72755
58.291591
58.294245
66.708889
67.560207
53.722284
53.214819
60.16613
60.888925
51.376662
50.098644
56.529919
56.695293
49.959926
48.083435
55.440966
54.508116
48.730831
46.570223
55.751844
53.883042
47.827825
45.305213
57.195052
54.682512
47.043525
43.984049
59.607616
56.799764
46.240124
42.863714
62.79462
60.010187
45.372449
42.607843
66.124857
63.387287
44.388102
43.177949
68.65941
65.85315
43.618231
44.834656
69.152726
66.415626
43.135363
47.086844
66.943114
64.387262
42.066594
48.560342
62.01936
59.429714
39.801918
48.118515
54.924537
52.010563
36.426809
46.059171
46.51038
43.808479
32.23215
42.340844
38.163633
35.545453
27.528965
37.105875
30.276062
27.71853
22.538886
30.636071
23.009391
20.595955
17.19469
23.310685
16.469478
14.424864
11.507724
15.966503
11.156403
9.8980544
5.8750002
9.3191032
8.6071552
7.9297632
1.297521
2.4296207
2.3486957
1.9939298
0.088801896
0.26486157
0.98062012
0.82854067
1.8473571
2.123145
2.0226072
2.6471835
1.6508633
2.0134811
1.559149
1.7118433
1.4644418
1.5035623
1.3779391
1.3953358
1.267711
1.318004
7.1808101
7.0651386
6.576482
7.0333437
5.7262299
6.0814608
5.4323705
5.4638091
5.2076374
4.9297987
4.886265
4.5287434
4.5434524
4.1770556
19.30692
18.272863
18.410365
16.963637
18.525461
16.547659
18.13612
15.90246
17.008909
14.922957
15.94042
13.936841
15.012216
13.030112
28.375908
26.607729
25.378457
23.282314
24.459294
21.431159
23.905963
20.39848
23.337473
19.855855
22.943421
19.528813
22.622127
19.317616
38.538803
36.227224
34.342259
32.050054
31.426281
28.572457
29.426008
25.941778
28.113031
24.264846
27.349127
23.332164
26.894432
22.889827
49.784873
47.078406
45.477675
42.799927
42.05154
38.811401
39.090211
35.181715
36.671959
32.297807
34.770476
30.168324
33.229224
28.622806
61.489603
58.483702
58.107404
54.862801
55.529458
51.654978
52.512775
47.842847
49.600349
44.38587
46.948523
41.50046
44.470804
39.080634
72.430645
69.280428
70.488072
66.489187
69.233156
64.273852
66.958689
60.996378
64.289465
57.801887
61.647875
55.046946
59.091191
52.658699
80.916713
77.807107
80.384261
75.630351
80.293976
74.340465
79.038908
72.040453
77.119067
69.639719
75.029367
67.496218
72.958774
65.571385
85.548754
82.633067
86.31601
81.023627
87.19079
80.754873
87.130728
79.712786
86.213264
78.262725
84.809024
76.733949
83.242539
75.227476
86.342327
83.7076
89.188949
83.620802
91.339839
84.78312
92.631134
85.172318
92.884884
84.662511
92.153814
83.565967
90.707476
82.026687
84.437318
82.164941
91.044339
85.298761
95.205808
88.470256
98.111284
90.455473
99.71821
91.143411
100.05993
90.711183
98.878743
89.066604
80.804964
78.843504
92.293204
86.632266
98.846992
92.187524
103.20607
95.899891
105.77817
97.840615
107.16119
98.471913
107.051
97.766792
75.891946
74.065787
93.010451
87.696581
103.22921
96.875909
110.22128
103.41426
114.77358
107.74443
117.61758
110.26732
119.35255
111.39462
70.042098
68.264514
93.349026
88.852361
109.4725
103.07416
121.18286
112.79365
129.51153
119.55149
135.37061
124.24164
139.33017
127.25656
64.865592
62.947135
92.805491
89.748174
115.27816
110.65278
131.89915
123.94346
143.60916
132.47178
151.85265
138.44928
157.6512
142.68759
62.217552
59.529953
93.754673
90.085864
122.53122
117.82615
143.73863
134.83576
158.11777
144.80679
167.86801
151.13961
174.5636
155.72359
62.909943
59.371062
97.711366
92.813054
131.66864
124.87737
156.64674
145.12225
173.2572
156.85174
184.24031
164.1084
191.56119
169.1363
67.013598
62.282408
106.49899
100.6391
145.22472
136.72545
173.62805
160.03202
192.49229
174.04383
204.90155
182.90442
213.09147
188.93719
73.429394
68.488396
118.83459
112.659
162.3376
152.4067
194.40574
178.7566
215.98472
195.52005
230.24395
206.49243
239.58611
213.84908
80.346374
76.833956
129.32064
124.71293
176.55096
166.76673
212.29737
195.9828
236.77932
215.58034
253.0397
228.96637
263.58212
237.72873
85.608881
83.646593
131.46741
129.81122
177.21829
171.09403
214.08861
201.88035
240.18733
223.88988
257.44424
238.29062
268.1684
247.20478
88.620838
86.762229
123.19522
123.64406
154.46451
157.05379
179.24959
183.4968
196.54014
202.20596
207.21398
214.00747
212.56003
220.17095
90.451532
88.038336
117.5497
115.70703
136.13774
136.21106
146.79548
149.25217
151.46229
156.40141
151.93204
159.28222
149.15437
158.1671
90.409766
87.698196
115.0658
111.39298
129.87324
126.48933
137.69076
134.85673
141.1029
138.48335
141.81863
139.07027
140.84119
137.56642
86.962802
84.269889
112.13295
107.56048
126.447
120.93424
133.82353
128.16152
137.00836
131.47881
137.70012
132.34304
136.82871
131.60873
79.888007
77.274602
105.64779
101.11146
120.08539
114.08832
127.07879
120.66112
129.92843
123.62931
130.5273
124.46208
129.79581
123.92943
69.784719
67.219652
94.664635
90.630555
109.10423
103.37863
116.0191
109.4739
118.78478
112.10509
119.44719
112.86016
118.97625
112.49618
58.075353
55.555414
80.404759
77.1154
94.032286
89.291982
100.87634
95.099449
103.8921
97.64557
104.94893
98.511412
104.98065
98.451888
46.32558
43.854519
65.241105
62.537686
77.485626
73.766112
84.042677
79.341687
87.338455
82.005774
88.882305
83.178247
89.455624
83.5438
35.544308
33.229201
50.79689
48.3943
61.672613
58.596869
67.912728
64.048677
71.272839
66.819626
73.022954
68.222557
73.833285
68.911142
26.380571
24.438753
37.75945
35.434966
47.26425
44.484714
53.272722
49.951661
56.464017
52.778734
58.017882
54.209355
58.663383
54.917256
19.250622
17.914556
26.546626
24.379746
33.925035
31.174165
39.460234
36.628135
42.381007
39.585057
43.542855
40.905251
43.843304
41.43068
13.090592
12.243833
17.091421
15.677796
21.282619
19.666891
25.323666
23.789215
27.787873
26.457122
28.570963
27.493898
28.521169
27.675168
3.7663502
3.4043061
5.8149094
5.6050467
7.9065054
7.72585
9.6876036
9.8123561
11.091549
11.420249
11.536542
11.970431
11.446043
11.914981
1.0526932
0.96184714
1.3644499
1.5762758
2.4746834
3.1264037
4.0808001
5.2489267
5.1988845
6.6454854
5.4316167
6.9261921
5.2997336
6.7364247
1.1413872
1.257604
0.99089791
1.1994755
0.86753932
1.174527
0.74078444
1.1472706
0.59848882
1.0585862
0.47147868
0.8613897
4.1885771
3.819648
3.7735364
3.3873273
3.4401326
3.0031558
3.1010157
2.5696094
2.6929546
1.9734582
2.1736005
1.1792698
14.164074
12.144517
13.332286
11.190418
12.709301
10.393194
12.117993
9.5705263
11.419023
8.5157684
10.408352
6.8592167
22.240457
19.109922
21.780985
18.823183
21.349919
18.486965
20.894043
18.018634
20.420101
17.298374
19.797193
16.106536
26.717591
22.782956
26.715248
22.945395
26.52366
23.192968
26.199864
23.357474
25.87821
23.420445
25.817373
23.381952
31.914257
27.482134
30.854263
26.761765
30.05128
26.380303
29.261943
26.199284
28.593728
26.353536
28.756968
27.23848
41.994982
36.913211
39.652105
35.068078
37.591924
33.554973
35.430761
31.991211
33.191146
30.553978
32.011358
30.362371
56.432746
50.384711
53.762966
48.273315
51.187548
46.137453
47.987643
43.248655
43.687238
39.707377
39.559878
36.85811
70.78743
63.669968
68.570074
61.886874
66.308822
60.05412
63.133732
57.191559
58.037515
52.542523
51.410759
47.257892
81.589624
73.650282
79.910762
72.133119
78.156361
70.661441
75.679549
68.535179
71.390338
64.626229
64.521023
58.80716
89.002632
80.34535
87.517914
78.778841
86.070131
77.260619
84.02734
75.235079
80.603506
71.981717
74.947017
66.797626
96.614241
86.648515
94.4127
84.261166
92.61257
82.313156
90.540584
80.104522
87.380458
76.783179
82.339207
71.649486
105.27146
95.629805
102.67979
92.550389
100.33408
89.613139
97.89558
86.300043
94.612418
82.255961
89.608374
76.982268
119.48141
110.57495
117.01564
106.95767
113.75067
102.34823
109.82652
96.558268
105.16704
89.685634
99.093418
81.616867
142.71032
129.18702
144.79197
128.47804
142.84156
123.75498
136.64717
114.69959
126.21999
101.55539
113.23585
86.562324
162.49505
146.00159
167.26531
148.93244
170.82554
150.35179
170.45101
146.82093
161.82626
133.8952
143.2353
112.53944
179.92238
159.56761
185.2722
163.18864
190.44299
166.5494
194.20185
169.81183
191.64299
167.68436
176.38399
150.48057
197.37718
173.38604
203.07913
177.15851
208.60674
180.6752
213.62657
185.40354
213.86049
189.03201
201.73331
181.01708
219.44574
193.87756
225.60849
198.3138
231.44814
202.38485
236.57767
207.54921
236.4163
211.59153
222.65549
204.4709
246.66867
219.59241
253.21173
224.98658
258.80814
229.68584
262.07493
233.33881
257.18799
231.30788
235.88382
213.50161
271.29148
244.12812
277.71435
249.62589
281.89815
252.96814
281.09721
251.31039
267.71155
238.2069
234.70455
206.39062
275.20862
253.41416
279.46573
256.59175
279.17123
254.05019
270.05464
242.32422
244.13541
216.3817
199.99547
176.51478
213.47585
222.34622
206.3612
217.93945
192.5292
206.39104
173.75889
187.15919
152.58537
160.98789
132.30041
132.95513
144.76337
152.64481
139.7381
143.64966
134.52265
135.34589
128.1169
127.02427
119.50363
117.67838
109.44627
107.3239
138.17189
134.3937
133.71083
129.99742
128.22366
125.06571
120.9794
118.44364
111.93912
109.6552
103.01221
100.2853
134.69437
129.58995
131.12642
126.19724
126.17897
121.6165
119.29972
115.1314
111.15596
107.08836
103.95865
99.537987
128.04001
122.34016
125.29662
119.84301
121.64226
116.46873
116.59126
111.53856
110.64143
105.38263
105.75234
99.998349
117.72317
111.32496
115.79742
109.5365
113.31022
107.24389
110.03771
104.09476
106.38022
100.22013
103.7146
97.193193
104.38277
97.801534
103.28873
96.774692
101.75286
95.441548
99.720857
93.625114
97.556803
91.466256
96.280984
90.025679
89.442128
83.440442
88.960316
83.086731
88.007984
82.456062
86.62663
81.438852
85.190403
80.158467
84.596053
79.391201
74.05073
69.179973
73.763905
69.202273
73.056025
68.910951
72.034714
68.253317
71.025483
67.345096
70.883461
66.881864
58.761869
55.219132
58.433923
55.28526
57.862064
55.073461
57.158302
54.574206
56.49484
53.887945
56.675117
53.690504
43.74907
41.589864
43.387747
41.556003
42.903196
41.307867
42.359246
40.839208
41.928169
40.298298
42.236367
40.209556
28.248467
27.575176
27.821854
27.295019
27.379191
26.925644
26.929919
26.458822
26.568113
25.984387
26.546739
25.741369
11.21901
11.688522
10.888366
11.349983
10.565288
11.006417
10.237007
10.64726
9.9188617
10.27048
9.8091294
9.9960081
5.1015524
6.4727338
4.8450125
6.1322878
4.5857735
5.8025829
4.3125354
5.4591398
4.0441796
5.0869707
4.0427769
4.8488685
0.54722637
0.77897728
0.72008119
0.79668033
0.77423645
0.788872
0.77854724
0.81747803
0.77509118
0.88417674
0.76949109
0.97247936
1.8349069
0.81066973
2.4028542
0.87373937
2.7999507
0.90914383
2.9763574
0.88752816
3.0878585
0.85322391
3.1746918
0.81490543
8.8363205
5.0927441
8.1892681
4.9965657
8.3618946
4.9821504
8.5419521
4.760716
8.7069046
4.4444964
8.8619143
4.0575032
17.961025
13.818069
15.377481
12.670164
14.38779
12.080525
13.888199
11.399875
13.537742
10.646149
13.307096
9.8089168
25.075129
22.569919
22.364819
21.064886
20.815532
20.008107
19.793461
19.034613
18.90525
17.941612
18.052542
16.641222
29.986783
28.739996
29.461901
29.354694
28.288698
28.899833
26.964517
27.960303
25.436391
26.497306
23.802085
24.571162
33.691908
33.224653
36.460433
37.136884
36.677542
38.422564
35.496301
37.986714
33.48742
36.425005
31.054471
34.008475
39.953382
39.062563
43.667835
44.710679
45.612485
47.774117
45.457664
48.61116
43.547973
47.46851
40.392598
44.613584
49.038336
46.797331
50.960084
50.670105
52.81331
53.387649
54.075157
55.423013
54.388939
57.070679
52.593641
56.916654
60.251103
55.860761
59.723955
56.696499
59.883971
57.659932
60.059907
58.531888
60.239002
59.560396
60.61066
60.994166
70.607464
63.094152
68.784901
61.990418
67.980959
61.693063
67.345815
61.534185
66.652796
61.427736
65.771168
61.449155
78.668076
68.213474
76.941479
67.065703
76.053496
66.58802
75.250907
66.120829
74.210664
65.487156
72.500843
64.510075
86.47881
73.749904
85.810236
73.196409
85.467558
72.913224
84.969453
72.445499
84.169026
71.663734
82.805818
70.250104
95.775148
77.185027
96.01528
76.731038
96.203267
76.591812
96.031498
76.206443
95.462067
75.46316
93.995713
74.0801
106.0737
78.820814
105.71655
78.776385
105.88377
79.155042
105.68319
79.064922
104.85844
78.235253
102.81126
76.299826
129.09752
99.123902
126.78108
98.260927
126.825
98.89775
126.65511
99.169508
125.62407
98.57869
122.35809
95.667368
159.72654
133.38448
155.43158
131.07746
155.42085
131.52693
155.71442
131.91384
155.70732
131.88202
154.17455
130.34183
184.58131
165.90339
177.90719
160.65794
177.08883
159.60246
177.26144
159.33494
177.63414
159.14935
177.73992
158.47906
201.99041
187.47709
191.89971
178.54083
189.72037
175.88329
189.23146
174.64179
189.30164
173.69664
189.6512
172.42776
207.74074
188.63552
194.89673
177.25974
191.93972
173.89408
190.98727
172.10898
190.70915
170.54642
190.65398
168.42143
198.10142
174.24568
185.23227
163.41113
182.38714
160.7145
181.29192
159.29539
180.65711
157.89782
179.92391
155.6493
164.61288
146.81428
157.1856
140.93766
156.23718
139.9691
155.98416
139.28066
155.84404
138.32314
155.51087
136.40578
121.76354
118.45777
123.26101
119.21858
124.19427
119.65784
124.44713
119.32828
124.24912
118.21943
123.20075
115.43276
104.50098
102.16779
106.0092
103.57406
106.34263
103.54706
105.81062
102.44624
104.04756
99.64697
98.932188
93.602325
98.444909
95.769487
98.102803
95.827108
97.261229
94.939022
95.000608
92.415243
90.554553
87.542838
84.330994
81.151058
100.438
96.307101
99.485431
96.041519
97.639125
94.472189
94.27729
91.129185
89.621761
86.30282
84.250214
80.867451
103.80196
98.236382
103.43618
98.551047
101.51728
96.983676
98.144944
93.663277
93.951255
89.275805
89.384317
84.59107
103.56649
97.067755
104.8277
98.720793
103.68329
97.679445
101.08051
94.887927
97.85455
91.33706
94.430197
87.724072
97.554476
91.094329
100.5448
93.99112
100.50539
93.592082
99.042765
91.653534
96.958186
89.181068
94.680198
86.752006
86.649
81.016726
90.603027
84.463439
91.316599
84.597862
90.707165
83.540123
89.466527
82.069364
88.030788
80.589816
73.185073
68.58811
77.305664
71.953979
78.344656
72.462065
78.2303
72.079254
77.541073
71.314026
76.668741
70.488567
58.855439
55.209224
62.60198
58.18035
63.620776
58.801155
63.638449
58.730292
63.302186
58.410683
62.853837
58.053858
44.013117
41.346933
47.120355
43.749572
47.923953
44.267397
47.976216
44.331627
47.812824
44.246119
47.602602
44.141763
27.495028
26.436989
29.610769
28.440224
30.081092
28.910965
30.218318
29.050632
30.304608
29.172773
30.47273
29.385839
10.701879
10.696821
13.102176
12.932659
14.010004
13.4756
14.246041
13.612021
14.343516
13.700551
14.452355
13.822407
4.8130564
5.3311197
5.4955204
5.6951847
5.4004577
5.4350378
5.173015
5.1363742
4.9355104
4.8597544
4.6759161
4.5569171
0.7565481
1.0506246
0.74551008
1.1391997
0.73117395
1.229697
0.71678643
1.2922801
0.70556285
1.2876691
0.70644435
1.208293
0.60697563
0.78341784
3.2333634
0.77326329
3.2427763
0.73730251
3.1923409
0.70909048
3.0684234
0.68903798
2.8483482
0.67981301
2.5588358
0.7085857
2.3427847
0.9227338
8.9820093
3.6223874
9.0709403
3.2027884
9.1118125
2.8622678
9.066445
2.6437779
8.8697862
2.6697716
8.4563977
3.1798401
7.9885396
5.0933731
13.169305
8.9552085
13.058718
8.1615811
12.944501
7.3861607
12.823962
6.7426048
12.648998
6.6897827
12.314732
7.6997812
11.961658
10.534938
17.251479
15.170775
16.681884
13.794851
16.193436
12.548087
15.70557
11.609493
15.302967
11.321879
15.029176
12.545745
15.140065
16.112529
22.220599
22.427722
21.029013
20.437665
19.989312
18.444177
19.049528
16.701119
18.261716
15.812627
17.922082
17.174316
18.459806
21.933548
28.510865
31.083369
26.493431
28.433329
24.738486
25.71059
23.278116
23.207608
22.038422
21.422454
21.35872
22.091001
22.062061
27.147915
36.813256
40.959223
33.8238
37.603454
30.976396
34.141179
28.657295
30.773182
26.84347
28.070216
25.635116
27.434745
26.043543
31.355876
48.355174
52.990435
44.069587
48.369298
39.709421
43.560875
35.879851
39.029876
33.057263
35.36098
31.127816
33.241067
31.046132
35.185785
59.867193
62.566509
56.932956
61.177499
51.902721
55.570273
46.088812
48.586568
41.138868
42.933718
38.095398
39.31534
37.077946
39.135145
64.806939
61.833747
63.467074
62.343355
60.559492
61.928627
55.420545
57.191811
49.415259
49.619454
44.764698
44.407972
42.971315
42.828116
70.140032
63.366574
67.458653
62.256748
64.102311
60.903359
59.966065
58.432031
55.109739
53.100511
50.296717
47.493601
47.950367
45.409433
80.333255
68.004834
74.861578
65.043236
68.343204
61.457862
62.885188
57.777199
58.56844
53.752815
54.822518
49.143668
52.480851
46.93258
90.315311
71.955411
84.187909
68.813048
76.10732
63.87283
68.31436
58.222809
62.2543
53.468119
58.370585
49.605079
56.925213
47.708708
99.373263
74.111809
94.342739
71.651187
86.48396
67.44725
76.441083
60.78547
67.240156
54.038895
61.230042
49.372462
59.78026
47.661491
116.3809
90.32997
108.74799
84.53736
98.254757
77.451777
84.845172
67.712172
71.856467
56.600441
62.58376
49.050409
60.019387
46.97393
148.01603
124.78137
137.08846
115.8428
120.07671
102.87778
98.345882
85.570183
77.020956
64.883609
62.855501
49.541327
58.299428
45.70813
174.8494
155.57075
166.17227
149.36433
147.62155
136.49121
118.58374
114.32236
86.447532
82.752188
62.961216
53.700115
55.182358
44.340632
189.0101
170.31127
184.67443
166.83151
171.09036
159.12684
142.98765
141.76211
103.01679
108.17293
66.397907
64.463293
52.327929
44.194806
189.92002
165.75413
186.82196
162.64496
177.69387
157.69551
156.76443
147.50664
119.49834
124.00889
74.734182
78.763123
50.886945
46.465522
178.19447
152.52976
174.23433
148.78119
165.65165
143.4691
149.33771
135.25577
121.18052
119.88147
81.925103
89.341564
50.920969
50.519175
153.85297
132.92833
148.45689
127.37297
137.49575
119.11998
121.75739
108.88032
102.03532
97.476535
77.434369
81.718692
52.105897
55.830104
118.62899
109.58914
109.83589
101.48254
97.742914
91.344296
87.484363
82.242601
78.649092
75.519784
67.615424
69.253192
53.007541
56.998157
89.844397
85.633564
81.664255
78.583332
74.715882
71.979383
70.074877
67.021188
66.142417
63.579302
61.182367
60.816329
53.806031
55.384674
77.806259
75.212354
72.812695
70.723461
68.139109
66.356704
64.516291
62.565273
61.825792
59.586264
59.276641
57.741849
55.791267
55.880754
78.911415
76.054599
74.393378
72.139051
69.710264
67.99504
65.854006
64.263363
63.146679
61.222653
61.308904
59.530446
59.463106
58.646135
84.87366
80.48075
80.755255
76.965198
76.197635
73.198538
72.139136
69.784519
68.807095
66.767008
66.522972
64.604752
64.663424
63.392006
91.034542
84.525515
87.887203
81.818659
84.402012
79.03601
81.18781
76.636203
78.208067
74.647886
75.493849
73.035923
72.520313
70.949582
92.49659
84.713087
90.549186
83.0445
88.575308
81.491971
87.29103
80.695208
86.917368
80.995859
86.697329
82.536294
84.624362
82.256023
86.726175
79.409434
85.705667
78.565631
84.983562
78.080161
85.375159
78.679197
87.684215
81.26273
91.696963
86.64332
95.33734
92.284935
75.951255
69.919577
75.523585
69.670844
75.550147
69.875457
76.850092
71.352093
80.32093
75.135323
86.325885
82.251686
93.957233
91.7775
62.569171
57.911614
62.500316
57.993284
62.880167
58.56403
64.566025
60.434357
68.309635
64.583601
74.703383
72.076838
82.648579
82.237079
47.496653
44.205182
47.626169
44.487091
48.217719
45.247666
49.978528
47.147568
53.573091
51.085984
59.698199
58.270034
67.099508
67.891107
30.753037
29.78629
31.139867
30.264914
31.877395
31.030221
33.213401
32.44715
35.888544
35.193326
41.543528
40.620294
48.090389
49.222477
14.630091
14.033377
14.851847
14.309806
15.266927
14.837478
15.642152
15.702729
16.461954
16.470835
19.65876
18.851654
23.993419
24.85007
4.3469104
4.1494025
4.0448447
3.7496928
3.7632641
3.2674764
4.1870066
3.3572179
5.8516499
5.1068165
8.512465
8.7660408
9.3285017
10.475712
0.45898766
0.48306544
0.39131925
0.64148999
0.52917179
0.40397512
0.78606695
0.37158293
2.561227
2.2394453
2.6436858
3.1421277
2.2064727
3.2431526
1.4028122
2.0211414
8.8290952
9.5061094
8.8644604
10.793036
7.8962719
10.49956
6.8031447
7.3909727
13.073855
15.520662
13.345857
16.864427
12.922025
16.282698
14.061886
12.312487
16.580089
21.078274
17.087572
22.139743
17.204657
21.405585
19.909076
16.776922
20.11467
26.195433
20.803286
27.097597
21.296636
26.107523
26.508232
21.772665
23.803989
30.314963
24.871241
31.599248
25.826014
30.88283
32.511781
27.749536
27.88873
33.768589
29.683087
35.693415
31.607721
36.99362
38.117509
34.566747
33.391481
37.331115
35.69953
39.924754
38.696619
42.781223
44.603837
41.410672
39.311769
41.029246
42.216079
43.979262
45.673742
47.603112
51.930592
47.433712
45.061657
44.370204
47.945695
47.130542
51.916014
50.740967
59.939321
52.394595
49.799015
46.699779
52.678961
48.943203
57.779111
52.75874
67.71621
56.5066
54.132736
48.269657
57.022432
50.305585
62.979701
54.216503
73.872725
59.6198
58.405738
49.359418
61.279074
51.780559
67.238233
55.772683
77.411885
61.671649
61.258506
50.05003
63.857609
52.947493
68.955722
57.153823
77.525728
61.566789
61.320556
49.964538
63.574375
53.308204
67.806209
57.453264
74.682733
60.154953
59.355857
49.066709
61.476313
52.970945
65.080572
57.291369
70.284929
59.045887
56.098383
47.380073
58.548531
51.9268
62.056024
56.936826
66.013232
58.581647
52.506738
45.001518
55.21134
49.867156
59.040533
56.199015
62.377434
58.924865
49.350942
43.45068
52.153326
47.684226
56.427914
55.154408
59.671924
59.653045
47.328896
43.490918
49.728109
46.09155
54.301239
53.986803
57.971294
60.16172
46.837133
45.086038
48.645796
46.124775
53.331784
53.569411
57.836772
60.499055
47.774471
46.896029
49.596498
47.705572
54.915887
55.09657
60.434048
62.034564
50.184486
49.213983
52.50224
50.606703
58.430037
57.961118
64.82294
65.164575
53.910638
52.588887
56.79481
54.598177
63.451101
62.027251
70.946101
69.924365
58.735329
57.013106
62.067243
59.389976
69.44664
66.946599
78.549869
76.429333
64.179165
62.247628
67.6918
64.743367
75.438973
72.345253
86.020864
83.388978
71.003486
68.965861
74.056994
71.060787
81.631319
78.578642
93.685984
90.776179
81.319411
78.673694
82.986589
79.499457
89.96307
86.808929
102.61381
101.11492
93.568856
91.519505
93.24483
90.82122
97.64043
96.797251
105.60086
108.32904
96.292525
97.572067
94.852807
96.804936
95.440991
99.136095
97.19765
102.09404
86.694873
90.143294
85.049512
89.485994
83.532853
88.951375
82.223909
86.25348
70.817908
74.614688
69.231723
73.578902
67.335587
71.926496
64.888016
67.432708
50.95324
54.652861
49.264677
53.173202
47.467266
50.944742
44.696361
45.885699
25.864926
28.425501
23.496653
25.723501
21.611472
23.050155
19.008374
18.741201
7.0649876
7.2360716
5.1819356
4.1916396
3.6927617
2.3650919
2.7017977
1.5385813
3.5105155
2.8441053
0.23588976
0.37018437
3.7906354
3.4224867
9.1847868
8.432311
1.2423269
1.2593305
5.7078701
6.00891
19.317696
18.289336
6.6733534
6.79028
15.288575
16.457237
26.878233
26.954622
12.723077
13.222341
23.032579
24.799959
33.977646
34.687083
17.379101
18.114895
29.608228
31.606297
40.774348
41.841105
21.575275
22.822796
35.434486
37.577887
47.228155
48.539079
25.873374
27.751353
40.768162
43.06601
53.05209
54.541766
30.341877
32.833772
45.757189
48.243618
57.679452
59.17685
34.799331
37.79772
50.568584
53.336182
60.338867
61.711846
38.879362
42.258015
55.244613
58.528157
60.471278
61.859587
42.31201
45.810445
59.720958
63.695961
58.401094
59.871799
45.040845
48.421727
63.896721
68.549288
55.130272
56.703919
47.137642
50.289193
67.225403
72.146561
51.977188
53.650452
48.771996
51.578592
68.757469
73.595932
49.659416
51.462207
50.533348
52.357862
68.269176
72.180036
47.848425
50.134139
51.304088
53.256401
65.901046
68.346792
46.623035
49.300212
50.626714
52.438728
63.153805
65.980881
46.19203
49.264704
49.081929
51.208687
61.226443
64.866381
46.450334
50.137751
47.690006
50.445816
59.853984
64.510422
47.327179
52.206384
47.075199
50.718055
60.060937
64.983335
48.758121
55.939999
47.081663
52.119016
61.448004
66.584299
52.364879
61.411092
48.691933
55.039191
63.855049
69.261247
59.016791
66.618541
53.855439
60.861893
67.196184
72.524726
65.343443
70.415662
61.605192
68.924828
71.734567
76.460301
72.196977
75.1483
70.437223
78.178334
77.663667
81.62632
78.3596
79.367525
79.562493
87.79681
84.763464
88.475598
82.828416
81.73767
88.20593
96.364087
92.322938
97.195479
84.593924
81.177272
95.108546
101.81566
99.6035
107.32547
82.57533
76.942187
98.472438
102.77489
105.60973
116.82258
76.495199
69.157618
96.547719
98.901582
108.25502
122.2878
67.04272
59.269614
89.884551
89.874368
104.95554
119.95872
55.181563
47.829283
79.094512
76.919126
96.504051
109.95127
41.918494
35.532072
64.223552
60.441678
83.319672
93.142312
28.388893
23.943838
45.312719
40.550032
64.263759
70.321115
15.5673
11.780403
22.800643
20.782779
36.739727
39.295947
4.7171794
2.572928
11.896834
10.841581
14.035715
18.10184
1.6630983
2.1067614
1.9753068
1.7774301
1.4616014
1.2872419
2.7401902
3.2905958
3.1308683
2.9724621
2.6273568
2.4897191
8.8535679
9.8559918
8.7986103
7.3029305
6.0746626
5.2986852
12.545653
14.062456
13.975232
12.523616
10.960818
9.7768516
25.738808
25.555872
22.662756
20.169617
18.255833
16.95128
32.05418
32.939244
31.473624
27.849768
24.993248
22.958381
39.369117
38.639249
35.582807
31.277114
27.698388
25.292646
47.099123
48.033597
45.934304
41.913605
37.317781
33.219809
50.486907
50.225262
47.399767
42.969375
38.296912
34.492392
59.08864
61.107739
59.360191
55.00648
49.417623
44.065822
60.055889
60.448296
58.378513
54.221229
49.227189
44.712293
69.239482
72.63257
71.769102
67.514257
61.572898
55.529199
68.413934
69.323218
68.226402
64.660855
59.903022
55.259463
77.982077
82.392503
82.467542
78.708527
73.089824
66.979133
75.527289
76.558846
76.270488
73.391866
69.275117
65.01378
85.331636
89.805107
90.539913
87.465148
82.719079
77.13199
81.128249
81.756596
81.599381
79.327252
75.976725
72.459895
91.062607
94.770937
94.774239
92.04221
88.517384
84.26891
84.963004
84.572313
83.671212
81.501116
78.829425
76.256071
94.917539
96.629723
94.524355
91.45161
89.176614
86.91942
86.955038
84.979852
82.637999
79.959941
77.517261
75.727635
96.879156
95.708843
91.071215
87.337084
85.722193
85.053563
87.249563
83.265651
79.180038
75.615635
72.915839
71.463625
97.040086
92.594669
85.797621
81.398403
79.874476
79.96012
86.159002
80.105227
74.408329
69.983782
66.875731
65.217725
95.556623
88.123274
79.830897
74.85761
73.004249
73.232847
84.124672
76.366603
69.583968
64.609776
61.138878
59.119551
92.576187
83.116574
74.172283
68.818709
66.324972
66.057285
82.431289
73.312229
66.133966
61.026679
57.426889
55.052012
89.163938
78.741646
69.991147
64.531077
61.364875
60.109879
82.17714
71.783533
64.498722
59.504604
55.909087
53.24263
86.626198
75.828311
67.78793
62.728994
59.381249
57.401032
83.302369
71.412109
64.049098
59.226796
55.544868
52.424633
85.679505
74.371737
67.082613
62.744071
59.641808
57.211726
84.940098
71.66307
64.598569
59.94847
55.996792
52.111202
85.808152
73.635734
67.158837
63.705771
61.072064
58.355483
86.722706
73.111297
66.518474
61.654603
56.930869
51.996603
86.168172
73.118257
67.580898
65.047888
63.109662
60.391851
89.034775
76.341865
69.634758
63.643636
57.736386
51.804584
86.785175
73.553753
68.94452
67.128341
65.506217
63.045221
91.194487
81.028729
72.847136
64.707726
57.533212
51.218619
87.776024
75.097691
70.977072
69.437739
68.259841
66.12856
94.394898
85.984357
74.54717
64.166589
56.257606
50.301293
89.655436
77.785188
73.518498
71.886106
71.02226
69.243967
97.789066
87.935331
73.242104
60.758931
53.388095
48.480027
91.427188
80.845413
75.740909
73.406091
72.625329
71.476039
95.368866
85.467346
68.103342
54.662328
48.705193
45.886546
88.343539
80.885575
74.849707
72.055323
71.638214
71.383631
87.326165
81.10293
62.516073
48.520718
43.582433
42.86976
82.926475
76.888476
70.607417
67.86605
67.938837
68.489977
80.074165
75.570432
57.625732
43.120587
38.519276
39.273803
75.918702
70.527554
64.111975
61.72717
62.198779
63.203543
73.312482
69.536491
53.150477
38.204159
33.499912
35.119027
68.208852
63.07791
56.686498
54.588264
55.191587
56.164014
66.551001
63.249442
48.386818
33.297844
28.415192
30.402796
60.096644
55.101499
48.953486
46.981385
47.46781
47.867696
59.638883
56.351308
42.675388
28.224777
23.390011
25.428226
51.763075
46.944502
41.205727
39.293812
39.554375
39.510319
52.458466
48.739376
36.179075
23.135161
18.670841
20.562861
43.449708
38.891384
33.661251
31.848467
31.913942
31.635381
44.673754
40.523731
29.242039
18.284967
14.444528
16.009682
35.261085
31.045849
26.425809
24.842262
24.788251
24.37813
36.126201
31.814089
22.264238
13.972052
10.754227
11.833421
27.105326
23.387474
19.548234
18.360872
18.270235
17.732644
26.656933
22.726891
15.873563
10.201057
7.2404598
7.8413968
18.752223
15.835305
13.036739
12.414299
12.310429
11.910009
16.175154
13.911152
10.988583
5.8527298
3.2288523
3.6949628
9.8912542
8.3002668
6.8378859
6.8704911
6.8000654
8.247026
5.4957967
6.6112531
3.3141659
1.0471791
0.44940468
0.62252342
2.0427874
1.7666311
1.4364454