/*--------------------------------*- C++ -*----------------------------------*\
| =========                 |                                                 |
| \\      /  F ield         | OpenFOAM: The Open Source CFD Toolbox           |
|  \\    /   O peration     | Version:  2206                                  |
|   \\  /    A nd           | Website:  www.openfoam.com                      |
|    \\/     M anipulation  |                                                 |
\*---------------------------------------------------------------------------*/
FoamFile
{
    version     2.0;
    format      ascii;
    arch        "LSB;label=32;scalar=64";
    class       volScalarField;
    location    "300";
    object      nut;
}
// * * * * * * * * * * * * * * * * * * * * * * * * * * * * * * * * * * * * * //

dimensions      [0 2 -1 0 0 0 0];

internalField   nonuniform List<scalar> 
50904
(
2.3464828e-07
2.5212224e-07
4.9620056e-07
5.8518068e-07
4.8509853e-06
5.1872414e-06
9.0683086e-06
8.9194109e-06
3.8908619e-05
4.0081704e-05
6.0509532e-05
5.7970891e-05
0.00011679445
0.00011703824
0.00017638545
0.00016881877
0.00027083426
0.00026713273
0.00037453378
0.00035869027
0.00051507053
0.00050543736
0.0006457193
0.00061951514
0.00083946146
0.00082263376
0.00096987311
0.00093196733
0.0012246476
0.0011990939
0.0013251286
0.0012741402
0.0016514201
0.0016161315
0.0015705248
0.001521468
0.0020207313
0.0019961886
0.0018517313
0.0017561742
0.002418768
0.002320092
0.0023234081
0.0021374839
0.0030253049
0.002851018
0.0027941701
0.0026299679
0.0032918328
0.0032329664
0.0030072479
0.0028631576
0.0033349383
0.0033039707
0.0031015046
0.0029669352
0.0031684278
0.0031559579
0.003074456
0.0030121957
0.0029338777
0.002898881
0.0029368941
0.0029678593
0.002722515
0.0026447146
0.002754326
0.0027929247
0.0025139117
0.002389318
0.0025791621
0.0025929306
0.0023050431
0.0021316083
0.002427322
0.0024174383
0.0020899835
0.0018751643
0.0022930326
0.0022615895
0.0018682762
0.0016331087
0.0021799234
0.0021256013
0.0016403943
0.0014224027
0.0020866109
0.0020099803
0.0014017364
0.0012332868
0.0020049979
0.0019114708
0.0011951041
0.0010936518
0.0018900976
0.001790852
0.0010244499
0.00098848853
0.0017070896
0.0016049492
0.00086780889
0.00088919918
0.0014726446
0.0013649744
0.00071620438
0.00077533299
0.0012132867
0.0011007935
0.00056972381
0.00065133346
0.00094511797
0.000837355
0.00043394391
0.00052183376
0.00068985424
0.00059353862
0.00031414282
0.00039335613
0.00046464525
0.00038627082
0.00021263303
0.00027207426
0.0002799098
0.0002245238
0.00012875187
0.00016414535
0.00014262183
0.00011160896
6.3193779e-05
7.9134048e-05
5.7776505e-05
4.6641528e-05
1.9336329e-05
2.5825189e-05
2.0332067e-05
1.8066988e-05
1.5711597e-06
2.6579805e-06
2.2956758e-06
1.9969223e-06
1.6757551e-08
4.998325e-08
1.8382951e-07
1.5596463e-07
3.6532867e-07
4.3358154e-07
4.0338387e-07
5.4622871e-07
3.3045008e-07
4.1737098e-07
3.1261752e-07
3.5558887e-07
2.9387649e-07
3.1261708e-07
2.7661529e-07
2.90184e-07
2.5451997e-07
2.7407017e-07
7.1381542e-06
7.2523277e-06
6.7149022e-06
7.5391319e-06
5.7793048e-06
6.6316981e-06
5.7759115e-06
6.197008e-06
5.9671751e-06
5.8151625e-06
5.8487413e-06
5.5265801e-06
5.6291834e-06
5.2440071e-06
5.1907246e-05
5.1316416e-05
4.8492439e-05
4.958724e-05
4.6511213e-05
4.6847671e-05
4.5671116e-05
4.5673613e-05
4.2491017e-05
4.390045e-05
4.0163816e-05
4.1902068e-05
3.8390075e-05
4.0462894e-05
0.00015765192
0.00015445962
0.00013524686
0.00013724907
0.0001209462
0.00011896119
0.00011407761
0.00010818979
0.00010798043
0.00010130992
0.00010336512
9.7317276e-05
9.7716808e-05
9.5145685e-05
0.00034680827
0.00033721693
0.00029086768
0.0002885717
0.00024696093
0.00023895965
0.00021654501
0.00020293821
0.00019469473
0.00017952017
0.00018005102
0.00016544698
0.00017022174
0.00015718745
0.00061101207
0.00058959854
0.00051501183
0.00049619701
0.00043994417
0.00041245773
0.00038122385
0.00034759098
0.00033785487
0.00030255584
0.00030621959
0.00027177829
0.00028216025
0.00025001019
0.00092827325
0.00088994109
0.00079248203
0.00074512002
0.00069549508
0.00063376169
0.00061631284
0.00054637723
0.00055633429
0.0004834336
0.0005096915
0.00043685059
0.00047043159
0.00039996719
0.0012771755
0.0012181992
0.0011059855
0.001021821
0.00099725826
0.00088968974
0.00091011413
0.00078806091
0.0008048336
0.00071364811
0.00074178725
0.00065664739
0.00073882545
0.00060909313
0.0016396471
0.0015570997
0.0014422302
0.0013178875
0.0013334567
0.0011765969
0.0012135646
0.0010730522
0.0010536425
0.00099683828
0.0010056209
0.0009366727
0.0010550312
0.00088398956
0.0019936269
0.0018830444
0.0017776007
0.0016115353
0.0016753821
0.0014742646
0.001604083
0.0013804558
0.0013931472
0.0013126483
0.0012532274
0.0012586005
0.0013292491
0.0012104019
0.0023054076
0.0021603713
0.0020622473
0.0018488746
0.0019548498
0.0017143108
0.0018888662
0.0016346896
0.0016075675
0.0015818549
0.0011210594
0.0012246147
0.0010305155
0.0011507938
0.0025410597
0.0023559427
0.002245084
0.0019804606
0.0021025777
0.0018291229
0.0020138276
0.0017487026
0.0018738173
0.0017029129
0.00093628933
0.001027583
0.00069446785
0.00078735016
0.0026780633
0.0024520563
0.0023522789
0.0020333384
0.002201234
0.0018765081
0.0021121924
0.0017990935
0.0020608233
0.0017583196
0.0011281184
0.0012843611
0.00070873805
0.00079219977
0.0026954251
0.0024417273
0.002309316
0.0019383905
0.0021268951
0.0017221585
0.0020217443
0.0015992629
0.0019624022
0.0015269595
0.0017869999
0.0014806375
0.00081366461
0.00077427733
0.0026224112
0.0024196728
0.0021477082
0.0018583767
0.0019315679
0.0015985255
0.0018160867
0.0014464919
0.0017507173
0.0013578113
0.0017112253
0.0013022607
0.0016661272
0.0012623902
0.0025785567
0.0024926021
0.0021317911
0.0020034362
0.0019753823
0.0017847159
0.0018914803
0.0016400497
0.0018438379
0.0015494984
0.0018163667
0.0014950702
0.0017987516
0.0014583498
0.0025405158
0.0025266272
0.0021655033
0.002137057
0.0020880716
0.0019985749
0.0020473972
0.0018953669
0.0020232654
0.001815353
0.002010211
0.0017636567
0.0020031303
0.0017326282
0.0024783239
0.0024829654
0.002210229
0.002185465
0.002191275
0.0021247045
0.0021795111
0.0020612056
0.0021697359
0.0020023906
0.0021649019
0.0019623283
0.0021636595
0.0019396812
0.0023873002
0.0023912375
0.0022584137
0.0021929619
0.0022844619
0.0021790137
0.002295144
0.0021382513
0.0022981736
0.0020969833
0.0023013592
0.0020695204
0.0023055517
0.0020550836
0.0022678971
0.0022502731
0.0022650917
0.0021631685
0.0023210784
0.0021577778
0.0023492266
0.0021224196
0.0023640891
0.0020904972
0.0023746637
0.0020708803
0.0023828139
0.0020604494
0.0021321853
0.0020771521
0.0021815696
0.0020725445
0.0022544935
0.0020623576
0.0023045623
0.002035116
0.0023372774
0.0020133443
0.0023592377
0.0020011247
0.0023734053
0.0019929116
0.0020238106
0.0019376408
0.0020169515
0.0019010478
0.0020669806
0.0018795356
0.0021268477
0.0018633406
0.0021766166
0.0018552842
0.0022118711
0.0018481189
0.0022324428
0.0018399524
0.001992171
0.0018755979
0.0019139662
0.0017649976
0.0018454601
0.0016930567
0.0018042393
0.0016593179
0.0017806944
0.0016452858
0.0017633401
0.0016357646
0.0016439379
0.0016233956
0.0019938756
0.0018755764
0.0020311246
0.0018318101
0.0020264321
0.001762326
0.0020101077
0.0017058574
0.0019890234
0.0016648936
0.0011867516
0.0014021761
0.00092874351
0.00072433099
0.0018835068
0.0017889826
0.0019972313
0.0018639242
0.0020469138
0.0018771035
0.0020600793
0.0018715547
0.002050901
0.0018559432
0.0020254728
0.0018312386
0.0018325335
0.0013239981
0.0016766919
0.0015894397
0.0018122582
0.0017112971
0.0018703699
0.0017462768
0.0018840319
0.0017459182
0.0018739277
0.00172968
0.0018491975
0.0017034337
0.00181364
0.0016690026
0.0014227142
0.0013362911
0.0015687629
0.0014796804
0.0016299622
0.0015228817
0.0016423819
0.0015232307
0.001633217
0.001508455
0.0016133681
0.0014862734
0.0015865722
0.0014585826
0.0011423751
0.0010584942
0.0012962009
0.001216385
0.0013666755
0.0012705621
0.00138358
0.001273419
0.0013786084
0.0012606063
0.001364905
0.0012428168
0.001346738
0.0012224895
0.00085478435
0.00077853559
0.0010074842
0.00094091437
0.0010905626
0.001011637
0.0011174797
0.0010242571
0.0011202247
0.0010178146
0.0011139277
0.0010063777
0.0011036664
0.00099360731
0.00058478907
0.00052120224
0.0007207117
0.00066950553
0.00081240341
0.00075475316
0.00085147311
0.00078238301
0.00086287905
0.00078590906
0.00086337405
0.00078208108
0.00085929827
0.00077624369
0.0003552915
0.00030907155
0.00045842461
0.00042255777
0.00054690263
0.00050951952
0.00059673476
0.00055167582
0.00061653957
0.00056572468
0.0006222516
0.00056849579
0.00062209357
0.00056757697
0.00018519935
0.00015830248
0.00024683959
0.00022438625
0.00031495918
0.00029327313
0.00036656186
0.0003409263
0.00039188422
0.00036298468
0.00040016296
0.0003699815
0.00040113673
0.00037116004
8.1539499e-05
7.0603903e-05
0.00010674103
9.5062091e-05
0.00014252481
0.00013062249
0.00017999898
0.00016737846
0.00020429934
0.00019125936
0.00021317045
0.00020042044
0.00021421574
0.00020225294
2.8618573e-05
2.5660217e-05
3.4926413e-05
3.1058323e-05
4.4649302e-05
4.0659734e-05
5.8833437e-05
5.494339e-05
7.1977899e-05
6.8694189e-05
7.8244374e-05
7.5852359e-05
7.899352e-05
7.7373521e-05
3.5603963e-06
3.226745e-06
5.0274171e-06
4.758353e-06
6.4978373e-06
6.2699892e-06
8.2571567e-06
8.2479933e-06
1.0278646e-05
1.0488418e-05
1.153656e-05
1.1974208e-05
1.1784828e-05
1.2388276e-05
1.9790699e-07
1.8229725e-07
2.5819394e-07
3.0203775e-07
4.6904934e-07
6.0103723e-07
7.7298859e-07
1.0088699e-06
9.8422182e-07
1.2768526e-06
1.028743e-06
1.3317718e-06
1.0046278e-06
1.2967924e-06
2.2920219e-07
2.6150298e-07
1.9905777e-07
2.4946232e-07
1.7433716e-07
2.4431075e-07
1.4892765e-07
2.3869649e-07
1.2039293e-07
2.2035103e-07
9.4931071e-08
1.7947823e-07
5.3300535e-06
4.9070033e-06
4.8956263e-06
4.4241603e-06
4.5064415e-06
3.9487282e-06
4.076196e-06
3.3679752e-06
3.5274952e-06
2.5246325e-06
2.8157438e-06
1.3686007e-06
3.7280073e-05
3.9086451e-05
3.6300858e-05
3.7033707e-05
3.6546396e-05
3.5098922e-05
3.873977e-05
3.2768979e-05
3.8847452e-05
2.9140253e-05
3.7214421e-05
2.2525108e-05
8.5730395e-05
9.3958318e-05
7.6618309e-05
9.3206341e-05
7.2938055e-05
8.8599857e-05
7.8064488e-05
9.0742631e-05
8.2667031e-05
9.0965226e-05
7.9183084e-05
8.696466e-05
0.0001636612
0.0001524971
0.00015144622
0.00015037797
0.00012649491
0.00015021229
0.00013298449
0.00015087593
0.00014653244
0.00015176257
0.00013332886
0.00015223395
0.00026256999
0.00023365012
0.00024684996
0.00022190475
0.00023560959
0.00021459943
0.00022555535
0.0002091291
0.00021619644
0.00020524359
0.00020937843
0.00020332067
0.0004336893
0.00036780436
0.00039970436
0.00034023833
0.00037040448
0.00031833653
0.00033960916
0.00029665179
0.00030617463
0.00027442869
0.00027610991
0.00025561957
0.00069098886
0.00056431302
0.00064305556
0.00052250934
0.0005974193
0.00034394481
0.00054257708
0.00030190334
0.00047190384
0.00039283755
0.00039533188
0.00034362198
0.0010293659
0.00083143001
0.00097622291
0.00078001564
0.0009216925
0.00055234593
0.00073599327
0.00037837328
0.00073122081
0.00044282108
0.00060931637
0.00050062855
0.0014158151
0.0011602399
0.0013691459
0.0011087505
0.0013175894
0.0010570294
0.0011756259
0.00073502289
0.0010465903
0.00067506385
0.00094939047
0.00075082787
0.0012924574
0.0013831073
0.0017292493
0.0014256917
0.0016980174
0.0013842795
0.0016461043
0.001323441
0.0015494769
0.001222547
0.0013813813
0.0010688463
0.00078222291
0.00082077233
0.0010839225
0.001033199
0.0016043472
0.0014241877
0.0019055794
0.0015692201
0.0018707299
0.0015038703
0.0017676819
0.0013738204
0.00065267123
0.00065353039
0.00076765937
0.00064849862
0.0010416374
0.00073527155
0.0016781829
0.0010624023
0.0020644565
0.0016794175
0.0020261502
0.001602485
0.00056424286
0.00050051892
0.00054336201
0.00041973867
0.0006409234
0.00043014736
0.00095387887
0.00057520308
0.0017810151
0.0010478833
0.0020720251
0.0015544957
0.00075763202
0.00063025555
0.00049513557
0.00038835358
0.00045653259
0.00033093162
0.00056359508
0.00038949729
0.00095798028
0.00065518952
0.0018336738
0.0012569195
0.0015635824
0.001427405
0.00084591477
0.00069138697
0.0006150026
0.00044893604
0.00063607362
0.00044209529
0.00090725563
0.0006480162
0.0016673555
0.0013077638
0.0019979815
0.0017104514
0.0012402276
0.0014019815
0.00084392909
0.00079585459
0.00081246596
0.00064098822
0.0010917395
0.0007899771
0.0017989125
0.0013234204
0.0021649485
0.0019252421
0.0015156324
0.0019151782
0.0010369642
0.0011364323
0.00097562269
0.00086767724
0.0012726795
0.00098552677
0.0019897441
0.0014734415
0.0023107311
0.0020471209
0.0016493758
0.0019790921
0.0011454662
0.0012070493
0.001082743
0.00097152074
0.0014007335
0.0011100219
0.0021296038
0.0015765182
0.0023899996
0.0020543081
0.0016577832
0.0014871159
0.0011830706
0.00099729771
0.0011481118
0.00090767035
0.0015005216
0.0011265779
0.0022598619
0.0016487771
0.0023831498
0.0019850943
0.0016683985
0.0011771318
0.0012074679
0.00083896202
0.001180286
0.000828969
0.0015445079
0.0010921024
0.0023263654
0.0016848041
0.0022416487
0.0015181658
0.0015506
0.00094115021
0.0011764412
0.00074542664
0.0011556577
0.00078743185
0.0015178152
0.0010787662
0.0020592801
0.0016859828
0.00089303733
0.0010443005
0.00066540719
0.00071788595
0.0006745049
0.00064150721
0.00088397411
0.00074765166
0.0014953662
0.001134008
0.001665554
0.0015157632
0.0010277041
0.0005488572
0.0011859954
0.00057174032
0.0013210406
0.00071659421
0.0016138803
0.0010564958
0.0016576404
0.0015049412
0.0015143019
0.0014437894
0.0014565251
0.0011508706
0.0012813572
0.0011399174
0.0011888564
0.0010822684
0.0012192189
0.0010769404
0.001491166
0.0013149335
0.0013497824
0.0012865041
0.0017642573
0.0016018107
0.0014548837
0.0012890545
0.0011781641
0.0010296183
0.0011446853
0.00097266818
0.0013844936
0.0012137921
0.0012959543
0.0011952943
0.0015511053
0.0014230244
0.0014555089
0.0013790272
0.0012291456
0.0011126175
0.0011709546
0.0010240808
0.0012969287
0.0011818094
0.0012515928
0.0011249014
0.0013236561
0.0011982688
0.0012556486
0.001169758
0.0010940594
0.0010858699
0.0010420136
0.001021759
0.0011329038
0.0010594333
0.0011558322
0.0010254177
0.0010901918
0.00097930295
0.00094945593
0.0009632587
0.0007881098
0.00090748721
0.00078599378
0.00085677933
0.00095022054
0.0009067007
0.0010033887
0.00089154478
0.00085247594
0.00076943689
0.00065670724
0.00076175495
0.00054383796
0.00065812579
0.00059970754
0.00063266798
0.0008131344
0.00073398956
0.00080773648
0.0007267112
0.00061903502
0.00056523971
0.0004737761
0.00056181106
0.00041342898
0.00046708733
0.00048906033
0.00047091259
0.00059534544
0.00054581011
0.00059143132
0.00054034761
0.00039910398
0.00037023423
0.00035059232
0.00036808355
0.00032422746
0.00032756339
0.00038715524
0.0003463471
0.00038291588
0.00035749774
0.00037983761
0.00035344144
0.00021279523
0.00020178746
0.00021023657
0.00020052542
0.00020739427
0.0001986616
0.00020435674
0.00019613225
0.00020083269
0.00019283238
0.0001988297
0.00018995971
7.8212674e-05
7.7126722e-05
7.6766367e-05
7.6197138e-05
7.5161503e-05
7.4988225e-05
7.3348032e-05
7.3447485e-05
7.133158e-05
7.1553799e-05
6.947008e-05
6.9555942e-05
1.1609206e-05
1.2272778e-05
1.1262503e-05
1.1978261e-05
1.0883495e-05
1.1628533e-05
1.045273e-05
1.1219202e-05
9.9492262e-06
1.0722629e-05
9.4792363e-06
1.0202243e-05
9.6781796e-07
1.2474274e-06
9.1853117e-07
1.1815841e-06
8.6893447e-07
1.1179966e-06
8.1667689e-07
1.0518166e-06
7.6494851e-07
9.7991428e-07
7.6281467e-07
9.3342615e-07
1.1035373e-07
1.6248465e-07
1.4537963e-07
1.6631877e-07
1.5638346e-07
1.6478865e-07
1.5730055e-07
1.7081189e-07
1.566435e-07
1.8478099e-07
1.5556161e-07
2.0327927e-07
2.2873324e-06
8.6238216e-07
3.2909574e-06
9.7408315e-07
3.9787488e-06
1.0876375e-06
4.2563865e-06
1.0874232e-06
4.42441e-06
1.0523331e-06
4.5514077e-06
1.0081487e-06
3.5383123e-05
1.5507158e-05
3.8160866e-05
1.686654e-05
4.0691955e-05
1.8187935e-05
4.2142875e-05
1.7517075e-05
4.3253358e-05
1.6052912e-05
4.4161266e-05
1.419162e-05
7.3687173e-05
7.7429762e-05
7.1706084e-05
7.8733858e-05
7.3064961e-05
7.7974171e-05
7.5715024e-05
7.3644531e-05
0.00010557197
6.7813603e-05
0.0001157695
6.0664364e-05
0.0001134198
0.0001457186
9.8210982e-05
0.00013120645
8.2867465e-05
0.00010990051
7.0689737e-05
9.3411316e-05
7.3877481e-05
9.3607564e-05
9.705915e-05
0.0001101663
0.0001959833
0.00019993298
0.00014923457
0.00019337089
0.00010044917
0.00013255104
7.2531496e-05
9.3321196e-05
6.907561e-05
8.5409679e-05
8.5781911e-05
0.00010230556
0.0002522215
0.00024169514
0.00023576655
0.00023341562
0.00012927124
0.00016165846
8.5282257e-05
0.00010390431
7.6175047e-05
9.1642076e-05
8.6947861e-05
0.00010357466
0.0003368774
0.00030507878
0.00030298223
0.00028659311
0.00019903629
0.00023664768
0.00011068668
0.00012782493
9.1655801e-05
0.00010346311
0.00010155495
0.00011449943
0.00049890459
0.00042372381
0.00043205392
0.00038037367
0.00040693104
0.00036586091
0.0002453306
0.00035659313
0.00014239523
0.0001667246
0.00012473424
0.00013609856
0.0007946092
0.00063480725
0.00069646572
0.00056288991
0.00065355648
0.00053429838
0.00062224045
0.00051403922
0.00059011095
0.00049347054
0.0002953381
0.00046894427
0.001215233
0.00092631577
0.0011067408
0.00083595407
0.0010525429
0.00079491195
0.0010067416
0.00076198409
0.0009545128
0.00072550957
0.00088650183
0.00067954179
0.0016257949
0.0012363291
0.0015191311
0.0011473197
0.0014603718
0.00110148
0.0014078195
0.0010596912
0.0012394038
0.0010089053
0.00095928912
0.00093941968
0.0019216416
0.0014951965
0.001829118
0.0014236532
0.0017723973
0.0013813276
0.0017172837
0.0013378293
0.0016479913
0.0012808344
0.0014629976
0.0010536275
0.0020419487
0.0015273372
0.0019833475
0.0014893524
0.0019383633
0.0014645576
0.001888784
0.0014354781
0.0014996691
0.0013596466
0.00073846551
0.0011450685
0.001878752
0.001271547
0.0018775913
0.0012518638
0.0018636492
0.0012368789
0.0014174922
0.00077170219
0.00088959753
0.00052745507
0.00072519571
0.00062582929
0.0017418151
0.0012537729
0.0016827851
0.0011905268
0.001653996
0.0011620089
0.0011774259
0.0007734232
0.00069102121
0.00043954428
0.00058592646
0.00039483806
0.0018512774
0.0014736684
0.0017418638
0.001379575
0.001695937
0.0013402956
0.0016694467
0.0012322828
0.0010106042
0.00069554973
0.00070467748
0.00052062728
0.0020535835
0.0017695719
0.0019250975
0.0016594063
0.0018707498
0.0016114574
0.0018408766
0.0015842655
0.0016723671
0.0010848387
0.00095947671
0.00079767616
0.0022397396
0.0019821446
0.0021059735
0.0018668495
0.0020515267
0.0018178658
0.0020223872
0.0016736687
0.0020000281
0.0013062848
0.0012856415
0.0011179335
0.002287564
0.0019850472
0.0021637489
0.0018798647
0.0021176934
0.0018395372
0.0020933204
0.0016191347
0.0020749294
0.0012910993
0.001324406
0.0011790135
0.0022074499
0.0018658698
0.0021243142
0.0018084785
0.0020939274
0.0017868669
0.002075407
0.0017733278
0.0018716201
0.0014161761
0.0012794137
0.0011730778
0.0019821058
0.001686436
0.0019635917
0.0017041366
0.0019523442
0.0017034217
0.0019379574
0.0016950046
0.0019167609
0.0016512799
0.0011508669
0.0011006658
0.0016711462
0.001563442
0.0016716623
0.0015980527
0.0016561834
0.0015953168
0.0016272393
0.0015764867
0.0014134127
0.0013177772
0.00060769765
0.00072178759
0.0014039998
0.0013869459
0.001352688
0.0013692189
0.0013169645
0.0013471944
0.0010603149
0.00087254714
0.00042796076
0.00045136955
0.00026725784
0.00033128407
0.0012460167
0.0011969442
0.0011812467
0.001148292
0.00080950428
0.00070864359
0.00034300811
0.00030530337
0.00021982723
0.00021522118
0.00020913062
0.00023608657
0.0012304715
0.0011353441
0.0011798634
0.0011017186
0.0005140738
0.00044894854
0.0002739641
0.00023679342
0.00021949868
0.0002031622
0.00023540412
0.00025559493
0.0012215748
0.0010926087
0.00098242477
0.00093025967
0.00045785762
0.00039107306
0.00028200577
0.00022904319
0.00025482749
0.00021684548
0.00028960298
0.0002891601
0.0011502589
0.0010141269
0.00090468107
0.0008196911
0.00046039242
0.00036320725
0.00031231563
0.00023501933
0.00029969943
0.00024058523
0.00035020984
0.00033017986
0.0010109008
0.00089304461
0.00088629315
0.00073567836
0.00048040875
0.00035340402
0.00033903479
0.00025074474
0.00032652365
0.0002673453
0.00038242542
0.00036028127
0.00081935237
0.00073386259
0.00084726521
0.00068523908
0.0004808174
0.0003559682
0.00033574955
0.0002636736
0.00031805556
0.00027685683
0.00037478652
0.00035856392
0.00060213661
0.00054647163
0.00062807995
0.00056576573
0.00045549
0.00035651984
0.00030958006
0.00025883134
0.00028756645
0.0002596723
0.00034182563
0.00033034358
0.00038748709
0.00035622359
0.00040769746
0.00036944411
0.00039355358
0.00032456421
0.00026825084
0.00023333873
0.00024749254
0.00022849693
0.00029594842
0.00028944591
0.00020337639
0.00019022581
0.0002180405
0.00019849777
0.00022118874
0.00019926358
0.00021378939
0.00018957854
0.00020015616
0.00018646599
0.00022409713
0.00020173861
7.0684952e-05
6.9036293e-05
7.8396402e-05
7.3751591e-05
7.8695023e-05
7.3624478e-05
7.8464881e-05
7.3219804e-05
7.8397981e-05
7.3046634e-05
7.8626913e-05
7.3127002e-05
1.0058938e-05
1.0494522e-05
1.2909671e-05
1.3233759e-05
1.3699491e-05
1.3641707e-05
1.3703746e-05
1.3574805e-05
1.3587243e-05
1.3447442e-05
1.3461667e-05
1.3311142e-05
9.0377356e-07
1.0234743e-06
1.027629e-06
1.090857e-06
1.0090248e-06
1.0409829e-06
9.6651107e-07
9.8413806e-07
9.2242553e-07
9.3165141e-07
8.7438548e-07
8.7425467e-07
1.5274446e-07
2.1925554e-07
1.505553e-07
2.3775787e-07
1.4767043e-07
2.5661849e-07
1.4471292e-07
2.6955416e-07
1.4227363e-07
2.6827343e-07
1.4200072e-07
2.5097323e-07
1.2092933e-07
1.6123402e-07
4.6299834e-06
9.6057149e-07
4.6331968e-06
9.1363051e-07
4.5367234e-06
8.6691189e-07
4.3190689e-06
8.1700691e-07
3.9581881e-06
7.6229502e-07
3.4956974e-06
7.8381817e-07
3.1137553e-06
1.1439746e-06
4.4557744e-05
1.2130679e-05
4.4570923e-05
1.0234302e-05
4.4070349e-05
8.7979752e-06
4.2809543e-05
7.830888e-06
4.046507e-05
7.5256226e-06
3.6877335e-05
8.8490914e-06
3.2774495e-05
1.5792218e-05
0.00011544629
5.2499628e-05
0.00011453198
4.4638713e-05
0.00011254513
3.7221649e-05
0.00010927691
3.1690754e-05
0.0001040812
3.0323586e-05
9.6059482e-05
3.509879e-05
8.7169515e-05
5.3728061e-05
0.00013613805
0.00011480731
0.00017681697
0.00010211293
0.00017274314
8.8937245e-05
0.00016650715
7.7138535e-05
0.0001583775
7.0585247e-05
0.00014855716
7.7273396e-05
0.00014138854
0.00010478058
0.00010771624
0.00011576469
0.00012871531
0.0001239627
0.00018051441
0.0001518827
0.00021674187
0.00013603352
0.00020561448
0.00012338041
0.00019433246
0.00012784775
0.00018922388
0.00015727321
9.879997e-05
0.0001154857
0.00011332382
0.0001199875
0.0001621127
0.00014774117
0.00026002373
0.00020482691
0.00025674853
0.00018860745
0.00024256106
0.00018479674
0.00023770523
0.00020989486
0.00010718778
0.00012248579
0.0001092948
0.00012421723
0.00014538924
0.00014821687
0.00023588731
0.00021037876
0.0003173443
0.00025764786
0.00030131315
0.00024679788
0.00029605764
0.00026717999
0.00012656914
0.00013303826
0.00012596442
0.00013462482
0.00014550738
0.00015667829
0.00021056978
0.00021132316
0.00034568822
0.00030167943
0.00037934212
0.00031749665
0.00037705653
0.00033621344
0.00018795788
0.00020179799
0.00016111297
0.00016229697
0.00017402253
0.00017416964
0.00022553753
0.0002230056
0.00033952545
0.00031231291
0.00048557744
0.00040304077
0.00048367941
0.00042128534
0.00060432689
0.00063378425
0.00033362304
0.00039760408
0.00025672243
0.00022452788
0.00027743961
0.00022910986
0.00037345414
0.00032511908
0.00053504468
0.00047370761
0.0006041773
0.00051972533
0.00079267909
0.00086504786
0.00064259175
0.00079615417
0.00053570454
0.00051606618
0.00048813516
0.00033941091
0.0005140564
0.00036331918
0.00062312136
0.00051055739
0.00070689469
0.00062234926
0.00047350645
0.00075953748
0.00038498963
0.00063609462
0.00054223618
0.0006574333
0.00084532308
0.00062388863
0.00090976942
0.00054945925
0.00087472574
0.0006156976
0.00085949086
0.00071516173
0.000459967
0.00084176551
0.00041388462
0.00059462994
0.000519923
0.00056332234
0.00084921034
0.00076856246
0.0012214394
0.00088422105
0.0011507667
0.0008258815
0.0010925131
0.00083195943
0.00064055505
0.00082747683
0.00056450923
0.00067340001
0.00058311133
0.00054800769
0.00080451553
0.00066213577
0.0013630695
0.0010181847
0.0013948751
0.00095473979
0.0013356918
0.00094145436
0.00063773752
0.00050581129
0.00070625972
0.00064897693
0.00075434778
0.00066652093
0.00089116357
0.00069392399
0.0013407395
0.00096501508
0.0015770118
0.0010504108
0.0015265159
0.0010305592
0.00068316053
0.00052470279
0.00078474866
0.00062120515
0.0009288237
0.00074002288
0.0010835482
0.00081299799
0.0013924198
0.00093924086
0.0016704603
0.0011088049
0.0016403377
0.001093445
0.00080180477
0.00071935364
0.00088112266
0.00075197915
0.0010331228
0.00082985784
0.0012423405
0.0009127341
0.0015304142
0.0010094843
0.00166279
0.0011700414
0.0016602839
0.0011304846
0.00099894272
0.0010541114
0.00099741809
0.001025608
0.0011050404
0.0010165702
0.0012798596
0.0010311994
0.0015566922
0.0010762236
0.0016064201
0.0012092047
0.0016350482
0.0011545906
0.0011003859
0.001206824
0.0011180777
0.0012276203
0.0011902159
0.0011898599
0.0012958763
0.0011462784
0.0014746739
0.0011281203
0.0015983391
0.001134665
0.0015935682
0.001190018
0.0010520982
0.0011176237
0.00107148
0.0011310781
0.0011790583
0.0011346763
0.0012808056
0.0011328388
0.0014104086
0.0011501849
0.0016201604
0.0011574276
0.0015561197
0.0012351183
0.00081524122
0.0008154165
0.00080041009
0.00075118515
0.00096180507
0.00081943755
0.0011625941
0.00095136306
0.0013170933
0.00106534
0.0015791351
0.0011231273
0.0015407157
0.0012062803
0.00039496179
0.00048052568
0.00040919827
0.00046071196
0.00058358054
0.00059605845
0.00084728987
0.00081955439
0.0010792441
0.00097200361
0.0014185833
0.0011137782
0.0015561136
0.0013023926
0.00023057766
0.00029974586
0.00027960529
0.00033315755
0.00046818601
0.00046358931
0.00075136468
0.00065488138
0.0010920889
0.00091864221
0.0014707082
0.001282372
0.001499
0.0013376428
0.00021914458
0.00027346992
0.00026942423
0.00031839942
0.00045639862
0.00046106148
0.0007820027
0.000691069
0.0011938319
0.0010713806
0.0013986249
0.0013445879
0.0012355961
0.0012693469
0.00024486648
0.00030308247
0.00028885954
0.00035036698
0.00048443332
0.00052405372
0.00085880479
0.00082233377
0.0012763871
0.0012815184
0.0012311014
0.0013524814
0.0010475216
0.00099469828
0.00030289287
0.00035104494
0.00034924583
0.00041198724
0.00055242647
0.00062612276
0.00088831359
0.00096636321
0.0011658011
0.0013510937
0.0010691697
0.0011366543
0.00097352113
0.00086535764
0.00037717668
0.00040398164
0.00044062105
0.00048188659
0.00066367285
0.00072698052
0.00092186197
0.0010410155
0.0010084989
0.001237925
0.00088965283
0.00093913507
0.00088155427
0.00076607295
0.00043030265
0.00043829979
0.00052458529
0.000535658
0.00078312697
0.00080019273
0.0010093126
0.001076817
0.00098627428
0.0011770634
0.00077526387
0.00086448994
0.00069313014
0.00063576746
0.0004394721
0.00043792345
0.00055765598
0.00055122033
0.0008430802
0.00082158094
0.00098607992
0.00090980919
0.0010272878
0.00096490761
0.000782276
0.00089037026
0.00059363491
0.00058205258
0.00041291505
0.00041016152
0.00053875828
0.0005217356
0.00070943535
0.00064376341
0.00073660058
0.00067556538
0.00077986424
0.00073213332
0.00083002508
0.00081098312
0.00060621168
0.00063519386
0.00036276762
0.00035965889
0.00044471953
0.0003987004
0.00045771101
0.00041123775
0.00048131717
0.00043647525
0.00052284241
0.00048704779
0.00057773822
0.00056656467
0.00061517439
0.00062775337
0.00022618216
0.00020319417
0.00022901315
0.00020522374
0.00023471218
0.0002100026
0.00024926616
0.00022335729
0.00028045352
0.00025742804
0.00032762519
0.00032361014
0.00036272979
0.00037752484
7.8883969e-05
7.3426889e-05
7.9365079e-05
7.392747e-05
8.0238396e-05
7.4699e-05
8.4183268e-05
7.7307236e-05
9.7515231e-05
8.9280364e-05
0.00012424736
0.00012269644
0.00014388082
0.00015342868
1.3338783e-05
1.3151717e-05
1.3278704e-05
1.3049754e-05
1.3356367e-05
1.3058974e-05
1.3405747e-05
1.3318609e-05
1.4795039e-05
1.4138074e-05
1.9521651e-05
1.8594034e-05
2.4135849e-05
2.6159535e-05
8.1102848e-07
7.9444067e-07
7.5329403e-07
7.1661194e-07
6.9873404e-07
6.2259992e-07
7.7224706e-07
6.3548656e-07
1.064338e-06
9.5234347e-07
1.5080459e-06
1.5871363e-06
1.5830389e-06
1.8096309e-06
9.0612221e-08
9.8263585e-08
7.6024897e-08
1.2781371e-07
1.0012951e-07
7.7888163e-08
1.4334928e-07
6.8633453e-08
3.3221071e-06
2.9940071e-06
3.43114e-06
4.1489894e-06
2.8273774e-06
4.2947112e-06
1.7388857e-06
2.599443e-06
3.6274459e-05
3.483154e-05
3.8719739e-05
4.2751031e-05
3.5926901e-05
4.4817607e-05
2.8086829e-05
3.2568686e-05
9.7820192e-05
8.8099026e-05
0.00010883693
0.00010551341
0.00011119611
0.00011377983
9.8021489e-05
9.7320727e-05
0.00015652557
0.00013694437
0.00017664731
0.00015592534
0.00019201826
0.00017482654
0.00017942457
0.00017318881
0.00020625075
0.00018043447
0.0002342571
0.00020038761
0.00026638438
0.00023433155
0.0002583889
0.0002582362
0.00025848337
0.00022943657
0.00029584602
0.00025766179
0.00034522263
0.00030720316
0.00034718994
0.00036079318
0.00032415195
0.00029114195
0.0003736904
0.00033362564
0.00044493348
0.00041202138
0.00045886418
0.00048051414
0.00041958835
0.00037141341
0.00047877927
0.00043002937
0.00057017423
0.00053106898
0.0006117087
0.00060798011
0.00053384591
0.00047065496
0.00060465935
0.00054267961
0.00069666463
0.00064992501
0.0008072317
0.00069102216
0.00066242275
0.00058377151
0.00070224519
0.00064069002
0.00076290486
0.00068427407
0.0010492221
0.00076420275
0.0007315958
0.00069525162
0.00076552393
0.00071203407
0.00087727098
0.00074506822
0.0012965845
0.00087488973
0.00086563215
0.00081873739
0.00090291685
0.00082090705
0.0010664806
0.00085680345
0.0016173152
0.001039858
0.0011243212
0.00093534082
0.0011685326
0.0010273281
0.0013793005
0.0010601435
0.0018928572
0.0013023173
0.0013680357
0.0010606451
0.0014662547
0.0011799538
0.0016897977
0.0013436575
0.0021028944
0.0015113077
0.0015459907
0.0011632307
0.0016342213
0.0013011689
0.0018406352
0.0014859376
0.0022021966
0.0016319627
0.0016571978
0.001241428
0.00173853
0.0014013991
0.0019241944
0.0016104987
0.002219575
0.0017525945
0.0016962663
0.0012868793