/*--------------------------------*- C++ -*----------------------------------*\
| =========                 |                                                 |
| \\      /  F ield         | OpenFOAM: The Open Source CFD Toolbox           |
|  \\    /   O peration     | Version:  2206                                  |
|   \\  /    A nd           | Website:  www.openfoam.com                      |
|    \\/     M anipulation  |                                                 |
\*---------------------------------------------------------------------------*/
FoamFile
{
    version     2.0;
    format      ascii;
    arch        "LSB;label=32;scalar=64";
    class       volScalarField;
    location    "300";
    object      omega;
}
// * * * * * * * * * * * * * * * * * * * * * * * * * * * * * * * * * * * * * //

dimensions      [0 0 -1 0 0 0 0];

internalField   nonuniform List<scalar> 
50904
(
5142859.1
5041075.5
5111772.2
4983452.5
1044976
1020772.8
1006142.9
991427.48
423221.34
412608.66
357437.99
353495.03
205291.97
200643.65
173426.36
170504.81
118670.69
115950.26
107785.85
105896.18
80987.366
79217.764
79190.702
78092.454
61962.531
60897.72
64296.225
63827.092
50546.979
50059.186
54989.925
55049.239
42305
42269.97
47585.88
48181.649
35293.693
35617.366
40549.125
41680.415
28822.578
29422.993
34115.384
35533.355
23453.696
24039.576
28772.426
30272.55
19654.893
20068.927
24611.3
26099.699
17479.061
17643.693
21508.557
22771.042
16955.502
16861.701
19569.683
20214.133
17511.521
17282.063
19248.198
19103.093
18350.652
18180.954
20128.687
19516.5
19384.464
19491.011
21616.262
20780.75
20749.211
21254.005
23563.026
22620.024
22509.041
23456.105
25995.101
25114.975
24750.154
26246.7
28805.884
28232.1
27659.477
29954.837
31690.076
31536.272
31666.512
35010.469
34244.131
34451.56
36497.433
40995.366
36586.854
37086.05
42105.877
47635.195
39214.763
40117.944
48474.49
54611.321
42114.274
43539.07
55573.408
62061.741
45269.215
47248.247
63937.662
70715.193
49211.19
52317.689
74277.228
81138.568
55321.299
59887.347
87632.004
94331.503
65159.523
71759.316
105998.98
112601.87
82202.878
91731.721
133549.05
142012.46
115476.55
129244.68
182102.17
201765.27
193095.84
212215.48
303832.24
360853.25
423329.09
438908.98
825836.51
914085.21
1023095.5
998501.48
5299216.8
5299006.6
5334400
5312362.6
5056698.9
4896760.6
5014100.3
4846291.5
4995802.5
4824200
4987401.2
4814108
4983188
4809597.3
4981427.9
4808451.7
4980791.8
4809002
1005975.8
974189.09
979386.11
932911.61
990816.37
917029.21
940521.76
881685.02
872714.03
847749.08
835438.72
819447.72
807124.6
796538.91
371950.38
356082.22
379654.35
342096.81
398300.96
353222.66
383983.25
348176.09
368935.55
339927.19
356823.88
330050.92
345954.1
320135.45
179990.88
172263.33
187645.44
169635.5
202232.85
180152.52
209558.77
188543.49
216126.89
195991.22
221964.82
200671.6
225946.55
203031.97
111124.23
107430.03
118068.32
111064.44
127252.04
119570.22
135888.65
127830.92
144395.44
135165.01
151896.54
141025.02
157996.46
145621.21
81479.361
79848.241
88304.138
86255.915
95583.81
94097.888
102538.73
101215.85
108543.53
106749.9
113547.52
111003.43
117767.21
114486.56
66240.844
65716.374
73323.307
73629.483
79841.626
81505.365
85204.739
87563.766
89155.656
91813.788
92111.646
94999.206
94531.924
97709.601
56711.582
56871.181
63733.267
65069.312
69423.497
72242.996
73571.75
77400.589
76381.011
80994.942
78355.684
83830.298
79979.907
86454.265
49350.08
49969.251
55736.081
57387.562
60214.911
63182.609
63234.674
67136.018
65154.943
69860.599
66460.456
72059.554
67557.213
74176.651
42911.115
43882.697
48557.593
50277.289
52042.33
54776.375
54318.091
57743.816
55686.644
59622.005
56498.185
60967.679
57054.385
62150.826
37452.088
38746.857
43248.425
45227.948
46724.735
49456.095
49040.601
52103.053
50388.764
53521.034
51008.439
54310.752
50997.579
54670.058
33229.175
34875.611
40552.755
43070.163
45280.518
48367.586
48718.811
51727.192
50919.212
53522.064
52251.525
54375.937
52150.539
54167.697
30172.911
32154.035
39235.655
42605.926
44905.263
49127.164
48862.062
53304.563
51328.112
55644.385
52960.773
56884.99
53478.135
57171.598
28155.836
30333.358
40276.191
45241.957
48535.168
56252.61
54517.914
64663.702
58486.267
70561.416
61059.627
74472.87
63016.378
77393.428
26709.045
28212.291
43464.483
47811.815
56675.46
64480.774
66727.461
77977.384
73976.268
88047.208
79107.413
95404.585
82737.078
100806.04
25155.775
25253.584
43534.045
44797.121
58357.393
62000.223
69733.294
75572.993
77885.999
85493.335
83602.423
92603.864
87644.787
97841.813
24490.125
23561.036
43294.633
42154.17
58681.521
58955.084
70205.541
71139.66
78149.792
79767.84
83507.656
85696.73
87145.404
89877.096
25384.068
23911.353
44208.706
42468.332
60087.685
58773.995
71872.423
70406.489
79851.748
78332.238
85103.309
83629.431
88535.739
87197.989
28070.872
26046.099
47156.546
45891.862
63570.647
62746.485
75650.174
74842.477
83758.81
82997.24
89035.012
88380.098
92425.373
91936.499
32377.745
30435.593
52463.48
52080.548
69940.592
70631.32
82753.082
84223.022
91360.654
93528.013
96958.554
99712.39
100547.55
103787.59
37682.641
36990.048
59278.717
60173.828
78310.7
80862.177
92120.475
96300.552
101305.61
107075.74
107254.86
114418.84
111056.52
119287.14
42300.837
43169.298
65181.243
68284.038
85737.758
91029.952
100660.06
108343.23
110348.94
120676.86
116392.06
128936.84
120123.3
134353.9
44484.554
46258.439
64366.459
70053.386
83699.732
92763.457
99349.12
110585.68
110372.75
122900.21
117512.2
130830.24
121856.74
135623.71
45364.682
46939.349
57874.193
63165.408
67181
77290.501
73028.662
87493.932
76149.077
93940.784
77584.415
97658.052
77352.359
99408.692
48000.765
49021.269
57612.653
59762.612
63448.318
67385.378
66837.604
72055.993
68800.442
74616.157
70017.544
75943.283
70914.723
76637.691
51865.7
53018.612
61874.708
62853.192
67605.346
69252.618
71030.397
73406.374
73112.941
76013.373
74464.796
77691.922
75444.25
78854.716
56151.832
57827.67
67344.654
68333.313
73673.724
74916.077
77374.69
79213.952
79553.682
81957.576
80903.607
83741.042
81808.952
84965.658
61087.393
63504.978
73032.377
74508.117
79831.846
81364.489
83854.271
85968.48
86162.819
88929.501
87513.184
90809.975
88344.02
92022.201
67941.526
71358.862
79807.465
81957.936
86223.645
88264.841
90271.297
92847.243
92742.194
95936.503
94215.211
97887.117
95119.917
99085.309
79217.588
84141.08
90523.167
93408.768
95378.263
97735.412
98702.678
101410.29
101217.49
104345.12
102947.62
106355.02
104103.11
107625.74
100042.67
107512.97
110807.51
114527.06
112767.08
115004.17
113807.23
116098.39
115601.4
118113.33
117352.78
120005.39
118685.18
121412.86
142444.19
154380.1
152971.61
157919.5
150064.68
151683.56
145330.78
146517.47
144083.41
145402.1
144985.64
146519.1
146242.86
147961.12
236089.53
253733.23
248701.23
256461.28
238028.97
238658.47
219224.76
218834.22
207445.63
206970.56
204263.09
204097.2
204668.92
204845.87
457415.97
477152.37
489355.17
504785.66
476661.85
483694.54
430429.82
432976.83
386061.19
385143.52
365150.38
362465.96
361057.07
357682.67
1057845.8
1055027.9
1156639.5
1177938.4
1216790.3
1232195.1
1173237.2
1189665.9
1079086.6
1088843.9
999998.44
999684.56
971252.43
961795
5319131.1
5276257
5284592.9
5218804
5275955.4
5201680.6
5279250.1
5202778.7
5282228.4
5204582.9
5279857.5
5200735
5275320.5
5194682.3
4979827
4809138.1
4977941.5
4808243
4976215.8
4807512.7
4974123
4806398.9
4971129.1
4804090
4966537.1
4799410.4
785841.47
778407.47
770797.48
765642.98
763381.17
760537.48
760762.18
762953.79
763418.36
781681.36
771945.43
861660.96
335365.64
310709.12
324175.93
302168.46
314312.56
296111.48
304385.59
292060.55
293945.22
292233.85
279685.99
304514.26
227523.94
203387.23
226277.16
201951.75
222534.1
199079.53
216703.15
194938.73
210326.73
190164.69
202421.1
185207.83
163249.39
149399.28
167669.21
152584.82
169184.02
154401.26
168440.51
154812.46
167186.83
154322.93
167337.43
153592.23
121545.72
117620.89
124991.97
120600.24
127546.93
122928.11
129732.87
125278.04
132258.09
128401.26
137344.46
133968.08
96831.952
100360.99
99203.582
103069.16
101488.85
105407.23
104328.05
107840.95
108405.93
111336.68
115937.01
118779.52
81669.546
89285.041
83605.476
92387.468
85681.108
95444.723
88443.919
98511.206
92576.567
101078.36
100067.51
107263.54
68767.997
76578.867
70240.181
79340.556
71942.456
82371.278
74436.316
86338.006
78289.384
89979.859
84374.492
94397.117
57627.316
63478.493
58365.408
65058.026
59317.691
66849.081
60847.916
69530.139
63543.661
73566.755
67960.471
78323.091
50727.519
54907.652
50610.352
55256.575
50688.604
55812.875
51046.181
56848.078
52019.818
58878.487
54255.125
62495.074
50703.175
53140.508
49351.778
52059.636
48387.739
51418.194
47513.415
51047.345
46709.287
51057.047
46580.33
52153.461
52302.938
56196.158
50468.141
54188.041
48896.012
52451.075
47459.836
50671.122
45829.213
48978.863
44225.927
48039.305
63674.028
78780.296
61466.127
76324.81
58556.73
72342.993
55164.545
66556.169
51579.307
59600.646
47824.43
52503.758
86364.618
106139.58
89663.223
110539.65
88731.59
109161.49
83142.268
100978.76
73094.996
85776.543
61753.54
68868.629
91103.316
102284.63
94864.222
107386.66
98124.754
112568.18
98229.862
113104.81
91829.78
102994.03
80058.712
86054.871
90052.075
93289.767
93073.478
96519.881
96193.445
99881.284
98427.09
104031.21
96630.46
104160.87
89595.848
94817.533
91169.457
90059.341
93721.771
92502.363
96211.649
94801.124
98221.816
98004.764
97424.175
100360.72
92415.077
96396.593
94968.099
94707.427
97372.63
97062.304
99629.066
99189.934
101274.09
101808.49
100016.55
103186.97
94284.215
98826.893
103208.67
106893.61
105663.62
109790.15
107824.19
112461.86
108788.23
114476.74
105946.73
112772.3
97782.837
103583.58
113837.36
122980.62
116312.94
126617.68
118222.94
129612.4
118160.05
129908.1
112886
123466.36
100888.94
107932.92
122770.63
138764.75
124809.84
142678.63
125605.17
144119.21
123133.79
140225.74
113823.59
127137.06
97119.118
104695.48
124862.33
139005.27
124587.58
140132.4
118613.68
136372.07
107193.97
125832.53
92702.852
108022.33
79433.276
87714.974
76100.756
98176.295
74679.658
92970.045
73575.929
87594.892
72680.787
82697.946
72092.613
78194.67
72275.067
74334.873
71732.164
76982.381
72541.12
77031.371
73314.387
77125.726
74162.887
77304.562
75068.183
77490.685
76317.641
77951.788
76346.215
79859.782
77322.508
80850.051
78284.26
81766.146
79138.547
82545.464
79668.349
82915.292
80217.832
83274.878
82547.593
85971.935
83248.305
86904.022
83845.619
87711.19
84291.489
88378.598
84431.167
88664.098
84494.207
88895.215
88937.881
92904.824
89435.611
93640.311
89795.35
94166.204
89970.862
94503.044
89866.539
94597.864
89731.54
94784.002
95747.158
99868.518
96259.185
100465.94
96577.944
100823.13
96556.616
100960.98
96165.627
100878.11
95955.818
100977.18
104920.41
108443.52
105558.47
109072.78
105801.19
109428.62
105426.93
109473.57
104767.92
109209.27
104732.24
109247.25
119622.85
122390.5
120279.94
123177.13
120372.59
123627.74
119844.75
123656.14
119301.3
123385.58
119850.71
123775.63
147234.49
149146.48
147924.32
150197.58
148019.5
150793.24
147636.65
150845.7
147538.51
150736.46
149208.81
151907.78
205592.35
206107.27
206375.83
207235.59
206867.79
207930.81
207280.89
208222.81
208771.64
208980.97
212424.84
211674.13
361175.06
357530.76
362422.44
358215.81
364271.46
359064.96
367152.58
360241.36
372459.34
363144.76
382131.98
370081.52
966389.04
952394.18
966780.21
947548.48
970762.37
946500.89
979362.03
949021.13
996948.05
957832.28
1034801.7
979785.33
5271190.1
5188866
5274739.3
5189886.7
5277467.5
5190161.6
5280589.4
5190201.2
5286865.2
5191240.5
5299815.3
5194699.6
4958838.9
4794159.2
4953109.2
4790080.6
4950884.6
4787174.4
4949424.6
4785838
4948122.3
4784998.4
4946536.1
4783957.3
802203.89
940035.37
730138.33
896986.43
703726.44
835888.64
699268.58
816175.46
697914.17
810792.63
697518.64
808318.68
249732.63
328412.47
214598.59
296241.3
205492.57
273926.12
202690.3
271775.74
201300.08
276865.43
200671.65
285908.4
179165.22
178459.41
144855.1
160923.96
130271.44
154929.83
122686.46
154795.95
117695.21
156991.35
114944.75
161691.58
162415.28
150557.31
143081.56
142817.63
130037.42
139500.72
120028.52
136874.75
110595.36
134099.08
102385.18
131969.42
147746.34
143748.15
152747.23
151138.07
149212.77
152704.57
140423.22
150207.14
126746.93
143436.34
111671.49
134300.74
133580.63
137465.13
154646.33
159101.97
161726.7
167768.83
158625.45
168382.55
146353.82
161249.13
128623.97
148504.4
118599.17
128040.91
144126.72
156007.52
157463.53
170168.85
162447.77
177212.75
156607.5
175040.71
141141.78
162682.49
98292.011
110443
117948.44
133211.39
129784.42
145923.35
138871.18
155338.09
146346.15
164939.77
146049.3
169882.05
75824.825
87996.414
85752.901
100723.96
91627.844
107917.1
96522.022
113866.58
102080.81
120696.97
110314.73
130066.98
58101.995
68113.006
62150.868
74155.292
64587.354
77609.933
66894.838
80755.21
69829.128
84668.403
74191.802
90427.338
48387.454
55174.202
50648.346
58454.241
52078.172
60453.224
53452.1
62396.318
55241.067
64909.123
58019.167
68670.134
45002.569
49324.555
46913.45
51414.494
48221.446
52784.889
49478.985
54151.528
51073.709
55950.819
53498.652
58798.001
46903.798
50535.681
48410.719
51519.733
49631.185
52296.893
50843.028
53087.848
52493.286
54160.562
55514.522
55885.25
56459.66
61988.124
56304.344
62927.281
56815.291
63995.788
57453.204
64827.066
58402.778
65394.517
59737.462
64966.848
74116.663
79060.492
75340.031
82535.668
76677.935
85109.288
77713.315
86965.82
78716.301
88554.443
79003.787
88056.459
86279.097
90511.872
89232.915
95012.924
91643.055
98132.778
93273.071
100220.64
94925.915
102341.69
96912.89
104648.09
89882.544
93753.401
92414.639
96816.521
94661.952
99042.31
96291.862
100573.38
97844.932
102160.47
100048.24
104412.56
90184.777
94582.954
91121.615
95637.504
92477.647
96752.626
93568.362
97549.339
94649.493
98317.445
96271.724
99258.949
90813.081
95028.227
90073.634
94293.88
90636.216
94531.433
91236.519
94738.586
91911.15
94884.812
92998.107
94878.475
89742.205
93385.766
87196.268
90358.353
87102.897
89942.064
87352.468
89828.508
87801.556
89753.42
88657.783
89587.584
83049.492
87055.945
80050.045
82703.263
80025.426
82169.376
80488.954
82171.258
81305.936
82411.483
82911.281
83010.512
72862.286
75767.293
73735.588
74602.41
74988.236
75005.696
76477.463
75692.541
78571.85
76777.952
82476.784
78900.346
74430.913
73663.86
78369.287
75644.631
80748.292
76861.26
83226.02
78252.504
86965.255
80275.996
91279.875
81948.733
79007.694
80011.654
83050.221
83451.866
85362.788
85149.584
87287.96
86284.481
86934.444
84616.168
80801.764
77577.121
81625.625
84826.354
83778.15
87174.273
84556.869
87741.761
83517.287
86138.857
79390.38
80755.858
71924.63
71690.691
84973.883
89909.938
85665.368
91354.948
84977
90882.77
81976.782
87450.847
76804.832
80758.231
70173.169
72044.074
90037.552
95715.587
90437.971
97063.083
89276.124
96036.757
85865.917
91619.337
80624.243
84484.713
75112.672
77078.975
96502.518
102004.23
97209.769
103497.64
96273.242
102320.56
93551.291
98068.423
89432.117
91736.683
84959.052
85737.493
105753.04
110397.68
106935.85
111784.76
106419.1
110697.19
104393.87
107415.01
101109.99
102841.23
97372.276
98361.196
121542.31
125510.83
123082.52
127179.81
122879.65
126581.91
121213.12
124336.82
118335.15
120960.7
114900.17
117299.47
151890.06
154984.75
153550.08
157480.79
153717.17
157766.26
152364.07
156383.23
149741.7
153837.21
146496.53
150816.01
216412.12
217357.11
216108.27
220403.34
216665.43
222154.98
216312.64
221915.67
214655.32
220524.25
212419.51
218806.71
388979.94
382943.34
377705.72
385621.83
382248.98
392681.42
385119.03
396759.21
386548.32
399371.9
387561.06
401846.62
1063917.4
1019276.7
1014911.7
977247.61
1022666
987823.64
1039572.8
1002741.6
1055660.5
1018822.1
1073593.3
1038408.7
5325511.4
5208845.5
5347766.9
5220835.2
5352155.5
5221063.6
5352256.4
5219160.2
5350578.7
5216279.7
5347659.9
5212345.2
4953031.3
4791781.2
4951735.9
4791427.8
4951390.5
4791926.8
4953161.1
4794139.1
4959196.1
4799838.3
4974935
4814429.8
5019259.2
4858886.6
698353.12
805003.38
699900.39
807002.95
703666.64
817949.89
710436.31
843368.61
719609.11
891797.78
731995.79
904017.96
752398.48
806603.42
201581.33
298613.74
203516.99
312946.44
206756.08
325332.56
211785.61
337608.95
219196.12
354757.57
229311.52
359340.86
243742.57
322524.25
114073.01
170576.61
114018.1
182836.39
115016.09
198437.22
117352.9
212762.52
121530.1
220613.18
128199.03
219374.55
137222.95
196078.87
96785.987
132141.19
94345.491
135094.07
93742.859
141089.23
94323.696
150501.85
96623.365
160400.08
101167.63
162355.29
107081.28
153774.01
99769.116
126969.79
93204.46
123098.73
89300.493
121436.98
87890.393
122772.09
88815.318
128161.57
92223.818
134334.13
97555.37
139461.43
111521.59
135152.67
99484.522
125694.19
90835.042
117928.06
86596.301
113303.51
85836.606
113582.22
88055.025
119542.16
92812.684
129340.54
124123.02
147066.12
110233.33
134301.71
96753.103
122079.58
87905.336
112741.13
84587.845
108947.99
85077.987
111162.81
87967.811
117358.62
133395.99
159769.57
119572.28
144825.4
104508.13
128800.49
91561.94
115323.04
84211.402
107441.94
82057.368
104697.38
82338.137
104653.12
118430.32
141991.64
118054.09
146366.28
107648.08
135211.2
93918.202
118127.4
83448.615
104924.12
78453.805
97546.807
76658.103
92894.63
79853.368
97562.769
86271.122
105549.79
90531.854
114398.14
87003.792
112219.98
79352.513
99375.154
73854.572
89196.708
71123.683
82405.288
61424.401
73252.102
64879.265
78196.85
68209.748
84185.816
70032.153
89582.212
69285.519
87797.895
67515.878
79999.415
65439.586
72964.548
57464.204
62624.967
61177.979
66434.01
60538.312
69428.917
59049.615
71518.123
58575.73
72298.34
59000.383
70048.645
59373.021
64728.802
59807.66
58216.638
61339.525
60757.427
58262.607
62124.467
53770.74
61239.494
50967.982
60469.177
50723.213
60063.192
52104.834
57344.994
60645.32
64069.499
60533.521
63412.656
57714.922
61937.719
51854.508
57502.667
46136.111
53073.765
43896.434
51713.004
44756.029
50625.386
76655.965
83409.396
72492.758
77783.628
65687.823
71176.241
55654.938
62227.923
45234.494
51706.667
39685.028
46696.407
39317.891
45581.009
96080.753
103058.9
91153.367
97389.793
80877.344
87720.127
65440.79
74071.86
48505.956
56818.523
37627.653
44679.932
35541.113
41801.947
101741.39
105768.83
99794.046
104609.99
91641.604
98740.618
75652.446
86419.108
54772.981
66355.799
37864.803
45895.911
33236.7
39222.677
98263.754
99913.884
98769.031
100030.07
94855.38
98434.537
83202.35
92009.378
63090.189
76165.181
41332.842
51280.24
32003.907
38277.47
94272.805
94452.386
94543.477
93697.84
92278.423
92299.955
84873.137
88958.84
69162.141
79630.366
46757.402
57731.671
31932.706
39046.067
89586.717
89075.929
89398.537
88145.8
86848.642
86411.647
80709.039
83188.33
68926.515
76611.169
50566.045
62498.851
32723.042
40902.298
85127.2
83910.88
85315.182
84045.799
81049.359
82041.036
72842.005
77435.186
62061.475
70888.444
48713.957
61132.955
33819.281
43775.743
86969.329
81500.431
84162.411
81361.205
73128.961
76316.766
61617.669
69327.443
52802.238
62983.954
44257.443
55525.361
34064.056
43764.189
84835.907
78224.807
72220.196
71553.848
58201.262
62554.857
49726.592
55436.589
44648.728
50889.226
39983.231
47424.872
33780.708
41404.682
69069.311
67484.279
58780.417
59707.834
49310.272
52622.252
43551.652
47710.907
40359.582
44660.554
37863.796
42943.902
34253.455
39961.191
62847.214
62818.853
55190.626
56476.179
47569.379
50519.011
42635.236
46212.569
40046.015
43530.292
38461.172
42272.253
36259.487
40747.36
63402.204
64586.332
57651.152
59159.254
51427.562
53958.04
46807.949
50061.356
43817.108
47056.967
41960.107
45158.12
39892.487
43832.623
69792.646
70884.6
65396.168
66525.502
60672.43
62403.104
56753.165
58913.236
53259.741
55630.233
50388.964
52906.203
46999.403
50613.97
80837.896
81157.084
77534.49
77873.02
74087.462
74557.583
71206.02
71606.363
68625.223
68811.807
66255.106
66698.952
62474.831
64700.351
93913.271
94640.306
91258.619
91886.514
88628.656
89069.985
86580.365
86478.789
85355.06
84218.146
85549.842
83534.615
86098.85
85266.117
111648.97
113983.84
109138.89
111416.95
106493.35
108542.14
104330.75
105618.34
102993.48
102625.19
104003.95
101422.19
108671.02
105779.51
143227.74
147882.62
140538.73
145455.8
137379.63
142409.18
134144.45
138459.99
130650.52
132602.18
129303.17
127217.32
134349.84
131002.21
209992.92
217551.44
207962.59
216773.61
205433.39
215462.41
200502.66
211085.87
191023.07
198447.63
182214.93
180062.45
184984.83
179832.16
389851.54
405659.17
392362.33
409386.58
397283.55
415403.44
394536.85
419716.86
368030.14
394188.87
334361.45
331063.36
334237.66
320816.65
1096808.5
1067037.6
1118471.1
1096557.6
1143044.9
1136190.2
1166824.4
1179006.6
1112667.1
1164998.5
1007023.4
1013855
994098.84
949943.14
5359750.6
5223049
5369543
5232529
5385831.9
5248115.6
5421848.5
5282909.4
5497924.2
5362368.4
5644698.9
5523180.9
5892780.9
5788867
5065405.7
4916016.8
5147251.3
5018945
5284873.3
5186604.8
5483577.9
5414020.6
770964.6
747975.94
770497.8
757323.61
780395.54
755150.33
806730.55
777528.66
243397.02
272916.71
228939.05
252462.6
219787.17
234273.1
242218.33
226934.94
133651.91
176172.92
122622.51
159832.08
116209.32
143107.06
143457.18
126514.54
105925.76
153918.51
96732.707
141989.39
89599.068
122438.99
110960.7
96870.705
97525.317
145179.76
88805.361
135225.91
79947.014
111412.75
102590.45
84312.982
92090.988
132127.86
84068.196
122638.47
74809.736
100529.01
93642.634
76912.586
86035.98
115986.68
79432.296
106986.43
71039.205
89785.681
83069.261
71937.003
79581.527
100510.95
74563.649
92841.925
67868.061
80556.81
72916.794
68111.886
73638.794
87174.788
69817.955
81040.933
64897.006
72683.432
64331.706
64479.876
68025.528
76006.114
65091.692
71153.255
61114.568
65601.448
57078.675
60243.39
62539.066
66591.863
60151.541
62710.952
56487.183
59024.26
50830.044
55439.083
57067.887
58933.035
55023.454
55784.842
51386.639
53103.229
45543.388
50538.014
51186.746
52694.088
49404.21
49976.489
45993.621
47599.833
40896.844
45566.926
44778.441
47188.29
43551.513
44872.514
40807.087
42536.006
36866.201
40737.43
39664.247
42953.251
38901.937
40969.472
36838.483
38664.653
33912.837
36860.495
35817.001
39524.41
35361.088
37798.616
33822.243
35573.681
31665.941
33690.559
33071.683
36817.805
32614.271
35233.713
31329.783
33067.794
29729.551
31128.511
31030.888
34932.187
30492.329
33321.829
29302.876
31076.704
28027.751
29080.537
29578.603
33855.68
28782.477
31724.431
27642.14
29425.097
26552.791
27457.259
28717.731
33498.614
27415.115
30379.531
26264.711
28007.085
25281.605
26110.022
28091.023
33085.316
26312.436
29091.895
25247.92
26870.594
24401.159
25111.569
27835.164
32542.888
25970.793
28519.346
25143.756
26636.737
24513.578
25038.301
28296.634
32437.445
26731.214
29049.971
26346.187
27722.162
26108.782
26481.02
29993.102
33588.452
28939.115
31062.322
29214.072
30416.453
29515.992
29684.504
33016.179
36314.598
32535.734
34565.567
33525.882
34583.434
34183.067
34315.17
36971.989
40339.293
36892.419
39153.017
38277.409
39539.983
38750.745
39108.849
43007.402
46377.576
42684.123
45024.053
44114.612
45178.554
45903.586
46152.009
55802.875
57902.01
54239.986
55105.663
56018.321
55609.687
60950.15
62162.572
80601.056
81089.977
77047.284
76488.464
77743.624
77769.316
81528.801
87124.475
109110.91
110201.48
104997.07
106584.9
102338.43
106867.8
100294.8
109428.6
138019.89
139211.82
134000.32
136903.03
129244.12
134915.75
124024.3
132132.32
189358.37
188199.98
183974.49
184833.67
177781.38
180423.6
171946.59
175620.92
338397.56
327304.21
325670.55
315882.18
313844.87
306507.72
305053.02
299693.05
1003803.8
957216.2
951028.91
902967.33
906410.65
863297.89
876287.85
840554.23
5960693.2
5866270.6
5806606.6
5727135.8
5636615.7
5582734.5
5480079.1
5454527.4
5087235.3
5151275.6
5041457.7
5088685.6
4999225.6
5010983.3
942990.15
933978.27
832357.67
865361.61
836793.97
783125.4
297591.27
285834.8
305729.54
333638.07
247825.38
233859.77
137772.22
136140.18
165318.96
182744.33
115536.39
113274.63
83177.189
83861.4
105134.19
115008.86
71477.76
71640.531
58654.539
59577.162
71753.922
76828.622
51307.43
51899.806
45214.08
45959.478
51803.958
54534.774
40158.027
40711.275
36714.105
37247.295
39255.709
40876.416
33266.946
33721.889
30652.752
30972.128
30981.81
32020.173
28669.94
29006.352
25900.036
26039.152
25257.42
25985.258
25465.22
25661.295
21954.953
22039.075
21105.02
21646.279
23231.645
23450.396
18828.345
18941.605
18080.738
18512.813
21932.603
22465.736
16710.852
16880.407
16062.277
16446.245
21516.067
22439.701
15678.688
15895.646
14925.976
15276.302
21338.225
22603.947
15634.661
15863.365
14730.229
14941.58
20650.071
21844.636
16177.137
16423.504
15177.594
15445.273
19384.976
19930.293
17035.688
17242.865
15682.991
15909.127
18342.791
18937.396
18274.497
18447.444
16191.083
16465.65
17781.237
18520.319
19857.818
20093.008
16804.216
17174.581
17490.94
18482.258
21605.877
22094.396
17502.415
17974.283
17493.271
18590.57
23182.947
24206.741
17912.5
18478.422
17662.447
18717.828
24530.351
26222.877
17749.63
18215.481
17882.209
18882.627
25258.478
27827.703
17482.799
18057.518
18486.239
19357.224
25068.542
29163.93
18276.468
19434.357
19645.058
20280.724
26473.612
32536.487
20066.945
22128.297
21561.403
21919.551
30348.416
38054.054
23031.11
26497.967
24219.419
24597.283
36227.812
45526.286
27538.084
33023.136
27473.017
28752.318
44461.833
55289.366
34362.076
41984.112
31756.79
35104.593
55542.256
67838.22
44610.185
53785.501
38300.334
44437.878
70447.818
84495.309
58887.1
68860.943
49062.606
57923.593
92306.112
109708.2
78248.85
89377.126
66358.833
77651.213
130051.79
153268.85
108060.28
122929.84
94667.219
109129.13
210398.96
242668.88
166017.39
188567.85
147259.26
163987.43
431471.2
476006.62
318877.98
361006.36
282855.73
297344.84
1226721.4
1232304.7
959749.85
1057488.3
847157.32
857999.87
5286730.3
5268401.5
5257487
5261108.9
5210016.8
5267244.8
5077459.5
5107458
5128656
5147205.3
5160729.8
5171849.7
5079276.6
5108298.2
5124882.6
5138489.3
5145992.2
5151730.2
813749.95
945980.11
985595.32
1022516.3
1044960.5
1050245.6
792614.2
886431.27
929565.71
964296.4
988362.26
1003681.6
262493.29
310705.24
326122.67
359424.76
394685.12
416640.87
259624
290336.08
304566.21
309978.5
328601.83
351486.19
134446.45
151302.65
159454.16
170599.46
186316.08
200163.9
134618.64
146917.27
152589.5
155100.54
161654.35
170610.86
86213.086
94146.288
99643.47
105006.77
111369.84
116955.28
86809.715
94360.353
98761.32
100737.46
103397.76
106930.65
62051.782
67201.834
71712.361
75252.781
78360.519
80662.764
62758.988
68828.945
73519.391
75751.937
77385.325
79020.371
47864.8
51764.518
55758.512
58698.414
60741.061
61952.148
48688.832
53934.101
59030.083
61644.929
63120.658
64160.088
38683.949
41745.097
45080.361
47739.87
49454.592
50418.626
39665.668
44068.645
48673.378
51437.49
53244.91
54518.799
32344.924
34708.176
37189.334
39290.707
40896.14
41918.304
33521.512
37149.344
40157.531
42443.673
44607.212
46543.402
27791.905
29513.42
31060.226
32303.954
33537.002
34631.216
29164.875
31970.42
33544.288
34913.749
36775.487
38961.329
24477.13
25603.886
26295.689
26745.716
27321.299
28094.221
26029.055
28068.328
28632.006
29232.602
30524.871
32426.906
22088.862
22681.651
22675.541
22563.767
22604.228
22960.592
23768.008
25134.74
24919.122
24959.215
25724.645
27218.423
20452.492
20632.279
20189.33
19741.978
19444.83
19436.25
22166.84
22977.686
22263.696
21915.747
22204.942
23270.151
19355.758
19350.848
18797.598
18256.19
17795.128
17531.983
20983.284
21474.705
20601.929
20058.986
19956.94
20535.524
18975.239
19013.618
18603.82
18124.075
17629.895
17215.819
20398.469
20932.617
20222.407
19645.832
19263.34
19278.979
19358.865
19510.707
19283.103
18871.899
18363.501
17866.895
20560.529
21459.002
21158.884
20685.181
20143.533
19676.369
20173.083
20323.851
20196.813
19809.273
19265.358
18712.069
21273.548
22572.741
22679.507
22307.647
21684.322
20922.023
21143.19
21226.019
21209.476
20839.473
20266.344
19690.515
22271.661
23856.648
24340.784
24094.488
23490.394
22605.086
22289.229
22333.353
22410.465
22012.417
21383.917
20841.545
23419.68
25101.761
25968.863
25915.777
25447.632
24620.517
23733.662
23787.406
23856.175
23331.632
22649.24
22239.766
24687.786
26413.436
27696.947
27901.314
27558.556
26949.122
25296.833
25555.366
25404.918
24629.905
23957.69
23909.783
25980.697
27752.893
29415.703
29897.879
29779.026
29467.555
27363.402
27665.371
26981.953
25963.658
25465.866
26049.734
27501.939
29326.68
31188.862
31916.953
32045.441
32017.369
30152.558
29777.24
28514.693
27268.18
27282.416
28878.568
29723.205
31473.048
33171.372
33900.196
34163.177
34291.359
31691.196
31646.045
30171.07
28608.781
29240.956
32215.711
31621.262
33837.771
35156.419
35717.389
36084.354
36397.939
31911.451
34438.958
32795.822
30621.902
31640.973
36127.481
33611.191
36315.191
37230.121
37572.679
38000.378
38631.292
33542.946
38146.656
36569.527
33554.716
34701.822
40727.87
35867.322
39077.531
39665.439
39791.904
40182.394
41090.971
36361.756
42644.034
41384.718
37452.408
38586.04
46176.655
38822.403
42459.091
42889.334
42682.332
42869.092
43884.337
40580.898
48329.788
47414.427
42527.681
43711.992
52931.548
42841.112
46898.323
47263.199
46587.138
46429.292
47333.778
46898.235
55832.53
55031.226
49413.202
50937.976
61761.608
48500.564
53004.503
53290.5
52023.94
51457.318
52491.397
56539.037
66454.131
65710.204
59791.078
62032.405
73974.324
56806.136
61788.33
61945.441
59991.788
59059.646
60763.201
71692.392
83024.632
82826.595
77706.7
80645.931
92041.785
69661.547
75274.885
75400.981
72803.947
71754.556
75118.595
97756.222
112350.19
115067.34
113093.1
114345.57
121358.38
91538.96
98352.549
99071.523
96388.925
95991.209
103249.74
151077.64
174791.86
189210.1
189843.05
178955.04
174703.57
135696.38
145480.17
148977.87
148747.54
151108.58
170036.23
297924.84
352655.31
401092.06
365484.65
317917.35
297182.04
256060.58
274148.2
287228.29
300353.95
313519.25
380436.09
906540.21
1065004.8
1014709.5
901143.2
834440.37
813063.16
779174.63
808669.58
842431.34
891075.27
959768.93
1012874.7
5089812.6
5122534.8
5157703.3
5196167.6