/*--------------------------------*- C++ -*----------------------------------*\
| =========                 |                                                 |
| \\      /  F ield         | OpenFOAM: The Open Source CFD Toolbox           |
|  \\    /   O peration     | Version:  2206                                  |
|   \\  /    A nd           | Website:  www.openfoam.com                      |
|    \\/     M anipulation  |                                                 |
\*---------------------------------------------------------------------------*/
FoamFile
{
    version     2.0;
    format      ascii;
    arch        "LSB;label=32;scalar=64";
    class       volScalarField;
    location    "300";
    object      p;
}
// * * * * * * * * * * * * * * * * * * * * * * * * * * * * * * * * * * * * * //

dimensions      [1 -1 -2 0 0 0 0];

internalField   nonuniform List<scalar> 
50904
(
99739.287
99757.208
99876.543
99879.895
99741.118
99758.524
99875.189
99878.721
99742.96
99759.943
99874.248
99878.17
99745.409
99761.944
99873.07
99877.604
99748.446
99764.635
99871.759
99877.406
99752.058
99767.965
99870.375
99877.61
99756.015
99771.731
99868.89
99877.973
99760.051
99775.628
99866.782
99877.957
99764.293
99779.871
99863.152
99876.487
99768.819
99784.796
99858.496
99873.961
99773.547
99790.133
99853.764
99871.509
99778.511
99795.108
99847.311
99867.854
99782.866
99798.69
99837.728
99860.442
99786.833
99801.683
99825.776
99849.148
99788.274
99801.915
99810.902
99833.347
99785.753
99798.743
99794.526
99814.086
99780.803
99792.916
99778.018
99793.667
99774.066
99784.597
99760.828
99771.931
99769.946
99778.423
99746.428
99753.61
99766.345
99768.624
99732.333
99736.69
99773.655
99764.26
99725.58
99727.431
99797.578
99772.262
99725.524
99724.566
99837.347
99794.8
99742.304
99738.68
99877.2
99825.397
99764.834
99761.47
99915.164
99859.987
99786.888
99788.575
99946.162
99886.584
99806.952
99815.381
99968.206
99905.441
99825.219
99837.469
99981.943
99916.562
99840.032
99853.723
99988.731
99921.047
99850.653
99864.948
99990.672
99920.772
99857.915
99872.011
99989.7
99917.878
99862.623
99876.067
99987.106
99913.813
99865.594
99878.28
99984.011
99909.685
99867.673
99879.637
99981.454
99906.435
99869.159
99880.517
99979.701
99904.183
99870.178
99881.078
99978.183
99902.151
99871.325
99881.813
99823.302
99827.116
99869.692
99864.113
99874.366
99858.026
99883.503
99859.078
99890.612
99859.65
99896.696
99860.589
99901.459
99861.1
99823.436
99827.468
99868.918
99863.989
99873.459
99858.181
99881.561
99858.75
99887.741
99858.912
99893.404
99859.719
99898.16
99860.361
99823.753
99828.208
99868.906
99864.948
99873.319
99859.399
99880.687
99859.696
99886.129
99859.253
99891.531
99859.694
99896.513
99860.364
99824.169
99829.465
99868.815
99866.523
99872.748
99861.206
99879.077
99861.365
99883.959
99860.69
99889.445
99861.115
99895.195
99862.059
99824.734
99831.398
99868.968
99869.099
99872.804
99864.269
99878.903
99864.751
99883.959
99864.449
99889.918
99865.3
99896.587
99866.866
99825.457
99833.897
99869.15
99872.405
99872.685
99868.516
99878.558
99869.682
99883.856
99870.051
99890.487
99871.381
99898.144
99873.365
99826.192
99836.73
99869.216
99876.278
99872.403
99873.748
99878.193
99875.589
99883.922
99876.523
99891.334
99878.27
99900.162
99880.672
99826.73
99839.904
99868.969
99880.393
99872.04
99879.949
99877.879
99882.984
99883.734
99884.608
99891.166
99886.481
99900.379
99888.852
99826.977
99843.176
99867.272
99884.077
99870.639
99886.594
99876.228
99890.751
99881.816
99892.811
99888.952
99894.56
99898.222
99896.651
99826.825
99846.001
99863.842
99886.876
99867.681
99892.371
99873.012
99897.873
99878.574
99900.872
99885.24
99902.812
99893.508
99904.789
99826.247
99847.961
99859.035
99887.612
99863.739
99896.261
99869.619
99903.37
99876.001
99907.443
99882.679
99909.213
99888.929
99910.415
99824.382
99848.238
99851.132
99884.666
99857.103
99895.71
99864.217
99904.154
99872.759
99909.417
99881.397
99911.48
99887.73
99912.394
99819.462
99845.097
99837.014
99874.869
99840.717
99884.667
99846.388
99893.335
99855.111
99899.997
99865.851
99904.391
99874.167
99906.631
99810.059
99837.112
99817.217
99859.032
99817.264
99868.073
99820.903
99876.573
99827.688
99884.28
99839.687
99891.569
99852.795
99896.712
99794.941
99822.202
99792.209
99833.674
99788.055
99837.644
99788.881
99842.479
99793.677
99848.292
99802.753
99856.876
99818.199
99869.644
99776.65
99802.607
99768.319
99807.042
99759.651
99804.338
99756.162
99803.252
99756.815
99804.523
99761.428
99809.117
99770.675
99818.208
99758.363
99782.676
99747.794
99786.37
99735.332
99781.655
99727.444
99775.988
99723.401
99771.51
99722.266
99769.695
99723.219
99771.312
99740.326
99763.366
99728.142
99766.521
99713.117
99760.373
99702.227
99751.645
99694.686
99741.904
99688.837
99733.371
99682.885
99727.525
99723.271
99745.799
99708.732
99747.748
99691.35
99739.834
99678.215
99728.297
99668.207
99715.338
99659.115
99703.267
99648.094
99691.763
99707.331
99730.448
99688.837
99730.009
99670.156
99720.597
99655.738
99707.758
99644.03
99695.169
99632.409
99682.163
99617.176
99665.74
99694.261
99717.989
99668.126
99711.607
99646.996
99700.821
99630.989
99688.907
99617.751
99676.771
99604.536
99661.476
99587.377
99642.674
99684.447
99707.69
99645.135
99690.302
99619.293
99678.143
99601.201
99666.804
99587.341
99654.14
99574.6
99638.459
99559.929
99622.171
99685.055
99703.384
99628.921
99670.253
99593.983
99650.844
99571.748
99636.118
99557.116
99624.821
99545.754
99614.084
99539.129
99605.401
99694.877
99707.377
99630.17
99661.356
99593.113
99634.678
99569.465
99616.905
99559.688
99605.864
99559.381
99602.003
99558.791
99603.045
99706.979
99716.055
99638.753
99663.731
99603.626
99635.241
99584.816
99619.697
99575.469
99611.839
99570.864
99612.502
99572.658
99618.517
99718.556
99725.521
99648.099
99669.278
99612.424
99639.22
99594.889
99625.756
99588.376
99622.184
99589.974
99626.661
99599.566
99639.193
99728.375
99734.236
99656.921
99675.917
99621.99
99646.711
99606.411
99636.502
99602.199
99636.26
99606.995
99644.59
99621.71
99662.891
99736.048
99741.31
99663.503
99681.255
99629.052
99652.879
99614.431
99644.796
99611.14
99646.321
99617.387
99656.66
99634.576
99677.561
99741.604
99746.483
99667.978
99684.955
99634.177
99657.488
99620.223
99651.028
99616.76
99653.05
99622.952
99663.702
99640.615
99684.873
99745.465
99750.067
99670.588
99687.088
99637.573
99660.54
99624.714
99655.789
99620.769
99657.674
99625.716
99667.47
99641.882
99687.305
99748.023
99752.352
99671.8
99687.994
99639.574
99662.349
99628.589
99659.961
99625.055
99662.465
99628.531
99671.045
99641.766
99688.031
99749.782
99753.858
99672.171
99688.099
99640.479
99663.074
99631.778
99663.455
99630.149
99667.654
99633.078
99675.259
99643.061
99689.243
99751.222
99755.073
99672.281
99687.989
99640.776
99663.196
99634.325
99665.598
99635.88
99673.035
99639.677
99681.579
99647.153
99693.32
99752.384
99755.992
99672.394
99687.873
99640.804
99663.168
99636.175
99667.114
99641.203
99678.483
99646.782
99689.142
99652.362
99699.55
99753.322
99756.751
99672.579
99687.817
99640.572
99662.784
99637.316
99668.182
99645.785
99683.217
99653.499
99696.441
99658.154
99705.973
99754.445
99757.766
99673.051
99688.087
99640.689
99662.792
99637.729
99668.695
99647.283
99685.135
99655.886
99699.671
99660.404
99709.133
99905.263
99861.235
99908.305
99861.185
99910.503
99860.703
99912.13
99859.494
99913.076
99856.253
99911.012
99845.97
99902.227
99860.619
99906.341
99861.016
99909.981
99861.215
99912.637
99860.532
99913.895
99857.62
99911.55
99847.315
99900.726
99860.667
99905.793
99861.737
99911.06
99863.118
99915.014
99863.181
99916.114
99860.284
99912.819
99849.495
99900.378
99862.657
99906.682
99864.525
99913.452
99867.307
99918.516
99868.541
99919.864
99865.569
99915.235
99853.582
99902.784
99868.17
99910.441
99870.688
99918.854
99874.16
99924.979
99875.98
99926.197
99872.838
99919.936
99859.496
99905.614
99875.166
99914.735
99878.285
99924.791
99882.609
99932.557
99885.506
99934.404
99882.489
99926.874
99867.53
99909.12
99883.062
99919.852
99886.497
99931.537
99890.402
99940.798
99892.622
99943.877
99890.695
99935.659
99876.881
99910.235
99891.316
99922.32
99894.3
99935.548
99897.003
99945.843
99898.085
99950.279
99896.193
99944.647
99885.459
99908.609
99898.774
99921.633
99901.098
99935.927
99903.136
99946.666
99903.984
99951.503
99902.714
99949.022
99895.209
99903.208
99906.942
99916.304
99909.45
99931.182
99912.087
99943.141
99913.756
99949.624
99913.024
99950.028
99907.321
99895.217
99912.358
99905.805
99915.693
99921.19
99919.742
99934.666
99923.131
99942.829
99924.233
99947.676
99920.435
99892.989
99914.142
99900.429
99917.625
99911.524
99922.499
99924.061
99926.929
99933.833
99928.997
99941.787
99928.014
99879.961
99908.57
99886.562
99911.684
99895.67
99915.743
99906.034
99920.238
99914.557
99923.844
99922.622
99925.834
99861.193
99899.937
99867.749
99903.24
99875.357
99907.24
99883.505
99911.479
99890.664
99914.974
99896.569
99917.485
99833.651
99881.522
99843.972
99889.673
99851.492
99896.085
99858.03
99901.875
99863.297
99907.514
99867.422
99913.757
99783.893
99832.532
99798.204
99849.754
99807.893
99860.352
99813.792
99864.022
99817.743
99863.064
99820.551
99866.701
99728.106
99777.088
99737.719
99789.569
99744.504
99801.813
99747.414
99806.647
99748.634
99802.274
99751.021
99792.647
99679.53
99723.609
99681.198
99724.576
99682.274
99729.666
99681.097
99731.282
99678.847
99725.097
99679.051
99712.597
99638.889
99681.062
99634.612
99673.531
99630.806
99669.643
99626.305
99665.406
99621.817
99656.126
99620.431
99641.386
99603.001
99651.219
99593.767
99641.167
99585.664
99631.717
99578.431
99621.877
99572.961
99609.793
99571.292
99598.481
99570.774
99627.45
99558.601
99617.101
99548.024
99606.449
99539.32
99595.639
99533.351
99584.662
99530.974
99578.896
99546.102
99610.276
99535.153
99600.117
99525.344
99589.258
99516.849
99579.064
99509.758
99569.678
99503.818
99566.537
99537.691
99600.404
99534.572
99593.807
99528.474
99585.676
99520.451
99577.045
99510.281
99567.83
99499.842
99559.789
99555.441
99603.231
99549.483
99600.166
99542.768
99594.856
99535.165
99587.272
99527.036
99577.718
99515.895
99566.24
99578.304
99622.608
99582.824
99625.718
99585.541
99629.853
99585.817
99632.292
99581
99629.546
99566.873
99617.119
99612.84
99655.395
99627.802
99674.016
99640.704
99690.605
99646.523
99700.066
99642.907
99699.551
99624.622
99682.751
99640.681
99685.269
99661.988
99711.28
99682.073
99737.04
99693.437
99753.535
99691.329
99756.004
99669.169
99736.365
99656.302
99702.536
99681.147
99732.004
99705.475
99762.769
99720.376
99785.086
99719.192
99790.955
99695.987
99770.351
99663.011
99709.825
99688.7
99739.711
99712.97
99771.779
99727.011
99795.835
99725.598
99802.631
99705.72
99784.36
99662.615
99710.386
99686.135
99738.52
99706.973
99768.536
99718.28
99790.417
99718.077
99797.29
99705.063
99785.123
99658.631
99707.446
99677.555
99731.626
99694.211
99757.152
99703.982
99775.874
99706.605
99783.995
99700.293
99779.529
99655.121
99704.611
99668.761
99723.415
99681.825
99743.524
99691.049
99759.623
99696.146
99769.909
99694.551
99772.157
99655.253
99705.424
99664.144
99719.219
99673.298
99733.883
99681.213
99747.019
99687.815
99758.798
99689.624
99765.673
99657.601
99709.109
99662.95
99718.91
99668.814
99729.116
99675.309
99739.61
99681.909
99751.104
99685.095
99760.519
99661.616
99713.483
99664.506
99720.608
99667.254
99727.204
99671.185
99735.048
99677.265
99745.849
99681.9
99757.236
99663.163
99715.93
99665.064
99721.889
99666.657
99726.794
99669.733
99733.375
99675.691
99744.187
99680.819
99756.373
99908.74
99832.278
99914.502
99829.681
99919.061
99829.941
99922.132
99830.331
99924.701
99830.755
99927.239
99831.075
99908.303
99833.016
99912.326
99829.703
99916.263
99829.853
99919.724
99830.397
99922.867
99831.021
99925.706
99831.384
99908.285
99833.497
99910
99828.341
99913.353
99827.857
99917.12
99828.315
99920.831
99828.91
99923.921
99829.315
99908.934
99834.911
99907.751
99826.572
99910.171
99824.763
99914.048
99824.917
99918.441
99825.397
99922.349
99825.782
99912.072
99838.237
99908.823
99825.318
99910.617
99822.223
99914.181
99821.517
99917.766
99821.355
99921.304
99821.538
99917.521
99843.901
99913.708
99826.839
99916
99822.015
99920.087
99820.259
99923.348
99819.185
99925.531
99818.207
99925.46
99851.722
99922.448
99831.205
99925.855
99824.942
99931.061
99822.491
99935.649
99820.855
99938.615
99818.999
99934.402
99862.863
99932.882
99842.014
99938.912
99836.173
99947
99834.82
99953.526
99833.388
99957.717
99831.218
99942.911
99879.244
99944.458
99865.242
99954.41
99862.535
99969.443
99865.46
99981.94
99868.613
99989.187
99867.582
99948.74
99899.428
99954.165
99895.89
99966.435
99899.193
99986.767
99907.734
100009.32
99917.205
100025.45
99922.326
99951.191
99918.043
99960.237
99922.494
99974.076
99930.839
99996.088
99944.617
100020.86
99959.931
100040.69
99971.393
99949.929
99929.213
99962.353
99936.579
99977.366
99946.572
99999.43
99962.264
100022.22
99979.529
100038.76
99992.676
99930.84
99929.531
99941.177
99937.39
99954.858
99948.167
99975.815
99965.756
99999.911
99984.923
100017.42
99997.213
99901.091
99920.682
99908.958
99927.342
99923.586
99939.247
99948.226
99959.286
99973.634
99980.62
99988.506
99995.433
99869.883
99919.227
99875.976
99928.966
99888.987
99940.607
99908.376
99953.529
99925.012
99964.68
99935.216
99973.917
99822.458
99876.79
99827.393
99889.013
99834.765
99900.744
99844.929
99912.938
99853.602
99922.267
99859.286
99929.205
99753.474
99796.806
99757.155
99811.793
99758.794
99823.966
99759.906
99835.953
99761.912
99844.958
99764.381
99851.549
99681.586
99711.635
99684.877
99728.506
99682.884
99741.836
99676.229
99751.317
99668.57
99758.093
99664.143
99763.787
99621.611
99639.549
99623.289
99659.95
99617.932
99669.498
99605.916
99673.36
99592.33
99675.879
99584.263
99679.549
99571.595
99605.248
99570.459
99620.094
99561.543
99622.937
99543.82
99620.358
99524.2
99617.372
99511.925
99617.198
99528.457
99586.412
99522.948
99592.82
99510.763
99590.096
99488.115
99579.679
99464.251
99568.068
99449.359
99561.405
99497.578
99567.661
99487.243
99566.512
99472.684
99557.862
99447.556
99540.279
99420.727
99521.489
99403.557
99508.487
99487.882
99551.542
99473.136
99541.056
99458.719
99527.008
99437.002
99504.138
99415.406
99482.018
99403.282
99468.16
99497.598
99548.726
99479.131
99531.125
99467.248
99518.333
99455.954
99504.19
99448.064
99492.811
99441.991
99483.369
99540.342
99591.315
99520.309
99574.611
99517.322
99572.302
99517.949
99571.734
99516.076
99568.834
99512.204
99563.028
99588.152
99647.133
99571.786
99635.249
99577.569
99644.136
99583.976
99652.821
99586.146
99656.022
99585.714
99654.62
99625.286
99692.851
99610.074
99684.681
99621.191
99702.16
99633.665
99719.225
99641.905
99729.671
99646.941
99734.675
99650.307
99723.657
99635.765
99718.013
99650.802
99740.808
99669.122
99764.452
99683.876
99782.008
99695.09
99794.081
99664.717
99740.512
99653.02
99736.072
99671.355
99760.734
99694.223
99788.116
99714.01
99810.995
99730.003
99828.897
99672.791
99749.688
99666.029
99748.092
99686.459
99773.054
99711.777
99802.048
99734.203
99827.824
99752.462
99848.738
99677.521
99755.234
99673.977
99757.125
99693.664
99781.288
99720.055
99811.092
99744.03
99838.221
99763.305
99860.017
99680.553
99758.632
99680.68
99763.625
99698.458
99785.755
99724.679
99815.345
99748.957
99842.581
99768.329
99864.331
99682.979
99761.475
99689.694
99772.682
99704.591
99791.704
99727.153
99818.276
99750.201
99844.417
99769.523
99865.631
99683.967
99763.711
99698.552
99784.11
99713.286
99801.879
99731.564
99823.117
99749.701
99843.508
99765.436
99860.381
99685.608
99765.982
99709.062
99796.227
99724.953
99814.22
99738.98
99830.224
99751.659
99844.495
99762.948
99857.181
99686.284
99767.204
99713.288
99801.712
99730.315
99820.533
99742.195
99833.96
99751.857
99845.108
99760.93
99855.878
99930.126
99831.497
99933.111
99832.036
99936.108
99832.451
99939.622
99832.843
99944.071
99832.822
99952.066
99836.531
99989.611
99890.59
99928.749
99831.897
99932.084
99832.531
99935.448
99833.079
99939.261
99833.585
99943.765
99833.098
99951.54
99835.812
99989.069
99889.795
99926.833
99830.013
99930.116
99831.146
99933.456
99832.322
99937.359
99833.133
99942.181
99832.229
99950.243
99834.13
99988.414
99889.057
99925.458
99826.241
99928.675
99827.126
99931.683
99828.647
99935.06
99830.441
99939.569
99830.135
99948.196
99832.096
99987.785
99888.895
99925.366
99821.921
99929.444
99822.344
99932.676
99823.197
99935.58
99825.655
99939.204
99827.013
99947.224
99830.182
99988.047
99889.543
99928.513
99817.687
99932.365
99817.626
99935.949
99818.173
99938.97
99820.524
99942.617
99823.382
99949.304
99829.05
99990.615
99891.631
99941.116
99817.249
99943.636
99816.274
99945.94
99816.515
99948.773
99818.47
99952.075
99821.651
99957.32
99831.725
99997.139
99896.8
99961.663
99829.545
99965.84
99828.692
99968.636
99828.773
99970.62
99829.8
99971.383
99831.201
99975.007
99844.921
100009.76
99908.249
99994.581
99866.01
100000.15
99865.699
100003.78
99865.331
100004.98
99864.128
100003.11
99863.287
100003.36
99875.408
100029.91
99929.961
100035.56
99926.677
100042.9
99929.149
100047.16
99928.196
100047.8
99925.229
100044.13
99919.773
100040
99923.077
100056.35
99961.751
100055.76
99979.843
100067.22
99987.169
100074.12
99992.24
100077.59
99991.29
100075.47
99982.853
100070.47
99976.263
100081.23
99996.457
100050.35
100003.19
100058.89
100012.52
100066.09
100018.53
100072.64
100020.91
100077.38
100018.91
100078.63
100012.15
100090.58
100021.16
100025.12
100005.52
100030.21
100013.44
100034.89
100017.8
100040.31
100019.42
100047.7
100019.81
100056.72
100019.06
100072.55
100024.64
99996.054
100005.24
100002.5
100012.74
100007.1
100016.36
100009.17
100015.26
100010.32
100010.13
100013.8
100004.08
100025.1
100002.92
99942.504
99982.82
99949.072
99990.881
99953.193
99994.491
99952.915
99992.934
99948.103
99983.688
99941.845
99966.553
99941.902
99949.353
99862.867
99935.732
99865.925
99942.043
99868.181
99946.409
99867.256
99946.299
99858.7
99935.203
99843.586
99909.124
99831.988
99874.34
99765.529
99857.8
99765.932
99863.662
99766.218
99868.713
99765.044
99871.689
99757.99
99865.208
99739.477
99834.465
99722.904
99793.548
99662.44
99769.623
99661.453
99775.326
99661.313
99781.616
99661.29
99787.381
99658.766
99787.997
99645.253
99764.431
99632.026
99721.579
99580.469
99683.908
99578.53
99688.784
99578.138
99694.531
99578.099
99701.021
99577.575
99705.58
99573.085
99697.357
99569.004
99669.709
99504.987
99618.293
99500.232
99619.698
99498.829
99622.392
99500.89
99626.788
99507.873
99632.996
99524.418
99643.763
99539.94
99635.364
99440.067
99557.602
99432.43
99554.445
99427.809
99552.708
99428.168
99552.838
99438.888
99557.121
99472.612
99577.093
99522.419
99604.234
99394.724
99502.033
99386.589
99496.709
99379.446
99492.104
99378.859
99490.169
99394.216
99494.222
99444.746
99524.886
99536.133
99607.344
99396.894
99458.799
99390.83
99450.755
99385.507
99443.086
99385.313
99438.094
99400.776
99442.096
99457.64
99481.287
99586.195
99615.726
99436.567
99474.581
99431.785
99465.937
99428.578
99456.821
99430.42
99448.532
99446.967
99448.213
99504.857
99482.783
99655.733
99648.944
99508.698
99556.764
99505.499
99549.135
99502.797
99538.314
99504.732
99526.459
99520.081
99520.999
99575.409
99549
99738.162
99731.44
99585.619
99653.739
99584.906
99651.081
99581.512
99640.797
99580.462
99625.279
99590.199
99610.358
99644.499
99629.475
99820.668
99832.212
99652.421
99740.977
99656.26
99744.946
99652.382
99735.303
99646.464
99714.405
99648.202
99686.238
99701.12
99699.153
99886.396
99918.901
99706.875
99808.116
99715.93
99819.269
99712.768
99811.975
99703.249
99788.939
99696.933
99749.885
99746.354
99758.153
99937.737
99991.026
99746.147
99848.353
99758.964
99864.602
99757.282
99860.499
99746.571
99839.072
99733.896
99795.692
99779.348
99801.375
99976.116
100046.2
99770.471
99870.293
99784.826
99888.608
99783.644
99887.146
99771.067
99866.884
99755.826
99822.1
99800.155
99829.94
99999.878
100083.04
99781.997
99881.917
99797.03
99900.603
99795.488
99899.585
99782.018
99879.247
99767.378
99834.948
99812.857
99848.202
100012.26
100105.9
99786.992
99886.115
99801.673
99904.111
99798.849
99902.016
99785.879
99882.543
99773.724
99841.263
99822.494
99861.176
100020.91
100122.49
99786.797
99885.094
99798.571
99899.505
99795.715
99897.21
99785.583
99880.64
99777.031
99844.303
99830.115
99871.018
100030.77
100138.35
99779.297
99876.232
99790.016
99888.801
99790.761
99889.554
99784.023
99877.715
99778.917
99846.151
99836.123
99878.774
100039.1
100151.73
99773.82
99869.83
99782.931
99880.174
99785.966
99883.216
99782.39
99874.818
99779.633
99846.687
99839.427
99883.457
100043.71
100160.13
99769.756
99866.38
99778.401
99876.246
99782.743
99880.157
99780.85
99873.22
99779.941
99847.35
99842.155
99888.105
100046.62
100167.14
100033.12
99940.797
100075.08
99973.487
100126.69
100105.92
100022.4
100106.81
100032.9
99940.54
100074.97
99973.366
100126.54
100105.59
100023.03
100107.15
100032.45
99940.374
100074.44
99972.93
100126.1
100104.8
100023.69
100107.39
100032.05
99940.873
100073.59
99972.611
100125.49
100103.94
100025.07
100108.16
100032.67
99942.641
100073.53
99973.667
100125.72
100104.44
100027.52
100110.16
100035.3
99946.563
100075.44
99977.387
100128.09
100106.11
100031.13
100113.57
100040.79
99954.356
100079.68
99985.88
100132.93
100109.68
100036.08
100118.46
100050.41
99967.666
100087.23
100001.36
100139.66
100117.94
100041.95
100124.74
100065.87
99986.942
100099.64
100023.41
100146.85
100130.65
100047.23
100130.86
100085.85
100010.98
100114.75
100048.5
100151.67
100143.38
100048.51
100132.75
100104.25
100034.76
100126.34
100069.9
100148.77
100149.58
100039.82
100125.21
100109.16
100049.52
100123.64
100079.17
100129.93
100141.8
100013.9
100102.99
100087.83
100043.96
100094.52
100067.2
100084.93
100111.01
99962.919
100059.56
100031.75
100010.58
100028.64
100024.19
100002.77
100047.61
99880.791
99989.155
99934.138
99940.873
99919.259
99941.446
99879.759
99946.822
99769.518
99889.958
99812.856
99849.171
99790.785
99839.778
99748.125
99835.683
99660.281
99788.731
99701.183
99759.242
99679.896
99748.322
99643.147
99742.874
99577.164
99709.615
99613.381
99684.307
99596.716
99673.994
99569.819
99671.4
99519.838
99652.969
99561.004
99636.161
99551.451
99627.024
99533.792
99631.905
99487.86
99620.52
99541.318
99618.165
99538.736
99610.359
99530.164
99615.994
99480.678
99605.32
99551.702
99621.047
99559.278
99624.467
99559.549
99635.004
99501.614
99613.523
99595.464
99653.142
99614.671
99680.06
99630.706
99701.071
99555.04
99640.876
99668.942
99711.692
99705.57
99777.188
99745.457
99822.814
99643.66
99717.353
99762.661
99807.634
99817.133
99908.618
99877.88
99975.457
99745.816
99825.74
99865.229
99929.701
99928.284
100047.53
99993.649
100111.01
99834.178
99918.823
99958.485
100051.89
100019.28
100166.32
100072.62
100206.23
99894.209
99983.074
100026.66
100147.98
100078.83
100248.82
100115.58
100260.08
99922.747
100012.92
100075.39
100219.92
100115.9
100301.25
100135.77
100285.54
99934.974
100023.16
100110.96
100272.98
100140.69
100334.52
100147.11
100297
99942.519
100027.88
100132.13
100306.98
100154.25
100353.47
100150.73
100300.94
99941.288
100025.42
100139.63
100323.8
100156.54
100359.65
100146.86
100296.52
99935.804
100017.47
100142.6
100332
100155.96
100359.59
100142.98
100289.47
99933.29
100011
100148.99
100342.14
100159.29
100362.37
100142.93
100287.11
99933.469
100008.43
100155.24
100352.83
100162.91
100367.14
100143.49
100287.03
99933.539
100006.81
100158.07
100359.16
100163.96
100369.27
100142.54
100285.59
99932.365
100004.41
100158.14
100362.32
100162.34
100368.05
100139.23
100281.34
99929.479
100000.27
99951.412
99981.763
99634.72
99578.256
100154.19
100334.58
99950.751
99980.971
99635.527
99579.943
100156.69
100336.18
99950.027
99980.122
99636.325
99581.607
100158.4
100336.88
99948.942
99978.834
99637.511
99583.871
100160.05
100337.07
99947.609
99977.025
99639.206
99586.848
100161.94
100337.09
99945.876
99974.488
99641.482
99590.566
100164.67
100337.51
99943.715
99971.039
99644.364
99595.112
100168.53
100338.32
99941.07
99966.485
99648.091
99600.694
100173.71
100339.61
99937.917
99960.809
99652.584
99607.204
100180.11
100342.2
99934.314
99954.233
99658.132
99614.919
100187.3
100345.36
99929.396
99945.97
99665.921
99625.027
100193.53
100345.92
99923.558
99936.382
99675.987
99637.466
100195.68
100340.98
99916.603
99925.521
99687.884
99651.583
100189.38
100324.57
99906.364
99911.362
99698.512
99666.623
100164.72
100281.54
99890.708
99891.935
99699.753
99675.502
100114.27
100201.7
99871.063
99867.835
99684.678
99664.25
100050.3
100105.55
99845.618
99838.963
99654.807
99633.523
99986.142
100016.99
99811.366
99802.159
99609.158
99589.364
99924.993
99934.996
99761.225
99757.344
99553.597
99535.106
99871.783
99862.7
99697.202
99711.157
99497.852
99480.859
99824.064
99802.406
99622.465
99665.222
99445.983
99433.767
99780.298
99753.443
99559.502
99633.153
99412.613
99404.366
99756.805
99721.08
99529.198
99620.912
99409.205
99398.805
99755.695
99711.542
99531.34
99625.794
99434.864
99418.092
99769.782
99717.984
99545.209
99636.114
99477.012
99452.045
99798.435
99736.171
99557.234
99644.696
99525.837
99493.292
99833.747
99761.583
99564.926
99651.085
99572.282
99533.923
99866.115
99788.937
99568.241
99654.97
99612.619
99569.441
99894.254
99814.814
99568.081
99654.626
99645.546
99597.901
99918.669
99836.546
99565.54
99649.869
99670.714
99619.011
99938.16
99854.366
99561.623
99643.408
99689.487
99633.846
99952.638
99868.899
99557.852
99637.084
99703.727
99644.011
99965.555
99880.254
99555.148
99631.873
99713.757
99650.319
99980.744
99891.787
99553.554
99628.261
99720.357
99653.838
99994.495
99903.714
99552.453
99625.883
99724.083
99655.627
100001.8
99910.517
99551.403
99623.722
99726.623
99656.992
100004.47
99913.247
99924.008
99759.337
99766.939
99726.295
99720.693
99731.221
99989.83
99763.935
99804.367
99797.854
99832.97
99866.133
99923.641
99761.383
99768.762
99728.609
99723.117
99733.342
99988.417
99764.336
99804.374
99797.405
99831.888
99864.717
99923.045
99763.057
99770.321
99730.699
99725.394
99735.423
99986.48
99764.169
99803.999
99796.813
99830.932
99863.608
99921.674
99764.897
99772.252
99733.405
99728.37
99738.156
99983.016
99763.262
99803.112
99795.771
99829.615
99862.217
99919.541
99766.889
99774.45
99736.564
99731.99
99741.474
99978.208
99761.745
99801.85
99794.372
99827.951
99860.563
99916.776
99769.067
99776.925
99740.1
99736.067
99745.193
99972.273
99759.891
99800.333
99792.743
99825.959
99858.547
99913.375
99771.484
99779.516
99743.962
99740.537
99749.15
99965.241
99757.967
99798.953
99791.067
99823.538
99855.935
99909.548
99774.175
99781.988
99747.974
99745.183
99753.319
99957.284
99756.486
99798.106
99789.337
99820.257
99852.256
99905.807
99777.334
99784.276
99752.246
99750.084
99757.804
99948.805
99755.891
99797.198
99787.121
99815.984
99847.079
99902.866
99781.135
99786.729
99756.938
99755.176
99762.36
99940.287
99755.754
99795.53
99784.757
99811.78
99841.375
99900.714
99786.133
99789.621
99761.81
99760.206
99766.93
99931.603
99756.401
99794.022
99782.553
99807.371
99835.634
99898.796
99793.257
99793.057
99766.92
99765.252
99771.724
99922.15
99758.722
99793.124
99780.357
99801.953
99828.271
99896.982
99802.773
99797.411
99773.051
99771.077
99776.59
99912.013
99763.515
99792.693
99778.18
99795.738
99818.993
99893.755
99813.252
99802.228
99779.852
99777.272
99781.416
99900.95
99769.665
99792.411
99776.198
99789.069
99808.599
99890.505
99823.059
99805.685
99784.643
99780.64
99783.743
99892.918
99777.32
99792.317
99774.008
99781.725
99796.921
99887.432
99831.838
99807.228
99786.9
99780.696
99782.264
99887.392
99787.532
99794.373
99773.029
99774.702
99784.805
99885.877
99838.058
99805.834
99785.971
99777.786
99777.447
99886.929
99800.1
99797.779
99773.273
99769.013
99773.107
99885.84
99844.127
99805.658
99786.136
99774.67
99770.762
99892.787
99816.771
99803.993
99775.206
99764.958
99761.977
99885.842
99852.004
99811.354
99793.368
99777.625
99769.84
99905.699
99836.536
99814.494
99781.413
99764.755
99755.173
99888.51
99863
99821.948
99803.947
99785.609
99773.738
99924.066
99858.695
99831.178
99794.356
99768.323
99749.315
99887.797
99871.99
99831.33
99813.787
99801.064
99789.387
99949.649
99892.856
99859.903
99818.778
99782.757
99750.718
99881.855
99876.606
99838.143
99822.422
99820.626
99818.056
99979.672
99931.024
99896.575
99852.544
99808.051
99762.73
99872.045
99874.907
99836.822
99823.232
99840.133
99854.108
100010.09
99974.59
99935.561
99889.21
99841.196
99788.75
99871.188
99875.258
99836.291
99822.487
99853.536
99886.477
100028.11
100006.29
99961.027
99913.647
99865.784
99813.089
99878.39
99879.208
99836.831
99819.816
99860.391
99913.083
100038.61
100024.94
99975.869
99928.017
99881.577
99833.033
99885.35
99882.406
99836.257
99816.069
99862.606
99932.539
100045.17
100037.18
99984.074
99935.396
99890.831
99848.214
99889.467
99883.466
99834.674
99812.113
99862.418
99945.624
100048.62
100044.68
99988.353
99938.597
99895.824
99859.435
99891.447
99882.883
99832.671
99808.186
99860.937
99953.685
100049.3
100047.91
99989.948
99939.326
99898.137
99867.474
99891.595
99881.279
99830.277
99804.435
99858.88
99957.832
100048.09
100048.23
99989.734
99938.613
99898.837
99872.889
99890.477
99879.317
99827.661
99801.137
99856.751
99959.174
100046.09
100047.09
99988.478
99937.177
99898.787
99876.591
99888.607
99877.293
99825.141
99798.421
99854.753
99958.764
100043.96
100045.32
99986.782
99935.535
99898.494
99879.111
99886.442
99875.165
99822.915
99796.296
99852.958
99957.392
100041.94
100043.4
99985.047
99934.014
99898.237
99880.861
99884.324
99873.051
99821.115
99794.697
99851.417
99955.733
100040.15
100041.67
99983.565
99932.859
99898.147
99882.226
99882.555
99871.388
99819.82
99793.552
99850.203
99954.307
100038.79
100040.44
99982.58
99932.205
99898.224
99883.271
99881.265
99870.237
99818.92
99792.71
99849.243
99953.243
100037.93
100039.77
99982.051
99931.903
99898.383
99884.034
99880.1
99869.139
99818.063
99791.873