/*--------------------------------*- C++ -*----------------------------------*\
| =========                 |                                                 |
| \\      /  F ield         | OpenFOAM: The Open Source CFD Toolbox           |
|  \\    /   O peration     | Version:  2206                                  |
|   \\  /    A nd           | Website:  www.openfoam.com                      |
|    \\/     M anipulation  |                                                 |
\*---------------------------------------------------------------------------*/
FoamFile
{
    version     2.0;
    format      ascii;
    arch        "LSB;label=32;scalar=64";
    class       surfaceScalarField;
    location    "300";
    object      phi;
}
// * * * * * * * * * * * * * * * * * * * * * * * * * * * * * * * * * * * * * //

dimensions      [1 0 -1 0 0 0 0];

oriented        oriented;

internalField   nonuniform List<scalar> 
146294
(
1.9565771e-07
-7.8604332e-08
1.0744927e-07
-2.7293539e-08
-1.9603077e-07
-7.8102725e-08
6.7799205e-08
-7.5831781e-09
2.1337121e-07
2.3429311e-07
-1.76681e-08
-6.0858733e-08
-2.3442724e-07
-2.2871016e-08
-5.9506651e-08
2.3847229e-07
8.0715797e-07
-1.9074466e-07
2.5935764e-07
5.246864e-08
-8.2014587e-07
-1.8634955e-07
1.489698e-07
7.0568304e-08
8.4160478e-07
7.6914336e-07
9.7648224e-09
-1.9962896e-07
-7.8763356e-07
-1.6042285e-08
-1.898314e-07
7.658918e-07
1.5385275e-06
-2.8470835e-07
4.1518112e-07
1.5534279e-07
-1.5645431e-06
-2.7823102e-07
2.2709263e-07
1.628795e-07
1.575664e-06
1.2684745e-06
6.575996e-08
-3.1241375e-07
-1.2968056e-06
5.2699024e-09
-2.971622e-07
1.2660248e-06
2.2863586e-06
-3.7691929e-07
5.5384202e-07
2.6078381e-07
-2.3087168e-06
-3.7063968e-07
2.9459923e-07
2.6105283e-07
2.328353e-06
1.7580593e-06
1.325597e-07
-4.1394092e-07
-1.7877787e-06
3.1213194e-08
-3.9747791e-07
1.7590294e-06
3.0799486e-06
-4.7921164e-07
6.6335443e-07
3.7641745e-07
-3.0865213e-06
-4.7477259e-07
3.4499123e-07
3.6861093e-07
3.1356439e-06
2.293304e-06
2.0410556e-07
-5.2620972e-07
-2.3178784e-06
6.2042131e-08
-5.1221402e-07
2.29986e-06
3.9504187e-06
-5.966038e-07
7.3662757e-07
5.0937489e-07
-3.9364076e-06
-5.9562605e-07
3.6938144e-07
4.9172539e-07
4.0298808e-06
2.894335e-06
2.7741723e-07
-6.5826525e-07
-2.9059354e-06
9.7368647e-08
-6.4933272e-07
2.9127611e-06
4.9673848e-06
-7.3826618e-07
7.5625797e-07
6.7613125e-07
-4.9248647e-06
-7.4246201e-07
3.5416889e-07
6.4492732e-07
5.0800557e-06
3.5906157e-06
3.4702539e-07
-8.2156504e-07
-3.5769305e-06
1.3507713e-07
-8.2045672e-07
3.6308619e-06
6.0668895e-06
-8.9460885e-07
6.9615274e-07
8.7240204e-07
-5.9845642e-06
-9.0772993e-07
2.7800646e-07
8.271715e-07
6.2235813e-06
4.3339531e-06
4.1342069e-07
-1.0136627e-06
-4.2812642e-06
1.7764467e-07
-1.0229076e-06
4.406579e-06
7.1882943e-06
-1.0546384e-06
5.0028369e-07
1.1015865e-06
-7.0393983e-06
-1.0861018e-06
9.8790133e-08
1.0401002e-06
7.4134549e-06
5.050568e-06
4.5861945e-07
-1.2269926e-06
-4.9234057e-06
2.1774008e-07
-1.2579404e-06
5.1822976e-06
8.1778404e-06
-1.2081164e-06
1.6491313e-07
1.3580686e-06
-7.9924559e-06
-1.2486207e-06
-1.7488696e-07
1.2642562e-06
8.4358504e-06
5.6119197e-06
5.390212e-07
-1.4610312e-06
-5.4394051e-06
3.1052199e-07
-1.5040214e-06
5.774519e-06
9.2545253e-06
-1.3701618e-06
-4.3132834e-07
1.7014801e-06
-8.989639e-06
-1.4226758e-06
-6.4821998e-07
1.5613282e-06
9.5891701e-06
6.1400614e-06
6.4573442e-07
-1.707678e-06
-5.9092572e-06
4.4161383e-07
-1.7773593e-06
6.3636431e-06
1.0667018e-05
-1.5619943e-06
-1.4046255e-06
2.2092116e-06
-1.0340979e-05
-1.6014846e-06
-1.4273665e-06
1.9777548e-06
1.106986e-05
6.7780311e-06
7.7827219e-07
-1.9696611e-06
-6.5029254e-06
6.281105e-07
-2.0607165e-06
7.0507365e-06
1.2213521e-05
-1.6901732e-06
-2.90911e-06
2.8425887e-06
-1.1861499e-05
-1.6646476e-06
-2.6728295e-06
2.4712097e-06
1.2652386e-05
7.2867428e-06
9.1567089e-07
-2.0885143e-06
-7.0258325e-06
8.5628372e-07
-2.1637891e-06
7.5576776e-06
1.5208065e-05
-1.8237995e-06
-5.488992e-06
3.9094928e-06
-1.4713893e-05
-1.6534992e-06
-4.7772548e-06
3.3142889e-06
1.5651689e-05
8.2793301e-06
7.6740698e-07
-2.0009409e-06
-7.953972e-06
1.0011467e-06
-2.0300712e-06
8.5110113e-06
2.0314538e-05
-1.9906076e-06
-9.6999597e-06
5.6901868e-06
-1.9803141e-05
-1.4850165e-06
-8.4373801e-06
4.7418162e-06
2.0717853e-05
1.0066194e-05
-3.8413814e-08
-1.4658262e-06
-9.7852269e-06
6.5636386e-07
-1.3434277e-06
1.0269281e-05
2.3350976e-05
-2.137065e-06
-1.4999073e-05
6.9062487e-06
-2.2821038e-05
-1.3287887e-06
-1.3345626e-05
5.903191e-06
2.368482e-05
1.149548e-05
-1.7376199e-06
-7.6047011e-07
-1.117295e-05
-4.5543407e-07
-4.2567548e-07
1.1704084e-05
2.6549739e-05
-2.6344594e-06
-2.115181e-05
8.0724089e-06
-2.5834926e-05
-1.6922777e-06
-1.9502968e-05
7.3786462e-06
2.7020718e-05
1.3883756e-05
-4.1800891e-06
-6.509021e-07
-1.3424931e-05
-2.2178355e-06
-1.0152006e-07
1.4055311e-05
2.9548479e-05
-3.1473563e-06
-2.8211154e-05
9.1354143e-06
-2.8477186e-05
-2.3376593e-06
-2.7251373e-05
9.1571735e-06
3.0477357e-05
1.6384755e-05
-6.9239252e-06
-9.8508048e-07
-1.5803286e-05
-4.3406375e-06
-3.1143429e-07
1.6481259e-05
3.3167521e-05
-2.8572841e-06
-3.7069436e-05
1.0012106e-05
-3.1464099e-05
-2.3163268e-06
-3.7630595e-05
1.1036365e-05
3.4826732e-05
1.7937059e-05
-8.7683893e-06
-1.5955561e-06
-1.7354418e-05
-6.0595362e-06
-8.919021e-07
1.8231452e-05
3.7800001e-05
-3.5959619e-06
-4.692874e-05
1.0578025e-05
-3.4922835e-05
-2.9039544e-06
-4.9698212e-05
1.2781828e-05
3.998964e-05
1.8779302e-05
-1.0289914e-05
-2.5960757e-06
-1.8257772e-05
-7.7262431e-06
-1.892514e-06
1.9434467e-05
4.2370409e-05
-4.7953911e-06
-5.6786883e-05
1.0446169e-05
-3.8163143e-05
-3.9387478e-06
-6.1969698e-05
1.3928838e-05
4.4651872e-05
1.9840402e-05
-1.1402815e-05
-4.10019e-06
-1.9422822e-05
-9.4174168e-06
-3.3427679e-06
2.0935515e-05
4.5448692e-05
-7.9021749e-06
-6.2893703e-05
8.962091e-06
-4.0402247e-05
-6.6360818e-06
-7.0512342e-05
1.3148664e-05
4.7478262e-05
2.2357238e-05
-1.2968383e-05
-6.4764732e-06
-2.2217511e-05
-1.2034321e-05
-5.5984077e-06
2.3936343e-05
3.6776131e-05
-7.9762888e-06
-6.4268542e-05
4.5598927e-06
-3.1984769e-05
-6.7904594e-06
-7.2451015e-05
7.5119488e-06
3.7993615e-05
2.112488e-05
-1.3331836e-05
-7.5295397e-06
-2.1208282e-05
-1.3727655e-05
-6.6987541e-06
2.2726419e-05
2.79985e-05
-7.1916416e-06
-6.1773972e-05
9.5081439e-07
-2.4253308e-05
-5.9774889e-06
-6.8748473e-05
2.3763063e-06
2.7896165e-05
1.9692778e-05
-1.2644474e-05
-7.7356846e-06
-1.9836202e-05
-1.4246242e-05
-7.0697993e-06
2.1303658e-05
2.0122959e-05
-6.0883651e-06
-5.6130967e-05
-1.5380716e-06
-1.8138781e-05
-4.8036333e-06
-6.1223487e-05
-1.1849655e-06
1.8587229e-05
1.8026536e-05
-1.1369503e-05
-7.2418224e-06
-1.8148155e-05
-1.3828334e-05
-6.7836145e-06
1.9588432e-05
1.3992154e-05
-4.8747726e-06
-4.8611938e-05
-3.0238813e-06
-1.361402e-05
-3.5494238e-06
-5.1991691e-05
-3.3472284e-06
1.1655732e-05
1.5843581e-05
-9.9081226e-06
-6.2762124e-06
-1.5903532e-05
-1.2738025e-05
-5.9896282e-06
1.7193618e-05
9.9641495e-06
-3.906158e-06
-4.019692e-05
-3.8483648e-06
-1.0623622e-05
-2.5360651e-06
-4.2187135e-05
-4.5674833e-06
7.2638806e-06
1.3878768e-05
-8.3590722e-06
-5.3884046e-06
-1.3945688e-05
-1.1156047e-05
-5.1932459e-06
1.4953749e-05
6.9238338e-06
-3.0268658e-06
-3.1742579e-05
-4.1286879e-06
-8.224078e-06
-1.6740258e-06
-3.2770668e-05
-5.0752981e-06
4.2554873e-06
1.1787497e-05
-6.7789585e-06
-4.4885708e-06
-1.1905854e-05
-9.3103485e-06
-4.333744e-06
1.260172e-05
4.5789348e-06
-2.2456497e-06
-2.393037e-05
-3.9969748e-06
-6.1474247e-06
-1.0038048e-06
-2.4433035e-05
-5.0205335e-06
2.2663337e-06
9.6133229e-06
-5.3242146e-06
-3.571819e-06
-9.7420021e-06
-7.4454152e-06
-3.4546436e-06
1.0199002e-05
2.8735703e-06
-1.6266892e-06
-1.7098796e-05
-3.6371724e-06
-4.4421323e-06
-5.3786369e-07
-1.7404336e-05
-4.642457e-06
1.0244497e-06
7.6813026e-06
-4.0247156e-06
-2.7913808e-06
-7.8160644e-06
-5.6777775e-06
-2.6968279e-06
8.0727635e-06
1.6493596e-06
-1.1495769e-06
-1.1324605e-05
-3.2247412e-06
-3.0481673e-06
-2.1866295e-07
-1.1672922e-05
-4.1217555e-06
2.5889777e-07
6.0690511e-06
-2.8736597e-06
-2.1595797e-06
-6.2101931e-06
-4.054433e-06
-2.0742013e-06
6.3010163e-06
8.0341938e-07
-7.7707393e-07
-6.711389e-06
-2.7370258e-06
-1.9025748e-06
-1.2430678e-08
-7.2036441e-06
-3.4784571e-06
-1.7516665e-07
4.6362865e-06
-1.8870119e-06
-1.6161039e-06
-4.7839075e-06
-2.6216242e-06
-1.5328545e-06
4.7238848e-06
2.8753493e-07
-4.8431465e-07
-3.2739137e-06
-2.226969e-06
-1.0126886e-06
1.1939039e-07
-3.8658295e-06
-2.8143334e-06
-3.5494555e-07
3.3929126e-06
-1.0590681e-06
-1.1429019e-06
-3.5623448e-06
-1.4152217e-06
-1.0523488e-06
3.358035e-06
7.7045365e-08
-2.4466943e-07
-1.0473426e-06
-1.6614859e-06
-3.9660569e-07
1.8438247e-07
-1.557664e-06
-2.1132384e-06
-3.0207454e-07
2.2402399e-06
-4.1333744e-07
-6.9685072e-07
-2.4338409e-06
-5.1343557e-07
-6.0511478e-07
2.1277949e-06
1.2908323e-07
-7.2632332e-08
-6.8300968e-08
-9.3711383e-07
-9.7394874e-08
1.5001641e-07
-2.8419602e-07
-1.2544567e-06
-3.9712199e-08
1.1626778e-06
-6.4717952e-08
-2.7702996e-07
-1.3069649e-06
-6.5240579e-08
-2.1592518e-07
1.0802309e-06
1.4387678e-07
1.5442024e-09
-1.9861458e-07
-1.5107682e-08
4.555674e-08
-3.2211968e-07
1.3624361e-07
2.9837904e-07
-1.7013758e-08
-3.4453923e-07
-1.9473974e-09
2.8064253e-07
2.4206744e-07
-9.5552091e-08
3.4884181e-08
-2.4227537e-07
-6.4113297e-08
1.2842483e-08
2.3374615e-07
8.1808552e-08
-1.0047739e-07
-1.1115734e-09
-7.6017433e-08
-5.8660254e-08
-1.6190326e-08
9.2504865e-08
3.6133398e-08
-1.1221121e-07
9.4555033e-09
-3.4053304e-08
-6.0823409e-08
-1.8945064e-10
3.8583478e-08
1.9140306e-08
-1.1782857e-07
4.6999697e-09
-1.833691e-08
-6.0044045e-08
-2.1749822e-11
1.8490238e-08
1.1622324e-08
-1.1805937e-07
-2.9014176e-10
-1.1170884e-08
-5.7206199e-08
-6.8672152e-10
9.5108904e-09
8.0761614e-09
-1.1433033e-07
-4.2882939e-09
-7.5609491e-09
-5.2323583e-08
-2.3695325e-09
5.5923802e-09
6.3500746e-09
-6.8148558e-09
-1.082431e-07
-5.65994e-09
-3.3878657e-09
-4.6374997e-08
3.8045416e-09
8.5642023e-07
-2.4728118e-07
9.2897889e-08
-8.6661767e-07
-1.683322e-07
2.9570187e-08
8.1841018e-07
2.6950128e-07
-2.5703831e-07
-6.941039e-10
-2.6029121e-07
-1.7362588e-07
-4.1372634e-08
3.0008624e-07
1.2264908e-07
-2.5726806e-07
6.3122014e-09
-1.1938323e-07
-1.6799604e-07
-1.6242154e-08
1.3318679e-07
6.3776826e-08
-2.5155658e-07
-2.0951295e-09
-6.27633e-08
-1.5924162e-07
-1.0949824e-08
6.6016981e-08
3.7624018e-08
-2.451874e-07
-7.3129505e-09
-3.7013027e-08
-1.5053808e-07
-8.2826208e-09
3.6548968e-08
2.5290541e-08
-2.3976446e-07
-1.0635971e-08
-2.4404237e-08
-1.4248998e-07
-8.3345914e-09
2.3212647e-08
1.926846e-08
-1.2513641e-08
-2.3544472e-07
-1.7908553e-08
-8.8104452e-09
-1.3469675e-07
1.6922205e-08
1.4647747e-06
-3.4978675e-07
1.477609e-07
-1.4823726e-06
-2.3804142e-07
3.5317344e-08
1.399723e-06
4.6028083e-07
-3.5620715e-07
9.0309174e-10
-4.555463e-07
-2.5226322e-07
-6.4656375e-08
4.9774445e-07
2.2179483e-07
-3.4730583e-07
-2.6791206e-09
-2.2177721e-07
-2.4385605e-07
-3.6847376e-08
2.3402852e-07
1.1902476e-07
-3.368975e-07
-1.163836e-08
-1.1994283e-07
-2.3281111e-07
-2.4667138e-08
1.217156e-07
7.1601653e-08
-3.3030584e-07
-1.3356928e-08
-7.2181656e-08
-2.2414457e-07
-1.6077627e-08
7.0746914e-08
4.8466654e-08
-3.2757967e-07
-1.3511544e-08
-4.834298e-08
-2.1823352e-07
-1.2164902e-08
4.6395641e-08
3.6886154e-08
-1.3388827e-08
-3.2761893e-07
-3.5993401e-08
-1.0470537e-08
-2.1403431e-07
3.436444e-08
2.0496803e-06
-4.4784332e-07
2.0079863e-07
-2.0687011e-06
-3.0788454e-07
3.753029e-08
1.9580261e-06
6.45001e-07
-4.5431752e-07
8.8959934e-09
-6.4654018e-07
-3.3235625e-07
-8.0648002e-08
6.8554353e-07
3.2123366e-07
-4.423247e-07
-9.380414e-09
-3.265632e-07
-3.2589955e-07
-5.3993565e-08
3.3196751e-07
1.7746142e-07
-4.3086804e-07
-1.8997091e-08
-1.8158781e-07
-3.1583238e-07
-3.6177304e-08
1.7892858e-07
1.0962404e-07
-4.2446522e-07
-1.7340633e-08
-1.1207519e-07
-3.0799551e-07
-2.2367031e-08
1.080709e-07
7.593968e-08
-4.2268819e-07
-1.4267278e-08
-7.6972698e-08
-3.0295071e-07
-1.4522646e-08
7.3273815e-08
5.8976841e-08
-1.1860374e-08
-4.2443391e-07
-5.8781787e-08
-1.0284879e-08
-2.9989975e-07
5.5743092e-08
2.6809561e-06
-5.6667073e-07
2.5595154e-07
-2.695745e-06
-3.9761826e-07
4.204088e-08
2.5616886e-06
8.4154555e-07
-5.7746899e-07
2.6874558e-08
-8.4875382e-07
-4.3546351e-07
-8.6991497e-08
8.857237e-07
4.2379414e-07
-5.6755662e-07
-7.4096173e-09
-4.3571069e-07
-4.3350668e-07
-6.3669189e-08
4.315073e-07
2.3767416e-07
-5.5790609e-07
-1.9691899e-08
-2.4665206e-07
-4.2564247e-07
-4.2364217e-08
2.3600098e-07
1.4906942e-07
-5.5181668e-07
-1.7660033e-08
-1.5485279e-07
-4.1854421e-07
-2.5694926e-08
1.4530741e-07
1.0489401e-07
-5.4922255e-07
-1.3590404e-08
-1.0818034e-07
-4.131939e-07
-1.5581307e-08
1.0060754e-07
8.2926664e-08
-1.009014e-08
-5.4970516e-07
-8.422059e-08
-9.5243903e-09
-4.0923471e-07
7.8221629e-08
3.3903634e-06
-7.1782797e-07
3.1934324e-07
-3.3941069e-06
-5.154408e-07
5.3952317e-08
3.2446674e-06
1.058568e-06
-7.3269593e-07
5.5117559e-08
-1.0719339e-06
-5.6895718e-07
-8.1186439e-08
1.1063214e-06
5.3153566e-07
-7.2271579e-07
2.9750641e-09
-5.5191223e-07
-5.7120635e-07
-6.3671863e-08
5.3380062e-07
2.9814162e-07
-7.1375008e-07
-1.3603786e-08
-3.1321789e-07
-5.6463448e-07
-4.1475955e-08
2.9066311e-07
1.8761787e-07
-7.0817978e-07
-1.3291905e-08
-1.9755769e-07
-5.5742628e-07
-2.4444339e-08
1.7917269e-07
1.327846e-07
-7.0561537e-07
-1.0002161e-08
-1.3894897e-07
-5.5085704e-07
-1.410531e-08
1.2473382e-07
1.0579774e-07
-6.7537859e-09
-7.0557731e-07
-1.0916969e-07
-7.6254685e-09
-5.4480571e-07
9.7863602e-08
4.2055112e-06
-9.1060374e-07
3.8697897e-07
-4.1841687e-06
-6.7240545e-07
7.4315774e-08
4.0369979e-06
1.2988382e-06
-9.2852505e-07
9.1900475e-08
-1.317713e-06
-7.4265281e-07
-6.3644836e-08
1.3515222e-06
6.4297598e-07
-9.1529689e-07
2.0543955e-08
-6.7378249e-07
-7.4696064e-07
-5.4283154e-08
6.3788665e-07
3.5619344e-07
-9.0320824e-07
-2.19716e-09
-3.7969146e-07
-7.3899205e-07
-3.4145629e-08
3.4089864e-07
2.2220457e-07
-8.9544171e-07
-5.2300351e-09
-2.3803892e-07
-7.2992234e-07
-1.8709635e-08
2.0739748e-07
1.5641833e-07
-8.9131051e-07
-3.8111003e-09
-1.6673526e-07
-7.213611e-07
-9.5714414e-09
1.4333759e-07
1.2437307e-07
-1.5532345e-09
-8.9012526e-07
-1.3076229e-07
-3.8577982e-09
-7.1297834e-07
1.1222211e-07
5.087981e-06
-1.1542299e-06
4.653949e-07
-5.0257831e-06
-8.7981539e-07
1.1753979e-07
4.9017139e-06
1.5536171e-06
-1.176225e-06
1.3650032e-07
-1.5762069e-06
-9.7025166e-07
-3.1557645e-08
1.6119907e-06
7.5400621e-07
-1.1592177e-06
4.4357389e-08
-7.9484117e-07
-9.7692799e-07
-3.2965873e-08
7.3933996e-07
4.1003577e-07
-1.1427628e-06
1.3033619e-08
-4.4171697e-07
-9.6712668e-07
-1.8600465e-08
3.8470306e-07
2.518302e-07
-1.1314206e-06
4.9353506e-09
-2.7334284e-07
-9.5588351e-07
-7.8371201e-09
2.2970289e-07
1.750105e-07
-1.1246384e-06
3.5476988e-09
-1.8914552e-07
-9.4536413e-07
-1.7352666e-09
1.5666631e-07
1.3777961e-07
4.3109151e-09
-1.1213929e-06
-1.4689144e-07
2.1190062e-09
-9.3498431e-07
1.2141706e-07
5.9825933e-06
-1.4586187e-06
5.5764088e-07
-5.843222e-06
-1.1524448e-06
1.921805e-07
5.8024323e-06
1.815368e-06
-1.4908685e-06
1.8463893e-07
-1.831261e-06
-1.2699005e-06
1.5764002e-08
1.8854702e-06
8.6510235e-07
-1.4722743e-06
7.0346155e-08
-9.0967975e-07
-1.2800523e-06
4.4135525e-10
8.4185137e-07
4.6139211e-07
-1.4533584e-06
2.9447857e-08
-4.9672269e-07
-1.2693005e-06
4.9902845e-09
4.2704282e-07
2.7832743e-07
-1.4404088e-06
1.5634039e-08
-3.0196755e-07
-1.2568544e-06
8.365599e-09
2.4969282e-07
1.9025571e-07
-1.4325964e-06
1.1077275e-08
-2.0559956e-07
-1.2451814e-06
9.8289476e-09
1.6701288e-07
1.4748379e-07
1.0168856e-08
-1.4284285e-06
-1.5750585e-07
1.0917496e-08
-1.2334934e-06
1.2700611e-07
6.8004653e-06
-1.8461404e-06
7.4316972e-07
-6.6008833e-06
-1.4994024e-06
3.7737168e-07
6.6106382e-06
2.0899812e-06
-1.9105128e-06
2.5009433e-07
-2.0910598e-06
-1.6616421e-06
9.2934786e-08
2.1750469e-06
9.9413624e-07
-1.9019587e-06
1.0242646e-07
-1.0347676e-06
-1.6811122e-06
4.7523511e-08
9.6653062e-07
5.2530965e-07
-1.8879927e-06
4.9653686e-08
-5.5948293e-07
-1.6705511e-06
3.6457571e-08
4.8327033e-07
3.1176489e-07
-1.8785926e-06
2.958814e-08
-3.3511544e-07
-1.6569186e-06
3.0174316e-08
2.763389e-07
2.0855747e-07
-1.8736966e-06
2.1390572e-08
-2.237734e-07
-1.6447181e-06
2.5999064e-08
1.8018455e-07
1.5792277e-07
1.853859e-08
-1.8721672e-06
-1.6782049e-07
2.3918239e-08
-1.6331413e-06
1.3335695e-07
7.5960468e-06
-2.3463212e-06
1.0534535e-06
-7.2676925e-06
-1.9531649e-06
6.9090614e-07
7.458293e-06
2.4261664e-06
-2.4849133e-06
3.3609535e-07
-2.3735787e-06
-2.1871122e-06
1.9637079e-07
2.556644e-06
1.1834492e-06
-2.5084501e-06
1.4213319e-07
-1.1996095e-06
-2.2220183e-06
1.0176294e-07
1.1641353e-06
6.3015006e-07
-2.5078763e-06
7.2667782e-08
-6.5373676e-07
-2.2086173e-06
6.9270273e-08
5.8392867e-07
3.7049536e-07
-2.5048935e-06
4.5291003e-08
-3.8917009e-07
-2.1881422e-06
5.2271695e-08
3.2794289e-07
2.4073592e-07
-2.503732e-06
3.3470252e-08
-2.5397557e-07
-2.1707172e-06
4.2972871e-08
2.0633688e-07
1.7456792e-07
2.9030782e-08
-2.50531e-06
-1.8347467e-07
3.8614385e-08
-2.1568589e-06
1.4602635e-07
8.4381411e-06
-2.9785985e-06
1.5764467e-06
-7.9522391e-06
-2.5248313e-06
1.2102015e-06
8.3829088e-06
2.8580493e-06
-3.2530442e-06
4.5716732e-07
-2.7046999e-06
-2.8783995e-06
3.3302282e-07
3.0749237e-06
1.4561189e-06
-3.3420297e-06
1.8962546e-07
-1.4146273e-06
-2.9443799e-06
1.5816505e-07
1.4656971e-06
7.9232616e-07
-3.3697535e-06
9.3615463e-08
-7.8555583e-07
-2.9302925e-06
9.6575902e-08
7.5091862e-07
4.6649781e-07
-3.3789179e-06
5.6671818e-08
-4.6871294e-07
-2.8994187e-06
6.8043459e-08
4.1985752e-07
2.9607399e-07
-3.3828515e-06
4.1455865e-08
-3.0013251e-07
-2.8698407e-06
5.4032433e-08
2.5542454e-07
2.0300319e-07
3.6131249e-08
-3.3863496e-06
-2.0660341e-07
4.8145224e-08
-2.8463103e-06
1.6994558e-07
8.9847762e-06
-3.4951792e-06
2.46556e-06
-8.4672995e-06
-2.973892e-06
2.065218e-06
8.9398013e-06
3.2109822e-06
-3.93828e-06
6.6771505e-07
-2.9784386e-06
-3.4790653e-06
5.3729859e-07
3.5118645e-06
1.6839305e-06
-4.1246167e-06
2.7213269e-07
-1.5801067e-06
-3.6088875e-06
2.2771381e-07
1.7441983e-06
9.2743754e-07
-4.2074741e-06
1.2898868e-07
-8.7994575e-07
-3.6178382e-06
1.23233e-07
9.0974278e-07
5.4647678e-07
-4.2486755e-06
7.3758402e-08
-5.2235821e-07
-3.594021e-06
8.0166627e-08
5.1053842e-07
3.446147e-07
-4.2716675e-06
5.0673861e-08
-3.3083669e-07
-3.5628023e-06
6.0103139e-08
3.0733581e-07
2.3083843e-07
4.1842107e-08
-4.285826e-06
-2.2238108e-07
5.202861e-08
-3.532938e-06
1.9709503e-07
9.6819139e-06
-3.5781136e-06
3.4467522e-06
-9.0860287e-06
-3.116673e-06
3.2292832e-06
9.6043055e-06
3.8636734e-06
-4.23457e-06
9.491998e-07
-3.4887366e-06
-3.859303e-06
8.748193e-07
4.2687522e-06
2.1502099e-06
-4.5575565e-06
3.7144493e-07
-1.9265378e-06
-4.1127279e-06
3.3866241e-07
2.2926735e-06
1.2244425e-06
-4.7232624e-06
1.6618039e-07
-1.0959344e-06
-4.1704135e-06
1.6040417e-07
1.2449537e-06
7.3116552e-07
-4.8139914e-06
8.8604639e-08
-6.5527353e-07
-4.1607972e-06
9.3907476e-08
7.0780928e-07
4.6337479e-07
-4.8670812e-06
5.6351836e-08
-4.1596842e-07
-4.1277055e-06
6.5251961e-08
4.2513199e-07
3.088571e-07
4.2906733e-08
-4.8987783e-06
-2.782084e-07
5.3358439e-08
-4.086319e-06
2.6614685e-07
1.0310589e-05
-2.8213555e-06
4.3938575e-06
-9.902343e-06
-2.4206261e-06
4.3946895e-06
1.0222233e-05
4.9202199e-06
-3.7026855e-06
1.3253897e-06
-4.4151329e-06
-3.4137515e-06
1.3430529e-06
5.4450512e-06
2.9944777e-06
-4.2181825e-06
5.0376537e-07
-2.6112969e-06
-3.910977e-06
5.0777702e-07
3.322596e-06
1.7944133e-06
-4.5118291e-06
2.1152726e-07
-1.5461378e-06
-4.1546985e-06
2.2207393e-07
1.9764484e-06
1.0990379e-06
-4.6844848e-06
1.0358305e-07
-9.4133823e-07
-4.2813376e-06
1.1674579e-07
1.2028546e-06
7.0458541e-07
-4.7920884e-06
5.9967615e-08
-6.0061708e-07
-4.3494142e-06
7.2960848e-08
7.6494102e-07
4.7814854e-07
4.0981616e-08
-4.8626305e-06
-4.0565779e-07
5.3339146e-08
-4.383827e-06
5.125942e-07
9.6701024e-06
-1.2096115e-06
4.6646657e-06
-9.4919603e-06
-7.7266469e-07
4.8049764e-06
9.6066511e-06
5.0721255e-06
-2.0027463e-06
1.6204074e-06
-4.5740977e-06
-1.5276734e-06
1.7141851e-06
5.4559221e-06
3.2697459e-06
-2.5790772e-06
6.1121272e-07
-2.8008479e-06
-1.9784768e-06
6.5195832e-07
3.5763657e-06
2.0281625e-06
-2.952344e-06
2.4411414e-07
-1.687524e-06
-2.2577048e-06
2.7411017e-07
2.2553283e-06
1.2607692e-06
-3.1901406e-06
1.10302e-07
-1.0296539e-06
-2.4466595e-06
1.3326316e-07
1.4332253e-06
8.0988347e-07
-3.3469073e-06
5.8068698e-08
-6.5124414e-07
-2.5805096e-06
7.5374558e-08
9.4130363e-07
5.4708921e-07
3.6020404e-08
-3.4558218e-06
-4.3318556e-07
4.9717933e-08
-2.6772213e-06
6.4743551e-07
1.0110003e-05
-2.5228464e-07
4.1104358e-06
-9.9545861e-06
2.747345e-07
4.4041958e-06
1.0134364e-05
5.3372034e-06
-8.4326024e-07
1.7528889e-06
-4.8788053e-06
-1.3276075e-07
1.8939338e-06
5.5648794e-06
3.5106753e-06
-1.4065734e-06
6.6215053e-07
-2.9982859e-06
-3.7431641e-07
7.2428547e-07
3.6799024e-06
2.2126173e-06
-1.8181179e-06
2.5210437e-07
-1.80911e-06
-5.3548382e-07
2.8719519e-07
2.360672e-06
1.3803587e-06
-2.0971649e-06
1.0493032e-07
-1.0958957e-06
-6.8197928e-07
1.268131e-07
1.53333e-06
8.7962706e-07
-2.2864561e-06
4.9730932e-08
-6.8202684e-07
-8.1415112e-07
6.3766622e-08
1.023391e-06
5.838464e-07
2.75538e-08
-2.4189961e-06
-4.4281105e-07
3.7446386e-08
-9.1981056e-07
7.017939e-07
1.0996345e-05
-3.1164345e-08
2.8458547e-06
-1.0685859e-05
5.5317625e-07
3.3994936e-06
1.1136315e-05
5.7840599e-06
-4.2496392e-07
1.620529e-06
-5.2580059e-06
4.7286315e-07
1.7750868e-06
5.983147e-06
3.7627927e-06
-9.59868e-07
6.0987818e-07
-3.1755939e-06
4.2045344e-07
6.6001225e-07
3.8794806e-06
2.3609614e-06
-1.3911905e-06
2.1741493e-07
-1.8950019e-06
3.5947627e-07
2.3357623e-07
2.4755269e-06
1.4591785e-06
-1.693649e-06
8.0482572e-08
-1.1322221e-06
2.5746394e-07
8.5018132e-08
1.6030184e-06
9.1501017e-07
-1.9002776e-06
3.2202295e-08
-6.9088332e-07
1.3879883e-07
3.2828327e-08
1.064597e-06
5.9309495e-07
1.4438556e-08
-2.0437007e-06
-4.3652623e-07
1.4227052e-08
3.4829424e-08
7.2030222e-07
1.187803e-05
-4.953356e-07
1.2466925e-06
-1.1379267e-05
1.5019843e-07
2.0740661e-06
1.2161226e-05
6.304315e-06
-7.2558873e-07
1.1856221e-06
-5.6392553e-06
2.9809069e-07
1.3493436e-06
6.5820924e-06
4.0320512e-06
-1.1999894e-06
4.2042221e-07
-3.3681728e-06
3.3923583e-07
4.5295276e-07
4.1979847e-06
2.5016657e-06
-1.6111591e-06
1.2332822e-07
-1.9964655e-06
2.9893309e-07
1.2144063e-07
2.6540637e-06
1.5323868e-06
-1.9060898e-06
2.8463706e-08
-1.1853875e-06
1.9723006e-07
1.9315752e-08
1.6998306e-06
9.5241891e-07
-2.1089208e-06
4.4087133e-10
-7.178581e-07
8.1997629e-08
-8.5969886e-09
1.1090555e-06
6.1093485e-07
-6.821254e-09
-2.2495582e-06
-4.4900717e-07
-1.4049675e-08
-1.7674859e-08
7.3890506e-07
1.2683776e-05
-1.4666155e-06
-6.7520106e-07
-1.1891502e-05
-8.0174477e-07
4.299992e-07
1.3236973e-05
6.8660291e-06
-1.7507686e-06
5.4792519e-07
-5.9442665e-06
-7.2913757e-07
7.6426761e-07
7.3784285e-06
4.3276543e-06
-2.2497299e-06
1.3826297e-07
-3.5465167e-06
-7.7267957e-07
1.7991694e-07
4.6442499e-06
2.6437787e-06
-2.6551507e-06
-1.6503464e-08
-2.0985736e-06
-8.7505922e-07
-1.4951888e-08
2.8825171e-06
1.60381e-06
-2.9364412e-06
-4.8659776e-08
-1.2453554e-06
-9.9697744e-07
-5.5963804e-08
1.8010395e-06
9.9221432e-07
-3.1265309e-06
-4.6618294e-08
-7.5509091e-07
-1.1102339e-06
-5.4820702e-08
1.1516787e-06
6.3599388e-07
-3.8422416e-08
-3.2573348e-06
-4.7356433e-07
-4.5602722e-08
-1.2055571e-06
7.6288705e-07
1.344951e-05
-3.004282e-06
-3.0335405e-06
-1.2187225e-05
-2.3460896e-06
-1.612978e-06
1.4495701e-05
7.4542194e-06
-3.3702423e-06
-4.0087219e-07
-6.1395394e-06
-2.4423385e-06
1.4215421e-08
8.3004605e-06
4.6541605e-06
-3.916337e-06
-2.8742277e-07
-3.6823621e-06
-2.5562438e-06
-1.5212188e-07
5.1001186e-06
2.8053549e-06
-4.3267846e-06
-2.2700632e-07
-2.1844475e-06
-2.6641512e-06
-1.7921822e-07
3.0775012e-06
1.6852502e-06
-4.5978376e-06
-1.6468129e-07
-1.2981413e-06
-2.7682067e-06
-1.4795559e-07
1.8813218e-06
1.0369356e-06
-4.7756424e-06
-1.1765802e-07
-7.881134e-07
-2.8611174e-06
-1.1272446e-07
1.187738e-06
6.6348019e-07
-8.6317728e-08
-4.8964024e-06
-4.9480577e-07
-8.6208991e-08
-2.9388208e-06
7.8180394e-07
1.4299211e-05
-5.5323773e-06
-5.6369654e-06
-1.2639929e-05
-4.8257536e-06
-4.0227969e-06
1.5936371e-05
7.7762613e-06
-5.9799879e-06
-1.6705694e-06
-6.0590013e-06
-5.1508809e-06
-9.3254721e-07
9.0481142e-06
4.754753e-06
-6.5991112e-06
-8.7126508e-07
-3.5517832e-06
-5.3810683e-06
-5.4469534e-07
5.3775057e-06
2.8015298e-06
-7.0374455e-06
-5.1446761e-07
-2.0757673e-06
-5.4979897e-06
-3.6973487e-07
3.1089579e-06
1.6490603e-06
-7.3172869e-06
-3.201594e-07
-1.2137203e-06
-5.5780781e-06
-2.5266493e-07
1.8338632e-06
9.9498126e-07
-7.4983484e-06
-2.0935589e-07
-7.2223969e-07
-5.6420876e-06
-1.7592221e-07
1.1221869e-06
6.2357015e-07
-1.4501859e-07
-7.6213523e-06
-4.4185343e-07
-1.2763259e-07
-5.6947327e-06
7.1764266e-07
1.2090608e-05
-7.2217343e-06
-7.1778945e-06
-1.0857564e-05
-6.3581889e-06
-5.7460336e-06
1.347318e-05
5.8348555e-06
-7.606707e-06
-2.6216997e-06
-4.4987504e-06
-6.7401025e-06
-1.7066326e-06
6.9908688e-06
3.3614298e-06
-8.1014863e-06
-1.3336697e-06
-2.4042148e-06
-7.0349842e-06
-8.5605902e-07
3.9676806e-06
1.9134922e-06
-8.470566e-06
-7.4482527e-07
-1.3140751e-06
-7.2056664e-06
-5.0940601e-07
2.2238361e-06
1.0901976e-06
-8.7145247e-06
-4.463033e-07
-7.2007676e-07
-7.308215e-06
-3.2480131e-07
1.2648822e-06
6.3283492e-07
-8.873335e-06
-2.8925571e-07
-3.9413893e-07
-7.3730834e-06
-2.1979425e-07
7.4157024e-07
3.771331e-07
-2.0044867e-07
-8.9815474e-06
-2.1347976e-07
-1.6083617e-07
-7.4139313e-06
4.511845e-07
1.046439e-05
-8.0611745e-06
-7.5440678e-06
-9.7726069e-06
-7.1525609e-06
-6.5913138e-06
1.139256e-05
4.1738803e-06
-8.519596e-06
-2.9592129e-06
-3.3779429e-06
-7.5445638e-06
-2.198399e-06
5.0576385e-06
2.1148037e-06
-8.9526799e-06
-1.483747e-06
-1.5316356e-06
-7.8638646e-06
-1.0659223e-06
2.6439759e-06
1.1027562e-06
-9.2581575e-06
-8.0922486e-07
-7.328653e-07
-8.0795212e-06
-6.0158914e-07
1.4106074e-06
5.8109223e-07
-9.4562824e-06
-4.7156753e-07
-3.5770864e-07
-8.2228951e-06
-3.67538e-07
7.6720108e-07
3.0571209e-07
-9.5819399e-06
-2.967452e-07
-1.7255682e-07
-8.3208094e-06
-2.4059048e-07
4.244279e-07
1.5811248e-07
-1.9948665e-07
-9.6597338e-06
-8.1286211e-08
-1.710474e-07
-8.3857754e-06
2.3328679e-07
9.6334809e-06
-7.8987345e-06
-7.2266585e-06
-9.2941016e-06
-7.1748321e-06
-6.7522558e-06
1.0185515e-05
3.3943543e-06
-8.3597599e-06
-2.8860165e-06
-3.0064661e-06
-7.5751833e-06
-2.3662256e-06
3.9625813e-06
1.5287637e-06
-8.7117297e-06
-1.3851588e-06
-1.2753842e-06
-7.8766674e-06
-1.1033497e-06
1.8676702e-06
7.3774578e-07
-8.9398166e-06
-7.2484401e-07
-5.9402854e-07
-8.0712208e-06
-5.9317274e-07
9.2389188e-07
3.7580261e-07
-9.0817506e-06
-4.0765528e-07
-2.9778655e-07
-8.193871e-06
-3.4637748e-07
4.7728451e-07
2.0170187e-07
-9.1754601e-06
-2.4531864e-07
-1.5941381e-07
-8.2730776e-06
-2.1664844e-07
2.5696951e-07
1.1382126e-07
-1.5747083e-07
-9.2406708e-06
-9.0628107e-08
-1.4530386e-07
-8.3286458e-06
1.4364275e-07
9.0221493e-06
-7.07364e-06
-6.6260176e-06
-8.8251776e-06
-6.5561684e-06
-6.5057419e-06
9.3423286e-06
3.1693072e-06
-7.4873812e-06
-2.7004485e-06
-2.9411689e-06
-6.9124029e-06
-2.3560162e-06
3.5153197e-06
1.4273364e-06
-7.7650135e-06
-1.2541313e-06
-1.2807103e-06
-7.1444571e-06
-1.0525262e-06
1.6085867e-06
7.0041642e-07
-7.9441168e-06
-6.3139622e-07
-6.1475127e-07
-7.2910512e-06
-5.3308232e-07
7.8692618e-07
3.6823284e-07
-8.0564038e-06
-3.4405671e-07
-3.1954502e-07
-7.3842819e-06
-2.9481534e-07
4.0989968e-07
2.0563713e-07
-8.1275354e-06
-2.0228825e-07
-1.7753231e-07
-7.4452278e-06
-1.7686877e-07
2.2680396e-07
1.2163748e-07
-1.2778173e-07
-8.1741458e-06
-1.0472097e-07
-1.1447223e-07
-7.4875513e-06
1.3312443e-07
8.5463589e-06
-6.248615e-06
-5.8976684e-06
-8.4146188e-06
-5.8699584e-06
-6.0225543e-06
8.7397701e-06
3.1188316e-06
-6.6322184e-06
-2.4703625e-06
-2.9652408e-06
-6.1989429e-06
-2.2556251e-06
3.3474243e-06
1.450568e-06
-6.8514337e-06
-1.1322849e-06
-1.3531956e-06
-6.3724409e-06
-9.7793084e-07
1.5494788e-06
7.2982454e-07
-6.9846282e-06
-5.5709238e-07
-6.7092795e-07
-6.4689183e-06
-4.731421e-07
7.6637023e-07
3.9126111e-07
-7.0659007e-06
-2.9773272e-07
-3.5630637e-07
-6.5253458e-06
-2.5141646e-07
4.0429389e-07
2.2165304e-07
-7.1169702e-06
-1.7228968e-07
-2.0058425e-07
-6.5605124e-06
-1.4644046e-07
2.2639133e-07
1.3231085e-07
-1.0724428e-07
-7.1507334e-06
-1.1908212e-07
-9.2742242e-08
-6.5842141e-06
1.3428185e-07
7.8338526e-06
-5.374423e-06
-5.0792007e-06
-7.7662975e-06
-5.082137e-06
-5.3653065e-06
7.9251468e-06
2.9819697e-06
-5.745509e-06
-2.1982458e-06
-2.8830703e-06
-5.3965885e-06
-2.0888286e-06
3.1295981e-06
1.4357404e-06
-5.9334227e-06
-1.0030143e-06
-1.3770838e-06
-5.5323334e-06
-8.924265e-07
1.4859958e-06
7.376835e-07
-6.0445674e-06
-4.8088071e-07
-7.0275368e-07
-5.6003509e-06
-4.1486372e-07
7.4742643e-07
4.0012866e-07
-6.1133009e-06
-2.501725e-07
-3.7894838e-07
-5.6389831e-06
-2.1161413e-07
3.9896174e-07
2.2786841e-07
-6.1572218e-06
-1.4173551e-07
-2.145083e-07
-5.6631621e-06
-1.1971071e-07
2.2531445e-07
1.3603603e-07
-8.6473132e-08
-6.1868825e-06
-1.2714406e-07
-7.4185728e-08
-5.6800495e-06
1.3436669e-07
6.7995984e-06
-4.4453832e-06
-4.2586326e-06
-6.7467112e-06
-4.2542861e-06
-4.619063e-06
6.8528991e-06
2.6890475e-06
-4.8107019e-06
-1.9206279e-06
-2.6012907e-06
-4.5763855e-06
-1.8872933e-06
2.8095345e-06
1.3339923e-06
-4.9804857e-06
-8.8269094e-07
-1.2845428e-06
-4.6989286e-06
-8.095255e-07
1.3736346e-06
6.9746938e-07
-5.0790946e-06
-4.1034422e-07
-6.6939431e-07
-4.7571001e-06
-3.6413899e-07
7.0491964e-07
3.8168359e-07
-5.1432267e-06
-2.0298679e-07
-3.6473878e-07
-4.7920803e-06
-1.7606537e-07
3.8111731e-07
2.1790555e-07
-5.1861128e-06
-1.0988917e-07
-2.0686325e-07
-4.8152488e-06
-9.5262141e-08
2.1662562e-07
1.2975496e-07
-6.438864e-08
-5.2159193e-06
-1.2203518e-07
-5.6954892e-08
-4.8320259e-06
1.2930006e-07
5.6900723e-06
-3.617478e-06
-3.46002e-06
-5.6624832e-06
-3.4931811e-06
-3.8299726e-06
5.6974425e-06
2.3098507e-06
-3.9716522e-06
-1.6422924e-06
-2.2340356e-06
-3.8137273e-06
-1.6653647e-06
2.4083522e-06
1.1676533e-06
-4.125769e-06