/*--------------------------------*- C++ -*----------------------------------*\
| =========                 |                                                 |
| \\      /  F ield         | OpenFOAM: The Open Source CFD Toolbox           |
|  \\    /   O peration     | Version:  2206                                  |
|   \\  /    A nd           | Website:  www.openfoam.com                      |
|    \\/     M anipulation  |                                                 |
\*---------------------------------------------------------------------------*/
FoamFile
{
    version     2.0;
    format      ascii;
    arch        "LSB;label=32;scalar=64";
    class       volScalarField;
    location    "300";
    object      rho;
}
// * * * * * * * * * * * * * * * * * * * * * * * * * * * * * * * * * * * * * //

dimensions      [1 -3 0 0 0 0 0];

internalField   nonuniform List<scalar> 
50904
(
1.1810198
1.1810344
1.1813809
1.1812681
1.1811545
1.1811849
1.1814402
1.1813649
1.1813802
1.1814061
1.1815343
1.181465
1.1816435
1.1816507
1.1816875
1.1815792
1.181889
1.1818743
1.1818246
1.1816727
1.1820478
1.1820229
1.1818709
1.1816988
1.1821504
1.1821261
1.1818567
1.1816771
1.1822274
1.1822126
1.1817958
1.1816166
1.1822876
1.1822928
1.1816667
1.1814991
1.1823273
1.1823632
1.181432
1.181291
1.1823461
1.1824225
1.1811181
1.1809998
1.1823737
1.1824819
1.18078
1.1806698
1.1824869
1.1826252
1.1806148
1.1805494
1.1827852
1.1829731
1.1809279
1.1809446
1.1832646
1.1835394
1.18196
1.1820648
1.1837027
1.1840822
1.1834939
1.1836786
1.1838894
1.1843882
1.18501
1.1852936
1.1838692
1.1844744
1.1862962
1.1867175
1.1837692
1.1844605
1.1873988
1.1880001
1.1837351
1.1844479
1.1884747
1.1892959
1.1838061
1.1845018
1.189566
1.1906486
1.1839123
1.184561
1.190571
1.1918788
1.1839239
1.1844669
1.1910435
1.1923506
1.1837796
1.1841764
1.1908073
1.1919254
1.1834973
1.183754
1.1901401
1.1910656
1.1831379
1.1832527
1.1893206
1.1900804
1.1827394
1.1827084
1.18852
1.1891579
1.1823945
1.1822361
1.1878271
1.1883894
1.1820932
1.1818239
1.1872726
1.1877835
1.1818512
1.1814825
1.1868352
1.1873032
1.1816703
1.1812133
1.1864639
1.1868901
1.1815364
1.1810003
1.1861072
1.186485
1.181425
1.18083
1.1857254
1.1860494
1.1813137
1.1807062
1.1853403
1.1855856
1.1811897
1.1806346
1.18504
1.1851722
1.1811136
1.1806028
1.184917
1.1849782
1.1803221
1.1802157
1.1800068
1.1800821
1.180033
1.1802505
1.1801561
1.1803771
1.1802483
1.1803962
1.1803
1.1803883
1.1803322
1.1803949
1.1803135
1.180251
1.1799213
1.1800417
1.1799159
1.1801649
1.1800258
1.1803002
1.1801151
1.180346
1.1801659
1.1803632
1.1802011
1.1803906
1.1802796
1.1802142
1.1797283
1.1798175
1.1796047
1.1797718
1.1796181
1.1798307
1.1796546
1.1798866
1.1796946
1.1799468
1.1797413
1.1800176
1.180254
1.1801402
1.1794624
1.1794807
1.1791959
1.1792805
1.1791154
1.1792626
1.1791041
1.1793052
1.1791252
1.179372
1.1791661
1.1794547
1.1801904
1.1800292
1.1791771
1.1791456
1.1788096
1.1788395
1.178664
1.178765
1.1786114
1.1787745
1.1786042
1.1788134
1.178617
1.1788644
1.1800758
1.1798848
1.178887
1.1788128
1.178439
1.1784163
1.1782357
1.1782839
1.1781395
1.1782314
1.1780773
1.1781962
1.1780245
1.1781784
1.179908
1.1796996
1.1785485
1.1784327
1.1780157
1.1779407
1.1777464
1.1777273
1.1775779
1.1775868
1.1774353
1.1774771
1.1773179
1.1774051
1.1796412
1.1794211
1.1780707
1.1779245
1.1774387
1.1773334
1.1770853
1.1770391
1.1768381
1.1768428
1.1766354
1.1766968
1.176475
1.1765959
1.1791978
1.1789798
1.177351
1.1772179
1.1766346
1.1765857
1.176228
1.1762877
1.1759512
1.1761036
1.1757309
1.1759649
1.1755594
1.1758653
1.178515
1.1783252
1.1763327
1.1762855
1.1756201
1.1757442
1.1752714
1.17557
1.1750583
1.1754864
1.174888
1.1754101
1.1747498
1.1753483
1.1776135
1.17743
1.174979
1.1750177
1.1743434
1.1746535
1.174123
1.1746614
1.1740322
1.1747205
1.1739644
1.1747407
1.1738893
1.1747322
1.1763871
1.1761715
1.1729263
1.1729752
1.172239
1.1726412
1.172074
1.1727718
1.1720566
1.172946
1.1720686
1.1730557
1.1720657
1.1731183
1.1751754
1.1749608
1.1702475
1.1703492
1.1690127
1.1696033
1.168573
1.1696241
1.1684429
1.1697977
1.1684257
1.1699575
1.1684489
1.1701026
1.1749695
1.1748901
1.1692109
1.1695196
1.1677589
1.168673
1.1673123
1.1687299
1.1672008
1.1689565
1.1672114
1.1691762
1.1672768
1.169378
1.1762001
1.1763138
1.1703362
1.1709312
1.1689523
1.1702119
1.1686664
1.170429
1.1686659
1.1707574
1.1687221
1.1710256
1.1687904
1.1712341
1.1787375
1.1789844
1.1734191
1.1742294
1.1722922
1.1738409
1.1722504
1.1743974
1.1724128
1.1749645
1.1725489
1.175357
1.1726204
1.1755921
1.1818242
1.1821861
1.1777988
1.1788703
1.1773678
1.179366
1.1778669
1.1806425
1.178383
1.1816961
1.1787177
1.1823741
1.1788666
1.1827399
1.1851081
1.1856361
1.1830634
1.1845239
1.183816
1.1864832
1.1851401
1.18876
1.1861655
1.1904144
1.1867807
1.1914246
1.187052
1.1919443
1.1883485
1.189197
1.1887374
1.1908945
1.1910399
1.1946373
1.1932753
1.1977965
1.1947845
1.1998231
1.1956343
1.2009644
1.1959889
1.2014921
1.1913985
1.1928015
1.1943289
1.1976093
1.1982793
1.2030406
1.201366
1.2066883
1.2032428
1.2086914
1.2042107
1.2096482
1.2045505
1.2099498
1.1940271
1.1961066
1.1987841
1.2032217
1.2038613
1.2094794
1.2074563
1.2129984
1.2094983
1.2146416
1.2104754
1.2152281
1.2107487
1.2151988
1.1958394
1.1983145
1.200918
1.2057282
1.205853
1.2112589
1.2091249
1.2138381
1.2108935
1.2146966
1.2116667
1.2147267
1.2117976
1.2143339
1.1961118
1.1980931
1.199496
1.2030873
1.2024907
1.2066502
1.2043688
1.2081765
1.2052832
1.2085839
1.2055769
1.208464
1.2054978
1.2080762
1.1949485
1.1960312
1.1961277
1.197935
1.1969382
1.1992165
1.1973634
1.1996856
1.1974982
1.199704
1.1974516
1.1995225
1.1972697
1.1992397
1.1934355
1.1938987
1.1932962
1.1938771
1.1929262
1.1936909
1.1925652
1.1934157
1.1923059
1.1931493
1.192097
1.1929155
1.1918773
1.1926714
1.1919688
1.192115
1.1911708
1.1912647
1.1904516
1.1906055
1.1898879
1.1901356
1.1895451
1.1898384
1.1893225
1.1896384
1.1891571
1.1894682
1.1907102
1.1907151
1.1895781
1.1895472
1.188874
1.18887
1.1883521
1.1884328
1.1880471
1.1881925
1.1878684
1.1880593
1.1877679
1.1879752
1.189723
1.1896559
1.18836
1.18833
1.1877223
1.187754
1.1873027
1.1874115
1.1870686
1.1872379
1.1869503
1.1871643
1.1869138
1.1871488
1.1889946
1.188878
1.1874432
1.187426
1.1868308
1.1869259
1.1864864
1.1866645
1.18631
1.1865423
1.186242
1.186512
1.1862557
1.1865454
1.1884636
1.1883074
1.186785
1.1867615
1.1861898
1.1863039
1.1858919
1.1860919
1.1857489
1.1859986
1.1857107
1.1859928
1.1857586
1.1860578
1.1880394
1.1878536
1.186304
1.1862658
1.1857519
1.1858561
1.1855047
1.1856924
1.1853937
1.185624
1.18537
1.1856276
1.1854314
1.1857064
1.1876326
1.1874288
1.1859038
1.1858552
1.18543
1.1855235
1.1852524
1.1854224
1.1851847
1.1853926
1.1851758
1.1854084
1.1852334
1.1854842
1.1872038
1.1869999
1.1855185
1.1854763
1.1851319
1.1852248
1.1850339
1.1851977
1.1850189
1.1852232
1.1850301
1.1852621
1.185079
1.1853337
1.186823
1.1866483
1.1851701
1.1851363
1.1847918
1.1848749
1.184741
1.1849043
1.1847712
1.1849803
1.1848012
1.1850419
1.1848453
1.1851084
1.1865918
1.1864423
1.1849638
1.1849198
1.1844805
1.1845247
1.1843841
1.1845071
1.1844447
1.1846169
1.184513
1.1847183
1.1845727
1.1848007
1.1865347
1.1863872
1.1849245
1.1848722
1.1843953
1.1844119
1.1842205
1.1843038
1.1842449
1.1843721
1.184319
1.1844783
1.1843884
1.18457
1.1803597
1.1804234
1.1803822
1.1804654
1.1804238
1.1805288
1.1804869
1.180621
1.1805618
1.1807359
1.1806504
1.1808588
1.1802392
1.1804367
1.1802811
1.1804915
1.1803365
1.1805571
1.1803997
1.1806361
1.1804621
1.1807261
1.1805676
1.1808537
1.1797995
1.1801043
1.1798632
1.1801912
1.1799353
1.1802807
1.1800127
1.1803815
1.1801055
1.1805068
1.1803212
1.1807408
1.1792266
1.1795565
1.1792949
1.1796574
1.1793761
1.1797655
1.1794753
1.179906
1.1796077
1.1801004
1.1799047
1.1804477
1.1786445
1.1789361
1.178683
1.1790167
1.1787463
1.1791188
1.1788498
1.1792805
1.1790174
1.1795464
1.1793712
1.1800047
1.1779925
1.1781955
1.1779871
1.1782377
1.178018
1.1783136
1.1781049
1.1784712
1.178294
1.1787899
1.1786965
1.1793811
1.177232
1.1773743
1.1771831
1.1773732
1.1771752
1.1774077
1.1772238
1.1775271
1.1774008
1.1778501
1.1778438
1.1785584
1.176353
1.1765342
1.1762718
1.1764964
1.1762302
1.1764884
1.176236
1.1765654
1.1763789
1.1768625
1.1768409
1.1776089
1.175429
1.1757958
1.1753336
1.1757334
1.1752668
1.175682
1.1752331
1.1756921
1.1753442
1.1759359
1.1758185
1.1766978
1.174643
1.175302
1.1745558
1.1752423
1.1744732
1.1751617
1.1743914
1.1750958
1.1744529
1.1752377
1.1749546
1.1759799
1.1738193
1.1747191
1.173753
1.1746743
1.1736671
1.1745762
1.1735259
1.1744305
1.1735054
1.1744556
1.1740165
1.1751246
1.1720458
1.1731508
1.1720167
1.1731264
1.1719539
1.1730321
1.1718161
1.1728803
1.1717782
1.1729158
1.1722848
1.1735653
1.1684963
1.1702532
1.1685604
1.170364
1.1686132
1.1704226
1.1686993
1.1705036
1.1689973
1.1708083
1.1696646
1.1715871
1.1673978
1.1696204
1.1675494
1.169853
1.1676986
1.1700325
1.1679299
1.1702568
1.1683801
1.170702
1.1691884
1.1715716
1.1688886
1.1714372
1.1690313
1.1716469
1.1691827
1.1718077
1.169428
1.1719916
1.1699234
1.1723876
1.1708235
1.173219
1.1726831
1.175794
1.1727349
1.1759684
1.1727753
1.1760509
1.1728852
1.1760896
1.1732523
1.1762996
1.1740905
1.1770379
1.1789496
1.1830079
1.1789687
1.1832147
1.178935
1.1833084
1.178928
1.18331
1.1791719
1.1834719
1.179965
1.1843163
1.187176
1.1922734
1.1871634
1.1924693
1.1870543
1.1925312
1.1869288
1.1924765
1.1870377
1.1926085
1.1877528
1.1936064
1.1960692
1.2017131
1.1959296
1.2017184
1.1956109
1.2015262
1.1951385
1.201086
1.1947438
1.2006599
1.1948291
1.2009887
1.2045305
1.2098995
1.2041686
1.2095175
1.2034819
1.2088032
1.2023302
1.2075251
1.2008421
1.2057394
1.1994316
1.20416
1.2105977
1.2147997
1.2100116
1.2139413
1.2089644
1.2125833
1.2070698
1.2103233
1.2042469
1.2069779
1.2010428
1.2032289
1.2115006
1.2136016
1.2107526
1.2123602
1.2095442
1.2105764
1.2073067
1.2077859
1.2036849
1.2037148
1.1993975
1.1990209
1.2050953
1.2074104
1.2042151
1.2063029
1.2028807
1.2047495
1.2007818
1.2023514
1.1978716
1.1989512
1.1951357
1.1953135
1.1968658
1.1987474
1.1961396
1.197899
1.1952157
1.196826
1.1939716
1.1953453
1.1925224
1.1934997
1.1914475
1.1917972
1.1915547
1.1922949
1.1911051
1.1917523
1.1906391
1.1911901
1.1901109
1.1905411
1.1895466
1.1898392
1.1890724
1.1891696
1.188973
1.1892424
1.1887844
1.188993
1.1886504
1.1888095
1.1885032
1.1886317
1.1882406
1.1883785
1.1878212
1.1879328
1.1876851
1.1878741
1.1876435
1.1878007
1.1876607
1.1878
1.1876469
1.1877979
1.1874719
1.1876739
1.1870839
1.1872979
1.1869006
1.1871295
1.1869263
1.1871421
1.1869981
1.1872163
1.1870301
1.1872776
1.1869094
1.1872103
1.1866051
1.1869145
1.186293
1.1865816
1.1863592
1.1866452
1.1864572
1.1867582
1.1865086
1.1868491
1.1864239
1.1868143
1.1862074
1.1865977
1.1858271
1.1861302
1.1859118
1.1862203
1.1860162
1.1863485
1.1860695
1.1864484
1.1860018
1.1864301
1.1858481
1.1862748
1.1855168
1.1858024
1.1856033
1.1859026
1.1856977
1.1860276
1.1857391
1.1861177
1.1856787
1.1861017
1.1855716
1.185995
1.185311
1.1855774
1.1853881
1.1856791
1.1854632
1.185789
1.1854873
1.1858569
1.1854425
1.1858428
1.1853884
1.1857931
1.185132
1.1854071
1.185183
1.1854837
1.1852355
1.1855677
1.1852588
1.185621
1.1852611
1.1856381
1.1852728
1.1856615
1.1848889
1.1851707
1.1849349
1.1852385
1.1849871
1.1853128
1.1850323
1.1853779
1.185081
1.1854458
1.1851456
1.1855353
1.1846269
1.1848736
1.1846802
1.1849475
1.1847332
1.1850205
1.1847863
1.1850936
1.1848499
1.185182
1.1849268
1.185295
1.1844516
1.1846516
1.1845136
1.1847324
1.1845769
1.1848117
1.1846459
1.1849003
1.1847227
1.1850063
1.1847831
1.1851062
1.1808498
1.1809369
1.1810371
1.180955
1.1811188
1.1809453
1.1811614
1.1809262
1.1812057
1.1809215
1.1812639
1.1809338
1.1808544
1.1810236
1.181118
1.1811242
1.1812273
1.1811392
1.181285
1.1811295
1.1813352
1.1811259
1.1813889
1.1811303
1.1807357
1.1810441
1.1810606
1.1812135
1.1811941
1.181252
1.18128
1.1812693
1.1813562
1.1812879
1.1814249
1.1813
1.180415
1.1808775
1.1807959
1.1811182
1.1809589
1.1811927
1.1810672
1.1812363
1.1811625
1.1812758
1.1812503
1.1813078
1.1799438
1.1805401
1.1803673
1.1808441
1.1805527
1.1809491
1.180681
1.1810178
1.1808005
1.1810851
1.1809209
1.1811533
1.1793098
1.180032
1.1797837
1.1804252
1.1800099
1.1805823
1.1801792
1.1806923
1.1803445
1.1808058
1.1805097
1.1809274
1.1784832
1.179344
1.1790033
1.1798431
1.1792784
1.1800689
1.1795112
1.1802479
1.1797593
1.180446
1.180019
1.1806745
1.1774858
1.1785051
1.1780142
1.1791097
1.1783229
1.1794031
1.1786188
1.1796552
1.1789774
1.1799631
1.1794052
1.1803645
1.1764634
1.1776459
1.1769461
1.1782925
1.1772192
1.1785963
1.1774898
1.1788519
1.1778703
1.1791997
1.1784492
1.1797536
1.1756713
1.1769953
1.1761736
1.1776801
1.1764181
1.1779709
1.1766292
1.1781816
1.1769106
1.1784602
1.1773635
1.1789352
1.1748101
1.1761183
1.175344
1.176763
1.1755712
1.1769999
1.1757546
1.1771593
1.1760412
1.1774398
1.1765109
1.1779411
1.1730064
1.1744405
1.1734642
1.1749759
1.1736513
1.1751774
1.1738083
1.1753366
1.1741561
1.1756574
1.1748452
1.176229
1.170195
1.1723728
1.1704109
1.1728346
1.1705036
1.1730279
1.1706041
1.173217
1.1708149
1.1736087
1.171258
1.17432
1.1699246
1.1724727
1.1703477
1.1730537
1.1705374
1.1733067
1.1707167
1.1735399
1.1710392
1.1739324
1.1716878
1.1745615
1.1717314
1.1741455
1.1722955
1.1747674
1.1725264
1.1750026
1.1727216
1.1751478
1.1730628
1.1753984
1.1736555
1.175916
1.174984
1.1780933
1.1754776
1.1788069
1.1756207
1.1790236
1.1756824
1.1790742
1.1758045
1.1791028
1.1760528
1.1792128
1.1809098
1.1857744
1.1813616
1.1867598
1.1814165
1.1870291
1.1813473
1.1870397
1.1812662
1.1869559
1.1811172
1.1867471
1.1887891
1.1954552
1.1892912
1.1967066
1.1893346
1.1970722
1.1892012
1.1971196
1.189005
1.1970693
1.1886718
1.1968901
1.1954921
1.2024253
1.1958558
1.2035099
1.1958577
1.2038105
1.1956595
1.2038731
1.1953806
1.2039089
1.1950539
1.2038578
1.1988908
1.2040579
1.1987937
1.2044224
1.1985902
1.2043868
1.1982096
1.2041921
1.1977478
1.2039925
1.1973029
1.203876
1.1990244
1.2012264
1.1983512
1.2006373
1.1979215
1.2002259
1.1973192
1.1996951
1.1965629
1.199084
1.1957863
1.1985141
1.1965382
1.196043
1.1955135
1.1949116
1.1949836
1.1943648
1.1943253
1.1937463
1.193487
1.1930122
1.1925805
1.1922408
1.1936547
1.1931445
1.1930924
1.1922995
1.1927209
1.1918689
1.1922376
1.1913668
1.1916635
1.190762
1.1910034
1.1901069
1.190944
1.1907855
1.1906952
1.1903044
1.1905362
1.190078
1.1903528
1.1898493
1.1900899
1.1895477
1.1896988
1.1891671
1.1887446
1.1885898
1.1886072
1.1882867
1.1886197
1.1882518
1.1886725
1.1882727
1.1886233
1.1882175
1.1883855
1.1880196
1.1874209
1.1873961
1.187288
1.1871578
1.1873854
1.1872344
1.1875711
1.1874139
1.1876597
1.1875151
1.1875838
1.1874683
1.1866743
1.1868232
1.1865602
1.1866647
1.1867107
1.1868235
1.1869841
1.1871198
1.1872082
1.1873493
1.1873123
1.1874325
1.1862651
1.1865378
1.1861827
1.1864577
1.1863581
1.1866574
1.1866679
1.1869971
1.1869627
1.1872858
1.1871663
1.1874375
1.185971
1.1863277
1.1859349
1.1862945
1.1861236
1.186499
1.1864363
1.1868368
1.1867447
1.1871506
1.1869814
1.1873576
1.1857086
1.1861031
1.1857257
1.1861174
1.1859174
1.186322
1.1862093
1.1866432
1.1864965
1.1869574
1.1867154
1.1871824
1.1855092
1.1859131
1.1855613
1.1859737
1.1857346
1.1861637
1.1859842
1.1864394
1.1862264
1.1867095
1.1864064
1.1869017
1.1853894
1.1857877
1.1854656
1.1858775
1.1856039
1.186033
1.1858001
1.1862488
1.185993
1.1864597
1.1861382
1.186608
1.1853308
1.1857234
1.1854465
1.1858541
1.185552
1.1859731
1.1856904
1.1861255
1.1858304
1.186274
1.1859431
1.1863836
1.1852589
1.1856663
1.1854364
1.1858644
1.1855268
1.1859629
1.1856222
1.1860653
1.1857137
1.1861591
1.1857923
1.1862298
1.1850615
1.1854521
1.1853221
1.1857349
1.1854398
1.1858436
1.1855274
1.1859265
1.1856038
1.1859981
1.1856778
1.1860658
1.1848733
1.1852068
1.1851341
1.1854895
1.185288
1.1856318
1.1853973
1.1857345
1.1854916
1.1858272
1.1855888
1.1859262
1.1813154
1.1809379
1.1813774
1.18095
1.1814652
1.1809866
1.1815948
1.1810604
1.1817804
1.1811773
1.1820465
1.1813577
1.1826284
1.1821127
1.18143
1.1811263
1.1814773
1.1811289
1.1815442
1.1811498
1.1816469
1.1812002
1.1817992
1.1812833
1.1820329
1.1814033
1.1825901
1.1820462
1.1814714
1.1812943
1.1815235
1.1812998
1.1815865
1.1813201
1.1816666
1.1813534
1.1817799
1.1813941
1.1819705
1.1814526
1.1824618
1.1819622
1.1813164
1.1813179
1.1813829
1.1813295
1.1814517
1.1813432
1.1815268
1.1813591
1.1816241
1.1813777
1.181789
1.1814232
1.1822164
1.1819035
1.1810174
1.1811969
1.181107
1.1812296
1.1811921
1.1812538
1.1812718
1.1812684
1.1813602
1.1812786
1.1815049
1.1813253
1.1818836
1.1818034
1.180634
1.1810101
1.1807447
1.181071
1.180851
1.1811199
1.1809537
1.1811598
1.1810516
1.1811897
1.1811791
1.1812475
1.1814996
1.1816898
1.1802086
1.1808426
1.1803622
1.1809604
1.1805037
1.1810535
1.1806411
1.1811373
1.1807698
1.1812167
1.1808924
1.1813067
1.1811203
1.1816689
1.1797416
1.1807053
1.1799909
1.1809457
1.1802013
1.181125
1.180395
1.1812727
1.1805703
1.1814059
1.1807013
1.1815299
1.1808243
1.1817941
1.1790239
1.1803327
1.1794777
1.1807979
1.179846
1.1811627
1.1801509
1.1814334
1.1804038
1.1816354
1.1805754
1.1818003
1.1806443
1.1820059
1.1779424
1.179519
1.178564
1.180132
1.1791824
1.1807855
1.1797263
1.1813375
1.180162
1.1817266
1.1804771
1.1820129
1.1806311
1.1822904
1.1770093
1.1785096
1.1775141
1.1790666
1.1781798
1.1797551
1.1789733
1.1806245
1.1797281
1.1814182
1.18038
1.1820502
1.180841
1.1825799
1.1756004
1.1768682
1.1763072
1.1775069
1.1770982
1.1783027
1.1780311
1.1793696
1.1790681
1.1805783
1.1801057
1.1816645
1.1809397
1.1824953
1.1719336
1.1751091
1.1730546
1.17592
1.1746574
1.1769243
1.1763522
1.1781716
1.1779457
1.1796032
1.1793872
1.1809845
1.1804945
1.1819964
1.1725619
1.1752161
1.1735656
1.1758662
1.1747868
1.1767265
1.1761614
1.1779338
1.177584
1.1793895
1.1789484
1.1807692
1.1799828
1.1816548
1.1742616
1.176401
1.1748442
1.1768504
1.175552
1.1774753
1.176476
1.178477
1.1775788
1.1797635
1.1787137
1.1809707
1.1794477
1.1814692
1.1763077
1.1793158
1.1765526
1.1794176
1.1768395
1.1795778
1.1772917
1.1799762
1.1779899
1.1807505
1.1787926
1.1815356
1.1790847
1.1814643
1.1808335
1.1863166
1.1805389
1.1858137
1.1802224
1.1852228
1.1799633
1.1845982
1.1798331
1.1839403
1.1797856
1.1831441
1.1793096
1.1818893
1.1881114
1.1963563
1.1874624
1.1956498
1.1866173
1.1946329
1.1855084
1.1930919
1.1839996
1.1904195
1.1820558
1.186212
1.1801635
1.1828327
1.1946277
1.2036174
1.1940994
1.2032584
1.1933583
1.2027204
1.1920937
1.201538
1.1897144
1.1983421
1.1857162
1.1910919
1.1818107
1.184498
1.196946
1.2038426
1.1966443
1.2038586
1.1963495
1.2039737
1.1957952
1.2039729
1.1941811
1.2026782
1.1901566
1.1967527
1.1844628
1.1874012
1.1952803
1.1982378
1.1949371
1.1981484
1.1947663
1.1983121
1.1947054
1.1988341
1.1943407
1.1994623
1.1924348
1.1981608
1.1873706
1.1907587
1.1919936
1.1918104
1.1915558
1.1914765
1.19125
1.1912847
1.1910832
1.1912888
1.1909824
1.1915811
1.1906632
1.1920933
1.1889084
1.191165
1.1905224
1.1896969
1.1901361
1.1893677
1.1897959
1.1890601
1.1895553
1.1888548
1.1894459
1.1888496
1.1895149
1.1893019
1.1895226
1.1903967
1.1893495
1.18889
1.1890139
1.1886362
1.1886858
1.1883927
1.188505
1.1882896
1.1884693
1.1883585
1.1885925
1.1887095
1.1890863
1.189794
1.1881253
1.1878332
1.1878965
1.187696
1.1876721
1.1875879
1.1875251
1.1875479
1.1873849
1.1875136
1.1872517
1.1874777
1.1876878
1.1881254
1.1875115
1.187416
1.1874817
1.1874141
1.1874125
1.1873962
1.1872887
1.1873233
1.1870455
1.1870759
1.1867861
1.1866507
1.1874065
1.187024
1.1874087
1.1874913
1.187514
1.1875818
1.1875015
1.1875941
1.1873461
1.1874695
1.1870562
1.1871166
1.1868026
1.1865961
1.1876446
1.1870747
1.1873507
1.1875715
1.187508
1.1877167
1.1874819
1.1877298
1.1872951
1.1875703
1.187017
1.1871955
1.1868084
1.1866841
1.1878051
1.1873115
1.1871784
1.187539
1.1873135
1.1876964
1.187252
1.1876726
1.1870795
1.1874872
1.1868561
1.1871348
1.1866984
1.1866789
1.1877952
1.1874487
1.1868762
1.187353
1.1869744
1.1874741
1.1869152
1.1874179
1.1867964
1.1872529
1.186628
1.1869536
1.1865046
1.1865517
1.1876716
1.1874352
1.186536
1.1870371
1.1866231
1.1871303
1.1865902
1.1870839
1.1865251
1.1869704
1.1864024
1.1867299
1.1863132
1.1863778
1.1875512
1.1873575
1.1862524
1.186717
1.1863413
1.1868048
1.1863374
1.1867882
1.1863213
1.1867301
1.1862343
1.1865375
1.1861761
1.1862268
1.1874758
1.1872786
1.1860419
1.1864764
1.1861269
1.1865587
1.1861531
1.1865703
1.1861746
1.1865527
1.1861103
1.1863859
1.186077
1.1860967
1.187424
1.1872034
1.1858706
1.1863001
1.1859557
1.186372
1.1860174
1.1864091
1.1860647
1.1864155
1.1860116
1.1862577
1.1859968
1.185979
1.187371
1.1871248
1.1857565
1.1861398
1.1858499
1.1862255
1.1859367
1.1862971
1.1860025
1.1863265
1.1859572
1.1861718
1.1859487
1.1858965
1.1873058
1.187046
1.1856879
1.186027
1.185804
1.1861425
1.1859224
1.1862524
1.1860138
1.1863159
1.1859788
1.1861779
1.1859651
1.1858974
1.1872863
1.1870186
1.1832292
1.18362
1.1826771
1.1836341
1.1804474
1.1819868
1.1776524
1.1785774
1.183195
1.1836024
1.1826255
1.1836329
1.1803852
1.1819443
1.1776909
1.1785906
1.1830259
1.1834883
1.1824132
1.1835053
1.1801808
1.181756
1.1777425
1.1785732
1.1827036
1.1832627
1.1820626
1.1832106
1.1799325
1.1814827
1.1777764
1.1785292
1.1823015
1.1829462
1.1816642
1.1828348
1.1797082
1.1812058
1.1778104
1.1785007
1.1818384
1.1825721
1.181231
1.182406
1.1795139
1.1809458
1.1778498
1.1784952
1.1813211
1.182239
1.1807404
1.181954
1.1793308
1.1806976
1.1778852
1.1785073
1.1808382
1.1820699
1.1802209
1.1815975
1.1790967
1.1804096
1.1778863
1.1785094
1.180523
1.18208
1.1798411
1.1814524
1.17881
1.1801666
1.1778474
1.1784736
1.1804703
1.1823113
1.1797541
1.1816094
1.1787211
1.1802313
1.1777919
1.1783647
1.1807924
1.1827182
1.1801031
1.1820984
1.1790509
1.1807545
1.1778894
1.1786128
1.1810472
1.1827627
1.1805323
1.1823375
1.1796337
1.1812781
1.1782443
1.1791099
1.1806868
1.1822908
1.1803013
1.1820237
1.179504
1.1811843
1.1779655
1.1790305
1.1801155
1.1817557
1.1797563
1.1815051
1.1789729
1.1807663
1.1773928
1.1786797
1.1793568
1.1812481
1.1788947
1.1808103
1.1781189
1.1800144
1.1766779
1.178137
1.1786896
1.1809177
1.1780437
1.180215
1.1772814
1.1793275
1.1761147
1.177766
1.1786381
1.1810858
1.1778307
1.1802751
1.1770606
1.1793892
1.1761306
1.1781795
1.1792512
1.1818335
1.1784116
1.1811183
1.1776843
1.1804052
1.1769191
1.1795639
1.1805851
1.1831897
1.1797922
1.1826422
1.1791707
1.182247
1.1785014
1.1817278
1.1826664
1.1852489
1.1818719
1.1847378
1.1814634
1.1846847
1.1808295
1.1843507
1.1852189
1.1877509
1.1843383
1.1869468
1.1843167
1.1872841
1.1837589
1.1868882
1.1875669
1.189667
1.1868882
1.1890482
1.1874575
1.1897281
1.1869506
1.1891085
1.1890927
1.1905151
1.188988
1.1905625
1.1901634
1.1916478
1.1895377
1.1909058
1.1894189
1.1906577
1.1899621
1.1911958
1.1918294
1.1926926
1.1910104
1.1919653
1.1886684
1.1893684
1.1900686
1.1906308
1.19261
1.1929068
1.1915769
1.1923241
1.1889873
1.1886453
1.1907633
1.190525
1.1931437
1.1930818
1.1916471
1.1923096
1.1895056
1.1889848
1.1912563
1.1909595
1.1933586
1.193297
1.1915532
1.1922512
1.1897235
1.1892871
1.1913158
1.1911091
1.1931587
1.1931698
1.1912951
1.191981
1.1896628
1.1894095
1.1910454
1.191012
1.1926679
1.1927568
1.1909408
1.1915629
1.1894581
1.189378
1.190636
1.1907835
1.192074
1.1922572
1.1904608
1.1910685
1.1892963
1.1893181
1.1903188
1.1905927
1.1915578
1.1918152
1.1899329
1.1905158
1.1892093
1.1892607
1.1901474
1.1904536
1.191227
1.1914908
1.1895124
1.1900384
1.1891574
1.1892084
1.1900571
1.1903526
1.1910354
1.1912622
1.1892618
1.1897068
1.1891029
1.1891547
1.1899724
1.1902604
1.1908887
1.1910801
1.189096
1.1894646
1.1890151
1.1890744
1.1898552
1.1901461
1.1907349
1.1909083
1.1889459
1.1892624
1.1889561
1.1890195
1.1897698
1.1900644
1.1906292
1.1908004
1.1888569
1.1891605
1.1820202
1.182259
1.1779909
1.1774112
1.1789598
1.1803017
1.1821991
1.1823886
1.1780736
1.1775
1.1791165
1.1804364
1.1824925
1.1826314
1.1782804
1.1777066
1.1793546
1.1806354
1.1827664
1.1828673
1.1785121
1.177927
1.1795482
1.1808046
1.1829868
1.1830628
1.1787217
1.1781141
1.1797376
1.180977
1.1831176
1.183178
1.1788981
1.178272
1.1799663
1.1811859
1.1831899
1.183239
1.1790645
1.1784288
1.1802456
1.1814363
1.1832334
1.1832714
1.1792491
1.178613
1.180557
1.181719
1.1832538
1.1832765
1.1794655
1.1788335
1.1809161
1.1820554
1.1832499
1.1832452
1.1797101
1.1790821
1.1813349
1.1824603
1.1832264
1.1831791
1.1799678
1.1793443
1.1817946
1.1829085
1.1831867
1.1830901
1.1802236
1.1796217
1.1822178
1.1833418
1.183132
1.1829958
1.1804964
1.1799319
1.1825283
1.1836468
1.1831402
1.1829366
1.1807997
1.1802445
1.1825666
1.1836876
1.1831593
1.1828705
1.1809282
1.180402
1.1823534
1.1833447
1.1829653
1.1826044
1.1806185
1.1801266
1.181597
1.1823601
1.1824691
1.1820514
1.1800601
1.1795784
1.1805686
1.1810549
1.181834
1.1813728
1.179467
1.1790095
1.179577
1.1798094
1.1811435
1.180709
1.1790209
1.1786368
1.1790569
1.1790478
1.1803957
1.1800949
1.1787824
1.1784852
1.1789772
1.1787306
1.1795713
1.1795327
1.1783463
1.1782406
1.1785622
1.1781895
1.1789314
1.1791739
1.1779512
1.1780327
1.178331
1.1778397
1.1787017
1.1790777
1.1781134
1.1782362
1.1784495
1.1778831
1.1787918
1.1791221
1.1788833
1.1789432
1.1789615
1.178338
1.1789866
1.1791872
1.1799949
1.179928
1.1796691
1.1789929
1.1790324
1.1791013
1.1810702
1.180841
1.180369
1.1796366
1.1789189
1.1789194
1.181592
1.1812613
1.1809458
1.1801533
1.1788058
1.1787458
1.1819673
1.1814959
1.1814362
1.1805773
1.1786868
1.1785713
1.1822903
1.1816592
1.1818476
1.180906
1.1785757
1.1784158
1.1825595
1.1817973
1.1821966
1.181154
1.178515
1.1783166
1.1827846
1.1819271
1.1824818
1.1813216
1.1785153
1.1782885
1.182994
1.182058
1.182698
1.1814028
1.1785706
1.1783224
1.1832033
1.1821972
1.1828733
1.1814706
1.1786939
1.1784188
1.1834222
1.1823568
1.1830262
1.1815367
1.1788613
1.1785454
1.1836376
1.1825212
1.1831058
1.1815804
1.1789802
1.178627
1.1837708
1.1826382
1.1830761
1.1815732
1.180291
1.1808581
1.1811582
1.1810473
1.181014
1.1810617
1.1815301
1.1812789
1.1814131
1.181256
1.1813345
1.1814806
1.1803452
1.1809134
1.1812558
1.181166
1.1811429
1.1811911
1.1816586
1.1813781
1.1815092
1.1813374
1.1813986
1.1815348
1.180449
1.1810542
1.1814592
1.1814057
1.18139
1.1814239
1.1818636
1.1816131
1.1817609
1.1815518
1.1815552
1.1816493
1.1804931
1.1811782
1.1816523
1.1816526
1.1816643
1.1817004
1.1819787
1.1818285
1.1820441
1.181839
1.181804
1.1818475
1.1805233
1.1812754
1.1818028
1.1818493
1.1818937
1.1819472
1.182054
1.1819794
1.1822383
1.1820507
1.1819999
1.1820206
1.1805752
1.1813765
1.1819209
1.1819813
1.1820403
1.1821013
1.1821474
1.1821005
1.182353
1.1821469
1.1820811
1.1820826
1.1806636
1.1815097
1.1820331
1.18208
1.1821368
1.1821982
1.1822831
1.1822377
1.1824339
1.1821784
1.1820903
1.182073
1.1807838
1.1816717
1.1821415
1.18216
1.1822084
1.1822665
1.1824643
1.1823881
1.1824726
1.1821481
1.1820335
1.1820061
1.1809297
1.1818624
1.1822367
1.1822088
1.1822496
1.1823091
1.1826809
1.1825168
1.1824205
1.1820026
1.1818684
1.1818483
1.1810895
1.1820751
1.1823114
1.1822163
1.1822462
1.1823205
1.1829031
1.1826097
1.1822928
1.1817444
1.1815733
1.1815683
1.1812403
1.1822869
1.1823554
1.1821841
1.1822014
1.182302
1.1830999
1.1826916
1.1821406
1.1814478
1.1812271
1.1812187
1.1813228
1.1824289
1.1823719
1.1821551
1.1821646
1.182284
1.1832321
1.1827555
1.1819999
1.181187
1.1809016
1.1808643
1.1812604
1.1824629
1.1823906
1.1821887
1.182221
1.1823589
1.1832444
1.1828154
1.1819506
1.1810786
1.1807529
1.1806812
1.1810277
1.1824028
1.1824208
1.1823182
1.1824213
1.182613
1.1831558
1.1829342
1.1821085
1.1813013
1.1810033
1.1809609
1.1806192
1.1822887
1.1824582
1.182534
1.1827401
1.183017
1.183064
1.1832821
1.1826486
1.1820482
1.181872
1.1819282
1.1800953
1.1820886
1.1824397
1.182654
1.1829825
1.1833418
1.1829639
1.183809
1.1834856
1.1831778
1.1831867
1.1833596
1.1797444
1.1818558
1.1822622
1.1825602
1.1829492
1.1834159
1.1829323
1.1843617
1.1843104
1.1842397
1.1844343
1.1847569
1.1796345
1.1816965
1.1820061
1.1823252
1.1827206
1.1832819
1.1829845
1.1848715
1.184961
1.1850564
1.1854101
1.1859041
1.1796557
1.1816023
1.1818101
1.1820633
1.1824711
1.1830925
1.1830999
1.1853132
1.1854655
1.1856803
1.1861722
1.1868398
1.17975
1.1815755
1.1816978
1.1818721
1.182317
1.183005
1.1832506
1.1857148
1.1859243
1.1862508
1.1868756
1.1877253
1.1798329
1.1815322
1.181574
1.1816949
1.1822167
1.183023
1.1832327
1.1859851
1.1863044
1.1867607
1.1875528
1.1885988
1.1799963
1.1814559
1.1814047
1.1814652
1.1820952
1.1830663
1.1828512
1.1859141
1.1864499
1.1871122
1.1881269
1.1894102
1.1802781
1.1814226
1.181196
1.1811504
1.1818754
1.1830086
1.182059
1.1854753
1.1861702
1.1870791
1.1883089
1.1897921
1.1806521
1.1815693
1.1811144
1.1808846
1.1816339
1.1828567
1.1811958
1.184933
1.1857346
1.1867754
1.1881244
1.1896396
1.1809054
1.1817422
1.1810961
1.1806624
1.1813659
1.1826084
1.1803817
1.1843798
1.185258
1.186346
1.1877007
1.1891287
1.1809602
1.1818339
1.1810742
1.1804859
1.1810953
1.1823056
1.1796349
1.1838263
1.1847702
1.1858694
1.1871617
1.1884671
1.180845
1.181823
1.1810192
1.1803426
1.1808347
1.1819804
1.178967
1.1832842
1.1842892
1.1853927
1.1865981
1.1877939
1.1806181
1.1817386
1.1809297
1.1802229
1.180633
1.1817032
1.178383
1.1827938
1.1838478
1.1849409
1.1860653
1.1871819
1.1803505
1.1816225
1.1808205
1.1801203
1.1804841
1.1814772
1.1778784
1.1823627
1.1834584
1.1845439
1.1856036
1.1866721
1.1800967
1.1815076
1.1807239
1.1800485
1.1803934
1.1813113
1.1774568
1.182004
1.1831331
1.1842174
1.1852334
1.1862654
1.1798902
1.181416
1.180662
1.1800169
1.1803667
1.1812045
1.177118
1.1817245
1.1828853
1.1839684
1.1849465
1.1859267
1.17973
1.1813643
1.1806554
1.1800341
1.1803909
1.1811487
1.1768527
1.1815171
1.1827147
1.1837882
1.1847142
1.1856167
1.179605
1.1813561
1.1807006
1.1800858
1.1804397
1.1811199
1.1766495
1.1813657
1.1825901
1.1836323
1.1844875
1.1852884
1.1794943
1.181357
1.1807444
1.1801218
1.1804756
1.1810893
1.176484
1.1812149
1.1824501
1.1834471
1.1842215
1.184933
1.1793446
1.1813028
1.1807207
1.1801044
1.1804644
1.1810285
1.1762926
1.1810082
1.1822677
1.1832354
1.1839551
1.1846366
1.1792148
1.1812368
1.1806856
1.1800775
1.1804375
1.1809765