/*--------------------------------*- C++ -*----------------------------------*\
| =========                 |                                                 |
| \\      /  F ield         | OpenFOAM: The Open Source CFD Toolbox           |
|  \\    /   O peration     | Version:  2206                                  |
|   \\  /    A nd           | Website:  www.openfoam.com                      |
|    \\/     M anipulation  |                                                 |
\*---------------------------------------------------------------------------*/
FoamFile
{
    version     2.0;
    format      ascii;
    arch        "LSB;label=32;scalar=64";
    class       volScalarField;
    location    "300";
    object      T;
}
// * * * * * * * * * * * * * * * * * * * * * * * * * * * * * * * * * * * * * //

dimensions      [0 0 0 1 0 0 0];

internalField   nonuniform List<scalar> 
50904
(
292.2219
292.22967
292.45359
292.42715
292.22583
292.23073
292.45982
292.43135
292.24894
292.25176
292.48671
292.46029
292.28197
292.28351
292.52509
292.50161
292.31889
292.31909
292.57324
292.5534
292.36023
292.35909
292.63448
292.61729
292.40876
292.40669
292.71533
292.7006
292.46665
292.4638
292.82091
292.8087
292.53124
292.52766
292.95973
292.95015
292.59903
292.5933
293.13497
293.1293
292.65453
292.6473
293.31934
293.32573
292.65739
292.65047
293.47871
293.49961
292.56048
292.54772
293.57943
293.60738
292.30949
292.2903
293.54186
293.56858
291.85357
291.83435
293.26007
293.26943
291.29536
291.29823
292.72517
292.72534
290.89502
290.91462
292.13748
292.14371
290.68881
290.71797
291.62556
291.64323
290.61493
290.64588
291.25368
291.27709
290.61672
290.64065
291.01669
291.03413
290.65263
290.66373
290.87273
290.88738
290.69446
290.70585
290.79318
290.82344
290.73987
290.77118
290.72951
290.79769
290.80555
290.88131
290.66505
290.74957
290.86007
290.99255
290.60053
290.67911
290.90055
291.09266
290.53648
290.59747
290.92168
291.16858
290.47799
290.52443
290.93698
291.22941
290.42839
290.46525
290.95022
291.27647
290.39342
290.42296
290.96341
291.31332
290.37147
290.39163
290.97569
291.33989
290.3554
290.36621
290.98064
291.35287
290.34192
290.34544
290.96743
291.34096
290.33017
290.33303
290.92623
291.29306
290.32475
290.33291
290.87103
291.21985
290.33277
290.34199
290.85084
291.18088
290.34037
290.35263
292.3577
292.27777
291.44015
291.23898
290.65371
290.46202
290.22892
290.11742
290.02134
289.99565
289.90098
289.9363
289.8177
289.89306
292.40131
292.32909
291.60975
291.40635
290.90073
290.65353
290.45337
290.25315
290.18567
290.05037
290.00784
289.94015
289.87794
289.87477
292.48273
292.42676
291.90142
291.73853
291.35529
291.09849
290.92829
290.64622
290.60524
290.34582
290.35261
290.14
290.1457
289.98804
292.56311
292.52147
292.13967
292.02646
291.74476
291.53592
291.39474
291.11949
291.09821
290.79332
290.8389
290.53509
290.60005
290.31844
292.64272
292.61228
292.32204
292.25189
292.04652
291.90276
291.79133
291.57878
291.56373
291.29583
291.34966
291.04433
291.13548
290.80729
292.73056
292.71088
292.47856
292.44558
292.2925
292.21153
292.1233
291.98949
291.97303
291.78502
291.82489
291.58748
291.66496
291.38202
292.83716
292.82705
292.63633
292.63593
292.5143
292.48923
292.41068
292.35034
292.31935
292.21994
292.22917
292.08732
292.12816
291.94023
292.97353
292.97178
292.8165
292.84435
292.74312
292.7662
292.6851
292.69058
292.63394
292.61514
292.58211
292.53389
292.52255
292.4389
293.15053
293.15653
293.03578
293.08457
293.00205
293.06075
292.98089
293.03547
292.96173
293.00346
292.93792
292.9625
292.9058
292.90892
293.37622
293.38853
293.30264
293.35938
293.29472
293.36722
293.29685
293.37225
293.29726
293.3675
293.29161
293.35143
293.27705
293.32365
293.65352
293.67121
293.62603
293.67511
293.62178
293.6845
293.62349
293.69189
293.62463
293.69174
293.62256
293.6839
293.61432
293.66632
293.98073
294.00716
294.04029
294.07055
294.03907
294.06861
294.02978
294.05858
294.01579
294.04252
293.99736
294.01993
293.9736
293.98725
294.32654
294.36898
294.57431
294.58833
294.62964
294.61268
294.64315
294.60513
294.63478
294.58097
294.6119
294.54188
294.57028
294.48217
294.58244
294.64297
295.05773
295.07542
295.18475
295.145
295.22773
295.14283
295.22898
295.10852
295.20524
295.05514
295.15375
294.97328
294.56009
294.62636
295.17323
295.23784
295.33707
295.37564
295.39408
295.41553
295.40675
295.41465
295.39414
295.38927
295.36244
295.34377
294.15962
294.20738
294.72229
294.79638
294.83955
294.90175
294.87241
294.93161
294.88026
294.94498
294.87695
294.95057
294.86614
294.94969
293.53295
293.56134
293.87081
293.91159
293.78247
293.7601
293.66759
293.58761
293.58679
293.46828
293.53696
293.39642
293.50828
293.35839
292.8058
292.82529
292.8267
292.81126
292.43694
292.27845
292.08834
291.78324
291.85162
291.43333
291.70467
291.20812
291.61828
291.07166
292.10523
292.0995
291.82652
291.71248
291.20491
290.87261
290.68902
290.1504
290.34094
289.64564
290.1215
289.31736
289.98699
289.11082
291.56808
291.49266
291.13381
290.86517
290.47927
289.96085
289.96437
289.24543
289.62538
288.76644
289.41593
288.4654
289.29083
288.28317
291.31187
291.15005
290.97308
290.56937
290.47919
289.8747
290.09393
289.37262
289.84796
289.06628
289.70632
288.89524
289.63405
288.81121
291.31691
291.16342
291.2834
290.88977
291.0602
290.54084
290.85756
290.31248
290.73075
290.19915
290.66957
290.16174
290.65548
290.17436
291.38595
291.34128
291.64834
291.47337
291.73963
291.49144
291.78963
291.49218
291.82555
291.50106
291.85915
291.52588
291.89509
291.56665
291.33212
291.39016
291.65222
291.65969
291.80253
291.79845
291.89175
291.88173
291.94457
291.93393
291.98129
291.97158
292.00416
292.00644
291.20132
291.29241
291.45525
291.51775
291.5309
291.59435
291.55351
291.62327
291.55878
291.63322
291.55814
291.63352
291.5529
291.62584
291.06045
291.14878
291.23751
291.29659
291.26369
291.31582
291.25451
291.30544
291.23901
291.28926
291.22312
291.27211
291.20578
291.25223
290.93455
291.00593
291.04185
291.08276
291.04057
291.07006
291.02339
291.04741
291.00378
291.02515
290.98325
291.00288
290.95979
290.97693
290.82468
290.87906
290.86624
290.88998
290.83665
290.8503
290.8116
290.82048
290.78862
290.79555
290.76446
290.76998
290.73608
290.73912
290.72955
290.7683
290.70478
290.71676
290.63856
290.64437
290.59477
290.59885
290.56092
290.56519
290.52997
290.53336
290.49695
290.49739
290.64377
290.66866
290.5527
290.55724
290.44787
290.44892
290.38031
290.38021
290.33183
290.33252
290.29334
290.29274
290.25828
290.25367
290.56154
290.57335
290.40465
290.40393
290.26832
290.2637
290.18298
290.17288
290.12575
290.11304
290.08558
290.06825
290.05496
290.03039
290.47706
290.47569
290.25584
290.24967
290.10294
290.08915
290.01348
289.98528
289.95907
289.92078
289.92679
289.87866
289.90802
289.84989
290.38894
290.37576
290.1057
290.09434
289.95563
289.92666
289.87715
289.82358
289.83572
289.76917
289.81783
289.7387
289.81396
289.72259
290.31186
290.29293
289.96958
289.95788
289.83797
289.79493
289.77972
289.70658
289.75512
289.6644
289.75147
289.64701
289.75927
289.64383
290.27103
290.24888
289.8879
289.87706
289.78446
289.73791
289.74267
289.66518
289.72768
289.63607
289.732
289.62796
289.74505
289.63212
290.27244
290.24762
289.86471
289.85388
289.7763
289.73584
289.75974
289.69985
289.75906
289.69097
289.7678
289.69398
289.77939
289.70345
289.75091
289.8546
289.70215
289.82611
289.6561
289.79739
289.61298
289.76793
289.5796
289.75981
289.57289
289.86883
289.77635
289.8237
289.70658
289.78495
289.64913
289.75095
289.6005
289.72301
289.57178
289.72936
289.56515
289.86575
289.96454
289.86453
289.83
289.78491
289.72354
289.72853
289.6305
289.68438
289.55937
289.66565
289.53781
289.78621
290.35958
290.11895
290.15037
289.96057
289.96861
289.82758
289.78955
289.70225
289.61823
289.63169
289.52417
289.66812
290.89886
290.56073
290.66719
290.33716
290.43469
290.132
290.16631
289.9044
289.86764
289.67376
289.57033
289.57927
291.47231
291.14486
291.26293
290.90256
291.03688
290.65606
290.73507
290.33928
290.31655
289.9257
289.7817
289.5814
291.99872
291.75681
291.84486
291.54944
291.66442
291.31941
291.3927
290.9891
290.93758
290.47173
290.22122
289.78008
292.44413
292.31425
292.34544
292.1632
292.22307
291.96893
292.02305
291.63991
291.63622
291.1234
290.88661
290.34139
292.86009
292.83375
292.79897
292.73799
292.71985
292.61138
292.58092
292.37138
292.28609
291.9014
291.68116
291.15016
293.25169
293.27972
293.21433
293.2196
293.16239
293.14179
293.07026
293.00057
292.87127
292.68162
292.42687
292.05316
293.59715
293.6368
293.57213
293.59689
293.53632
293.54238
293.46958
293.44565
293.32614
293.24128
293.0018
292.78236
293.94439
293.94375
293.91172
293.89552
293.87407
293.84217
293.81589
293.76223
293.69867
293.60494
293.42988
293.24867
294.51402
294.39744
294.45544
294.30539
294.39554
294.21125
294.32019
294.09341
294.20435
293.93171
293.98403
293.65731
295.05753
294.83741
294.9508
294.68041
294.85125
294.53106
294.73772
294.35973
294.59755
294.15391
294.39414
293.88288
295.29455
295.25848
295.1605
295.10422
295.0083
294.92586
294.82931
294.71013
294.61628
294.45276
294.36813
294.1588
294.84281
294.93932
294.79784
294.91393
294.72464
294.86486
294.61456
294.78177
294.45902
294.66
294.25699
294.51132
293.48387
293.33277
293.46
293.3193
293.43109
293.31487
293.39095
293.31905
293.33488
293.33505
293.26028
293.3495
291.55503
290.97184
291.5026
290.90511
291.45009
290.85497
291.384
290.79209
291.29448
290.69578
291.17137
290.52015
289.89268
288.961
289.80813
288.84399
289.71733
288.73816
289.59242
288.58292
289.40486
288.31816
289.11631
287.8352
289.20605
288.15725
289.13529
288.05069
289.06248
287.94917
288.96474
287.81754
288.80946
287.60923
288.53392
287.20279
289.60077
288.77613
289.59568
288.77641
289.61153
288.80992
289.64483
288.877
289.67371
288.95453
289.60786
288.91974
290.68224
290.23867
290.74503
290.36175
290.84494
290.53162
290.9919
290.74747
291.14787
290.97397
291.1716
291.06292
291.9524
291.6428
292.03421
291.76227
292.0916
291.87903
292.10448
291.97278
292.03018
291.99348
291.80301
291.84466
292.01162
292.03789
291.9979
292.04086
291.96465
292.01411
291.89515
291.95064
291.7466
291.81731
291.47191
291.54954
291.53856
291.60685
291.50547
291.56977
291.4538
291.51574
291.36255
291.41962
291.19873
291.24088
290.95801
290.95871
291.1819
291.22344
291.14264
291.17572
291.08412
291.10726
290.98703
290.99384
290.8318
290.81053
290.62749
290.56057
290.92774
290.94038
290.88147
290.88756
290.81901
290.81712
290.72172
290.70342
290.57522
290.52542
290.40469
290.30287
290.69725
290.69552
290.64414
290.63557
290.57634
290.56126
290.48052
290.45237
290.35597
290.29086
290.23836
290.11327
290.45418
290.44878
290.39857
290.38632
290.3317
290.31305
290.25292
290.21506
290.1778
290.09092
290.12137
289.98167
290.21739
290.20575
290.16905
290.1496
290.12032
290.08747
290.08219
290.015
290.06204
289.94605
290.04534
289.90103
290.02528
289.99061
289.99752
289.94946
289.98028
289.90948
289.98076
289.87598
289.99263
289.85988
289.99529
289.85933
289.89648
289.82631
289.89328
289.80798
289.90128
289.79648
289.92198
289.79614
289.94656
289.81118
289.96037
289.83476
289.81965
289.71541
289.8335
289.71711
289.8548
289.72734
289.88309
289.74882
289.9115
289.7821
289.93226
289.82384
289.77584
289.64987
289.79748
289.66374
289.82356
289.68795
289.85146
289.72603
289.87763
289.76769
289.90076
289.80972
289.76389
289.64807
289.78239
289.67108
289.80324
289.69873
289.82539
289.72819
289.8429
289.75664
289.85347
289.78086
289.79156
289.71628
289.80379
289.73011
289.81622
289.74503
289.82749
289.7604
289.83629
289.77307
289.83429
289.7789
289.59602
290.06789
289.57004
290.10944
289.52658
290.06842
289.48138
290.0061
289.43232
289.92306
289.37689
289.81149
289.6102
290.07383
289.61321
290.13257
289.57905
290.09996
289.53934
290.04117
289.49606
289.96472
289.4469
289.86491
289.59859
290.04214
289.65951
290.16468
289.65261
290.17968
289.62933
290.15993
289.59765
290.11891
289.55724
290.05467
289.53635
289.90937
289.62392
290.1151
289.64713
290.1791
289.64429
290.20252
289.62909
290.2085
289.60469
290.20124
289.46371
289.7227
289.51173
289.9483
289.54998
290.05005
289.56629
290.10906
289.57193
290.15524
289.57098
290.19908
289.43755
289.53443
289.37081
289.6901
289.39237
289.8042
289.42148
289.89607
289.45118
289.98615
289.47893
290.08319
289.6037
289.47097
289.32781
289.46605
289.26594
289.53497
289.26442
289.6251
289.29635
289.74045
289.35017
289.88294
290.12023
289.70569
289.61633
289.49468
289.4002
289.44925
289.2771
289.44787
289.22073
289.51181
289.22548
289.65037
291.0225
290.47824
290.54766
290.11741
290.27146
289.95823
290.00362
289.82807
289.67023
289.68587
289.36623
289.57317
291.98574
291.51613
291.70858
291.22555
291.53347
291.06418
291.34887
290.90112
291.09394
290.68755
290.63061
290.36793
292.69301
292.36442
292.5331
292.15981
292.42903
292.03479
292.30985
291.8959
292.13663
291.70046
291.83808
291.38071
293.16103
292.9143
293.0073
292.74718
292.90747
292.64131
292.79766
292.52077
292.63681
292.34728
292.34147
292.05276
293.79518
293.39963
293.70611
293.26976
293.63416
293.17777
293.539
293.06574
293.3921
292.89882
293.12708
292.59536
294.22618
293.6765
294.13219
293.55931
294.05849
293.473
293.9657
293.36982
293.81643
293.21629
293.48212
292.9417
294.17304
293.95832
294.03567
293.82002
293.94368
293.71041
293.83549
293.55922
293.65427
293.2925
293.30868
292.87733
294.09288
294.40174
293.97178
294.30984
293.89353
294.23149
293.80324
294.123
293.64698
293.91569
293.33813
293.49188
293.18909
293.28963
293.13947
293.21285
293.11517
293.17841
293.09353
293.15685
293.05744
293.12899
292.96899
293.06187
291.06385
290.25973
291.04276
290.08698
291.0608
290.04418
291.09192
290.05682
291.13864
290.11374
291.2297
290.26142
288.8353
287.28879
288.7427
286.97184
288.73705
286.87268
288.76432
286.85409
288.81854
286.88767
288.93812
287.00766
288.19611
286.61966
287.99389
286.15761
287.93823
286.00374
287.92471
285.93101
287.93408
285.88974
287.98059
285.87515
289.39073
288.59034
289.16027
288.18307
289.07891
288.04273
289.03022
287.95921
288.98593
287.87811
288.92148
287.74977
290.98003
290.89261
290.77638
290.67022
290.6924
290.58675
290.62782
290.5266
290.55333
290.4589
290.4175
290.33605
291.50972
291.58145
291.35335
291.42654
291.28457
291.36983
291.21987
291.32338
291.13142
291.26072
290.93623
291.12129
291.21236
291.27884
291.10734
291.17891
291.04143
291.12422
290.95524
291.04852
290.78632
290.89873
290.38541
290.57857
290.73832
290.71282
290.63174
290.60442
290.54619
290.52361
290.41825
290.40048
290.22137
290.21052
289.99564
290.00427
290.45371
290.35961
290.36318
290.26367
290.28841
290.18809
290.19977
290.09629
290.10277
289.99912
290.00004
289.90338
290.2789
290.14962
290.21046
290.07642
290.16162
290.02443
290.11861
289.97878
290.07799
289.94248
290.02769
289.90294
290.16057
290.01209
290.1141
289.96168
290.0865
289.93495
290.06899
289.92567
290.05388
289.92396
290.02963
289.91118
290.08107
289.92933
290.05179
289.90309
290.03633
289.89552
290.02914
289.90252
290.02309
289.91291
290.00926
289.91235
290.02721
289.88807
290.00858
289.87962
289.99895
289.88018
289.99569
289.89534
289.99284
289.9068
289.98271
289.90753
289.99203
289.87003
289.98226
289.87694
289.97719
289.88513
289.97498
289.89461
289.97127
289.9019
289.95959
289.90039
289.9699
289.86842
289.96935
289.88583
289.96792
289.89426
289.96424
289.89888
289.95687
289.9012
289.94113
289.89553
289.95282
289.8688
289.96119
289.89201
289.96206
289.90101
289.95673
289.90233
289.94528
289.89964
289.92385
289.88848
289.92531
289.85475
289.93963
289.88037
289.94028
289.88885
289.93114
289.88818
289.91557
289.8812
289.8929
289.8666
289.85539
289.79794
289.85229
289.80512
289.84964
289.80927
289.84373
289.80882
289.8355
289.80546
289.82443
289.79865
289.81168
289.77022
289.77932
289.74467
289.76749
289.73753
289.76087
289.73463
289.75614
289.7333
289.75148
289.731
289.32584
289.70235
289.27472
289.5962
289.22359
289.49642
289.16982
289.42253
289.10663
289.38071
289.0279
289.36786
288.94498
289.28225
289.39932
289.76372
289.3499
289.65926
289.29934
289.55976
289.24449
289.48743
289.17682
289.44793
289.08387
289.45158
288.96264
289.39292
289.51606
289.97949
289.47237
289.89078
289.42575
289.79163
289.37288
289.70094
289.30464
289.65692
289.20097
289.68895
289.01563
289.61918
289.57715
290.18039
289.54494
290.14165
289.50795
290.08159
289.46296
290.00394
289.40045
289.94538
289.29546
289.94654
289.06479
289.75679
289.56428
290.22975
289.55174
290.24508
289.53376
290.24456
289.50547
290.22232
289.45539
290.18025
289.3518
290.12846
289.09302
289.78387
289.49643
290.16131
289.5029
290.2199
289.50314
290.26327
289.49548
290.28756
289.4644
290.28047
289.36877
290.19493
289.10088
289.73363
289.39165
290.00671
289.41767
290.10607
289.43588
290.18567
289.44517
290.23707
289.43177
290.25075
289.34998
290.15043
289.09419
289.64333
289.27215
289.8035
289.31822
289.94109
289.35416
290.05804
289.37709
290.13417
289.38103
290.15674
289.31342
290.04527
289.08765
289.55499
289.25393
289.62244
289.23844
289.75083
289.26627
289.89569
289.3047
290.01043
289.32431
290.05078
289.2759
289.93317
289.09431
289.49033
289.96567
290.00051
289.48261
289.74354
289.27827
289.72116
289.23796
289.83277
289.25652
289.90983
289.24019
289.82702
289.11427
289.44826
291.39341
290.98923
290.74961
290.55177
289.90843
290.02072
289.35928
289.68322
289.21659
289.71279
289.20095
289.701
289.15384
289.40628
291.90225
291.66219
291.3514
291.20545
290.6246
290.58794
289.84456
289.85814
289.33824
289.53803
289.21147
289.52401
289.19326
289.34249
292.59421
292.10839
291.52931
291.45224
290.59229
290.67284
289.96867
289.93633
289.5233
289.45222
289.29218
289.34319
289.22733
289.26798
292.75255
292.51342
291.80566
291.8723
290.88969
290.9403
290.2277
290.05666
289.7832
289.48595
289.47382
289.2848
289.35073
289.23583
292.83285
292.47481
292.22529
291.99364
291.43717
291.21735
290.66554
290.26866
290.12091
289.61569
289.7617
289.34227
289.57723
289.27013
292.9409
292.98969
292.48206
292.46263
291.88159
291.7699
291.15165
290.81137
290.50188
289.91918
290.0707
289.49479
289.84585
289.36301
292.80836
292.93246
292.56665
292.71816
292.1963
292.35072
291.64312
291.69273
290.95627
290.65383
290.40337
289.80202
290.1077
289.51439
291.40087
290.51661
291.58143
290.82102
291.73968
291.18974
291.74768
291.47
291.42044
291.33478
290.76468
290.3392
290.34234
289.70773
289.20065
287.2436
289.60765
287.63246
290.19339
288.30472
290.89578
289.37641
291.41433
290.62944
291.18559
290.89597
290.57444
289.99287
288.11947
285.91781
288.35682
286.03994
288.77718
286.33326
289.49652
287.01405
290.53801
288.46943
291.33328
290.51771
290.84799
290.38958
288.83489
287.57646
288.7564
287.38428
288.73074
287.15968
288.88275
286.96346
289.47413
287.16066
290.61539
288.66782
291.08997
290.52972
290.15384
290.09713
289.82688
289.79224
289.46201
289.34349
289.17927
288.77489
289.16388
288.18231
289.8119
288.18785
291.02579
289.98916
290.51358
290.84849
290.03908
290.49889
289.63
290.09376
289.38742
289.70332
289.34426
289.3014
289.70953
288.97147
290.76982
289.62757
290.00083
290.26547
289.71848
289.99737
289.53819
289.77509
289.46366
289.61677
289.48891
289.48635
289.73687
289.3982
290.45819
289.62697
289.84492
289.86812
289.7115
289.75092
289.60905
289.64916
289.55484
289.57302
289.56263
289.51373
289.68859
289.48207
290.18083
289.61253
289.91588
289.83734
289.82397
289.7683
289.73654
289.70129
289.67111
289.64322
289.64042
289.58555
289.69455
289.54946
290.04817
289.63575
289.98187
289.8668
289.92382
289.82101
289.85346
289.77055
289.78033
289.71691
289.71922
289.65652
289.72656
289.61547
289.98811
289.69336
290.00295
289.88923
289.96254
289.85465
289.90657
289.81135
289.84104
289.75837
289.77682
289.70033
289.75492
289.66169
289.95837
289.73085
289.99027
289.89708
289.95706
289.86777
289.90735
289.82585
289.84461
289.76911
289.78165
289.7066
289.74965
289.65779
289.92749
289.72283
289.965
289.89439
289.93269
289.86571
289.88594
289.82205
289.82661
289.76155
289.76365
289.69419
289.70848
289.62387
289.85099
289.65963
289.94029
289.88633
289.90709
289.85657
289.86167
289.81089
289.80576
289.74785
289.74502
289.6788
289.66628
289.58943
289.75137
289.5783
289.91894
289.87885
289.88389
289.84706
289.83847
289.80025
289.78535
289.73709
289.72616
289.66753
289.63714
289.56331
289.6813
289.51665
289.89763
289.86859
289.85922
289.83578
289.81786
289.79217
289.77078
289.73286
289.71373
289.66189
289.61858
289.54661
289.64159
289.47927
289.86893
289.84775
289.83628
289.818
289.79916
289.78251
289.75999
289.73251
289.7103
289.66299
289.61125
289.54242
289.62551
289.4642
289.81252
289.78907
289.79636
289.77474
289.779
289.7567
289.75456
289.72728
289.7123
289.67654
289.62203
289.55812
289.64064
289.48208
289.74602
289.72577
289.7401
289.71887
289.73139
289.70669
289.7229
289.69043
289.70031
289.66678
289.64292
289.58385
289.68719
289.53963
288.93195
289.09289
289.2694
289.16103
289.83931
289.47127
290.76073
290.01885
288.91144
289.10944
289.24169
289.1231
289.84066
289.42495
290.77047
290.00514
288.87152
289.13115
289.19294
289.05913
289.85773
289.35104
290.82135
289.98759
288.85648
289.12066
289.16281
289.01626
289.87959
289.29341
290.86347
289.97429
288.85791
289.08909
289.14744
288.99442
289.89519
289.25138
290.88197
289.95909
288.86863
289.05209
289.14692
288.99662
289.90652
289.22827
290.88377
289.94308
288.89084
289.0387
289.16224
289.02823
289.91899
289.21877
290.87592
289.92627
288.92668
289.06594
289.19164
289.06954
289.93159
289.21038
290.86152
289.9036
288.98072
289.11148
289.23571
289.09859
289.9554
289.20218
290.84406
289.88583
289.05083
289.15195
289.29786
289.12526
290.01131
289.21505
290.82183
289.89424
289.13638
289.18223
289.39509
289.16089
290.11005
289.27286
290.81478
289.94674
289.21517
289.1855
289.51065
289.19096
290.23252
289.35484
290.81655
290.01135
289.28545
289.18048
289.62209
289.22004
290.29854
289.43787
290.77729
290.03601
289.42839
289.20277
289.76167
289.29736
290.33775
289.56008
290.74366
290.06366
289.64665
289.28944
289.91153
289.42924
290.36336
289.7018
290.71614
290.10347
289.8768
289.41959
290.0579
289.58295
290.40073
289.84896
290.70795
290.1712
290.09831
289.59174
290.21152
289.76325
290.47033
289.99282
290.73635
290.27203
290.31004
289.79776
290.40411
289.99839
290.61041
290.24051
290.82136
290.47303
290.50901
290.01275
290.59782
290.23957
290.78235
290.50431
290.94821
290.68975
290.72292
290.29413
290.81448
290.50388
290.99861
290.79208
291.09561
290.90546
290.95808
290.628
291.03627
290.77221
291.22618
291.05694
291.24535
291.09992
291.15059
290.78825
291.24642
291.03234
291.42338
291.28995
291.38567
291.30289
291.20855
290.81001
291.34618
291.18775
291.50406
291.41763
291.46103
291.447
291.08784
290.75134
291.27148
291.19304
291.44917
291.42779
291.45672
291.51032
290.8517
290.55797
291.11128
291.07143
291.34097
291.37147
291.38596
291.50124
290.68433
290.40676
291.00705
290.99327
291.24089
291.31664
291.25834
291.41679
290.5518
290.34521
290.90736
290.93915
291.1423
291.24407
291.16269
291.31753
290.45979
290.30963
290.81996
290.85856
291.05588
291.14695
291.10596
291.23524
290.39511
290.27283
290.74021
290.76563
290.97104
291.03838
291.02636
291.13599
290.30212
290.18847
290.62848
290.63966
290.84696
290.89911
290.885
290.97555
290.16594
290.03853
290.47856
290.46098
290.69639
290.71544
290.7429
290.80008
290.0632
289.91258
290.36352
290.30662
290.5837
290.56737
290.64396
290.67803
290.00575
289.84038
290.29446
290.21309
290.51196
290.47544
290.57769
290.60116
289.97482
289.801
290.25061
290.15585
290.46312
290.41384
290.5317
290.54803
289.96836
289.78795
290.22656
290.11936
290.43039
290.36857
290.49985
290.50858
289.99156
289.8108
290.22999
290.11127
290.42171
290.34664
290.48867
290.48945
291.57922
291.58414
291.28054
291.26979
290.452
290.42579
291.56689
291.57744
291.29235
291.2764
290.42342
290.39517
291.56988
291.58625
291.31481
291.29501
290.39027
290.37233
291.58629
291.60536
291.33544
291.31617
290.37573
290.36092
291.61079
291.63072
291.35415
291.33593
290.36691
290.35121
291.64147
291.66112
291.3716
291.35438
290.35842
290.33974
291.67718
291.69571
291.38682
291.3706
290.34811
290.325
291.71405
291.73113
291.39617
291.38171
290.33492
290.30504
291.74461
291.76023
291.39458
291.38313
290.31926
290.27771
291.75807
291.77222
291.37565
291.36813
290.30305
290.24077
291.74015
291.75292
291.33294
291.32913
290.28679
290.19354
291.66638
291.67743
291.25603
291.25496
290.27216
290.13579
291.50581
291.51337
291.13756
291.13363
290.26389
290.0759
291.24995
291.24665
290.98726
290.97046
290.25624
290.05114
290.94378
290.91988
290.83843
290.80988
290.26595
290.09675
290.73249
290.69762
290.77104
290.74711
290.31108
290.21062
290.67285
290.63861
290.78741
290.78631
290.3711
290.32336
290.68051
290.67094
290.84722
290.87571
290.4484
290.45473
290.72612
290.75272
290.92826
290.97784
290.55791
290.60699
290.78872
290.85198
291.00602
291.07576
290.66817
290.73567
290.87418
290.94927
291.05191
291.13583
290.74327
290.81218
290.99568
291.03531
291.06974
291.15427
290.81802
290.88296
291.10358
291.0937
291.10686
291.17805
290.89266
290.94845
291.15416
291.11393
291.16366
291.20702
290.96514
291.00502
291.15847
291.10613
291.20822
291.20794
291.01533
291.04209
291.13922
291.08251
291.21426
291.17267
291.02986
291.03804
291.10785
291.04991
291.18241
291.10294
291.01718
290.97602
291.07252
291.01278
291.13256
291.01096
290.97525
290.85778
291.03694
290.97262
291.07321
290.91639
290.90704
290.69743
291.0036
290.92867
291.01962
290.83619
290.82089
290.52796
290.97386
290.8744
290.9837
290.77211
290.73261
290.38386
290.94719
290.81999
290.96178
290.72249
290.66529
290.28539
290.92928
290.77882
290.95167
290.68918
290.6188
290.23223
290.91697
290.73445
290.95733
290.67536
290.58816
290.20894
290.91876
290.69956
290.99099
290.69529
290.57789
290.21014
290.91434
290.66615
291.05004
290.75043
290.59868
290.23859
291.69911
291.66748
291.83466
292.02719
292.141
292.20339
291.78581
291.99516
292.2073
292.37224
292.44762
292.47138
291.66491
291.66046
291.83444
292.03239
292.14831
292.20792
291.74566
291.97668
292.20253
292.3738
292.45345
292.47787
291.60758
291.64369
291.83848
292.04935
292.17329
292.23271
291.69855
291.95012
292.19964
292.38559
292.47221
292.50044
291.56432
291.63049
291.84569
292.06931
292.20316
292.26592
291.6644
291.93608
292.20784
292.40891
292.50213
292.53473
291.53101
291.62205
291.85736
292.09291
292.23448
292.30196
291.63661
291.93177
292.22739
292.44436
292.54491
292.58055
291.50376
291.61829
291.87557
292.12356
292.27135
292.34213
291.61174
291.93532
292.25922
292.49412
292.6033
292.64124
291.47951
291.61875
291.9018
292.16415
292.31793
292.39051
291.58752
291.94641
292.30539
292.56222
292.68171
292.72202
291.45796
291.62302
291.93624
292.2159
292.37622
292.4495
291.56371
291.96568
292.37393
292.66027
292.78895
292.82799
291.43819
291.62983
291.97687
292.27805
292.44418
292.51639
291.54018
291.9929
292.46766
292.79444
292.93357
292.96908
291.41975
291.63648
292.01868
292.34697
292.51942
292.58897
291.5172
292.0266
292.56532
292.93681
293.09934
293.14369
291.39732
291.63635
292.05035
292.40096
292.58066
292.64839
291.49228
292.06253
292.657
293.0671
293.25378
293.31532
291.36628
291.61709
292.05328
292.41198
292.59091
292.65462
291.46162
292.08987
292.73866
293.18201
293.38759
293.46352
291.32104
291.55647
291.99199
292.3434
292.51178
292.5662
291.42214
292.08549
292.7785
293.24837
293.4713
293.55914
291.25886
291.42985
291.81976
292.13644
292.28513
292.32373
291.37599
292.02347
292.7306
293.20939
293.43282
293.52298
291.15279
291.19922
291.47033
291.71477
291.83374
291.86572
291.2901
291.86165
292.52102
292.97009
293.17509
293.25238
291.02513
290.87352
291.00055
291.15971
291.2521
291.28762
291.15642
291.58232
292.1277
292.50289
292.66702
292.72464
290.92122
290.55471
290.61018
290.72977
290.81501
290.86741
290.98725
291.24029
291.65854
291.95485
292.0847
292.13391
290.86581
290.36637
290.39445
290.49171
290.57838
290.6476
290.8018
290.88066
291.19896
291.44496
291.56343
291.61379
290.89244
290.34529
290.32556
290.40513
290.49333
290.56679
290.63066
290.57166
290.81507
291.03934
291.16097
291.22407
291.03006
290.47027
290.41632
290.45953
290.52129
290.57532
290.53189
290.38162
290.5707
290.76848
290.89035
290.97186
291.30517
290.7
290.59475
290.58797
290.61095
290.63018
290.54253
290.30824
290.43946
290.59171
290.72067
290.81432
291.64308
290.99591
290.8288
290.75198
290.7198
290.69466
290.69822
290.39057
290.40558
290.49411
290.59746
290.70946
291.8907
291.25797
291.02607
290.91226
290.84455
290.78474
291.02164
290.57471
290.49311
290.48834
290.53092
290.62686
291.92287
291.34144
291.1129
291.00418
290.93538
290.85453
291.38914
290.79023
290.62299
290.54707
290.51794
290.57127
291.85205
291.3041
291.11432
291.04966
290.98729
290.89599
291.71174
290.9851
290.74757
290.61259
290.52171
290.53129
291.77098
291.22178
291.07266
291.06723
291.01478
290.91201
291.96717
291.1341
290.8457
290.66588
290.53265
290.4911
291.69806
291.13041
291.01671
291.06731
291.02348
290.91102
292.16335
291.23913
290.91375
290.70624
290.5391
290.45615
291.64452
291.04609
290.95865
291.05402
291.02051
290.90011
292.31899
291.31656
290.96195
290.73505
290.54088
290.42717
291.60978
290.97036
290.90255
291.03222
291.01013
290.8827
292.44541
291.37808
290.99607
290.75398
290.54145
290.40281
291.58834
290.90314
290.84874
291.00407
290.9943
290.86157
292.54634
291.42642
291.01989
290.76845
290.5445
290.38667
291.57479
290.84653
290.79569
290.97097
290.97385
290.84325
292.62295
291.46268
291.0368
290.78134
290.55202
290.38186
291.56576
290.79477
290.74155
290.9336
290.94966
290.82904
292.67714
291.48933
291.04936
290.79539
290.56536
290.38946
291.55768
290.74204
290.68451
290.89372
290.92455
290.814
292.70877
291.50736
291.05882
290.81294
290.58647
290.40933
291.54829
290.68326
290.62942
290.85517
290.90502
290.79119
292.72044
291.51632
291.06693
290.83659
290.61852
290.43714
291.53934
290.63713
290.5904
290.8284
290.89244
290.76292
292.72403
291.52148
291.07802
290.86297
290.65476
290.46591
291.54093
290.62124