/*--------------------------------*- C++ -*----------------------------------*\
| =========                 |                                                 |
| \\      /  F ield         | OpenFOAM: The Open Source CFD Toolbox           |
|  \\    /   O peration     | Version:  2206                                  |
|   \\  /    A nd           | Website:  www.openfoam.com                      |
|    \\/     M anipulation  |                                                 |
\*---------------------------------------------------------------------------*/
FoamFile
{
    version     2.0;
    format      ascii;
    arch        "LSB;label=32;scalar=64";
    class       volVectorField;
    location    "300";
    object      U;
}
// * * * * * * * * * * * * * * * * * * * * * * * * * * * * * * * * * * * * * //

dimensions      [0 1 -1 0 0 0 0];

internalField   nonuniform List<vector> 
50904
(
(-4.6669667 -2.0781896 -0.25995229)
(-4.9460326 -1.8165776 -0.19451699)
(-7.5888445 0.95110061 0.17456966)
(-8.4057471 0.91946834 0.18229967)
(-15.185139 -4.7081716 -0.1922246)
(-15.676874 -4.5191524 -0.1514185)
(-20.314812 1.0070828 -0.0061165979)
(-21.346381 0.95108804 0.025459718)
(-22.869172 -5.9015774 -0.34123357)
(-23.305416 -5.8978561 -0.24990018)
(-26.619888 0.43512153 -0.058282055)
(-27.673337 0.37161277 -0.00073047005)
(-26.67917 -6.1876073 -0.45614574)
(-27.192478 -6.2903534 -0.33564601)
(-29.092941 -0.069434566 -0.16194325)
(-30.218827 -0.14469852 -0.088685729)
(-28.125963 -6.0986731 -0.55702611)
(-28.795077 -6.3405589 -0.41476365)
(-29.798726 -0.37984995 -0.27051701)
(-31.022383 -0.43323394 -0.18979675)
(-28.178906 -5.8670602 -0.63449379)
(-28.985584 -6.2229289 -0.48165481)
(-29.423817 -0.50079534 -0.38215367)
(-30.749535 -0.53375002 -0.30438532)
(-27.30334 -5.5652524 -0.67668277)
(-28.205541 -5.9916268 -0.52238207)
(-28.194598 -0.48064606 -0.49310131)
(-29.624101 -0.50131041 -0.43172667)
(-25.682592 -5.2285311 -0.66632816)
(-26.664911 -5.6653891 -0.52088797)
(-26.213533 -0.34784171 -0.58978749)
(-27.747699 -0.36634887 -0.56365757)
(-23.48343 -4.8552848 -0.58113349)
(-24.532195 -5.2914283 -0.45701638)
(-23.529547 -0.13104019 -0.66221075)
(-25.168506 -0.1251385 -0.67945723)
(-20.890827 -4.4485773 -0.38090902)
(-22.002606 -4.8833479 -0.30118125)
(-20.321258 0.14971891 -0.70295923)
(-22.022456 0.18141521 -0.79308915)
(-18.166487 -4.012414 -0.045777062)
(-19.278654 -4.4544398 -0.029873818)
(-17.110274 0.36715381 -0.74523546)
(-18.719152 0.42851535 -0.91103163)
(-15.7289 -3.6209403 0.45893048)
(-16.743334 -4.1117729 0.39135345)
(-14.227339 0.43322843 -0.80797626)
(-15.650432 0.48927224 -1.0655029)
(-13.869734 -3.4035435 1.1652133)
(-14.78167 -3.9843097 0.9885255)
(-11.776799 0.30123344 -0.86155797)
(-13.007611 0.28782121 -1.2332434)
(-12.789597 -3.4047587 2.1657162)
(-13.56413 -4.0897233 1.87435)
(-9.9190989 -0.14888822 -0.80324482)
(-10.902569 -0.29238168 -1.3185421)
(-12.901786 -3.5647511 3.6098542)
(-13.510646 -4.5034929 3.2388032)
(-9.1166955 -0.9663962 -0.42820122)
(-9.8802965 -1.3382263 -1.1060615)
(-13.98399 -3.7568989 5.3817345)
(-14.483816 -4.8825181 4.9873784)
(-9.7691426 -1.7506415 0.51010939)
(-10.443161 -2.4244273 -0.35846118)
(-14.993998 -3.9059107 7.1241442)
(-15.510194 -4.8893845 6.8505721)
(-11.094945 -2.0738844 1.7918549)
(-11.758915 -3.0055123 0.75295912)
(-15.728829 -4.0190488 8.7548585)
(-16.430636 -4.4796983 8.7804806)
(-12.467701 -1.966137 3.1593122)
(-13.108961 -3.0412011 2.0063146)
(-16.211286 -3.9634802 10.147808)
(-17.370177 -3.8494626 10.69224)
(-13.548134 -1.5549881 4.2654523)
(-14.148165 -2.6611551 3.071995)
(-16.487441 -3.7245599 11.335664)
(-18.268823 -2.9917973 12.521206)
(-14.397163 -0.84110457 5.0124477)
(-14.965661 -1.9024271 3.8519011)
(-16.583849 -3.3512095 12.363552)
(-18.912104 -1.8610249 14.111579)
(-15.368461 0.067023657 5.5874559)
(-15.968422 -0.95913564 4.5999588)
(-16.422566 -2.754138 12.90673)
(-18.870894 -0.98053458 15.03347)
(-16.862221 1.1309474 5.9472847)
(-17.507872 0.12298044 5.3625013)
(-15.832522 -2.3379219 12.881185)
(-18.209302 -0.92452388 15.285469)
(-18.879584 2.0087365 5.9253787)
(-19.606941 1.0457595 5.9210271)
(-14.589524 -2.2807499 12.189914)
(-16.542652 -1.6823489 14.191307)
(-21.0711 2.4879383 5.4459581)
(-21.912223 1.5703047 5.9498275)
(-13.038821 -2.5235219 11.021357)
(-13.955152 -2.9205475 12.603962)
(-23.360074 2.5697912 4.7871531)
(-24.311962 1.66421 5.6315283)
(-11.690483 -2.8952421 9.5428087)
(-11.209812 -4.360536 10.642389)
(-25.476434 2.4328769 4.0764582)
(-26.534454 1.4884853 5.1097963)
(-10.599525 -3.2933366 7.94515)
(-8.7420578 -5.843735 8.6744355)
(-27.237304 2.2107604 3.3951219)
(-28.204121 1.1683193 4.4564814)
(-9.5957173 -3.6960825 6.3524232)
(-6.412475 -7.3100643 6.7916268)
(-28.485558 1.9274947 2.761076)
(-29.336304 0.75102072 3.720486)
(-8.4649571 -4.108021 4.8630701)
(-4.1918422 -8.6986908 5.1179286)
(-29.324083 1.6021969 2.178189)
(-30.04733 0.29569746 2.9944707)
(-7.1329433 -4.5441778 3.5579737)
(-2.0917942 -9.953827 3.7093719)
(-29.707423 1.2724778 1.6631565)
(-30.27406 -0.15676358 2.3120242)
(-5.5431904 -4.9779323 2.4493413)
(-0.13293586 -11.017641 2.5564414)
(-29.584312 0.93851973 1.2217611)
(-29.915937 -0.6179213 1.7031073)
(-3.7360868 -5.3222394 1.5507252)
(1.5597292 -11.757955 1.6521723)
(-28.811738 0.53659798 0.84019053)
(-28.746116 -1.1754779 1.1632941)
(-1.9173796 -5.377092 0.86836826)
(2.6691768 -11.758192 0.97701763)
(-26.956799 -0.08852939 0.51500457)
(-26.138633 -1.9635793 0.69605794)
(-0.59427325 -4.6130698 0.38016463)
(2.5707377 -10.252848 0.47602096)
(-22.72191 -1.1268124 0.2515369)
(-21.0295 -2.9415031 0.3246053)
(-0.57093836 -2.3338447 0.06182746)
(0.59011633 -6.2378242 0.11274062)
(-14.850624 -2.2215705 0.10142758)
(-13.321534 -3.3774437 0.10925694)
(-0.76686317 -0.056687745 0.16488503)
(-1.2659996 -1.2846409 0.2090502)
(-4.6730175 -1.6273973 -0.1323013)
(-4.1757136 -1.8277827 -0.095070559)
(-6.4138204 0.4227425 -0.036566021)
(-7.1175506 0.27294769 0.0084600169)
(-6.597042 2.325722 0.094172137)
(-8.0496561 1.5198839 0.16005893)
(-5.7275032 2.7218491 0.013313491)
(-7.0547967 1.1497363 0.062265257)
(-5.3235338 3.3371089 0.029490251)
(-6.5103556 1.4290658 0.070273802)
(-5.01945 3.5306203 0.063342192)
(-6.1290868 1.3762992 0.061214852)
(-4.7329636 3.510784 0.13302661)
(-5.9178033 1.2385823 0.085175799)
(-4.4297799 3.3656499 0.21641833)
(-5.7798408 1.0015574 0.10502384)
(-18.348739 0.62072031 -0.11720669)
(-19.305826 0.46418382 0.031153196)
(-18.037832 3.8312876 -0.046971035)
(-19.961082 2.8269408 0.26824254)
(-16.143383 4.3009053 -0.13436547)
(-17.978181 2.3968535 0.20408445)
(-14.718548 4.6810861 -0.091394609)
(-16.347193 2.4647116 0.21542235)
(-13.436399 4.7298004 0.041189447)
(-15.037344 2.3001416 0.26258719)
(-12.280572 4.7630954 0.22480953)
(-14.084698 2.1544946 0.37213422)
(-11.172856 4.817563 0.39231045)
(-13.356944 1.9909962 0.48177582)
(-24.974014 0.22000555 -0.18330352)
(-25.777896 0.16123296 0.017142102)
(-25.016267 3.0989106 -0.022926201)
(-26.237437 2.4466303 0.42087845)
(-23.848821 3.2125626 -0.027347064)
(-24.905496 1.8499563 0.44884279)
(-22.497204 3.3659706 0.10164151)
(-23.360393 1.7368689 0.504218)
(-21.055322 3.4472926 0.24323845)
(-21.871049 1.6287181 0.52423954)
(-19.568545 3.6363121 0.39526023)
(-20.548671 1.6590106 0.57881132)
(-18.030718 3.9183599 0.52578799)
(-19.359825 1.7565876 0.64440114)
(-27.545953 0.0060514262 -0.25947182)
(-28.274135 0.058168712 -0.033990787)
(-27.973438 2.4928873 -0.069970779)
(-28.560541 2.1659132 0.44518418)
(-27.677792 2.403088 0.0012695137)
(-27.923325 1.5271937 0.56910436)
(-26.909902 2.4225561 0.17004062)
(-26.979391 1.3151012 0.66542132)
(-25.923127 2.4643081 0.28600033)
(-25.965191 1.1871082 0.66272341)
(-24.797653 2.6316491 0.36443452)
(-24.958211 1.220635 0.63990438)
(-23.523951 2.907436 0.41146252)
(-23.955003 1.3522461 0.61643416)
(-28.244843 0.027495263 -0.33677828)
(-28.981193 0.17105022 -0.10715897)
(-28.825821 2.278354 -0.14731961)
(-29.044766 2.1979295 0.41153452)
(-28.947183 2.1716383 -0.0073428395)
(-28.619557 1.6616988 0.60522157)
(-28.689739 2.1537109 0.20375559)
(-28.029144 1.4548065 0.72730826)
(-28.170409 2.1600834 0.32036998)
(-27.404222 1.3255539 0.71145167)
(-27.488879 2.2561046 0.35843818)
(-26.810719 1.3172131 0.63033299)
(-26.684813 2.4267373 0.33996555)
(-26.261381 1.3775584 0.52318219)
(-27.885441 0.20918761 -0.42344527)
(-28.661576 0.42540147 -0.20591464)
(-28.459889 2.3683429 -0.26499037)
(-28.463611 2.461997 0.29829215)
(-28.585765 2.2862932 -0.090443881)
(-27.889838 2.0817921 0.52410919)
(-28.420888 2.2802337 0.12130011)
(-27.313717 1.9328217 0.64159299)
(-28.103213 2.2855656 0.22831058)
(-26.836975 1.8257358 0.61989767)
(-27.712204 2.341093 0.25236162)
(-26.485953 1.7890597 0.52015842)
(-27.283578 2.4400117 0.21272148)
(-26.232072 1.7923897 0.37009464)
(-26.726174 0.52552602 -0.5181461)
(-27.573417 0.80344834 -0.32939124)
(-27.189791 2.6388273 -0.42058219)
(-27.064333 2.8934865 0.1171672)
(-27.043984 2.6363341 -0.2365354)
(-26.092545 2.6995373 0.34678066)
(-26.667279 2.670045 -0.042438346)
(-25.246498 2.643083 0.43944386)
(-26.267276 2.694934 0.049184938)
(-24.647316 2.5938605 0.39328333)
(-25.904913 2.7445465 0.060426108)
(-24.2957 2.572296 0.27703826)
(-25.601518 2.8116533 0.010695877)
(-24.156191 2.5546817 0.11429214)
(-24.872817 0.96577768 -0.61852051)
(-25.827479 1.3006711 -0.48491343)
(-25.178877 3.0668456 -0.60816941)
(-25.037328 3.4737781 -0.12942715)
(-24.639903 3.1715858 -0.43022723)
(-23.624107 3.4776056 0.071282466)
(-23.956281 3.2719635 -0.26427949)
(-22.450166 3.5364507 0.12429431)
(-23.331319 3.3459916 -0.19116652)
(-21.661758 3.5616578 0.058570108)
(-22.827327 3.421333 -0.19016342)
(-21.216886 3.5785212 -0.062750913)
(-22.491204 3.4874866 -0.24535652)
(-21.040347 3.5764892 -0.21958271)
(-22.455531 1.5083615 -0.72276393)
(-23.549671 1.8970961 -0.66729194)
(-22.674325 3.6165768 -0.7912398)
(-22.668771 4.1619503 -0.43134245)
(-21.811695 3.8343543 -0.64126072)
(-20.989195 4.340249 -0.3006434)
(-20.832894 4.012558 -0.49850254)
(-19.622572 4.49451 -0.30371145)
(-19.985008 4.1486269 -0.42855718)
(-18.716789 4.5873021 -0.38764345)
(-19.346655 4.2625202 -0.42455846)
(-18.173532 4.6511821 -0.50539393)
(-18.94648 4.3475669 -0.47469644)
(-17.894061 4.6866656 -0.64483559)
(-19.685687 2.0917803 -0.83380411)
(-20.937213 2.5349031 -0.88629525)
(-20.090301 4.2368924 -0.98009083)
(-20.392149 4.885513 -0.78682749)
(-19.247665 4.5544337 -0.83177699)
(-18.847971 5.1859681 -0.73937237)
(-18.235965 4.7977544 -0.7173208)
(-17.511014 5.3860975 -0.81377342)
(-17.286654 5.0005318 -0.66184268)
(-16.529364 5.5260241 -0.93058898)
(-16.484382 5.1829752 -0.66024956)
(-15.851818 5.6399583 -1.0565284)
(-15.924211 5.3272756 -0.71132687)
(-15.417126 5.7275015 -1.1897979)
(-16.808368 2.6204941 -0.99333298)
(-18.198102 3.1009906 -1.17119)
(-17.795407 4.8563489 -1.1639908)
(-18.526011 5.5446244 -1.1849573)
(-17.466667 5.2571294 -1.0331723)
(-17.584937 5.8869618 -1.2156851)
(-16.736839 5.539118 -0.96335407)
(-16.51151 6.0693232 -1.3562049)
(-15.830523 5.7898347 -0.95563814)
(-15.532437 6.2146704 -1.5253101)
(-14.808941 6.0587875 -0.98979907)
(-14.610196 6.3891431 -1.7014946)
(-13.851387 6.3209957 -1.0699268)
(-13.811595 6.5745642 -1.8847848)
(-13.971596 2.9626239 -1.2748338)
(-15.428874 3.4486705 -1.5842916)
(-15.67254 5.3332158 -1.4046536)
(-16.85919 5.9983475 -1.6560947)
(-16.101043 5.8140128 -1.252877)
(-16.739467 6.3473123 -1.6991662)
(-15.892992 6.1071359 -1.1783204)
(-16.089458 6.470509 -1.8429767)
(-15.246334 6.358391 -1.1869854)
(-15.222478 6.5861689 -2.0198876)
(-14.133184 6.686542 -1.2600334)
(-14.131423 6.7908552 -2.2391998)
(-12.632701 7.1034457 -1.4051779)
(-12.901171 7.0740403 -2.5091833)
(-11.347733 2.9145309 -1.7227271)
(-12.741572 3.3586988 -2.1531361)
(-13.30565 5.2895276 -1.7320224)
(-14.833236 5.8815178 -2.1592144)
(-14.003083 5.8588176 -1.4874658)
(-15.222616 6.2515806 -2.1031934)
(-14.032585 6.2064365 -1.3330708)
(-14.902834 6.371773 -2.1692418)
(-13.59095 6.4759862 -1.2906215)
(-14.255173 6.4732568 -2.2947695)
(-12.684837 6.7968291 -1.3479036)
(-13.361039 6.6439727 -2.4785919)
(-11.273974 7.2222001 -1.5121605)
(-12.192744 6.9150482 -2.7500646)
(-9.1825721 2.2100429 -2.3059293)
(-10.389344 2.5611749 -2.8545947)
(-11.556473 4.2218184 -2.1789544)
(-13.357238 4.7516184 -2.7183094)
(-12.765488 4.7295405 -1.8279769)
(-14.73757 5.0631419 -2.4777403)
(-13.224365 5.0469673 -1.594808)
(-15.110758 5.1257314 -2.4015482)
(-13.122699 5.30541 -1.4914087)
(-14.852866 5.1708691 -2.4488088)
(-12.596636 5.5572903 -1.4900261)
(-14.194137 5.2893168 -2.5815774)
(-11.53832 5.9078449 -1.6094375)
(-13.087153 5.535909 -2.8480273)
(-7.6260826 0.82972168 -2.8986389)
(-8.5912881 0.97004026 -3.6027817)
(-10.510049 2.1735572 -2.6339067)
(-12.537846 2.4057459 -3.35071)
(-12.573302 2.5025994 -2.1095381)
(-15.299199 2.5695131 -2.8887659)
(-13.742536 2.7276084 -1.7458023)
(-16.722547 2.6407 -2.6343251)
(-14.153947 2.9235873 -1.5521207)
(-17.17394 2.7415851 -2.5639249)
(-14.026131 3.1354401 -1.4801712)
(-17.000141 2.914691 -2.6117112)
(-13.4915 3.3662079 -1.5020362)
(-16.376983 3.1480124 -2.7604638)
(-7.0596127 -0.58337945 -3.167771)
(-7.7885063 -0.72499766 -3.9535321)
(-9.7855308 0.12599158 -2.9103929)
(-11.69418 -0.18578312 -3.7886254)
(-12.315007 0.28306958 -2.2388691)
(-15.304511 -0.42965676 -3.1781367)
(-13.955336 0.44973351 -1.7312386)
(-17.580769 -0.58229605 -2.7780111)
(-14.741457 0.62160923 -1.4246202)
(-18.71198 -0.58276621 -2.5684581)
(-14.911589 0.81097918 -1.2676346)
(-19.07161 -0.46459334 -2.4934544)
(-14.651386 1.0235523 -1.2180135)
(-18.91347 -0.26816624 -2.5212841)
(-7.4185808 -1.4941388 -2.9539667)
(-8.1016895 -1.9299909 -3.6900341)
(-9.5637766 -1.2235808 -2.9458519)
(-11.294893 -1.9306496 -3.8453983)
(-12.184834 -1.2125467 -2.2327956)
(-15.198285 -2.5858151 -3.1757184)
(-14.050097 -1.0980476 -1.6339894)
(-17.930202 -3.0496004 -2.6452865)
(-15.039449 -0.94538777 -1.243989)
(-19.474921 -3.272946 -2.3142783)
(-15.366817 -0.76560885 -1.0183297)
(-20.161719 -3.266748 -2.1206638)
(-15.239208 -0.55994796 -0.91008363)
(-20.257931 -3.1438803 -2.0417483)
(-8.2710571 -1.8900524 -2.2583214)
(-9.0741519 -2.5003812 -2.9802788)
(-9.8557291 -1.8388826 -2.6770977)
(-11.692823 -2.8081911 -3.5083511)
(-12.342844 -1.8753249 -2.0046155)
(-15.511333 -3.6845146 -2.850861)
(-14.20387 -1.7622398 -1.3687931)
(-18.301683 -4.3108109 -2.2049955)
(-15.210875 -1.6003439 -0.9362588)
(-19.90739 -4.6226824 -1.7524873)
(-15.548255 -1.4126958 -0.67279271)
(-20.644819 -4.673164 -1.4626052)
(-15.427061 -1.2016942 -0.52775024)
(-20.787777 -4.5824485 -1.3020339)
(-9.2320833 -1.8230398 -1.2704773)
(-10.195683 -2.4827602 -2.0165917)
(-10.689488 -1.8698009 -2.1092752)
(-12.800862 -3.0254821 -2.801937)
(-13.142928 -1.9349979 -1.5533217)
(-16.544156 -3.9598394 -2.1502377)
(-14.9832 -1.8393245 -0.97001088)
(-19.231883 -4.5799921 -1.4565735)
(-15.962367 -1.6880121 -0.55756569)
(-20.73826 -4.8624314 -0.94662846)
(-16.265656 -1.5069903 -0.29240839)
(-21.386223 -4.8988444 -0.60586471)
(-16.108268 -1.296674 -0.12819706)
(-21.453625 -4.8021084 -0.39235658)
(-10.094963 -1.2402713 -0.18768037)
(-11.368877 -1.930906 -0.9305855)
(-11.83791 -1.3313181 -1.2917847)
(-14.508195 -2.5699602 -1.8232984)
(-14.425337 -1.3609823 -0.8085405)
(-18.245214 -3.3601528 -1.1683096)
(-16.255595 -1.265233 -0.26857425)
(-20.685425 -3.8262651 -0.48934235)
(-17.160582 -1.1188695 0.12266861)
(-21.913087 -3.9984393 0.0046674098)
(-17.371363 -0.93921125 0.38736538)
(-22.305155 -3.9690229 0.34641688)
(-17.114756 -0.72153047 0.56971536)
(-22.157822 -3.8263589 0.58324983)
(-10.914388 -0.13267396 1.0872826)
(-12.728858 -0.96698113 0.32562884)
(-13.008887 -0.31495234 -0.22145614)
(-16.490594 -1.5898352 -0.7171489)
(-15.837272 -0.31361872 0.11916785)
(-20.243928 -2.1940067 -0.14024638)
(-17.734961 -0.22242227 0.57609254)
(-22.386021 -2.5795963 0.46151044)
(-18.606364 -0.07959675 0.93125004)
(-23.246001 -2.6595694 0.92584149)
(-18.735238 0.099935895 1.1938403)
(-23.302149 -2.5758775 1.2711559)
(-18.367077 0.32934676 1.4033697)
(-22.884058 -2.3932087 1.5436555)
(-11.818542 1.790504 2.6964564)
(-14.209992 0.72361033 1.8902066)
(-13.677253 1.6507559 1.4692524)
(-18.085529 0.31016066 0.71508756)
(-16.377462 1.7809295 1.6234354)
(-21.562904 -0.0079903685 1.113289)
(-18.176739 1.9538267 1.9445939)
(-23.139636 -0.1704817 1.6385647)
(-18.927316 2.1354267 2.2301602)
(-23.481973 -0.13200749 2.0777616)
(-18.913512 2.3574068 2.4786312)
(-23.109657 0.032302526 2.4427356)
(-18.378209 2.6211545 2.7123781)
(-22.309968 0.26882797 2.7744488)
(-12.838786 4.3093308 3.9455278)
(-15.293994 2.9985065 3.2225983)
(-13.148739 4.8034473 3.1694409)
(-17.69593 3.2115679 2.0320339)
(-14.638941 5.2637292 3.2079322)
(-20.127433 3.3558487 2.1226804)
(-15.610847 5.6630752 3.3943147)
(-21.193709 3.4819872 2.4870486)
(-15.78145 6.0283431 3.623648)
(-21.229626 3.6806207 2.8814395)
(-15.287215 6.4058171 3.872506)
(-20.622039 3.9528692 3.2634361)
(-14.250869 6.7986793 4.1577044)
(-19.573462 4.263154 3.6510777)
(-14.21455 6.5640401 4.3094743)
(-16.324326 5.2210603 3.8467957)
(-12.306296 8.2388369 3.9613896)
(-16.212637 6.4841023 2.8782969)
(-11.80705 9.384592 4.024249)
(-16.896473 7.2372626 2.820937)
(-11.250889 10.256594 4.2097747)
(-17.003151 7.7773173 3.0515295)
(-10.309378 10.902483 4.4728927)
(-16.493434 8.2557793 3.3839632)
(-8.8853227 11.505929 4.9315455)
(-15.432277 8.7194132 3.8289595)
(-7.1952315 12.069921 5.5176361)
(-13.729761 9.2566765 4.5194923)
(-16.39092 7.9745598 4.0645921)
(-18.215321 6.7674044 3.9085093)
(-13.184955 10.55172 3.8392692)
(-16.128152 9.0456531 3.1576938)
(-11.604649 12.112218 3.7776268)
(-15.214883 10.370009 3.0379372)
(-10.56586 13.098289 3.8350456)
(-14.364908 11.25234 3.2013945)
(-9.7495236 13.726208 3.946781)
(-13.506576 11.871288 3.4571086)
(-9.0877319 14.152307 4.1084298)
(-12.65166 12.30642 3.7693684)
(-8.5185228 14.447699 4.3154428)
(-11.805336 12.656723 4.1706332)
(-19.235183 8.6568989 3.6185728)
(-20.849944 7.5888515 3.6654413)
(-15.823403 11.732503 3.4571444)
(-18.185493 10.443381 3.0531026)
(-14.111483 13.377508 3.2277801)
(-16.982193 11.863167 2.7798907)
(-13.121203 14.360108 3.1187368)
(-16.169061 12.726135 2.7361258)
(-12.493778 14.952544 3.1008711)
(-15.548244 13.26965 2.7848821)
(-12.05794 15.319425 3.1628297)
(-15.042019 13.62843 2.9072492)
(-11.735807 15.547638 3.2945096)
(-14.620127 13.870159 3.099432)
(-22.130866 8.9189312 3.1249236)
(-23.626742 7.9747518 3.2966493)
(-19.165091 12.379967 3.0620626)
(-21.171558 11.279571 2.8330828)
(-17.732892 14.011536 2.8070055)
(-20.163269 12.688105 2.4849903)
(-16.923341 14.93512 2.6481968)
(-19.516794 13.468604 2.3314028)
(-16.436107 15.469647 2.5854475)
(-19.047388 13.92048 2.2811616)
(-16.109122 15.789438 2.6047233)
(-18.672931 14.200949 2.31905)
(-15.866815 15.979128 2.6937083)
(-18.35825 14.37459 2.4325887)
(-24.699431 8.9441178 2.6283105)
(-26.104963 8.1022494 2.8624755)
(-22.467364 12.764579 2.6511035)
(-24.220797 11.830152 2.5449492)
(-21.587856 14.359852 2.409159)
(-23.616512 13.199541 2.179134)
(-21.087757 15.232257 2.2275785)
(-23.179684 13.908447 1.9602972)
(-20.768319 15.742004 2.1400776)
(-22.831345 14.306174 1.8488023)
(-20.51892 16.053585 2.13224)
(-22.531113 14.549953 1.8344289)
(-20.290329 16.244058 2.1840799)
(-22.257213 14.698109 1.8970026)
(-26.683429 8.8438576 2.1601084)
(-28.002398 8.0934915 2.4157758)
(-25.182584 13.065176 2.2595962)
(-26.806843 12.275865 2.2402697)
(-24.914746 14.649217 2.0537379)
(-26.703449 13.624474 1.9066735)
(-24.774134 15.473724 1.8483247)
(-26.530715 14.273998 1.6572147)
(-24.643402 15.975393 1.7200553)
(-26.32528 14.643918 1.5020259)
(-24.456462 16.306243 1.6728191)
(-26.092382 14.882003 1.450446)
(-24.193804 16.52851 1.6777492)
(-25.829082 15.034358 1.4711013)
(-27.962439 8.6842696 1.7348051)
(-29.180943 8.0213262 1.9827642)
(-27.054694 13.388348 1.8989672)
(-28.673514 12.732781 1.9389973)
(-27.254566 15.0412 1.7498811)
(-29.021519 14.123833 1.6716972)
(-27.355391 15.846881 1.5268912)
(-29.076246 14.737882 1.4129354)
(-27.336843 16.356877 1.3348467)
(-28.989565 15.0979 1.2048365)
(-27.158132 16.727322 1.2203577)
(-28.799497 15.355473 1.0983814)
(-26.815697 17.002833 1.159036)
(-28.513597 15.539187 1.0630317)
(-28.471428 8.4745531 1.3552684)
(-29.540756 7.8999748 1.5718548)
(-28.04242 13.777251 1.5689703)
(-29.755863 13.262507 1.6484391)
(-28.524423 15.619229 1.4938548)
(-30.433717 14.798027 1.4681662)
(-28.665446 16.468654 1.2770824)
(-30.592049 15.433193 1.2230525)
(-28.610615 17.010754 1.0210602)
(-30.521183 15.807479 0.95744413)
(-28.34765 17.431867 0.81983087)
(-30.312306 16.101902 0.77593649)
(-27.880441 17.766964 0.67884024)
(-29.975941 16.334826 0.66989974)
(-28.044254 8.1207962 1.0067904)
(-28.872264 7.6208134 1.183884)
(-28.065468 14.188545 1.258511)
(-29.964085 13.844417 1.3585032)
(-28.746491 16.380424 1.2680076)
(-30.921523 15.667155 1.2826876)
(-28.781503 17.343206 1.0841748)
(-31.094858 16.387198 1.072679)
(-28.565754 17.937519 0.78276069)
(-30.974132 16.794777 0.76895308)
(-28.144799 18.401993 0.49451003)
(-30.643444 17.131323 0.49573447)
(-27.531788 18.781326 0.2811245)
(-30.180112 17.414651 0.3012431)
(-26.25801 7.3261738 0.6851715)
(-26.685534 6.8470933 0.81307727)
(-26.75947 14.355507 0.95279177)
(-28.805327 14.234369 1.0553466)
(-27.764817 17.175262 1.0509103)
(-30.336082 16.622987 1.0916112)
(-27.736681 18.332866 0.92898459)
(-30.511686 17.504646 0.95240149)
(-27.332488 18.978809 0.61852338)
(-30.249155 17.956093 0.63589961)
(-26.731896 19.452514 0.27210972)
(-29.806754 18.306339 0.29278571)
(-25.982758 19.837705 0.01359506)
(-29.221904 18.609648 0.029712613)
(-22.280383 5.5043732 0.39220337)
(-22.177788 4.994819 0.46103606)
(-23.14763 13.346147 0.63012409)
(-25.065788 13.486168 0.70695325)
(-24.776148 17.263658 0.80806226)
(-27.577308 16.984502 0.86287953)
(-25.079737 18.872068 0.78751619)
(-28.211408 18.299384 0.83232275)
(-24.673112 19.628315 0.5215013)
(-28.002945 18.866334 0.54767551)
(-23.966021 20.085262 0.16485846)
(-27.456016 19.207868 0.17533775)
(-23.134604 20.435759 -0.10153478)
(-26.73908 19.482869 -0.11545526)
(-14.914373 2.2069578 0.15962772)
(-14.451632 1.7742061 0.17504959)
(-15.685309 9.2174964 0.28820904)
(-17.061725 9.6410769 0.32873218)
(-17.754513 14.20344 0.48979657)
(-20.199756 14.444818 0.54546314)
(-18.951139 16.850129 0.56486496)
(-21.927269 16.876802 0.61750533)
(-19.126665 18.018521 0.38457546)
(-22.369919 17.864118 0.43026564)
(-18.627482 18.482187 0.0947271)
(-22.003182 18.215138 0.12283485)
(-17.877821 18.731517 -0.12047885)
(-21.303051 18.398479 -0.11683706)
(-4.8792731 -0.446739 -0.12650458)
(-4.6652532 -0.60543403 -0.12682453)
(-5.0585439 1.9972612 -0.065439148)
(-5.5697495 2.2848637 -0.047257704)
(-5.9361048 4.5983777 0.019257923)
(-7.0250124 5.1254894 0.050198099)
(-6.9851371 7.1029429 0.14711142)
(-8.541574 7.8405463 0.18515939)
(-7.7098445 8.6446906 0.1752775)
(-9.5545249 9.458138 0.20779301)
(-7.7992923 9.1871635 0.082280627)
(-9.7923447 10.028098 0.10304884)
(-7.5361661 9.3040476 -0.022847369)
(-9.5872429 10.136177 -0.020013938)
(-4.1008599 3.1434723 0.29199051)
(-5.6934025 0.70100107 0.12938539)
(-3.7651878 2.8600312 0.32391083)
(-5.6112585 0.37237245 0.15794378)
(-3.5140481 2.6165409 0.3048241)
(-5.6510848 0.035932041 0.15894639)
(-3.2834566 2.357018 0.23721828)
(-5.7073112 -0.34922462 0.11761304)
(-3.0178217 2.0891925 0.11671155)
(-5.5812533 -0.79521852 0.017254076)
(-2.6045557 2.1515492 -0.026436112)
(-5.1170438 -0.9915452 -0.10778161)
(-10.031218 4.9285567 0.54241548)
(-12.752743 1.8164156 0.58154113)
(-8.9740427 5.0106373 0.6340763)
(-12.26164 1.6093642 0.66190774)
(-8.031781 5.170835 0.6550423)
(-11.959797 1.4332592 0.68714495)
(-7.089211 5.3789859 0.54556612)
(-11.646482 1.2542456 0.62390573)
(-5.9875761 5.6904582 0.33260976)
(-11.101046 1.0775829 0.37541994)
(-4.1936919 6.3473315 0.04443369)
(-9.9784183 1.15494 -0.050897563)
(-16.370306 4.3215638 0.63632317)
(-18.21777 1.9230318 0.72227385)
(-14.838605 4.6798352 0.68853083)
(-17.24257 2.0572592 0.78108854)
(-13.387972 5.1134182 0.67469205)
(-16.422466 2.2351571 0.79534735)
(-11.866853 5.6377717 0.5945037)
(-15.559298 2.4796232 0.72780458)
(-10.122478 6.3168734 0.45242401)
(-14.422139 2.8348613 0.51145603)
(-7.3024906 7.2802093 0.25298421)
(-12.313027 3.4495469 0.042392973)
(-22.002898 3.3365463 0.44548707)
(-22.874239 1.5936118 0.60373836)
(-20.43508 3.7556762 0.44559963)
(-21.849812 1.8318925 0.59044631)
(-18.827174 4.2530391 0.42384368)
(-20.850483 2.1221706 0.5898422)
(-17.081243 4.8576172 0.37717996)
(-19.686832 2.5138957 0.57647601)
(-15.162879 5.6496034 0.32065134)
(-18.184292 3.0859061 0.48717958)
(-12.189911 6.9000008 0.27195422)
(-15.500536 4.0236337 0.18522262)
(-25.746165 2.7118806 0.29379885)
(-25.695868 1.5196727 0.41118565)
(-24.635552 3.0137541 0.21274412)
(-25.109723 1.6751097 0.30815718)
(-23.334875 3.4289373 0.12398261)
(-24.426171 1.8978482 0.23868856)
(-21.72049 4.0009905 0.038988404)
(-23.47433 2.2514301 0.19850626)
(-19.938306 4.788836 -0.003605217)
(-22.095883 2.8444809 0.18203602)
(-17.548321 6.0928826 0.042239783)
(-19.554042 3.9121414 0.086483265)
(-26.779408 2.616254 0.12108252)
(-26.033297 1.8474682 0.17736236)
(-26.221433 2.7919094 -0.021961751)
(-25.874726 1.9104481 -0.030925239)
(-25.566881 3.0415003 -0.18281999)
(-25.759841 2.0004241 -0.2098991)
(-24.642866 3.4336662 -0.36117863)
(-25.604151 2.1599264 -0.35037068)
(-23.425597 4.0976752 -0.48893248)
(-25.162227 2.5458248 -0.38235057)
(-21.901926 5.3564755 -0.4206926)
(-23.501624 3.5673535 -0.29709491)
(-25.356458 2.9168471 -0.093273889)
(-24.206513 2.5411421 -0.1010968)
(-25.181649 2.9993055 -0.25462166)
(-24.421502 2.5057995 -0.34924185)
(-25.067716 3.1144731 -0.4600587)
(-24.813633 2.4666022 -0.59874598)
(-24.947867 3.3102546 -0.74977848)
(-25.408258 2.4349053 -0.88069604)
(-24.753344 3.7118783 -1.0739483)
(-25.963882 2.5303956 -1.1183922)
(-24.405617 4.7456328 -1.104194)
(-25.998382 3.2393924 -1.0142065)
(-22.315974 3.5604783 -0.35147359)
(-21.09916 3.5544107 -0.4239654)
(-22.299688 3.5943986 -0.51411519)
(-21.400621 3.4931368 -0.66155388)
(-22.449285 3.6314931 -0.73050303)
(-22.028365 3.3924153 -0.9385356)
(-22.828845 3.6886278 -1.0680752)
(-23.255367 3.2110638 -1.3316162)
(-23.569563 3.8270419 -1.5785681)
(-24.947671 3.0227825 -1.744464)
(-24.603955 4.45374 -1.9476233)
(-26.021079 3.2684957 -1.8628841)
(-18.741247 4.4229554 -0.57291868)
(-17.823765 4.6977472 -0.81944188)
(-18.722963 4.4531652 -0.72219458)
(-17.983586 4.6680372 -1.016319)
(-18.899946 4.4704279 -0.92493702)
(-18.435642 4.5930639 -1.2383127)
(-19.385783 4.4799068 -1.2701281)
(-19.544275 4.4112453 -1.5972384)
(-20.484753 4.4845798 -1.8781733)
(-21.742488 4.075752 -2.1359914)
(-22.320993 4.714091 -2.5422936)
(-24.126825 3.9543153 -2.5654779)
(-15.587083 5.4472443 -0.80637371)
(-15.158186 5.7958508 -1.3469718)
(-15.454666 5.5151192 -0.94073782)
(-15.104014 5.823823 -1.5166869)
(-15.512748 5.5587133 -1.1175994)
(-15.271596 5.8105281 -1.694336)
(-15.822784 5.5854745 -1.4107914)
(-15.823604 5.732372 -1.9572806)
(-16.671451 5.5808347 -1.9654758)
(-17.292758 5.5050213 -2.4270006)
(-18.45984 5.6092849 -2.8252892)
(-19.787344 5.25937 -3.0832829)
(-13.152524 6.5441525 -1.1825279)
(-13.226752 6.7362709 -2.0656394)
(-12.81754 6.6677079 -1.3024587)
(-12.917787 6.833628 -2.2205303)
(-12.694138 6.7529666 -1.4394852)
(-12.808917 6.8894106 -2.3685768)
(-12.737018 6.8315243 -1.6595925)
(-12.89762 6.9150618 -2.5723105)
(-13.097451 6.8993941 -2.0750439)
(-13.413125 6.879818 -2.9164013)
(-14.111983 6.9418616 -2.8326308)
(-14.76788 6.7880017 -3.5273947)
(-11.300416 7.4877974 -1.5785749)
(-11.796163 7.3669031 -2.7935964)
(-10.501602 7.729148 -1.7273778)
(-11.066783 7.5716598 -3.0277926)
(-10.076406 7.8819988 -1.8607718)
(-10.63828 7.7069382 -3.2094788)
(-9.8259282 8.0100589 -2.0245801)
(-10.354365 7.8166628 -3.3958525)
(-9.7180763 8.1491701 -2.2967105)
(-10.209313 7.9142547 -3.6579479)
(-9.844115 8.2983812 -2.8084458)
(-10.354391 8.0223432 -4.1103378)
(-9.6726879 7.6949588 -1.7435982)
(-10.806174 7.2781707 -3.122881)
(-8.4820657 8.0405946 -1.9506536)
(-9.6376639 7.6038133 -3.4873389)
(-7.7104969 8.2814328 -2.1223561)
(-8.7550871 7.866258 -3.8090769)
(-7.1430192 8.4810221 -2.294392)
(-7.975795 8.1110219 -4.1399394)
(-6.6664357 8.6831519 -2.5029225)
(-7.2898134 8.3390641 -4.4775458)
(-6.170082 8.9122271 -2.7844858)
(-6.6356319 8.5797459 -4.863528)
(-9.6694293 6.4679773 -1.8962485)
(-11.251658 6.0014415 -3.3522763)
(-7.8249348 6.9734951 -2.2172298)
(-9.2593765 6.525705 -3.9540054)
(-6.4146496 7.3696783 -2.4921383)
(-7.5587581 6.9964098 -4.5101629)
(-5.1772776 7.7262097 -2.7642681)
(-5.8962713 7.4685001 -5.0948178)
(-4.0556866 8.0594544 -3.0278773)
(-4.3059433 7.9243645 -5.6858011)
(-2.8998696 8.4070897 -3.2543912)
(-2.7680336 8.3587653 -6.2742951)
(-12.331091 3.7560716 -1.6493662)
(-15.117151 3.5700283 -3.1032492)
(-10.074648 4.3948435 -2.0357952)
(-12.840555 4.2557337 -3.7976874)
(-7.6010111 5.0733037 -2.5214053)
(-10.245411 5.0313115 -4.6297925)
(-4.9017291 5.8201902 -3.1186131)
(-7.2948907 5.9080921 -5.6080179)
(-2.1010859 6.6043299 -3.8031566)
(-4.1949359 6.792435 -6.6448209)
(0.43246027 7.3371611 -4.4171773)
(-1.317595 7.5143549 -7.4942595)
(-13.99658 1.3070407 -1.2504996)
(-18.343833 0.021098796 -2.6413893)
(-12.724126 1.7176397 -1.4072825)
(-17.192721 0.44908929 -2.9474215)
(-10.684461 2.3154616 -1.7524139)
(-15.178126 1.1304106 -3.564648)
(-7.6890402 3.1562847 -2.3515992)
(-12.035313 2.1726729 -4.5773802)
(-3.707833 4.2683395 -3.2341363)
(-7.9441666 3.6328296 -5.9080609)
(0.63771777 5.5036445 -4.1626159)
(-3.7914393 5.2031852 -7.0580574)
(-14.749424 -0.30785797 -0.87637165)
(-19.956278 -2.9292148 -2.0454886)
(-13.788178 0.039747363 -0.9184638)
(-19.282212 -2.6346436 -2.1377649)
(-12.188963 0.53565617 -1.081738)
(-18.156128 -2.2237334 -2.3657343)
(-9.5420671 1.3033324 -1.4440523)
(-15.88811 -1.4550729 -2.9099458)
(-5.5791824 2.4397547 -2.0648275)
(-11.926655 -0.074340378 -3.8898126)
(-0.57275738 3.8732978 -2.7882604)
(-6.6066101 2.077715 -4.9703307)
(-14.946364 -0.95375035 -0.44866156)