/*--------------------------------*- C++ -*----------------------------------*\
| =========                 |                                                 |
| \\      /  F ield         | OpenFOAM: The Open Source CFD Toolbox           |
|  \\    /   O peration     | Version:  2206                                  |
|   \\  /    A nd           | Website:  www.openfoam.com                      |
|    \\/     M anipulation  |                                                 |
\*---------------------------------------------------------------------------*/
FoamFile
{
    version     2.0;
    format      ascii;
    arch        "LSB;label=32;scalar=64";
    class       volVectorField;
    location    "300";
    object      Urel;
}
// * * * * * * * * * * * * * * * * * * * * * * * * * * * * * * * * * * * * * //

dimensions      [0 1 -1 0 0 0 0];

internalField   nonuniform List<vector> 
50904
(
(-4.6681707 -2.0735162 -0.25995229)
(-4.9472102 -1.8119911 -0.19451699)
(-7.5899487 0.95576134 0.17456966)
(-8.4068296 0.92405032 0.18229967)
(-15.186346 -4.7034982 -0.1922246)
(-15.678054 -4.514566 -0.1514185)
(-20.315918 1.0117436 -0.0061165979)
(-21.347466 0.95566995 0.025459718)
(-22.870382 -5.8969039 -0.34123357)
(-23.306599 -5.8932698 -0.24990018)
(-26.620997 0.43978241 -0.058282055)
(-27.674424 0.37619459 -0.00073047005)
(-26.680384 -6.1829338 -0.45614574)
(-27.193666 -6.2857673 -0.33564601)
(-29.094054 -0.064773584 -0.16194325)
(-30.219918 -0.14011681 -0.088685729)
(-28.127183 -6.0939995 -0.55702611)
(-28.79627 -6.3359731 -0.41476365)
(-29.799843 -0.37518884 -0.27051701)
(-31.023478 -0.42865238 -0.18979675)
(-28.180132 -5.8623866 -0.63449379)
(-28.986783 -6.2183434 -0.48165481)
(-29.42494 -0.49613406 -0.38215367)
(-30.750636 -0.52916864 -0.30438532)
(-27.304575 -5.5605787 -0.67668277)
(-28.206748 -5.9870417 -0.52238207)
(-28.195728 -0.47598454 -0.49310131)
(-29.625208 -0.49672923 -0.43172667)
(-25.683837 -5.2238572 -0.66632816)
(-26.666129 -5.6608045 -0.52088797)
(-26.214671 -0.3431798 -0.58978749)
(-27.748815 -0.36176789 -0.56365757)
(-23.484688 -4.8506108 -0.58113349)
(-24.533425 -5.2868443 -0.45701638)
(-23.530696 -0.12637777 -0.66221075)
(-25.169632 -0.12055774 -0.67945723)
(-20.892101 -4.443903 -0.38090902)
(-22.003852 -4.8787646 -0.30118125)
(-20.32242 0.15438214 -0.70295923)
(-22.023595 0.18599583 -0.79308915)
(-18.16778 -4.0077393 -0.045777062)
(-19.279918 -4.4498573 -0.029873818)
(-17.111452 0.37181819 -0.74523546)
(-18.720306 0.43309592 -0.91103163)
(-15.730217 -3.616265 0.45893048)
(-16.74462 -4.1071914 0.39135345)
(-14.228536 0.43789447 -0.80797626)
(-15.651604 0.49385293 -1.0655029)
(-13.871078 -3.3988672 1.1652133)
(-14.782983 -3.9797292 0.9885255)
(-11.778018 0.30590202 -0.86155797)
(-13.008805 0.29240245 -1.2332434)
(-12.790974 -3.4000807 2.1657162)
(-13.565474 -4.0851436 1.87435)
(-9.9203439 -0.14421588 -0.80324482)
(-10.903787 -0.2877991 -1.3185421)
(-12.903201 -3.5600701 3.6098542)
(-13.512027 -4.4989133 3.2388032)
(-9.1179697 -0.961718 -0.42820122)
(-9.8815427 -1.3336411 -1.1060615)
(-13.985444 -3.7522133 5.3817345)
(-14.485233 -4.8779374 4.9873784)
(-9.7704452 -1.7459557 0.51010939)
(-10.444434 -2.4198381 -0.35846118)
(-14.995487 -3.9012189 7.1241442)
(-15.511645 -4.8848013 6.8505721)
(-11.096272 -2.0691896 1.7918549)
(-11.760211 -3.0009177 0.75295912)
(-15.730349 -4.0143488 8.7548585)
(-16.432116 -4.4751106 8.7804806)
(-12.469047 -1.9614318 3.1593122)
(-13.110275 -3.0365997 2.0063146)
(-16.212832 -3.9587699 10.147808)
(-17.371681 -3.8448683 10.69224)
(-13.549492 -1.5502712 4.2654523)
(-14.149491 -2.6565455 3.071995)
(-16.489008 -3.7198379 11.335664)
(-18.270348 -2.9871948 12.521206)
(-14.398529 -0.83637467 5.0124477)
(-14.966993 -1.8978079 3.8519011)
(-16.585436 -3.3464753 12.363552)
(-18.913648 -1.8564137 14.111579)
(-15.369833 0.071767074 5.5874559)
(-15.96976 -0.95450625 4.5999588)
(-16.424176 -2.7493926 12.90673)
(-18.87246 -0.97591567 15.03347)
(-16.863602 1.1357043 5.9472847)
(-17.509219 0.12761991 5.3625013)
(-15.834157 -2.3331681 12.881185)
(-18.210892 -0.9198995 15.285469)
(-18.880979 2.013505 5.9253787)
(-19.608301 1.0504074 5.9210271)
(-14.591181 -2.2759908 12.189914)
(-16.544262 -1.6777215 14.191307)
(-21.072509 2.4927156 5.4459581)
(-21.913596 1.5749588 5.9498275)
(-13.040497 -2.5187599 11.021357)
(-13.95678 -2.9159189 12.603962)
(-23.361496 2.5745751 4.7871531)
(-24.313348 1.6688685 5.6315283)
(-11.692175 -2.8904789 9.5428087)
(-11.211456 -4.3559073 10.642389)
(-25.477869 2.4376656 4.0764582)
(-26.535851 1.4931469 5.1097963)
(-10.601231 -3.2885731 7.94515)
(-8.7437146 -5.8391069 8.6744355)
(-27.23875 2.2155527 3.3951219)
(-28.205529 1.1729831 4.4564814)
(-9.5974345 -3.6913192 6.3524232)
(-6.4141429 -7.3054372 6.7916268)
(-28.487013 1.9322897 2.761076)
(-29.337721 0.75568601 3.720486)
(-8.4666839 -4.1032582 4.8630701)
(-4.1935194 -8.6940647 5.1179286)
(-29.325547 1.6069939 2.178189)
(-30.048755 0.3003638 2.9944707)
(-7.1346779 -4.5394157 3.5579737)
(-2.093479 -9.949202 3.7093719)
(-29.708894 1.2772763 1.6631565)
(-30.275492 -0.15209652 2.3120242)
(-5.5449314 -4.9731709 2.4493413)
(-0.13462677 -11.013017 2.5564414)
(-29.585788 0.94331935 1.2217611)
(-29.917374 -0.61325374 1.7031073)
(-3.7378329 -5.3174786 1.5507252)
(1.5580333 -11.753332 1.6521723)
(-28.813219 0.54139844 0.84019053)
(-28.747558 -1.17081 1.1632941)
(-1.9191298 -5.3723318 0.86836826)
(2.6674769 -11.75357 0.97701763)
(-26.958284 -0.083728308 0.51500457)
(-26.140079 -1.9589112 0.69605794)
(-0.59602676 -4.6083101 0.38016463)
(2.5690346 -10.248226 0.47602096)
(-22.723398 -1.1220108 0.2515369)
(-21.030949 -2.9368348 0.3246053)
(-0.57269445 -2.3290853 0.06182746)
(0.58841068 -6.2332029 0.11274062)
(-14.852115 -2.2167685 0.10142758)
(-13.322985 -3.3727752 0.10925694)
(-0.76862131 -0.051928683 0.16488503)
(-1.2677073 -1.28002 0.2090502)
(-4.67451 -1.622595 -0.1323013)
(-4.1771664 -1.8231141 -0.095070559)
(-6.414835 0.42739178 -0.036566021)
(-7.118549 0.27752586 0.0084600169)
(-6.5979915 2.3303643 0.094172137)
(-8.0505921 1.5244597 0.16005893)
(-5.72843 2.7264898 0.013313491)
(-7.0557097 1.1543122 0.062265257)
(-5.3244486 3.3417488 0.029490251)
(-6.5112564 1.4336419 0.070273802)
(-5.0203576 3.5352598 0.063342192)
(-6.1299804 1.3808755 0.061214852)
(-4.7338664 3.5154232 0.13302661)
(-5.9186921 1.2431588 0.085175799)
(-4.430679 3.3702889 0.21641833)
(-5.7807259 1.0061341 0.10502384)
(-18.349755 0.62536967 -0.11720669)
(-19.306826 0.46876195 0.031153196)
(-18.038783 3.83593 -0.046971035)
(-19.962019 2.8315166 0.26824254)
(-16.144311 4.3055461 -0.13436547)
(-17.979095 2.4014294 0.20408445)
(-14.719464 4.6857261 -0.091394609)
(-16.348095 2.4692877 0.21542235)
(-13.437308 4.73444 0.041189447)
(-15.038239 2.3047179 0.26258719)
(-12.281476 4.7677347 0.22480953)
(-14.085588 2.1590711 0.37213422)
(-11.173756 4.8222021 0.39231045)
(-13.35783 1.9955729 0.48177582)
(-24.975033 0.22465502 -0.18330352)
(-25.778898 0.16581104 0.017142102)
(-25.01722 3.1035531 -0.022926201)
(-26.238376 2.4512061 0.42087845)
(-23.849751 3.2172035 -0.027347064)
(-24.906412 1.8545322 0.44884279)
(-22.498121 3.3706108 0.10164151)
(-23.361296 1.741445 0.504218)
(-21.056232 3.4519324 0.24323845)
(-21.871945 1.6332945 0.52423954)
(-19.56945 3.6409516 0.39526023)
(-20.549562 1.6635871 0.57881132)
(-18.03162 3.9229991 0.52578799)
(-19.360713 1.7611643 0.64440114)
(-27.546974 0.010701024 -0.25947182)
(-28.27514 0.062746735 -0.033990787)
(-27.974393 2.49753 -0.069970779)
(-28.561482 2.1704889 0.44518418)
(-27.678724 2.4077291 0.0012695137)
(-27.924243 1.5317696 0.56910436)
(-26.910821 2.4271964 0.17004062)
(-26.980296 1.3196773 0.66542132)
(-25.924039 2.468948 0.28600033)
(-25.966089 1.1916846 0.66272341)
(-24.79856 2.6362887 0.36443452)
(-24.959104 1.2252116 0.63990438)
(-23.524854 2.9120754 0.41146252)
(-23.955892 1.3568228 0.61643416)
(-28.245868 0.032145028 -0.33677828)
(-28.982201 0.17562817 -0.10715897)
(-28.826779 2.2829968 -0.14731961)
(-29.04571 2.2025052 0.41153452)
(-28.948117 2.1762796 -0.0073428395)
(-28.620477 1.6662747 0.60522157)
(-28.690661 2.1583514 0.20375559)
(-28.030052 1.4593826 0.72730826)
(-28.171323 2.1647235 0.32036998)
(-27.405122 1.3301303 0.71145167)
(-27.489788 2.2607445 0.35843818)
(-26.811614 1.3217897 0.63033299)
(-26.685719 2.4313769 0.33996555)
(-26.262273 1.3821352 0.52318219)
(-27.88647 0.21383758 -0.42344527)
(-28.662589 0.42997932 -0.20591464)
(-28.46085 2.372986 -0.26499037)
(-28.464558 2.4665727 0.29829215)
(-28.586702 2.2909347 -0.090443881)
(-27.890761 2.086368 0.52410919)
(-28.421813 2.2848745 0.12130011)
(-27.314628 1.9373978 0.64159299)
(-28.10413 2.290206 0.22831058)
(-26.837878 1.8303122 0.61989767)
(-27.713116 2.3457331 0.25236162)
(-26.486851 1.7936363 0.52015842)
(-27.284487 2.4446516 0.21272148)
(-26.232966 1.7969665 0.37009464)
(-26.727209 0.53017631 -0.5181461)
(-27.574435 0.80802611 -0.32939124)
(-27.190756 2.6434707 -0.42058219)
(-27.065285 2.8980622 0.1171672)
(-27.044925 2.640976 -0.2365354)
(-26.093472 2.7041132 0.34678066)
(-26.668207 2.6746862 -0.042438346)
(-25.247412 2.6476592 0.43944386)
(-26.268197 2.6995748 0.049184938)
(-24.648223 2.5984369 0.39328333)
(-25.905829 2.749187 0.060426108)
(-24.296601 2.5768727 0.27703826)
(-25.60243 2.8162936 0.010695877)
(-24.157089 2.5592586 0.11429214)
(-24.873859 0.97042851 -0.61852051)
(-25.828504 1.3052489 -0.48491343)
(-25.179848 3.0714897 -0.60816941)
(-25.038285 3.4783539 -0.12942715)
(-24.640849 3.1762284 -0.43022723)
(-23.625039 3.4821817 0.071282466)
(-23.957214 3.2766054 -0.26427949)
(-22.451085 3.5410272 0.12429431)
(-23.332244 3.3506331 -0.19116652)
(-21.662669 3.5662345 0.058570108)
(-22.828247 3.4259743 -0.19016342)
(-21.217792 3.5830982 -0.062750913)
(-22.49212 3.4921276 -0.24535652)
(-21.041249 3.5810664 -0.21958271)
(-22.456581 1.5130131 -0.72276393)
(-23.550704 1.901674 -0.66729194)
(-22.675303 3.6212218 -0.7912398)
(-22.669734 4.1665264 -0.43134245)
(-21.812647 3.8389979 -0.64126072)
(-20.990133 4.3448255 -0.3006434)
(-20.833833 4.017201 -0.49850254)
(-19.623496 4.4990869 -0.30371145)
(-19.985939 4.1532695 -0.42855718)
(-18.717705 4.5918793 -0.38764345)
(-19.347581 4.2671626 -0.42455846)
(-18.174443 4.6557595 -0.50539393)
(-18.947402 4.3522091 -0.47469644)
(-17.894968 4.6912433 -0.64483559)
(-19.686747 2.0964331 -0.83380411)
(-20.938256 2.5394813 -0.88629525)
(-20.091287 4.2415389 -0.98009083)
(-20.39312 4.8900898 -0.78682749)
(-19.248625 4.5590789 -0.83177699)
(-18.848916 5.1905454 -0.73937237)
(-18.236911 4.8023991 -0.7173208)
(-17.511945 5.3906752 -0.81377342)
(-17.287592 5.0051762 -0.66184268)
(-16.530287 5.5306022 -0.93058898)
(-16.485314 5.1876193 -0.66024956)
(-15.852736 5.6445366 -1.0565284)
(-15.92514 5.3319196 -0.71132687)
(-15.41804 5.7320801 -1.1897979)
(-16.809441 2.6251487 -0.99333298)
(-18.199157 3.1055694 -1.17119)
(-17.796402 4.8609977 -1.1639908)
(-18.526992 5.5492022 -1.1849573)
(-17.467635 5.2617771 -1.0331723)
(-17.585891 5.8915404 -1.2156851)
(-16.737793 5.5437652 -0.96335407)
(-16.512449 6.0739023 -1.3562049)
(-15.831469 5.7944817 -0.95563814)
(-15.533368 6.2192499 -1.5253101)
(-14.809882 6.0634343 -0.98979907)
(-14.611121 6.393723 -1.7014946)
(-13.852324 6.3256423 -1.0699268)
(-13.812517 6.5791443 -1.8847848)
(-13.972684 2.9672811 -1.2748338)
(-15.429943 3.4532503 -1.5842916)
(-15.673547 5.337868 -1.4046536)
(-16.860183 6.0029271 -1.6560947)
(-16.102022 5.8186641 -1.252877)
(-16.740431 6.3518929 -1.6991662)
(-15.893957 6.1117869 -1.1783204)
(-16.090407 6.4750904 -1.8429767)
(-15.24729 6.3630418 -1.1869854)
(-15.223419 6.5907507 -2.0198876)
(-14.134135 6.6911927 -1.2600334)
(-14.132358 6.7954374 -2.2391998)
(-12.633648 7.1080963 -1.4051779)
(-12.902102 7.0786228 -2.5091833)
(-11.348838 2.9191921 -1.7227271)
(-12.742658 3.3632805 -2.1531361)
(-13.306671 5.2941849 -1.7320224)
(-14.834242 5.8861003 -2.1592144)
(-14.004075 5.8634745 -1.4874658)
(-15.223592 6.2561646 -2.1031934)
(-14.033562 6.2110933 -1.3330708)
(-14.903795 6.3763579 -2.1692418)
(-13.591918 6.480643 -1.2906215)
(-14.256125 6.4778423 -2.2947695)
(-12.685799 6.8014858 -1.3479036)
(-13.361985 6.6485587 -2.4785919)
(-11.274932 7.2268568 -1.5121605)
(-12.193686 6.9196345 -2.7500646)
(-9.1836981 2.2147098 -2.3059293)
(-10.39045 2.5657597 -2.8545947)
(-11.557512 4.2264831 -2.1789544)
(-13.358261 4.7562055 -2.7183094)
(-12.766496 4.7342054 -1.8279769)
(-14.738562 5.067731 -2.4777403)
(-13.225357 5.0516325 -1.594808)
(-15.111733 5.1303218 -2.4015482)
(-13.123681 5.3100754 -1.4914087)
(-14.853832 5.1754603 -2.4488088)
(-12.597612 5.5619558 -1.4900261)
(-14.195097 5.2939085 -2.5815774)
(-11.539292 5.9125104 -1.6094375)
(-13.088109 5.5405011 -2.8480273)
(-7.627233 0.83439697 -2.8986389)
(-8.5924176 0.97462978 -3.6027817)
(-10.51111 2.1782325 -2.6339067)
(-12.538889 2.4103396 -3.35071)
(-12.574329 2.5072758 -2.1095381)
(-15.300208 2.5741097 -2.8887659)
(-13.743545 2.7322856 -1.7458023)
(-16.723539 2.6452984 -2.6343251)
(-14.154946 2.928265 -1.5521207)
(-17.174922 2.7461845 -2.5639249)
(-14.027124 3.140118 -1.4801712)
(-17.001116 2.919291 -2.6117112)
(-13.492489 3.3708859 -1.5020362)
(-16.377954 3.1526129 -2.7604638)
(-7.060787 -0.57869383 -3.167771)
(-7.7896582 -0.72040193 -3.9535321)
(-9.7866134 0.1306794 -2.9103929)
(-11.695244 -0.18118128 -3.7886254)
(-12.316053 0.28775958 -2.2388691)
(-15.305538 -0.42505111 -3.1781367)
(-13.956362 0.45442484 -1.7312386)
(-17.581777 -0.57768823 -2.7780111)
(-14.742473 0.62630131 -1.4246202)
(-18.712977 -0.57815712 -2.5684581)
(-14.912598 0.81567168 -1.2676346)
(-19.072601 -0.45998348 -2.4934544)
(-14.652391 1.028245 -1.2180135)
(-18.914457 -0.26355586 -2.5212841)
(-7.4197752 -1.489442 -2.9539667)
(-8.10286 -1.925388 -3.6900341)
(-9.5648785 -1.2188801 -2.9458519)
(-11.295975 -1.9260392 -3.8453983)
(-12.185897 -1.207843 -2.2327956)
(-15.199328 -2.5812002 -3.1757184)
(-14.051139 -1.0933421 -1.6339894)
(-17.931225 -3.0449829 -2.6452865)
(-15.04048 -0.9406813 -1.243989)
(-19.475933 -3.2683271 -2.3142783)
(-15.367841 -0.76090181 -1.0183297)
(-20.162724 -3.2621282 -2.1206638)
(-15.240228 -0.55524062 -0.91008363)
(-20.258932 -3.13926 -2.0417483)
(-8.2722678 -1.8853438 -2.2583214)
(-9.0753373 -2.4957703 -2.9802788)
(-9.8568475 -1.8341692 -2.6770977)
(-11.69392 -2.803572 -3.5083511)
(-12.343921 -1.8706081 -2.0046155)
(-15.51239 -3.6798906 -2.850861)
(-14.204926 -1.757521 -1.3687931)
(-18.302719 -4.3061842 -2.2049955)
(-15.21192 -1.5956239 -0.9362588)
(-19.908414 -4.6180541 -1.7524873)
(-15.549293 -1.4079752 -0.67279271)
(-20.645837 -4.6685348 -1.4626052)
(-15.428095 -1.1969732 -0.52775024)
(-20.78879 -4.5778188 -1.3020339)
(-9.233306 -1.8183189 -1.2704773)
(-10.196879 -2.4781406 -2.0165917)
(-10.690619 -1.8650753 -2.1092752)
(-12.801971 -3.0208543 -2.801937)
(-13.144018 -1.930269 -1.5533217)
(-16.545224 -3.9552068 -2.1502377)
(-14.984269 -1.8345936 -0.97001088)
(-19.23293 -4.5753568 -1.4565735)
(-15.963424 -1.6832801 -0.55756569)
(-20.739296 -4.8577946 -0.94662846)
(-16.266706 -1.5022577 -0.29240839)
(-21.387252 -4.8942068 -0.60586471)
(-16.109314 -1.291941 -0.12819706)
(-21.45465 -4.7974702 -0.39235658)
(-10.096194 -1.2355377 -0.18768037)
(-11.370081 -1.9262769 -0.9305855)
(-11.839052 -1.3265805 -1.2917847)
(-14.509313 -2.5653236 -1.8232984)
(-14.426438 -1.356242 -0.8085405)
(-18.246292 -3.3555119 -1.1683096)
(-16.256675 -1.2604911 -0.26857425)
(-20.686483 -3.8216219 -0.48934235)
(-17.161651 -1.1141267 0.12266861)
(-21.914133 -3.9937947 0.0046674098)
(-17.372425 -0.9344679 0.38736538)
(-22.306195 -3.9643776 0.34641688)
(-17.115814 -0.71678683 0.56971536)
(-22.158857 -3.8217131 0.58324983)
(-10.915627 -0.12792727 1.0872826)
(-12.730068 -0.96234197 0.32562884)
(-13.010038 -0.31020261 -0.22145614)
(-16.49172 -1.5851895 -0.7171489)
(-15.838383 -0.30886694 0.11916785)
(-20.245015 -2.1893573 -0.14024638)
(-17.736052 -0.2176693 0.57609254)
(-22.387088 -2.5749449 0.46151044)
(-18.607443 -0.074843117 0.93125004)
(-23.247057 -2.6549169 0.92584149)
(-18.736311 0.1046899 1.1938403)
(-23.303198 -2.5712244 1.2711559)
(-18.368145 0.33410096 1.4033697)
(-22.885103 -2.3885552 1.5436555)
(-11.819789 1.7952644 2.6964564)
(-14.211209 0.72826 1.8902066)
(-13.678413 1.6555186 1.4692524)
(-18.086662 0.31481629 0.71508756)
(-16.378583 1.7856938 1.6234354)
(-21.563999 -0.0033314781 1.113289)
(-18.177839 1.958592 1.9445939)
(-23.140711 -0.16582106 1.6385647)
(-18.928405 2.1401925 2.2301602)
(-23.483037 -0.12734588 2.0777616)
(-18.914594 2.3621728 2.4786312)
(-23.110715 0.036964665 2.4427356)
(-18.379287 2.6259206 2.7123781)
(-22.311022 0.2734904 2.7744488)
(-12.840042 4.314104 3.9455278)
(-15.295219 3.003166 3.2225983)
(-13.149907 4.8082229 3.1694409)
(-17.697071 3.2162334 2.0320339)
(-14.64007 5.2685065 3.2079322)
(-20.128535 3.3605175 2.1226804)
(-15.611955 5.6678534 3.3943147)
(-21.194791 3.4866578 2.4870486)
(-15.782547 6.0331219 3.623648)
(-21.230697 3.6852923 2.8814395)
(-15.288306 6.4105961 3.872506)
(-20.623104 3.9575413 3.2634361)
(-14.251956 6.8034584 4.1577044)
(-19.574523 4.2678264 3.6510777)
(-14.215815 6.5688239 4.3094743)
(-16.325559 5.2257278 3.8467957)
(-12.307472 8.243624 3.9613896)
(-16.213784 6.4887766 2.8782969)
(-11.808185 9.3893812 4.024249)
(-16.897581 7.2419406 2.820937)
(-11.252004 10.261384 4.2097747)
(-17.004238 7.7819973 3.0515295)
(-10.310481 10.907274 4.4728927)
(-16.49451 8.2604603 3.3839632)
(-8.8864196 11.51072 4.9315455)
(-15.433347 8.7240948 3.8289595)
(-7.1963244 12.074712 5.5176361)
(-13.730827 9.2613584 4.5194923)
(-16.392194 7.9793524 4.0645921)
(-18.216562 6.7720784 3.9085093)
(-13.186137 10.556517 3.8392692)
(-16.129305 9.0503352 3.1576938)
(-11.60579 12.117018 3.7776268)
(-15.215996 10.374695 3.0379372)
(-10.56698 13.103091 3.8350456)
(-14.366 11.257029 3.2013945)
(-9.7506319 13.731011 3.946781)
(-13.507656 11.875978 3.4571086)
(-9.0888336 14.15711 4.1084298)
(-12.652734 12.31111 3.7693684)
(-8.5196206 14.452502 4.3154428)
(-11.806406 12.661414 4.1706332)
(-19.236466 8.6616988 3.6185728)
(-20.851193 7.5935308 3.6654413)
(-15.824591 11.737309 3.4571444)
(-18.186651 10.44807 3.0531026)
(-14.112629 13.382318 3.2277801)
(-16.98331 11.867861 2.7798907)
(-13.122327 14.36492 3.1187368)
(-16.170156 12.730831 2.7361258)
(-12.49489 14.957357 3.1008711)
(-15.549328 13.274348 2.7848821)
(-12.059046 15.324238 3.1628297)
(-15.043096 13.633129 2.9072492)
(-11.736909 15.552452 3.2945096)
(-14.6212 13.874858 3.099432)
(-22.132156 8.923737 3.1249236)
(-23.627999 7.9794354 3.2966493)
(-19.166285 12.384781 3.0620626)
(-21.172721 11.284266 2.8330828)
(-17.734042 14.016354 2.8070055)
(-20.164389 12.692805 2.4849903)
(-16.924468 14.939941 2.6481968)
(-19.517892 13.473307 2.3314028)
(-16.437222 15.474469 2.5854475)
(-19.048474 13.925185 2.2811616)
(-16.11023 15.794261 2.6047233)
(-18.67401 14.205655 2.31905)
(-15.867919 15.983951 2.6937083)
(-18.359325 14.379296 2.4325887)
(-24.700728 8.9489285 2.6283105)
(-26.106226 8.1069364 2.8624755)
(-22.468562 12.7694 2.6511035)
(-24.221964 11.834852 2.5449492)
(-21.589009 14.364678 2.409159)
(-23.617635 13.204247 2.179134)
(-21.088887 15.237086 2.2275785)
(-23.180784 13.913156 1.9602972)
(-20.769437 15.746834 2.1400776)
(-22.832433 14.310885 1.8488023)
(-20.520031 16.058416 2.13224)
(-22.532194 14.554665 1.8344289)
(-20.291436 16.248889 2.1840799)
(-22.25829 14.702822 1.8970026)
(-26.684732 8.8486723 2.1601084)
(-28.003667 8.0981813 2.4157758)
(-25.183786 13.070002 2.2595962)
(-26.808014 12.280569 2.2402697)
(-24.915902 14.654049 2.0537379)
(-26.704574 13.629184 1.9066735)
(-24.775266 15.478559 1.8483247)
(-26.531817 14.278712 1.6572147)
(-24.644522 15.98023 1.7200553)
(-26.32637 14.648634 1.5020259)
(-24.457575 16.311081 1.6728191)
(-26.093465 14.88672 1.450446)
(-24.194913 16.533348 1.6777492)
(-25.830161 15.039076 1.4711013)
(-27.963748 8.6890875 1.7348051)
(-29.182217 8.0260182 1.9827642)
(-27.055899 13.393179 1.8989672)
(-28.674687 12.737488 1.9389973)
(-27.255724 15.046037 1.7498811)
(-29.022646 14.128547 1.6716972)
(-27.356525 15.851722 1.5268912)
(-29.07735 14.7426 1.4129354)
(-27.337964 16.361719 1.3348467)
(-28.990656 15.10262 1.2048365)
(-27.159246 16.732165 1.2203577)
(-28.800581 15.360194 1.0983814)
(-26.816807 17.007677 1.159036)
(-28.514677 15.543909 1.0630317)
(-28.472741 8.4793735 1.3552684)
(-29.542034 7.9046685 1.5718548)
(-28.043628 13.782085 1.5689703)
(-29.757039 13.267217 1.6484391)
(-28.525583 15.62407 1.4938548)
(-30.434846 14.802745 1.4681662)
(-28.666582 16.473499 1.2770824)
(-30.593154 15.437915 1.2230525)
(-28.611738 17.015601 1.0210602)
(-30.522275 15.812203 0.95744413)
(-28.348765 17.436715 0.81983087)
(-30.313391 16.106627 0.77593649)
(-27.881552 17.771813 0.67884024)
(-29.977022 16.339552 0.66989974)
(-28.04557 8.1256186 1.0067904)
(-28.873545 7.6255085 1.183884)
(-28.066678 14.193382 1.258511)
(-29.965263 13.849129 1.3585032)
(-28.747652 16.385269 1.2680076)
(-30.922653 15.671875 1.2826876)
(-28.78264 17.348055 1.0841748)
(-31.095964 16.391922 1.072679)
(-28.566878 17.94237 0.78276069)
(-30.975225 16.799504 0.76895308)
(-28.145915 18.406845 0.49451003)
(-30.64453 17.136051 0.49573447)
(-27.5329 18.786179 0.2811245)
(-30.181193 17.41938 0.3012431)
(-26.259329 7.3309978 0.6851715)
(-26.686817 6.8517895 0.81307727)
(-26.760681 14.360347 0.95279177)
(-28.806506 14.239083 1.0553466)
(-27.76598 17.180109 1.0509103)
(-30.337213 16.627709 1.0916112)
(-27.737819 18.337718 0.92898459)
(-30.512793 17.509373 0.95240149)
(-27.333612 18.983663 0.61852338)
(-30.250249 17.960822 0.63589961)
(-26.733013 19.457369 0.27210972)
(-29.80784 18.311069 0.29278571)
(-25.983871 19.842561 0.01359506)
(-29.222986 18.614379 0.029712613)
(-22.281704 5.5091985 0.39220337)
(-22.179073 4.999516 0.46103606)
(-23.148843 13.350989 0.63012409)
(-25.066968 13.490883 0.70695325)
(-24.777312 17.268508 0.80806226)
(-27.57844 16.989226 0.86287953)
(-25.080875 18.876922 0.78751619)
(-28.212515 18.304112 0.83232275)
(-24.674237 19.633171 0.5215013)
(-28.004039 18.871065 0.54767551)
(-23.967139 20.09012 0.16485846)
(-27.457103 19.2126 0.17533775)
(-23.135717 20.440617 -0.10153478)
(-26.740162 19.487602 -0.11545526)
(-14.915696 2.2117841 0.15962772)
(-14.452919 1.7789038 0.17504959)
(-15.686523 9.2223395 0.28820904)
(-17.062906 9.6457929 0.32873218)
(-17.755677 14.208291 0.48979657)
(-20.200889 14.449543 0.54546314)
(-18.952278 16.854985 0.56486496)
(-21.928377 16.881532 0.61750533)
(-19.127791 18.023379 0.38457546)
(-22.371014 17.86885 0.43026564)
(-18.6286 18.487047 0.0947271)
(-22.004269 18.219872 0.12283485)
(-17.878935 18.736377 -0.12047885)
(-21.304134 18.403214 -0.11683706)
(-4.8805976 -0.44191188 -0.12650458)
(-4.6665417 -0.60073578 -0.12682453)
(-5.0597585 2.0021055 -0.065439148)
(-5.5709318 2.2895806 -0.047257704)
(-5.9372697 4.6032306 0.019257923)
(-7.0261458 5.1302155 0.050198099)
(-6.9862766 7.1078003 0.14711142)
(-8.5426823 7.8452772 0.18515939)
(-7.7109704 8.6495504 0.1752775)
(-9.5556198 9.4628715 0.20779301)
(-7.8004107 9.1920246 0.082280627)
(-9.7934321 10.032833 0.10304884)
(-7.5372801 9.3089095 -0.022847369)
(-9.588326 10.140913 -0.020013938)
(-4.1017557 3.1481112 0.29199051)
(-5.6942843 0.70557792 0.12938539)
(-3.7660808 2.8646702 0.32391083)
(-5.6121375 0.37694953 0.15794378)
(-3.5149387 2.62118 0.3048241)
(-5.6519615 0.040509298 0.15894639)
(-3.2843443 2.3616571 0.23721828)
(-5.7081852 -0.3446472 0.11761304)
(-3.0187044 2.0938316 0.11671155)
(-5.5821225 -0.79064087 0.017254076)
(-2.6054263 2.1561882 -0.026436112)
(-5.1179013 -0.98696697 -0.10778161)
(-10.032115 4.9331957 0.54241548)
(-12.753626 1.8209925 0.58154113)
(-8.9749368 5.0152764 0.6340763)
(-12.26252 1.6139413 0.66190774)
(-8.0326727 5.1754742 0.6550423)
(-11.960675 1.4378365 0.68714495)
(-7.0900998 5.3836251 0.54556612)
(-11.647357 1.258823 0.62390573)
(-5.9884599 5.6950974 0.33260976)
(-11.101916 1.0821606 0.37541994)
(-4.1945637 6.3519706 0.04443369)
(-9.9792769 1.1595182 -0.050897563)
(-16.371204 4.326203 0.63632317)
(-18.218654 1.9276087 0.72227385)
(-14.839501 4.6844745 0.68853083)
(-17.243451 2.0618363 0.78108854)
(-13.388865 5.1180576 0.67469205)
(-16.423345 2.2397344 0.79534735)
(-11.867743 5.6424111 0.5945037)
(-15.560174 2.4842006 0.72780458)
(-10.123363 6.3215127 0.45242401)
(-14.423011 2.839439 0.51145603)
(-7.3033638 7.2848486 0.25298421)
(-12.313887 3.4541251 0.042392973)
(-22.003798 3.3411856 0.44548707)
(-22.875125 1.5981887 0.60373836)
(-20.435977 3.7603157 0.44559963)
(-21.850695 1.8364696 0.59044631)
(-18.828069 4.2576786 0.42384368)
(-20.851364 2.1267479 0.5898422)
(-17.082135 4.8622568 0.37717996)
(-19.68771 2.5184731 0.57647601)
(-15.163766 5.6542429 0.32065134)
(-18.185165 3.0904838 0.48717958)
(-12.190786 6.9046403 0.27195422)
(-15.501398 4.028212 0.18522262)
(-25.747067 2.7165201 0.29379885)
(-25.696756 1.5242496 0.41118565)
(-24.636452 3.0183938 0.21274412)
(-25.110608 1.6796868 0.30815718)
(-23.335772 3.433577 0.12398261)
(-24.427054 1.9024255 0.23868856)
(-21.721384 4.0056303 0.038988404)
(-23.47521 2.2560076 0.19850626)
(-19.939195 4.7934757 -0.003605217)
(-22.096759 2.8490586 0.18203602)
(-17.549198 6.0975223 0.042239783)
(-19.554906 3.9167197 0.086483265)
(-26.780313 2.6208938 0.12108252)
(-26.034188 1.8520451 0.17736236)
(-26.222335 2.7965493 -0.021961751)
(-25.875614 1.9150252 -0.030925239)
(-25.567781 3.0461403 -0.18281999)
(-25.760727 2.0050014 -0.2098991)
(-24.643763 3.4383062 -0.36117863)
(-25.605034 2.1645039 -0.35037068)
(-23.426489 4.1023152 -0.48893248)
(-25.163105 2.5504025 -0.38235057)
(-21.902806 5.3611155 -0.4206926)
(-23.502491 3.5719318 -0.29709491)
(-25.357367 2.9214873 -0.093273889)
(-24.207407 2.5457191 -0.1010968)
(-25.182555 3.0039458 -0.25462166)
(-24.422394 2.5103767 -0.34924185)
(-25.06862 3.1191135 -0.4600587)
(-24.814522 2.4711796 -0.59874598)
(-24.948768 3.3148951 -0.74977848)
(-25.409145 2.4394829 -0.88069604)
(-24.75424 3.7165187 -1.0739483)
(-25.964764 2.5349734 -1.1183922)
(-24.406501 4.7502732 -1.104194)
(-25.999252 3.2439708 -1.0142065)
(-22.316887 3.5651193 -0.35147359)
(-21.100059 3.558988 -0.4239654)
(-22.300598 3.5990397 -0.51411519)
(-21.401517 3.4977143 -0.66155388)
(-22.450193 3.6361343 -0.73050303)
(-22.029259 3.396993 -0.9385356)
(-22.82975 3.693269 -1.0680752)
(-23.256258 3.2156417 -1.3316162)
(-23.570463 3.8316831 -1.5785681)
(-24.948557 3.0273606 -1.744464)
(-24.604843 4.4583812 -1.9476233)
(-26.021954 3.2730744 -1.8628841)
(-18.742166 4.4275975 -0.57291868)
(-17.824669 4.702325 -0.81944188)
(-18.723879 4.4578075 -0.72219458)
(-17.984487 4.6726153 -1.016319)
(-18.900859 4.4750703 -0.92493702)
(-18.436541 4.5976422 -1.2383127)
(-19.386694 4.4845492 -1.2701281)
(-19.545171 4.4158237 -1.5972384)
(-20.485659 4.4892222 -1.8781733)
(-21.743379 4.0803307 -2.1359914)
(-22.321887 4.7187334 -2.5422936)
(-24.127705 3.9588946 -2.5654779)
(-15.588008 5.4518882 -0.80637371)
(-15.159096 5.8004295 -1.3469718)
(-15.455589 5.5197633 -0.94073782)
(-15.104922 5.828402 -1.5166869)
(-15.513668 5.5633575 -1.1175994)
(-15.272501 5.8151073 -1.694336)
(-15.823701 5.5901187 -1.4107914)
(-15.824507 5.7369514 -1.9572806)
(-16.672363 5.585479 -1.9654758)
(-17.293656 5.509601 -2.4270006)
(-18.46074 5.6139292 -2.8252892)
(-19.78823 5.2639503 -3.0832829)
(-13.153457 6.5487991 -1.1825279)
(-13.22767 6.7408512 -2.0656394)
(-12.818471 6.6723547 -1.3024587)
(-12.918703 6.8382086 -2.2205303)
(-12.695066 6.7576136 -1.4394852)
(-12.80983 6.8939914 -2.3685768)
(-12.737943 6.8361713 -1.6595925)
(-12.89853 6.9196428 -2.5723105)
(-13.098371 6.9040412 -2.0750439)
(-13.414031 6.8843993 -2.9164013)
(-14.112891 6.9465088 -2.8326308)
(-14.768774 6.7925837 -3.5273947)
(-11.301359 7.492448 -1.5785749)
(-11.797091 7.3714858 -2.7935964)
(-10.502543 7.7337989 -1.7273778)
(-11.067708 7.5762428 -3.0277926)
(-10.077344 7.8866498 -1.8607718)
(-10.639203 7.7115215 -3.2094788)
(-9.8268635 8.01471 -2.0245801)
(-10.355285 7.8212463 -3.3958525)
(-9.7190065 8.1538213 -2.2967105)
(-10.210228 7.9188385 -3.6579479)
(-9.8450333 8.3030326 -2.8084458)
(-10.355295 8.0269278 -4.1103378)
(-9.673643 7.6996156 -1.7435982)
(-10.807113 7.2827573 -3.122881)
(-8.483018 8.0452517 -1.9506536)
(-9.6386003 7.6084002 -3.4873389)
(-7.7114468 8.2860901 -2.1223561)
(-8.7560212 7.8708452 -3.8090769)
(-7.1439662 8.4856795 -2.294392)
(-7.9767264 8.1156093 -4.1399394)
(-6.6673777 8.6878095 -2.5029225)
(-7.29074 8.3436519 -4.4775458)
(-6.1710121 8.916885 -2.7844858)
(-6.636547 8.5843346 -4.863528)
(-9.6703983 6.4726429 -1.8962485)
(-11.252611 6.0060339 -3.3522763)
(-7.825901 6.9781611 -2.2172298)
(-9.2603263 6.5302978 -3.9540054)
(-6.4156134 7.3743446 -2.4921383)
(-7.5597056 7.0010029 -4.5101629)
(-5.1782385 7.7308762 -2.7642681)
(-5.897216 7.4730936 -5.0948178)
(-4.0566425 8.0641212 -3.0278773)
(-4.3068833 7.9289584 -5.6858011)
(-2.9008136 8.411757 -3.2543912)
(-2.768962 8.3633602 -6.2742951)
(-12.332076 3.7607498 -1.6493662)
(-15.118119 3.5746291 -3.1032492)
(-10.07563 4.3995222 -2.0357952)
(-12.84152 4.260335 -3.7976874)
(-7.6019911 5.0779828 -2.5214053)
(-10.246374 5.0359132 -4.6297925)
(-4.9027062 5.8248696 -3.1186131)
(-7.2958508 5.9126942 -5.6080179)
(-2.1020578 6.6090097 -3.8031566)
(-4.1958912 6.7970377 -6.6448209)
(0.43150022 7.3418418 -4.4171773)
(-1.3185388 7.5189588 -7.4942595)
(-13.997582 1.3117337 -1.2504996)
(-18.344816 0.0257096 -2.6413893)
(-12.725125 1.7223333 -1.4072825)
(-17.193702 0.45370069 -2.9474215)
(-10.685457 2.3201557 -1.7524139)
(-15.179104 1.1350225 -3.564648)
(-7.6900337 3.1609792 -2.3515992)
(-12.036289 2.1772852 -4.5773802)
(-3.7088212 4.2730346 -3.2341363)
(-7.9451373 3.6374426 -5.9080609)
(0.63674142 5.5083407 -4.1626159)
(-3.7923985 5.2077996 -7.0580574)
(-14.750441 -0.30315025 -0.87637165)
(-19.957275 -2.924594 -2.0454886)
(-13.789192 0.044455772 -0.9184638)
(-19.283207 -2.6300221 -2.1377649)
(-12.189974 0.54036512 -1.081738)
(-18.15712 -2.2191114 -2.3657343)
(-9.5430754 1.3080418 -1.4440523)
(-15.8891 -1.4504504 -2.9099458)
(-5.5801854 2.4444649 -2.0648275)
(-11.92764 -0.06971711 -3.8898126)
(-0.57374851 3.8780092 -2.7882604)
(-6.6075832 2.0823398 -4.9703307)
(-14.947394 -0.94902898 -0.44866156)
(-20.541714 -4.396887 -1.2188317)