/*--------------------------------*- C++ -*----------------------------------*\
| =========                 |                                                 |
| \\      /  F ield         | OpenFOAM: The Open Source CFD Toolbox           |
|  \\    /   O peration     | Version:  2212                                  |
|   \\  /    A nd           | Website:  www.openfoam.com                      |
|    \\/     M anipulation  |                                                 |
\*---------------------------------------------------------------------------*/
FoamFile
{
    version     2.0;
    format      ascii;
    arch        "LSB;label=32;scalar=64";
    class       volScalarField;
    location    "0.06";
    object      alphat;
}
// * * * * * * * * * * * * * * * * * * * * * * * * * * * * * * * * * * * * * //

dimensions      [1 -1 -1 0 0 0 0];

internalField   nonuniform List<scalar> 
3072
(
0.000277481
0.000597769
0.000642858
0.000642399
0.00063772
0.000611568
0.000596418
0.000672365
0.00116788
0.00158545
0.00172654
0.00179082
0.000449061
0.0012981
0.0018432
0.00206603
0.00177073
0.00102985
0.000923451
0.00163828
0.00200547
0.00321803
0.00439947
0.00613814
0.000577061
0.0021415
0.00289059
0.00301798
0.00261279
0.00241484
0.00239814
0.00341187
0.00519699
0.00763228
0.0102037
0.0126916
0.000730661
0.00337185
0.00367624
0.00319772
0.00303353
0.00305699
0.00407311
0.00660566
0.00935702
0.0124655
0.0154099
0.0180158
0.000864098
0.00400657
0.00404796
0.00366498
0.00366299
0.00449404
0.00683505
0.0101057
0.0132683
0.0164687
0.0194184
0.0220204
0.00099088
0.00454001
0.00460384
0.00435317
0.00485917
0.00686133
0.010021
0.0132235
0.0163538
0.0194315
0.0222649
0.024798
0.00110234
0.00514754
0.00559435
0.00569023
0.00700977
0.00983316
0.0128456
0.0158122
0.0187295
0.0215105
0.0241403
0.0265546
0.00123829
0.00650132
0.00773128
0.00878212
0.0109519
0.013418
0.0159183
0.0184398
0.0209743
0.0233896
0.0256653
0.027766
0.0014008
0.00882262
0.0115976
0.0139149
0.0159833
0.0178616
0.0196799
0.0215
0.0233549
0.0251665
0.0269184
0.0285922
0.00162596
0.0106273
0.0147508
0.0175888
0.0196438
0.0212184
0.0225721
0.0238387
0.0250691
0.026295
0.0275442
0.0288316
0.00183977
0.00992197
0.0159198
0.0193777
0.021658
0.0230643
0.0243417
0.0252534
0.0260836
0.0269134
0.0277892
0.0287443
0.00307138
0.0093528
0.0167704
0.0207918
0.0227694
0.0245173
0.0256209
0.0264077
0.0270372
0.0276304
0.0282578
0.0289701
0.00184053
0.00186506
0.00187957
0.00188225
0.00188373
0.00185489
0.00181101
0.00173575
0.00163219
0.00149066
0.00128135
0.000609541
0.00785719
0.00943585
0.01054
0.0110122
0.0108023
0.0102334
0.00925267
0.00790408
0.00611572
0.00373796
0.00182711
0.00105964
0.0148342
0.0164701
0.0174948
0.017893
0.0176762
0.0168949
0.0154953
0.0134587
0.0107455
0.00736147
0.00327947
0.00141279
0.0202226
0.0219524
0.023155
0.0237942
0.0238227
0.0231783
0.0217679
0.0194669
0.0160745
0.0116063
0.00578386
0.00172683
0.0242599
0.0260982
0.0275
0.0284239
0.028799
0.0284994
0.0273479
0.0250962
0.0213127
0.0158624
0.00853199
0.00204053
0.0270263
0.0289303
0.0304853
0.0316532
0.0323658
0.0325135
0.031885
0.0300986
0.0265749
0.0205062
0.0118569
0.00236327
0.0287148
0.0306153
0.0322494
0.0335978
0.0346328
0.035285
0.0353273
0.0342745
0.0313083
0.0252329
0.0154025
0.00270329
0.0296881
0.0314441
0.0330291
0.0344453
0.0357221
0.0368407
0.0376306
0.0375838
0.0355911
0.0298072
0.0188714
0.00307988
0.0301506
0.0315996
0.0330285
0.0344392
0.0358439
0.037294
0.0387152
0.0397167
0.0390718
0.0341354
0.0220772
0.00349932
0.0300951
0.0312843
0.0324969
0.0338793
0.0354063
0.0370652
0.0388772
0.040716
0.0415137
0.0382116
0.0258174
0.00394726
0.0298649
0.0311392
0.032201
0.0333133
0.0348436
0.0366312
0.0385842
0.0408029
0.0426886
0.0416469
0.0303053
0.00444354
0.0298795
0.0312253
0.0324474
0.0334244
0.0346803
0.0363958
0.0382402
0.0404283
0.0427079
0.0436238
0.0350344
0.00501858
0.000277483
0.000597772
0.00064286
0.0006424
0.000637722
0.000611569
0.000596419
0.000672367
0.00116788
0.00158545
0.00172654
0.00179082
0.000449063
0.0012981
0.00184319
0.00206602
0.00177072
0.00102984
0.000923455
0.00163829
0.00200547
0.00321805
0.0043995
0.00613817
0.000577063
0.0021415
0.00289058
0.00301797
0.00261277
0.00241483
0.00239815
0.00341189
0.00519703
0.00763233
0.0102037
0.0126917
0.000730665
0.00337186
0.00367624
0.00319771
0.00303353
0.00305701
0.00407316
0.00660571
0.00935709
0.0124655
0.01541
0.0180158
0.000864102
0.00400658
0.00404796
0.00366499
0.003663
0.00449408
0.00683513
0.0101058
0.0132684
0.0164688
0.0194185
0.0220205
0.000990883
0.00454002
0.00460386
0.00435319
0.00485921
0.00686143
0.0100211
0.0132236
0.0163539
0.0194316
0.022265
0.0247981
0.00110235
0.00514757
0.0055944
0.0056903
0.0070099
0.00983329
0.0128457
0.0158123
0.0187297
0.0215107
0.0241404
0.0265547
0.00123829
0.00650135
0.00773135
0.00878223
0.010952
0.0134182
0.0159184
0.0184399
0.0209745
0.0233897
0.0256654
0.0277662
0.0014008
0.00882264
0.0115976
0.013915
0.0159834
0.0178617
0.01968
0.0215002
0.023355
0.0251666
0.0269185
0.0285923
0.00162596
0.0106274
0.0147508
0.0175889
0.0196438
0.0212185
0.0225722
0.0238388
0.0250692
0.0262951
0.0275443
0.0288317
0.00183977
0.00992197
0.0159198
0.0193777
0.021658
0.0230643
0.0243417
0.0252535
0.0260837
0.0269135
0.0277893
0.0287444
0.00307138
0.0093528
0.0167704
0.0207918
0.0227694
0.0245173
0.0256209
0.0264077
0.0270372
0.0276304
0.0282579
0.0289701
0.00184053
0.00186506
0.00187957
0.00188225
0.00188373
0.00185489
0.00181101
0.00173575
0.0016322
0.00149066
0.00128136
0.000609542
0.00785722
0.00943589
0.01054
0.0110123
0.0108023
0.0102334
0.0092527
0.0079041
0.00611574
0.00373797
0.00182712
0.00105964
0.0148342
0.0164702
0.0174949
0.0178931
0.0176762
0.016895
0.0154953
0.0134587
0.0107455
0.00736149
0.00327947
0.00141279
0.0202227
0.0219525
0.023155
0.0237943
0.0238227
0.0231783
0.0217679
0.0194669
0.0160745
0.0116063
0.00578387
0.00172683
0.02426
0.0260983
0.0275001
0.028424
0.0287991
0.0284994
0.027348
0.0250963
0.0213127
0.0158624
0.008532
0.00204053
0.0270265
0.0289304
0.0304854
0.0316533
0.0323659
0.0325136
0.0318851
0.0300987
0.026575
0.0205062
0.0118569
0.00236328
0.0287149
0.0306155
0.0322495
0.033598
0.0346329
0.0352851
0.0353274
0.0342746
0.0313084
0.0252329
0.0154025
0.00270329
0.0296883
0.0314442
0.0330292
0.0344454
0.0357223
0.0368409
0.0376307
0.0375839
0.0355912
0.0298072
0.0188714
0.00307988
0.0301507
0.0315997
0.0330286
0.0344394
0.035844
0.0372941
0.0387153
0.0397168
0.0390719
0.0341355
0.0220772
0.00349932
0.0300952
0.0312845
0.0324971
0.0338794
0.0354064
0.0370653
0.0388773
0.0407161
0.0415138
0.0382117
0.0258174
0.00394726
0.029865
0.0311393
0.0322012
0.0333134
0.0348437
0.0366313
0.0385844
0.040803
0.0426888
0.041647
0.0303053
0.00444354
0.0298795
0.0312254
0.0324475
0.0334245
0.0346804
0.0363959
0.0382403
0.0404284
0.042708
0.0436239
0.0350344
0.00501858
0.000277483
0.000597773
0.000642862
0.000642403
0.000637724
0.000611571
0.000596422
0.000672369
0.00116788
0.00158545
0.00172654
0.00179082
0.000449064
0.00129811
0.00184321
0.00206604
0.00177074
0.00102985
0.000923455
0.00163829
0.00200547
0.00321805
0.0043995
0.00613817
0.000577064
0.00214151
0.00289061
0.00301799
0.00261279
0.00241484
0.00239815
0.00341189
0.00519703
0.00763233
0.0102037
0.0126917
0.000730666
0.00337187
0.00367626
0.00319774
0.00303355
0.00305701
0.00407315
0.00660571
0.00935708
0.0124655
0.01541
0.0180158
0.000864103
0.0040066
0.00404799
0.00366501
0.00366301
0.00449408
0.00683512
0.0101058
0.0132684
0.0164688
0.0194185
0.0220205
0.000990885
0.00454003
0.00460388
0.00435321
0.00485921
0.00686142
0.0100211
0.0132236
0.0163539
0.0194316
0.022265
0.0247981
0.00110235
0.00514759
0.00559442
0.00569031
0.00700989
0.00983329
0.0128457
0.0158123
0.0187297
0.0215107
0.0241404
0.0265547
0.00123829
0.00650137
0.00773138
0.00878224
0.010952
0.0134182
0.0159184
0.0184399
0.0209745
0.0233897
0.0256654
0.0277662
0.0014008
0.00882267
0.0115977
0.013915
0.0159834
0.0178618
0.01968
0.0215002
0.0233551
0.0251666
0.0269185
0.0285923
0.00162596
0.0106274
0.0147509
0.0175889
0.0196438
0.0212185
0.0225722
0.0238388
0.0250692
0.0262951
0.0275443
0.0288317
0.00183977
0.00992198
0.0159198
0.0193777
0.021658
0.0230643
0.0243417
0.0252535
0.0260837
0.0269135
0.0277893
0.0287444
0.00307138
0.00935281
0.0167704
0.0207918
0.0227695
0.0245174
0.0256209
0.0264077
0.0270372
0.0276304
0.0282579
0.0289701
0.00184053
0.00186506
0.00187957
0.00188225
0.00188373
0.00185489
0.00181101
0.00173575
0.00163219
0.00149066
0.00128135
0.000609541
0.00785722
0.00943588
0.01054
0.0110123
0.0108023
0.0102334
0.00925269
0.0079041
0.00611573
0.00373796
0.00182711
0.00105964
0.0148342
0.0164701
0.0174949
0.0178931
0.0176762
0.016895
0.0154953
0.0134587
0.0107455
0.00736148
0.00327947
0.00141279
0.0202226
0.0219525
0.023155
0.0237943
0.0238227
0.0231783
0.0217679
0.0194669
0.0160745
0.0116063
0.00578386
0.00172683
0.02426
0.0260983
0.0275001
0.028424
0.0287991
0.0284994
0.027348
0.0250963
0.0213127
0.0158624
0.00853199
0.00204053
0.0270264
0.0289304
0.0304854
0.0316533
0.0323659
0.0325136
0.0318851
0.0300987
0.026575
0.0205062
0.0118569
0.00236327
0.0287149
0.0306155
0.0322495
0.0335979
0.0346329
0.0352851
0.0353274
0.0342746
0.0313083
0.0252329
0.0154025
0.00270329
0.0296883
0.0314442
0.0330292
0.0344454
0.0357222
0.0368408
0.0376307
0.0375839
0.0355911
0.0298072
0.0188714
0.00307988
0.0301507
0.0315997
0.0330286
0.0344394
0.035844
0.0372941
0.0387153
0.0397168
0.0390718
0.0341355
0.0220772
0.00349932
0.0300952
0.0312845
0.032497
0.0338794
0.0354064
0.0370653
0.0388773
0.0407161
0.0415137
0.0382117
0.0258174
0.00394726
0.029865
0.0311393
0.0322012
0.0333134
0.0348437
0.0366313
0.0385843
0.040803
0.0426887
0.041647
0.0303053
0.00444354
0.0298795
0.0312254
0.0324475
0.0334245
0.0346804
0.0363959
0.0382403
0.0404284
0.042708
0.0436238
0.0350344
0.00501858
0.000277482
0.000597771
0.000642859
0.000642399
0.00063772
0.000611568
0.000596418
0.000672365
0.00116788
0.00158545
0.00172654
0.00179082
0.000449061
0.0012981
0.00184319
0.00206603
0.00177072
0.00102985
0.000923449
0.00163828
0.00200547
0.00321804
0.00439948
0.00613815
0.000577062
0.0021415
0.00289058
0.00301797
0.00261278
0.00241483
0.00239814
0.00341188
0.00519701
0.0076323
0.0102037
0.0126917
0.000730663
0.00337185
0.00367624
0.00319771
0.00303353
0.003057
0.00407313
0.00660568
0.00935704
0.0124655
0.01541
0.0180158
0.0008641
0.00400657
0.00404796
0.00366498
0.00366299
0.00449406
0.00683509
0.0101057
0.0132683
0.0164688
0.0194184
0.0220204
0.000990881
0.00454001
0.00460385
0.00435318
0.00485919
0.00686139
0.0100211
0.0132236
0.0163539
0.0194315
0.0222649
0.0247981
0.00110234
0.00514756
0.00559438
0.00569028
0.00700985
0.00983324
0.0128456
0.0158123
0.0187296
0.0215106
0.0241404
0.0265546
0.00123829
0.00650134
0.00773134
0.0087822
0.010952
0.0134181
0.0159184
0.0184399
0.0209744
0.0233897
0.0256654
0.0277661
0.0014008
0.00882264
0.0115976
0.013915
0.0159834
0.0178617
0.0196799
0.0215001
0.023355
0.0251666
0.0269185
0.0285923
0.00162596
0.0106273
0.0147508
0.0175889
0.0196438
0.0212185
0.0225722
0.0238387
0.0250692
0.0262951
0.0275442
0.0288317
0.00183977
0.00992196
0.0159198
0.0193777
0.021658
0.0230643
0.0243417
0.0252535
0.0260837
0.0269135
0.0277892
0.0287443
0.00307138
0.0093528
0.0167704
0.0207918
0.0227694
0.0245173
0.0256209
0.0264077
0.0270372
0.0276304
0.0282579
0.0289701
0.00184053
0.00186506
0.00187957
0.00188225
0.00188373
0.00185489
0.00181101
0.00173575
0.00163219
0.00149066
0.00128135
0.00060954
0.0078572
0.00943586
0.01054
0.0110123
0.0108023
0.0102334
0.00925268
0.00790409
0.00611573
0.00373796
0.00182711
0.00105964
0.0148342
0.0164701
0.0174948
0.017893
0.0176762
0.0168949
0.0154953
0.0134587
0.0107455
0.00736147
0.00327947
0.00141279
0.0202226
0.0219525
0.023155
0.0237942
0.0238227
0.0231783
0.0217679
0.0194669
0.0160745
0.0116063
0.00578386
0.00172683
0.02426
0.0260982
0.0275001
0.0284239
0.0287991
0.0284994
0.027348
0.0250962
0.0213127
0.0158624
0.00853199
0.00204053
0.0270264
0.0289303
0.0304854
0.0316533
0.0323659
0.0325136
0.031885
0.0300986
0.0265749
0.0205062
0.0118569
0.00236327
0.0287149
0.0306154
0.0322495
0.0335979
0.0346328
0.0352851
0.0353273
0.0342746
0.0313083
0.0252329
0.0154025
0.00270329
0.0296882
0.0314442
0.0330292
0.0344453
0.0357222
0.0368408
0.0376307
0.0375839
0.0355911
0.0298072
0.0188714
0.00307988
0.0301507
0.0315996
0.0330286
0.0344393
0.035844
0.0372941
0.0387152
0.0397167
0.0390718
0.0341354
0.0220772
0.00349932
0.0300951
0.0312844
0.032497
0.0338793
0.0354063
0.0370652
0.0388772
0.040716
0.0415137
0.0382117
0.0258174
0.00394725
0.029865
0.0311393
0.0322011
0.0333134
0.0348437
0.0366313
0.0385843
0.0408029
0.0426887
0.0416469
0.0303053
0.00444354
0.0298795
0.0312254
0.0324474
0.0334245
0.0346804
0.0363958
0.0382403
0.0404283
0.0427079
0.0436238
0.0350344
0.00501858
0.0185215
0.0192134
0.0209384
0.0227708
0.0243698
0.0258568
0.0268398
0.0275576
0.0280969
0.0285873
0.0290921
0.0296647
0.0299118
0.0272727
0.0264273
0.026513
0.027037
0.0275687
0.0280818
0.0287404
0.0293341
0.0298111
0.0302762
0.030791
0.037769
0.0347658
0.0325878
0.0313003
0.0306806
0.0304246
0.0305132
0.0307041
0.0309165
0.0311736
0.0316658
0.0322584
0.0401351
0.0380587
0.0361581
0.0345822
0.0335591
0.0329429
0.0326709
0.0325812
0.0327913
0.0330648
0.0334588
0.0340664
0.0305015
0.03183
0.0330981
0.0340901
0.0352237
0.0366698
0.0382121
0.0400409
0.0422265
0.0448135
0.0450062
0.0207932
0.0317408
0.0329957
0.034154
0.0352095
0.0363274
0.0373464
0.0384894
0.0397843
0.0414737
0.0438885
0.0481104
0.0348216
0.033419
0.0343975
0.0354078
0.0363128
0.037209
0.037987
0.0389042
0.0398286
0.0409418
0.0426116
0.0464912
0.0415311
0.0352883
0.0361466
0.0369451
0.0376746
0.0382484
0.0388302
0.03949
0.0400829
0.040825
0.0416834
0.0437661
0.0425229
0.0185215
0.0192134
0.0209384
0.0227709
0.0243698
0.0258568
0.0268398
0.0275577
0.0280969
0.0285873
0.0290921
0.0296648
0.0299118
0.0272729
0.0264274
0.026513
0.0270371
0.0275687
0.0280818
0.0287404
0.0293342
0.0298111
0.0302762
0.030791
0.0377691
0.0347659
0.0325879
0.0313004
0.0306807
0.0304246
0.0305132
0.0307042
0.0309165
0.0311736
0.0316658
0.0322585
0.0401353
0.0380589
0.0361582
0.0345823
0.0335591
0.032943
0.032671
0.0325812
0.0327913
0.0330648
0.0334588
0.0340664
0.0305015
0.0318301
0.0330982
0.0340902
0.0352238
0.0366699
0.0382121
0.040041
0.0422266
0.0448136
0.0450063
0.0207932
0.0317408
0.0329957
0.034154
0.0352095
0.0363275
0.0373464
0.0384895
0.0397843
0.0414738
0.0438886
0.0481105
0.0348217
0.033419
0.0343976
0.0354079
0.0363129
0.037209
0.037987
0.0389043
0.0398286
0.0409418
0.0426117
0.0464913
0.0415311
0.0352883
0.0361466
0.0369452
0.0376746
0.0382484
0.0388302
0.03949
0.0400829
0.0408251
0.0416834
0.0437661
0.0425229
0.0185215
0.0192134
0.0209384
0.0227709
0.0243698
0.0258568
0.0268398
0.0275577
0.0280969
0.0285873
0.0290921
0.0296648
0.0299118
0.0272729
0.0264274
0.0265131
0.0270371
0.0275687
0.0280818
0.0287404
0.0293342
0.0298111
0.0302762
0.030791
0.0377692
0.034766
0.032588
0.0313004
0.0306807
0.0304247
0.0305132
0.0307042
0.0309165
0.0311736
0.0316658
0.0322585
0.0401353
0.0380589
0.0361583
0.0345823
0.0335592
0.032943
0.032671
0.0325812
0.0327913
0.0330649
0.0334588
0.0340664
0.0305015
0.0318301
0.0330982
0.0340902
0.0352238
0.0366699
0.0382121
0.040041
0.0422265
0.0448136
0.0450062
0.0207932
0.0317408
0.0329957
0.034154
0.0352095
0.0363275
0.0373464
0.0384895
0.0397843
0.0414737
0.0438886
0.0481104
0.0348216
0.033419
0.0343976
0.0354079
0.0363128
0.037209
0.037987
0.0389042
0.0398286
0.0409418
0.0426117
0.0464912
0.0415311
0.0352883
0.0361466
0.0369451
0.0376746
0.0382484
0.0388302
0.03949
0.0400829
0.040825
0.0416834
0.0437661
0.0425229
0.0185215
0.0192134
0.0209384
0.0227709
0.0243698
0.0258568
0.0268398
0.0275577
0.0280969
0.0285873
0.0290921
0.0296648
0.0299118
0.0272729
0.0264274
0.026513
0.0270371
0.0275687
0.0280818
0.0287404
0.0293342
0.0298111
0.0302762
0.030791
0.0377691
0.0347659
0.032588
0.0313004
0.0306807
0.0304246
0.0305132
0.0307042
0.0309165
0.0311736
0.0316658
0.0322585
0.0401353
0.0380589
0.0361582
0.0345823
0.0335592
0.032943
0.032671
0.0325812
0.0327913
0.0330648
0.0334588
0.0340664
0.0305015
0.03183
0.0330981
0.0340901
0.0352237
0.0366698
0.0382121
0.0400409
0.0422265
0.0448135
0.0450062
0.0207932
0.0317408
0.0329957
0.034154
0.0352095
0.0363274
0.0373464
0.0384894
0.0397843
0.0414737
0.0438885
0.0481104
0.0348215
0.033419
0.0343975
0.0354078
0.0363128
0.037209
0.0379869
0.0389042
0.0398285
0.0409417
0.0426116
0.0464912
0.041531
0.0352882
0.0361466
0.0369451
0.0376746
0.0382484
0.0388302
0.0394899
0.0400828
0.040825
0.0416834
0.0437661
0.0425228
0.0373646
0.0360195
0.0348936
0.0341493
0.0337312
0.0335716
0.03351
0.033586
0.0339471
0.0344312
0.0352626
0.0365278
0.0355444
0.0346821
0.0339884
0.0335888
0.0333433
0.0331138
0.0328322
0.0326898
0.0326079
0.032653
0.0331192
0.0343559
0.0337844
0.0331163
0.0325892
0.0321734
0.03161
0.0309024
0.0301729
0.0293142
0.028321
0.027328
0.0267103
0.027336
0.0316087
0.031013
0.03026
0.0294383
0.0283532
0.0271048
0.0256191
0.0238093
0.0217154
0.0194924
0.0175207
0.0163902
0.0380986
0.0391263
0.0392075
0.0394818
0.0396715
0.0399026
0.0401232
0.0403107
0.0405023
0.0406997
0.0402217
0.0391517
0.0363508
0.0392932
0.0390989
0.0391603
0.0392157
0.0392703
0.0392991
0.0392621
0.0390406
0.0385535
0.0379357
0.0368542
0.0303454
0.0372296
0.0377657
0.0378058
0.0378301
0.0378234
0.0377548
0.0374401
0.0369878
0.0365157
0.0358877
0.0347541
0.0174531
0.0337449
0.0358254
0.0359203
0.0359403
0.0358202
0.0355482
0.0351279
0.0347831
0.0343072
0.033531
0.0324605
0.0373647
0.0360196
0.0348936
0.0341493
0.0337312
0.0335717
0.03351
0.033586
0.0339471
0.0344312
0.0352626
0.0365278
0.0355445
0.0346822
0.0339885
0.0335889
0.0333434
0.0331138
0.0328322
0.0326898
0.0326079
0.0326531
0.0331192
0.0343559
0.0337844
0.0331163
0.0325892
0.0321734
0.03161
0.0309024
0.0301729
0.0293142
0.028321
0.027328
0.0267103
0.027336
0.0316087
0.031013
0.03026
0.0294383
0.0283532
0.0271048
0.0256191
0.0238093
0.0217154
0.0194924
0.0175207
0.0163903
0.0380986
0.0391263
0.0392076
0.0394818
0.0396715
0.0399026
0.0401232
0.0403108
0.0405024
0.0406998
0.0402217
0.0391517
0.0363508
0.0392933
0.0390989
0.0391603
0.0392157
0.0392703
0.0392991
0.0392621
0.0390407
0.0385535
0.0379357
0.0368543
0.0303454
0.0372296
0.0377657
0.0378059
0.0378301
0.0378234
0.0377548
0.0374401
0.0369878
0.0365158
0.0358877
0.0347541
0.0174531
0.0337449
0.0358255
0.0359204
0.0359403
0.0358202
0.0355482
0.0351279
0.0347831
0.0343072
0.033531
0.0324605
0.0373648
0.0360196
0.0348936
0.0341494
0.0337312
0.0335717
0.03351
0.033586
0.0339471
0.0344312
0.0352626
0.0365278
0.0355445
0.0346822
0.0339885
0.0335889
0.0333434
0.0331138
0.0328322
0.0326898
0.0326079
0.032653
0.0331192
0.0343559
0.0337844
0.0331164
0.0325892
0.0321734
0.03161
0.0309024
0.0301729
0.0293142
0.028321
0.027328
0.0267103
0.027336
0.0316087
0.031013
0.03026
0.0294383
0.0283532
0.0271048
0.0256191
0.0238093
0.0217154
0.0194924
0.0175207
0.0163903
0.0380986
0.0391263
0.0392075
0.0394818
0.0396715
0.0399025
0.0401232
0.0403107
0.0405023
0.0406997
0.0402217
0.0391517
0.0363508
0.0392932
0.0390989
0.0391603
0.0392157
0.0392703
0.0392991
0.0392621
0.0390406
0.0385535
0.0379357
0.0368542
0.0303454
0.0372295
0.0377657
0.0378058
0.0378301
0.0378234
0.0377548
0.0374401
0.0369878
0.0365157
0.0358877
0.0347541
0.0174531
0.0337449
0.0358254
0.0359203
0.0359402
0.0358201
0.0355481
0.0351279
0.034783
0.0343071
0.033531
0.0324605
0.0373647
0.0360196
0.0348936
0.0341493
0.0337312
0.0335717
0.03351
0.033586
0.0339471
0.0344312
0.0352625
0.0365278
0.0355445
0.0346822
0.0339885
0.0335888
0.0333434
0.0331138
0.0328321
0.0326898
0.0326079
0.032653
0.0331191
0.0343558
0.0337844
0.0331163
0.0325892
0.0321734
0.03161
0.0309024
0.0301729
0.0293142
0.028321
0.0273279
0.0267103
0.027336
0.0316087
0.031013
0.03026
0.0294383
0.0283532
0.0271048
0.025619
0.0238092
0.0217154
0.0194924
0.0175207
0.0163902
0.0380986
0.0391263
0.0392075
0.0394818
0.0396715
0.0399025
0.0401231
0.0403107
0.0405023
0.0406997
0.0402216
0.0391516
0.0363508
0.0392932
0.0390988
0.0391602
0.0392157
0.0392702
0.039299
0.0392621
0.0390406
0.0385534
0.0379356
0.0368541
0.0303453
0.0372295
0.0377657
0.0378058
0.0378301
0.0378234
0.0377548
0.03744
0.0369878
0.0365157
0.0358876
0.034754
0.0174531
0.0337449
0.0358254
0.0359203
0.0359402
0.0358201
0.0355481
0.0351279
0.034783
0.0343071
0.0335309
0.0324604
0.0288312
0.0279558
0.0268094
0.0255255
0.0239513
0.0220861
0.0198332
0.0171402
0.0140141
0.0105531
0.00644581
0.00333619
0.0252069
0.0239705
0.0224656
0.0207397
0.0186736
0.0162563
0.0134188
0.0101699
0.00648124
0.00314912
0.00145517
0.00141586
0.0208294
0.0192292
0.0173404
0.0151635
0.0126127
0.00968982
0.00624747
0.00281466
0.000882094
0.000448935
0.00047706
0.000605473
0.0157574
0.0137763
0.0114866
0.00885161
0.00571441
0.0025329
0.000629275
0.00023567
0.000201457
0.000316404
0.000271846
0.000294969
0.0100616
0.00765889
0.00486065
0.00211989
0.000546655
0.000220223
0.000206112
0.000262601
0.000244953
0.000244191
0.000239186
0.000234267
0.00370622
0.00154823
0.000471083
0.000343118
0.000234522
0.000254804
0.000250959
0.000249208
0.000248145
0.000245329
0.00024299
0.000240082
0.0003661
0.000909973
0.000250717
0.000258948
0.000258163
0.00025774
0.000256597
0.000255018
0.000253194
0.000251346
0.000249316
0.000246996
0.000263354
0.000268065
0.000263772
0.000263753
0.000263735
0.000263266
0.000262209
0.000261011
0.000259621
0.00025806
0.000256175
0.000253999
0.000269218
0.000268378
0.000267789
0.000267379
0.000267046
0.000266718
0.000266235
0.000265519
0.000264516
0.000263245
0.000261569
0.000259361
0.000266214
0.000265843
0.000265596
0.000265559
0.000265546
0.000265563
0.000265402
0.000264994
0.000264231
0.000263143
0.000261657
0.000259489
0.000226952
0.000228669
0.000230576
0.00023243
0.000234538
0.000236681
0.000238992
0.000240938
0.000242793
0.000244459
0.000245836
0.00024609
7.30829e-05
7.2087e-05
7.22002e-05
7.14248e-05
7.15121e-05
7.09251e-05
7.10076e-05
7.06333e-05
7.07214e-05
7.061e-05
7.07041e-05
7.07871e-05
0.00511671
0.029172
0.0336204
0.03363
0.0335535
0.0332475
0.0329145
0.032644
0.0322826
0.031696
0.030741
0.0297191
0.00492219
0.0267922
0.0312202
0.030831
0.0306172
0.0303508
0.0301356
0.02985
0.0293257
0.0284847
0.0274179
0.0262998
0.00479345
0.0244758
0.0281243
0.0276916
0.0275057
0.0273257
0.0270147
0.0265234
0.0257301
0.0246383
0.0234705
0.0222069
0.00464907
0.0218895
0.0246207
0.024465
0.024256
0.0238851
0.0233939
0.0225562
0.0215008
0.0202913
0.0189572
0.0174594
0.0044627
0.0191179
0.0211562
0.0209884
0.0206072
0.0199694
0.0191086
0.0180681
0.0168511
0.0154515
0.0138851
0.0121017
0.00420035
0.0162847
0.0177617
0.0171469
0.0164388
0.0155159
0.0144628
0.0131889
0.0118009
0.0101663
0.00830047
0.00611828
0.00388051
0.0127955
0.0140306
0.0126162
0.0119997
0.0107397
0.00953034
0.00791693
0.00624191
0.00428697
0.00248745
0.000977609
0.00345644
0.00900134
0.0098281
0.00785254
0.00726042
0.00540599
0.00417836
0.00248585
0.00138804
0.000523909
0.000289955
0.000557957
0.00281723
0.00444883
0.00490538
0.00292712
0.00255174
0.00106963
0.000757396
0.000415269
0.000280371
0.000287544
0.000268425
0.000271443
0.00209449
0.00104173
0.00120443
0.000480318
0.000436486
0.000333375
0.000264341
0.000261763
0.000268206
0.000267336
0.000267669
0.000266882
0.00136345
0.000184207
0.000223558
0.000186607
0.000202295
0.000198561
0.000214038
0.000214638
0.000218077
0.000220689
0.000223075
0.000224769
0.000473289
8.87528e-05
8.62556e-05
8.16671e-05
8.09562e-05
7.8044e-05
7.80766e-05
7.54571e-05
7.58317e-05
7.39839e-05
7.42409e-05
7.29136e-05
0.0288313
0.0279558
0.0268094
0.0255256
0.0239513
0.0220861
0.0198332
0.0171403
0.0140141
0.0105531
0.00644581
0.00333619
0.025207
0.0239705
0.0224657
0.0207397
0.0186736
0.0162563
0.0134188
0.0101699
0.00648126
0.00314912
0.00145517
0.00141586
0.0208295
0.0192292
0.0173404
0.0151635
0.0126127
0.00968985
0.0062475
0.00281468
0.0008821
0.00044894
0.000477064
0.000605476
0.0157574
0.0137764
0.0114867
0.00885164
0.00571444
0.00253293
0.000629286
0.000235677
0.000201461
0.00031641
0.000271852
0.000294973
0.0100617
0.00765893
0.00486068
0.00211991
0.000546664
0.000220226
0.000206112
0.000262603
0.000244955
0.000244194
0.000239189
0.00023427
0.00370625
0.00154825
0.000471089
0.000343116
0.000234521
0.000254803
0.000250958
0.000249206
0.000248144
0.000245329
0.000242989
0.000240081
0.000366082
0.000910018
0.000250715
0.000258946
0.000258161
0.000257739
0.000256596
0.000255016
0.000253192
0.000251345
0.000249315
0.000246995
0.000263352
0.000268063
0.000263771
0.000263752
0.000263734
0.000263265
0.000262208
0.00026101
0.00025962
0.000258059
0.000256173
0.000253998
0.000269218
0.000268377
0.000267788
0.000267378
0.000267045
0.000266717
0.000266234
0.000265518
0.000264516
0.000263245
0.000261568
0.00025936
0.000266213
0.000265842
0.000265595
0.000265559
0.000265546
0.000265562
0.000265402
0.000264994
0.00026423
0.000263142
0.000261656
0.000259489
0.000226941
0.000228669
0.000230576
0.00023243
0.000234537
0.000236681
0.000238991
0.000240937
0.000242792
0.000244458
0.000245835
0.000246089
7.30828e-05
7.20869e-05
7.22002e-05
7.14247e-05
7.1512e-05
7.0925e-05
7.10076e-05
7.06332e-05
7.07214e-05
7.06099e-05
7.07041e-05
7.0787e-05
0.00511671
0.029172
0.0336204
0.03363
0.0335535
0.0332475
0.0329145
0.032644
0.0322826
0.031696
0.030741
0.0297191
0.00492219
0.0267922
0.0312202
0.030831
0.0306172
0.0303508
0.0301356
0.02985
0.0293257
0.0284847
0.0274179
0.0262998
0.00479345
0.0244758
0.0281243
0.0276916
0.0275057
0.0273256
0.0270147
0.0265234
0.0257301
0.0246382
0.0234704
0.0222068
0.00464907
0.0218895
0.0246207
0.024465
0.0242559
0.0238851
0.0233938
0.0225561
0.0215007
0.0202912
0.0189572
0.0174594
0.00446269
0.0191178
0.0211562
0.0209883
0.0206072
0.0199693
0.0191085
0.018068
0.016851
0.0154515
0.013885
0.0121016
0.00420035
0.0162847
0.0177617
0.0171469
0.0164387
0.0155159
0.0144628
0.0131889
0.0118008
0.0101662
0.00830042
0.00611822
0.0038805
0.0127955
0.0140306
0.0126162
0.0119996
0.0107396
0.00953027
0.00791686
0.00624183
0.00428691
0.0024874
0.000977588
0.00345643
0.0090013
0.00982804
0.00785247
0.00726035
0.00540591
0.00417828
0.00248578
0.001388
0.00052389
0.000289958
0.00055794
0.00281722
0.00444877
0.00490532
0.00292706
0.00255168
0.0010696
0.000757372
0.000415271
0.00028037
0.000287543
0.000268426
0.000271444
0.00209448
0.00104171
0.00120441
0.000480308
0.000436477
0.000333373
0.000264342
0.000261763
0.000268207
0.000267337
0.00026767
0.000266882
0.00136344
0.000184205
0.000223557
0.000186608
0.000202296
0.000198562
0.000214039
0.000214638
0.000218078
0.000220689
0.000223076
0.00022477
0.000473285
8.87529e-05
8.62556e-05
8.16672e-05
8.09563e-05
7.80441e-05
7.80767e-05
7.54573e-05
7.58318e-05
7.39841e-05
7.42411e-05
7.29138e-05
0.0288313
0.0279558
0.0268094
0.0255255
0.0239513
0.0220861
0.0198332
0.0171402
0.0140141
0.0105531
0.00644581
0.00333619
0.025207
0.0239705
0.0224656
0.0207397
0.0186735
0.0162563
0.0134188
0.0101699
0.00648124
0.00314912
0.00145517
0.00141586
0.0208294
0.0192292
0.0173404
0.0151635
0.0126126
0.00968981
0.00624747
0.00281466
0.000882097
0.00044894
0.000477063
0.000605475
0.0157574
0.0137763
0.0114866
0.00885161
0.0057144
0.0025329
0.000629277
0.000235676
0.000201464
0.000316408
0.000271852
0.000294973
0.0100616
0.00765888
0.00486064
0.00211989
0.000546658
0.000220225
0.000206114
0.000262604
0.000244956
0.000244195
0.00023919
0.000234271
0.00370621
0.00154823
0.000471085
0.000343122
0.000234522
0.000254804
0.000250959
0.000249207
0.000248144
0.000245329
0.00024299
0.000240082
0.000366079
0.00091002
0.000250716
0.000258947
0.000258162
0.000257739
0.000256597
0.000255017
0.000253193
0.000251346
0.000249316
0.000246996
0.000263353
0.000268064
0.000263771
0.000263752
0.000263735
0.000263265
0.000262209
0.00026101
0.00025962
0.000258059
0.000256174
0.000253999
0.000269218
0.000268378
0.000267789
0.000267379
0.000267046
0.000266718
0.000266235
0.000265519
0.000264516
0.000263246
0.000261569
0.000259361
0.000266214
0.000265843
0.000265596
0.00026556
0.000265547
0.000265563
0.000265402
0.000264995
0.000264231
0.000263143
0.000261657
0.000259489
0.000226942
0.00022867
0.000230577
0.000232431
0.000234538
0.000236682
0.000238992
0.000240938
0.000242793
0.000244459
0.000245836
0.00024609
7.3083e-05
7.20871e-05
7.22003e-05
7.14249e-05
7.15122e-05
7.09252e-05
7.10078e-05
7.06334e-05
7.07216e-05
7.06101e-05
7.07043e-05
7.07872e-05
0.0051167
0.029172
0.0336204
0.0336299
0.0335535
0.0332474
0.0329144
0.032644
0.0322826
0.031696
0.0307409
0.0297191
0.00492219
0.0267922
0.0312202
0.030831
0.0306172
0.0303508
0.0301356
0.02985
0.0293257
0.0284846
0.0274178
0.0262998
0.00479345
0.0244758
0.0281242
0.0276916
0.0275057
0.0273256
0.0270147
0.0265234
0.0257301
0.0246382
0.0234704
0.0222068
0.00464907
0.0218895
0.0246207
0.0244649
0.0242559
0.0238851
0.0233938
0.0225561
0.0215007
0.0202912
0.0189572
0.0174594
0.00446269
0.0191178
0.0211562
0.0209883
0.0206071
0.0199693
0.0191085
0.018068
0.016851
0.0154515
0.013885
0.0121016
0.00420035
0.0162847
0.0177617
0.0171468
0.0164387
0.0155159
0.0144628
0.0131888
0.0118008
0.0101662
0.00830042
0.00611822
0.0038805
0.0127954
0.0140306
0.0126162
0.0119996
0.0107396
0.00953026
0.00791685
0.00624183
0.00428691
0.00248741
0.000977591
0.00345643
0.00900129
0.00982803
0.00785245
0.00726034
0.0054059
0.00417828
0.00248578
0.001388
0.000523887
0.000289962
0.000557936
0.00281722
0.00444876
0.00490531
0.00292705
0.00255168
0.0010696
0.00075737
0.000415269
0.00028037
0.000287544
0.000268426
0.000271444
0.00209448
0.00104171
0.0012044
0.000480306
0.000436475
0.000333372
0.000264342
0.000261763
0.000268207
0.000267337
0.00026767
0.000266882
0.00136345
0.000184204
0.000223556
0.000186607
0.000202295
0.000198562
0.000214038
0.000214638
0.000218078
0.000220689
0.000223075
0.000224769
0.000473288
8.87531e-05
8.62556e-05
8.16672e-05
8.09563e-05
7.80442e-05
7.80767e-05
7.54573e-05
7.58318e-05
7.39841e-05
7.4241e-05
7.29137e-05
0.0288312
0.0279558
0.0268094
0.0255255
0.0239513
0.0220861
0.0198332
0.0171402
0.0140141