/*--------------------------------*- C++ -*----------------------------------*\
| =========                 |                                                 |
| \\      /  F ield         | OpenFOAM: The Open Source CFD Toolbox           |
|  \\    /   O peration     | Version:  2212                                  |
|   \\  /    A nd           | Website:  www.openfoam.com                      |
|    \\/     M anipulation  |                                                 |
\*---------------------------------------------------------------------------*/
FoamFile
{
    version     2.0;
    format      ascii;
    arch        "LSB;label=32;scalar=64";
    class       volVectorField;
    location    "0.06";
    object      U;
}
// * * * * * * * * * * * * * * * * * * * * * * * * * * * * * * * * * * * * * //

dimensions      [0 1 -1 0 0 0 0];

internalField   nonuniform List<vector> 
3072
(
(1.34541 21.9122 0)
(1.79852 19.2409 0)
(3.14855 18.0065 5.98136e-19)
(4.55067 16.6304 -8.79105e-15)
(5.77541 16.0631 1.40866e-14)
(6.97357 15.5139 -7.04988e-15)
(7.75809 15.3596 -3.27162e-15)
(9.64599 17.1879 -1.55171e-14)
(17.2037 15.291 2.57262e-14)
(28.6535 14.8546 -9.69007e-15)
(32.5331 19.575 6.58061e-15)
(35.0972 21.3756 3.05551e-15)
(-4.70212 25.5621 -3.83791e-16)
(-2.67559 22.4763 -2.93338e-15)
(0.445983 22.4094 1.4851e-15)
(3.45768 21.9748 0)
(5.91062 22.1992 5.99571e-15)
(8.99976 23.6242 -9.15183e-15)
(15.2617 23.9966 0)
(24.223 25.6584 0)
(29.9622 26.4367 0)
(32.0907 26.3423 7.59049e-18)
(32.6882 27.2806 -1.35882e-14)
(33.3258 27.2366 4.40977e-18)
(-4.25737 28.7863 3.50478e-16)
(-1.72978 25.5649 0)
(2.80601 26.0182 0)
(7.08112 25.6947 -7.81264e-15)
(12.0769 26.24 5.25508e-15)
(18.9807 27.4897 -7.93388e-15)
(26.3131 28.3976 1.04904e-14)
(31.1144 28.5958 0)
(33.3581 27.9342 0)
(34.2067 26.9209 -3.79017e-15)
(34.3481 26.3531 -3.45899e-15)
(34.7754 25.6608 9.96308e-15)
(-5.763 32.2647 -1.29378e-15)
(-1.60222 30.0008 -2.40784e-15)
(4.26544 31.1621 2.35308e-15)
(10.3643 31.036 -2.37382e-15)
(17.3683 31.4986 9.54622e-15)
(24.2677 31.6197 -9.46423e-15)
(29.3479 31.0024 -4.53697e-15)
(31.7532 29.9282 -1.24045e-14)
(32.9031 28.5391 -3.30048e-18)
(33.3839 27.394 6.51183e-15)
(33.5707 26.4936 6.14476e-15)
(33.8857 25.6071 -5.83808e-15)
(-3.16402 34.7174 0)
(0.88257 33.9639 1.09616e-15)
(7.27206 35.3509 -2.15764e-15)
(14.0466 35.2925 4.34612e-15)
(21.0218 35.0849 4.70323e-18)
(26.5173 33.9996 4.18124e-15)
(29.5983 32.4002 3.83241e-15)
(31.0149 30.6483 3.52624e-15)
(31.6829 29.0277 -6.54558e-15)
(32.0162 27.5969 6.07485e-15)
(32.255 26.3949 -8.52221e-15)
(32.5638 25.2958 1.07511e-14)
(-2.00777 37.5353 -1.10568e-15)
(2.93016 37.5666 1.00901e-15)
(9.56517 38.8825 3.96303e-15)
(16.1633 38.4882 0)
(22.267 37.3664 -7.77517e-15)
(26.326 35.3494 7.35204e-15)
(28.5296 33.1413 0)
(29.6013 31.0928 -6.27116e-15)
(30.244 29.2297 5.83029e-15)
(30.6538 27.6108 0)
(30.9856 26.2242 2.97741e-18)
(31.3372 24.9851 4.91553e-15)
(1.11088 39.6148 0)
(5.42792 40.9591 -1.85889e-15)
(11.4405 41.6729 1.81269e-15)
(17.0924 40.8756 0)
(21.9368 38.8892 -3.4474e-15)
(25.062 36.3208 5.37538e-18)
(26.9176 33.7612 6.02281e-15)
(28.0009 31.4535 5.6429e-15)
(28.7311 29.4224 -5.31076e-15)
(29.268 27.6515 5.03222e-15)
(29.7208 26.1136 -4.78905e-15)
(30.1566 24.7488 -1.37655e-14)
(3.1667 42.0132 0)
(7.31644 43.8806 1.68921e-15)
(12.3307 43.8829 -3.22561e-15)
(16.8325 42.6568 3.13282e-15)
(20.69 40.1354 0)
(23.4213 37.245 -5.66427e-15)
(25.2297 34.4213 5.38163e-15)
(26.4268 31.8972 1.41332e-18)
(27.2988 29.6877 -9.767e-15)
(27.9766 27.7608 -4.67657e-15)
(28.548 26.0782 -3.04888e-18)
(29.0672 24.588 8.68299e-15)
(5.93872 43.6975 0)
(8.87398 46.3973 -1.52549e-15)
(12.52 45.4857 -2.83557e-15)
(15.9777 43.9659 -2.6992e-15)
(19.1537 41.2339 5.18308e-15)
(21.6872 38.1785 0)
(23.5523 35.1739 0)
(24.9144 32.4525 0)
(25.955 30.0545 0)
(26.7782 27.9586 4.37373e-15)
(27.4586 26.1239 -4.25228e-15)
(28.0474 24.5008 4.13973e-15)
(7.23537 46.627 0)
(9.30505 48.354 1.33895e-15)
(11.8146 46.4298 -3.91244e-18)
(14.6355 44.5052 2.39815e-15)
(17.3936 41.6895 2.33099e-15)
(19.8252 38.6267 -4.52166e-15)
(21.7943 35.5991 0)
(23.3492 32.8053 -2.11152e-18)
(24.5798 30.3034 -1.26854e-14)
(25.5593 28.0923 0)
(26.3503 26.1408 8.12641e-15)
(27.0034 24.4072 -3.98155e-15)
(9.9619 46.9286 0)
(8.8717 48.0626 1.25609e-15)
(10.3285 45.3397 4.60631e-15)
(12.7041 43.1207 -4.43516e-15)
(15.2236 40.5059 -6.47318e-15)
(17.6594 37.7496 1.05192e-14)
(19.7928 35.0081 -1.8691e-18)
(21.5683 32.4111 -4.06726e-15)
(23.0129 30.0186 4.00282e-15)
(24.1686 27.8526 -7.91238e-15)
(25.0845 25.9019 -1.16993e-14)
(25.8087 24.1431 1.15368e-14)
(4.6218 43.8995 -6.58663e-16)
(6.48273 43.1391 -4.7422e-15)
(7.7497 40.2803 1.08883e-15)
(10.0968 38.5223 0)
(12.7021 36.7879 0)
(15.267 34.8844 3.741e-18)
(17.5817 32.873 1.16894e-14)
(19.5656 30.8279 7.69328e-15)
(21.2131 28.8339 0)
(22.5405 26.9421 7.54838e-15)
(23.5819 25.17 0)
(24.3756 23.527 6.0149e-18)
(38.4191 21.744 -2.15293e-14)
(40.4503 21.5186 9.32585e-15)
(42.1815 20.5398 -9.42853e-15)
(42.8478 19.3183 -3.1918e-15)
(42.9335 17.8535 -3.15142e-15)
(42.2621 16.1644 0)
(40.8645 14.4002 0)
(38.6299 12.5901 6.17269e-15)
(35.6405 10.7885 -6.22856e-15)
(31.7903 8.79258 0)
(26.6291 5.24521 0)
(24.6848 -0.585783 -4.20741e-16)
(34.3767 27.625 8.38592e-15)
(35.289 27.2711 0)
(36.4023 26.5592 -1.03257e-17)
(37.3528 25.4219 4.07257e-15)
(38.2007 23.8579 2.02357e-15)
(38.5777 22.2689 8.23322e-15)
(38.4494 20.6912 -1.26587e-14)
(37.7632 19.2945 2.19948e-15)
(36.5712 18.2103 0)
(34.2623 17.2643 0)
(31.0404 15.8744 0)
(31.5663 11.4813 -4.67867e-23)
(35.3092 25.0329 3.22317e-15)
(35.8729 24.3097 -9.54985e-15)
(36.4926 23.498 3.16894e-15)
(36.9839 22.62 6.35303e-15)
(37.3044 21.7328 -6.36683e-15)
(37.3506 20.8718 0)
(37.1134 20.1512 0)
(36.5728 19.6538 -1.9598e-18)
(35.8067 19.4827 1.84332e-15)
(34.3414 19.4719 0)
(32.0141 19.3059 0)
(33.6591 18.8997 0)
(34.2038 24.781 3.69967e-18)
(34.5481 23.972 8.24238e-15)
(34.9269 23.1498 5.41656e-15)
(35.2797 22.3312 -5.35626e-15)
(35.555 21.5543 0)
(35.6977 20.8902 2.71282e-15)
(35.6742 20.4084 0)
(35.5003 20.1852 4.31957e-15)
(35.175 20.3141 -1.41548e-15)
(34.446 20.9521 0)
(32.4727 21.8476 -9.27812e-16)
(35.7819 22.8656 -1.19327e-15)
(32.8924 24.2889 -5.1307e-15)
(33.2591 23.3536 0)
(33.6491 22.47 0)
(34.0224 21.6552 0)
(34.3499 20.9452 0)
(34.6124 20.3891 -4.61648e-15)
(34.7853 20.0832 -1.53753e-18)
(34.8791 20.0502 -2.41614e-15)
(34.9406 20.4253 0)
(34.7917 21.3489 -1.38212e-15)
(33.5642 22.8846 8.53263e-16)
(37.7867 25.4436 1.0999e-15)
(31.7043 23.8664 -2.76421e-18)
(32.0988 22.8486 -9.1148e-15)
(32.5118 21.9182 4.43663e-15)
(32.9246 21.087 2.72183e-20)
(33.3243 20.3844 2.5536e-18)
(33.705 19.8546 6.43918e-15)
(34.0771 19.5579 -1.71248e-18)
(34.4584 19.5595 -6.72282e-15)
(34.8653 19.9723 -2.3924e-15)
(35.337 20.9503 1.34466e-15)
(34.7682 22.9027 -1.60429e-15)
(39.4969 26.3257 -5.10341e-16)
(30.5883 23.5233 1.32687e-14)
(31.0291 22.4147 4.2876e-15)
(31.479 21.4121 0)
(31.9349 20.5228 0)
(32.4002 19.7699 2.3818e-18)
(32.8871 19.1904 -3.98963e-15)
(33.422 18.8343 5.98836e-15)
(34.0436 18.7616 -1.40709e-18)
(34.7874 19.0775 2.13183e-15)
(35.746 19.9717 0)
(35.9609 21.9091 -2.27012e-18)
(40.9442 26.2048 4.75134e-16)
(29.5554 23.2523 -4.20881e-15)
(30.03 22.0444 -4.09283e-15)
(30.4993 20.9523 3.9995e-15)
(30.9735 19.9766 -3.91347e-15)
(31.4708 19.1336 7.46831e-20)
(32.0204 18.4512 7.5656e-15)
(32.6687 17.9665 -3.74121e-15)
(33.4804 17.7305 1.87774e-15)
(34.5195 17.834 0)
(35.949 18.4772 1.06139e-15)
(36.963 20.1894 6.42881e-16)
(41.9323 24.7127 -1.77555e-15)
(28.5706 23.0477 4.04e-15)
(29.0523 21.7298 -3.95086e-15)
(29.5081 20.5339 -3.8661e-15)
(29.9593 19.4514 -7.58067e-15)
(30.4382 18.4898 7.4275e-15)
(30.9906 17.6656 -7.27843e-15)
(31.6851 17 0)
(32.6157 16.5259 -1.76559e-15)
(33.8852 16.305 0)
(35.7285 16.5234 0)
(37.5879 17.7697 0)
(42.4769 21.9887 1.64665e-15)
(27.5432 22.8509 3.90531e-15)
(28.0043 21.4283 -7.67089e-15)
(28.4109 20.129 7.53396e-15)
(28.7942 18.9344 7.38865e-15)
(29.1992 17.8436 3.61627e-15)
(29.6884 16.8592 0)
(30.3539 15.9814 0)
(31.3147 15.2173 3.37966e-15)
(32.7169 14.5821 0)
(34.8749 14.2164 -8.83224e-16)
(37.3845 14.6096 5.26868e-16)
(42.2996 17.7003 -2.30808e-15)
(26.3547 22.5433 -7.56763e-15)
(26.7718 21.052 7.42679e-15)
(27.0933 19.6776 -7.30782e-15)
(27.3656 18.3883 -1.79804e-14)
(27.648 17.1793 -2.60325e-18)
(28.017 16.041 1.29312e-18)
(28.5877 14.9502 -3.35674e-15)
(29.4884 13.8808 -3.26482e-15)
(30.9059 12.7831 0)
(33.2142 11.743 2.46087e-15)
(36.0315 10.8414 4.80667e-16)
(41.1349 11.4613 -4.47796e-19)
(24.9043 21.9912 -5.8771e-18)
(25.2473 20.4952 0)
(25.4455 19.095 0)
(25.5652 17.7516 3.47268e-15)
(25.6877 16.4603 1.02429e-14)
(25.9051 15.1995 -3.33999e-15)
(26.3469 13.9288 -2.15165e-18)
(27.1227 12.591 -1.58915e-15)
(28.4405 11.0592 -1.54845e-15)
(30.566 9.32132 -1.54617e-15)
(33.839 6.83874 0)
(38.2715 -0.676611 6.30884e-16)
(21.9122 -1.3454 -4.42612e-16)
(19.2409 -1.79851 0)
(18.0065 -3.14854 -5.98135e-19)
(16.6304 -4.55067 0)
(16.0631 -5.7754 7.04326e-15)
(15.5139 -6.97357 -7.04988e-15)
(15.3596 -7.75808 0)
(17.188 -9.64601 -1.24139e-14)
(15.2909 -17.2038 2.25106e-14)
(14.8547 -28.6535 -1.61632e-14)
(19.575 -32.5331 -3.29469e-15)
(21.3757 -35.0972 -3.05551e-15)
(25.5621 4.70213 -1.91824e-15)
(22.4763 2.67559 -1.46637e-15)
(22.4094 -0.445986 4.45288e-15)
(21.9748 -3.45769 0)
(22.1993 -5.91062 -5.99571e-15)
(23.6243 -8.99978 6.10035e-15)
(23.9966 -15.2617 0)
(25.6584 -24.2231 5.60409e-15)
(26.4367 -29.9623 -1.52035e-14)
(26.3424 -32.0907 9.51773e-15)
(27.2806 -32.6882 9.05501e-15)
(27.2366 -33.3258 -1.29836e-14)
(28.7863 4.25738 3.50478e-16)
(25.5649 1.72978 0)
(26.0182 -2.80602 -2.61546e-15)
(25.6948 -7.08115 0)
(26.24 -12.0769 0)
(27.4898 -18.9808 -5.28544e-15)
(28.3976 -26.3131 2.0986e-14)
(28.5958 -31.1144 -1.4973e-14)
(27.9342 -33.3581 4.0193e-15)
(26.9209 -34.2067 0)
(26.3531 -34.3481 6.92249e-15)
(25.6609 -34.7754 -3.32438e-15)
(32.2648 5.763 -1.29485e-15)
(30.0008 1.6022 1.2045e-15)
(31.1622 -4.26548 2.35179e-15)
(31.0361 -10.3644 4.74435e-15)
(31.4986 -17.3683 -4.77215e-15)
(31.6198 -24.2678 -4.72725e-15)
(31.0025 -29.3479 0)
(29.9282 -31.7532 0)
(28.5391 -32.9031 3.48099e-15)
(27.394 -33.3839 0)
(26.4936 -33.5706 4.74498e-18)
(25.6071 -33.8856 2.91714e-15)
(34.7174 3.16399 1.79341e-15)
(33.9639 -0.882611 -1.09563e-15)
(35.3509 -7.27211 -2.15764e-15)
(35.2925 -14.0466 0)
(35.085 -21.0218 0)
(33.9996 -26.5173 4.18838e-15)
(32.4002 -29.5983 0)
(30.6483 -31.0149 -7.06012e-15)
(29.0277 -31.6828 -3.27227e-15)
(27.5969 -32.0161 6.07483e-15)
(26.3949 -32.2549 -8.52219e-15)
(25.2958 -32.5638 5.37343e-15)
(37.5353 2.00772 -7.31417e-19)
(37.5666 -2.93022 -1.0081e-15)
(38.8825 -9.56523 1.97995e-15)
(38.4882 -16.1633 2.33817e-18)
(37.3664 -22.267 3.88766e-15)
(35.3494 -26.3259 -7.34989e-15)
(33.1413 -28.5295 6.69299e-15)
(31.0928 -29.6013 6.32895e-18)
(29.2297 -30.244 0)
(27.6108 -30.6538 0)
(26.2242 -30.9856 1.03142e-14)
(24.9851 -31.3372 7.29002e-19)
(39.6148 -1.11093 -1.02826e-15)
(40.9591 -5.42797 -9.301e-16)
(41.6729 -11.4406 0)
(40.8756 -17.0924 -3.57371e-15)
(38.8892 -21.9368 3.44925e-15)
(36.3208 -25.0619 9.69622e-15)
(33.7612 -26.9176 6.02884e-15)
(31.4535 -28.0009 8.40319e-18)
(29.4224 -28.7311 -1.06274e-14)
(27.6515 -29.268 5.02838e-15)
(26.1136 -29.7208 4.79618e-15)
(24.7488 -30.1565 3.05261e-18)
(42.0132 -3.16675 -6.41811e-19)
(43.8806 -7.31648 1.68921e-15)
(43.8829 -12.3307 0)
(42.6568 -16.8325 -3.13281e-15)
(40.1354 -20.69 -2.98761e-15)
(37.245 -23.4213 5.77892e-18)
(34.4213 -25.2296 -1.07563e-14)
(31.8972 -26.4268 4.31221e-18)
(29.6877 -27.2988 -2.76949e-18)
(27.7608 -27.9766 4.67921e-15)
(26.0782 -28.548 -4.49124e-15)
(24.588 -29.0672 2.45371e-18)
(43.6974 -5.93875 -4.46353e-16)
(46.3973 -8.874 7.611e-16)
(45.4857 -12.52 -4.25205e-15)
(43.9658 -15.9777 2.69919e-15)
(41.2338 -19.1537 0)
(38.1784 -21.6872 0)
(35.1739 -23.5523 4.82191e-15)
(32.4525 -24.9144 9.3254e-15)
(30.0545 -25.955 -4.51226e-15)
(27.9586 -26.7782 -4.37372e-15)
(26.1239 -27.4585 -4.24968e-15)
(24.5009 -28.0474 0)
(46.627 -7.23538 -8.27906e-16)
(48.354 -9.30507 2.00876e-15)
(46.4298 -11.8146 4.97411e-15)
(44.5051 -14.6355 0)
(41.6895 -17.3936 4.6527e-15)
(38.6266 -19.8252 0)
(35.5991 -21.7943 3.21292e-18)
(32.8053 -23.3492 -4.3122e-15)
(30.3034 -24.5798 4.23168e-15)
(28.0923 -25.5593 0)
(26.1408 -26.3503 0)
(24.4072 -27.0034 -7.96676e-15)
(46.9286 -9.9619 2.19627e-23)
(48.0626 -8.87171 1.25609e-15)
(45.3397 -10.3285 3.51715e-18)
(43.1206 -12.7041 -4.44135e-15)
(40.5058 -15.2237 -2.15544e-15)
(37.7496 -17.6594 -2.10377e-15)
(35.0081 -19.7928 -4.12668e-15)
(32.4111 -21.5683 -1.21884e-14)
(30.0186 -23.0129 -4.00281e-15)
(27.8526 -24.1686 -7.91237e-15)
(25.9019 -25.0845 7.80543e-15)
(24.1431 -25.8087 7.68533e-15)
(43.8995 -4.6218 -1.31686e-15)
(43.1391 -6.48274 -5.92083e-16)
(40.2803 -7.74971 2.94577e-18)
(38.5223 -10.0969 4.19967e-15)
(36.7879 -12.7021 0)
(34.8844 -15.267 -3.96703e-15)
(32.873 -17.5817 3.89417e-15)
(30.8278 -19.5656 3.84194e-15)
(28.8339 -21.2131 -1.1435e-14)
(26.9421 -22.5405 7.54837e-15)
(25.17 -23.5819 -7.47674e-15)
(23.527 -24.3756 0)
(21.7441 -38.4191 9.22147e-15)
(21.5186 -40.4504 -2.48674e-14)
(20.5398 -42.1815 6.26577e-15)
(19.3183 -42.8478 1.59047e-14)
(17.8536 -42.9335 -1.5734e-14)
(16.1644 -42.2621 3.11534e-15)
(14.4002 -40.8645 -1.73951e-18)
(12.5901 -38.6299 -3.08465e-15)
(10.7885 -35.6405 -6.22855e-15)
(8.79258 -31.7903 0)
(5.24521 -26.6291 0)
(-0.585782 -24.6848 -6.31237e-16)
(27.625 -34.3767 -3.63719e-19)
(27.2711 -35.289 8.19792e-15)
(26.5592 -36.4023 -1.03257e-17)
(25.4219 -37.3528 0)
(23.8579 -38.2007 6.08015e-15)
(22.2689 -38.5777 0)
(20.6912 -38.4494 4.21825e-15)
(19.2945 -37.7632 6.60122e-15)
(18.2103 -36.5712 -4.71258e-15)
(17.2643 -34.2623 0)
(15.8744 -31.0404 0)
(11.4813 -31.5663 -1.19619e-19)
(25.033 -35.3092 3.21898e-15)
(24.3097 -35.8729 -3.17976e-15)
(23.498 -36.4926 3.16893e-15)
(22.62 -36.9839 0)
(21.7328 -37.3044 -3.18149e-15)
(20.8718 -37.3506 6.52144e-15)
(20.1512 -37.1134 -8.46885e-15)
(19.6538 -36.5728 -8.85111e-15)
(19.4827 -35.8067 5.52816e-15)
(19.4719 -34.3414 0)
(19.3059 -32.0141 1.0376e-15)
(18.8997 -33.6591 -3.81206e-20)
(24.781 -34.2037 2.80617e-15)
(23.972 -34.5481 -5.49637e-15)
(23.1498 -34.9268 5.41655e-15)
(22.3312 -35.2797 -5.35625e-15)
(21.5543 -35.555 0)
(20.8902 -35.6977 2.71282e-15)
(20.4084 -35.6742 2.75479e-15)
(20.1852 -35.5003 1.43834e-15)
(20.3141 -35.175 -2.83116e-15)
(20.9521 -34.446 0)
(21.8476 -32.4727 -9.25943e-16)
(22.8656 -35.7819 1.49199e-15)
(24.2889 -32.8924 5.13478e-15)
(23.3537 -33.2591 -2.47836e-15)
(22.47 -33.6491 0)
(21.6552 -34.0224 0)
(20.9452 -34.3499 2.35853e-15)
(20.3891 -34.6124 -2.30677e-15)
(20.0832 -34.7853 -2.78879e-18)
(20.0502 -34.8791 0)
(20.4253 -34.9406 -1.27606e-15)
(21.3489 -34.7917 1.38212e-15)
(22.8846 -33.5642 -1.70741e-15)
(25.4436 -37.7867 0)
(23.8664 -31.7043 -9.42412e-15)
(22.8486 -32.0988 4.55589e-15)
(21.9182 -32.5118 8.87589e-15)
(21.087 -32.9246 2.7219e-20)
(20.3845 -33.3243 -1.07561e-14)
(19.8546 -33.705 -4.29639e-15)
(19.5579 -34.0771 -2.68201e-18)
(19.5595 -34.4584 0)
(19.9723 -34.8653 0)
(20.9503 -35.337 -1.34466e-15)
(22.9027 -34.7682 -8.03211e-16)
(26.3257 -39.4969 5.10341e-16)
(23.5233 -30.5883 4.424e-15)
(22.4147 -31.0291 -8.57774e-15)
(21.4121 -31.479 -4.17479e-15)
(20.5228 -31.9349 -2.33132e-18)
(19.7699 -32.4002 4.02454e-15)
(19.1904 -32.8871 3.98687e-15)
(18.8343 -33.422 1.99634e-15)
(18.7616 -34.0436 2.0305e-15)
(19.0775 -34.7874 -2.13344e-15)
(19.9717 -35.746 0)
(21.9091 -35.9609 1.43081e-15)
(26.2048 -40.9442 -9.51168e-16)
(23.2523 -29.5554 0)
(22.0444 -30.03 4.09283e-15)
(20.9523 -30.4993 0)
(19.9766 -30.9735 -2.22079e-18)
(19.1336 -31.4708 7.46816e-20)
(18.4512 -32.0204 7.56559e-15)
(17.9665 -32.6687 -1.86953e-15)
(17.7305 -33.4804 -3.75442e-15)
(17.834 -34.5195 -1.93852e-15)
(18.4773 -35.949 1.06139e-15)
(20.1894 -36.963 -1.93303e-15)
(24.7127 -41.9323 8.86472e-16)
(23.0477 -28.5706 4.03999e-15)
(21.7299 -29.0523 -3.95085e-15)
(20.5339 -29.5082 -3.87003e-15)
(19.4514 -29.9593 3.79124e-15)
(18.4898 -30.4382 3.71373e-15)
(17.6656 -30.9906 -1.09204e-14)
(17 -31.6851 0)
(16.5259 -32.6157 1.76559e-15)
(16.305 -33.8852 1.78827e-15)
(16.5234 -35.7285 0)
(17.7697 -37.5879 1.74657e-15)
(21.9887 -42.4769 -4.12359e-16)
(22.8509 -27.5432 0)
(21.4283 -28.0043 -7.67088e-15)
(20.129 -28.4109 -3.77048e-15)
(18.9344 -28.7942 -7.3854e-15)
(17.8436 -29.1992 3.61627e-15)
(16.8592 -29.6885 3.53346e-15)
(15.9814 -30.354 0)
(15.2173 -31.3147 0)
(14.5821 -32.7169 0)
(14.2164 -34.8749 0)
(14.6096 -37.3845 -5.26854e-16)
(17.7003 -42.2996 -7.69279e-16)
(22.5433 -26.3547 3.78218e-15)
(21.0521 -26.7718 3.71165e-15)
(19.6776 -27.0933 1.46218e-14)
(18.3883 -27.3656 3.59896e-15)
(17.1793 -27.648 1.40984e-14)
(16.041 -28.017 -3.44172e-15)
(14.9502 -28.5877 -3.35673e-15)
(13.8808 -29.4884 0)
(12.7831 -30.9059 -3.2059e-15)
(11.743 -33.2142 -1.64052e-15)
(10.8414 -36.0315 -9.61726e-16)
(11.4613 -41.1349 0)
(21.9912 -24.9043 0)
(20.4952 -25.2473 0)
(19.095 -25.4455 -1.4102e-14)
(17.7516 -25.5652 -1.04232e-14)
(16.4603 -25.6877 -3.41247e-15)
(15.1995 -25.9051 0)
(13.9288 -26.3469 3.26163e-15)
(12.591 -27.1227 0)
(11.0592 -28.4405 -1.94924e-18)
(9.32133 -30.566 1.54617e-15)
(6.83875 -33.839 4.27545e-16)
(-0.676601 -38.2715 -1.8816e-19)
(-1.3454 -21.9122 -2.21306e-16)
(-1.79851 -19.2409 -3.45599e-15)
(-3.14854 -18.0065 3.49604e-15)
(-4.55067 -16.6304 -3.51763e-15)
(-5.7754 -16.0631 0)
(-6.97357 -15.5139 3.52628e-15)
(-7.75809 -15.3596 0)
(-9.64601 -17.188 3.10513e-15)
(-17.2038 -15.2909 -9.64367e-15)
(-28.6535 -14.8547 9.6972e-15)
(-32.533 -19.575 1.97217e-14)
(-35.0972 -21.3757 -6.08414e-15)
(4.70213 -25.5621 0)
(2.67559 -22.4763 -2.93338e-15)
(-0.445988 -22.4094 2.96898e-15)
(-3.45769 -21.9748 2.95939e-15)
(-5.91063 -22.1993 -5.99571e-15)
(-8.99979 -23.6243 -1.67777e-19)
(-15.2617 -23.9966 -6.03908e-15)
(-24.2231 -25.6584 -1.40025e-14)
(-29.9623 -26.4367 1.52018e-14)
(-32.0907 -26.3424 -4.75461e-15)
(-32.6882 -27.2806 8.19941e-18)
(-33.3258 -27.2366 5.46356e-18)
(4.25738 -28.7863 0)
(1.72977 -25.5649 0)
(-2.80603 -26.0182 0)
(-7.08115 -25.6948 -2.605e-15)
(-12.077 -26.24 0)
(-18.9808 -27.4898 -2.64843e-15)
(-26.3131 -28.3976 5.24352e-15)
(-31.1144 -28.5958 9.98861e-15)
(-33.3581 -27.9342 -4.02107e-15)
(-34.2067 -26.9209 -7.57712e-15)
(-34.3481 -26.3531 -1.03815e-14)
(-34.7754 -25.6609 9.96306e-15)
(5.76298 -32.2648 0)
(1.60218 -30.0008 -1.2045e-15)
(-4.26549 -31.1622 2.35445e-15)
(-10.3644 -31.0361 2.37053e-15)
(-17.3683 -31.4986 0)
(-24.2678 -31.6198 -9.47188e-15)
(-29.3479 -31.0025 9.06357e-15)
(-31.7531 -29.9282 0)
(-32.9031 -28.5391 6.95208e-15)
(-33.3839 -27.394 -9.76578e-15)
(-33.5706 -26.4936 6.14001e-15)
(-33.8856 -25.6071 5.05784e-18)
(3.16397 -34.7174 -7.13167e-23)
(-0.882625 -33.9639 2.19377e-15)
(-7.27212 -35.3509 3.02443e-18)
(-14.0466 -35.2926 0)
(-21.0218 -35.085 -4.32704e-15)
(-26.5173 -33.9996 8.36469e-15)
(-29.5982 -32.4002 0)
(-31.0149 -30.6483 -3.53204e-15)
(-31.6828 -29.0277 -3.27611e-15)
(-32.0161 -27.5969 6.07483e-15)
(-32.2549 -26.3949 0)
(-32.5638 -25.2958 -5.36991e-15)
(2.0077 -37.5353 5.52385e-16)
(-2.93023 -37.5666 2.07764e-18)
(-9.56523 -38.8825 -1.97995e-15)
(-16.1633 -38.4882 -7.94173e-15)
(-22.267 -37.3664 -2.25184e-18)
(-26.3259 -35.3494 7.35202e-15)
(-28.5295 -33.1413 0)
(-29.6013 -31.0928 9.40708e-15)
(-30.244 -29.2297 -5.83232e-15)
(-30.6538 -27.6109 5.45914e-15)
(-30.9855 -26.2242 2.9774e-18)
(-31.3372 -24.9851 -7.29e-19)
(-1.11094 -39.6148 -1.54243e-15)
(-5.42798 -40.9591 -9.27232e-16)
(-11.4406 -41.6729 0)
(-17.0924 -40.8756 7.15155e-15)
(-21.9368 -38.8892 -1.0342e-14)
(-25.0619 -36.3208 -1.63856e-18)
(-26.9176 -33.7612 -1.20516e-14)
(-28.0009 -31.4535 5.28588e-18)
(-28.7311 -29.4224 -5.31075e-15)
(-29.268 -27.6515 -5.03221e-15)
(-29.7208 -26.1136 4.79618e-15)
(-30.1565 -24.7488 -4.58923e-15)
(-3.16676 -42.0132 1.43419e-15)
(-7.31649 -43.8806 -8.45246e-16)
(-12.3307 -43.8829 0)
(-16.8325 -42.6568 3.13281e-15)
(-20.69 -40.1354 2.98603e-15)
(-23.4213 -37.245 2.83054e-15)
(-25.2296 -34.4213 -4.96059e-18)
(-26.4268 -31.8972 -1.41331e-18)
(-27.2987 -29.6877 -4.88759e-15)
(-27.9766 -27.7608 -6.55057e-18)
(-28.548 -26.0782 2.54575e-18)
(-29.0672 -24.588 0)
(-5.93876 -43.6974 4.45603e-16)
(-8.87401 -46.3973 0)
(-12.52 -45.4857 0)
(-15.9777 -43.9658 -2.69919e-15)
(-19.1537 -41.2338 2.58756e-15)
(-21.6872 -38.1784 -4.99217e-15)
(-23.5522 -35.1739 0)
(-24.9144 -32.4525 4.6615e-15)
(-25.955 -30.0546 -2.45307e-18)
(-26.7781 -27.9586 4.37372e-15)
(-27.4585 -26.124 -4.25438e-15)
(-28.0474 -24.5009 8.28393e-15)
(-7.23539 -46.627 -3.52735e-19)
(-9.30507 -48.354 -6.69806e-16)
(-11.8146 -46.4298 -2.48901e-15)
(-14.6355 -44.5051 -4.7937e-15)
(-17.3936 -41.6895 0)
(-19.8252 -38.6266 4.51566e-15)
(-21.7943 -35.5991 -8.82315e-15)
(-23.3492 -32.8053 4.31296e-15)
(-24.5798 -30.3034 4.23167e-15)
(-25.5593 -28.0923 0)
(-26.3502 -26.1409 -4.06733e-15)
(-27.0034 -24.4072 -7.95888e-15)
(-9.9619 -46.9286 -7.38179e-16)
(-8.87171 -48.0626 6.27309e-16)
(-10.3285 -45.3397 2.30139e-15)
(-12.7041 -43.1206 2.2156e-15)
(-15.2236 -40.5058 -5.12112e-19)
(-17.6594 -37.7496 -6.31464e-15)
(-19.7928 -35.0081 8.24658e-15)
(-21.5682 -32.4111 1.62476e-14)
(-23.0129 -30.0186 -1.20164e-14)
(-24.1686 -27.8526 -7.91237e-15)
(-25.0845 -25.9019 7.79824e-15)
(-25.8087 -24.1431 0)
(-4.6218 -43.8995 1.31562e-15)
(-6.48273 -43.1391 5.94642e-16)
(-7.7497 -40.2802 1.08589e-15)
(-10.0968 -38.5223 4.20452e-15)
(-12.7021 -36.7879 0)
(-15.267 -34.8844 3.96328e-15)
(-17.5816 -32.873 -7.79524e-15)
(-19.5656 -30.8278 -3.84477e-15)
(-21.213 -28.8339 -3.81068e-15)
(-22.5405 -26.9421 7.54837e-15)
(-23.5818 -25.17 3.74286e-15)
(-24.3756 -23.527 1.11034e-14)
(-38.4191 -21.7441 -3.07416e-15)
(-40.4503 -21.5186 3.12002e-15)
(-42.1815 -20.5398 -9.41817e-15)
(-42.8478 -19.3183 2.8625e-14)
(-42.9335 -17.8535 -1.25826e-14)
(-42.2621 -16.1644 0)
(-40.8645 -14.4002 -6.18415e-15)
(-38.6299 -12.5901 4.6261e-15)
(-35.6405 -10.7885 0)
(-31.7903 -8.79257 1.07436e-18)
(-26.6291 -5.2452 0)
(-24.6848 0.585787 4.20741e-16)
(-34.3767 -27.625 -1.67828e-14)
(-35.289 -27.2711 8.20827e-15)
(-36.4023 -26.5592 8.09922e-15)
(-37.3528 -25.4219 -4.07738e-15)
(-38.2007 -23.8579 0)
(-38.5777 -22.2689 0)
(-38.4494 -20.6912 4.22013e-15)
(-37.7632 -19.2945 -4.40166e-15)
(-36.5712 -18.2103 0)
(-34.2623 -17.2643 1.2225e-15)
(-31.0404 -15.8744 -1.41581e-19)
(-31.5662 -11.4813 -1.57057e-15)
(-35.3092 -25.033 3.22359e-15)
(-35.8729 -24.3097 -6.36571e-15)
(-36.4926 -23.498 0)
(-36.9839 -22.62 -6.35308e-15)
(-37.3044 -21.7328 -6.36756e-15)
(-37.3506 -20.8718 1.30422e-14)
(-37.1134 -20.1512 -1.01636e-14)
(-36.5728 -19.6538 0)
(-35.8067 -19.4827 0)
(-34.3414 -19.4719 0)
(-32.0141 -19.3059 -1.03707e-15)
(-33.6591 -18.8997 0)
(-34.2037 -24.781 -2.80617e-15)
(-34.5481 -23.972 -4.1631e-18)
(-34.9268 -23.1498 0)
(-35.2797 -22.3312 -3.97065e-18)
(-35.5549 -21.5543 0)
(-35.6977 -20.8902 0)
(-35.6742 -20.4084 2.75657e-15)
(-35.5003 -20.1852 -2.8789e-15)
(-35.175 -20.3141 2.83266e-15)
(-34.446 -20.9521 0)
(-32.4727 -21.8476 -9.27812e-16)
(-35.7819 -22.8656 1.19327e-15)
(-32.8924 -24.2889 1.02727e-14)
(-33.2591 -23.3537 -2.47836e-15)
(-33.6491 -22.47 4.82465e-15)
(-34.0224 -21.6552 2.37054e-15)
(-34.3499 -20.9452 -7.07258e-15)
(-34.6124 -20.3891 0)
(-34.7853 -20.0832 -2.25918e-15)
(-34.8791 -20.0502 0)
(-34.9406 -20.4253 0)
(-34.7917 -21.3489 1.38212e-15)
(-33.5642 -22.8846 3.76733e-19)
(-37.7867 -25.4435 1.40205e-18)
(-31.7042 -23.8664 -4.70936e-15)
(-32.0988 -22.8486 -2.9994e-18)
(-32.5118 -21.9182 0)
(-32.9246 -21.087 0)
(-33.3242 -20.3845 -6.4568e-15)
(-33.705 -19.8546 4.29391e-15)
(-34.0771 -19.5579 4.34252e-15)
(-34.4584 -19.5595 2.24062e-15)
(-34.8653 -19.9723 -4.78353e-15)
(-35.337 -20.9503 -1.34466e-15)
(-34.7682 -22.9027 0)
(-39.4969 -26.3257 5.10341e-16)
(-30.5883 -23.5233 -8.85045e-15)
(-31.0291 -22.4147 4.28241e-15)
(-31.479 -21.4121 4.1774e-15)
(-31.9349 -20.5228 2.31642e-18)
(-32.4002 -19.7699 -4.73031e-18)
(-32.8871 -19.1904 -3.99182e-15)
(-33.422 -18.8343 -5.98723e-15)
(-34.0436 -18.7616 -2.03194e-15)
(-34.7874 -19.0775 2.13183e-15)
(-35.746 -19.9717 0)
(-35.9609 -21.909 2.14846e-15)
(-40.9442 -26.2048 -1.42695e-15)
(-29.5554 -23.2523 8.41543e-15)
(-30.03 -22.0444 -4.09972e-15)
(-30.4993 -20.9523 -3.99949e-15)
(-30.9735 -19.9766 -7.82471e-15)
(-31.4708 -19.1336 7.68073e-15)
(-32.0204 -18.4512 -2.1309e-18)
(-32.6687 -17.9665 1.12302e-14)
(-33.4804 -17.7305 1.87545e-15)
(-34.5195 -17.834 1.93852e-15)
(-35.949 -18.4772 0)
(-36.963 -20.1894 -1.28777e-15)
(-41.9323 -24.7126 4.44033e-16)
(-28.5706 -23.0477 0)
(-29.0523 -21.7299 3.94874e-15)
(-29.5081 -20.5339 3.8661e-15)
(-29.9593 -19.4514 -3.78941e-15)
(-30.4382 -18.4898 -1.75958e-18)
(-30.9906 -17.6656 -3.64196e-15)
(-31.6851 -17 -3.5714e-15)
(-32.6157 -16.5259 0)
(-33.8852 -16.305 -1.78827e-15)
(-35.7285 -16.5234 -9.63097e-16)
(-37.5879 -17.7697 2.91024e-15)
(-42.4769 -21.9887 -4.10238e-16)
(-27.5432 -22.8509 0)
(-28.0043 -21.4283 0)
(-28.4109 -20.129 0)
(-28.7942 -18.9344 -1.1084e-14)
(-29.1992 -17.8436 7.23229e-15)
(-29.6885 -16.8592 7.06866e-15)
(-30.354 -15.9814 0)
(-31.3147 -15.2173 -3.37966e-15)
(-32.7169 -14.5821 0)
(-34.8749 -14.2164 -1.76696e-15)
(-37.3845 -14.6096 -5.26854e-16)
(-42.2996 -17.7003 -7.67253e-16)
(-26.3547 -22.5433 0)
(-26.7718 -21.0521 0)
(-27.0933 -19.6776 7.31398e-15)
(-27.3656 -18.3883 1.07853e-14)
(-27.648 -17.1793 4.16645e-18)
(-28.017 -16.041 3.44302e-15)
(-28.5877 -14.9502 -1.67786e-15)
(-29.4885 -13.8808 4.89789e-15)
(-30.9059 -12.7831 3.2059e-15)
(-33.2142 -11.743 1.63888e-15)
(-36.0315 -10.8414 -9.61726e-16)
(-41.1349 -11.4613 -1.43447e-15)
(-24.9043 -21.9912 0)
(-25.2473 -20.4952 0)
(-25.4455 -19.095 -7.04836e-15)
(-25.5652 -17.7516 3.47774e-15)
(-25.6877 -16.4603 -3.41247e-15)
(-25.9051 -15.1995 -3.33998e-15)
(-26.3469 -13.9288 3.26378e-15)
(-27.1228 -12.591 0)
(-28.4405 -11.0592 -3.09608e-15)
(-30.566 -9.32132 -1.54709e-15)
(-33.839 -6.83873 1.28573e-15)
(-38.2715 0.676614 1.13746e-19)
(-21.9122 1.34541 -2.01723e-19)
(-19.2409 1.79851 0)
(-18.0065 3.14854 0)
(-16.6304 4.55067 -7.03283e-15)
(-16.0631 5.7754 1.05662e-14)
(-15.5139 6.97357 0)
(-15.3596 7.75809 0)
(-17.1879 9.646 3.10513e-15)
(-15.2909 17.2038 3.22087e-15)
(-14.8546 28.6535 9.70613e-15)
(-19.575 32.533 1.6427e-14)
(-21.3756 35.0972 -3.03839e-15)
(-25.5621 -4.70213 -2.9601e-19)
(-22.4763 -2.67559 0)
(-22.4094 0.445983 0)
(-21.9748 3.45768 -2.96114e-15)
(-22.1992 5.91062 5.99771e-15)
(-23.6243 8.99977 -1.83025e-14)
(-23.9966 15.2617 1.20707e-14)
(-25.6584 24.223 2.80564e-15)
(-26.4367 29.9622 -5.06105e-15)
(-26.3424 32.0907 7.59049e-18)
(-27.2806 32.6882 0)
(-27.2366 33.3258 -8.64609e-15)
(-28.7863 -4.25738 3.50478e-16)
(-25.5649 -1.72978 0)
(-26.0182 2.80601 0)
(-25.6948 7.08113 -2.01224e-18)
(-26.24 12.0769 2.40167e-18)
(-27.4897 18.9807 -5.29084e-15)
(-28.3976 26.3131 0)
(-28.5958 31.1144 -1.49783e-14)
(-27.9342 33.3581 1.2067e-14)
(-26.9209 34.2067 -3.79017e-15)
(-26.3531 34.3481 -6.92233e-15)
(-25.6608 34.7754 9.96307e-15)
(-32.2648 -5.763 1.29485e-15)
(-30.0008 -1.60221 1.2045e-15)
(-31.1622 4.26546 0)
(-31.0361 10.3644 2.37053e-15)
(-31.4986 17.3683 -2.38495e-15)
(-31.6197 24.2678 4.72725e-15)
(-31.0024 29.3479 0)
(-29.9282 31.7532 -4.13639e-15)
(-28.5391 32.9031 -1.04331e-14)
(-27.394 33.3839 6.51183e-15)
(-26.4936 33.5706 6.14001e-15)
(-25.6071 33.8856 -1.16812e-14)
(-34.7174 -3.164 -5.97182e-16)
(-33.9639 0.882595 -1.09616e-15)
(-35.3509 7.27209 2.15764e-15)
(-35.2925 14.0466 0)
(-35.085 21.0218 -8.65649e-15)
(-33.9996 26.5172 8.37184e-15)
(-32.4002 29.5983 3.8389e-15)
(-30.6483 31.0149 3.52623e-15)
(-29.0277 31.6828 0)
(-27.5969 32.0161 0)
(-26.3949 32.2549 0)
(-25.2958 32.5638 -7.75173e-18)
(-37.5353 -2.00773 7.31417e-19)
(-37.5666 2.9302 0)
(-38.8825 9.5652 -1.97995e-15)
(-38.4882 16.1633 3.97204e-15)
(-37.3664 22.267 3.88742e-15)
(-35.3494 26.3259 -7.3501e-15)
(-33.1413 28.5295 3.34658e-15)
(-31.0928 29.6013 -1.25459e-14)
(-29.2297 30.244 -2.03883e-18)
(-27.6108 30.6538 -4.60374e-18)
(-26.2242 30.9856 2.9774e-18)
(-24.9851 31.3372 1.47274e-14)
(-39.6148 1.11092 5.14854e-16)
(-40.9591 5.42795 1.85889e-15)
(-41.6729 11.4405 -3.61948e-15)
(-40.8756 17.0924 -3.57371e-15)
(-38.8892 21.9368 -6.89069e-15)
(-36.3208 25.0619 -3.2374e-15)
(-33.7612 26.9176 -6.02552e-15)
(-31.4535 28.0009 1.12785e-14)
(-29.4224 28.7311 0)
(-27.6515 29.268 1.00577e-14)
(-26.1136 29.7208 -1.4369e-14)
(-24.7488 30.1565 4.59247e-15)
(-42.0132 3.16674 -9.55501e-16)
(-43.8806 7.31647 -2.53472e-15)
(-43.8829 12.3307 4.83956e-15)
(-42.6568 16.8325 0)
(-40.1354 20.69 -2.9925e-15)
(-37.245 23.4213 5.66426e-15)
(-34.4213 25.2296 -2.86316e-18)
(-31.8972 26.4268 1.41332e-18)
(-29.6877 27.2988 -4.88298e-15)
(-27.7608 27.9766 -9.3526e-15)
(-26.0782 28.548 4.4936e-15)
(-24.588 29.0672 -4.34166e-15)
(-43.6975 5.93875 -8.91206e-16)
(-46.3973 8.874 0)
(-45.4857 12.52 0)
(-43.9658 15.9777 0)
(-41.2339 19.1537 2.58756e-15)
(-38.1785 21.6872 0)
(-35.1739 23.5523 -3.95302e-18)
(-32.4525 24.9144 9.32207e-15)
(-30.0546 25.955 2.95299e-18)
(-27.9586 26.7782 4.37372e-15)
(-26.124 27.4585 -4.25228e-15)
(-24.5009 28.0474 1.24237e-14)
(-46.627 7.23538 -1.65617e-15)
(-48.354 9.30507 3.35109e-15)
(-46.4298 11.8146 -1.24333e-15)
(-44.5052 14.6355 0)
(-41.6895 17.3936 0)
(-38.6266 19.8252 0)
(-35.5991 21.7943 0)
(-32.8053 23.3492 4.31565e-15)
(-30.3034 24.5798 -1.691e-14)
(-28.0923 25.5593 -8.29001e-15)
(-26.1409 26.3503 8.1264e-15)
(-24.4072 27.0034 3.98942e-15)
(-46.9286 9.9619 -7.38179e-16)
(-48.0626 8.87171 -1.88203e-15)
(-45.3397 10.3285 -1.15345e-15)
(-43.1206 12.7041 0)
(-40.5059 15.2236 0)
(-37.7496 17.6594 4.21019e-15)
(-35.0081 19.7928 -8.2515e-15)
(-32.4111 21.5682 1.62497e-14)
(-30.0186 23.0129 1.20203e-14)
(-27.8526 24.1686 7.9049e-15)
(-25.9019 25.0845 -7.79824e-15)
(-24.1431 25.8087 6.94166e-18)
(-43.8995 4.62179 -1.24238e-18)
(-43.1391 6.48273 0)
(-40.2803 7.7497 2.17033e-15)
(-38.5223 10.0968 -6.3059e-15)
(-36.7879 12.7021 6.10278e-15)
(-34.8844 15.267 3.74099e-18)
(-32.873 17.5817 3.89417e-15)
(-30.8279 19.5656 -3.84477e-15)
(-28.8339 21.2131 -1.90529e-14)
(-26.9421 22.5405 0)
(-25.17 23.5818 0)