/*--------------------------------*- C++ -*----------------------------------*\
| =========                 |                                                 |
| \\      /  F ield         | OpenFOAM: The Open Source CFD Toolbox           |
|  \\    /   O peration     | Version:  2206                                  |
|   \\  /    A nd           | Website:  www.openfoam.com                      |
|    \\/     M anipulation  |                                                 |
\*---------------------------------------------------------------------------*/
FoamFile
{
    version     2.0;
    format      ascii;
    arch        "LSB;label=32;scalar=64";
    class       volScalarField;
    location    "400";
    object      alphat;
}
// * * * * * * * * * * * * * * * * * * * * * * * * * * * * * * * * * * * * * //

dimensions      [1 -1 -1 0 0 0 0];

internalField   nonuniform List<scalar> 
50904
(
5.6870353e-06
9.2299914e-06
6.0180956e-06
1.0241091e-05
2.0512681e-05
2.3830785e-05
1.9238202e-05
2.2129054e-05
3.8957321e-05
3.9291415e-05
3.5949608e-05
3.7195254e-05
4.4839194e-05
4.2269359e-05
4.254287e-05
4.0249228e-05
3.1277838e-05
3.0455116e-05
2.9675114e-05
2.8893532e-05
1.7508015e-05
1.5350457e-05
1.6609072e-05
9.6913558e-06
3.525543e-06
2.01693e-06
2.5138964e-06
1.4106125e-06
7.6192367e-07
4.5803436e-07
5.6784909e-07
3.4232759e-07
3.8739102e-07
2.5756873e-07
3.1621124e-07
2.120424e-07
3.4518831e-07
2.4166239e-07
2.9189908e-07
2.0542426e-07
3.545426e-07
2.5537337e-07
3.0131472e-07
2.1799545e-07
3.768545e-07
2.7781913e-07
3.210693e-07
2.3705789e-07
4.0639184e-07
3.0627519e-07
3.4649043e-07
2.6076167e-07
4.4643302e-07
3.4392678e-07
3.8100352e-07
2.9206228e-07
5.0241724e-07
3.9488985e-07
4.286451e-07
3.3405748e-07
5.702046e-07
4.5475915e-07
4.8515756e-07
3.8199845e-07
6.4671339e-07
5.2046763e-07
5.4803027e-07
4.3321526e-07
7.3002019e-07
5.8968967e-07
6.1394709e-07
4.8480005e-07
8.2859093e-07
6.6759237e-07
6.8613577e-07
5.3798716e-07
9.3612313e-07
7.520173e-07
7.5681261e-07
5.8913913e-07
1.0446509e-06
8.3804411e-07
8.3083798e-07
6.4069611e-07
1.1594476e-06
9.3001256e-07
9.057673e-07
6.933207e-07
1.2594164e-06
1.0081112e-06
9.6986782e-07
7.4049499e-07
1.3277826e-06
1.0577184e-06
1.0210639e-06
7.7791764e-07
1.3720281e-06
1.0874618e-06
1.0577623e-06
8.0728023e-07
1.4120956e-06
1.115748e-06
1.1080916e-06
8.6560244e-07
1.5358885e-06
1.244834e-06
1.3206763e-06
1.1544295e-06
2.3480311e-06
2.1076781e-06
2.5664897e-06
2.7347608e-06
7.595681e-06
7.5064365e-06
9.6901117e-06
1.1025874e-05
1.388196e-05
1.5983758e-05
1.6355642e-05
2.02732e-05
2.18377e-05
2.6638843e-05
2.5086799e-05
3.1910694e-05
3.6295613e-05
4.4718364e-05
4.051613e-05
4.9873932e-05
4.5484175e-05
4.9914034e-05
4.6072433e-05
5.0663193e-05
3.436793e-05
3.6043463e-05
3.3567934e-05
3.4677723e-05
1.1485425e-05
1.2089086e-05
1.0143298e-05
1.0648349e-05
1.3802158e-06
1.4365867e-06
1.2359824e-06
1.3946263e-06
5.7910735e-06
1.0158639e-05
4.9544437e-06
8.4449567e-06
4.4335103e-06
6.8374007e-06
4.1171981e-06
5.9236347e-06
3.9145222e-06
5.3415697e-06
3.7744138e-06
4.9451205e-06
3.6668057e-06
4.6463089e-06
1.8248549e-05
2.1418907e-05
1.7525768e-05
1.9994418e-05
1.7207509e-05
1.8835572e-05
1.7026232e-05
1.8219987e-05
1.6909234e-05
1.7851618e-05
1.6827401e-05
1.7619957e-05
1.6764191e-05
1.7454956e-05
3.3947603e-05
3.5598725e-05
3.229419e-05
3.3028151e-05
3.1801685e-05
3.1351341e-05
3.1564107e-05
3.0808542e-05
3.1438135e-05
3.0477183e-05
3.1281808e-05
3.0207079e-05
3.1205439e-05
3.0026081e-05
3.9280595e-05
3.9772083e-05
3.6284328e-05
3.6735978e-05
3.5568306e-05
3.5171326e-05
3.5231135e-05
3.502891e-05
3.4888994e-05
3.5060805e-05
3.479141e-05
3.5110883e-05
3.4781563e-05
3.5286274e-05
2.9323942e-05
2.8559126e-05
2.8980796e-05
2.7653919e-05
2.8716209e-05
2.4476579e-05
2.8218598e-05
2.3462923e-05
2.7974796e-05
2.3132776e-05
2.793808e-05
2.4134193e-05
2.8022057e-05
2.3009483e-05
1.2951319e-05
7.8948717e-06
1.1064875e-05
6.2784946e-06
1.116727e-05
5.0406637e-06
1.0993694e-05
4.7370864e-06
1.1075804e-05
4.6283291e-06
1.259884e-05
4.70674e-06
1.3137507e-05
5.4207199e-06
2.0475329e-06
1.1541828e-06
1.7640399e-06
8.5279263e-07
1.7054186e-06
6.9616982e-07
1.6327658e-06
6.6428027e-07
1.5961627e-06
6.5153868e-07
1.5729765e-06
6.5906434e-07
1.5664713e-06
7.5193163e-07
4.7442524e-07
2.8449962e-07
4.2224559e-07
2.1172574e-07
4.0492079e-07
1.7657776e-07
3.8638541e-07
1.7341657e-07
3.7841238e-07
1.7260324e-07
3.7398055e-07
1.745338e-07
3.7238072e-07
1.9166061e-07
2.7685474e-07
1.8255248e-07
2.5992353e-07
1.4080087e-07
2.4965823e-07
1.1990407e-07
2.3785887e-07
1.2140781e-07
2.3351245e-07
1.2206266e-07
2.3118029e-07
1.2194857e-07
2.3030429e-07
1.2463977e-07
2.59871e-07
1.7818824e-07
2.465243e-07
1.3648962e-07
2.3415233e-07
1.1843892e-07
2.213291e-07
1.2395922e-07
2.1675392e-07
1.2034737e-07
2.1440954e-07
1.2091164e-07
2.1362853e-07
1.2065631e-07
2.6881358e-07
1.8847761e-07
2.5416638e-07
1.4187269e-07
2.3884629e-07
1.2538372e-07
2.2421697e-07
1.3294834e-07
2.1887572e-07
1.2605225e-07
2.1635428e-07
1.2734992e-07
2.155596e-07
1.2542209e-07
2.8676428e-07
2.0338257e-07
2.6870025e-07
1.5004083e-07
2.4943789e-07
1.335768e-07
2.3299139e-07
1.4277985e-07
2.2704379e-07
1.3419677e-07
2.2438357e-07
1.3601347e-07
2.2351051e-07
1.3356054e-07
3.0942523e-07
2.2324555e-07
2.8945169e-07
1.616502e-07
2.6670105e-07
1.4063307e-07
2.4792168e-07
1.4514645e-07
2.4247093e-07
1.4830927e-07
2.4030606e-07
1.4717722e-07
2.3903485e-07
1.4537097e-07
3.3956337e-07
2.4755357e-07
3.1649495e-07
1.7748431e-07
2.9053627e-07
1.5344683e-07
2.7108221e-07
1.5960076e-07
2.6623929e-07
1.6468113e-07
2.642227e-07
1.634064e-07
2.6356628e-07
1.6217433e-07
3.8193357e-07
2.8102963e-07
3.5642186e-07
2.0083415e-07
3.2758332e-07
1.7197812e-07
3.0731575e-07
1.8308748e-07
3.0318053e-07
1.877108e-07
3.016114e-07
1.8743004e-07
3.0131986e-07
1.8663613e-07
4.3153906e-07
3.1800747e-07
4.0458064e-07
2.2858478e-07
3.7418819e-07
1.9809054e-07
3.5295099e-07
2.1022859e-07
3.4886486e-07
2.1591751e-07
3.4775244e-07
2.1639964e-07
3.473394e-07
2.1607261e-07
4.8613084e-07
3.5458232e-07
4.5788676e-07
2.5697038e-07
4.2529928e-07
2.2635191e-07
4.0262016e-07
2.3941779e-07
3.9810904e-07
2.4540263e-07
3.9681793e-07
2.4634599e-07
3.9581582e-07
2.4648203e-07
5.4233874e-07
3.8818113e-07
5.1183444e-07
2.8510059e-07
4.7660243e-07
2.5663715e-07
4.5256694e-07
2.7091641e-07
4.4744925e-07
2.7695842e-07
4.4558685e-07
2.7808986e-07
4.4437036e-07
2.7870047e-07
6.0461641e-07
4.2239053e-07
5.6965142e-07
3.1336446e-07
5.2809003e-07
2.8650663e-07
5.008955e-07
3.0201523e-07
4.9421301e-07
3.0779993e-07
4.9048504e-07
3.089024e-07
4.9072519e-07
3.1085012e-07
6.661616e-07
4.5424968e-07
6.2603701e-07
3.4023405e-07
5.7664351e-07
3.1587309e-07
5.457342e-07
3.3322829e-07
5.3728445e-07
3.3943623e-07
5.3248184e-07
3.4165462e-07
5.326638e-07
3.4369537e-07
7.3107581e-07
4.8784809e-07
6.8438479e-07
3.6836065e-07
6.2486619e-07
3.4583673e-07
5.886652e-07
3.6642914e-07
5.7850078e-07
3.8089422e-07
5.7334077e-07
4.3627975e-07
5.7292353e-07
3.7078033e-07
7.9242088e-07
5.2423471e-07
7.38031e-07
3.984934e-07
6.7152012e-07
3.7751802e-07
6.3240515e-07
4.0176407e-07
6.2273425e-07
4.1927769e-07
6.2371138e-07
4.8463376e-07
6.6272245e-07
4.082651e-07
8.4309785e-07
5.6430899e-07
7.8947389e-07
4.3131293e-07
7.192463e-07
4.0945115e-07
6.7842389e-07
4.3684794e-07
6.8310802e-07
4.5184515e-07
7.9079717e-07
4.7651663e-07
8.7083875e-07
4.430673e-07
8.8339511e-07
6.038377e-07
8.3675295e-07
4.6368158e-07
7.7966306e-07
4.3686641e-07
7.4036415e-07
4.5986722e-07
7.34421e-07
4.6941062e-07
7.7402625e-07
4.7899113e-07
8.3663208e-07
4.7266439e-07
9.1323455e-07
6.4811216e-07
8.7939923e-07
5.0628816e-07
8.4354183e-07
4.7678293e-07
8.1363922e-07
4.9797482e-07
8.0359708e-07
5.0310546e-07
7.9455406e-07
5.0693476e-07
7.9589704e-07
5.1143333e-07
9.7284876e-07
7.5396408e-07
9.6426016e-07
6.4142878e-07
9.5120892e-07
6.2872561e-07
9.3175203e-07
6.7200851e-07
9.2697295e-07
6.8484972e-07
9.1843713e-07
6.9346134e-07
9.1408392e-07
7.0133525e-07
1.2763318e-06
1.2639041e-06
1.3803135e-06
1.3951303e-06
1.438457e-06
1.5378316e-06
1.4523953e-06
1.6847275e-06
1.4666196e-06
1.7621133e-06
1.4673001e-06
1.8135182e-06
1.4666671e-06
1.8423362e-06
3.0005402e-06
3.942605e-06
3.6650198e-06
5.3832534e-06
4.0587996e-06
6.7550668e-06
4.2459871e-06
7.5783307e-06
4.3382618e-06
7.8833918e-06
4.3611898e-06
7.4852887e-06
4.3680479e-06
7.8323193e-06
1.2207972e-05
1.8013264e-05
1.5449859e-05
2.4071856e-05
1.6855052e-05
2.6641321e-05
1.7306846e-05
2.7900535e-05
1.7559187e-05
2.8550881e-05
1.7707638e-05
2.8875105e-05
1.7793826e-05
2.9058094e-05
1.8899522e-05
2.5445456e-05
2.1360573e-05
3.2287686e-05
2.2580348e-05
3.6008027e-05
2.3275367e-05
3.7786166e-05
2.361385e-05
3.8685952e-05
2.3836349e-05
3.9154069e-05
2.3969685e-05
3.9416238e-05
2.9046526e-05
3.8093911e-05
3.259125e-05
4.6326469e-05
3.4244815e-05
5.0959508e-05
3.545103e-05
5.348456e-05
3.6105067e-05
5.4884382e-05
3.6444609e-05
5.5672635e-05
3.665033e-05
5.6129168e-05
4.5239797e-05
5.4400299e-05
4.902217e-05
5.9937911e-05
5.0498612e-05
6.265826e-05
5.1631601e-05
6.3549852e-05
5.2293376e-05
6.4054168e-05
5.2674692e-05
6.4348758e-05
5.2900202e-05
6.4541027e-05
4.7054197e-05
5.2454811e-05
4.8499138e-05
5.4188953e-05
4.9765669e-05
5.4605537e-05
5.0631479e-05
5.4896299e-05
5.1147568e-05
5.5144369e-05
5.1455337e-05
5.5334587e-05
5.1643525e-05
5.5480977e-05
3.2981287e-05
3.3745013e-05
3.3180356e-05
3.3165169e-05
3.3741786e-05
3.2942229e-05
3.4172672e-05
3.2929517e-05
3.4435514e-05
3.2958818e-05
3.4599908e-05
3.3016798e-05
3.471307e-05
3.3088854e-05
9.3458313e-06
9.7313176e-06
8.902669e-06
8.5767513e-06
8.8156028e-06
7.8512779e-06
8.8073446e-06
7.487851e-06
8.7904742e-06
7.2661447e-06
8.7622154e-06
7.1300738e-06
8.7375741e-06
7.0569012e-06
1.1408657e-06
1.5043674e-06
1.0246688e-06
1.3825542e-06
9.4495984e-07
1.2204406e-06
8.9959569e-07
1.1059015e-06
8.7157687e-07
1.0356452e-06
8.5431583e-07
9.9653062e-07
8.4447481e-07
9.7668124e-07
3.5753071e-06
4.3985497e-06
3.4833899e-06
4.1525663e-06
3.4096512e-06
3.9672145e-06
3.3319091e-06
3.7795772e-06
3.223837e-06
3.5243498e-06
3.0369067e-06
3.0825213e-06
1.6711721e-05
1.7321557e-05
1.6662892e-05
1.7206068e-05
1.6626419e-05
1.7115363e-05
1.6590655e-05
1.7024621e-05
1.6538134e-05
1.6905316e-05
1.6464837e-05
1.6757526e-05
3.1166494e-05
2.9882495e-05
3.1154183e-05
2.9779969e-05
3.1144677e-05
2.971245e-05
3.1110546e-05
2.9617466e-05
3.1092566e-05
2.9491359e-05
3.1091825e-05
2.9402715e-05
3.4795638e-05
3.5432494e-05
3.4809911e-05
3.5470016e-05
3.4817552e-05
3.5421402e-05
3.4839925e-05
3.5285337e-05
3.4889293e-05
3.5030061e-05
3.5216279e-05
3.4579035e-05
2.8023609e-05
2.2978386e-05
2.817639e-05
2.5320462e-05
2.8069071e-05
2.6521017e-05
2.8130631e-05
2.7468237e-05
2.8557106e-05
2.7421709e-05
2.8515181e-05
2.7359454e-05
1.3742831e-05
6.1129915e-06
1.4010332e-05
5.9849622e-06
1.4895006e-05
5.7977661e-06
1.4240885e-05
5.6755294e-06
1.1748905e-05
5.6883733e-06
1.1927186e-05
5.7989199e-06
1.5737357e-06
8.5374658e-07
1.5716971e-06
8.0170919e-07
1.573546e-06
8.004422e-07
1.5987664e-06
7.9850824e-07
1.655185e-06
8.0020862e-07
1.7513924e-06
8.0986259e-07
3.741674e-07
2.1181577e-07
3.7403193e-07
2.0406506e-07
3.747747e-07
2.0576193e-07
3.8073405e-07
2.0687521e-07
3.9388811e-07
2.0849911e-07
4.1788604e-07
2.1180427e-07
2.3165535e-07
1.3814101e-07
2.3212802e-07
1.3679344e-07
2.3283313e-07
1.3921894e-07
2.3661045e-07
1.4134459e-07
2.4484483e-07
1.4340497e-07
2.6083936e-07
1.4589124e-07
2.1465879e-07
1.249426e-07
2.1527565e-07
1.2917572e-07
2.1601993e-07
1.3173224e-07
2.1925481e-07
1.3499629e-07
2.264018e-07
1.3762121e-07
2.4112201e-07
1.3978148e-07
2.1643061e-07
1.2492581e-07
2.1717172e-07
1.3013214e-07
2.1795073e-07
1.3325308e-07
2.2105971e-07
1.3773207e-07
2.280255e-07
1.4130125e-07
2.4274198e-07
1.4367489e-07
2.2428422e-07
1.3229658e-07
2.2510341e-07
1.3262594e-07
2.2580365e-07
1.3716298e-07
2.2878638e-07
1.4251565e-07
2.35523e-07
1.4714609e-07
2.4993087e-07
1.4978579e-07
2.3983135e-07
1.4356201e-07
2.409024e-07
1.4182569e-07
2.4153444e-07
1.4348768e-07
2.4445037e-07
1.499972e-07
2.5111986e-07
1.5567648e-07
2.6532378e-07
1.5896477e-07
2.6428465e-07
1.6020154e-07
2.6492062e-07
1.576883e-07
2.6577187e-07
1.5688756e-07
2.687101e-07
1.5990549e-07
2.7534215e-07
1.6677967e-07
2.8910917e-07
1.7071353e-07
3.0197054e-07
1.8468348e-07
3.030021e-07
1.8181421e-07
3.0428678e-07
1.8013251e-07
3.0731772e-07
1.8039827e-07
3.1390264e-07
1.8380399e-07
3.2726348e-07
1.8913764e-07
3.4854942e-07
2.1479316e-07
3.5100015e-07
2.1220106e-07
3.5263353e-07
2.0974028e-07
3.5572008e-07
2.0836337e-07
3.6195447e-07
2.0705131e-07
3.7404133e-07
2.0708906e-07
3.9757738e-07
2.4593725e-07
4.0143354e-07
2.4383631e-07
4.0295366e-07
2.4097576e-07
4.058058e-07
2.3903116e-07
4.1168083e-07
2.3720337e-07
4.2288378e-07
2.3599128e-07
4.4733166e-07
2.7891811e-07
4.5250329e-07
2.7699595e-07
4.5361124e-07
2.7345922e-07
4.5594385e-07
2.7099034e-07
4.6124293e-07
2.6884469e-07
4.7155369e-07
2.6760557e-07
4.9614725e-07
3.1242399e-07
5.0130291e-07
3.1015211e-07
5.0136376e-07
3.055531e-07
5.0275215e-07
3.0230632e-07
5.0745422e-07
2.995777e-07
5.1812342e-07
2.9765004e-07
5.3983621e-07
3.4591712e-07
5.4659597e-07
3.4393759e-07
5.4566837e-07
3.3787363e-07
5.4665406e-07
3.3366113e-07
5.531603e-07
3.3023556e-07
5.7285939e-07
3.2679374e-07
5.8134304e-07
3.8480874e-07
5.8956757e-07
3.8111761e-07
5.8943225e-07
3.7377119e-07
5.9885951e-07
3.6763792e-07
6.3400284e-07
3.6076738e-07
7.6384209e-07
3.4922157e-07
7.0256761e-07
4.2052439e-07
7.3276161e-07
4.1498916e-07
7.6838981e-07
4.0283301e-07
8.2301167e-07
3.9186382e-07
8.6227607e-07
3.8255537e-07
8.340327e-07
3.7589601e-07
8.9661831e-07
4.5220783e-07
9.1691081e-07
4.4884525e-07
9.4578627e-07
4.3538509e-07
9.8454662e-07
4.2461839e-07
9.8630005e-07
4.164485e-07
9.4879975e-07
4.1117833e-07
8.6339615e-07
4.7994911e-07
8.8418918e-07
4.7850741e-07
9.1047189e-07
4.6478183e-07
9.5592103e-07
4.5545911e-07
1.0078834e-06
4.497243e-07
9.6289018e-07
4.4976536e-07
8.3355514e-07
5.1963465e-07
8.6000455e-07
5.1810736e-07
8.8465051e-07
5.0426033e-07
9.2918586e-07
4.9734783e-07
9.7176656e-07
4.9760504e-07
9.2003689e-07
5.0839559e-07
9.3138502e-07
7.1404999e-07
9.5576369e-07
7.1457602e-07
9.9408633e-07
6.9811675e-07
1.0643277e-06
6.9176021e-07
1.1211525e-06
7.002254e-07
9.5525201e-07
7.3536787e-07
1.4962076e-06
1.8745796e-06
1.5358911e-06
1.8774179e-06
1.5782763e-06
1.8452274e-06
1.7354314e-06
1.845081e-06
1.5367581e-06
1.9048941e-06
1.6003295e-06
2.0459065e-06
4.4550837e-06
7.9031912e-06
4.5612389e-06
7.9395279e-06
4.5994204e-06
7.8519868e-06
4.6679051e-06
7.9013555e-06
4.7592555e-06
8.1865605e-06
4.9477826e-06
8.8149709e-06
1.7845628e-05
2.9167752e-05
1.7914864e-05
2.9293399e-05
1.7983244e-05
2.9407018e-05
1.8065011e-05
2.9533895e-05
1.8188958e-05
2.9715813e-05
1.8428865e-05
3.0055124e-05
2.4049589e-05
3.9634047e-05
2.4160711e-05
3.9881245e-05
2.4273046e-05
4.0109414e-05
2.4409857e-05
4.0370914e-05
2.4619525e-05
4.0751983e-05
2.5031155e-05
4.1454933e-05
3.6782441e-05
5.6406072e-05
3.6949888e-05
5.6684712e-05
3.7129505e-05
5.6951382e-05
3.7353886e-05
5.7262442e-05
3.7698587e-05
5.7718242e-05
3.8350268e-05
5.8575038e-05
5.3052073e-05
6.4704259e-05
5.3073406e-05
6.4920301e-05
5.3328634e-05
6.5052624e-05
5.3487546e-05
6.5160641e-05
5.3705902e-05
6.5227659e-05
5.4162991e-05
6.523972e-05
5.1766569e-05
5.5618558e-05
5.1852749e-05
5.579872e-05
5.1944123e-05
5.5906237e-05
5.2057301e-05
5.598505e-05
5.2221677e-05
5.6023484e-05
5.2539769e-05
5.6025621e-05
3.4799633e-05
3.3169445e-05
3.4853012e-05
3.3253034e-05
3.4906693e-05
3.3313141e-05
3.4967242e-05
3.3363824e-05
3.504517e-05
3.340421e-05
3.5173425e-05
3.3440229e-05
8.727914e-06
7.0268982e-06
8.7223822e-06
7.0117252e-06
8.7254136e-06
7.0088724e-06
8.7276913e-06
7.004627e-06
8.7227611e-06
6.9913635e-06
8.6882824e-06
6.9477442e-06
8.3880205e-07
9.6627814e-07
8.3185033e-07
9.5406477e-07
8.2534821e-07
9.4216182e-07
8.1672762e-07
9.2648989e-07
8.0169833e-07
8.9966788e-07
7.7262596e-07
8.463336e-07
2.7531066e-06
2.4791418e-06
2.5728121e-06
2.1915865e-06
2.5113449e-06
2.1487153e-06
2.4819332e-06
2.1341701e-06
2.4616426e-06
2.1273595e-06
2.4436218e-06
2.1286291e-06
1.634241e-05
1.655771e-05
1.6236674e-05
1.6432454e-05
1.6208641e-05
1.6408627e-05
1.6196543e-05
1.6431074e-05
1.6183678e-05
1.6420419e-05
1.6175912e-05
1.6424631e-05
3.1040646e-05
2.9443914e-05
3.0958721e-05
2.9455518e-05
3.0837183e-05
2.9396805e-05
3.0792903e-05
2.9518805e-05
3.0785534e-05
2.9607578e-05
3.0781935e-05
2.9634267e-05
3.5364447e-05
3.4669344e-05
3.5325e-05
3.4564573e-05
3.5165832e-05
3.4327284e-05
3.5305056e-05
3.4428766e-05
3.5222221e-05
3.5347729e-05
3.5099651e-05
3.5391977e-05
2.8294327e-05
2.7288871e-05
2.8125994e-05
2.7199283e-05
2.8092229e-05
2.7153629e-05
2.8076454e-05
2.7121476e-05
2.8070979e-05
2.7091258e-05
2.8076051e-05
2.7069809e-05
1.2802719e-05
5.9801551e-06
1.4219874e-05
6.2863763e-06
1.4381937e-05
6.4842229e-06
1.4073575e-05
6.5797581e-06
1.4583173e-05
6.5321133e-06
1.5919339e-05
6.6806104e-06
1.8521388e-06
8.242547e-07
2.0353238e-06
8.6110798e-07
2.0554792e-06
8.8455588e-07
2.0598502e-06
9.0135926e-07
2.0525546e-06
9.1102552e-07
2.0908352e-06
9.189084e-07
4.4810476e-07
2.1618929e-07
5.0094326e-07
2.261274e-07
5.0772845e-07
2.3222612e-07
5.1044505e-07
2.3632358e-07
5.1206445e-07
2.3821054e-07
5.1864639e-07
2.4127674e-07
2.8363138e-07
1.480147e-07
3.2077347e-07
1.5375445e-07
3.2642411e-07
1.5749439e-07
3.2899328e-07
1.6019506e-07
3.3078019e-07
1.6173669e-07
3.3605562e-07
1.6456579e-07
2.6368419e-07
1.3989769e-07
2.9806437e-07
1.4358873e-07
3.0289075e-07
1.4650025e-07
3.0502435e-07
1.4885111e-07
3.0646004e-07
1.5053134e-07
3.1117824e-07
1.5367615e-07
2.6622959e-07
1.4237021e-07
3.0021988e-07
1.4500748e-07
3.0413677e-07
1.4767141e-07
3.056199e-07
1.4997828e-07
3.0665199e-07
1.5167611e-07
3.1130169e-07
1.5493788e-07
2.7362658e-07
1.4743597e-07
3.0777864e-07
1.4923596e-07
3.1049693e-07
1.5161219e-07
3.1103683e-07
1.5377433e-07
3.1169198e-07
1.5531033e-07
3.1671895e-07
1.5839667e-07
2.8918556e-07
1.5632701e-07
3.257907e-07
1.576379e-07
3.2744298e-07
1.5962223e-07
3.2741869e-07
1.6146925e-07
3.2796417e-07
1.627368e-07
3.3207103e-07
1.6532124e-07
3.12441e-07
1.6871088e-07
3.469719e-07
1.7012062e-07
3.5532638e-07
1.7187431e-07
3.5473465e-07
1.7305863e-07
3.5557771e-07
1.7386286e-07
3.5953918e-07
1.7623024e-07
3.496614e-07
1.8765145e-07
3.6812593e-07
1.8885336e-07
3.7471085e-07
1.9114278e-07
3.7593449e-07
1.9198671e-07
3.794197e-07
1.9433941e-07
3.9164916e-07
1.9901292e-07
3.9570157e-07
2.0906347e-07
4.1363068e-07
2.1494943e-07
4.188424e-07
2.2009052e-07
4.1817452e-07
2.225345e-07
4.1974286e-07
2.2423884e-07
4.2912583e-07
2.2906275e-07
4.4432523e-07
2.3924774e-07
4.6262498e-07
2.4809507e-07
4.6770471e-07
2.5336921e-07
4.664362e-07
2.5501418e-07
4.6907835e-07
2.560902e-07
4.9555787e-07
2.6121279e-07
4.9389101e-07
2.718223e-07
5.1457634e-07
2.8114029e-07
5.3118967e-07
2.8541495e-07
5.4289085e-07
2.8513447e-07
5.5269211e-07
2.8439883e-07
5.6424006e-07
2.9049262e-07
5.5316287e-07
3.0231486e-07
6.0913565e-07
3.0910431e-07
6.0438482e-07
3.1145638e-07
5.9665801e-07
3.1187253e-07
5.9500213e-07
3.1154468e-07
6.0339888e-07
3.171262e-07
6.6881541e-07
3.266823e-07
6.4886133e-07
3.324674e-07
6.4154647e-07
3.3720854e-07
6.3165915e-07
3.3579471e-07
6.2841536e-07
3.3467801e-07
6.4156664e-07
3.417343e-07
7.1715434e-07
3.4996868e-07
6.9405019e-07
3.5826868e-07
6.849727e-07
3.6150607e-07
6.7256348e-07
3.5887693e-07
6.6928806e-07
3.5715476e-07
6.8681149e-07
3.6582506e-07
7.8415989e-07
3.807135e-07
7.5370779e-07
3.8786763e-07
7.4235464e-07
3.9027901e-07
7.2835505e-07
3.8507859e-07
7.2564521e-07
3.8211631e-07
7.4990019e-07
3.9377238e-07
8.8433592e-07
4.1845983e-07
8.4128156e-07
4.2721985e-07
8.2742099e-07
4.281822e-07
8.1296912e-07
4.2041464e-07
8.1307472e-07
4.1697261e-07
8.392853e-07
4.3107869e-07
9.0285855e-07
4.6353606e-07
9.240336e-07
4.72991e-07
9.1890349e-07
4.7073708e-07
9.0253457e-07
4.6160515e-07
9.0391291e-07
4.5867619e-07
9.3072181e-07
4.7779431e-07
9.0655566e-07
5.3110368e-07
1.0389466e-06
5.3789655e-07
1.0249005e-06
5.3097492e-07
1.0015067e-06
5.2237814e-07
1.0037911e-06
5.2081701e-07
1.0290956e-06
5.4621984e-07
1.0143073e-06
7.8713425e-07
1.248232e-06
8.0045996e-07
1.2355099e-06
7.8795328e-07
1.2100091e-06
7.7794784e-07
1.2083465e-06
7.7890558e-07
1.2334382e-06
8.2061881e-07
1.6926602e-06
2.2309163e-06
2.0501623e-06
2.3360436e-06
2.1881724e-06
2.3048954e-06
2.1801319e-06
2.2774123e-06
2.1836368e-06
2.2966406e-06
2.216961e-06
2.4245635e-06
5.3383186e-06
9.7232466e-06
6.2591488e-06
1.0352781e-05
7.0650102e-06
1.0238578e-05
7.0599025e-06
1.01112e-05
7.1128706e-06
1.0252986e-05
7.3122356e-06
1.0799775e-05
1.8817388e-05
3.0547111e-05
1.92799e-05
3.1071707e-05
1.9480253e-05
3.1225076e-05
1.9589288e-05
3.1289762e-05
1.9663797e-05
3.1325824e-05
1.9728741e-05
3.1348488e-05
2.5686626e-05
4.2349264e-05
2.6417981e-05
4.3323983e-05
2.6769857e-05
4.3640872e-05
2.6958001e-05
4.3790057e-05
2.7087624e-05
4.3884697e-05
2.7199574e-05
4.3957467e-05
3.9284545e-05
5.9895663e-05
4.0414371e-05
6.1529861e-05
4.0970495e-05
6.2124374e-05
4.1274657e-05
6.2431624e-05
4.1486693e-05
6.2643478e-05
4.166831e-05
6.2829505e-05
5.4963867e-05
6.5817429e-05
5.6145038e-05
6.706044e-05
5.6781545e-05
6.7479797e-05
5.7105447e-05
6.761868e-05
5.7177998e-05
6.7656054e-05
5.7437731e-05
6.769092e-05
5.3069093e-05
5.6638756e-05
5.3878346e-05
5.7853608e-05
5.4297395e-05
5.8299278e-05
5.4521523e-05
5.848512e-05
5.4674447e-05
5.8572233e-05
5.4805645e-05
5.8668001e-05
3.53889e-05
3.3767914e-05
3.5758475e-05
3.4427075e-05
3.5925237e-05
3.46842e-05
3.6014396e-05
3.4813841e-05
3.6080103e-05
3.4897038e-05
3.6143386e-05
3.4988475e-05
8.6135686e-06
6.8845028e-06
8.5789683e-06
6.8975735e-06
8.5668705e-06
6.9234077e-06
8.5522542e-06
6.9415088e-06
8.5331202e-06
6.9535929e-06
8.5094888e-06
6.9657264e-06
7.294938e-07
7.6195524e-07
6.9912086e-07
7.0116361e-07
6.8724285e-07
6.7985192e-07
6.7925749e-07
6.661099e-07
6.7243217e-07
6.5472713e-07
6.654039e-07
6.4306458e-07
2.4224581e-06
2.1415e-06
2.4092752e-06
2.1735065e-06
2.3987618e-06
2.2271221e-06
2.3951879e-06
2.3234893e-06
2.4021103e-06
2.5021337e-06
2.4412923e-06
2.8555103e-06
2.634553e-06
3.710992e-06
1.6150217e-05
1.6409002e-05
1.6142015e-05
1.6410479e-05
1.6127882e-05
1.6419882e-05
1.6105879e-05
1.6476103e-05
1.6101967e-05
1.657568e-05
1.6085921e-05
1.6717976e-05
1.6092284e-05
1.7053226e-05
3.0750256e-05
2.9610526e-05
3.0779238e-05
2.9668439e-05
3.0826536e-05
2.9752604e-05
3.0958712e-05
2.9950521e-05
3.1039958e-05
3.0228282e-05
3.114136e-05
3.0578018e-05
3.1338146e-05
3.1162371e-05
3.5107577e-05
3.5300594e-05
3.5172292e-05
3.5220429e-05
3.5255341e-05
3.5126408e-05
3.5366163e-05
3.496694e-05
3.5698315e-05
3.5191191e-05
3.5934703e-05
3.5568325e-05
3.6189369e-05
3.6415651e-05
2.8078914e-05
2.7084152e-05
2.8082195e-05
2.7111386e-05
2.8086423e-05
2.7168632e-05
2.8094663e-05
2.723898e-05
2.8113058e-05
2.7348525e-05
2.8164414e-05
2.7421802e-05
2.829326e-05
2.7414058e-05
1.5235766e-05
8.3816378e-06
1.4678645e-05
9.3295113e-06
1.477512e-05
1.0226243e-05
1.4901992e-05
9.2030236e-06
1.5497627e-05
8.3751417e-06
1.5911112e-05
9.6587772e-06
1.5949603e-05
1.113889e-05
2.2948363e-06
9.3599001e-07
2.2922424e-06
1.0530565e-06
2.2007772e-06
1.184771e-06
2.2570269e-06
1.1900263e-06
2.325361e-06
1.1311107e-06
2.5364099e-06
1.2872149e-06
2.7504651e-06
1.4539918e-06
5.2680244e-07
2.4661805e-07
5.3596242e-07
2.5404059e-07
5.4874512e-07
2.6316899e-07
5.607441e-07
2.7501367e-07
5.8334284e-07
2.9732635e-07
6.3589905e-07
3.4686161e-07
6.9521645e-07
4.0244649e-07
3.4220441e-07
1.6937295e-07
3.4809775e-07
1.7552987e-07
3.5610254e-07
1.8242468e-07
3.6417768e-07
1.9023745e-07
3.792155e-07
2.0866004e-07
4.1591848e-07
2.4699176e-07
4.6732784e-07
2.9498819e-07
3.1637881e-07
1.585023e-07
3.2123033e-07
1.6441211e-07
3.284056e-07
1.7118604e-07
3.3735342e-07
1.8210914e-07
3.5295629e-07
2.0232695e-07
3.9623442e-07
2.4366272e-07
4.5630481e-07
2.9818772e-07
3.1754655e-07
1.5969039e-07
3.2499314e-07
1.654222e-07
3.3482843e-07
1.7205416e-07
3.4524286e-07
1.8525409e-07
3.6342828e-07
2.0799145e-07
4.1078866e-07
2.5346027e-07
4.8020391e-07
3.1801385e-07
3.2491351e-07
1.6271958e-07
3.3296896e-07
1.6787295e-07
3.4399367e-07
1.7639136e-07
3.5658442e-07
1.9068877e-07
3.7783613e-07
2.1519796e-07
4.3021109e-07
2.6482514e-07
5.1455377e-07
3.4304722e-07
3.3847986e-07
1.6923507e-07
3.4722024e-07
1.7589609e-07
3.5986202e-07
1.8687343e-07
3.7527047e-07
2.0191501e-07
4.0090121e-07
2.2811737e-07
4.6040852e-07
2.8258216e-07
5.6139003e-07
3.7509307e-07
3.6235255e-07
1.8350661e-07
3.6763296e-07
1.9278005e-07
3.8164927e-07
2.0417548e-07
4.004681e-07
2.2013025e-07
4.3232715e-07
2.4902834e-07
5.0221578e-07
3.104252e-07
6.2793193e-07
4.1895611e-07
4.0095213e-07
2.0638118e-07
4.0468477e-07
2.1568739e-07
4.2059525e-07
2.2800865e-07
4.4363128e-07
2.4653614e-07
4.8363454e-07
2.8098111e-07
5.6874763e-07
3.5259147e-07
7.2511487e-07
4.8103049e-07
4.4006454e-07
2.3735627e-07
4.5509618e-07
2.462378e-07
4.684807e-07
2.5897352e-07
4.9665576e-07
2.7937046e-07
5.4709339e-07
3.1846707e-07
6.502228e-07
4.0178441e-07
8.385219e-07
5.5144186e-07
5.1567671e-07
2.6895238e-07
5.1645668e-07
2.7844128e-07
5.2232132e-07
2.9224983e-07
5.5331499e-07
3.1519443e-07
6.1364338e-07
3.5947296e-07
7.3602874e-07
4.5235388e-07
9.5845986e-07
6.2073998e-07
5.7173788e-07
3.0090792e-07
5.7179452e-07
3.1046966e-07
5.7652901e-07
3.2429954e-07
6.0648353e-07
3.4908235e-07
6.7385765e-07
3.9640582e-07
8.1153769e-07
4.9583556e-07
1.0590254e-06
6.7657602e-07
6.132941e-07
3.2853334e-07
6.192637e-07
3.4030347e-07
6.2183189e-07
3.5432118e-07
6.5217703e-07
3.7806235e-07
7.212347e-07
4.2522554e-07
8.6385564e-07
5.251137e-07
1.1296605e-06
7.133241e-07
6.5358771e-07
3.5447656e-07
6.5702622e-07
3.659727e-07
6.5867174e-07
3.7968412e-07
6.8992852e-07
4.0204967e-07
7.5651972e-07
4.4574013e-07
8.9586006e-07
5.4042013e-07
1.1639951e-06
7.254345e-07
6.9986644e-07
3.794215e-07
7.027271e-07
3.9080269e-07
7.0322694e-07
4.0418144e-07
7.2724811e-07
4.251964e-07
7.8913331e-07
4.6510279e-07
9.2171651e-07
5.5322278e-07
1.1881863e-06
7.3356143e-07
7.662431e-07
4.0965932e-07
7.6870838e-07
4.204836e-07
7.6824799e-07
4.3337891e-07
7.7758285e-07
4.5493815e-07
8.3724315e-07
4.9493429e-07
9.6763695e-07
5.8113583e-07
1.2332546e-06
7.6045378e-07
8.5881998e-07
4.4935997e-07
8.7089013e-07
4.6068798e-07
8.7376064e-07
4.7298477e-07
8.8122236e-07
4.9508115e-07
9.1054222e-07
5.3968965e-07
1.0455788e-06
6.3431761e-07
1.3290708e-06
8.2884573e-07
9.4947489e-07
5.0027749e-07
9.655248e-07
5.1228245e-07
9.72028e-07
5.260333e-07
9.8504489e-07
5.5145798e-07
1.0142335e-06
6.0354723e-07
1.1264944e-06
7.1484144e-07
1.4197334e-06
9.3855876e-07
1.0489265e-06
5.7449118e-07
1.0718487e-06
5.893485e-07
1.0840685e-06
6.0880768e-07
1.1059312e-06
6.4570598e-07
1.1470337e-06
7.1954166e-07
1.2358236e-06
8.7686628e-07
1.5451608e-06
1.1713707e-06
1.2518979e-06
8.6538442e-07
1.2782588e-06
8.8986023e-07
1.2932139e-06
9.2340184e-07
1.3226385e-06
9.8817895e-07
1.3802486e-06
1.1195737e-06
1.5084646e-06
1.3940925e-06
1.7609379e-06
1.8588881e-06
2.2450535e-06
2.5605826e-06
2.2937255e-06
2.6312415e-06
2.3264067e-06
2.7275702e-06
2.3939255e-06
2.9165373e-06
2.5240463e-06
3.3031825e-06
2.781823e-06
4.1917671e-06
3.1394978e-06
9.3282733e-06
7.4605475e-06
1.1351383e-05
7.604698e-06
1.1648875e-05
7.6959154e-06
1.2071635e-05
7.964684e-06
1.3005725e-05
8.5225548e-06
1.5009774e-05
9.5641278e-06
2.019246e-05
1.1001502e-05
2.494101e-05
1.9796875e-05
3.1354515e-05
1.9862257e-05
3.1372337e-05
1.9970513e-05
3.1408605e-05
2.0150353e-05
3.1461499e-05
2.0437983e-05
3.1514643e-05
2.0831418e-05
3.1480138e-05
2.1104277e-05
3.1113231e-05
2.7312698e-05
4.4012749e-05
2.7430152e-05
4.4081994e-05
2.7629525e-05
4.420817e-05
2.7968347e-05
4.4413945e-05
2.8525315e-05
4.4705784e-05
2.9325408e-05
4.4987548e-05
2.998972e-05
4.4808945e-05
4.1838824e-05
6.3018296e-05
4.2027886e-05
6.3210838e-05
4.2357457e-05
6.3544168e-05
4.2935647e-05
6.4117315e-05
4.3935367e-05
6.506671e-05
4.5509225e-05
6.6452432e-05
4.7071219e-05
6.7757231e-05
5.7473148e-05
6.772566e-05
5.7540755e-05
6.7746584e-05
5.7709358e-05
6.7830279e-05
5.8108039e-05
6.8052452e-05
5.9100597e-05
6.8682622e-05
6.1750175e-05
7.0550331e-05
6.7664457e-05
7.5358888e-05
5.4864245e-05
5.8862889e-05
5.4949802e-05
5.9063644e-05
5.5128462e-05
5.9413889e-05
5.5510625e-05
6.0070658e-05
5.6372266e-05
6.1353491e-05
5.8426152e-05
6.3869798e-05
6.324458e-05
6.7937066e-05
3.6161089e-05
3.5124106e-05
3.6201129e-05
3.5279255e-05
3.6290702e-05
3.5559076e-05
3.6491411e-05
3.6089954e-05
3.6989559e-05
3.7131934e-05
3.8309223e-05
3.9204932e-05
4.1596354e-05
4.2544234e-05
8.4811157e-06
6.9880846e-06
8.4582435e-06
7.0143947e-06
8.421236e-06
7.0606126e-06
8.3635599e-06
7.1399537e-06
8.2991965e-06
7.3005838e-06
8.3224204e-06
7.6412464e-06
8.7437987e-06
8.0945175e-06
6.5508651e-07
6.2648332e-07
6.4457541e-07
6.0829136e-07
6.2692839e-07
5.7703908e-07
5.9781155e-07
5.2455963e-07
5.528866e-07
4.4299133e-07
4.9640622e-07
3.376911e-07
4.6074841e-07
2.5510996e-07
2.8309142e-06
4.2381639e-06
2.8934652e-06
4.4390276e-06
2.7590701e-06
4.1269421e-06
2.7398409e-06
3.9399883e-06
1.5990793e-05
1.7165753e-05
1.5861714e-05
1.7220788e-05
1.5738368e-05
1.7284031e-05
1.692512e-05
1.9715283e-05
3.1490857e-05
3.1488467e-05
3.1848417e-05
3.1819486e-05
3.2835952e-05
3.2740868e-05
3.6543876e-05
3.6925456e-05
3.6599459e-05
3.6919134e-05
3.725356e-05
3.709772e-05
3.8915825e-05
3.8046e-05
4.387488e-05
4.2976673e-05
2.8219912e-05
2.7394806e-05
2.8401584e-05
2.7721143e-05
2.8727643e-05
2.8581903e-05
2.9606796e-05
3.0400288e-05
1.5753509e-05
1.2282338e-05
1.5728351e-05
1.3707975e-05
1.5681132e-05
1.6200712e-05
1.5899954e-05
1.6903241e-05
2.9729173e-06
1.5917106e-06
3.4112625e-06
1.8225083e-06
4.1490365e-06
2.3582872e-06
4.7634178e-06
2.9962562e-06
7.4596966e-07
4.4236868e-07
8.315703e-07
4.8812929e-07
9.6151704e-07
5.7942317e-07
1.0500101e-06
6.6325742e-07
5.0585774e-07
3.2844582e-07
5.5704949e-07
3.5918968e-07
6.3143998e-07
4.1242099e-07
7.0266151e-07
4.6796722e-07
5.0228817e-07
3.381249e-07
5.5261127e-07
3.707664e-07
6.1864285e-07
4.1895895e-07