/*--------------------------------*- C++ -*----------------------------------*\
| =========                 |                                                 |
| \\      /  F ield         | OpenFOAM: The Open Source CFD Toolbox           |
|  \\    /   O peration     | Version:  2206                                  |
|   \\  /    A nd           | Website:  www.openfoam.com                      |
|    \\/     M anipulation  |                                                 |
\*---------------------------------------------------------------------------*/
FoamFile
{
    version     2.0;
    format      ascii;
    arch        "LSB;label=32;scalar=64";
    class       volScalarField;
    location    "400";
    object      k;
}
// * * * * * * * * * * * * * * * * * * * * * * * * * * * * * * * * * * * * * //

dimensions      [0 2 -2 0 0 0 0];

internalField   nonuniform List<scalar> 
50904
(
23.37243
38.467906
24.604827
42.382326
21.867702
25.489549
20.656445
23.169525
16.857812
15.807134
15.593093
14.337303
9.7963302
8.428337
8.9134724
7.5736553
3.578288
3.0469808
3.1507966
2.6525945
0.73875378
0.64928257
0.63705661
0.54238094
0.1120829
0.097500225
0.094800279
0.080620248
0.024010241
0.021436674
0.021177069
0.018851708
0.011866855
0.011443046
0.011423265
0.011062045
0.01016769
0.010095673
0.010108482
0.010044189
0.0099732551
0.0099449954
0.0099658965
0.0099369871
0.0099599979
0.0099381267
0.0099578457
0.0099342379
0.0099635698
0.0099449412
0.0099617628
0.0099411674
0.0099690051
0.0099534496
0.0099672364
0.0099495533
0.0099752783
0.0099627375
0.0099736757
0.0099588261
0.0099815242
0.0099717094
0.0099802095
0.0099680189
0.0099867871
0.0099791727
0.0099857853
0.00997582
0.0099912342
0.0099853878
0.0099904884
0.0099823666
0.0099947556
0.0099903754
0.0099942755
0.0099876495
0.0099975142
0.0099942961
0.0099973382
0.0099919055
0.0099995805
0.0099972831
0.0099995996
0.0099951905
0.010000952
0.0099993892
0.010001169
0.0099977787
0.010001682
0.010000834
0.010002299
0.010000799
0.010002885
0.010004029
0.010006287
0.010013513
0.010012746
0.010025183
0.010038082
0.010097526
0.010101697
0.010185096
0.010286822
0.010658215
0.010845508
0.011353183
0.012047397
0.014147796
0.016425179
0.019467426
0.023144818
0.034050133
0.05242281
0.070456314
0.08512764
0.13840531
0.2650095
0.37056637
0.39225088
0.61137997
1.3389485
1.8871829
1.7249493
2.5352233
5.2145703
6.6906313
6.1255886
7.6878786
12.242834
13.481112
12.699215
13.575492
16.709653
17.274331
16.116047
16.175086
11.546552
12.120047
10.062809
10.554442
5.570408
5.8106138
5.0300724
5.67518
23.361934
41.206469
19.605741
33.219506
17.398768
26.420663
16.084482
22.668842
15.253624
20.324863
14.68553
18.74971
14.253457
17.574932
19.198506
21.384737
18.128178
20.075773
17.87432
19.601799
17.751463
19.367889
17.68422
19.248601
17.642051
19.174253
17.61133
19.12172
15.013983
13.911418
14.8143
14.051411
14.88668
14.154177
14.921457
14.165495
14.940934
14.184472
14.951609
14.199263
14.962164
14.212936
8.5414141
7.3462919
8.2943154
7.1945987
8.2827588
7.1290338
8.2668834
7.0726
8.2549979
7.0464048
8.2480425
7.0335439
8.2429605
7.0264414
3.0006491
2.5336316
2.8655805
2.4138143
2.8350037
2.3626954
2.8101662
2.3248678
2.7951386
2.3023438
2.7854971
2.2874802
2.7782032
2.2771406
0.59514606
0.50428626
0.55042786
0.46544283
0.53760749
0.45094989
0.52826066
0.44152029
0.52234683
0.43628335
0.51846815
0.43305078
0.51604073
0.4308329
0.087660033
0.074220705
0.079260426
0.067004512
0.076699775
0.064451369
0.075250588
0.063087086
0.074451946
0.062442417
0.073962439
0.06209422
0.07359312
0.061871274
0.0199528
0.017786876
0.018538157
0.01654378
0.018104858
0.016194126
0.017889187
0.016041002
0.017778215
0.015975518
0.017713552
0.015942278
0.017670547
0.0159214
0.011244107
0.010913451
0.011057385
0.010761065
0.011004231
0.010732555
0.010980366
0.010722792
0.010968936
0.010720055
0.01096259
0.01071923
0.01095848
0.01071887
0.010087599
0.010028081
0.010076453
0.010027981
0.010076553
0.010040603
0.010077985
0.010047767
0.010079246
0.010052017
0.010080203
0.010054775
0.01008092
0.010056721
0.0099663619
0.0099380467
0.0099772617
0.0099560272
0.0099839681
0.0099732422
0.0099884083
0.0099820071
0.0099911617
0.009986808
0.0099929693
0.0099898551
0.0099942391
0.0099920009
0.0099599025
0.0099362404
0.0099718222
0.00995416
0.0099788574
0.0099710388
0.0099834572
0.0099795048
0.0099862829
0.0099841067
0.0099881234
0.0099870462
0.0099894009
0.0099891099
0.009963633
0.009942656
0.009974672
0.0099589412
0.0099813096
0.009974754
0.0099857196
0.0099826157
0.009988414
0.0099869897
0.0099901453
0.0099897791
0.0099913341
0.0099916841
0.0099688284
0.0099505346
0.0099787556
0.0099651625
0.0099850155
0.0099796814
0.0099891919
0.0099869988
0.0099917153
0.0099911536
0.0099933167
0.0099937669
0.009994404
0.0099955186
0.0099750496
0.0099593504
0.0099837288
0.0099723395
0.0099895828
0.0099854812
0.0099934794
0.0099922737
0.0099958003
0.0099961616
0.0099972568
0.0099985682
0.0099982247
0.010000152
0.0099815524
0.0099683954
0.0099891077
0.0099801132
0.0099944755
0.0099918794
0.0099980134
0.0099980497
0.010000105
0.010001581
0.010001398
0.010003741
0.010002235
0.010005132
0.0099871917
0.009976282
0.0099938588
0.0099871502
0.009998756
0.0099976298
0.010001948
0.010003153
0.010003823
0.010006314
0.010004967
0.010008226
0.010005691
0.010009429
0.0099919676
0.009983044
0.0099979234
0.0099932835
0.010002385
0.010002571
0.010005257
0.01000747
0.010006933
0.010010278
0.010007943
0.010011958
0.010008572
0.010012998
0.0099958988
0.009988719
0.010001353
0.0099984909
0.010005379
0.010006716
0.010007935
0.010011017
0.010009417
0.010013482
0.010010302
0.010014949
0.010010856
0.010015859
0.0099990503
0.0099933739
0.010004095
0.010002682
0.010007709
0.010009973
0.010009973
0.010013757
0.010011283
0.010015938
0.010012067
0.010017239
0.010012559
0.010018051
0.010001367
0.0099969673
0.010006041
0.010005759
0.010009311
0.010012318
0.01001134
0.010015722
0.010012509
0.010017708
0.010013207
0.010018909
0.010013645
0.010019648
0.010002971
0.0099998558
0.010007337
0.010008383
0.010010341
0.010014521
0.010012178
0.010017731
0.010013229
0.010019612
0.010013855
0.010020746
0.010014247
0.010021447
0.010004482
0.010004506
0.010008976
0.010015017
0.010011986
0.010022169
0.010013807
0.01002589
0.010014835
0.01002804
0.01001545
0.010029319
0.010015833
0.010030097
0.010012069
0.010030227
0.010020186
0.010059378
0.010025081
0.010077818
0.010028042
0.010087387
0.010029722
0.010092626
0.01003071
0.010095631
0.010031318
0.010097439
0.010072741
0.010208172
0.010110503
0.010378432
0.010130813
0.010485473
0.010143022
0.010541442
0.010149797
0.010570452
0.010153643
0.010586202
0.010155915
0.01059524
0.010529781
0.011399927
0.010781914
0.012576454
0.010915018
0.013336586
0.010998516
0.0137552
0.011046113
0.013978789
0.011073384
0.014100607
0.011089401
0.014169923
0.013600703
0.018673425
0.015161815
0.026005327
0.015962925
0.030711605
0.016474338
0.033351658
0.01677729
0.034795095
0.016956737
0.035588362
0.017064433
0.036041135
0.031762389
0.057720707
0.040030372
0.095652693
0.044018087
0.11839297
0.046378316
0.13074937
0.047721788
0.13737042
0.048493026
0.14087944
0.048941326
0.1427724
0.1268427
0.24279765
0.16592895
0.40493788
0.18450734
0.49902233
0.19504723
0.54823178
0.20090508
0.57467905
0.20430675
0.58825524
0.20626387
0.5959844
0.55347467
0.9643913
0.69953787
1.492436
0.77089948
1.8079766
0.81177202
1.9615115
0.8317544
2.0403153
0.84515884
2.0817835
0.8532212
2.1050986
2.2526624
3.3621138
2.6927234
4.5892536
2.8922009
5.354642
3.0426861
5.7687458
3.1239329
5.995345
3.1648821
6.1215882
3.1897192
6.1944661
7.1109265
8.655129
8.0426809
10.162958
8.5118789
11.210988
8.7844045
11.79594
8.9432031
12.122774
9.0352386
12.306178
9.0890607
12.411716
13.225742
13.702406
13.922359
14.484091
14.405278
15.299182
14.704146
15.858769
14.884636
16.182965
14.991406
16.367481
15.054964
16.475113
15.690474
15.218015
15.71964
14.746852
15.968644
14.844396
16.164181
15.060048
16.294508
15.206436
16.376616
15.297288
16.429372
15.357124
9.0746589
9.4295572
8.4210002
7.9927368
8.2450373
7.1758985
8.1870623
6.7835019
8.1469862
6.5658453
8.1133186
6.4470874
8.092159
6.3890534
4.6304699
6.0865248
4.1154783
5.5052783
3.7759339
4.8186586
3.5848647
4.3462538
3.4677475
4.0594792
3.3956358
3.8999711
3.3540253
3.8182306
13.886122
16.603662
13.516178
15.641145
13.21967
14.91806
12.906582
14.186839
12.470161
13.192994
11.713874
11.478247
17.585199
19.079526
17.557183
19.034292
17.539481
19.003894
17.52341
18.975134
17.500384
18.933705
17.447828
18.839345
14.971825
14.224652
14.982807
14.237365
14.991298
14.246472
14.999294
14.254571
15.007715
14.262069
15.009866
14.259913
8.2390361
7.0208678
8.2371899
7.0185548
8.2347935
7.0171556
8.231622
7.0162246
8.2268616
7.0159739
8.2181319
7.0166413
2.7723015
2.2667172
2.7670715
2.2569207
2.7625223
2.250743
2.7570379
2.2445867
2.7483047
2.2363181
2.7285891
2.2237499
0.5141979
0.42971448
0.5126748
0.42925335
0.51157056
0.4287582
0.51050816
0.42812041
0.50889825
0.42707857
0.50521848
0.42509216
0.07329261
0.061693871
0.07300568
0.061542312
0.072781463
0.06142785
0.072535152
0.061316058
0.072197895
0.0611668
0.071647655
0.060892254
0.017637843
0.015904755
0.017607717
0.01588984
0.017584414
0.015878714
0.017559999
0.015867381
0.017525381
0.015851676
0.017459062
0.015821951
0.010955368
0.010718507
0.010952428
0.010718211
0.010950052
0.01071789
0.01094751
0.010717539
0.010943866
0.010717085
0.010936861
0.010716308
0.01008148
0.010058211
0.010082032
0.010059691
0.010082418
0.010060741
0.0100828
0.010061796
0.010083307
0.010063295
0.010084211
0.01006621
0.0099952123
0.0099936273
0.0099961519
0.0099952344
0.0099968442
0.0099963986
0.0099975458
0.0099975689
0.0099985079
0.0099992267
0.010000279
0.010002447
0.0099903642
0.0099906458
0.0099912957
0.009992162
0.0099919831
0.0099932671
0.009992682
0.0099943817
0.009993645
0.0099959585
0.0099954223
0.0099990335
0.0099922117
0.0099930873
0.0099930681
0.0099944813
0.0099937005
0.0099954908
0.0099943464
0.0099965091
0.0099952346
0.0099979426
0.0099968796
0.010000748
0.0099951863
0.0099967816
0.0099959439
0.0099980282
0.0099965072
0.0099989344
0.0099970844
0.0099998441
0.0099978822
0.010001116
0.0099993615
0.010003602
0.0099989009
0.01000126
0.0099995441
0.010002336
0.010000027
0.010003125
0.010000527
0.010003919
0.010001222
0.010005019
0.010002513
0.010007149
0.010002804
0.010006078
0.010003342
0.010006986
0.010003751
0.010007661
0.010004177
0.010008345
0.010004772
0.010009288
0.010005879
0.010011087
0.01000617
0.010010223
0.010006625
0.010010988
0.010006976
0.010011562
0.010007346
0.010012149
0.010007863
0.010012963
0.010008825
0.010014514
0.010008978
0.010013667
0.01000937
0.010014319
0.010009677
0.010014814
0.010010002
0.010015325
0.010010459
0.010016037
0.010011306
0.010017394
0.010011212
0.010016441
0.010011555
0.010017009
0.010011827
0.010017445
0.010012117
0.010017898
0.010012527
0.010018532
0.010013285
0.010019741
0.010012877
0.010018575
0.010013182
0.010019083
0.010013426
0.010019476
0.010013689
0.01001989
0.010014063
0.010020472
0.010014763
0.010021589
0.010013929
0.010020127
0.0100142
0.010020599
0.010014419
0.010020967
0.010014658
0.010021359
0.010015007
0.010021913
0.01001569
0.010022974
0.010014501
0.010021898
0.010014749
0.010022339
0.010014954
0.01002269
0.010015189
0.010023068
0.01001554
0.010023605
0.010016212
0.010024636
0.010016077
0.01003059
0.01001632
0.010031082
0.010016529
0.010031488
0.010016771
0.010031937
0.010017141
0.010032585
0.01001785
0.01003383
0.010031704
0.010098574
0.010032109
0.010099753
0.010032471
0.01010078
0.010032896
0.010101944
0.010033542
0.010103658
0.010034798
0.010106992
0.010157324
0.010600731
0.010159005
0.010606942
0.010160587
0.010612518
0.010162477
0.010618887
0.010165366
0.010628326
0.010171004
0.010646636
0.011099228
0.014211501
0.011110717
0.014256504
0.011121749
0.014296913
0.011135036
0.014343113
0.011155385
0.014411604
0.011195186
0.014543983
0.017131193
0.036311698
0.017209058
0.036611838
0.017284543
0.036882383
0.017375911
0.037192796
0.017516469
0.037654592
0.017793398
0.038550915
0.049210812
0.14388347
0.049592592
0.14524131
0.049973591
0.14650187
0.050438925
0.14795512
0.051157093
0.15010948
0.05257305
0.1542753
0.20742337
0.60062821
0.20919364
0.60637166
0.21101045
0.61178376
0.21324562
0.61802602
0.21669286
0.62718348
0.22345214
0.64461611
0.85804949
2.1249441
0.86535018
2.1487532
0.87290658
2.1712924
0.88228627
2.1976228
0.89686699
2.2365994
0.92591277
2.3098503
3.2058497
6.2385485
3.2285732
6.2863318
3.2533588
6.3326894
3.2847214
6.3870985
3.3334565
6.4668802
3.4264607
6.6162387
9.1220581
12.476132
9.1597013
12.54001
9.2005336
12.60096
9.2511999
12.671876
9.3292114
12.775802
9.479445
12.972749
15.09455
16.541248
15.134358
16.602895
15.173177
16.659775
15.220222
16.724206
15.291662
16.817339
15.429202
16.993763
16.465287
15.398671
16.498538
15.438549
16.528174
15.474027
16.561287
15.512134
16.608489
15.565035
16.694166
15.663357
8.0834933
6.3628043
8.0789583
6.3436435
8.0756086
6.3271402
8.06902
6.3057638
8.0540343
6.2709933
8.0152773
6.2037722
3.3297903
3.7745281
3.3056406
3.7292055
3.2827463
3.6844845
3.2516053
3.6247445
3.196471
3.5216518
3.0871357
3.3143054
10.571292
9.1690586
9.848608
8.0775862
9.6029057
7.9109334
9.4851415
7.8533281
9.403591
7.8252958
9.3304143
7.8269311
17.291733
18.533392
17.171205
18.280832
17.133521
18.203273
17.116065
18.164971
17.105908
18.147178
17.095139
18.129116
14.975788
14.204474
14.948435
14.152232
14.935348
14.115724
14.928345
14.09106
14.922472
14.077735
14.914526
14.068498
8.1870405
7.0063873
8.1582569
6.9968824
8.1429664
6.9859114
8.1361125
6.9782385
8.1317402
6.9729709
8.1277438
6.9742429
2.6887722
2.2113956
2.6558353
2.1969546
2.6469993
2.1890576
2.6426199
2.1835993
2.6404721
2.1786918
2.6404771
2.1752422
0.49738588
0.42048
0.4876768
0.41530355
0.48538882
0.41393261
0.48431415
0.41323732
0.48360438
0.41275187
0.48308663
0.41225996
0.070387894
0.060208227
0.069178051
0.059538287
0.068797049
0.059343318
0.068615592
0.059247107
0.068498576
0.05918107
0.068383677
0.059119009
0.017304577
0.015749618
0.017159211
0.015679124
0.01711016
0.01565876
0.01708676
0.015649546
0.017071276
0.01564376
0.017057438
0.015638859
0.010920489
0.01071343
0.010904479
0.010708192
0.010898822
0.01070627
0.010896069
0.010705288
0.010894229
0.010704623
0.010892574
0.010704014
0.010085799
0.01007224
0.010086612
0.010075979
0.010086833
0.010077001
0.010086931
0.010077433
0.010086999
0.010077708
0.010087063
0.010077944
0.010003876
0.010009404
0.010006627
0.010014377
0.010007548
0.010015874
0.010007992
0.010016553
0.010008297
0.010017004
0.010008579
0.010017414
0.009999093
0.010005806
0.010002007
0.010010906
0.010003016
0.010012513
0.010003511
0.010013258
0.010003853
0.010013761
0.010004174
0.010014226
0.010000297
0.010007004
0.010003071
0.010011877
0.01000406
0.01001346
0.010004554
0.010014206
0.010004899
0.010014713
0.010005227
0.010015187
0.010002421
0.010009137
0.010004942
0.010013551
0.01000587
0.010015023
0.01000634
0.010015722
0.010006674
0.010016197
0.010006992
0.010016644
0.010005141
0.010011818
0.01000733
0.010015597
0.010008165
0.010016906
0.010008591
0.010017533
0.010008895
0.010017963
0.010009184
0.010018376
0.010008082
0.010014935
0.010009935
0.010018076
0.010010669
0.010019199
0.010011047
0.01001975
0.010011318
0.010020131
0.010011577
0.010020495
0.010010687
0.010017752
0.010012261
0.010020411
0.010012904
0.010021392
0.010013237
0.010021877
0.010013476
0.010022216
0.010013709
0.010022543
0.010012907
0.010020167
0.010014278
0.01002249
0.01001485
0.010023364
0.010015149
0.010023797
0.010015367
0.010024098
0.01001558
0.010024388
0.010014711
0.010022185
0.010015989
0.01002435
0.010016504
0.010025112
0.010016774
0.010025488
0.010016968
0.010025751
0.010017155
0.010026004
0.010016085
0.010023804
0.010017355
0.010025916
0.010017819
0.010026585
0.010018061
0.010026919
0.010018236
0.010027154
0.010018408
0.010027385
0.010016962
0.010025003
0.010018226
0.010027096
0.010018651
0.010027704
0.010018873
0.010028008
0.010019036
0.010028224
0.010019196
0.01002844
0.010017401
0.010026546
0.010018642
0.010028646
0.010019054
0.010029238
0.01001927
0.010029536
0.010019431
0.010029751
0.010019591
0.010029966
0.010019062
0.010036031
0.010020344
0.010038548
0.010020792
0.010039293
0.010021028
0.010039666
0.010021202
0.010039929
0.010021369
0.01004018
0.010036915
0.010112594
0.010039249
0.010119489
0.010040157
0.010121736
0.010040633
0.010122859
0.010040967
0.010123627
0.010041273
0.010124339
0.010180156
0.01067526
0.01019025
0.010709209
0.01019447
0.010720364
0.010196612
0.010725731
0.01019803
0.010729217
0.010199236
0.01073217
0.011257718
0.014745489
0.0113269
0.014976399
0.01135573
0.015049516
0.011369796
0.015083112
0.011378662
0.01510379
0.011385591
0.015119657
0.01824079
0.039950356
0.018776823
0.041604553
0.019016831
0.042158188
0.019140076
0.042420546
0.019221943
0.042589114
0.019290929
0.042727611
0.054832768
0.16047649
0.057546767
0.16765729
0.058852122
0.17007486
0.059552484
0.171189
0.060026595
0.17187225
0.060433512
0.17238452
0.23397236
0.66920583
0.24613707
0.69649701
0.25206995
0.70563931
0.2552804
0.70967244
0.2574332
0.71198068
0.25922864
0.71345729
0.97171899
2.4014888
1.0227247
2.5035251
1.0494475
2.5397562
1.0637953
2.5569724
1.0735872
2.5678075
1.0818817
2.5759688
3.5584803
6.8357411
3.7168809
7.0998511
3.8005764
7.198539
3.8469279
7.2486533
3.8792192
7.2822029
3.9068034
7.3102386
9.702813
13.281244
9.9793469
13.672856
10.127522
13.81869
10.209486
13.893583
10.266686
13.945148
10.316977
13.990953
15.649145
17.300088
15.935308
17.717364
16.074933
17.871024
16.150736
17.952165
16.203876
18.01006
16.251559
18.06491
16.842576
15.868532
17.051036
16.191779
17.139527
16.315154
17.185493
16.382993
17.21767
16.433383
17.249031
16.484998
7.9538025
6.1298781
7.9242911
6.1260616
7.9041867
6.1329649
7.8846119
6.136799
7.8665171
6.1400513
7.8496315
6.1462218
2.9242915
2.9870696
2.8110694
2.7523903
2.7659965
2.6696755
2.7349142
2.6158534
2.707622
2.5707544
2.6789631
2.5241372
9.2601798
7.8865609
9.2063838
8.0043546
9.1649422
8.2046379
9.1544751
8.5690519
9.1926449
9.2520856
9.374919
10.623903
10.228901
14.059489
17.076797
18.097483
17.051627
18.053573
17.025064
17.999371
16.991606
17.92218
16.937071
17.818857
16.859537
17.696308
16.747687
17.55549
14.903214
14.056215
14.894976
14.045025
14.886035
14.027773
14.876039
13.997594
14.857536
13.935916
14.835326
13.823912
14.82655
13.623177
8.1238246
6.9802834
8.1252455
6.991956
8.1283456
7.0031892
8.1350302
7.0141871
8.1496898
7.0227888
8.1756004
7.0180992
8.2474246
6.996028
2.6408865
2.1775487
2.6428791
2.1832619
2.645681
2.1934985
2.6504758
2.2062517
2.660003
2.2255289
2.682156
2.2405995
2.7378722
2.2514097
0.48336828
0.41176816
0.4833892
0.41221932
0.48362866
0.41305278
0.48425991
0.41447753
0.48570612
0.41572206
0.48924436
0.41642012
0.49758933
0.41826194
0.068225196
0.059038776
0.068158246
0.058964266
0.068120842
0.058908451
0.068078866
0.058886067
0.068072724
0.058865075
0.06813049
0.058717152
0.06845344
0.058512665
0.017041602
0.015633669
0.017031358
0.015631576
0.017022602
0.01562885
0.01701447
0.015624478
0.017007343
0.015617063
0.01700505
0.015602465
0.017013947
0.015562584
0.010890665
0.010703294
0.010889357
0.010702834
0.010888178
0.010702222
0.010886926
0.010701226
0.010885528
0.010699376
0.01088394
0.010695331
0.010880928
0.010684087
0.010087135
0.010078206
0.010087197
0.010078382
0.010087267
0.010078486
0.010087328
0.010078459
0.010087356
0.01007811
0.010087191
0.010076795
0.010085571
0.010071922
0.01000892
0.010017905
0.010009203
0.01001828
0.010009503
0.010018619
0.010009838
0.010018902
0.010010235
0.010019038
0.010010601
0.010018589
0.010009863
0.010015333
0.010004569
0.010014798
0.01000491
0.010015257
0.010005288
0.01001571
0.010005735
0.010016165
0.010006303
0.010016593
0.010006947
0.01001666
0.010006676
0.010014239
0.010005634
0.010015772
0.010006
0.010016268
0.010006422
0.010016792
0.010006945
0.010017387
0.010007635
0.010018056
0.01000848
0.010018503
0.010008525
0.010016733
0.010007389
0.010017203
0.010007759
0.010017708
0.010008205
0.010018288
0.010008781
0.010018991
0.010009567
0.01001984
0.01001056
0.010020556
0.010010805
0.010019225
0.010009544
0.0100189
0.010009895
0.010019393
0.010010341
0.010019997
0.010010942
0.010020773
0.010011787
0.010021762
0.010012866
0.010022672
0.010013206
0.010021637
0.010011896
0.010020958
0.010012214
0.010021412
0.010012642
0.010021997
0.010013242
0.010022789
0.010014102
0.01002383
0.010015183
0.010024814
0.010015486
0.010023915
0.010013995
0.01002295
0.010014279
0.010023341
0.010014678
0.01002388
0.010015253
0.010024642
0.010016087
0.010025669
0.010017121
0.010026651
0.010017357
0.010025827
0.01001584
0.010024751
0.010016088
0.010025091
0.010016451
0.010025581
0.010016986
0.010026291
0.010017771
0.010027274
0.010018738
0.01002822
0.010018931
0.010027507
0.010017389
0.01002633
0.010017615
0.010026637
0.010017939
0.010027076
0.010018418
0.010027713
0.010019122
0.010028606
0.010020008
0.01002952
0.010020259
0.010029042
0.010018625
0.010027688
0.010018833
0.010027972
0.010019123
0.010028366
0.010019544
0.010028926
0.010020165
0.01002972
0.010020983
0.010030609
0.01002136
0.010030419
0.010019402
0.010028726
0.010019595
0.010028989
0.010019857
0.010029341
0.010020229
0.010029832
0.010020781
0.010030533
0.010021546
0.010031393
0.010022074
0.010031496
0.010019789
0.010030242
0.01001996
0.01003048
0.010020199
0.010030802
0.010020543
0.010031256
0.01002106
0.010031919
0.01002181
0.010032785
0.010022465
0.010033113
0.010021568
0.010040487
0.010021734
0.010040744
0.010021971
0.010041103
0.010022325
0.010041624
0.01002287
0.010042406
0.010023664
0.010043468
0.010024397
0.010044104
0.010041619
0.010125184
0.010041879
0.010125783
0.010042249
0.010126652
0.010042813
0.010127982
0.010043672
0.010130049
0.010044839
0.010133002
0.01004555
0.010135378
0.010200479
0.010735137
0.010201551
0.010738253
0.010203153
0.010743105
0.010205651
0.010750896
0.010209432
0.010763357
0.010214117
0.010781244
0.010214777
0.01079475
0.011391643
0.015131894
0.011398247
0.015148267
0.011408636
0.015175405
0.011425109
0.015219934
0.011449675
0.015289693
0.011476742
0.01537805
0.011463668
0.015384742
0.019361113
0.042861462
0.019409394
0.042930546
0.019487086
0.043051846
0.019613229
0.043251766
0.019803605
0.043550348
0.020014381
0.043828544
0.019942889
0.043246389
0.060861499
0.172765
0.061181618
0.17306733
0.061713918
0.17362276
0.062599385
0.17447915
0.063998717
0.17557179
0.065790614
0.176035
0.066356793
0.17223888
0.26098846
0.71397411
0.26265107
0.71492504
0.26549174
0.71687645
0.27026534
0.71972341
0.27790385
0.722525
0.28800519
0.72035421
0.29300743
0.70116557
1.0900794
2.5819643
1.0985471
2.5892496
1.1131155
2.602514
1.1381579
2.6239758
1.1798986
2.6537487
1.2407332
2.6805393
1.2911351
2.6601193
3.932996
7.3365738
3.9621263
7.3656674
4.0131036
7.4166279
4.1032295
7.5028868
4.2615596
7.6409659
4.5180006
7.8307496
4.7848941
8.0037383
10.365739
14.039865
10.416035
14.089929
10.503472
14.17614
10.660607
14.328028
10.944542
14.594095
11.445793
15.046192
12.187863
15.748712
16.303115
18.131285
16.354154
18.19718
16.442075
18.311213
16.601815
18.517634
16.900594
18.897671
17.466513
19.601235
18.470078
20.725582
17.290699
16.557281
17.330446
16.628529
17.400889
16.755619
17.535391
16.993689
17.81562
17.458735
18.43534
18.388974
19.717944
19.980614
7.8346337
6.1622947
7.8205449
6.1792141
7.7979442
6.2083262
7.7672671
6.2637193
7.7536424
6.3897833
7.8720415
6.697333
8.46188
7.2655044
2.6447323
2.4654792
2.608259
2.3994654
2.5454523
2.2840438
2.4414141
2.0886862
2.2827526
1.7837977
2.0944896
1.390848
2.0279637
1.0985265
11.121151
16.359579
11.552793
17.530789
11.270378
16.789396
11.571883
16.661661
16.632359
17.602192
16.581642
17.857537
16.70264
18.518432
18.370245
21.501862
14.918632
13.638703
15.226895
13.986044
16.008446
15.134928
17.911811
17.700971
8.45129
7.136208
8.8271439
7.4865618
9.5491551
8.3822082
10.765995
10.000277
2.8198844
2.315167
2.9753705
2.4655961
3.2405421
2.8138018
3.593703
3.3702963
0.50773258
0.42773174
0.53377992
0.45549359
0.5728193
0.51569692
0.60932961
0.59751385
0.068743682
0.05894157
0.071016274
0.061554386
0.073461226
0.066535162
0.072934142
0.070792201
0.016956398
0.015528097
0.017085023
0.015685208
0.017030496
0.015866039
0.016216973
0.01549923
0.01085664
0.01066206
0.010848065
0.010656898
0.010785017
0.01062397
0.010578204
0.010477374
0.010078504
0.010061887
0.010072598
0.010053508
0.010059548
0.010040663
0.010030037
0.010014685
0.01000633
0.010008175
0.010002297
0.01000093
0.009997324
0.0099928691
0.0099899575
0.0099829923
0.010003941
0.010007989
0.010000317
0.01000127
0.0099959896
0.0099937463
0.0099900483
0.0099849294
0.010006147
0.010011115
0.010002735
0.010004916
0.0099984516
0.0099977274
0.0099924422
0.0099890106
0.010008659
0.01001417
0.010005532
0.010008666
0.010001448
0.010002112
0.0099954669
0.009993734
0.010011282
0.010017195
0.010008493
0.010012426
0.010004714
0.010006593
0.0099989158
0.009998804
0.010013658
0.010019931
0.010011096
0.01001572
0.01000758
0.010010526
0.010002054
0.010003447
0.010015609
0.010022211
0.010013198
0.010018384
0.010009896
0.010013691
0.010004655
0.010007218
0.010017271
0.010024189
0.010014962
0.010020622
0.010011801
0.010016277
0.010006747
0.010010246
0.010018708
0.010026018
0.010016517
0.010022703
0.010013425
0.010018556
0.010008407
0.010012684
0.010020018
0.010027788
0.010017968
0.010024687
0.01001484
0.010020553
0.010009661
0.010014618
0.010020999
0.010029318
0.01001907
0.010026372
0.010015898
0.010022191
0.010010554
0.010016155
0.010021735
0.010031467
0.010019847
0.010028387
0.010016587
0.010023883
0.010011012
0.010017476
0.010023837
0.010042845
0.010021448
0.010037718
0.010017677
0.01003029
0.010011647
0.010021548
0.010043551
0.010131787
0.010036327
0.010108579
0.010027762
0.010075709
0.010018642
0.010048818
0.010202875
0.010772167
0.010158068
0.010606907
0.010111989
0.010383535
0.010077519
0.01022889
0.011365061
0.015077773
0.011060317
0.013908946
0.010746603
0.012372613
0.010517084
0.011362757
0.019090844
0.040658834
0.017122285
0.033614998
0.01502589
0.02421454
0.013426118
0.017943432
0.063220215
0.16451161
0.052554522
0.13301651
0.040288709
0.087066363
0.030571729
0.053204519
0.28551499
0.68415283
0.23455841
0.5646144
0.17309924
0.38120053
0.12202027
0.22880751
1.2692662
2.6096851
1.0518124
2.1824335
0.77857433
1.5607337
0.54156468
0.98434488
4.7008667
7.888992
3.9941462
6.8505237
3.0748372
5.3292576
2.2130113
3.7319054
12.112821
15.806632
10.886917
14.649047
9.1253319
12.731772
7.1862321
10.300706
18.89413
20.852741
18.190407
20.199407
16.783579
18.97994
14.864534
17.303997
20.425513
20.396725
20.375112
20.390425
19.842231
20.166283
18.893977
19.774391
9.1857473
7.6178013
9.5906944
8.0738822
9.9945059
8.7432382
10.69727
9.9680945
2.1329604
1.09404
2.3772616
1.2867752
2.8093669
1.6837058
3.5259121
2.4844296
34.646325
22.426568
30.205779
19.731236
31.405987
22.204369
27.865456
23.26227
27.386539
22.31633
33.263901
28.631767
17.510897
18.182004
18.498248
18.608303
22.500159
22.251103
9.2591832
10.440628
10.520012
11.459783
12.436571
12.751597
3.3475596
3.7962237
4.2479215
4.6482352
5.1480212
5.1343397
0.71066512
0.77048422
1.0155588
1.076742
1.4502162
1.4273473
0.10525724
0.11522997
0.18389298
0.19925242
0.39743038
0.39866451
0.022431382
0.024376498
0.039632528
0.043627749
0.13380336
0.1369199
0.011571597
0.011907181
0.015849262
0.016895307
0.049124233
0.0501459
0.010119142
0.010179489
0.011020913
0.011237552
0.022969176
0.023148716
0.0099532959
0.0099789746
0.01014934
0.010203066
0.013736955
0.013805432
0.0099443263
0.0099643872
0.009989369
0.010011632
0.010980781
0.010997806
0.0099507179
0.0099675876
0.009965469
0.0099801441
0.010230211
0.010231134
0.0099588614
0.0099726165
0.0099668785
0.0099778512
0.010022428
0.010025946
0.0099676422
0.0099782904
0.0099736164
0.0099815315
0.0099785852
0.0099817121
0.0099759507
0.0099838494
0.0099803499
0.0099857077
0.0099730544
0.009974916
0.0099826506
0.0099883955
0.009985832
0.0099893176
0.0099744697
0.009975228
0.0099881309
0.0099922176
0.0099903365
0.0099923773
0.0099763082
0.009976283
0.0099923438
0.0099951896
0.0099941742
0.0099952335
0.0099787338
0.0099778215
0.0099955768
0.0099974582
0.0099968161
0.0099971017
0.0099812264
0.0099794124
0.0099980963
0.0099992315
0.0099990832
0.0099988162
0.009983033
0.0099806188
0.0099998086
0.010000312
0.010000649
0.0099998772
0.009984476
0.0099814832
0.010000784
0.010000658
0.010001378
0.01000017
0.0099854276
0.0099819969
0.010002138
0.010001109
0.010001896
0.010000276
0.009985868
0.0099821575
0.010012483
0.010005718
0.010006025
0.01000174
0.0099867386
0.0099823287
0.010104778
0.010056508
0.010049487
0.010023132
0.0099970229
0.009986531
0.010872058
0.010545398
0.010456639
0.010261638
0.010109634
0.01004313
0.016852992
0.014635452
0.013959377
0.012505783
0.011224414
0.010667741
0.056625069
0.042457572
0.039482331
0.029707395
0.020709722
0.01629438
0.30152799
0.20925233
0.21146132
0.14316061
0.092954106
0.057935599
1.5797973
1.0335849
1.207843
0.77206878
0.57703015
0.33914544
6.0615975
4.4419507
5.0566631
3.5171486
3.0706277
1.9703976
13.144107
11.363477
12.074297
9.9658463
10.390898
7.9293081
17.763907
16.640442
17.35099
15.836828
20.099609
17.970964
13.557132
12.849631
14.244706
13.452552
22.33718
21.530741
6.2096202
6.4320268
6.475986
6.8981741
10.449264
11.349275
15.722489
4.4994798
5.0859881
7.0794727
10.057605
15.332808
14.916415
4.3889065
5.1883039
7.3691626
10.616419
16.383686
5.6479732
8.3788826
11.087667
13.034588
15.323621
18.354619
5.7086283
8.5783154
10.969988
12.926372
15.211868
18.038218
2.017589
8.5435364
14.555534
16.53506
17.059382
17.142829
2.2412775
9.1562626
14.193865
15.670988
16.058407
16.049227
0.69325359
3.0195615
6.7330643
9.3755502
10.505394
10.526302
0.77475416
3.5760262
7.0251716
9.1357981
9.8473472
9.7017875
0.2464053
0.86501179
1.8505497
2.8247449
3.5240236
3.7770593
0.27692955
1.0083571
1.9389577
2.777035
3.2793974
3.3996109
0.084669551
0.22890331
0.39832165
0.5493552
0.67898032
0.75278286
0.095189556
0.25402873
0.39190617