/*--------------------------------*- C++ -*----------------------------------*\
| =========                 |                                                 |
| \\      /  F ield         | OpenFOAM: The Open Source CFD Toolbox           |
|  \\    /   O peration     | Version:  2206                                  |
|   \\  /    A nd           | Website:  www.openfoam.com                      |
|    \\/     M anipulation  |                                                 |
\*---------------------------------------------------------------------------*/
FoamFile
{
    version     2.0;
    format      ascii;
    arch        "LSB;label=32;scalar=64";
    class       volScalarField;
    location    "400";
    object      nut;
}
// * * * * * * * * * * * * * * * * * * * * * * * * * * * * * * * * * * * * * //

dimensions      [0 2 -1 0 0 0 0];

internalField   nonuniform List<scalar> 
50904
(
4.5927632e-06
7.4913874e-06
4.8611301e-06
8.3122601e-06
1.6557152e-05
1.9324551e-05
1.5530921e-05
1.7943104e-05
3.1426719e-05
3.1834265e-05
2.9003857e-05
3.0132358e-05
3.6150797e-05
3.4221896e-05
3.4302893e-05
3.2583591e-05
2.5198734e-05
2.4637106e-05
2.3910419e-05
2.3373677e-05
1.4094906e-05
1.2409091e-05
1.3374222e-05
7.8353886e-06
2.8373759e-06
1.6299187e-06
2.0238147e-06
1.1401985e-06
6.1312807e-07
3.7007381e-07
4.5711025e-07
2.7666237e-07
3.1169413e-07
2.0805052e-07
2.5451855e-07
1.7133158e-07
2.776815e-07
1.951298e-07
2.3490854e-07
1.6592934e-07
2.8512377e-07
2.0609574e-07
2.4241888e-07
1.7599807e-07
3.0294486e-07
2.240585e-07
2.5821112e-07
1.9126303e-07
3.2650931e-07
2.4679135e-07
2.7849969e-07
2.1020387e-07
3.5842641e-07
2.768314e-07
3.0601721e-07
2.3517821e-07
4.0301445e-07
3.1744174e-07
3.4396274e-07
2.6863611e-07
4.5696806e-07
3.6510211e-07
3.8893646e-07
3.0678074e-07
5.178549e-07
4.1739256e-07
4.3896065e-07
3.475112e-07
5.8412783e-07
4.7244896e-07
4.9137953e-07
3.8850145e-07
6.6257972e-07
5.3443177e-07
5.488016e-07
4.3076645e-07
7.481637e-07
6.0161382e-07
6.04997e-07
4.7139596e-07
8.3453197e-07
6.7007908e-07
6.6387403e-07
5.1236622e-07
9.258983e-07
7.4330827e-07
7.2348224e-07
5.5421754e-07
1.0054587e-06
8.0551551e-07
7.7449192e-07
5.9178245e-07
1.0598416e-06
8.4503177e-07
8.1525059e-07
6.2162072e-07
1.0950103e-06
8.6872045e-07
8.444653e-07
6.4505614e-07
1.1268727e-06
8.912735e-07
8.845801e-07
6.9165497e-07
1.2255592e-06
9.9436351e-07
1.05422e-06
9.2246113e-07
1.8734757e-06
1.6835728e-06
2.0485697e-06
2.1853215e-06
6.0601803e-06
5.9959734e-06
7.734298e-06
8.810926e-06
1.1075667e-05
1.2768534e-05
1.3054931e-05
1.6202906e-05
1.7428074e-05
2.1288631e-05
2.0031798e-05
2.5516127e-05
2.8985596e-05
3.5761656e-05
3.2373944e-05
3.9906727e-05
3.6341294e-05
3.9932765e-05
3.6829351e-05
4.0551419e-05
2.7465409e-05
2.8841181e-05
2.6838156e-05
2.7761317e-05
9.1798026e-06
9.6745649e-06
8.1106431e-06
8.5257362e-06
1.1032014e-06
1.1497236e-06
9.8835447e-07
1.1167102e-06
4.6750484e-06
8.2359713e-06
3.9905839e-06
6.8204093e-06
3.567812e-06
5.5123483e-06
3.3116381e-06
4.7707948e-06
3.1477087e-06
4.2994096e-06
3.0344669e-06
3.978716e-06
2.947545e-06
3.7371815e-06
1.4723885e-05
1.7348596e-05
1.4110181e-05
1.6136513e-05
1.3842356e-05
1.5177107e-05
1.3690324e-05
1.466725e-05
1.3592679e-05
1.4362768e-05
1.3524574e-05
1.4171259e-05
1.34721e-05
1.4034781e-05
2.7375092e-05
2.8810159e-05
2.5988119e-05
2.6638205e-05
2.5571275e-05
2.5248952e-05
2.5369237e-05
2.4789161e-05
2.5261542e-05
2.4508913e-05
2.5131663e-05
2.4282714e-05
2.5067223e-05
2.4130575e-05
3.165885e-05
3.2167857e-05
2.9186181e-05
2.9613878e-05
2.858762e-05
2.8313265e-05
2.8304475e-05
2.8173779e-05
2.8022516e-05
2.8184102e-05
2.793942e-05
2.8213941e-05
2.7928063e-05
2.8347008e-05
2.3619206e-05
2.3084315e-05
2.3298105e-05
2.2281287e-05
2.3066898e-05
1.969444e-05
2.2657073e-05
1.8862103e-05
2.2455248e-05
1.8586642e-05
2.2421659e-05
1.93841e-05
2.2486017e-05
1.8475745e-05
1.0426105e-05
6.3784484e-06
8.8908517e-06
5.0571114e-06
8.9659663e-06
4.0547453e-06
8.8227493e-06
3.8072374e-06
8.8862898e-06
3.7178389e-06
1.0106388e-05
3.7794291e-06
1.0537096e-05
4.3514606e-06
1.6480172e-06
9.3235056e-07
1.4172352e-06
6.8689977e-07
1.3690444e-06
5.6001665e-07
1.3101481e-06
5.3388943e-07
1.2804374e-06
5.2335829e-07
1.26161e-06
5.2920134e-07
1.2562258e-06
6.0358904e-07
3.8183814e-07
2.2980135e-07
3.3922898e-07
1.705532e-07
3.2505225e-07
1.4205966e-07
3.1003827e-07
1.393922e-07
3.0356042e-07
1.3866e-07
2.9995147e-07
1.4015666e-07
2.986291e-07
1.5386404e-07
2.2280944e-07
1.4743501e-07
2.0881248e-07
1.134254e-07
2.0040705e-07
9.6471725e-08
1.9085294e-07
9.7594881e-08
1.8731609e-07
9.806526e-08
1.854123e-07
9.7935764e-08
1.8468582e-07
1.0006747e-07
2.0911229e-07
1.4387499e-07
1.9802881e-07
1.0994798e-07
1.8794321e-07
9.5293109e-08
1.7757461e-07
9.9647347e-08
1.7385841e-07
9.6689284e-08
1.719479e-07
9.7104619e-08
1.7129977e-07
9.6871454e-08
2.1625444e-07
1.5212021e-07
2.0412618e-07
1.1425978e-07
1.9167435e-07
1.0086495e-07
1.7985854e-07
1.0686003e-07
1.7552884e-07
1.0126174e-07
1.7347724e-07
1.0226436e-07
1.7281872e-07
1.0068776e-07
2.3061087e-07
1.6405596e-07
2.1573234e-07
1.2079494e-07
2.0011592e-07
1.0742381e-07
1.868447e-07
1.1473198e-07
1.8202946e-07
1.077777e-07
1.7986688e-07
1.0919511e-07
1.7914588e-07
1.0719668e-07
2.4869519e-07
1.7992849e-07
2.322783e-07
1.3005586e-07
2.1386448e-07
1.1303615e-07
1.987271e-07
1.1657422e-07
1.9431173e-07
1.1905169e-07
1.9254656e-07
1.1810109e-07
1.9150702e-07
1.1662231e-07
2.7271683e-07
1.9931064e-07
2.5381427e-07
1.4267193e-07
2.3283113e-07
1.232369e-07
2.1715857e-07
1.2808448e-07
2.1323067e-07
1.320953e-07
2.1158411e-07
1.3102995e-07
2.1103683e-07
1.3001212e-07
3.0645779e-07
2.2597e-07
2.855992e-07
1.6126398e-07
2.6231069e-07
1.3797497e-07
2.4599249e-07
1.4678335e-07
2.4263016e-07
1.5042049e-07
2.4134095e-07
1.5015064e-07
2.410852e-07
1.4948421e-07
3.4591522e-07
2.5536346e-07
3.239022e-07
1.833313e-07
2.9937587e-07
1.5874642e-07
2.8228798e-07
1.6836407e-07
2.7896407e-07
1.7284834e-07
2.7803939e-07
1.7318838e-07
2.7768637e-07
1.7289641e-07
3.8932303e-07
2.8440219e-07
3.6628517e-07
2.0588341e-07
3.400111e-07
1.8121674e-07
3.2177714e-07
1.9156405e-07
3.1811333e-07
1.9628007e-07
3.1704552e-07
1.969887e-07
3.162222e-07
1.9706809e-07
4.3398828e-07
3.1103688e-07
4.0915113e-07
2.2821435e-07
3.8077479e-07
2.0528699e-07
3.6146507e-07
2.1659262e-07
3.5731756e-07
2.2134996e-07
3.5579388e-07
2.2220859e-07
3.548001e-07
2.2266785e-07
4.8348529e-07
3.3815458e-07
4.5509485e-07
2.5064325e-07
4.2168002e-07
2.290152e-07
3.9985879e-07
2.412956e-07
3.9446522e-07
2.4584562e-07
3.9145431e-07
2.4668171e-07
3.9162353e-07
2.4820869e-07
5.3238173e-07
3.6339274e-07
4.9988699e-07
2.7195438e-07
4.6024331e-07
2.523368e-07
4.3547069e-07
2.6608694e-07
4.2867118e-07
2.7097379e-07
4.2480514e-07
2.7270084e-07
4.2492846e-07
2.7430126e-07
5.8398062e-07
3.9004413e-07
5.4626426e-07
2.9428585e-07
4.9856305e-07
2.7614669e-07
4.6958154e-07
2.9247672e-07
4.61419e-07
3.0395096e-07
4.5727045e-07
3.4809666e-07
4.5691649e-07
2.9580923e-07
6.327491e-07
4.1895161e-07
5.889095e-07
3.1823768e-07
5.3565142e-07
3.0134019e-07
5.0435717e-07
3.2058025e-07
4.965921e-07
3.3448335e-07
4.9733896e-07
3.8657007e-07
5.2842392e-07
3.2562691e-07
6.7305486e-07
4.5085974e-07
6.2983871e-07
3.4437308e-07
5.7362967e-07
3.2677021e-07
5.4098172e-07
3.4851987e-07
5.4466495e-07
3.6041356e-07
6.3049105e-07
3.8004639e-07
6.9428103e-07
3.5334237e-07
7.0513206e-07
4.823821e-07
6.6748945e-07
3.7018153e-07
6.2175749e-07
3.4862324e-07
5.9032183e-07
3.6686406e-07
5.8552972e-07
3.7440915e-07
6.1707124e-07
3.8200802e-07
6.6695851e-07
3.7693606e-07
7.2889331e-07
5.1772175e-07
7.0146715e-07
4.0417949e-07
6.7266075e-07
3.8046445e-07
6.4871012e-07
3.9725608e-07
6.4064536e-07
4.0127973e-07
6.3340153e-07
4.0429193e-07
6.3445063e-07
4.0785339e-07
7.7643437e-07
6.0226809e-07
7.6912571e-07
5.120587e-07
7.5848681e-07
5.0170737e-07
7.4285055e-07
5.360899e-07
7.3897347e-07
5.4624267e-07
7.3212938e-07
5.5305582e-07
7.2863447e-07
5.5930087e-07
1.0186015e-06
1.0096298e-06
1.1009454e-06
1.1137519e-06
1.146977e-06
1.2271422e-06
1.1578996e-06
1.3439806e-06
1.1691337e-06
1.4054889e-06
1.1696129e-06
1.4463474e-06
1.1690698e-06
1.4692408e-06
2.3945483e-06
3.1495021e-06
2.9231519e-06
4.2975296e-06
3.2362564e-06
5.3902137e-06
3.3849429e-06
6.045444e-06
3.4581891e-06
6.2878213e-06
3.4762787e-06
5.9697371e-06
3.4816314e-06
6.2461261e-06
9.7421616e-06
1.4390103e-05
1.2322261e-05
1.9217528e-05
1.3439022e-05
2.1259248e-05
1.3796969e-05
2.2257777e-05
1.3996841e-05
2.2772996e-05
1.4114423e-05
2.3029327e-05
1.4182671e-05
2.3173831e-05
1.5083177e-05
2.0331138e-05
1.703773e-05
2.5782078e-05
1.8005489e-05
2.8739848e-05
1.8556798e-05
3.0150355e-05
1.8824971e-05
3.0863288e-05
1.9001421e-05
3.1233761e-05
1.9107162e-05
3.1441049e-05
2.3190606e-05
3.0452823e-05
2.6006729e-05
3.7010783e-05
2.7318364e-05
4.0693469e-05
2.8276159e-05
4.2697877e-05
2.8795356e-05
4.3808699e-05
2.9064737e-05
4.4434007e-05
2.922796e-05
4.479614e-05
3.6142839e-05
4.3514147e-05
3.914129e-05
4.7905591e-05
4.0307379e-05
5.0053406e-05
4.1204767e-05
5.0750905e-05
4.1729246e-05
5.1145604e-05
4.2031552e-05
5.1376361e-05
4.2210448e-05
5.1527466e-05
3.7606614e-05
4.1970094e-05
3.8736357e-05
4.331953e-05
3.9733452e-05
4.3626062e-05
4.0416803e-05
4.3844028e-05
4.0824675e-05
4.4034668e-05
4.106822e-05
4.4182571e-05
4.121742e-05
4.4297405e-05
2.6363494e-05
2.7004521e-05
2.6505017e-05
2.6515681e-05
2.6942927e-05
2.6320151e-05
2.7281135e-05
2.6300841e-05
2.7487989e-05
2.6319523e-05
2.7617713e-05
2.6363339e-05
2.7707344e-05
2.6419614e-05
7.4713456e-06
7.7886662e-06
7.112275e-06
6.8579584e-06
7.0399089e-06
6.2736871e-06
7.0317436e-06
5.9811674e-06
7.0174664e-06
5.8030032e-06
6.9945145e-06
5.6938008e-06
6.9746689e-06
5.6351046e-06
9.1209724e-07
1.204178e-06
8.1864245e-07
1.1056024e-06
7.5466041e-07
9.7532571e-07
7.1828029e-07
8.8349246e-07
6.9583051e-07
8.272181e-07
6.8200821e-07
7.9589775e-07
6.7413116e-07
7.80004e-07
2.873648e-06
3.53698e-06
2.7994799e-06
3.3384454e-06
2.7399879e-06
3.188877e-06
2.6772321e-06
3.0374219e-06
2.5899002e-06
2.8312699e-06
2.4386115e-06
2.4741903e-06
1.3428465e-05
1.3924187e-05
1.338802e-05
1.38287e-05
1.3357741e-05
1.3753735e-05
1.3327761e-05
1.3678271e-05
1.3283141e-05
1.3577527e-05
1.3218386e-05
1.3447316e-05
2.5033284e-05
2.4009399e-05
2.5021093e-05
2.3922154e-05
2.5011567e-05
2.3864036e-05
2.4981881e-05
2.3783249e-05
2.4963331e-05
2.367417e-05
2.495239e-05
2.3584054e-05
2.7936351e-05
2.8457365e-05
2.7945267e-05
2.8481601e-05
2.7949234e-05
2.8437741e-05
2.7964498e-05
2.8322657e-05
2.7999198e-05
2.8107283e-05
2.8249664e-05
2.7721593e-05
2.2484628e-05
1.8446264e-05
2.2604973e-05
2.0322159e-05
2.2516953e-05
2.1282066e-05
2.2564083e-05
2.2037537e-05
2.2902284e-05
2.1991803e-05
2.2859359e-05
2.1921852e-05
1.1021321e-05
4.9058467e-06
1.123474e-05
4.8020972e-06
1.1943082e-05
4.6510519e-06
1.1417406e-05
4.5519603e-06
9.4178932e-06
4.5603927e-06
9.5568154e-06
4.644665e-06
1.2619061e-06
6.8513274e-07
1.2601461e-06
6.4323634e-07
1.2615202e-06
6.4210134e-07
1.2816083e-06
6.4040498e-07
1.3266043e-06
6.4150674e-07
1.4031401e-06
6.48623e-07
3.0002778e-07
1.699987e-07
2.998897e-07
1.6374298e-07
3.0045967e-07
1.6507382e-07
3.0520612e-07
1.6592915e-07
3.1569637e-07
1.6716297e-07
3.3479454e-07
1.6964599e-07
1.8574848e-07
1.1087723e-07
1.8610957e-07
1.0977179e-07
1.866592e-07
1.1169735e-07
1.8966816e-07
1.1337707e-07
1.9623595e-07
1.1498294e-07
2.0897168e-07
1.1685992e-07
1.7210712e-07
1.0028659e-07
1.7258551e-07
1.0366167e-07
1.7316795e-07
1.0569369e-07
1.7574367e-07
1.0828816e-07
1.8144251e-07
1.1034928e-07
1.931642e-07
1.119702e-07
1.7349887e-07
1.0026438e-07
1.7407724e-07
1.0442057e-07
1.7468783e-07
1.0690565e-07
1.7716284e-07
1.1047486e-07
1.8271617e-07
1.1329342e-07
1.9443612e-07
1.1508586e-07
1.7974814e-07
1.0615726e-07
1.8038922e-07
1.064e-07
1.8093676e-07
1.10021e-07
1.8331021e-07
1.1429074e-07
1.8867895e-07
1.1796041e-07
2.0015063e-07
1.1996688e-07
1.9212752e-07
1.1514613e-07
1.9297021e-07
1.137324e-07
1.9346293e-07
1.1504719e-07
1.9578205e-07
1.2024374e-07
2.0109514e-07
1.2475463e-07
2.1240075e-07
1.2728371e-07
2.1159448e-07
1.2840582e-07
2.1208835e-07
1.2637056e-07
2.1275624e-07
1.2571137e-07
2.1509176e-07
1.2810833e-07
2.2037172e-07
1.3357626e-07
2.3132256e-07
1.3662767e-07
2.4158812e-07
1.4789566e-07
2.4239803e-07
1.4557736e-07
2.4341191e-07
1.4421347e-07
2.4581952e-07
1.4440568e-07
2.5105723e-07
1.4709527e-07
2.6167589e-07
1.5127203e-07
2.7863595e-07
1.718485e-07
2.8057964e-07
1.6975445e-07
2.8187123e-07
1.6776872e-07
2.8432109e-07
1.6664715e-07
2.892741e-07
1.6556323e-07
2.9886755e-07
1.6551175e-07
3.176119e-07
1.9660925e-07
3.2067707e-07
1.949101e-07
3.2187722e-07
1.9260671e-07
3.2413805e-07
1.9103259e-07
3.2880055e-07
1.8953788e-07
3.3768331e-07
1.8849101e-07
3.5714712e-07
2.2281917e-07
3.6126078e-07
2.2126448e-07
3.621311e-07
2.1842278e-07
3.6397573e-07
2.1643118e-07
3.6817568e-07
2.1468393e-07
3.7634272e-07
2.1361818e-07
3.9593354e-07
2.4944323e-07
4.0003266e-07
2.4761059e-07
4.0006709e-07
2.4392268e-07
4.0115749e-07
2.4131149e-07
4.048795e-07
2.3910047e-07
4.133302e-07
2.3748738e-07
4.3063344e-07
2.7605231e-07
4.360109e-07
2.7445409e-07
4.3525701e-07
2.6959908e-07
4.3602594e-07
2.6621871e-07
4.4118552e-07
2.6345276e-07
4.5683337e-07
2.6063261e-07
4.6361498e-07
3.0697839e-07
4.7015952e-07
3.0401521e-07
4.7003794e-07
2.9813874e-07
4.7753815e-07
2.9322727e-07
5.0552858e-07
2.8771458e-07
6.0897123e-07
2.784342e-07
5.6017651e-07
3.3538267e-07
5.8423448e-07
3.3095008e-07
6.1262373e-07
3.2123981e-07
6.5614837e-07
3.1247387e-07
6.8740597e-07
3.0501974e-07
6.6480358e-07
2.9963942e-07
7.1481297e-07
3.6061074e-07
7.3097169e-07
3.5791163e-07
7.5397131e-07
3.4716253e-07
7.8484245e-07
3.3855866e-07
7.8618816e-07
3.3201235e-07
7.5620244e-07
3.2773963e-07
6.8827624e-07
3.8272527e-07
7.0483465e-07
3.8155853e-07
7.2576772e-07
3.7059795e-07
7.6197119e-07
3.6314528e-07
8.0334186e-07
3.5853963e-07
7.6739178e-07
3.5849983e-07
6.6445302e-07
4.1437375e-07
6.8552046e-07
4.1313836e-07
7.0514895e-07
4.0208061e-07
7.4062391e-07
3.9654897e-07
7.7451916e-07
3.9671895e-07
7.3321521e-07
4.0524508e-07
7.4240749e-07
5.6941486e-07
7.6182243e-07
5.6981183e-07
7.9235001e-07
5.5666565e-07
8.4831018e-07
5.515704e-07
8.9355243e-07
5.582721e-07
7.6125859e-07
5.8618505e-07
1.1925878e-06
1.4948888e-06
1.2241908e-06
1.4970946e-06
1.2579453e-06
1.4713705e-06
1.3831626e-06
1.4711839e-06
1.2247529e-06
1.518747e-06
1.2752976e-06
1.6308897e-06
3.5509222e-06
6.3023747e-06
3.6354533e-06
6.3311135e-06
3.6658024e-06
6.2610785e-06
3.7202764e-06
6.3001487e-06
3.7928839e-06
6.5270028e-06
3.9427682e-06
7.0268273e-06
1.4223635e-05
2.3260292e-05
1.4278518e-05
2.3359607e-05
1.4332696e-05
2.344936e-05
1.4397436e-05
2.3549431e-05
1.4495469e-05
2.3692473e-05
1.4685387e-05
2.3958994e-05
1.9170449e-05
3.1613547e-05
1.9258645e-05
3.1809659e-05
1.9347771e-05
3.199059e-05
1.9456247e-05
3.2197764e-05
1.9622326e-05
3.2499182e-05
1.994852e-05
3.3055056e-05
2.9332753e-05
4.5015755e-05
2.9465748e-05
4.5236931e-05
2.9608433e-05
4.5448573e-05
2.9786635e-05
4.569519e-05
3.0060191e-05
4.6055672e-05
3.0577394e-05
4.6732609e-05
4.2331046e-05
5.1656502e-05
4.2347522e-05
5.1827914e-05
4.2550602e-05
5.1932487e-05
4.2676545e-05
5.2017098e-05
4.2848983e-05
5.2066967e-05
4.3210104e-05
5.2068827e-05
4.1315182e-05
4.4406275e-05
4.1383577e-05
4.4549324e-05
4.1456093e-05
4.463437e-05
4.1545676e-05
4.4695995e-05
4.1675066e-05
4.4723588e-05
4.1925159e-05
4.4718561e-05
2.7776151e-05
2.648337e-05
2.7818504e-05
2.6549587e-05
2.786109e-05
2.6597079e-05
2.7908911e-05
2.6636729e-05
2.796984e-05
2.6667007e-05
2.8069483e-05
2.669156e-05
6.9668793e-06
5.6110114e-06
6.9623912e-06
5.5987672e-06
6.9647374e-06
5.5963694e-06
6.9664168e-06
5.5927889e-06
6.9621486e-06
5.5817655e-06
6.9339282e-06
5.5459889e-06
6.6959127e-07
7.7167118e-07
6.640315e-07
7.6189437e-07
6.5883144e-07
7.5236904e-07
6.5193496e-07
7.398258e-07
6.3990631e-07
7.1835025e-07
6.1664011e-07
6.7564926e-07
2.2095294e-06
1.9881193e-06
2.0642439e-06
1.7569608e-06
2.0147296e-06
1.7224206e-06
1.9910399e-06
1.7106934e-06
1.9746929e-06
1.7051927e-06
1.9601565e-06
1.7061689e-06
1.311322e-05
1.3275959e-05
1.302491e-05
1.3171688e-05
1.300129e-05
1.3151412e-05
1.299106e-05
1.3168872e-05
1.2980339e-05
1.316001e-05
1.2973614e-05
1.3163004e-05
2.4898684e-05
2.3597965e-05
2.4826375e-05
2.360025e-05
2.4726639e-05
2.3551008e-05
2.4690023e-05
2.3647603e-05
2.4683316e-05
2.3717889e-05
2.4679472e-05
2.3738449e-05
2.8353901e-05
2.7770346e-05
2.8314515e-05
2.7677445e-05
2.8184169e-05
2.7484637e-05
2.8294338e-05
2.7564346e-05
2.8226911e-05
2.8298761e-05
2.8127413e-05
2.8332831e-05
2.2670377e-05
2.1844977e-05
2.2528957e-05
2.1764772e-05
2.24995e-05
2.1725694e-05
2.2485485e-05
2.1698658e-05
2.2480074e-05
2.1673326e-05
2.2483067e-05
2.165485e-05
1.0253012e-05
4.7851984e-06
1.1384663e-05
5.0281436e-06
1.1513146e-05
5.1856966e-06
1.1265588e-05
5.2617394e-06
1.1672885e-05
5.2233635e-06
1.2741649e-05
5.3417588e-06
1.4830767e-06
6.594773e-07
1.6292864e-06
6.8864445e-07
1.6452357e-06
7.0728764e-07
1.6486271e-06
7.2066562e-07
1.6426991e-06
7.2834903e-07
1.6732298e-06
7.3459968e-07
3.5881492e-07
1.7297242e-07
4.0100407e-07
1.8083151e-07
4.0638786e-07
1.8567647e-07
4.0853471e-07
1.8893532e-07
4.0980795e-07
1.9043032e-07
4.1504861e-07
1.9286565e-07
2.2711124e-07
1.1842802e-07
2.5677261e-07
1.2295217e-07
2.6126414e-07
1.2591874e-07
2.6330211e-07
1.2806483e-07
2.6471702e-07
1.2928681e-07
2.6892083e-07
1.3153606e-07
2.1112791e-07
1.1193394e-07
2.385808e-07
1.1481919e-07
2.4241405e-07
1.1712307e-07
2.4410429e-07
1.1898916e-07
2.452388e-07
1.2032155e-07
2.4899738e-07
1.2282257e-07
2.1314122e-07
1.139089e-07
2.402788e-07
1.1594814e-07
2.4338362e-07
1.180525e-07
2.4455302e-07
1.1988238e-07
2.4536442e-07
1.2122791e-07
2.4906775e-07
1.2382113e-07
2.1902038e-07
1.1795193e-07
2.4628216e-07
1.1931901e-07
2.4842708e-07
1.2119208e-07
2.4884146e-07
1.2290539e-07
2.4935104e-07
1.2412082e-07
2.5335541e-07
1.2657281e-07
2.313996e-07
1.2504101e-07
2.6061605e-07
1.2601635e-07
2.6190761e-07
1.2757543e-07
2.6187046e-07
1.2903631e-07
2.6229198e-07
1.3003678e-07
2.6555927e-07
1.3208711e-07
2.4989147e-07
1.3490047e-07
2.7743814e-07
1.3595652e-07
2.8408834e-07
1.3733102e-07
2.8359747e-07
1.3826218e-07
2.8425656e-07
1.3889241e-07
2.8740622e-07
1.4076911e-07
2.7948959e-07
1.4996716e-07
2.9418313e-07
1.5086014e-07
2.9941769e-07
1.5266265e-07
3.0037892e-07
1.5332174e-07
3.0314968e-07
1.5518824e-07
3.1290444e-07
1.5890543e-07
3.1608341e-07
1.6698341e-07
3.3034247e-07
1.7162032e-07
3.3447796e-07
1.756991e-07
3.3392863e-07
1.7763521e-07
3.3516753e-07
1.7898323e-07
3.4264431e-07
1.8281847e-07
3.5471772e-07
1.9099001e-07
3.6926717e-07
1.9798957e-07
3.7329582e-07
2.0217262e-07
3.7226789e-07
2.0347033e-07
3.743634e-07
2.0431644e-07
3.9548005e-07
2.0838825e-07
3.940849e-07
2.1688416e-07
4.1053156e-07
2.2425623e-07
4.2375933e-07
2.2764026e-07
4.3307781e-07
2.2740199e-07
4.4088232e-07
2.2680324e-07
4.5007709e-07
2.31648e-07
4.4119357e-07
2.4110787e-07
4.8577246e-07
2.4646047e-07
4.8195665e-07
2.483119e-07
4.7577911e-07
2.4862993e-07
4.7444532e-07
2.4835715e-07
4.8112496e-07
2.527923e-07
5.3324877e-07
2.6044118e-07
5.1727295e-07
2.6499114e-07
5.1141611e-07
2.6874748e-07
5.0351936e-07
2.6760785e-07
5.0092084e-07
2.6670704e-07
5.1138825e-07
2.7231597e-07
5.7164045e-07
2.7892848e-07
5.5315453e-07
2.8547888e-07
5.4589547e-07
2.880374e-07
5.359914e-07
2.8593047e-07
5.3336856e-07
2.8454793e-07
5.4731749e-07
2.9144146e-07
6.2493597e-07
3.0337594e-07
6.0059294e-07
3.0900996e-07
5.9152117e-07
3.1091017e-07
5.8035107e-07
3.0675526e-07
5.7817852e-07
3.0438498e-07
5.9748729e-07
3.1365541e-07
7.0470268e-07
3.3343769e-07
6.703145e-07
3.40348e-07
6.5924292e-07
3.4109239e-07
6.4771162e-07
3.3489196e-07
6.4778083e-07
3.321391e-07
6.6864472e-07
3.433604e-07
7.1943498e-07
3.6936525e-07
7.3622569e-07
3.7682507e-07
7.3210736e-07
3.7500569e-07
7.1904705e-07
3.6771731e-07
7.2012855e-07
3.6537232e-07
7.4146706e-07
3.8058579e-07
7.2236484e-07
4.2322409e-07
8.2776829e-07
4.2855605e-07
8.1654317e-07
4.230157e-07
7.9788461e-07
4.1615192e-07
7.9968654e-07
4.1489527e-07
8.1982498e-07
4.3511475e-07
8.0820749e-07
6.2727688e-07
9.9449782e-07
6.3777982e-07
9.843218e-07
6.2777765e-07
9.6398085e-07
6.1978443e-07
9.6263472e-07
6.2052849e-07
9.8260005e-07
6.5373551e-07
1.3486948e-06
1.7778984e-06
1.6333859e-06
1.8613443e-06
1.7432708e-06
1.8364172e-06
1.736821e-06
1.8144576e-06
1.7395746e-06
1.829722e-06
1.7660793e-06
1.9315677e-06
4.2534272e-06
7.7488603e-06
4.9866411e-06
8.249103e-06
5.6284489e-06
8.1576211e-06
5.6242393e-06
8.0558534e-06
5.6663114e-06
8.1685699e-06
5.8249915e-06
8.6038911e-06
1.4993051e-05
2.434523e-05
1.5360103e-05
2.4759092e-05
1.5519103e-05
2.4879862e-05
1.5605587e-05
2.4930566e-05
1.5664609e-05
2.4958555e-05
1.5715986e-05
2.4975761e-05
2.0468265e-05
3.3760453e-05
2.1049094e-05
3.4532168e-05
2.1328674e-05
3.4783059e-05
2.1478075e-05
3.4900923e-05
2.1580921e-05
3.497544e-05
2.1669674e-05
3.5032402e-05
3.1318626e-05
4.7775868e-05
3.2216411e-05
4.9072251e-05
3.2658594e-05
4.9544176e-05
3.2900382e-05
4.9787918e-05
3.3068872e-05
4.9955758e-05
3.3213118e-05
5.0102877e-05
4.3843665e-05
5.2518327e-05
4.478174e-05
5.3502354e-05
4.5287952e-05
5.383463e-05
4.5545507e-05
5.3944191e-05
4.5602789e-05
5.3972972e-05
4.580937e-05
5.3999653e-05
4.234199e-05
4.5197874e-05
4.2983488e-05
4.6160378e-05
4.3316434e-05
4.6513991e-05
4.3494588e-05
4.6661275e-05
4.3616142e-05
4.6729993e-05
4.3720376e-05
4.680555e-05
2.8237443e-05
2.6946918e-05
2.8529435e-05
2.7468732e-05
2.8661637e-05
2.7672752e-05
2.873241e-05
2.777564e-05
2.8784603e-05
2.7841594e-05
2.883486e-05
2.7914062e-05
6.8732611e-06
5.4941241e-06
6.8448756e-06
5.5036589e-06
6.8349986e-06
5.5240247e-06
6.8232477e-06
5.5383506e-06
6.8079286e-06
5.5479043e-06
6.7890179e-06
5.5574802e-06
5.8213447e-07
6.0813568e-07
5.5783575e-07
5.5952289e-07
5.4833688e-07
5.4248667e-07
5.4195575e-07
5.3150662e-07
5.3650405e-07
5.2241318e-07
5.3089009e-07
5.1309452e-07
1.9430896e-06
1.7164467e-06
1.9324284e-06
1.7420806e-06
1.9239032e-06
1.7850522e-06
1.9209208e-06
1.862323e-06
1.9263085e-06
2.0056372e-06
1.9575201e-06
2.2893877e-06
2.1126565e-06
2.9779275e-06
1.2952433e-05
1.3150129e-05
1.2945275e-05
1.3151097e-05
1.2933332e-05
1.3158532e-05
1.2914897e-05
1.3203607e-05
1.2910572e-05
1.32838e-05
1.2896157e-05
1.3399886e-05
1.290193e-05
1.3679665e-05
2.4652947e-05
2.3718618e-05
2.4675091e-05
2.3764426e-05
2.4711812e-05
2.3831528e-05
2.4816241e-05
2.3990024e-05
2.4879087e-05
2.4213025e-05
2.4957237e-05
2.449638e-05
2.5116015e-05
2.4984217e-05
2.8132313e-05
2.8258413e-05
2.8182768e-05
2.8193235e-05
2.8247761e-05
2.8117295e-05
2.8334583e-05
2.7989367e-05
2.8597835e-05
2.8169205e-05
2.8783288e-05
2.8474311e-05
2.8988207e-05
2.9175352e-05
2.2484138e-05
2.1665092e-05
2.2485544e-05
2.1685802e-05
2.2487622e-05
2.1730783e-05
2.2492586e-05
2.1786529e-05
2.2504965e-05
2.1873967e-05
2.2542767e-05
2.1934599e-05
2.2646386e-05
2.1945176e-05
1.2193834e-05
6.7014075e-06
1.1747259e-05
7.4587998e-06
1.1823689e-05
8.1752559e-06
1.1924229e-05
7.3569254e-06
1.2399358e-05
6.6949396e-06
1.2727993e-05
7.7213493e-06
1.2758399e-05
8.9109209e-06
1.8363625e-06
7.481996e-07
1.8341711e-06
8.4172048e-07
1.7608615e-06
9.469371e-07
1.8057029e-06
9.5107858e-07
1.8601233e-06
9.0394668e-07
2.0285427e-06
1.0287133e-06
2.1995951e-06
1.1627777e-06
4.2154682e-07
1.9711876e-07
4.2884749e-07
2.0303682e-07
4.3904198e-07
2.1031721e-07
4.4859848e-07
2.197663e-07
4.6660893e-07
2.375774e-07
5.0853478e-07
2.7715324e-07
5.5591502e-07
3.2176174e-07
2.7382199e-07
1.353656e-07
2.7851803e-07
1.4027467e-07
2.8489951e-07
1.4577233e-07
2.9132901e-07
1.5200135e-07
3.0330981e-07
1.6670311e-07
3.3258328e-07
1.9731248e-07
3.7363611e-07
2.3577768e-07
2.5314041e-07
1.2666648e-07
2.570034e-07
1.313768e-07
2.6272139e-07
1.3677598e-07
2.6984849e-07
1.4548681e-07
2.8227923e-07
1.6161507e-07
3.1680283e-07
1.9460629e-07
3.6475564e-07
2.3825251e-07
2.5404555e-07
1.2760454e-07
2.5998339e-07
1.3217051e-07
2.6782685e-07
1.3745329e-07
2.7612292e-07
1.479778e-07
2.9061093e-07
1.6610847e-07
3.2837921e-07
2.0237967e-07
3.8376787e-07
2.5399791e-07
2.5989146e-07
1.300115e-07
2.6631422e-07
1.3411334e-07
2.7510556e-07
1.4089983e-07
2.8513682e-07
1.522945e-07
3.020665e-07
1.718285e-07
3.4381991e-07
2.1139542e-07
4.1109564e-07
2.7388124e-07
2.7066514e-07
1.3519786e-07
2.7763287e-07
1.4050197e-07
2.8771267e-07
1.4924831e-07
2.9998989e-07
1.6123e-07
3.2040729e-07
1.8210225e-07
3.6783181e-07
2.2550165e-07
4.48349e-07
2.9933754e-07
2.8963588e-07
1.465645e-07
2.9383463e-07
1.5395201e-07
3.0500721e-07
1.6302675e-07
3.2000094e-07
1.7572837e-07
3.4537833e-07
1.9873526e-07
4.0105911e-07
2.4763169e-07
5.0126914e-07
3.3418842e-07
3.2031809e-07
1.6477146e-07
3.2327756e-07
1.7218087e-07
3.3595527e-07
1.8198799e-07
3.5430452e-07
1.9673148e-07
3.8616197e-07
2.2414249e-07
4.5394849e-07
2.8114333e-07
5.7854891e-07
3.8350944e-07
3.5136074e-07
1.8941992e-07
3.633395e-07
1.9648587e-07
3.7399169e-07
2.066164e-07
3.9642872e-07
2.2283834e-07
4.3658757e-07
2.5393455e-07
5.1869639e-07
3.2022266e-07
6.6869071e-07
4.3943252e-07
4.1151766e-07
2.1454517e-07
4.1211654e-07
2.2209218e-07
4.1676155e-07
2.3307229e-07
4.4143325e-07
2.5131415e-07
4.8945645e-07
2.8651832e-07
5.8687166e-07
3.6038292e-07
7.6400144e-07
4.9444517e-07
4.5603999e-07
2.3993646e-07
4.5606191e-07
2.4753862e-07
4.5980301e-07
2.5853035e-07
4.8363342e-07
2.7822737e-07
5.3725054e-07
3.1583774e-07
6.4681152e-07
3.9487844e-07
8.4383203e-07
5.3870968e-07
4.8899683e-07
2.6186818e-07
4.9373397e-07
2.712281e-07
4.957475e-07
2.8236608e-07
5.1988277e-07
3.0122739e-07
5.7482674e-07
3.3869896e-07
6.8829431e-07
4.1807659e-07
8.9982815e-07
5.6777986e-07
5.2095232e-07
2.8245278e-07
5.236712e-07
2.9159175e-07
5.2495079e-07
3.0248384e-07
5.4980926e-07
3.202475e-07
6.0277981e-07
3.5494995e-07
7.1361555e-07
4.3016604e-07
9.2693196e-07
5.7725609e-07
5.57703e-07
3.0225644e-07
5.5996116e-07
3.1130245e-07
5.6032907e-07
3.2192923e-07
5.7942072e-07
3.3861811e-07
6.2863924e-07
3.7030915e-07
7.3408486e-07
4.4029969e-07
9.4601828e-07
5.8361371e-07
6.1049113e-07
3.2629388e-07
6.1243429e-07
3.3489628e-07
6.1203756e-07
3.4513833e-07
6.1942727e-07
3.6226094e-07
6.6686851e-07
3.9402311e-07
7.7055895e-07
4.6248237e-07
9.8176831e-07
6.0494579e-07
6.8418925e-07
3.5790576e-07
6.9378339e-07
3.6690989e-07
6.9603748e-07
3.7667518e-07
7.0192848e-07
3.9422404e-07
7.2519071e-07
4.2965432e-07
8.325567e-07
5.048089e-07
1.0579497e-06
6.5934255e-07
7.5638747e-07
3.9847834e-07
7.6915053e-07
4.080215e-07
7.7429533e-07
4.1894356e-07
7.8460427e-07
4.3913934e-07
8.0774772e-07
4.8051837e-07
8.9695038e-07
5.6892295e-07
1.1300605e-06
7.4664607e-07
8.3560281e-07
4.5761778e-07
8.5383828e-07
4.6943151e-07
8.6353238e-07
4.8489673e-07
8.8087799e-07
5.1422269e-07
9.1349141e-07
5.7290157e-07
9.8396875e-07
6.9790928e-07
1.2298353e-06
9.318767e-07
9.9728216e-07
6.8937168e-07
1.0182519e-06
7.0883771e-07
1.0301164e-06
7.3550298e-07
1.0534692e-06
7.8700089e-07
1.0991991e-06
8.9145013e-07
1.2010068e-06
1.1096162e-06
1.4015085e-06
1.4788719e-06
1.7884169e-06
2.0398551e-06
1.8271349e-06
2.0960515e-06
1.8530785e-06
2.1726286e-06
1.9067007e-06
2.3228546e-06
2.0100433e-06
2.6302087e-06
2.2147496e-06
3.3365093e-06
2.4985785e-06
7.4216898e-06
5.9430011e-06
9.0430168e-06
6.0576438e-06
9.2795899e-06
6.1299973e-06
9.6156397e-06
6.3435359e-06
1.0358313e-05
6.7868335e-06
1.1951617e-05
7.6142493e-06
1.6072047e-05
8.755264e-06
1.9842674e-05
1.5769912e-05
2.4979685e-05
1.5821524e-05
2.4992731e-05
1.5906976e-05
2.5019683e-05
1.6048845e-05
2.5058359e-05
1.6275435e-05
2.5094455e-05
1.6584266e-05
2.5056658e-05
1.6795119e-05
2.4753196e-05
2.1759344e-05
3.5075349e-05
2.1852306e-05
3.5129015e-05
2.2010106e-05
3.5226947e-05
2.2278184e-05
3.5386194e-05
2.2718519e-05
3.561004e-05
2.3349645e-05
3.5819818e-05
2.3869847e-05
3.5661875e-05
3.3348439e-05
5.0252036e-05
3.3498337e-05
5.0403597e-05
3.375961e-05
5.0665783e-05
3.4217844e-05
5.1116065e-05
3.500976e-05
5.1860502e-05
3.625495e-05
5.2943731e-05
3.7486052e-05
5.3960953e-05
4.5836944e-05
5.4026063e-05
4.5889874e-05
5.4040744e-05
4.6022414e-05
5.4103599e-05
4.6336697e-05
5.4273572e-05
4.7121337e-05
5.476289e-05
4.922116e-05
5.6229447e-05
5.3916188e-05
6.00383e-05
4.3766583e-05
4.6959996e-05
4.3833974e-05
4.7118557e-05
4.3974617e-05
4.7394626e-05
4.4275765e-05
4.7912105e-05
4.4956033e-05
4.8923355e-05
4.6581177e-05
5.0909756e-05
5.040384e-05
5.4130934e-05
2.8848666e-05
2.8021622e-05
2.8880067e-05
2.8144336e-05
2.8950265e-05
2.8365388e-05
2.910787e-05
2.8784848e-05
2.9500482e-05
2.960856e-05
3.0544335e-05
3.1249204e-05
3.3152545e-05
3.3898237e-05
6.7663015e-06
5.5751694e-06
6.7479229e-06
5.5959269e-06
6.7180937e-06
5.6323228e-06
6.6714811e-06
5.694731e-06
6.6190232e-06
5.8212886e-06
6.6356049e-06
6.090423e-06
6.9688451e-06
6.4492611e-06
5.2265054e-07
4.9984787e-07
5.1425245e-07
4.8530938e-07
5.0014825e-07
4.6033236e-07
4.7687336e-07
4.1839639e-07
4.4095893e-07
3.5323532e-07
3.9579301e-07
2.691544e-07
3.6721593e-07
2.0325404e-07
2.2707429e-06
3.4037936e-06
2.3210739e-06
3.5667648e-06
2.2126501e-06
3.3159853e-06
2.1964576e-06
3.1657154e-06
1.2823748e-05
1.3780776e-05
1.2721015e-05
1.3831179e-05
1.2618813e-05
1.3882502e-05
1.3565848e-05
1.5835866e-05
2.524463e-05
2.5265489e-05
2.553311e-05
2.5543046e-05
2.6318671e-05
2.6284837e-05
2.9281496e-05
2.9646489e-05
2.9324202e-05
2.9602519e-05
2.9851136e-05
2.9760924e-05
3.117704e-05
3.0525725e-05
3.5140011e-05
3.4485495e-05
2.2593511e-05
2.1947511e-05
2.274134e-05
2.2220823e-05
2.2998326e-05
2.2914408e-05
2.3695648e-05
2.4374956e-05
1.2604297e-05
9.8333909e-06
1.2585191e-05
1.098057e-05
1.2544917e-05
1.2979162e-05
1.2716292e-05
1.3542909e-05
2.3779797e-06
1.2739151e-06
2.7288127e-06
1.4594284e-06
3.3183603e-06
1.888775e-06
3.8087395e-06
2.3999321e-06
5.9661297e-07
3.5395731e-07
6.651302e-07
3.9079738e-07
7.6894205e-07
4.6398813e-07
8.3952227e-07
5.3119286e-07
4.0451205e-07
2.6272087e-07
4.45489e-07
2.8748589e-07
5.0491623e-07
3.3018335e-07
5.6176709e-07
3.7473016e-07
4.0157384e-07
2.7036232e-07
4.4185151e-07
2.9664579e-07
4.9460495e-07
3.3531944e-07
5.488947e-07