/*--------------------------------*- C++ -*----------------------------------*\
| =========                 |                                                 |
| \\      /  F ield         | OpenFOAM: The Open Source CFD Toolbox           |
|  \\    /   O peration     | Version:  2206                                  |
|   \\  /    A nd           | Website:  www.openfoam.com                      |
|    \\/     M anipulation  |                                                 |
\*---------------------------------------------------------------------------*/
FoamFile
{
    version     2.0;
    format      ascii;
    arch        "LSB;label=32;scalar=64";
    class       volScalarField;
    location    "400";
    object      omega;
}
// * * * * * * * * * * * * * * * * * * * * * * * * * * * * * * * * * * * * * //

dimensions      [0 0 -1 0 0 0 0];

internalField   nonuniform List<scalar> 
50904
(
5088969
5134950.8
5061544.7
5098772.9
1320740.5
1306409.7
1302162.5
1258619.9
519892.22
494965.11
510299.65
473244.14
270985.18
246284.92
259846.09
232437.71
142002.69
123674.46
131775.05
113486.4
52412.822
45737.597
46862.987
40605.451
13553.903
12625.598
11953.433
11333.403
3588.5771
3542.3479
3109.6744
3010.917
709.87637
691.67985
574.09202
555.5642
127.84479
140.2034
104.64367
117.42284
41.971822
54.738907
40.05521
53.666658
33.663679
45.407902
33.919465
46.467895
32.017789
42.485931
32.276123
43.547555
30.324917
39.560899
30.518691
40.590257
28.45078
36.489537
28.579774
37.479029
26.457456
33.385873
26.512415
34.335392
24.563677
30.587132
24.618709
31.557788
22.92081
28.183409
22.946118
29.176679
21.289395
25.880955
21.376369
27.060874
19.942172
23.972487
20.066127
25.338566
18.873006
22.459087
18.962605
23.892697
18.08095
21.331761
18.165888
22.85156
17.589394
20.695166
17.765159
22.620965
17.649359
21.191166
18.531753
25.751861
20.242164
26.940542
26.380323
46.584879
42.077456
66.071236
80.604847
161.12243
199.18249
300.81068
394.74418
703.24397
1156.1348
1570.3177
1926.378
2897.0226
5653.0758
7091.3842
8209.6703
11229.662
23927.182
29021.841
30046.184
37732.735
76827.106
88647.453
86110.557
99357.682
179902.12
187089.53
189213.54
192646.18
322217.22
315847.94
326280.22
314152.45
577355.98
565575.48
574941.56
557841.48
1257821.4
1252774.4
1240691.8
1237950.8
5049312.1
5053922.5
5089340.4
5082052.6
4997153.3
5003231.2
4913000.5
4870603
4876593.2
4792995.9
4856956.4
4751586.1
4845945.4
4727361.5
4839574.9
4712502.6
4835704.6
4702723.8
1268353.8
1220354.6
1243086.9
1222775.4
1242450.3
1234905.7
1243542.4
1241983.1
1245131
1247560.7
1246376.6
1251250.3
1247203.8
1253689.7
506176.28
466424.08
507532.29
477273.45
510907.36
483625.42
512547.36
485660.32
513492.12
487260.52
514012.7
488329.39
514357.9
489068.53
255077.1
228373.68
252521.68
227839.03
252667.02
227213.62
252553.2
226248.99
252415.81
225804.85
252325.95
225591.77
252264.78
225495.77
127042.76
109755.55
122658.17
106361.53
121708.27
105104.22
121080.49
104055.82
120713.75
103405.98
120490.05
102972.71
120332.8
102708.5
44470.57
38789.166
41769.609
37209.498
40955.557
36733.575
40403.58
36021.413
40043.94
35473.536
39803.716
35056.494
39673.07
34755.962
11307.658
11021.6
10414.044
11088.138
10119.79
10992.51
9955.0562
10589.848
9842.2785
10283.816
9758.9225
10054.789
9689.8137
9886.3105
2848.2751
2775.5491
2471.5923
2544.0273
2352.212
2448.0509
2289.2257
2336.3306
2248.9081
2262.9614
2221.0462
2212.2352
2199.9387
2175.5888
511.20521
502.15478
430.36432
455.26712
406.68284
438.53478
394.40362
416.90939
386.60444
404.16072
381.2424
395.50798
377.19841
389.06037
93.759331
109.48796
79.745682
105.37428
75.702297
101.19768
73.510238
95.599716
71.951384
92.624917
70.835788
90.395476
69.981979
88.817188
38.853066
54.41634
36.377501
58.436161
35.563622
56.994032
34.930103
54.180404
34.343833
52.747328
33.886468
51.549634
33.526516
50.734306
33.639022
48.086326
32.353946
53.094481
31.928361
52.032877
31.471764
49.578926
30.988733
48.386484
30.601241
47.368693
30.296046
46.69396
32.032319
45.202321
30.924383
50.404677
30.56875
49.720828
30.141694
47.325231
29.673177
45.911214
29.306422
45.069491
29.024791
44.475041
30.353727
42.351069
29.437216
47.30531
29.097644
46.812856
28.676368
44.574802
28.229485
43.298497
27.890269
42.579189
27.635508
42.077738
28.469437
39.283485
27.714239
43.699819
27.351457
43.368985
26.934407
41.287865
26.516438
40.217839
26.210805
39.607307
25.988733
39.198697
26.444663
36.157473
25.81778
39.854635
25.419642
39.531834
25.017362
37.782288
24.637304
36.881765
24.366269
36.381795
24.175439
36.058869
24.61203
33.437181
24.123505
36.499936
23.727141
36.095345
23.355025
34.592708
23.016959
33.80422
22.77952
33.361104
22.615432
33.078493
22.995071
31.103618
22.637035
33.620713
22.266754
33.123964
21.929141
31.848896
21.629914
31.176066
21.421509
30.79392
21.278936
30.55185
21.514274
28.973297
21.308708
31.153993
21.037459
30.670343
20.761733
29.608592
20.507024
29.050338
20.32647
28.729972
20.200854
28.527077
20.270009
27.171587
20.142132
29.041786
19.955713
28.566686
19.732845
27.689114
19.51352
27.241503
19.353232
26.989049
19.239552
26.833248
19.208248
25.610518
19.155253
27.219495
19.027823
26.738165
18.829314
25.971911
18.619782
25.596063
18.461963
25.418911
18.34865
25.422329
18.423286
24.493771
18.404303
25.941097
18.261041
25.458651
18.027234
24.784027
17.788701
24.48357
17.611254
24.364021
17.489582
24.401491
18.113319
24.601312
18.137341
26.428261
17.979874
26.118854
17.709502
25.528612
17.434251
25.288561
17.243941
25.203129
17.168532
25.199597
19.754974
30.944438
20.521628
36.700941
20.67751
37.935506
20.612386
37.797845
20.462462
37.727419
20.339635
37.70125
20.275126
37.70453
33.691023
70.043197
39.345304
98.01334
41.433771
108.37838
42.371551
111.08652
42.690835
112.1407
42.796596
112.55311
42.822808
112.73845
123.04009
269.82502
156.27444
402.33718
169.67383
462.12832
176.90859
484.80776
180.32594
495.14214
182.0294
499.89023
182.90292
502.27428
610.21183
1181.1095
774.26048
1759.6793
840.27602
2034.0188
878.65422
2157.3377
898.89254
2216.9459
909.93312
2246.3561
916.06651
2261.9958
2751.1458
4417.5003
3334.362
6183.9537
3556.0387
7006.5505
3677.7759
7425.2347
3741.8397
7648.1865
3776.4302
7764.387
3795.3028
7820.1532
11008.857
15892.309
12962.037
21071.278
13729.224
23473.188
14136.963
24631.022
14353.602
25235.109
14475.034
25543.744
14543.373
25717.993
36694.833
47434.201
41058.163
57886.568
42814.694
62908.356
43745.264
65057.659
44183.568
66108.161
44478.717
66651.706
44654.523
66953.828
97136.849
110404.01
103539.49
123997.74
105870.21
131584.8
107606.06
135106.15
108487.39
136852.84
108890.79
137768.09
109132.46
138281.25
196745.1
198903.79
202921.61
212145.55
205743.61
221902.24
207105.99
226346.34
207856.05
228479.97
208268.54
229541.54
208495.39
230098.11
328016.34
314780.31
330648.99
326369.41
331459.97
337738.93
331769.68
343177.18
331986.29
345666.68
332127.62
346790.13
332212.76
347290.65
571386.54
549714.68
567348.34
551352.8
565671.17
561426.85
564738.5
567537.69
564420.77
570829.62
564265.9
572391.89
564079.84
572907.13
1214595
1210676.8
1184009.4
1165468.8
1171185.2
1143808.8
1164300.5
1134143.5
1160958.3
1131456.4
1159954.5
1132299.4
1160221.2
1133795
5076728.4
5054505.8
5027198.7
4979437.7
5003487.5
4940563.5
4990899.4
4919401.1
4983609.5
4907386.8
4978878.3
4900090.5
4975330.4
4895142.4
4832227.8
4694304.8
4828103.2
4685158.2
4824718.4
4678154.5
4820868
4670684.5
4814919.4
4659744.5
4803501.7
4639193.4
1247700.8
1255354.7
1248128.9
1256758.4
1248350.3
1257486.3
1248507.9
1258026.1
1248649.1
1258601.4
1248265.2
1258793
514640.35
489631.97
514978.3
490203.72
515229.15
490589.05
515462.18
490929.15
515698.82
491261.24
515809.78
491382.63
252218.57
225425.77
252218.28
225432.42
252191.71
225442.77
252147.72
225463.64
252082.17
225516.24
251980.9
225629.29
120214.09
102415.5
120125.84
102135.54
120042.43
101986.6
119932.66
101852.88
119753.11
101688.71
119364.2
101439.87
39581.69
34634.071
39517.188
34610.814
39470.626
34581.77
39429.666
34534.354
39362.421
34446.419
39155.083
34265.166
9630.0178
9801.8478
9570.9915
9772.197
9524.1425
9733.3878
9473.8083
9694.6716
9405.9207
9640.2232
9293.0646
9532.1835
2182.3767
2153.9707
2164.9764
2140.502
2151.8111
2129.0825
2138.2685
2118.1796
2119.8012
2103.3851
2086.3953
2074.8227
373.84698
384.18428
370.47163
380.7803
367.92663
378.25254
365.31591
375.92885
361.73328
372.91391
355.17132
367.173
69.272682
87.559757
68.556537
86.421973
68.028521
85.711239
67.493102
85.063464
66.761371
84.250178
65.414138
82.746695
33.226589
50.071684
32.917942
49.380478
32.694787
48.957406
32.470524
48.577373
32.16354
48.113589
31.592427
47.2714
30.044433
46.15014
29.782966
45.569516
29.594973
45.162566
29.406054
44.805993
29.146464
44.377846
28.659455
43.621392
28.79572
44.015636
28.556516
43.516529
28.385226
43.148068
28.212951
42.796327
27.975436
42.378665
27.52687
41.654103
27.4354
41.705237
27.225837
41.29886
27.074613
40.994293
26.922881
40.685184
26.71313
40.278377
26.314095
39.579029
25.820276
38.904835
25.645354
38.58754
25.519591
38.3492
25.394019
38.102835
25.220164
37.755347
24.887206
37.093486
24.034656
35.833926
23.890084
35.596027
23.787735
35.420727
23.68591
35.237668
23.54462
34.970276
23.270957
34.402475
22.496705
32.885374
22.374994
32.684488
22.289843
32.53937
22.204869
32.387764
22.086152
32.164194
21.853376
31.68507
21.177911
30.389132
21.074661
30.221368
21.00318
30.101837
20.931521
29.976469
20.830546
29.790427
20.629998
29.390133
20.113745
28.39421
20.025748
28.259203
19.964957
28.16513
19.903513
28.066339
19.815931
27.918688
19.639792
27.59767
19.159813
26.730185
19.079837
26.626425
19.025325
26.558774
18.969853
26.488215
18.890251
26.382013
18.731496
26.147029
18.267731
25.339427
18.186115
25.272711
18.129217
25.233935
18.0707
25.1954
17.990895
25.136259
17.862527
24.992436
17.420341
24.353246
17.361719
24.315239
17.32768
24.297101
17.303944
24.276406
17.29093
24.235587
17.290644
24.115666
17.137313
25.166318
17.109339
25.135712
17.095535
25.125554
17.089665
25.113186
17.094073
25.085103
17.106435
24.993384
20.249586
37.695984
20.229083
37.691714
20.224628
37.718416
20.230621
37.750107
20.259104
37.787725
20.345538
37.817151
42.827847
112.83519
42.881145
112.99857
42.971294
113.24108
43.108042
113.52519
43.359035
113.92725
43.898429
114.61061
183.38245
503.58653
184.03838
505.09501
184.80163
506.80505
185.84237
508.79163
187.62265
511.64986
191.26866
516.82834
919.62355
2270.8149
924.10675
2280.8846
928.98236
2290.9587
935.29644
2302.4051
946.16572
2319.0052
964.25294
2350.5227
3805.9753
7853.7656
3824.2037
7897.2442
3843.631
7939.0149
3867.9622
7987.2535
3905.9073
8058.6936
3979.9889
8196.9955
14583.007
25822.041
14650.936
25958.127
14722.314
26089.572
14811.361
26243.778
14949.006
26471.845
15215.952
26904.974
44758.967
67216.249
44933.077
67550.337
45116.647
67872.845
45347.196
68253.897
45706.457
68820.173
46415.112
69878.879
109292.49
138585.89
109570.38
138964.6
109879.46
139337.48
110275.01
139776.17
110892.73
140414.41
112058.62
141576.49
208630.69
230420.12
208894.7
230822.16
209163.03
231204.25
209492.16
231640.77
209992.44
232263.5
210927.24
233371.4
332241.63
347532.48
332459.99
347890.34
332637.24
348237.99
332837.76
348641.72
333146.38
349224.84
333780.34
350240.19
563823.32
572898.37
563824.57
572943.51
563720.72
572914.93
563606.28
572928.62
563555
573088.13
563796.04
573624.85
1160274.6
1133985.3
1160371.2
1133042.9
1159499.4
1130579.4
1158274.1
1127481.1
1156831.7
1123478.5
1155950.4
1118605.2
4972869.9
4891368.5
4978138.2
4894649
4982680.1
4897177.2
4987622.3
4899456.7
4995217.2
4902416.1
5006381.6
4905363.9
4784408.8
4611925.9
4771048.6
4597476.5
4766349.7
4592916.2
4763913.2
4590728.1
4762052.4
4589097.8
4760035.3
4587430.5
1244888.6
1254107.9
1244097.7
1250901.6
1244274.7
1248721.4
1243945.6
1246711.2
1243625.1
1245927.6
1243261.4
1245277.3
515519.48
490507.23
515659.56
489835.67
515611.96
488885.42
515393.48
487972.98
515147.53
487449.96
514827.29
487078.42
251607.85
225496.93
251230.97
225314.52
250901.97
224965.48
250728.25
224697.12
250614.68
224501.47
250507.12
224477.44
118602.89
101231.31
117885.4
100940.85
117647.03
100758.93
117525.59
100632.92
117458.34
100524.11
117442.92
100450.58
38706.144
33809.262
38190.491
33246.117
38055.419
33032.438
37989.758
32915.138
37944.471
32826.502
37913.98
32725.067
9054.6239
9217.2102
8821.7724
8816.9246
8753.8587
8650.2105
8719.3264
8556.4785
8694.5857
8485.3932
8668.4522
8408.7416
2008.5474
1994.6188
1933.9347
1902.9237
1911.4316
1869.9429
1900.0936
1853.0729
1892.0184
1841.0398
1884.0217
1828.5485
339.85885
351.10862
325.39178
332.27614
320.97614
325.17042
318.7539
321.46306
317.1679
318.76257
315.59559
315.94882
62.221325
78.411858
59.27102
73.160059
58.403182
71.108968
57.962942
70.027747
57.644395
69.239818
57.320835
68.423554
30.197325
44.808451
28.895926
41.722457
28.510535
40.48684
28.309109
39.835667
28.159377
39.361241
28.002714
38.869544
27.45292
41.433153
26.318925
38.658
25.97734
37.526514
25.794461
36.927163
25.65618
36.48983
25.510153
36.036485
26.404282
39.605009
25.341041
37.048103
25.021689
35.999845
24.849438
35.441065
24.718665
35.031111
24.580767
34.604941
25.305532
37.636779
24.334365
35.283216
24.022509
34.317833
23.866197
33.803169
23.747811
33.421031
23.623969
33.020579
24.045079
35.309248
23.229913
33.198949
22.914793
32.320355
22.749677
31.857538
22.625929
31.513284
22.499194
31.1606
22.570558
32.70518
21.885288
30.805315
21.615017
30.05218
21.471101
29.66834
21.361355
29.388364
21.246806
29.098214
21.252886
30.241801
20.655928
28.658989
20.415649
28.049382
20.286834
27.73858
20.188127
27.509413
20.085564
27.269415
20.109222
28.195294
19.582695
26.893681
19.37128
26.398652
19.265958
26.143406
19.192562
25.950463
19.120105
25.74265
19.181903
26.612461
18.732804
25.506505
18.603098
25.096978
18.529679
24.878048
18.470532
24.711876
18.406059
24.531219
18.343379
25.366209
18.084204
24.387687
17.978205
24.04056
17.916433
23.859766
17.865283
23.719118
17.807493
23.561616
17.763778
24.36994
17.533557
23.455289
17.448544
23.16942
17.39817
23.019049
17.355077
22.899556
17.304928
22.761487
17.216394
23.564537
17.018237
22.751117
16.948827
22.507783
16.906589
22.378612
16.869661
22.272991
16.826227
22.147998
17.058746
24.509176
16.890961
23.776938
16.83211
23.561112
16.795045
23.443559
16.762411
23.344376
16.724624
23.225714
20.389313
37.391913
20.273312
36.715528
20.271164
36.537682
20.264699
36.427212
20.251261
36.321317
20.229715
36.183586
44.432413
114.3324
44.665421
113.52176
44.996695
113.33403
45.148435
113.12928
45.223914
112.88303
45.263386
112.51846
194.75072
519.94055
197.53683
521.63568
199.77526
522.13092
200.81654
521.78811
201.38284
521.09322
201.71566
519.85618
989.30291
2385.7436
1014.1199
2419.5069
1029.4295
2429.9841
1037.5619
2431.6887
1042.6902
2430.6191
1046.633
2427.0766
4088.3092
8387.1376
4207.9405
8608.2651
4273.9509
8685.5709
4310.3083
8718.582
4334.335
8736.7283
4354.1719
8748.5343
15605.387
27488.171
16024.442
28130.959
16242.559
28361.866
16358.269
28465.958
16434.065
28526.518
16494.583
28565.988
47474.42
71133.194
48587.589
72498.346
49203.597
73017.045
49529.361
73263.746
49747.052
73417.447
49926.073
73531.036
113621.85
143079.37
115372.28
144681.58
116372.93
145295.36
116926.54
145590.61
117307.27
145773.04
117628.32
145904.57
212265.94
234689.81
213687.25
235787.23
214512.51
236160.72
214989.55
236321.12
215327.83
236402.12
215626.23
236429.93
334932.53
351208.33
335852.3
351391.03
336221.92
351275.96
336445.86
351150.1
336614.04
351008.63
336772.65
350791.12
564686.8
573942.96
565094.5
572713.84
565029.79
571798.59
565078.79
571226.15
565211.69
570787.8
565414.92
570286.07
1157209.4
1115715.2
1157696.9
1113088.9
1156428.4
1110234.9
1155551.2
1108055.4
1155493.5
1106733.5
1156224.9
1105936.8
5023395.1
4911847.3
5039242
4919173.7
5044338
4921181.8
5046379.1
4921582
5046787.7
4920921.8
5046172.8
4919439.1
4765699
4594701.9
4764152.5
4594709.6
4763723.2
4596301.3
4765670.1
4601270.4
4772156.2
4613040.4
4789181.6
4640499.6
4841724.4
4721233
1242901.2
1244400.1
1242076
1242674.5
1241171.9
1240118.7
1240308.9
1235832.5
1239145.5
1229191
1238631.1
1219966.8
1240290.7
1206118.9
514408.08
486594.46
514081.45
486090.71
513730.02
485366.26
513375.56
484175.85
513089.32
482097.01
513217.94
478626.34
514602.26
472604.79
250396.69
224546.95
250396.02
224735.89
250438.85
224915.48
250577.21
225082.08
250934.9
225155.5
251668.54
224898.06
253644.08
224229.96
117455.54
100509.55
117536.81
100677.02
117650.54
100939.69
117837.75
101266.79
118196.28
101743.27
118980.78
102149.1
120896.65
102592.47
37927.542
32589.209
37944.901
32587.853
37969.948
32634.716
38019.83
32746.285
38123.704
32826.736
38377.039
32763.479
39000.923
32824.436
8634.9636
8290.8286
8625.6728
8168.957
8619.3222
8090.7461
8600.7609
8070.5784
8582.519
8042.3951
8564.6096
7848.4189
8606.7487
7679.7551
1873.6649
1810.6216
1865.1265
1794.3447
1856.54
1777.2012
1846.9962
1756.4144
1834.7377
1727.0579
1819.1728
1683.5345
1810.1685
1638.4124
313.54499
311.94926
311.8074
308.38741
310.00271
304.69773
307.90042
300.18067
305.07495
293.60685
301.10853
284.18436
296.88359
273.22542
56.88234
67.264916
56.484254
66.20962
56.047648
65.078319
55.508434
63.672188
54.750118
61.741441
53.591859
59.000217
52.199655
55.87927
27.782473
38.169716
27.576844
37.526719
27.346237
36.818249
27.057747
35.916334
26.642146
34.697984
25.995691
32.985724
25.176765
31.006236
25.304098
35.390236
25.110882
34.781822
24.887896
34.084409
24.603456
33.203479
24.191691
32.003416
23.550823
30.299412
22.71457
28.254918
24.384196
33.99275
24.190092
33.394966
23.958855
32.701985
23.658544
31.833814
23.222806
30.629705
22.549041
28.892524
21.655236
26.747174
23.447622
32.441689
23.262461
31.883465
23.024636
31.231526
22.705774
30.385281
22.237453
29.178474
21.51535
27.408241
20.540711
25.174961
22.330466
30.665794
22.158792
30.173948
21.924887
29.565148
21.598657
28.739163
21.110327
27.534103
20.358964
25.766465
19.351201
23.540225
21.08922
28.688511
20.926336
28.276169
20.711079
27.734921
20.389588
26.964636
19.900213
25.809034
19.154324
24.095055
18.169469
21.954757
19.959074
26.928956
19.836995
26.581578
19.651746
26.10227
19.349041
25.394665
18.87544
24.314864
18.156524
22.711572
17.223482
20.709885
19.020424
25.445828
18.917737
25.154973
18.755828
24.73773
18.482743
24.101246
18.040256
23.116267
17.367874
21.643843
16.505783
19.802132
18.312905
24.265164
18.218928
24.006942
18.075966
23.641726
17.831831
23.083908
17.434864
22.21026
16.82817
20.893457
16.03967
19.218374
17.722999
23.323353
17.637483
23.091015
17.509717
22.770851
17.295985
22.29152
16.954489
21.544917
16.427765
20.400486
15.722843
18.889835
17.230262
22.546394
17.15524
22.338124
17.046798
22.05905
16.869772
21.649756
16.581752
21.015689
16.130678
20.0277
15.502609
18.665655
16.762643
21.953524
16.703122
21.779506
16.617681
21.543918
16.478287
21.193342
16.23428
20.643676
15.843002
19.774118
15.280698
18.529626
16.669015
23.042378
16.623399
22.89785
16.557495
22.691935
16.448258
22.368094
16.251631
21.836681
15.88432
20.972128
15.337241
19.717313
20.190983
35.964435
20.157183
35.793754
20.104822
35.538875
20.013244
35.122754
19.840005
34.420759
19.484428
33.251341
18.811853
31.460312
45.264844
111.89405
45.273235
111.50951
45.285062
110.93459
45.283408
109.98776
45.214432
108.38985
44.857576
105.69405
43.402714
101.2231
201.81189
517.49043
202.05308
516.18698
202.44987
514.2989
203.00218
511.18079
203.55313
505.81527
202.99175
496.2348
196.94776
477.61666
1050.0164
2420.0867
1051.8499
2413.4765
1054.8984
2404.1455
1059.4762
2388.8857
1064.9564
2363.3628
1065.2568
2317.912
1039.4295
2219.5073
4374.0257
8755.1295
4387.8551
8759.8662
4411.267
8770.5015
4449.758
8786.1713
4508.8997
8803.8064
4578.1413
8799.5096
4570.7843
8680.2252
16549.772
28582.19
16600.871
28605.319
16690.27
28652.499
16840.173
28721.889
17075.049
28792.217
17366.171
28749.014
17445.987
28326.264
50097.071
73611.935
50271.448
73706.865
50572.929
73878.499
51088.45
74152.53
51935.544
74522.486
53137.132
74833.973
54090.629
74592.804
117936.43
145995.55
118278.3
146133.76
118872.92
146383.37
119914.91
146781.39
121724.9
147336.9
124617.48
147907.02
127644.65
148324.63
215954.59
236389.63
216317.03
236414.61
216933.39
236453
217989.78
236437.5
219745.76
236180.57
222442.8
235187.72
226052.02
233937.32
337007.11
350383.54
337299
350077.9
337779.22
349545.34
338536.46
348481.65
339573.28
346428.87
340530.24
341859.11
341433.95
335347.62
565761.26
569467.51
566115.64
568747.59
566601.17
567467.37
567189.01
565114.34
567201.58
560639.12
563329.97
551938.51
552128.54
537784.31
1157890.1
1105310.8
1158955.9
1104234.2
1160737.6
1102267.5
1164249.3
1099914.9
1171417.9
1097657.9
1186333.7
1099649.9
1214244.2
1126563.8
5060230.6
4932459.2
5071942.7
4944197.5
5089395.5
4961727.8
5119627.9
4992123
5176791.8
5049884.8
5291881.2
5167472.6
5522537.4
5404697.1
4897582.5
4806278.4
4977348
4915039.2
5093610.7
5063169.5
5268429.9
5263158.3
1249686.1
1211048
1268065.5
1234076.5
1303281.1
1287576.7
1354153.8
1357795.1
521213.68
474853.97
532842.92
486184.65
554246.48
516690.68
569852.03
549645.4
259142.97
227821.85
267792.89
235962.54
282921.04
255113.67
299359.21
279692.91
124809.48
105486.54
130835.32
110958.81
140903.39
122796.18
151660.89
138268.81
40282.499
33764.605
42413.334
35700.419
45661.467
39675.483
47917.238
44120.052
8761.8775
7712.7903
9082.7777
7969.5088
9455.228
8437.6039
9294.1284
8641.9239
1815.3108
1626.3265
1845.9477
1663.5159
1841.9347
1706.8616
1660.1037
1606.4543
292.30872
266.15841
291.3447
266.99452
275.88656
260.4655
219.15606
219.03966
50.209429
52.906757
49.225057
52.052593
46.291578
50.283261
39.102665
45.192454
24.335858
29.260979
23.905229
28.705604
23.498534
28.61155
23.434537
29.484087
21.938889
26.50586
21.597321
25.960222
21.512932
26.094603
22.107146
27.534644
20.842679
24.924014
20.498033
24.334436
20.438783
24.448931
21.075072
25.878738
19.688895
23.322738
19.373789
22.75356
19.402489
22.937631
20.104788
24.41196
18.550849
21.817263
18.334639
21.34914
18.507038
21.625064
19.374949
23.229615
17.437665
20.377358
17.265484
19.96983
17.510881
20.313655
18.545114
22.115956
16.573813
19.281929
16.466295
18.952748
16.82112
19.395949
18.012593
21.367532
15.913452
18.473455
15.8297
18.169796
16.22811
18.646516
17.540244
20.725451
15.433824
17.884554
15.324211
17.541196
15.726281
18.00214
16.993376
20.037849
15.095712
17.527897
14.942928
17.117349
15.306581
17.510094
16.666833
19.693617
14.842473
17.254181
14.623816
16.741795
14.926944
17.064361
16.453873
19.497148
14.654545
17.174647
14.402961
16.592194
14.724683
16.923902
16.354417
19.547207
14.746198
18.392944
14.406444
17.567799
14.777999
17.788082
16.447527
20.454502
17.908289
29.301001
16.872119
26.62587
16.775217
24.869098
18.290487
26.599084
40.621529
94.897558
34.8193
80.57954
30.627159
65.337167
30.156284
59.575879
182.69951
446.38939
150.63159
371.44489
121.61193
281.44613
105.34844
228.85416
955.87763
2089.1953
800.46499
1749.1757
640.5891
1293.7765
522.41446
993.56619
4381.1268
8424.5868
3796.774
7315.0657
3088.6003
5535.9187
2485.2777
4104.6502
17219.32
28076.221
15362.711
25420.88
12909.105
20540.731
10566.937
15832.065
53906.873
74373.457
49416.266
69099.119
42988.604
59868.69
36335.546
49070.775
127710.9
148807.52
120996.68
143176.71
110592.88
132817.09
98454.163
119080.72
227741.68
234946.24
223366.07
232992.84
215971.63
227769.02
206733.88
220641.42
344065.31
336558.19
345702.53
340930.11
347685.39
344172.14
351505.1
349872.81
553320.16
539209.09
558947.06
550152.82
570761.33
563206.11
596171.1
584401.28
1223684.5
1155851.4
1229585.9
1170146.2
1243467.7
1189765.8
1264321.3
1221498.7
5611103.9
5509659.6
5485173.3
5407991
5342979.2
5293425.3
5200987.4
5180253.9
5130511.4
5076387.4
5053764.4
4989273.2
4990196.7
4915752.3
1328244
1316012.4
1313100.6
1287999.2
1356021.4
1336405.1
512689.11
521887.23
512199.05
515820.87
554853.02
560386.13
257977.75
277414.13
267067.17
282171.16
296589.35
308972.08
130322.42
146252.42
144394.71
158389.7
164869.38
172955.76
48220.387
53769.32
60285.604
66022.352
78433.221
81554.501
12971.205
13675.481
18897.973
20378.947
33282.89
34433.247
3704.8722
3604.1844
6224.2873
6173.0062
15014.186
15168.782
746.65677
731.79642
2195.3155
2160.0383
7873.8542
7532.1463
151.93891
134.12579
586.2438
540.00411
4587.7617
4208.2017
56.812574
43.685984
180.00272
160.14888
2148.2276
1904.4116
46.374986
34.690816
77.99668
63.300461
816.46004
710.56737
43.633642
33.259851
55.804094
43.237426
347.153
285.25406
40.872985
31.766319
48.883608
37.884309
137.4578
112.41031
37.883945
30.031223
44.763206
35.345819
76.38322
62.107953
34.717329
28.05271
40.240352
32.421422
55.613304
45.78928
31.70437
25.990503
35.856467
29.403124
45.066221
37.800483
29.190176
24.271772
32.342166
27.009009
37.006476
31.56625
26.771034
22.516331
29.260727
24.812081
32.157787
27.797448
24.800915
21.091365
26.566558
22.770409
30.083529
26.377312
23.422987
20.103578
24.856581
21.578235
28.296246
25.177481
22.487273
19.454296
23.852734
20.834745
27.508649
24.668936
21.916953
19.022955
23.296043
20.414606
27.531462
24.82464
22.063418
19.016056
23.32816
20.379757
27.743729
25.019197
25.230709
20.462948
24.872879
21.020577
28.310511
25.358159
50.594137
34.52102
38.165029
27.630626
32.091742
27.114312
226.40465
151.67249
144.15546
91.225639
66.333243
45.33362
1300.1502
943.98758
854.08407
574.11697
343.80909
218.82933
6090.5857
4802.0207
4345.5232
3267.4921
2048.7007
1441.1912
25937.439
20897.247
20285.466
15729.197
10683.633
7752.2486
81735.6
68143.588
72148.812
58648.114
47223.556
35928.236
182769.11
171365.12
174958.95
160213.24
148365.73
126060.75
318886.61
320665.29
320074.76
316633.74
320078.03
307617.8
578273.95
586897.88
593125.39
600466.94
628291.13
632343.71
1268986.7
1276994.1
1278572
1295075
1376448.2
1407499.6
4999727.7
4992144.9
4936935.3
4941169.2
4899933.2
4917403.4
4902609.6
4839845.5
4872106.3
4914183.9
4963739.5
5032044
4895124.1
4832919
4862054.4
4900635.9
4947394.9
5014611.9
1181218.6
1346948.9
1265426.1
1248098.7
1265277.6
1297139.6
1176875.1
1332826.1
1261144.8
1247991.1
1264903.7
1292083.9
391815.08
570903.61
579607.03
560317.66
544978.34
533362.37
400929.35
579170.4
584609.28
564530.42
547514.41
532954.02
140661.96
239944.67
290592.75
303055.09
298852.74
287737.5
145096.24
249153.39
290478.72
298053.31
291329.49
278842.36
50834.599
93065.075
125279.01
146507.87
154879.53
152763.14
53316.408
97524.841
126737.59
143880.99
148232.91
143913.85
16799.619
31933.231
42898.314
50381.305
54827.708
55741.701
18029.794
33228.219
42244.107
48132.221
51056.597
50781.014
4756.0363
9211.501
12032.956
13400.383
14094.931
14149.177
5201.5238
9446.1631
11226.483
12240.013
12612.135
12499.592
1093.9871
2130.2203
2733.108
3003.0321
3218.3785
3438.3766
1211.6801
2134.6091
2456.8586
2670.6166
2842.7388
3054.2516
203.99638
404.24463
527.40927
596.97671
654.41134
696.87389
225.24688
390.66854
459.89196
509.98815
545.97229
571.51374
35.271153
63.008151
79.707772
91.170686
103.27279
116.05975
37.273169
57.154798
66.740009
75.453458
84.308256
94.37205
12.915055
16.698714
19.749736
22.996971
27.432907
33.69426
12.983255
15.652362
18.139321
21.212976
25.427697
31.599699
10.834807
12.278264
14.207657
16.798424
20.561362
26.11485
10.737816
12.144187
14.101867
16.722019
20.486195
26.119291
10.72091
11.995835
13.840548
16.34017
19.919733
25.108964
10.628623
11.928217
13.806525
16.315379
19.875126
25.122635
10.742776
11.923371
13.656783
16.001038
19.323473
24.070258
10.551786
11.757074
13.523082
15.874844
19.182222
23.990763
10.704392
11.797334
13.414048
15.591299
18.637703
22.920773
10.497035
11.590951
13.222229
15.393958
18.426289
22.763778
10.693451
11.709326
13.180414
15.151128
17.870616
21.643995
10.462178
11.441
12.909849
14.859782
17.563274
21.392116
10.652196
11.574566
12.888481
14.648865
17.054686
20.365123
10.429873
11.298217
12.606652
14.343086
16.736811
20.107033
10.623849
11.473322
12.663983
14.240922
16.36471
19.259745
10.406972
11.179589
12.339422
13.877414
15.987796
18.953777
10.578254
11.335502
12.37445
13.757687
15.605479
18.117739
10.379347
11.052976
12.060467
13.401927
15.235881
17.831616
10.538502
11.218999
12.136452
13.353425
14.972212
17.172169
10.345352
10.933335
11.809158
12.983246
14.584027
16.876375
10.504989
11.127942
11.94829
13.027065
14.461203
16.417018
10.317721
10.83032
11.590059
12.619039
14.024356
16.066627
10.49352
11.079146
11.83221
12.81156
14.10651
15.871315
10.3114
10.781584
11.459515
12.378653
13.640549
15.496643
10.500447
11.087565
11.800602
12.702335
13.892008
15.523741
10.310898
10.764085
11.389273
12.233446
13.408805
15.165255
10.514805
11.111878
11.808165
12.676703
13.829375
15.461898
10.33043
10.783549
11.384092
12.194018
13.365725
15.276716
10.557765
11.180558
11.899089
12.812257
14.146609
16.412209
10.340123
10.83553
11.484474
12.438727
14.152395
17.954105
10.652807
11.610433
12.793077
14.632098
18.256528
26.155166
10.526228
11.494265
12.990026
15.867729
22.776452
40.360123
12.481546
17.77089
25.188504
37.576057
62.530214
112.01154
12.928662
19.841348
30.858522
51.750936
98.174018
197.98851
34.064604
84.820673
151.4359
250.83642
424.47675
721.29377
40.350824
103.49378
194.01347
342.37925
622.78017
1127.4798
222.30263
603.11277
1050.2595
1632.8735
2524.6978
3870.7864
264.06619
705.47158
1255.4904
2036.1499
3321.4767
5385.9646
1420.7261
3473.4909
5687.2101
8368.0732
12182.625
17539.249
1610.3497
3914.282
6477.3716
9767.762
14703.516
21812.638
7398.5852
15908.698
23895.029
33090.81
45268.611
61139.328
8021.2328
17173.922
26014.464
36536.682
51165.555
69627.402
30774.687
56831.868
77940.785
103018.26
130979.07
162056.75
32260.01
59737.497
82952.493
110033.38
142703.34
172850.76
107082.89
168214.38
214685.89
278847.72
311157.37
321369.53
109817.57
174764.62
229507.38
294091.05
322938.3
330218.09
337226.23
475253.64
578089.39
612853.87
602753.5
587048.21
342202.94
495699.89
617359.54
632651.23
611531.4
590508.73
1109187.3
1433829.6
1385741
1304745
1265092.1
1254014.5
1125055.1
1448192.8
1381951.5
1292710.3
1251435.5
1239024.9
4954786.3