/*--------------------------------*- C++ -*----------------------------------*\
| =========                 |                                                 |
| \\      /  F ield         | OpenFOAM: The Open Source CFD Toolbox           |
|  \\    /   O peration     | Version:  2206                                  |
|   \\  /    A nd           | Website:  www.openfoam.com                      |
|    \\/     M anipulation  |                                                 |
\*---------------------------------------------------------------------------*/
FoamFile
{
    version     2.0;
    format      ascii;
    arch        "LSB;label=32;scalar=64";
    class       volScalarField;
    location    "400";
    object      p;
}
// * * * * * * * * * * * * * * * * * * * * * * * * * * * * * * * * * * * * * //

dimensions      [1 -1 -2 0 0 0 0];

internalField   nonuniform List<scalar> 
50904
(
107318.83
106624.49
107304.62
106619.93
107319.03
106624.11
107301
106614.35
107319.65
106625.16
107299.01
106612.01
107321.15
106628.42
107296.62
106610.28
107324.43
106636.28
107295.81
106613.25
107330.07
106649.54
107296.43
106620.77
107339.19
106669.48
107300.03
106634.46
107353.45
106699.02
107309.26
106658.11
107375.01
106741.62
107325.01
106693.53
107406.77
106801.12
107351.89
106746.69
107452.37
106881.9
107394.6
106823.08
107515.93
106989.3
107455.74
106925.99
107602.74
107127.93
107543.13
107062.77
107714.8
107298.7
107658.06
107234.26
107855.29
107502.26
107803.9
107442.07
108000.61
107704.16
107955.7
107650.91
108130.85
107880.06
108091.97
107833.69
108247.84
108033.29
108213.4
107992.72
108347.63
108162.22
108315.72
108125.14
108432.24
108269.18
108403.23
108236.08
108501.07
108354.07
108473.78
108323.97
108556.58
108418.94
108529.51
108390.55
108595.34
108459.62
108565.71
108429.62
108620.67
108481.63
108587.06
108447.83
108637.83
108493.73
108600.52
108455.23
108649.89
108500.4
108609.24
108457.05
108658.87
108504.27
108615.5
108456.46
108665.71
108506.62
108620.19
108455.05
108670.93
108508.76
108623.7
108453.64
108674.83
108510.41
108626.37
108452.92
108677.81
108511.59
108628.49
108452.4
108680.11
108512.61
108630.13
108452.09
108681.84
108513.51
108631.29
108452.25
108683.19
108514.48
108632.21
108452.79
108684.18
108515.34
108632.85
108453.36
108685.32
108516.37
108633.62
108454.04
107405.62
106798.66
107714
107326.31
107836.95
107585.59
107904.37
107732.93
107944.16
107820.43
107970.69
107878.57
107990.37
107922.13
107398.31
106787.29
107704.24
107308.48
107827.21
107565.71
107894.79
107712.76
107934.67
107800.09
107961.18
107857.73
107980.79
107900.89
107393.42
106782.29
107697.69
107298.51
107821.26
107554.97
107889.68
107703.71
107930.4
107793.07
107957.66
107852.6
107977.81
107897.17
107387.09
106775.86
107688.25
107283.15
107811.93
107537.45
107880.47
107685.85
107921.15
107774.81
107948.26
107833.9
107968.27
107878.18
107381.88
106773.43
107680.22
107269.34
107804.82
107522.05
107874.52
107673.34
107916.26
107764.49
107944.11
107825.18
107964.63
107870.24
107377.12
106773.51
107671.56
107254.38
107796.5
107503.82
107866.47
107654.9
107908.61
107746.25
107936.77
107807.63
107957.36
107854.23
107374.37
106778
107664.5
107242.34
107790.39
107488.67
107861.32
107640.79
107903.98
107733.57
107932.49
107795.98
107953.33
107843.06
107377.1
106791.75
107661.83
107236.97
107787.86
107478.51
107859.19
107629.24
107902.16
107722.17
107930.81
107784.64
107951.68
107831.32
107385.77
106814.7
107664.65
107237.47
107790.92
107474.02
107862.62
107621.63
107905.83
107713.81
107934.53
107775.5
107955.33
107821.44
107405.35
106853.88
107676.75
107248.92
107802.3
107477.64
107873.82
107621.4
107917.06
107712.16
107945.6
107773.21
107966.11
107818.19
107441.92
106916.92
107704.94
107284.12
107828.81
107502.6
107899.59
107641.13
107942.42
107729.38
107970.47
107788.84
107990.39
107832.13
107497.16
107004.79
107750.08
107339.66
107871.4
107548.55
107940.83
107681.65
107982.8
107766.86
108010.04
107824.05
108029.1
107865.13
107582.01
107130.89
107824.04
107440
107941.6
107633.59
108008.7
107760.4
108048.75
107841.3
108074.56
107894.58
108092.2
107932.16
107694.45
107289.98
107922.39
107570.28
108036.26
107752.77
108100.97
107873.15
108139.15
107949.03
108163.42
107998.23
108179.77
108032.24
107837.75
107486.14
108046.54
107735.42
108156.71
107907.17
108218.52
108020.48
108254.58
108090.68
108277.08
108135.48
108291.79
108165.51
107990.95
107689.77
108180.94
107913.14
108285.11
108072.41
108343.22
108176.55
108376.62
108240.03
108397.06
108279.84
108409.97
108305.66
108129.85
107870.48
108302.72
108073.03
108399.84
108219.25
108453.77
108314.07
108484.38
108371.03
108502.79
108406.21
108514.06
108428.31
108253.58
108028.91
108410.75
108214.09
108500.42
108348.1
108550.08
108434.06
108577.96
108485.02
108594.49
108516.07
108604.41
108535.13
108361.25
108165.9
108503.68
108336.69
108584.38
108457.16
108628.98
108533.63
108653.86
108578.57
108668.5
108605.77
108677.49
108622.67
108453.05
108282.58
108582.54
108440.93
108653.98
108548.33
108693.53
108615.97
108715.67
108655.69
108728.79
108679.81
108736.9
108694.94
108525.9
108374.53
108642.93
108520.67
108706.5
108617.12
108741.74
108677.46
108761.55
108713.22
108773.34
108734.74
108780.7
108748.36
108581.2
108443.04
108687.74
108578.96
108745.1
108667.21
108776.85
108722.03
108794.72
108754.39
108805.38
108773.82
108811.92
108785.9
108615.4
108482.43
108714.42
108610.73
108767.46
108693.66
108796.7
108744.71
108813.13
108774.33
108822.84
108791.92
108828.73
108802.73
108633.66
108499.54
108727.88
108622.2
108778.6
108702.24
108806.57
108751.06
108822.12
108779
108831.23
108795.48
108836.7
108805.51
108644.02
108505.43
108735.32
108624.02
108784.82
108702.94
108812.18
108750.65
108827.29
108777.69
108836.05
108793.53
108841.27
108803.07
108650.16
108505.77
108740.09
108622.3
108789.06
108700.91
108816.12
108748.12
108831.01
108774.67
108839.61
108790.16
108844.67
108799.4
108654.44
108503.48
108743.82
108620.22
108792.58
108698.07
108819.58
108745.01
108834.37
108771.37
108842.88
108786.72
108847.86
108795.81
108657.65
108500.79
108746.93
108618.69
108795.73
108697.09
108822.75
108743.96
108837.52
108770.08
108845.99
108785.36
108850.92
108794.4
108660.05
108498.4
108749.41
108617.63
108798.55
108697.81
108825.68
108744.88
108840.52
108771.28
108848.96
108786.67
108853.85
108795.68
108662.01
108496.37
108751.66
108617.25
108801.28
108699.71
108828.56
108747.56
108843.36
108774.24
108851.62
108789.67
108856.4
108798.63
108663.52
108495.84
108753.55
108617.63
108803.57
108702.58
108830.89
108750.81
108845.69
108777.58
108854.06
108792.94
108858.89
108801.83
108664.76
108495.38
108754.91
108618.16
108805.19
108704.98
108832.61
108753.58
108847.41
108780.46
108855.79
108795.85
108860.61
108804.75
108665.61
108495.09
108755.82
108618.68
108806.25
108706.48
108833.71
108755.43
108848.51
108782.35
108856.86
108797.75
108861.67
108806.66
108666.29
108495.2
108756.46
108619.12
108806.97
108707.4
108834.45
108756.68
108849.25
108783.7
108857.59
108799.17
108862.41
108808.18
108666.77
108495.62
108756.87
108619.45
108807.37
108707.86
108834.83
108757.27
108849.59
108784.26
108857.84
108799.53
108862.57
108808.37
108667.34
108496.23
108757.37
108620.06
108807.87
108708.5
108835.31
108758.02
108850.04
108785.01
108858.24
108800.2
108862.93
108808.94
108007.7
107960.19
108022.5
107992.05
108034.92
108017.76
108050.26
108048.33
108077.37
108100.7
108138.94
108217.7
107998.35
107939.4
108012.86
107970.26
108024.88
107994.7
108039.85
108024.53
108067.31
108079.28
108130.94
108203.33
107995.54
107936.37
108010.72
107969.24
108023.33
107995.52
108038.37
108026.01
108064.31
108077.75
108126.17
108198.2
107985.97
107917.48
108000.82
107949.82
108013.24
107975.89
108028.57
108007.47
108055.89
108063.35
108119.52
108190.07
107982.63
107910
107997.85
107943
108010.52
107969.58
108025.84
108001.44
108052.47
108057.22
108115.24
108185.6
107975.32
107894.88
107990.6
107928.39
108003.52
107955.78
108019.03
107988.94
108046.14
108047.15
108110.31
108180.73
107971.44
107884.04
107986.78
107917.84
107999.63
107945.57
108015.29
107979.02
108042.54
108037.87
108106.53
108174.87
107969.75
107872.23
107985.06
107906.05
107997.9
107933.83
108013.62
107967.4
108041.08
108026.8
108105.31
108166.87
107973.21
107861.97
107988.34
107895.55
108001.06
107923.18
108016.67
107956.54
108043.93
108015.77
108107.82
108157.56
107983.63
107857.81
107998.44
107890.93
108010.93
107918.13
108026.29
107951.06
108053.14
108009.64
108116.24
108151.52
108007.27
107870.06
108021.54
107901.98
108033.6
107928.18
108048.46
107959.98
108074.47
108016.65
108135.42
108155.02
108045.1
107900.75
108058.65
107930.86
108070.12
107955.63
108084.28
107985.69
108109.1
108039.39
108167.26
108171.61
108106.93
107964.49
108119.43
107991.89
108130.03
108014.48
108143.12
108041.87
108166.12
108090.83
108219.79
108212.04
108192.94
108060.79
108204.21
108084.99
108213.8
108104.98
108225.71
108129.24
108246.69
108172.62
108295.04
108279.75
108303.29
108190
108313.1
108210.62
108321.54
108227.82
108332.08
108248.7
108350.77
108286.01
108392.9
108376.93
108419.93
108326.27
108428.36
108343.53
108435.72
108358.1
108444.94
108375.83
108461.34
108407.36
108497.56
108482.96
108522.7
108445.72
108530.02
108460.31
108536.48
108472.76
108544.63
108488
108559.12
108515.11
108590.45
108579.04
108611.96
108550.02
108618.41
108562.57
108624.17
108573.37
108631.47
108586.67
108644.43
108610.36
108671.91
108665.4
108684.15
108635.66
108689.89
108646.61
108695.07
108656.09
108701.67
108667.81
108713.33
108688.68
108737.82
108737.15
108742.93
108706.59
108748.11
108716.29
108752.82
108724.74
108758.86
108735.2
108769.6
108753.96
108792.11
108797.84
108786.19
108758.93
108790.89
108767.59
108795.19
108775.2
108800.76
108784.64
108810.9
108801.66
108831.97
108841.78
108816.85
108795.31
108821.13
108803.05
108825.16
108809.94
108830.5
108818.57
108840.17
108834.25
108859.8
108871.1
108833.13
108811.04
108837.07
108818.02
108840.87
108824.36
108845.94
108832.4
108855.17
108847.08
108873.55
108880.98
108840.74
108813.1
108844.43
108819.58
108848.04
108825.55
108852.89
108833.23
108861.72
108847.25
108878.96
108878.77
108845.07
108810.16
108848.59
108816.29
108852.05
108822
108856.74
108829.43
108865.23
108843.03
108881.58
108872.72
108848.32
108806.13
108851.71
108812
108855.09
108817.52
108859.69
108824.78
108867.93
108838.07
108883.57
108866.29
108851.39
108802.31
108854.69
108808.01
108858.01
108813.41
108862.46
108820.57
108870.5
108833.74
108885.8
108861
108854.37
108800.72
108857.61
108806.31
108860.85
108811.62
108865.24
108818.71
108873.21
108831.79
108888.17
108858.4
108857.25
108801.88
108860.42
108807.37
108863.61
108812.61
108867.94
108819.63
108875.82
108832.61
108890.53
108858.67
108859.74
108804.57
108862.84
108809.85
108866.02
108814.99
108870.37
108821.91
108878.29
108834.66
108892.83
108860.28
108862.22
108807.71
108865.31
108812.88
108868.45
108817.87
108872.71
108824.62
108880.45
108837.36
108894.83
108862.99
108863.93
108810.48
108866.99
108815.5
108870.11
108820.39
108874.32
108827.04
108881.97
108839.69
108896.2
108865.13
108864.97
108812.35
108867.98
108817.25
108871.08
108822.1
108875.28
108828.76
108882.89
108841.45
108897.01
108866.86
108865.71
108813.94
108868.72
108818.91
108871.81
108823.79
108875.97
108830.38
108883.46
108842.81
108897.41
108868.01
108865.88
108814.19
108868.93
108819.3
108872.05
108824.3
108876.21
108830.98
108883.69
108843.44
108897.55
108868.55
108866.26
108814.91
108869.39
108820.36
108872.5
108825.47
108876.61
108832.08
108883.96
108844.23
108897.66
108869.03
108210.11
108332.66
108245.08
108371.64
108257.05
108382.26
108263.36
108386.42
108268.38
108388.99
108274.03
108391.23
108204.06
108324.12
108240.19
108365.62
108252.59
108377.48
108258.92
108382.75
108263.94
108386.06
108269.81
108389.41
108200.36
108321.96
108238.16
108366.38
108251.21
108379.17
108257.9
108385.42
108263.06
108389.6
108269.01
108393.35
108195.58
108320.19
108234.61
108368.48
108248.36
108381.7
108255.06
108388.89
108259.81
108394.67
108265.96
108399.73
108192.89
108322.49
108233.4
108375.97
108247.95
108390.61
108255.96
108397.5
108261.28
108403.74
108266.99
108410.19
108189.82
108325.69
108231.88
108384.6
108246.48
108401.62
108254.33
108409.22
108261.12
108414.63
108268.15
108421.55
108188.23
108328.33
108232.21
108393.97
108247.72
108413.67
108255.89
108423.01
108262.42
108429.66
108270.3
108436.93
108188.51
108328.33
108234.16
108401.16
108250.43
108423.9
108259.06
108435.01
108265.94
108443.26
108274.04
108452.61
108191.99
108326.24
108239.15
108406.21
108256.11
108432.01
108265.17
108444.94
108272.41
108454.78
108280.96
108466.11
108200.56
108325.4
108248.88
108411.82
108266.46
108440.5
108275.9
108455.17
108283.48
108466.56
108292.46
108479.75
108217.9
108329.18
108266.3
108419.39
108284.14
108450.1
108293.79
108466.09
108301.58
108478.67
108310.82
108493.39
108246.58
108341.75
108294.17
108433.1
108311.97
108464.87
108321.68
108481.62
108329.54
108494.94
108338.87
108510.64
108293.26
108370.68
108338.21
108458.35
108355.29
108489.48
108364.7
108506.06
108372.35
108519.32
108381.39
108535.07
108360.79
108421.04
108401.71
108500.88
108417.54
108529.8
108426.34
108545.33
108433.55
108557.83
108442
108572.72
108449.37
108496.79
108485.04
108565.97
108499.09
108591.57
108506.98
108605.48
108513.47
108616.78
108521.01
108630.29
108545.31
108582.28
108575.79
108640.46
108588.04
108662.53
108594.96
108674.6
108600.68
108684.52
108607.35
108696.53
108631.25
108662.51
108657.45
108711.98
108668.18
108731.1
108674.25
108741.63
108679.33
108750.34
108685.3
108760.96
108707.72
108737.45
108730.82
108780.63
108740.41
108797.5
108745.86
108806.79
108750.44
108814.55
108755.9
108824.15
108770.98
108802.61
108792.02
108841.71
108800.53
108856.39
108805.37
108864.53
108809.42
108871.36
108814.25
108879.95
108823.67
108859.08
108843.95
108896.23
108851.45
108908.95
108855.74
108916.05
108859.42
108922.16
108863.98
108930.15
108862.3
108899.69
108882.12
108935.56
108888.82
108946.69
108892.7
108952.97
108896.1
108958.49
108900.4
108965.97
108888.51
108925.32
108907.87
108959.66
108914.2
108969.94
108917.92
108975.8
108921.23
108981.06
108925.44
108988.24
108900.6
108931.21
108919.22
108963.52
108925.52
108973.44
108929.24
108979.12
108932.52
108984.18
108936.49
108990.93
108904.41
108925.74
108922.29
108956.27
108928.55
108965.87
108932.25
108971.4
108935.47
108976.31
108939.26
108982.71
108905.8
108917.16
108923.1
108946.3
108929.29
108955.63
108932.96
108961.03
108936.13
108965.82
108939.76
108971.92
108906.81
108908.67
108923.55
108936.75
108929.65
108945.86
108933.27
108951.18
108936.39
108955.87
108939.88
108961.72
108908.23
108901.86
108924.54
108929.46
108930.54
108938.51
108934.13
108943.81
108937.2
108948.48
108940.59
108954.19
108909.97
108898.1
108925.88
108925.24
108931.79
108934.2
108935.32
108939.49
108938.32
108944.14
108941.61
108949.72
108911.87
108897.58
108927.48
108924.34
108933.32
108933.23
108936.79
108938.5
108939.73
108943.14
108942.92
108948.61
108913.78
108898.76
108929.06
108925.07
108934.8
108933.81
108938.2
108939.05
108941.08
108943.7
108944.2
108949.07
108915.5
108900.88
108930.56
108926.71
108936.23
108935.31
108939.59
108940.5
108942.4
108945.14
108945.44
108950.4
108916.59
108902.49
108931.4
108927.85
108936.99
108936.31
108940.28
108941.45
108943.05
108946.08
108946.02
108951.28
108917.15
108903.93
108931.78
108929.13
108937.31
108937.57
108940.57
108942.7
108943.32
108947.32
108946.24
108952.48
108917.32
108904.84
108931.75
108929.89
108937.19
108938.29
108940.39
108943.35
108943.09
108947.87
108945.97
108952.99
108917.31
108905.21
108931.66
108930.14
108937.11
108938.61
108940.3
108943.67
108942.95
108948.09
108945.78
108953.13
108917.23
108905.39
108931.42
108930.15
108936.84
108938.62
108939.97
108943.59
108942.5
108947.84
108945.3
108952.79
108280.03
108392.43
108285.66
108392.01
108291.46
108389.98
108298.18
108384.76
108306.59
108371.38
108313.93
108332.25
108288.39
108188.54
108276.08
108391.55
108282.2
108391.87
108288.27
108390.46
108295.57
108386.27
108305.16
108374.37
108314.01
108337.26
108290.08
108195.26
108275.41
108396.09
108281.41
108397.07
108287.71
108396.01
108295.1
108391.91
108304.89
108380.69
108314.81
108345.48
108292.31
108205.15
108272.91
108403.49
108279.28
108405.49
108286.21
108405.38
108294.51
108402.11
108305.43
108392.16
108317.09
108359.36
108296.69
108221.33
108273.98
108415.17
108280.67
108418.7
108287.86
108419.92
108296.55
108417.98
108308.18
108409.36
108321.57
108379.28
108303.73
108244.1
108274.76
108428.39
108281.86
108433.42
108289.77
108437.25
108299.51
108437.86
108312.81
108431.18
108328.66
108405.06
108314.17
108274.08
108278.37
108444.22
108285.6
108450.55
108293.88
108456.12
108304.54
108459.36
108319.3
108456.58
108338.17
108435.88
108328.21
108310.99
108282.57
108461.63
108290.76
108468.78
108300.06
108475.44
108311.87
108481.23
108328.75
108483.95
108351.16
108470.06
108347.08
108355.26
108289.96
108477.29
108298.75
108486.61
108308.97
108495.85
108322.25
108505.07
108341.7
108513.33
108368.66
108508.35
108372.19
108406.71
108301.97
108492.99
108311.4
108504.61
108322.63
108516.79
108337.55
108530.2
108359.83
108544.99
108391.83
108550.25
108403.69
108465.34
108320.69
108508.46
108330.7
108522.27
108342.93
108537.5
108359.55
108555.51
108384.82
108577.58
108422.36
108594.35
108443.67
108528.89
108348.99
108527.09
108359.53
108542.77
108372.77
108560.95
108391.12
108583.67
108419.42
108613.12
108462.36
108641.83
108492.77
108596.5
108391.42
108552.03
108402.21
108569
108416.19
108589.63
108435.95
108616.4
108466.77
108652.68
108514.05
108692.92
108551.97
108667.43
108451.54
108589.25
108462.24
108606.75
108476.62
108629.01
108497.46
108659.1
108530.27
108701.34
108580.55
108750.85
108622.21
108741.86
108529.61
108645.53
108539.79
108662.65
108554.05
108685.59
108575.42
108717.96
108609.44
108764.42
108661.06
108819.95
108702.88
108821.91
108614.87
108710.11
108624.25
108726.22
108637.91
108748.9
108658.97
108782.25
108692.7
108831.25
108743.16
108890.05
108782.14
108898.33
108691.82
108772.87
108700.27
108787.56
108713.01
108809.17
108733.13
108842.11
108765.56
108891.43
108813.65
108951.49
108849.78
108964.53
108761.64
108834.6
108769.16
108847.73
108780.86
108867.89
108799.72
108899.37
108830.34
108947.59
108875.65
109007.58
108909.87
109025.21
108819.7
108889.64
108826.41
108901.43
108836.94
108919.61
108853.86
108948.24
108881.55
108993
108923.31
109051.86
108958.97
109077.75
108869.02
108939.11
108875.18
108949.88
108884.54
108966.02
108899.39
108991.14
108923.72
109031.05
108961.63
109087.26
109000.07
109122.47
108905.13
108974.29
108910.76
108984.05
108919.06
108998.26
108932.02
109020.04
108953.3
109055.11
108987.58
109107.81
109028.98
109152.4
108929.63
108995.65
108934.62
109004.15
108942.03
109016.68
108953.75
109036.17
108973.23
109068.13
109005.47
109118.07
109048.82
109168.66
108940.36
108997.53
108944.78
109004.89
108951.7
109016.27
108963.01
109034.71
108982.26
109065.78
109014.61
109115.37
109059.64
109169.71
108942.89
108988.75
108947.02
108995.53
108953.73
109006.4
108965
109024.55
108984.48
109055.58
109017.72
109105.74
109064.87
109163.4
108943.25
108977.64
108947.3
108984.24
108954.04
108995.08
108965.61
109013.48
108985.82
109045.1
109020.51
109096.79
109069.74
109158.79
108943.28
108967.3
108947.33
108973.9
108954.2
108984.98
108966.12
109004.01
108987.07
109036.94
109023.25
109090.96
109074.29
109155.96
108943.92
108959.73
108948.01
108966.5
108955.03
108978
108967.32
108997.88
108989.03
109032.38
109026.61
109088.85
109078.72
109155.24
108944.88
108955.26
108949.01
108962.22
108956.15
108974.18
108968.71
108995.06
108990.99
109031.52
109029.44
109090.67
109081.76
109157.33
108946.13
108954.15
108950.29
108961.3
108957.53
108973.67
108970.35
108995.45
108993.11
109033.77
109032.13
109094.55
109084
109159.49
108947.35
108954.6
108951.54
108961.88
108958.89
108974.56
108971.93
108996.91
108995.03
109036.23
109034.27
109098.23
109085.59
109160.76
108948.54
108955.84
108952.71
108963.17
108960.07
108976.07
108973.18
108998.88
108996.42
109038.66
109035.67
109100.68
109086.51
109160.71
108949.07
108956.66
108953.25
108964.11
108960.64
108977.29
108973.82
109000.51
108997.12
109040.52
109036.31
109101.61
109086.74
109159.31
108949.24
108957.83
108953.39
108965.3
108960.75
108978.54
108973.94
109001.78
108997.28
109041.62
109036.43
109101.76
109086.62
109157.69
108948.94
108958.35
108953.11
108965.89
108960.51
108979.21
108973.74
109002.46
108997.11
109042.09
109036.23
109101.44
109086.29
109156.17
108948.76
108958.56
108952.9
108966.1
108960.25
108979.36
108973.46
109002.58
108996.84
109042.07
109035.96
109100.94
109085.94
109155.02
108948.28
108958.24
108952.45
108965.79
108959.85
108979.05
108973.11
109002.27
108996.56
109041.65
109035.72
109100.17
109085.65
109153.81
108240.08
108060.03
108219.46
107984.87
108243.83
107975.92
108273.57
107961.94
108242.39
108066.44
108221.68
107989.82
108245.59
107979.11
108274.52
107963.92
108245.05
108075.46
108224.03
107996.36
108247.33
107982.84
108275.47
107966.08
108249.99
108090.35
108228.36
108007.1
108250.41
107989.31
108277.12
107970
108257.61
108111.76
108235.01
108023.65
108255.18
107999.61
108279.91
107976.33
108268.88
108140.34
108244.98
108046.89
108262.38
108014.8
108284.19
107985.99
108284.15
108176.35
108258.71
108077.04
108272.49
108035.66
108290.4
107999.78
108304.79
108220.92
108277.59
108115.97
108286.75
108064.11
108299.53
108019.47
108332.25
108274.91
108303.38
108165.47
108306.93
108102.65
108313.01
108047.54
108367.73
108338.3
108337.43
108226.28
108334.51
108152.78
108332.3
108085.83
108412.33
108409.92
108381.14
108298.31
108371.26
108215.74
108358.98
108136.05
108466.86
108488.73
108435.89
108381.75
108419.94
108294.05
108396.78
108202.85
108531.71
108572.99
108502
108474.28
108481.26
108386.32
108447.2
108286.31
108606.64
108662.57
108579.47
108576
108556.73
108493.22
108513.1
108388.03
108691.67
108758.28
108667.8
108685.43
108645.12
108611.21
108595.49
108506.74
108773.66
108846.78
108752.82
108785.53
108732.08
108721.62
108679.79
108622.39
108843.41
108921.99
108825.3
108869.33
108806.87
108814.09
108756.29
108722.06
108905.62
108989.5
108889.53
108942.61
108873.19
108893.9
108823.4
108807.48
108957.8
109049.48
108944.22
109008.06
108929.7
108963.54
108882.01
108880.79
109004.06
109103.28
108993.04
109066.63
108980.06
109024.59
108933.09
108943.01
109038.88
109143.23
109030.59
109111.51
109020.45
109072.91
108974.44
108992.02
109065.1
109169.29
109060.33
109143.02
109052.92
109108.75
109008.8
109029.96
109080.71
109178.41
109079.97
109159.03
109075.1
109130.28
109032.79
109053.21
109089.89
109179.89
109092.32
109167.67
109088.63
109142.47
109048.02
109065.51
109096.97
109180.85
109100.86
109173.41
109097.15
109149.14
109058.25
109071.38
109102.3
109180.85
109106.28
109175.06
109101.83
109149.82
109064.62
109071.98
109106.31
109180.8
109109.69
109174.36
109104.42
109146.69
109068.87
109069.54
109109.1
109181.72
109111.58
109173.38
109105.66
109142.46
109071.75
109065.79
109110.18
109182.54
109112.33
109172.23
109106.01
109138.3
109073.71
109061.67
109110.91
109182.41
109112.57
109170.89
109105.93
109134.81
109074.96
109058.49
109111.09
109181.09
109112.48
109169.01
109105.65
109132.02
109075.74
109056.35
109110.81
109178.82
109112.02
109166.48
109105.14
109129.19
109076.18
109054.58
109110.28
109176.56
109111.33
109163.92
109104.44
109126.39
109076.31
109052.94
109109.64
109174.58
109110.59
109161.66
109103.7
109123.97
109076.26
109051.49
109109.06
109173.08
109109.93
109159.89
109103.05
109122.07
109076.13
109050.36
109108.51
109171.51
109109.29
109158.07
109102.44
109120.12
109076.09
109049.23
106764.68
107453.38
106951.23
107588.75
107187.35
107786.41
106768.51
107456.21
106956.42
107592.51
107192.28
107790.56
106772.79
107458.74
106961.51
107595.84
107197.01
107794.23
106780.24
107463.05
106969.92
107601.02
107204.82
107799.79
106791.91
107469.33
106981.87
107608.08
107215.81
107807.18
106809.3
107478.59
106999.13
107618.02
107231.57
107817.29
106833.65
107491.63
107022.66
107631.38
107253.09
107830.71
106867.18
107509.52
107053.86
107648.95
107281.35
107847.94
106914.28
107535.22
107096.91
107673.3
107319.97
107871.1
106977.47
107570.49
107154.15
107705.97
107371.96
107902.19
107060.11
107618.04
107228.59
107749.4
107440.14
107943.07
107168.64
107682.96
107326.55
107808.14
107530.17
107997.77
107305.92
107768.88
107450.84
107885.84
107644.59
108069.46
107472.28
107877.69
107603.55
107985.3
107787.64
108162.09
107667.97
108011.61
107784.27
108108.07
107959.79
108279.9
107863.22
108152.39
107968.02
108240.88
108135.76
108408.69
108032.95
108278.63
108128.68
108362.16
108289.09
108528.07
108181.28
108393.78
108269.76
108473.79
108423.05
108637.58
108304.89
108492.94
108388.23
108570.4
108537.8
108728.83
108406.01
108576.85
108482.57
108649.23
108628.93
108803.08
108487.96
108648.95
108561.09
108720.13
108704.23
108871.57
108549.11
108706.56
108617.96
108774.47
108757.2
108922.09
108585.86
108747.6
108652.8
108812.26
108786.85
108956.25
108608.65
108775.17
108672.71
108837.22
108801.44
108977.88
108622.13
108793.79
108683.4
108853.34
108807.39
108990.52
108629.65
108806.77
108689.06
108863.83
108809.21
108998.13
108634.18
108815.93
108692.17
108870.68
108809.03
109002.64
108637.11
108822.54
108693.77
108875.25
108808.04
109005.01
108639.29
108827.29
108694.86
108878.43
108807.26
109006.57
108640.82
108830.64
108695.37
108880.42
108806.44
109007.05
108642.15
108833.16
108695.71
108881.83
108805.67
109007.19
108643.11
108834.95
108696.07
108882.7
108805.28
109007.23
108643.93
108836.2
108696.38
108883.21
108805.08
109007.06
108644.74
108837.14
108696.73
108883.55
108805.02
109006.94
108645.39
108837.79
108697.05
108883.76
108805.07
109006.83
108646.15
108838.55
108697.44
108884.03
108805.17
109006.73
108983.98
108837.57
108671.6
108469.21
108195.7
107836.75
108964.66
108818.14
108654.53
108452.66
108182.26
107826.85
108984.22
108838.99
108672.84
108470.29
108196.57
107837.11
108964.34
108818.81
108654.92
108452.76
108181.72
107825.06
108984.31
108840.77
108674.14
108471.35
108197.42
107837.56
108963.91
108819.86
108655.43
108452.92
108181.34
107823.78
108984.7
108843
108675.94
108472.93
108198.83
107838.56
108963.57
108821.23
108656.22
108453.32
108181.1
107822.39
108985.24
108845.76
108678.17
108474.98
108200.9
107840.47
108963.16
108822.98
108657.27
108454.02
108181.26
107821.59
108985.98
108849.32
108681.09
108477.76
108203.89
107843.65
108962.76
108825.27
108658.75
108455.13
108181.92
107821.42
108986.96
108853.84
108684.88
108481.51
108208.18
107848.64
108962.32
108828.24
108660.85
108456.91
108183.47
107822.55
108988.33
108859.52
108689.78
108486.54
108214.3
107856.44
108961.95
108832.11
108663.83
108459.81
108186.74
107826.56
108990.36
108866.71
108696.25
108493.5
108223.2
107868.41
108961.67
108837.17
108668.09
108464.25
108192.3
107834.07
108993.15
108875.7
108704.73
108502.89
108235.73
107886.19
108961.73
108843.69
108674.02
108470.94
108201.47
107847.63
108997.77
108886.89
108715.91
108515.88
108253.75
107912.63
108962.47
108852.1
108682.53
108481.28
108216.58
107870.94
109004.03
108900.54
108730.67
108533.59
108279
107950.48
108963.93
108862.71
108694.3
108496.22
108239.1
107906.02
109014.31
108918.38
108751.2
108558.48
108314.47
108003.85
108968.26
108876.28
108710.75
108517.92
108272.32
107958.26
109027.3
108938.56
108777.22
108592.19
108363.32
108076.37
108973.04
108892.56
108733.64
108549.57
108320.56
108031.78
109037.51
108959.41
108809.42
108636.15
108427.44
108170.58
108978.44
108909.71
108762.74
108592.68
108386.21
108129.51
109051.52
108983.63
108846.74
108686.61
108498.65
108272.17
108985.92
108928.08
108795.73
108641.36
108458.32
108234.79
109065.46
109005.83
108880.11
108733.39
108564.66
108365.29
108994.44
108944.65
108826.08
108686.95
108525.33
108331.22
109080.89
109028.8
108914.62
108780.2
108627.91
108451.38
109003.9
108960.66
108855.38
108730.59
108587.8
108418.83
109094.88
109047.74
108944.37
108821.6
108683.28
108525.69
109012.78
108973.87
108880.17
108768.12
108641.32
108493.26
109108.65
109065.02
108971.47
108859.98
108733.04
108590.19
109021.42
108985.62
108902.21
108801.86
108688.89
108558.06
109124.12
109081.51
108996.18
108893.74
108776.25
108644.15
109030.79
108995.5
108920.45
108830.41
108728.72
108611.05
109145.23
109100.91
109019.43
108923.94
108813.83
108688.96
109044.05
109006.17
108936.8
108855.25
108762.08
108653.61
109170.88
109122.15
109041.23
108949.59
108843.38
108721.88
109059.49
109017.08
108950.64
108874.88
108786.61
108682.63
109194.23
109138.19
109058.43
108969.17
108865.05
108744.52
109074.21
109025.13
108960.09
108888.45
108802.9
108700.62
109216.48
109151.55
109071.69
108984.51
108881.52
108760.73
109087.25
109031.19
108967.37
108898.97
108814.85
108712.79
109234.51
109162.67
109083.39
108996.83
108894.11
108772.56
109099.78
109035.45
108972.52
108906.64
108823.33
108720.97
109251.77
109170.91
109092.15
109006.59
108903.86
108781.46
109110.65
109038.57
108976.65
108912.8
108829.91
108726.98
109266.28
109177.26
109099.44
109014.6
108911.6
108788.29
109120.26
109040.7
108979.84
108917.6
108835
108731.52
109278.7
109182.14
109105.32
109020.99
108917.74
108793.61
109128.71
109042.07
108982.39
108921.37
108838.96
108734.98
109289.24
109185.81
109109.83
109026.26
108922.57
108797.7
109135.77
109042.98
108984.42
108924.38
108842.13
108737.7
109297.96
109188.55
109113.5
109030.44
108926.39
108800.93
109141.83
109043.48
108986.06
108926.65
108844.55
108739.77
109305.19
109190.61
109116.38
109033.69
108929.47
108803.53
109146.81
109043.77
108987.36
108928.47
108846.5
108741.46
109311.1
109192.21
109118.76
109036.33
108931.87
108805.5
109150.95
109043.98
108988.38
108929.95
108848.01
108742.71
109315.89
109193.38
109120.61
109038.35
108933.73
108807.04
109154.28
109044.07
108989.15
108931.03
108849.13
108743.68
109319.97
109194.08
109121.9
109039.81
108935.11
108808.19
109157.28
109043.99
108989.65
108931.81
108849.96
108744.39
109324.34
109195.87