/*--------------------------------*- C++ -*----------------------------------*\
| =========                 |                                                 |
| \\      /  F ield         | OpenFOAM: The Open Source CFD Toolbox           |
|  \\    /   O peration     | Version:  2206                                  |
|   \\  /    A nd           | Website:  www.openfoam.com                      |
|    \\/     M anipulation  |                                                 |
\*---------------------------------------------------------------------------*/
FoamFile
{
    version     2.0;
    format      ascii;
    arch        "LSB;label=32;scalar=64";
    class       surfaceScalarField;
    location    "400";
    object      phi;
}
// * * * * * * * * * * * * * * * * * * * * * * * * * * * * * * * * * * * * * //

dimensions      [1 0 -1 0 0 0 0];

oriented        oriented;

internalField   nonuniform List<scalar> 
146294
(
1.4524903e-06
-3.846028e-07
-1.9821641e-07
2.890214e-07
-1.1588604e-06
-5.2543589e-07
-3.5478019e-07
3.9191839e-07
1.9407743e-06
1.059279e-06
-1.6730037e-07
-4.2685683e-07
-8.4973218e-07
-2.6006096e-07
-5.8419818e-07
1.3781051e-06
3.0746254e-06
-8.0522865e-07
-4.4776839e-07
6.6985606e-07
-2.6898593e-06
-9.8621557e-07
-7.8026248e-07
8.233103e-07
3.6629918e-06
2.1770188e-06
-3.8111683e-07
-8.3521697e-07
-1.9332255e-06
-5.8447914e-07
-1.0247817e-06
2.5400072e-06
4.612854e-06
-1.174201e-06
-7.3508081e-07
1.025061e-06
-4.1764526e-06
-1.377429e-06
-1.2832985e-06
1.2147446e-06
5.2785707e-06
3.2405493e-06
-6.3447022e-07
-1.1762142e-06
-2.9851861e-06
-9.7860962e-07
-1.3838581e-06
3.6411088e-06
6.3814168e-06
-1.5812739e-06
-1.0751761e-06
1.4374013e-06
-5.8975331e-06
-1.8096484e-06
-1.8826878e-06
1.6626584e-06
7.1277776e-06
4.4653204e-06
-9.3300941e-07
-1.5481816e-06
-4.1998841e-06
-1.4501325e-06
-1.7785101e-06
4.9057055e-06
8.5543573e-06
-2.0836337e-06
-1.4723913e-06
1.9513689e-06
-8.0248904e-06
-2.3485819e-06
-2.5733596e-06
2.2189313e-06
9.3746801e-06
5.9597856e-06
-1.2786562e-06
-2.0103469e-06
-5.6874269e-06
-1.999761e-06
-2.2778325e-06
6.4386647e-06
1.1145946e-05
-2.6916453e-06
-1.9509244e-06
2.5571021e-06
-1.053291e-05
-3.0195863e-06
-3.3779433e-06
2.8892409e-06
1.208086e-05
7.7436021e-06
-1.6919231e-06
-2.5814675e-06
-7.4405221e-06
-2.6450471e-06
-2.9135968e-06
8.2828963e-06
1.443174e-05
-3.4607006e-06
-2.5556428e-06
3.3048021e-06
-1.367112e-05
-3.8866296e-06
-4.3532021e-06
3.7364901e-06
1.5557139e-05
1.0002086e-05
-2.213389e-06
-3.315477e-06
-9.6258445e-06
-3.4241195e-06
-3.744288e-06
1.0638816e-05
1.859732e-05
-4.4311171e-06
-3.3022361e-06
4.2371926e-06
-1.7656816e-05
-4.9858743e-06
-5.5315761e-06
4.8043057e-06
1.9957254e-05
1.2883777e-05
-2.8554352e-06
-4.2496106e-06
-1.2423243e-05
-4.3630706e-06
-4.8007431e-06
1.3637593e-05
2.3859406e-05
-5.6492313e-06
-4.2284584e-06
5.3947318e-06
-2.2678683e-05
-6.3808208e-06
-6.9525753e-06
6.1457142e-06
2.5515512e-05
1.6540167e-05
-3.6520322e-06
-5.4352818e-06
-1.5957521e-05
-5.5025915e-06
-6.1515579e-06
1.7450424e-05
3.0086321e-05
-7.0562113e-06
-5.1419567e-06
6.7159634e-06
-2.8832577e-05
-7.9384805e-06
-8.4299346e-06
7.6348798e-06
3.1867279e-05
2.0933752e-05
-4.425607e-06
-6.827667e-06
-2.0388724e-05
-6.6800857e-06
-7.6743931e-06
2.1847157e-05
3.8487997e-05
-8.8890027e-06
-6.1990182e-06
8.4666042e-06
-3.7008538e-05
-1.0028262e-05
-1.0130356e-05
9.6551101e-06
4.056157e-05
2.6741823e-05
-5.3286513e-06
-8.6169565e-06
-2.6110827e-05
-8.0549946e-06
-9.6957095e-06
2.7784177e-05
5.0257317e-05
-1.1332067e-05
-7.4115154e-06
1.0833423e-05
-4.8546175e-05
-1.2809329e-05
-1.2081277e-05
1.236232e-05
5.2655247e-05
3.4841787e-05
-6.3716601e-06
-1.0996947e-05
-3.41339e-05
-9.6638986e-06
-1.2383693e-05
3.6025054e-05
6.3751241e-05
-1.3974324e-05
-8.3930493e-06
1.3323161e-05
-6.2118545e-05
-1.576159e-05
-1.3970961e-05
1.521311e-05
6.6189404e-05
4.4210415e-05
-7.1430403e-06
-1.3627563e-05
-4.3785798e-05
-1.1185608e-05
-1.5243488e-05
4.521402e-05
8.3983738e-05
-1.761316e-05
-9.6779992e-06
1.6800574e-05
-8.1886203e-05
-1.9802766e-05
-1.5407725e-05
1.9113849e-05
8.6109417e-05
5.8183068e-05
-8.2779325e-06
-1.7220518e-05
-5.7440819e-05
-1.2291198e-05
-1.9158274e-05
5.8644165e-05
0.00010871629
-2.1743451e-05
-1.0569716e-05
2.0775241e-05
-0.00010685637
-2.4167664e-05
-1.6230383e-05
2.3403182e-05
0.00011030343
7.5017875e-05
-9.1448902e-06
-2.1242703e-05
-7.4651668e-05
-1.2927141e-05
-2.3337687e-05
7.4823839e-05
0.00011314764
-2.1352945e-05
-1.1036783e-05
2.0411029e-05
-0.00011173866
-2.361188e-05
-1.646485e-05
2.284922e-05
0.00011414476
7.7966818e-05
-9.7370348e-06
-2.0851939e-05
-7.7875682e-05
-1.3201002e-05
-2.2808111e-05
7.7436908e-05
0.0001183791
-2.1117595e-05
-1.115006e-05
2.0339992e-05
-0.00011748822
-2.3199362e-05
-1.619879e-05
2.2559804e-05
0.00011875259
8.1262657e-05
-1.0012535e-05
-2.0518748e-05
-8.1586007e-05
-1.3081179e-05
-2.2322538e-05
8.0266009e-05
0.00012441024
-2.0807521e-05
-1.0907632e-05
2.026186e-05
-0.00012410701
-2.2616182e-05
-1.552646e-05
2.2329724e-05
0.00012402437
8.4319624e-05
-9.7555366e-06
-2.0253581e-05
-8.5130566e-05
-1.2400303e-05
-2.1954419e-05
8.2976981e-05
0.00013437118
-2.0121927e-05
-1.0633915e-05
2.037207e-05
-0.00013489505
-2.0766184e-05
-1.5167381e-05
2.2373483e-05
0.0001324048
8.4414307e-05
-8.5738608e-06
-2.0126952e-05
-8.5590961e-05
-1.0972017e-05
-2.1825027e-05
8.404486e-05
0.00014841008
-2.0341374e-05
-1.0022808e-05
2.0740169e-05
-0.00014941998
-1.9247409e-05
-1.415082e-05
2.2817896e-05
0.00014382302
8.2671117e-05
-7.4162714e-06
-2.0340238e-05
-8.3829846e-05
-9.4334837e-06
-2.2155924e-05
8.4041095e-05
0.00016275006
-2.0680738e-05
-8.9569961e-06
2.1098214e-05
-0.00016423335
-1.7911457e-05
-1.2316065e-05
2.3264874e-05
0.00015556188
8.1283459e-05
-6.1849467e-06
-2.0709189e-05
-8.2486335e-05
-7.6841551e-06
-2.2647495e-05
8.4270165e-05
0.00017401887
-2.1490519e-05
-7.0984598e-06
2.1578145e-05
-0.00017596504
-1.7501754e-05
-9.3559364e-06
2.3785271e-05
0.00016477522
8.300051e-05
-5.1494823e-06
-2.1094967e-05
-8.4431529e-05
-6.1658558e-06
-2.3240108e-05
8.722056e-05
0.00014373822
-1.7357356e-05
-5.6042854e-06
1.7422143e-05
-0.00014529719
-1.3540021e-05
-6.7299025e-06
1.9161445e-05
0.00013549075
6.96323e-05
-4.1910038e-06
-1.7031585e-05
-7.0916551e-05
-4.6679784e-06
-1.8909456e-05
7.3503853e-05
0.0001173609
-1.3904149e-05
-4.4788003e-06
1.397107e-05
-0.00011855331
-1.0438282e-05
-4.6313044e-06
1.5327254e-05
0.00011037333
5.7758305e-05
-3.4271457e-06
-1.3623225e-05
-5.8803089e-05
-3.3756487e-06
-1.521492e-05
6.1242611e-05
9.5043572e-05
-1.1112e-05
-3.6505533e-06
1.1141799e-05
-9.5901621e-05
-8.0558214e-06
-3.1120518e-06
1.22046e-05
8.9375526e-05
4.7388174e-05
-2.7950459e-06
-1.0891024e-05
-4.824125e-05
-2.3163253e-06
-1.2200085e-05
5.0473109e-05
7.5632171e-05
-8.7301949e-06
-3.056534e-06
8.7620661e-06
-7.6258068e-05
-6.1352502e-06
-2.0635142e-06
9.5694367e-06
7.1149444e-05
3.800099e-05
-2.3490303e-06
-8.537906e-06
-3.8639294e-05
-1.5688901e-06
-9.5904761e-06
4.0708779e-05
6.1546108e-05
-7.037816e-06
-2.6153508e-06
7.061086e-06
-6.2010565e-05
-4.8102767e-06
-1.3444098e-06
7.6952633e-06
5.7941997e-05
3.1106504e-05
-2.0034609e-06
-6.8707327e-06
-3.1619156e-05
-1.0426634e-06
-7.7220978e-06
3.3492091e-05
4.953187e-05
-5.6395073e-06
-2.2522662e-06
5.6139884e-06
-4.9869441e-05
-3.7596172e-06
-8.8288765e-07
6.1189082e-06
4.6711048e-05
2.5235234e-05
-1.6554743e-06
-5.5154087e-06
-2.5707317e-05
-6.8017194e-07
-6.1879798e-06
2.7301102e-05
3.9126377e-05
-4.4251704e-06
-1.9652702e-06
4.4102901e-06
-3.9398495e-05
-2.8990415e-06
-6.503899e-07
4.7998696e-06
3.699302e-05
1.9977623e-05
-1.3905248e-06
-4.317329e-06
-2.0350411e-05
-5.7478506e-07
-4.8598464e-06
2.1833029e-05
3.0815917e-05
-3.4606726e-06
-1.7533009e-06
3.4559719e-06
-3.1023188e-05
-2.2470895e-06
-5.4856713e-07
3.7661744e-06
2.9194988e-05
1.5737466e-05
-1.1818424e-06
-3.3697594e-06
-1.6037058e-05
-4.9978764e-07
-3.8044086e-06
1.721978e-05
2.4102895e-05
-2.6818729e-06
-1.4501909e-06
2.7008008e-06
-2.4424934e-05
-1.7026511e-06
-3.6679016e-07
2.8740865e-06
2.2749639e-05
1.227021e-05
-9.2625979e-07
-2.6111642e-06
-1.2596496e-05
-3.3065935e-07
-2.9525708e-06
1.3350985e-05
1.7949988e-05
-1.9307705e-06
-9.6228325e-07
1.9080656e-06
-1.8415192e-05
-1.1885633e-06
-1.1844856e-07
1.9965551e-06
1.6893624e-05
9.0376542e-06
-5.9710637e-07
-1.9101518e-06
-9.3874213e-06
-1.6299295e-07
-2.1764986e-06
9.8579109e-06
1.2706754e-05
-1.2885045e-06
-5.0305174e-07
1.2030002e-06
-1.3080482e-05
-7.7719159e-07
3.2746834e-08
1.2562886e-06
1.2076424e-05
6.3559998e-06
-3.1505738e-07
-1.3317074e-06
-6.59484e-06
-7.088081e-08
-1.5605965e-06
7.047277e-06
8.5577923e-06
-8.0782439e-07
-1.9640393e-07
6.8050288e-07
-8.7371195e-06
-4.8181484e-07
7.63091e-08
7.2782978e-07
8.2681766e-06
4.2736352e-06
-1.2621745e-07
-8.9185961e-07
-4.3784335e-06
-2.807375e-08
-1.0862445e-06
4.8352413e-06
4.9896813e-06
-4.3248051e-07
-3.7954645e-08
3.1044773e-07
-5.0260988e-06
-2.5337263e-07
5.3362004e-08
3.4653542e-07
4.9194155e-06
2.4946102e-06
-2.530832e-08
-5.2422071e-07
-2.5037706e-06
-9.3999291e-10
-6.6802964e-07
2.8821116e-06
1.6496509e-06
-1.2341382e-07
6.2926899e-08
-1.6271187e-06
-6.4255487e-08
7.530783e-08
1.6919606e-06
8.3077868e-07
-1.7549383e-07
-8.0400702e-07
-2.3318767e-07
9.9877088e-07
1.2541497e-06
-4.620001e-07
-2.223288e-07
-9.9667717e-07
-5.5666707e-07
-2.8226122e-07
1.5088825e-06
3.2456622e-07
-4.4606286e-07
-7.301903e-08
-2.6748361e-07
-5.641339e-07
-5.2078461e-08
3.8411437e-07
1.4171948e-07
-4.2575809e-07
-3.5499436e-08
-1.2652064e-07
-5.4350438e-07
-2.3977319e-08
1.4506664e-07
7.4001766e-08
-4.1071508e-07
-1.9924027e-08
-6.9118434e-08
-5.2017979e-07
-1.597698e-08
6.6653268e-08
4.4897873e-08
-4.0002909e-07
-1.2518486e-08
-4.3064122e-08
-5.0021523e-07
-1.0945837e-08
3.5878816e-08
3.1270673e-08
-3.9201588e-07
-8.8566146e-09
-3.0426456e-08
-4.8317721e-07
-8.1972921e-09
2.2429686e-08
2.4790043e-08
-7.0560809e-09
-3.8546558e-07
-2.4283637e-08
-6.8216608e-09
-4.6767058e-07
1.6104889e-08
2.5761054e-06
-8.3683787e-07
-5.1773747e-07
-2.2790755e-06
-8.9482342e-07
-6.549712e-07
2.8188677e-06
7.1101329e-07
-8.0690899e-07
-1.7408115e-07
-6.3987529e-07
-9.0144759e-07
-1.6011656e-07
8.256787e-07
3.3355181e-07
-7.7536609e-07
-8.7896594e-08
-3.1269322e-07
-8.7364331e-07
-8.382695e-08
3.6559693e-07
1.8260616e-07
-7.535698e-07
-4.9964832e-08
-1.7435988e-07
-8.4678774e-07
-5.1519382e-08
1.912925e-07
1.1445793e-07
-7.3871768e-07
-3.1712258e-08
-1.1011541e-07
-8.2415131e-07
-3.396554e-08
1.14841e-07
8.1546693e-08
-7.2797858e-07
-2.2640526e-08
-7.8501194e-08
-8.0462859e-07
-2.478149e-08
7.8607943e-08
6.5774088e-08
-1.8212184e-08
-7.1954602e-07
-6.3050258e-08
-2.0151535e-08
-7.8644584e-07
6.0921107e-08
3.8690135e-06
-1.1376861e-06
-8.7724189e-07
-3.5480395e-06
-1.1540558e-06
-1.1387446e-06
4.1229832e-06
1.101309e-06
-1.0982281e-06
-2.9853899e-07
-1.0163092e-06
-1.1724997e-06
-3.1485958e-07
1.2744965e-06
5.2913427e-07
-1.0599248e-06
-1.5277477e-07
-5.0255823e-07
-1.1473847e-06
-1.6590659e-07
5.8609851e-07
2.9316346e-07
-1.0336385e-06
-8.7455216e-08
-2.8195851e-07
-1.1214793e-06
-9.8755211e-08
3.1449375e-07
1.8503236e-07
-1.0158055e-06
-5.5969799e-08
-1.7860731e-07
-1.098302e-06
-6.4274531e-08
1.9216381e-07
1.3231761e-07
-1.0030519e-06
-4.0247995e-08
-1.2746324e-07
-1.0772052e-06
-4.6688026e-08
1.3312721e-07
1.069334e-07
-3.2578088e-08
-9.9325275e-07
-1.023662e-07
-3.7922528e-08
-1.0565736e-06
1.0407255e-07
5.3732917e-06
-1.4713599e-06
-1.2990869e-06
-5.0282699e-06
-1.4434088e-06
-1.7283599e-06
5.6278121e-06
1.5536656e-06
-1.4230765e-06
-4.436311e-07
-1.4568549e-06
-1.4825461e-06
-5.08448e-07
1.7863921e-06
7.5390638e-07
-1.3776872e-06
-2.2750073e-07
-7.2456847e-07
-1.4626043e-06
-2.6215374e-07
8.302116e-07
4.192281e-07
-1.3469591e-06
-1.2995866e-07
-4.0745207e-07
-1.4377524e-06
-1.5274135e-07
4.4836225e-07
2.6491655e-07
-1.3267425e-06
-8.2934786e-08
-2.5816767e-07
-1.4146027e-06
-9.7862746e-08
2.7535494e-07
1.893826e-07
-1.3129298e-06
-5.9400038e-08
-1.8404292e-07
-1.3928822e-06
-7.024866e-08
1.9122263e-07
1.528535e-07
-4.7890887e-08
-1.3029448e-06
-1.4752524e-07
-5.6545544e-08
-1.3710753e-06
1.4966928e-07
7.2001982e-06
-1.8942786e-06
-1.7770744e-06
-6.8382822e-06
-1.823518e-06
-2.4259856e-06
7.4435083e-06
2.0945363e-06
-1.8363001e-06
-6.0468576e-07
-1.9914603e-06
-1.8907358e-06
-7.2611281e-07
2.3794192e-06
1.0192262e-06
-1.7819805e-06
-3.0797394e-07
-9.9307235e-07
-1.8768637e-06
-3.7101954e-07
1.1142199e-06
5.66624e-07
-1.7448374e-06
-1.750711e-07
-5.5865451e-07
-1.8491124e-06
-2.1308725e-07
5.9921853e-07
3.5726032e-07
-1.7200267e-06
-1.1142236e-07
-3.5358314e-07
-1.8211402e-06
-1.3614111e-07
3.6756656e-07
2.546184e-07
-1.7029883e-06
-7.9567486e-08
-2.5148895e-07
-1.7939167e-06
-9.7523471e-08
2.5466943e-07
2.0465361e-07
-6.3862231e-08
-1.6907139e-06
-2.0095642e-07
-7.8254304e-08
-1.7662846e-06
1.9873015e-07
9.3797277e-06
-2.4250749e-06
-2.3382766e-06
-8.9749222e-06
-2.3209577e-06
-3.2537673e-06
9.6148705e-06
2.7306937e-06
-2.3528668e-06
-7.9016085e-07
-2.6174271e-06
-2.419566e-06
-9.8356063e-07
3.0867494e-06
1.3289059e-06
-2.284499e-06
-3.9980666e-07
-1.3054409e-06
-2.4111161e-06
-4.986106e-07
1.4480469e-06
7.3765002e-07
-2.2382048e-06
-2.2577637e-07
-7.3323886e-07
-2.3814471e-06
-2.8390981e-07
7.7880376e-07
4.6386061e-07
-2.2078959e-06
-1.4274305e-07
-4.6284884e-07
-2.3497195e-06
-1.8040454e-07
4.7639639e-07
3.2941866e-07
-2.187413e-06
-1.0137621e-07
-3.2809256e-07
-2.3186045e-06
-1.2843796e-07
3.2921795e-07
2.638299e-07
-8.0939332e-08
-2.1731628e-06
-2.6100286e-07
-1.023813e-07
-2.2864029e-06
2.5575536e-07
1.2114985e-05
-3.1121793e-06
-3.0417878e-06
-1.1614774e-05
-2.9788939e-06
-4.262072e-06
1.2357895e-05
3.5162418e-06
-3.0215776e-06
-1.0166565e-06
-3.3803485e-06
-3.1184083e-06
-1.3065126e-06
3.9787081e-06
1.7093325e-06
-2.9337529e-06
-5.1307324e-07
-1.683891e-06
-3.1176837e-06
-6.5793885e-07
1.8679361e-06
9.4693506e-07
-2.8740516e-06
-2.8887387e-07
-9.4353885e-07
-3.0842179e-06
-3.7367679e-07
1.0032362e-06
5.9350161e-07
-2.8347763e-06
-1.8205865e-07
-5.9346121e-07
-3.0455914e-06
-2.3634557e-07
6.1081622e-07
4.1944289e-07
-2.8083576e-06
-1.2866658e-07
-4.1857106e-07
-3.0069477e-06
-1.6704282e-07
4.194041e-07
3.3399239e-07
-1.0205576e-07
-2.790137e-06
-3.3109637e-07
-1.321169e-07
-2.9671593e-06
3.2393913e-07
1.5625771e-05
-3.9888811e-06
-3.9182423e-06
-1.5010051e-05
-3.8149547e-06
-5.5016512e-06
1.5879558e-05
4.5268723e-06
-3.8759483e-06
-1.2958708e-06
-4.3605919e-06
-4.0110936e-06
-1.7155932e-06
5.1320906e-06
2.1985868e-06
-3.7641449e-06
-6.5361854e-07
-2.1698453e-06
-4.0253424e-06
-8.57984e-07
2.4128808e-06
1.2153708e-06
-3.6886373e-06
-3.6711925e-07
-1.2126332e-06
-3.992495e-06
-4.8532681e-07
1.2941733e-06
7.5883033e-07
-3.6394431e-06
-2.3053636e-07
-7.5954685e-07
-3.9485013e-06
-3.0506924e-07
7.8356025e-07
5.3325476e-07
-3.6066952e-06
-1.6199179e-07
-5.3267748e-07
-3.9024327e-06
-2.1384691e-07
5.3399041e-07
4.2154122e-07
-1.2751816e-07
-3.5843747e-06
-4.1839936e-07
-1.6757066e-07
-3.8548404e-06
4.0940233e-07
2.013023e-05
-5.1189977e-06
-5.0090416e-06
-1.9355718e-05
-4.8935094e-06
-7.0303288e-06
2.0400856e-05
5.8330191e-06
-4.9825217e-06
-1.6386259e-06
-5.626741e-06
-5.1703974e-06
-2.2260441e-06
6.6203573e-06
2.831474e-06
-4.8413536e-06
-8.2685132e-07
-2.7994098e-06
-5.2077862e-06
-1.110774e-06
3.1216525e-06
1.5618562e-06
-4.746194e-06
-4.6368113e-07
-1.5604541e-06
-5.1801823e-06
-6.2448311e-07
1.6734084e-06
9.7089928e-07
-4.6848909e-06
-2.8992804e-07
-9.728108e-07
-5.1320942e-06
-3.8945014e-07
1.007192e-06
6.7769508e-07
-4.6446598e-06
-2.0227454e-07
-6.7764349e-07
-5.0785611e-06
-2.7052194e-07
6.8083676e-07
5.3093117e-07
-1.5771293e-07
-4.6177004e-06
-5.2769582e-07
-2.0968064e-07
-5.0224e-06
5.1688006e-07
2.5655571e-05
-6.4889092e-06
-6.1144253e-06
-2.4888949e-05
-6.1556759e-06
-8.6397657e-06
2.5746287e-05
7.4599443e-06
-6.3418669e-06
-1.9998431e-06
-7.2457703e-06
-6.567503e-06
-2.7847666e-06
8.4304926e-06
3.6242248e-06
-6.1747633e-06
-1.0125987e-06
-3.6055814e-06
-6.6569729e-06
-1.3940211e-06
3.9969413e-06
1.9950405e-06
-6.0616943e-06
-5.6764108e-07
-2.00415e-06
-6.6463552e-06
-7.7963224e-07
2.1395718e-06
1.2332459e-06
-5.9890839e-06
-3.5330114e-07
-1.2424833e-06
-6.5995521e-06
-4.8238852e-07
1.2793811e-06
8.5397321e-07
-5.9424517e-06
-2.4448058e-07
-8.5839954e-07
-6.5412407e-06
-3.317014e-07
8.5684093e-07
6.6185583e-07
-1.8846495e-07
-5.9122158e-06
-6.6133968e-07
-2.5387734e-07
-6.4778039e-06
6.4261571e-07
3.2832588e-05
-8.2417563e-06
-7.3820621e-06
-3.1940155e-05
-7.7916035e-06
-1.0502931e-05
3.2791645e-05
9.5525308e-06
-8.0772755e-06
-2.4103907e-06
-9.3064651e-06
-8.3667008e-06
-3.4242743e-06
1.0767135e-05
4.6403813e-06
-7.8748097e-06
-1.2238419e-06
-4.6316046e-06
-8.5168397e-06
-1.7227966e-06
5.1192948e-06
2.5455549e-06
-7.7371125e-06
-6.849712e-07
-2.5659224e-06
-8.5235967e-06
-9.5898907e-07
2.7316685e-06
1.5626139e-06
-7.6490973e-06
-4.2373191e-07
-1.5801986e-06
-8.4761457e-06
-5.8840739e-07
1.6211814e-06
1.0712756e-06
-7.5937917e-06
-2.9021196e-07
-1.0808503e-06
-8.4107664e-06
-3.9992049e-07
1.0741149e-06
8.191289e-07
-2.2050987e-07
-7.559165e-06
-8.2171091e-07
-3.01468e-07
-8.3381025e-06
7.940556e-07
4.2677653e-05
-1.0543601e-05
-8.8924428e-06
-4.162062e-05
-9.9420303e-06
-1.2731915e-05
4.2464973e-05
1.2380495e-05
-1.0351909e-05
-2.9034177e-06
-1.2079161e-05
-1.0749138e-05
-4.1943825e-06
1.3957711e-05
6.0062427e-06
-1.0101214e-05
-1.4787968e-06
-6.0019838e-06
-1.0982082e-05
-2.1157858e-06
6.6321752e-06
3.2795193e-06
-9.9308205e-06
-8.255484e-07
-3.3093354e-06
-1.1013113e-05
-1.1723654e-06
3.5239267e-06
1.9962205e-06
-9.8229415e-06
-5.068181e-07
-2.0210134e-06
-1.0965653e-05
-7.1289317e-07
2.0732465e-06
1.3516412e-06
-9.7567012e-06
-3.4276822e-07
-1.3653254e-06
-1.0892238e-05
-4.7800931e-07
1.3563144e-06
1.0161608e-06
-2.5579712e-07
-9.7168507e-06
-1.020724e-06
-3.5371732e-07
-1.080933e-05
9.8550274e-07
5.4145666e-05
-1.3241077e-05
-9.9881274e-06
-5.343647e-05
-1.2330244e-05
-1.4717656e-05
5.3218162e-05
1.5750695e-05
-1.3065653e-05
-3.2822785e-06
-1.5547259e-05
-1.3456764e-05
-4.8921073e-06
1.7574938e-05
7.6444094e-06
-1.2777949e-05
-1.6785715e-06
-7.7323386e-06
-1.3820905e-05
-2.4805569e-06
8.373322e-06
4.1563869e-06
-1.2578759e-05
-9.3511946e-07
-4.2460075e-06
-1.389919e-05
-1.368978e-06
4.4312838e-06
2.5101861e-06
-1.2456407e-05
-5.6944449e-07
-2.5699124e-06
-1.386384e-05
-8.2490751e-07
2.5868497e-06
1.6753379e-06
-1.2383412e-05
-3.7954876e-07
-1.711553e-06
-1.3790421e-05
-5.4478307e-07
1.6686927e-06
1.2340588e-06
-2.7710821e-07
-1.2342386e-05
-1.2537753e-06
-3.9430446e-07
-1.3704131e-05
1.1883546e-06
6.9505772e-05
-1.7076873e-05
-1.1243826e-05
-6.8393721e-05
-1.6115776e-05
-1.5708653e-05
6.7454271e-05
2.0780792e-05
-1.6753018e-05
-3.9310785e-06
-2.0455848e-05
-1.735732e-05
-5.5619356e-06
2.2692164e-05
1.0065611e-05
-1.6331431e-05
-2.0139985e-06
-1.0151772e-05
-1.7727759e-05
-2.8366966e-06
1.079219e-05
5.4363335e-06
-1.6052401e-05
-1.1152114e-06
-5.5352729e-06
-1.7779432e-05
-1.5581363e-06
5.6771641e-06
3.2432975e-06
-1.5886211e-05
-6.7016955e-07
-3.308763e-06
-1.7714077e-05
-9.2819703e-07
3.2812318e-06
2.1259861e-06
-1.5789531e-05
-4.3800866e-07
-2.1642066e-06
-1.7615791e-05
-6.0238719e-07
2.0853043e-06
1.5292077e-06
-3.1197731e-07
-1.5735742e-05
-1.5481286e-06
-4.263346e-07
-1.7509623e-05
1.4550691e-06
8.5214662e-05
-2.1314144e-05
-1.163476e-05
-8.4752291e-05
-2.0602157e-05
-1.564598e-05
8.2416456e-05
2.7374397e-05
-2.0966767e-05
-4.3752557e-06
-2.7277598e-05
-2.1876449e-05
-5.9775788e-06
2.9064332e-05
1.3245759e-05
-2.0456092e-05
-2.2405727e-06
-1.3529861e-05
-2.2209683e-05
-3.064244e-06
1.3806541e-05
7.1006481e-06
-2.0121422e-05
-1.2304249e-06
-7.3201064e-06
-2.2213255e-05
-1.6741994e-06
7.2202814e-06
4.1732595e-06
-1.992617e-05
-7.2745434e-07
-4.3112281e-06
-2.211307e-05
-9.8424677e-07
4.1291245e-06
2.6781245e-06
-1.9817507e-05
-4.6433778e-07
-2.7604591e-06
-2.199567e-05
-6.2595468e-07
2.5842915e-06
1.875727e-06
-3.2095124e-07
-1.9761672e-05
-1.92259e-06
-4.3152404e-07
-2.1882721e-05
1.7679666e-06
8.2726204e-05
-2.1059337e-05
-1.1466192e-05
-8.2687376e-05
-2.1091936e-05
-1.5043763e-05
8.0407812e-05
2.8711089e-05
-2.0787728e-05
-4.5687394e-06
-2.8789215e-05
-2.2068869e-05
-6.1343869e-06
2.984483e-05
1.3890491e-05
-2.0317249e-05
-2.3306222e-06
-1.4270922e-05
-2.2258501e-05
-3.1496691e-06
1.4165548e-05
7.389597e-06
-2.0006161e-05
-1.2688451e-06
-7.6622651e-06
-2.2198397e-05
-1.7113432e-06
7.3666367e-06
4.2791263e-06
-1.9828355e-05
-7.3891982e-07
-4.4454672e-06
-2.2080362e-05
-9.9402169e-07
4.1708664e-06
2.686612e-06
-1.9734051e-05
-4.6139228e-07
-2.7838618e-06
-2.1969396e-05
-6.2037839e-07
2.5700692e-06
1.8287157e-06
-3.097568e-07
-1.9690407e-05
-1.8835549e-06
-4.1690598e-07
-2.187688e-05
1.7215813e-06
7.9610631e-05
-2.0861307e-05
-1.0762616e-05
-7.9971651e-05
-2.158958e-05
-1.3864286e-05
7.7698195e-05
2.9781487e-05
-2.0668517e-05
-4.5326107e-06
-3.0010406e-05
-2.2306696e-05
-6.0297685e-06
3.0393984e-05
1.4436916e-05
-2.0247269e-05
-2.3063504e-06
-1.4882438e-05
-2.2380174e-05
-3.1021157e-06
1.4462841e-05
7.6373753e-06
-1.9965594e-05
-1.2465597e-06
-7.9413362e-06
-2.2271495e-05
-1.6775647e-06
7.494916e-06
4.3662393e-06
-1.9807419e-05
-7.1642182e-07
-4.5469134e-06
-2.2142628e-05
-9.6401882e-07
4.20737e-06
2.6865973e-06
-1.9727503e-05
-4.3846781e-07
-2.7894387e-06
-2.2040533e-05
-5.9125933e-07
2.5553821e-06
1.7784483e-06
-2.8624445e-07
-1.9694842e-05
-1.8346231e-06
-3.8760193e-07
-2.196833e-05
1.6769401e-06
7.6054071e-05
-2.0703231e-05
-9.5952606e-06
-7.6771778e-05
-2.2071565e-05
-1.2157678e-05
7.4464609e-05
3.0456105e-05
-2.063016e-05
-4.2568538e-06
-3.0804934e-05
-2.262219e-05
-5.6159068e-06
3.0592867e-05
1.4819576e-05
-2.0284132e-05
-2.1744696e-06
-1.5297485e-05
-2.2626546e-05
-2.9035948e-06
1.4625411e-05
7.813691e-06
-2.0045196e-05
-1.1722753e-06
-8.126912e-06
-2.2493262e-05
-1.5675266e-06
7.5703686e-06
4.4228075e-06
-1.9911712e-05
-6.6828056e-07
-4.6044334e-06
-2.236336e-05
-8.9467666e-07
4.2235625e-06
2.6759617e-06
-1.9846483e-05
-4.032922e-07
-2.7763668e-06
-2.2271442e-05
-5.4189299e-07
2.5346764e-06
1.7281328e-06
-2.5774335e-07
-1.9822373e-05
-1.7807435e-06
-3.4848886e-07
-2.2215657e-05
1.6332351e-06
7.2932852e-05
-2.0384407e-05
-8.356323e-06
-7.3914337e-05
-2.204105e-05
-1.0421289e-05
7.1412484e-05
3.0186049e-05
-2.0483993e-05
-3.7145785e-06
-3.062874e-05
-2.2618503e-05
-4.8057813e-06
2.9953376e-05
1.4751219e-05
-2.0259719e-05
-1.9050323e-06
-1.524493e-05
-2.2669959e-05
-2.4887406e-06
1.438782e-05
7.7863352e-06
-2.0087823e-05
-1.0308844e-06
-8.099623e-06
-2.2570277e-05
-1.3473865e-06
7.4665121e-06
4.400583e-06
-1.9986954e-05
-5.9040095e-07
-4.5793319e-06
-2.2460875e-05
-7.7251693e-07
4.1690206e-06
2.6517485e-06
-1.993466e-05
-3.5842826e-07
-2.748907e-06
-2.2379027e-05
-4.707689e-07
2.498776e-06
1.7004225e-06
-2.3081347e-07
-1.9911952e-05
-1.7500614e-06
-3.0514313e-07
-2.2326024e-05
1.6040738e-06
7.063815e-05
-2.0546524e-05
-7.0577127e-06
-7.1730476e-05
-2.2315024e-05
-8.6080347e-06
6.8983992e-05
2.9318569e-05
-2.0623043e-05
-3.1142964e-06
-2.9842334e-05
-2.281715e-05
-3.9316699e-06
2.8946583e-05
1.4386133e-05
-2.0424969e-05
-1.5944253e-06
-1.4894813e-05
-2.2860081e-05
-2.0327662e-06
1.397309e-05
7.6245252e-06
-2.0276587e-05
-8.6420875e-07
-7.9395837e-06
-2.2770849e-05
-1.1021293e-06
7.2900349e-06
4.3299345e-06
-2.0191814e-05
-4.9684306e-07
-4.5082646e-06
-2.2675813e-05
-6.3438442e-07
4.0967659e-06
2.6253043e-06
-2.0150422e-05
-3.0334029e-07
-2.721784e-06
-2.2607305e-05
-3.8883826e-07
2.4748652e-06
1.6965795e-06
-1.9679844e-07
-2.0135465e-05
-1.7455511e-06
-2.5397478e-07
-2.256358e-05
1.6016865e-06
6.85471e-05
-2.0817868e-05
-5.7943473e-06
-6.9701789e-05
-2.2735138e-05
-6.758807e-06
6.6785514e-05
2.8561537e-05
-2.0855087e-05
-2.553627e-06
-2.9084989e-05
-2.3161196e-05
-3.0608472e-06
2.8116771e-05
1.4070915e-05
-2.0666715e-05
-1.3069684e-06
-1.4546744e-05
-2.3189533e-05
-1.5815814e-06
1.3648067e-05
7.4875836e-06
-2.053184e-05
-7.1012182e-07
-7.7765464e-06
-2.3106908e-05
-8.5847871e-07
7.1613074e-06
4.2732463e-06
-2.0457931e-05
-4.0995173e-07
-4.4340464e-06
-2.3023695e-05
-4.9586054e-07
4.0515103e-06
2.6078903e-06
-2.0425266e-05
-2.517385e-07
-2.6921584e-06
-2.2966444e-05
-3.0566082e-07
2.4674616e-06
1.6980067e-06
-1.6451884e-07
-2.0416428e-05
-1.7391242e-06
-2.0114481e-07
-2.2930878e-05
1.6096116e-06
6.7287924e-05
-2.1087786e-05
-4.5252271e-06
-6.8564226e-05
-2.3233573e-05
-5.1040089e-06
6.5626588e-05
2.8102511e-05
-2.1098248e-05
-2.0036411e-06
-2.8642035e-05
-2.3609274e-05
-2.3366827e-06
2.7754048e-05
1.3876247e-05
-2.0918536e-05
-1.0273691e-06
-1.4335557e-05
-2.3624908e-05
-1.2156302e-06
1.3525931e-05
7.3798194e-06
-2.079851e-05
-5.5682581e-07
-7.6531426e-06
-2.3549191e-05
-6.5738586e-07
7.1030085e-06
4.2006136e-06
-2.0739892e-05
-3.185773e-07
-4.3506045e-06
-2.3481324e-05
-3.758418e-07
4.0127299e-06
2.5529803e-06
-2.0721387e-05
-1.9285448e-07
-2.6303697e-06
-2.3441833e-05
-2.2820102e-07
2.4360285e-06
1.6539955e-06
-1.2373262e-07
-2.0725379e-05
-1.6907889e-06
-1.4731336e-07
-2.3423116e-05
1.5814488e-06
5.366559e-05
-1.6994868e-05
-3.547329e-06
-5.4680206e-05
-1.8840346e-05
-3.8049069e-06
5.2297377e-05
2.2434923e-05
-1.701465e-05
-1.5802544e-06
-2.2838527e-05
-1.9136802e-05
-1.778399e-06
2.2173093e-05
1.1086914e-05
-1.6885542e-05
-8.1153754e-07
-1.1431852e-05
-1.9148742e-05
-9.3840521e-07
1.082163e-05
5.8685899e-06
-1.6799031e-05
-4.3927651e-07
-6.0726503e-06
-1.909104e-05
-5.0737897e-07
5.66088e-06
3.3083023e-06
-1.6757264e-05
-2.4939592e-07
-3.419249e-06
-1.9039905e-05
-2.8791447e-07
3.1692417e-06
1.9824418e-06
-1.6744045e-05
-1.4909251e-07
-2.0394226e-06
-1.9010255e-05
-1.7260901e-07
1.8971989e-06
1.2616704e-06
-9.406283e-08
-1.6746866e-05
-1.2885188e-06
-1.0953161e-07
-1.8995963e-05
1.2095986e-06
4.3426231e-05
-1.3575052e-05
-2.8799438e-06
-4.4141791e-05
-1.5149666e-05
-2.8492514e-06
4.2405321e-05
1.8164932e-05
-1.3612801e-05
-1.2972062e-06
-1.841023e-05
-1.5409671e-05
-1.3850117e-06
1.803155e-05
8.9830654e-06
-1.3525865e-05
-6.6740762e-07
-9.2141306e-06
-1.5422267e-05
-7.4784428e-07
8.8050997e-06
4.7362915e-06
-1.3464148e-05
-3.6127913e-07
-4.8760034e-06
-1.5376295e-05
-4.0643455e-07
4.5893764e-06
2.6482018e-06
-1.3433295e-05
-2.0407143e-07
-2.7243787e-06
-1.5335251e-05
-2.2984531e-07
2.549088e-06
1.5675932e-06
-1.3422811e-05
-1.2088138e-07
-1.6062866e-06
-1.5311128e-05
-1.3661285e-07
1.5074748e-06
9.8222993e-07
-7.5289652e-08
-1.3424028e-05
-9.9978504e-07
-8.5584853e-08
-1.5299014e-05
9.4616848e-07
3.5484935e-05
-1.0865296e-05
-2.3663438e-06
-3.6024262e-05
-1.2171187e-05
-2.1123134e-06
3.4719096e-05
1.4850304e-05
-1.0922915e-05
-1.0773459e-06
-1.5012543e-05
-1.2408022e-05
-1.0986641e-06
1.4800792e-05
7.3468863e-06
-1.0868694e-05
-5.5443054e-07
-7.5140837e-06
-1.2421054e-05
-6.1037557e-07
7.2224494e-06
3.8621923e-06
-1.0826146e-05
-3.0042052e-07
-3.9655985e-06
-1.23829e-05
-3.3528148e-07
3.7528866e-06
2.1461284e-06
-1.0804107e-05
-1.6918285e-07
-2.2030564e-06
-1.2348699e-05
-1.8973146e-07
2.0718125e-06
1.2585397e-06
-1.0796455e-05
-9.9567642e-08
-1.2875043e-06
-1.2328254e-05
-1.1221099e-07
1.2136944e-06
7.7888885e-07
-6.1411979e-08
-1.0797265e-05
-7.9195668e-07
-6.9656227e-08
-1.2317558e-05
7.5226325e-07
2.8691568e-05
-8.54636e-06
-2.0198177e-06
-2.9029641e-05
-9.6330627e-06
-1.5898497e-06
2.8211692e-05
1.2030657e-05
-8.6192132e-06
-9.393208e-07
-1.2095829e-05
-9.8605667e-06
-9.2806705e-07
1.2087566e-05
5.9573182e-06
-8.5903075e-06
-4.8486e-07
-6.055794e-06
-9.8854943e-06
-5.3094017e-07
5.9028097e-06
3.1257807e-06
-8.5634879e-06
-2.6347014e-07
-3.1895498e-06
-9.8619654e-06
-2.9487057e-07
3.0618417e-06
1.7291142e-06
-8.549437e-06
-1.4812138e-07
-1.7642268e-06
-9.8381772e-06
-1.6781264e-07
1.6834064e-06
1.0068842e-06
-8.5450269e-06
-8.677428e-08
-1.024087e-06
-9.8235162e-06
-9.9203141e-08
9.7921615e-07
6.1716578e-07
-5.3130011e-08
-8.5463595e-06
-6.2411528e-07
-6.125744e-08
-9.8157239e-06
6.009741e-07
2.3747728e-05
-6.870942e-06
-1.7553785e-06
-2.4011958e-05
-7.7698675e-06
-1.2494714e-06
2.3455116e-05
9.9359955e-06
-6.9378059e-06
-8.288054e-07
-9.9796423e-06
-7.9630851e-06
-8.2618987e-07
1.0027332e-05
4.9175775e-06
-6.9187045e-06
-4.2968117e-07
-4.9918572e-06
-7.985108e-06
-4.8830131e-07
4.8969621e-06
2.5736458e-06
-6.8984311e-06
-2.3363089e-07
-2.6237583e-06
-7.9656481e-06
-2.7390832e-07
2.5332236e-06
1.4180505e-06
-6.8875191e-06
-1.311293e-07
-1.4459541e-06
-7.9459197e-06
-1.5691534e-07
1.3874254e-06
8.2102683e-07
-6.8840188e-06
-7.6532552e-08
-8.347691e-07
-7.9334837e-06
-9.2901945e-08
8.0228913e-07
4.9934885e-07
-4.6584894e-08
-6.8849466e-06
-5.0496573e-07
-5.7188045e-08
-7.9266762e-06
4.884725e-07
1.9548955e-05
-5.5098529e-06
-1.4809498e-06
-1.982894e-05
-6.2329281e-06
-1.0128215e-06
1.9357252e-05
8.1617711e-06
-5.5707079e-06
-7.0417214e-07
-8.2255515e-06
-6.3913403e-06
-7.7494474e-07
8.2689424e-06
4.0396929e-06
-5.5589807e-06
-3.6966287e-07
-4.1114375e-06
-6.4033293e-06
-4.6835497e-07
4.0317354e-06
2.1097225e-06
-5.5441921e-06
-2.0043408e-07
-2.1577079e-06
-6.3829016e-06
-2.649459e-07
2.0803317e-06
1.1584704e-06
-5.5359162e-06
-1.1214043e-07
-1.1857348e-06
-6.3641265e-06
-1.5245313e-07
1.1352337e-06
6.6752022e-07
-5.5331745e-06
-6.5204116e-08
-6.8159064e-07
-6.3525543e-06
-9.0150776e-08
6.5319611e-07
4.0349312e-07
-3.9513615e-08
-5.5338918e-06
-4.0984684e-07
-5.5273327e-08
-6.346271e-06
3.952956e-07
1.5724771e-05
-4.3292386e-06
-1.2677612e-06
-1.5926049e-05
-4.9393846e-06
-9.0760525e-07
1.5699086e-05
6.5860094e-06
-4.3928901e-06
-6.1985486e-07
-6.6066668e-06
-5.0779226e-06
-7.8711339e-07
6.7367084e-06
3.2619511e-06
-4.3903365e-06
-3.3175485e-07
-3.3024128e-06
-5.0835736e-06
-4.8663454e-07
3.2858823e-06
1.7023259e-06
-4.3813677e-06
-1.8034735e-07
-1.7313814e-06
-5.0651242e-06
-2.7545724e-07
1.6943884e-06
9.326635e-07
-4.3759793e-06
-1.0078271e-07
-9.4940961e-07
-5.0498581e-06
-1.5737394e-07
9.223179e-07
5.3582612e-07
-4.3746356e-06
-5.8455071e-08
-5.4391877e-07
-5.04086e-06
-9.2436389e-08
5.2911402e-07
3.2235149e-07
-3.5312161e-08
-4.3756664e-06
-3.2552239e-07
-5.6304995e-08
-5.0361177e-06
3.1864049e-07
1.2529188e-05
-3.391623e-06