/*--------------------------------*- C++ -*----------------------------------*\
| =========                 |                                                 |
| \\      /  F ield         | OpenFOAM: The Open Source CFD Toolbox           |
|  \\    /   O peration     | Version:  2206                                  |
|   \\  /    A nd           | Website:  www.openfoam.com                      |
|    \\/     M anipulation  |                                                 |
\*---------------------------------------------------------------------------*/
FoamFile
{
    version     2.0;
    format      ascii;
    arch        "LSB;label=32;scalar=64";
    class       volScalarField;
    location    "400";
    object      rho;
}
// * * * * * * * * * * * * * * * * * * * * * * * * * * * * * * * * * * * * * //

dimensions      [1 -3 0 0 0 0 0];

internalField   nonuniform List<scalar> 
50904
(
1.2382601
1.2320804
1.2380034
1.2320465
1.2389016
1.233187
1.2387033
1.2332902
1.2396242
1.2342492
1.2394768
1.2343957
1.2403376
1.2351554
1.2402123
1.2352606
1.2412464
1.2361483
1.2410955
1.2361569
1.242152
1.2370331
1.241872
1.2368698
1.2425365
1.2374421
1.2421574
1.237164
1.2426827
1.2376838
1.2422585
1.2373479
1.2428563
1.2380105
1.2423898
1.2376142
1.2431088
1.23847
1.2426074
1.2380225
1.2434691
1.2391007
1.2429507
1.2386241
1.2439706
1.2399402
1.2434371
1.239434
1.2446562
1.2410289
1.2441322
1.2405179
1.2455361
1.2423691
1.2450395
1.2418764
1.2466482
1.2439758
1.2461963
1.2435316
1.2477997
1.245567
1.2473954
1.2451839
1.2488313
1.2469499
1.2484724
1.2466224
1.249761
1.2481553
1.2494356
1.2478719
1.2505528
1.249163
1.2502438
1.2489068
1.2512277
1.25
1.2509361
1.2497755
1.2517806
1.2506645
1.2514994
1.2504652
1.2522408
1.2511802
1.2519551
1.2509902
1.2525789
1.2515107
1.2522633
1.251296
1.2528124
1.2516907
1.252454
1.2514346
1.2529819
1.2517972
1.2525823
1.2514883
1.2531102
1.2518582
1.2526752
1.2514946
1.2532145
1.2518903
1.2527521
1.2514669
1.2533021
1.2519079
1.2528203
1.2514226
1.2533754
1.2519129
1.2528754
1.2513865
1.2533746
1.2518084
1.2528325
1.2512076
1.2530185
1.2513178
1.2523488
1.2506088
1.2521948
1.2504556
1.2515043
1.2497625
1.2515838
1.2499519
1.2509705
1.2493569
1.2513169
1.2497221
1.2507541
1.2491383
1.2511625
1.2495742
1.2506158
1.2489653
1.2511005
1.2495062
1.2505457
1.2488704
1.2387195
1.2334477
1.2415335
1.2381891
1.2426412
1.2403789
1.2432512
1.2416452
1.24361
1.2423961
1.2438474
1.2428936
1.2440203
1.2432655
1.2393841
1.234619
1.2420654
1.2390792
1.2431055
1.2410516
1.243669
1.2422224
1.2439956
1.2429093
1.2442093
1.2433586
1.2443636
1.2436928
1.2400909
1.235631
1.2426521
1.239879
1.2436488
1.2416888
1.2441882
1.2428231
1.2445058
1.2435142
1.244717
1.2439746
1.2448702
1.2443168
1.2407461
1.2363921
1.2432023
1.2404987
1.2441856
1.2422208
1.2447196
1.243316
1.2450343
1.2439923
1.2452446
1.2444515
1.2453983
1.2447971
1.2415295
1.2371658
1.2439121
1.2411276
1.2449099
1.2428167
1.2454653
1.2439187
1.2458021
1.2445914
1.2460309
1.245051
1.2461992
1.2453886
1.2422011
1.2377417
1.2445237
1.241518
1.2455178
1.2431517
1.2460622
1.2442319
1.2463923
1.2448977
1.2466215
1.2453574
1.2467863
1.2457242
1.2424221
1.2379279
1.2447052
1.2415096
1.2457
1.2431234
1.2462452
1.2442282
1.2465761
1.244919
1.2468009
1.2453943
1.2469663
1.2457675
1.2424773
1.2380242
1.2447215
1.2414059
1.2457098
1.2429832
1.2462507
1.2440909
1.2465801
1.2447948
1.2468035
1.2452766
1.2469673
1.2456491
1.2425628
1.2381895
1.2447701
1.2413522
1.2457557
1.2428933
1.246294
1.2439978
1.2466225
1.2447085
1.2468444
1.2451894
1.2470058
1.2455573
1.2427342
1.2384935
1.2448911
1.2414018
1.2458675
1.2428908
1.2464006
1.2439791
1.2467267
1.2446816
1.2469448
1.2451688
1.2471034
1.2455301
1.2430431
1.2390045
1.2451434
1.2416678
1.2461046
1.2430851
1.2466296
1.2441353
1.2469502
1.2448163
1.2471623
1.2453011
1.2473162
1.2456539
1.2434985
1.2397146
1.2455261
1.2421119
1.246467
1.2434562
1.2469788
1.2444643
1.2472914
1.2451256
1.247498
1.2456004
1.2476453
1.2459391
1.2441947
1.240746
1.2461418
1.2429289
1.2470563
1.2441424
1.2475484
1.245099
1.247845
1.2457553
1.2480413
1.246197
1.248178
1.2465108
1.2451134
1.2420489
1.2469549
1.244003
1.2478412
1.2451371
1.2483146
1.2460586
1.2485976
1.2466842
1.2487833
1.247092
1.2489113
1.2473785
1.2462844
1.243659
1.2479792
1.2453751
1.2488371
1.2464443
1.2492892
1.2473314
1.2495583
1.2479071
1.2497316
1.24828
1.249848
1.248534
1.2475284
1.2453131
1.2490827
1.2468398
1.2498943
1.2478425
1.2503224
1.2486548
1.2505728
1.2491731
1.2507308
1.2495043
1.2508335
1.2497229
1.2486568
1.2467637
1.2500827
1.2481354
1.2508394
1.2490673
1.2512391
1.2498054
1.2514692
1.2502677
1.2516118
1.250559
1.2517016
1.2507455
1.2496622
1.2480228
1.2509667
1.2492667
1.2516649
1.2501384
1.2520351
1.2508109
1.2522453
1.2512242
1.2523736
1.2514811
1.2524528
1.2516422
1.2505373
1.2491049
1.2517202
1.250241
1.2523478
1.2510376
1.252681
1.25164
1.2528684
1.252005
1.2529816
1.2522307
1.2530534
1.252374
1.2512856
1.2500241
1.2523571
1.2510703
1.2529101
1.2517916
1.2532053
1.2523286
1.253372
1.2526534
1.2534731
1.252855
1.2535376
1.252985
1.2518837
1.250751
1.2528456
1.2517104
1.2533344
1.252366
1.2535953
1.2528489
1.2537429
1.2531437
1.253833
1.2533293
1.2538911
1.2534441
1.2523461
1.2513013
1.2532163
1.252188
1.2536513
1.2527968
1.2538835
1.2532402
1.2540156
1.2535084
1.2540972
1.2536764
1.2541492
1.2537818
1.2526436
1.2516287
1.2534541
1.2524583
1.2538513
1.2530247
1.2540606
1.2534377
1.2541803
1.2536852
1.254256
1.2538381
1.2543029
1.253932
1.252808
1.251783
1.2535823
1.2525789
1.2539665
1.253119
1.2541704
1.2535085
1.2542847
1.253737
1.2543548
1.2538772
1.254399
1.2539644
1.2529057
1.2518542
1.253657
1.252632
1.2540375
1.2531603
1.2542416
1.2535361
1.2543556
1.2537525
1.254424
1.253883
1.2544665
1.2539637
1.2529697
1.2518745
1.2537094
1.252647
1.2540876
1.253172
1.2542927
1.253537
1.2544063
1.2537463
1.2544738
1.2538722
1.2545164
1.2539499
1.2530237
1.2518491
1.2537529
1.2526401
1.2541289
1.2531813
1.2543362
1.2535356
1.2544499
1.2537369
1.2545176
1.2538607
1.2545591
1.2539376
1.2530715
1.2518185
1.2537904
1.252639
1.254165
1.2532095
1.2543748
1.2535607
1.2544895
1.2537557
1.254557
1.2538724
1.254598
1.2539483
1.2531071
1.2517814
1.2538169
1.252599
1.2541874
1.2531638
1.2543948
1.2535185
1.2545107
1.2537165
1.2545775
1.2538406
1.2546174
1.2539185
1.2530199
1.251551
1.2537218
1.2523306
1.2540814
1.2528955
1.2542771
1.2532578
1.2543897
1.2534618
1.2544508
1.2535816
1.2544869
1.2536553
1.2525126
1.2509156
1.2531853
1.2517019
1.2535456
1.2522773
1.2537428
1.2526281
1.2538504
1.2528193
1.2539116
1.2529285
1.2539476
1.2529912
1.2516946
1.250175
1.2524413
1.2511673
1.2528379
1.2518281
1.2530492
1.2521915
1.2531589
1.2523885
1.2532179
1.2524974
1.253249
1.2525558
1.2512213
1.249814
1.2520315
1.2509127
1.2524879
1.2516724
1.2527334
1.2520816
1.2528592
1.2522944
1.2529235
1.2524076
1.2529538
1.2524656
1.2510211
1.2496061
1.2518519
1.2507757
1.252343
1.2515972
1.2526118
1.2520329
1.2527477
1.2522574
1.2528158
1.2523754
1.2528473
1.2524352
1.25089
1.2494203
1.251733
1.2506275
1.2522325
1.2514615
1.2525122
1.2519046
1.2526564
1.2521352
1.2527268
1.2522521
1.2527583
1.2523106
1.2508159
1.2492899
1.2516683
1.2504985
1.2521656
1.2513159
1.2524299
1.2517385
1.2525706
1.2519615
1.2526474
1.2520837
1.2526862
1.252149
1.2441702
1.2435891
1.2442989
1.2438623
1.2444037
1.2440789
1.244535
1.2443372
1.2447727
1.2447947
1.2453426
1.2458707
1.2444997
1.2439905
1.2446121
1.2442289
1.2447028
1.2444156
1.2448193
1.2446472
1.2450469
1.2450953
1.2456012
1.2461614
1.2450022
1.2446165
1.2451168
1.2448699
1.2452109
1.2450723
1.2453244
1.2453078
1.2455296
1.2457188
1.246046
1.2467201
1.2455327
1.2451081
1.245646
1.2453659
1.2457426
1.2455772
1.2458627
1.2458343
1.2460819
1.2462984
1.2466087
1.2473683
1.2463452
1.2456932
1.2464686
1.2459533
1.246575
1.2461674
1.2466995
1.2464295
1.2469108
1.2469059
1.2474182
1.2480448
1.2469315
1.2460625
1.2470544
1.2463226
1.2471659
1.2465494
1.2472961
1.2468319
1.2475088
1.2473429
1.2480293
1.248512
1.24711
1.2461039
1.247234
1.246368
1.2473411
1.2465979
1.2474688
1.2468801
1.2476855
1.2473893
1.248195
1.2485875
1.2471092
1.2459847
1.2472317
1.2462523
1.2473378
1.2464843
1.2474653
1.2467683
1.2476802
1.2472805
1.2481865
1.2485074
1.2471453
1.2458917
1.2472654
1.246162
1.2473702
1.2463943
1.2474969
1.2466771
1.2477063
1.2471848
1.2482043
1.2484283
1.2472394
1.2458555
1.2473565
1.2461281
1.2474591
1.2463586
1.247583
1.2466394
1.2477881
1.2471419
1.2482749
1.2483811
1.2474468
1.2459641
1.2475595
1.2462309
1.2476584
1.246455
1.247777
1.2467277
1.2479766
1.2472149
1.2484408
1.2484148
1.2477693
1.246232
1.2478762
1.2464845
1.24797
1.2466982
1.2480832
1.246957
1.2482739
1.2474193
1.2487139
1.2485595
1.2482926
1.2467811
1.2483917
1.2470123
1.2484792
1.2472072
1.2485842
1.2474429
1.2487614
1.2478614
1.2491659
1.2489012
1.2490149
1.247619
1.249105
1.2478246
1.2491848
1.2479982
1.2492813
1.2482053
1.2494441
1.2485727
1.2498096
1.2494799
1.2499395
1.2487417
1.2500188
1.2489182
1.2500899
1.2490686
1.2501762
1.2492464
1.2503231
1.2495574
1.2506444
1.2503147
1.2509133
1.2498983
1.2509823
1.2500471
1.2510448
1.2501751
1.251121
1.2503266
1.2512509
1.2505876
1.2515288
1.2512046
1.251771
1.2508936
1.2518311
1.2510193
1.2518862
1.2511286
1.2519536
1.2512586
1.2520686
1.2514827
1.2523088
1.2520028
1.2525137
1.2517689
1.2525669
1.2518772
1.2526161
1.2519721
1.2526765
1.2520855
1.2527795
1.2522814
1.2529901
1.2527285
1.2531074
1.2524854
1.2531549
1.2525801
1.2531992
1.2526638
1.2532538
1.2527639
1.2533463
1.2529365
1.2535339
1.2533299
1.2535864
1.2530854
1.2536292
1.2531698
1.2536694
1.2532448
1.2537191
1.2533346
1.2538043
1.2534906
1.2539789
1.2538483
1.253935
1.2535369
1.2539735
1.2536136
1.2540099
1.2536821
1.2540559
1.2537644
1.2541385
1.2539072
1.2543156
1.2542337
1.2541897
1.2538644
1.2542252
1.2539328
1.2542606
1.2539947
1.2543073
1.2540691
1.2543913
1.2541987
1.2545551
1.2544945
1.2543397
1.2540054
1.2543725
1.2540673
1.2544062
1.2541247
1.2544513
1.2541944
1.2545344
1.2543163
1.2546901
1.2545884
1.2544326
1.2540304
1.2544633
1.2540865
1.2544949
1.2541403
1.254537
1.2542063
1.2546133
1.2543224
1.254757
1.2545762
1.2544982
1.254024
1.2545279
1.2540771
1.2545583
1.2541275
1.2545988
1.2541902
1.2546708
1.2543012
1.2547979
1.2545386
1.2545469
1.2540066
1.2545754
1.2540561
1.2546051
1.2541042
1.2546444
1.2541649
1.2547137
1.2542726
1.2548325
1.2544978
1.254589
1.2539927
1.2546174
1.254041
1.2546462
1.2540876
1.2546836
1.2541471
1.2547496
1.2542537
1.2548676
1.2544726
1.2546272
1.2540021
1.2546548
1.2540492
1.2546831
1.2540949
1.25472
1.2541538
1.2547854
1.2542603
1.2549007
1.2544738
1.2546461
1.2539719
1.2546726
1.2540193
1.2547007
1.2540648
1.254738
1.2541235
1.2548029
1.2542301
1.2549117
1.2544401
1.2545136
1.2537045
1.2545385
1.2537464
1.2545655
1.2537879
1.2546025
1.2538422
1.2546691
1.2539387
1.2547876
1.2541178
1.2539717
1.2530296
1.2539946
1.2530627
1.2540179
1.2530951
1.2540485
1.2531394
1.2541034
1.2532277
1.2542033
1.2534083
1.2532663
1.2525869
1.2532824
1.2526127
1.2532992
1.2526383
1.2533242
1.2526774
1.2533763
1.2527647
1.2534798
1.2529516
1.2529672
1.2524932
1.2529789
1.2525155
1.2529913
1.2525378
1.2530137
1.2525742
1.2530677
1.2526608
1.25318
1.2528494
1.2528602
1.2524632
1.2528716
1.2524878
1.2528832
1.2525113
1.252906
1.2525496
1.2529628
1.2526419
1.2530842
1.2528391
1.2527724
1.2523407
1.2527854
1.2523695
1.2527986
1.2523963
1.2528236
1.252439
1.2528835
1.2525362
1.2530101
1.2527512
1.2527076
1.252189
1.2527272
1.2522271
1.2527456
1.2522602
1.2527747
1.2523082
1.252837
1.2524084
1.2529609
1.2526227
1.2460149
1.2469784
1.2463702
1.2473735
1.2464923
1.2474975
1.2465512
1.2475468
1.2465952
1.2475772
1.2466462
1.2476075
1.2462546
1.247195
1.2465863
1.2475586
1.2466948
1.2476704
1.2467453
1.2477206
1.2467839
1.2477513
1.2468315
1.2477874
1.2466782
1.2477311
1.2470093
1.248102
1.2471239
1.2482186
1.24718
1.2482789
1.2472203
1.2483227
1.2472688
1.2483657
1.2472516
1.2484304
1.2475933
1.2488354
1.2477157
1.2489626
1.2477781
1.2490326
1.2478242
1.249091
1.2478805
1.2491507
1.2480748
1.2492058
1.2484374
1.249693
1.2485712
1.2498394
1.2486479
1.2499149
1.2487049
1.2499816
1.2487642
1.2500575
1.2486789
1.2497194
1.2490377
1.250238
1.2491752
1.2504054
1.2492534
1.2504911
1.2493203
1.2505569
1.2493939
1.2506387
1.2488489
1.2498606
1.2492118
1.2504391
1.2493525
1.250631
1.2494336
1.2507316
1.2495012
1.250809
1.2495804
1.2508968
1.2488465
1.2498483
1.2492224
1.2504867
1.2493692
1.250703
1.2494533
1.2508174
1.249523
1.2509066
1.249604
1.2510094
1.2488655
1.2498284
1.2492511
1.2505224
1.2494026
1.2507621
1.2494897
1.2508904
1.2495615
1.2509914
1.2496452
1.2511079
1.248931
1.2498238
1.2493225
1.2505639
1.2494768
1.2508231
1.2495657
1.2509637
1.2496393
1.2510755
1.2497249
1.2512045
1.249076
1.2498602
1.2494647
1.2506237
1.2496189
1.250896
1.2497081
1.2510453
1.2497818
1.251165
1.2498675
1.251304
1.2493202
1.2499666
1.2496993
1.2507308
1.2498514
1.2510074
1.2499397
1.2511602
1.2500128
1.2512835
1.2500974
1.2514273
1.2497237
1.2502059
1.2500792
1.2509321
1.2502232
1.2511988
1.2503078
1.2513475
1.2503782
1.2514675
1.2504592
1.2516077
1.2503068
1.2506322
1.250628
1.2512869
1.2507601
1.251533
1.2508386
1.25167
1.2509041
1.2517809
1.2509791
1.2519099
1.2510713
1.2512836
1.2513496
1.251844
1.2514653
1.2520599
1.2515342
1.2521819
1.2515919
1.2522818
1.2516574
1.2523984
1.2518897
1.2520014
1.2521269
1.2524707
1.2522272
1.2526559
1.2522871
1.2527612
1.2523375
1.2528483
1.2523944
1.2529519
1.2526164
1.2526715
1.2528191
1.2530714
1.2529064
1.253232
1.2529584
1.2533237
1.2530027
1.2533998
1.253054
1.253491
1.2532604
1.2533063
1.2534392
1.2536565
1.2535173
1.2537982
1.2535642
1.2538785
1.2536046
1.2539452
1.253652
1.254026
1.2537872
1.2538573
1.2539526
1.254174
1.2540232
1.254295
1.2540652
1.2543644
1.2541005
1.2544221
1.2541417
1.2544931
1.2542278
1.2543419
1.2543887
1.2546359
1.254451
1.2547412
1.2544883
1.2548014
1.2545203
1.2548526
1.2545588
1.2549183
1.2545549
1.2546897
1.254713
1.2549744
1.254769
1.2550664
1.2548027
1.2551196
1.2548322
1.2551655
1.2548685
1.2552265
1.2547844
1.2549232
1.2549395
1.2551946
1.2549925
1.255279
1.2550249
1.2553284
1.2550539
1.2553718
1.2550898
1.2554299
1.2549064
1.2549866
1.255055
1.2552442
1.2551079
1.2553262
1.2551406
1.2553739
1.2551695
1.2554156
1.2552037
1.25547
1.254955
1.2549531
1.2550956
1.2552005
1.2551485
1.2552798
1.2551815
1.2553261
1.2552105
1.2553665
1.2552436
1.2554182
1.2549831
1.2548995
1.2551176
1.255137
1.25517
1.2552133
1.2552024
1.2552583
1.2552308
1.2552975
1.2552626
1.2553466
1.2550086
1.2548434
1.255138
1.2550726
1.255189
1.2551471
1.2552211
1.255191
1.2552492
1.2552294
1.25528
1.2552765
1.2550358
1.2548053
1.255161
1.2550303
1.2552109
1.2551045
1.2552427
1.2551477
1.2552706
1.2551855
1.2553009
1.2552309
1.2550629
1.254797
1.2551833
1.2550191
1.2552322
1.2550936
1.2552635
1.2551371
1.2552911
1.2551752
1.2553213
1.2552199
1.2550739
1.2547473
1.2551935
1.2549615
1.2552435
1.2550341
1.255274
1.2550763
1.2553009
1.2551137
1.2553295
1.2551565
1.2549489
1.2544045
1.255065
1.2545978
1.2551111
1.2546588
1.2551405
1.2546962
1.2551653
1.254729
1.2551908
1.254766
1.2543508
1.2536803
1.2544654
1.2538626
1.2545089
1.2539188
1.2545343
1.2539513
1.2545542
1.2539791
1.2545739
1.2540099
1.253633
1.2532278
1.2537485
1.253411
1.2537892
1.2534645
1.2538108
1.2534932
1.2538268
1.2535173
1.2538424
1.2535436
1.2533443
1.2531288
1.2534661
1.2533175
1.2535057
1.2533708
1.2535243
1.2533974
1.253537
1.2534184
1.2535492
1.2534411
1.2532615
1.2531271
1.2533888
1.2533187
1.2534259
1.2533701
1.2534416
1.2533947
1.2534515
1.2534138
1.2534615
1.2534354
1.2531997
1.2530665
1.2533417
1.2532705
1.2533829
1.2533267
1.2533993
1.2533531
1.2534092
1.2533729
1.2534197
1.2533965
1.2531362
1.2529363
1.2532737
1.2531455
1.2533223
1.253214
1.2533449
1.2532486
1.253359
1.2532745
1.2533741
1.2533063
1.2467043
1.2476356
1.2467604
1.2476498
1.2468204
1.2476509
1.2468957
1.2476296
1.2470019
1.2475505
1.2471353
1.2472812
1.2470333
1.246166
1.2468867
1.2478207
1.2469426
1.2478411
1.2470013
1.2478506
1.2470776
1.2478486
1.2471924
1.2478116
1.2473421
1.2476207
1.2472773
1.2466113
1.2473258
1.2484086
1.247381
1.2484391
1.2474414
1.2484556
1.2475182
1.2484573
1.2476325
1.2484307
1.2477888
1.2482668
1.2477356
1.2472823
1.2479449
1.2492065
1.248007
1.2492511
1.2480756
1.2492812
1.2481625
1.2492937
1.2482873
1.2492788
1.2484572
1.2491374
1.248417
1.2481649
1.2488321
1.2501287
1.2488999
1.2501906
1.2489725
1.2502371
1.2490632
1.2502671
1.2491936
1.2502773
1.249377
1.250162
1.2493499
1.2492066
1.2494647
1.250728
1.2495378
1.250806
1.2496202
1.2508774
1.2497238
1.2509334
1.2498733
1.250966
1.2500881
1.2509183
1.2501257
1.2500268
1.2496641
1.2509897
1.2497429
1.2510763
1.2498298
1.2511613
1.2499437
1.2512387
1.2501112
1.2513025
1.2503606
1.2512863
1.2504415
1.2504469
1.249689
1.251114
1.2497739
1.2512046
1.2498694
1.2512956
1.2499911
1.2513914
1.250175
1.2514926
1.2504534
1.2515156
1.2505804
1.2507593
1.2497331
1.251226
1.2498212
1.2513297
1.2499233
1.2514356
1.2500564
1.2515511
1.250258
1.2516865
1.2505694
1.2517798
1.2507566
1.2511285
1.2498155
1.2513358
1.2499069
1.2514546
1.2500147
1.2515797
1.2501586
1.2517227
1.25038
1.2519065
1.2507288
1.2520804
1.2509877
1.2515617
1.2499591
1.2514476
1.2500535
1.2515817
1.2501675
1.2517282
1.2503231
1.2519046
1.2505665
1.2521424
1.2509582
1.2523999
1.2512874
1.2520333
1.2501893
1.2515784
1.2502861
1.2517244
1.2504061
1.251892
1.2505731
1.2521054
1.2508376
1.2523997
1.2512687
1.2527478
1.2516644
1.25254
1.2505484
1.2517585
1.2506453
1.2519119
1.2507688
1.2520975
1.2509437
1.2523414
1.2512237
1.2526883
1.2516822
1.2531268
1.2521273
1.2530773
1.2510624
1.2520536
1.251156
1.2522087
1.2512795
1.2524048
1.2514591
1.2526734
1.2517495
1.2530657
1.2522239
1.2535763
1.2526842
1.2536524
1.2517311
1.2525299
1.2518183
1.2526792
1.2519382
1.2528774
1.2521186
1.2531606
1.2524137
1.2535825
1.2528902
1.2541342
1.2533337
1.2542859
1.2524579
1.2530692
1.252537
1.2532087
1.25265
1.2534025
1.2528249
1.2536912
1.2531126
1.2541305
1.2535711
1.2547033
1.2539757
1.2548954
1.2531096
1.2535933
1.2531812
1.2537195
1.2532858
1.2539021
1.2534511
1.2541849
1.2537242
1.2546247
1.2541562
1.2552034
1.2545263
1.2554273
1.2537012
1.254115
1.2537651
1.2542272
1.2538609
1.2543964
1.2540149
1.2546658
1.2542708
1.2550932
1.2546742
1.2556663
1.2550192
1.2559195
1.2541883
1.2545753
1.2542457
1.2546763
1.2543319
1.2548291
1.2544694
1.255073
1.2546993
1.2554675
1.2550672
1.2560227
1.2554181
1.2563392
1.2546018
1.2549941
1.2546541
1.2550859
1.2547304
1.2552212
1.2548507
1.2554342
1.2550515
1.2557831
1.2553819
1.2563059
1.2557504
1.2566944
1.2549089
1.2552967
1.2549569
1.2553794
1.2550249
1.2554978
1.2551296
1.2556812
1.2553039
1.2559851
1.2555994
1.2564687
1.2559866
1.2569298
1.2551257
1.2554919
1.2551687
1.2555637
1.2552301
1.2556673
1.2553255
1.25583
1.2554846
1.2561047
1.2557598
1.2565578
1.2561565
1.257061
1.2552375
1.255526
1.2552767
1.2555889
1.2553356
1.2556834
1.2554304
1.255837
1.25559
1.256102
1.255865
1.25655
1.2562703
1.2570791
1.2552758
1.2554697
1.2553132
1.2555281
1.2553711
1.2556185
1.2554671
1.2557699
1.2556315
1.2560336
1.2559161
1.256482
1.256334
1.257033
1.2552932
1.2553952
1.2553299
1.2554515
1.2553883
1.2555409
1.2554874
1.2556933
1.255659
1.2559604
1.2559581
1.2564187
1.2563965
1.2570018
1.2553096
1.2553234
1.2553463
1.2553794
1.2554056
1.2554699
1.2555075
1.2556262
1.2556858
1.2559017
1.256
1.2563736
1.2564589
1.2569636
1.2553301
1.2552767
1.2553673
1.2553325
1.255428
1.255424
1.2555329
1.2555833
1.2557174
1.2558633
1.256044
1.2563331
1.2565136
1.2568935
1.2553502
1.2552651
1.2553888
1.2553221
1.2554517
1.2554168
1.2555591
1.2555833
1.2557483
1.2558781
1.2560828
1.2563714
1.2565585
1.2569379
1.2553573
1.2552006
1.2553947
1.2552585
1.2554563
1.2553559
1.2555641
1.2555291
1.2557565
1.2558409
1.2560953
1.2563582
1.256572
1.2569379
1.255217
1.2548057
1.255252
1.25486
1.2553108
1.2549532
1.2554141
1.2551207
1.2555975
1.2554264
1.2559252
1.2559402
1.2563851
1.2564943
1.2545962
1.2540446
1.254626
1.2540938
1.2546785
1.2541831
1.2547736
1.2543476
1.2549463
1.2546487
1.2552555
1.255152
1.2556996
1.2556715
1.2538608
1.2535739
1.2538878
1.2536205
1.2539403
1.253711
1.2540393
1.2538783
1.2542216
1.2541818
1.2545453
1.2546866
1.2549933
1.2551802
1.2535647
1.2534688
1.2535893
1.2535113
1.2536428
1.2535997
1.2537474
1.2537679
1.2539422
1.2540737
1.2542867
1.2545689
1.2547572
1.2550507
1.2534753
1.2534644
1.2534988
1.2535117
1.2535534
1.253608
1.2536613
1.253783
1.2538629
1.2540946
1.254217
1.2545898
1.2546956
1.2550574
1.2534345
1.25343
1.2534588
1.2534822
1.2535157
1.2535881
1.2536287
1.2537824
1.2538401
1.2541182
1.2542067
1.2546331
1.2546984
1.2551077
1.253393
1.253348
1.2534222
1.2534094
1.2534851
1.2535271
1.2536065
1.2537384
1.2538279
1.2540969
1.2542066
1.2546371
1.254707
1.2551286
1.2466908
1.2451295
1.2466062
1.2445529
1.2469527
1.2445598
1.2473908
1.2445807
1.2469671
1.2456304
1.2468906
1.2450702
1.2472146
1.2450227
1.2476271
1.2449767
1.2474279
1.2463035
1.247338
1.2457201
1.2476296
1.245618
1.2480194
1.2455254
1.2480974
1.2471619
1.247978
1.2465245
1.2482206
1.2463586
1.2485733
1.2462246
1.2490273
1.2481965
1.2488967
1.24753
1.2491189
1.2473333
1.2494613
1.2471935
1.2498523
1.249044
1.2497507
1.2483846
1.2499989
1.2482094
1.2503608
1.2481248
1.2501862
1.2494636
1.2500904
1.2487823
1.2503273
1.2485802
1.2506547
1.2484754
1.250341
1.2497797
1.2502369
1.2490598
1.2504415
1.2487888
1.2507234
1.2486189
1.2505381
1.2501703
1.2504226
1.2494167
1.2505836
1.2490666
1.2508057
1.2488112
1.250799
1.2506362
1.2506719
1.2498623
1.2507818
1.2494323
1.250929
1.2490782
1.2511326
1.2511697
1.2509972
1.2503982
1.2510515
1.2498979
1.2511086
1.2494356
1.2515474
1.2517639
1.2514106
1.2510274
1.2514152
1.2504837
1.2513734
1.2499184
1.2520492
1.2524073
1.2519166
1.2517322
1.2518785
1.2511795
1.2517351
1.2505285
1.2526364
1.2531032
1.2525153
1.2525174
1.2524554
1.251997
1.2522216
1.2512886
1.253314
1.2538604
1.2532109
1.2533769
1.2531482
1.2529173
1.2528596
1.2522031
1.2539731
1.2545659
1.2538872
1.2541688
1.2538339
1.2537824
1.2535128
1.253095
1.254538
1.2551695
1.2544709
1.2548385
1.2544326
1.2545155
1.2541199
1.2538794
1.255045
1.2557139
1.2549914
1.2554262
1.2549665
1.2551509
1.2546571
1.254556
1.2554654
1.2561894
1.2554293
1.2559438
1.25542
1.2557028
1.2551343
1.2551432
1.2558348
1.2566115
1.2558163
1.2564018
1.2558227
1.2561834
1.2555563
1.2556443
1.2561143
1.2569219
1.2561137
1.2567488
1.2561459
1.2565594
1.2558976
1.2560339
1.2563321
1.2571278
1.2563588
1.2569981
1.2564185
1.2568446
1.2562019
1.2563472
1.2564814
1.2572083
1.2565414
1.2571349
1.256626
1.2570236
1.2564417
1.2565501
1.2565727
1.2572205
1.2566646
1.257208
1.2567641
1.2571225
1.2566094
1.256661
1.2566579
1.2572198
1.2567624
1.2572517
1.2568667
1.257177
1.2567398
1.2567235
1.2567263
1.2572024
1.2568396
1.2572464
1.2569427
1.2571739
1.2568401
1.2567405
1.2567811
1.257143
1.2569033
1.2572295
1.2570066
1.2571326
1.2569239
1.256726
1.2568352
1.2571985
1.2569555
1.2572381
1.2570616
1.257102
1.2569978
1.2567055
1.2568549
1.2571835
1.2569796
1.2572081
1.2570982
1.257065
1.25706
1.2566883
1.2566485
1.2567463
1.256813
1.2568192
1.2569844
1.2567535
1.2570092
1.2564818
1.2559739
1.2559159
1.2561749
1.2560011
1.2564206
1.2559569
1.2565454
1.2557615
1.2552414
1.2553988
1.2554005
1.2553976
1.2556
1.2552409
1.2556932
1.2549193
1.2550022
1.2552623
1.2550976
1.255211
1.2551873
1.2549703
1.2551496
1.2545269
1.2549497
1.2552601
1.2550224
1.2551846
1.2550687
1.2549047
1.2549713
1.2544047
1.2549555
1.2553062
1.2550153
1.2552186
1.2550379
1.2549175
1.2549069
1.2543855
1.2549628
1.2553259
1.2550179
1.2552337
1.2550309
1.2549258
1.2548883
1.2543871
1.2334826
1.23969
1.2352201
1.2409516
1.2378766
1.2432427
1.2344462
1.2402839
1.2360296
1.2414619
1.2385663
1.243701
1.2354424
1.2409645
1.2369015
1.2420613
1.2393858
1.2443043
1.2363681
1.2416699
1.2377268
1.2426757
1.240283
1.2450354
1.237424
1.2426028
1.2386866
1.2434984
1.2413753
1.2460453
1.2384324
1.2435683
1.2397309
1.2444766
1.2425323
1.2471185
1.2389202
1.2439915
1.2403074
1.244971
1.2432407
1.2477218
1.2392084
1.2441628
1.2406017
1.245164
1.243607
1.2479942
1.2395772
1.2443666
1.2409463
1.2453663
1.2439532
1.2482261
1.240073
1.2446452
1.2414078
1.2456385
1.2444097
1.2485291
1.2407216
1.2450198
1.2420086
1.2460032
1.2450086
1.2489274
1.2415773
1.2455353
1.2428027
1.2464988
1.2457841
1.2494419
1.2426619
1.2462211
1.2438118
1.2471554
1.2467594
1.2501007
1.2439765
1.2470919
1.2450517
1.2479941
1.2479519
1.2509187
1.2455286
1.2481699
1.2465001
1.2490073
1.2493529
1.2519213
1.2470845
1.2493099
1.2479689
1.2500944
1.2507606
1.2529904
1.2484366
1.2503325
1.2492401
1.2510701
1.2519566
1.2539546
1.2496219
1.2512685
1.250352
1.2519656
1.2529958
1.2548365
1.2506125
1.2520793
1.2512703
1.2527279
1.2539001
1.2555728
1.2514251
1.25277
1.2519832
1.2533386
1.2545964
1.2561514
1.252091
1.2533765
1.2526118
1.2539319
1.2551948
1.2567199
1.2525945
1.2538794
1.253067
1.254392
1.2556061
1.2571403
1.2528979
1.2542623
1.2533546
1.2547362
1.2558275
1.257434
1.2531076
1.2545303
1.2535357
1.2549791
1.2559404
1.2576378
1.2532436
1.254728
1.2536434
1.2551512
1.2559882
1.2577699
1.2533169
1.2548758
1.2537088
1.2552844
1.2560024
1.2578621
1.2533633
1.2549962
1.2537492
1.2553828
1.2559947
1.257927
1.2534046
1.2550824
1.2537917
1.255463
1.2559787
1.2579745
1.2534502
1.2551621
1.2538238
1.2555236
1.2559591
1.2580142
1.2533711
1.2552222
1.2537332
1.255565
1.2559181
1.2580343
1.252888
1.25497
1.2534089
1.255366
1.2557135
1.2579453
1.2519978
1.2540973
1.2525674
1.2546688
1.2549094
1.2573352
1.2513857
1.2533697
1.2518837
1.2538816
1.2537764
1.2561664
1.2510961
1.2530168
1.2515396
1.2534532
1.2530391
1.2552845
1.2509328
1.2528124
1.2513711
1.2532171
1.2526999
1.2548552
1.2508661
1.2527324
1.2513111
1.2531296
1.2526082
1.2547272
1.252968
1.2518609
1.250519
1.248764
1.2462768
1.2430414
1.2527724
1.2516807
1.2503561
1.2485916
1.2461124
1.2429032
1.2539838
1.2519831
1.250614
1.2489147
1.246514
1.2434351
1.2537362
1.2517963
1.2504511
1.2487483
1.2463656
1.2433314
1.2548475
1.2525979
1.2508944
1.2491636
1.2468489
1.2439296
1.2545889
1.2523664
1.2507303
1.2490186
1.246734
1.2438728
1.25534
1.2534721
1.2515661
1.2496678
1.2473311
1.2444904
1.2550968
1.2532005
1.2513751
1.2495384
1.2472567
1.2444788
1.2555171
1.2541322
1.2524571
1.2505729
1.2481947
1.2453453
1.2553121
1.2538974
1.2522644
1.2504322
1.2481202
1.2453347
1.2555563
1.2543821
1.2529596
1.2512866
1.2490369
1.2462389
1.2553418
1.2541728
1.2527839
1.2511304
1.2489057
1.246135
1.2555654
1.2544525
1.2530948
1.251507
1.2493375
1.2465886
1.2553363
1.254238
1.2529122
1.251332
1.2491619
1.2464117
1.2555741
1.2545003
1.253139
1.2515631
1.2494151
1.2466833
1.2553276
1.2542684
1.2529406
1.2513698
1.2492128
1.2464688
1.2555887
1.2545607
1.2531896
1.2516168
1.2494869
1.2467768
1.2553189
1.2543073
1.2529697
1.2514004
1.2492558
1.2465252
1.2556095
1.2546366
1.2532572
1.2516899
1.2495871
1.2469144
1.2553123
1.2543586
1.2530122
1.2514477
1.2493261
1.2466272
1.2556477
1.2547318
1.2533472
1.2517915
1.2497303
1.2471191
1.2553111
1.2544252
1.2530749
1.2515231
1.2494426
1.2468053
1.2556993
1.2548483
1.2534681
1.2519319
1.2499318
1.247414
1.2553162
1.2545105
1.2531642
1.2516347
1.2496173
1.2470744
1.255788
1.2550037
1.2536412
1.2521341
1.2502171
1.2478323
1.2553495
1.2546225
1.2532937
1.251801
1.2498765
1.2474777
1.2559044
1.2551796
1.253859
1.2524048
1.2506056
1.2483979
1.2553856
1.2547536
1.2534728
1.2520432
1.2502509
1.2480449
1.2559942
1.2553594
1.2541295
1.2527615
1.2511199
1.2491421
1.2554292
1.2548949
1.2537075
1.2523825
1.2507686
1.2488116
1.2561235
1.2555718
1.2544471
1.253176
1.2516952
1.249949
1.2554892
1.2550478
1.2539778
1.2527702
1.2513391
1.2496373
1.2562592
1.2557704
1.2547323
1.2535611
1.2522286
1.2506885
1.2555659
1.2551884
1.2542284
1.2531358
1.2518714
1.2503944
1.2564115
1.2559765
1.2550282
1.2539488
1.2527421
1.2513747
1.2556547
1.2553257
1.254472
1.2534886
1.2523709
1.2510849
1.2565526
1.2561487
1.2552849
1.2542937
1.2531926
1.2519668
1.2557402
1.2554399
1.2546783
1.2537921
1.2527982
1.2516694
1.2566927
1.2563101
1.2555222
1.2546178
1.2536013
1.252484
1.2558271
1.2555427
1.2548616
1.2540649
1.2531781
1.2521785
1.2568501
1.2564677
1.255743
1.2549065
1.2539601
1.2529198
1.2559228
1.2556327
1.2550165
1.2542997
1.2535003
1.2525985
1.2570645
1.256661
1.255962
1.2551762
1.2542848
1.2532928
1.2560592
1.2557356
1.2551623
1.2545115
1.2537781
1.2529424
1.2573248
1.2568776
1.2561772
1.2554177
1.2545539
1.2535792
1.2562191
1.2558468
1.2552931
1.254687
1.2539909
1.2531841
1.2575631
1.2570474
1.256353
1.2556087
1.254759
1.2537831
1.2563685
1.2559335
1.2553882
1.254814
1.2541377
1.2533386
1.2577917
1.2571942
1.2564966
1.2557659
1.254923
1.2539374
1.2565045
1.2560018
1.2554633
1.2549145
1.2542484
1.2534468
1.2579791
1.2573153
1.2566236
1.2558957
1.255054
1.254056
1.2566355
1.2560561
1.2555232
1.254994
1.254333
1.253524
1.2581602
1.257412
1.2567253
1.2560039
1.2551608
1.2541499
1.2567525
1.2560971
1.2555722
1.2550593
1.2544012
1.2535825
1.2583113
1.2574893
1.2568114
1.2560949
1.255249
1.2542253
1.2568568
1.2561293
1.2556137
1.2551135
1.2544575
1.2536299
1.2584455
1.2575502
1.2568822
1.2561695
1.2553221
1.2542881
1.2569493
1.2561523
1.2556483
1.2551589
1.2545055
1.2536711
1.2585602
1.2575983
1.2569395
1.2562332
1.2553777
1.2543192
1.2570251
1.2561711
1.2556796
1.2551972
1.2545355
1.2536658
1.2586556
1.2576339
1.2569743
1.2562446
1.2553192
1.2541415
1.2570902
1.2561824
1.2556878
1.2551706
1.2544245
1.253392
1.2587273
1.2576288
1.2568821
1.2560109
1.2548371
1.2534211
1.257136
1.2561449
1.2555542
1.254827
1.2538027
1.2525804
1.2587333
1.2574196
1.2563752
1.2552069
1.2539554
1.2526579
1.2571211
1.2558578
1.254932
1.2539517
1.2529366
1.2518832
1.2585665
1.2566777
1.2554345
1.2544485
1.2534779
1.2523411
1.2569098
1.2550529
1.2539949
1.2532812
1.2525524
1.2516348
1.2578498
1.2556121
1.2549268
1.2542426
1.2533429
1.2522069
1.2561832
1.2540543
1.2535798
1.2531405
1.2524563
1.2515285
1.2565734
1.2555514
1.2549369
1.2542178