/*--------------------------------*- C++ -*----------------------------------*\
| =========                 |                                                 |
| \\      /  F ield         | OpenFOAM: The Open Source CFD Toolbox           |
|  \\    /   O peration     | Version:  2206                                  |
|   \\  /    A nd           | Website:  www.openfoam.com                      |
|    \\/     M anipulation  |                                                 |
\*---------------------------------------------------------------------------*/
FoamFile
{
    version     2.0;
    format      ascii;
    arch        "LSB;label=32;scalar=64";
    class       volScalarField;
    location    "400";
    object      T;
}
// * * * * * * * * * * * * * * * * * * * * * * * * * * * * * * * * * * * * * //

dimensions      [0 0 0 1 0 0 0];

internalField   nonuniform List<scalar> 
50904
(
297.83636
297.47913
297.83794
297.42545
297.67034
297.1907
297.64815
297.09194
297.48739
296.9243
297.44925
296.81099
297.3088
296.70171
297.25637
296.58383
297.0757
296.45584
297.01242
296.33806
296.84511
296.24984
296.79011
296.15036
296.77132
296.20058
296.72257
296.11066
296.77768
296.228
296.72731
296.13801
296.79767
296.27087
296.74344
296.17854
296.82614
296.32754
296.76918
296.23298
296.86553
296.39994
296.80719
296.304
296.91872
296.49247
296.86021
296.39663
296.98861
296.60733
296.93265
296.51311
297.07778
296.74553
297.02613
296.6547
297.18454
296.9033
297.13977
296.8178
297.29203
297.05663
297.25584
296.97918
297.38681
297.18859
297.35751
297.11884
297.46975
297.30194
297.44543
297.23883
297.53944
297.39736
297.51846
297.33908
297.59643
297.47496
297.57961
297.42157
297.64098
297.53575
297.62691
297.4865
297.67259
297.57938
297.66139
297.53514
297.68975
297.60399
297.68036
297.56361
297.6969
297.61565
297.6884
297.5773
297.69811
297.6198
297.69124
297.5825
297.69608
297.62035
297.69003
297.58435
297.69184
297.62066
297.68633
297.58769
297.68619
297.62134
297.68024
297.59335
297.68
297.62114
297.67446
297.59776
297.688
297.64833
297.69386
297.64323
297.78478
297.78142
297.81838
297.80662
298.01307
298.02004
298.05546
298.03591
298.18711
298.16078
298.20568
298.14266
298.26311
298.22525
298.26598
298.20363
298.30677
298.26954
298.30426
298.25195
298.3266
298.29173
298.3252
298.27953
297.92006
297.50332
298.05568
297.71335
298.11762
297.88252
298.15135
297.98196
298.17142
298.04299
298.18407
298.0829
298.19323
298.1122
297.73567
297.185
297.9105
297.46127
297.9936
297.68045
298.03927
297.80045
298.06601
297.8749
298.08318
297.92422
298.09559
297.96085
297.54901
296.92118
297.74602
297.22824
297.83643
297.4758
297.88774
297.60491
297.91833
297.68192
297.93832
297.73445
297.95304
297.77396
297.35398
296.68891
297.54713
296.978
297.63228
297.23537
297.683
297.37242
297.71458
297.45251
297.73614
297.50543
297.75257
297.54542
297.10147
296.44012
297.28451
296.72154
297.36421
296.98311
297.41202
297.12802
297.44165
297.21789
297.46228
297.27668
297.47862
297.3249
296.87701
296.26094
297.06073
296.55264
297.14606
296.82407
297.20117
296.97622
297.23634
297.07058
297.25928
297.13233
297.27924
297.17311
296.80555
296.22603
296.98728
296.53007
297.0762
296.79575
297.13445
296.94081
297.17176
297.03047
297.19807
297.08967
297.21829
297.13009
296.80409
296.25107
296.97869
296.5553
297.06881
296.81525
297.12896
296.95274
297.16736
297.03685
297.19424
297.09352
297.21477
297.13351
296.8126
296.28505
296.97756
296.58219
297.0675
296.83758
297.12877
296.96686
297.16785
297.0451
297.195
297.10011
297.21563
297.13997
296.83078
296.33009
296.98484
296.61484
297.07354
296.86248
297.13528
296.98301
297.17459
297.0585
297.2018
297.10816
297.22227
297.14658
296.86235
296.39001
297.00572
296.65651
297.09174
296.89536
297.15286
297.01001
297.19188
297.0828
297.21875
297.12845
297.23878
297.16526
296.90884
296.47231
297.04069
296.72036
297.12406
296.94478
297.1838
297.0519
297.22191
297.12076
297.24809
297.16308
297.26731
297.19707
296.97769
296.57723
297.09972
296.80498
297.17803
297.02232
297.23595
297.12343
297.27247
297.18007
297.29692
297.22016
297.31467
297.24973
297.06605
296.70786
297.17766
296.91685
297.25272
297.12013
297.30789
297.21348
297.34207
297.2651
297.36458
297.30089
297.38058
297.32656
297.17551
296.85993
297.27574
297.051
297.34725
297.23938
297.39912
297.32156
297.43038
297.36932
297.45058
297.40063
297.46451
297.4228
297.29009
297.01435
297.38
297.19016
297.44669
297.36086
297.49405
297.43596
297.52225
297.47873
297.54007
297.50609
297.55202
297.52483
297.39003
297.15077
297.47057
297.31668
297.5323
297.47057
297.5752
297.5388
297.60053
297.57747
297.61628
297.60169
297.62661
297.61778
297.47593
297.27035
297.54787
297.42906
297.60496
297.56582
297.64378
297.62674
297.66655
297.66121
297.68055
297.68248
297.68957
297.69632
297.54788
297.37415
297.61308
297.52523
297.6647
297.646
297.69945
297.69942
297.7198
297.7298
297.73233
297.74836
297.74047
297.76048
297.60692
297.46065
297.66639
297.60516
297.71312
297.71104
297.74441
297.75719
297.76284
297.78349
297.77425
297.79981
297.78171
297.81032
297.65179
297.52761
297.7058
297.66376
297.74856
297.7575
297.77734
297.79779
297.79443
297.82034
297.80505
297.83284
297.812
297.84339
297.68403
297.57477
297.73367
297.70104
297.77352
297.78566
297.80044
297.82112
297.81637
297.84069
297.8262
297.85113
297.8323
297.86032
297.70155
297.59752
297.74739
297.71368
297.78508
297.79152
297.81084
297.82395
297.82581
297.84172
297.83408
297.85183
297.83951
297.85948
297.70891
297.60313
297.75214
297.70977
297.78608
297.78328
297.80891
297.81587
297.82244
297.83428
297.83044
297.84508
297.83557
297.85222
297.71191
297.59946
297.75398
297.69737
297.78528
297.76806
297.80547
297.80118
297.81747
297.82056
297.82496
297.83247
297.82982
297.84027
297.71039
297.59411
297.75229
297.6854
297.7823
297.75548
297.80155
297.78831
297.81288
297.80816
297.82001
297.82039
297.82427
297.82819
297.70652
297.59306
297.74987
297.67642
297.77938
297.74312
297.79793
297.77736
297.80897
297.79731
297.81593
297.80932
297.82027
297.81701
297.70073
297.59313
297.74636
297.66889
297.77702
297.72734
297.79519
297.76323
297.80615
297.78493
297.81296
297.79811
297.81735
297.80522
297.69595
297.59605
297.74461
297.66865
297.77698
297.73502
297.79605
297.77292
297.80688
297.79713
297.81336
297.80796
297.8182
297.81498
297.72233
297.67607
297.7828
297.75542
297.81439
297.82883
297.83896
297.86576
297.84981
297.88616
297.85842
297.89774
297.86413
297.90361
297.87152
297.85319
297.95001
297.96503
297.99209
298.0393
298.01223
298.07876
298.02292
298.10108
298.02899
298.11412
298.03258
298.12193
298.10308
298.05583
298.17595
298.13011
298.21845
298.19417
298.23924
298.23394
298.25003
298.25446
298.25567
298.26652
298.2587
298.27349
298.22959
298.14304
298.28778
298.1935
298.32548
298.242
298.344
298.27786
298.35345
298.29819
298.35817
298.30972
298.36038
298.31613
298.28107
298.19115
298.3306
298.21259
298.36258
298.25288
298.37917
298.28863
298.3875
298.30923
298.39136
298.32072
298.39292
298.32682
298.31603
298.23729
298.35862
298.2412
298.38384
298.27755
298.3976
298.31338
298.40452
298.33303
298.40752
298.34511
298.40847
298.35136
298.33761
298.27252
298.37726
298.27633
298.39949
298.31388
298.41075
298.34688
298.41551
298.36619
298.4177
298.37729
298.41848
298.38315
298.20105
298.13738
298.20767
298.158
298.21278
298.17444
298.21896
298.19388
298.2317
298.22632
298.25846
298.29334
298.10634
297.99265
298.11554
298.01876
298.12287
298.03937
298.13197
298.06384
298.14848
298.10575
298.1859
298.19606
297.96593
297.80861
297.97723
297.83792
297.9866
297.86177
297.99764
297.88924
298.01609
297.93377
298.05651
298.0296
297.76739
297.57957
297.78039
297.60815
297.791
297.63211
297.80352
297.66045
297.82399
297.70673
297.8668
297.8034
297.49378
297.36675
297.50799
297.39938
297.5195
297.42699
297.53358
297.45751
297.55697
297.50282
297.60591
297.58421
297.29639
297.20584
297.31212
297.2413
297.32397
297.2668
297.33883
297.29364
297.36343
297.33532
297.41312
297.42509
297.23618
297.16446
297.25172
297.19872
297.2653
297.22434
297.28108
297.25226
297.30605
297.29579
297.35778
297.38439
297.23295
297.16739
297.24873
297.20025
297.26253
297.22548
297.27872
297.2532
297.30428
297.29566
297.35768
297.38479
297.23394
297.17225
297.24973
297.20359
297.26352
297.22837
297.27951
297.2559
297.30622
297.29844
297.36063
297.38257
297.24039
297.1786
297.25608
297.20738
297.26978
297.23126
297.28593
297.2579
297.3114
297.29917
297.3665
297.38585
297.25641
297.19603
297.27173
297.22279
297.28507
297.24564
297.30074
297.27114
297.32592
297.31044
297.38006
297.39414
297.28413
297.22532
297.29873
297.25051
297.31146
297.27173
297.32646
297.29575
297.35065
297.33298
297.40269
297.41261
297.33013
297.27529
297.34356
297.29804
297.35534
297.31746
297.36918
297.33936
297.39155
297.37367
297.43963
297.44811
297.3942
297.34868
297.4062
297.3685
297.41673
297.38572
297.42914
297.40548
297.44917
297.43646
297.49202
297.50428
297.47613
297.44137
297.48637
297.45802
297.49541
297.47261
297.50607
297.48968
297.52333
297.51714
297.55978
297.57637
297.56186
297.54028
297.57044
297.55394
297.57807
297.566
297.58709
297.58034
297.60173
297.60421
297.63225
297.6569
297.63507
297.63089
297.64241
297.64239
297.64899
297.65259
297.65682
297.66479
297.66956
297.68528
297.69573
297.73033
297.69691
297.70746
297.70327
297.71724
297.70902
297.72598
297.71592
297.7365
297.72718
297.75426
297.75003
297.79286
297.74689
297.76997
297.75251
297.77835
297.75762
297.78589
297.76381
297.79501
297.77395
297.81046
297.79433
297.84411
297.78759
297.81862
297.79269
297.82587
297.79734
297.83242
297.803
297.84041
297.81229
297.85396
297.83053
297.88371
297.81754
297.85056
297.82231
297.85684
297.8267
297.8625
297.832
297.86948
297.84021
297.88137
297.85324
297.90839
297.83712
297.86647
297.84135
297.87239
297.84506
297.87757
297.8492
297.88422
297.85525
297.89589
297.8674
297.92222
297.84359
297.8653
297.84741
297.8709
297.85067
297.87583
297.85418
297.88219
297.85921
297.8933
297.87006
297.91768
297.83964
297.85838
297.84342
297.86361
297.84675
297.86849
297.85056
297.87473
297.856
297.88546
297.86696
297.90834
297.83368
297.84624
297.83722
297.85151
297.84058
297.85663
297.84453
297.86309
297.85054
297.874
297.86254
297.89617
297.82805
297.83463
297.83151
297.83988
297.83464
297.84511
297.83829
297.85171
297.84389
297.86287
297.85754
297.88491
297.82381
297.82311
297.82699
297.82867
297.83014
297.83415
297.83395
297.84081
297.84073
297.85213
297.85286
297.8731
297.82082
297.81109
297.82408
297.81651
297.82718
297.82177
297.83097
297.82818
297.83745
297.83909
297.84925
297.85971
297.82174
297.82039
297.8253
297.82543
297.82848
297.83041
297.83234
297.83657
297.83898
297.84598
297.85203
297.86194
297.86776
297.90934
297.87114
297.91493
297.87414
297.91992
297.87756
297.92614
297.88284
297.93824
297.89128
297.96674
298.03523
298.12773
298.03763
298.1331
298.04022
298.13828
298.04393
298.1452
298.05085
298.15765
298.06391
298.18289
298.2606
298.2784
298.26229
298.28285
298.26398
298.28688
298.26647
298.29222
298.27149
298.30234
298.28162
298.32424
298.36144
298.32031
298.36237
298.32377
298.36312
298.32686
298.36449
298.3313
298.368
298.34066
298.37575
298.36219
298.39339
298.33037
298.39383
298.3328
298.39407
298.33484
298.39485
298.33771
298.39759
298.34465
298.40422
298.3686
298.40843
298.35457
298.40846
298.35652
298.4083
298.35819
298.40865
298.36096
298.4107
298.3672
298.41606
298.38211
298.41846
298.3862
298.41853
298.38824
298.41839
298.38986
298.41868
298.3923
298.42046
298.39751
298.42498
298.41006
298.29299
298.35289
298.30967
298.37844
298.31385
298.38136
298.31533
298.38155
298.3161
298.38075
298.31705
298.37938
298.23173
298.29375
298.25487
298.33188
298.2612
298.33874
298.26341
298.34019
298.26469
298.3404
298.2661
298.33973
298.10629
298.13896
298.13209
298.1835
298.1401
298.19197
298.1434
298.19416
298.14528
298.19475
298.14731
298.19415
297.91737
297.91664
297.9439
297.96374
297.95251
297.97395
297.95664
297.97756
297.95958
297.97933
297.96257
297.98065
297.65685
297.68808
297.6806
297.72862
297.6898
297.74078
297.69483
297.74519
297.69922
297.74773
297.70413
297.74973
297.47476
297.54091
297.50574
297.58977
297.51591
297.60452
297.52194
297.61044
297.52698
297.61458
297.53286
297.6179
297.4227
297.50476
297.45869
297.55676
297.4709
297.57285
297.47747
297.58025
297.48252
297.58551
297.48817
297.59023
297.42484
297.50674
297.46191
297.56184
297.47444
297.57942
297.48157
297.58801
297.4872
297.59446
297.49338
297.60078
297.42944
297.50743
297.46784
297.56643
297.48098
297.58568
297.48841
297.59546
297.49455
297.6031
297.50135
297.61109
297.43646
297.50959
297.47627
297.57304
297.49057
297.5947
297.49869
297.6059
297.50535
297.61479
297.51284
297.62454
297.44942
297.51566
297.48962
297.5818
297.50441
297.60507
297.51302
297.61754
297.5202
297.6275
297.52838
297.63855
297.46997
297.52979
297.50967
297.59679
297.52465
297.62121
297.53346
297.63466
297.54089
297.6456
297.54952
297.6579
297.5023
297.55733
297.53993
297.62197
297.55459
297.64646
297.56327
297.66019
297.5706
297.67156
297.57905
297.68454
297.54817
297.60202
297.58252
297.66135
297.59627
297.68452
297.60445
297.69797
297.61141
297.70929
297.61939
297.72238
297.60758
297.66039
297.63775
297.71281
297.65031
297.7334
297.65792
297.74542
297.66442
297.75566
297.67175
297.76747
297.67227
297.72777
297.69786
297.77244
297.70882
297.79034
297.71553
297.80085
297.72132
297.80969
297.7279
297.81985
297.72991
297.78999
297.752
297.82751
297.76164
297.84274
297.76755
297.85177
297.77262
297.85949
297.77823
297.8684
297.77987
297.84382
297.7992
297.87599
297.80765
297.88929
297.81274
297.89737
297.81705
297.90443
297.8219
297.91269
297.82113
297.88933
297.83794
297.91837
297.84506
297.93052
297.8495
297.93778
297.85338
297.94413
297.85783
297.95162
297.8537
297.92541
297.86945
297.95496
297.87576
297.9654
297.87972
297.97182
297.88325
297.97755
297.88742
297.98445
297.87552
297.95071
297.89071
297.97881
297.89637
297.98804
297.89998
297.99377
297.90328
297.99899
297.90718
298.00544
297.88806
297.96138
297.90269
297.98838
297.90799
297.99702
297.91136
298.00242
297.91441
298.00742
297.91801
298.01362
297.88838
297.95397
297.9023
297.97955
297.90758
297.98795
297.91093
297.99324
297.9139
297.99814
297.91727
298.00409
297.88502
297.94193
297.89853
297.96552
297.90344
297.97377
297.90662
297.97895
297.90941
297.98371
297.91256
297.98938
297.88076
297.92779
297.89385
297.95011
297.89853
297.95859
297.90163
297.96392
297.90429
297.96875
297.9073
297.97443
297.87532
297.91474
297.88805
297.93625
297.89267
297.94487
297.89569
297.95019
297.89829
297.95496
297.90112
297.96054
297.87063
297.90262
297.88315
297.92374
297.88787
297.93224
297.89073
297.9376
297.89316
297.94234
297.89582
297.94783
297.86656
297.88858
297.87909
297.90909
297.88379
297.91716
297.88658
297.92241
297.88885
297.92706
297.89117
297.93244
297.86722
297.89817
297.87889
297.91826
297.88283
297.92645
297.88566
297.93199
297.88799
297.93678
297.8905
297.94242
297.9056
297.9988
297.91834
298.02471
297.92351
298.03461
297.92654
298.04053
297.92929
298.04575
297.93246
298.05173
298.08088
298.21933
298.09122
298.24564
298.09541
298.25532
298.09826
298.26106
298.1011
298.26594
298.10445
298.27151
298.29596
298.35918
298.306
298.38552
298.30958
298.39463
298.3117
298.39967
298.31356
298.40362
298.31571
298.40806
298.38758
298.39606
298.39605
298.42036
298.39863
298.42798
298.39983
298.43237
298.40065
298.4358
298.40155
298.43967
298.41513
298.40058
298.42304
298.42356
298.42509
298.43061
298.42573
298.43435
298.42595
298.43711
298.42617
298.4403
298.4251
298.40962
298.4322
298.43225
298.43393
298.43865
298.43423
298.4417
298.43412
298.44394
298.43404
298.44662
298.43197
298.43089
298.43739
298.45031
298.43873
298.45578
298.43903
298.45816
298.43895
298.45975
298.43887
298.4615
298.31835
298.37747
298.31921
298.37466
298.32008
298.37146
298.32104
298.36746
298.32132
298.36034
298.31715
298.33975
298.29494
298.26406
298.26801
298.33809
298.26932
298.3348
298.27061
298.32997
298.27194
298.32169
298.27195
298.30509
298.26641
298.2664
298.23637
298.16409
298.14991
298.19243
298.15217
298.18934
298.15435
298.18476
298.1566
298.17656
298.15791
298.15948
298.15335
298.11892
298.12293
298.01408
297.96601
297.98071
297.96947
297.97921
297.97296
297.97646
297.97688
297.9705
297.98037
297.95605
297.97832
297.91825
297.95059
297.81844
297.70866
297.75066
297.71342
297.74978
297.71851
297.74808
297.72437
297.74272
297.73045
297.72629
297.73174
297.68854
297.71135
297.595
297.53904
297.61934
297.54399
297.61959
297.54937
297.61835
297.55531
297.61452
297.56139
297.60123
297.5615
297.55818
297.53209
297.45856
297.49403
297.59288
297.49954
297.59387
297.50481
297.59366
297.51059
297.59117
297.51657
297.58113
297.51717
297.54656
297.49065
297.45267
297.49965
297.60561
297.50573
297.60911
297.512
297.61159
297.51898
297.61209
297.52627
297.60631
297.52845
297.58136
297.50699
297.49386
297.50819
297.61825
297.51482
297.62446
297.52208
297.63038
297.53032
297.63552
297.53943
297.63673
297.54545
297.61884
297.53062
297.54054
297.5205
297.63402
297.52815
297.64279
297.53676
297.65214
297.5472
297.66209
297.55982
297.66836
297.5707
297.65716
297.55766
297.58798
297.53678
297.6496
297.54526
297.66007
297.55489
297.67184
297.56674
297.68542
297.5815
297.69732
297.59597
297.69607
297.59029
297.63999
297.55838
297.67044
297.56753
297.68281
297.57821
297.69703
297.59177
297.7135
297.60922
297.73041
297.62795
297.73782
297.62866
297.69426
297.58807
297.69818
297.59762
297.7119
297.60911
297.72775
297.62421
297.74667
297.64415
297.76795
297.66672
297.78209
297.67303
297.7501
297.62815
297.73614
297.63789
297.75003
297.65004
297.76655
297.66624
297.78722
297.68811
297.81162
297.71365
297.83041
297.7238
297.80669
297.67977
297.78006
297.6891
297.79371
297.70118
297.81063
297.71781
297.83273
297.74071
297.85974
297.76771
297.88191
297.77938
297.86371
297.73503
297.83071
297.74352
297.84308
297.75503
297.85939
297.77146
297.88129
297.79436
297.90863
297.82114
297.93158
297.83208
297.91616
297.7841
297.87779
297.79149
297.88901
297.80214
297.90435
297.81784
297.92526
297.84
297.95184
297.86572
297.97411
297.87536
297.9601
297.82695
297.92104
297.83337
297.93094
297.84297
297.94479
297.85759
297.96432
297.87858
297.9896
297.90302
298.01076
297.912
297.99884
297.86251
297.95922
297.86806
297.96785
297.87652
297.98021
297.88967
297.99779
297.90881
298.02075
297.93172
298.04145
297.94195
298.03348
297.8917
297.99137
297.89682
297.99917
297.90444
298.01004
297.91606
298.02535
297.93306
298.04595
297.9544
298.06639
297.96707
298.06358
297.91112
298.01185
297.91571
298.01901
297.92235
298.02872
297.93246
298.04232
297.9476
298.06083
297.96768
298.08086
297.9832
298.08378
297.9215
298.01949
297.92548
298.02585
297.93127
298.03461
297.94027
298.04712
297.95423
298.06439
297.97347
298.0846
297.99122
298.09265
297.92043
298.00938
297.92379
298.01498
297.92876
298.02309
297.93675
298.03537
297.94988
298.05321
297.96929
298.07475
297.9886
298.08757
297.91547
297.99421
297.91851
297.9994
297.92309
298.00719
297.93053
298.01945
297.94288
298.03805
297.96202
298.06206
297.98309
298.07891
297.91018
297.97922
297.91319
297.98447
297.91772
297.99251
297.92509
298.0054
297.93723
298.02529
297.95612
298.05166
297.97718
298.07026
297.90391
297.96542
297.90693
297.97089
297.91159
297.97937
297.91914
297.99323
297.93151
298.01505
297.94997
298.04494
297.96901
298.0685
297.89857
297.95283
297.90149
297.9586
297.90632
297.9679
297.91416
297.98338
297.9269
298.00926
297.94542
298.04904
297.96353
298.0895
297.89366
297.9375
297.89629
297.94346
297.90077
297.95329
297.90882
297.96985
297.92184
297.99637
297.94056
298.03563
297.95745
298.07451
297.89314
297.94789
297.89621
297.9543
297.9013
297.96471
297.90984
297.982
297.92298
298.0097
297.94172
298.04787
297.9565
298.0759
297.93542
298.05739
297.93904
298.06423
297.94477
298.07589
297.95448
298.09574
297.9708
298.12751
297.99295
298.16994
298.00906
298.19937
298.10724
298.27694
298.111
298.2838
298.11746
298.29615
298.12874
298.31761
298.14753
298.35202
298.17423
298.39724
298.195
298.42648
298.31769
298.41295
298.3203
298.41895
298.32533
298.43041
298.33445
298.45171
298.34965
298.48613
298.37113
298.52897
298.38869
298.55814
298.40254
298.44427
298.40396
298.45048
298.40744
298.46179
298.41415
298.4828
298.42535
298.51662
298.4403
298.56112
298.4503
298.58893
298.42663
298.44364
298.42745
298.44751
298.43014
298.45665
298.43565
298.4767
298.44529
298.5088
298.45799
298.55151
298.46537
298.57963
298.43428
298.44929
298.43484
298.45219
298.43713
298.45896
298.44149
298.47287
298.44894
298.49882
298.45858
298.53569
298.46263
298.55979
298.43911
298.46329
298.4395
298.46537
298.44117
298.47048
298.44442
298.48123
298.45022
298.50204
298.45739
298.53166
298.45915
298.54967
298.2651
298.19367
298.23822
298.1441
298.213
298.11345
298.16848
298.05754
298.19773
298.07738
298.16733
298.01871
298.14667
297.99711
298.10656
297.95511
298.0831
297.92352
298.05491
297.86379
298.04038
297.84841
298.00375
297.81356
297.91557
297.73189
297.89421
297.67586
297.88922
297.66603
297.85864
297.63556
297.68225
297.50801
297.66212
297.44712
297.65775
297.42865
297.62389
297.38899
297.48979
297.35906
297.45948
297.28233
297.44167
297.23638
297.39684
297.1678
297.4483
297.35215
297.41269
297.26546
297.38851
297.20175
297.34281
297.11989
297.4662
297.39362
297.42813
297.30176
297.39996
297.2278
297.3525
297.13948
297.49101
297.44074
297.45138
297.34556
297.41951
297.26273
297.36984
297.16861
297.52098
297.49384
297.48066
297.3971
297.44468
297.30636
297.39245
297.20629
297.55745
297.55178
297.51653
297.45556
297.47622
297.35896
297.42061
297.25313
297.60009
297.61345
297.55955
297.5206
297.51567
297.4217
297.4569
297.31218
297.64876
297.6774
297.6095
297.59048
297.5633
297.49337
297.5019
297.38293
297.7028
297.74229
297.66598
297.66396
297.61943
297.57245
297.55581
297.46348
297.76079
297.80771
297.72641
297.73855
297.67979
297.65394
297.61384
297.54861
297.81443
297.86622
297.78214
297.80466
297.73704
297.72809
297.67208
297.63018
297.85804
297.91423
297.82674
297.85745
297.78305
297.78713
297.72054
297.6958
297.89544
297.95648
297.86517
297.903
297.82277
297.83703
297.76166
297.75008
297.92734
297.99566
297.8984
297.94499
297.85597
297.88021
297.79386
297.79323
297.95634
298.03216
297.92934
297.98438
297.88595
297.91889
297.81979
297.82832
297.97686
298.05933
297.9521
298.0146
297.90863
297.94893
297.83989
297.85573
297.98915
298.07467
297.96625
298.03253
297.92184
297.96668
297.84933
297.87064
297.98958
298.07472
297.96779
298.03517
297.92244
297.97021
297.84608
297.87242
297.98671
298.07048
297.96463
298.03292
297.91795
297.96819
297.83826
297.86825
297.97969
298.06328
297.95779
298.02994
297.90971
297.96322
297.82718
297.86008
297.97209
298.05802
297.94817
298.0297
297.89817
297.95904
297.8135
297.85175
297.96574
298.06755
297.93675
298.02812
297.88451
297.95708
297.79887
297.84594
297.9573
298.08233
297.92535
298.01538
297.86993
297.9495
297.78346
297.83916
297.9502
298.06154
297.91749
298.01445
297.85764
297.94303
297.76865
297.82937
298.00393
298.17924
297.95858
298.11355
297.8834
298.01555
297.78114
297.87286
298.18439
298.403
298.12875
298.32974
298.03184
298.22316
297.90247
298.05967
298.38406
298.53633
298.33751
298.48475
298.25144
298.4065
298.13137
298.28094
298.44499
298.56437
298.41529
298.52546
298.35943
298.4681
298.2776
298.37855
298.45564
298.55669
298.43136
298.52364
298.38683
298.47561
298.32257
298.40336
298.45095
298.53726
298.42972
298.5068
298.39126
298.46343
298.33709
298.40157
298.44683
298.52607
298.42652
298.496
298.3905
298.45366
298.34093
298.39555
297.56294
297.86641
297.67905
297.94116
297.56305
297.80317
297.31936
297.71828
297.4768
297.81613
297.38969
297.69204
297.07304
297.54861
297.26237
297.66867
297.18494
297.54327
296.85309
297.3762
297.06942
297.52166
296.97097
297.36709
296.60347
297.14332
296.8441
297.31928
296.7154
297.12264
296.38237
296.91182
296.61089
297.08355
296.45811
296.87225
296.32791
296.84192
296.52695
296.99188
296.33772
296.75661
296.35136
296.8516
296.53932
296.99184
296.32325
296.73514
296.39272
296.87376
296.57122
297.00746
296.34032
296.73827
296.44589
296.90329
296.61157
297.02747
296.36491
296.744
296.51382
296.94211
296.66305
297.05279
296.39693
296.75166
296.59994
296.99266
296.72858
297.08589
296.44349
296.76755
296.70543
297.0564
296.80925
297.12779
296.50442
296.79192
296.83033
297.1345
296.90751
297.18184
296.58804
296.83309
296.97255
297.22663
297.02706
297.2536
296.69634
296.89452
297.10941
297.31944
297.148
297.33299
296.81422
296.96968
297.22651
297.40118
297.25541
297.40863
296.92565
297.04678
297.32639
297.47357
297.34975
297.47922
297.02439
297.11781
297.4081
297.53411
297.43213
297.54607
297.10365
297.17588
297.47375
297.58355
297.50595
297.6044
297.17092
297.22684
297.52463
297.62215
297.55855
297.64308
297.21985
297.26443
297.55962
297.64714
297.59609
297.66986
297.25608
297.29128
297.57912
297.65767
297.61454
297.68091
297.27829
297.30607
297.58901
297.66023
297.61957
297.6828
297.2873
297.31009
297.58527
297.65797
297.61773
297.67897
297.28919
297.30824
297.58452
297.65207
297.61467
297.67015
297.28828
297.3029
297.58404
297.64428
297.61143
297.66019
297.28787
297.29635
297.58305
297.63577
297.6041
297.64902
297.28727
297.2884
297.57362
297.62751
297.59548
297.64
297.28821
297.2804
297.6005
297.60913
297.61283
297.63104
297.29372
297.27457
297.7168
297.69093
297.69569
297.68244
297.33688
297.29239
297.95744
297.92067
297.92429
297.87237
297.53475
297.43849
298.1259
298.12171
298.1113
298.08832
297.83165
297.74174
298.20322
298.21842
298.20171
298.20425
298.02837
297.9757
298.24818
298.2742
298.24636
298.26611
298.11955
298.08891
298.26868
298.29786
298.26435
298.28966
298.14421
298.12222
298.64898
298.54082
298.43636
298.33275
298.21663
298.05168
298.65063
298.53744
298.43204
298.32911
298.21542
298.04627
298.3804
298.51051
298.41452
298.29611
298.15712
297.95064
298.39379
298.5069
298.40776
298.28825
298.1481
297.93126
298.1542
298.35126
298.34198
298.23301
298.07235
297.82484
298.16858
298.35643
298.33298
298.21723
298.05225
297.79101
298.03009
298.1276
298.16594
298.10153
297.94851
297.68191
298.03826
298.13964
298.16218
298.08056
297.91625
297.63341
297.9873
297.95994
297.93413
297.86383
297.72206
297.45864
297.98506
297.96145
297.92893
297.84411
297.68602
297.40169
297.97746
297.90719
297.81313
297.68454
297.50643
297.22701
297.9731
297.89777
297.79781
297.66089
297.47338
297.17689
297.97746
297.90182
297.79014
297.63985
297.44229
297.1512
297.97289
297.89006
297.77193
297.61444
297.41033
297.10514
297.97865
297.90516
297.7927
297.6404
297.44105
297.15121
297.9741
297.8931
297.77356
297.61388
297.40811
297.10441
297.98011
297.90919
297.79767
297.64644
297.44857
297.16297
297.97562
297.89711
297.77819
297.61925
297.41426
297.11411
297.98198
297.91402
297.80364
297.65412
297.45889
297.17963
297.97742
297.90187
297.78399
297.62655
297.42357
297.12919
297.98414
297.91977
297.81113
297.66431
297.47332
297.20312
297.97967
297.90783
297.79171
297.63684
297.43764
297.15215
297.9876
297.92659
297.82033
297.67735
297.49265
297.23501
297.98226
297.91499
297.80145
297.65044
297.45728
297.18459
297.99217
297.93452
297.83159
297.69401
297.51834
297.2778
297.98503
297.92309
297.81355
297.66849
297.48481
297.23006
297.99754
297.94361
297.8461
297.71687
297.55389
297.33518
297.98843
297.93354
297.8303
297.69413
297.52379
297.292
298.00148
297.95377
297.8642
297.74584
297.59896
297.40577
297.99198
297.94357
297.84931
297.72566
297.57314
297.36844
298.00558
297.96458
297.88399
297.77723
297.64699
297.47921
297.9975
297.9536
297.86925
297.7592
297.62559
297.44877
298.0062
297.97266
297.90104
297.80565
297.69089
297.5456
298.00047
297.96218
297.88738
297.79001
297.67327
297.52093
298.00689
297.98059
297.91793
297.83307
297.73166
297.60549
298.00271
297.97002
297.90428
297.81842
297.71618
297.58483
298.00712
297.98623
297.93179
297.85649
297.76655
297.65647
298.00409
297.97604
297.91829
297.84249
297.75243
297.63885
298.00705
297.99054
297.94323
297.87655
297.79615
297.69894
298.00405
297.98055
297.93029
297.86361
297.78397
297.68503
298.00698
297.9937
297.95231
297.89305
297.82035
297.73306
298.00359
297.98305
297.93907
297.88014
297.80883
297.72132
298.0068
297.99456
297.95708
297.90382
297.83729
297.7577
298.00248
297.98361
297.94457
297.89202
297.82721
297.74824
298.00665
297.99377
297.95877
297.90943
297.84661
297.77194
298.00188
297.98292
297.94687
297.89869
297.83794
297.76402
298.00585
297.991
297.95781
297.9113
297.85072
297.77908
298.00086
297.98073
297.94651
297.90141
297.84313
297.77196
298.00442
297.98717
297.95478
297.91038
297.85125
297.78152
298.00037
297.97843
297.94538
297.90253
297.8458
297.77616
298.00299
297.98351
297.9516
297.90838
297.84991
297.78138
297.99816
297.97496
297.94287
297.90174
297.84594
297.77745
298.00109
297.9786
297.94704
297.90502
297.84699
297.7796
297.99647
297.97165
297.94019
297.90036
297.84502
297.77767
297.99895
297.97425
297.94294
297.90172
297.8437
297.77716
297.99439
297.96802
297.93711
297.89832
297.84319
297.77682
297.99664
297.9701
297.93898
297.89823
297.83995
297.77353
297.99243
297.9645
297.93393
297.89573
297.84038
297.77426
297.99413
297.96624
297.93512
297.89458
297.83681
297.77376
297.99132
297.96112
297.93038
297.8926
297.83926
297.78047
297.99208
297.96288
297.93351
297.90035
297.85727
297.82432
297.99026
297.95799
297.93041
297.90428
297.86952
297.85572
297.99226
297.96611
297.95894
297.9637
297.98916
298.02237
297.99084
297.9629
297.9635
297.99519
298.04027
298.07776
298.00175
298.01951
298.0965
298.1855
298.236
298.23825
298.00119
298.03793
298.13008
298.23136
298.27929
298.27266
298.05613
298.21947
298.35602
298.39839
298.37249
298.32925
298.0649
298.25326
298.38747
298.41997
298.38912
298.34302
298.25325
298.50373
298.49851
298.45916
298.41268
298.36829
298.26283
298.51688
298.50109
298.46067
298.41696
298.37311
298.59947
298.52829
298.49949
298.46993
298.42787
298.3848
298.59666