/*--------------------------------*- C++ -*----------------------------------*\
| =========                 |                                                 |
| \\      /  F ield         | OpenFOAM: The Open Source CFD Toolbox           |
|  \\    /   O peration     | Version:  2206                                  |
|   \\  /    A nd           | Website:  www.openfoam.com                      |
|    \\/     M anipulation  |                                                 |
\*---------------------------------------------------------------------------*/
FoamFile
{
    version     2.0;
    format      ascii;
    arch        "LSB;label=32;scalar=64";
    class       volVectorField;
    location    "400";
    object      U;
}
// * * * * * * * * * * * * * * * * * * * * * * * * * * * * * * * * * * * * * //

dimensions      [0 1 -1 0 0 0 0];

internalField   nonuniform List<vector> 
50904
(
(-27.725974 1.024088 0.070980088)
(-37.532634 2.1868966 0.21073145)
(-28.465694 4.7534191 0.30635498)
(-39.872207 8.1682234 0.49703243)
(-49.106328 1.4647036 0.23573625)
(-59.724424 3.2658505 0.46406772)
(-49.763559 6.6821233 0.24714818)
(-61.313763 10.59651 0.550041)
(-59.340587 1.2117732 0.42369936)
(-69.391991 2.9742813 0.83554086)
(-60.033376 6.3722203 0.59789737)
(-70.618491 9.9252439 1.1135241)
(-65.426196 0.83651717 0.62412548)
(-74.777595 2.4018265 1.2251941)
(-66.132959 5.6821885 0.84919347)
(-75.816551 8.8269898 1.5745371)
(-69.516661 0.51316261 0.85775203)
(-78.117886 1.8945108 1.6710689)
(-70.067253 5.091399 1.1810269)
(-78.877726 7.9742908 2.1405877)
(-71.323339 0.24039663 1.1207336)
(-79.392147 1.4821579 2.1697691)
(-71.709199 4.7089735 1.5410137)
(-79.957598 7.4365712 2.765719)
(-71.49965 -0.060115443 1.4359331)
(-79.317038 1.0719359 2.7203767)
(-71.887749 4.4243655 1.9641706)
(-79.890755 7.0284548 3.4475667)
(-71.310828 -0.41279705 1.8117174)
(-78.904372 0.60638619 3.3508172)
(-71.763947 4.1157957 2.4525608)
(-79.534347 6.5790551 4.1983483)
(-71.019552 -0.84134189 2.2542028)
(-78.336548 0.054449592 4.0557265)
(-71.549392 3.739839 3.0689421)
(-79.033583 6.0478435 5.0756913)
(-70.592333 -1.3350025 2.7366693)
(-77.56323 -0.56744178 4.7871214)
(-71.190164 3.2917391 3.6626315)
(-78.335463 5.4353768 5.910067)
(-69.987329 -1.8796727 3.2673935)
(-76.551408 -1.2403781 5.5439042)
(-70.63451 2.7902079 4.3789696)
(-77.391144 4.7663 6.8280689)
(-69.157733 -2.4985935 3.7922393)
(-75.232013 -2.0022891 6.247353)
(-69.847613 2.2071977 5.0336295)
(-76.142797 3.9936672 7.6307305)
(-68.049671 -3.1704795 4.2820589)
(-73.56193 -2.7907304 6.8580035)
(-68.745879 1.579333 5.6789012)
(-74.527765 3.2069751 8.3614093)
(-66.619261 -3.8247903 4.6241456)
(-71.519522 -3.5355332 7.2298658)
(-67.301284 0.96300914 6.1287547)
(-72.528292 2.4334665 8.8178502)
(-64.879599 -4.3463201 4.7775904)
(-69.132495 -4.1425613 7.3255828)
(-65.505771 0.42694923 6.3640908)
(-70.158166 1.7495073 8.961991)
(-63.092914 -4.798392 4.6195825)
(-66.762922 -4.6346462 7.0147275)
(-63.63798 -0.0047588094 6.2316406)
(-67.762521 1.2270156 8.6638543)
(-61.494767 -5.0150211 4.2940767)
(-64.684236 -4.8792599 6.482252)
(-61.968134 -0.22449885 5.8926788)
(-65.640727 0.94785922 8.1030345)
(-60.072496 -5.159648 3.7962874)
(-62.866839 -5.028677 5.7489258)
(-60.500132 -0.32738245 5.3545241)
(-63.783492 0.82638796 7.3192492)
(-58.85825 -5.1643569 3.2690842)
(-61.307748 -5.0514642 4.9477851)
(-59.254516 -0.27630746 4.7738502)
(-62.201711 0.88322721 6.4548272)
(-57.84919 -5.0635218 2.7174426)
(-60.017099 -4.9646065 4.1081489)
(-58.196405 -0.13519578 4.1126281)
(-60.87801 1.0595357 5.5009036)
(-57.041258 -5.0435759 2.2025945)
(-58.98357 -4.9629711 3.2713861)
(-57.368867 -0.050159 3.4199567)
(-59.829731 1.1663347 4.4821942)
(-56.456655 -5.0943076 1.6386708)
(-58.230987 -5.0357375 2.3844834)
(-56.768697 -0.12662182 2.6651056)
(-59.051247 1.0934897 3.3858628)
(-56.117899 -5.2991202 1.2314951)
(-57.788069 -5.2739614 1.6591521)
(-56.43673 -0.35410155 2.0177215)
(-58.602054 0.84216707 2.402402)
(-55.967053 -5.5354724 0.91323494)
(-57.563947 -5.5631457 1.1001327)
(-56.303529 -0.63502031 1.5430421)
(-58.401113 0.51462513 1.6607252)
(-55.917596 -5.773233 0.72470096)
(-57.471835 -5.8503154 0.72663297)
(-56.251742 -0.90502401 1.2044756)
(-58.325853 0.19966189 1.1128135)
(-55.933004 -6.0094596 0.57539527)
(-57.445552 -6.1266324 0.47368726)
(-56.277103 -1.1730265 0.96798767)
(-58.313325 -0.11552484 0.73922109)
(-55.985639 -6.2187206 0.48127775)
(-57.425762 -6.3625547 0.30877993)
(-56.336419 -1.4118094 0.78722873)
(-58.273908 -0.39150139 0.47915696)
(-56.061184 -6.4019309 0.40153356)
(-57.404694 -6.5643534 0.20511249)
(-56.42817 -1.6283513 0.65647746)
(-58.174496 -0.61665332 0.30921043)
(-56.150005 -6.563606 0.35312428)
(-57.375748 -6.7389405 0.12158169)
(-56.538972 -1.8204981 0.54296814)
(-58.107442 -0.78444551 0.22573392)
(-56.200944 -6.7053588 0.30405009)
(-57.386945 -6.8838702 0.1122118)
(-56.561549 -1.9868616 0.46012894)
(-58.047999 -0.90386854 0.20694367)
(-55.697536 -6.9009365 0.27262865)
(-56.372595 -7.1049691 0.086759139)
(-55.856146 -2.150017 0.38308455)
(-56.726825 -1.0165851 0.16982314)
(-52.956807 -7.2866756 0.2059271)
(-52.943429 -7.5199944 0.045611936)
(-52.495185 -2.3309004 0.27723255)
(-52.895513 -1.1451416 0.095350641)
(-47.383236 -7.6917779 0.11514891)
(-47.266856 -7.8626806 0.0048062403)
(-46.655384 -2.4599589 0.15715205)
(-47.184165 -1.2236385 0.039685484)
(-39.900553 -7.6781656 0.044158619)
(-40.015258 -7.7508682 -0.021982184)
(-39.212027 -2.4139697 0.069275557)
(-40.129401 -1.195682 0.010259717)
(-29.002227 -6.6263724 0.038655354)
(-29.319631 -6.6326179 0.0041495237)
(-28.518445 -2.0181446 0.041597453)
(-29.704407 -1.0253873 0.013200571)
(-11.894769 -3.2657207 -0.11615415)
(-12.131371 -3.2894436 -0.10820158)
(-11.72836 -0.95727354 -0.075497659)
(-12.549116 -0.61099106 -0.068181749)
(-26.830283 8.7938173 0.475203)
(-38.136148 14.218875 0.91859891)
(-23.117252 11.159775 0.52821883)
(-31.579185 17.869834 0.98424364)
(-21.236783 11.105776 0.43615371)
(-25.841982 18.557007 0.82871932)
(-20.138957 10.897708 0.3638626)
(-22.91657 18.209226 0.73250187)
(-19.467944 10.6758 0.3132332)
(-21.143365 17.681246 0.66543876)
(-19.015883 10.495443 0.2817327)
(-19.991119 17.181969 0.63033402)
(-18.674729 10.342507 0.26281092)
(-19.142653 16.711024 0.61462131)
(-47.36375 11.408953 0.24124413)
(-58.385449 17.409474 0.6708807)
(-43.086837 13.821226 0.30311045)
(-51.613852 20.895122 0.6309313)
(-41.209136 13.652979 0.31515169)
(-46.485 20.757124 0.66432783)
(-40.145303 13.379323 0.32476888)
(-43.984976 20.167223 0.72962891)
(-39.514887 13.125296 0.32656998)
(-42.503717 19.566106 0.75974325)
(-39.098839 12.927453 0.32506644)
(-41.539853 19.064077 0.77440288)
(-38.788382 12.761829 0.32217495)
(-40.826155 18.616215 0.78141163)
(-57.742854 10.711765 0.72192678)
(-67.785088 16.20203 1.4322795)
(-53.787026 12.897037 0.88960871)
(-61.978244 19.376423 1.4799695)
(-52.15197 12.798224 0.91592452)
(-57.598304 19.129119 1.6202409)
(-51.215935 12.573864 0.93205483)
(-55.378018 18.629754 1.7421044)
(-50.658041 12.352573 0.93652372)
(-54.084518 18.118848 1.8042381)
(-50.288277 12.172217 0.93670786)
(-53.23601 17.681932 1.8402099)
(-50.010839 12.019006 0.93520665)
(-52.603307 17.287456 1.8593208)
(-64.115127 9.6907286 1.0294623)
(-73.235118 14.672926 1.9151953)
(-60.51718 11.770738 1.2397118)
(-68.031154 17.797182 2.0145384)
(-59.057093 11.744479 1.2759503)
(-63.987649 17.702589 2.1380347)
(-58.199302 11.57647 1.29147)
(-61.826718 17.342659 2.2282854)
(-57.67525 11.404308 1.2966229)
(-60.583612 16.951591 2.2631059)
(-57.321445 11.267152 1.3002908)
(-59.780518 16.616471 2.2876361)
(-57.053412 11.152596 1.3055908)
(-59.186075 16.308865 2.3064173)
(-68.166355 8.9323293 1.4480654)
(-76.321899 13.629825 2.5523764)
(-64.736193 11.019652 1.7622768)
(-71.236911 16.909654 2.7156036)
(-63.36113 11.070273 1.8273396)
(-67.16074 17.061384 2.8983649)
(-62.540887 10.947649 1.8603341)
(-64.889782 16.819073 3.0256)
(-62.037368 10.797405 1.8734101)
(-63.505588 16.47922 3.0798664)
(-61.689507 10.671233 1.8765878)
(-62.61407 16.17443 3.1117359)
(-61.415924 10.56489 1.877003)
(-61.909647 15.891921 3.1286251)
(-69.851189 8.5276755 1.8696014)
(-77.363753 13.091454 3.231468)
(-66.4633 10.6778 2.2300209)
(-72.171355 16.599987 3.3422939)
(-65.035377 10.789592 2.2678417)
(-68.052329 16.959142 3.4990563)
(-64.151229 10.709301 2.2798146)
(-65.755028 16.830465 3.5950028)
(-63.607409 10.587533 2.2821694)
(-64.359425 16.567071 3.6505222)
(-63.261016 10.480166 2.2839022)
(-63.454564 16.307688 3.6913793)
(-62.966754 10.390939 2.2872507)
(-62.857688 16.045058 3.7160968)
(-70.113482 8.3160485 2.3766029)
(-77.305059 12.773675 3.9721789)
(-66.801722 10.581389 2.8269612)
(-71.980247 16.560106 4.1281805)
(-65.331845 10.749206 2.8794323)
(-67.884849 17.125387 4.3279432)
(-64.404515 10.693427 2.894054)
(-65.645894 17.09123 4.4476728)
(-63.828646 10.589 2.8940872)
(-64.297739 16.865973 4.5101441)
(-63.43226 10.492776 2.8932995)
(-63.420152 16.627576 4.5476731)
(-63.132085 10.410417 2.8934442)
(-62.830939 16.38272 4.5682182)
(-70.090978 8.1018087 2.9127831)
(-77.009514 12.403185 4.7606404)
(-66.87821 10.493224 3.4035131)
(-71.660987 16.429697 4.9498816)
(-65.383924 10.717813 3.458639)
(-67.582572 17.219422 5.1222106)
(-64.4256 10.691864 3.4750111)
(-65.410153 17.306336 5.2761972)
(-63.831581 10.608204 3.4810311)
(-64.117618 17.147322 5.3524361)
(-63.425306 10.526403 3.4844991)
(-63.263289 16.950569 5.38723)
(-63.118788 10.455469 3.487846)
(-62.672771 16.740835 5.4031955)
(-69.984943 7.8386147 3.6402168)
(-76.605936 11.957976 5.7442563)
(-66.882868 10.373413 4.1856592)
(-71.293135 16.2222 6.0529158)
(-65.373107 10.658224 4.2486655)
(-67.200626 17.240283 6.2221232)
(-64.387224 10.661094 4.2659456)
(-65.098826 17.462754 6.3670153)
(-63.775887 10.598857 4.2724763)
(-63.874202 17.385302 6.4283504)
(-63.360864 10.532453 4.2752705)
(-63.054165 17.238078 6.452465)
(-63.049539 10.473771 4.2776895)
(-62.458552 17.067363 6.4593686)
(-69.737889 7.5078315 4.2892151)
(-76.051872 11.422514 6.6269306)
(-66.760975 10.197771 4.8766469)
(-70.853836 15.9103 7.0479733)
(-65.249357 10.551742 4.9635306)
(-66.783552 17.179771 7.2526709)
(-64.244654 10.59344 4.9989722)
(-64.758351 17.556798 7.4020585)
(-63.621145 10.557461 5.0164117)
(-63.536675 17.56551 7.4584943)
(-63.198411 10.509272 5.0257332)
(-62.765676 17.464959 7.4766323)
(-62.885357 10.465797 5.0328173)
(-62.189603 17.330711 7.4781954)
(-69.278272 7.1093707 5.1144907)
(-75.270089 10.810877 7.6330934)
(-66.421165 9.9539317 5.736477)
(-70.257879 15.486349 8.1655225)
(-64.924437 10.377599 5.832937)
(-66.239658 16.965276 8.4269855)
(-63.915329 10.455055 5.8766995)
(-64.250993 17.476317 8.5640427)
(-63.28673 10.4421 5.8975338)
(-63.040251 17.558741 8.6035597)
(-62.862295 10.409632 5.9085404)
(-62.31468 17.499168 8.6074171)
(-62.552253 10.379277 5.916447)
(-61.764993 17.397019 8.5986601)
(-68.594651 6.6186391 5.8415748)
(-74.197492 10.081976 8.4873168)
(-65.867421 9.6271953 6.4855373)
(-69.393917 14.963197 9.1142533)
(-64.383778 10.130875 6.6026874)
(-65.471835 16.627856 9.4360379)
(-63.375932 10.2504 6.6588481)
(-63.538745 17.247894 9.576074)
(-62.749357 10.264617 6.6868772)
(-62.36027 17.394484 9.6074972)
(-62.329772 10.250153 6.7027008)
(-61.674214 17.373668 9.6043879)
(-62.027877 10.23449 6.7140136)
(-61.15736 17.301884 9.591265)
(-67.560075 6.0615067 6.5558259)
(-72.770639 9.3081423 9.2514897)
(-64.947553 9.1957032 7.1854097)
(-68.196545 14.260161 9.9010726)
(-63.508824 9.7557594 7.3224056)
(-64.303138 16.049587 10.274565)
(-62.510271 9.9014581 7.3889936)
(-62.416816 16.731988 10.415362)
(-61.896247 9.936718 7.4226892)
(-61.408054 16.905287 10.4371)
(-61.495687 9.9372589 7.4416483)
(-60.749224 16.913319 10.429021)
(-61.211477 9.9336468 7.4545774)
(-60.277389 16.868404 10.41282)
(-66.210878 5.4614576 7.0858748)
(-70.974254 8.4910516 9.7538742)
(-63.741706 8.6569375 7.6629414)
(-66.644563 13.450257 10.361366)
(-62.325564 9.2711252 7.7741309)
(-62.889713 15.288224 10.743765)
(-61.347608 9.4462855 7.8352086)
(-61.109573 15.989124 10.860965)
(-60.756874 9.4994633 7.8691925)
(-60.166506 16.177219 10.874696)
(-60.378755 9.51111 7.8891117)
(-59.550326 16.202138 10.864942)
(-60.116394 9.5143086 7.9027584)
(-59.122618 16.173612 10.848922)
(-64.513493 4.8430613 7.34064)
(-68.835514 7.6553565 9.8768895)
(-62.229488 8.0004127 7.8563068)
(-64.799721 12.476756 10.408715)
(-60.837691 8.6534656 7.9702845)
(-61.206253 14.309995 10.786808)
(-59.889017 8.8497326 8.0295783)
(-59.57124 15.003886 10.892025)
(-59.330324 8.9154027 8.0621776)
(-58.675312 15.196152 10.901315)
(-58.980233 8.934087 8.0808072)
(-58.110992 15.230788 10.890812)
(-58.74498 8.9438053 8.0937462)
(-57.730136 15.216444 10.876196)
(-62.707212 4.2813005 7.1951949)
(-66.604081 6.9342653 9.5600951)
(-60.616569 7.3364669 7.6332663)
(-62.833261 11.526878 10.011008)
(-59.27821 8.0151587 7.7325721)
(-59.483647 13.300537 10.339425)
(-58.383364 8.2295791 7.7847842)
(-57.94449 13.968673 10.428984)
(-57.862945 8.3031151 7.8125543)
(-57.11332 14.155649 10.437094)
(-57.544049 8.3274993 7.8287314)
(-56.603533 14.194789 10.429368)
(-57.33609 8.3425527 7.8402664)
(-56.269721 14.191097 10.419232)
(-61.088085 3.9040378 6.8253541)
(-64.576536 6.4528049 8.961798)
(-59.184978 6.7950634 7.1986246)
(-60.992334 10.773813 9.3488244)
(-57.91484 7.4723768 7.2899102)
(-57.8974 12.455603 9.6292697)
(-57.081029 7.6970354 7.3374248)
(-56.464127 13.0903 9.7038494)
(-56.600666 7.7748926 7.3622296)
(-55.692069 13.269198 9.7114548)
(-56.311094 7.802737 7.3767115)
(-55.227464 13.311585 9.7068172)
(-56.126904 7.8209434 7.3869487)
(-54.931301 13.316723 9.7007084)
(-59.669617 3.669495 6.2278496)
(-62.754441 6.1573158 8.1313788)
(-57.940846 6.3906795 6.5381739)
(-59.311605 10.213733 8.4830687)
(-56.743116 7.0585538 6.621774)
(-56.492004 11.791028 8.7222082)
(-55.970631 7.2918312 6.6649958)
(-55.182211 12.386352 8.7867162)
(-55.528836 7.3749925 6.6882161)
(-54.47606 12.557106 8.7970505)
(-55.265685 7.4070719 6.7024148)
(-54.056773 12.602343 8.7969115)
(-55.101467 7.4271942 6.7123808)
(-53.794974 12.613493 8.7949667)
(-58.45494 3.5269972 5.5158982)
(-61.140934 5.983137 7.1530567)
(-56.872301 6.0246801 5.7931198)
(-57.839545 9.7273859 7.4946838)
(-55.768505 6.6673386 5.9019964)
(-55.295803 11.194564 7.7243851)
(-55.062988 6.9062931 5.9532059)
(-54.122284 11.756078 7.7892881)
(-54.660072 6.9997857 5.9788638)
(-53.486225 11.929596 7.8041771)
(-54.419867 7.0408293 5.9936322)
(-53.109557 11.985612 7.807488)
(-54.269344 7.0620524 6.0031905)
(-52.875024 12.002228 7.8078895)
(-57.438468 3.4707133 4.7376358)
(-59.758239 5.9255178 6.1037494)
(-55.980679 5.7590745 4.9557612)
(-56.590429 9.3764337 6.3906579)
(-54.973667 6.371984 5.0412565)
(-54.320986 10.730476 6.5721112)
(-54.331192 6.6181004 5.0861796)
(-53.284996 11.260638 6.6275188)
(-53.961887 6.7210372 5.1105559)
(-52.719171 11.436333 6.6446537)
(-53.740027 6.7700254 5.1250817)
(-52.384454 11.502164 6.6506423)
(-53.600092 6.7972762 5.1346017)
(-52.175838 11.5276 6.6532634)
(-56.664816 3.37175 3.9189321)
(-58.685856 5.8199019 4.9797791)
(-55.327484 5.4726366 4.1176183)
(-55.68621 9.001956 5.2576096)
(-54.400382 6.0613215 4.2052246)
(-53.652275 10.25872 5.4268564)
(-53.805188 6.3112096 4.2515851)
(-52.734943 10.761134 5.4802849)
(-53.459991 6.4229153 4.2776975)
(-52.238541 10.933907 5.4994665)
(-53.251629 6.479842 4.2936661)
(-51.970168 11.007071 5.5080841)
(-53.119572 6.5128451 4.3043755)
(-51.759545 11.042139 5.5132379)
(-56.122432 3.1966951 3.078215)
(-57.943868 5.6360468 3.8049813)
(-54.88872 5.188228 3.2332081)
(-55.134987 8.6330736 4.028158)
(-54.021472 5.7765823 3.2974626)
(-53.29307 9.8180891 4.1601375)
(-53.462803 6.037344 3.3371645)
(-52.47681 10.29696 4.2008859)
(-53.139486 6.1584622 3.3603016)
(-52.038762 10.466513 4.2167959)
(-52.946101 6.221297 3.374657)
(-51.807148 10.540978 4.2259918)
(-52.829194 6.2600597 3.3838957)
(-51.627239 10.581253 4.231822)
(-55.843642 2.9734286 2.3432481)
(-57.611644 5.3714587 2.752922)
(-54.705773 4.9152422 2.4815009)
(-54.997031 8.239722 2.9627239)
(-53.886035 5.5057236 2.5414164)
(-53.286359 9.3628199 3.096317)
(-53.351464 5.7747789 2.5838212)
(-52.53658 9.8168852 3.1389215)
(-53.046382 5.9009402 2.6080754)
(-52.139717 9.9820096 3.1566732)
(-52.880867 5.9655199 2.6231641)
(-51.920984 10.056572 3.168141)
(-52.77562 6.0043635 2.6329566)
(-51.766663 10.096207 3.1762502)
(-55.749887 2.6675122 1.7919505)
(-57.572785 5.0031185 1.9603052)
(-54.677753 4.5922228 1.9112415)
(-55.147694 7.7995714 2.1566991)
(-53.925698 5.1887988 1.9539336)
(-53.528602 8.8843989 2.2853131)
(-53.444009 5.4586379 1.989264)
(-52.791417 9.3212589 2.3266229)
(-53.166749 5.5858906 2.008704)
(-52.390369 9.484601 2.3437713)
(-53.00766 5.6514439 2.020941)
(-52.162964 9.5585175 2.3546569)
(-52.910535 5.690144 2.0288919)
(-52.020713 9.5965659 2.362245)
(-55.71678 2.39327 1.4003701)
(-57.676176 4.6671321 1.3855809)
(-54.683374 4.3344606 1.5176205)
(-55.428906 7.4313988 1.6107229)
(-53.981703 4.9426744 1.5580578)
(-53.87005 8.4945323 1.7557426)
(-53.546051 5.2137648 1.5933451)
(-53.134668 8.916258 1.8082208)
(-53.296747 5.3396737 1.6127786)
(-52.721353 9.0750165 1.8304511)
(-53.148553 5.4044695 1.6247083)
(-52.482754 9.1469843 1.8436812)
(-53.05759 5.4422774 1.6322448)
(-52.339286 9.1833822 1.8523226)
(-55.761976 2.1151936 1.1216333)
(-57.813085 4.335233 0.9848761)
(-54.745089 4.0795538 1.2340039)
(-55.694597 7.0925856 1.2490737)
(-54.068178 4.6986035 1.2658322)
(-54.15819 8.1462792 1.3942381)
(-53.653565 4.9727129 1.2987813)
(-53.427031 8.5647111 1.4571198)
(-53.418087 5.098857 1.317163)
(-53.008425 8.7221807 1.4857025)
(-53.278563 5.163042 1.3285513)
(-52.76645 8.7934843 1.5019055)
(-53.193188 5.2002501 1.3356726)
(-52.621075 8.8291775 1.5119047)
(-55.837099 1.8630746 0.91343173)
(-57.866398 4.0543553 0.71314546)
(-54.807935 3.8572287 1.0298118)
(-55.869215 6.8272335 1.0282725)
(-54.141347 4.4901693 1.0599451)
(-54.415639 7.8657288 1.1909901)
(-53.741118 4.7680566 1.0913304)
(-53.663007 8.2902371 1.2525805)
(-53.511964 4.8947774 1.1080547)
(-53.241805 8.4477188 1.2878428)
(-53.376825 4.9587015 1.1185062)
(-53.000776 8.5180267 1.3094814)
(-53.29465 4.995359 1.1250095)
(-52.855772 8.5527792 1.3226132)
(-55.931273 1.6331747 0.75384893)
(-57.868365 3.8344038 0.53078778)
(-54.864634 3.6650191 0.86620628)
(-56.009128 6.6235949 0.88146349)
(-54.186222 4.3163483 0.89959278)
(-54.720064 7.6152887 1.0514092)
(-53.798902 4.5988441 0.92807157)
(-53.949885 8.0256618 1.1267275)
(-53.576081 4.7264303 0.94401873)
(-53.501053 8.1812093 1.1736408)
(-53.444305 4.7900605 0.95381903)
(-53.23623 8.2490587 1.201604)
(-53.364055 4.8262086 0.96002351)
(-53.09889 8.2802988 1.2180163)
(-56.052596 1.4315491 0.62630654)
(-57.865711 3.6748206 0.43464408)
(-54.932995 3.50815 0.74584762)
(-56.212108 6.4705608 0.86431102)
(-54.236182 4.1854297 0.79351447)
(-54.925325 7.4051019 1.0467239)
(-53.838317 4.4741448 0.81774656)
(-54.143584 7.782288 1.1264359)
(-53.608779 4.6028519 0.83000312)
(-53.66204 7.9224925 1.1726194)
(-53.476014 4.6664621 0.83829415)
(-53.429575 7.9795485 1.1990113)
(-53.397602 4.7023766 0.84470109)
(-53.291155 8.0063538 1.2149694)
(-56.074805 1.2720357 0.51834631)
(-57.559487 3.5625156 0.41050109)
(-54.883394 3.4007009 0.63871209)
(-55.778127 6.3941586 0.84988721)
(-54.120258 4.1022184 0.68974046)
(-54.357666 7.2984807 1.0592874)
(-53.685972 4.3945208 0.71674025)
(-53.656541 7.6335682 1.1326033)
(-53.470086 4.5254807 0.73209101)
(-53.255044 7.7572993 1.1707785)
(-53.310259 4.5944999 0.74193994)
(-53.026838 7.8072334 1.1918146)
(-53.210149 4.6342845 0.74817694)
(-52.909769 7.8313795 1.2036995)
(-55.021858 1.1897913 0.41317668)
(-56.201951 3.5513949 0.36644718)
(-53.680377 3.4130301 0.51677254)
(-53.822698 6.5425633 0.78014361)
(-52.8553 4.1498006 0.56922472)
(-52.126359 7.5298833 1.0083641)
(-52.365669 4.4601899 0.59927369)
(-51.249091 7.8650283 1.0785092)
(-52.104879 4.5983189 0.61823171)
(-50.762518 7.9954252 1.1127171)
(-51.959212 4.6668564 0.62929446)
(-50.483211 8.0502248 1.1292024)
(-51.874259 4.7046518 0.634367)
(-50.31699 8.0778953 1.1382394)
(-51.307644 1.2450832 0.28467882)
(-52.154844 3.7075518 0.23896485)
(-49.669814 3.6493949 0.34584833)
(-49.403904 7.0205463 0.61375038)
(-48.688129 4.4309194 0.38485492)
(-47.376781 8.2208541 0.85108384)
(-48.148697 4.7583546 0.40960115)
(-46.307472 8.6167495 0.91593523)
(-47.857996 4.9037718 0.42350583)
(-45.713447 8.7717291 0.94200703)
(-47.693787 4.9755543 0.43212807)
(-45.371913 8.8332527 0.95458107)
(-47.597171 5.0146261 0.43710391)
(-45.169858 8.8626868 0.96084895)
(-45.330401 1.421231 0.15323923)
(-46.575822 3.9691117 0.14367918)
(-43.521738 4.0346101 0.19584243)
(-43.695252 7.6922734 0.41883515)
(-42.46536 4.8571949 0.22273966)
(-41.396536 9.188614 0.63024919)
(-41.895127 5.1969369 0.24180195)
(-40.131516 9.6889477 0.69216965)
(-41.58606 5.3474736 0.25317984)
(-39.434092 9.8775912 0.71890198)
(-41.41106 5.4215064 0.26031273)
(-39.037803 9.9498572 0.73367237)
(-41.307916 5.4614707 0.26452337)
(-38.805672 9.9816661 0.74124312)
(-37.915473 1.6461064 0.061961056)
(-39.755342 4.2126007 0.051312055)
(-36.041485 4.4085701 0.090123989)
(-36.809031 8.3227832 0.221223)
(-34.959993 5.2583066 0.10592803)
(-34.242695 10.091643 0.35697725)
(-34.377819 5.5980325 0.11515174)
(-32.772522 10.692565 0.40515934)
(-34.059126 5.7460878 0.12077571)
(-31.965137 10.912791 0.42664874)
(-33.878456 5.8176721 0.12555334)
(-31.513382 10.992567 0.44148633)
(-33.772382 5.8550392 0.13033214)
(-31.253197 11.022332 0.45315218)
(-27.43021 1.7583831 0.023257864)
(-29.68764 4.0436351 0.0072078469)
(-25.692943 4.4092569 0.041766799)
(-26.983102 8.1639083 0.073791006)
(-24.643973 5.2293517 0.045866615)
(-24.410242 9.9693237 0.12875448)
(-24.07508 5.5383998 0.045365496)
(-22.853458 10.573511 0.15075282)
(-23.754681 5.6677484 0.044371791)
(-21.982252 10.793367 0.16350379)
(-23.571101 5.731467 0.045370267)
(-21.500656 10.877582 0.17757189)
(-23.465159 5.7670564 0.049923175)
(-21.231237 10.914898 0.19326964)
(-11.259062 1.1108382 -0.068053165)
(-13.055253 2.162233 -0.077575472)
(-10.293994 2.6531541 -0.046941132)
(-11.747118 4.6912117 -0.076935719)
(-9.6168866 3.1572458 -0.041094158)
(-10.280154 5.8320015 -0.075861397)
(-9.2386907 3.3343666 -0.036662885)
(-9.3455009 6.1675981 -0.07413746)
(-9.0174998 3.3949211 -0.03247995)
(-8.7898655 6.2696175 -0.06657209)
(-8.8839817 3.4166398 -0.028208)
(-8.474329 6.2973189 -0.056881782)
(-8.8051768 3.4283145 -0.021940548)
(-8.3009718 6.3129778 -0.041465819)
(-18.375173 10.190956 0.25090451)
(-18.411866 16.240268 0.60853868)
(-18.12469 10.044524 0.23969621)
(-17.821706 15.785277 0.60315346)
(-17.912191 9.9073756 0.23949191)
(-17.339171 15.37442 0.6194158)
(-17.66544 9.7319615 0.25510638)
(-16.789363 14.854416 0.65766439)
(-17.284885 9.4069254 0.29396864)
(-15.962301 13.907225 0.72280316)
(-16.567497 8.6514093 0.35371064)
(-14.46264 11.573012 0.75896064)
(-38.513305 12.592545 0.31834817)
(-40.207305 18.170975 0.78305367)
(-38.28042 12.435262 0.31429561)
(-39.703801 17.764137 0.78148953)
(-38.087651 12.298336 0.31182457)
(-39.300151 17.421148 0.7860612)
(-37.862655 12.114462 0.30677444)
(-38.831294 16.97662 0.79133047)
(-37.505245 11.736548 0.2971552)
(-38.085499 16.097249 0.7924423)
(-36.793973 10.705416 0.30620959)
(-36.618716 13.766181 0.81533691)
(-49.763053 11.864528 0.93255456)
(-52.050808 16.894848 1.8724102)
(-49.548671 11.7139 0.92880482)
(-51.590721 16.518054 1.8773758)
(-49.370138 11.576985 0.92229005)
(-51.218945 16.185479 1.8743888)
(-49.164783 11.41002 0.9118843)
(-50.793784 15.783405 1.8646949)
(-48.842618 11.105775 0.89369979)
(-50.122917 15.061381 1.840515)
(-48.181651 10.278052 0.87503011)
(-48.739876 13.163726 1.8046438)
(-56.812621 11.035908 1.311124)
(-58.6796 15.996544 2.3265003)
(-56.605392 10.924267 1.3163857)
(-58.263718 15.697953 2.3449378)
(-56.432011 10.823083 1.3230787)
(-57.923262 15.433782 2.3665792)
(-56.230392 10.688762 1.3294545)
(-57.528142 15.090256 2.391995)
(-55.909947 10.421696 1.3308857)
(-56.891683 14.427501 2.4173199)
(-55.251425 9.6919634 1.3184152)
(-55.555034 12.684663 2.4303627)
(-61.165989 10.456718 1.8754371)
(-61.307319 15.606967 3.1384152)
(-60.94803 10.351426 1.8720435)
(-60.828784 15.329651 3.1417127)
(-60.761512 10.256531 1.8678388)
(-60.448503 15.082361 3.14448)
(-60.540025 10.1384 1.8613371)
(-60.043021 14.765582 3.1452789)
(-60.188352 9.915832 1.8500605)
(-59.46815 14.160818 3.1386803)
(-59.487102 9.2974013 1.8325501)
(-58.424378 12.552356 3.1198482)
(-62.716223 10.300291 2.2908818)
(-62.358973 15.777768 3.7342979)
(-62.488203 10.208564 2.292627)
(-61.885015 15.522877 3.7472884)
(-62.31582 10.1216 2.2938697)
(-61.530898 15.290424 3.7586277)
(-62.109433 10.012439 2.2950773)
(-61.150154 14.983993 3.7680157)
(-61.710893 9.8058946 2.2938929)
(-60.583956 14.393285 3.7724745)
(-60.927306 9.2245149 2.2806958)
(-59.450416 12.823419 3.7565266)
(-62.867629 10.326092 2.8927785)
(-62.342634 16.134254 4.5818762)
(-62.64311 10.241125 2.890037)
(-61.861568 15.895422 4.5874587)
(-62.45133 10.162217 2.8882058)
(-61.514473 15.676531 4.5894419)
(-62.224664 10.061712 2.8864065)
(-61.14077 15.387714 4.5874981)
(-61.855974 9.8694677 2.8811991)
(-60.582469 14.827278 4.5755696)
(-61.078868 9.3306707 2.8648544)
(-59.427917 13.310802 4.5340817)
(-62.849054 10.381416 3.4898377)
(-62.182172 16.522108 5.4143284)
(-62.619975 10.305164 3.4890915)
(-61.714497 16.305049 5.4167531)
(-62.424285 10.233709 3.4889709)
(-61.3678 16.105195 5.4165643)
(-62.191659 10.141671 3.4889523)
(-60.990386 15.838607 5.4123301)
(-61.810527 9.9640327 3.4872352)
(-60.423693 15.311362 5.3956054)
(-61.00132 9.4662261 3.4774626)
(-59.250749 13.853165 5.3374376)
(-62.77631 10.411673 4.2785366)
(-61.985599 16.878342 6.4603422)
(-62.544896 10.346049 4.2763632)
(-61.537841 16.683685 6.453166)
(-62.347358 10.283612 4.2750352)
(-61.19554 16.503895 6.4451027)
(-62.111795 10.202777 4.2738343)
(-60.818797 16.262355 6.4316064)
(-61.7232 10.046254 4.2708838)
(-60.249823 15.775484 6.397889)
(-60.886396 9.6028466 4.2583056)
(-59.073749 14.390525 6.2919697)
(-62.611644 10.417655 5.0374112)
(-61.706822 17.174731 7.4748606)
(-62.379539 10.364292 5.0375432)
(-61.289845 17.004834 7.4628525)
(-62.181893 10.312541 5.0383527)
(-60.95359 16.845922 7.451158)
(-61.9454 10.24473 5.0399164)
(-60.582327 16.630721 7.433662)
(-61.552799 10.111798 5.0420252)
(-60.016648 16.187383 7.3921514)
(-60.69624 9.7279063 5.040233)
(-58.840073 14.892515 7.2626295)
(-62.282535 10.343605 5.9215537)
(-61.291493 17.271734 8.5869243)
(-62.053639 10.301324 5.9213143)
(-60.900561 17.127343 8.567089)
(-61.858866 10.259339 5.921867)
(-60.576188 16.990012 8.5494657)
(-61.625295 10.20366 5.9232275)
(-60.2161 16.802349 8.5250775)
(-61.235775 10.093956 5.9253658)
(-59.663257 16.408297 8.4713093)
(-60.378833 9.7744259 5.9237552)
(-58.504457 15.23242 8.3091481)
(-61.766817 10.212522 6.722178)
(-60.712369 17.206702 9.5771108)
(-61.545222 10.182371 6.7238103)
(-60.336664 17.090154 9.5552732)
(-61.35625 10.151164 6.7262234)
(-60.02989 16.976174 9.5363775)
(-61.129323 10.10883 6.7300193)
(-59.683381 16.818388 9.5109394)
(-60.749319 10.023188 6.7365223)
(-59.147126 16.479334 9.455817)
(-59.908911 9.7668814 6.7446716)
(-58.010869 15.440121 9.2884734)
(-60.967121 9.9229319 7.4637058)
(-59.870094 16.799164 10.396388)
(-60.759718 9.9030037 7.4655182)
(-59.523191 16.70863 10.372814)
(-60.582506 9.8812973 7.4684132)
(-59.235187 16.618111 10.352827)
(-60.369304 9.8508872 7.4728683)
(-58.910079 16.490879 10.326709)
(-60.01105 9.7876057 7.4805922)
(-58.398394 16.21127 10.271963)
(-59.215642 9.5934797 7.4916362)
(-57.300758 15.331843 10.107599)
(-59.89623 9.513993 7.9122335)
(-58.76103 16.125442 10.832963)
(-59.707126 9.5027775 7.9152969)
(-58.45078 16.055068 10.811508)
(-59.545421 9.4883086 7.9190217)
(-58.189148 15.984024 10.793286)
(-59.350424 9.4672233 7.9246365)
(-57.885432 15.883612 10.770206)
(-59.021614 9.4208504 7.9342522)
(-57.404503 15.657717 10.722707)
(-58.293698 9.2778012 7.95028)
(-56.357999 14.933176 10.580747)
(-58.552129 8.9507849 8.1026257)
(-57.416697 15.185069 10.861489)
(-58.387191 8.9452422 8.1039703)
(-57.149403 15.130849 10.840673)
(-58.24532 8.9365476 8.1067206)
(-56.921535 15.075969 10.823541)
(-58.073507 8.9227186 8.1113359)
(-56.650056 14.998328 10.802498)
(-57.782632 8.8894185 8.1195431)
(-56.204529 14.821066 10.760895)
(-57.145639 8.7878918 8.133836)
(-55.241621 14.245546 10.640545)
(-57.168557 8.3529813 7.8471171)
(-56.001064 14.170622 10.40757)
(-57.02715 8.3505854 7.8463322)
(-55.775431 14.12883 10.389935)
(-56.904409 8.3462268 7.8477853)
(-55.580709 14.086715 10.37614)
(-56.754932 8.3378765 7.8511669)
(-55.344817 14.026904 10.35963)
(-56.500866 8.3152079 7.8579731)
(-54.942205 13.890549 10.327545)
(-55.951026 8.2444791 7.8709121)
(-54.044732 13.445543 10.23508)
(-55.979929 7.8329312 7.3915938)
(-54.696723 13.304789 9.6912764)
(-55.856587 7.8325035 7.3897621)
(-54.50078 13.273333 9.6769958)
(-55.748323 7.8312117 7.3904341)
(-54.330162 13.242068 9.666375)
(-55.615499 7.8267676 7.3930124)
(-54.121889 13.196328 9.6540934)
(-55.388841 7.8119987 7.3987023)
(-53.763353 13.089261 9.6304217)
(-54.905191 7.7641189 7.4099031)
(-52.966254 12.73733 9.5624477)
(-54.971783 7.4406013 6.7163557)
(-53.590163 12.607811 8.7881077)
(-54.862754 7.4426246 6.7150286)
(-53.418499 12.584723 8.7773948)
(-54.765987 7.4442969 6.7161705)
(-53.267387 12.562297 8.7699648)
(-54.646262 7.4437315 6.7193599)
(-53.081408 12.52831 8.7618012)
(-54.441036 7.4370096 6.7261965)
(-52.759661 12.445315 8.7458864)
(-54.008771 7.410378 6.7402473)
(-52.051243 12.166157 8.6983938)
(-54.153661 7.0788779 6.0097938)
(-52.695109 12.00478 7.8064593)
(-54.055475 7.0854161 6.0102579)
(-52.543589 11.990511 7.7998019)
(-53.967507 7.0911073 6.0131136)
(-52.409159 11.977339 7.7962915)
(-53.857633 7.0960724 6.0181658)
(-52.242102 11.955968 7.7928221)
(-53.668561 7.1004932 6.0280605)
(-51.951318 11.898789 7.7853958)
(-53.274482 7.0983837 6.0482661)
(-51.310161 11.686327 7.7581284)
(-53.492262 6.8187343 5.1413361)
(-52.014298 11.538172 6.6537278)