/*--------------------------------*- C++ -*----------------------------------*\
| =========                 |                                                 |
| \\      /  F ield         | OpenFOAM: The Open Source CFD Toolbox           |
|  \\    /   O peration     | Version:  2206                                  |
|   \\  /    A nd           | Website:  www.openfoam.com                      |
|    \\/     M anipulation  |                                                 |
\*---------------------------------------------------------------------------*/
FoamFile
{
    version     2.0;
    format      ascii;
    arch        "LSB;label=32;scalar=64";
    class       volScalarField;
    location    "140";
    object      epsilon;
}
// * * * * * * * * * * * * * * * * * * * * * * * * * * * * * * * * * * * * * //

dimensions      [0 2 -3 0 0 0 0];

internalField   nonuniform List<scalar> 
184166
(
6.70521
3.15949
2.77122
6.85635
4.60544
4.30544
2.28753
3.72608
6.87175
5.56482
6.68178
3.15008
3.22717
4.46622
4.87271
5.51875
5.93722
4.80545
3.02659
5.34631
2.9436
2.93631
3.9726
5.28252
5.07372
5.0962
4.77046
5.43881
4.93207
3.05913
5.3299
2.16331
8.99513
5.79733
5.71386
3.32533
3.02113
5.44126
3.77152
2.55251
4.98399
3.27447
4.96105
5.50349
5.76543
4.84356
2.42451
4.7879
5.05246
4.92901
2.2742
2.15966
2.47081
5.01593
5.49731
4.34325
5.26488
5.5046
6.39579
3.82349
2.976
3.87604
6.12345
6.60433
7.15376
2.1474
2.64094
5.39377
2.2248
5.48577
2.74631
5.53893
5.65085
5.82848
3.35131
4.9271
4.06152
5.73728
3.58717
2.40647
2.32414
3.30029
5.55177
6.26092
5.24419
6.91664
3.53831
2.81957
4.39821
3.05617
2.07137
4.54327
5.39435
7.61138
4.51593
3.09503
5.50109
2.14016
2.89583
5.3983
3.13312
3.07162
5.48159
4.99948
2.13248
3.95437
5.39669
4.4389
2.15065
3.16049
2.55433
5.7869
2.05515
2.77516
5.23194
4.76475
3.77298
2.77949
2.27757
2.78261
5.99929
3.07614
5.12749
4.8638
4.77111
4.50843
5.21491
4.99424
5.48784
5.26719
2.92544
4.96
4.17436
4.31991
3.3993
3.22489
3.30614
4.08634
4.47126
2.66786
4.18598
2.27287
2.3181
3.06584
3.93617
5.41459
2.79108
4.88942
6.50074
7.39325
5.62802
6.2829
5.32986
5.80743
5.91012
7.11553
5.26964
6.2839
6.85888
2.53087
2.10109
2.43489
4.819
3.64086
3.66337
5.17641
5.07824
5.22682
2.1287
5.1395
5.10871
3.69943
3.82109
6.26648
4.91365
2.39872
2.62044
6.59902
5.54823
4.17628
2.09405
5.05813
4.3612
5.10322
5.44421
3.72662
5.13463
6.49679
2.16295
5.55232
4.62231
5.57319
4.0676
2.12618
7.45401
5.26065
4.89678
6.57863
6.90817
5.14536
5.65625
4.93374
2.16549
4.74729
2.39338
5.80419
3.26373
3.03643
3.7895
4.75733
7.52785
5.2301
3.39312
4.79234
3.05231
3.91163
5.04555
5.03876
2.24591
2.18431
3.15572
3.61676
3.97719
5.14514
2.30417
3.10979
3.21385
5.44212
5.00708
7.50202
7.47793
2.8468
3.99001
5.5386
5.61412
4.19368
5.82992
5.66786
5.66124
2.14565
2.05615
5.49518
3.07568
5.29556
2.45976
4.90613
4.8876
3.23663
6.15769
6.12271
4.32966
7.04422
5.53068
3.06876
4.21474
5.67434
4.52782
5.00861
5.05582
4.16023
4.42556
2.6616
5.39003
3.394
5.43309
4.89178
5.25538
2.88179
5.05585
4.45208
4.93909
2.33535
4.12826
5.37173
3.10819
4.54064
2.08134
4.30205
3.61461
4.33198
2.94389
10.0538
4.29124
5.03949
2.58995
3.20853
8.26339
6.25152
4.63978
5.9787
4.92458
4.74741
4.90299
5.62299
6.76836
4.87176
4.31646
7.36353
4.99707
6.24763
4.88769
4.0733
2.35919
5.03821
6.96587
4.09645
4.77258
6.28746
2.71352
2.09937
4.96211
5.5761
5.37107
5.32111
5.7321
4.40033
4.23703
4.70357
4.59294
4.63253
3.0527
3.32339
3.68881
5.13377
4.79117
2.10549
4.9897
4.21027
2.88369
4.94922
5.6143
2.57181
2.48695
5.31682
2.24884
4.99606
4.334
3.75949
5.23391
3.96158
4.57053
7.48091
7.36654
6.21255
5.46976
5.86641
2.77262
2.21977
3.7181
2.28422
2.27471
5.11417
6.24961
2.67771
3.08083
5.42692
5.29594
4.10666
5.32142
5.47244
3.6231
2.13298
5.38273
2.86138
5.29111
5.13185
2.13066
2.89133
2.7752
2.04546
2.10234
6.59278
7.7869
5.70332
6.18511
5.94586
5.5932
4.90953
2.96777
4.57201
4.78706
4.86039
5.1498
5.36518
4.65754
5.65297
5.43391
3.46635
3.80425
3.92301
4.54383
5.07749
5.0955
2.10063
3.91962
2.10184
6.07425
4.13476
3.57688
4.71659
6.17206
4.68538
7.6105
5.85026
2.48836
4.56367
5.58281
5.54606
4.56701
3.13726
4.504
3.6215
3.69244
3.40378
3.37137
3.11245
5.20057
2.69963
2.59938
2.48671
8.1007
4.01094
4.05826
4.02866
3.78292
2.12242
2.2185
2.2675
2.86256
2.78565
2.88889
2.32062
8.5446
7.02249
7.99211
7.88651
6.75728
7.69875
5.19641
5.1401
5.36745
5.33512
6.21619
5.84714
6.04089
5.59361
8.00841
8.64874
5.07089
5.20902
4.86933
4.89371
4.93177
5.07503
4.6009
5.15122
4.88706
4.83093
4.928
6.09736
6.15998
2.25961
2.16588
2.13917
2.12205
2.40254
2.09622
2.24499
5.17091
5.45699
5.57693
5.79443
6.59608
5.78161
4.06511
3.42769
3.8344
7.4545
5.49669
4.9824
5.25114
4.99426
2.09016
2.0356
3.20673
3.31777
3.19596
3.05363
2.97675
3.0438
4.63672
4.68123
4.40006
4.59821
4.30201
5.76842
5.51407
5.49862
5.65405
5.87777
5.6883
5.66107
6.10919
5.2736
5.29916
5.12541
6.05351
5.31839
3.03486
5.49556
6.41388
2.05128
2.10219
2.04739
5.36451
6.0272
5.71582
5.241
5.46519
5.34577
5.54222
5.57352
6.08498
4.83513
5.0897
5.21009
5.1426
5.81915
5.87911
6.41546
6.27633
8.19235
6.99423
8.30403
6.53583
5.92613
6.12507
6.15568
7.82135
9.53115
8.87629
7.23662
8.05373
5.41122
5.27619
5.3031
5.07843
2.40752
4.02661
3.61843
3.36144
3.96394
3.60799
3.88891
3.92577
3.43908
3.73526
3.16144
2.905
5.7288
5.61214
5.75338
5.68603
5.52785
5.60672
5.55296
5.55591
5.2083
4.85682
4.31805
4.19758
4.35475
4.58422
5.37554
8.9941
2.27281
2.64425
2.11675
2.10499
2.16117
2.11908
5.81375
5.84671
6.02944
6.06347
6.35448
6.23222
5.78476
6.38191
5.24012
5.40193
5.6235
6.1804
5.87885
2.09238
4.36651
4.09191
4.01629
6.27396
5.67367
5.63453
5.56223
6.35828
5.69385
5.71613
5.62939
6.65182
6.08628
6.82396
3.00126
3.3407
4.39962
3.64382
5.50659
5.66164
5.67753
5.57667
5.98347
5.60971
5.98831
5.78592
4.57263
5.11978
4.84964
5.13515
5.56659
5.79586
6.11889
4.71807
4.48947
4.44861
4.28715
4.18298
6.03109
5.97763
5.18965
5.2237
5.59145
7.85303
6.00851
3.86964
5.53587
5.74393
6.99108
5.70668
5.52348
5.78797
7.04307
5.84802
5.6655
2.27867
2.56645
5.50563
6.92219
7.7402
6.73135
4.38634
7.35473
6.45428
7.08802
6.96124
6.3064
6.91263
2.11806
6.23402
6.45569
6.2129
6.26339
3.49077
7.40013
8.07242
6.91472
8.46784
7.02394
8.27866
2.49887
2.08307
2.11203
2.32017
2.32136
2.11588
4.10126
2.67376
2.92906
8.19367
6.81664
7.52114
3.70896
3.35667
3.70305
3.50162
3.35869
3.51599
5.39917
6.44627
5.40357
5.22186
6.37179
7.40227
3.76609
3.70227
5.72451
4.8885
4.32988
4.44385
2.7893
4.13036
5.25654
5.23284
4.12315
4.34056
4.18545
3.3773
3.19442
3.37571
3.1987
3.44938
4.4204
5.36841
5.20821
5.26534
4.39088
4.82524
4.27917
4.38495
4.58057
3.48136
3.97746
4.17514
4.91521
5.13668
5.3264
5.23529
4.02382
4.08683
3.09706
3.35486
3.42495
5.76726
4.94645
5.70106
5.97331
3.22477
4.48821
2.12241
2.12535
2.10812
5.23364
3.53531
3.70773
3.37604
5.46545
4.58539
4.95376
4.64282
4.1311
4.16628
4.2022
4.15117
4.87145
4.11809
4.90392
4.36206
3.10081
2.98063
3.10833
3.03273
2.97619
3.00418
2.93643
2.90833
2.88432
4.31924
3.79783
3.03595
3.08858
2.9738
4.7383
4.44383
4.75081
4.61942
5.10162
5.26054
5.1889
5.95191
4.52343
4.45525
4.16087
2.99061
3.18134
2.10428
2.10958
2.12372
2.11414
3.90285
3.20672
3.17208
3.12001
3.27408
3.3418
4.65389
4.81099
5.52645
5.16584
5.31858
5.6136
4.19669
4.24293
4.41928
3.10087
2.97211
2.9455
2.95365
2.94905
2.12802
2.16882
5.67544
5.45466
2.17003
2.28276
2.17286
2.14328
5.4492
2.31517
2.77747
2.34041
2.51902
3.16583
3.40175
3.42227
3.22551
7.33648
4.69874
4.81841
4.56094
4.3879
4.68252
4.98118
5.33411
3.77961
3.54255
4.06115
3.64976
3.75362
3.07798
8.12363
8.65368
9.2385
8.02821
7.02662
7.01106
4.63258
4.04762
4.21119
4.62475
2.01967
1.97364
6.60488
4.81834
4.01288
4.8025
4.07058
4.5784
2.00113
1.97807
8.18445
8.35205
5.682
5.89627
5.87955
2.84978
5.04972
3.45912
4.70013
2.13746
2.17761
5.30337
5.47813
5.05163
5.27682
5.10055
5.14275
2.24095
2.53581
3.35538
3.15907
4.98949
5.7587
4.8031
5.25212
2.41672
2.40015
5.67334
5.53035
4.8224
4.89959
4.82975
4.52568
4.72476
4.86512
5.54203
5.35633
5.41733
2.72029
3.50288
2.96728
4.30287
4.32701
4.80635
4.59705
6.96697
6.20441
5.37966
5.53732
5.92549
5.92731
5.64143
5.66801
5.50365
5.89501
5.66234
5.44186
5.49623
5.28299
6.11691
4.71524
4.37009
3.70473
3.85592
3.40379
3.13388
3.10226
3.20725
3.02077
3.16887
4.05722
6.38547
5.39581
5.076
5.1751
4.60718
6.05869
6.03355
5.25598
4.55453
4.93909
3.7112
4.96322
5.07724
4.93966
4.90465
2.46049
2.36039
2.5775
2.48495
2.3561
4.94356
5.33516
5.17038
8.56599
8.72686
5.55685
5.64791
6.43144
6.43061
6.23042
8.41665
6.56526
5.28595
5.23959
3.63573
3.83549
3.39978
4.56136
4.22947
4.62665
4.86258
4.89275
5.78085
5.55194
5.40289
5.47845
5.65621
6.94868
7.67401
6.64029
9.40714
4.36923
4.24745
4.12658
3.41124
3.73068
3.74689
3.94164
3.39339
5.07863
5.14485
5.23195
5.17056
2.52683
2.77514
2.52536
2.48915
3.89821
3.76261
6.41923
7.37134
5.73828
5.39932
9.31852
8.54989
5.64797
5.24083
5.8639
6.05241
2.32723
2.11286
2.08556
2.01603
4.95975
5.07862
4.98027
4.9529
4.45836
4.40381
4.50211
6.58696
6.46855
6.44347
6.2754
6.25725
6.37905
3.55717
3.16124
3.38491
2.987
3.82861
4.08727
4.0901
4.17166
6.31044
5.96354
6.1117
5.51986
5.98977
4.48445
4.20592
5.78883
4.77267
3.8334
4.03412
3.35934
3.41986
3.87529
5.17596
5.13502
9.39719
5.59979
5.68972
5.93631
5.82355
2.28575
2.06968
2.06833
2.99904
2.97016
3.91059
3.73883
3.95425
3.88287
4.33315
4.12729
2.74095
2.25069
3.1935
4.08576
4.35463
5.33637
5.33541
6.98927
5.65525
5.7245
2.13427
2.13743
2.14489
8.88683
8.80187
6.84105
6.81562
2.16818
2.1416
4.75333
4.84017
4.21808
3.1804
3.31411
8.92854
7.83793
5.32873
5.61073
5.26058
2.10746
2.10925
2.10795
2.08718
2.09555
4.35042
6.09466
4.69741
4.55514
4.29014
4.34561
7.74117
4.73313
4.7298
5.20825
4.96448
3.53106
5.39672
5.4165
5.09018
5.15446
2.81392
2.86138
2.80501
2.79923
8.18134
7.61162
5.69858
5.93852
5.57553
5.68057
3.91025
3.85218
3.67994
5.00225
5.18343
4.5296
3.28913
2.50262
2.55554
2.88866
2.43064
3.55405
2.7822
2.53945
3.14887
8.6959
9.01751
6.45522
4.17966
4.67234
4.12679
4.37912
4.94054
5.0725
4.93764
2.15521
2.11928
2.13361
2.18048
5.43708
4.63814
2.6756
2.40549
2.35253
1.96651
1.96458
3.59905
3.85438
3.88306
3.50792
3.65935
5.79052
3.17834
2.76896
2.12949
2.09253
2.15081
2.07616
2.08584
3.49463
3.37205
4.37404
4.32205
4.67981
4.47866
5.1017
5.20196
4.5877
4.81249
4.41093
2.19949
2.45699
3.28652
3.52579
2.56266
2.555
2.55311
5.30984
5.033
5.09966
5.62475
6.22698
5.84646
5.68108
6.07946
6.27588
2.15274
2.52517
2.28741
2.71968
2.67003
3.09296
3.13892
2.40218
2.40633
4.87325
5.38052
5.28842
5.64455
2.21102
2.18277
2.20754
2.2505
4.64539
4.711
4.25145
4.55426
3.64922
4.33569
3.74524
4.15574
8.83362
8.98533
5.3175
4.8096
2.87165
3.96913
3.66451
3.72119
3.41489
2.38983
3.07207
2.85925
3.71567
3.1759
3.32341
2.94006
4.6435
4.57673
4.08494
4.32381
4.2688
4.39476
2.54192
2.70602
4.47981
4.92698
4.20913
4.54424
4.18993
4.53282
4.08991
4.48523
4.9629
4.46373
4.42228
4.12016
6.04376
5.91443
6.32885
6.05234
5.7173
5.90378
3.80426
4.02277
2.15074
2.18486
2.15149
2.24277
2.23392
2.14498
2.17743
2.12318
2.88032
2.85259
2.94044
3.05241
3.04852
4.86041
5.15468
5.12884
4.8352
4.99164
5.50954
5.53273
5.91309
5.56638
3.31279
3.24134
2.10311
2.10119
2.10973
2.12896
2.12294
9.2714
8.24656
3.98313
4.08436
4.18817
7.37723
6.42528
8.31675
6.01109
5.81958
4.03681
5.49111
5.68287
6.59857
6.05842
5.58275
6.12137
5.82557
5.45006
5.36477
5.67951
5.45909
5.41413
5.27123
5.56447
5.49178
4.33444
4.04648
3.68337
5.28249
5.26774
5.53179
5.88006
8.41237
1.98376
4.59459
4.79876
4.83941
4.6971
5.03641
5.15705
5.19179
5.28464
5.36532
2.0244
1.98926
1.98755
2.09266
2.11041
2.11561
2.1008
9.35765
7.58019
7.70096
5.81156
5.36192
4.96715
3.38361
7.32878
7.28379
2.717
3.22939
2.75151
3.13462
3.16787
3.44649
3.47418
3.15685
3.4974
4.36039
4.3106
7.00515
2.13556
5.03316
4.31038
3.79997
2.4591
2.46577
2.49414
3.68324
3.81248
3.53031
3.60307
3.32914
4.63543
4.36215
3.02889
2.94313
2.86357
2.86618
3.02776
2.87364
5.85846
6.36846
6.35036
4.33171
4.53208
4.88662
4.11409
3.85835
5.85324
5.24578
5.37801
4.62112
1.97062
1.94501
6.98544
8.23666
4.55748
4.68308
4.69525
5.10297
4.58153
4.82426
2.09737
2.13733
2.12315
2.13346
2.11264
8.92843
8.02791
1.96363
4.58245
2.99703
2.96945
3.97555
3.25587
3.9935
3.55326
3.13583
7.07101
5.79757
6.60311
8.30731
9.29831
6.81144
3.95804
3.9183
2.11328
2.11382
2.12134
2.1222
2.12304
2.12744
5.03088
2.37067
2.14013
1.94892
2.03486
1.98398
5.38324
5.38742
4.82057
4.23578
3.41789
3.0893
3.51791
2.82688
2.36966
3.05473
2.83652
5.23084
5.12022
5.38433
5.26502
5.12185
5.13332
4.91074
2.20436
2.31628
4.49556
4.49147
4.23766
4.38099
3.99619
4.6884
4.64727
4.73599
3.97491
4.2556
3.20846
3.61297
3.65549
3.14281
3.37499
3.69614
3.37987
3.45379
3.33002
3.61612
3.75842
5.33158
5.22657
5.20579
5.39311
5.26117
2.56278
2.46085
3.1506
2.73812
3.32795
2.98084
5.07181
5.27865
5.24895
5.36418
3.28231
3.63962
3.44466
3.65918
3.39559
3.08554
3.23702
2.12641
2.12673
9.47071
10.3038
4.81955
4.71014
4.75458
4.4179
2.06043
2.018
1.95127
2.06197
2.01465
5.43033
5.41992
4.79062
4.66721
4.59575
4.06726
4.18805
3.80416
2.77841
2.88218
2.72593
2.7679
2.10012
2.0987
2.1002
2.10359
4.27335
4.84359
4.89835
4.75643
3.92691
4.07438
3.54613
6.42782
7.23817
8.98762
6.62691
8.22147
8.35192
2.32876
2.70799
2.23154
2.38153
4.60093
4.72882
4.75562
4.72029
4.5569
2.12665
2.11692
2.11969
9.63261
9.44266
4.22029
3.95068
3.91178
2.67158
3.24414
3.33262
2.74133
5.7286
5.79409
5.78663
5.95983
5.84887
5.8395
4.57078
4.77187
4.86163
4.48835
9.47186
10.8661
3.23496
3.50738
2.77288
9.54364
4.96107
4.80867
4.15191
3.13149
9.23847
4.82599
4.87578
1.99037
2.61588
2.46929
2.5303
2.59934
2.47232
2.47507
2.15085
2.13995
2.37494
2.21241
2.58997
2.72138
2.59004
2.65201
2.5909
2.72568
2.58834
2.66726
3.58757
3.23738
4.48962
9.26185
10.402
3.66742
2.14374
2.10146
2.10703
2.11063
6.0958
5.03699
5.05776
7.90513
6.63342
4.21732
3.18146
5.58717
5.44638
5.97947
2.76054
2.69821
2.38205
2.3569
4.12227
4.31153
4.87759
4.92582
5.30438
6.08839
4.81297
4.88691
7.98554
7.75626
9.13261
3.89416
4.70137
4.56555
3.71757
4.24279
5.92494
5.72496
5.58151
6.26575
7.82404
2.03637
1.95229
4.78356
4.94767
5.04228
5.04945
4.79226
4.8778
4.72404
4.88582
4.6488
4.71565
4.89191
4.94975
4.76394
4.8907
4.80485
4.88471
5.85012
5.67827
5.86106
5.76965
1.93287
1.89553
2.00251
2.08162
4.39014
4.35451
5.97344
6.10849
5.79425
4.14097
4.15578
4.20425
5.55184
5.29925
5.36748
5.41074
5.57206
4.06449
4.38083
3.64927
3.78603
3.43755
3.4616
2.9401
2.8932
2.93305
3.22237
4.11277
4.39331
4.88002
4.87802
10.1602
10.21
2.14712
2.14313
5.24067
5.27892
3.01616
2.9269
2.8993
2.82
2.92019
2.91616
2.44731
2.31275
2.50297
2.16673
2.20461
2.36141
2.14767
4.13239
3.99453
4.05665
3.84421
4.57822
4.50916
4.23818
4.41474
4.24506
4.33948
5.61565
5.74569
5.87398
5.63189
5.8491
4.97961
5.22133
3.57187
3.27766
3.27687
3.90584
4.635
4.74448
4.75461
3.81133
3.57903
1.9551
1.88092
2.9685
3.15719
3.95313
2.19088
2.11973
2.12327
2.38285
2.25462
5.20181
5.33118
5.24464
5.06668
5.1662
5.52537
6.02333
2.21261
2.37383
2.23817
2.27759
2.44502
2.12986
2.53651
2.79664
2.90294
2.5981
2.14755
2.1265
2.01304
6.37483
6.27884
6.35978
5.968
6.493
4.39863
4.16074
3.33357
4.591
4.67776
4.50216
4.47673
2.52661
3.20858
2.82417
2.86087
2.54709
2.57478
2.33063
2.87731
2.74431
2.26981
2.35409
10.0274
9.26815
5.73042
5.70492
5.6371
4.55009
3.40424
4.10753
7.63007
9.51834
8.18734
5.15054
4.98343
5.08208
3.39818
3.13094
2.46658
2.33258
3.02425
2.45329
4.14707
4.38355
4.07245
4.54655
3.93487
4.01703
3.79677
3.57621
3.55773
2.49357
2.30435
2.42615
3.61645
5.00896
3.6286
4.31719
5.17034
4.89787
4.26174
4.90365
4.37161
6.51355
7.9055
5.77127
3.86527
3.98546
4.29375
4.42224
2.08421
2.15055
2.24001
2.22409
5.26272
5.04039
2.10143
2.09816
5.16583
4.48556
4.80812
8.8488
1.89321
1.92081
1.9876
2.25225
2.08732
2.11931
3.18288
2.9681
4.76203
4.70854
4.46976
4.37335
2.89248
3.01733
3.54056
1.91839
3.22602
3.04349
2.86413
3.16468
2.92829
2.86316
3.26216
3.06264
3.21771
2.94776
3.11113
3.1019
3.53634
5.71055
5.57138
2.17535
2.27325
2.07666
4.63516
4.51206
4.5515
4.23976
4.18453
4.08736
7.48515
5.99943
4.15762
4.52088
4.35287
5.09961
3.52617
4.01231
3.82108
3.67938
3.94524
2.93712
2.92976
2.95845
3.00065
2.98889
3.93074
3.68213
3.65827
3.93072
3.81388
3.89589
3.75328
4.01968
3.98336
3.97865
3.8744
4.7891
4.68459
4.84651
4.78439
4.68898
5.92249
5.69281
5.80763
5.77795
5.85758
3.56958
3.77724
3.54761
3.86568
3.75948
5.61977
5.32783
2.02763
2.71942
2.98803
3.09479
4.28894
4.09212
2.46455
2.31427
2.31635
7.29206
6.39175
7.63217
9.79481
5.62654
5.43027
6.53341
6.56793
5.76691
6.34368
6.43303
6.08254
3.32531
3.62037
5.04595
5.02416
5.03533
5.10035
3.17318
2.91526
2.54078
3.72527
2.42294
3.05143
3.1729
2.73625
6.69709
8.16946
7.28807
11.0037
2.50196
2.80537
2.9076
3.70309
3.74117
3.26697
3.22372
4.20802
4.13019
15.9651
7.37856
6.42846
5.68108
5.79084
3.89319
4.32024
3.63315
3.0642
4.4254
4.56272
4.52567
4.58874
5.09691
5.14123
5.0281
5.02187
5.03481
5.24564
5.12003
5.02689
5.15501
3.03718
2.9325
4.24757
2.41282
2.43665
3.00621
2.83024
4.28817
3.98665
4.19598
4.32262
4.05816
3.86111
4.23744
4.39164
4.57934
4.20704
4.71934
6.02623
8.71624
10.5863
3.78621
3.80493
4.11507
3.96075
4.12655
4.02023
5.40743
5.30701
5.15074
5.11886
5.27421
5.15245
8.13822
6.36789
9.83305
8.20829
5.68728
5.33004
5.14229
5.23982
5.13853
5.75149
6.01531
4.36047
4.48754
4.47267
3.05866
2.39971
4.00848
4.2408
4.59494
4.61837
4.42948
4.31225
4.3923
3.02001
2.88774
2.91243
3.10903
3.04144
3.73423
3.52276
3.54761
3.84975
3.74465
2.21628
2.15529
2.22817
2.27603
2.16013
2.14225
2.75158
2.18953
2.21408
2.35355
2.38018
2.25535
12.708
4.80183
4.81059
4.88761
4.8929
4.89207
1.88798
5.2141
5.27576
5.31271
5.23112
5.24279
3.98572
4.18448
4.10593
4.16168
4.05084
3.8992
3.54572
4.15009
3.84099
3.89172
2.9585
3.31498
4.12896
3.79034
2.07515
2.10331
2.23405
2.34013
2.09872
2.19344
3.01372
2.86461
2.70664
2.46869
2.57461
2.42438
5.33375
5.14411
2.0407
1.97046
1.97773
2.08258
2.09814
6.09197
5.76663
5.9418
5.86264
5.74256
5.30598
5.51283
5.3358
5.31843
5.53728
5.76764
5.63478
4.53375
4.43722
4.37536
3.74639
3.90386
3.97612
2.30747
2.20465
9.28589
10.0751
11.8377
5.77338
6.20688
1.93658
1.89927
2.97226
2.64772
2.53395
2.9377
2.33842
2.34731
4.64273
4.59409
4.67202
4.75045
4.74439
4.06128
4.16143
4.60234
4.42599
4.45775
4.74272
4.66873
7.7843
6.53935
5.75554
5.99173
7.21122
12.0447
17.7858
2.93976
2.87187
2.70957
2.75705
2.65232
5.4363
6.85485
5.78962
9.54752
11.0143
11.3696
2.76488
2.96405
2.99768
3.25481
3.20416
3.02035
2.90631
3.06104
3.35633
3.15413
2.97048
2.95813
3.00277
2.92066
2.90531
2.9964
2.93775
3.85649
3.89986
3.85261
3.75535
3.76736
3.74908
3.80007
3.72915
4.11347
4.33384
4.73036
5.70919
7.51196
8.61008
7.19101
5.43152
5.84396
4.53158
4.57629
4.93412
4.78852
4.15031
4.30323
4.04063
3.57617
3.53502
3.49195
3.85346
4.02668
3.94866
5.27317
5.38897
5.31543
5.4518
5.30886
5.35458
5.00512
5.13932
4.70959
5.01367
4.65155
5.78001
5.48747
6.32329
6.37297
5.67234
2.08504
2.05595
2.01223
4.52128
4.45556
4.72981
4.58612
4.65786
4.99706
4.40845
4.43122
2.01364
2.06258
5.06719
4.98425
4.92018
4.94318
2.00088
2.04245
1.91283
4.25978
4.35987
4.97134
5.04889
5.07926
9.77986
8.91137
4.967
5.08492
5.08339
5.0748
5.00281
2.65271
2.3412
3.16052
2.58827
2.76671
3.4388
2.95826
3.81055
3.63777
3.71269
4.3613
3.86557
4.96213
6.70001
8.43532
2.35508
2.38928
2.26421
2.70113
2.68742
2.92849
2.92389
3.45567
3.01149
2.93236
2.99337
2.93697
2.9131
9.18577
10.4795
13.4787
5.51034
5.71772
7.89106
3.81024
3.76062
3.67809
3.61064
3.85386
3.8904
2.09846
2.12284
2.14352
2.10987
2.09823
2.10453
3.4643
3.09095
3.25123
3.53971
2.85398
2.77736
4.2905
4.25388
4.03469
4.10012
4.09484
4.20944
7.27131
8.95934
7.96011
4.55376
4.29385
3.27043
2.06403
2.13572
2.06208
2.09254
2.0995
2.14654
4.21906
4.14116
4.81023
5.19054
5.25034
4.41286
4.3524
2.23183
2.27898
2.51326
2.39071
2.6216
2.59447
2.33343
2.90831
3.79588
3.26667
2.62879
2.2693
2.21797
2.57339
2.33095
1.90166
1.91106
3.15368
3.09578
2.80835
2.75305
2.66284
4.56265
4.70809
4.61167
4.72424
4.88789
5.09001
5.18362
5.24362
5.66158
5.0672
5.22568
5.65981
5.71999
5.76495
5.57002
5.74441
4.38984
4.28043
3.77236
3.89841
4.2374
3.90911
2.96625
2.97131
3.95685
3.96764
4.13375
4.0387
5.20826
5.20497
5.28787
5.56158
5.27178
2.76727
2.90859
2.59914
2.58467
2.68259
2.84005
4.95833
4.56375
4.8171
4.61354
4.10974
4.38077
4.30446
4.15459
4.8637
5.10239
3.23779
3.58538
3.64552
2.6376
2.54763
2.89899
3.04859
2.90441
3.97772
3.80979
3.0698
3.78107
2.91951
3.20756
3.41572
5.23833
5.20079
5.16547
4.98992
5.24131
5.33415
3.04496
2.552
2.74217
5.17205
4.5465
4.83534
5.17488
5.40755
5.34561
5.32843
5.22221
5.88371
5.81227
5.68068
5.84839
5.68715
5.61103
5.46258
5.396
5.33149
5.44817
2.58777
2.30073
2.14433
2.2468
2.14555
4.06594
4.27869
4.41903
5.62499
5.54131
5.47643
3.20609
3.26939
5.0035
4.66683
4.56375
4.8304
5.07581
2.01046
2.03597
2.06624
2.00999
2.06866
2.10166
2.09727
3.43088
3.53177
3.70437
3.56988
3.70684
5.13734
5.18208
5.80483
5.63541
5.60338
5.86207
5.87574
9.68544
4.1405
4.04512
3.98828
4.09974
3.88296
3.87456
3.39254
3.30104
3.90729
3.71878
5.27696
5.58264
5.78415
6.36621
4.01963
4.06947
3.96423
4.17718
3.91754
4.41184
4.33006
4.27799
4.07888
3.32638
3.13866
3.30815
3.33952
3.66892
3.16066
3.04852
2.91809
3.89615
3.75512
3.61836
4.01861
3.71325
5.98836
6.44254
7.71134
7.20246
6.2033
10.0907
11.8987
3.55927
3.7013
3.5279
5.59546
5.69815
5.5482
3.23126
2.91949
3.42158
3.77279
3.20156
2.97803
3.13851
2.73764
2.80745
2.71835
2.64299
2.80614
2.63867
2.77375
2.6792
2.76509
2.6803
2.74872
2.81393
3.64539
3.96624
3.70072
3.87647
3.92482
3.76689
5.64716
5.76609
5.60979
5.67136
5.56704
5.55346
5.48613
11.5625
13.7451
6.34712
7.1295
8.29814
6.38192
7.68707
2.77227
2.64324
2.72771
2.62473
2.69801
2.91557
3.00905
3.19613
2.9854
3.30438
3.24073
3.66818
3.63097
3.98191
3.99135
4.42633
4.08192
4.33606
4.35034
4.12422
4.25917
4.43249
4.3571
2.98905
3.08387
2.79227
2.75001
2.65149
2.62753
2.70292
3.75949
3.43451
3.6548
2.81799
2.77778
2.92413
3.1777
3.12777
2.99775
2.97705
3.10713
2.79544
2.70348
2.76618
7.22199
5.47157
6.99802
5.88409
10.9796
11.9334
3.5672
3.43183
3.29099
3.54722
3.38802
4.03031
3.8146
4.08471
3.83715
3.98947
4.23554
4.11794
4.2391
4.12414
4.0144
4.03688
4.46998
3.8373
4.17367
3.89176
3.72662
7.18004
8.01682
4.00902
4.02118
2.37604
2.31645
2.21694
2.1881
4.70048
4.735
3.11853
3.2116
4.11468
3.608
3.48308
4.1238
7.36582
6.79692
4.83672
4.93881
6.03396
5.76841
5.91505
5.81393
5.75231
5.59057
5.49457
5.64312
5.61256
5.58479
4.79605
4.53781
4.38652
6.00677
6.87552
11.5424
12.1026
4.60365
4.44626
4.66891
2.58769
2.12754
2.29254
2.26822
2.0699
2.1034
7.80447
6.52284
5.31138
8.44356
5.21472
6.74009
2.63994
2.52643
3.01814
4.16362
4.42588
4.19985
4.33907
4.39435
4.28737
4.99958
4.64149
4.84621
3.07194
3.33744
3.82898
4.16702
4.11132
3.75456
3.92438
4.30621
4.36846
4.05326
4.0047
4.18375
3.43187
3.30224
3.61424
6.33529
5.48984
6.2292
5.15427
4.91042
2.22852
2.10918
2.13672
2.1178
2.18846
2.15689
2.15215
2.05629
1.97218
2.0926
2.04348
2.08353
5.37524
5.51767
5.55222
6.12885
4.61716
4.72716
4.28493
2.67587
2.6701
2.7381
3.36855
3.47085
3.67495
5.64646
5.84314
5.75021
5.60937
5.55583
5.57693
5.62728
7.1218
6.477
2.07409
9.09827
7.06027
8.70392
2.2619
2.1341
2.53707
2.39971
2.28462
5.45727
5.63909
4.62439
4.87619
4.56663
2.12849
2.14761
3.0085
2.43927
2.25794
2.18913
5.05543
4.90972
4.9651
4.94889
2.48252
2.49291
3.64672
3.50945
3.41329
4.38493
3.98492
3.86762
5.26389
4.93222
3.41101
3.24623
3.68769
3.5116
5.62732
5.37932
5.54404
8.37697
13.69
21.3647
11.0145
12.3895
3.12037
4.78017
1.60419
3.03955
2.98973
14.7254
21.2116
4.83121
21.2858
3.69596
19.5164
17.7358
12.1356
12.9198
18.0328
14.0447
14.038
14.2432
15.5
20.723
11.7996
10.7397
12.0999
11.0838
12.9904
14.3454
18.5665
15.3989
2.08918
13.1008
14.5001
10.1609
13.4416
16.1481
14.3244
15.509
16.5395
12.571
13.4453
1.61886
1.74828
11.3029
15.0791
9.76128
2.01573
14.6759
9.34399
15.2042
18.448
17.5612
7.18515
13.9754
14.0474
15.5026
13.8114
12.4008
14.0477
12.9384
14.8702
13.2116
5.40598
5.02991
1.9267
1.79002
2.15794
12.8284
14.607
9.50929
18.0122
13.0586
12.742
14.3218
6.27652
8.69627
4.38419
4.54358
2.96942
2.98817
12.7886
11.1751
12.6151
11.2332
6.9264
10.5675
7.02064
21.5961
15.0568
18.5451
17.4369
13.0019
13.184
14.4684
12.9821
13.8492
12.1606
15.4657
15.798
13.8658
13.1733
14.1413
14.5731
14.809
12.7394
6.04131
7.16738
12.3269
13.1001
11.5748
3.67547
7.26856
10.959
6.86203
3.37794
3.01513
3.35246
1.59571
1.83442
1.55482
15.7794
14.8184
18.1016
16.6776
13.6187
15.3699
15.0388
3.18942
24.0779
18.2095
11.1845
10.7509
10.2468
11.2897
11.4304
11.7259
10.3823
10.9174
10.7369
3.35955
3.51451
12.8838
12.4537
10.8953
15.77
12.4834
15.1504
16.5118
16.276
1.54018
1.77412
13.5864
14.3353
12.5136
12.1575
7.23721
1.46164
2.31663
3.22606
3.03625
3.11439
6.96916
10.7834
6.34107
1.59186
2.08716
2.39304
2.54008
1.73103
2.1658
11.983
13.0561
15.6154
13.4235
16.5162
12.8234
15.1613
14.9362
16.6661
18.7396
7.73126
1.53732
1.76055
1.53114
1.79641
13.9199
12.665
12.8042
16.2277
13.4028
23.8637
18.558
21.154
16.1811
1.5154
1.7064
2.0138
1.88686
2.37483
2.60626
2.10039
2.34633
17.1189
14.3152
2.08624
2.03648
1.57954
1.8764
17.9535
15.2099
2.43612
16.4062
12.1962
13.4215
16.4154
1.79214
1.5032
1.76051
14.2732
3.38071
3.24209
3.54987
19.7967
14.7148
16.316
7.64098
8.36832
1.61284
1.91376
22.2201
17.9497
30.1122
19.9331
21.3222
16.7676
16.4542
20.4431
1.5531
1.82522
1.75813
1.53184
1.79368
1.48842
16.2487
13.6077
18.7927
2.70132
2.86794
4.6292
4.44348
3.84378
4.03714
4.18182
1.49171
1.72993
10.9067
11.4613
11.0576
9.76746
25.6995
14.2823
33.3485
19.5501
16.5033
13.9704
1.68923
1.52322
1.77212
18.0069
21.6007
19.3964
19.5613
1.72787
1.51917
1.75621
2.75181
3.31381
2.95597
2.62958
3.40756
2.72177
1.50516
2.85943
3.52292
2.95238
2.11411
2.48411
2.61782
24.334
16.6736
3.11612
3.1981
13.2783
14.9913
13.4936
16.8753
15.7829
20.0046
4.08345
3.8965
4.26703
24.5953
18.7502
19.389
16.9096
15.9347
1.8635
2.32008
7.50164
12.2966
7.17922
9.6021
18.4386
15.0631
13.4832
15.2396
1.48394
23.4514
16.0091
3.48662
3.37613
3.61359
5.57881
5.13263
6.22301
1.53271
10.7528
13.3503
12.8573
1.51979
1.72359
16.1
18.2144
17.1709
1.4761
1.68554
18.3738
8.5867
9.77258
17.2055
13.5859
16.0984
14.9949
11.6909
13.4943
1.48349
1.6826
1.67827
20.878
1.52715
13.6102
13.798
15.2314
20.9673
18.4981
36.4902
25.4503
1.93106
2.29262
17.5798
14.6521
16.6066
20.9166
2.05141
1.7
26.6093
19.5043
1.44029
1.67365
1.53384
1.74575
1.76091
23.8952
16.1383
18.8195
1.73062
1.46287
1.66192
37.2785
30.5732
23.657
17.7486
17.9454
3.54309
3.57302
1.50632
1.7528
1.71111
18.8536
15.4945
12.0977
30.2274
20.3874
26.1131
16.6548
14.9238
1.69298
1.44156
1.68977
8.1598
6.37066
1.51312
1.79426
1.78102
9.24549
15.3972
13.605
17.3702
22.3111
12.9466
19.0035
20.6153
20.3229
23.4601
14.4326
18.0558
1.58879
1.84207
1.79982
24.0977
16.3222
18.1473
1.80146
2.13408
16.3342
21.2862
7.5232
17.2997
10.4498
1.98129
15.562
13.4712
18.4412
15.6028
16.5306
13.2664
15.7916
14.0192
11.9606
14.4545
1.71026
1.87842
16.6958
7.84663
8.00848
1.6155
1.77736
1.61326
1.76111
6.2493
3.10727
3.22923
2.31897
2.03784
2.23756
5.21806
5.764
5.14708
5.1511
2.2571
4.97761
4.74209
5.9795
3.06915
2.97008
4.93344
5.31135
5.96466
2.70965
4.18645
5.51906
4.37818
4.30927
4.46258
2.87103
3.8884
5.91126
5.69907
5.38183
3.30935
5.01952
4.9342
5.04496
4.61351
4.30837
4.34706
2.13491
6.00138
5.11775
3.31663
2.08204
2.13491
4.03462
5.42063
5.30233
5.33562
5.17184
4.79069
4.86384
5.33452
5.43769
6.2792
3.05733
4.31268
2.10047
5.70076
6.90259
9.05969
3.06997
6.3442
3.3609
3.98016
4.31626
3.74247
4.05045
2.21237
6.8611
2.77339
4.18803
3.25579
6.67943
3.82369
3.5572
2.69937
3.31623
3.58803
3.394
2.55246
2.65264
3.87803
3.15345
2.09917
2.12075
3.64354
2.38278
2.82934
4.88588
3.13313
4.12197
5.08122
4.22469
4.09492
4.1456
3.21977
4.60942
5.29217
5.10576
4.92388
3.15869
2.74746
4.24726
4.2242
6.50914
4.60064
5.04715
5.52433
5.38122
5.59378
2.33499
2.42588
4.75702
3.20914
2.07653
5.09325
4.87264
4.13856
5.19399
5.08029
3.48927
3.64705
5.54786
5.40417
5.64261
5.00452
3.96973
6.38082
5.14634
5.34163
3.20424
5.33483
4.22307
3.32727
2.14975
4.53185
5.36415
4.14288
5.56238
5.38255
4.51143
4.41926
6.57016
3.02282
2.92747
3.03791
8.52363
5.47965
2.18176
7.90653
2.09548
4.00225
3.62587
2.51776
5.62095
5.67418
5.89927
4.60029
6.27574
5.99846
5.77563
5.83447
7.43195
5.10197
6.92785
2.25397
2.28825
3.90586
3.99811
3.69565
3.53892
6.45807
6.22595
5.41788
5.53828
5.8605
5.97733
4.78453
3.77677
2.9377
4.95093
3.96692
5.68105
6.3291
4.89091
6.08561
6.01911
8.82637
4.73394
4.65644
5.36908
2.26899
3.01423
5.25743
5.38386
5.61834
5.46327
5.11
5.24971
2.21497
6.11155
6.23402
6.20365
4.08949
4.4552
4.65829
4.09889
4.50853
4.78992
5.02426
3.95296
8.22509
9.29989
4.49516
8.15161
2.77574
2.94233
2.79485
3.75663
2.15255
7.76463
6.88722
5.87563
3.06468
3.10825
3.27484
3.32446
3.22312
7.70805
9.16786
3.34899
5.98176
4.6773
4.50771
4.2145
4.65246
4.43648
4.49688
3.07272
2.62516
2.61712
2.6857
2.64875
3.8266
4.43454
4.71042
2.61608
3.08723
4.44701
3.40744
3.69914
6.81822
5.58033
5.22278
5.4176
3.07463
4.25761
4.37544
7.31858
4.93026
5.10779
5.24194
5.22831
3.23163
3.39605
2.17022
2.27842
2.32758
3.71407
5.25258
5.5006
5.29399
5.38293
5.06011
5.01988
5.1019
3.57136
3.53462
3.74832
8.53166
6.83815
8.00696
6.70499
4.12717
4.04776
4.60978
5.28902
4.82658
4.98628
4.29955
5.78564
5.18889
8.38487
7.81046
9.80359
2.04595
4.7208
4.25472
4.5497
4.14357
4.41122
2.88506
2.94623
5.23018
5.38175
5.30474
5.6014
5.24751
5.79274
5.31602
5.1796
5.15826
5.39632
4.27226
3.81517
4.01871
3.81282
4.37493
4.25462
5.00781
5.91133
5.76554
5.89132
2.02118
5.34881
3.68082
2.96577
5.20579
5.31484
3.25932
2.81554
6.87991
6.55405
2.30474
5.36976
4.67921
4.28217
3.80073
5.8389
4.54213
4.4539
4.20911
4.85326
3.15579
3.843
4.49518
5.07625
5.06402
5.48584
3.71249
3.92148
3.96657
2.09199
3.57988
3.61575
5.10312
5.50764
5.27158
5.4351
5.27857
5.10503
3.47627
3.28121
3.55113
3.09771
4.73724
5.84582
6.97639
5.33249
5.44468
5.63163
3.7891
4.60453
4.37797
3.58524
5.9948