/*--------------------------------*- C++ -*----------------------------------*\
| =========                 |                                                 |
| \\      /  F ield         | OpenFOAM: The Open Source CFD Toolbox           |
|  \\    /   O peration     | Version:  2206                                  |
|   \\  /    A nd           | Website:  www.openfoam.com                      |
|    \\/     M anipulation  |                                                 |
\*---------------------------------------------------------------------------*/
FoamFile
{
    version     2.0;
    format      ascii;
    arch        "LSB;label=32;scalar=64";
    class       volScalarField;
    location    "140";
    object      k;
}
// * * * * * * * * * * * * * * * * * * * * * * * * * * * * * * * * * * * * * //

dimensions      [0 2 -2 0 0 0 0];

internalField   nonuniform List<scalar> 
184166
(
3.50527
2.56866
2.45468
3.49819
3.08584
3.13948
2.12155
2.90806
3.52823
3.36824
3.45349
2.64175
2.67758
2.94858
3.20369
3.42583
3.57845
3.32973
2.58151
3.43368
2.5544
2.53722
3.00622
3.14001
3.38745
3.27791
3.15901
3.48022
3.28828
2.59897
3.45984
2.07158
3.93321
3.70081
3.5689
2.72483
2.58305
3.42788
2.76785
2.34164
3.36491
2.70081
3.28694
3.60634
3.54399
3.31135
2.27862
3.1426
3.44947
3.28869
2.20476
2.08177
2.30558
3.38726
3.57984
3.16393
3.35506
3.60146
3.58561
2.80049
2.55944
2.8098
3.4522
3.56802
3.47239
2.04459
2.39609
3.33101
2.10617
3.53539
2.44052
3.56463
3.48895
3.45402
2.74224
3.263
3.05429
3.44899
2.85473
2.26776
2.21277
2.7235
3.38048
3.5455
3.37048
3.47174
2.8184
2.49012
2.98125
2.60971
2.01861
3.06652
3.32371
3.2024
3.06624
2.51227
3.60479
2.06737
2.52851
3.50081
2.63678
2.60596
3.32422
3.28859
2.1079
3.01376
3.49988
3.01647
2.07152
2.64781
2.34513
3.46717
2.01094
2.4599
3.43202
3.25829
2.77357
2.46166
2.11693
2.44422
3.43919
2.60903
3.35507
3.32602
3.29567
3.06105
3.35653
3.36114
3.33185
3.30154
2.5357
3.35045
2.95682
3.07662
2.77599
2.67872
2.73107
2.93011
2.98006
2.42045
3.02871
2.11277
2.13271
2.60269
2.81765
3.46468
2.4649
3.28287
3.58189
3.49868
3.48346
3.34003
3.46082
3.35354
3.44334
3.5131
3.4173
3.34124
3.52453
2.33789
2.03754
2.18236
3.22939
2.88429
2.87604
3.35457
3.36398
3.31655
2.04853
3.37366
3.35915
2.71916
2.9452
3.82025
3.34247
2.20087
2.26102
3.45382
3.32405
2.98284
2.03221
3.27957
2.9516
3.32235
3.41833
2.7479
3.37786
3.09902
2.0998
3.48222
3.23452
3.51218
3.05031
2.07089
3.72096
3.34398
3.22536
3.42893
3.62236
3.31417
3.48885
3.29076
2.06326
3.31006
2.26576
3.35316
2.69619
2.59045
2.78535
3.33878
3.58134
3.27828
2.75243
2.92451
2.58441
2.99356
3.37933
3.22462
2.19019
2.16079
2.64404
2.85862
3.01553
3.28767
2.21904
2.62496
2.687
3.55318
3.37303
3.69593
3.55891
2.41995
3.02934
3.33824
3.58665
3.08961
3.59342
3.33124
3.35373
2.07603
2.01038
3.47841
2.46655
3.29143
2.29948
3.21103
3.27473
2.68421
3.83495
3.7116
3.03763
3.33342
3.49089
2.60401
2.97021
3.58843
3.05431
3.29516
3.41346
3.06973
2.84091
2.39068
3.55339
2.60722
3.4905
3.38296
3.40821
2.39651
3.45283
3.04773
3.26497
2.2317
2.85272
3.43595
2.62413
2.98981
2.02319
2.9602
2.85826
2.97782
2.54411
4.1402
2.95427
3.3757
2.35563
2.67348
3.81313
3.35353
3.28401
3.52232
3.24105
3.15131
3.28355
3.6294
3.48554
3.20973
3.15295
3.4636
3.36568
3.34543
3.33434
3.05375
2.19009
3.31997
3.36845
2.9461
3.30184
3.42101
2.40611
2.0847
3.35738
3.53163
3.37826
3.45603
3.44119
3.00523
3.09304
3.05624
3.24089
3.1499
2.59559
2.72011
2.73734
3.15553
3.34241
2.09931
3.42117
3.08926
2.51477
3.34573
3.53732
2.36934
2.32312
3.43751
2.10691
3.38213
3.14161
2.92329
3.41963
2.84594
3.20359
3.57631
3.52586
3.75785
3.59684
3.69207
2.46722
2.08866
2.81534
2.21103
2.20447
3.35821
3.58478
2.40424
2.62313
3.51671
3.44524
2.92004
3.47137
3.31871
2.84545
2.04743
3.46399
2.42453
3.3449
3.4025
2.0933
2.51811
2.45469
2.00255
2.03451
3.42728
3.61988
3.65035
3.84056
3.75458
3.47838
3.2621
2.55646
3.0754
3.16315
3.1977
3.38084
3.36923
3.1101
3.63927
3.5396
2.78287
2.89502
2.88306
3.09602
3.30891
3.33119
2.03738
2.98928
2.05876
3.71718
2.99864
2.83942
3.02461
3.56796
3.21049
3.67546
3.44551
2.31844
3.15658
3.52597
3.49646
3.05788
2.56944
3.22934
2.8675
2.90071
2.76971
2.75355
2.58111
3.47386
2.3019
2.25697
2.20885
3.80334
2.90781
2.88833
2.89332
2.78425
2.07474
2.1185
2.15816
2.50303
2.4638
2.51529
2.13447
3.76689
3.51468
3.68865
3.66153
3.4786
3.62198
3.3635
3.37052
3.45353
3.45706
3.55325
3.51506
3.53531
3.50494
3.76371
3.85483
3.29626
3.37175
3.21481
3.21719
3.25913
3.32789
3.08701
3.35608
3.32619
3.31534
3.3389
3.80812
3.41712
2.11554
2.06591
2.05481
2.04382
2.24119
2.1086
2.19475
3.42488
3.46774
3.44591
3.49878
3.45016
3.36781
3.03871
2.77137
2.95108
3.58745
3.33835
3.30786
3.3103
3.29794
2.02999
1.9974
2.67153
2.72164
2.6658
2.59609
2.55914
2.59129
2.96803
3.21577
3.14347
3.19729
2.85178
3.66453
3.60734
3.59053
3.63387
3.72946
3.66817
3.66019
3.40255
3.36314
3.36401
3.3512
3.41632
3.36293
2.5823
3.31362
3.3892
2.00573
2.03614
2.00518
3.54915
3.75456
3.62548
3.37212
3.46358
3.39174
3.46811
3.57056
3.77316
3.32787
3.36521
3.40378
3.41541
3.7154
3.73787
3.91607
3.87441
3.73222
3.5484
3.75263
3.92159
3.70719
3.78396
3.42275
3.63442
3.90783
3.80722
3.55611
3.6914
3.5281
3.46406
3.54691
3.46749
2.26159
2.95127
2.77061
2.68664
2.9497
2.78183
2.90592
2.95317
2.73258
2.86239
2.5913
2.47841
3.6371
3.53153
3.6649
3.62813
3.50529
3.60329
3.6023
3.59078
3.44076
3.30657
2.96852
2.92509
2.98374
3.07597
3.34362
3.49457
2.12359
2.30528
2.05173
2.04974
2.07844
2.06089
3.6426
3.66044
3.76697
3.79239
3.89487
3.85537
3.66223
3.8973
3.37003
3.34706
3.38487
3.43407
3.38596
2.02544
3.1358
3.03644
3.00837
3.45754
3.50516
3.49363
3.51815
3.48763
3.48972
3.51227
3.52863
3.49809
3.41449
3.51833
2.57302
2.59778
2.87034
2.66453
3.4385
3.59546
3.6159
3.55635
3.7275
3.48917
3.74438
3.64726
3.23075
3.39754
3.31844
3.39512
3.50031
3.57831
3.32489
3.20814
3.16125
3.14755
3.05336
2.99306
3.78252
3.75441
3.35961
3.32474
3.34677
3.56795
3.38282
2.81055
3.26227
3.45726
3.54375
3.44107
3.45243
3.48002
3.52154
3.49539
3.51851
2.20413
2.35399
3.30618
3.46039
3.60944
3.4596
3.13334
3.60006
3.49032
3.57714
3.55911
3.4803
3.53328
2.12195
3.83342
3.92628
3.8283
3.85394
2.7986
3.65271
3.71556
3.56136
3.76324
3.54347
3.74464
2.33315
2.10072
2.11592
2.23474
2.23762
2.12193
2.88844
2.39238
2.50078
3.57477
3.39893
3.52956
2.89399
2.7401
2.89075
2.80438
2.7413
2.81116
3.33405
3.40607
3.33088
3.33167
3.38765
3.54467
2.92278
2.89525
3.60455
3.30782
3.08555
3.11698
2.47274
3.08154
3.46363
3.44465
2.89862
2.97631
2.91802
2.74443
2.66193
2.7418
2.66317
2.77262
3.16924
3.45956
3.39312
3.40928
2.9223
3.03812
3.09921
3.13591
3.18349
2.66131
3.02274
3.11068
3.2523
3.26615
3.44763
3.33556
2.85245
2.83352
2.61462
2.72872
2.76162
3.59264
3.31515
3.59204
3.68174
2.67995
2.95657
2.04929
2.04917
2.04025
3.37904
2.67639
2.88596
2.66102
3.47388
3.15247
3.25238
3.11145
2.90746
2.95045
3.00231
2.97022
3.36984
3.07229
3.38961
3.17826
2.62158
2.56304
2.62531
2.58858
2.56077
2.57489
2.54114
2.52665
2.51556
2.97241
2.90057
2.58978
2.6154
2.55962
3.14822
3.02361
3.15799
3.09992
3.35521
3.40621
3.37526
3.71171
3.21592
3.19011
3.07756
2.58083
2.6735
2.04317
2.04305
2.05193
2.04863
2.94899
2.65001
2.61799
2.6026
2.59323
2.59983
3.25652
3.30709
3.4807
3.31737
3.38171
3.50197
3.01256
3.02655
3.10444
2.49402
2.55734
2.54409
2.54926
2.54712
2.04558
2.06959
3.40116
3.41314
2.07295
2.1257
2.07809
2.06315
3.53385
2.22548
2.4611
2.23845
2.33153
2.65129
2.76175
2.77282
2.68085
3.53558
3.24511
3.29203
3.1809
3.10453
3.26307
3.316
3.51932
2.9182
2.81588
3.03554
2.86495
2.76618
2.47733
3.63726
3.71843
3.79129
3.29869
3.6439
3.52826
3.2653
3.03667
3.10864
3.26931
1.98659
1.95833
3.10909
2.93657
2.84054
3.14432
2.86247
3.05872
1.97785
1.96369
3.62455
3.65719
3.6146
3.68276
3.68165
2.47317
3.41308
2.74491
3.2611
2.05898
2.08475
3.3393
3.34392
3.32068
3.3253
3.3566
3.36197
2.16796
2.32056
2.68515
2.61006
3.25444
3.53189
3.19898
3.37772
2.18766
2.18332
3.61891
3.53551
3.18999
3.23401
3.30597
3.22088
3.28513
3.31936
3.53273
3.45606
3.50301
2.32729
2.67488
2.44393
3.14191
3.14828
3.31523
3.24341
3.50128
3.46279
3.53489
3.58621
3.73323
3.72009
3.57679
3.62935
3.53765
3.65118
3.57197
3.46936
3.50339
3.29735
3.2542
3.28162
3.15128
2.88332
2.94706
2.75764
2.63509
2.61918
2.66945
2.58104
2.6514
2.85394
3.42625
3.3041
3.26709
3.28172
3.20426
3.74468
3.72004
3.47726
3.19803
3.36866
2.88445
3.24114
3.26088
3.20526
3.20011
2.30334
2.24901
2.36926
2.3197
2.24731
3.32489
3.35792
3.34739
3.71737
3.73441
3.60314
3.64871
3.89366
3.89086
3.48946
3.62991
3.50221
3.45507
3.43116
2.8603
2.94283
2.75208
3.19167
3.09241
3.23499
3.27826
3.29775
3.57382
3.49679
3.42243
3.44705
3.31962
3.42647
3.52093
3.37652
3.80123
2.87513
2.96649
2.93467
2.76188
2.90383
2.9097
2.99209
2.75349
3.40011
3.38907
3.44433
3.3931
2.32856
2.45744
2.32876
2.3212
2.82248
2.77695
3.45229
3.5891
3.60498
3.48605
3.76598
3.64709
3.40471
3.37039
3.39639
3.4292
2.13094
2.04398
2.02877
1.98426
3.30741
3.34912
3.29094
3.30006
3.02866
3.0065
3.04784
3.93455
3.88941
3.85459
3.81252
3.79604
3.85085
2.69243
2.52034
2.6083
2.43155
2.93506
3.03247
3.03564
3.06501
3.87964
3.77173
3.81464
3.60565
3.77394
3.2244
3.1108
3.69962
3.33654
2.77708
2.85731
2.58436
2.61162
2.79919
3.30905
3.29039
3.89476
3.53804
3.57684
3.64076
3.61656
2.12944
2.08665
2.07405
2.56496
2.55046
2.83157
2.78297
2.84095
2.81915
3.12202
3.05071
2.39037
2.14845
2.53138
3.04657
3.14378
3.46199
3.43022
3.54448
3.4201
3.40537
2.06441
2.06093
2.0674
3.94155
3.88891
3.64557
3.64601
2.05511
2.03699
3.28888
3.33378
3.09198
2.63955
2.70928
3.85981
3.6629
3.28884
3.31897
3.29823
2.043
2.04358
2.04256
2.02922
2.03458
3.15653
3.53105
3.25265
3.18685
3.08664
3.09958
3.61512
3.21969
3.22431
3.25172
3.22796
2.68023
3.4292
3.41068
3.29704
3.30809
2.47621
2.50062
2.47293
2.47111
3.72517
3.62914
3.5606
3.65538
3.5311
3.5873
2.81567
2.80103
2.72855
3.43256
3.5
3.24759
2.54781
2.21259
2.2352
2.37889
2.24962
2.78541
2.42072
2.31841
2.61609
3.89204
3.97065
3.36383
3.09652
3.27871
3.07267
3.17114
3.41496
3.46427
3.41036
2.06567
2.04548
2.05564
2.07661
3.33648
3.25694
2.2848
2.16169
2.14027
1.95464
1.95369
2.84553
2.95291
2.96425
2.80501
2.87123
3.04947
2.64545
2.45011
2.08714
2.07998
2.11156
2.06206
2.05965
2.64566
2.59409
3.16176
3.14323
3.26438
3.20057
3.31432
3.34033
3.19835
3.24005
3.15017
2.09731
2.23119
2.70765
2.81324
2.34471
2.34093
2.34147
3.3366
3.33533
3.36054
3.59551
3.81258
3.68237
3.61115
3.74016
3.82024
2.06717
2.34468
2.2152
2.32309
2.31003
2.49731
2.51218
2.17839
2.18578
3.22816
3.27052
3.27234
3.30693
2.1706
2.15669
2.16727
2.19414
3.257
3.28174
3.11156
3.22551
2.86289
3.14267
2.90507
3.07151
3.84316
3.84533
3.12
2.98963
2.37758
2.84574
2.72386
2.7396
2.61431
2.15866
2.4701
2.37247
2.74269
2.51165
2.58365
2.41048
3.2114
3.17751
2.88024
3.06468
3.04252
3.10257
2.33938
2.42925
3.02946
3.20256
2.89489
2.90415
2.87124
2.84248
2.88712
2.98874
3.08124
3.1916
3.181
3.06449
3.76408
3.71992
3.87834
3.77895
3.38125
3.40225
2.9262
3.0121
2.06397
2.08592
2.06672
2.08335
2.07707
2.07784
2.10271
2.07639
2.51244
2.49894
2.54232
2.59601
2.59538
3.33907
3.39401
3.43305
3.31873
3.34269
3.53547
3.53261
3.4712
3.44564
2.72126
2.6877
2.03974
2.0404
2.04372
2.05461
2.05462
3.77359
3.60847
2.84922
2.88402
2.92226
3.44466
3.34613
3.55584
3.31599
3.30675
2.8657
3.34299
3.34741
3.39462
3.3133
3.25462
3.31879
3.70739
3.57641
3.54616
3.64913
3.57054
3.49781
3.36029
3.57573
3.53252
2.99084
2.883
2.72932
3.35588
3.36254
3.32332
3.33394
3.2718
1.96424
3.21879
3.25655
3.2823
3.25727
3.27465
3.33731
3.33556
3.39637
3.41569
1.98296
1.9599
1.96872
2.05612
2.06024
2.06133
2.05952
3.96747
3.4993
3.52608
3.71101
3.54464
3.40413
2.74998
3.47353
3.46215
2.3072
2.52286
2.31993
2.55251
2.57701
2.68795
2.67605
2.53759
2.66295
3.18318
3.16055
3.44415
2.06336
3.39047
3.12581
2.92489
2.29787
2.30304
2.31824
2.83252
2.90115
2.77401
2.7242
2.60861
3.22162
3.14341
2.58437
2.54317
2.5039
2.50599
2.58261
2.50825
3.38495
3.4465
3.45601
2.97002
3.04649
3.18208
3.05408
2.95514
3.63925
3.43468
3.44823
3.16986
1.95617
1.94073
3.53563
3.29257
3.07169
3.12704
3.12978
3.41285
3.24821
3.32676
2.03656
2.06024
2.05201
2.05873
2.04545
3.81135
3.67315
1.95063
3.25334
2.57221
2.418
2.98957
2.68579
3.00027
2.81711
2.63083
3.48112
3.35628
3.43217
3.55776
3.5907
3.25659
2.82648
2.81422
2.05603
2.05603
2.05644
2.05381
2.05331
2.05929
3.32051
2.15334
2.04471
1.94495
1.99847
1.96746
3.5605
3.54655
3.3187
3.10197
2.64353
2.61198
2.80487
2.48513
2.22509
2.53439
2.44501
3.46606
3.41046
3.5191
3.44791
3.38138
3.34819
3.31576
2.16119
2.21829
3.10172
3.12423
2.9851
3.07366
3.00533
3.27326
3.25786
3.2894
2.99801
3.10967
2.66663
2.84634
2.86516
2.63434
2.74073
2.88545
2.7489
2.7809
2.72522
2.85194
2.9131
3.32589
3.37145
3.38492
3.33465
3.36865
2.24009
2.18848
2.4995
2.31706
2.57874
2.42933
3.40829
3.50626
3.47677
3.53043
2.70689
2.86786
2.78016
2.75153
2.63978
2.47962
2.55451
2.05292
2.05344
3.75505
3.86089
3.31844
3.27989
3.2964
3.17232
2.01152
1.98558
1.94408
2.01199
1.98326
3.49968
3.50104
3.15303
3.09871
3.07507
2.86546
2.90808
2.7954
2.4348
2.47562
2.41033
2.42349
2.0436
2.04665
2.04306
2.04641
3.10962
3.32401
3.3431
3.29078
2.96869
3.02686
2.71505
3.52094
3.55031
3.70476
3.50554
3.60802
3.62107
2.15845
2.32914
2.12037
2.19348
3.10807
3.23255
3.19902
3.2279
3.13281
2.05455
2.0473
2.04894
3.92793
3.89658
3.09151
2.99161
2.8547
2.32803
2.58574
2.60152
2.34794
3.64486
3.67735
3.66201
3.71989
3.69088
3.69591
3.10047
3.16404
3.20476
3.05512
3.77381
3.98709
2.58357
2.68594
2.36457
3.91207
3.08583
3.02393
2.97135
2.54149
3.83204
3.36736
3.38648
1.9676
2.37767
2.30262
2.33153
2.36872
2.3028
2.30483
2.04516
2.03849
2.15435
2.07886
2.35758
2.4267
2.35837
2.39126
2.35807
2.4287
2.35763
2.39854
2.67686
2.53141
3.15238
3.72174
3.87845
2.76871
2.05383
2.03296
2.03831
2.04114
3.16981
3.05812
3.02262
3.36213
3.14539
3.113
2.66129
3.35304
3.33143
3.36141
2.46307
2.43271
2.2665
2.25451
3.07227
3.13766
3.36623
3.37831
3.32126
3.39885
3.17144
3.20191
3.68193
3.64036
3.8437
2.84314
3.1656
3.10518
2.7784
2.99891
3.64526
3.59283
3.53776
3.37343
3.60064
1.9946
1.9431
3.17825
3.254
3.31075
3.31553
3.18121
3.22685
3.27842
3.31596
3.25526
3.27466
3.31644
3.32452
3.17603
3.25894
3.19448
3.24262
3.58166
3.53779
3.60359
3.58057
1.92955
1.90751
1.97391
2.0167
2.99774
2.98372
3.6834
3.74169
3.63178
2.90542
2.91072
2.92762
3.53549
3.4367
3.4699
3.48834
3.54691
2.87418
3.12532
2.82964
2.90155
2.75653
2.75963
2.53016
2.50089
2.5128
2.64428
3.04684
3.16743
3.34271
3.34927
3.84365
3.82711
2.05994
2.05718
3.38573
3.33461
2.50081
2.47198
2.47378
2.43886
2.46516
2.47585
2.28068
2.21713
2.31458
2.1469
2.16727
2.25244
2.13813
2.97424
2.89585
2.90257
2.83143
3.08072
3.0507
2.94896
3.01959
2.94817
2.98276
3.58413
3.62386
3.67137
3.59036
3.67066
3.25298
3.29028
2.77481
2.64531
2.62904
2.82206
3.09749
3.14472
3.14681
2.93914
2.83753
1.9451
1.89838
2.457
2.55443
2.8946
2.15732
2.11458
2.11811
2.25925
2.18903
3.3984
3.35695
3.37503
3.31299
3.35937
3.15308
3.20745
2.09897
2.18332
2.11584
2.13046
2.21444
2.1165
2.23602
2.35863
2.39847
2.26018
2.05165
2.04209
1.97864
3.88196
3.86714
3.88524
3.75151
3.92166
3.19074
3.0939
2.73873
3.08622
3.12908
3.04506
3.03462
2.25177
2.56292
2.39363
2.40063
2.25666
2.24797
2.14247
2.37993
2.32569
2.11641
2.15462
3.87457
3.77483
3.62178
3.59328
3.59014
3.05758
2.6016
2.88784
3.61408
3.89554
3.70108
3.33525
3.25575
3.28962
2.76708
2.64451
2.31546
2.2409
2.58993
2.30471
2.89959
2.93964
2.87539
2.94733
2.99047
3.0256
2.93335
2.83684
2.8288
2.21244
2.12827
2.18478
2.72784
3.28988
2.74116
3.03275
3.32653
3.21627
2.97837
3.23866
3.02997
3.44983
3.64606
3.34625
2.79716
2.84968
2.97016
3.01536
2.01948
2.05256
2.09504
2.08909
3.30491
3.27269
2.07218
2.06898
2.84383
2.80293
2.84811
3.90405
1.90682
1.92408
1.96582
2.16313
2.06984
2.08256
2.65655
2.55438
3.22307
3.21459
3.15961
3.13262
2.38455
2.43715
2.65754
1.92506
2.67547
2.58685
2.49921
2.64736
2.53313
2.49798
2.68977
2.59546
2.66778
2.54061
2.62084
2.61719
2.81151
3.37655
3.35362
2.0619
2.11034
2.012
3.25608
3.21077
3.2258
3.10679
3.08597
3.04531
3.11157
2.94414
2.82304
2.84485
2.8447
2.87389
2.65889
2.85505
2.78241
2.72065
2.82671
2.53902
2.53563
2.54948
2.5701
2.56427
2.91149
2.79448
2.79822
2.89846
2.83782
2.81681
2.76616
2.86196
2.84806
2.84834
2.81406
3.17632
3.12274
3.19551
3.15797
3.11801
3.61424
3.54626
3.56291
3.58657
3.60772
2.82836
2.9144
2.81891
2.95085
2.90751
3.40527
3.38923
1.98449
2.4259
2.54892
2.61391
3.12447
3.05132
2.30247
2.22396
2.22504
3.48295
3.36286
3.50599
4.01934
3.64599
3.57997
3.93056
3.95013
3.68442
3.87746
3.91358
3.80609
2.72854
2.85974
3.33106
3.30792
3.3007
3.3321
2.50192
2.39038
2.2269
2.7294
2.18855
2.46609
2.51202
2.32427
3.44115
3.61972
3.48075
4.27208
2.20971
2.34374
2.38774
2.75356
2.75815
2.56079
2.54593
2.95495
2.91807
4.80062
3.44992
3.34134
3.49473
3.54988
2.80747
2.97385
2.69487
2.45822
3.00855
3.06471
3.04969
3.07595
3.36423
3.36968
3.33238
3.32788
3.33281
3.34275
3.3522
3.3237
3.32789
2.45212
2.40919
2.93507
2.27642
2.29171
2.57622
2.49157
3.10906
3.00185
3.07926
3.12116
3.03036
2.95476
3.08313
3.13649
3.21344
3.07743
3.27613
3.44211
3.66398
3.88022
2.92044
2.92719
3.04769
2.99046
3.0512
3.01181
3.34209
3.34356
3.36172
3.36643
3.32778
3.35189
3.68307
3.44129
3.95305
3.69374
3.36329
3.3553
3.35275
3.31976
3.34793
3.36986
3.39931
2.98164
3.03233
3.03007
2.6005
2.16052
2.8543
2.941
3.19366
3.19661
3.15056
3.11336
3.1399
2.5744
2.5117
2.52443
2.61783
2.58625
2.89318
2.80547
2.81738
2.94154
2.89976
2.0944
2.06596
2.09553
2.119
2.06385
2.05698
2.33492
2.10122
2.10957
2.18321
2.20509
2.14186
4.13041
3.19798
3.20517
3.25391
3.24746
3.26257
1.90544
3.38616
3.43938
3.4542
3.36444
3.39836
2.84725
2.91972
2.89118
2.91008
2.86885
2.96908
2.81962
3.07541
2.94721
2.9717
2.47933
2.66662
3.00333
2.84617
2.07791
2.10151
2.1783
2.22935
2.08526
2.14091
2.57407
2.50335
2.42618
2.30522
2.35941
2.28202
3.35764
3.34801
1.99845
1.95483
1.96144
2.02556
2.03495
3.7176
3.60447
3.67459
3.61602
3.57721
3.35725
3.30714
3.41364
3.34717
3.53565
3.66876
3.59853
3.05916
3.02009
2.99443
2.75122
2.81623
2.84128
2.15987
2.10471
3.73259
3.83445
4.10621
3.28748
3.33024
1.93255
1.91105
2.41657
2.27297
2.22154
2.40059
2.13309
2.13387
3.10684
3.08686
3.12635
3.1609
3.16273
3.02552
3.06254
3.19814
3.11707
3.12402
3.25389
3.23358
3.63417
3.45146
3.34362
3.37814
3.54237
4.19819
5.03772
2.53716
2.50302
2.42127
2.44741
2.39242
3.3304
3.43681
3.3513
3.76458
3.9609
4.03142
2.45017
2.54893
2.56739
2.68804
2.6656
2.57729
2.52135
2.59733
2.73515
2.64461
2.55598
2.55038
2.57164
2.53223
2.52427
2.56843
2.53975
2.81099
2.8215
2.81119
2.78856
2.79491
2.79681
2.80323
2.78462
3.07952
3.17325
3.33192
3.30353
3.51033
3.68788
3.47861
3.26613
3.30795
3.16458
3.17507
3.22771
3.21292
3.05383
3.10355
3.01122
2.72104
2.68385
2.70703
2.9529
3.02532
2.99178
3.47363
3.50591
3.48905
3.53527
3.48199
3.49225
3.3819
3.4277
3.27708
3.38456
3.2531
3.35021
3.33705
3.39095
3.38961
3.34444
2.02317
2.00812
1.97977
3.23117
3.20404
3.30331
2.93614
3.02182
3.00936
3.0043
3.02671
1.98149
2.01144
3.36202
3.3204
3.2959
3.30171
1.9663
1.99151
1.91717
2.9456
2.98563
3.36493
3.38278
3.38008
3.79688
3.68684
3.36395
3.40106
3.38594
3.38672
3.37343
2.36797
2.21115
2.59441
2.35747
2.44237
2.74748
2.53865
2.91304
2.84207
2.69845
2.87724
2.76433
2.90333
3.11362
3.35734
2.1919
2.22266
2.15131
2.37456
2.35816
2.53536
2.53282
2.77918
2.57712
2.53743
2.56749
2.54084
2.52817
3.74893
3.95369
4.38907
3.2364
3.24582
3.55808
2.79314
2.78739
2.75083
2.7358
2.80915
2.81865
2.05622
2.0616
2.07849
2.06639
2.0495
2.05096
2.63022
2.47086
2.53846
2.66151
2.36434
2.32987
2.96085
2.94735
2.86386
2.88866
2.8857
2.92888
3.59764
3.85342
3.72215
3.24772
3.14712
2.70213
2.00982
2.04744
2.00848
2.02532
2.02826
2.05245
3.12639
3.08891
3.30732
3.4402
3.46667
3.14865
3.13005
2.11155
2.13818
2.24169
2.17816
2.28258
2.37712
2.23854
2.53588
2.94022
2.70557
2.39834
2.2086
2.17689
2.3681
2.23844
1.91544
1.92026
2.64905
2.6214
2.47789
2.45337
2.40404
3.22274
3.26591
3.2395
3.27792
3.33031
3.37328
3.39521
3.38364
3.45957
3.35807
3.39992
3.46551
3.60876
3.62143
3.55527
3.62642
3.16204
3.11853
2.91365
2.96729
3.10251
2.97201
2.55583
2.5586
2.83888
2.84248
2.89891
2.86606
3.42236
3.41544
3.38311
3.38657
3.41049
2.45517
2.52592
2.36664
2.35788
2.40878
2.48943
3.22505
3.17152
3.21061
3.18084
3.03578
3.12544
3.10349
3.05288
3.34728
3.41025
2.67568
2.83087
2.86112
2.38964
2.34561
2.52175
2.59139
2.51909
3.00659
2.93752
2.6075
2.92167
2.52816
2.68398
2.77522
3.41554
3.39691
3.38504
3.42523
3.51531
3.55027
2.60413
2.36115
2.4545
3.49891
3.25646
3.372
3.38822
3.47937
3.45513
3.45234
3.39796
3.72188
3.68275
3.5909
3.69765
3.60912
3.33263
3.39603
3.43271
3.38272
3.32395
2.30221
2.16506
2.09559
2.10353
2.05349
2.97623
3.05933
3.12383
3.49167
3.54049
3.47751
2.66716
2.69723
3.22975
3.10376
3.05877
3.1579
3.25506
1.96892
1.97841
2.01633
1.98231
2.01825
2.03827
2.03552
2.76961
2.81343
2.88768
2.83186
2.88995
3.36881
3.35828
3.70176
3.64535
3.62615
3.71122
3.71536
3.97069
2.96663
2.88711
2.87625
2.96492
2.86602
2.83996
2.74855
2.70686
2.98836
2.90366
3.52
3.5243
3.48586
3.56551
2.86013
2.87577
2.83987
2.91764
2.81836
3.0058
2.97279
2.95656
2.88156
2.72586
2.63651
2.71646
2.72049
2.86434
2.6393
2.5873
2.52517
2.95599
2.90058
2.84328
3.00285
2.88151
3.4254
3.44157
3.55541
3.49187
3.43102
3.87037
4.07224
2.8244
2.88935
2.8129
3.51345
3.46689
3.53974
2.67355
2.525
2.75901
2.91158
2.65802
2.55352
2.62876
2.43683
2.47095
2.42591
2.38505
2.46954
2.38284
2.45286
2.40469
2.44819
2.40481
2.44064
2.47401
2.85464
2.98267
2.87805
2.94781
2.96647
2.9047
3.58167
3.48815
3.54429
3.49739
3.61305
3.58241
3.59756
4.02306
4.26503
3.50482
3.55403
3.64281
3.47049
3.55413
2.45197
2.38519
2.42874
2.37552
2.41384
2.52334
2.57059
2.65766
2.55795
2.7097
2.67973
2.87161
2.85267
3.00365
3.00193
3.16716
3.04181
3.13933
3.13658
3.05257
3.11697
3.18265
3.15346
2.56088
2.60848
2.46181
2.4401
2.38942
2.37696
2.41619
2.90421
2.76379
2.85897
2.47746
2.45672
2.52721
2.64708
2.62347
2.56242
2.55315
2.614
2.46422
2.41787
2.44953
3.47973
3.31105
3.46215
3.35675
4.00049
4.09363
2.82021
2.7621
2.6984
2.81135
2.74223
3.01085
2.9236
3.02983
2.93245
2.99219
2.93702
2.8928
2.938
2.89522
2.85686
2.8648
2.90757
2.75167
2.865
2.79867
2.76672
3.65887
3.79651
3.01321
3.01883
2.17965
2.15336
2.10178
2.08401
3.12434
3.13209
2.48138
2.52105
2.88703
2.68532
2.63349
2.89037
3.60735
3.50825
3.33889
3.36681
3.5488
3.61608
3.59883
3.53901
3.59359
3.62769
3.60583
3.61961
3.61848
3.63041
3.2411
3.18609
3.14406
3.47686
3.59125
4.30752
4.33473
3.20587
3.16356
3.23058
2.24727
2.12287
2.21609
2.19589
2.08647
2.10105
3.19711
3.05255
2.84975
3.19498
3.03807
3.1973
2.28067
2.23556
2.44194
3.05539
3.13896
3.06815
3.11298
3.12839
3.0995
3.22215
3.18549
3.21022
2.60322
2.72635
2.9414
3.07772
3.05663
2.90855
2.97981
3.13214
3.15592
3.03267
3.01357
3.08715
2.77126
2.71354
2.8498
3.35909
3.29645
3.35546
3.25905
3.24923
2.16912
2.10677
2.12302
2.11214
2.14955
2.07336
2.06822
2.00839
1.95677
2.03004
2.00144
2.02479
3.47903
3.53191
3.46297
3.53217
3.26414
3.1159
2.94691
2.40294
2.39983
2.43463
2.7338
2.78034
2.86857
3.58619
3.60454
3.59887
3.57262
3.55501
3.56912
3.33823
3.46482
3.3872
2.00984
3.82451
3.52539
3.74364
2.1649
2.0996
2.29003
2.17229
2.11909
3.51452
3.59421
3.18635
3.21001
3.17526
2.0503
2.05982
2.51286
2.24838
2.11803
2.08304
3.44017
3.28187
3.31337
3.28188
2.19605
2.20108
2.86383
2.80512
2.76001
3.12296
2.96454
2.90607
3.32921
3.19959
2.76067
2.6865
2.87788
2.80435
3.30391
3.3098
3.30756
3.34562
4.29696
4.8025
4.00621
4.33202
2.63075
3.24049
1.71269
2.59208
2.56794
4.66195
5.59736
3.24655
4.9666
2.8873
5.42386
4.97392
4.13377
4.20809
5.10542
4.54947
4.47559
4.37802
4.48517
4.97267
4.13442
4.0468
4.20915
3.97443
4.30009
4.59575
5.08525
4.7624
2.00638
4.28716
4.41662
3.89241
4.44885
4.82789
4.49553
4.38737
5.05503
4.37814
4.28135
1.727
1.81253
4.19971
4.69471
3.83007
1.96046
4.49345
3.75143
4.21484
4.44697
4.37069
3.55712
4.44102
4.4129
4.48206
4.60472
4.42397
4.69487
4.35759
4.49648
4.38201
3.32311
3.27782
1.91728
1.83474
2.04057
4.53179
4.84188
3.81852
5.24422
4.45878
4.37342
4.51267
3.4099
3.69027
3.1454
3.18999
2.55771
2.56717
4.51161
4.30624
4.34678
4.16627
3.52643
3.92815
3.57595
5.94289
4.89884
5.45579
5.3084
4.41992
4.42794
4.50507
4.31585
4.28085
4.14688
4.92571
4.87886
4.66723
4.48547
4.66745
4.55336
4.75061
4.43696
3.39912
3.54825
4.35416
4.43423
4.25332
2.88025
3.55274
3.98082
3.47647
2.71453
2.54007
2.64566
1.70754
1.87006
1.67757
4.76033
4.79253
5.17243
5.02524
4.58343
4.72657
4.77793
2.61227
5.5529
4.76652
4.24388
3.9784
4.07622
4.22543
4.02588
4.27436
4.03348
3.97901
4.13262
2.74219
2.81092
4.49423
4.27518
4.18407
4.6032
4.15533
4.8619
4.88108
5.00651
1.66564
1.8309
4.38739
4.46941
4.32624
4.13387
3.58228
1.62192
2.15788
2.6808
2.59057
2.62838
3.51744
3.96426
3.41618
1.71431
2.01729
2.16045
2.24737
1.80305
2.0414
4.23281
4.35862
4.73845
4.46885
4.85865
4.39508
4.65426
4.3549
4.42013
4.62242
3.59649
1.66586
1.82224
1.66243
1.84817
4.42645
4.31262
4.41756
4.85241
4.4268
6.00834
5.26892
5.51415
4.71631
1.65527
1.78705
1.96685
1.89866
2.18054
2.27621
2.02144
2.13987
4.95332
4.7121
2.02776
1.97907
1.71248
1.89076
5.21718
4.88243
2.23084
5.1147
4.37975
4.6776
5.19676
1.84444
1.6424
1.82291
4.31302
2.75007
2.68689
2.8247
5.44346
4.67743
4.44512
3.61101
3.69864
1.73109
1.91045
5.21487
4.65693
5.47215
4.49166
5.59218
4.13678
4.24901
4.73154
1.68085
1.86572
1.8222
1.67563
1.84446
1.63182
5.10741
4.58404
5.17439
2.37248
2.42173
3.21532
3.16368
2.94926
3.02583
3.07906
1.63436
1.80224
4.23566
4.16348
4.16148
3.79693
5.37744
3.90086
5.74306
4.37224
4.99605
4.57723
1.77694
1.66112
1.83035
5.1026
5.4693
5.10157
5.30351
1.80223
1.65489
1.82193
2.39038
2.63475
2.45692
2.31295
2.64781
2.33315
1.65564
2.46141
2.71723
2.46891
2.0423
2.20853
2.29309
5.97183
4.67443
2.58955
2.58998
4.40288
4.47662
4.38536
5.12194
4.97508
5.49448
3.04222
2.96917
3.10839
6.06517
5.09481
5.41221
5.05431
4.90873
1.88028
2.12049
3.65764
4.16208
3.58387
3.86616
5.2549
4.64709
4.49339
4.68005
1.63545
5.8678
4.64808
2.7247
2.7015
2.76114
3.33662
3.28854
3.40731
1.66483
4.1559
4.51252
4.43208
1.66021
1.80048
4.69924
4.8277
4.71
1.62492
1.7717
4.63515
3.77294
3.9088
4.80772
4.41006
4.76678
4.74229
4.4174
4.62172
1.63195
1.77156
1.76733
5.56116
1.673
4.42214
4.41269
4.46051
5.77766
5.45775
7.39201
6.10237
1.92864
2.11716
5.02588
4.59751
4.85618
5.13223
1.98503
1.78548
5.8404
4.96457
1.59774
1.76394
1.66777
1.81374
1.82452
5.98243
4.65472
5.04808
1.80507
1.62526
1.76068
7.71161
6.69189
5.88381
4.82836
4.918
2.75261
2.7504
1.6611
1.8195
1.79346
5.15217
4.59345
4.147
6.7553
5.40638
6.10881
4.91677
4.81276
1.77905
1.60196
1.77757
3.61581
3.46535
1.66517
1.84501
1.83323
3.85911
4.92663
4.46727
5.10135
5.55494
4.32933
4.95465
5.04283
5.00732
5.88632
4.5306
4.83864
1.70929
1.87808
1.84895
6.30266
5.08867
5.14586
1.84703
2.03081
4.31658
5.08184
3.5691
4.54906
3.90995
1.95291
4.71831
4.51916
5.29025
4.91372
5.08021
4.12452
4.55134
4.3737
4.11005
4.44772
1.789
1.89474
4.49772
3.53367
3.54779
1.72892
1.83317
1.71765
1.82303
3.76756
2.62361
2.68083
2.13982
2.00046
2.11101
3.37367
3.64546
3.37394
3.42365
2.12762
3.35243
3.22163
3.52624
2.604
2.48941
3.34028
3.52692
3.61871
2.44112
2.97499
3.45041
3.16043
3.1405
2.98632
2.38
2.97658
3.5105
3.61225
3.04476
2.70615
3.38729
3.34949
3.37982
3.09487
2.97444
2.88699
2.04882
3.46502
3.41716
2.57646
2.07594
2.05131
3.0366
3.39146
3.36672
3.36132
3.35993
3.20992
3.2034
3.22279
3.48179
3.78845
2.59804
3.13394
2.03768
3.56292
3.4952
3.7291
2.58992
3.62753
2.62897
3.00921
3.15262
2.91558
3.04402
2.08492
3.61667
2.38442
3.08794
2.69273
3.49332
2.95018
2.83858
2.4292
2.71534
2.84276
2.75743
2.35009
2.39905
2.82459
2.52449
2.09783
2.10309
2.84859
2.25453
2.48033
3.1989
2.63663
2.8627
3.34095
3.00478
2.94844
2.95235
2.57146
3.25801
3.48739
3.42577
3.36924
2.64516
2.44143
2.94328
2.93113
3.44381
3.20212
3.24054
3.39171
3.39005
3.38307
2.22072
2.27879
3.22542
2.67356
2.02051
3.29624
3.2437
3.0288
3.44973
3.39303
2.79271
2.69983
3.53959
3.49
3.56665
3.28797
3.00045
3.45642
3.29697
3.32872
2.53096
3.30065
2.94291
2.6594
2.06962
3.24075
3.52577
2.9697
3.44701
3.42539
3.0558
3.01146
3.56402
2.58366
2.5366
2.591
3.79055
3.4747
2.15898
3.81574
2.03208
2.91868
2.7801
2.32952
3.52671
3.49186
3.65817
3.19471
3.60351
3.5818
3.62895
3.62567
3.68542
3.23738
3.52441
2.10765
2.12041
2.84971
2.82762
2.78423
2.6941
3.57599
3.54176
3.47522
3.48055
3.64625
3.58993
3.15941
2.77065
2.422
3.26699
2.94008
3.37505
3.31587
3.2201
3.60537
3.50675
3.49796
3.14467
3.11118
3.37799
2.20111
2.57307
3.46863
3.45594
3.49246
3.4746
3.41575
3.41762
2.1333
3.72238
3.79392
3.76869
3.01392
3.15302
3.23743
3.02804
3.19944
3.17001
3.24871
3.00124
3.84831
4.05321
3.04143
3.79463
2.45734
2.54044
2.46715
2.76919
2.06543
3.78655
3.45635
3.38239
2.60184
2.62386
2.7008
2.72428
2.67773
3.75244
4.02498
2.74868
3.66161
3.11723
3.17723
2.93333
3.1035
3.02275
3.04087
2.46711
2.37129
2.37567
2.40025
2.38739
2.94705
3.03952
3.04175
2.26034
2.49929
2.89909
2.62201
2.68635
3.49941
3.34203
3.29984
3.33151
2.60793
2.97765
2.90826
3.70325
3.37551
3.42466
3.47684
3.45687
2.67953
2.75389
2.06552
2.11593
2.13766
2.89781
3.50064
3.57661
3.49863
3.52598
3.40247
3.39223
3.4107
2.83864
2.81946
2.91414
3.68943
3.58901
3.70268
3.59162
2.92901
2.84536
3.00343
3.36959
3.18772
3.245
3.14539
3.65447
3.41205
3.85392
3.73099
4.05439
2.00179
3.00748
2.88206
2.87546
3.06302
3.15213
2.51527
2.5449
3.31298
3.37862
3.44593
3.48266
3.47272
3.67956
3.47755
3.42603
3.39432
3.49913
3.05925
2.88847
2.94617
2.87191
2.99248
2.94612
3.24749
3.69461
3.55857
3.62955
1.98573
3.5209
2.80003
2.5551
3.40428
3.4396
2.65639
2.46042
3.30793
3.25065
2.12635
3.36621
3.11249
3.12546
2.90461
3.37731
3.00958
2.95627
2.92633
3.21382
2.64447
2.85167
3.08052
3.32677
3.30707
3.53473
2.90162
2.98933
3.01024
2.0502
2.84033
2.85766
3.30478
3.48179
3.3899
3.46609
3.37244
3.2974
2.75106
2.65452
2.79557
2.59631
3.22891
3.44284
3.56219
3.51394
3.55135
3.62893
2.92074
3.24961
3.17952
2.85564
3.68882
2.87886