/*--------------------------------*- C++ -*----------------------------------*\
| =========                 |                                                 |
| \\      /  F ield         | OpenFOAM: The Open Source CFD Toolbox           |
|  \\    /   O peration     | Version:  2206                                  |
|   \\  /    A nd           | Website:  www.openfoam.com                      |
|    \\/     M anipulation  |                                                 |
\*---------------------------------------------------------------------------*/
FoamFile
{
    version     2.0;
    format      ascii;
    arch        "LSB;label=32;scalar=64";
    class       volScalarField;
    location    "140";
    object      nut;
}
// * * * * * * * * * * * * * * * * * * * * * * * * * * * * * * * * * * * * * //

dimensions      [0 2 -1 0 0 0 0];

internalField   nonuniform List<scalar> 
184166
(
0.16492
0.187949
0.195687
0.160634
0.186088
0.206034
0.177085
0.204267
0.163039
0.183484
0.160645
0.199391
0.199943
0.175198
0.189571
0.191397
0.194111
0.207648
0.198169
0.198476
0.1995
0.197314
0.204743
0.167982
0.203546
0.189754
0.188271
0.200425
0.197311
0.198722
0.202132
0.178537
0.154785
0.212622
0.200624
0.20095
0.198764
0.194354
0.182815
0.193337
0.204461
0.200489
0.195998
0.212686
0.196063
0.203746
0.192736
0.185642
0.211956
0.197483
0.192369
0.180603
0.193626
0.205868
0.209807
0.207434
0.192422
0.212068
0.180915
0.184608
0.198106
0.183317
0.175161
0.173487
0.151693
0.175203
0.195654
0.18514
0.179448
0.205059
0.19519
0.206464
0.193873
0.18422
0.201947
0.194484
0.206717
0.186604
0.204466
0.192335
0.189607
0.202277
0.185254
0.180701
0.194961
0.156835
0.202047
0.197925
0.181871
0.200562
0.177048
0.18628
0.18431
0.121264
0.187373
0.183531
0.212596
0.179735
0.1987
0.204326
0.199716
0.198981
0.181433
0.194687
0.187524
0.20672
0.204278
0.184487
0.179578
0.199646
0.193776
0.186959
0.177091
0.196241
0.202619
0.200531
0.1835
0.196215
0.177086
0.193228
0.177442
0.199157
0.197579
0.204699
0.204885
0.187051
0.194437
0.203586
0.182058
0.18625
0.197809
0.203688
0.188496
0.197205
0.204027
0.200254
0.203043
0.189093
0.178757
0.197639
0.197224
0.176756
0.176593
0.198855
0.181527
0.199528
0.195915
0.198377
0.177625
0.14901
0.194048
0.159802
0.202248
0.174288
0.180553
0.156105
0.199447
0.159893
0.163002
0.194367
0.177833
0.176042
0.194772
0.205644
0.203212
0.195653
0.200556
0.1894
0.177425
0.199308
0.198787
0.179877
0.204307
0.209605
0.204632
0.18174
0.175581
0.162691
0.179235
0.191739
0.177499
0.191375
0.179785
0.194665
0.193168
0.18236
0.199994
0.133043
0.183463
0.196553
0.203706
0.199201
0.20587
0.181534
0.167172
0.191307
0.1912
0.160851
0.170948
0.192122
0.193678
0.197542
0.176927
0.207715
0.193045
0.174345
0.20046
0.198898
0.184256
0.21089
0.153342
0.184938
0.200945
0.16062
0.196942
0.206187
0.203702
0.185727
0.192227
0.192377
0.19938
0.203346
0.205775
0.18907
0.192335
0.199415
0.202187
0.20879
0.204503
0.163875
0.152438
0.185139
0.206997
0.181084
0.206224
0.20486
0.19934
0.176212
0.178808
0.18078
0.176907
0.198163
0.178024
0.184119
0.193469
0.189143
0.197469
0.200346
0.214953
0.202498
0.191805
0.141968
0.198306
0.198868
0.188384
0.204238
0.185429
0.195109
0.207415
0.203858
0.16413
0.19326
0.210832
0.180255
0.201823
0.210556
0.198926
0.179366
0.212226
0.187773
0.194247
0.191939
0.177417
0.197798
0.19939
0.177179
0.177
0.18332
0.203416
0.184226
0.197875
0.153446
0.183047
0.203509
0.192826
0.200488
0.158361
0.161905
0.209196
0.186764
0.191975
0.188264
0.19791
0.210836
0.161547
0.190324
0.207276
0.146626
0.20402
0.161224
0.204719
0.206046
0.182979
0.196895
0.146597
0.190691
0.205589
0.167523
0.192017
0.186312
0.204446
0.201308
0.191235
0.202021
0.185929
0.184719
0.203213
0.178727
0.205816
0.19276
0.198623
0.20037
0.182816
0.174563
0.209855
0.188383
0.211114
0.204005
0.197375
0.203558
0.200583
0.196453
0.195308
0.200022
0.177655
0.206061
0.204955
0.204578
0.201083
0.184003
0.202092
0.153871
0.151883
0.204574
0.212872
0.209127
0.197592
0.176877
0.191859
0.192616
0.192276
0.198465
0.185061
0.194283
0.201009
0.205098
0.201715
0.186866
0.203806
0.181134
0.201124
0.176878
0.200629
0.184893
0.19031
0.203032
0.185093
0.197376
0.195408
0.176449
0.177199
0.160351
0.151449
0.210273
0.214627
0.213378
0.194687
0.195073
0.198194
0.186183
0.18811
0.189342
0.199757
0.190423
0.186911
0.21086
0.20751
0.201074
0.19828
0.190691
0.189858
0.194072
0.195999
0.177842
0.205178
0.18149
0.204727
0.195723
0.202861
0.174564
0.185632
0.197988
0.159755
0.182631
0.194411
0.1965
0.200423
0.198388
0.184268
0.189394
0.208388
0.204343
0.205086
0.202838
0.202405
0.192642
0.208841
0.176649
0.17637
0.176583
0.160713
0.189727
0.185011
0.187015
0.184431
0.182531
0.18207
0.184869
0.19698
0.196122
0.197101
0.176692
0.149457
0.158316
0.15322
0.152997
0.161168
0.153361
0.195939
0.198913
0.199987
0.20161
0.182797
0.19018
0.186207
0.197657
0.159195
0.154632
0.192842
0.196425
0.191023
0.190352
0.19384
0.1964
0.186413
0.196788
0.203746
0.204771
0.203601
0.214054
0.170602
0.178259
0.177351
0.177641
0.177163
0.188161
0.190895
0.193107
0.204158
0.198327
0.191627
0.190136
0.162418
0.176559
0.204432
0.201665
0.204412
0.15538
0.182475
0.197651
0.187812
0.196001
0.177439
0.176392
0.200309
0.200936
0.200122
0.198639
0.198011
0.198545
0.170989
0.198816
0.202116
0.200087
0.170139
0.209518
0.212396
0.211012
0.210195
0.212971
0.212892
0.212986
0.170556
0.19303
0.192199
0.197204
0.173521
0.19138
0.197751
0.179819
0.161181
0.176507
0.177494
0.176746
0.211331
0.210496
0.206964
0.19527
0.197555
0.193676
0.195319
0.205867
0.210569
0.206143
0.200251
0.200134
0.204148
0.213498
0.213885
0.215137
0.215252
0.153027
0.16202
0.152624
0.211771
0.208718
0.210389
0.171284
0.151996
0.144201
0.14697
0.157274
0.152275
0.207028
0.204688
0.213508
0.213081
0.191206
0.194679
0.19093
0.193256
0.197547
0.193036
0.195426
0.199937
0.19541
0.197415
0.191158
0.190301
0.207821
0.200004
0.210108
0.208353
0.200048
0.208417
0.210319
0.208864
0.204576
0.202603
0.183669
0.183452
0.183993
0.185756
0.187177
0.1222
0.178574
0.180879
0.178983
0.179634
0.179898
0.180386
0.205405
0.206252
0.211811
0.213475
0.214857
0.214651
0.208664
0.2142
0.19506
0.186646
0.183366
0.171729
0.175514
0.176457
0.202678
0.20279
0.202806
0.171488
0.194893
0.194957
0.200273
0.172172
0.192494
0.19423
0.199065
0.165563
0.172402
0.16326
0.198529
0.181807
0.168536
0.175359
0.19324
0.205499
0.20726
0.204115
0.20899
0.19532
0.210716
0.20692
0.205439
0.202918
0.204362
0.202023
0.198092
0.198829
0.162602
0.196329
0.20034
0.20043
0.195718
0.192747
0.213506
0.212225
0.195741
0.19045
0.18029
0.145896
0.171409
0.183719
0.17302
0.187282
0.161668
0.186744
0.194213
0.188313
0.15847
0.188029
0.196663
0.191882
0.194321
0.178686
0.155686
0.151485
0.160026
0.201445
0.158597
0.169873
0.162476
0.163772
0.17286
0.162538
0.191327
0.212152
0.214913
0.212305
0.213424
0.201931
0.162268
0.153917
0.165082
0.15052
0.160886
0.152441
0.196057
0.190667
0.190783
0.193722
0.194121
0.191519
0.183084
0.192655
0.192162
0.140366
0.15253
0.149073
0.203228
0.201311
0.203097
0.202139
0.201365
0.202285
0.185293
0.161973
0.184791
0.191312
0.162098
0.152767
0.204148
0.203773
0.20427
0.201442
0.197894
0.196766
0.197289
0.206914
0.205403
0.204077
0.183399
0.183676
0.183095
0.200713
0.199638
0.200424
0.199556
0.200577
0.2045
0.20065
0.198954
0.198674
0.175041
0.172161
0.202016
0.201838
0.199127
0.183098
0.206747
0.208585
0.193679
0.186909
0.20084
0.191267
0.181987
0.17681
0.19866
0.199749
0.200408
0.201419
0.199966
0.20369
0.204236
0.200446
0.175286
0.178081
0.177816
0.177712
0.196348
0.182353
0.202169
0.188769
0.198722
0.19506
0.19218
0.187667
0.184163
0.188048
0.193053
0.191271
0.209798
0.206286
0.210863
0.208415
0.199478
0.198356
0.199561
0.198853
0.198301
0.198625
0.197916
0.197556
0.197456
0.184099
0.199376
0.198826
0.199324
0.198281
0.188257
0.185155
0.188929
0.187222
0.198598
0.198497
0.197598
0.208321
0.205771
0.20558
0.204867
0.200448
0.202205
0.178546
0.178075
0.178431
0.178662
0.200543
0.197095
0.194462
0.195389
0.184856
0.182034
0.205085
0.204597
0.197301
0.191729
0.193517
0.19662
0.194629
0.194299
0.196272
0.180534
0.198041
0.197765
0.19802
0.197997
0.17697
0.17774
0.183441
0.192213
0.17822
0.17815
0.178871
0.178742
0.206256
0.192534
0.196269
0.192684
0.194219
0.199834
0.201794
0.202196
0.200534
0.153348
0.201706
0.202426
0.199659
0.197687
0.204652
0.198674
0.208977
0.20278
0.201444
0.204204
0.202401
0.183465
0.17945
0.146569
0.143801
0.140028
0.121985
0.170071
0.159801
0.207141
0.20504
0.206528
0.208001
0.175865
0.174882
0.131718
0.161074
0.180962
0.18528
0.181162
0.183911
0.175936
0.175448
0.144464
0.144127
0.206948
0.20702
0.207484
0.19317
0.20762
0.196035
0.203638
0.178505
0.179626
0.189235
0.183705
0.196455
0.188596
0.198804
0.197803
0.188761
0.191123
0.193392
0.194081
0.191046
0.194954
0.191754
0.195504
0.178227
0.178747
0.207758
0.203421
0.189915
0.192117
0.203665
0.206304
0.205573
0.203825
0.202673
0.200696
0.203863
0.179196
0.183833
0.181159
0.206477
0.206159
0.205805
0.205952
0.158362
0.173938
0.209045
0.209033
0.211684
0.210132
0.204099
0.209155
0.204654
0.203528
0.202797
0.199064
0.200981
0.185223
0.155811
0.205549
0.204516
0.201962
0.202718
0.201074
0.199412
0.199019
0.199965
0.198479
0.199658
0.180677
0.165458
0.182092
0.189254
0.187295
0.200569
0.208302
0.206426
0.207044
0.202099
0.20678
0.201769
0.190491
0.188489
0.187185
0.187916
0.194061
0.192859
0.196005
0.194888
0.19292
0.20126
0.190211
0.195044
0.14519
0.143823
0.210269
0.212146
0.212154
0.211876
0.17589
0.140895
0.168141
0.203251
0.202221
0.202523
0.203213
0.2005
0.200994
0.203494
0.203574
0.198913
0.200044
0.198846
0.198215
0.195113
0.1952
0.175345
0.152066
0.14539
0.154523
0.13824
0.170276
0.186466
0.187832
0.201252
0.203421
0.203361
0.204416
0.201084
0.204871
0.200924
0.204075
0.2004
0.193126
0.19585
0.193272
0.194812
0.183924
0.184455
0.167099
0.157278
0.20383
0.202568
0.136978
0.140015
0.184719
0.195075
0.177048
0.174864
0.175609
0.177962
0.177617
0.17577
0.1985
0.198773
0.195717
0.197891
0.18517
0.184729
0.185699
0.211519
0.210476
0.207529
0.208461
0.207263
0.209219
0.183411
0.180844
0.180889
0.178146
0.202504
0.202489
0.202772
0.202674
0.214667
0.214694
0.214283
0.211974
0.214004
0.208656
0.207074
0.212797
0.20993
0.181065
0.182141
0.178935
0.179495
0.181971
0.190396
0.189756
0.14528
0.201185
0.202372
0.200961
0.202137
0.178545
0.189338
0.18718
0.197433
0.197105
0.184525
0.186434
0.183699
0.184215
0.202446
0.202946
0.187616
0.184577
0.180589
0.204452
0.204266
0.202138
0.198481
0.161776
0.186152
0.182319
0.179714
0.178845
0.179344
0.157337
0.154641
0.174844
0.175539
0.175314
0.174374
0.204805
0.206659
0.203986
0.19716
0.199334
0.150173
0.154061
0.182686
0.176697
0.186111
0.178246
0.178195
0.178128
0.177558
0.177785
0.206125
0.18412
0.202703
0.200662
0.199868
0.198975
0.151943
0.197116
0.197821
0.182716
0.188897
0.183096
0.19611
0.193289
0.192202
0.191079
0.196112
0.196681
0.196214
0.19633
0.152655
0.15573
0.200227
0.202502
0.201269
0.203885
0.182474
0.183304
0.182082
0.211989
0.212697
0.209559
0.177621
0.176056
0.175952
0.176318
0.187387
0.196471
0.189559
0.190496
0.195611
0.156777
0.157354
0.157761
0.206466
0.207069
0.205903
0.206674
0.212442
0.212934
0.211994
0.178187
0.177682
0.178246
0.177991
0.18427
0.205834
0.175597
0.174834
0.175245
0.174856
0.174858
0.20248
0.203605
0.203656
0.201866
0.202757
0.144535
0.198172
0.195117
0.184107
0.186076
0.186573
0.184324
0.183041
0.180264
0.179605
0.205692
0.205734
0.204934
0.205849
0.193783
0.193042
0.200678
0.196326
0.202479
0.179989
0.182352
0.200767
0.202022
0.193077
0.193031
0.193264
0.188699
0.198927
0.199306
0.206852
0.210089
0.20874
0.206587
0.207089
0.20929
0.178651
0.195939
0.193073
0.17859
0.179871
0.181474
0.180952
0.177791
0.17869
0.192457
0.178917
0.182235
0.174366
0.191783
0.191782
0.191496
0.192528
0.205521
0.205749
0.204956
0.205599
0.202141
0.205013
0.202803
0.204313
0.150481
0.148107
0.164757
0.167251
0.177166
0.183628
0.18222
0.181524
0.180128
0.175487
0.178748
0.17717
0.182205
0.17877
0.18077
0.177866
0.199888
0.198546
0.182774
0.1955
0.195165
0.197129
0.193768
0.19627
0.18438
0.187352
0.179191
0.167039
0.177083
0.160424
0.183425
0.179239
0.172171
0.205382
0.205932
0.205137
0.210986
0.21057
0.2139
0.212355
0.179972
0.17646
0.202573
0.202981
0.178263
0.179231
0.178676
0.174174
0.173811
0.181152
0.18275
0.182756
0.197239
0.197022
0.197829
0.198707
0.198865
0.206453
0.201126
0.206816
0.205009
0.201461
0.204184
0.203
0.183395
0.191959
0.201182
0.200576
0.178044
0.178323
0.17818
0.178457
0.178966
0.138231
0.142107
0.18343
0.18328
0.183509
0.144757
0.156833
0.136828
0.164632
0.169103
0.18309
0.183169
0.177457
0.157172
0.163081
0.170763
0.16194
0.212344
0.211221
0.210964
0.211013
0.210179
0.203379
0.19279
0.206799
0.204502
0.185736
0.184864
0.182015
0.191875
0.193176
0.179689
0.170129
0.114524
0.175043
0.202946
0.198897
0.200358
0.203292
0.191625
0.194373
0.19287
0.196452
0.195706
0.174813
0.173788
0.175507
0.18182
0.181014
0.180761
0.181715
0.151392
0.145386
0.145305
0.213272
0.210894
0.209965
0.201151
0.148168
0.148107
0.17633
0.177382
0.176044
0.187066
0.188672
0.188671
0.185514
0.183582
0.182483
0.209141
0.208559
0.152401
0.179425
0.205552
0.20401
0.202619
0.193249
0.193595
0.193927
0.196047
0.19869
0.196175
0.185374
0.183962
0.201512
0.203866
0.198459
0.197781
0.197047
0.197197
0.198262
0.197039
0.17602
0.167867
0.169275
0.183275
0.184308
0.186491
0.204047
0.203702
0.203643
0.202397
0.198982
0.195693
0.174764
0.174281
0.161058
0.118457
0.186325
0.187922
0.187764
0.205426
0.207262
0.206469
0.177976
0.178734
0.178493
0.178795
0.178236
0.146428
0.151258
0.174394
0.207876
0.198684
0.177206
0.202331
0.199397
0.202867
0.201012
0.198644
0.154241
0.174869
0.160557
0.137131
0.124795
0.14013
0.181658
0.181911
0.180031
0.179984
0.179418
0.178886
0.178729
0.179398
0.197246
0.176034
0.175819
0.174689
0.176646
0.175596
0.211943
0.210123
0.205626
0.204449
0.184014
0.198757
0.201272
0.196623
0.18804
0.189241
0.189678
0.206701
0.204446
0.207001
0.203214
0.200911
0.196546
0.201494
0.190699
0.1912
0.192604
0.195587
0.18925
0.194081
0.203414
0.205674
0.205547
0.20562
0.203508
0.204508
0.199468
0.201814
0.202113
0.198732
0.20031
0.202731
0.201215
0.201519
0.200723
0.202432
0.203211
0.186725
0.195731
0.198085
0.185568
0.194121
0.176222
0.175163
0.178466
0.176468
0.179838
0.178188
0.206135
0.209607
0.207263
0.209119
0.200911
0.203378
0.201946
0.186212
0.184699
0.179342
0.181431
0.178378
0.17844
0.133996
0.130203
0.205639
0.205555
0.205689
0.205013
0.176741
0.17583
0.174323
0.17669
0.175713
0.20299
0.203537
0.18677
0.185159
0.185181
0.18169
0.181737
0.184872
0.192032
0.191378
0.191815
0.190975
0.178974
0.17963
0.178873
0.179171
0.203651
0.205305
0.205348
0.204908
0.201986
0.202379
0.187087
0.173579
0.156728
0.137442
0.166894
0.142505
0.141296
0.180053
0.180297
0.181327
0.181825
0.188964
0.198875
0.193673
0.198662
0.193839
0.178641
0.178197
0.17825
0.144154
0.144716
0.203817
0.203882
0.187495
0.182579
0.185487
0.182772
0.18099
0.208716
0.210052
0.208572
0.208963
0.209619
0.210528
0.189281
0.188816
0.190131
0.18716
0.135321
0.131668
0.185702
0.18512
0.181474
0.144325
0.172747
0.171143
0.191382
0.185639
0.143055
0.211464
0.211687
0.175058
0.194504
0.193248
0.193353
0.194271
0.193042
0.193168
0.17502
0.174766
0.175882
0.175804
0.193144
0.194754
0.193269
0.194053
0.193154
0.194767
0.193273
0.19412
0.179761
0.178144
0.199209
0.134598
0.13015
0.18812
0.177092
0.177002
0.177466
0.177654
0.148347
0.167101
0.162574
0.128695
0.134231
0.206806
0.200356
0.181104
0.183398
0.170068
0.19779
0.1974
0.19409
0.194091
0.206075
0.205506
0.209086
0.208527
0.187161
0.170767
0.18808
0.188811
0.152788
0.153773
0.145595
0.18682
0.191837
0.190074
0.186884
0.190774
0.201844
0.202928
0.201813
0.16346
0.149132
0.175832
0.174056
0.19005
0.192609
0.195645
0.195931
0.190058
0.192122
0.204766
0.202546
0.205151
0.20466
0.202353
0.200963
0.190565
0.195445
0.191145
0.19373
0.197354
0.198377
0.199405
0.199984
0.17336
0.172761
0.175116
0.175842
0.184227
0.184001
0.204416
0.206274
0.204873
0.183467
0.183481
0.183478
0.20263
0.200591
0.201886
0.202406
0.203202
0.182921
0.200667
0.19747
0.200134
0.198938
0.198001
0.195964
0.19456
0.193748
0.195292
0.203145
0.205525
0.206071
0.206966
0.130866
0.12911
0.177867
0.177722
0.196861
0.189577
0.186617
0.187899
0.189965
0.189832
0.187293
0.189182
0.191285
0.191291
0.192632
0.191452
0.191751
0.193365
0.191577
0.192661
0.188942
0.186913
0.187692
0.186574
0.185758
0.184672
0.185881
0.184274
0.184519
0.205878
0.205704
0.206522
0.205999
0.20732
0.191254
0.186606
0.194005
0.192146
0.189836
0.18351
0.1863
0.187594
0.187443
0.203989
0.202469
0.174164
0.17244
0.183028
0.186008
0.190756
0.191185
0.189849
0.190167
0.192785
0.191282
0.199819
0.190244
0.19547
0.194966
0.196602
0.161939
0.153718
0.179204
0.18073
0.180017
0.179355
0.180504
0.189291
0.177402
0.17903
0.178349
0.176959
0.176404
0.176493
0.175035
0.212753
0.21436
0.213617
0.212239
0.213176
0.208308
0.207054
0.202503
0.186719
0.188381
0.185358
0.185136
0.180614
0.184246
0.182585
0.181298
0.179941
0.176637
0.177254
0.177168
0.177383
0.177604
0.177485
0.134741
0.138371
0.206016
0.203693
0.205784
0.184918
0.178939
0.182729
0.154067
0.143488
0.150576
0.194378
0.191433
0.191643
0.202787
0.201029
0.195623
0.193753
0.199619
0.194862
0.182462
0.177421
0.182717
0.171956
0.204546
0.205098
0.203965
0.20253
0.202429
0.17667
0.176908
0.177069
0.185181
0.194471
0.186369
0.19174
0.192622
0.190082
0.187332
0.19251
0.189007
0.164445
0.151342
0.174618
0.182178
0.183383
0.184912
0.185045
0.176108
0.176313
0.176351
0.176605
0.186789
0.191244
0.183899
0.183619
0.140899
0.157634
0.151838
0.155021
0.172847
0.173462
0.174985
0.186979
0.184725
0.184181
0.199552
0.197849
0.196332
0.197519
0.201014
0.201951
0.176924
0.177168
0.179527
0.173857
0.199699
0.197885
0.19627
0.199315
0.197216
0.196144
0.199603
0.19796
0.199065
0.197073
0.198704
0.19874
0.201172
0.179685
0.18168
0.175893
0.176319
0.175442
0.205859
0.20563
0.205761
0.204893
0.204823
0.204203
0.116413
0.130031
0.172516
0.161116
0.167317
0.145762
0.180442
0.182842
0.182347
0.181056
0.182277
0.197539
0.197506
0.197733
0.19812
0.197998
0.194088
0.190874
0.192633
0.192356
0.19004
0.183295
0.183479
0.183391
0.18327
0.183523
0.183952
0.1896
0.187345
0.189624
0.1876
0.186603
0.198506
0.198819
0.196722
0.200367
0.199981
0.201695
0.202379
0.20159
0.202726
0.202375
0.185706
0.194041
0.174805
0.194765
0.195691
0.198698
0.204854
0.204772
0.193595
0.192346
0.19236
0.149723
0.159236
0.144949
0.148442
0.212634
0.212413
0.21282
0.213814
0.211855
0.213303
0.214277
0.214346
0.201499
0.203302
0.197909
0.196015
0.194727
0.19592
0.177539
0.1764
0.175662
0.179978
0.177915
0.179373
0.178992
0.177689
0.159134
0.144344
0.149615
0.149273
0.175645
0.176226
0.176474
0.184275
0.183008
0.180653
0.180958
0.186751
0.185551
0.129917
0.145174
0.156307
0.193481
0.195852
0.182208
0.184236
0.179902
0.177487
0.184079
0.185267
0.184957
0.185569
0.199851
0.198771
0.198769
0.198478
0.198555
0.191713
0.197528
0.197783
0.193353
0.178178
0.178134
0.182532
0.193296
0.193986
0.198696
0.197408
0.202875
0.203429
0.203377
0.202827
0.203659
0.203505
0.201893
0.201606
0.202946
0.202601
0.204684
0.176949
0.138618
0.128001
0.202738
0.202674
0.203145
0.203208
0.203047
0.20307
0.185904
0.189588
0.197468
0.199255
0.188971
0.196249
0.150015
0.167374
0.143027
0.149597
0.179006
0.190097
0.196737
0.189295
0.196317
0.177699
0.172889
0.183493
0.18441
0.184749
0.198987
0.175066
0.18292
0.183563
0.199775
0.199128
0.201681
0.202301
0.202014
0.197508
0.196617
0.196931
0.198382
0.197927
0.20174
0.201081
0.201371
0.202283
0.202094
0.17813
0.17823
0.177371
0.177553
0.177466
0.17776
0.178322
0.181482
0.180899
0.182267
0.183859
0.183067
0.120824
0.191685
0.192197
0.194965
0.193983
0.195826
0.173076
0.197915
0.201799
0.202126
0.194748
0.198253
0.183058
0.183351
0.183223
0.18314
0.182857
0.203475
0.2018
0.205112
0.203527
0.204226
0.186999
0.193056
0.196611
0.192347
0.18726
0.188974
0.191154
0.191144
0.18647
0.188068
0.197871
0.196888
0.19573
0.193732
0.194598
0.193321
0.19023
0.196113
0.176137
0.17454
0.175075
0.177309
0.177629
0.204178
0.202769
0.204523
0.200729
0.200552
0.19118
0.178556
0.196552
0.189589
0.203182
0.210031
0.206831
0.185776
0.184999
0.184441
0.181836
0.182845
0.18273
0.181953
0.180837
0.135033
0.13134
0.128191
0.168476
0.160813
0.173567
0.173062
0.176829
0.175613
0.175288
0.176551
0.175122
0.174585
0.187114
0.186671
0.188283
0.18929
0.189752
0.202852
0.202844
0.200014
0.197572
0.197041
0.200919
0.201563
0.152698
0.163951
0.174819
0.171413
0.156611
0.131696
0.128421
0.197073
0.196339
0.194727
0.195529
0.194219
0.183625
0.15508
0.17459
0.133594
0.128196
0.12865
0.195415
0.197275
0.197898
0.199797
0.199581
0.197929
0.196865
0.198348
0.200604
0.199566
0.197939
0.197895
0.198217
0.197592
0.197388
0.198142
0.19761
0.184403
0.183719
0.184615
0.18636
0.186613
0.187777
0.18611
0.18714
0.207492
0.209111
0.211222
0.172038
0.147634
0.142164
0.151448
0.176761
0.168521
0.198895
0.19826
0.190029
0.194017
0.202232
0.201449
0.201966
0.186335
0.183386
0.188869
0.203652
0.204568
0.204011
0.205939
0.205276
0.206119
0.206323
0.20554
0.204988
0.20566
0.205751
0.205227
0.205632
0.204758
0.174766
0.18264
0.16366
0.162256
0.17747
0.176682
0.176526
0.175305
0.207826
0.207365
0.207633
0.169181
0.176438
0.163109
0.184266
0.186063
0.175487
0.176541
0.200759
0.199079
0.198705
0.198479
0.173909
0.174765
0.172937
0.183318
0.18401
0.204985
0.203983
0.20244
0.132667
0.137279
0.205044
0.204733
0.202977
0.203415
0.204725
0.190242
0.187948
0.191672
0.193253
0.194045
0.197562
0.19607
0.200422
0.199837
0.176516
0.170836
0.177914
0.152886
0.130226
0.120263
0.183603
0.186089
0.183964
0.187872
0.186232
0.19755
0.197465
0.201161
0.198486
0.197612
0.198197
0.197833
0.197469
0.137703
0.134248
0.128629
0.171075
0.165832
0.14439
0.184278
0.185943
0.18516
0.186564
0.184288
0.183793
0.181335
0.180191
0.181389
0.182143
0.180171
0.179887
0.179726
0.177765
0.178376
0.180108
0.176283
0.175903
0.183894
0.183789
0.182952
0.183163
0.183023
0.18341
0.160201
0.149163
0.156643
0.208464
0.207597
0.200932
0.176133
0.176653
0.176065
0.176423
0.176351
0.176623
0.208503
0.207363
0.204658
0.20521
0.206006
0.202195
0.202589
0.179798
0.180546
0.179953
0.178607
0.178865
0.196018
0.193275
0.199003
0.20497
0.201676
0.196928
0.193456
0.192291
0.196127
0.193465
0.173638
0.173654
0.200264
0.199775
0.196768
0.196767
0.195335
0.204869
0.203894
0.204804
0.204695
0.204217
0.201201
0.200144
0.196508
0.190261
0.200287
0.199085
0.190974
0.204911
0.204742
0.204236
0.206041
0.204988
0.204482
0.202537
0.20327
0.204442
0.203359
0.198198
0.198289
0.18331
0.183275
0.182965
0.18305
0.202395
0.201705
0.194802
0.185594
0.198573
0.196044
0.197424
0.193945
0.19359
0.194663
0.196388
0.18879
0.198361
0.192589
0.197375
0.201822
0.200685
0.201384
0.201899
0.207329
0.205135
0.199005
0.201163
0.202095
0.194849
0.194366
0.197425
0.198248
0.19664
0.20453
0.203846
0.199333
0.203185
0.197033
0.202128
0.202935
0.200433
0.199683
0.199646
0.211606
0.212192
0.212667
0.20044
0.196612
0.197731
0.213032
0.209922
0.211636
0.199657
0.201486
0.200989
0.201312
0.198987
0.211892
0.210011
0.20429
0.210406
0.206134
0.178145
0.190015
0.196536
0.193164
0.182516
0.184334
0.183365
0.184316
0.177245
0.176885
0.196071
0.196872
0.198743
0.195068
0.20359
0.198739
0.199694
0.200269
0.187631
0.185779
0.184507
0.185805
0.187869
0.173541
0.173024
0.177087
0.175951
0.177216
0.17791
0.177803
0.201222
0.201707
0.202594
0.202177
0.202777
0.198819
0.195872
0.212457
0.212225
0.211195
0.211458
0.211437
0.146506
0.1913
0.185455
0.186685
0.19298
0.190388
0.187345
0.200413
0.199766
0.2057
0.204049
0.211321
0.200239
0.189071
0.179723
0.183158
0.1829
0.183097
0.18341
0.182482
0.184307
0.183687
0.183897
0.183213
0.201038
0.199323
0.200754
0.199459
0.201258
0.198355
0.197628
0.196664
0.201843
0.201646
0.201081
0.201945
0.201247
0.176343
0.165462
0.147534
0.152362
0.170792
0.133607
0.125432
0.201713
0.202996
0.201853
0.198552
0.189841
0.203251
0.199089
0.196544
0.200227
0.202226
0.198609
0.197057
0.198162
0.195217
0.19573
0.194844
0.193706
0.195598
0.193663
0.195219
0.194247
0.195084
0.194186
0.195038
0.195763
0.201187
0.201871
0.201444
0.201746
0.201791
0.201586
0.204448
0.189912
0.201536
0.194108
0.21104
0.207984
0.212321
0.12598
0.119108
0.17418
0.159451
0.143925
0.169852
0.147893
0.195181
0.19371
0.194628
0.193497
0.194364
0.196549
0.197641
0.198892
0.197253
0.199984
0.199426
0.202322
0.201708
0.203915
0.203201
0.203957
0.204006
0.204561
0.203532
0.203344
0.205297
0.205671
0.20541
0.197463
0.198573
0.195341
0.194861
0.193793
0.193526
0.19439
0.201916
0.200165
0.201278
0.196028
0.195549
0.196575
0.198456
0.198044
0.197128
0.197065
0.197923
0.195502
0.194619
0.195221
0.150896
0.180328
0.154156
0.172346
0.131185
0.126384
0.200668
0.200076
0.199126
0.200533
0.199758
0.202434
0.201664
0.202264
0.201694
0.201979
0.183294
0.182894
0.183262
0.182925
0.182979
0.182973
0.170215
0.177587
0.177001
0.181134
0.184866
0.167806
0.161811
0.203828
0.20397
0.179954
0.180159
0.179334
0.178638
0.186903
0.186463
0.177696
0.178108
0.182309
0.179874
0.179202
0.182327
0.159
0.162972
0.207442
0.206565
0.187847
0.204015
0.197064
0.193881
0.202049
0.211859
0.212971
0.208952
0.209959
0.212397
0.197125
0.201332
0.202817
0.181124
0.168822
0.144678
0.139729
0.200924
0.202582
0.201182
0.175646
0.190639
0.192797
0.191328
0.189286
0.188882
0.117873
0.128568
0.137609
0.108806
0.159297
0.136503
0.177327
0.178035
0.177817
0.201793
0.200362
0.201726
0.201001
0.200443
0.201667
0.186896
0.19676
0.191387
0.198542
0.200444
0.203361
0.204586
0.204525
0.202785
0.203634
0.205036
0.205195
0.204215
0.204096
0.205019
0.201404
0.200681
0.202233
0.160295
0.178146
0.162673
0.185463
0.193502
0.190018
0.189392
0.189847
0.189584
0.190021
0.179376
0.178881
0.176544
0.174734
0.177241
0.176424
0.177094
0.202656
0.203473
0.194389
0.183209
0.207686
0.184846
0.182403
0.194206
0.194122
0.194832
0.19968
0.200447
0.201522
0.20499
0.200122
0.202718
0.204787
0.204727
0.205574
0.178229
0.15171
0.159422
0.175282
0.144689
0.158429
0.144915
0.186484
0.185909
0.186034
0.176978
0.176899
0.203704
0.206177
0.197594
0.190184
0.198704
0.177748
0.177806
0.188899
0.186519
0.178811
0.178389
0.210691
0.197437
0.199001
0.195876
0.174837
0.174906
0.20241
0.201793
0.200859
0.200176
0.19849
0.196522
0.189504
0.186805
0.201089
0.200095
0.202131
0.201558
0.174581
0.183282
0.177595
0.120256
0.121384
0.0971587
0.131142
0.136323
0.199616
0.197707
0.164568
0.198943
0.19851
0.132834
0.132934
0.19635
0.104297
0.203001
0.135662
0.125542
0.126729
0.123355
0.130089
0.132633
0.128422
0.121113
0.116807
0.107392
0.130377
0.137238
0.131779
0.128264
0.128108
0.132508
0.125354
0.132558
0.173418
0.126265
0.121074
0.134198
0.132522
0.129908
0.126978
0.111704
0.139049
0.13723
0.122697
0.165812
0.169122
0.140441
0.131548
0.135254
0.171603
0.123822
0.135551
0.105158
0.0964766
0.097901
0.158491
0.127011
0.124765
0.116626
0.138169
0.142042
0.141216
0.132085
0.122369
0.130808
0.183847
0.192244
0.171712
0.169253
0.173662
0.144082
0.144448
0.138002
0.137416
0.137018
0.135098
0.127971
0.166727
0.140937
0.203098
0.201568
0.198278
0.198493
0.143246
0.149344
0.134799
0.139071
0.161587
0.131415
0.163926
0.147185
0.143449
0.144454
0.145445
0.135228
0.133843
0.126248
0.129132
0.11909
0.127271
0.141192
0.135606
0.141389
0.137456
0.138648
0.128043
0.137156
0.13908
0.172125
0.158092
0.138419
0.135084
0.140665
0.203137
0.156286
0.130142
0.158514
0.196327
0.192587
0.187909
0.164449
0.171575
0.162901
0.129249
0.139499
0.13302
0.136277
0.138831
0.130816
0.136618
0.192561
0.115256
0.112292
0.144928
0.1325
0.145939
0.142332
0.127615
0.140229
0.141029
0.130519
0.143158
0.201445
0.202337
0.141094
0.132084
0.144611
0.120929
0.124485
0.14042
0.129862
0.1386
0.16212
0.170055
0.127512
0.125411
0.134611
0.126506
0.159585
0.161981
0.180901
0.200493
0.198928
0.199639
0.159777
0.131163
0.165639
0.166156
0.175479
0.175542
0.178955
0.169026
0.173174
0.134566
0.130957
0.129408
0.133896
0.128636
0.135573
0.12859
0.114277
0.105506
0.102617
0.150574
0.162464
0.169748
0.162447
0.171128
0.126683
0.132166
0.137169
0.130587
0.131592
0.136149
0.134634
0.129362
0.123719
0.162725
0.168436
0.17289
0.171948
0.180194
0.178915
0.175091
0.175641
0.128991
0.139596
0.177382
0.173096
0.167096
0.171471
0.136447
0.141055
0.183858
0.143507
0.141552
0.146719
0.148066
0.170845
0.161504
0.169877
0.117296
0.201337
0.20041
0.20229
0.13471
0.133814
0.108992
0.153586
0.147125
0.167221
0.171643
0.11015
0.108739
0.0894987
0.0910922
0.131999
0.0918537
0.098751
0.0985604
0.16372
0.171641
0.169974
0.164962
0.170701
0.161013
0.144486
0.138981
0.128225
0.18753
0.184044
0.200995
0.202724
0.203662
0.204107
0.204039
0.161159
0.168981
0.148044
0.13612
0.140954
0.132839
0.101267
0.0958887
0.089013
0.0880038
0.136121
0.13497
0.168228
0.163037
0.170144
0.130133
0.124634
0.120762
0.129411
0.169181
0.162246
0.170111
0.186878
0.188535
0.183791
0.183101
0.185171
0.180002
0.163904
0.190691
0.188622
0.185815
0.177564
0.176717
0.180778
0.1319
0.117942
0.193677
0.188775
0.131393
0.12031
0.12827
0.139913
0.141142
0.135821
0.203984
0.203628
0.203792
0.13461
0.124593
0.135968
0.135967
0.136093
0.170749
0.174426
0.160505
0.126788
0.161016
0.140099
0.134785
0.12903
0.134771
0.129351
0.162219
0.132137
0.121457
0.191635
0.19455
0.189881
0.179603
0.18963
0.167906
0.162751
0.144561
0.137274
0.137501
0.163225
0.169271
0.123445
0.115162
0.116276
0.160987
0.167604
0.105237
0.149202
0.140709
0.120907
0.128837
0.127031
0.134982
0.150221
0.142463
0.161575
0.16787
0.167501
0.133317
0.164951
0.129313
0.127008
0.117564
0.143286
0.144925
0.134769
0.131688
0.173359
0.175962
0.129316
0.129834
0.127806
0.113335
0.172871
0.168772
0.115371
0.11373
0.159515
0.16732
0.163205
0.169593
0.170138
0.134799
0.120829
0.121867
0.169445
0.16251
0.167877
0.143574
0.131825
0.131704
0.118216
0.121301
0.192464
0.190545
0.164859
0.169987
0.16918
0.126715
0.122558
0.127941
0.135872
0.129031
0.128617
0.130636
0.139686
0.168255
0.160218
0.168294
0.144203
0.169649
0.164925
0.170746
0.169827
0.144973
0.141873
0.132017