/*--------------------------------*- C++ -*----------------------------------*\
| =========                 |                                                 |
| \\      /  F ield         | OpenFOAM: The Open Source CFD Toolbox           |
|  \\    /   O peration     | Version:  2206                                  |
|   \\  /    A nd           | Website:  www.openfoam.com                      |
|    \\/     M anipulation  |                                                 |
\*---------------------------------------------------------------------------*/
FoamFile
{
    version     2.0;
    format      ascii;
    arch        "LSB;label=32;scalar=64";
    class       volScalarField;
    location    "140";
    object      p;
}
// * * * * * * * * * * * * * * * * * * * * * * * * * * * * * * * * * * * * * //

dimensions      [0 2 -2 0 0 0 0];

internalField   nonuniform List<scalar> 
184166
(
42.7171
125.648
9.73361
32.7271
60.9094
16.0355
13.6085
10.6851
41.848
63.9044
22.9291
4.62107
6.6954
74.4248
56.781
42.9785
28.57
93.8164
18.8378
61.8103
19.88
11.2064
16.6033
65.8828
33.0487
54.9454
64.1155
12.715
53.1296
6.90669
42.3523
130.72
49.7613
76.3877
27.718
2.05147
6.53629
24.1412
68.7724
128.864
80.4669
2.63818
52.1152
87.6528
26.6697
81.4561
129.662
66.1542
26.6389
54.4209
15.4494
131.545
15.2995
36.5798
28.1705
11.3972
25.4091
29.0388
51.3895
65.0654
3.59812
63.576
40.9687
14.6228
58.0665
11.5949
125.021
58.7442
13.6085
61.2187
10.6218
68.0211
51.6119
39.8741
20.0652
20.8187
104.367
41.0167
107.076
123.889
125.269
110.696
62.8473
13.0907
44.0231
34.8013
19.21
18.2209
88.9271
20.4161
12.5365
59.1982
42.8877
67.0784
41.5198
130.061
35.9758
131.981
18.4401
41.7099
6.75648
3.55852
41.9289
52.8983
13.996
24.0567
42.6033
60.6156
12.9882
4.09491
127.84
50.9738
132.573
17.4189
59.0107
72.355
54.7971
17.8869
127.316
127.104
42.0758
2.92556
26.338
25.7407
22.642
41.0063
27.0055
29.7626
49.54
50.6762
7.0061
28.1463
81.3658
91.7482
24.3041
1.47083
23.391
72.0923
88.7001
18.9065
33.4466
14.131
13.7124
3.031
71.3432
60.3318
10.3245
54.9232
12.2142
59.0527
64.3455
59.8531
43.3339
36.4087
50.1499
52.2546
44.3996
40.9858
39.1006
17.0284
132.537
15.771
10.194
25.9171
108.39
28.6328
57.2587
55.8763
12.6308
57.4798
29.5906
43.5046
13.6851
71.5492
28.8614
126.863
22.1611
46.1823
50.7104
72.4863
12.5204
1.85867
77.9121
60.0823
62.916
35.2291
55.3489
66.6798
130.876
13.3483
92.0926
51.5476
9.67963
132.04
7.02623
58.6627
56.0128
36.4317
13.6555
63.5391
24.8464
52.0519
12.5003
94.9801
129.064
35.2994
5.67291
7.22613
84.1747
31.8587
50.9412
10.0153
7.70019
67.9424
119.175
26.0184
75.2812
17.2605
16.1591
128.624
109.558
11.7471
11.8606
3.81709
129.758
6.01202
22.314
26.2193
32.1334
10.3359
54.313
113.463
26.4637
2.19767
43.513
4.46126
53.7993
51.8129
3.14778
131.505
132.679
42.1054
35.2143
51.8029
15.6465
63.2558
55.1429
6.09142
75.2274
65.8863
70.0987
62.9292
51.9711
6.29699
69.731
47.9369
56.8506
56.1292
86.4269
2.2016
69.1076
128.485
27.2269
83.1582
49.4354
33.7292
43.1181
23.0861
34.4726
68.0119
55.2792
17.0777
71.0795
52.2505
2.49143
97.4417
131.388
56.8695
110.399
59.8212
6.54744
50.9327
54.7458
31.3296
129.464
8.14492
9.47038
57.6524
97.1704
8.65531
66.5624
67.4756
53.1363
30.1353
48.6791
68.1006
12.2909
41.0712
73.1572
58.811
27.3069
10.6036
16.5944
55.9093
64.5257
79.3049
30.1048
4.75425
21.3199
12.9958
30.4764
53.3404
51.5747
60.6767
57.9426
59.4
101.028
67.4436
23.908
68.7816
20.6121
22.4337
74.8049
65.8263
95.6439
13.844
92.7221
101.946
6.68062
26.5623
25.912
17.7301
17.2491
50.9888
13.122
85.4369
6.29399
9.96839
59.0263
64.8114
91.4282
45.4901
56.7486
68.1003
87.5778
65.0475
121.319
13.0224
31.1489
15.1938
129.679
27.941
52.6216
126.55
21.4993
62.3152
48.0682
87.36
60.7134
54.6257
110.085
12.3553
50.5327
111.841
41.9259
70.0546
13.3943
121.595
124.528
12.6566
131.285
53.7525
52.9046
68.9741
73.0796
73.1531
7.93811
55.3487
0.940238
62.4714
62.1949
61.5073
50.6508
50.9212
44.156
75.3309
70.9833
113.459
31.5036
32.9054
39.2144
43.9637
42.1265
132.324
12.4377
12.6026
71.2621
92.7197
12.2466
85.9666
54.653
6.98336
49.4756
16.2642
15.5163
84.9679
74.0156
71.7749
55.4614
108.076
99.6223
23.5996
23.9323
21.3146
21.4054
123.256
25.1915
22.1263
20.1962
17.0197
50.8274
75.0121
78.3897
74.8398
70.5206
12.982
14.0387
15.4742
8.47379
9.31279
9.73842
125.609
49.9669
49.9013
48.9434
47.8692
47.4902
46.6211
31.8008
32.7419
9.98777
10.7104
10.5475
9.70691
11.4308
11.6054
12.0092
11.1219
61.9216
61.3423
60.5285
61.6747
59.7341
59.9099
58.2643
24.7815
23.5153
24.2621
25.0755
79.8663
1.70638
128.93
130.598
131.043
130.794
125.194
130.777
127.612
14.3818
14.1041
15.7605
14.9642
24.2332
25.1213
3.76855
7.09971
8.82412
9.69099
48.2205
50.5495
49.4357
50.4578
12.5653
12.6072
2.2518
3.40216
2.9053
5.12284
4.18498
4.53736
66.0556
5.39731
6.17988
6.13987
130.299
40.567
36.2143
34.5184
37.5997
39.0352
37.405
37.5527
23.4571
22.4728
23.959
23.3166
20.8203
20.9977
23.941
37.8016
37.2929
12.7877
12.6721
131.874
88.3635
78.1125
78.0407
54.056
52.5096
53.7812
53.2561
61.0337
65.2433
16.0843
17.0022
16.1816
15.7075
84.135
82.4888
73.2909
78.7125
57.3593
56.9901
56.243
67.9059
63.3962
65.3416
45.2806
44.7765
44.7494
43.8013
43.8377
42.8716
40.5004
40.0497
30.5276
29.0948
18.1222
98.2884
111.863
117.086
103.62
111.523
104.24
106.956
115.74
108.214
122.979
126.624
39.6396
37.2443
39.0896
38.1752
34.4041
36.7077
36.066
35.4169
41.3394
38.7638
55.2154
56.1243
56.4579
64.7186
41.0817
65.7597
127.701
117.233
12.5993
12.5129
13.0985
12.6971
47.1376
44.1858
68.5625
75.8561
72.4862
76.7364
64.6268
69.6073
36.5293
35.3256
49.7403
48.5576
48.2413
130.064
18.2795
17.3192
17.7017
33.7455
36.0598
34.691
35.916
36.4393
38.71
37.3661
38.6395
21.4335
22.1996
22.8456
2.52894
130.245
130.5
130.411
59.1115
62.6909
62.87
61.1383
65.9997
61.7557
66.3697
64.1257
7.94679
9.0823
7.59444
8.36074
69.5579
66.1297
15.8187
11.014
11.2347
11.9571
86.905
78.5506
73.2418
68.3946
3.40853
1.91179
26.759
25.6893
25.9511
57.5124
15.4149
60.4654
58.128
59.2133
60.4312
63.0272
60.4812
61.7546
63.2445
16.2266
19.1278
10.6195
11.833
11.0821
10.5242
10.5519
38.0542
37.7586
36.8577
35.5557
35.1676
34.1356
130.751
67.6278
73.9622
67.2675
70.2665
3.30733
15.0413
16.3014
16.0163
59.5684
59.2784
58.526
121.428
131.153
130.478
124.394
125.674
130.405
60.9683
129.038
126.654
38.5189
38.4301
37.529
1.68357
2.12893
2.38567
2.57838
1.45734
1.28446
57.4719
55.1926
56.1613
57.3587
56.4111
55.6159
20.7652
20.9416
44.9005
39.4781
35.6454
36.9319
21.0266
29.095
38.8767
38.3735
62.3909
61.2592
61.1791
8.25284
7.78303
9.57548
8.44689
26.179
33.2832
59.0011
57.5834
58.7521
102.467
96.4133
16.5517
17.5177
17.6191
49.8865
23.1795
24.6964
68.0771
65.8138
67.9917
65.9608
69.9556
69.4125
9.36696
11.7053
11.5803
46.9492
39.2345
43.8647
46.6602
1.15124
113.09
132.027
131.459
131.804
45.2925
31.4819
21.6359
28.9054
44.1517
37.5955
59.818
59.1664
88.3647
82.4994
87.104
82.8187
24.8798
22.4577
25.3503
23.8295
1.8993
1.10622
1.30865
1.08085
1.71044
1.92188
6.00227
6.00851
6.06236
58.9016
31.1447
1.08178
1.43811
1.11703
61.0791
60.1336
60.1851
60.0036
52.5872
52.1053
52.9597
63.3197
22.3976
22.7662
21.8867
115.235
112.575
12.4778
12.5304
12.529
12.5563
107.565
117.219
119.453
121.091
125.259
128.137
21.1779
22.0791
62.9148
63.4265
64.659
64.5939
88.3583
81.5391
79.9554
38.1256
2.95093
3.37373
2.53609
2.64699
129.584
130.526
43.6449
43.9704
12.9291
13.9709
13.283
12.791
42.194
15.8908
20.8639
16.4841
18.4089
9.57991
10.5575
9.90559
8.84781
33.7639
85.5258
80.5602
85.682
81.7606
22.3724
22.496
38.959
21.6088
19.7087
21.8687
19.7389
85.2419
100.438
12.3618
24.0878
24.8244
64.0471
4.98329
1.65535
23.4045
21.3127
22.4163
23.8927
12.5507
12.5049
64.9783
65.9338
44.0879
53.7004
47.3887
53.3265
132.149
132.529
21.9296
22.5338
43.6014
46.1968
44.9732
114.605
87.6907
103.718
89.6728
131.911
131.076
47.0423
47.0498
49.1523
48.1285
49.4657
48.146
15.4276
19.3266
27.5943
26.1574
44.3237
50.497
41.1187
44.3243
124.145
124.793
41.3097
42.362
57.0499
57.1377
18.2341
17.2426
16.8394
17.5899
62.2094
61.2392
61.001
112.634
92.0222
105.523
9.76081
8.94662
9.47587
8.84757
23.8944
24.4142
81.2994
73.8078
72.2639
68.3992
66.4988
71.3631
68.3553
47.9253
45.6762
45.0912
43.9646
64.8059
63.0634
34.3209
32.5905
27.5126
28.8935
4.71468
3.47343
3.88661
4.48672
4.57141
4.96831
102.907
9.07964
9.19429
8.49363
7.6991
87.7058
73.3784
73.5597
83.7785
91.3851
88.4313
102.03
55.6049
54.3273
54.887
55.8867
15.6317
14.7107
17.1293
16.6042
15.2319
18.7907
19.5097
20.2415
35.8081
34.9703
82.9039
84.297
73.4473
70.699
26.1632
25.0613
25.3842
39.9721
38.8536
3.92172
3.88135
20.0635
4.72744
3.6965
3.4257
2.21121
2.90314
67.3381
63.6988
64.2376
66.2571
42.8636
42.8888
42.1993
42.0265
63.1407
69.5884
72.6134
74.6589
14.106
16.1581
16.8611
18.4639
15.4342
36.6904
35.8558
37.6076
36.6898
14.006
16.4474
13.8682
122.207
59.5071
57.4499
18.4968
17.105
47.3206
45.5229
26.0826
26.8119
17.0876
17.507
18.2172
17.4758
123.221
131.615
132.034
131.438
51.6254
51.8638
53.9302
52.9924
61.7693
60.8162
61.2128
71.9253
68.0758
67.8684
72.708
65.6096
66.0787
50.9488
38.4452
44.1163
31.8392
9.30001
11.1018
9.76816
10.5316
75.604
83.3461
76.1662
87.6248
81.6391
96.5591
99.8732
83.6069
92.8293
47.6913
52.2738
40.0606
41.944
50.2657
22.198
21.3087
41.2058
49.9035
48.9242
48.9501
48.6547
14.574
131.871
132.232
15.6134
15.3008
63.073
66.2999
61.6013
60.7549
6.85805
7.92748
115.956
128.966
87.4695
2.99524
2.71413
47.1109
44.9314
2.36688
3.09543
2.59457
132.248
132.147
131.945
51.9356
53.1101
53.6519
52.8402
128.85
128.618
35.9706
36.2975
31.5909
24.7914
26.0551
48.4533
48.1195
52.8929
53.1613
54.3971
12.4831
12.5018
12.476
12.4895
12.5218
99.4022
5.49948
86.8387
86.5555
96.8436
91.9884
28.4147
18.5553
19.3734
18.8784
18.1856
74.4232
53.2082
53.9541
54.9887
54.4112
9.15797
8.39794
8.94654
8.24968
2.58292
1.92868
62.719
63.9009
61.024
60.5924
53.2103
55.4755
49.6911
31.7885
31.9215
28.8812
33.0522
17.0945
18.7721
26.7159
123.364
103.618
115.737
120.805
109.431
5.35882
6.04523
63.2301
13.5739
15.2765
14.2393
15.3756
28.1732
28.0491
26.6753
12.7817
12.6886
12.71
12.7813
29.8116
26.7583
21.3807
15.5103
14.4332
12.5286
12.5954
1.64717
1.79647
2.60876
2.15196
2.67496
69.0404
25.1186
21.5768
131.179
131.969
130.674
132.703
132.513
83.402
86.0399
19.0786
18.1949
18.7215
17.9028
70.9378
66.1774
4.02246
3.51804
3.54242
130.078
123.839
1.0354
1.23469
13.4833
13.4204
13.8861
48.922
51.1126
50.3925
62.8973
66.988
64.9122
62.8973
65.6782
67.2811
131.319
18.0371
15.5792
113.311
116.742
103.329
101.587
123.617
125.061
11.6528
12.777
11.3885
11.9937
15.094
14.9404
15.6095
15.6694
28.8846
28.5319
26.1319
27.1475
23.8401
27.7801
23.9442
26.1754
3.63706
2.84193
109.238
115.663
102.34
73.686
82.5704
78.7568
85.4173
121.251
97.0951
103.048
50.8584
38.0549
44.0015
30.9945
77.354
77.6022
54.0918
75.2655
78.7028
82.5842
14.558
16.6374
55.4193
55.2297
68.2882
66.5632
68.3903
66.8579
79.1939
81.1897
78.8881
21.8337
22.311
21.1347
67.0803
66.3194
72.1427
68.6807
45.2449
44.4966
7.11468
7.32587
131.34
131.068
131.6
13.0432
12.9832
131.601
130.752
131.79
8.02914
7.54644
7.56097
8.79778
8.25627
23.9107
23.8947
24.7365
23.2065
23.2733
59.1973
59.6956
56.6743
57.8516
19.0059
19.0041
12.5662
12.5854
12.6828
12.7723
12.7669
14.6202
15.3566
59.0473
59.0572
58.8219
39.1745
40.2537
39.703
39.4958
40.3356
69.2582
31.3459
30.3594
30.0567
16.4306
17.0755
17.6482
79.0791
88.3138
86.8569
77.8023
82.1536
62.2078
60.1135
64.0133
63.6014
69.8516
76.0259
82.8995
45.1191
46.2154
43.9013
43.7311
67.085
131.155
20.9409
21.0442
21.861
21.7492
61.6072
60.7412
62.4124
61.0834
62.3118
11.9576
11.5114
132.64
132.725
132.564
132.44
132.6
12.743
30.5938
30.009
82.0045
86.3167
92.6517
13.3278
16.5946
17.2378
21.628
31.367
22.5542
127.453
123.699
118.128
118.092
127.866
124.334
29.1855
28.8367
29.1586
132.355
38.2201
33.1224
26.6086
14.9124
14.9898
14.8015
111.006
106.786
113.752
55.4867
46.2312
1.60763
1.92347
7.86077
7.10541
7.54561
6.81643
8.44041
7.8982
19.6819
19.0697
20.1861
52.2957
52.1848
53.7014
1.69096
1.31583
72.3191
80.6254
75.1052
81.9137
12.6463
12.5799
5.47175
68.8875
58.5508
58.2906
57.7007
10.9209
10.5793
10.2629
132.471
132.067
132.595
132.389
132.109
17.3518
18.0189
12.6982
92.8783
113.436
30.5095
30.6905
25.567
30.8621
27.2323
23.8088
32.3833
33.5866
33.4839
64.4537
65.2443
65.4927
49.7888
50.3757
132.684
132.672
132.559
132.663
132.771
132.666
55.808
14.3235
12.2926
132.509
132.298
132.134
36.847
38.4594
33.0054
29.5941
47.5477
21.1279
24.9436
19.481
17.1362
24.7685
22.502
76.726
74.7773
73.1792
70.3235
70.3423
21.8166
21.6137
15.5343
17.0391
72.0747
74.803
72.7798
75.3716
29.3538
32.6878
33.5638
33.8367
28.6754
30.2746
19.936
22.5985
22.5712
18.8764
20.296
4.26098
3.12462
4.21617
3.67947
3.24217
3.73555
37.8208
38.6733
38.2985
36.9241
37.2048
116.468
117.879
95.7829
106.936
90.2668
103.698
82.028
85.243
78.0793
79.0216
7.41708
8.57506
7.66006
68.1567
76.7577
91.4306
84.7685
132.745
132.72
20.1055
19.194
31.6973
30.4329
31.9237
30.3904
12.4901
12.494
12.4886
12.5099
12.5122
45.5079
46.9671
56.2847
56.6197
57.1605
100.165
108.097
110.427
128.6
127.359
129.542
129.466
12.4763
12.4836
12.5543
12.5995
33.4096
37.0837
38.0527
37.1683
31.0758
32.1713
54.4645
27.7051
27.8324
27.3168
26.7484
26.4417
43.0117
15.1564
21.6951
13.7312
16.838
69.1207
72.9533
69.645
74.2632
71.7839
132.551
132.592
132.763
50.9345
51.5602
1.54764
1.36927
33.9368
20.1494
27.4344
28.4155
21.667
42.373
41.9367
43.4923
44.3248
42.6353
41.8911
71.6468
66.0738
67.066
68.109
16.2398
15.6582
27.2282
29.4843
21.7915
46.8937
80.8595
85.4482
87.2452
105.983
1.50472
32.4513
32.0628
12.6872
15.8248
14.5599
14.3924
15.2134
14.087
14.4715
12.5666
11.2695
15.2162
11.5881
12.8334
14.0353
13.2649
13.7639
12.8274
14.1977
13.3234
14.0592
42.2381
36.7189
82.5375
28.5518
28.782
59.0319
12.7621
12.8329
12.6943
12.7846
63.6889
64.7663
65.0728
63.3605
64.2537
103.19
114.371
45.8839
45.4406
44.3818
20.6808
19.5606
17.2063
16.509
29.5879
32.0411
34.5468
35.4503
1.35294
1.2442
64.4201
63.5247
19.7452
19.1075
18.4166
85.1152
74.095
74.2798
91.3669
83.9333
49.0613
48.9743
49.6102
62.8665
61.9259
130.978
130.782
58.7521
58.9553
57.2598
57.7365
58.2513
57.6167
20.5661
20.7589
19.8598
19.3355
19.4556
20.1214
58.1935
56.5883
57.4726
56.6531
49.5351
51.6326
49.7097
50.6571
12.4112
12.6971
12.6521
12.6092
60.2452
58.8726
63.4372
64.2631
61.3681
57.9023
57.2034
57.731
48.0515
46.2861
47.3973
46.3808
47.2518
40.0502
34.9766
29.018
30.3999
114.103
113.068
122.258
125.184
123.807
118.635
102.741
97.947
88.9057
90.2113
25.6669
26.2167
130.661
130.595
40.8911
40.5613
129.996
128.637
128.759
130.033
129.659
129.28
18.5072
17.2222
19.0626
130.311
130.18
127.311
130.168
91.7026
91.3247
97.8799
104.099
64.2756
63.2354
68.1736
66.5941
65.8545
63.9794
59.6644
61.1575
62.5342
60.3497
62.2919
6.94467
6.22571
113.121
120.168
121.452
60.181
61.5433
61.8656
62.5986
8.20213
7.27005
12.7763
12.6797
110.668
106.008
92.4116
15.601
14.638
14.4772
17.6596
16.5983
47.5702
46.1851
46.4064
54.1014
53.0683
73.1379
71.0753
129.739
124.693
129.781
128.956
123.358
14.2587
118.367
109.147
105.033
113.722
130.454
130.14
131.025
69.7342
78.7501
73.0277
78.965
71.4129
97.6916
100.996
110.242
58.6034
58.8923
59.6215
59.1966
122.509
101.364
113.481
111.479
120.491
19.1771
14.4539
24.2015
23.259
13.9377
14.8574
24.6031
23.9057
58.7457
57.3517
58.9282
47.7716
32.8035
41.1779
40.2771
40.3788
39.2487
54.5913
55.8866
55.6931
110.187
113.705
123.036
126.335
116.295
124.436
75.7433
75.0616
73.4671
72.882
15.7375
15.5844
14.0703
13.9473
13.2874
18.0906
13.4009
16.1722
93.7331
75.3532
94.6883
84.8152
67.4399
67.9284
77.9452
73.8751
79.0462
8.40848
8.05579
7.71045
75.6563
73.4047
69.083
66.0455
12.4595
12.043
12.7528
12.6151
4.69671
5.39987
12.6907
12.74
66.8661
67.7973
66.7143
13.6916
12.8221
12.8103
12.8296
128.159
132.529
131.894
12.0044
10.8617
8.68128
9.62004
9.74326
9.12087
25.9622
29.3905
40.5221
132.74
17.5287
16.0343
15.0692
17.6767
16.0815
15.2381
18.2383
16.4
18.5066
16.6354
22.7571
22.3259
25.4446
23.0715
22.4909
12.2221
12.8799
12.1485
25.4172
24.2597
25.7489
24.5342
23.0498
23.0378
68.1781
68.198
71.0172
69.3256
70.6499
68.8743
45.3637
55.0166
52.8478
48.9329
52.733
3.92483
3.49729
3.35129
3.70244
4.09827
101.827
110.919
109.828
99.131
104.389
55.8147
54.0558
58.041
56.6294
58.2473
57.5959
57.3006
57.6559
56.6256
56.6205
57.2415
49.2243
51.2112
50.4327
50.3996
49.5634
7.24337
8.66375
7.81592
8.25052
7.44893
63.6051
65.0799
129.759
118.206
112.806
111.519
96.4547
97.5295
16.746
15.0227
15.4385
60.1868
60.9406
60.8681
53.3208
81.3353
86.5319
71.1204
70.6072
83.3935
76.7113
74.7094
80.9289
8.18453
9.29003
53.5617
55.3202
55.4597
54.4507
33.7764
27.5139
17.4711
37.7734
16.9701
26.1703
28.027
22.0687
44.9735
44.2949
43.8274
51.9031
17.5588
25.0485
28.072
85.9687
80.4132
93.7436
96.2875
75.6772
74.474
59.7092
61.9869
61.9685
51.0413
50.9806
37.1062
42.7271
35.4743
27.6028
61.8612
63.3068
62.0691
62.6634
53.4922
52.3131
53.0825
54.1612
52.0745
50.1147
51.5126
50.8871
49.7898
92.8186
97.1976
45.081
128.283
126.317
117.519
119.962
5.50706
4.55384
4.35973
4.98864
2.86154
3.00901
102.127
96.4975
91.2649
100.406
92.4858
31.0295
30.3788
30.9419
5.49179
6.0404
5.7536
5.23029
6.39542
6.68192
34.0097
34.6505
35.0868
34.4018
33.4111
33.522
45.7079
47.271
45.6661
46.7529
46.2949
46.903
48.0597
48.3263
48.8437
47.159
46.5068
57.6428
57.6098
58.0351
2.0514
119.816
62.1791
60.9065
7.50842
8.21224
8.51277
7.93427
7.32272
10.2962
9.21798
8.93909
10.391
9.57144
10.8352
9.80224
9.2568
10.6433
9.58523
13.404
12.9654
13.2262
14.0017
12.8698
12.8058
111.1
130.7
129.948
125.295
126.137
128.25
27.1205
58.9506
58.2631
57.241
58.9136
57.7023
132.731
39.302
40.1702
40.9776
39.5147
40.3161
60.5971
59.862
59.7348
60.572
60.9824
6.31119
5.40975
8.36701
7.42314
7.93105
110.279
105.519
92.0385
95.6014
132.381
131.124
128.319
125.567
131.76
129.374
22.4568
21.0188
19.7665
17.4322
18.15
16.6965
18.7633
18.3239
131.367
131.203
131.689
12.6227
12.634
67.3722
63.8289
65.0825
66.2325
64.5383
54.3516
59.6435
61.6852
60.2197
63.8884
66.9831
64.822
57.6643
58.6273
57.7911
73.4217
66.8188
68.6221
127.9
130.692
17.1748
17.692
16.5264
18.7316
18.1271
12.4425
12.5834
30.5588
22.3953
17.8051
29.5575
14.3284
14.6997
60.3343
59.8695
59.4842
60.253
59.5134
8.52081
9.18988
79.1383
75.6904
72.7612
74.3063
78.5903
6.68174
6.03918
6.48589
7.14064
7.26821
60.707
59.4162
17.3208
16.347
14.8006
15.9316
14.6801
28.4338
27.5568
27.545
27.5941
27.6276
26.6696
11.1655
13.2208
12.0503
14.3537
13.3761
13.0757
11.9402
14.3708
15.9118
10.0071
9.78183
9.21426
5.78058
5.54721
5.13182
5.19105
4.86033
60.0767
60.9584
61.8655
60.0753
63.0474
63.5723
61.5907
60.0658
25.8696
26.6667
28.227
13.3144
14.2991
13.554
13.0813
14.0681
14.5644
13.4352
12.6375
13.0099
12.4154
11.7989
12.2176
12.173
116.121
120.692
116.435
18.7172
20.1311
20.2696
39.926
41.4486
40.403
41.5506
39.8485
40.4416
36.9359
38.1285
35.3895
37.8304
35.6414
32.8024
32.6757
32.3408
31.5778
31.8742
12.7681
12.7585
12.7984
13.0386
13.7591
14.6033
68.0306
67.7251
66.6488
70.3186
70.2349
130.717
130.822
58.1899
57.972
55.7193
57.1802
130.772
130.135
130.708
58.2217
58.3743
33.8957
33.7056
34.4662
30.4113
31.4462
35.1644
36.0865
35.7419
35.0853
34.7472
20.8334
16.6271
26.4217
19.7792
21.9982
27.5878
23.4933
30.656
29.1383
127.519
124.117
119.42
65.9214
65.2226
64.5134
127.285
125.123
129.394
117.199
117.137
4.35813
4.27401
6.63477
5.55641
4.68929
4.91403
5.50225
5.16365
62.0995
61.9404
60.686
64.5672
64.6333
63.4295
57.5284
59.3251
55.7531
54.5884
59.6455
59.0977
12.5196
12.7564
12.9853
12.6748
12.494
12.577
43.017
35.0811
37.9663
44.974
27.9041
25.2848
62.1762
63.155
64.429
64.5424
62.6451
61.8844
55.8507
54.9341
54.6345
95.0003
97.4879
107.867
12.8144
12.7179
12.8119
12.8226
12.6
12.4779
23.8592
23.2113
37.6567
40.6552
41.1399
35.8508
34.8023
13.9913
14.9917
18.4475
16.1613
20.145
123.063
127.657
118.383
106.305
113.001
121.641
127.564
129.242
122.835
126.956
132.093
131.761
19.5555
18.8496
16.5029
16.63
15.5835
4.71953
3.98461
6.15755
5.47364
6.90987
5.53437
6.34609
3.94586
4.2802
4.29097
5.1229
5.11926
45.5299
46.5943
45.7476
44.6019
29.1671
28.9291
25.5289
26.5797
27.6927
26.0941
1.64878
1.96466
58.0435
59.268
58.7157
58.0953
59.0355
59.316
45.5316
44.4934
45.8208
15.8753
16.7117
14.3279
13.8863
14.494
15.7704
14.3536
14.7381
13.7819
14.0426
13.6436
13.6026
13.0824
13.0785
12.5031
12.1924
116.437
109.208
109.76
125.886
126.463
120.086
117.343
121.298
103.936
105.359
23.4573
27.8778
22.3161
23.5259
24.6338
50.1085
51.1243
48.6511
31.9046
34.2434
34.3641
113.072
119.12
117.536
30.8535
28.6769
29.5628
48.2647
49.5133
49.7289
47.8007
47.2254
69.1077
67.752
65.3105
67.2977
65.3049
60.6896
61.8882
62.4942
61.5001
60.5077
19.779
15.6297
13.4905
128.819
130.086
99.9437
92.3726
91.0088
39.929
41.0361
43.2655
5.71534
6.24605
50.9794
47.5146
47.7635
51.646
53.3033
11.7611
10.8984
132.746
132.767
132.712
132.728
132.74
5.8644
5.74921
6.31118
6.78062
6.83141
31.086
30.1919
39.5016
38.5753
39.4606
40.7063
41.1308
1.49567
91.4634
98.9237
92.6273
97.8013
104.006
104.339
10.2119
10.262
102.106
103.734
89.628
57.5458
56.459
55.2382
56.89
56.1811
68.5616
64.2062
72.2728
63.8808
63.086
66.2874
68.8288
11.2602
11.0356
11.7296
13.6457
15.1438
11.7798
10.7064
10.2724
12.1617
11.3326
11.3226
14.8958
13.9808
32.4589
32.4822
31.3732
30.876
31.3277
31.7353
31.0578
18.1897
19.606
18.8932
33.7121
32.9356
33.3685
15.1757
12.8496
16.1987
17.9351
14.0684
12.821
14.1802
9.91282
10.8639
10.461
12.0211
13.1777
12.0021
12.8455
11.2767
12.4499
11.809
11.4353
12.3655
12.4611
13.5268
12.1738
12.7665
14.0656
13.5867
31.5965
31.3294
32.3513
32.2409
34.0821
33.4629
32.9771
28.1653
27.7313
29.6792
28.9629
29.3263
30.2622
30.1926
13.678
12.3685
12.9161
12.7092
13.4716
13.8904
15.1073
15.3633
13.9349
16.5448
16.6341
18.3174
17.6256
19.9937
18.8703
20.4272
19.9108
20.8416
19.6034
18.7864
19.4161
20.8026
21.1718
14.395
15.7132
13.8841
13.1043
12.4535
12.7312
13.5114
16.6917
14.6787
15.659
9.75315
10.0816
11.4699
12.8669
13.0664
12.3875
11.2515
11.9811
11.8853
10.7809
11.1892
20.4771
20.9963
21.4154
21.6194
21.1625
20.32
13.5283
12.501
12.2325
14.0878
13.4082
16.5829
15.4868
16.2177
14.9452
15.3433
59.4053
60.2325
59.9103
59.267
60.2164
59.3167
126.926
123.443
116.191
111.435
111.934
8.5452
7.72372
24.1569
23.8536
126.053
127.044
130.564
130.625
56.746
55.8848
30.4703
33.0372
46.1741
40.784
35.5436
44.7011
4.0669
3.35901
13.1506
14.0356
29.7597
29.79
29.0942
30.7603
30.8752
30.6311
30.9971
31.7526
32.4877
32.3208
2.43472
2.07086
2.58191
3.7778
4.00289
4.7984
4.11306
19.7712
19.1716
20.5576
111.465
130.056
126.03
126.327
132.051
131.185
65.7335
65.766
67.4733
66.3299
69.6403
68.2312
20.5474
18.179
25.436
15.0232
14.9311
14.3673
14.3615
15.7167
15.8793
15.7364
15.3312
15.1244
19.5501
21.7848
4.81607
5.71478
4.97491
5.35359
5.83767
6.90749
7.59177
6.82887
7.2998
7.7963
4.75649
4.08892
4.76934
19.3419
20.2661
19.9646
19.7422
20.0229
15.6797
13.8207
14.0943
14.288
15.3202
131.363
131.465
12.7198
12.7694
12.7527
12.7048
12.7113
54.5388
56.2712
6.92025
6.53244
11.3323
51.5553
46.5446
11.1934
11.6034
12.061
14.9397
15.8915
16.8485
58.0342
55.7809
55.2945
56.314
44.6957
44.3102
29.0484
28.1643
28.8444
130.502
60.3119
60.9991
61.0648
15.035
13.5907
18.5992
124.529
125.662
44.6782
44.9575
16.6673
16.5515
16.1109
12.7193
12.7208
24.4782
17.9136
129.581
130.538
94.4209
54.397
55.8139
54.4572
16.974
18.0211
19.1308
17.2293
17.4653
95.8311
101.976
104.561
52.1787
51.1214
5.42821
5.20228
6.3146
6.12664
38.9053
38.716
39.5123
64.8845
37.5368
63.6154
135.481
8.46521
0.326233
0.540926
12.6642
0.501147
0.275776
15.5778
60.2532
0.400852
60.3761
0.34118
42.4648
24.0775
141.667
136.982
24.5938
11.0344
31.843
38.7979
54.6939
62.9414
21.4069
19.1117
31.174
32.3617
34.896
38.573
53.7577
48.6908
119.906
41.842
53.0704
87.4156
33.7717
52.011
50.3012
56.7518
46.2045
46.1553
41.0278
130.485
128.187
4.41098
44.4406
102.905
12.5172
51.866
102.744
66.3512
63.1499
66.6682
123.535
61.5967
62.6565
55.4805
9.56509
8.97193
8.27234
58.6183
52.8263
57.4715
0.414918
0.917246
11.4998
10.8875
12.1709
7.6333
6.81006
86.9307
46.8498
52.651
54.1067
49.6046
73.4518
81.3502
0.607085
1.07347
0.4373
0.271713
3.31832
3.98232
6.96648
8.03663
78.5262
94.6083
86.5796
48.3526
47.8957
47.1782
48.6053
55.3769
56.4311
50.9528
41.7574
38.0878
40.7168
49.0934
45.3812
48.4785
47.2725
48.0096
43.1086
11.0212
10.5335
0.846405
0.421164
10.7897
9.77149
9.41663
0.324361
130.313
141.085
128.769
67.6457
87.8387
77.4154
12.7685
12.7032
12.4969
51.1445
57.3164
41.2911
43.1933
42.4673
39.9464
42.8018
48.0629
61.9328
64.3125
23.1062
20.2586
21.6485
37.4022
33.6641
38.1858
34.2127
31.6582
36.0743
0.298999
0.634609
16.0175
14.4976
14.2948
36.0496
38.6957
58.4313
52.8205
59.2596
12.492
12.4964
37.3447
34.8697
36.7734
115.168
96.1397
12.8319
18.4206
0.554785
0.439901
0.297287
121.789
125.955
110.737
11.8665
12.8214
18.9722
25.7833
9.82116
14.43
32.6993
31.1789
12.3533
12.0992
22.8333
23.4689
23.8497
62.6896
62.479
58.4202
0.370248
12.5314
12.5187
132.474
132.583
21.776
22.7175
34.9678
32.9184
33.3151
60.2983
61.252
26.519
24.5662
131.66
11.2481
10.2447
11.4476
19.9566
27.0894
13.3994
17.6233
37.2814
40.9432
120.622
127.781
130.712
129.936
44.8816
46.9724
106.893
1.74028
2.47022
5.90136
5.51402
12.618
12.5502
12.5293
81.2444
0.196363
0.587959
0.57985
3.11972
2.65302
128.065
118.676
108.405
11.2564
10.1609
62.0108
62.7331
66.3932
64.6032
15.2752
66.1747
76.1445
65.8964
131.077
130.576
131.276
12.564
12.2151
132.637
12.9043
12.088
29.7047
31.3037
37.7179
0.851454
0.388654
0.666949
0.256943
0.855099
12.6044
12.5757
5.32814
5.49767
6.5946
68.6054
70.3249
76.0441
66.4962
67.4289
17.3086
16.7641
12.8297
12.7614
12.8342
62.8487
60.8287
63.5104
19.3711
132.486
132.328
132.138
31.6363
50.3728
38.996
102.272
80.1467
99.5725
130.686
90.3911
71.2353
86.9861
120.531
109.715
101.747
21.2459
17.9752
46.9061
48.521
44.5523
39.8188
42.8441
49.4605
51.0116
47.7268
0.26424
0.746996
0.698443
17.0231
15.1197
43.6559
43.8672
45.1446
127.502
116.404
86.7724
95.2687
79.1614
0.886772
1.03572
0.786186
2.28528
1.33521
12.8555
29.4489
27.131
57.5874
67.3326
66.4758
0.270729
0.847221
0.582371
131.956
19.65
18.0952
17.7368
131.081
130.864
25.0313
25.1437
26.237
12.7105
12.6729
86.1427
73.8794
70.4941
22.7318
23.0541
24.2037
39.2923
14.0496
13.3264
12.8381
12.8842
12.797
58.6095
130.189
59.5616
60.5175
53.9498
49.3133
49.9125
57.8049
56.5698
123.778
115.66
13.7503
13.2781
14.2373
29.6029
126.311
130.359
27.742
26.2555
132.77
132.693
131.55
131.251
131.717
18.6545
16.7602
15.8705
12.4027
12.7344
12.8459
60.1264
56.6293
28.2169
25.6874
25.2403
64.323
59.4717
130.5
130.392
130.57
30.9508
28.6944
30.5233
61.1677
58.7878
57.4818
50.416
56.1936
131.723
132.136
132.268
112.572
97.5506
12.2155
11.8518
11.3798
0.902665
1.6762
0.484861
1.31312
31.6198
31.4162
29.8936
28.1516
26.882
22.6474
20.6675
18.9087
130.009
130.292
130.482
4.79931
4.58264
3.96711
126.954
122.151
63.9283
62.5467
69.5704
81.7726
67.1892
130.07
36.4493
38.7989
49.7928
54.3315
51.6532
27.636
29.2649
29.9953
28.8727
27.9564
129.42
128.727
62.799
18.2921
18.9984
12.588
12.391
132.714
132.753
65.1962
5.98474
6.06135
125.952
131.606
14.0233
28.282
60.3737
51.5296
32.8426
128.974
26.6414
55.0038
8.67003
6.31587
110.935
76.3653
86.2327
40.2167
19.4057
72.5077
24.2182
33.324
16.0506
87.3697
102.284
104.809
57.9212
59.964
64.4901
115.965
29.5136
27.5049
28.4988
59.4888
92.2446
124.098
12.6675
42.3861
30.3957
85.3504
13.0729
12.7484
9.61272
29.0343
27.2316
25.463
26.4558
53.3982
53.4621
52.4626
50.4983
68.666
6.91157
6.29983
132.602
62.1453
42.103
41.1394
122.205
51.8219
123.495
16.6083
11.3947
9.92351
10.5541
12.8349
13.6133
114.751
4.47335
5.66333
44.4308
27.593
26.0923
122.799
116.947
111.225
113.856
126.719
125.527
83.1008
100.669
14.1561
13.6418
28.8762
17.5701
22.0084
64.3801
6.7382
70.3893
60.2411
86.2395
98.6827
92.7291
125.352
32.2184
32.2154
31.3741
31.0781
19.4103
10.6462
56.53
53.9712
40.6137
80.0947
64.0368
42.6087
41.6925
41.5601
125.257
123.673
55.1204
8.15815
12.4927
5.19186
10.181
33.4328
39.6583
39.068
19.0952
43.4215
56.6656
54.392
53.3082
20.7807
27.8336
6.10701
6.90492
5.97812
89.8996
9.99653
72.2245
119.176
12.8382
96.8983
39.8619
76.1117
24.9292
28.0948
41.0141
60.2571
14.6007
6.54542
7.01868
7.2158
46.4636
51.7655
128.638
51.0195
12.5683
98.9006
112.556
15.8801
51.6827
51.9885
71.7075
87.5865
53.3977
52.9428
55.572
54.1532
10.3369
17.3006
22.8706
13.216
13.5545
106.029
118.226
113.192
119.736
12.1928
13.063
12.7169
13.341
55.9457
54.669
63.4631
36.5636
24.4328
59.9979
31.8903
63.6381
63.6771
58.1227
40.6724
41.9012
64.4572
58.3977
59.1102
51.3675
129.928
18.8848
25.9504
27.4337
26.6445
25.6471
29.3086
29.1525
129.292
68.0219
70.93
67.658
100.461
91.7703
85.1709
102.341
96.3514
57.098
55.6294
104.24
52.6007
51.084
59.815
9.47646
9.7579
11.1966
10.3285
54.882
130.643
33.3062
36.3504
35.1369
3.05744
2.49338
2.62688
2.04102
1.46104
49.6807
49.9045
110.539
65.9926
58.202
2.40008
67.0458
64.3046
65.9909
57.1763
35.3664
129.361
127.823
129.032
127.604
13.6801
41.4983
86.9317
21.8528
130.286
131.228
128.757
128.468
9.07569
9.19624
8.43045
7.65899
2.90943
70.1339
67.7896
7.05203
26.8127
28.6149
27.1201
27.7605
6.67534
7.71829
12.5303
14.4019
14.0083
25.4586
36.5419
38.2806
36.516
37.6414
31.8348
30.0221
31.0474
25.3804
24.4726
26.3544
40.3932
40.9396
39.2193
39.9624
71.9457
71.5404
77.2342
63.3949
66.817
63.9634
12.2324
65.1906
60.7019
54.1356
55.6391
54.8984
12.5776
74.2161
71.1318
69.3964
2.06091
1.87492
6.71415
6.48283
4.30189
45.7528
47.5328
7.89381
75.3464
72.2695
67.6136
69.3749
66.8272
63.9656
92.5263
106.922
99.5401
106.365
59.6539
59.7562
63.3943
43.1516
42.5613
42.1677
130.613
39.4503
31.0261
0.941609
50.3864
50.7366
118.243
127.548
61.605
62.1733
125.161
51.1902
44.2567
101.723
30.4866
45.0547
98.2756
111.11
105.369
52.2598
110.717
32.9034
39.687
42.0374
43.7051
42.3124
10.6823
12.4271
11.7707
12.6237
12.2324
11.7466
60.5155
61.4206
59.6144
59.9011
62.1728
61.5867
113.675
119.898
114.406
121.421
6.95212
16.2534
5.36472
76.9864
73.3874