/*--------------------------------*- C++ -*----------------------------------*\
| =========                 |                                                 |
| \\      /  F ield         | OpenFOAM: The Open Source CFD Toolbox           |
|  \\    /   O peration     | Version:  2212                                  |
|   \\  /    A nd           | Website:  www.openfoam.com                      |
|    \\/     M anipulation  |                                                 |
\*---------------------------------------------------------------------------*/
FoamFile
{
    version     2.0;
    format      ascii;
    arch        "LSB;label=32;scalar=64";
    class       volScalarField;
    location    "0.05";
    object      alphat;
}
// * * * * * * * * * * * * * * * * * * * * * * * * * * * * * * * * * * * * * //

dimensions      [1 -1 -1 0 0 0 0];

internalField   nonuniform List<scalar> 
3072
(
0.000277763
0.000598378
0.000643544
0.000643104
0.000638439
0.000612274
0.000597101
0.00067313
0.00116918
0.00158718
0.0017284
0.00179275
0.000449503
0.00129976
0.00184593
0.00206893
0.00177304
0.00103099
0.000924518
0.00164018
0.00200766
0.00322182
0.00440461
0.00614517
0.000577628
0.00214419
0.00289436
0.00302164
0.0026162
0.00241788
0.00240095
0.00341592
0.00520313
0.00764119
0.0102154
0.012706
0.000731405
0.003376
0.00368082
0.00320156
0.00303728
0.00306073
0.00407796
0.00661311
0.00936756
0.0124795
0.0154273
0.018036
0.000864981
0.00401138
0.00405286
0.00366907
0.0036673
0.00449911
0.00684235
0.0101166
0.0132828
0.016487
0.01944
0.022045
0.000991941
0.00454545
0.00460912
0.00435793
0.00486448
0.00686801
0.0100313
0.0132376
0.0163717
0.019453
0.0222897
0.0248258
0.00110356
0.00515355
0.00560073
0.0056961
0.00701629
0.00984283
0.0128592
0.0158293
0.0187501
0.0215345
0.0241673
0.0265844
0.00123969
0.00650929
0.00774057
0.008792
0.0109641
0.0134331
0.0159362
0.0184606
0.0209979
0.0234159
0.0256942
0.0277973
0.00140244
0.00883375
0.0116122
0.0139318
0.0160026
0.0178829
0.0197028
0.0215248
0.0233814
0.0251948
0.0269485
0.0286241
0.0016279
0.0106402
0.0147688
0.0176098
0.0196669
0.0212431
0.0225979
0.0238656
0.0250971
0.026324
0.0275743
0.0288632
0.00184194
0.00993378
0.0159389
0.0194009
0.0216836
0.0230913
0.0243699
0.0252822
0.0261129
0.0269432
0.0278196
0.0287755
0.00307483
0.00936371
0.0167902
0.0208166
0.0227965
0.0245462
0.0256509
0.0264382
0.027068
0.0276614
0.0282891
0.0290018
0.00184252
0.00186707
0.00188161
0.00188429
0.00188577
0.0018569
0.00181297
0.00173763
0.00163397
0.00149228
0.00128273
0.000610183
0.0078662
0.00944654
0.0105519
0.0110246
0.0108144
0.010245
0.00926317
0.00791302
0.0061226
0.00374218
0.00182911
0.00106075
0.0148509
0.0164886
0.0175145
0.0179132
0.0176961
0.0169139
0.0155127
0.0134738
0.0107575
0.00736961
0.0032831
0.00141429
0.0202453
0.0219771
0.023181
0.023821
0.0238495
0.0232043
0.0217923
0.0194887
0.0160925
0.0116192
0.00579027
0.00172867
0.0242872
0.0261275
0.027531
0.028456
0.0288315
0.0285315
0.0273787
0.0251244
0.0213365
0.01588
0.00854138
0.0020427
0.0270568
0.028963
0.0305198
0.0316891
0.0324024
0.0325503
0.0319209
0.0301324
0.0266046
0.020529
0.0118699
0.0023658
0.0287472
0.03065
0.032286
0.0336359
0.0346721
0.0353249
0.0353672
0.034313
0.0313432
0.0252608
0.0154194
0.00270617
0.0297216
0.0314796
0.0330664
0.0344842
0.0357625
0.0368824
0.037673
0.037626
0.0356307
0.0298401
0.018892
0.00308317
0.0301842
0.0316349
0.0330654
0.0344778
0.0358841
0.0373359
0.0387587
0.0397611
0.0391152
0.034173
0.0221012
0.00350305
0.0301281
0.0313189
0.0325328
0.0339168
0.0354455
0.0371064
0.0389205
0.0407613
0.0415596
0.0382535
0.0258453
0.00395146
0.0298972
0.0311731
0.0322365
0.03335
0.0348817
0.0366714
0.0386269
0.040848
0.0427358
0.0416925
0.0303377
0.00444827
0.0299119
0.0312589
0.0324829
0.0334611
0.0347179
0.0364354
0.038282
0.0404727
0.0427547
0.0436713
0.0350716
0.00502391
0.000277764
0.000598381
0.000643546
0.000643105
0.000638441
0.000612275
0.000597102
0.000673132
0.00116919
0.00158718
0.0017284
0.00179276
0.000449505
0.00129976
0.00184593
0.00206892
0.00177303
0.00103099
0.000924522
0.00164019
0.00200767
0.00322183
0.00440463
0.0061452
0.000577631
0.0021442
0.00289436
0.00302163
0.00261618
0.00241787
0.00240096
0.00341595
0.00520317
0.00764124
0.0102154
0.0127061
0.000731408
0.003376
0.00368081
0.00320155
0.00303728
0.00306074
0.00407801
0.00661317
0.00936763
0.0124796
0.0154273
0.018036
0.000864985
0.00401139
0.00405287
0.00366908
0.00366731
0.00449915
0.00684243
0.0101167
0.0132829
0.0164871
0.0194401
0.0220451
0.000991944
0.00454547
0.00460914
0.00435796
0.00486452
0.00686812
0.0100314
0.0132377
0.0163718
0.0194531
0.0222898
0.0248259
0.00110356
0.00515358
0.00560078
0.00569617
0.00701642
0.00984297
0.0128593
0.0158294
0.0187502
0.0215346
0.0241674
0.0265845
0.00123969
0.00650933
0.00774064
0.00879211
0.0109642
0.0134333
0.0159363
0.0184607
0.0209981
0.023416
0.0256943
0.0277974
0.00140244
0.00883377
0.0116122
0.0139319
0.0160027
0.017883
0.019703
0.0215249
0.0233816
0.0251949
0.0269486
0.0286242
0.0016279
0.0106402
0.0147688
0.0176098
0.0196669
0.0212432
0.022598
0.0238657
0.0250972
0.0263241
0.0275744
0.0288633
0.00184194
0.00993378
0.0159389
0.0194009
0.0216836
0.0230913
0.0243699
0.0252822
0.0261129
0.0269432
0.0278197
0.0287756
0.00307483
0.0093637
0.0167902
0.0208166
0.0227965
0.0245462
0.0256509
0.0264383
0.027068
0.0276614
0.0282891
0.0290018
0.00184252
0.00186708
0.00188161
0.00188429
0.00188577
0.0018569
0.00181298
0.00173763
0.00163397
0.00149228
0.00128273
0.000610183
0.00786624
0.00944658
0.0105519
0.0110247
0.0108145
0.010245
0.0092632
0.00791304
0.00612261
0.00374219
0.00182911
0.00106075
0.0148509
0.0164887
0.0175146
0.0179132
0.0176961
0.016914
0.0155127
0.0134738
0.0107575
0.00736963
0.0032831
0.00141429
0.0202453
0.0219772
0.0231811
0.023821
0.0238495
0.0232044
0.0217924
0.0194888
0.0160925
0.0116193
0.00579028
0.00172867
0.0242873
0.0261276
0.0275311
0.0284561
0.0288316
0.0285316
0.0273788
0.0251244
0.0213365
0.01588
0.00854139
0.00204271
0.0270569
0.0289631
0.0305199
0.0316892
0.0324026
0.0325504
0.031921
0.0301325
0.0266046
0.020529
0.0118699
0.0023658
0.0287473
0.0306501
0.0322861
0.0336361
0.0346722
0.0353251
0.0353673
0.0343131
0.0313433
0.0252609
0.0154194
0.00270618
0.0297218
0.0314797
0.0330666
0.0344844
0.0357627
0.0368825
0.0376732
0.0376261
0.0356308
0.0298402
0.0188921
0.00308317
0.0301844
0.031635
0.0330655
0.034478
0.0358843
0.037336
0.0387588
0.0397613
0.0391153
0.0341731
0.0221013
0.00350306
0.0301282
0.031319
0.032533
0.0339169
0.0354456
0.0371065
0.0389206
0.0407614
0.0415597
0.0382536
0.0258453
0.00395147
0.0298973
0.0311732
0.0322366
0.0333501
0.0348818
0.0366715
0.038627
0.0408481
0.0427359
0.0416926
0.0303378
0.00444828
0.0299119
0.031259
0.032483
0.0334612
0.034718
0.0364355
0.0382821
0.0404728
0.0427548
0.0436714
0.0350716
0.00502392
0.000277765
0.000598382
0.000643549
0.000643108
0.000638443
0.000612278
0.000597104
0.000673133
0.00116918
0.00158718
0.0017284
0.00179276
0.000449506
0.00129976
0.00184594
0.00206894
0.00177305
0.001031
0.000924523
0.00164019
0.00200767
0.00322183
0.00440463
0.0061452
0.000577632
0.00214421
0.00289439
0.00302165
0.0026162
0.00241788
0.00240096
0.00341595
0.00520316
0.00764124
0.0102154
0.012706
0.00073141
0.00337602
0.00368084
0.00320158
0.0030373
0.00306074
0.004078
0.00661316
0.00936762
0.0124796
0.0154273
0.018036
0.000864987
0.00401141
0.00405289
0.0036691
0.00366732
0.00449915
0.00684242
0.0101167
0.0132829
0.0164871
0.0194401
0.0220451
0.000991946
0.00454548
0.00460915
0.00435797
0.00486453
0.0068681
0.0100314
0.0132377
0.0163718
0.0194531
0.0222898
0.0248259
0.00110356
0.00515359
0.00560079
0.00569618
0.00701641
0.00984297
0.0128594
0.0158294
0.0187502
0.0215346
0.0241674
0.0265845
0.0012397
0.00650934
0.00774066
0.00879213
0.0109642
0.0134333
0.0159364
0.0184607
0.0209981
0.023416
0.0256943
0.0277974
0.00140244
0.0088338
0.0116123
0.013932
0.0160027
0.017883
0.019703
0.0215249
0.0233816
0.0251949
0.0269486
0.0286242
0.0016279
0.0106403
0.0147688
0.0176099
0.019667
0.0212432
0.022598
0.0238657
0.0250972
0.0263241
0.0275744
0.0288633
0.00184195
0.00993379
0.0159389
0.0194009
0.0216837
0.0230913
0.0243699
0.0252823
0.026113
0.0269433
0.0278197
0.0287756
0.00307483
0.00936371
0.0167902
0.0208166
0.0227965
0.0245462
0.0256509
0.0264383
0.0270681
0.0276614
0.0282891
0.0290019
0.00184252
0.00186707
0.00188161
0.00188429
0.00188577
0.0018569
0.00181297
0.00173763
0.00163397
0.00149228
0.00128273
0.000610182
0.00786623
0.00944657
0.0105519
0.0110247
0.0108145
0.010245
0.0092632
0.00791303
0.00612261
0.00374218
0.00182911
0.00106075
0.0148509
0.0164887
0.0175145
0.0179132
0.0176961
0.016914
0.0155127
0.0134738
0.0107575
0.00736962
0.0032831
0.00141429
0.0202453
0.0219772
0.0231811
0.023821
0.0238495
0.0232044
0.0217923
0.0194888
0.0160925
0.0116193
0.00579027
0.00172867
0.0242873
0.0261276
0.0275311
0.028456
0.0288316
0.0285315
0.0273787
0.0251244
0.0213365
0.01588
0.00854139
0.00204271
0.0270569
0.0289631
0.0305199
0.0316892
0.0324025
0.0325504
0.031921
0.0301325
0.0266046
0.020529
0.0118699
0.0023658
0.0287473
0.0306501
0.0322861
0.0336361
0.0346722
0.035325
0.0353672
0.0343131
0.0313433
0.0252609
0.0154194
0.00270618
0.0297218
0.0314797
0.0330666
0.0344843
0.0357626
0.0368825
0.0376731
0.0376261
0.0356308
0.0298402
0.0188921
0.00308317
0.0301844
0.031635
0.0330655
0.0344779
0.0358842
0.037336
0.0387587
0.0397612
0.0391153
0.0341731
0.0221013
0.00350306
0.0301282
0.031319
0.0325329
0.0339169
0.0354456
0.0371065
0.0389206
0.0407614
0.0415597
0.0382535
0.0258453
0.00395146
0.0298973
0.0311732
0.0322366
0.0333501
0.0348818
0.0366715
0.038627
0.0408481
0.0427358
0.0416925
0.0303377
0.00444827
0.029912
0.031259
0.032483
0.0334612
0.034718
0.0364355
0.0382821
0.0404727
0.0427548
0.0436713
0.0350716
0.00502391
0.000277763
0.000598379
0.000643545
0.000643104
0.00063844
0.000612274
0.0005971
0.00067313
0.00116918
0.00158718
0.0017284
0.00179275
0.000449504
0.00129976
0.00184593
0.00206892
0.00177303
0.00103099
0.000924516
0.00164018
0.00200766
0.00322182
0.00440462
0.00614518
0.000577629
0.00214419
0.00289436
0.00302163
0.00261619
0.00241787
0.00240095
0.00341593
0.00520314
0.00764121
0.0102154
0.012706
0.000731406
0.003376
0.00368081
0.00320155
0.00303728
0.00306073
0.00407798
0.00661313
0.00936759
0.0124795
0.0154273
0.018036
0.000864983
0.00401138
0.00405286
0.00366907
0.0036673
0.00449913
0.00684239
0.0101166
0.0132829
0.0164871
0.0194401
0.022045
0.000991942
0.00454546
0.00460912
0.00435795
0.0048645
0.00686807
0.0100314
0.0132377
0.0163717
0.019453
0.0222898
0.0248259
0.00110356
0.00515357
0.00560076
0.00569614
0.00701637
0.00984292
0.0128593
0.0158294
0.0187502
0.0215345
0.0241674
0.0265845
0.00123969
0.00650932
0.00774062
0.00879208
0.0109642
0.0134332
0.0159363
0.0184607
0.020998
0.023416
0.0256942
0.0277974
0.00140244
0.00883377
0.0116122
0.0139319
0.0160026
0.017883
0.0197029
0.0215249
0.0233815
0.0251949
0.0269486
0.0286241
0.0016279
0.0106402
0.0147688
0.0176098
0.0196669
0.0212432
0.022598
0.0238656
0.0250971
0.0263241
0.0275744
0.0288632
0.00184194
0.00993377
0.0159389
0.0194009
0.0216836
0.0230913
0.0243699
0.0252822
0.0261129
0.0269432
0.0278196
0.0287756
0.00307483
0.0093637
0.0167901
0.0208166
0.0227965
0.0245462
0.0256509
0.0264383
0.027068
0.0276614
0.0282891
0.0290018
0.00184252
0.00186707
0.0018816
0.00188429
0.00188577
0.0018569
0.00181297
0.00173763
0.00163396
0.00149228
0.00128273
0.000610182
0.00786621
0.00944655
0.0105519
0.0110246
0.0108145
0.010245
0.00926318
0.00791302
0.0061226
0.00374218
0.00182911
0.00106075
0.0148509
0.0164886
0.0175145
0.0179132
0.0176961
0.016914
0.0155127
0.0134738
0.0107575
0.00736962
0.0032831
0.00141429
0.0202453
0.0219771
0.023181
0.023821
0.0238495
0.0232043
0.0217923
0.0194887
0.0160925
0.0116192
0.00579027
0.00172867
0.0242872
0.0261276
0.0275311
0.028456
0.0288316
0.0285315
0.0273787
0.0251244
0.0213365
0.01588
0.00854138
0.0020427
0.0270568
0.028963
0.0305199
0.0316891
0.0324025
0.0325503
0.031921
0.0301324
0.0266046
0.020529
0.0118699
0.0023658
0.0287473
0.03065
0.032286
0.033636
0.0346721
0.035325
0.0353672
0.034313
0.0313432
0.0252608
0.0154194
0.00270617
0.0297217
0.0314797
0.0330665
0.0344843
0.0357626
0.0368824
0.0376731
0.037626
0.0356308
0.0298401
0.018892
0.00308317
0.0301843
0.031635
0.0330655
0.0344779
0.0358842
0.037336
0.0387587
0.0397612
0.0391152
0.034173
0.0221012
0.00350305
0.0301282
0.0313189
0.0325329
0.0339168
0.0354455
0.0371065
0.0389206
0.0407614
0.0415596
0.0382535
0.0258453
0.00395146
0.0298973
0.0311731
0.0322366
0.0333501
0.0348817
0.0366714
0.0386269
0.040848
0.0427358
0.0416925
0.0303377
0.00444827
0.0299119
0.031259
0.032483
0.0334612
0.034718
0.0364354
0.038282
0.0404727
0.0427548
0.0436713
0.0350716
0.00502391
0.0185412
0.0192347
0.0209622
0.0227973
0.0243982
0.025887
0.0268714
0.0275898
0.0281293
0.0286198
0.0291247
0.0296976
0.0299437
0.0273023
0.0264565
0.0265427
0.0270678
0.0276005
0.0281143
0.0287736
0.0293677
0.0298449
0.0303102
0.0308252
0.0378092
0.034803
0.0326232
0.0313347
0.0307148
0.0304589
0.0305479
0.0307391
0.0309517
0.0312089
0.0317012
0.0322942
0.0401777
0.0380993
0.0361968
0.0346196
0.0335958
0.0329792
0.0327072
0.0326174
0.0328276
0.0331014
0.0334958
0.0341038
0.0305348
0.0318644
0.0331341
0.0341275
0.0352619
0.0367095
0.0382535
0.0400843
0.0422723
0.044862
0.0450537
0.020815
0.0317755
0.0330315
0.0341912
0.0352478
0.0363668
0.0373868
0.038531
0.0398271
0.0415183
0.0439357
0.0481613
0.0348585
0.0334554
0.0344349
0.0354462
0.0363522
0.0372491
0.0380279
0.0389461
0.0398712
0.0409855
0.0426571
0.0465406
0.041575
0.0353265
0.0361856
0.036985
0.0377151
0.0382894
0.0388717
0.039532
0.0401254
0.0408684
0.0417277
0.0438125
0.0425679
0.0185412
0.0192347
0.0209622
0.0227973
0.0243982
0.025887
0.0268714
0.0275898
0.0281293
0.0286198
0.0291247
0.0296976
0.0299436
0.0273024
0.0264566
0.0265428
0.0270678
0.0276005
0.0281144
0.0287736
0.0293677
0.0298449
0.0303102
0.0308252
0.0378093
0.0348031
0.0326233
0.0313348
0.0307149
0.0304589
0.0305479
0.0307391
0.0309517
0.0312089
0.0317012
0.0322942
0.0401778
0.0380994
0.036197
0.0346197
0.0335958
0.0329793
0.0327072
0.0326174
0.0328277
0.0331014
0.0334958
0.0341038
0.0305348
0.0318644
0.0331342
0.0341276
0.035262
0.0367096
0.0382536
0.0400844
0.0422724
0.0448621
0.0450538
0.020815
0.0317755
0.0330315
0.0341913
0.0352479
0.0363669
0.0373868
0.0385311
0.0398272
0.0415184
0.0439358
0.0481614
0.0348586
0.0334554
0.034435
0.0354462
0.0363522
0.0372492
0.0380279
0.0389461
0.0398713
0.0409856
0.0426572
0.0465407
0.0415751
0.0353265
0.0361857
0.036985
0.0377152
0.0382894
0.0388718
0.0395321
0.0401255
0.0408685
0.0417277
0.0438126
0.042568
0.0185412
0.0192347
0.0209623
0.0227973
0.0243982
0.025887
0.0268714
0.0275899
0.0281293
0.0286198
0.0291247
0.0296976
0.0299437
0.0273025
0.0264566
0.0265428
0.0270679
0.0276005
0.0281144
0.0287736
0.0293677
0.029845
0.0303102
0.0308252
0.0378093
0.0348032
0.0326233
0.0313348
0.0307149
0.030459
0.030548
0.0307392
0.0309517
0.0312089
0.0317012
0.0322942
0.0401778
0.0380994
0.036197
0.0346197
0.0335958
0.0329793
0.0327072
0.0326174
0.0328277
0.0331014
0.0334958
0.0341038
0.0305348
0.0318644
0.0331342
0.0341276
0.035262
0.0367096
0.0382536
0.0400844
0.0422724
0.0448621
0.0450537
0.020815
0.0317755
0.0330315
0.0341913
0.0352478
0.0363669
0.0373868
0.038531
0.0398272
0.0415184
0.0439357
0.0481613
0.0348585
0.0334554
0.034435
0.0354462
0.0363522
0.0372492
0.0380279
0.0389461
0.0398712
0.0409856
0.0426572
0.0465406
0.0415751
0.0353265
0.0361856
0.036985
0.0377151
0.0382894
0.0388717
0.039532
0.0401254
0.0408684
0.0417277
0.0438125
0.0425679
0.0185412
0.0192347
0.0209623
0.0227973
0.0243982
0.025887
0.0268714
0.0275898
0.0281293
0.0286198
0.0291247
0.0296976
0.0299436
0.0273024
0.0264566
0.0265428
0.0270678
0.0276005
0.0281144
0.0287736
0.0293677
0.0298449
0.0303102
0.0308252
0.0378093
0.0348031
0.0326233
0.0313348
0.0307149
0.0304589
0.0305479
0.0307391
0.0309517
0.0312089
0.0317012
0.0322942
0.0401778
0.0380994
0.036197
0.0346197
0.0335958
0.0329793
0.0327072
0.0326174
0.0328277
0.0331014
0.0334957
0.0341038
0.0305348
0.0318644
0.0331342
0.0341275
0.035262
0.0367095
0.0382535
0.0400844
0.0422724
0.044862
0.0450537
0.020815
0.0317755
0.0330315
0.0341912
0.0352478
0.0363668
0.0373868
0.038531
0.0398271
0.0415183
0.0439357
0.0481613
0.0348584
0.0334554
0.0344349
0.0354462
0.0363522
0.0372491
0.0380279
0.038946
0.0398712
0.0409855
0.0426571
0.0465406
0.041575
0.0353265
0.0361856
0.036985
0.0377151
0.0382894
0.0388717
0.039532
0.0401254
0.0408684
0.0417276
0.0438125
0.0425678
0.0374044
0.036058
0.034931
0.0341862
0.0337678
0.0336081
0.0335464
0.0336224
0.0339838
0.0344683
0.0353004
0.036567
0.0355819
0.0347188
0.0340244
0.0336245
0.0333788
0.033149
0.0328671
0.0327245
0.0326425
0.0326876
0.0331543
0.0343923
0.0338194
0.0331506
0.032623
0.0322069
0.0316429
0.0309345
0.0302043
0.0293446
0.0283503
0.0273563
0.0267381
0.0273648
0.0316407
0.0310444
0.0302907
0.0294682
0.0283821
0.0271322
0.025645
0.0238333
0.0217371
0.0195121
0.0175388
0.0164077
0.0381391
0.0391678
0.039249
0.0395235
0.0397134
0.0399447
0.0401654
0.0403532
0.040545
0.0407427
0.0402642
0.0391933
0.0363891
0.0393344
0.0391396
0.039201
0.0392566
0.0393113
0.0393401
0.0393032
0.0390815
0.0385938
0.0379756
0.0368931
0.0303772
0.0372682
0.0378045
0.0378448
0.0378691
0.0378625
0.0377938
0.0374788
0.037026
0.0365535
0.0359249
0.0347902
0.0174713
0.0337797
0.0358617
0.0359569
0.0359769
0.0358566
0.0355844
0.0351637
0.0348186
0.0343422
0.0335652
0.0324935
0.0374045
0.0360581
0.0349311
0.0341863
0.0337678
0.0336081
0.0335464
0.0336224
0.0339838
0.0344683
0.0353005
0.036567
0.035582
0.0347188
0.0340245
0.0336246
0.0333789
0.0331491
0.0328671
0.0327245
0.0326425
0.0326877
0.0331543
0.0343923
0.0338195
0.0331507
0.032623
0.0322069
0.031643
0.0309345
0.0302043
0.0293446
0.0283503
0.0273563
0.0267381
0.0273648
0.0316408
0.0310445
0.0302908
0.0294683
0.0283821
0.0271322
0.025645
0.0238333
0.0217372
0.0195121
0.0175388
0.0164078
0.0381391
0.0391678
0.039249
0.0395235
0.0397134
0.0399447
0.0401655
0.0403532
0.0405451
0.0407428
0.0402642
0.0391934
0.0363891
0.0393344
0.0391396
0.039201
0.0392566
0.0393113
0.0393401
0.0393032
0.0390815
0.0385938
0.0379756
0.0368932
0.0303772
0.0372682
0.0378045
0.0378448
0.0378691
0.0378625
0.0377938
0.0374788
0.037026
0.0365536
0.0359249
0.0347902
0.0174713
0.0337797
0.0358617
0.0359569
0.0359769
0.0358566
0.0355844
0.0351638
0.0348186
0.0343422
0.0335652
0.0324935
0.0374045
0.0360581
0.0349311
0.0341863
0.0337678
0.0336081
0.0335464
0.0336224
0.0339838
0.0344683
0.0353004
0.0365669
0.035582
0.0347188
0.0340245
0.0336246
0.0333789
0.0331491
0.0328671
0.0327245
0.0326425
0.0326876
0.0331543
0.0343923
0.0338195
0.0331507
0.032623
0.0322069
0.031643
0.0309345
0.0302043
0.0293446
0.0283503
0.0273563
0.0267381
0.0273648
0.0316408
0.0310445
0.0302908
0.0294682
0.0283821
0.0271322
0.025645
0.0238333
0.0217371
0.0195121
0.0175388
0.0164078
0.0381391
0.0391677
0.039249
0.0395235
0.0397134
0.0399447
0.0401654
0.0403532
0.040545
0.0407427
0.0402642
0.0391933
0.0363891
0.0393343
0.0391396
0.039201
0.0392566
0.0393113
0.0393401
0.0393032
0.0390814
0.0385938
0.0379756
0.0368931
0.0303772
0.0372681
0.0378045
0.0378447
0.0378691
0.0378625
0.0377938
0.0374788
0.037026
0.0365535
0.0359249
0.0347902
0.0174713
0.0337797
0.0358616
0.0359569
0.0359769
0.0358566
0.0355844
0.0351637
0.0348186
0.0343422
0.0335651
0.0324935
0.0374045
0.0360581
0.0349311
0.0341862
0.0337678
0.0336081
0.0335464
0.0336224
0.0339838
0.0344683
0.0353004
0.0365669
0.035582
0.0347188
0.0340245
0.0336245
0.0333789
0.0331491
0.0328671
0.0327245
0.0326425
0.0326876
0.0331543
0.0343923
0.0338194
0.0331507
0.032623
0.0322069
0.0316429
0.0309345
0.0302043
0.0293446
0.0283502
0.0273563
0.0267381
0.0273648
0.0316408
0.0310445
0.0302907
0.0294682
0.0283821
0.0271322
0.025645
0.0238333
0.0217371
0.0195121
0.0175388
0.0164078
0.0381391
0.0391677
0.0392489
0.0395234
0.0397133
0.0399446
0.0401654
0.0403532
0.040545
0.0407427
0.0402642
0.0391932
0.0363891
0.0393343
0.0391395
0.039201
0.0392565
0.0393112
0.0393401
0.0393031
0.0390814
0.0385937
0.0379756
0.036893
0.0303772
0.0372681
0.0378045
0.0378447
0.0378691
0.0378625
0.0377938
0.0374787
0.037026
0.0365535
0.0359249
0.0347901
0.0174713
0.0337797
0.0358616
0.0359569
0.0359769
0.0358566
0.0355843
0.0351637
0.0348185
0.0343421
0.0335651
0.0324934
0.0288598
0.0279836
0.0268361
0.0255508
0.023975
0.0221078
0.0198526
0.0171569
0.0140277
0.0105633
0.0064522
0.00333955
0.0252314
0.0239937
0.0224874
0.0207596
0.0186914
0.0162717
0.0134315
0.0101795
0.00648731
0.00315204
0.0014565
0.00141721
0.0208492
0.0192473
0.0173566
0.0151776
0.0126243
0.0096987
0.00625319
0.00281731
0.000883071
0.000449465
0.000477595
0.000606136
0.0157719
0.013789
0.0114971
0.00885962
0.00571957
0.00253535
0.00063015
0.000236104
0.000201884
0.000316501
0.000272197
0.000295554
0.0100708
0.00766582
0.00486512
0.00212214
0.00054747
0.00022013
0.000206522
0.000262157
0.000244811
0.000244277
0.000239371
0.000234915
0.0037098
0.00155015
0.000471757
0.000340505
0.000234444
0.000254366
0.000250605
0.000249025
0.000247989
0.000245442
0.000243433
0.000240742
0.000366731
0.00090411
0.000250461
0.000258266
0.000257415
0.000257265
0.000256406
0.000254875
0.000253065
0.000251466
0.000249845
0.00024768
0.00026316
0.000267553
0.00026317
0.000263036
0.000262961
0.000262839
0.000262023
0.000260835
0.000259474
0.000258218
0.000256715
0.000254706
0.000268926
0.000268004
0.000267343
0.000266885
0.000266547
0.000266266
0.000265881
0.000265294
0.000264428
0.000263291
0.000261952
0.000260093
0.000265897
0.000265442
0.000265119
0.000265029
0.000265003
0.00026506
0.000265005
0.000264739
0.000264128
0.000263212
0.000262003
0.000260237
0.000226631
0.000228317
0.000230165
0.000231967
0.000233999
0.000236158
0.00023862
0.00024077
0.000242755
0.000244554
0.000246176
0.000246817
7.32851e-05
7.22892e-05
7.24024e-05
7.16269e-05
7.17143e-05
7.11276e-05
7.12105e-05
7.08375e-05
7.0926e-05
7.08162e-05
7.09104e-05
7.09941e-05
0.00512193
0.0292015
0.033654
0.0336637
0.0335872
0.0332808
0.0329475
0.0326768
0.032315
0.0317277
0.0307717
0.0297487
0.00492715
0.0268188
0.0312511
0.0308614
0.0306475
0.0303809
0.0301654
0.0298795
0.0293546
0.0285126
0.0274447
0.0263255
0.00479823
0.0244998
0.0281516
0.0277185
0.0275325
0.0273523
0.027041
0.0265492
0.025755
0.0246619
0.0234929
0.022228
0.00465366
0.0219106
0.0246443
0.0244885
0.0242792
0.0239081
0.0234163
0.0225776
0.0215211
0.0203104
0.018975
0.0174757
0.00446708
0.019136
0.0211763
0.0210083
0.0206267
0.0199882
0.0191266
0.018085
0.0168668
0.0154658
0.0138979
0.0121128
0.00420445
0.0163
0.0177785
0.017163
0.0164541
0.0155304
0.0144763
0.0132011
0.0118117
0.0101756
0.00830807
0.00612389
0.00388428
0.0128073
0.0140438
0.012628
0.0120109
0.0107496
0.00953922
0.0079243
0.00624776
0.00429112
0.00249008
0.000979033
0.0034598
0.00900961
0.00983737
0.00785988
0.0072673
0.00541123
0.00418256
0.0024886
0.00138981
0.000525043
0.000290512
0.000551084
0.00282003
0.00445322
0.00491026
0.00293028
0.00255462
0.0010712
0.000758664
0.000415196
0.000281
0.00028704
0.000268347
0.000271201
0.00209667
0.00104313
0.00120609
0.000481176
0.00043738
0.000332429
0.000264647
0.000261724
0.00026815
0.000267223
0.0002675
0.000266645
0.00136495
0.00018434
0.000223836
0.000186554
0.000202332
0.00019857
0.000213953
0.000214564
0.000217992
0.000220532
0.000222878
0.000224546
0.000473838
8.89563e-05
8.64781e-05
8.18677e-05
8.11605e-05
7.8243e-05
7.82787e-05
7.56593e-05
7.60338e-05
7.41862e-05
7.44431e-05
7.31159e-05
0.0288599
0.0279836
0.0268361
0.0255508
0.023975
0.0221078
0.0198527
0.017157
0.0140277
0.0105633
0.0064522
0.00333955
0.0252315
0.0239938
0.0224874
0.0207596
0.0186914
0.0162717
0.0134315
0.0101795
0.00648732
0.00315205
0.0014565
0.00141721
0.0208492
0.0192473
0.0173566
0.0151776
0.0126244
0.00969873
0.00625322
0.00281733
0.000883077
0.00044947
0.000477598
0.000606139
0.015772
0.013789
0.0114972
0.00885965
0.0057196
0.00253537
0.000630161
0.000236111
0.000201888
0.000316506
0.000272203
0.000295559
0.0100708
0.00766586
0.00486515
0.00212217
0.000547478
0.000220134
0.000206522
0.000262159
0.000244813
0.00024428
0.000239375
0.000234918
0.00370983
0.00155017
0.000471764
0.000340499
0.000234443
0.000254365
0.000250604
0.000249024
0.000247988
0.000245441
0.000243433
0.000240742
0.000366713
0.000904145
0.000250459
0.000258265
0.000257414
0.000257264
0.000256404
0.000254873
0.000253064
0.000251465
0.000249844
0.000247678
0.000263159
0.000267551
0.000263169
0.000263035
0.00026296
0.000262838
0.000262022
0.000260833
0.000259473
0.000258217
0.000256714
0.000254705
0.000268925
0.000268004
0.000267342
0.000266884
0.000266546
0.000266265
0.00026588
0.000265294
0.000264427
0.00026329
0.000261951
0.000260092
0.000265896
0.000265441
0.000265118
0.000265028
0.000265003
0.00026506
0.000265004
0.000264739
0.000264128
0.000263212
0.000262002
0.000260237
0.000226617
0.000228317
0.000230165
0.000231967
0.000233999
0.000236157
0.000238619
0.000240769
0.000242755
0.000244553
0.000246176
0.000246817
7.3285e-05
7.22891e-05
7.24023e-05
7.16269e-05
7.17143e-05
7.11275e-05
7.12104e-05
7.08374e-05
7.09259e-05
7.08162e-05
7.09103e-05
7.0994e-05
0.00512193
0.0292015
0.033654
0.0336637
0.0335872
0.0332808
0.0329475
0.0326768
0.032315
0.0317277
0.0307716
0.0297487
0.00492715
0.0268188
0.0312511
0.0308614
0.0306474
0.0303808
0.0301654
0.0298795
0.0293546
0.0285126
0.0274447
0.0263255
0.00479823
0.0244997
0.0281516
0.0277185
0.0275325
0.0273523
0.027041
0.0265491
0.0257549
0.0246619
0.0234929
0.022228
0.00465366
0.0219106
0.0246443
0.0244885
0.0242792
0.023908
0.0234162
0.0225776
0.0215211
0.0203103
0.018975
0.0174757
0.00446707
0.019136
0.0211762
0.0210083
0.0206267
0.0199882
0.0191265
0.018085
0.0168668
0.0154658
0.0138978
0.0121127
0.00420444
0.0162999
0.0177784
0.017163
0.0164541
0.0155304
0.0144763
0.0132011
0.0118117
0.0101755
0.00830802
0.00612384
0.00388427
0.0128073
0.0140438
0.0126279
0.0120108
0.0107496
0.00953915
0.00792422
0.00624768
0.00429106
0.00249004
0.000979012
0.00345979
0.00900957
0.00983732
0.00785981
0.00726723
0.00541114
0.00418249
0.00248853
0.00138977
0.000525023
0.000290515
0.000551066
0.00282002
0.00445317
0.0049102
0.00293022
0.00255456
0.00107117
0.00075864
0.000415198
0.000280998
0.00028704
0.000268348
0.000271202
0.00209666
0.00104311
0.00120607
0.000481167
0.000437371
0.000332426
0.000264648
0.000261724
0.000268151
0.000267224
0.000267501
0.000266645
0.00136494
0.000184338
0.000223835
0.000186554
0.000202332
0.000198571
0.000213954
0.000214565
0.000217992
0.000220532
0.000222879
0.000224546
0.000473835
8.89564e-05
8.64781e-05
8.18678e-05
8.11606e-05
7.82431e-05
7.82789e-05
7.56594e-05
7.60339e-05
7.41864e-05
7.44433e-05
7.31161e-05
0.0288599
0.0279836
0.0268361
0.0255508
0.023975
0.0221078
0.0198526
0.0171569
0.0140277
0.0105633
0.0064522
0.00333955
0.0252314
0.0239938
0.0224874
0.0207596
0.0186914
0.0162717
0.0134315
0.0101795
0.0064873
0.00315204
0.0014565
0.00141721
0.0208492
0.0192473
0.0173566
0.0151776
0.0126243
0.00969869
0.00625318
0.00281731
0.000883074
0.000449471
0.000477598
0.000606138
0.015772
0.013789
0.0114971
0.00885961
0.00571956
0.00253534
0.000630152
0.00023611
0.000201891
0.000316504
0.000272203
0.000295559
0.0100708
0.00766581
0.00486511
0.00212214
0.000547473
0.000220134
0.000206524
0.00026216
0.000244814
0.00024428
0.000239375
0.000234919
0.00370978
0.00155014
0.000471759
0.000340506
0.000234444
0.000254366
0.000250605
0.000249025
0.000247989
0.000245442
0.000243434
0.000240743
0.00036671
0.000904149
0.00025046
0.000258266
0.000257415
0.000257265
0.000256405
0.000254874
0.000253065
0.000251465
0.000249844
0.000247679
0.000263159
0.000267551
0.00026317
0.000263035
0.000262961
0.000262839
0.000262023
0.000260834
0.000259474
0.000258218
0.000256715
0.000254706
0.000268926
0.000268004
0.000267342
0.000266885
0.000266546
0.000266266
0.000265881
0.000265294
0.000264428
0.000263291
0.000261952
0.000260093
0.000265897
0.000265442
0.000265119
0.000265029
0.000265004
0.00026506
0.000265005
0.00026474
0.000264128
0.000263213
0.000262003
0.000260238
0.000226617
0.000228318
0.000230165
0.000231968
0.000234
0.000236158
0.00023862
0.00024077
0.000242756
0.000244554
0.000246176
0.000246818
7.32852e-05
7.22893e-05
7.24025e-05
7.1627e-05
7.17144e-05
7.11277e-05
7.12106e-05
7.08376e-05
7.09262e-05
7.08164e-05
7.09105e-05
7.09943e-05
0.00512193
0.0292015
0.033654
0.0336637
0.0335872
0.0332808
0.0329475
0.0326768
0.0323149
0.0317277
0.0307716
0.0297487
0.00492715
0.0268188
0.031251
0.0308614
0.0306474
0.0303808
0.0301654
0.0298794
0.0293545
0.0285126
0.0274446
0.0263254
0.00479823
0.0244997
0.0281516
0.0277185
0.0275325
0.0273523
0.027041
0.0265491
0.0257549
0.0246619
0.0234929
0.022228
0.00465366
0.0219106
0.0246442
0.0244885
0.0242792
0.023908
0.0234162
0.0225776
0.0215211
0.0203103
0.018975
0.0174757
0.00446707
0.019136
0.0211762
0.0210082
0.0206266
0.0199882
0.0191265
0.0180849
0.0168668
0.0154658
0.0138978
0.0121127
0.00420444
0.0162999
0.0177784
0.0171629
0.0164541
0.0155303
0.0144762
0.0132011
0.0118117
0.0101755
0.00830801
0.00612383
0.00388427
0.0128073
0.0140438
0.0126279
0.0120108
0.0107496
0.00953914
0.00792422
0.00624768
0.00429106
0.00249004
0.000979015
0.00345979
0.00900956
0.00983731
0.00785979
0.00726722
0.00541113
0.00418248
0.00248853
0.00138977
0.000525019
0.00029052
0.000551063
0.00282002
0.00445316
0.00491019
0.00293021
0.00255456
0.00107116
0.000758638
0.000415196
0.000280999
0.00028704
0.000268349
0.000271202
0.00209667
0.0010431
0.00120606
0.000481165
0.000437369
0.000332426
0.000264648
0.000261724
0.000268151
0.000267224
0.000267501
0.000266645
0.00136494
0.000184338
0.000223834
0.000186554
0.000202332
0.00019857
0.000213954
0.000214564
0.000217992
0.000220532
0.000222879
0.000224546
0.000473837
8.89566e-05
8.6478e-05
8.18679e-05
8.11607e-05
7.82431e-05
7.82789e-05
7.56594e-05
7.60339e-05
7.41864e-05
7.44433e-05
7.3116e-05
0.0288599
0.0279836
0.0268361
0.0255508
0.0239749
0.0221078
0.0198526
0.0171569
0.0140277
0.0105633
0.00645219