/*--------------------------------*- C++ -*----------------------------------*\
| =========                 |                                                 |
| \\      /  F ield         | OpenFOAM: The Open Source CFD Toolbox           |
|  \\    /   O peration     | Version:  2212                                  |
|   \\  /    A nd           | Website:  www.openfoam.com                      |
|    \\/     M anipulation  |                                                 |
\*---------------------------------------------------------------------------*/
FoamFile
{
    version     2.0;
    format      ascii;
    arch        "LSB;label=32;scalar=64";
    class       volScalarField;
    location    "0.05";
    object      epsilon;
}
// * * * * * * * * * * * * * * * * * * * * * * * * * * * * * * * * * * * * * //

dimensions      [0 2 -3 0 0 0 0];

internalField   nonuniform List<scalar> 
3072
(
2060.44
1833.45
2281.19
2276.89
2227.55
1964.49
1821.04
2603.97
13630
34135.5
44083.2
49174.9
5579.26
5045.92
4024.36
3407.19
4129.77
6562.16
16693.4
23498
25189.7
32818.9
35416.6
36666.3
7916.77
6191.47
6219.6
7501.31
14963.2
20394
20906.5
22309.2
24826.1
27824
28826.8
29977.4
11128.1
8603.89
9996.81
12500.7
16957
18593.7
18886.9
21073.5
23683.7
25146.4
25948.2
26784.3
13140
10526.4
12636.8
13821.7
15769.2
16542.7
18646.9
21131.9
23006
23966.5
24536.7
25078.2
14502
11436.6
12796.1
13424.7
15117.3
16858.9
19262.6
21539.2
22836.8
23374
23684.5
23988.1
14940.1
11432.4
12385.5
13546.9
15844.2
18218.1
20643.4
22309.7
23124.4
23435.1
23535.7
23640.9
16149.3
11753.3
12983.9
15359.2
18713.2
21344.9
23202.4
24137.3
24395.7
24351.3
24234.6
24200.3
18122.9
13304.9
16794.3
21619.2
26067.8
28389.8
29127.9
28883.3
28192.6
27438.4
26807.2
26396.6
22310.5
18385.9
28423.7
37008.9
42300.4
43398.4
41998.9
39461.2
36818.4
34498.7
32656.7
31316
25788.3
34151.5
55889
67967.3
71045.1
68784.3
63175.5
56900.1
51061.7
46121.2
42192.5
39206.7
97146.9
97914.5
107909
110183
106177
97046.7
86634.6
76512.4
67439.2
59769.9
53579.7
48731.5
53386.6
55525.4
56798
56992.1
57063.2
54428.3
50599.4
44514.2
37000
28196.8
17922.5
21713.2
37767.8
38638.5
39433.6
40183.9
41074
42433.4
44967.7
48568
53409.5
59047.5
61774.6
72937.5
30934.1
31638.7
32230.4
32850.7
33918.5
35822.7
39078.2
44276.8
52319.4
64118.1
81094.4
115725
27454.9
28040.2
28638
29369.8
30518.9
32474.5
35819.8
41371.7
50476.2
65620.4
92682.9
146589
25515.6
25929.7
26402.8
27060.2
28145.2
30041.7
33345.1
38974.7
48534.4
65466.6
99398.1
172690
24274.9
24608.2
25059.5
25747.8
26889.8
28824.8
32103.7
37657.4
47280.9
64930
103197
196311
23815.5
24107.8
24577.7
25330.4
26543.6
28511.1
31761.3
37235.3
46759.5
64490.7
105535
219551
24298.3
24563.4
25060.5
25881.2
27155.5
29136.5
32305.1
37587
46906
64650.2
106976
247072
26264.1
26426.1
26869
27676.3
28968.1
30928.6
33973.7
38992.2
47988.4
65659
109238
280162
30503.9
30241.8
30478.8
31113.4
32248.7
34076.3
36896.3
41494.2
49957.2
67156.6
111466
315513
37181.5
36076.2
35854
36289.9
37159.3
38656
41041.9
44988
52488.8
68573.9
113947
358052
45324.2
43306.3
42458.3
42605.2
43235.2
44278.6
45967.6
48857.5
54472.2
68707.9
114773
415912
2060.47
1833.47
2281.21
2276.9
2227.56
1964.5
1821.05
2604
13630.2
34135.7
44083.4
49175
5579.34
5045.98
4024.4
3407.22
4129.8
6562.21
16693.6
23498.1
25189.9
32819
35416.7
36666.4
7916.88
6191.54
6219.66
7501.38
14963.3
20394.1
20906.5
22309.3
24826.2
27824.1
28827
29977.6
11128.2
8603.99
9996.9
12500.8
16957
18593.7
18886.9
21073.6
23683.8
25146.5
25948.3
26784.5
13140.2
10526.5
12636.8
13821.7
15769.2
16542.8
18647
21132
23006.2
23966.6
24536.8
25078.3
14502.1
11436.7
12796.2
13424.7
15117.4
16859
19262.8
21539.3
22836.9
23374.2
23684.6
23988.2
14940.3
11432.5
12385.6
13547
15844.3
18218.3
20643.5
22309.9
23124.5
23435.2
23535.8
23641
16149.4
11753.4
12984
15359.3
18713.3
21345.1
23202.6
24137.5
24395.8
24351.4
24234.7
24200.5
18123
13304.9
16794.3
21619.3
26067.9
28389.9
29128
28883.4
28192.7
27438.5
26807.3
26396.7
22310.5
18385.9
28423.7
37008.9
42300.4
43398.5
41999
39461.3
36818.5
34498.8
32656.8
31316.1
25788.3
34151.5
55889
67967.3
71045.1
68784.2
63175.5
56900.1
51061.7
46121.3
42192.6
39206.7
97147
97914.7
107909
110183
106177
97046.8
86634.7
76512.5
67439.2
59770
53579.8
48731.5
53386.8
55525.6
56798.2
56992.3
57063.4
54428.4
50599.5
44514.3
37000.1
28196.8
17922.5
21713.2
37767.9
38638.6
39433.7
40184
41074.1
42433.5
44967.8
48568.1
53409.6
59047.6
61774.7
72937.6
30934.2
31638.8
32230.5
32850.8
33918.6
35822.8
39078.3
44276.9
52319.6
64118.2
81094.6
115726
27455
28040.3
28638.2
29369.9
30519
32474.6
35819.9
41371.9
50476.3
65620.5
92683.1
146589
25515.8
25929.8
26402.9
27060.3
28145.3
30041.8
33345.2
38974.8
48534.5
65466.8
99398.4
172691
24275.1
24608.3
25059.7
25747.9
26889.9
28825
32103.8
37657.6
47281.1
64930.2
103197
196312
23815.7
24108
24577.8
25330.5
26543.7
28511.2
31761.4
37235.4
46759.6
64490.9
105535
219551
24298.4
24563.5
25060.6
25881.3
27155.6
29136.6
32305.2
37587.1
46906.1
64650.4
106976
247072
26264.2
26426.2
26869.1
27676.4
28968.2
30928.7
33973.8
38992.3
47988.5
65659.2
109238
280162
30504.1
30241.9
30478.9
31113.5
32248.8
34076.4
36896.4
41494.3
49957.3
67156.8
111466
315514
37181.5
36076.3
35854.1
36290
37159.3
38656.1
41042
44988.1
52488.9
68574
113947
358052
45324.2
43306.3
42458.4
42605.2
43235.2
44278.6
45967.7
48857.6
54472.3
68708
114773
415912
2060.48
1833.48
2281.23
2276.93
2227.59
1964.52
1821.07
2604.01
13630.1
34135.7
44083.3
49175
5579.38
5046.01
4024.43
3407.25
4129.84
6562.24
16693.5
23498.1
25189.8
32819
35416.7
36666.3
7916.94
6191.58
6219.71
7501.44
14963.4
20394.1
20906.5
22309.3
24826.2
27824
28826.9
29977.5
11128.3
8604.03
9996.95
12500.8
16957
18593.7
18886.9
21073.6
23683.7
25146.5
25948.3
26784.4
13140.2
10526.6
12636.9
13821.7
15769.2
16542.7
18647
21132
23006.1
23966.6
24536.8
25078.3
14502.2
11436.8
12796.3
13424.8
15117.4
16859
19262.8
21539.3
22836.9
23374.1
23684.6
23988.2
14940.4
11432.6
12385.6
13547
15844.3
18218.3
20643.5
22309.9
23124.5
23435.2
23535.8
23641
16149.5
11753.4
12984
15359.3
18713.3
21345.1
23202.6
24137.5
24395.8
24351.4
24234.8
24200.5
18123.1
13305
16794.4
21619.3
26067.9
28389.9
29128.1
28883.4
28192.8
27438.6
26807.3
26396.7
22310.6
18386
28423.8
37009
42300.5
43398.6
41999.1
39461.4
36818.6
34498.8
32656.8
31316.1
25788.4
34151.6
55889.1
67967.4
71045.3
68784.4
63175.6
56900.3
51061.8
46121.4
42192.7
39206.8
97147.3
97914.8
107909
110183
106177
97046.9
86634.8
76512.6
67439.3
59770.1
53579.9
48731.6
53386.8
55525.5
56798.1
56992.3
57063.4
54428.4
50599.5
44514.2
37000.1
28196.8
17922.5
21713.1
37767.9
38638.5
39433.7
40184
41074
42433.5
44967.8
48568
53409.5
59047.5
61774.6
72937.4
30934.2
31638.7
32230.5
32850.8
33918.6
35822.8
39078.2
44276.8
52319.5
64118.1
81094.4
115725
27454.9
28040.3
28638.1
29369.9
30519
32474.6
35819.9
41371.8
50476.3
65620.4
92683
146589
25515.7
25929.8
26402.9
27060.3
28145.3
30041.8
33345.2
38974.8
48534.4
65466.7
99398.2
172690
24275
24608.3
25059.7
25747.9
26889.9
28824.9
32103.8
37657.6
47281
64930.1
103197
196311
23815.7
24108
24577.8
25330.5
26543.7
28511.2
31761.4
37235.4
46759.6
64490.8
105535
219551
24298.4
24563.5
25060.7
25881.3
27155.6
29136.6
32305.2
37587.1
46906.1
64650.3
106976
247072
26264.2
26426.2
26869.1
27676.4
28968.3
30928.7
33973.8
38992.3
47988.5
65659.1
109238
280162
30504.1
30241.9
30479
31113.5
32248.8
34076.4
36896.4
41494.3
49957.3
67156.7
111466
315513
37181.6
36076.3
35854.1
36290.1
37159.4
38656.1
41042
44988.1
52488.9
68573.9
113947
358052
45324.3
43306.4
42458.4
42605.3
43235.3
44278.6
45967.7
48857.6
54472.3
68708
114773
415912
2060.45
1833.46
2281.19
2276.89
2227.55
1964.49
1821.04
2603.97
13630
34135.5
44083.1
49174.8
5579.29
5045.95
4024.37
3407.2
4129.77
6562.15
16693.4
23498
25189.7
32818.8
35416.5
36666.2
7916.82
6191.5
6219.62
7501.32
14963.2
20394
20906.4
22309.2
24826.1
27823.9
28826.8
29977.4
11128.2
8603.92
9996.83
12500.7
16956.9
18593.6
18886.8
21073.5
23683.6
25146.4
25948.2
26784.3
13140.1
10526.5
12636.8
13821.6
15769.1
16542.7
18646.9
21131.9
23006
23966.5
24536.7
25078.2
14502.1
11436.6
12796.1
13424.7
15117.3
16858.9
19262.7
21539.2
22836.8
23374.1
23684.5
23988.1
14940.2
11432.4
12385.5
13546.9
15844.2
18218.2
20643.4
22309.8
23124.4
23435.1
23535.7
23641
16149.3
11753.3
12983.9
15359.2
18713.2
21345
23202.5
24137.4
24395.7
24351.3
24234.7
24200.4
18122.9
13304.9
16794.3
21619.2
26067.8
28389.8
29127.9
28883.3
28192.7
27438.5
26807.2
26396.6
22310.5
18385.9
28423.7
37008.9
42300.4
43398.5
41999
39461.3
36818.5
34498.8
32656.8
31316.1
25788.3
34151.4
55889
67967.3
71045.1
68784.3
63175.6
56900.2
51061.8
46121.4
42192.6
39206.8
97147
97914.7
107909
110183
106177
97046.8
86634.7
76512.5
67439.3
59770.1
53579.8
48731.6
53386.5
55525.3
56797.9
56992.1
57063.2
54428.2
50599.3
44514.1
37000
28196.7
17922.5
21713.1
37767.8
38638.4
39433.6
40183.9
41073.9
42433.4
44967.7
48567.9
53409.4
59047.4
61774.5
72937.3
30934.1
31638.6
32230.4
32850.7
33918.5
35822.7
39078.1
44276.8
52319.4
64118
81094.3
115725
27454.9
28040.2
28638.1
29369.8
30518.9
32474.5
35819.8
41371.8
50476.2
65620.3
92682.8
146589
25515.7
25929.7
26402.8
27060.2
28145.2
30041.7
33345.1
38974.7
48534.4
65466.6
99398.1
172690
24275
24608.2
25059.6
25747.8
26889.9
28824.9
32103.7
37657.5
47280.9
64930.1
103197
196311
23815.6
24107.9
24577.7
25330.4
26543.7
28511.2
31761.3
37235.3
46759.5
64490.7
105535
219551
24298.3
24563.5
25060.6
25881.3
27155.5
29136.5
32305.2
37587
46906
64650.3
106975
247071
26264.1
26426.2
26869.1
27676.4
28968.2
30928.7
33973.7
38992.3
47988.5
65659
109238
280161
30504.1
30241.9
30478.9
31113.5
32248.8
34076.4
36896.4
41494.2
49957.3
67156.7
111466
315513
37181.6
36076.3
35854.1
36290
37159.4
38656.1
41042
44988.1
52488.9
68573.9
113947
358051
45324.3
43306.4
42458.4
42605.2
43235.3
44278.6
45967.7
48857.6
54472.2
68707.9
114773
415911
155193
144498
133804
125072
116607
107319
97558.8
87712.2
78318.4
69909.9
62782.9
56939.4
96444.5
97611.2
97332.2
96774.8
95580
93402.7
89969.3
84564.3
78104.1
71925.9
66161.7
61074.7
65683.4
67736.6
69165.6
70507.4
71769.2
72718.9
72672.3
71743.9
70099.1
67567
64148.9
60933.9
51863.6
53416.9
54691.9
55891.4
57138.3
58424.7
59491.3
60242.2
60249.8
59759
58816.9
57571.1
52791.3
50371.6
49185.9
48993.1
49209.4
49590.9
50173.9
51495.8
54703.5
63289.1
87250.8
172848
57502.4
55570.9
54398.1
53629.2
52827.3
52126.5
51605.6
51737.7
52780.9
56265.7
65938.5
90619
58797.5
57614.1
56186.6
54594.6
52728
50905.7
49326.2
48382.4
48352.9
49426.8
53293.5
61755.1
56318.4
54624.1
52207.9
49631.6
47120.7
45177.2
43839.5
43253.6
43375.7
44073.9
46157.9
49636.7
155193
144499
133805
125072
116608
107319
97558.9
87712.3
78318.5
69910
62782.9
56939.5
96444.8
97611.8
97332.7
96775.3
95580.3
93403
89969.5
84564.4
78104.2
71926
66161.8
61074.7
65683.6
67737
69166
70507.8
71769.5
72719.1
72672.5
71744
70099.3
67567.1
64149
60934
51863.7
53417.1
54692.1
55891.7
57138.6
58424.9
59491.4
60242.4
60249.9
59759.1
58817
57571.2
52791.3
50371.7
49185.9
48993.1
49209.4
49591
50173.9
51495.9
54703.5
63289.2
87250.9
172848
57502.5
55570.9
54398.1
53629.2
52827.4
52126.6
51605.6
51737.8
52781
56265.8
65938.6
90619.2
58797.6
57614.1
56186.7
54594.6
52728.1
50905.7
49326.2
48382.4
48352.9
49426.8
53293.6
61755.2
56318.4
54624.1
52207.9
49631.7
47120.7
45177.2
43839.6
43253.7
43375.8
44074
46158
49636.8
155193
144499
133805
125072
116608
107319
97559
87712.4
78318.6
69910.1
62783
56939.6
96444.9
97611.9
97332.8
96775.3
95580.4
93403
89969.5
84564.4
78104.2
71926
66161.8
61074.8
65683.7
67737.1
69166.1
70507.8
71769.6
72719.2
72672.5
71744.1
70099.3
67567.1
64149
60934
51863.8
53417.2
54692.2
55891.7
57138.6
58424.9
59491.5
60242.4
60249.9
59759.1
58817
57571.1
52791.4
50371.7
49185.9
48993.2
49209.5
49591
50173.9
51495.8
54703.5
63289.2
87250.8
172848
57502.5
55571
54398.2
53629.2
52827.3
52126.6
51605.6
51737.7
52781
56265.8
65938.6
90619.1
58797.6
57614.2
56186.7
54594.6
52728
50905.7
49326.2
48382.4
48352.9
49426.8
53293.6
61755.1
56318.4
54624.1
52207.9
49631.6
47120.7
45177.2
43839.6
43253.7
43375.8
44073.9
46157.9
49636.8
155193
144499
133805
125072
116607
107319
97558.9
87712.4
78318.6
69910.1
62783
56939.6
96444.8
97611.8
97332.7
96775.2
95580.3
93402.9
89969.5
84564.4
78104.2
71926
66161.8
61074.8
65683.6
67737
69166
70507.8
71769.5
72719.1
72672.5
71744
70099.3
67567.1
64149
60934
51863.8
53417.2
54692.1
55891.7
57138.6
58424.9
59491.4
60242.4
60249.9
59759
58817
57571.1
52791.4
50371.7
49185.9
48993.2
49209.5
49591
50173.9
51495.8
54703.5
63289.2
87250.8
172848
57502.5
55571
54398.1
53629.2
52827.3
52126.6
51605.6
51737.7
52781
56265.7
65938.5
90619.1
58797.6
57614.1
56186.7
54594.6
52728
50905.7
49326.2
48382.4
48352.9
49426.7
53293.5
61755
56318.4
54624.1
52207.9
49631.6
47120.7
45177.2
43839.5
43253.6
43375.7
44073.9
46157.9
49636.6
47270.8
48390.8
49500.5
50582.7
51527.3
52264.1
52773.1
52828.6
52053.2
50746.3
48937.6
46927.6
44210.4
45290
46324.9
47157.8
47755.3
48104.6
47894.5
46824
44991.7
42701.5
40237.1
38192.5
41578.3
42533.5
43298.4
43869.2
44236.4
44219.5
43442.3
42084.7
40313
38565.9
37112.1
36095.3
38246.9
38855.5
39374.6
39704.8
39774.3
39390.1
38607.2
37758.4
37229.5
37740.8
39884.1
42525.2
45175.4
42396.8
40271
39507.9
39004.5
39177.1
39698.7
40563.3
41689.3
43044.4
44861.7
46309.9
36895.1
34197.8
33597.5
34305.3
35160.5
36412.1
37708.5
39091.7
40457.5
41753.1
42883.2
43603.5
35265.9
30232.5
29661.3
31193.2
32676.9
34357.1
35925.7
37409.3
38680.7
39659.3
40379.8
40954.2
46527.6
28123.6
26745.4
28484.1
30153
31893.7
33448.1
34819.9
35843.2
36598.1
37169.5
37677.5
47271
48391
49500.7
50582.9
51527.4
52264.2
52773.1
52828.7
52053.3
50746.3
48937.7
46927.7
44210.5
45290.1
46325
47157.8
47755.4
48104.7
47894.5
46824
44991.8
42701.6
40237.2
38192.6
41578.4
42533.6
43298.5
43869.2
44236.5
44219.5
43442.4
42084.8
40313
38566
37112.1
36095.4
38247
38855.5
39374.6
39704.8
39774.3
39390.1
38607.3
37758.4
37229.6
37740.8
39884.2
42525.3
45175.4
42396.8
40271
39508
39004.6
39177.1
39698.8
40563.3
41689.3
43044.5
44861.7
46310
36895.2
34197.8
33597.5
34305.4
35160.5
36412.2
37708.6
39091.7
40457.6
41753.2
42883.3
43603.5
35265.9
30232.5
29661.3
31193.2
32676.9
34357.2
35925.7
37409.3
38680.7
39659.3
40379.8
40954.2
46527.6
28123.6
26745.4
28484.1
30153
31893.7
33448.1
34819.9
35843.2
36598.1
37169.5
37677.5
47271.1
48391
49500.7
50582.9
51527.5
52264.2
52773.1
52828.6
52053.2
50746.3
48937.6
46927.6
44210.6
45290.1
46325
47157.8
47755.3
48104.6
47894.5
46824
44991.7
42701.5
40237.1
38192.5
41578.4
42533.6
43298.4
43869.2
44236.4
44219.5
43442.3
42084.7
40313
38565.9
37112
36095.3
38246.9
38855.5
39374.6
39704.7
39774.3
39390
38607.2
37758.3
37229.5
37740.8
39884.1
42525.2
45175.4
42396.8
40271
39507.9
39004.5
39177.1
39698.7
40563.3
41689.3
43044.4
44861.7
46310
36895.1
34197.8
33597.5
34305.3
35160.5
36412.1
37708.5
39091.7
40457.5
41753.1
42883.2
43603.5
35265.9
30232.5
29661.3
31193.2
32676.9
34357.1
35925.7
37409.3
38680.7
39659.3
40379.8
40954.2
46527.5
28123.6
26745.3
28484
30153
31893.6
33448.1
34819.9
35843.2
36598.1
37169.5
37677.5
47271
48391
49500.7
50582.8
51527.4
52264.2
52773.1
52828.6
52053.2
50746.2
48937.6
46927.6
44210.5
45290.1
46324.9
47157.8
47755.3
48104.6
47894.5
46823.9
44991.7
42701.5
40237.1
38192.5
41578.3
42533.6
43298.4
43869.2
44236.4
44219.5
43442.3
42084.7
40312.9
38565.9
37112
36095.3
38246.9
38855.4
39374.5
39704.7
39774.2
39390
38607.2
37758.3
37229.5
37740.8
39884.1
42525.2
45175.3
42396.8
40271
39507.9
39004.5
39177
39698.7
40563.2
41689.2
43044.3
44861.5
46309.7
36895.1
34197.8
33597.4
34305.3
35160.5
36412.1
37708.5
39091.6
40457.4
41753
42883.1
43603.3
35265.8
30232.4
29661.3
31193.2
32676.8
34357.1
35925.7
37409.3
38680.6
39659.2
40379.7
40954.1
46527.5
28123.6
26745.3
28484
30153
31893.6
33448.1
34819.8
35843.1
36598
37169.4
37677.4
33554.5
33809.8
33883.9
33656.5
33019.9
31972.2
30595
29074.9
27542.4
25823.4
24979.9
27130.3
27493.6
27150.7
26413.2
25250.7
23503.4
21118.9
17972.1
13912.3
9024.74
4995.17
2799.46
1806.77
20273.8
19172.7
17550.3
15402.9
12590.8
9134.98
5224.35
2097.56
648.254
219.24
150.742
123.737
12668.5
10946.1
8751.46
6156.86
3350.22
1196.44
247.964
31.0587
20.2388
11.1371
13.4161
12.6064
5800.71
3946.85
2078.47
716.652
130.034
10.0666
8.70145
5.00672
5.73765
5.60935
5.6579
5.58572
1153.47
376.759
76.0544
3.34686
6.81987
4.9974
5.15726
5.16091
5.18243
5.21964
5.26585
5.32506
44.9948
1.30462
5.69341
4.85144
4.89032
4.90572
4.93496
4.97481
5.0159
5.05517
5.10077
5.15488
4.9605
4.55075
4.64633
4.67245
4.69696
4.72213
4.75729
4.80007
4.84522
4.89044
4.94135
5.00047
4.33953
4.3755
4.40877
4.44086
4.47146
4.50242
4.53372
4.56782
4.60614
4.64936
4.69997
4.76439
3.8949
3.92534
3.95308
3.981
4.00647
4.03376
4.0613
4.09451
4.13109
4.17456
4.22344
4.28317
3.24674
3.25023
3.25097
3.25293
3.25216
3.25111
3.24677
3.24817
3.25266
3.26025
3.27004
3.28897
3.52569
3.38415
3.40029
3.29242
3.30469
3.22445
3.23597
3.18563
3.19786
3.18329
3.19626
3.20778
96930.2
26174
23843.4
25548.4
27136.3
28722.7
30058
31120.9
31917.3
32515.7
32948.9
33268.6
75240.2
21795.8
20565.5
22239.4
23586.1
24796.4
25771.1
26532.1
27127.4
27497.2
27655.4
27662.6
60853.6
17891.5
17204.9
18543.5
19511
20319
20975.1
21468.4
21746.5
21786
21531.3
21041.3
48854
14213
13780
14638.3
15243.9
15732.6
16065.2
16198
16099.3
15674.8
14987.8
14000.2
38175.7
10741.2
10387.1
10858.5
11159
11299
11298.6
11013.3
10520.9
9736.67
8719.15
7402.57
28226.9
7580.53
7186.82
7412.01
7423.65
7221.95
6879.29
6306.92
5578.08
4611.72
3509.68
2275.26
19806.6
4777.36
4473.73
4405.14
4164.61
3724.04
3220.67
2540.86
1863.83
1116.87
550.55
156.219
12497.3
2451.82
2294.31
1893.32
1683.08
1176.71
851.649
418.082
217.585
35.9195
29.3172
1.61259
6060.88
764.114
771.619
388.987
353.239
100.197
82.3305
6.40222
10.7207
3.5242
4.48161
4.26839
2236.57
94.6051
105.945
20.45
24.4231
2.90437
5.24757
3.73435
3.84528
3.8125
3.83547
3.86685
555.745
5.86807
8.40753
3.39011
3.76833
3.42445
3.29935
3.30706
3.26924
3.25503
3.24532
3.2487
952.66
6.27883
5.78235
4.90716
4.78267
4.28636
4.29316
3.8772
3.93572
3.65625
3.6948
3.50105
33554.6
33809.8
33884
33656.6
33019.9
31972.2
30595
29075
27542.5
25823.4
24980
27130.3
27493.6
27150.8
26413.2
25250.8
23503.4
21119
17972.1
13912.4
9024.79
4995.19
2799.47
1806.78
20273.9
19172.8
17550.4
15402.9
12590.8
9135.03
5224.39
2097.58
648.26
219.243
150.744
123.739
12668.5
10946.1
8751.51
6156.9
3350.25
1196.46
247.968
31.0596
20.2393
11.1377
13.4167
12.607
5800.75
3946.88
2078.49
716.663
130.037
10.0669
8.70179
5.00686
5.73782
5.60955
5.65811
5.58597
1153.49
376.765
76.0561
3.34686
6.81991
4.99737
5.15724
5.16089
5.18241
5.21961
5.26582
5.32504
44.9939
1.30445
5.69337
4.85137
4.89026
4.90565
4.93489
4.97474
5.01583
5.0551
5.1007
5.15481
4.96047
4.55071
4.64629
4.6724
4.69692
4.72209
4.75724
4.80002
4.84517
4.8904
4.9413
5.00042
4.33951
4.37548
4.40875
4.44084
4.47144
4.50239
4.53369
4.5678
4.60612
4.64933
4.69994
4.76436
3.8949
3.92533
3.95307
3.98099
4.00646
4.03375
4.06129
4.0945
4.13108
4.17455
4.22343
4.28316
3.24694
3.25023
3.25097
3.25293
3.25216
3.25111
3.24677
3.24817
3.25266
3.26025
3.27004
3.28897
3.52569
3.38415
3.40029
3.29242
3.30469
3.22445
3.23597
3.18563
3.19786
3.18329
3.19626
3.20779
96930.2
26174
23843.4
25548.4
27136.3
28722.7
30058
31120.9
31917.3
32515.6
32948.8
33268.5
75240.1
21795.8
20565.4
22239.4
23586.1
24796.4
25771.1
26532.1
27127.4
27497.1
27655.3
27662.5
60853.5
17891.5
17204.9
18543.5
19510.9
20319
20975.1
21468.3
21746.4
21785.9
21531.2
21041.3
48853.9
14212.9
13780
14638.3
15243.9
15732.6
16065.2
16197.9
16099.2
15674.7
14987.7
14000.1
38175.6
10741.1
10387.1
10858.5
11158.9
11298.9
11298.5
11013.2
10520.8
9736.6
8719.09
7402.51
28226.8
7580.49
7186.78
7411.97
7423.6
7221.89
6879.24
6306.87
5578.02
4611.66
3509.63
2275.23
19806.5
4777.33
4473.7
4405.11
4164.57
3723.99
3220.63
2540.82
1863.8
1116.85
550.536
156.214
12497.2
2451.8
2294.28
1893.29
1683.05
1176.69
851.626
418.067
217.577
35.9176
29.3165
1.61265
6060.8
764.098
771.604
388.975
353.227
100.192
82.3269
6.40175
10.7203
3.52427
4.48163
4.26842
2236.54
94.6019
105.941
20.4489
24.422
2.90438
5.24748
3.73438
3.84529
3.81253
3.8355
3.86687
555.734
5.86801
8.40736
3.39013
3.76833
3.42446
3.29937
3.30708
3.26926
3.25504
3.24534
3.24872
952.636
6.27884
5.78233
4.90716
4.78267
4.28636
4.29317
3.87721
3.93572
3.65626
3.69481
3.50106
33554.5
33809.8
33883.9
33656.5
33019.8
31972.1
30594.9
29074.9
27542.4
25823.4
24980
27130.3
27493.6
27150.7
26413.1
25250.7
23503.3
21118.9
17972.1
13912.3
9024.74
4995.17
2799.46
1806.77
20273.8
19172.7
17550.3
15402.8
12590.7
9134.97
5224.34
2097.56
648.256
219.242
150.743
123.738
12668.5
10946.1
8751.44
6156.85
3350.21
1196.44
247.964
31.0597
20.2392
11.1377
13.4166
12.607
5800.69
3946.84
2078.46
716.65
130.034
10.0666
8.70188
5.00689
5.73786
5.60959
5.65815
5.58601
1153.47
376.756
76.0543
3.34675
6.81988
4.99741
5.15727
5.16092
5.18244
5.21965
5.26586
5.32508
44.9927
1.30444
5.69337
4.8514
4.89029
4.90568
4.93493
4.97477
5.01587
5.05514
5.10073
5.15485
4.96047
4.55073
4.64632
4.67243
4.69694
4.72211
4.75727
4.80005
4.8452
4.89042
4.94133
5.00045
4.33953
4.3755
4.40877
4.44087
4.47146
4.50242
4.53372
4.56783
4.60614
4.64936
4.69997
4.76439
3.89492
3.92535
3.95309
3.98101
4.00648
4.03378
4.06132
4.09453
4.1311
4.17457
4.22346
4.28319
3.24695
3.25025
3.25099
3.25295
3.25218
3.25113
3.24679
3.2482
3.25268
3.26027
3.27006
3.28899
3.5257
3.38416
3.40031
3.29243
3.3047
3.22447
3.23599
3.18565
3.19788
3.18331
3.19628
3.2078
96930.1
26174
23843.3
25548.4
27136.2
28722.7
30058
31120.9
31917.3
32515.6
32948.8
33268.5
75240.1
21795.7
20565.4
22239.4
23586.1
24796.4
25771.1
26532
27127.3
27497.1
27655.3
27662.5
60853.5
17891.5
17204.9
18543.5
19510.9
20319
20975.1
21468.3
21746.4
21785.9
21531.2
21041.3
48853.9
14212.9
13780
14638.3
15243.9
15732.6
16065.2
16197.9
16099.2
15674.7
14987.7
14000.1
38175.6
10741.1
10387.1
10858.5
11158.9
11298.9
11298.5
11013.2
10520.8
9736.6
8719.09
7402.51
28226.8
7580.49
7186.78
7411.97
7423.6
7221.89
6879.24
6306.87
5578.02
4611.66
3509.63
2275.23
19806.6
4777.33
4473.7
4405.11
4164.57
3723.99
3220.63
2540.82
1863.8
1116.85
550.537
156.215
12497.2
2451.8
2294.28
1893.29
1683.05
1176.69
851.626
418.067
217.578
35.9178
29.3167
1.61267
6060.82
764.099
771.604
388.975
353.227
100.192
82.3268
6.40179
10.7203
3.52427
4.48164
4.26843
2236.55
94.6018
105.941
20.4489
24.4219
2.90438
5.24748
3.73438
3.84529
3.81253
3.8355
3.86687
555.739
5.86802
8.40735
3.39014
3.76832
3.42446
3.29936
3.30708
3.26926
3.25504
3.24534
3.24872
952.653
6.27888
5.78234
4.90718
4.78268
4.28638
4.29318
3.87722
3.93573
3.65627
3.69481
3.50106
33554.5
33809.8
33883.9
33656.5
33019.8
31972.1
30594.9
29074.9
27542.4
25823.4
24979.9
27130.3
27493.5
27150.7
26413.1
25250.7
23503.3
21118.9
17972.1
13912.3
9024.74
4995.17
2799.46
1806.77
20273.8
19172.7
17550.3
15402.8
12590.7
9134.96
5224.34
2097.56
648.257
219.244
150.744
123.74
12668.5
10946.1
8751.44
6156.84
3350.21
1196.44
247.964
31.0604
20.2396
11.1382
13.4171
12.6075
5800.69
3946.84
2078.46
716.651
130.034
10.0669
8.70195
5.00704
5.73802
5.60976
5.65833
5.58621
1153.47
376.756
76.0548
3.3468
6.81996
4.99746
5.15733
5.16098
5.1825
5.2197
5.26592
5.32514
44.9931
1.30443
5.69341
4.85143
4.89032
4.90571
4.93496
4.9748
5.0159
5.05517
5.10076
5.15488
4.9605
4.55075
4.64634
4.67245
4.69697
4.72214
4.75729
4.80007
4.84522
4.89045
4.94135
5.00048
4.33954
4.37551
4.40878
4.44088
4.47148
4.50243
4.53373
4.56784
4.60615
4.64937
4.69998
4.7644
3.89492
3.92536
3.95309
3.98101
4.00648
4.03378
4.06132
4.09453
4.13111
4.17457
4.22346
4.28319
3.24695
3.25024
3.25098
3.25294
3.25217
3.25113
3.24679
3.24819
3.25268
3.26026
3.27006
3.28898
3.5257
3.38416
3.4003
3.29243
3.3047
3.22447
3.23598
3.18564
3.19787
3.1833
3.19627
3.2078
96930
26174
23843.3
25548.3
27136.2
28722.7
30058
31120.9
31917.3
32515.6
32948.8
33268.5
75240
21795.7
20565.4
22239.4
23586.1
24796.4
25771.1
26532.1
27127.3
27497.1
27655.3
27662.6
60853.5
17891.5
17204.9
18543.5
19510.9
20319
20975.1
21468.3
21746.4
21785.9
21531.3
21041.3
48853.8
14212.9
13780
14638.3
15243.9
15732.6
16065.2
16197.9
16099.2
15674.7
14987.7
14000.2
38175.6
10741.1
10387.1
10858.5
11158.9
11298.9
11298.5
11013.2
10520.8
9736.62
8719.11
7402.52
28226.8
7580.49
7186.78
7411.97
7423.6
7221.9
6879.25
6306.88
5578.04
4611.68
3509.65
2275.24
19806.5
4777.33
4473.7
4405.11
4164.58
3724
3220.64
2540.84
1863.82
1116.86
550.545
156.217
12497.2
2451.8
2294.28
1893.29
1683.06
1176.7
851.638
418.077
217.584
35.9211
29.3187
1.61358
6060.83
764.106
771.61
388.983
353.235
100.198
82.3316
6.40433
10.7226
3.5261
4.48353
4.27035
2236.56
94.6066
105.946
20.4519
24.4248
2.9061
5.24926
3.73598
3.84695
3.81422
3.83724
3.86869
555.746
5.86946
8.40919
3.39141
3.76966
3.42577
3.30075
3.30845
3.27053
3.25627
3.24625
3.24956
952.658
6.27967
5.78372
4.90807
4.78364
4.28717
4.29403
3.87802
3.93653
3.65703
3.69558
3.50178
)
;

boundaryField
{
    rotor
    {
        type            epsilonWallFunction;
        blending        stepwise;
        value           nonuniform List<scalar> 
192
(
2060.44
1833.45
2281.19
2276.89
2227.55
1964.49
1821.04
2603.97
13630
34135.5
44083.2
49174.9
53386.6
55525.4
56798
56992.1
57063.2
54428.3
50599.4
44514.2
37000
28196.8
17922.5
21713.2
2060.47
1833.47
2281.21
2276.9
2227.56
1964.5
1821.05
2604
13630.2
34135.7
44083.4
49175
53386.8
55525.6
56798.2
56992.3
57063.4
54428.4
50599.5
44514.3
37000.1
28196.8
17922.5
21713.2
2060.48
1833.48
2281.23
2276.93
2227.59
1964.52
1821.07
2604.01
13630.1
34135.7
44083.3
49175
53386.8
55525.5
56798.1
56992.3
57063.4
54428.4
50599.5
44514.2
37000.1
28196.8
17922.5
21713.1
2060.45
1833.46
2281.19
2276.89
2227.55
1964.49
1821.04
2603.97
13630
34135.5
44083.1
49174.8
53386.5
55525.3
56797.9
56992.1
57063.2
54428.2
50599.3
44514.1
37000
28196.7
17922.5
21713.1
2060.44
5579.26
7916.77
11128.1
13140
14502
14940.1
16149.3
18122.9
22310.5
25788.3
97146.9
21713.1
72937.3
115725
146589
172690
196311
219551
247071
280161
315513
358051
415911
2060.47
5579.34
7916.88
11128.2
13140.2
14502.1
14940.3
16149.4
18123
22310.5
25788.3
97147
21713.2
72937.5
115725
146589
172690
196311
219551
247072
280162
315513
358052
415912
2060.48
5579.38
7916.94
11128.3
13140.2
14502.2
14940.4
16149.5
18123.1
22310.6
25788.4
97147.3
21713.2
72937.6
115726
146589
172691
196312
219551
247072
280162
315514
358052
415912
2060.45
5579.29
7916.82
11128.2
13140.1
14502.1
14940.2
16149.3
18122.9
22310.5
25788.3
97147
21713.1
72937.4
115725
146589
172690
196311
219551
247072
280162
315513
358052
415912
)
;
    }
    stator
    {
        type            epsilonWallFunction;
        blending        stepwise;
        value           nonuniform List<scalar> 
192
(
3.52569
3.38415
3.40029
3.29242
3.30469
3.22445
3.23597
3.18563
3.19786
3.18329
3.19626
3.20778
952.66
6.27883
5.78235
4.90716
4.78267
4.28636
4.29316
3.8772
3.93572
3.65625
3.6948
3.50105
3.52569
3.38415
3.40029
3.29242
3.30469
3.22445
3.23597
3.18563
3.19786
3.18329
3.19626
3.20779
952.636
6.27884
5.78233
4.90716
4.78267
4.28636
4.29317
3.87721
3.93572
3.65626
3.69481
3.50106
3.5257
3.38416
3.40031
3.29243
3.3047
3.22447
3.23599
3.18565
3.19788
3.18331
3.19628
3.2078
952.653
6.27888
5.78234
4.90718
4.78268
4.28638
4.29318
3.87722
3.93573
3.65627
3.69481
3.50106
3.5257
3.38416
3.4003
3.29243
3.3047
3.22447
3.23598
3.18564
3.19787
3.1833
3.19627
3.2078
952.658
6.27967
5.78372
4.90807
4.78364
4.28717
4.29403
3.87802
3.93653
3.65703
3.69558
3.50178
96930.2
75240.2
60853.6
48854
38175.7
28226.9
19806.6
12497.3
6060.88
2236.57
555.745
952.66
27130.3
1806.77
123.737
12.6064
5.58572
5.32506
5.15488
5.00047
4.76439
4.28317
3.28897
3.20778
96930.2
75240.1
60853.5
48853.9
38175.6
28226.8
19806.5
12497.2
6060.8
2236.54
555.734
952.636
27130.3
1806.78
123.739
12.607
5.58597
5.32504
5.15481
5.00042
4.76436
4.28316
3.28897
3.20779
96930.1
75240.1
60853.5
48853.9
38175.6
28226.8
19806.6
12497.2
6060.82
2236.55
555.739
952.653
27130.3
1806.77
123.738
12.607
5.58601
5.32508
5.15485
5.00045
4.76439
4.28319
3.28899
3.2078
96930
75240
60853.5
48853.8
38175.6
28226.8
19806.5
12497.2
6060.83
2236.56
555.746
952.658
27130.3
1806.77
123.74
12.6075
5.58621
5.32514
5.15488
5.00048
4.7644
4.28319
3.28898
3.2078
)
;
    }
    front
    {
        type            empty;
    }
    back
    {
        type            empty;
    }
}


// ************************************************************************* //
