/*--------------------------------*- C++ -*----------------------------------*\
| =========                 |                                                 |
| \\      /  F ield         | OpenFOAM: The Open Source CFD Toolbox           |
|  \\    /   O peration     | Version:  2212                                  |
|   \\  /    A nd           | Website:  www.openfoam.com                      |
|    \\/     M anipulation  |                                                 |
\*---------------------------------------------------------------------------*/
FoamFile
{
    version     2.0;
    format      ascii;
    arch        "LSB;label=32;scalar=64";
    class       volScalarField;
    location    "0.05";
    object      k;
}
// * * * * * * * * * * * * * * * * * * * * * * * * * * * * * * * * * * * * * //

dimensions      [0 2 -2 0 0 0 0];

internalField   nonuniform List<scalar> 
3072
(
2.3388
3.23833
3.74612
3.74141
3.68717
3.39085
3.2237
4.09165
12.335
22.7481
26.9768
29.016
4.89262
7.91307
8.42163
8.20364
8.36013
8.03482
12.1351
19.1736
21.9567
31.7365
38.5373
46.3072
6.60365
11.2539
13.1043
14.7032
19.32
21.6816
21.8712
26.9411
35.066
44.9748
52.9199
60.1767
8.80376
16.6355
18.7224
19.5238
22.1445
23.2739
27.0683
36.4008
45.9162
54.5971
61.6541
67.7203
10.3968
20.0431
22.0717
21.9605
23.4465
26.5937
34.8096
45.0471
53.8452
61.2178
67.2523
72.3959
11.6873
22.2205
23.6658
23.5666
26.4167
33.1409
42.8023
51.9828
59.5156
65.6253
70.7057
75.0912
12.5027
23.6355
25.6432
27.0411
32.4512
41.2077
50.1286
57.8098
64.0486
69.0931
73.3473
77.0961
13.7667
26.9102
30.8398
35.7417
44.0497
52.0667
59.1197
64.8935
69.5742
73.4003
76.701
79.7201
15.499
33.3269
42.9259
53.3384
62.7642
69.235
73.6066
76.6075
78.8802
80.7775
82.5739
84.4475
18.5147
42.9672
62.9377
78.4103
88.5819
93.2451
94.6064
94.2391
93.3471
92.5407
92.1498
92.3238
21.1612
56.5479
91.6335
111.474
120.48
122.331
120.439
116.421
112.084
108.205
105.165
103.104
53.0615
92.918
130.617
146.948
150.948
149.746
144.635
137.996
131.092
124.761
119.458
115.354
30.65
31.4632
31.9421
32.0149
32.0415
31.0474
29.5737
27.1523
24.0036
20.0266
14.805
11.2418
53.168
58.929
62.9164
64.9171
65.0001
64.3012
62.9397
60.4557
55.768
45.8474
32.7932
27.1513
66.0813
70.4135
73.2422
74.7764
75.5155
75.8683
75.8854
75.2813
73.1263
67.0098
50.3113
39.4794
72.6341
76.4742
79.3694
81.4755
83.1016
84.5549
86.0604
87.4699
87.8049
85.081
71.3958
49.1045
76.643
80.1322
83.0005
85.4255
87.6937
90.1282
93.019
96.3417
99.0853
99.2944
89.7483
57.9002
78.8559
82.1416
85.0884
87.8847
90.8178
94.244
98.4963
103.649
109.139
112.363
107.731
66.3833
80.4639
83.5909
86.6239
89.7597
93.2887
97.5909
103.066
109.92
117.732
124.133
124.073
75.0108
82.5988
85.4685
88.4781
91.8228
95.7834
100.756
107.223
115.582
125.643
134.986
138.152
84.8419
86.5005
88.8279
91.5727
94.903
99.0528
104.398
111.477
120.954
133.075
145.474
150.864
96.1813
93.0953
94.5099
96.7025
99.7617
103.829
109.2
116.367
126.276
139.882
155.561
164.66
108.274
102.346
102.945
104.366
106.799
110.525
115.583
122.223
131.575
145.337
164.027
180.247
122.243
112.984
112.905
113.966
115.874
118.902
123.268
128.733
136.446
148.049
167.988
194.434
139.903
2.33882
3.23835
3.74615
3.74143
3.68719
3.39086
3.22371
4.09168
12.3351
22.7482
26.9769
29.016
4.89266
7.91312
8.42166
8.20365
8.36013
8.03483
12.1352
19.1737
21.9568
31.7367
38.5374
46.3073
6.60371
11.254
13.1044
14.7032
19.32
21.6816
21.8712
26.9413
35.0662
44.9751
52.9201
60.1769
8.80385
16.6356
18.7225
19.5238
22.1445
23.274
27.0685
36.401
45.9165
54.5974
61.6544
67.7206
10.3969
20.0432
22.0718
21.9606
23.4466
26.5939
34.8099
45.0474
53.8455
61.2182
67.2527
72.3962
11.6874
22.2207
23.6659
23.5667
26.4169
33.1412
42.8027
51.9832
59.5159
65.6256
70.7061
75.0915
12.5028
23.6357
25.6434
27.0413
32.4517
41.2081
50.129
57.8102
64.049
69.0935
73.3477
77.0965
13.7668
26.9104
30.84
35.742
44.0502
52.0672
59.1201
64.8939
69.5747
73.4007
76.7015
79.7205
15.499
33.327
42.9261
53.3387
62.7645
69.2354
73.607
76.6079
78.8806
80.7779
82.5743
84.4479
18.5147
42.9672
62.9377
78.4104
88.582
93.2453
94.6067
94.2394
93.3475
92.5411
92.1502
92.3242
21.1612
56.5479
91.6335
111.474
120.48
122.331
120.439
116.421
112.084
108.206
105.165
103.104
53.0615
92.9181
130.617
146.948
150.948
149.746
144.635
137.996
131.092
124.761
119.458
115.354
30.65
31.4633
31.9422
32.0149
32.0416
31.0474
29.5737
27.1524
24.0036
20.0267
14.805
11.2418
53.1682
58.9292
62.9166
64.9173
65.0003
64.3014
62.9399
60.4559
55.7682
45.8475
32.7933
27.1513
66.0816
70.4138
73.2425
74.7766
75.5158
75.8685
75.8856
75.2815
73.1264
67.0099
50.3114
39.4795
72.6344
76.4745
79.3697
81.4758
83.1019
84.5552
86.0607
87.4702
87.8051
85.0812
71.396
49.1046
76.6433
80.1325
83.0008
85.4258
87.694
90.1285
93.0193
96.342
99.0855
99.2946
89.7485
57.9003
78.8563
82.142
85.0888
87.885
90.8182
94.2444
98.4966
103.65
109.14
112.363
107.731
66.3834
80.4643
83.5913
86.6243
89.7601
93.2891
97.5913
103.066
109.921
117.732
124.134
124.074
75.0109
82.5992
85.4689
88.4785
91.8232
95.7838
100.757
107.224
115.582
125.644
134.986
138.152
84.842
86.5009
88.8283
91.5731
94.9034
99.0532
104.398
111.478
120.954
133.075
145.474
150.864
96.1814
93.0957
94.5103
96.7028
99.762
103.83
109.201
116.367
126.276
139.883
155.562
164.66
108.274
102.346
102.945
104.366
106.799
110.526
115.583
122.223
131.575
145.338
164.028
180.247
122.243
112.984
112.905
113.967
115.874
118.902
123.268
128.734
136.447
148.049
167.988
194.434
139.903
2.33883
3.23837
3.74617
3.74146
3.68722
3.39089
3.22373
4.0917
12.3351
22.7482
26.9769
29.016
4.89268
7.91317
8.42174
8.20373
8.36022
8.03488
12.1352
19.1737
21.9568
31.7367
38.5374
46.3073
6.60374
11.2541
13.1045
14.7033
19.3201
21.6816
21.8712
26.9413
35.0661
44.975
52.9201
60.1769
8.80388
16.6357
18.7226
19.524
22.1445
23.274
27.0684
36.401
45.9165
54.5973
61.6544
67.7205
10.3969
20.0433
22.0719
21.9607
23.4466
26.5938
34.8099
45.0474
53.8455
61.2181
67.2526
72.3961
11.6874
22.2208
23.666
23.5668
26.4169
33.1412
42.8026
51.9832
59.5159
65.6256
70.706
75.0915
12.5028
23.6358
25.6435
27.0414
32.4516
41.2081
50.129
57.8103
64.049
69.0935
73.3477
77.0965
13.7668
26.9105
30.8401
35.7421
44.0502
52.0672
59.1202
64.894
69.5747
73.4007
76.7015
79.7205
15.4991
33.3271
42.9263
53.3388
62.7647
69.2355
73.6071
76.608
78.8807
80.778
82.5743
84.4479
18.5148
42.9674
62.9379
78.4106
88.5822
93.2455
94.6068
94.2396
93.3476
92.5412
92.1503
92.3243
21.1613
56.548
91.6337
111.475
120.481
122.332
120.439
116.421
112.085
108.206
105.165
103.104
53.0616
92.9182
130.617
146.949
150.949
149.746
144.635
137.996
131.092
124.761
119.459
115.354
30.65
31.4632
31.9422
32.0149
32.0415
31.0474
29.5737
27.1524
24.0036
20.0266
14.805
11.2418
53.1681
58.9291
62.9165
64.9172
65.0002
64.3014
62.9398
60.4558
55.7681
45.8474
32.7932
27.1513
66.0815
70.4137
73.2424
74.7766
75.5157
75.8684
75.8855
75.2815
73.1264
67.0098
50.3113
39.4794
72.6344
76.4745
79.3696
81.4758
83.1019
84.5551
86.0606
87.4701
87.805
85.0811
71.3959
49.1045
76.6433
80.1325
83.0008
85.4258
87.694
90.1284
93.0193
96.3419
99.0854
99.2945
89.7484
57.9002
78.8563
82.142
85.0888
87.885
90.8182
94.2443
98.4966
103.65
109.14
112.363
107.731
66.3833
80.4643
83.5913
86.6243
89.7601
93.2891
97.5912
103.066
109.921
117.732
124.134
124.074
75.0109
82.5993
85.4689
88.4785
91.8232
95.7838
100.757
107.224
115.582
125.644
134.986
138.152
84.842
86.501
88.8283
91.5731
94.9034
99.0532
104.398
111.478
120.954
133.075
145.474
150.864
96.1814
93.0958
94.5103
96.7029
99.7621
103.83
109.201
116.367
126.276
139.883
155.562
164.66
108.274
102.347
102.945
104.367
106.8
110.526
115.583
122.223
131.575
145.338
164.028
180.247
122.243
112.984
112.905
113.967
115.874
118.902
123.268
128.734
136.447
148.049
167.988
194.434
139.903
2.33881
3.23834
3.74613
3.74142
3.68718
3.39085
3.22369
4.09165
12.335
22.7481
26.9768
29.0159
4.89264
7.91309
8.42164
8.20363
8.36012
8.03481
12.1351
19.1736
21.9567
31.7365
38.5372
46.3072
6.60368
11.2539
13.1044
14.7032
19.3199
21.6815
21.8711
26.9411
35.066
44.9749
52.9199
60.1767
8.8038
16.6355
18.7224
19.5238
22.1444
23.2739
27.0683
36.4008
45.9163
54.5972
61.6542
67.7203
10.3968
20.0431
22.0717
21.9605
23.4465
26.5937
34.8097
45.0472
53.8453
61.2179
67.2524
72.3959
11.6873
22.2206
23.6658
23.5666
26.4167
33.141
42.8024
51.983
59.5157
65.6254
70.7058
75.0913
12.5027
23.6356
25.6433
27.0412
32.4514
41.2079
50.1288
57.81
64.0487
69.0932
73.3475
77.0962
13.7668
26.9103
30.8399
35.7419
44.05
52.067
59.1199
64.8937
69.5745
73.4005
76.7013
79.7203
15.499
33.327
42.9261
53.3386
62.7644
69.2353
73.6069
76.6078
78.8805
80.7778
82.5741
84.4477
18.5147
42.9672
62.9377
78.4104
88.582
93.2453
94.6066
94.2394
93.3474
92.541
92.1501
92.3241
21.1612
56.5478
91.6335
111.474
120.48
122.331
120.439
116.421
112.085
108.206
105.165
103.104
53.0615
92.9181
130.617
146.948
150.948
149.746
144.635
137.996
131.092
124.761
119.459
115.354
30.6499
31.4632
31.9421
32.0148
32.0415
31.0473
29.5736
27.1523
24.0036
20.0266
14.8049
11.2418
53.168
58.929
62.9164
64.9171
65.0001
64.3012
62.9397
60.4557
55.768
45.8474
32.7932
27.1513
66.0814
70.4135
73.2422
74.7764
75.5156
75.8683
75.8854
75.2814
73.1263
67.0098
50.3113
39.4794
72.6342
76.4743
79.3694
81.4756
83.1017
84.5549
86.0605
87.47
87.8049
85.0811
71.3958
49.1045
76.6431
80.1323
83.0006
85.4256
87.6938
90.1283
93.0191
96.3418
99.0853
99.2944
89.7483
57.9001
78.856
82.1418
85.0886
87.8848
90.818
94.2442
98.4964
103.65
109.139
112.363
107.731
66.3833
80.4641
83.5911
86.6241
89.7599
93.2889
97.591
103.066
109.921
117.732
124.133
124.073
75.0108
82.5991
85.4688
88.4783
91.823
95.7836
100.757
107.223
115.582
125.643
134.986
138.152
84.8419
86.5008
88.8282
91.573
94.9033
99.053
104.398
111.477
120.954
133.075
145.474
150.864
96.1813
93.0956
94.5102
96.7027
99.7619
103.83
109.201
116.367
126.276
139.883
155.562
164.66
108.274
102.346
102.945
104.366
106.799
110.526
115.583
122.223
131.575
145.338
164.027
180.247
122.243
112.984
112.905
113.967
115.874
118.902
123.268
128.734
136.446
148.049
167.988
194.434
139.903
164.523
161.686
162.425
163.764
163.582
161.65
157.031
150.876
143.958
137.194
131.157
126.13
164.8
158.323
155.617
155.413
155.961
155.679
154.204
151.242
146.843
142.057
137.305
133.041
152.816
148.892
145.658
144.121
143.949
144.284
144.44
143.957
142.783
140.758
138.228
135.975
139.974
138.329
136.426
134.868
134.323
134.564
135.215
135.868
136.303
136.301
136.018
135.78
123.154
122.898
123.847
125.451
127.806
130.909
134.414
139.381
147.502
163.401
192.216
183.808
131.073
131.387
132.267
133.354
134.448
135.419
136.788
139.24
143.578
152.467
172.787
172.296
135.958
136.556
136.833
136.61
135.914
134.945
134.436
134.716
136.538
140.813
152.715
155.357
136.688
136.268
134.7
132.645
130.244
128.514
127.682
127.783
129.144
131.529
137.913
140.951
164.523
161.686
162.425
163.764
163.582
161.65
157.031
150.876
143.958
137.194
131.157
126.13
164.8
158.324
155.618
155.413
155.962
155.679
154.204
151.242
146.844
142.057
137.305
133.041
152.816
148.893
145.658
144.121
143.949
144.284
144.441
143.957
142.783
140.758
138.228
135.975
139.974
138.33
136.426
134.868
134.324
134.565
135.215
135.868
136.303
136.301
136.018
135.781
123.154
122.898
123.847
125.452
127.806
130.91
134.414
139.381
147.502
163.401
192.216
183.808
131.073
131.387
132.267
133.355
134.448
135.419
136.788
139.241
143.578
152.467
172.787
172.296
135.958
136.556
136.833
136.61
135.914
134.945
134.437
134.716
136.538
140.813
152.715
155.357
136.688
136.268
134.7
132.645
130.245
128.514
127.683
127.783
129.144
131.53
137.913
140.951
164.524
161.687
162.425
163.764
163.583
161.65
157.031
150.876
143.958
137.194
131.157
126.131
164.801
158.324
155.618
155.413
155.962
155.68
154.205
151.242
146.844
142.057
137.306
133.041
152.817
148.893
145.659
144.121
143.95
144.284
144.441
143.957
142.783
140.758
138.228
135.975
139.974
138.33
136.426
134.869
134.324
134.565
135.215
135.868
136.303
136.301
136.018
135.78
123.154
122.899
123.847
125.452
127.806
130.91
134.414
139.381
147.502
163.401
192.216
183.808
131.073
131.387
132.267
133.355
134.448
135.419
136.788
139.24
143.578
152.467
172.787
172.296
135.958
136.556
136.833
136.61
135.914
134.945
134.436
134.716
136.538
140.813
152.715
155.357
136.688
136.268
134.7
132.645
130.244
128.514
127.682
127.783
129.144
131.53
137.913
140.951
164.523
161.686
162.425
163.764
163.582
161.65
157.031
150.876
143.958
137.194
131.157
126.131
164.8
158.324
155.618
155.413
155.962
155.679
154.204
151.242
146.844
142.057
137.306
133.041
152.817
148.893
145.658
144.121
143.949
144.284
144.441
143.957
142.783
140.758
138.228
135.975
139.974
138.33
136.426
134.868
134.324
134.565
135.215
135.868
136.303
136.301
136.018
135.78
123.154
122.898
123.847
125.452
127.806
130.91
134.414
139.381
147.502
163.401
192.216
183.808
131.073
131.387
132.267
133.355
134.448
135.419
136.788
139.24
143.578
152.467
172.787
172.296
135.958
136.556
136.833
136.61
135.914
134.945
134.436
134.716
136.538
140.813
152.714
155.357
136.688
136.268
134.7
132.645
130.244
128.514
127.682
127.783
129.144
131.529
137.913
140.95
128.93
128.074
127.489
127.488
127.877
128.475
128.971
129.176
128.902
128.168
127.366
126.933
121.601
121.57
121.711
122.072
122.389
122.407
121.614
119.982
117.46
114.507
111.942
111.073
114.961
115.115
115.215
115.227
114.688
113.372
111.035
107.719
103.625
99.5612
96.5564
96.3324
106.645
106.471
105.869
104.857
102.996
100.214
96.4561
91.9593
87.2064
83.1883
81.0808
80.9878
127.186
124.885
121.853
121.133
120.665
121.3
122.457
124.083
126.096
128.436
130.341
130.639
112.278
112.405
111.144
112.41
113.894
115.996
118.095
120.191
121.93
123.089
123.738
122.973
100.287
102.877
102.632
105.316
107.833
110.569
112.969
114.801
116.03
116.736
116.772
115.723
87.3438
94.4694
94.919
98.0936
100.96
103.665
105.762
107.273
108.304
108.688
108.286
107.267
128.931
128.074
127.489
127.488
127.877
128.475
128.972
129.176
128.902
128.169
127.366
126.933
121.601
121.57
121.712
122.073
122.389
122.407
121.614
119.982
117.46
114.507
111.942
111.073
114.961
115.115
115.215
115.227
114.688
113.372
111.035
107.719
103.625
99.5613
96.5565
96.3325
106.645
106.471
105.869
104.857
102.996
100.214
96.4563
91.9594
87.2065
83.1884
81.0808
80.9878
127.187
124.885
121.853
121.134
120.665
121.3
122.457
124.083
126.096
128.436
130.341
130.639
112.278
112.405
111.144
112.41
113.894
115.996
118.095
120.192
121.93
123.089
123.738
122.973
100.288
102.877
102.632
105.316
107.833
110.569
112.969
114.801
116.03
116.736
116.772
115.723
87.3438
94.4694
94.919
98.0936
100.96
103.665
105.762
107.273
108.304
108.688
108.286
107.267
128.931
128.074
127.49
127.488
127.877
128.475
128.972
129.176
128.902
128.169
127.366
126.933
121.601
121.57
121.712
122.073
122.389
122.407
121.614
119.982
117.46
114.507
111.942
111.073
114.961
115.115
115.215
115.227
114.688
113.372
111.035
107.719
103.625
99.5612
96.5564
96.3324
106.645
106.471
105.869
104.857
102.996
100.214
96.4561
91.9592
87.2063
83.1883
81.0808
80.9878
127.186
124.885
121.853
121.133
120.665
121.3
122.457
124.083
126.096
128.436
130.341
130.639
112.278
112.405
111.144
112.41
113.894
115.996
118.095
120.191
121.93
123.089
123.738
122.973
100.287
102.877
102.632
105.316
107.833
110.569
112.969
114.801
116.03
116.736
116.772
115.723
87.3437
94.4693
94.9189
98.0935
100.959
103.665
105.762
107.273
108.304
108.687
108.286
107.267
128.931
128.074
127.489
127.488
127.877
128.475
128.971
129.176
128.902
128.168
127.366
126.933
121.601
121.57
121.712
122.073
122.389
122.407
121.614
119.982
117.459
114.507
111.941
111.073
114.961
115.115
115.215
115.227
114.688
113.372
111.035
107.719
103.625
99.5611
96.5563
96.3323
106.645
106.471
105.869
104.857
102.996
100.214
96.4561
91.9592
87.2063
83.1883
81.0807
80.9877
127.186
124.885
121.853
121.133
120.664
121.3
122.457
124.082
126.096
128.436
130.34
130.638
112.278
112.405
111.144
112.41
113.894
115.996
118.095
120.191
121.93
123.089
123.738
122.973
100.287
102.877
102.632
105.316
107.833
110.569
112.969
114.801
116.03
116.735
116.772
115.723
87.3437
94.4693
94.9188
98.0934
100.959
103.665
105.762
107.273
108.304
108.687
108.286
107.266
95.3987
94.2953
92.4428
89.8988
86.2555
81.5049
75.5558
68.4737
60.2637
50.6394
38.9281
29.1946
80.7457
78.2484
74.7173
70.1931
64.2606
56.836
47.6377
36.4901
23.4635
12.1686
6.19276
4.90815
63.0333
58.897
53.5122
46.8804
38.6578
28.8628
17.5275
7.45507
2.32041
0.962759
0.822944
0.840039
43.3406
37.6703
30.7577
22.6477
13.4238
5.34123
1.21229
0.262627
0.196041
0.18209
0.185344
0.187226
23.4368
16.8673
9.75165
3.78194
0.818258
0.144367
0.130008
0.111111
0.114945
0.11353
0.112873
0.111106
6.34362
2.34362
0.580895
0.103529
0.122629
0.109343
0.110255
0.109947
0.109948
0.109776
0.109811
0.109818
0.393933
0.105323
0.115806
0.108555
0.10881
0.108951
0.109094
0.109207
0.109269
0.109351
0.10949
0.109594
0.1108
0.107008
0.107238
0.107512
0.10778
0.108044
0.108279
0.108519
0.108745
0.108988
0.109236
0.109459
0.104762
0.105016
0.105285
0.105578
0.105875
0.106186
0.106479
0.106762
0.107035
0.107306
0.107616
0.107967
0.0986889
0.0989901
0.0992798
0.099614
0.0999283
0.10028
0.100612
0.100974
0.101308
0.101664
0.102024
0.102397
0.0831851
0.0835399
0.0838877
0.0842418
0.0846008
0.0849774
0.0853632
0.0857664
0.0861801
0.0866007
0.087019
0.087385
0.0492937
0.0479654
0.0481179
0.0470947
0.0472116
0.0464443
0.0465549
0.0460708
0.0461886
0.0460482
0.0461732
0.0462841
68.2296
84.7399
86.8197
89.889
92.5385
94.7745
96.4692
97.7591
98.4543
98.4665
97.6159
96.4434
58.968
74.1102
77.7009
80.3003
82.4111
84.1345
85.4703
86.3136
86.5084
85.8391
84.4592
82.7304
52.3388
64.1782
67.4549
69.4929
71.0446
72.2662
73.0069
73.1878
72.5521
71.0619
68.9521
66.3036
46.1925
54.0966
56.4854
58.0366
58.9725
59.4528
59.4589
58.6272
57.0662
54.7035
51.7043
47.9582
40.0138
43.951
45.4616
46.2994
46.5082
46.0707
45.0677
43.2682
40.8423
37.6248
33.7526
29.0351
33.3862
34.078
34.6504
34.5762
33.8821
32.4682
30.5956
27.9763
24.8882
21.0049
16.5581
11.4465
26.8852
23.9808
24.2991
22.8653
21.683
19.3984
16.9946
13.7585
10.4637
6.7131
3.59051
1.1993
20.1584
14.4089
14.5645
11.8267
10.7227
7.73686
5.78699
3.12771
1.68626
0.421121
0.283007
0.0914178
12.6759
5.65513
5.96759
3.27323
2.91255
1.00451
0.766325
0.158093
0.168305
0.0975315
0.106345
0.104337
6.63998
0.962993
1.09591
0.304126
0.316887
0.0952722
0.114267
0.0958624
0.0984657
0.0978777
0.098225
0.0984697
2.67084
0.100817
0.132997
0.0771009
0.08466
0.079954
0.0814663
0.0816803
0.0818605
0.0821586
0.0824731
0.0828253
2.06025
0.0724238
0.0685538
0.0614491
0.0604054
0.0561506
0.05621
0.052518
0.053045
0.0505033
0.0508576
0.0490638
95.3989
94.2955
92.443
89.8989
86.2557
81.505
75.556
68.4738
60.2639
50.6395
38.9282
29.1947
80.7459
78.2486
74.7174
70.1933
64.2607
56.8362
47.6378
36.4902
23.4636
12.1686
6.19278
4.90817
63.0335
58.8972
53.5123
46.8806
38.6579
28.8629
17.5276
7.45513
2.32043
0.962771
0.822952
0.840048
43.3408
37.6704
30.7578
22.6478
13.424
5.34129
1.21231
0.262635
0.196046
0.182097
0.18535
0.187232
23.4369
16.8675
9.75175
3.782
0.818274
0.14437
0.130011
0.111113
0.114947
0.113533
0.112875
0.111109
6.34369
2.34366
0.580905
0.103528
0.122629
0.109342
0.110254
0.109947
0.109948
0.109776
0.109811
0.109818
0.393919
0.105319
0.115806
0.108554
0.108809
0.10895
0.109093
0.109206
0.109268
0.10935
0.109489
0.109593
0.110799
0.107007
0.107237
0.107512
0.107779
0.108044
0.108278
0.108518
0.108744
0.108988
0.109236
0.109458
0.104761
0.105015
0.105285
0.105578
0.105875
0.106186
0.106479
0.106762
0.107035
0.107306
0.107615
0.107967
0.0986887
0.09899
0.0992797
0.0996138
0.0999282
0.10028
0.100612
0.100973
0.101308
0.101664
0.102024
0.102397
0.0831851
0.0835398
0.0838877
0.0842418
0.0846008
0.0849773
0.0853632
0.0857664
0.0861801
0.0866006
0.087019
0.087385
0.0492937
0.0479654
0.0481178
0.0470947
0.0472116
0.0464444
0.0465549
0.0460708
0.0461886
0.0460482
0.0461732
0.0462841
68.2296
84.7398
86.8197
89.8889
92.5384
94.7744
96.4691
97.759
98.4542
98.4664
97.6158
96.4433
58.9679
74.1101
77.7009
80.3002
82.411
84.1344
85.4702
86.3135
86.5083
85.839
84.4591
82.7302
52.3388
64.1782
67.4548
69.4928
71.0445
72.266
73.0068
73.1877
72.552
71.0617
68.9519
66.3034
46.1924
54.0965
56.4852
58.0365
58.9723
59.4526
59.4588
58.627
57.066
54.7033
51.7041
47.958
40.0137
43.9509
45.4615
46.2992
46.5081
46.0705
45.0675
43.268
40.8421
37.6246
33.7524
29.0349
33.3861
34.0779
34.6502
34.5761
33.8819
32.468
30.5954
27.9761
24.888
21.0048
16.5579
11.4464
26.8851
23.9807
24.299
22.8651
21.6828
19.3982
16.9944
13.7583
10.4635
6.71297
3.59042
1.19926
20.1583
14.4088
14.5644
11.8266
10.7225
7.73671
5.78686
3.12761
1.68621
0.421102
0.283005
0.0914181
12.6758
5.65504
5.96749
3.27315
2.91247
1.00447
0.766295
0.158087
0.168302
0.0975323
0.106346
0.104337
6.63991
0.962968
1.09588
0.304114
0.316877
0.0952718
0.114266
0.0958628
0.0984659
0.097878
0.0982253
0.0984701
2.6708
0.100816
0.132995
0.0771012
0.08466
0.0799542
0.0814666
0.0816806
0.0818608
0.0821589
0.0824734
0.0828256
2.06022
0.0724238
0.0685537
0.0614491
0.0604054
0.0561506
0.05621
0.052518
0.0530451
0.0505034
0.0508577
0.0490639
95.3988
94.2953
92.4428
89.8988
86.2555
81.5049
75.5558
68.4737
60.2637
50.6394
38.9281
29.1946
80.7458
78.2484
74.7172
70.1931
64.2605
56.836
47.6377
36.4901
23.4635
12.1686
6.19277
4.90815
63.0333
58.897
53.5121
46.8804
38.6577
28.8627
17.5275
7.45507
2.32042
0.962769
0.822947
0.840044
43.3406
37.6702
30.7577
22.6477
13.4238
5.34122
1.21229
0.262634
0.196046
0.182097
0.18535
0.187232
23.4368
16.8673
9.75163
3.78193
0.81826
0.144368
0.130012
0.111113
0.114947
0.113534
0.112876
0.11111
6.34359
2.34361
0.580896
0.103527
0.122629
0.109343
0.110255
0.109947
0.109948
0.109777
0.109811
0.109819
0.393912
0.105318
0.115806
0.108554
0.10881
0.10895
0.109093
0.109207
0.109269
0.10935
0.10949
0.109593
0.110799
0.107008
0.107238
0.107512
0.10778
0.108044
0.108278
0.108519
0.108745
0.108988
0.109236
0.109459
0.104762
0.105016
0.105285
0.105578
0.105875
0.106186
0.106479
0.106762
0.107035
0.107306
0.107616
0.107967
0.098689
0.0989903
0.09928
0.0996142
0.0999285
0.10028
0.100613
0.100974
0.101308
0.101664
0.102024
0.102398
0.0831854
0.0835402
0.083888
0.0842421
0.0846011
0.0849777
0.0853635
0.0857668
0.0861805
0.086601
0.0870194
0.0873854
0.0492938
0.0479655
0.048118
0.0470948
0.0472118
0.0464445
0.046555
0.0460709
0.0461888
0.0460484
0.0461734
0.0462843
68.2295
84.7398
86.8196
89.8889
92.5383
94.7744
96.4691
97.7589
98.4541
98.4664
97.6157
96.4433
58.9679
74.1101
77.7008
80.3001
82.411
84.1344
85.4701
86.3134
86.5083
85.839
84.459
82.7302
52.3387
64.1781
67.4548
69.4927
71.0445
72.266
73.0068
73.1876
72.552
71.0617
68.9519
66.3034
46.1924
54.0964
56.4852
58.0365
58.9723
59.4526
59.4587
58.627
57.066
54.7033
51.7041
47.958
40.0138
43.9509
45.4614
46.2992
46.5081
46.0705
45.0675
43.268
40.8421
37.6246
33.7524
29.0349
33.3861
34.0779
34.6502
34.576
33.8819
32.468
30.5954
27.9761
24.888
21.0048
16.5579
11.4464
26.8852
23.9807
24.299
22.8651
21.6828
19.3982
16.9944
13.7583
10.4635
6.71297
3.59043
1.19927
20.1583
14.4088
14.5644
11.8266
10.7225
7.7367
5.78686
3.12761
1.68621
0.421102
0.283009
0.0914185
12.6758
5.65503
5.96749
3.27314
2.91246
1.00446
0.766295
0.158088
0.168302
0.0975325
0.106346
0.104337
6.63994
0.962965
1.09588
0.304114
0.316876
0.0952718
0.114266
0.0958628
0.098466
0.0978781
0.0982254
0.0984701
2.67082
0.100816
0.132995
0.0771012
0.08466
0.0799542
0.0814666
0.0816805
0.0818607
0.0821588
0.0824734
0.0828256
2.06024
0.0724242
0.0685537
0.0614493
0.0604055
0.0561508
0.0562101
0.0525181
0.0530451
0.0505034
0.0508577
0.0490639
95.3987
94.2953
92.4428
89.8987
86.2554
81.5048
75.5558
68.4737
60.2637
50.6394
38.9281
29.1946
80.7457
78.2484
74.7172
70.193
64.2605
56.836
47.6376
36.4901
23.4635
12.1686
6.19277
4.90816
63.0333
58.8969
53.5121
46.8804
38.6577
28.8627
17.5275
7.45507
2.32043
0.962776
0.822954
0.84005
43.3406
37.6702
30.7576
22.6477
13.4238
5.34123
1.21229
0.262639
0.196051
0.182101
0.185355
0.187236
23.4368
16.8673
9.75163
3.78194
0.818265
0.144371
0.130014
0.111115
0.11495
0.113536
0.112878
0.111113
6.34359
2.34361
0.580899
0.103528
0.12263
0.109344
0.110256
0.109948
0.109949
0.109777
0.109812
0.109819
0.393915
0.105319
0.115806
0.108555
0.10881
0.108951
0.109094
0.109207
0.109269
0.109351
0.10949
0.109594
0.1108
0.107008
0.107238
0.107513
0.10778
0.108044
0.108279
0.108519
0.108745
0.108988
0.109237
0.109459
0.104762
0.105016
0.105285
0.105578
0.105875
0.106186
0.106479
0.106762
0.107035
0.107307
0.107616
0.107967
0.0986891
0.0989904
0.0992801
0.0996142
0.0999286
0.10028
0.100613
0.100974
0.101308
0.101665
0.102024
0.102398
0.0831853
0.0835401
0.083888
0.084242
0.084601
0.0849776
0.0853634
0.0857667
0.0861804
0.0866009
0.0870193
0.0873853
0.0492938
0.0479655
0.048118
0.0470948
0.0472118
0.0464445
0.046555
0.0460709
0.0461887
0.0460484
0.0461733
0.0462843
68.2295
84.7397
86.8196
89.8888
92.5383
94.7743
96.469
97.7589
98.4541
98.4663
97.6157
96.4433
58.9679
74.11
77.7008
80.3001
82.4109
84.1344
85.4701
86.3134
86.5082
85.839
84.4591
82.7303
52.3387
64.1781
67.4547
69.4927
71.0444
72.266
73.0067
73.1876
72.552
71.0617
68.9519
66.3035
46.1924
54.0964
56.4852
58.0364
58.9723
59.4526
59.4587
58.627
57.066
54.7033
51.7041
47.958
40.0137
43.9509
45.4614
46.2992
46.5081
46.0705
45.0675
43.2681
40.8421
37.6246
33.7525
29.035
33.3861
34.0779
34.6502
34.5761
33.882
32.468
30.5955
27.9761
24.888
21.0048
16.558
11.4464
26.8851
23.9807
24.299
22.8651
21.6829
19.3983
16.9945
13.7584
10.4636
6.71304
3.59048
1.19929
20.1583
14.4088
14.5644
11.8266
10.7226
7.73678
5.78694
3.12769
1.68627
0.421148
0.28303
0.0914316
12.6758
5.6551
5.96755
3.27322
2.91254
1.00453
0.766349
0.158125
0.168336
0.0975604
0.106374
0.104365
6.63997
0.963018
1.09593
0.304156
0.316916
0.0953006
0.114295
0.0958899
0.0984936
0.0979058
0.098253
0.0984977
2.67084
0.100835
0.133019
0.077121
0.0846816
0.0799754
0.0814889
0.0817032
0.0818837
0.0821821
0.082497
0.0828493
2.06025
0.0724302
0.0685646
0.0614567
0.0604135
0.0561577
0.0562176
0.0525253
0.0530524
0.0505104
0.0508647
0.0490706
)
;

boundaryField
{
    rotor
    {
        type            kqRWallFunction;
        value           nonuniform List<scalar> 
192
(
2.3388
3.23833
3.74612
3.74141
3.68717
3.39085
3.2237
4.09165
12.335
22.7481
26.9768
29.016
30.65
31.4632
31.9421
32.0149
32.0415
31.0474
29.5737
27.1523
24.0036
20.0266
14.805
11.2418
2.33882
3.23835
3.74615
3.74143
3.68719
3.39086
3.22371
4.09168
12.3351
22.7482
26.9769
29.016
30.65
31.4633
31.9422
32.0149
32.0416
31.0474
29.5737
27.1524
24.0036
20.0267
14.805
11.2418
2.33883
3.23837
3.74617
3.74146
3.68722
3.39089
3.22373
4.0917
12.3351
22.7482
26.9769
29.016
30.65
31.4632
31.9422
32.0149
32.0415
31.0474
29.5737
27.1524
24.0036
20.0266
14.805
11.2418
2.33881
3.23834
3.74613
3.74142
3.68718
3.39085
3.22369
4.09165
12.335
22.7481
26.9768
29.0159
30.6499
31.4632
31.9421
32.0148
32.0415
31.0473
29.5736
27.1523
24.0036
20.0266
14.8049
11.2418
2.3388
4.89262
6.60365
8.80376
10.3968
11.6873
12.5027
13.7667
15.499
18.5147
21.1612
53.0615
11.2418
27.1513
39.4794
49.1045
57.9001
66.3833
75.0108
84.8419
96.1813
108.274
122.243
139.903
2.33882
4.89266
6.60371
8.80385
10.3969
11.6874
12.5028
13.7668
15.499
18.5147
21.1612
53.0615
11.2418
27.1513
39.4794
49.1045
57.9002
66.3833
75.0108
84.8419
96.1813
108.274
122.243
139.903
2.33883
4.89268
6.60374
8.80388
10.3969
11.6874
12.5028
13.7668
15.4991
18.5148
21.1613
53.0616
11.2418
27.1513
39.4795
49.1046
57.9003
66.3834
75.0109
84.842
96.1814
108.274
122.243
139.903
2.33881
4.89264
6.60368
8.8038
10.3968
11.6873
12.5027
13.7668
15.499
18.5147
21.1612
53.0615
11.2418
27.1513
39.4794
49.1045
57.9002
66.3833
75.0109
84.842
96.1814
108.274
122.243
139.903
)
;
    }
    stator
    {
        type            kqRWallFunction;
        value           nonuniform List<scalar> 
192
(
0.0492937
0.0479654
0.0481179
0.0470947
0.0472116
0.0464443
0.0465549
0.0460708
0.0461886
0.0460482
0.0461732
0.0462841
2.06025
0.0724238
0.0685538
0.0614491
0.0604054
0.0561506
0.05621
0.052518
0.053045
0.0505033
0.0508576
0.0490638
0.0492937
0.0479654
0.0481178
0.0470947
0.0472116
0.0464444
0.0465549
0.0460708
0.0461886
0.0460482
0.0461732
0.0462841
2.06022
0.0724238
0.0685537
0.0614491
0.0604054
0.0561506
0.05621
0.052518
0.0530451
0.0505034
0.0508577
0.0490639
0.0492938
0.0479655
0.048118
0.0470948
0.0472118
0.0464445
0.046555
0.0460709
0.0461888
0.0460484
0.0461734
0.0462843
2.06024
0.0724242
0.0685537
0.0614493
0.0604055
0.0561508
0.0562101
0.0525181
0.0530451
0.0505034
0.0508577
0.0490639
0.0492938
0.0479655
0.048118
0.0470948
0.0472118
0.0464445
0.046555
0.0460709
0.0461887
0.0460484
0.0461733
0.0462843
2.06025
0.0724302
0.0685646
0.0614567
0.0604135
0.0561577
0.0562176
0.0525253
0.0530524
0.0505104
0.0508647
0.0490706
68.2296
58.968
52.3388
46.1925
40.0138
33.3862
26.8852
20.1584
12.6759
6.63998
2.67084
2.06025
29.1946
4.90815
0.840039
0.187226
0.111106
0.109818
0.109594
0.109459
0.107967
0.102397
0.087385
0.0462841
68.2296
58.9679
52.3388
46.1924
40.0137
33.3861
26.8851
20.1583
12.6758
6.63991
2.6708
2.06022
29.1947
4.90817
0.840048
0.187232
0.111109
0.109818
0.109593
0.109458
0.107967
0.102397
0.087385
0.0462841
68.2295
58.9679
52.3387
46.1924
40.0138
33.3861
26.8852
20.1583
12.6758
6.63994
2.67082
2.06024
29.1946
4.90815
0.840044
0.187232
0.11111
0.109819
0.109593
0.109459
0.107967
0.102398
0.0873854
0.0462843
68.2295
58.9679
52.3387
46.1924
40.0137
33.3861
26.8851
20.1583
12.6758
6.63997
2.67084
2.06025
29.1946
4.90816
0.84005
0.187236
0.111113
0.109819
0.109594
0.109459
0.107967
0.102398
0.0873853
0.0462843
)
;
    }
    front
    {
        type            empty;
    }
    back
    {
        type            empty;
    }
}


// ************************************************************************* //
