/*--------------------------------*- C++ -*----------------------------------*\
| =========                 |                                                 |
| \\      /  F ield         | OpenFOAM: The Open Source CFD Toolbox           |
|  \\    /   O peration     | Version:  2212                                  |
|   \\  /    A nd           | Website:  www.openfoam.com                      |
|    \\/     M anipulation  |                                                 |
\*---------------------------------------------------------------------------*/
FoamFile
{
    version     2.0;
    format      ascii;
    arch        "LSB;label=32;scalar=64";
    class       volScalarField;
    location    "0.05";
    object      p;
}
// * * * * * * * * * * * * * * * * * * * * * * * * * * * * * * * * * * * * * //

dimensions      [1 -1 -2 0 0 0 0];

internalField   nonuniform List<scalar> 
3072
(
97702.1
97690.4
97682
97673.8
97672.1
97671.1
97673.3
97672.5
97688.4
97715.8
97710.9
97672.5
97792.9
97760.1
97750.1
97740.9
97742.8
97747.5
97766.3
97795.6
97849
97935.2
97976.7
97991.3
97852.3
97803.5
97793.2
97788.2
97802.3
97827.9
97869.7
97923.2
97974.3
98025.5
98062
98088.6
97953.7
97898.9
97890.6
97892.9
97922.4
97971.8
98032.7
98090
98140.6
98183.1
98214
98238.8
98062
98017.2
98014.7
98029.9
98073.6
98133.8
98198.1
98253.9
98301.2
98338.3
98365.5
98386.2
98193.8
98159.1
98165.8
98193.3
98245.4
98307.1
98365.4
98413.7
98452.4
98482.5
98505.2
98522.3
98321.6
98308.5
98324.5
98363.1
98418.9
98476.8
98526.8
98565.9
98596.6
98620.1
98637.7
98650.7
98455.9
98462.5
98486.8
98532
98585.3
98635.5
98676.1
98707.1
98730.6
98748.1
98761
98770.2
98585.6
98620.4
98647.9
98695.1
98741.2
98782
98813.5
98836.8
98853.8
98866.1
98874.8
98880.7
98716
98770.5
98803.3
98850.4
98888.4
98918.7
98940.9
98956.4
98967.3
98974.8
98979.8
98982.8
98856
98933.3
98958.7
98997.2
99025
99044.2
99056.9
99065.1
99070.4
99073.9
99075.9
99076.5
98969.6
99089.4
99105.4
99126.6
99141.4
99150.4
99155.7
99158.7
99160.5
99161.8
99162.3
99161.6
97639.8
97623.9
97627.3
97650
97688.8
97741.2
97803.3
97868.4
97926.1
97967.9
97994.2
97970.7
98000.6
97999.8
98001.9
98005.6
98015.1
98029.4
98048
98067.7
98083.5
98102.7
98114.4
98030.6
98104.6
98113.9
98122.1
98131.1
98142.4
98153.8
98164.2
98170
98167.9
98166.8
98154.8
98029.3
98256.6
98269.5
98279.6
98287.1
98292.2
98294.4
98293.2
98285.1
98267
98244.6
98214.7
98054
98401
98411.2
98418.1
98422
98423
98420.7
98413.9
98400.6
98376.7
98343.3
98303
98126.8
98534.5
98542.7
98547.7
98549.8
98548.9
98544.8
98536.2
98521.9
98498.6
98463.3
98419.9
98246.7
98659.8
98665.7
98668.9
98669.7
98668.2
98664.2
98657.2
98645.8
98627.8
98599.6
98565.5
98412.4
98776.5
98780.2
98781.9
98781.9
98780.5
98778
98774.3
98768.7
98760.3
98745.8
98732.6
98619.9
98884.4
98886.2
98886.6
98885.9
98885
98884.4
98884.6
98886.1
98889.6
98894.3
98912
98864
98984.1
98983.9
98983
98981.5
98980.6
98981.5
98985.3
98993.6
99008.4
99032.9
99091
99129.1
99075.9
99073.5
99070.9
99068.2
99066.5
99067.7
99073.6
99086.6
99109.5
99149.4
99250.8
99385.7
99159.6
99155
99150.2
99145.3
99141.8
99141.6
99146.9
99161
99185.8
99231.6
99347.9
99608.6
97702.1
97690.4
97682
97673.8
97672.1
97671.1
97673.3
97672.5
97688.4
97715.8
97710.9
97672.5
97792.9
97760.1
97750.1
97740.9
97742.8
97747.5
97766.3
97795.6
97849
97935.2
97976.7
97991.3
97852.3
97803.5
97793.2
97788.2
97802.3
97827.9
97869.7
97923.2
97974.3
98025.5
98062
98088.6
97953.7
97898.9
97890.6
97892.9
97922.4
97971.8
98032.7
98090
98140.6
98183.1
98214
98238.8
98062
98017.2
98014.7
98029.9
98073.6
98133.8
98198.1
98253.9
98301.2
98338.3
98365.5
98386.2
98193.8
98159.1
98165.8
98193.3
98245.4
98307.1
98365.4
98413.7
98452.4
98482.5
98505.2
98522.3
98321.6
98308.5
98324.5
98363.1
98418.9
98476.8
98526.8
98565.9
98596.6
98620.1
98637.7
98650.7
98455.9
98462.5
98486.8
98532
98585.3
98635.5
98676.1
98707.1
98730.6
98748.1
98761
98770.2
98585.6
98620.4
98647.9
98695.1
98741.2
98782
98813.5
98836.8
98853.8
98866.1
98874.8
98880.7
98716
98770.5
98803.3
98850.4
98888.4
98918.7
98940.9
98956.4
98967.3
98974.8
98979.8
98982.8
98856
98933.3
98958.7
98997.2
99025
99044.2
99056.9
99065.1
99070.4
99073.9
99075.9
99076.5
98969.6
99089.4
99105.4
99126.6
99141.4
99150.4
99155.7
99158.7
99160.5
99161.8
99162.3
99161.6
97639.8
97623.9
97627.3
97650
97688.8
97741.2
97803.3
97868.4
97926.1
97967.9
97994.2
97970.7
98000.6
97999.8
98001.9
98005.6
98015.1
98029.4
98048
98067.7
98083.5
98102.7
98114.4
98030.6
98104.6
98113.9
98122.1
98131.1
98142.4
98153.8
98164.2
98170
98167.9
98166.8
98154.8
98029.3
98256.6
98269.5
98279.6
98287.1
98292.2
98294.4
98293.2
98285.1
98267
98244.6
98214.7
98054
98401
98411.2
98418.1
98422
98423
98420.7
98413.9
98400.6
98376.7
98343.3
98303
98126.8
98534.5
98542.7
98547.7
98549.8
98548.9
98544.8
98536.2
98521.9
98498.6
98463.3
98419.9
98246.7
98659.8
98665.7
98668.9
98669.7
98668.2
98664.2
98657.2
98645.8
98627.8
98599.6
98565.5
98412.4
98776.5
98780.2
98781.9
98781.9
98780.5
98778
98774.3
98768.7
98760.3
98745.8
98732.6
98619.9
98884.4
98886.2
98886.6
98885.9
98885
98884.4
98884.6
98886.1
98889.6
98894.3
98912
98864
98984.1
98983.9
98983
98981.5
98980.6
98981.5
98985.3
98993.6
99008.4
99032.9
99091
99129.1
99075.9
99073.5
99070.9
99068.2
99066.5
99067.7
99073.6
99086.6
99109.5
99149.4
99250.8
99385.7
99159.6
99155
99150.2
99145.3
99141.8
99141.6
99146.9
99161
99185.8
99231.6
99347.9
99608.6
97702.1
97690.4
97682
97673.8
97672.1
97671.1
97673.3
97672.5
97688.4
97715.8
97710.9
97672.5
97792.9
97760.1
97750.1
97740.9
97742.8
97747.5
97766.3
97795.6
97849
97935.2
97976.7
97991.3
97852.3
97803.5
97793.2
97788.2
97802.3
97827.9
97869.7
97923.2
97974.3
98025.5
98062
98088.6
97953.8
97898.9
97890.6
97892.9
97922.4
97971.8
98032.7
98090
98140.6
98183.1
98214
98238.8
98062
98017.2
98014.7
98029.9
98073.6
98133.8
98198.1
98253.9
98301.2
98338.3
98365.5
98386.2
98193.8
98159.1
98165.8
98193.3
98245.4
98307.1
98365.4
98413.7
98452.4
98482.5
98505.2
98522.3
98321.6
98308.5
98324.5
98363.1
98418.9
98476.8
98526.8
98565.9
98596.6
98620.1
98637.7
98650.7
98455.9
98462.5
98486.8
98532
98585.3
98635.5
98676.1
98707.1
98730.6
98748.1
98761
98770.2
98585.6
98620.4
98647.9
98695.1
98741.2
98782
98813.5
98836.8
98853.8
98866.1
98874.8
98880.8
98716
98770.5
98803.3
98850.4
98888.4
98918.7
98940.9
98956.4
98967.3
98974.8
98979.8
98982.8
98856
98933.3
98958.7
98997.2
99025
99044.2
99056.9
99065.1
99070.4
99073.9
99075.9
99076.5
98969.6
99089.4
99105.4
99126.6
99141.4
99150.4
99155.7
99158.7
99160.5
99161.8
99162.3
99161.6
97639.8
97623.9
97627.3
97650
97688.8
97741.2
97803.3
97868.4
97926.1
97967.9
97994.2
97970.7
98000.6
97999.8
98001.9
98005.6
98015.1
98029.4
98048
98067.7
98083.5
98102.7
98114.4
98030.6
98104.6
98113.9
98122.1
98131.1
98142.4
98153.8
98164.2
98170
98167.9
98166.8
98154.8
98029.3
98256.6
98269.5
98279.6
98287.1
98292.2
98294.4
98293.2
98285.1
98267
98244.6
98214.7
98054
98401
98411.2
98418.1
98422
98423
98420.7
98413.9
98400.6
98376.7
98343.3
98303
98126.8
98534.5
98542.7
98547.7
98549.8
98548.9
98544.8
98536.2
98521.9
98498.6
98463.3
98419.9
98246.7
98659.8
98665.7
98668.9
98669.7
98668.2
98664.2
98657.2
98645.8
98627.8
98599.6
98565.5
98412.4
98776.5
98780.2
98781.9
98781.9
98780.5
98778
98774.3
98768.7
98760.3
98745.8
98732.6
98619.9
98884.4
98886.2
98886.6
98885.9
98885
98884.4
98884.6
98886.1
98889.6
98894.3
98912
98864
98984.1
98983.9
98983
98981.5
98980.6
98981.5
98985.3
98993.6
99008.4
99032.9
99091
99129.1
99075.9
99073.5
99070.9
99068.2
99066.5
99067.7
99073.6
99086.6
99109.5
99149.4
99250.8
99385.7
99159.6
99155
99150.2
99145.3
99141.8
99141.6
99146.9
99161
99185.8
99231.6
99347.9
99608.6
97702.1
97690.4
97682
97673.8
97672.1
97671.1
97673.3
97672.5
97688.4
97715.8
97710.9
97672.5
97792.9
97760.1
97750.1
97740.9
97742.8
97747.5
97766.3
97795.6
97849
97935.2
97976.7
97991.3
97852.3
97803.5
97793.2
97788.2
97802.3
97827.9
97869.7
97923.2
97974.3
98025.5
98062
98088.6
97953.8
97898.9
97890.6
97892.9
97922.4
97971.8
98032.7
98090
98140.6
98183.1
98214
98238.8
98062
98017.2
98014.7
98029.9
98073.6
98133.8
98198.1
98253.9
98301.2
98338.3
98365.5
98386.2
98193.8
98159.1
98165.8
98193.3
98245.4
98307.1
98365.4
98413.7
98452.4
98482.5
98505.2
98522.3
98321.6
98308.5
98324.5
98363.1
98418.9
98476.8
98526.8
98565.9
98596.6
98620.1
98637.7
98650.7
98455.9
98462.5
98486.8
98532
98585.3
98635.5
98676.1
98707.1
98730.6
98748.1
98761
98770.2
98585.6
98620.4
98647.9
98695.1
98741.2
98782
98813.5
98836.8
98853.8
98866.1
98874.8
98880.7
98716
98770.5
98803.3
98850.4
98888.4
98918.7
98940.9
98956.4
98967.3
98974.8
98979.8
98982.8
98856
98933.3
98958.7
98997.2
99025
99044.2
99056.9
99065.1
99070.4
99073.9
99075.9
99076.5
98969.6
99089.4
99105.4
99126.6
99141.4
99150.4
99155.7
99158.7
99160.5
99161.8
99162.3
99161.6
97639.8
97623.9
97627.3
97650
97688.8
97741.2
97803.3
97868.4
97926.1
97967.9
97994.2
97970.7
98000.6
97999.8
98001.9
98005.6
98015.1
98029.4
98048
98067.7
98083.5
98102.7
98114.4
98030.6
98104.6
98113.9
98122.1
98131.1
98142.4
98153.8
98164.2
98170
98167.9
98166.8
98154.8
98029.3
98256.6
98269.5
98279.6
98287.1
98292.2
98294.4
98293.2
98285.1
98267
98244.6
98214.7
98054
98401
98411.2
98418.1
98422
98423
98420.7
98413.9
98400.6
98376.7
98343.3
98303
98126.8
98534.5
98542.7
98547.7
98549.8
98548.9
98544.8
98536.2
98521.9
98498.6
98463.3
98419.9
98246.7
98659.8
98665.7
98668.9
98669.7
98668.2
98664.2
98657.2
98645.8
98627.8
98599.6
98565.5
98412.4
98776.5
98780.2
98781.9
98781.9
98780.5
98778
98774.3
98768.7
98760.3
98745.8
98732.6
98619.9
98884.4
98886.2
98886.6
98885.9
98885
98884.4
98884.6
98886.1
98889.6
98894.3
98912
98864
98984.1
98983.9
98983
98981.5
98980.6
98981.5
98985.3
98993.6
99008.4
99032.9
99091
99129.1
99075.9
99073.5
99070.9
99068.2
99066.5
99067.7
99073.6
99086.6
99109.5
99149.4
99250.8
99385.7
99159.6
99155
99150.2
99145.3
99141.8
99141.6
99146.9
99161
99185.8
99231.6
99347.9
99608.6
99231
99233.7
99227.2
99226.2
99228.3
99231
99232.7
99234
99235.5
99237.1
99238
99237.6
99271
99253.8
99260.7
99268.4
99275.7
99282
99286.8
99291.3
99295.9
99300.5
99303.8
99305.6
99288
99282.7
99290.3
99298.4
99307.1
99316.3
99325.5
99335
99344.8
99354.8
99362.7
99369.2
99301.4
99304.3
99310.4
99317.9
99327.5
99339.5
99353.5
99369.3
99386.8
99404.9
99421.8
99437.6
99235.4
99228.4
99220.9
99212.5
99205.7
99202.2
99204.2
99214.9
99234.1
99266.4
99305.2
99405.6
99303.9
99293.6
99283.1
99270.1
99258.4
99249.2
99245.3
99249.9
99261.9
99285.3
99299.1
99340.9
99367.9
99351.7
99337.7
99318.5
99300
99282.6
99270
99265.9
99269.4
99285.7
99293.2
99316.7
99436.7
99408.1
99389
99360.9
99333.8
99305.7
99281.6
99264.6
99257.1
99266.2
99274.2
99300.2
99231
99233.7
99227.2
99226.2
99228.3
99231
99232.7
99234
99235.5
99237.1
99238
99237.6
99271
99253.8
99260.7
99268.4
99275.7
99282
99286.8
99291.3
99295.9
99300.5
99303.8
99305.6
99288
99282.7
99290.3
99298.4
99307.1
99316.3
99325.5
99335
99344.8
99354.8
99362.7
99369.2
99301.4
99304.3
99310.4
99317.9
99327.5
99339.5
99353.5
99369.3
99386.8
99404.9
99421.8
99437.6
99235.4
99228.4
99220.9
99212.5
99205.7
99202.2
99204.2
99214.9
99234.1
99266.4
99305.2
99405.6
99303.9
99293.6
99283.1
99270.1
99258.4
99249.2
99245.3
99249.9
99261.9
99285.3
99299.1
99340.9
99367.9
99351.7
99337.7
99318.5
99300
99282.6
99270
99265.9
99269.4
99285.7
99293.2
99316.7
99436.7
99408.1
99389.1
99360.9
99333.8
99305.7
99281.6
99264.6
99257.1
99266.2
99274.2
99300.2
99231
99233.7
99227.2
99226.2
99228.3
99231
99232.7
99234
99235.5
99237.1
99238
99237.6
99271
99253.8
99260.7
99268.4
99275.7
99282
99286.8
99291.3
99295.9
99300.5
99303.8
99305.6
99288
99282.7
99290.3
99298.4
99307.1
99316.3
99325.5
99335
99344.8
99354.8
99362.7
99369.2
99301.4
99304.3
99310.4
99317.9
99327.5
99339.5
99353.5
99369.3
99386.8
99404.9
99421.8
99437.6
99235.4
99228.4
99220.9
99212.5
99205.7
99202.2
99204.2
99214.9
99234.1
99266.4
99305.2
99405.6
99303.9
99293.6
99283.1
99270.1
99258.4
99249.2
99245.3
99249.9
99261.9
99285.3
99299.1
99340.9
99367.9
99351.7
99337.7
99318.5
99300
99282.6
99270
99265.9
99269.4
99285.7
99293.2
99316.7
99436.7
99408.1
99389.1
99360.9
99333.8
99305.7
99281.6
99264.6
99257.1
99266.2
99274.2
99300.2
99231
99233.7
99227.2
99226.2
99228.3
99231
99232.7
99234
99235.5
99237.1
99238
99237.6
99271
99253.8
99260.7
99268.4
99275.7
99282
99286.8
99291.3
99295.9
99300.5
99303.8
99305.6
99288
99282.7
99290.3
99298.4
99307.1
99316.3
99325.5
99335
99344.8
99354.8
99362.7
99369.2
99301.4
99304.3
99310.4
99317.9
99327.5
99339.5
99353.5
99369.3
99386.8
99404.9
99421.8
99437.6
99235.4
99228.4
99220.9
99212.5
99205.7
99202.2
99204.2
99214.9
99234.1
99266.4
99305.2
99405.6
99303.9
99293.6
99283.1
99270.1
99258.4
99249.2
99245.3
99249.9
99261.9
99285.3
99299.1
99340.9
99367.9
99351.7
99337.7
99318.5
99300
99282.6
99270
99265.9
99269.4
99285.7
99293.2
99316.7
99436.7
99408.1
99389
99360.9
99333.8
99305.7
99281.6
99264.6
99257.1
99266.2
99274.2
99300.2
99318.6
99327
99332.8
99339.4
99347.7
99358.4
99371.1
99385.8
99402.1
99419.4
99436.5
99454.8
99342.5
99349.6
99355.2
99361.3
99367.9
99375.5
99383.6
99392.3
99400.9
99410.3
99418.8
99433
99362
99367.4
99371.9
99376.8
99381.6
99386.6
99391.5
99396.2
99399.9
99405.2
99409.3
99414.7
99376.6
99380.3
99383.4
99386.7
99389.6
99392.5
99394.8
99396.9
99397.6
99400.5
99397.1
99371.6
99468.1
99441.4
99422.5
99392.1
99364.7
99334.7
99308.3
99287
99274.8
99276.7
99281.4
99304.4
99467.9
99439.5
99429.6
99405.1
99385.5
99363
99344.2
99328.9
99320
99319.8
99322.1
99334.5
99488.9
99439.5
99438.4
99416.5
99401.7
99383.7
99369.2
99357.3
99350.3
99349.1
99350.3
99357.4
99533.6
99437.8
99445.3
99426.1
99414.2
99399.3
99387.6
99377.8
99371.8
99369.8
99369.7
99373.6
99318.6
99327
99332.8
99339.4
99347.7
99358.4
99371.1
99385.8
99402.1
99419.4
99436.5
99454.8
99342.5
99349.6
99355.2
99361.3
99367.9
99375.5
99383.6
99392.3
99400.9
99410.3
99418.8
99433
99362
99367.4
99371.9
99376.8
99381.6
99386.6
99391.5
99396.2
99399.9
99405.2
99409.3
99414.7
99376.6
99380.3
99383.4
99386.7
99389.6
99392.5
99394.8
99396.9
99397.6
99400.5
99397.1
99371.6
99468.1
99441.4
99422.5
99392.1
99364.7
99334.7
99308.3
99287
99274.8
99276.7
99281.4
99304.4
99467.9
99439.5
99429.6
99405.1
99385.5
99363
99344.2
99328.9
99320
99319.8
99322.1
99334.5
99488.9
99439.5
99438.4
99416.5
99401.7
99383.7
99369.2
99357.3
99350.3
99349.1
99350.3
99357.4
99533.6
99437.8
99445.3
99426.1
99414.2
99399.3
99387.6
99377.8
99371.8
99369.8
99369.7
99373.6
99318.6
99327
99332.8
99339.4
99347.7
99358.4
99371.1
99385.8
99402.1
99419.4
99436.5
99454.8
99342.5
99349.6
99355.2
99361.3
99367.9
99375.5
99383.6
99392.3
99400.9
99410.3
99418.8
99433
99362
99367.4
99371.9
99376.8
99381.6
99386.6
99391.5
99396.2
99399.9
99405.2
99409.3
99414.7
99376.6
99380.3
99383.4
99386.7
99389.6
99392.5
99394.8
99396.9
99397.6
99400.5
99397.1
99371.6
99468.1
99441.4
99422.5
99392.1
99364.7
99334.7
99308.3
99287
99274.8
99276.7
99281.4
99304.4
99467.9
99439.5
99429.6
99405.1
99385.5
99363
99344.2
99328.9
99320
99319.8
99322.1
99334.5
99488.9
99439.5
99438.4
99416.5
99401.7
99383.7
99369.2
99357.3
99350.3
99349.1
99350.3
99357.4
99533.6
99437.8
99445.3
99426.1
99414.2
99399.3
99387.6
99377.8
99371.8
99369.8
99369.7
99373.6
99318.6
99327
99332.8
99339.4
99347.7
99358.4
99371.1
99385.8
99402.1
99419.4
99436.5
99454.8
99342.5
99349.6
99355.2
99361.3
99367.9
99375.5
99383.6
99392.3
99400.9
99410.3
99418.8
99433
99362
99367.4
99371.9
99376.8
99381.6
99386.6
99391.5
99396.2
99399.9
99405.2
99409.3
99414.7
99376.6
99380.3
99383.4
99386.7
99389.6
99392.5
99394.8
99396.9
99397.6
99400.5
99397.1
99371.6
99468.1
99441.4
99422.5
99392.1
99364.7
99334.7
99308.3
99287
99274.8
99276.7
99281.4
99304.4
99467.9
99439.5
99429.6
99405.1
99385.5
99363
99344.2
99328.9
99320
99319.8
99322.1
99334.5
99488.9
99439.5
99438.4
99416.5
99401.7
99383.7
99369.2
99357.3
99350.3
99349.1
99350.3
99357.4
99533.6
99437.8
99445.3
99426.1
99414.2
99399.3
99387.6
99377.8
99371.8
99369.8
99369.7
99373.6
99386.6
99388.8
99390.4
99392.1
99393.2
99394.2
99394.2
99393.6
99390.1
99385
99373.7
99320.4
99392.8
99393.6
99393.8
99394.2
99393.9
99393.5
99391.7
99388.9
99384
99380.9
99376.2
99351.4
99396.1
99395.8
99395
99394.6
99393.2
99391.5
99388.6
99387.2
99384.7
99380.1
99374.6
99356
99397.6
99396.6
99395.1
99393.5
99391.5
99390.7
99389.5
99387.6
99384.6
99380.3
99376
99363.8
99397.9
99396.2
99394.3
99393.7
99392.7
99391.4
99389.3
99386.9
99383.9
99379.9
99375.9
99367.5
99397.9
99396.7
99395.4
99394.1
99392.5
99391
99389.2
99387
99384
99380.5
99377
99370.9
99398.9
99397.3
99395.5
99394.1
99392.5
99390.9
99388.7
99386.5
99383.7
99380.4
99377.4
99373
99399.1
99397.4
99395.7
99394.2
99392.5
99390.8
99388.8
99386.5
99383.8
99380.8
99378.1
99374.6
99399.5
99397.7
99395.7
99394.2
99392.4
99390.7
99388.5
99386.3
99383.7
99381
99378.3
99375.8
99399.8
99397.7
99396
99394.2
99392.5
99390.6
99388.6
99386.3
99383.8
99381.2
99378.7
99376.5
99399.9
99397.9
99395.9
99394.3
99392.4
99390.6
99388.4
99386.3
99383.7
99381.3
99378.8
99377
99400.1
99397.8
99396.1
99394.2
99392.5
99390.5
99388.5
99386.2
99383.8
99381.3
99379
99377.2
99631.2
99432.6
99448.9
99432.8
99423.1
99410.5
99400.9
99392.7
99387.3
99384.6
99383.4
99385.1
99605.3
99427.9
99449.9
99436.5
99428.9
99418.2
99410.1
99402.9
99397.7
99394.5
99392.5
99392.6
99586.8
99427.3
99450.4
99438
99432.5
99423.2
99416.1
99409.5
99404.2
99400.5
99397.9
99397
99551.5
99424.3
99449.4
99438.2
99434.3
99426.3
99419.5
99413.2
99407.9
99404
99400.9
99399.1
99518.4
99422.2
99448.4
99438.1
99434.8
99428
99421.2
99415.2
99409.8
99405.8
99402.4
99400.2
99489.5
99422.8
99447.6
99438.4
99434.5
99428.6
99421.9
99416.1
99410.8
99406.6
99402.8
99400.1
99462.6
99426.7
99446.7
99439.3
99434.4
99428.7
99422
99416.3
99410.9
99406.8
99403.3
99401
99440.7
99437.4
99446.5
99440.7
99434.3
99428.8
99422.1
99416.7
99411.6
99407.7
99404.2
99401.5
99420.2
99448.2
99446
99442.5
99434.8
99429.4
99422.7
99417.6
99412.2
99408.3
99404.5
99402
99416.1
99463.3
99448.4
99444.9
99436.6
99430
99423.5
99417.9
99412.8
99408.6
99405.1
99402.2
99370.8
99472.4
99449.1
99446.6
99437.7
99430.7
99424
99418.5
99413
99409
99405.2
99402.5
99445
99511.8
99455.3
99449.1
99439.4
99430.9
99424.6
99418.4
99413.5
99409
99405.6
99402.4
99386.6
99388.8
99390.4
99392.1
99393.2
99394.2
99394.2
99393.6
99390.1
99385
99373.7
99320.4
99392.8
99393.6
99393.8
99394.2
99393.9
99393.5
99391.7
99388.9
99384
99380.9
99376.2
99351.4
99396.1
99395.8
99395
99394.6
99393.2
99391.5
99388.6
99387.2
99384.7
99380.1
99374.6
99356
99397.6
99396.6
99395.1
99393.5
99391.5
99390.7
99389.5
99387.6
99384.6
99380.3
99376
99363.8
99397.9
99396.2
99394.3
99393.7
99392.7
99391.4
99389.3
99386.9
99383.9
99379.9
99375.9
99367.5
99397.9
99396.7
99395.4
99394.1
99392.5
99391
99389.2
99387
99384
99380.5
99377
99370.9
99398.9
99397.3
99395.5
99394.1
99392.5
99390.9
99388.7
99386.5
99383.7
99380.4
99377.4
99373
99399.1
99397.4
99395.7
99394.2
99392.5
99390.8
99388.8
99386.5
99383.8
99380.8
99378.1
99374.6
99399.5
99397.7
99395.7
99394.2
99392.4
99390.7
99388.5
99386.3
99383.7
99381
99378.3
99375.8
99399.8
99397.7
99396
99394.2
99392.5
99390.6
99388.6
99386.3
99383.8
99381.2
99378.7
99376.5
99399.9
99397.9
99395.9
99394.3
99392.4
99390.6
99388.4
99386.3
99383.7
99381.3
99378.8
99377
99400.1
99397.8
99396.1
99394.2
99392.5
99390.5
99388.5
99386.2
99383.8
99381.3
99379
99377.2
99631.2
99432.6
99448.9
99432.8
99423.1
99410.5
99400.9
99392.7
99387.3
99384.6
99383.4
99385.1
99605.3
99427.9
99449.9
99436.5
99428.9
99418.2
99410.1
99402.9
99397.7
99394.5
99392.5
99392.6
99586.8
99427.3
99450.4
99438
99432.5
99423.2
99416.1
99409.5
99404.2
99400.5
99397.9
99397
99551.5
99424.3
99449.4
99438.2
99434.3
99426.3
99419.5
99413.2
99407.9
99404
99400.9
99399.1
99518.4
99422.2
99448.4
99438.1
99434.8
99428
99421.2
99415.2
99409.8
99405.8
99402.4
99400.2
99489.5
99422.8
99447.6
99438.4
99434.5
99428.6
99421.9
99416.1
99410.8
99406.6
99402.8
99400.1
99462.6
99426.7
99446.7
99439.3
99434.4
99428.7
99422
99416.3
99410.9
99406.8
99403.3
99401
99440.7
99437.4
99446.5
99440.7
99434.3
99428.8
99422.1
99416.7
99411.6
99407.7
99404.2
99401.5
99420.2
99448.2
99446
99442.5
99434.8
99429.4
99422.7
99417.6
99412.2
99408.3
99404.5
99402
99416.1
99463.3
99448.4
99444.9
99436.6
99430
99423.5
99417.9
99412.8
99408.6
99405.1
99402.2
99370.8
99472.4
99449.1
99446.6
99437.7
99430.7
99424
99418.5
99413
99409
99405.2
99402.5
99445
99511.8
99455.3
99449.1
99439.4
99430.9
99424.6
99418.4
99413.5
99409
99405.6
99402.4
99386.6
99388.8
99390.4
99392.1
99393.2
99394.2
99394.2
99393.6
99390.1
99385
99373.7
99320.4
99392.8
99393.6
99393.9
99394.2
99393.9
99393.5
99391.7
99388.9
99384
99380.9
99376.2
99351.4
99396.1
99395.8
99395.1
99394.6
99393.2
99391.5
99388.6
99387.2
99384.7
99380.1
99374.6
99356
99397.6
99396.6
99395.1
99393.5
99391.5
99390.7
99389.5
99387.6
99384.6
99380.3
99376
99363.8
99397.9
99396.2
99394.3
99393.7
99392.7
99391.4
99389.3
99386.9
99383.9
99379.9
99375.9
99367.5
99397.9
99396.7
99395.4
99394.1
99392.5
99391
99389.2
99387
99384
99380.5
99377
99370.9
99398.9
99397.3
99395.5
99394.1
99392.5
99390.9
99388.7
99386.5
99383.7
99380.4
99377.4
99373
99399.1
99397.4
99395.7
99394.2
99392.5
99390.8
99388.8
99386.5
99383.8
99380.8
99378.1
99374.6
99399.5
99397.7
99395.7
99394.2
99392.4
99390.7
99388.5
99386.3
99383.7
99381
99378.3
99375.8
99399.8
99397.7
99396
99394.2
99392.5
99390.6
99388.6
99386.3
99383.8
99381.2
99378.7
99376.5
99399.9
99397.9
99395.9
99394.3
99392.4
99390.6
99388.4
99386.3
99383.7
99381.3
99378.8
99377
99400.1
99397.8
99396.1
99394.2
99392.5
99390.5
99388.5
99386.2
99383.8
99381.3
99379
99377.2
99631.2
99432.6
99448.9
99432.8
99423.1
99410.5
99400.9
99392.7
99387.3
99384.6
99383.4
99385.1
99605.3
99427.9
99449.9
99436.5
99428.9
99418.2
99410.1
99402.9
99397.7
99394.5
99392.5
99392.6
99586.8
99427.3
99450.4
99438
99432.5
99423.2
99416.1
99409.5
99404.2
99400.5
99397.9
99397
99551.5
99424.3
99449.4
99438.2
99434.3
99426.3
99419.5
99413.2
99407.9
99404
99400.9
99399.1
99518.4
99422.2
99448.4
99438.1
99434.8
99428
99421.2
99415.2
99409.8
99405.8
99402.4
99400.2
99489.5
99422.8
99447.6
99438.4
99434.5
99428.6
99421.9
99416.1
99410.8
99406.6
99402.8
99400.1
99462.6
99426.7
99446.7
99439.3
99434.4
99428.7
99422
99416.3
99410.9
99406.8
99403.3
99401
99440.7
99437.4
99446.5
99440.7
99434.3
99428.8
99422.1
99416.7
99411.6
99407.7
99404.2
99401.5
99420.2
99448.2
99446
99442.5
99434.8
99429.4
99422.7
99417.6
99412.2
99408.3
99404.5
99402
99416.1
99463.3
99448.4
99444.9
99436.6
99430
99423.5
99417.9
99412.8
99408.6
99405.1
99402.2
99370.8
99472.4
99449.1
99446.6
99437.7
99430.7
99424
99418.5
99413
99409
99405.2
99402.5
99445
99511.8
99455.3
99449.1
99439.4
99430.9
99424.6
99418.4
99413.5
99409
99405.6
99402.4
99386.6
99388.8
99390.4
99392.1
99393.2
99394.2
99394.2
99393.6
99390.1
99385
99373.7
99320.4
99392.8
99393.6
99393.9
99394.2
99393.9
99393.5
99391.7
99388.9
99384
99380.9
99376.2
99351.4
99396.1
99395.8
99395.1
99394.6
99393.2
99391.5
99388.6
99387.2
99384.7
99380.1
99374.6
99356
99397.6
99396.6
99395.1
99393.5
99391.5
99390.7
99389.5
99387.6
99384.6
99380.3
99376
99363.8
99397.9
99396.2
99394.3
99393.7
99392.7
99391.4
99389.3
99386.9
99383.9
99379.9
99375.9
99367.5
99397.9
99396.7
99395.4
99394.1
99392.5
99391
99389.2
99387
99384
99380.5
99377
99370.9
99398.9
99397.3
99395.5
99394.1
99392.5
99390.9
99388.7
99386.5
99383.7
99380.4
99377.4
99373
99399.1
99397.4
99395.7
99394.2
99392.5
99390.8
99388.8
99386.5
99383.8
99380.8
99378.1
99374.6
99399.5
99397.7
99395.7
99394.2
99392.4
99390.7
99388.5
99386.3
99383.7
99381
99378.3
99375.8
99399.8
99397.7
99396
99394.2
99392.5
99390.6
99388.6
99386.3
99383.8
99381.2
99378.7
99376.5
99399.9
99397.9
99395.9
99394.3
99392.4
99390.6
99388.4
99386.3
99383.7
99381.3
99378.8
99377
99400.1
99397.8
99396.1
99394.2
99392.5
99390.5
99388.5
99386.2
99383.8
99381.3
99379
99377.2
99631.2
99432.6
99448.9
99432.8
99423.1
99410.5
99400.9
99392.7
99387.3
99384.6
99383.4
99385.1
99605.3
99427.9
99449.9
99436.5
99428.9
99418.2
99410.1
99402.9
99397.7
99394.5
99392.5
99392.6
99586.8
99427.3
99450.4
99438
99432.5
99423.2
99416.1
99409.5
99404.2
99400.5
99397.9
99397
99551.5
99424.3
99449.4
99438.2
99434.3
99426.3
99419.5
99413.2
99407.9
99404
99400.9
99399.1
99518.4
99422.2
99448.4
99438.1
99434.8
99428
99421.2
99415.2
99409.8
99405.8
99402.4
99400.2
99489.5
99422.8
99447.6
99438.4
99434.5
99428.6
99421.9
99416.1
99410.8
99406.6
99402.8
99400.1
99462.6
99426.7
99446.7
99439.3
99434.4
99428.7
99422
99416.3
99410.9
99406.8
99403.3
99401
99440.7
99437.4
99446.5
99440.7
99434.3
99428.8
99422.1
99416.7
99411.6
99407.7
99404.2
99401.5
99420.2
99448.2
99446
99442.5
99434.8
99429.4
99422.7
99417.6
99412.2
99408.3
99404.5
99402
99416.1
99463.3
99448.4
99444.9
99436.6
99430
99423.5
99417.9
99412.8
99408.6
99405.1
99402.2
99370.8
99472.4
99449.1
99446.6
99437.7
99430.7
99424
99418.5
99413
99409
99405.2
99402.5
99445
99511.8
99455.3
99449.1
99439.4
99430.9
99424.6
99418.4
99413.5
99409
99405.6
99402.4
)
;

boundaryField
{
    rotor
    {
        type            zeroGradient;
    }
    stator
    {
        type            zeroGradient;
    }
    front
    {
        type            empty;
    }
    back
    {
        type            empty;
    }
}


// ************************************************************************* //
