/*--------------------------------*- C++ -*----------------------------------*\
| =========                 |                                                 |
| \\      /  F ield         | OpenFOAM: The Open Source CFD Toolbox           |
|  \\    /   O peration     | Version:  2212                                  |
|   \\  /    A nd           | Website:  www.openfoam.com                      |
|    \\/     M anipulation  |                                                 |
\*---------------------------------------------------------------------------*/
FoamFile
{
    version     2.0;
    format      ascii;
    arch        "LSB;label=32;scalar=64";
    class       volScalarField;
    location    "980";
    object      p;
}
// * * * * * * * * * * * * * * * * * * * * * * * * * * * * * * * * * * * * * //

dimensions      [0 2 -2 0 0 0 0];

internalField   nonuniform List<scalar> 
50904
(
144349
148642
-262045
-254045
136678
141307
-258640
-250008
127440
132522
-254732
-245295
116139
121775
-249952
-239580
101956
108266
-243909
-232439
84230.7
91342.2
-236340
-223601
62482.8
70536.4
-227140
-212991
36194.7
45282
-216300
-200706
5196.67
15363.2
-204115
-187282
-28408
-17207.9
-191895
-174304
-63474.7
-51609.5
-180492
-162799
-96680.9
-84659.8
-171166
-154174
-122613
-111140
-165186
-149708
-137892
-127868
-161814
-148476
-139676
-131962
-159771
-149042
-130316
-125332
-158344
-150060
-119155
-116646
-157508
-151238
-108972
-108494
-157640
-152955
-100478
-101378
-158836
-155268
-95572.2
-97003.9
-161907
-158949
-93066.7
-94537.1
-165343
-162785
-91668.6
-93059.8
-168926
-166683
-89055.3
-90408.8
-172014
-169975
-87628.5
-88972.9
-173820
-171814
-87833.7
-89165.1
-174481
-172388
-89131.9
-90458.2
-174375
-172143
-90998.8
-92313.6
-173813
-171446
-93009.9
-94312.3
-173100
-170618
-94925.2
-96218.8
-172386
-169815
-96630.4
-97928
-171719
-169083
-98098.2
-99401.1
-171135
-168452
-99339.2
-100649
-170640
-167926
-100369
-101685
-170227
-167491
-101211
-102533
-169891
-167138
-101907
-103236
-169616
-166850
-102438
-103775
-169398
-166625
-104289
-94552
-158972
-161740
-155646
-167668
-162360
-177724
-165590
-182558
-168253
-185902
-170457
-188377
-104472
-93693.2
-157281
-158132
-154265
-163971
-160598
-173603
-163850
-178542
-166409
-181983
-168574
-184554
-104612
-92473.5
-155217
-153586
-152491
-159323
-158452
-168650
-161733
-173846
-164243
-177546
-166412
-180327
-105068
-91353
-152895
-148268
-150659
-154229
-156123
-163397
-159430
-169066
-161889
-173132
-164046
-176122
-106043
-90504.1
-150252
-141967
-148828
-148645
-153653
-157789
-156932
-164032
-159336
-168509
-161472
-171687
-107746
-90150.1
-147305
-134666
-147032
-142611
-151169
-151873
-154349
-158673
-156708
-163567
-158829
-166913
-110395
-90614.4
-144243
-126826
-145356
-136546
-148883
-146080
-151844
-153266
-154089
-158439
-156141
-161831
-114214
-92353.8
-141439
-119366
-144031
-131141
-147306
-141286
-150161
-148926
-152361
-154412
-154369
-157840
-119247
-95709.1
-139172
-113123
-142869
-126158
-145937
-136387
-148544
-143902
-150582
-149335
-152463
-152590
-125081
-100658
-138295
-110050
-142829
-123797
-146082
-134314
-148665
-141853
-150636
-147284
-152338
-150289
-131316
-107106
-138865
-110419
-143542
-123421
-146797
-133358
-149241
-140373
-151086
-145480
-152552
-148063
-137385
-114645
-141276
-114803
-145852
-126578
-149151
-135798
-151533
-142275
-153305
-147027
-154444
-149086
-142603
-122401
-145140
-122123
-149380
-132205
-152486
-140186
-154698
-145807
-156350
-150000
-156977
-151333
-146794
-130014
-149681
-131165
-153739
-139733
-156652
-146486
-158670
-151176
-160215
-154686
-161403
-156400
-149686
-136664
-153826
-140181
-157830
-147627
-160473
-153163
-162276
-156888
-163675
-159615
-164427
-160878
-151025
-141103
-156541
-146683
-160505
-153373
-162876
-157961
-164387
-160877
-165438
-162831
-165625
-163553
-151768
-144178
-158288
-151105
-162284
-157305
-164502
-161267
-165840
-163650
-166676
-165091
-166481
-165459
-152548
-146724
-159519
-154267
-163470
-160016
-165562
-163496
-166749
-165480
-167394
-166530
-167012
-166683
-153647
-149158
-160692
-156869
-164452
-162094
-166347
-165085
-167237
-166618
-167464
-167200
-167546
-167641
-154983
-151493
-161878
-159100
-165373
-163811
-167093
-166406
-167892
-167707
-168067
-168151
-167958
-168391
-156020
-153351
-162786
-160846
-166031
-165101
-167578
-167349
-168292
-168458
-168451
-168821
-168327
-169010
-156263
-154293
-163274
-162032
-166291
-165938
-167736
-167970
-168638
-169160
-169147
-169778
-167881
-168984
-155206
-153707
-163513
-162718
-166185
-166223
-167406
-167977
-168196
-169032
-168706
-169644
-167905
-169174
-153932
-152616
-163714
-163134
-165862
-166113
-166880
-167645
-167571
-168601
-168047
-169189
-167656
-169020
-153016
-151676
-163948
-163427
-165470
-165807
-166375
-167224
-167017
-168139
-167470
-168717
-167309
-168718
-152569
-151100
-164162
-163616
-165065
-165416
-165944
-166815
-166557
-167711
-166983
-168278
-166928
-168354
-152508
-150873
-164296
-163685
-164717
-165038
-165635
-166489
-166224
-167371
-166627
-167928
-166622
-168043
-152669
-150870
-164365
-163680
-164457
-164737
-165442
-166270
-165992
-167125
-166369
-167666
-166370
-167781
-152933
-150998
-164387
-163634
-164291
-164530
-165342
-166142
-165836
-166951
-166188
-167476
-166179
-167585
-153230
-151191
-164377
-163573
-164205
-164415
-165301
-166086
-165725
-166831
-166057
-167341
-166041
-167446
-153517
-151399
-164351
-163513
-164178
-164371
-165297
-166073
-165644
-166745
-165954
-167236
-165932
-167337
-153770
-151597
-164324
-163463
-164187
-164372
-165314
-166088
-165591
-166690
-165874
-167151
-165840
-167245
-153985
-151769
-164300
-163425
-164215
-164397
-165341
-166118
-165567
-166666
-165808
-167076
-165739
-167136
-154165
-151917
-164282
-163397
-164251
-164434
-165374
-166158
-165581
-166684
-165783
-167038
-165641
-167021
-154312
-152038
-164270
-163379
-164288
-164474
-165411
-166205
-165638
-166751
-165836
-167083
-165582
-166939
-154415
-152123
-164258
-163365
-164310
-164503
-165439
-166245
-165696
-166825
-165916
-167164
-165614
-166973
-172526
-190477
-174337
-192423
-175830
-193787
-177624
-195185
-180791
-197522
-188659
-203973
-170659
-186647
-172492
-188651
-174014
-190115
-175896
-191735
-179223
-194464
-187385
-201764
-168550
-182548
-170471
-184740
-172001
-186237
-173875
-187842
-177272
-190706
-185741
-198859
-166226
-178496
-168219
-180882
-169742
-182382
-171594
-183916
-175036
-186757
-183744
-195453
-163684
-174230
-165738
-176833
-167226
-178329
-169027
-179796
-172479
-182599
-181315
-191493
-161069
-169633
-163180
-172474
-164596
-173954
-166287
-175354
-169656
-178132
-178447
-186975
-158383
-164678
-160524
-167726
-161826
-169160
-163377
-170512
-166643
-173363
-175275
-182159
-156629
-160799
-158781
-164015
-159912
-165347
-161218
-166544
-164170
-169247
-172245
-177651
-154686
-155528
-156776
-158776
-157684
-159966
-158737
-161061
-161436
-163882
-169026
-172537
-154475
-153093
-156560
-156384
-157226
-157407
-157955
-158286
-160219
-160898
-166909
-169142
-154477
-150513
-156482
-153672
-156891
-154492
-157311
-155167
-159204
-157652
-165108
-165680
-156078
-151082
-158002
-154026
-158164
-154626
-158273
-155045
-159738
-157174
-164699
-164383
-158212
-152772
-160108
-155493
-160072
-155882
-159912
-156045
-161002
-157782
-165105
-164044
-162061
-157464
-162480
-158804
-162275
-158896
-162212
-158987
-163166
-160401
-166356
-165409
-164513
-161649
-164654
-162674
-164353
-162499
-164199
-162312
-164929
-163269
-167387
-167095
-165638
-164351
-166022
-165464
-165565
-165028
-165175
-164512
-165607
-165032
-167551
-167982
-166340
-166203
-166720
-167203
-166163
-166570
-165661
-165859
-165931
-166115
-167507
-168474
-166773
-167396
-166998
-168215
-166371
-167421
-165830
-166578
-165995
-166641
-167267
-168556
-167691
-168722
-167393
-169174
-166598
-168091
-165999
-167011
-165990
-166763
-166932
-168321
-167847
-169273
-167458
-169641
-166767
-168549
-166285
-167454
-166324
-167138
-167137
-168510
-167990
-169676
-167408
-169843
-166897
-168858
-166628
-167903
-166775
-167631
-167485
-168831
-166270
-168371
-166091
-168671
-166322
-168405
-166733
-168203
-167352
-168440
-167999
-169471
-166349
-168379
-165797
-168208
-166187
-168217
-166784
-168383
-167479
-168838
-168070
-169744
-166248
-168154
-165450
-167638
-165958
-167889
-166689
-168365
-167429
-169002
-167949
-169790
-166010
-167783
-165121
-167076
-165740
-167551
-166576
-168290
-167357
-169087
-167816
-169781
-165707
-167350
-164831
-166569
-165539
-167229
-166443
-168165
-167249
-169088
-167664
-169716
-165443
-166980
-164608
-166166
-165384
-166968
-166331
-168048
-167156
-169070
-167542
-169655
-165245
-166695
-164449
-165869
-165267
-166773
-166237
-167952
-167077
-169051
-167455
-169616
-165104
-166486
-164339
-165654
-165184
-166627
-166164
-167873
-167017
-169036
-167413
-169614
-164990
-166331
-164252
-165503
-165116
-166526
-166097
-167810
-166968
-169030
-167409
-169649
-164885
-166200
-164165
-165379
-165048
-166442
-166034
-167755
-166934
-169038
-167437
-169714
-164771
-166069
-164053
-165247
-164961
-166349
-165965
-167697
-166928
-169078
-167492
-169803
-164604
-165883
-163872
-165045
-164820
-166200
-165877
-167617
-166965
-169173
-167564
-169908
-164366
-165606
-163577
-164711
-164597
-165950
-165770
-167503
-167060
-169352
-167658
-170038
-163970
-165126
-163006
-164029
-164201
-165460
-165650
-167347
-167226
-169633
-167779
-170207
-163494
-164555
-162237
-163095
-163758
-164874
-165552
-167199
-167398
-169931
-167887
-170365
-199028
-210991
-205254
-216713
-207574
-219458
-208849
-221133
-209898
-222761
-211178
-225179
-198245
-209998
-204828
-216362
-207295
-219202
-208636
-220873
-209753
-222503
-211185
-225087
-197204
-208567
-204237
-215722
-206908
-218781
-208338
-220520
-209534
-222198
-211154
-225013
-195797
-206653
-203267
-214502
-206121
-217721
-207624
-219497
-208904
-221245
-210753
-224390
-193884
-204167
-201763
-212662
-204792
-216069
-206358
-217898
-207716
-219718
-209809
-223208
-191357
-201023
-199564
-210165
-202740
-213804
-204352
-215707
-205771
-217598
-208109
-221441
-188234
-197283
-196532
-206917
-199737
-210687
-201327
-212598
-202771
-214521
-205369
-218706
-184830
-193320
-193086
-203496
-196282
-207431
-197801
-209312
-199197
-211179
-201948
-215524
-180878
-188382
-188619
-198603
-191602
-202507
-192961
-204309
-194248
-206098
-197045
-210477
-177675
-184468
-184830
-194581
-187570
-198388
-188712
-200028
-189802
-201621
-192462
-205754
-174617
-179990
-180849
-189261
-183212
-192719
-184104
-194154
-184944
-195508
-187200
-199090
-172824
-177092
-178100
-185247
-180062
-188236
-180691
-189400
-181232
-190431
-182838
-193181
-171809
-174798
-176060
-181492
-177592
-183879
-177967
-184737
-178187
-185401
-178939
-187116
-171418
-173857
-174639
-179009
-175778
-180720
-175896
-181099
-175849
-181357
-176087
-182636
-171146
-173524
-173473
-177259
-174220
-178309
-174050
-178199
-173717
-178031
-173571
-178901
-170603
-173093
-172391
-175897
-172776
-176435
-172300
-175925
-171769
-175465
-171988
-176456
-170028
-172643
-171495
-174872
-171664
-175082
-171007
-174303
-170385
-173655
-170959
-174772
-169560
-172220
-170889
-174136
-170816
-174050
-169972
-173022
-169232
-172201
-170055
-173485
-169798
-172336
-171308
-174230
-170500
-173475
-169049
-171845
-167601
-170373
-167497
-170925
-169713
-172198
-171148
-173914
-170364
-173123
-168911
-171402
-167582
-169979
-167881
-170864
-169768
-172199
-171190
-173853
-170467
-173033
-169113
-171280
-167934
-169931
-168261
-170869
-168897
-171489
-169947
-172836
-170460
-172998
-170871
-172706
-171387
-172732
-172868
-174656
-168667
-171264
-169565
-172488
-170259
-172872
-171013
-173003
-171638
-173167
-171818
-173874
-168368
-170961
-169141
-172086
-169904
-172616
-170840
-173062
-171457
-173290
-170550
-172888
-168042
-170634
-168714
-171684
-169541
-172359
-170631
-173091
-171311
-173454
-169889
-172439
-167712
-170286
-168308
-171282
-169177
-172069
-170361
-173021
-171127
-173544
-169618
-172331
-167408
-169965
-167963
-170944
-168863
-171820
-170108
-172939
-170970
-173625
-169572
-172431
-167121
-169660
-167656
-170646
-168576
-171587
-169859
-172823
-170796
-173635
-169494
-172456
-166863
-169384
-167423
-170425
-168361
-171417
-169661
-172734
-170647
-173641
-169437
-172516
-166629
-169130
-167238
-170250
-168192
-171272
-169496
-172635
-170516
-173608
-169382
-172525
-166419
-168900
-167090
-170124
-168075
-171176
-169386
-172569
-170438
-173593
-169362
-172548
-166233
-168698
-166945
-170008
-167994
-171106
-169330
-172532
-170417
-173600
-169371
-172570
-166061
-168517
-166772
-169869
-167967
-171078
-169369
-172571
-170510
-173695
-169470
-172668
-165888
-168336
-166548
-169669
-168005
-171107
-169546
-172731
-170773
-173938
-169686
-172871
-165690
-168127
-166259
-169389
-168131
-171244
-170017
-173204
-171437
-174588
-170128
-173311
-165499
-167922
-165967
-169099
-168270
-171413
-170624
-173860
-172366
-175541
-170620
-173834
-212402
-227828
-213472
-229873
-214558
-231870
-215815
-234225
-217313
-237031
-219204
-240558
-213685
-226154
-212536
-227997
-213735
-230408
-214945
-232780
-216347
-235562
-218024
-238812
-220177
-242874
-214844
-228709
-212651
-228227
-213988
-230938
-215344
-233648
-216936
-236978
-218872
-240982
-221415
-245958
-216368
-232122
-212414
-227968
-213893
-230952
-215418
-233950
-217245
-237872
-219538
-242982
-222629
-249407
-218102
-236179
-211645
-227189
-213270
-230435
-214981
-233661
-217077
-238125
-219820
-244516
-223637
-252971
-220015
-240972
-210116
-225837
-211881
-229318
-213789
-232728
-216184
-237651
-219447
-245284
-224142
-256102
-221974
-246444
-207520
-223460
-209369
-227082
-211484
-230642
-214223
-235985
-218073
-244730
-223743
-257831
-223743
-252237
-204158
-220489
-205987
-224062
-208204
-227581
-211161
-233069
-215467
-242455
-222019
-257139
-224841
-257371
-199262
-215587
-201083
-219179
-203440
-222755
-206671
-228457
-211478
-238307
-218899
-253866
-224819
-260591
-194526
-210704
-196197
-214084
-198516
-217466
-201738
-222957
-206647
-232544
-214523
-247971
-223162
-260333
-189041
-203735
-190723
-207124
-193047
-210453
-196257
-215841
-201214
-225184
-209331
-240186
-219696
-255870
-184283
-197164
-186024
-200507
-188297
-203674
-191326
-208703
-196029
-217378
-203867
-231283
-214550
-247543
-179914
-190322
-181818
-193681
-184051
-196688
-186821
-201276
-191089
-209114
-198241
-221561
-208112
-236562
-176440
-184936
-177867
-187439
-179922
-190125
-182572
-194394
-186517
-201476
-192932
-212363
-201339
-224919
-173434
-180450
-174462
-182261
-176411
-184657
-178763
-188339
-182125
-194278
-187518
-203236
-194211
-213062
-171893
-177759
-172201
-178764
-173686
-180611
-175585
-183612
-178392
-188532
-182916
-195929
-188273
-203649
-170693
-175764
-170258
-176052
-171443
-177524
-173077
-180058
-175540
-184267
-179532
-190634
-184077
-197034
-169822
-174341
-168959
-174155
-169784
-175241
-171163
-177371
-173386
-181051
-177068
-186741
-181334
-192510
-168816
-172893
-169459
-173832
-169343
-174104
-170082
-175524
-171951
-178573
-175258
-183576
-179678
-189353
-168935
-172520
-168966
-172898
-168737
-173022
-169322
-174172
-170918
-176753
-173839
-181162
-178353
-186974
-169191
-172375
-169087
-172587
-168758
-172576
-169140
-173426
-170417
-175504
-172886
-179263
-177313
-185035
-170265
-173185
-166750
-170480
-167449
-171246
-168660
-172690
-170090
-174746
-172437
-178206
-176591
-183693
-169418
-172415
-167229
-170769
-167985
-171577
-168985
-172800
-170199
-174573
-172349
-177732
-176578
-183254
-168699
-171758
-167841
-171247
-168488
-171976
-169253
-172988
-170291
-174569
-172238
-177499
-176870
-183411
-168390
-171507
-168217
-171594
-168777
-172261
-169417
-173168
-170357
-174653
-172086
-177383
-177166
-183809
-168346
-171478
-168388
-171741
-168872
-172368
-169450
-173241
-170353
-174709
-171856
-177262
-177249
-184118
-168340
-171498
-168410
-171772
-168846
-172382
-169387
-173241
-170279
-174724
-171608
-177161
-177033
-184171
-168233
-171431
-168330
-171711
-168741
-172322
-169253
-173178
-170141
-174691
-171380
-177107
-176682
-184129
-168195
-171456
-168251
-171652
-168631
-172252
-169096
-173086
-169964
-174613
-171149
-177040
-176294
-184021
-168138
-171413
-168150
-171551
-168505
-172148
-168917
-172950
-169759
-174484
-170924
-176955
-175913
-183859
-168090
-171372
-168068
-171465
-168395
-172049
-168742
-172804
-169559
-174339
-170728
-176868
-175559
-183675
-168052
-171323
-168005
-171386
-168292
-171950
-168578
-172657
-169375
-174194
-170555
-176776
-175238
-183478
-168054
-171308
-167957
-171318
-168189
-171847
-168429
-172516
-169215
-174060
-170410
-176693
-174973
-183313
-168078
-171311
-167889
-171225
-168070
-171725
-168293
-172381
-169074
-173937
-170284
-176612
-174753
-183170
-168069
-171288
-167749
-171058
-167927
-171575
-168169
-172257
-168952
-173826
-170173
-176537
-174571
-183050
-167899
-171122
-167576
-170861
-167790
-171434
-168067
-172155
-168853
-173738
-170084
-176477
-174435
-182966
-199069
-211315
-195335
-204216
-142127
-150274
-195713
-204933
-199950
-213169
-195907
-205325
-142143
-150539
-196892
-206195
-201114
-215658
-196683
-206838
-142143
-150879
-198431
-207847
-202460
-218605
-197624
-208690
-142122
-151268
-200367
-209922
-203994
-222078
-198747
-210945
-142058
-151706
-202757
-212489
-205659
-226080
-200057
-213659
-141941
-152205
-205830
-215783
-207387
-230541
-201537
-216844
-141735
-152738
-209691
-219922
-208947
-235048
-203069
-220361
-141398
-153267
-214535
-225110
-210056
-238875
-204448
-223858
-140902
-153727
-220365
-231364
-210256
-240914
-205352
-226748
-140284
-154080
-227268
-238761
-209209
-240110
-205221
-227985
-139515
-154130
-234881
-246927
-206834
-236255
-203517
-226689
-138859
-154055
-243377
-255978
-202925
-229416
-199640
-221979
-138964
-154306
-252069
-265088
-197926
-220586
-194089
-214366
-141012
-155860
-257969
-271047
-191981
-210515
-187710
-205052
-144634
-158389
-259719
-272309
-186787
-202063
-183154
-197793
-147611
-160232
-262452
-273860
-183214
-196095
-180518
-192988
-150735
-162406
-263385
-273155
-181292
-192398
-179659
-190463
-153653
-164540
-263057
-270976
-181063
-190775
-181064
-190560
-155410
-165652
-264618
-270644
-180757
-189519
-183216
-191753
-155107
-164944
-268513
-272892
-180333
-188349
-186186
-193920
-153961
-163537
-273515
-276629
-179064
-186640
-189274
-196491
-151859
-161289
-279065
-281449
-177641
-184973
-192784
-199781
-147406
-156861
-289445
-291455
-176341
-183661
-195388
-202515
-143394
-153074
-297936
-299900
-175418
-182891
-196562
-204083
-141298
-151236
-302390
-304604
-174724
-182459
-196772
-204810
-140618
-150789
-304182
-306774
-174465
-182493
-196181
-204672
-141401
-151763
-303419
-306341
-174538
-182822
-194982
-203851
-143271
-153753
-300504
-303773
-174553
-183073
-193618
-202870
-145412
-155931
-296882
-300574
-174575
-183337
-192340
-201891
-147556
-158093
-293176
-297199
-174648
-183610
-191193
-200958
-149558
-160109
-289576
-293834
-174753
-183868
-190189
-200109
-151415
-161963
-286120
-290574
-174871
-184103
-189345
-199380
-153055
-163582
-282976
-287608
-174971
-184291
-188645
-198768
-154447
-164951
-280226
-285007
-175048
-184440
-188061
-198253
-155638
-166118
-277805
-282718
-175112
-184564
-187615
-197862
-156611
-167067
-275835
-280854
-770731
-796030
1.19965e+06
1.25995e+06
-2.51906e+06
-2.62482e+06
-763992
-789143
1.19136e+06
1.25187e+06
-2.51751e+06
-2.62405e+06
-755826
-780779
1.18159e+06
1.24234e+06
-2.51465e+06
-2.62215e+06
-745583
-770240
1.1698e+06
1.23078e+06
-2.51106e+06
-2.61967e+06
-732304
-756515
1.15462e+06
1.2158e+06
-2.50633e+06
-2.61625e+06
-714844
-738393
1.13428e+06
1.19553e+06
-2.49911e+06
-2.61052e+06
-691961
-714584
1.10739e+06
1.16853e+06
-2.48686e+06
-2.59992e+06
-662130
-683483
1.07183e+06
1.13257e+06
-2.46879e+06
-2.58363e+06
-623944
-643524
1.02494e+06
1.08468e+06
-2.44326e+06
-2.55984e+06
-577349
-594597
962805
1.02075e+06
-2.40234e+06
-2.52014e+06
-520176
-534674
880786
935999
-2.33687e+06
-2.45538e+06
-453853
-465321
776689
828189
-2.23569e+06
-2.35363e+06
-384271
-392539
653314
700125
-2.08719e+06
-2.20258e+06
-316196
-321516
518647
560374
-1.88283e+06
-1.99345e+06
-262397
-265511
394406
432085
-1.64945e+06
-1.75331e+06
-235698
-237721
316661
353103
-1.4584e+06
-1.5565e+06
-221903
-223283
264417
300449
-1.29624e+06
-1.3878e+06
-216028
-217142
223282
258702
-1.16015e+06
-1.24457e+06
-216769
-218092
192300
226809
-1.04779e+06
-1.12588e+06
-221038
-222909
165330
198069
-956041
-1.02842e+06
-226571
-228952
142365
173098
-883120
-950541
-233469
-236247
126793
155831
-831293
-895148
-244849
-247993
128603
156929
-817655
-880410
-253923
-257211
134807
162893
-820895
-883980
-258858
-262074
139280
167246
-827857
-891850
-260139
-263099
141126
168950
-834684
-899654
-258621
-261216
140455
168087
-839836
-905641
-255467
-257624
138276
165648
-844026
-910465
-251545
-253228
135345
162399
-847506
-914322
-247352
-248566
131963
158676
-849958
-916987
-243267
-244051
128482
154878
-851488
-918655
-239491
-239894
125126
151221
-852429
-919636
-236132
-236210
122057
147880
-853003
-920177
-233226
-233029
119361
144947
-853361
-920473
-230677
-230243
116906
142278
-853372
-920393
-228613
-227991
114815
140004
-852819
-919717
-23475.4
31438.9
61553.7
87927.3
111330
125214
-207063
-207453
-224074
-241724
-254938
-264699
-26985.5
26826.2
55910.4
81371
104155
117721
-206435
-206060
-222412
-239718
-252544
-261881
-31272.7
21226.4
49068.7
73432.6
95476.4
108668
-205777
-204507
-220563
-237484
-249862
-258693
-36500.1
14375
40725.5
63757.7
84886.5
97614.5
-204886
-202588
-218268
-234704
-246524
-254731
-43005.7
5797.12
30318.3
51692.8
71655.3
83787.3
-203629
-200131
-215309
-231107
-242209
-249623
-51081.5
-4921.64
17377.1
36705.8
55194
66569.8
-201868
-197007
-211518
-226488
-236678
-243098
-60986.6
-18160.6
1505.26
18373.5
35048.6
45506.7
-199428
-193115
-206764
-220699
-229774
-235000
-72945.8
-34268.8
-17663.2
-3699.16
10775.9
20128.3
-196160
-188385
-200947
-213623
-221384
-225236
-86994.6
-53399
-40261.6
-29632.8
-17766.1
-9724.36
-191975
-182878
-194106
-205316
-211602
-213954
-102684
-74941.7
-65351.7
-58123.7
-48950.6
-42146.5
-186955
-177004
-186742
-196435
-201282
-202230
-118864
-97750.7
-91707.8
-87855.9
-81453.4
-75888.8
-181347
-171384
-179497
-187674
-191185
-190898
-133392
-119341
-116579
-115797
-112048
-107679
-175683
-166887
-173337
-180093
-182463
-181197
-142918
-135584
-135358
-136900
-135358
-132086
-170417
-164143
-169118
-174682
-176218
-174329
-144640
-142876
-144192
-147247
-147506
-145486
-164854
-162106
-165882
-170579
-171731
-169718
-139389
-141285
-142515
-145526
-146476
-145324
-158881
-160268
-163193
-167092
-168016
-166170
-130032
-133206
-132981
-134614
-135110
-134271
-153355
-158014
-160515
-163821
-164658
-163226
-120510
-124061
-122386
-122499
-122323
-121685
-148645
-155636
-158104
-161085
-161980
-161071
-111872
-115600
-112916
-111747
-110916
-110406
-144837
-153508
-156284
-159245
-160385
-160075
-104478
-108424
-105376
-103368
-101927
-101321
-142133
-152035
-155393
-158624
-160151
-160408
-97999.8
-102537
-99978.7
-97966.8
-96447.7
-96024.3
-140331
-151322
-155637
-159580
-161775
-162725
-93068.1
-98349.4
-96690.1
-95090.2
-93694.8
-93439.4
-138955
-150747
-156115
-160957
-163913
-165567
-89549.6
-95429
-94503.9
-93361.7
-92120.7
-92087.4
-137696
-150182
-156477
-162294
-166084
-168562
-85823.1
-91872.7
-91302.7
-90595.5
-89460.6
-89683.3
-136758
-149842
-156695
-163407
-167953
-171240
-83355.5
-89602
-89283.3
-88959.8
-87890.6
-88375.3
-135899
-149349
-156417
-163766
-168857
-172773
-82397.1
-88927
-88867.7
-88885.2
-87875
-88582.8
-134966
-148576
-155667
-163413
-168858
-173227
-82570.6
-89393.2
-89582.3
-89869.4
-88916.8
-89786.6
-134008
-147664
-154694
-162648
-168299
-172965
-83439.6
-90514.7
-90928.4
-91410.9
-90520.8
-91506.2
-133100
-146752
-153697
-161726
-167473
-172302
-84657.5
-91926.2
-92525.1
-93134.1
-92297.3
-93358.8
-132283
-145919
-152789
-160823
-166608
-171519
-85983.9
-93392.4
-94135.5
-94815.3
-94016
-95120.4
-131573
-145195
-152010
-160012
-165808
-170754
-87270.7
-94775.5
-95627.1
-96337.6
-95561.4
-96689.1
-130972
-144588
-151364
-159320
-165107
-170062
-88441.4
-96012.3
-96947.4
-97666.2
-96905.7
-98047.9
-130472
-144088
-150842
-158745
-164517
-169467
-89464.5
-97081.8
-98082.4
-98797.4
-98047.1
-99198.8
-130060
-143680
-150422
-158276
-164030
-168970
-90334.5
-97985.4
-99037.6
-99742.7
-98999.2
-100157
-129724
-143352
-150088
-157896
-163633
-168559
-91065.2
-98739.7
-99832.2
-100524
-99784
-100946
-129451
-143087
-149822
-157591
-163313
-168226
-91688.8
-99378.2
-100502
-101178
-100438
-101602
-129226
-142872
-149609
-157345
-163054
-167956
-92189.2
-99879.4
-101022
-101682
-100939
-102102
-129051
-142701
-149440
-157149
-162848
-167740
-133769
-128661
-128310
-128818
-124950
-122844
-152660
-154266
-158746
-166352
-170482
-176076
-151115
-148834
-151357
-158292
-162388
-168711
-150601
-150543
-153182
-160502
-165147
-172138
-154316
-150466
-152923
-160369
-165331
-172777
-171683
-150494
-152993
-160533
-165709
-173456
-137822
-150370
-152992
-160630
-165993
-173980
-134481
-129193
-128991
-129573
-125695
-123470
-152600
-154144
-158656
-166192
-170158
-175458
-151268
-148931
-151543
-158493
-162517
-168600
-150512
-150525
-153200
-160492
-165023
-171737
-154500
-150524
-153005
-160434
-165289
-172462
-175857
-150624
-153066
-160574
-165630
-173097
-151026
-150480
-153075
-160673
-165912
-173616
-135369
-129843
-129819
-130490
-126591
-124197
-152565
-154026
-158583
-166044
-169814
-174739
-151502
-149054
-151765
-158722
-162635
-168391
-150555
-150526
-153249
-160510
-164898
-171258
-155010
-150610
-153116
-160521
-165238
-172063
-178127
-150812
-153174
-160643
-165552
-172671
-158221
-150630
-153182
-160738
-165831
-173191
-136505
-130711
-130916
-131713
-127819
-125229
-152509
-153860
-158456
-165820
-169353
-173813
-151800
-149231
-152056
-159021
-162803
-168163
-150712
-150532
-153301
-160519
-164730
-170665
-156206
-150729
-153254
-160622
-165165
-171572
-178548
-151040
-153314
-160732
-165459
-172163
-160424
-150793
-153309
-160814
-165728
-172684
-137990
-131901
-132407
-133385
-129534
-126717
-152419
-153612
-158230
-165454
-168690
-172552
-152149
-149491
-152451
-159421
-163044
-167915
-150971
-150550
-153367
-160529
-164524
-169952
-157639
-150886
-153418
-160728
-165046
-170943
-178434
-151326
-153497
-160844
-165338
-171534
-160976
-150991
-153473
-160911
-165599
-172062
-139910
-133517
-134410
-135636
-131882
-128797
-152291
-153259
-157870
-164897
-167758
-170856
-152524
-149848
-152958
-159918
-163330
-167582
-151363
-150609
-153481
-160575
-164316
-169136
-158857
-151086
-153610
-160835
-164873
-170157
-178097
-151688
-153729
-160974
-165176
-170763
-160968
-151240
-153682
-161028
-165435
-171317
-142308
-135656
-137027
-138575
-134988
-131591
-152123
-152801
-157368
-164135
-166546
-168716
-152874
-150298
-153550
-160454
-163579
-167067
-151883
-150751
-153684
-160695
-164131
-168231
-159683
-151346
-153848
-160959
-164654
-169199
-177558
-152148
-154025
-161128
-164960
-169787
-160736
-151560
-153945
-161160
-165210
-170358
-145217
-138391
-140330
-142278
-138946
-135207
-151970
-152284
-156770
-163224
-165132
-166270
-153181
-150805
-154161
-160935
-163684
-166312
-152494
-151013
-153994
-160886
-163971
-167333
-160177
-151698
-154151
-161112
-164429
-168265
-176845
-152733
-154392
-161306
-164732
-168854
-160398
-151968
-154262
-161307
-164971
-169463
-148572
-141710
-144287
-146697
-143711
-139608
-151925
-151821
-156201
-162304
-163682
-163689
-153431
-151333
-154737
-161290
-163559
-165144
-153100
-151412
-154420
-161127
-163759
-166157
-160420
-152184
-154565
-161310
-164144
-167007
-176000
-153494
-154890
-161534
-164434
-167554
-160006
-152518
-154698
-161500
-164658
-168189
-152079
-145389
-148561
-151411
-148813
-144349
-152078
-151599
-155868
-161627
-162535
-161529
-153613
-151862
-155244
-161501
-163280
-163936
-153596
-151932
-154910
-161364
-163547
-165148
-160409
-152801
-155056
-161529
-163904
-166019
-174918
-154428
-155483
-161791
-164192
-166562
-159633
-153178
-155161
-161658
-164341
-167172
-155227
-149112
-152768
-156005
-153837
-149087
-152428
-151807
-155966
-161406
-161934
-160059
-153691
-152445
-155766
-161687
-162994
-162747
-153915
-152606
-155520
-161650
-163348
-164073
-160167
-153635
-155738
-161845
-163699
-164930
-173592
-155651
-156326
-162178
-163999
-165457
-159453
-154147
-155862
-161939
-164061
-166012
-157478
-152487
-156385
-159871
-158135
-153263
-152869
-152557
-156586
-161741
-162050
-159652
-153580
-153136
-156365
-161981
-163010
-162232
-153824
-153310
-156139
-161990
-163422
-163654
-159335
-154464
-156421
-162226
-163802
-164548
-171512
-156888
-157205
-162660
-164149
-165101
-158851
-155114
-156511
-162229
-164036
-165492
-158443
-155190
-158953
-162448
-161053
-156247
-153251
-153867
-157701
-162535
-162714
-160120
-153480
-154287
-157411
-162636
-163406
-162331
-153901
-154596
-157306
-162703
-163796
-163666
-158860
-155993
-157767
-163038
-164208
-164544
-169937
-158936
-158857
-163638
-164637
-165129
-159326
-156966
-157830
-162882
-164182
-165142
-157100
-156370
-159676
-163159
-162279
-157984
-152547
-154776
-158242
-162975
-163457
-161179
-152092
-154813
-157817
-163033
-164144
-163303
-152142
-154891
-157616
-163067
-164544
-164605
-155698
-155930
-157909
-163296
-164907
-165443
-163974
-158435
-158839
-163825
-165344
-166072
-155277
-157122
-158454
-163784
-165629
-166794
-153793
-156302
-159067
-162367
-161932
-158426
-150636
-155265
-158321
-162873
-163652
-162080
-149948
-155270
-158113
-163196
-164566
-164356
-149926
-155363
-158038
-163357
-165054
-165662
-152475
-156284
-158409
-163687
-165510
-166542
-158201
-158435
-159376
-164326
-166083
-167278
-150508
-156783
-158667
-164006
-166072
-167656
-149618
-154770
-157173
-160347
-160339
-157715
-147994
-154737
-157516
-162007
-163136
-162312
-147436
-154836