/*--------------------------------*- C++ -*----------------------------------*\
| =========                 |                                                 |
| \\      /  F ield         | OpenFOAM: The Open Source CFD Toolbox           |
|  \\    /   O peration     | Version:  2212                                  |
|   \\  /    A nd           | Website:  www.openfoam.com                      |
|    \\/     M anipulation  |                                                 |
\*---------------------------------------------------------------------------*/
FoamFile
{
    version     2.0;
    format      ascii;
    arch        "LSB;label=32;scalar=64";
    class       surfaceScalarField;
    location    "980";
    object      phi;
}
// * * * * * * * * * * * * * * * * * * * * * * * * * * * * * * * * * * * * * //

dimensions      [0 3 -1 0 0 0 0];

oriented        oriented;

internalField   nonuniform List<scalar> 
146294
(
-4.53001e-06
1.08363e-05
-2.4075e-08
-1.2033e-05
5.75084e-06
9.51071e-06
-3.18544e-08
-1.08266e-05
-3.17663e-06
-3.11896e-06
-6.56727e-09
9.92041e-06
4.04137e-06
2.81091e-07
8.58935e-06
-2.18166e-06
-5.67521e-06
1.35655e-05
-5.95334e-08
-1.50457e-05
7.19091e-06
1.18861e-05
-7.33721e-08
-1.35196e-05
-4.00025e-06
-3.97929e-06
-2.37891e-08
1.24417e-05
5.12029e-06
2.68574e-07
1.07464e-05
-2.8271e-06
-7.10245e-06
1.69429e-05
-1.03306e-07
-1.87735e-05
8.97689e-06
1.48137e-05
-1.08977e-07
-1.68414e-05
-5.0391e-06
-5.08437e-06
-6.20387e-08
1.55764e-05
6.48905e-06
2.6088e-07
1.34133e-05
-3.67628e-06
-8.87901e-06
2.11024e-05
-1.6368e-07
-2.33491e-05
1.11861e-05
1.84005e-05
-1.33634e-07
-2.09031e-05
-6.35172e-06
-6.50394e-06
-1.31413e-07
1.94522e-05
8.22348e-06
2.66208e-07
1.66863e-05
-4.79507e-06
-1.10878e-05
2.61896e-05
-2.62729e-07
-2.89141e-05
1.39114e-05
2.27586e-05
-1.48135e-07
-2.58186e-05
-8.01328e-06
-8.32564e-06
-2.4318e-07
2.42106e-05
1.04164e-05
2.99661e-07
2.06678e-05
-6.26835e-06
-1.38296e-05
3.23546e-05
-4.55327e-07
-3.5595e-05
1.72627e-05
2.79968e-05
-1.73242e-07
-3.16821e-05
-1.01191e-05
-1.06567e-05
-4.07488e-07
2.99969e-05
1.31787e-05
3.87634e-07
2.54538e-05
-8.20168e-06
-1.74036e-05
4.01288e-05
-7.33369e-07
-4.4047e-05
2.15998e-05
3.4533e-05
-1.80345e-07
-3.90166e-05
-1.29129e-05
-1.37354e-05
-5.4787e-07
3.72309e-05
1.67737e-05
6.30225e-07
3.13635e-05
-1.08085e-05
-2.17486e-05
4.92863e-05
-1.38876e-06
-5.37073e-05
2.6825e-05
4.20956e-05
-3.58064e-07
-4.72796e-05
-1.63868e-05
-1.7596e-05
-7.11999e-07
4.58183e-05
2.12281e-05
1.05551e-06
3.82129e-05
-1.41386e-05
-2.68844e-05
5.95103e-05
-2.84264e-06
-6.40495e-05
3.28774e-05
5.04685e-05
-1.04678e-06
-5.60401e-05
-2.06243e-05
-2.22832e-05
-8.98447e-07
5.54786e-05
2.65013e-05
1.69398e-06
4.58304e-05
-1.82835e-05
-3.24053e-05
7.00491e-05
-6.12761e-06
-7.3887e-05
3.9528e-05
5.84966e-05
-2.9274e-06
-6.38569e-05
-2.51643e-05
-2.75495e-05
-1.70978e-06
6.58228e-05
3.25871e-05
2.15308e-06
5.33326e-05
-2.28447e-05
-3.92618e-05
8.18025e-05
-1.15437e-05
-8.46258e-05
4.75009e-05
6.76612e-05
-6.40018e-06
-7.24466e-05
-3.10036e-05
-3.39381e-05
-2.82616e-06
7.72112e-05
3.96457e-05
2.58118e-06
6.18398e-05
-2.85448e-05
-4.82026e-05
9.57144e-05
-1.99711e-05
-9.69771e-05
5.78923e-05
7.83297e-05
-1.22311e-05
-8.20596e-05
-3.86419e-05
-4.20701e-05
-4.56214e-06
9.09116e-05
4.86089e-05
2.64245e-06
7.19549e-05
-3.57566e-05
-5.74638e-05
0.000107555
-3.20221e-05
-0.000106843
6.88026e-05
8.66996e-05
-2.06166e-05
-8.92702e-05
-4.65078e-05
-5.0198e-05
-8.07836e-06
0.000103396
5.78728e-05
1.49366e-06
8.03472e-05
-4.26969e-05
-7.19293e-05
0.000124047
-4.63305e-05
-0.000123096
8.52864e-05
9.91501e-05
-3.1634e-05
-0.000101801
-5.82611e-05
-6.17204e-05
-1.23027e-05
0.000119806
7.01859e-05
-1.14878e-06
9.22442e-05
-5.21721e-05
-9.00978e-05
0.00014265
-6.02573e-05
-0.000145691
0.000107065
0.000113211
-4.25679e-05
-0.000119881
-7.24937e-05
-7.43577e-05
-1.68649e-05
0.000136898
8.46728e-05
-4.47529e-06
0.00010464
-6.24611e-05
-9.15002e-05
0.000136436
-6.77391e-05
-0.000146834
0.00010938
0.000108731
-4.86303e-05
-0.00012152
-7.26485e-05
-7.27659e-05
-1.93847e-05
0.000128759
8.2963e-05
-6.57164e-06
9.88954e-05
-6.08339e-05
-9.27345e-05
0.000133873
-6.95175e-05
-0.000151519
0.000112159
0.000107455
-5.0263e-05
-0.000126444
-7.21125e-05
-7.15471e-05
-1.93359e-05
0.000123388
8.19839e-05
-6.79115e-06
9.54522e-05
-5.93244e-05
-9.22976e-05
0.000130941
-6.80305e-05
-0.000153526
0.000113396
0.000105854
-4.94027e-05
-0.000129181
-6.98309e-05
-6.95156e-05
-1.70674e-05
0.000118047
8.01411e-05
-5.40544e-06
9.22195e-05
-5.72663e-05
-9.16223e-05
0.000125918
-6.61914e-05
-0.000150701
0.000114567
0.000101781
-4.82178e-05
-0.000127923
-6.66649e-05
-6.4403e-05
-1.22811e-05
0.000111064
7.44706e-05
-2.52704e-06
8.80954e-05
-5.35957e-05
-8.91196e-05
0.000115408
-6.25417e-05
-0.000143261
0.000113324
9.3712e-05
-4.64054e-05
-0.000122729
-6.19146e-05
-5.70962e-05
-7.59166e-06
0.000102116
6.56982e-05
2.19924e-07
8.26014e-05
-4.87325e-05
-8.19795e-05
0.000101965
-5.76562e-05
-0.000131154
0.000106283
8.31742e-05
-4.42571e-05
-0.000113061
-5.42406e-05
-4.94023e-05
-3.37826e-06
9.08163e-05
5.63379e-05
2.53444e-06
7.49575e-05
-4.35002e-05
-6.90922e-05
8.583e-05
-5.0745e-05
-0.000115517
9.18686e-05
7.09129e-05
-4.10921e-05
-9.98368e-05
-4.33328e-05
-4.26038e-05
-2.9374e-07
7.74213e-05
4.79279e-05
4.14318e-06
6.54575e-05
-3.87572e-05
-4.27134e-05
5.55028e-05
-4.16286e-05
-8.0475e-05
5.857e-05
4.62653e-05
-3.50592e-05
-6.98954e-05
-2.51156e-05
-2.93867e-05
1.10149e-06
5.09722e-05
3.25219e-05
4.29888e-06
4.41595e-05
-2.74366e-05
-2.56382e-05
3.53218e-05
-3.16808e-05
-5.59559e-05
3.63251e-05
2.9547e-05
-2.74413e-05
-4.88583e-05
-1.39444e-05
-1.98794e-05
1.45709e-06
3.31996e-05
2.16459e-05
3.62399e-06
2.93611e-05
-1.90186e-05
-1.51343e-05
2.22459e-05
-2.26638e-05
-3.82935e-05
2.21653e-05
1.8596e-05
-2.00167e-05
-3.36579e-05
-7.49669e-06
-1.31574e-05
1.26459e-06
2.14567e-05
1.41391e-05
2.66596e-06
1.92644e-05
-1.28678e-05
-8.77763e-06
1.37181e-05
-1.53997e-05
-2.54836e-05
1.32794e-05
1.14403e-05
-1.38233e-05
-2.25117e-05
-3.89936e-06
-8.40928e-06
9.36006e-07
1.35226e-05
8.93338e-06
1.80142e-06
1.22953e-05
-8.39975e-06
-5.20481e-06
8.64036e-06
-9.94885e-06
-1.7012e-05
8.12584e-06
7.18257e-06
-9.06538e-06
-1.51019e-05
-2.04325e-06
-5.41426e-06
6.29368e-07
8.65811e-06
5.70317e-06
1.13762e-06
7.94141e-06
-5.50927e-06
-3.02719e-06
5.34848e-06
-6.179e-06
-1.09666e-05
4.87562e-06
4.42786e-06
-5.69896e-06
-9.79032e-06
-1.03101e-06
-3.39247e-06
3.67631e-07
5.44493e-06
3.55777e-06
6.60324e-07
5.01654e-06
-3.50384e-06
-1.70629e-06
3.20307e-06
-3.6875e-06
-6.83244e-06
2.84429e-06
2.64614e-06
-3.44941e-06
-6.11502e-06
-4.8686e-07
-2.03431e-06
1.96787e-07
3.28467e-06
2.12359e-06
3.58686e-07
3.04634e-06
-2.13285e-06
-9.39462e-07
1.89104e-06
-2.1092e-06
-4.15832e-06
1.62854e-06
1.56071e-06
-2.00658e-06
-3.73099e-06
-2.11943e-07
-1.19075e-06
9.41291e-08
1.94477e-06
1.23969e-06
1.8022e-07
1.81314e-06
-1.2647e-06
-5.01715e-07
1.10526e-06
-1.1433e-06
-2.48506e-06
9.15691e-07
9.12281e-07
-1.11234e-06
-2.23254e-06
-7.56435e-08
-6.8309e-07
3.57915e-08
1.13597e-06
7.10729e-07
7.88024e-08
1.06421e-06
-7.33586e-07
-2.47707e-07
6.2345e-07
-5.77388e-07
-1.43092e-06
4.89315e-07
5.15792e-07
-5.79898e-07
-1.28689e-06
-9.01976e-09
-3.72566e-07
6.9088e-09
6.36724e-07
3.88185e-07
2.6518e-08
5.99676e-07
-4.04157e-07
-1.05849e-07
3.38556e-07
-2.617e-07
-7.91756e-07
2.43396e-07
2.81484e-07
-2.7628e-07
-7.11617e-07
2.06929e-08
-1.90721e-07
-4.87977e-09
3.41312e-07
1.99764e-07
2.58188e-09
3.23675e-07
-2.08967e-07
-2.82219e-08
1.7195e-07
-9.76613e-08
-4.1095e-07
1.03211e-07
1.44459e-07
-1.12218e-07
-3.68893e-07
3.21695e-08
-8.62076e-08
-7.32704e-09
1.68984e-07
9.16288e-08
-5.426e-09
1.61905e-07
-9.5639e-08
1.243e-08
7.51128e-08
-2.35344e-08
-1.86932e-07
2.52806e-08
6.47191e-08
-3.20633e-08
-1.67074e-07
3.46439e-08
-2.71047e-08
-4.74971e-09
6.92503e-08
3.03955e-08
-4.76776e-09
6.79558e-08
-3.0995e-08
3.16582e-08
2.06351e-08
-6.02405e-08
-1.55872e-08
1.96804e-08
-5.29652e-08
3.28797e-08
4.63554e-09
1.3857e-08
-2.60715e-09
1.55354e-08
4.01274e-09
-3.33044e-06
8.91279e-06
-1.34694e-08
4.35153e-06
7.45055e-06
1.0722e-08
-2.2154e-06
-8.62286e-07
8.64722e-06
-3.35709e-09
1.13121e-06
7.20672e-06
-4.04241e-08
-6.28907e-07
-4.06071e-07
8.51461e-06
-1.92678e-09
5.40611e-07
7.08116e-06
-2.59796e-08
-2.86491e-07
-2.2244e-07
8.43988e-06
-9.73432e-10
2.98148e-07
7.00765e-06
-1.57881e-08
-1.52783e-07
-1.3953e-07
8.39284e-06
-6.39902e-10
1.87209e-07
6.95898e-06
-1.04653e-08
-9.35005e-08
-9.94791e-08
8.35973e-06
-4.39421e-10
1.33021e-07
6.92239e-06
-7.63111e-09
-6.49822e-08
-8.03004e-08
-3.27433e-10
8.33373e-06
1.06629e-07
-6.23635e-09
6.89122e-06
-5.09788e-08
-4.26632e-06
1.1176e-05
7.2141e-09
5.51133e-06
9.30977e-06
1.00608e-07
-2.91953e-06
-1.11546e-06
1.08501e-05
2.50393e-09
1.4355e-06
9.01635e-06
-5.18396e-09
-8.57278e-07
-5.25525e-07
1.06875e-05
9.97815e-10
6.85218e-07
8.86493e-06
-5.59419e-09
-3.94489e-07
-2.87331e-07
1.05957e-05
6.80905e-10
3.77419e-07
8.7755e-06
-3.35241e-09
-2.10336e-07
-1.79755e-07
1.05378e-05
3.70004e-10
2.3663e-07
8.71571e-06
-2.27559e-09
-1.28159e-07
-1.27786e-07
1.04971e-05
2.77045e-10
1.67862e-07
8.67042e-06
-1.58987e-09
-8.85371e-08
-1.02833e-07
2.56113e-10
1.0465e-05
1.3432e-07
-1.24379e-09
8.6316e-06
-6.89998e-08
-5.48322e-06
1.39902e-05
8.81229e-08
6.98853e-06
1.16016e-05
3.01918e-07
-3.87282e-06
-1.44915e-06
1.3593e-05
2.45779e-08
1.82426e-06
1.12527e-05
7.12375e-08
-1.17674e-06
-6.83033e-07
1.33946e-05
1.27424e-08
8.69695e-07
1.10724e-05
3.81185e-08
-5.4638e-07
-3.72623e-07
1.32826e-05
7.05656e-09
4.78272e-07
1.09648e-05
2.24617e-08
-2.90873e-07
-2.32411e-07
1.32117e-05
4.31522e-09
2.99314e-07
1.08921e-05
1.43161e-08
-1.76265e-07
-1.64669e-07
1.31618e-05
3.03723e-09
2.11898e-07
1.08365e-05
1.0319e-08
-1.20961e-07
-1.32046e-07
2.44968e-09
1.31224e-05
1.69184e-07
8.36257e-09
1.07884e-05
-9.36181e-08
-7.07254e-06
1.74757e-05
2.62368e-07
8.87486e-06
1.44079e-05
6.77452e-07
-5.16966e-06
-1.89049e-06
1.69947e-05
7.36472e-08
2.32243e-06
1.39988e-05
2.13495e-07
-1.62361e-06
-8.91309e-07
1.67544e-05
3.8589e-08
1.10576e-06
1.37875e-05
1.17348e-07
-7.59274e-07
-4.85016e-07
1.66183e-05
2.11732e-08
6.06919e-07
1.36598e-05
6.81008e-08
-4.02943e-07
-3.01491e-07
1.65322e-05
1.30123e-08
3.78974e-07
1.35722e-05
4.30343e-08
-2.42612e-07
-2.12806e-07
1.64713e-05
9.10361e-09
2.67617e-07
1.35045e-05
3.05782e-08
-1.65323e-07
-1.69956e-07
7.22492e-09
1.64234e-05
2.13082e-07
2.44536e-08
1.34455e-05
-1.27065e-07
-9.1565e-06
2.17683e-05
5.71292e-07
1.12899e-05
1.78149e-05
1.31107e-06
-6.93719e-06
-2.47549e-06
2.11893e-05
1.65518e-07
2.96262e-06
1.73421e-05
4.55807e-07
-2.24505e-06
-1.1671e-06
2.09004e-05
8.58631e-08
1.40868e-06
1.70993e-05
2.47652e-07
-1.05459e-06
-6.33263e-07
2.07363e-05
4.7152e-08
7.71399e-07
1.69497e-05
1.41434e-07
-5.57001e-07
-3.92146e-07
2.06321e-05
2.89822e-08
4.80361e-07
1.68452e-05
8.83773e-08
-3.33005e-07
-2.75593e-07
2.05585e-05
2.01795e-08
3.38155e-07
1.67634e-05
6.21113e-08
-2.25301e-07
-2.19072e-07
1.58901e-08
2.05006e-05
2.68317e-07
4.91825e-08
1.66916e-05
-1.71969e-07
-1.1896e-05
2.70166e-05
1.05794e-06
1.43896e-05
2.19066e-05
2.30262e-06
-9.34039e-06
-3.25081e-06
2.63241e-05
3.21229e-07
3.78765e-06
2.13697e-05
8.40719e-07
-3.09881e-06
-1.53189e-06
2.59792e-05
1.64102e-07
1.79851e-06
2.1096e-05
4.46733e-07
-1.4573e-06
-8.28471e-07
2.57826e-05
9.01061e-08
9.82185e-07
2.0923e-05
2.50896e-07
-7.64937e-07
-5.10799e-07
2.56574e-05
5.53086e-08
6.09589e-07
2.07996e-05
1.55027e-07
-4.53963e-07
-3.57184e-07
2.5569e-05
3.83431e-08
4.27474e-07
2.07016e-05
1.07873e-07
-3.0495e-07
-2.82386e-07
2.99983e-08
2.54995e-05
3.37726e-07
8.46408e-08
2.06149e-05
-2.31147e-07
-1.55751e-05
3.34973e-05
1.9041e-06
1.84625e-05
2.68657e-05
3.86946e-06
-1.26441e-05
-4.2837e-06
3.2632e-05
6.07482e-07
4.86277e-06
2.6234e-05
1.44556e-06
-4.25689e-06
-2.01412e-06
3.22014e-05
3.05284e-07
2.30354e-06
2.59136e-05
7.46869e-07
-1.99384e-06
-1.08444e-06
3.19553e-05
1.67309e-07
1.25332e-06
2.57058e-05
4.12289e-07
-1.03804e-06
-6.65023e-07
3.17986e-05
1.02512e-07
7.74514e-07
2.5555e-05
2.51957e-07
-6.11109e-07
-4.62214e-07
3.1688e-05
7.07699e-08
5.40437e-07
2.54344e-05
1.73616e-07
-4.07398e-07
-3.6302e-07
5.50431e-08
3.16013e-05
4.24603e-07
1.34949e-07
2.53276e-05
-3.06471e-07
-2.03397e-05
4.13084e-05
3.10593e-06
2.36478e-05
3.26745e-05
6.05676e-06
-1.69886e-05
-5.61619e-06
4.02556e-05
1.04422e-06
6.23228e-06
3.19675e-05
2.29138e-06
-5.75497e-06
-2.63179e-06
3.97291e-05
5.19101e-07
2.94452e-06
3.16045e-05
1.1525e-06
-2.67442e-06
-1.40937e-06
3.94272e-05
2.83389e-07
1.59512e-06
3.13609e-05
6.26094e-07
-1.3796e-06
-8.58771e-07
3.92348e-05
1.73109e-07
9.8059e-07
3.11808e-05
3.78727e-07
-8.0537e-07
-5.92601e-07
3.90992e-05
1.18919e-07
6.80049e-07
3.10358e-05
2.58502e-07
-5.32495e-07
-4.61755e-07
9.18636e-08
3.89936e-05
5.30569e-07
1.98957e-07
3.09072e-05
-3.97176e-07
-2.63572e-05
5.03758e-05
4.52992e-06
3.00361e-05
3.92505e-05
8.82187e-06
-2.25425e-05
-7.29108e-06
4.91641e-05
1.61441e-06
7.93257e-06
3.85107e-05
3.36029e-06
-7.62019e-06
-3.40273e-06
4.8548e-05
7.98588e-07
3.73936e-06
3.81136e-05
1.6534e-06
-3.50645e-06
-1.81086e-06
4.81927e-05
4.33448e-07
2.01616e-06
3.78359e-05
8.85132e-07
-1.79222e-06
-1.09528e-06
4.79661e-05
2.63105e-07
1.23186e-06
3.76271e-05
5.29583e-07
-1.03731e-06
-7.49417e-07
4.78072e-05
1.7931e-07
8.47954e-07
3.74583e-05
3.57594e-07
-6.79748e-07
-5.7837e-07
1.37182e-07
4.76844e-05
6.55802e-07
2.7208e-07
3.73089e-05
-5.02081e-07
-3.34609e-05
6.04983e-05
5.5478e-06
3.77676e-05
4.61039e-05
1.1456e-05
-2.88663e-05
-9.2513e-06
5.9223e-05
2.15191e-06
9.98911e-06
4.54923e-05
4.40304e-06
-9.68248e-06
-4.29643e-06
5.85535e-05
1.06806e-06
4.69643e-06
4.51267e-05
2.13085e-06
-4.40818e-06
-2.27015e-06
5.81615e-05
5.7732e-07
2.51832e-06
4.48476e-05
1.12621e-06
-2.23218e-06
-1.3614e-06
5.79106e-05
3.48054e-07
1.52738e-06
4.46294e-05
6.66401e-07
-1.28002e-06
-9.22148e-07
5.77354e-05
2.34937e-07
1.04169e-06
4.44504e-05
4.4468e-07
-8.30179e-07
-7.03366e-07
1.77563e-07
5.76016e-05
7.96756e-07
3.33866e-07
4.42912e-05
-6.05973e-07
-4.20615e-05
7.18194e-05
6.1501e-06
4.68511e-05
5.37717e-05
1.40039e-05
-3.65414e-05
-1.15214e-05
7.04888e-05
2.63441e-06
1.23696e-05
5.32681e-05
5.39169e-06
-1.20065e-05
-5.30759e-06
6.97567e-05
1.31479e-06
5.79288e-06
5.29071e-05
2.57516e-06
-5.39095e-06
-2.77829e-06
6.93201e-05
7.06981e-07
3.08521e-06
5.26098e-05
1.34453e-06
-2.69931e-06
-1.64846e-06
6.904e-05
4.22396e-07
1.85424e-06
5.23723e-05
7.85985e-07
-1.53052e-06
-1.1026e-06
6.88459e-05
2.81623e-07
1.25001e-06
5.2177e-05
5.17378e-07
-9.80013e-07
-8.28522e-07
2.09545e-07
6.86999e-05
9.4254e-07
3.82336e-07
5.20047e-05
-7.04659e-07
-5.27427e-05
8.52887e-05
6.41611e-06
5.80995e-05
6.29002e-05
1.62121e-05
-4.5896e-05
-1.417e-05
8.38447e-05
3.07573e-06
1.51727e-05
6.25411e-05
6.22449e-06
-1.46438e-05
-6.45038e-06
8.30087e-05
1.54896e-06
7.05232e-06
6.21904e-05
2.94484e-06
-6.46933e-06
-3.3358e-06
8.25007e-05
8.30291e-07
3.72047e-06
6.18735e-05
1.52173e-06
-3.19612e-06
-1.95292e-06
8.21746e-05
4.91814e-07
2.20961e-06
6.1615e-05
8.78841e-07
-1.78724e-06
-1.28561e-06
8.1951e-05
3.23504e-07
1.46732e-06
6.1403e-05
5.69869e-07
-1.12616e-06
-9.47566e-07
2.36289e-07
8.1786e-05
1.08581e-06
4.13313e-07
6.12187e-05
-7.94185e-07
-6.32308e-05
9.90168e-05
4.37458e-06
6.96518e-05
7.15117e-05
1.63036e-05
-5.44868e-05
-1.66436e-05
9.78912e-05
2.85402e-06
1.79909e-05
7.16612e-05
6.34637e-06
-1.69149e-05
-7.47988e-06
9.71605e-05
1.4667e-06
8.29282e-06
7.1505e-05
2.97844e-06
-7.3573e-06
-3.81579e-06
9.66964e-05
7.82934e-07
4.32729e-06
7.12735e-05
1.5198e-06
-3.58232e-06
-2.19906e-06
9.63956e-05
4.57988e-07
2.53362e-06
7.10603e-05
8.64053e-07
-1.97111e-06
-1.41972e-06
9.6192e-05
2.95699e-07
1.65118e-06
7.08786e-05
5.49899e-07
-1.21805e-06
-1.0209e-06
2.10586e-07
9.60462e-05
1.19233e-06
3.89683e-07
7.07194e-05
-8.38098e-07
-7.5212e-05
0.000115822
1.69879e-06
8.18719e-05
8.3464e-05
1.38926e-05
-6.40208e-05
-1.96964e-05
0.000114758
2.47096e-06
2.1143e-05
8.37248e-05
5.93171e-06
-1.95425e-05
-8.66941e-06
0.000114013
1.30656e-06
9.57496e-06
8.35925e-05
2.76425e-06
-8.32288e-06
-4.33588e-06
0.000113529
6.91631e-07
4.91072e-06
8.33641e-05
1.38725e-06
-3.97492e-06
-2.44854e-06
0.000113216
3.96844e-07
2.82286e-06
8.31513e-05
7.72729e-07
-2.14442e-06
-1.54549e-06
0.000113006
2.49934e-07
1.80118e-06
8.29722e-05
4.802e-07
-1.29672e-06
-1.08234e-06
1.72937e-07
0.000112858
1.26802e-06
3.3137e-07
8.28181e-05
-8.69908e-07
-8.395e-05
0.000133202
-2.52861e-06
9.18726e-05
9.62336e-05
9.61515e-06
-7.12658e-05
-2.27608e-05
0.00013255
1.31839e-06
2.45655e-05
9.66292e-05
4.80494e-06
-2.20296e-05
-9.75529e-06
0.000131991
7.70527e-07
1.08506e-05
9.65689e-05
2.22254e-06
-9.15334e-06
-4.7551e-06
0.000131598
4.0247e-07
5.43675e-06
9.63801e-05
1.08958e-06
-4.26864e-06
-2.61864e-06
0.000131336
2.22745e-07
3.05551e-06
9.6194e-05
5.90127e-07
-2.24991e-06
-1.61119e-06
0.000131157
1.3443e-07
1.90506e-06
9.60366e-05
3.55497e-07
-1.32909e-06
-1.09878e-06
8.89264e-08
0.000131031
1.30893e-06
2.37286e-07
9.59025e-05
-8.70545e-07
-7.39559e-05
0.000124299
-5.04189e-06
8.09289e-05
9.13342e-05
6.48435e-06
-6.32639e-05
-2.0999e-05
0.000123754
2.71075e-07
2.25913e-05
9.14284e-05
3.74631e-06
-2.00347e-05
-8.75194e-06
0.000123314
2.67236e-07
9.69592e-06
9.1309e-05
1.71522e-06
-8.12533e-06
-4.14901e-06
0.000123001
1.35171e-07
4.72893e-06
9.11269e-05
8.20093e-07
-3.69743e-06
-2.2221e-06
0.00012279
6.74714e-08
2.58838e-06
9.09649e-05
4.3156e-07
-1.90152e-06
-1.32816e-06
0.000122646
3.6243e-08
1.56994e-06
9.08358e-05
2.51886e-07
-1.0954e-06
-8.78197e-07
2.14138e-08
0.000122545
1.04722e-06
1.62433e-07
9.07314e-05
-6.98976e-07
-6.48263e-05
0.000117882
-5.67135e-06
7.09611e-05
8.83801e-05
4.62101e-06
-5.58909e-05
-1.94411e-05
0.000117167
-4.00667e-07
2.08281e-05
8.80913e-05
2.91211e-06
-1.83181e-05
-7.92508e-06
0.000116713
-7.244e-08
8.71857e-06
8.78709e-05
1.31037e-06
-7.2999e-06
-3.66794e-06
0.000116413
-4.39411e-08
4.14729e-06
8.76705e-05
6.09414e-07
-3.25683e-06
-1.91406e-06
0.000116217
-3.36023e-08
2.21115e-06
8.75161e-05
3.11243e-07
-1.63941e-06
-1.11111e-06
0.000116087
-2.49166e-08
1.30222e-06
8.74035e-05
1.75785e-07
-9.22356e-07
-7.10304e-07
-1.82718e-08
0.000115997
8.39522e-07
1.09222e-07
8.73196e-05
-5.73211e-07
-5.64822e-05
0.000111965
-4.98928e-06
6.18822e-05
8.57809e-05
3.61821e-06
-4.90409e-05
-1.79969e-05
0.00011098
-6.55296e-07
1.92363e-05
8.51426e-05
2.2715e-06
-1.67181e-05
-7.24867e-06
0.000110452
-2.25587e-07
7.92955e-06
8.48122e-05
9.95069e-07
-6.60306e-06
-3.30355e-06
0.000110131
-1.25296e-07
3.70627e-06
8.45801e-05
4.4968e-07
-2.91177e-06
-1.69048e-06
0.000109932
-7.78735e-08
1.9342e-06
8.44219e-05
2.23348e-07
-1.44439e-06
-9.56784e-07
0.000109805
-5.00807e-08
1.10845e-06
8.43161e-05
1.22419e-07
-7.97632e-07
-5.91754e-07
-3.32427e-08
0.000109722
6.89749e-07
7.34309e-08
8.42443e-05
-4.84176e-07
-4.93518e-05
0.000105074
-3.74442e-06
5.40961e-05
8.20126e-05
3.31924e-06
-4.29702e-05
-1.63274e-05
0.000103831
-5.72269e-07
1.74881e-05
8.10958e-05
1.8014e-06
-1.49405e-05
-6.61787e-06
0.000103195
-2.2134e-07
7.24944e-06
8.06279e-05
7.67818e-07
-5.92287e-06
-3.03123e-06
0.000102825
-1.24269e-07
3.39997e-06
8.03286e-05
3.43281e-07
-2.62556e-06
-1.55375e-06
0.000102603
-7.62533e-08
1.7737e-06
8.01357e-05
1.69954e-07
-1.3075e-06
-8.7718e-07
0.000102467
-4.85649e-08
1.01157e-06
8.00105e-05
9.33453e-08
-7.22879e-07
-5.38377e-07
-3.21619e-08
0.000102381
6.23054e-07
5.63096e-08
7.99271e-05
-4.37869e-07
-4.33509e-05
9.67914e-05
-2.49189e-06
4.7423e-05
7.71489e-05
3.16885e-06
-3.77482e-05
-1.45949e-05
9.5521e-05
-4.08803e-07
1.57017e-05
7.60799e-05
1.48557e-06
-1.32102e-05
-6.04267e-06
9.48521e-05
-1.68823e-07
6.65887e-06
7.54991e-05
6.23721e-07
-5.31787e-06
-2.82568e-06
9.4464e-05
-9.60999e-08
3.18561e-06
7.51381e-05
2.81008e-07
-2.40239e-06
-1.47483e-06
9.42322e-05
-5.88866e-08
1.68923e-06
7.49107e-05
1.41129e-07
-1.21868e-06
-8.45944e-07
9.409e-05
-3.74336e-08
9.77e-07
7.47647e-05
7.87557e-08
-6.85348e-07
-5.26932e-07
-2.47834e-08
9.39998e-05
6.09723e-07
4.82889e-08
7.46676e-05
-4.2185e-07
-3.75728e-05
8.6792e-05
-1.81808e-06
4.0923e-05
7.08364e-05
2.53211e-06
-3.2815e-05
-1.29668e-05
8.57163e-05
-3.27974e-07
1.39615e-05
6.98874e-05
1.11477e-06
-1.16471e-05
-5.49961e-06
8.51181e-05
-1.3927e-07
6.0681e-06
6.93274e-05
4.64223e-07
-4.7803e-06
-2.62726e-06
8.47656e-05
-7.74716e-08
2.96107e-06
6.89754e-05
2.10435e-07
-2.20467e-06
-1.39555e-06
8.45541e-05
-4.64737e-08
1.5946e-06
6.87536e-05
1.06915e-07
-1.13961e-06
-8.12297e-07
8.44241e-05
-2.92431e-08
9.34068e-07
6.86112e-05
6.04248e-08
-6.51525e-07
-5.12625e-07
-1.92666e-08
8.43416e-05
5.89631e-07
3.75626e-08
6.85163e-05
-4.07035e-07
-3.19209e-05
7.48245e-05
-1.79199e-06
3.44914e-05
6.28894e-05
1.40245e-06
-2.82233e-05
-1.11834e-05
7.40324e-05
-3.29456e-07
1.19769e-05
6.22229e-05
7.28607e-07
-1.01308e-05
-4.80547e-06
7.35655e-05
-1.41333e-07
5.2743e-06
6.17838e-05
3.02719e-07
-4.20497e-06
-2.31779e-06
7.32833e-05
-7.40542e-08
2.59659e-06
6.14977e-05
1.36682e-07
-1.958e-06
-1.23882e-06
7.31116e-05
-4.19297e-08
1.40585e-06
6.13157e-05
6.91098e-08
-1.01911e-06
-7.23649e-07
7.30053e-05
-2.51845e-08
8.25952e-07
6.11989e-05
3.87271e-08
-5.85169e-07
-4.57694e-07
-1.59147e-08
7.29372e-05
5.22424e-07
2.3813e-08
6.11215e-05
-3.66578e-07
-2.12984e-05
4.96532e-05
-1.8532e-06
2.26785e-05
4.29704e-05
4.5971e-07
-1.91666e-05
-7.47206e-06
4.92491e-05
-3.36337e-07
7.88295e-06
4.26922e-05
4.34402e-07
-6.89977e-06
-3.20825e-06
4.89989e-05
-1.51551e-07
3.46862e-06
4.24741e-05
1.75363e-07
-2.86286e-06
-1.54186e-06
4.88416e-05
-7.6886e-08
1.70192e-06
4.2319e-05
7.81171e-08
-1.32823e-06
-8.1918e-07
4.87442e-05
-4.17985e-08
9.16435e-07
4.22166e-05
3.92517e-08
-6.8695e-07
-4.74622e-07
4.86834e-05
-2.41971e-08
5.34471e-07
4.21499e-05
2.18612e-08
-3.90984e-07
-2.97171e-07
-1.4828e-08
4.86444e-05
3.35013e-07
1.33235e-08
4.21054e-05
-2.42253e-07
-1.41276e-05
3.24661e-05
-1.7066e-06
1.47145e-05
2.88465e-05
-1.08353e-07
-1.3045e-05
-4.93653e-06
3.22771e-05
-2.88565e-07
5.07769e-06
2.8798e-05
2.4777e-07
-4.70142e-06
-2.10539e-06
3.21544e-05
-1.41851e-07
2.21835e-06
2.872e-05
8.87206e-08
-1.94072e-06
-1.00333e-06
3.20724e-05
-7.12728e-08
1.07976e-06
2.86495e-05
3.8212e-08
-8.9298e-07
-5.27879e-07
3.20201e-05
-3.78752e-08
5.76185e-07
2.85989e-05
1.91116e-08
-4.5712e-07
-3.02413e-07
3.19872e-05
-2.14111e-08
3.32574e-07
2.85647e-05
1.06778e-08
-2.57049e-07
-1.86897e-07
-1.28357e-08
3.19661e-05
2.05988e-07
6.52552e-09
2.85416e-05
-1.57049e-07
-9.2971e-06
2.10176e-05
-1.42896e-06
9.45858e-06
1.90561e-05
-3.64627e-07
-8.83254e-06
-3.22855e-06
2.0956e-05
-2.27171e-07
3.22875e-06
1.91269e-05
1.33544e-07
-3.18514e-06
-1.36393e-06
2.09078e-05
-1.26475e-07
1.39672e-06
1.9125e-05
3.15293e-08
-1.30486e-06
-6.43046e-07
2.08699e-05
-6.33573e-08
6.72995e-07
1.91022e-05
1.20906e-08
-5.94088e-07
-3.34537e-07
2.08444e-05
-3.32019e-08
3.55412e-07
1.90812e-05
6.06222e-09
-3.00534e-07
-1.89351e-07
2.08279e-05
-1.84727e-08
2.02875e-07
1.90659e-05
3.5321e-09
-1.66828e-07
-1.15465e-07
-1.09027e-08
2.08173e-05
1.24109e-07
2.25987e-09
1.90551e-05
-1.00474e-07
-5.96312e-06
1.32507e-05
-1.10567e-06
5.91168e-06
1.22538e-05
-4.36732e-07
-5.84948e-06
-2.05999e-06
1.32612e-05
-1.70352e-07
1.99267e-06
1.23888e-05
5.6578e-08
-2.11797e-06
-8.61589e-07
1.32518e-05
-1.07789e-07
8.52304e-07
1.24272e-05
-7.12103e-09
-8.6139e-07
-4.01532e-07
1.32379e-05
-5.39447e-08
4.06051e-07
1.24314e-05
-5.70527e-09
-3.87891e-07
-2.06475e-07
1.32272e-05
-2.80947e-08
2.12101e-07
1.24278e-05
-2.99241e-09
-1.93863e-07
-1.15479e-07
1.32199e-05
-1.54877e-08
1.19729e-07
1.24236e-05
-1.47504e-09
-1.06256e-07
-6.95158e-08
-9.04772e-09
1.32152e-05
7.23668e-08
-7.28243e-10
1.24202e-05
-6.31199e-08
-3.86715e-06
8.44609e-06
-7.74352e-07
3.74787e-06
7.91594e-06
-3.70781e-07
-3.90762e-06
-1.3245e-06
8.46724e-06
-1.11169e-07
1.24417e-06
8.03638e-06
2.67863e-08
-1.41514e-06
-5.47394e-07
8.46341e-06
-8.18752e-08
5.25305e-07
8.07186e-06
-1.97964e-08
-5.70207e-07
-2.51889e-07
8.45497e-06
-4.08035e-08
2.47187e-07
8.07882e-06
-1.08413e-08
-2.53712e-07
-1.27988e-07
8.44835e-06
-2.11595e-08
1.27674e-07
8.07859e-06
-5.49733e-09
-1.25259e-07
-7.07545e-08
8.44388e-06
-1.15534e-08
7.12888e-08
8.07699e-06
-2.80757e-09
-6.78177e-08
-4.20771e-08
-6.6747e-09
8.44099e-06
4.25976e-08
-1.50027e-09
8.07545e-06
-3.97723e-08
-2.45437e-06
5.2897e-06
-5.01194e-07
2.33646e-06
4.99729e-06
-2.62724e-07
-2.54316e-06
-8.34928e-07
5.31353e-06
-6.5319e-08
7.65249e-07
5.09381e-06
1.79042e-08
-9.22578e-07
-3.41252e-07
5.31115e-06
-5.72813e-08
3.19025e-07
5.12064e-06
-1.91423e-08
-3.68736e-07
-1.55149e-07
5.30565e-06
-2.84512e-08
1.48304e-07
5.12674e-06
-9.81163e-09
-1.6228e-07
-7.79557e-08
5.30149e-06
-1.48218e-08
7.57785e-08
5.12747e-06
-4.95436e-09
-7.9231e-08
-4.26355e-08
5.29872e-06
-8.03111e-09
4.18801e-08
5.12694e-06
-2.48202e-09
-4.24266e-08
-2.50756e-08
-4.58783e-09
5.29695e-06
2.47605e-08
-1.29813e-09
5.12626e-06
-2.45987e-08
-1.49707e-06
3.1923e-06
-3.07602e-07
1.39585e-06
3.05617e-06
-1.75049e-07
-1.59458e-06
-5.09313e-07
3.21985e-06
-3.6441e-08
4.52892e-07
3.13903e-06
1.0845e-08
-5.85106e-07
-2.06557e-07
3.22048e-06
-3.80663e-08
1.86707e-07
3.1628e-06
-1.62676e-08
-2.33203e-07
-9.30132e-08
3.21834e-06
-1.91459e-08
8.58513e-08
3.1703e-06
-8.44132e-09
-1.01891e-07
-4.63047e-08
3.21665e-06
-1.02814e-08
4.34501e-08
3.17292e-06
-4.54694e-09
-4.93317e-08
-2.50947e-08
3.21551e-06
-5.59098e-09
2.37941e-08
3.17387e-06
-2.33773e-09
-2.61845e-08
-1.4619e-08
-3.17447e-09
3.21478e-06
1.39346e-08
-1.23791e-09
3.17423e-06
-1.50393e-08
-8.92571e-07
1.89088e-06
-1.79426e-07
8.18282e-07
1.82696e-06
-1.08756e-07
-9.72678e-07
-3.03861e-07
1.91384e-06
-1.92437e-08
2.63706e-07
1.88741e-06
6.90175e-09
-3.60373e-07
-1.224e-07
1.91443e-06
-2.38751e-08
1.07616e-07
1.90392e-06
-1.18748e-08
-1.43303e-07
-5.46637e-08
1.91335e-06
-1.24124e-08
4.90084e-08
1.9096e-06
-6.55193e-09
-6.22264e-08
-2.7002e-08
1.91261e-06
-7.13941e-09
2.46025e-08
1.91194e-06
-3.97268e-09
-2.99156e-08
-1.45198e-08
1.91216e-06
-3.98888e-09
1.33663e-08
1.91301e-06
-2.16654e-09
-1.57601e-08
-8.38914e-09
-2.28056e-09
1.91189e-06
7.7631e-09
-1.18205e-09
1.91354e-06
-8.97938e-09
-5.22764e-07
1.10373e-06
-9.70042e-08
4.72588e-07
1.07478e-06
-6.14922e-08
-5.80602e-07
-1.78184e-07
1.11976e-06
-8.64775e-09
1.51559e-07
1.11514e-06
5.40246e-09
-2.17046e-07
-7.13238e-08
1.11954e-06
-1.36093e-08
6.12709e-08
1.1253e-06
-7.23625e-09
-8.61239e-08
-3.16286e-08
1.11854e-06
-7.45554e-09
2.76698e-08
1.12873e-06
-4.41267e-09
-3.72029e-08
-1.5524e-08
1.11794e-06
-4.8117e-09
1.3798e-08
1.13021e-06
-3.18983e-09
-1.7781e-08
-8.29484e-09
1.11769e-06
-2.88839e-09
7.44835e-09
1.13101e-06
-1.94943e-09
-9.30975e-09
-4.75981e-09
-1.71231e-09
1.11758e-06
4.29622e-09
-1.13449e-09
1.13147e-06
-5.26869e-09
-2.93125e-07
6.20027e-07
-4.85245e-08
2.61341e-07
6.09086e-07
-3.29355e-08
-3.31091e-07
-1.00564e-07
6.31173e-07
-3.0918e-09
8.38585e-08
6.35652e-07
3.84603e-09
-1.25579e-07
-4.01335e-08
6.31063e-07
-7.05352e-09
3.36871e-08
6.42165e-07
-3.98174e-09
-4.99017e-08
-1.77154e-08
6.30339e-07
-4.13311e-09
1.51176e-08
6.44286e-07
-2.74497e-09
-2.15036e-08
-8.65743e-09
6.29783e-07
-3.1002e-09
7.50198e-09
6.45104e-07
-2.42487e-09
-1.02408e-08
-4.6066e-09
6.29599e-07
-2.13005e-09
4.03224e-09
6.45656e-07
-1.76721e-09
-5.34076e-09
-2.63033e-09
-1.38096e-09
6.29583e-07
2.31424e-09
-1.15551e-09
6.46054e-07
-3.00791e-09
-1.5615e-07
3.32827e-07
-2.12365e-08
1.37345e-07
3.29392e-07
-1.59351e-08
-1.78869e-07
-5.40736e-08
3.39849e-07
-3.61722e-10
4.43175e-08
3.45372e-07
2.68918e-09
-6.89082e-08
-2.15585e-08
3.39737e-07
-3.11902e-09
1.77338e-08
3.49103e-07
-1.81397e-09
-2.7459e-08
-9.48732e-09
3.39142e-07
-1.9717e-09
7.92063e-09
3.50128e-07
-1.43722e-09
-1.18205e-08
-4.62135e-09
3.38487e-07
-1.73856e-09
3.91433e-09
3.50248e-07
-1.55171e-09
-5.6162e-09
-2.45357e-09
3.38174e-07
-1.46238e-09
2.09893e-09
3.50373e-07
-1.42198e-09
-2.9229e-09
-1.39737e-09
-1.11926e-09
3.38107e-07
1.2019e-09
-1.10942e-09
3.5057e-07
-1.64158e-09
-7.58411e-08
1.64892e-07
-7.15252e-09
6.58472e-08
1.64167e-07
-6.29661e-09
-8.77429e-08
-2.67063e-08
1.6896e-07
6.76382e-10
2.15951e-08
1.72843e-07
1.81299e-09
-3.4517e-08
-1.06788e-08
1.68876e-07
-1.00764e-09
8.64972e-09
1.74723e-07
-5.42014e-10
-1.38319e-08
-4.69683e-09
1.68444e-07
-6.98663e-10
3.85549e-09
1.75083e-07
-5.34537e-10
-5.9597e-09
-2.28247e-09
1.67802e-07
-7.13188e-10
1.89833e-09
1.74784e-07
-7.08463e-10
-2.82786e-09
-1.21076e-09
1.67326e-07
-7.91808e-10
1.01653e-09
1.74491e-07
-8.69321e-10
-1.47085e-09
-6.90002e-10
-8.01325e-10
1.67115e-07
5.8296e-10
-8.86013e-10
1.74404e-07
-8.25965e-10
-2.93799e-08
6.77589e-08
-1.23386e-09
2.49513e-08
6.81606e-08
-1.63518e-09
-3.4247e-08
-1.08477e-08
6.99822e-08
6.55268e-10
8.64208e-09
7.23373e-08
9.42622e-10
-1.41613e-08
-4.40839e-09
6.9997e-08
-1.32992e-10
3.5179e-09
7.31815e-08
-2.22127e-11
-5.77367e-09
-1.95193e-09
6.97858e-08
-1.12999e-10
1.57722e-09
7.32827e-08
-8.23825e-11
-2.5055e-09
-9.49437e-10
6.93723e-08
-1.26607e-10
7.76016e-10
7.29649e-08
-1.49662e-10
-1.19082e-09
-5.03648e-10
6.88862e-08
-2.17233e-10
4.15002e-10
7.24895e-08
-2.78094e-10
-6.19701e-10
-2.88007e-10
-3.71224e-10
6.85048e-08
2.39139e-10
-4.41342e-10
7.21054e-08
-3.48716e-10
-3.65475e-09
1.37327e-08
2.54523e-09
1.45215e-08
-4.276e-09
-2.02536e-09
1.48765e-08
1.5368e-09
1.6078e-08
-2.63931e-09
-9.30581e-10
1.49544e-08
7.19664e-10
1.63338e-08
-1.20852e-09
-4.36225e-10
1.49347e-08
3.42923e-10
1.63677e-08
-5.52561e-10
-2.17684e-10
1.48529e-08
1.72842e-10
1.62692e-08
-2.68837e-10
-1.16158e-10
1.46592e-08
9.26114e-11
1.60155e-08
-1.4066e-10
-6.69932e-11
1.4301e-08
5.39504e-11
1.55867e-08
-7.95145e-11
-7.18143e-08
8.31037e-06
3.4845e-10
9.4833e-08
6.8657e-06
-5.28721e-09
-4.83102e-08
-5.01046e-08
8.29189e-06
2.3552e-10
6.83451e-08
6.84712e-06
-3.84728e-09
-3.28724e-08
-4.91363e-08
8.2724e-06
2.17904e-10
6.84073e-08
6.82846e-06
-3.90948e-09
-3.17463e-08
-6.72155e-08
8.24495e-06
2.61808e-10
9.44047e-08
6.80279e-06
-5.55847e-09
-4.31799e-08
-1.26474e-07
8.19386e-06
3.98673e-10
1.7717e-07
6.75509e-06
-1.1035e-08