/*--------------------------------*- C++ -*----------------------------------*\
| =========                 |                                                 |
| \\      /  F ield         | OpenFOAM: The Open Source CFD Toolbox           |
|  \\    /   O peration     | Version:  2212                                  |
|   \\  /    A nd           | Website:  www.openfoam.com                      |
|    \\/     M anipulation  |                                                 |
\*---------------------------------------------------------------------------*/
FoamFile
{
    version     2.0;
    format      ascii;
    arch        "LSB;label=32;scalar=64";
    class       volVectorField;
    location    "980";
    object      U;
}
// * * * * * * * * * * * * * * * * * * * * * * * * * * * * * * * * * * * * * //

dimensions      [0 1 -1 0 0 0 0];

internalField   nonuniform List<vector> 
50904
(
(-0.410903 2.84895 0.0398886)
(-0.295465 3.22054 0.0393196)
(0.38747 0.951409 -0.0182955)
(0.836676 1.48892 -0.0246641)
(-1.29107 9.05838 0.0428414)
(-0.919266 10.2512 0.0353569)
(1.1826 3.29228 -0.00333688)
(2.57264 5.03231 -0.0373866)
(-2.33473 16.5533 0.0715378)
(-1.64809 18.7533 0.0440111)
(2.06727 6.51067 0.0232458)
(4.53639 9.74254 -0.0727625)
(-3.56389 25.5186 0.117655)
(-2.49711 28.9425 0.0471854)
(3.01206 10.9243 0.0846913)
(6.68577 15.9879 -0.128401)
(-5.00699 36.1349 0.192708)
(-3.49268 41.0278 0.042459)
(3.96108 16.9373 0.197992)
(8.9317 24.2155 -0.216481)
(-6.70708 48.5695 0.332195)
(-4.68559 55.1959 0.0456873)
(4.8214 25.0363 0.377111)
(11.1206 34.9329 -0.363291)
(-8.74387 63.0631 0.595657)
(-6.1729 71.6991 0.0884811)
(5.45995 35.8018 0.6391)
(13.0396 48.7133 -0.60432)
(-11.2162 79.7706 1.14036)
(-8.09089 90.6652 0.29189)
(5.67983 49.8225 0.980902)
(14.3747 66.0573 -1.00296)
(-14.2574 98.6197 2.23065)
(-10.6509 111.934 0.886394)
(5.19498 67.5134 1.40346)
(14.6821 87.1665 -1.58942)
(-17.9825 119.31 4.10468)
(-14.049 134.949 2.0888)
(3.71585 88.7622 2.00555)
(13.543 111.499 -2.23912)
(-22.4436 141.435 7.24951)
(-18.3985 159.111 4.36718)
(0.962915 113.19 2.90343)
(10.6205 138.321 -2.7466)
(-27.6097 164.539 12.0761)
(-23.7321 183.767 8.15455)
(-3.30113 140.151 4.41324)
(5.65909 166.71 -2.65824)
(-33.0347 186.92 18.519)
(-29.6276 206.888 13.4467)
(-8.98541 167.653 6.85489)
(-1.13765 194.28 -1.44325)
(-38.2201 206.962 25.6669)
(-35.5726 226.736 19.4429)
(-15.6812 193.574 10.2125)
(-9.20238 218.909 1.05397)
(-42.9266 223.046 31.7843)
(-41.3608 241.732 24.6296)
(-22.8759 215.504 13.5891)
(-17.8464 238.45 4.08783)
(-47.4397 234.093 34.0792)
(-47.0841 251.059 26.5972)
(-29.5711 230.692 15.0363)
(-25.7838 250.81 5.83036)
(-52.4859 242.862 32.6523)
(-53.2036 257.788 25.4191)
(-35.779 241.658 14.2509)
(-32.8926 258.921 5.74519)
(-58.8059 252.719 29.3585)
(-60.3959 265.251 22.7792)
(-42.0781 251.755 12.0327)
(-39.7537 266.057 4.45594)
(-66.5356 265.84 25.5215)
(-68.7714 275.58 19.822)
(-48.6092 263.02 9.17304)
(-46.5187 274.193 2.62557)
(-75.3357 282.067 21.4615)
(-77.987 288.825 16.8388)
(-55.499 276.162 5.95028)
(-53.3598 284.037 0.563838)
(-84.9444 300.459 17.8037)
(-87.7633 304.217 14.2962)
(-62.7753 290.941 3.12828)
(-60.3779 295.471 -1.09624)
(-95.16 319.605 14.3505)
(-97.8632 320.497 11.9628)
(-70.6417 306.934 0.647768)
(-67.8884 308.178 -2.3834)
(-104.833 336.715 11.4486)
(-107.086 335.15 9.92916)
(-78.3866 322.077 -0.538453)
(-75.3081 320.519 -2.58685)
(-112.675 349.567 8.63586)
(-114.283 346.106 7.69635)
(-85.2285 334.711 -0.852819)
(-81.9482 331.048 -2.1814)
(-118.927 358.88 6.12916)
(-119.797 353.911 5.56583)
(-91.2986 345.179 -0.774403)
(-87.9238 339.92 -1.59935)
(-123.876 365.48 4.1404)
(-123.994 359.295 3.81272)
(-96.617 353.747 -0.575009)
(-93.2185 347.27 -1.06935)
(-127.811 370.189 2.68381)
(-127.213 363.002 2.5021)
(-101.225 360.751 -0.383468)
(-97.8435 353.327 -0.67026)
(-130.972 373.634 1.67049)
(-129.719 365.601 1.57573)
(-105.211 366.535 -0.236262)
(-101.861 358.348 -0.396569)
(-133.511 376.145 1.00104)
(-131.67 367.416 0.956599)
(-108.581 371.238 -0.135063)
(-105.261 362.436 -0.22185)
(-135.527 377.991 0.579222)
(-133.185 368.692 0.561624)
(-111.361 374.999 -0.0711747)
(-108.07 365.71 -0.116643)
(-137.129 379.381 0.32031)
(-134.363 369.617 0.316482)
(-113.633 378.006 -0.032826)
(-110.367 368.33 -0.0556286)
(-138.408 380.44 0.167091)
(-135.29 370.298 0.16945)
(-115.479 380.41 -0.0121554)
(-112.232 370.423 -0.0228006)
(-139.427 381.25 0.0801654)
(-136.018 370.805 0.0845352)
(-116.97 382.319 -0.00205185)
(-113.737 372.086 -0.0064263)
(-140.234 381.883 0.0334395)
(-136.59 371.192 0.037514)
(-118.169 383.843 0.00187822)
(-114.947 373.413 0.000516331)
(-140.878 382.382 0.0109623)
(-137.042 371.493 0.0136911)
(-119.131 385.062 0.0021747)
(-115.918 374.474 0.00202101)
(-141.389 382.776 0.0025664)
(-137.398 371.727 0.00362882)
(-119.901 386.036 0.000344505)
(-116.694 375.321 0.00047027)
(0.333278 1.71556 0.00496278)
(1.03421 2.4454 -0.00789275)
(0.34848 1.24188 -0.00580074)
(1.51429 2.00275 -0.0307096)
(0.238684 1.16379 -0.00195062)
(1.48785 1.90595 -0.0310432)
(0.170475 1.07559 -0.00488766)
(1.35129 1.80286 -0.0339271)
(0.1189 1.03803 -0.00374898)
(1.19954 1.75044 -0.0317791)
(0.0812073 1.01171 -0.00386315)
(1.05976 1.71119 -0.0298702)
(0.0501853 0.993877 -0.00382954)
(0.928316 1.68045 -0.027261)
(1.08509 5.53172 -0.0352422)
(3.26613 7.89255 -0.102764)
(1.12874 4.1137 -0.0422643)
(4.71765 6.60367 -0.156279)
(0.795235 3.84273 -0.0384456)
(4.6168 6.26749 -0.179897)
(0.575692 3.58447 -0.0404857)
(4.18673 5.95212 -0.193708)
(0.413561 3.4611 -0.0381969)
(3.72476 5.77652 -0.195406)
(0.293791 3.37982 -0.0367975)
(3.30682 5.65171 -0.191819)
(0.196017 3.32333 -0.0358782)
(2.92389 5.55508 -0.183927)
(2.02441 10.2608 -0.139397)
(5.91793 14.6433 -0.322888)
(2.09773 7.82293 -0.143457)
(8.43246 12.4897 -0.439784)
(1.51281 7.297 -0.14349)
(8.21545 11.8334 -0.513847)
(1.10933 6.85428 -0.143801)
(7.43723 11.2709 -0.548792)
(0.815122 6.62685 -0.13934)
(6.62699 10.9409 -0.555759)
(0.596896 6.48016 -0.135835)
(5.90625 10.7121 -0.548152)
(0.419451 6.37718 -0.132832)
(5.25725 10.5371 -0.531349)
(3.18176 16.1101 -0.348782)
(9.00101 22.9721 -0.746508)
(3.28642 12.6092 -0.347834)
(12.6229 19.9795 -0.971866)
(2.42127 11.7623 -0.359523)
(12.2232 18.9109 -1.13103)
(1.79847 11.1183 -0.355055)
(11.0354 18.0609 -1.19228)
(1.34771 10.7699 -0.345611)
(9.84101 17.5474 -1.1999)
(1.01298 10.5467 -0.337234)
(8.79875 17.1986 -1.18066)
(0.741747 10.3891 -0.329422)
(7.87535 16.9344 -1.1472)
(4.57669 23.3321 -0.705869)
(12.4772 33.1877 -1.46406)
(4.71596 18.7678 -0.708087)
(17.1715 29.4281 -1.87228)
(3.54042 17.5374 -0.736564)
(16.4913 27.8519 -2.14311)
(2.66131 16.6748 -0.725458)
(14.8308 26.6752 -2.22525)
(2.02796 16.19 -0.707026)
(13.2249 25.9557 -2.21949)
(1.55793 15.8798 -0.690126)
(11.8525 25.475 -2.17588)
(1.17849 15.6598 -0.674158)
(10.6555 25.1135 -2.1153)
(6.20085 32.2326 -1.25403)
(16.226 45.6187 -2.57975)
(6.38058 26.6518 -1.29495)
(21.8423 41.1988 -3.29166)
(4.86383 24.9868 -1.33842)
(20.7519 39.0302 -3.67593)
(3.69195 23.8916 -1.3188)
(18.562 37.5 -3.75697)
(2.85046 23.2585 -1.28651)
(16.5316 36.5625 -3.71455)
(2.22734 22.8526 -1.25617)
(14.8339 35.9439 -3.62854)
(1.72649 22.5643 -1.22761)
(13.3761 35.4812 -3.52703)
(7.99205 43.1994 -2.028)
(20.0186 60.6182 -4.19495)
(8.21034 36.6677 -2.18693)
(26.2467 55.6116 -5.37336)
(6.31907 34.529 -2.23621)
(24.5834 52.78 -5.82656)
(4.82055 33.1933 -2.20275)
(21.8177 50.8885 -5.86045)
(3.74832 32.407 -2.15101)
(19.3649 49.7366 -5.74961)
(2.95768 31.9008 -2.10192)
(17.3612 48.9833 -5.5999)
(2.32596 31.5408 -2.05614)
(15.6695 48.4213 -5.44238)
(9.7858 56.6418 -3.01998)
(23.462 78.4334 -6.35361)
(10.0026 49.216 -3.4388)
(29.7935 72.8172 -8.17911)
(7.69955 46.5723 -3.47584)
(27.3803 69.2675 -8.58949)
(5.84679 44.9911 -3.41176)
(24.0128 67.0212 -8.49396)
(4.52755 44.0535 -3.3288)
(21.16 65.6707 -8.26726)
(3.56079 43.4497 -3.25231)
(18.8863 64.7972 -8.02548)
(2.79438 43.021 -3.18272)
(17.002 64.1481 -7.79373)
(11.2841 72.8994 -4.14692)
(25.9706 99.0771 -8.9679)
(11.4314 64.6577 -5.05147)
(31.7768 92.7921 -11.6177)
(8.70076 61.5031 -5.0672)
(28.4996 88.533 -11.8608)
(6.48844 59.6857 -4.9519)
(24.5619 85.9666 -11.5541)
(4.9229 58.6074 -4.8239)
(21.3712 84.4411 -11.1691)
(3.78484 57.9127 -4.71141)
(18.8921 83.4597 -10.8124)
(2.89153 57.4199 -4.61249)
(16.8786 82.7315 -10.4937)
(12.018 92.0605 -5.24002)
(26.8525 122.033 -11.7435)
(11.9758 83.0831 -6.85333)
(31.472 114.968 -15.2195)
(8.82407 79.4409 -6.86503)
(27.3056 110.053 -15.1937)
(6.27456 77.4075 -6.68748)
(22.8822 107.212 -14.6237)
(4.48403 76.2132 -6.50468)
(19.4434 105.555 -14.0581)
(3.19516 75.4489 -6.34958)
(16.8387 104.502 -13.578)
(2.19628 74.9081 -6.21765)
(14.7695 103.724 -13.171)
(11.4413 113.963 -6.00896)
(25.4951 146.596 -14.1888)
(11.0227 104.324 -8.50799)
(28.3767 138.623 -18.3204)
(7.48997 100.257 -8.5383)
(23.409 133.171 -17.9703)
(4.66526 98.0378 -8.29605)
(18.6479 130.113 -17.1231)
(2.70176 96.7495 -8.05669)
(15.0857 128.353 -16.3812)
(1.30531 95.9319 -7.85975)
(12.4559 127.246 -15.7888)
(0.239708 95.3554 -7.69746)
(10.4159 126.432 -15.308)
(8.99303 138.296 -6.08195)
(21.4346 172.069 -15.669)
(8.02317 128.002 -9.53405)
(22.3434 163.047 -20.1527)
(4.1845 123.578 -9.63251)
(16.7921 157.18 -19.5277)
(1.17444 121.207 -9.35324)
(11.8887 153.963 -18.472)
(-0.890966 119.851 -9.07467)
(8.34208 152.14 -17.6066)
(-2.3387 119.001 -8.84868)
(5.7882 151.009 -16.943)
(-3.42206 118.403 -8.66766)
(3.85799 150.183 -16.4234)
(4.28075 163.776 -5.07663)
(14.6164 196.801 -15.5255)
(2.60684 153.006 -9.34019)
(13.6591 186.882 -19.9784)
(-1.42687 148.394 -9.5297)
(7.81594 180.855 -19.1615)
(-4.50232 145.955 -9.24711)
(2.98627 177.599 -18.0008)
(-6.57753 144.577 -8.95729)
(-0.401369 175.774 -17.0917)
(-8.00676 143.726 -8.72466)
(-2.78074 174.658 -16.4173)
(-9.04998 143.126 -8.54481)
(-4.52759 173.846 -15.9083)
(-2.70489 189.006 -2.79951)
(5.40037 219.487 -13.413)
(-4.99391 178.438 -7.59333)
(3.10229 209.342 -17.5728)
(-9.08662 173.787 -7.90109)
(-2.69405 203.389 -16.7218)
(-12.1299 171.352 -7.65985)
(-7.27441 200.204 -15.5881)
(-14.1458 169.993 -7.39483)
(-10.407 198.436 -14.7252)
(-15.5046 169.167 -7.18391)
(-12.5551 197.371 -14.1042)
(-16.4752 168.614 -7.02212)
(-14.0953 196.634 -13.6471)
(-11.5372 212.193 0.510717)
(-5.38915 238.822 -9.64102)
(-14.1282 202.664 -4.46558)
(-8.25946 229.321 -13.3859)
(-18.1497 198.262 -4.92249)
(-13.7647 223.778 -12.6371)
(-21.0725 195.982 -4.76002)
(-17.987 220.838 -11.6305)
(-22.9693 194.729 -4.54799)
(-20.8117 219.226 -10.8786)
(-24.2166 193.985 -4.37835)
(-22.7026 218.273 -10.3532)
(-25.079 193.494 -4.25384)
(-24.0211 217.631 -9.9805)
(-20.3752 230.069 3.18476)
(-15.5757 252.61 -6.06335)
(-22.937 222.258 -1.46044)
(-18.3932 244.523 -9.22524)
(-26.7147 218.455 -2.00836)
(-23.4174 239.714 -8.62038)
(-29.4128 216.498 -1.9283)
(-27.2075 237.174 -7.78681)
(-31.1332 215.437 -1.77739)
(-29.7015 235.794 -7.17113)
(-32.2396 214.821 -1.65362)
(-31.3368 234.993 -6.75101)
(-32.981 214.418 -1.56677)
(-32.4477 234.463 -6.46325)
(-28.3421 243.637 4.27997)
(-24.3692 262.422 -3.91032)
(-30.6143 237.654 0.377034)
(-26.8186 255.955 -6.30524)
(-34.0103 234.584 -0.146607)
(-31.2689 251.988 -5.76865)
(-36.413 233.014 -0.10593)
(-34.6036 249.898 -5.06847)
(-37.9252 232.174 0.00594769)
(-36.7724 248.774 -4.56137)
(-38.88 231.696 0.0988767)
(-38.17 248.129 -4.22363)
(-39.5021 231.382 0.161174)
(-39.0978 247.711 -3.99992)
(-35.7918 255.569 4.07961)
(-32.2628 270.785 -2.99495)
(-37.5311 251.099 1.09045)
(-34.1464 265.724 -4.57584)
(-40.4138 248.726 0.676641)
(-37.9422 262.561 -4.0437)
(-42.4568 247.52 0.714529)
(-40.7925 260.9 -3.43755)
(-43.7338 246.882 0.806558)
(-42.634 260.013 -3.0123)
(-44.5297 246.527 0.880675)
(-43.8058 259.511 -2.73647)
(-45.0376 246.293 0.92802)
(-44.57 259.191 -2.55942)
(-43.0106 267.603 3.14828)
(-39.6282 279.288 -2.80021)
(-44.044 264.012 1.05125)
(-40.8427 275.111 -3.65631)
(-46.2838 262.195 0.782549)
(-43.8987 272.631 -3.12287)
(-47.8951 261.284 0.831404)
(-46.2152 271.344 -2.6019)
(-48.9057 260.804 0.909459)
(-47.7139 270.658 -2.24873)
(-49.5352 260.533 0.966797)
(-48.6667 270.265 -2.02493)
(-49.9426 260.378 1.00274)
(-49.2921 270.035 -1.88233)
(-50.1529 280.611 2.09174)
(-46.6967 288.762 -2.7593)
(-50.3627 277.368 0.744674)
(-47.1682 284.987 -3.06793)
(-51.8963 275.894 0.602764)
(-49.4481 282.985 -2.5594)
(-53.0508 275.172 0.655594)
(-51.2219 281.97 -2.12756)
(-53.7875 274.796 0.717464)
(-52.3819 281.433 -1.84493)
(-54.2521 274.583 0.759798)
(-53.1259 281.124 -1.66852)
(-54.5559 274.459 0.78431)
(-53.6191 280.942 -1.55739)
(-57.3376 294.865 1.39675)
(-53.6583 299.488 -2.43003)
(-56.5795 291.606 0.538838)
(-53.2515 295.767 -2.47362)
(-57.4101 290.304 0.457274)
(-54.7703 294.055 -2.04882)
(-58.1283 289.681 0.49447)
(-56.0352 293.21 -1.71633)
(-58.6062 289.357 0.533375)
(-56.8814 292.765 -1.50463)
(-58.9146 289.174 0.558044)
(-57.4321 292.509 -1.37439)
(-59.1204 289.067 0.570525)
(-57.8025 292.358 -1.29321)
(-64.6848 310.365 1.20427)
(-60.7165 311.528 -1.64034)
(-62.8656 306.974 0.523811)
(-59.3154 307.705 -1.72961)
(-63.0287 305.79 0.448424)
(-60.113 306.182 -1.43362)
(-63.3428 305.231 0.454645)
(-60.9115 305.447 -1.21045)
(-63.581 304.946 0.467004)
(-61.469 305.068 -1.07203)
(-63.7436 304.795 0.475289)
(-61.8381 304.86 -0.987956)
(-63.8447 304.668 0.475574)
(-62.0796 304.707 -0.938608)
(-71.6095 325.379 1.2738)
(-67.4022 323.56 -0.710817)
(-68.7381 321.974 0.554976)
(-64.9537 319.691 -1.03197)
(-68.3094 320.964 0.484164)
(-65.1033 318.358 -0.849711)
(-68.2714 320.475 0.466776)
(-65.4963 317.71 -0.716845)
(-68.3022 320.225 0.457684)
(-65.8057 317.377 -0.638671)
(-68.3382 320.093 0.450627)
(-66.0182 317.197 -0.59379)
(-68.3607 319.991 0.442009)
(-66.1575 317.072 -0.569504)
(-77.5439 338.023 1.2411)
(-73.2127 333.975 -0.0807012)
(-73.7423 334.842 0.508831)
(-69.7905 330.273 -0.562572)
(-72.8088 334.054 0.475437)
(-69.3781 329.156 -0.433899)
(-72.4733 333.649 0.452315)
(-69.4282 328.592 -0.35824)
(-72.3328 333.441 0.434101)
(-69.5337 328.303 -0.318901)
(-72.2669 333.332 0.420197)
(-69.6213 328.149 -0.298762)
(-72.2287 333.255 0.40822)
(-69.6822 328.049 -0.289571)
(-82.7029 348.523 1.06429)
(-78.3586 342.828 0.228483)
(-78.0687 345.758 0.403506)
(-74.04 339.501 -0.283962)
(-76.6782 345.21 0.422017)
(-73.1129 338.617 -0.167989)
(-76.0765 344.898 0.401652)
(-72.8548 338.143 -0.126989)
(-75.7858 344.739 0.381549)
(-72.7817 337.903 -0.111268)
(-75.6325 344.657 0.365924)
(-72.7626 337.778 -0.105829)
(-75.5427 344.603 0.353578)
(-72.758 337.7 -0.105269)
(-87.1652 357.093 0.818264)
(-82.898 350.195 0.314195)
(-81.7903 354.856 0.290016)
(-77.7795 347.393 -0.130003)
(-79.9813 354.544 0.348165)
(-76.3771 346.753 -0.0159828)
(-79.1389 354.33 0.331694)
(-75.838 346.381 0.00353518)
(-78.7143 354.226 0.313368)
(-75.6045 346.199 0.00600862)
(-78.4841 354.176 0.298854)
(-75.4911 346.106 0.00357318)
(-78.3494 354.143 0.287757)
(-75.4295 346.05 -0.00023943)
(-91.0072 364.045 0.579224)
(-86.8827 356.265 0.288301)
(-84.9731 362.365 0.194082)
(-81.0593 354.057 -0.0509983)
(-82.782 362.269 0.26942)
(-79.2185 353.657 0.0554636)
(-81.7229 362.153 0.255945)
(-78.4229 353.395 0.0619514)
(-81.1786 362.106 0.241152)
(-78.044 353.275 0.0583959)
(-80.8803 362.087 0.229046)
(-77.846 353.217 0.0526998)
(-80.7059 362.074 0.219862)
(-77.7337 353.183 0.0473215)
(-94.3201 369.72 0.382374)
(-90.3685 361.267 0.2225)
(-87.6978 368.575 0.121597)
(-83.9272 359.656 -0.0144319)
(-85.158 368.664 0.1956)
(-81.6833 359.477 0.0765145)
(-83.9039 368.641 0.185319)
(-80.6536 359.324 0.0767171)
(-83.2522 368.646 0.175243)
(-80.1425 359.264 0.0720574)
(-82.8929 368.655 0.166091)
(-79.868 359.239 0.0658144)
(-82.6831 368.658 0.158974)
(-79.7101 359.224 0.0603511)
(-97.1063 374.273 0.23778)
(-93.3327 365.308 0.153857)
(-89.9798 373.621 0.0717912)
(-86.3777 364.266 -0.000604427)
(-87.1329 373.864 0.133228)
(-83.7773 364.285 0.0702239)
(-85.7085 373.924 0.126924)
(-82.5407 364.236 0.0693667)
(-84.9629 373.974 0.122237)
(-81.9125 364.231 0.0669623)
(-84.5506 374.007 0.11613)
(-81.5705 364.236 0.0618808)
(-84.3101 374.024 0.110934)
(-81.3726 364.238 0.0572012)
(-99.3996 377.87 0.140361)
(-95.8007 368.522 0.0982763)
(-91.8538 377.66 0.0398492)
(-88.4311 368.008 0.00257262)
(-88.7445 378.029 0.084876)
(-85.5257 368.201 0.053091)
(-87.1759 378.163 0.0826092)
(-84.1118 368.249 0.0538736)
(-86.3507 378.252 0.0832203)
(-83.3827 368.295 0.0553143)
(-85.8934 378.306 0.0801265)
(-82.9825 368.325 0.0522107)
(-85.627 378.334 0.0766594)
(-82.7505 368.343 0.0485252)
(-101.273 380.712 0.0781777)
(-97.8331 371.074 0.0583796)
(-93.3809 380.887 0.0203598)
(-90.1309 371.029 0.00178526)
(-90.0503 381.354 0.0501717)
(-86.9681 371.369 0.0349001)
(-88.3609 381.55 0.0508323)
(-85.4042 371.502 0.0375496)
(-87.4691 381.673 0.0557304)
(-84.5897 371.593 0.0429602)
(-86.9743 381.744 0.0559371)
(-84.1404 371.647 0.0428527)
(-86.6865 381.782 0.0544286)
(-83.8795 371.677 0.0407683)
(-102.789 382.957 0.040702)
(-99.4881 373.097 0.0323125)
(-94.6174 383.458 0.00881075)
(-91.5257 373.458 -9.15488e-05)
(-91.1027 384 0.0269338)
(-88.149 373.916 0.0200001)
(-89.3132 384.247 0.0288418)
(-86.46 374.121 0.0233602)
(-88.3662 384.397 0.0359336)
(-85.5741 374.25 0.0312385)
(-87.8408 384.482 0.0396255)
(-85.0839 374.325 0.0349622)
(-87.5356 384.529 0.0406605)
(-84.7992 374.367 0.0354532)
(-104.013 384.726 0.0192014)
(-100.831 374.694 0.016352)
(-95.614 385.503 0.00262119)
(-92.6632 375.403 -0.00142427)
(-91.947 386.102 0.0126684)
(-89.11 375.957 0.00970207)
(-90.075 386.388 0.0144737)
(-87.3173 376.221 0.0125159)
(-89.0825 386.559 0.0211044)
(-86.3721 376.382 0.020213)
(-88.5323 386.659 0.0274777)
(-85.8484 376.475 0.0273601)
(-88.2133 386.714 0.0317886)
(-85.5444 376.529 0.0316068)
(-104.998 386.126 0.00768462)
(-101.917 375.96 0.0072454)
(-96.4159 387.133 -0.000193314)
(-93.5864 376.961 -0.00186916)
(-92.6239 387.773 0.00476688)
(-89.8886 377.591 0.00360185)
(-90.6843 388.091 0.00584428)
(-88.0107 377.902 0.00526306)
(-89.6542 388.277 0.0100304)
(-87.0163 378.086 0.0104319)
(-89.0839 388.388 0.0167217)
(-86.4653 378.196 0.0184562)
(-88.7541 388.452 0.0241628)
(-86.1461 378.261 0.0266338)
(-105.788 387.236 0.00232439)
(-102.791 376.966 0.00263054)
(-97.0593 388.431 -0.000971873)
(-94.3318 378.207 -0.00154331)
(-93.1657 389.103 0.00110002)
(-90.5165 378.895 0.000719156)
(-91.1713 389.445 0.00147828)
(-88.5693 379.245 0.00134841)
(-90.1101 389.639 0.00299397)
(-87.5339 379.444 0.00345144)
(-89.5227 389.755 0.00721376)
(-86.96 379.563 0.00884411)
(-89.1844 389.827 0.0149324)
(-86.6288 379.64 0.017717)
(-106.42 388.117 0.000358383)
(-103.491 377.764 0.000579873)
(-97.5744 389.465 -0.000704657)
(-94.9314 379.203 -0.000777448)
(-93.5984 390.158 -0.000172023)
(-91.021 379.936 -0.000188666)
(-91.56 390.52 -0.000140314)
(-89.0178 380.316 -9.62044e-05)
(-90.4731 390.719 -0.000236735)
(-87.9487 380.524 -3.32437e-05)
(-89.8704 390.833 0.000119936)
(-87.3545 380.645 0.000617355)
(-89.5238 390.905 0.00401022)
(-87.012 380.723 0.0052128)
(0.019578 0.979313 -0.00382193)
(0.792379 1.65278 -0.0247423)
(-0.0093236 0.967798 -0.00365248)
(0.666172 1.6314 -0.0215614)
(-0.0338263 0.959328 -0.00350086)
(0.562112 1.61699 -0.0188166)
(-0.0636121 0.950244 -0.00355034)
(0.4394 1.60116 -0.0164037)
(-0.116812 0.936908 -0.003737)
(0.229831 1.57486 -0.01302)
(-0.253967 0.918366 -0.00339135)
(-0.277955 1.52839 -0.00371483)
(0.0997829 3.27592 -0.0347352)
(2.53615 5.4697 -0.173684)
(0.00856281 3.23692 -0.0329389)
(2.17184 5.39815 -0.160406)
(-0.0692839 3.2074 -0.0311716)
(1.86472 5.34545 -0.148124)
(-0.164089 3.17593 -0.0292268)
(1.49547 5.28835 -0.133791)
(-0.333394 3.13027 -0.0261559)
(0.854187 5.19929 -0.110543)
(-0.769985 3.06126 -0.017209)
(-0.719329 5.03817 -0.0556897)
(0.245305 6.28939 -0.128757)
(4.60904 10.3855 -0.51039)
(0.0799054 6.21599 -0.122992)
(3.99869 10.2551 -0.481686)
(-0.06171 6.15996 -0.117295)
(3.4792 10.1564 -0.454401)
(-0.234268 6.09935 -0.110312)
(2.84805 10.0474 -0.42072)
(-0.54231 6.00956 -0.0981844)
(1.73704 9.87502 -0.361726)
(-1.33764 5.86505 -0.0659272)
(-1.03663 9.55355 -0.21531)
(0.47656 10.2532 -0.319268)
(6.96383 16.7093 -1.10837)
(0.224667 10.1377 -0.30605)
(6.10706 16.5124 -1.05681)
(0.00860477 10.0487 -0.293569)
(5.37436 16.3615 -1.00877)
(-0.254816 9.9513 -0.278276)
(4.47834 16.1927 -0.949379)
(-0.72506 9.80402 -0.250756)
(2.885 15.9198 -0.84166)
(-1.94037 9.55224 -0.175199)
(-1.16437 15.3855 -0.552455)
(0.809293 15.4685 -0.654148)
(9.48647 24.8096 -2.04936)
(0.459074 15.3036 -0.629265)
(8.39203 24.5403 -1.96623)
(0.158353 15.1752 -0.606248)
(7.45434 24.3326 -1.89043)
(-0.208421 15.0332 -0.578066)
(6.30352 24.0987 -1.79753)
(-0.863129 14.8143 -0.526782)
(4.24349 23.7149 -1.62757)
(-2.55558 14.4186 -0.383983)
(-1.06729 22.9228 -1.15019)
(1.24214 22.3121 -1.19301)
(11.9676 35.0969 -3.42209)
(0.783868 22.0919 -1.15137)
(10.6562 34.7526 -3.29699)
(0.39009 21.919 -1.11339)
(9.53263 34.4861 -3.18509)
(-0.0902897 21.7258 -1.06707)
(8.15164 34.1852 -3.04922)
(-0.947491 21.4225 -0.982765)
(5.67081 33.6871 -2.80156)
(-3.16163 20.8458 -0.747383)
(-0.782995 32.6134 -2.09878)
(1.7198 31.2256 -2.00227)
(14.0536 47.9608 -5.28609)
(1.14846 30.9464 -1.93877)
(12.5596 47.5436 -5.10903)
(0.657344 30.7257 -1.88137)
(11.2812 47.2198 -4.95296)
(0.0581126 30.4769 -1.8115)
(9.70999 46.8538 -4.76453)
(-1.01073 30.0804 -1.68428)
(6.88428 46.2455 -4.42277)
(-3.76696 29.2949 -1.32981)
(-0.497343 44.8954 -3.46144)
(2.06603 42.6474 -3.10373)
(15.2243 63.6246 -7.57189)
(1.38332 42.3131 -3.01291)
(13.5942 63.1471 -7.33328)
(0.796562 42.0475 -2.93161)
(12.2025 62.7761 -7.12577)
(0.0807621 41.7459 -2.8331)
(10.4944 62.3561 -6.87658)
(-1.19451 41.258 -2.65484)
(7.42559 61.6543 -6.42872)
(-4.47213 40.2534 -2.16368)
(-0.589933 60.0586 -5.19287)
(2.05222 56.9935 -4.50439)
(15.0037 82.1532 -10.1976)
(1.2708 56.6086 -4.38308)
(13.2999 81.6229 -9.89329)
(0.599436 56.3011 -4.27572)
(11.8492 81.2095 -9.63164)
(-0.219568 55.95 -4.14659)
(10.072 80.7409 -9.31872)
(-1.67729 55.376 -3.9144)
(6.88435 79.9575 -8.76012)
(-5.40972 54.165 -3.27969)
(-1.4232 78.1666 -7.24242)
(1.26934 74.4486 -6.0792)
(12.8677 103.119 -12.8019)
(0.412776 74.0267 -5.92646)
(11.1552 102.558 -12.4353)
(-0.322915 73.6895 -5.7922)
(9.7013 102.121 -12.1222)
(-1.22019 73.3024 -5.63151)
(7.92401 101.624 -11.7482)
(-2.81454 72.6627 -5.34464)
(4.74555 100.79 -11.0842)
(-6.87405 71.2792 -4.57229)
(-3.4985 98.8647 -9.31026)
(-0.73713 94.8739 -7.53271)
(8.56403 125.809 -14.8804)
(-1.63268 94.4244 -7.3541)
(6.91125 125.226 -14.4675)
(-2.40156 94.0648 -7.19824)
(5.51196 124.772 -14.1171)
(-3.33921 93.6506 -7.01281)
(3.80502 124.254 -13.6991)
(-5.00265 92.961 -6.6841)
(0.761374 123.383 -12.9602)
(-9.2117 91.4489 -5.81005)
(-7.08847 121.378 -11.012)
(-4.40421 117.918 -8.48818)
(2.12493 149.564 -15.9675)
(-5.29721 117.456 -8.2956)
(0.59052 148.98 -15.5361)
(-6.0636 117.087 -8.12832)
(-0.705357 148.524 -15.1713)
(-6.99793 116.66 -7.9302)
(-2.28293 148.003 -14.7361)
(-8.65208 115.945 -7.58088)
(-5.08706 147.124 -13.9694)
(-12.805 114.36 -6.66296)
(-12.2702 145.099 -11.9708)
(-9.98931 142.659 -8.36835)
(-6.08414 173.253 -15.4656)
(-10.8361 142.2 -8.17995)
(-7.45273 172.685 -15.0521)
(-11.563 141.836 -8.01677)
(-8.60645 172.242 -14.7032)
(-12.4488 141.414 -7.82463)
(-10.0085 171.735 -14.2875)
(-14.0135 140.703 -7.48761)
(-12.4932 170.876 -13.5571)
(-17.9063 139.119 -6.61077)
(-18.8133 168.904 -11.6716)
(-17.3207 168.152 -6.86742)
(-15.4297 196.066 -13.2566)
(-18.0915 167.739 -6.70164)
(-16.612 195.554 -12.8923)
(-18.7514 167.397 -6.56063)
(-17.606 195.144 -12.5871)
(-19.5555 166.998 -6.39536)
(-18.8121 194.672 -12.2239)
(-20.9727 166.325 -6.10553)
(-20.9434 193.872 -11.5871)
(-24.4403 164.825 -5.36168)
(-26.2954 192.04 -9.96637)
(-25.8129 193.102 -4.13752)
(-25.1399 217.146 -9.66692)
(-26.4785 192.747 -4.00795)
(-26.1239 216.704 -9.37258)
(-27.052 192.451 -3.89854)
(-26.9544 216.35 -9.12617)
(-27.7527 192.102 -3.77276)
(-27.9627 215.939 -8.83498)
(-28.9848 191.516 -3.55516)
(-29.7396 215.244 -8.32835)
(-31.9254 190.224 -3.01184)
(-34.1177 213.669 -7.06943)
(-33.6041 214.118 -1.48504)
(-33.3784 234.079 -6.22161)
(-34.1621 213.829 -1.39116)
(-34.1882 233.714 -5.99475)
(-34.6486 213.592 -1.3128)
(-34.8767 233.424 -5.80505)
(-35.2459 213.312 -1.22616)
(-35.7151 233.088 -5.5835)
(-36.2949 212.84 -1.08058)
(-37.1903 232.516 -5.20266)
(-38.7378 211.823 -0.726987)
(-40.7571 231.246 -4.27981)
(-40.0224 231.167 0.218593)
(-39.8699 247.418 -3.81291)
(-40.4871 230.945 0.285881)
(-40.5413 247.128 -3.6369)
(-40.8967 230.765 0.340419)
(-41.1164 246.9 -3.49059)
(-41.4026 230.553 0.397252)
(-41.8193 246.636 -3.32223)
(-42.2911 230.196 0.488663)
(-43.0554 246.185 -3.03676)
(-44.3151 229.445 0.705248)
(-45.9926 245.203 -2.36182)
(-45.4613 246.143 0.968329)
(-45.204 258.973 -2.41356)
(-45.8427 245.978 1.01658)
(-45.7593 258.747 -2.2752)
(-46.1825 245.847 1.0536)
(-46.2385 258.572 -2.16148)
(-46.6046 245.694 1.08854)
(-46.8264 258.37 -2.03322)
(-47.3468 245.436 1.14034)
(-47.8607 258.024 -1.81968)
(-49.0061 244.902 1.25955)
(-50.2833 257.284 -1.32831)
(-50.2712 260.257 1.03256)
(-49.8015 269.863 -1.76685)
(-50.5765 260.14 1.06866)
(-50.2547 269.689 -1.65535)
(-50.8497 260.045 1.09348)
(-50.6466 269.556 -1.56592)
(-51.1908 259.934 1.11284)
(-51.1284 269.403 -1.4682)
(-51.7917 259.747 1.13608)
(-51.9768 269.137 -1.31001)
(-53.1193 259.356 1.18595)
(-53.9575 268.576 -0.955865)
(-54.8048 274.365 0.802992)
(-54.0261 280.81 -1.46817)
(-55.0385 274.275 0.826557)
(-54.3888 280.67 -1.38132)
(-55.2485 274.201 0.840113)
(-54.7018 280.565 -1.31363)
(-55.5113 274.115 0.84599)
(-55.0859 280.446 -1.24267)
(-55.9757 273.972 0.845999)
(-55.7625 280.239 -1.13159)
(-56.9969 273.672 0.844105)
(-57.3494 279.806 -0.888394)
(-59.2908 288.982 0.578304)
(-58.1114 292.247 -1.22895)
(-59.4561 288.908 0.589343)
(-58.3899 292.131 -1.16601)
(-59.6047 288.844 0.591827)
(-58.6294 292.045 -1.11902)
(-59.7909 288.77 0.58503)
(-58.9225 291.947 -1.07267)
(-60.122 288.65 0.564175)
(-59.4395 291.778 -1.00358)
(-60.8488 288.394 0.518209)
(-60.6598 291.423 -0.85613)
(-63.9473 304.613 0.469657)
(-62.2997 304.628 -0.901032)
(-64.045 304.543 0.465348)
(-62.4974 304.526 -0.864623)
(-64.1344 304.486 0.45578)
(-62.6689 304.452 -0.839079)
(-64.2461 304.417 0.436652)
(-62.8782 304.367 -0.816628)
(-64.4473 304.31 0.397744)
(-63.2485 304.224 -0.786051)
(-64.8876 304.081 0.317875)
(-64.1176 303.919 -0.723312)
(-68.3915 319.932 0.430078)
(-66.2863 316.995 -0.552566)
(-68.4295 319.879 0.418375)
(-66.4113 316.915 -0.535692)
(-68.4636 319.828 0.402636)
(-66.5206 316.851 -0.52608)
(-68.5064 319.765 0.377201)
(-66.6549 316.775 -0.521103)
(-68.5877 319.67 0.328609)
(-66.8952 316.651 -0.518742)
(-68.7715 319.47 0.230013)
(-67.4553 316.385 -0.517502)
(-72.2036 333.197 0.394731)
(-69.7402 327.974 -0.284953)
(-72.193 333.16 0.38071)
(-69.8061 327.914 -0.280122)
(-72.1807 333.117 0.363567)
(-69.8632 327.86 -0.280097)
(-72.1645 333.064 0.337663)
(-69.9337 327.794 -0.285164)
(-72.1426 332.986 0.289481)
(-70.0633 327.689 -0.29837)
(-72.1134 332.821 0.193487)
(-70.3685 327.459 -0.32905)
(-75.473 344.553 0.340813)
(-72.7589 337.633 -0.107311)
(-75.4214 344.533 0.327295)
(-72.7747 337.592 -0.109187)
(-75.3694 344.502 0.311488)
(-72.7869 337.549 -0.114145)
(-75.302 344.462 0.288386)
(-72.8019 337.495 -0.123945)
(-75.1904 344.408 0.246073)
(-72.8347 337.414 -0.143907)
(-74.9808 344.288 0.163279)
(-72.9232 337.227 -0.187216)
(-78.2427 354.105 0.276846)
(-75.3826 345.996 -0.00527547)
(-78.1561 354.101 0.265261)
(-75.3551 345.972 -0.0102303)
(-78.0699 354.082 0.252074)
(-75.3282 345.941 -0.0170933)
(-77.9581 354.057 0.233161)
(-75.2942 345.901 -0.0281865)
(-77.7682 354.03 0.198863)
(-75.2416 345.846 -0.0493679)
(-77.4049 353.96 0.132986)
(-75.1433 345.707 -0.0937185)
(-80.568 362.048 0.211134)
(-77.6457 353.142 0.0415182)
(-80.4514 362.057 0.201921)
(-77.5807 353.135 0.0356542)
(-80.3357 362.05 0.191651)
(-77.5195 353.116 0.0286529)
(-80.1853 362.04 0.177097)
(-77.4424 353.091 0.0182244)
(-79.9274 362.038 0.150886)
(-77.3144 353.062 -0.00100327)
(-79.433 362.017 0.101554)
(-77.0542 352.974 -0.0399081)
(-82.5189 368.646 0.152358)
(-79.5867 359.197 0.054924)
(-82.3771 368.668 0.145468)
(-79.4894 359.206 0.0494337)
(-82.2364 368.673 0.137882)
(-79.3984 359.2 0.0432775)
(-82.0531 368.679 0.127138)
(-79.2839 359.19 0.0343968)
(-81.7371 368.704 0.107736)
(-79.0901 359.188 0.0182028)
(-81.1323 368.734 0.0719318)
(-78.6906 359.154 -0.0135831)
(-84.1237 374.024 0.106097)
(-81.219 364.224 0.0525997)
(-83.9608 374.058 0.101088)
(-81.094 364.246 0.0477597)
(-83.7992 374.074 0.0955879)
(-80.9775 364.252 0.0425215)
(-83.5882 374.093 0.0877021)
(-80.8306 364.256 0.0351667)
(-83.2235 374.142 0.0731931)
(-80.5802 364.279 0.0218316)
(-82.5273 374.221 0.0467497)
(-80.0625 364.295 -0.0035601)
(-85.4221 378.343 0.0733312)
(-82.5713 368.339 0.0448658)
(-85.2416 378.386 0.069875)
(-82.4228 368.373 0.0409692)
(-85.0624 378.409 0.0658968)
(-82.2845 368.388 0.0366919)
(-84.8282 378.439 0.0597824)
(-82.11 368.403 0.0304334)
(-84.4226 378.507 0.047823)
(-81.8114 368.447 0.0185739)
(-83.6512 378.625 0.0265454)
(-81.1946 368.507 -0.00316686)
(-86.4664 381.798 0.0525509)
(-83.6789 371.683 0.0382066)
(-86.2713 381.846 0.050199)
(-83.5105 371.725 0.0349331)
(-86.0774 381.876 0.0470179)
(-83.3538 371.747 0.0310234)
(-85.8239 381.913 0.0415106)
(-83.1561 371.771 0.0249507)
(-85.3847 381.995 0.0297806)
(-82.817 371.831 0.0128285)
(-84.5517 382.144 0.0111471)
(-82.1178 371.929 -0.00680374)
(-87.303 384.55 0.0406433)
(-84.5807 374.38 0.0346002)
(-87.0959 384.603 0.0394597)
(-84.3958 374.428 0.0320398)
(-86.8899 384.637 0.0366622)
(-84.2238 374.455 0.0280808)
(-86.6207 384.68 0.0306298)
(-84.0066 374.486 0.0211333)
(-86.154 384.773 0.0166569)
(-83.6341 374.56 0.006363)
(-85.2711 384.945 -0.000252372)
(-82.867 374.688 -0.011661)
(-87.9706 386.741 0.0345191)
(-85.3116 376.549 0.0337295)
(-87.7538 386.797 0.0348744)
(-85.113 376.602 0.0324652)
(-87.538 386.833 0.0320841)
(-84.9283 376.633 0.0281898)
(-87.256 386.881 0.0244204)