/*--------------------------------*- C++ -*----------------------------------*\
| =========                 |                                                 |
| \\      /  F ield         | OpenFOAM: The Open Source CFD Toolbox           |
|  \\    /   O peration     | Version:  2212                                  |
|   \\  /    A nd           | Website:  www.openfoam.com                      |
|    \\/     M anipulation  |                                                 |
\*---------------------------------------------------------------------------*/
FoamFile
{
    version     2.0;
    format      ascii;
    arch        "LSB;label=32;scalar=64";
    class       volVectorField;
    location    "980";
    object      Urel;
}
// * * * * * * * * * * * * * * * * * * * * * * * * * * * * * * * * * * * * * //

dimensions      [0 1 -1 0 0 0 0];

internalField   nonuniform List<vector> 
50904
(
(96.4785 -373.228 0.0398886)
(94.4665 -365.868 0.0393196)
(89.2439 -374.107 -0.0182955)
(87.9471 -367.232 -0.0246641)
(95.8136 -367.021 0.0428414)
(94.0511 -358.828 0.0353569)
(90.2174 -371.771 -0.00333688)
(89.8563 -363.683 -0.0373866)
(95.0414 -359.529 0.0715378)
(93.585 -350.313 0.0440111)
(91.327 -368.559 0.0232458)
(92.0386 -358.966 -0.0727625)
(94.1547 -350.567 0.117655)
(93.0675 -340.108 0.0471854)
(92.5555 -364.154 0.0846913)
(94.4636 -352.711 -0.128401)
(93.1435 -339.956 0.192708)
(92.49 -328.002 0.042459)
(93.8623 -358.152 0.197992)
(97.0571 -344.472 -0.216481)
(91.9882 -327.527 0.332195)
(91.8244 -313.809 0.0456873)
(95.174 -350.066 0.377111)
(99.6845 -333.74 -0.363291)
(90.6333 -313.042 0.595657)
(90.9964 -297.274 0.0884811)
(96.3756 -339.32 0.6391)
(102.15 -319.943 -0.60432)
(89.0035 -296.346 1.14036)
(89.8935 -278.269 0.29189)
(97.2892 -325.33 0.980902)
(104.158 -302.583 -1.00296)
(87.0146 -277.51 2.23065)
(88.3512 -256.95 0.886394)
(97.6699 -307.681 1.40346)
(105.306 -281.456 -1.58942)
(84.5623 -256.844 4.10468)
(86.1831 -233.879 2.0888)
(97.2385 -286.497 2.00555)
(105.181 -257.113 -2.23912)
(81.6368 -234.75 7.24951)
(83.3123 -209.648 4.36718)
(95.7421 -262.162 2.90343)
(103.47 -230.286 -2.7466)
(78.3457 -211.694 12.0761)
(79.7827 -184.914 8.15455)
(93.0029 -235.335 4.41324)
(99.9782 -201.907 -2.65824)
(75.1569 -189.392 18.519)
(76.0382 -161.714 13.4467)
(89.1199 -208.037 6.85489)
(94.9121 -174.382 -1.44325)
(72.6077 -169.483 25.6669)
(72.6199 -141.805 19.4429)
(84.5071 -182.419 10.2125)
(88.8415 -149.86 1.05397)
(70.9606 -153.646 31.7843)
(69.7534 -126.801 24.6296)
(79.6616 -160.96 13.5891)
(82.4347 -130.529 4.08783)
(69.5521 -142.967 34.0792)
(66.9819 -117.556 26.5972)
(75.2486 -146.387 15.0363)
(76.6607 -118.491 5.83036)
(67.3263 -134.698 32.6523)
(63.5334 -111.034 25.4191)
(70.9792 -136.145 14.2509)
(71.3799 -110.812 5.74519)
(63.526 -125.497 29.3585)
(58.7158 -103.927 22.7792)
(66.242 -126.882 12.0327)
(65.9805 -104.223 4.45594)
(57.8541 -113.204 25.5215)
(52.2949 -94.1299 19.822)
(60.7119 -116.562 9.17304)
(60.1604 -96.7522 2.62557)
(50.7396 -97.9255 21.4615)
(44.7009 -81.5488 16.8388)
(54.3917 -104.463 5.95028)
(53.8682 -87.6794 0.563838)
(42.7547 -80.5114 17.8037)
(36.4826 -66.8536 14.2962)
(47.6008 -90.7712 3.12828)
(47.3127 -77.0652 -1.09624)
(34.4236 -62.2655 14.3505)
(28.1674 -51.1963 11.9628)
(40.5275 -75.8664 0.647768)
(40.5427 -65.1697 -2.3834)
(26.7636 -45.8367 11.4486)
(20.8364 -36.983 9.92916)
(33.8906 -61.6563 -0.538453)
(34.1553 -53.5079 -2.58685)
(20.6839 -33.4052 8.63586)
(15.3034 -26.2682 7.69635)
(28.1609 -49.7279 -0.852819)
(28.5597 -43.4761 -2.1814)
(15.9465 -24.3242 6.12916)
(11.2327 -18.5623 5.56583)
(23.1573 -39.7885 -0.774403)
(23.5924 -34.9606 -1.59935)
(12.2973 -17.8265 4.1404)
(8.2779 -13.1832 3.81272)
(18.8272 -31.6094 -0.575009)
(19.2356 -27.8588 -1.06935)
(9.4609 -13.1405 2.68381)
(6.11553 -9.42695 2.5021)
(15.1064 -24.8933 -0.383468)
(15.4559 -21.9746 -0.67026)
(7.21334 -9.6767 1.67049)
(4.49823 -6.75299 1.57573)
(11.9021 -19.3284 -0.236262)
(12.1853 -17.0773 -0.396569)
(5.44721 -7.12313 1.00104)
(3.29377 -4.85309 0.956599)
(9.20511 -14.7877 -0.135063)
(9.42699 -13.074 -0.22185)
(4.06368 -5.22283 0.579222)
(2.39233 -3.49086 0.561624)
(6.9896 -11.1461 -0.0711747)
(7.15749 -9.85734 -0.116643)
(2.97009 -3.77933 0.32031)
(1.70809 -2.48836 0.316482)
(5.18128 -8.22873 -0.032826)
(5.30377 -7.27761 -0.0556286)
(2.10435 -2.67042 0.167091)
(1.18304 -1.73875 0.16945)
(3.71338 -5.8924 -0.0121554)
(3.80084 -5.21288 -0.0228006)
(1.41862 -1.81422 0.0801654)
(0.778531 -1.1717 0.0845352)
(2.53223 -4.03369 -0.00205185)
(2.59239 -3.56889 -0.0064263)
(0.874062 -1.14281 0.0334395)
(0.463327 -0.735125 0.037514)
(1.58167 -2.5488 0.00187822)
(1.62053 -2.25611 0.000516331)
(0.43814 -0.613354 0.0109623)
(0.214934 -0.394804 0.0136911)
(0.816643 -1.3608 0.0021747)
(0.838345 -1.20637 0.00202101)
(0.0921031 -0.19521 0.0025664)
(0.0203518 -0.129626 0.00362882)
(0.202819 -0.411365 0.000344505)
(0.212044 -0.368294 0.00047027)
(81.9823 -372.421 0.00496278)
(81.3781 -365.969 -0.00789275)
(76.76 -372.334 -0.00580074)
(76.8379 -366.222 -0.0307096)
(74.819 -372.281 -0.00195062)
(74.9563 -366.328 -0.0310432)
(73.7842 -372.31 -0.00488766)
(73.8428 -366.449 -0.0339271)
(73.1558 -372.314 -0.00374898)
(73.1102 -366.517 -0.0317791)
(72.729 -372.317 -0.00386315)
(72.5808 -366.571 -0.0298702)
(72.4012 -372.316 -0.00382954)
(72.1545 -366.617 -0.027261)
(82.8751 -368.612 -0.0352422)
(83.748 -360.519 -0.102764)
(77.6515 -369.469 -0.0422643)
(80.1503 -361.62 -0.156279)
(75.4763 -369.61 -0.0384456)
(78.1836 -361.966 -0.179897)
(74.2848 -369.809 -0.0404857)
(76.7711 -362.299 -0.193708)
(73.5431 -369.899 -0.0381969)
(75.7254 -362.491 -0.195406)
(73.0329 -369.958 -0.0367975)
(74.9165 -362.631 -0.191819)
(72.6378 -369.995 -0.0358782)
(74.2381 -362.743 -0.183927)
(83.9922 -363.891 -0.139397)
(86.5738 -353.764 -0.322888)
(78.7607 -365.769 -0.143457)
(84.0027 -355.732 -0.439784)
(76.3209 -366.166 -0.14349)
(81.9063 -356.4 -0.513847)
(74.9388 -366.55 -0.143801)
(80.1386 -356.981 -0.548792)
(74.0616 -366.744 -0.13934)
(78.7412 -357.327 -0.555759)
(73.4511 -366.868 -0.135835)
(77.6277 -357.572 -0.548152)
(72.9757 -366.952 -0.132832)
(76.6825 -357.762 -0.531349)
(85.3738 -358.052 -0.348782)
(89.8762 -345.431 -0.746508)
(80.1263 -360.995 -0.347834)
(88.3666 -348.24 -0.971866)
(77.3897 -361.713 -0.359523)
(86.0704 -349.322 -1.13103)
(75.7797 -362.299 -0.355055)
(83.8844 -350.191 -1.19228)
(74.7415 -362.614 -0.345611)
(82.0983 -350.721 -1.1999)
(74.0124 -362.815 -0.337234)
(80.6611 -351.086 -1.18066)
(73.4423 -362.953 -0.329422)
(79.4407 -351.365 -1.1472)
(87.0516 -350.844 -0.705869)
(93.6292 -335.209 -1.46406)
(81.7789 -354.851 -0.708087)
(93.1341 -338.789 -1.87228)
(78.7109 -355.954 -0.736564)
(90.5357 -340.38 -2.14311)
(76.8339 -356.759 -0.725458)
(87.8661 -341.577 -2.22525)
(75.6077 -357.211 -0.707026)
(85.6628 -342.314 -2.21949)
(74.7405 -357.498 -0.690126)
(83.8926 -342.81 -2.17588)
(74.0611 -357.7 -0.674158)
(82.3975 -343.187 -2.1153)
(89.0325 -341.96 -1.25403)
(97.7271 -322.77 -2.57975)
(83.725 -346.986 -1.29495)
(98.0809 -327.015 -3.29166)
(80.2893 -348.524 -1.33842)
(95.0451 -329.2 -3.67593)
(78.106 -349.562 -1.3188)
(91.8321 -330.752 -3.75697)
(76.6646 -350.163 -1.28651)
(89.1972 -331.708 -3.71455)
(75.6409 -350.547 -1.25617)
(87.0982 -332.343 -3.62854)
(74.8387 -350.817 -1.22761)
(85.3408 -332.821 -3.52703)
(91.2704 -331.019 -2.028)
(101.956 -307.764 -4.19495)
(85.9058 -336.998 -2.18693)
(102.829 -312.602 -5.37336)
(82.0627 -339.012 -2.23621)
(99.1866 -315.454 -5.82656)
(79.536 -340.291 -2.20275)
(95.3806 -317.368 -5.86045)
(77.8553 -341.046 -2.15101)
(92.3144 -318.539 -5.74961)
(76.6599 -341.53 -2.10192)
(89.9051 -319.31 -5.5999)
(75.7251 -341.872 -2.05614)
(87.9122 -319.888 -5.44238)
(93.6124 -317.62 -3.01998)
(105.935 -289.95 -6.35361)
(88.1296 -324.502 -3.4388)
(106.799 -295.409 -8.17911)
(83.8342 -327.024 -3.47584)
(102.365 -298.984 -8.58949)
(80.9326 -328.552 -3.41176)
(97.9358 -301.256 -8.49396)
(78.9943 -329.459 -3.3288)
(94.4588 -302.628 -8.26726)
(77.6176 -330.042 -3.25231)
(91.7742 -303.519 -8.02548)
(76.5462 -330.453 -3.18272)
(89.5868 -304.185 -7.79373)
(95.7913 -301.424 -4.14692)
(109.11 -269.313 -8.9679)
(90.095 -309.138 -5.05147)
(109.309 -275.459 -11.6177)
(85.3214 -312.178 -5.0672)
(103.959 -279.751 -11.8608)
(82.0344 -313.944 -4.9519)
(98.9331 -282.347 -11.5541)
(79.8366 -314.995 -4.8239)
(95.1047 -283.896 -11.1691)
(78.2822 -315.67 -4.71141)
(92.2083 -284.897 -10.8124)
(77.0814 -316.147 -4.61249)
(89.8893 -285.643 -10.4937)
(97.3495 -282.361 -5.24002)
(110.793 -246.381 -11.7435)
(91.2944 -290.834 -6.85333)
(109.644 -253.333 -15.2195)
(86.0395 -294.37 -6.86503)
(103.343 -258.291 -15.1937)
(82.3846 -296.358 -6.68748)
(97.8007 -261.168 -14.6237)
(79.9462 -297.527 -6.50468)
(93.7084 -262.852 -14.0581)
(78.2335 -298.274 -6.34958)
(90.6789 -263.927 -13.578)
(76.9247 -298.8 -6.21765)
(88.3017 -264.724 -13.171)
(97.7616 -260.602 -6.00896)
(110.396 -221.866 -14.1888)
(91.1303 -269.776 -8.50799)
(107.317 -229.765 -18.3204)
(85.4239 -273.752 -8.5383)
(100.143 -235.278 -17.9703)
(81.4578 -275.933 -8.29605)
(94.2261 -238.38 -17.1231)
(78.8284 -277.202 -8.05669)
(89.9922 -240.172 -16.3812)
(76.9998 -278.005 -7.85975)
(86.9292 -241.304 -15.7888)
(75.6218 -278.569 -7.69746)
(84.5789 -242.14 -15.308)
(96.5132 -236.478 -6.08195)
(107.499 -196.478 -15.669)
(89.0864 -246.367 -9.53405)
(102.214 -205.483 -20.1527)
(82.9889 -250.722 -9.63251)
(94.3694 -211.433 -19.5277)
(78.7942 -253.068 -9.35324)
(88.2662 -214.708 -18.472)
(76.0413 -254.411 -9.07467)
(84.026 -216.57 -17.6066)
(74.1517 -255.252 -8.84868)
(81.0293 -217.73 -16.943)
(72.7531 -255.841 -8.66766)
(78.7862 -218.581 -16.4234)
(93.2047 -211.318 -5.07663)
(102.037 -171.897 -15.5255)
(84.8015 -221.776 -9.34019)
(94.626 -181.882 -19.9784)
(78.4114 -226.354 -9.5297)
(86.3921 -188.026 -19.1615)
(74.1018 -228.786 -9.24711)
(80.3128 -191.357 -18.0008)
(71.3146 -230.162 -8.95729)
(76.2073 -193.231 -17.0917)
(69.4328 -231.011 -8.72466)
(73.3746 -194.383 -16.4173)
(68.0721 -231.607 -8.54481)
(71.3129 -195.224 -15.9083)
(87.903 -186.548 -2.79951)
(94.433 -149.459 -13.413)
(78.6231 -196.939 -7.59333)
(85.4297 -159.787 -17.5728)
(72.0175 -201.61 -7.90109)
(77.0954 -165.907 -16.7218)
(67.6607 -204.067 -7.65985)
(71.1909 -169.193 -15.5881)
(64.8933 -205.44 -7.39483)
(67.3032 -171.025 -14.7252)
(63.0635 -206.273 -7.18391)
(64.6847 -172.133 -14.1042)
(61.7692 -206.828 -7.02212)
(62.8241 -172.904 -13.6471)
(81.0353 -164.037 0.510717)
(85.501 -130.506 -9.64102)
(71.2326 -173.564 -4.46558)
(75.7064 -140.345 -13.3859)
(64.4698 -178.061 -4.92249)
(67.4565 -146.123 -12.6371)
(60.1184 -180.404 -4.76002)
(61.8057 -149.201 -11.6305)
(57.4129 -181.693 -4.54799)
(58.1737 -150.895 -10.8786)
(55.6675 -182.457 -4.37835)
(55.7873 -151.901 -10.3532)
(54.4707 -182.957 -4.25384)
(54.1381 -152.58 -9.9805)
(74.1204 -146.992 3.18476)
(77.1163 -117.217 -6.06335)
(64.1805 -154.98 -1.46044)
(67.2083 -125.796 -9.22524)
(57.4318 -158.959 -2.00836)
(59.2347 -130.912 -8.62038)
(53.1902 -161.022 -1.9283)
(53.9135 -133.627 -7.78681)
(50.6055 -162.144 -1.77739)
(50.5624 -135.108 -7.17113)
(48.9767 -162.794 -1.65362)
(48.4093 -135.972 -6.75101)
(47.8935 -163.215 -1.56677)
(46.9604 -136.544 -6.46325)
(67.7758 -134.325 4.27997)
(69.8266 -107.982 -3.91032)
(58.0549 -140.623 0.377034)
(60.2142 -115.054 -6.30524)
(51.4977 -143.933 -0.146607)
(52.6486 -119.384 -5.76865)
(47.4569 -145.644 -0.10593)
(47.7002 -121.678 -5.06847)
(45.0362 -146.565 0.00594769)
(44.6354 -122.919 -4.56137)
(43.5414 -147.089 0.0988767)
(42.7044 -123.633 -4.22363)
(42.5745 -147.427 0.161174)
(41.4356 -124.095 -3.99992)
(61.6387 -123.342 4.07961)
(63.1318 -100.26 -2.99495)
(52.4726 -128.198 1.09045)
(54.105 -105.986 -4.57584)
(46.2941 -130.845 0.676641)
(47.0813 -109.541 -4.0437)
(42.5467 -132.212 0.714529)
(42.5617 -111.421 -3.43755)
(40.3317 -132.942 0.806558)
(39.7998 -112.433 -3.0123)
(38.9862 -133.349 0.880675)
(38.0867 -113.007 -2.73647)
(38.1348 -133.612 0.92802)
(36.9827 -113.371 -2.55942)
(55.3851 -112.296 3.14828)
(56.6364 -92.4639 -2.80021)
(47.0086 -116.269 1.05125)
(48.3611 -97.3011 -3.65631)
(41.4475 -118.351 0.782549)
(42.0621 -100.164 -3.12287)
(38.1197 -119.417 0.831404)
(38.0694 -101.665 -2.6019)
(36.1669 -119.986 0.909459)
(35.6483 -102.471 -2.24873)
(34.9883 -120.308 0.966797)
(34.1555 -102.935 -2.02493)
(34.2411 -120.493 1.00274)
(33.1937 -103.207 -1.88233)
(48.9377 -100.309 2.09174)
(50.1785 -83.7536 -2.7593)
(41.5135 -103.876 0.744674)
(42.7705 -88.1327 -3.06793)
(36.7164 -105.571 0.602764)
(37.3055 -90.4766 -2.5594)
(33.8737 -106.421 0.655594)
(33.8838 -91.6803 -2.12756)
(32.2079 -106.87 0.717464)
(31.8145 -92.3234 -1.84493)
(31.1994 -107.124 0.759798)
(30.5357 -92.6939 -1.66852)
(30.5568 -107.271 0.78431)
(29.7071 -92.9125 -1.55739)
(42.362 -87.1106 1.39675)
(43.7355 -73.8345 -2.43003)
(36.0431 -90.614 0.538838)
(37.3379 -78.0855 -2.47362)
(32.0108 -92.0814 0.457274)
(32.6952 -80.0898 -2.04882)
(29.6348 -92.7998 0.49447)
(29.8123 -81.0942 -1.71633)
(28.242 -93.1773 0.533375)
(28.0708 -81.6284 -1.50463)
(27.3955 -93.39 0.558044)
(26.991 -81.9357 -1.37439)
(26.8524 -93.5126 0.570525)
(26.2865 -82.1169 -1.29321)
(35.6669 -72.711 1.20427)
(37.2334 -62.64 -1.64034)
(30.4771 -76.2907 0.523811)
(31.894 -66.9432 -1.72961)
(27.1449 -77.6059 0.448424)
(28.0024 -68.7282 -1.43362)
(25.1905 -78.2397 0.454645)
(25.602 -69.6043 -1.21045)
(24.0485 -78.565 0.467004)
(24.1597 -70.0607 -1.07203)
(23.3556 -78.7363 0.475289)
(23.2691 -70.3117 -0.987956)
(22.9228 -78.8716 0.475574)
(22.6993 -70.4883 -0.938608)
(29.458 -58.7271 1.2738)
(31.1751 -51.3977 -0.710817)
(25.2764 -62.3273 0.554976)
(26.8357 -55.7543 -1.03197)
(22.5192 -63.4731 0.484164)
(23.5709 -57.3536 -0.849711)
(20.912 -64.0394 0.466776)
(21.5687 -58.1446 -0.716845)
(19.9814 -64.3306 0.457684)
(20.3773 -58.5552 -0.638671)
(19.4238 -64.4828 0.450627)
(19.6515 -58.7775 -0.59379)
(19.0803 -64.5925 0.442009)
(19.1945 -58.9251 -0.569504)
(24.2553 -46.9389 1.2411)
(26.0218 -41.6281 -0.0807012)
(20.8709 -50.3857 0.508831)
(22.5223 -45.8793 -0.562572)
(18.561 -51.3439 0.475437)
(19.7584 -47.2923 -0.433899)
(17.2245 -51.8445 0.452315)
(18.0704 -48.0147 -0.35824)
(16.4559 -52.1035 0.434101)
(17.0726 -48.3894 -0.318901)
(16.0001 -52.2383 0.420197)
(16.4712 -48.59 -0.298762)
(15.7217 -52.3264 0.40822)
(16.0969 -48.715 -0.289571)
(19.823 -37.1498 1.06429)
(21.5402 -33.3012 0.228483)
(17.0843 -40.2952 0.403506)
(18.7506 -37.2755 -0.283962)
(15.1482 -41.0674 0.422017)
(16.4156 -38.5018 -0.167989)
(14.0373 -41.5032 0.401652)
(14.9938 -39.1582 -0.126989)
(13.4009 -41.7286 0.381549)
(14.1558 -39.4967 -0.111268)
(13.0261 -41.8452 0.365924)
(13.6543 -39.6755 -0.105829)
(12.7989 -41.9156 0.353578)
(13.345 -39.7827 -0.105269)
(16.0475 -29.1622 0.818264)
(17.634 -26.3585 0.314195)
(13.8396 -31.9163 0.290016)
(15.4371 -29.9259 -0.130003)
(12.2277 -32.516 0.348165)
(13.4814 -30.9636 -0.0159828)
(11.3105 -32.8868 0.331694)
(12.2925 -31.5466 0.00353518)
(10.7857 -33.0752 0.313368)
(11.592 -31.8425 0.00600862)
(10.4782 -33.1701 0.298854)
(11.1748 -31.9981 0.00357318)
(10.2928 -33.2258 0.287757)
(10.9192 -32.0885 -0.00023943)
(12.8365 -22.6879 0.579224)
(14.238 -20.6308 0.288301)
(11.0739 -25.0273 0.194082)
(12.5339 -23.7271 -0.0509983)
(9.74843 -25.4769 0.26942)
(10.9193 -24.5822 0.0554636)
(9.00006 -25.7839 0.255945)
(9.9382 -25.0848 0.0619514)
(8.57154 -25.9338 0.241152)
(9.35922 -25.3346 0.0583959)
(8.32131 -26.0082 0.229046)
(9.01554 -25.4641 0.0526998)
(8.17128 -26.0502 0.219862)
(8.80616 -25.5378 0.0473215)
(10.0897 -17.4092 0.382374)
(11.2827 -15.9086 0.2225)
(8.71172 -19.3506 0.121597)
(9.99484 -18.5247 -0.0144319)
(7.64367 -19.6782 0.1956)
(8.69101 -19.2132 0.0765145)
(7.04444 -19.9249 0.185319)
(7.89764 -19.6348 0.0767171)
(6.70057 -20.0405 0.175243)
(7.42779 -19.8396 0.0720574)
(6.50045 -20.0968 0.166091)
(7.14952 -19.9445 0.0658144)
(6.38107 -20.1287 0.158974)
(6.98088 -20.0042 0.0603511)
(7.78714 -13.1745 0.23778)
(8.7696 -12.0886 0.153857)
(6.73361 -14.7443 0.0717912)
(7.82032 -14.2374 -0.000604427)
(5.89095 -14.974 0.133228)
(6.79111 -14.7754 0.0702239)
(5.42071 -15.1667 0.126924)
(6.16314 -15.1175 0.0693667)
(5.15007 -15.2528 0.122237)
(5.78955 -15.2804 0.0669623)
(4.99286 -15.2939 0.11613)
(5.56856 -15.3626 0.0618808)
(4.89959 -15.317 0.110934)
(5.43524 -15.4096 0.0572012)
(5.90192 -9.83313 0.140361)
(6.68453 -9.0504 0.0982763)
(5.11187 -11.069 0.0398492)
(5.99741 -10.762 0.00257262)
(4.46066 -11.2224 0.084876)
(5.20209 -11.1683 0.053091)
(4.09869 -11.3668 0.0826092)
(4.71533 -11.4352 0.0538736)
(3.88956 -11.4278 0.0832203)
(4.42444 -11.5588 0.0553143)
(3.76843 -11.4556 0.0801265)
(4.25264 -11.6225 0.0522107)
(3.69691 -11.4722 0.0766594)
(4.14921 -11.6572 0.0485252)
(4.36723 -7.19546 0.0781777)
(4.97069 -6.63926 0.0583796)
(3.79096 -8.13916 0.0203598)
(4.48644 -7.96185 0.00178526)
(3.30109 -8.23715 0.0501717)
(3.88837 -8.25831 0.0349001)
(3.02958 -8.34155 0.0508323)
(3.52116 -8.45935 0.0375496)
(2.87177 -8.38033 0.0557304)
(3.30027 -8.54816 0.0429602)
(2.78057 -8.39775 0.0559371)
(3.16991 -8.59355 0.0428527)
(2.72688 -8.40823 0.0544286)
(3.09176 -8.61962 0.0407683)
(3.12461 -5.11253 0.040702)
(3.57171 -4.72721 0.0323125)
(2.72042 -5.80573 0.00881075)
(3.24372 -5.70789 -9.15488e-05)
(2.36537 -5.8635 0.0269338)
(2.81039 -5.91636 0.0200001)
(2.16892 -5.93487 0.0288418)
(2.54321 -6.06087 0.0233602)
(2.05365 -5.95628 0.0359336)
(2.381 -6.11994 0.0312385)
(1.98674 -5.96507 0.0396255)
(2.28518 -6.14891 0.0349622)
(1.94746 -5.96968 0.0406605)
(2.22779 -6.16562 0.0354532)
(2.12618 -3.47231 0.0192014)
(2.44091 -3.21691 0.016352)
(1.85927 -3.95288 0.00262119)
(2.23096 -3.90242 -0.00142427)
(1.61532 -3.9828 0.0126684)
(1.93303 -4.03958 0.00970207)
(1.48045 -4.03025 0.0144737)
(1.74861 -4.13783 0.0125159)
(1.40007 -4.03872 0.0211044)
(1.63507 -4.17168 0.020213)
(1.35267 -4.037 0.0274777)
(1.56741 -4.1864 0.0273601)
(1.32465 -4.03621 0.0317886)
(1.52676 -4.19328 0.0316068)
(1.32465 -2.17526 0.00768462)
(1.52827 -2.01983 0.0072454)
(1.16672 -2.4781 -0.000193314)
(1.40875 -2.45675 -0.00186916)
(1.01422 -2.491 0.00476688)
(1.2219 -2.5381 0.00360185)
(0.929976 -2.51881 0.00584428)
(1.1057 -2.59971 0.00526306)
(0.878611 -2.51889 0.0100304)
(1.03275 -2.61609 0.0104319)
(0.847014 -2.50983 0.0167217)
(0.988072 -2.61686 0.0184562)
(0.827738 -2.50217 0.0241628)
(0.960544 -2.61448 0.0266338)
(0.680124 -1.14692 0.00232439)
(0.791721 -1.0685 0.00263054)
(0.610005 -1.30322 -0.000971873)
(0.743422 -1.29984 -0.00154331)
(0.532511 -1.30313 0.00110002)
(0.647488 -1.3392 0.000719156)
(0.489601 -1.31674 0.00147828)
(0.587113 -1.37004 0.00134841)
(0.46253 -1.31406 0.00299397)
(0.548333 -1.3758 0.00345144)
(0.444636 -1.30291 0.00721376)
(0.523142 -1.36998 0.00884411)
(0.432236 -1.28891 0.0149324)
(0.505975 -1.35698 0.017717)
(0.16347 -0.330678 0.000358383)
(0.200712 -0.313852 0.000579873)
(0.163635 -0.36686 -0.000704657)
(0.207305 -0.37451 -0.000777448)
(0.147447 -0.360859 -0.000172023)
(0.185388 -0.381567 -0.000188666)
(0.137862 -0.362246 -0.000140314)
(0.170331 -0.388934 -9.62044e-05)
(0.131096 -0.358715 -0.000236735)
(0.159841 -0.389157 -3.32437e-05)
(0.125813 -0.351856 0.000119936)
(0.152244 -0.383245 0.000617355)
(0.120431 -0.339188 0.00401022)
(0.145082 -0.37034 0.0052128)
(72.1055 -372.323 -0.00382193)
(71.7534 -366.655 -0.0247423)
(71.8508 -372.345 -0.00365248)
(71.4031 -366.696 -0.0215614)
(71.635 -372.36 -0.00350086)
(71.1142 -366.724 -0.0188166)
(71.3722 -372.37 -0.00355034)
(70.7699 -366.753 -0.0164037)
(70.9145 -372.38 -0.003737)
(70.1768 -366.798 -0.01302)
(69.8066 -372.394 -0.00339135)
(68.7301 -366.891 -0.00371483)
(72.2764 -370.035 -0.0347352)
(73.5852 -362.839 -0.173684)
(71.9594 -370.084 -0.0329389)
(72.9968 -362.929 -0.160406)
(71.6903 -370.12 -0.0311716)
(72.5048 -362.996 -0.148124)
(71.3625 -370.153 -0.0292268)
(71.9141 -363.066 -0.133791)
(70.7887 -370.196 -0.0261559)
(70.8893 -363.174 -0.110543)
(69.3818 -370.26 -0.017209)
(68.3772 -363.382 -0.0556897)
(72.5362 -367.033 -0.128757)
(75.769 -357.924 -0.51039)
(72.1452 -367.116 -0.122992)
(74.9346 -358.073 -0.481686)
(71.8123 -367.179 -0.117295)
(74.2303 -358.186 -0.454401)
(71.4068 -367.241 -0.110312)
(73.3777 -358.308 -0.42072)
(70.6944 -367.327 -0.0981844)
(71.8833 -358.499 -0.361726)
(68.9292 -367.468 -0.0659272)
(68.1715 -358.867 -0.21531)
(72.9117 -363.082 -0.319268)
(78.2637 -351.601 -1.10837)
(72.4342 -363.208 -0.30605)
(77.183 -351.817 -1.05681)
(72.0269 -363.304 -0.293569)
(76.2655 -351.982 -1.00877)
(71.5307 -363.403 -0.278276)
(75.1481 -352.164 -0.949379)
(70.6562 -363.547 -0.250756)
(73.1715 -352.455 -0.84166)
(68.4717 -363.794 -0.175199)
(68.1845 -353.036 -0.552455)
(73.4263 -357.884 -0.654148)
(80.9628 -343.502 -2.04936)
(72.8505 -358.06 -0.629265)
(79.6445 -343.79 -1.96623)
(72.3587 -358.195 -0.606248)
(78.5221 -344.012 -1.89043)
(71.7592 -358.338 -0.578066)
(77.15 -344.259 -1.79753)
(70.7003 -358.554 -0.526782)
(74.7068 -344.662 -1.62757)
(68.0395 -358.946 -0.383983)
(68.459 -345.5 -1.15019)
(74.0885 -351.062 -1.19301)
(83.6664 -333.216 -3.42209)
(73.4048 -351.293 -1.15137)
(82.1313 -333.58 -3.29699)
(72.82 -351.473 -1.11339)
(80.8231 -333.86 -3.18509)
(72.107 -351.668 -1.06707)
(79.2209 -334.174 -3.04922)
(70.8458 -351.968 -0.982765)
(76.3571 -334.691 -2.80156)
(67.6644 -352.541 -0.747383)
(68.9672 -335.811 -2.09878)
(74.8528 -342.181 -2.00227)
(86.0301 -320.359 -5.28609)
(74.0563 -342.471 -1.93877)
(84.3126 -320.796 -5.10903)
(73.3742 -342.699 -1.88137)
(82.8497 -321.134 -4.95296)
(72.5425 -342.95 -1.8115)
(81.0574 -321.513 -4.76453)
(71.0699 -343.344 -1.68428)
(77.8489 -322.141 -4.42277)
(67.3476 -344.125 -1.32981)
(69.5321 -323.537 -3.46144)
(75.5515 -330.821 -3.10373)
(87.5427 -304.72 -7.57189)
(74.6437 -331.167 -3.01291)
(85.6891 -305.217 -7.33328)
(73.8661 -331.44 -2.93161)
(84.1131 -305.603 -7.12577)
(72.918 -331.744 -2.8331)
(82.184 -306.036 -6.87658)
(71.2391 -332.23 -2.65484)
(78.7326 -306.758 -6.42872)
(66.9968 -333.231 -2.16368)
(69.7831 -308.401 -5.19287)
(75.9754 -316.568 -4.50439)
(87.7476 -286.233 -10.1976)
(74.9691 -316.965 -4.38308)
(85.8205 -286.784 -9.89329)
(74.107 -317.281 -4.27572)
(84.1856 -287.212 -9.63164)
(73.0558 -317.635 -4.14659)
(82.1875 -287.695 -9.31872)
(71.1946 -318.208 -3.9144)
(78.6175 -288.499 -8.76012)
(66.4992 -319.418 -3.27969)
(69.3773 -290.338 -7.24242)
(75.7309 -299.256 -6.0792)
(86.1332 -265.342 -12.8019)
(74.6496 -299.692 -5.92646)
(84.1975 -265.924 -12.4353)
(73.7233 -300.038 -5.7922)
(82.5595 -266.377 -12.1222)
(72.5939 -300.429 -5.63151)
(80.5615 -266.889 -11.7482)
(70.5962 -301.07 -5.34464)
(77.0008 -267.744 -11.0842)
(65.5755 -302.455 -4.57229)
(67.8256 -269.72 -9.31026)
(74.3782 -279.049 -7.53271)
(82.4605 -242.777 -14.8804)
(73.2581 -279.514 -7.3541)
(80.5846 -243.383 -14.4675)
(72.2987 -279.885 -7.19824)
(79.0013 -243.854 -14.1171)
(71.1288 -280.305 -7.01281)
(77.0737 -244.388 -13.6991)
(69.062 -280.998 -6.6841)
(73.648 -245.282 -12.9602)
(63.8936 -282.517 -5.81005)
(64.8685 -247.342 -11.012)
(71.5048 -256.327 -8.48818)
(76.7872 -219.217 -15.9675)
(70.3871 -256.808 -8.2956)
(75.0298 -219.826 -15.5361)
(69.4302 -257.19 -8.12832)
(73.5498 -220.3 -15.1713)
(68.2635 -257.626 -7.9302)
(71.7517 -220.839 -14.7361)
(66.2057 -258.349 -7.58088)
(68.5655 -221.745 -13.9694)
(61.0952 -259.948 -6.66296)
(60.4542 -223.83 -11.9708)
(66.8678 -232.08 -8.36835)
(69.4919 -195.838 -15.4656)
(65.7962 -232.562 -8.17995)
(67.9002 -196.434 -15.0521)
(64.8785 -232.943 -8.01677)
(66.5624 -196.898 -14.7032)
(63.7601 -233.377 -7.82463)
(64.9397 -197.426 -14.2875)
(61.791 -234.102 -7.48761)
(62.0727 -198.316 -13.5571)
(56.9419 -235.713 -6.61077)
(54.8259 -200.357 -11.6716)
(60.6557 -207.3 -6.86742)
(61.2225 -173.495 -13.2566)
(59.6608 -207.743 -6.70164)
(59.8177 -174.04 -12.8923)
(58.8098 -208.107 -6.56063)
(58.6395 -174.476 -12.5871)
(57.7717 -208.524 -6.39536)
(57.2119 -174.973 -12.2239)
(55.9471 -209.22 -6.10553)
(54.6964 -175.81 -11.5871)
(51.5233 -210.764 -5.36168)
(48.4183 -177.724 -9.96637)
(53.467 -183.365 -4.13752)
(52.7504 -153.093 -9.66692)
(52.5779 -183.759 -4.00795)
(51.5444 -153.576 -9.37258)
(51.812 -184.084 -3.89854)
(50.5288 -153.961 -9.12617)
(50.874 -184.46 -3.77276)
(49.2968 -154.402 -8.83498)
(49.228 -185.08 -3.55516)
(47.1314 -155.144 -8.32835)
(45.3315 -186.437 -3.01184)
(41.8284 -156.816 -7.06943)
(47.0016 -163.539 -1.48504)
(45.7615 -136.962 -6.22161)
(46.2198 -163.876 -1.39116)
(44.7297 -137.374 -5.99475)
(45.5386 -164.15 -1.3128)
(43.8547 -137.701 -5.80505)
(44.6998 -164.464 -1.22616)
(42.7898 -138.074 -5.5835)
(43.2291 -164.984 -1.08058)
(40.9209 -138.701 -5.20266)
(39.831 -166.088 -0.726987)
(36.4313 -140.083 -4.27981)
(41.7876 -147.672 0.218593)
(40.3975 -124.427 -3.81291)
(41.0988 -147.95 0.285881)
(39.5042 -124.771 -3.6369)
(40.4922 -148.173 0.340419)
(38.7414 -125.041 -3.49059)
(39.7404 -148.426 0.397252)
(37.8094 -125.346 -3.32223)
(38.4221 -148.84 0.488663)
(36.1746 -125.859 -3.03676)
(35.4432 -149.695 0.705248)
(32.3169 -126.962 -2.36182)
(37.4475 -133.795 0.968329)
(36.0858 -113.63 -2.41356)
(36.8417 -134.021 1.01658)
(35.3091 -113.915 -2.2752)
(36.3026 -134.199 1.0536)
(34.6412 -114.135 -2.16148)
(35.6305 -134.396 1.08854)
(33.822 -114.381 -2.03322)
(34.4509 -134.715 1.14034)
(32.3849 -114.792 -1.81968)
(31.8371 -135.359 1.25955)
(29.0453 -115.654 -1.32831)
(33.6483 -120.644 1.03256)
(32.4211 -103.417 -1.76685)
(33.1182 -120.824 1.06866)
(31.7469 -103.654 -1.65535)
(32.6442 -120.967 1.09348)
(31.1664 -103.834 -1.56592)
(32.05 -121.122 1.11284)
(30.4531 -104.032 -1.4682)
(31.0062 -121.369 1.13608)
(29.2011 -104.36 -1.31001)
(28.7248 -121.862 1.18595)
(26.3071 -105.033 -0.955865)
(30.0437 -107.391 0.802992)
(29.0369 -93.0794 -1.46817)
(29.5857 -107.544 0.826557)
(28.455 -93.2858 -1.38132)
(29.1742 -107.666 0.840113)
(27.955 -93.4401 -1.31363)
(28.6565 -107.793 0.84599)
(27.3409 -93.6022 -1.24267)
(27.7452 -107.989 0.845999)
(26.2623 -93.8661 -1.13159)
(25.7689 -108.373 0.844105)
(23.7632 -94.3857 -0.888394)
(26.4174 -93.6182 0.578304)
(25.714 -82.2583 -1.22895)
(26.0282 -93.7553 0.589343)
(25.2181 -82.4441 -1.16601)
(25.6773 -93.8658 0.591827)
(24.7933 -82.5808 -1.11902)
(25.2342 -93.9771 0.58503)
(24.2714 -82.7198 -1.07267)
(24.4517 -94.1413 0.564175)
(23.3538 -82.9382 -1.00358)
(22.7675 -94.4566 0.518209)
(21.2212 -83.3504 -0.85613)
(22.5621 -78.9462 0.469657)
(22.2219 -70.5967 -0.901032)
(22.2424 -79.0803 0.465348)
(21.8102 -70.7726 -0.864623)
(21.9498 -79.1839 0.45578)
(21.4545 -70.8996 -0.839079)
(21.577 -79.2878 0.436652)
(21.0155 -71.0248 -0.816628)
(20.9156 -79.432 0.397744)
(20.2409 -71.2115 -0.786051)
(19.5123 -79.6962 0.317875)
(18.4568 -71.5472 -0.723312)
(18.7967 -64.6681 0.430078)
(18.8142 -59.0287 -0.552566)
(18.5374 -64.7856 0.418375)
(18.4771 -59.1853 -0.535692)
(18.297 -64.8835 0.402636)
(18.1821 -59.3041 -0.52608)
(17.9866 -64.9812 0.377201)
(17.8139 -59.4209 -0.521103)
(17.4328 -65.1114 0.328609)
(17.1611 -59.5873 -0.518742)
(16.2808 -65.3347 0.230013)
(15.6838 -59.8714 -0.517502)
(15.4967 -52.4009 0.394731)
(15.7903 -48.8165 -0.284953)
(15.2862 -52.5048 0.38071)
(15.5132 -48.9567 -0.280122)
(15.0892 -52.5969 0.363567)
(15.2686 -49.0683 -0.280097)
(14.8317 -52.6865 0.337663)
(14.9599 -49.1772 -0.285164)
(14.3698 -52.802 0.289481)
(14.4097 -49.3264 -0.29837)
(13.424 -52.989 0.193487)
(13.1829 -49.5711 -0.32905)
(12.6193 -41.9846 0.340813)
(13.0962 -39.8782 -0.107311)
(12.4495 -42.0758 0.327295)
(12.8695 -40.0041 -0.109187)
(12.2894 -42.1595 0.311488)
(12.6679 -40.1084 -0.114145)
(12.0777 -42.2401 0.288386)
(12.4107 -40.2087 -0.123945)
(11.6954 -42.3375 0.246073)
(11.9498 -40.3381 -0.143907)
(10.9224 -42.4864 0.163279)
(10.9337 -40.543 -0.187216)
(10.1495 -33.2866 0.276846)
(10.7176 -32.1739 -0.00527547)
(10.0142 -33.3667 0.265261)
(10.534 -32.2879 -0.0102303)
(9.88579 -33.4428 0.252074)
(10.3695 -32.3843 -0.0170933)
(9.71378 -33.5133 0.233161)
(10.1577 -32.4746 -0.0281865)
(9.40104 -33.5914 0.198863)
(9.77535 -32.5836 -0.0493679)
(8.77397 -33.7016 0.132986)
(8.93932 -32.7474 -0.0937185)
(8.058 -26.1031 0.211134)
(8.64427 -25.6136 0.0415182)
(7.95198 -26.1754 0.201921)
(8.49765 -25.7156 0.0356542)
(7.85081 -26.244 0.191651)
(8.36575 -25.804 0.0286529)
(7.71328 -26.3047 0.177097)
(8.19379 -25.8834 0.0182244)
(7.46092 -26.3661 0.150886)
(7.88069 -25.9724 -0.00100327)
(6.95752 -26.4401 0.101554)
(7.19981 -26.0937 -0.0399081)
(6.29263 -20.1721 0.152358)
(6.85278 -20.0694 0.054924)
(6.2112 -20.2367 0.145468)
(6.73797 -20.1604 0.0494337)
(6.13313 -20.2981 0.137882)
(6.63435 -20.2399 0.0432775)
(6.02505 -20.3485 0.127138)
(6.49703 -20.3087 0.0343968)
(5.82435 -20.3921 0.107736)
(6.24454 -20.3772 0.0182028)
(5.42477 -20.4299 0.0719318)
(5.69692 -20.4545 -0.0135831)
(4.83184 -15.3523 0.106097)
(5.3357 -15.4649 0.0525997)
(4.77091 -15.4097 0.101088)
(5.24808 -15.5472 0.0477597)
(4.7121 -15.4645 0.0955879)
(5.16862 -15.6182 0.0425215)
(4.62882 -15.5069 0.0877021)
(5.06135 -15.6767 0.0351667)
(4.47145 -15.5348 0.0731931)
(4.86107 -15.7258 0.0218316)
(4.15765 -15.5369 0.0467497)
(4.4263 -15.7615 -0.0035601)
(3.64623 -11.502 0.0733312)
(4.07374 -11.7052 0.0448658)
(3.60234 -11.5545 0.069875)
(4.00912 -11.7792 0.0409692)
(3.55975 -11.6061 0.0658968)
(3.95031 -11.8444 0.0366919)
(3.49725 -11.642 0.0597824)
(3.86866 -11.8952 0.0304334)
(3.37633 -11.6583 0.047823)
(3.71291 -11.9283 0.0185739)
(3.13292 -11.6334 0.0265454)
(3.37266 -11.9278 -0.00316686)
(2.6901 -8.43383 0.0525509)
(3.03628 -8.65984 0.0382066)
(2.6603 -8.48487 0.050199)
(2.99105 -8.72901 0.0349331)
(2.63125 -8.53261 0.0470179)
(2.94965 -8.78987 0.0310234)
(2.58605 -8.56535 0.0415106)
(2.88951 -8.83447 0.0249507)
(2.49504 -8.57386 0.0297806)
(2.77113 -8.85602 0.0128285)
(2.3091 -8.52823 0.0111471)
(2.50921 -8.8246 -0.00680374)
(1.92207 -5.99253 0.0406433)
(2.18902 -6.20064 0.0346002)
(1.90383 -6.04141 0.0394597)
(2.15988 -6.26635 0.0320398)
(1.88593 -6.08772 0.0366622)
(2.13295 -6.32434 0.0280808)
(1.85481 -6.11755 0.0306298)
(2.09095 -6.36423 0.0211333)
(1.78832 -6.12012 0.0166569)
(2.00345 -6.37529 0.006363)