/*--------------------------------*- C++ -*----------------------------------*\
| =========                 |                                                 |
| \\      /  F ield         | OpenFOAM: The Open Source CFD Toolbox           |
|  \\    /   O peration     | Version:  2206                                  |
|   \\  /    A nd           | Website:  www.openfoam.com                      |
|    \\/     M anipulation  |                                                 |
\*---------------------------------------------------------------------------*/
FoamFile
{
    version     2.0;
    format      ascii;
    arch        "LSB;label=32;scalar=64";
    class       volScalarField;
    location    "40";
    object      epsilon;
}
// * * * * * * * * * * * * * * * * * * * * * * * * * * * * * * * * * * * * * //

dimensions      [0 2 -3 0 0 0 0];

internalField   nonuniform List<scalar> 
184166
(
2.89629
2.51188
2.48227
2.90401
2.75093
2.62061
2.27464
2.5706
2.90949
2.89388
2.83028
2.5293
2.53055
2.6762
2.79242
2.80551
2.82353
2.69398
2.46721
2.81572
2.43512
2.49647
2.58245
2.86908
2.72197
2.81424
2.74386
2.73568
2.77935
2.51753
2.80139
2.26565
3.20605
2.86771
2.79144
2.54142
2.51428
2.75125
2.70289
2.37111
2.7515
2.53888
2.78362
2.79364
2.78976
2.71974
2.33591
2.79497
2.70314
2.79225
2.32414
2.27018
2.3742
2.70356
2.76032
2.62133
2.71451
2.78059
2.93178
2.71235
2.51526
2.69608
2.84334
2.81081
3.24321
2.18914
2.37825
2.88056
2.25635
2.85519
2.47428
2.88391
2.86858
2.82346
2.49849
2.682
2.57612
2.81323
2.50129
2.28169
2.30613
2.47521
2.93659
2.78291
2.79298
2.8608
2.54097
2.42966
2.68297
2.43962
2.23206
2.75483
2.79317
3.31071
2.65661
2.4961
2.77836
2.27283
2.43037
2.79208
2.52375
2.52423
2.80446
2.78407
2.22539
2.56157
2.78555
2.73578
2.25358
2.52775
2.36827
2.85203
2.2116
2.42837
2.82286
2.74228
2.70262
2.43715
2.26483
2.41712
2.8316
2.52386
2.70524
2.67883
2.66878
2.69597
2.71384
2.6975
2.81409
2.79452
2.50362
2.68752
2.6751
2.66472
2.44732
2.53546
2.46271
2.6754
2.69046
2.36445
2.57047
2.29045
2.29217
2.52472
2.64295
2.82482
2.47688
2.78441
2.80292
3.30732
2.90824
3.12202
2.79463
2.78499
2.84355
3.07903
2.79277
2.90238
2.91235
2.37679
2.24798
2.31386
2.65108
2.48426
2.5075
2.71656
2.80135
2.82628
2.24546
2.81596
2.71654
2.65856
2.57293
2.90144
2.68377
2.29287
2.37259
2.91805
2.8213
2.67703
2.24674
2.66936
2.68381
2.79542
2.90229
2.55467
2.8114
3.1512
2.26604
2.73099
2.66979
2.86413
2.59398
2.26102
2.87358
2.84627
2.78981
2.85078
2.83343
2.79235
2.76801
2.78404
2.25037
2.67159
2.33002
2.77347
2.53465
2.51623
2.65773
2.66461
3.09023
2.67768
2.54138
2.82492
2.44568
2.55566
2.78444
2.66935
2.25593
2.26561
2.46158
2.55646
2.59005
2.6725
2.30332
2.52116
2.44545
2.75985
2.70778
2.89909
3.19224
2.41295
2.5524
2.69757
2.82174
2.60367
2.90936
2.84867
2.70303
2.26817
2.21216
2.81788
2.5636
2.80485
2.38765
2.74785
2.78783
2.53158
2.94997
2.90303
2.70836
3.22845
2.85669
2.51711
2.69618
2.85305
2.75977
2.80266
2.7301
2.60311
2.71094
2.39936
2.75913
2.62799
2.83543
2.65609
2.79896
2.38468
2.69344
2.73257
2.78748
2.29765
2.67134
2.82665
2.5259
2.67011
2.22157
2.74282
2.52924
2.72798
2.50536
3.36113
2.73547
2.70931
2.38285
2.52804
2.97145
3.0782
2.65412
2.75191
2.81058
2.76158
2.78151
2.80138
2.94904
2.78665
2.62423
3.04275
2.77108
3.09169
2.68282
2.59671
2.25972
2.80065
3.15566
2.64397
2.66049
2.74178
2.31391
2.22487
2.69703
2.87963
2.82404
2.84616
2.88828
2.7448
2.61044
2.77934
2.64629
2.75522
2.46095
2.48437
2.73461
2.84003
2.70138
2.23089
2.7101
2.60785
2.50355
2.68769
2.77672
2.36094
2.35839
2.81329
2.27791
2.72949
2.61682
2.56913
2.83036
2.72876
2.66219
3.02662
3.24448
2.90547
2.78808
2.90772
2.37625
2.25644
2.49368
2.31619
2.30263
2.70898
2.9229
2.38543
2.44108
2.85055
2.80285
2.64301
2.83333
2.85438
2.52447
2.22852
2.82168
2.43979
2.78011
2.81251
2.22729
2.41527
2.4128
2.20826
2.23378
3.04038
3.19759
2.8984
2.94152
2.9074
2.72733
2.79375
2.51905
2.72893
2.74768
2.75644
2.80774
2.8375
2.72091
2.85883
2.85479
2.51819
2.50124
2.52481
2.68008
2.71274
2.74338
2.24941
2.58629
2.24454
2.89165
2.64326
2.55349
2.69209
2.93415
2.64118
3.03156
2.74865
2.37564
2.71774
2.8483
2.84614
2.76782
2.47788
2.65946
2.52674
2.52518
2.49137
2.50213
2.48684
2.73268
2.38019
2.36769
2.32038
3.10713
2.64394
2.64048
2.66219
2.75038
2.23663
2.23728
2.24196
2.49575
2.48088
2.49245
2.27502
3.19202
2.99698
3.10299
3.07704
2.94412
3.04314
2.73056
2.72934
2.70922
2.7116
2.77522
2.74718
2.76524
2.73662
2.95192
3.02134
2.78638
2.80385
2.77627
2.76854
2.7755
2.7914
2.7587
2.70381
2.67766
2.67529
2.68268
2.87052
2.73685
2.27917
2.24342
2.24791
2.23781
2.29282
2.22581
2.28381
2.70752
2.72876
2.73457
2.75909
2.81733
2.75322
2.59931
2.54635
2.57766
2.84526
2.81073
2.78256
2.79124
2.78253
2.23987
2.19849
2.53343
2.54021
2.53264
2.51856
2.5162
2.51905
2.7875
2.64135
2.62101
2.63824
2.64774
2.85222
2.77443
2.79614
2.81891
2.85581
2.79952
2.79862
2.76959
2.70379
2.71023
2.69938
2.75962
2.70682
2.42637
2.77254
2.84685
2.19892
2.24813
2.20538
2.76396
2.85589
2.86561
2.82866
2.83038
2.83219
2.86132
2.86133
2.93021
2.67622
2.69792
2.70949
2.71629
2.84253
2.84929
2.96071
2.91888
3.27637
3.09621
3.28037
2.96493
2.90526
2.91658
2.83313
3.01323
3.21431
3.12484
2.94034
3.03101
2.75371
2.72969
2.7467
2.71563
2.28173
2.60664
2.56283
2.51779
2.59757
2.55691
2.58947
2.59673
2.52829
2.54991
2.50407
2.44175
2.85219
2.8177
2.84666
2.8327
2.80129
2.81443
2.79306
2.80473
2.71275
2.68504
2.73567
2.73111
2.73608
2.74543
2.79102
3.5127
2.29063
2.3695
2.26001
2.25429
2.24427
2.25513
2.84606
2.82593
2.93237
2.90566
2.96117
2.92995
2.89328
2.97001
2.75329
2.74849
2.81409
2.85766
2.8279
2.20475
2.62142
2.58805
2.58435
2.85541
2.81509
2.80628
2.80964
2.86743
2.82887
2.82518
2.8204
2.80712
2.7663
2.82685
2.52024
2.55144
2.65276
2.57109
2.85778
2.89014
2.87595
2.87517
2.94892
2.88008
2.92513
2.90773
2.63638
2.68978
2.66464
2.68662
2.84964
2.84982
2.73865
2.64491
2.62912
2.62447
2.66175
2.67315
2.87633
2.92967
2.68217
2.6798
2.7413
2.94618
2.76628
2.70652
2.69764
2.89561
3.09805
2.88877
2.86187
2.91922
3.10159
2.92487
2.89594
2.28361
2.35082
2.69333
2.80188
2.86701
2.78369
2.61802
2.97171
2.87125
2.94459
2.92651
2.86081
2.91895
2.25331
2.92681
2.94711
2.94794
2.91861
2.55408
2.87327
2.93166
2.82848
3.29772
3.09798
3.27976
2.29688
2.2411
2.2344
2.28965
2.295
2.23387
2.70878
2.39912
2.46645
3.07482
2.90817
2.95945
2.56974
2.54461
2.56926
2.55336
2.54405
2.55519
2.86763
3.05563
2.85936
2.83071
3.07157
3.21742
2.55778
2.54844
2.82225
2.66423
2.59551
2.59691
2.38179
2.57191
2.74349
2.74747
2.72169
2.72352
2.71356
2.5398
2.52409
2.53925
2.5258
2.4855
2.62201
2.82558
2.81861
2.82328
2.65464
2.70744
2.61287
2.61481
2.63759
2.71817
2.58178
2.59745
2.77675
2.82839
2.83902
2.83667
2.6703
2.68791
2.51206
2.53376
2.53646
2.8041
2.69907
2.80667
2.85882
2.5354
2.67148
2.26331
2.25198
2.24997
2.79252
2.48558
2.54756
2.42764
2.8025
2.62378
2.77977
2.75996
2.64373
2.66763
2.65554
2.65709
2.67195
2.58752
2.70285
2.60952
2.52642
2.5184
2.52667
2.52204
2.51847
2.51932
2.5098
2.50696
2.50153
2.733
2.50242
2.52379
2.52476
2.5178
2.7535
2.73188
2.75436
2.75193
2.80338
2.82303
2.80643
2.89302
2.63703
2.63294
2.59498
2.42499
2.44113
2.25916
2.26127
2.26943
2.26528
2.59191
2.45961
2.46824
2.483
2.52526
2.54343
2.65432
2.6683
2.81783
2.78591
2.79382
2.83584
2.64617
2.66557
2.69993
2.57852
2.51638
2.51454
2.5167
2.51393
2.23682
2.25394
2.80571
2.79976
2.2561
2.24766
2.24093
2.25527
2.77499
2.31744
2.39566
2.33094
2.34646
2.51877
2.54073
2.54065
2.53043
2.9034
2.7024
2.72877
2.69121
2.65301
2.6631
2.68784
2.73673
2.55725
2.53038
2.59216
2.53692
2.6566
2.51356
2.90337
3.01398
3.08271
3.33973
2.81597
2.80571
2.64516
2.58945
2.59625
2.6547
2.19877
2.16375
3.14647
2.82399
2.71514
2.78516
2.70204
2.771
2.16996
2.15713
2.95632
2.976
2.84748
2.85972
2.83916
2.4023
2.75713
2.50257
2.68887
2.26724
2.27257
2.79102
2.80514
2.78376
2.78993
2.78964
2.79762
2.24043
2.30966
2.43151
2.40106
2.73747
2.87957
2.70514
2.73157
2.3028
2.32346
2.84824
2.81877
2.79
2.79138
2.67355
2.6465
2.65879
2.67558
2.84047
2.81347
2.8301
2.41618
2.58289
2.46603
2.6133
2.61742
2.65902
2.64244
2.86825
2.80833
2.79233
2.83676
2.91075
2.93438
2.88211
2.87629
2.86393
2.85725
2.78658
2.7557
2.79046
2.89062
3.10001
2.66016
2.60424
2.52719
2.54825
2.54679
2.52663
2.52575
2.53049
2.51724
2.52915
2.62183
2.75691
2.6852
2.66729
2.67392
2.68063
2.86592
2.90933
2.7893
2.72208
2.73157
2.56134
2.78989
2.79843
2.79498
2.79504
2.38213
2.3528
2.37565
2.37176
2.35433
2.68034
2.70309
2.69827
3.03994
3.05487
2.79061
2.83987
2.95152
2.93351
2.82619
3.04356
2.8483
2.76295
2.76657
2.56351
2.57897
2.5123
2.63687
2.60984
2.64117
2.65549
2.66088
2.86546
2.83448
2.82647
2.83037
2.8201
2.97443
3.07069
2.94311
3.47398
2.74182
2.69968
2.67346
2.53699
2.55703
2.56771
2.575
2.52226
2.71419
2.73576
2.7506
2.73288
2.41749
2.44763
2.41454
2.33193
2.71288
2.71129
2.77832
2.86301
2.82981
2.81784
3.10649
3.02569
2.73002
2.70778
2.73879
2.75299
2.27147
2.25105
2.23297
2.18953
2.78671
2.79345
2.79863
2.78658
2.721
2.72113
2.72405
2.96857
2.93391
2.93788
2.89766
2.90193
2.94949
2.72793
2.60235
2.67833
2.52546
2.57178
2.59599
2.59597
2.59777
2.94355
2.87348
2.87963
2.7876
2.86589
2.61596
2.59596
2.84204
2.67979
2.69953
2.72428
2.60885
2.62038
2.72883
2.70265
2.69951
3.20563
2.83638
2.85221
2.87063
2.83529
2.26371
2.22699
2.22412
2.48271
2.48179
2.7219
2.74859
2.70631
2.70178
2.62027
2.59784
2.39233
2.26759
2.64277
2.59407
2.61698
2.81701
2.80158
2.80265
2.71143
2.70958
2.26658
2.27435
2.26931
3.22991
3.26164
3.00056
2.98721
2.20797
2.18615
2.65365
2.65947
2.57599
2.41926
2.41763
3.18409
3.04832
2.82073
2.86113
2.8226
2.26117
2.26938
2.26295
2.24089
2.25075
2.61458
2.75721
2.70335
2.68688
2.64096
2.65117
3.01531
2.65587
2.65752
2.69123
2.66895
2.7161
2.82806
2.84468
2.815
2.81162
2.48524
2.497
2.48944
2.48319
2.90613
2.84431
2.8488
2.8755
2.83852
2.86451
2.71534
2.71437
2.6946
2.69187
2.70796
2.63933
2.52937
2.33358
2.36055
2.45676
2.31548
2.54246
2.37026
2.3351
2.43357
2.95903
3.00439
3.04848
2.60951
2.65963
2.60426
2.62945
2.68533
2.69567
2.70164
2.26715
2.25042
2.26976
2.27288
2.74091
2.64458
2.41024
2.28705
2.28378
2.15736
2.15847
2.5604
2.57956
2.58023
2.55384
2.56519
2.897
2.42992
2.35931
2.25856
2.24702
2.24301
2.23733
2.24456
2.66984
2.6094
2.62165
2.62205
2.66147
2.62914
2.7636
2.79982
2.63662
2.64978
2.62464
2.28275
2.30846
2.53947
2.55796
2.43219
2.42904
2.42147
2.78359
2.78205
2.78913
2.87016
2.91884
2.87835
2.86426
2.90003
2.93992
2.27544
2.33606
2.30036
2.4046
2.37148
2.49075
2.50149
2.29434
2.30459
2.65673
2.68831
2.68045
2.70194
2.28156
2.2534
2.29467
2.3009
2.64713
2.65344
2.60293
2.63396
2.53083
2.609
2.54523
2.59252
2.96831
2.97584
2.75474
2.68198
2.45137
2.7307
2.65317
2.67074
2.68002
2.29219
2.51035
2.47222
2.68866
2.58335
2.66026
2.50716
2.70575
2.71585
2.72117
2.6938
2.67328
2.68602
2.41464
2.42755
2.75065
2.79083
2.70373
2.7876
2.71456
2.79507
2.63502
2.6994
2.73492
2.62949
2.62598
2.58754
2.92295
2.91704
2.9418
2.93222
2.80078
2.81405
2.57255
2.59382
2.26146
2.27237
2.26424
2.23614
2.22571
2.26094
2.26535
2.2538
2.4956
2.49432
2.5083
2.51674
2.51052
2.68185
2.71163
2.71267
2.67794
2.69352
2.85703
2.86919
2.91034
2.86213
2.49168
2.49853
2.25748
2.25081
2.24973
2.25027
2.24724
3.01063
2.91548
2.70668
2.71026
2.72281
3.00568
2.91082
3.14277
2.84249
2.83243
2.73344
2.74759
2.75915
2.83872
2.73802
2.70127
2.7514
2.86761
2.81423
2.74296
2.84025
2.78494
2.86677
2.85642
2.88229
2.88274
2.73461
2.72744
2.65328
2.79922
2.79084
2.80826
2.84405
3.24144
2.16219
2.65348
2.67014
2.68265
2.66136
2.77105
2.79717
2.7825
2.79777
2.81088
2.17683
2.14918
2.16389
2.25629
2.26992
2.26338
2.25449
3.09472
2.93777
2.95421
2.87078
2.76723
2.70132
2.53151
2.83749
2.83994
2.37211
2.51874
2.38015
2.51644
2.49781
2.55317
2.54379
2.49945
2.56242
2.5901
2.60027
2.87484
2.28229
2.69899
2.60355
2.53651
2.39394
2.39215
2.38812
2.56556
2.55601
2.53194
2.72228
2.68038
2.64043
2.61664
2.50808
2.50759
2.49959
2.49689
2.51354
2.49406
2.73908
2.77487
2.77725
2.72864
2.76525
2.80368
2.60315
2.57855
2.88572
2.7776
2.81581
2.75435
2.15404
2.1442
2.80013
3.18424
2.75493
2.77428
2.77425
2.69999
2.64208
2.66185
2.24138
2.27546
2.26646
2.27208
2.25172
3.01883
2.92033
2.14456
2.67245
2.42546
2.54363
2.57445
2.43059
2.5475
2.50769
2.44607
2.87769
2.76319
2.83948
3.34266
3.5416
3.16128
2.69611
2.6999
2.26724
2.27081
2.26778
2.26954
2.27021
2.28034
2.79561
2.29954
2.22272
2.13762
2.19815
2.16177
2.78483
2.75821
2.67463
2.60459
2.68475
2.4642
2.51032
2.41805
2.26805
2.39447
2.32708
2.77175
2.78009
2.82154
2.82349
2.80659
2.7014
2.6726
2.26073
2.28593
2.72502
2.71252
2.67809
2.69735
2.55736
2.66461
2.64934
2.64712
2.56999
2.58838
2.48476
2.54746
2.53286
2.48662
2.51186
2.56949
2.54436
2.54932
2.54201
2.56304
2.57126
2.7634
2.76224
2.75633
2.75619
2.75449
2.36152
2.31689
2.55384
2.44221
2.61288
2.48849
2.75892
2.76407
2.78527
2.78765
2.53489
2.55952
2.54834
2.75454
2.68806
2.59034
2.66911
2.27174
2.27669
3.08637
3.17567
2.6692
2.65724
2.66775
2.61507
2.22236
2.19312
2.14531
2.22366
2.19215
2.81913
2.81668
2.77446
2.76507
2.76238
2.60932
2.65315
2.58758
2.43094
2.44741
2.42135
2.42476
2.25915
2.25805
2.25646
2.24946
2.5775
2.68586
2.65772
2.66188
2.54694
2.56203
2.72981
2.84977
2.95079
3.15348
2.87095
3.04322
3.14747
2.26661
2.3776
2.24342
2.28069
2.74218
2.71956
2.77061
2.74805
2.72386
2.27016
2.26072
2.26635
3.40234
3.39465
2.60755
2.58414
2.5681
2.30295
2.41182
2.44855
2.30896
2.80612
2.82133
2.84029
2.85315
2.85925
2.83998
2.73659
2.75358
2.7591
2.74899
3.03502
3.16934
2.40424
2.49421
2.32262
3.24679
2.74233
2.68929
2.68792
2.47816
3.03672
2.63104
2.6884
2.16001
2.42422
2.38781
2.41825
2.41571
2.39471
2.40417
2.22357
2.19893
2.31606
2.24242
2.43997
2.45039
2.43602
2.44086
2.44034
2.45145
2.43522
2.44604
2.62553
2.55959
2.68442
3.12718
3.26283
2.7631
2.25192
2.23436
2.25503
2.2406
3.06118
2.84913
2.86018
3.33025
3.14728
2.63364
2.42159
2.81581
2.80287
2.85253
2.33218
2.36805
2.30229
2.28779
2.54336
2.57722
2.66728
2.68909
2.68201
2.73657
2.77033
2.75786
2.9217
2.89733
3.03727
2.63665
2.74227
2.75317
2.61485
2.68713
2.88149
2.84277
2.85068
3.01298
3.25359
2.19227
2.1361
2.77095
2.78623
2.80985
2.80086
2.7755
2.78475
2.66197
2.67629
2.65772
2.65713
2.68132
2.67867
2.77899
2.79271
2.77938
2.78377
2.88459
2.86969
2.85522
2.8594
2.11979
2.10303
2.16927
2.20231
2.73278
2.73229
2.87961
2.923
2.88429
2.72162
2.72214
2.71643
2.82759
2.80695
2.82815
2.81589
2.83828
2.64385
2.5945
2.48372
2.49051
2.51951
2.49981
2.42827
2.44898
2.43766
2.48327
2.6004
2.62148
2.70326
2.69815
3.26923
3.28816
2.26504
2.25673
2.77609
2.77869
2.49812
2.45969
2.46793
2.44338
2.46006
2.47346
2.31035
2.28787
2.28175
2.26776
2.26522
2.31891
2.24871
2.65328
2.61207
2.64102
2.59067
2.73315
2.72406
2.7238
2.72517
2.72678
2.72027
2.87015
2.87617
2.88133
2.86816
2.89705
2.66031
2.67637
2.55015
2.51072
2.51717
2.69126
2.75202
2.74998
2.75876
2.57728
2.55764
2.15499
2.09372
2.41841
2.4827
2.61625
2.26001
2.22583
2.23464
2.27298
2.2478
2.79623
2.78375
2.78213
2.79886
2.81716
2.78309
2.83153
2.27822
2.30663
2.278
2.26728
2.33854
2.22175
2.35282
2.43052
2.47423
2.35922
2.21611
2.21651
2.16586
2.94202
2.93543
2.93187
2.8289
2.96671
2.60784
2.59752
2.43713
2.75806
2.76617
2.74507
2.74258
2.34103
2.54067
2.38593
2.43493
2.34371
2.33864
2.2807
2.39999
2.40525
2.27184
2.26292
3.21232
3.11015
2.90801
2.90297
2.87743
2.76381
2.53223
2.65788
2.99488
3.22484
3.05985
2.81869
2.80487
2.8213
2.46303
2.44389
2.29958
2.30342
2.42727
2.30228
2.6655
2.68399
2.66048
2.69936
2.58922
2.58425
2.57326
2.54816
2.55181
2.34063
2.26568
2.28214
2.57446
2.80457
2.5947
2.71065
2.80715
2.79449
2.69932
2.78145
2.74181
2.76786
2.89142
2.70928
2.70058
2.72317
2.73963
2.7465
2.21642
2.23854
2.2687
2.27129
2.67577
2.66357
2.23201
2.23213
2.90434
2.78333
2.84595
3.02371
2.10061
2.11933
2.1685
2.29895
2.24303
2.2314
2.52082
2.49182
2.64578
2.64603
2.62424
2.61854
2.45046
2.48382
2.63196
2.11994
2.49783
2.48928
2.46284
2.49483
2.46532
2.46004
2.49997
2.49006
2.50168
2.46348
2.44785
2.45342
2.51415
2.74906
2.74366
2.2355
2.26779
2.20647
2.64783
2.63843
2.64512
2.60695
2.597
2.58571
3.18361
3.03397
2.6848
2.76261
2.70375
2.82203
2.65025
2.71782
2.71133
2.68668
2.70366
2.51442
2.51183
2.51646
2.5167
2.51817
2.60643
2.57921
2.55642
2.60158
2.59285
2.72185
2.7133
2.70618
2.70149
2.71157
2.72292
2.77903
2.76547
2.77838
2.77949
2.76597
2.90741
2.85507
2.83685
2.86392
2.8405
2.55624
2.57345
2.5492
2.5745
2.56985
2.96086
2.87861
2.15518
2.38123
2.38791
2.43029
2.66378
2.59541
2.36903
2.33321
2.34142
3.30895
3.15815
3.38939
3.40456
2.78435
2.75495
2.94661
2.96625
2.83913
2.92193
2.93413
2.89241
2.53343
2.56548
2.79558
2.80966
2.80964
2.81359
2.55418
2.464
2.34928
2.6007
2.27905
2.40599
2.43632
2.34438
2.93417
3.13138
3.01536
3.50693
2.32578
2.44382
2.47072
2.64293
2.66093
2.55825
2.55198
2.7179
2.69166
4.4473
3.33578
3.17204
2.87536
2.84791
2.61088
2.71968
2.57968
2.44312
2.73516
2.74619
2.73683
2.73964
2.80981
2.79472
2.79697
2.79415
2.78609
2.78137
2.7943
2.78196
2.77342
2.56555
2.50697
2.71535
2.331
2.30595
2.40627
2.39476
2.61516
2.59047
2.60795
2.61596
2.59289
2.57775
2.64095
2.65236
2.66258
2.59531
2.70582
2.81657
3.1192
3.39643
2.57525
2.57611
2.60091
2.5878
2.5975
2.59021
2.74067
2.74214
2.72987
2.73104
2.7359
2.73091
3.05633
2.86356
3.26407
3.07839
2.80014
2.77611
2.78381
2.77317
2.77139
2.80714
2.82676
2.73204
2.73848
2.74123
2.5246
2.27846
2.69675
2.70789
2.63864
2.63945
2.62303
2.61326
2.62089
2.50578
2.49499
2.49845
2.51045
2.51043
2.56736
2.54711
2.55305
2.57257
2.56499
2.25397
2.24983
2.25818
2.26411
2.24768
2.25279
2.42436
2.26484
2.25736
2.30806
2.28115
2.27502
3.70419
2.77212
2.78038
2.78805
2.7829
2.77822
2.09347
2.76479
2.77966
2.76651
2.76711
2.77654
2.69284
2.70806
2.71279
2.70337
2.69605
2.58499
2.55605
2.60356
2.57867
2.57494
2.40193
2.48558
2.64351
2.56113
2.23404
2.23991
2.24998
2.29112
2.23571
2.24054
2.44252
2.41276
2.38169
2.35787
2.3812
2.34593
2.71182
2.69548
2.2023
2.15431
2.15819
2.24208
2.25129
2.89773
2.86406
2.86005
2.85397
2.85793
2.842
2.91832
2.87087
2.87963
2.8989
2.89721
2.91665
2.7644
2.75215
2.73646
2.70508
2.72698
2.71075
2.30009
2.27791
3.03453
3.12582
3.28961
2.7277
2.76013
2.13877
2.09445
2.48236
2.39552
2.33206
2.49532
2.28685
2.2845
2.75508
2.75373
2.76764
2.76871
2.76652
2.59373
2.59692
2.722
2.69644
2.70464
2.7575
2.69897
2.87676
2.76623
2.70532
2.72538
2.82857
3.88487
4.7066
2.46728
2.4583
2.44607
2.44214
2.43727
2.73442
2.84867
2.75517
3.15588
3.33764
3.36397
2.47015
2.49102
2.49714
2.52514
2.5064
2.49263
2.4844
2.49044
2.52746
2.52246
2.50223
2.49994
2.51631
2.50761
2.50667
2.51387
2.51215
2.69913
2.69167
2.70384
2.71858
2.72867
2.75581
2.72571
2.73903
2.57278
2.62657
2.65104
2.7085
2.85233
2.94885
2.82418
2.69165
2.71846
2.63504
2.636
2.66095
2.65189
2.60352
2.61033
2.58667
2.56414
2.56314
2.54765
2.57122
2.58224
2.57183
2.74371
2.76934
2.77351
2.77245
2.75696
2.77127
2.69721
2.73336
2.65666
2.70516
2.63124
2.76915
2.74644
2.81146
2.81431
2.76711
2.23058
2.21022
2.17761
2.64438
2.6324
2.66706
2.78594
2.78574
2.84229
2.73388
2.71978
2.17347
2.21251
2.80045
2.78234
2.78201
2.78434
2.12963
2.16472
2.09478
2.72075
2.73292
2.70799
2.71013
2.72725
3.19835
3.08841
2.70842
2.71833
2.72182
2.71991
2.7049
2.3126
2.25072
2.38221
2.3185
2.33621
2.47616
2.38951
2.52613
2.50149
2.57941
2.64603
2.5934
2.86028
3.15467
3.39256
2.27735
2.29822
2.26258
2.34973
2.39861
2.5102
2.51192
2.54712
2.51593
2.51163
2.51638
2.50925
2.50855
3.47581
3.65988
4.09355
2.89453
2.92632
3.27835
2.71218
2.72644
2.73014
2.73665
2.70248
2.70375
2.25469
2.24737
2.25345
2.25474
2.25654
2.2542
2.6378
2.56056
2.57188
2.64484
2.44672
2.41447
2.70813
2.71443
2.70764
2.71348
2.70475
2.70556
3.12094
3.3366
3.18536
2.67843
2.62156
2.4482
2.21928
2.25064
2.21753
2.23045
2.22994
2.24976
2.59544
2.60282
2.66566
2.74481
2.72124
2.59618
2.59672
2.23206
2.24471
2.27706
2.25949
2.31159
2.3421
2.29327
2.42236
2.52487
2.46126
2.36465
2.25058
2.27027
2.32734
2.28872
2.10117
2.11883
2.48686
2.46173
2.44217
2.41938
2.42482
2.64163
2.64987
2.64409
2.65722
2.67194
2.68441
2.69269
2.68953
2.72713
2.6838
2.69453
2.72577
2.80056
2.8481
2.81153
2.83027
2.612
2.60047
2.5575
2.56161
2.60025
2.56233
2.51833
2.51724
2.69927
2.70019
2.70702
2.70403
2.81231
2.81406
2.79028
2.79523
2.79554
2.44131
2.45607
2.43087
2.42495
2.4395
2.45809
2.66289
2.63707
2.65391
2.63908
2.59601
2.62055
2.61818
2.6006
2.66864
2.69153
2.48327
2.49445
2.53786
2.37979
2.34496
2.42345
2.41288
2.4098
2.54567
2.51831
2.38544
2.49499
2.39123
2.42233
2.46602
2.81755
2.80086
2.78651
2.69959
2.72208
2.74925
2.39107
2.31495
2.41286
2.72797
2.63259
2.67154
2.80123
2.83485
2.82477
2.81733
2.80103
2.90946
2.93508
2.928
2.93961
2.92623
2.94805
2.91833
2.87944
2.87538
2.9153
2.28509
2.24544
2.23781
2.24935
2.22885
2.62405
2.65471
2.6697
2.8085
2.82587
2.80944
2.53326
2.53286
2.75133
2.7525
2.73457
2.77797
2.8196
2.1452
2.15445
2.22312
2.16903
2.23085
2.24794
2.24029
2.54367
2.55531
2.56822
2.55879
2.5675
2.72499
2.7223
2.82008
2.79998
2.78303
2.86684
2.85337
3.05869
2.65053
2.63467
2.60999
2.63817
2.6077
2.60159
2.53554
2.52949
2.56166
2.53051
2.76621
2.87532
2.89198
2.9686
2.71471
2.71538
2.73277
2.73415
2.74127
2.74923
2.7282
2.73525
2.73365
2.53245
2.51033
2.5295
2.53013
2.5521
2.51643
2.50995
2.49076
2.57623
2.56742
2.55557
2.5857
2.56187
2.82144
2.87062
2.99666
2.93356
2.83612
3.33461
3.58312
2.53725
2.54822
2.53132
2.80471
2.7919
2.80447
2.50917
2.48649
2.52847
2.56195
2.51265
2.48762
2.50808
2.47367
2.47795
2.47097
2.45335
2.46888
2.45313
2.46506
2.46026
2.46925
2.45813
2.47132
2.47245
2.55692
2.58244
2.5606
2.57674
2.57994
2.56805
2.80842
2.80354
2.80643
2.80151
2.79701
2.78407
2.80336
3.5688
3.90081
2.8485
2.93812
3.06966
2.84917
2.99615
2.45935
2.44959
2.46027
2.44554
2.45003
2.48111
2.47685
2.51209
2.48685
2.51657
2.50603
2.54534
2.55191
2.58324
2.58283
2.62912
2.5876
2.61885
2.6219
2.59636
2.60808
2.62684
2.6204
2.48993
2.48493
2.46367
2.46307
2.45125
2.4459
2.45217
2.56101
2.53429
2.55685
2.48479
2.47954
2.49183
2.51436
2.50938
2.49862
2.4989
2.51071
2.47357
2.46606
2.4742
2.85354
2.71809
2.84234
2.74458
3.2651
3.38735
2.54883
2.54416
2.52273
2.5494
2.53245
2.59177
2.56439
2.58821
2.57412
2.58463
2.71908
2.70404
2.71438
2.70658
2.69914
2.70136
2.66298
2.59466
2.64942
2.59945
2.5862
2.8537
2.92803
2.58225
2.57877
2.31661
2.29633
2.27193
2.26914
2.77449
2.78658
2.49501
2.52126
2.70177
2.61418
2.55572
2.69185
2.83071
2.7814
2.67244
2.683
2.8418
2.81224
2.82324
2.81478
2.82194
2.77946
2.77015
2.8132
2.80294
2.80097
2.65324
2.63256
2.62068
2.73406
2.79488
3.26025
3.32061
2.64817
2.62954
2.66005
2.36522
2.24862
2.24542
2.30513
2.22006
2.22986
3.28864
3.13148
2.90624
3.33536
2.75595
2.93048
2.34929
2.31261
2.41934
2.598
2.62576
2.60232
2.61659
2.61529
2.60594
2.6634
2.63918
2.65589
2.47642
2.5018
2.57756
2.60811
2.60281
2.57225
2.58558
2.62172
2.62285
2.5961
2.59123
2.60527
2.5465
2.5396
2.56153
2.77626
2.71465
2.76519
2.69077
2.67902
2.28023
2.21304
2.20436
2.22885
2.24517
2.27517
2.27853
2.2156
2.15128
2.23288
2.20502
2.22942
2.85852
2.88767
2.71756
2.7552
2.6493
2.78903
2.70536
2.46229
2.45797
2.46616
2.52932
2.53715
2.55224
2.89183
2.92095
2.8984
2.88458
2.83109
2.78985
2.74908
2.87854
2.81988
2.17734
3.36461
3.1295
3.36624
2.23617
2.22153
2.28233
2.29569
2.30166
2.83397
2.8304
2.6377
2.65894
2.64097
2.26095
2.26156
2.40751
2.25275
2.27454
2.26413
2.74193
2.77802
2.78493
2.7809
2.3411
2.30566
2.54841
2.53438
2.52319
2.65455
2.57871
2.56994
2.83334
2.78306
2.54763
2.53156
2.56322
2.55108
2.7955
2.77087
2.79219
3.38696
4.06847
5.21694
4.02812
3.50137
2.52738
2.65406
1.82011
2.52221
2.51948
3.94153
5.32407
2.64998
5.38755
2.56663
4.911
4.48291
4.28812
4.3638
4.45937
3.69566
3.87036
4.15507
4.89164
5.33182
3.45233
3.2981
3.72391
3.54657
3.81631
3.96093
4.83021
4.50512
1.9999
3.8649
4.63114
3.90049
3.73456
4.64175
4.43949
4.52863
4.44002
3.81638
3.99216
1.81819
1.86264
3.31941
4.19435
3.84888
1.98478
4.56918
3.75406
4.52285
4.84172
4.54182
3.12182
4.64815
4.46416
4.74734
3.86993
3.54145
3.88619
4.41859
4.65811
4.37952
2.6925
2.67002
1.92105
1.87974
2.1765
3.56541
3.89916
3.74444
4.7479
4.12214
4.15544
4.37685
3.00983
3.60133
2.62232
2.63436
2.51814
2.51978
3.567
3.26496
3.60621
3.29567
3.09602
3.98718
3.10483
5.34125
4.10918
4.78099
4.45916
4.23439
4.31072
4.48638
3.93502
4.13893
3.83462
4.21141
4.30165
3.96663
3.86783
4.00319
4.07847
4.05936
3.60821
2.72877
2.81912
3.40084
3.5847
3.32159
2.5666
3.14603
4.04234
3.06681
2.73079
2.45734
2.61865
1.81371
2.07002
1.77885
4.6141
4.45245
4.62331
4.28716
3.81141
4.12595
4.02384
2.58534
5.84568
4.89936
3.36441
3.306
3.23258
3.59257
3.59434
3.61938
3.42405
3.51809
3.49826
2.54542
2.5552
3.56726
3.52938
3.26244
4.35249
3.78518
4.48745
4.63381
4.56434
1.76451
2.01998
3.84209
3.95116
3.59167
4.29569
3.13552
1.6782
2.11675
2.53561
2.52279
2.52789
3.06831
3.96987
3.00055
1.78445
2.01289
2.31103
2.40066
1.83736
2.18633
3.48583
3.70063
3.91958
3.52796
4.30379
3.58282
3.8836
4.4437
4.67292
4.94529
2.91302
1.7622
2.00654
1.74973
2.02019
3.78428
3.49636
3.59368
4.27527
3.69837
5.88185
4.83588
5.09919
4.04131
1.71817
1.85217
2.12055
2.0699
2.13414
2.4333
2.00005
2.2858
4.55525
3.94838
1.94123
2.11908
1.74761
2.05779
4.66173
4.13019
2.18487
4.22714
3.3978
3.57776
4.13484
2.03047
1.72038
2.00975
4.65666
2.547
2.53598
2.55682
4.65219
3.68037
5.0561
3.14888
3.25074
1.77815
2.06763
5.49725
4.79699
6.38946
4.87132
4.78571
4.29632
4.82826
4.75506
1.76424
2.05835
2.00617
1.72605
2.03665
1.70276
4.32439
3.71786
4.75257
2.334
2.58263
2.63846
2.62559
2.57888
2.59535
2.60276
1.71428
1.98008
3.261
3.38137
3.29552
3.39378
5.38351
4.4898
6.33005
4.68939
4.3432
3.74416
1.96452
1.74039
2.02038
4.74511
5.34856
4.99768
4.62837
1.97524
1.73041
1.99752
2.34604
2.74888
2.60704
2.24299
2.76935
2.46798
1.71039
2.40086
2.80096
2.60614
1.98972
2.35803
2.44141
5.75379
4.0553
2.55569
2.72096
3.98867
4.27511
3.99844
4.56261
4.49249
5.31814
2.59902
2.58148
2.61132
5.43368
4.21153
4.91951
4.34578
4.2074
1.90742
2.25301
3.13643
4.2851
3.09007
3.11259
4.75002
3.98272
3.54899
4.02933
1.69771
5.7113
4.09883
2.81381
2.6961
2.75869
2.7043
2.67003
2.74808
1.74687
3.26942
3.76298
3.57837
1.74317
1.98201
4.17765
4.7109
4.39793
1.70006
1.94906
5.45354
3.29192
3.43026
4.44801
3.68048
4.10156
4.08776
3.37642
3.78341
1.70305
1.95334
1.9469
5.16352
1.7027
4.55577
4.67227
4.80179
5.29453
4.68348
8.54643
5.99115
1.90931
2.24597
4.18783
3.6724
3.90592
5.59281
2.12837
1.84036
6.91965
4.91716
1.65393
1.93536
1.74765
1.9983
2.00303
5.42219
3.89645
4.26851
1.99322
1.64639
1.92419
8.49718
6.90185
5.7077
4.38612
4.37321
2.77465
2.81612
1.69132
1.98072
1.96724
4.8903
4.06262
3.51636
7.15701
5.17824
6.14151
4.68331
4.46063
1.96064
1.6317
1.94222
3.48216
3.01645
1.71271
2.02321
2.00516
3.01465
3.90294
3.58985
4.38474
5.88025
3.81099
4.92666
5.68484
5.3293
5.76969
3.78236
4.37379
1.77849
2.05841
2.03523
5.70822
3.96289
4.25019
1.85469
2.16774
4.48985
5.28367
3.15145
5.1955
3.44036
2.10582
4.23256
3.84792
4.86089
4.4254
4.43027
3.86386
4.2671
3.91561
3.61536
4.06382
1.84595
2.07072
4.55044
2.9055
2.92811
1.79181
2.0153
1.82687
1.99488
2.92406
2.52117
2.53087
2.27447
2.19469
2.27222
2.72221
2.89135
2.79511
2.73375
2.2801
2.69242
2.75303
2.75333
2.51709
2.42508
2.75472
2.74788
2.88298
2.38172
2.68205
2.74754
2.58863
2.62118
2.67688
2.46357
2.54253
2.92105
2.89038
2.89013
2.47038
2.71022
2.69239
2.69966
2.75698
2.66855
2.65416
2.2338
2.86687
2.72229
2.6337
2.20983
2.25151
2.59112
2.7461
2.72399
2.72106
2.71073
2.74376
2.74622
2.78819
2.83327
2.90504
2.517
2.61545
2.24447
2.85364
2.96159
3.25829
2.46828
2.94474
2.53692
2.58226
2.61966
2.56796
2.59515
2.2594
2.83092
2.39677
2.60375
2.53419
2.90063
2.52279
2.49135
2.3624
2.49865
2.51065
2.4909
2.36721
2.36497
2.67689
2.51656
2.22892
2.21429
2.47199
2.23977
2.33734
2.77153
2.5244
2.68916
2.77829
2.66247
2.63308
2.64327
2.51078
2.656
2.75951
2.71987
2.69466
2.47882
2.47436
2.7357
2.72582
2.8666
2.70198
2.80554
2.79325
2.77898
2.79476
2.30684
2.28175
2.75559
2.528
2.23939
2.67086
2.6546
2.55296
2.71374
2.70173
2.53281
2.65381
2.8931
2.85497
2.89185
2.68497
2.56214
2.75628
2.67524
2.68425
2.60703
2.68414
2.72368
2.51732
2.25232
2.63562
2.75839
2.66185
2.73277
2.74231
2.69558
2.73994
2.80859
2.51447
2.50402
2.51623
3.12719
2.84789
2.26334
3.10743
2.248
2.61846
2.56524
2.40205
2.87094
2.87134
2.91234
2.67477
2.93109
2.90172
2.9025
2.91971
2.89479
2.67254
2.85091
2.28129
2.27853
2.59948
2.62365
2.57844
2.55804
2.80093
2.78134
2.73482
2.73087
2.92946
2.92104
2.75853
2.56458
2.39896
2.76987
2.53162
2.91931
3.03914
2.78414
2.90508
2.877
3.43575
2.77092
2.76567
2.82797
2.29879
2.46623
2.72296
2.7431
2.77378
2.74701
2.70831
2.74068
2.28446
2.88381
2.89597
2.89702
2.59188
2.66671
2.68533
2.59996
2.66315
2.77415
2.81216
2.57208
3.18452
3.28874
2.74798
2.96196
2.48244
2.49693
2.47704
2.70404
2.25026
3.00444
2.90516
2.79096
2.5249
2.52597
2.53899
2.54137
2.53522
3.06843
3.26109
2.48824
2.87616
2.77284
2.62906
2.72317
2.75243
2.75843
2.75007
2.56835
2.38265
2.39499
2.41505
2.37405
2.57388
2.6509
2.71612
2.37601
2.49186
2.68194
2.56051
2.57483
2.78859
2.69805
2.6782
2.69006
2.52387
2.70168
2.74792
2.86004
2.68821
2.71477
2.73261
2.71619
2.53141
2.54169
2.25543
2.29186
2.29712
2.5301
2.72864
2.79449
2.75486
2.75908
2.71262
2.69668
2.71645
2.49859
2.50913
2.53021
3.17362
2.97689
3.09229
2.95458
2.6828
2.65466
2.70787
2.80876
2.77207
2.78233
2.6237
2.88777
2.80605
3.26041
3.21912
3.50435
2.20899
2.70302
2.6809
2.7188
2.60002
2.62418
2.50357
2.50527
2.67464
2.8006
2.81406
2.72849
2.78717
2.87964
2.82359
2.80105
2.80578
2.84914
2.65059
2.57814
2.61523
2.5773
2.7396
2.7319
2.77105
2.89875
2.87151
2.89574
2.1652
2.73436
2.4905
2.51892
2.8098
2.81714
2.48442
2.43463
3.14745
3.08172
2.27435
2.84295
2.72793
2.60974
2.49609
2.82892
2.68691
2.67116
2.6468
2.74872
2.47792
2.50292
2.68181
2.74257
2.72051
2.81328
2.56934
2.58795
2.5889
2.24206
2.55386
2.5569
2.79474
2.83721
2.82424
2.83622
2.80753
2.7907
2.51607
2.51203
2.53911
2.45631
2.64552
2.74947
2.80237
2.79141
2.82059
2.84101
2.54495