/*--------------------------------*- C++ -*----------------------------------*\
| =========                 |                                                 |
| \\      /  F ield         | OpenFOAM: The Open Source CFD Toolbox           |
|  \\    /   O peration     | Version:  2206                                  |
|   \\  /    A nd           | Website:  www.openfoam.com                      |
|    \\/     M anipulation  |                                                 |
\*---------------------------------------------------------------------------*/
FoamFile
{
    version     2.0;
    format      ascii;
    arch        "LSB;label=32;scalar=64";
    class       volScalarField;
    location    "40";
    object      k;
}
// * * * * * * * * * * * * * * * * * * * * * * * * * * * * * * * * * * * * * //

dimensions      [0 2 -2 0 0 0 0];

internalField   nonuniform List<scalar> 
184166
(
2.44426
2.28226
2.26761
2.43687
2.39467
2.33537
2.16172
2.31178
2.44784
2.46297
2.40737
2.29105
2.29224
2.35907
2.41771
2.42398
2.42742
2.37142
2.25977
2.42985
2.24417
2.27462
2.31752
2.44824
2.3846
2.42765
2.39193
2.3889
2.41572
2.28579
2.42399
2.15669
2.57076
2.45342
2.41583
2.29742
2.28415
2.39563
2.36949
2.21102
2.39917
2.29629
2.41824
2.41853
2.41312
2.38334
2.19304
2.41763
2.37501
2.4204
2.18643
2.16037
2.21245
2.37555
2.40386
2.33613
2.37865
2.4136
2.48179
2.3768
2.28465
2.36822
2.43031
2.40838
2.59006
2.11767
2.21542
2.45919
2.15489
2.45171
2.26314
2.46333
2.45368
2.42728
2.27546
2.36304
2.31513
2.42363
2.27972
2.16919
2.1821
2.26784
2.48028
2.40083
2.41941
2.41839
2.29591
2.2407
2.36392
2.24635
2.14334
2.39779
2.41456
2.55755
2.35533
2.27438
2.41172
2.16172
2.24114
2.41838
2.28864
2.28909
2.41797
2.41792
2.14362
2.30633
2.41595
2.38755
2.15379
2.29062
2.20947
2.44792
2.13413
2.24021
2.43679
2.39549
2.36998
2.24465
2.15573
2.23454
2.42653
2.28911
2.37572
2.36401
2.35923
2.37195
2.37918
2.3731
2.42823
2.42044
2.27864
2.36826
2.36223
2.35689
2.2518
2.2946
2.25905
2.36255
2.3665
2.20848
2.31504
2.16828
2.16948
2.28935
2.34573
2.43431
2.26462
2.41784
2.40771
2.60746
2.4735
2.54052
2.42114
2.40363
2.44165
2.52841
2.41998
2.43818
2.44463
2.21392
2.15107
2.18048
2.34935
2.27061
2.28076
2.38119
2.42659
2.43651
2.15015
2.43359
2.38174
2.3504
2.31204
2.46893
2.36649
2.17162
2.21083
2.4555
2.43092
2.36364
2.15032
2.35712
2.36424
2.4203
2.46781
2.30435
2.43078
2.5214
2.15981
2.38579
2.35993
2.45335
2.32323
2.15771
2.42823
2.44531
2.41648
2.42161
2.41602
2.41672
2.40241
2.41811
2.14755
2.36074
2.19021
2.39884
2.29392
2.28503
2.34945
2.3583
2.52604
2.359
2.29741
2.41679
2.24929
2.30488
2.41516
2.35601
2.15252
2.15934
2.26091
2.3042
2.32082
2.35826
2.17618
2.28738
2.25005
2.40256
2.37792
2.43295
2.57056
2.23101
2.30301
2.36655
2.43296
2.32772
2.47751
2.44281
2.3678
2.15976
2.133
2.4317
2.30427
2.42488
2.21925
2.3941
2.41864
2.2924
2.49182
2.4701
2.37875
2.56648
2.45025
2.28564
2.37207
2.44893
2.40203
2.42377
2.3888
2.32752
2.36815
2.22546
2.40288
2.33398
2.44068
2.35268
2.42314
2.21998
2.37191
2.38954
2.41676
2.17441
2.35781
2.43953
2.29007
2.35581
2.13521
2.39073
2.29183
2.38404
2.27976
2.62981
2.38716
2.37861
2.21699
2.29101
2.45434
2.53177
2.35257
2.39142
2.42712
2.40036
2.41592
2.4222
2.47186
2.41637
2.33704
2.47551
2.40932
2.53388
2.36611
2.32445
2.15914
2.42357
2.55639
2.3479
2.35495
2.37835
2.18645
2.14428
2.37272
2.46412
2.43375
2.44714
2.46443
2.39279
2.33139
2.40997
2.34823
2.40125
2.25693
2.26846
2.38744
2.4376
2.37604
2.1459
2.3796
2.33014
2.27872
2.36838
2.40862
2.20656
2.20491
2.42992
2.16436
2.38843
2.33344
2.31126
2.44043
2.38439
2.35578
2.4882
2.59459
2.47095
2.41682
2.4743
2.21479
2.15256
2.27708
2.18262
2.17582
2.37799
2.47842
2.2184
2.248
2.44878
2.42564
2.34649
2.44128
2.44696
2.28854
2.13893
2.43383
2.24614
2.41083
2.42892
2.14527
2.23414
2.23246
2.13151
2.14173
2.51543
2.57313
2.46959
2.48816
2.47193
2.38349
2.42028
2.28618
2.38508
2.39439
2.3994
2.42819
2.43822
2.38333
2.44965
2.44897
2.28566
2.27993
2.29224
2.36739
2.38164
2.39678
2.15289
2.31886
2.15304
2.46412
2.34593
2.30257
2.36509
2.48297
2.34491
2.50552
2.38882
2.21294
2.3807
2.44184
2.44062
2.40423
2.2655
2.35542
2.28995
2.28872
2.27172
2.27696
2.26966
2.38935
2.2148
2.20801
2.18438
2.53967
2.34759
2.34517
2.35607
2.39601
2.14944
2.14814
2.15147
2.27447
2.26727
2.27262
2.16099
2.56117
2.49171
2.52787
2.51249
2.46687
2.49717
2.38816
2.38802
2.37655
2.37761
2.3992
2.39032
2.39631
2.38799
2.44753
2.46672
2.41431
2.42411
2.40909
2.4049
2.40973
2.4188
2.39898
2.37469
2.36362
2.3623
2.36577
2.45401
2.3779
2.16345
2.14533
2.1484
2.14374
2.17369
2.14022
2.17002
2.37627
2.38506
2.38553
2.39588
2.40307
2.38864
2.32531
2.2992
2.31491
2.40924
2.42584
2.41695
2.41901
2.41717
2.14713
2.12658
2.29376
2.29708
2.29325
2.28576
2.28487
2.28579
2.40675
2.34537
2.3351
2.34361
2.34355
2.44766
2.40969
2.42078
2.43176
2.44793
2.42172
2.42115
2.3903
2.37367
2.37637
2.37282
2.38881
2.37441
2.24014
2.40191
2.41935
2.12707
2.14916
2.13046
2.4041
2.44806
2.45256
2.43609
2.43668
2.43709
2.45121
2.45477
2.48467
2.36117
2.37124
2.3763
2.37957
2.44108
2.44399
2.49623
2.47634
2.60644
2.54003
2.60418
2.49875
2.47356
2.47804
2.42664
2.47825
2.54083
2.51058
2.45456
2.48223
2.40104
2.39003
2.39529
2.38052
2.16876
2.32879
2.30715
2.2852
2.32409
2.30425
2.32016
2.32328
2.29013
2.30043
2.27834
2.24675
2.44758
2.43021
2.44486
2.43808
2.42191
2.42942
2.41904
2.42464
2.38136
2.36876
2.38879
2.38616
2.38876
2.39091
2.41412
2.64163
2.16956
2.2075
2.15755
2.15576
2.15044
2.15725
2.44526
2.43477
2.48479
2.46989
2.49601
2.48114
2.4689
2.50131
2.39901
2.39365
2.42834
2.44046
2.42944
2.1285
2.33628
2.32001
2.31803
2.42889
2.42714
2.42283
2.42631
2.4347
2.43369
2.4318
2.43142
2.4031
2.39057
2.40817
2.28742
2.30136
2.34545
2.30936
2.45212
2.46806
2.46119
2.46129
2.49335
2.46236
2.48239
2.47545
2.34307
2.3681
2.35659
2.36642
2.44343
2.44372
2.37337
2.34655
2.33954
2.33692
2.35561
2.36147
2.45749
2.48337
2.36213
2.36062
2.38622
2.43048
2.39078
2.37142
2.36234
2.46852
2.54207
2.46525
2.45422
2.47725
2.54031
2.48087
2.46864
2.16681
2.20142
2.36372
2.39151
2.4128
2.3891
2.3343
2.46383
2.43451
2.45689
2.45111
2.43262
2.44601
2.15278
2.48213
2.48958
2.49211
2.47742
2.30381
2.42491
2.437
2.40913
2.61674
2.54327
2.60894
2.17708
2.14808
2.14492
2.17328
2.17503
2.14352
2.37442
2.22515
2.25905
2.47749
2.43302
2.45007
2.31138
2.29912
2.31131
2.30341
2.2987
2.30411
2.45454
2.52324
2.45077
2.43885
2.53087
2.58311
2.30413
2.29932
2.43275
2.3588
2.32648
2.32717
2.21769
2.3128
2.3943
2.39705
2.38028
2.38079
2.37594
2.29656
2.28895
2.29614
2.28979
2.26914
2.3359
2.4358
2.4332
2.43469
2.34816
2.37135
2.33185
2.33317
2.344
2.37798
2.31704
2.32442
2.41172
2.43518
2.44084
2.43937
2.35791
2.36417
2.28282
2.29288
2.29453
2.42386
2.37659
2.4261
2.45005
2.29443
2.35606
2.15804
2.15112
2.15168
2.41938
2.26999
2.29934
2.24412
2.42435
2.34023
2.41196
2.4009
2.34602
2.35831
2.35255
2.35346
2.36028
2.31856
2.37386
2.32863
2.29024
2.28595
2.2902
2.28786
2.28617
2.28676
2.28196
2.28051
2.27784
2.38601
2.27956
2.28886
2.28946
2.28555
2.39835
2.38635
2.39866
2.39677
2.42545
2.43447
2.4261
2.46732
2.34369
2.34148
2.3229
2.24013
2.24877
2.15667
2.15818
2.16244
2.15984
2.32196
2.25643
2.26005
2.26762
2.28868
2.29722
2.35169
2.35854
2.42951
2.41334
2.41719
2.43729
2.34847
2.35836
2.37479
2.31212
2.28498
2.28402
2.2856
2.28411
2.14285
2.15013
2.4209
2.42159
2.1526
2.14873
2.14619
2.15394
2.41052
2.18312
2.22379
2.19033
2.19865
2.28554
2.29654
2.29706
2.29199
2.4318
2.37504
2.38778
2.36955
2.35158
2.35546
2.36674
2.39193
2.30405
2.29104
2.3214
2.29444
2.34939
2.27956
2.41912
2.45017
2.46777
2.56308
2.40746
2.39482
2.347
2.32024
2.32344
2.35159
2.12623
2.10903
2.51214
2.41691
2.37885
2.41141
2.37179
2.40602
2.11248
2.1062
2.43592
2.43948
2.44632
2.45139
2.44136
2.22971
2.40321
2.2797
2.37013
2.15898
2.16069
2.41781
2.42288
2.41728
2.41789
2.41971
2.42364
2.14983
2.18421
2.24589
2.23056
2.39198
2.45851
2.37753
2.38977
2.17495
2.18615
2.44645
2.43267
2.41694
2.41717
2.35982
2.34775
2.35317
2.36082
2.44232
2.42898
2.43848
2.23198
2.31436
2.25677
2.33237
2.33416
2.35392
2.34597
2.41865
2.40876
2.41782
2.43865
2.47312
2.48512
2.46141
2.45731
2.45216
2.44896
2.41593
2.40177
2.41841
2.4617
2.52951
2.35504
2.32744
2.28991
2.30027
2.2996
2.29005
2.28934
2.29196
2.28534
2.29139
2.3339
2.38266
2.36147
2.35556
2.35808
2.36444
2.45155
2.47281
2.41754
2.38588
2.39102
2.31044
2.41637
2.41919
2.41761
2.41815
2.21611
2.20127
2.21337
2.21141
2.20198
2.36284
2.372
2.37113
2.46938
2.47313
2.41828
2.44209
2.4922
2.48344
2.41623
2.45589
2.42053
2.4038
2.40593
2.30834
2.31583
2.28186
2.3432
2.33029
2.34539
2.35149
2.35366
2.45021
2.43713
2.43403
2.434
2.42145
2.46183
2.48804
2.45097
2.66791
2.3851
2.37361
2.3617
2.29484
2.30508
2.31041
2.31406
2.28757
2.38087
2.39094
2.39854
2.38987
2.23374
2.24972
2.23206
2.19511
2.37499
2.37244
2.39254
2.41533
2.43612
2.43187
2.47024
2.44897
2.38142
2.37492
2.38189
2.38701
2.15924
2.15225
2.14445
2.12065
2.41851
2.42099
2.42266
2.41788
2.38078
2.381
2.3827
2.49979
2.48429
2.48552
2.46669
2.46962
2.49216
2.38283
2.32401
2.3593
2.28667
2.3119
2.32356
2.3237
2.32465
2.48819
2.45575
2.45822
2.41475
2.45128
2.33375
2.32445
2.44114
2.36555
2.37061
2.38127
2.32648
2.33083
2.38429
2.37118
2.37001
2.5267
2.43995
2.44736
2.45502
2.4385
2.15724
2.14125
2.14033
2.26719
2.26614
2.38121
2.39649
2.37283
2.37048
2.33455
2.32419
2.22227
2.15969
2.34524
2.3231
2.33415
2.43246
2.42434
2.39453
2.37272
2.37075
2.15884
2.16326
2.15973
2.58499
2.5951
2.50635
2.50223
2.12739
2.11532
2.35374
2.35568
2.31529
2.23917
2.23758
2.55154
2.50384
2.43218
2.4486
2.43399
2.15708
2.1629
2.15944
2.1481
2.15369
2.33302
2.39238
2.37521
2.36748
2.34486
2.35019
2.46533
2.3524
2.3528
2.36485
2.35671
2.37738
2.43581
2.44344
2.42904
2.42718
2.26909
2.27487
2.27161
2.26823
2.42863
2.40873
2.44473
2.45739
2.44045
2.45363
2.37728
2.37631
2.36629
2.37057
2.37758
2.34472
2.28822
2.19011
2.20316
2.25176
2.18377
2.29913
2.21105
2.19552
2.24502
2.44755
2.46512
2.5138
2.3299
2.35325
2.32728
2.33933
2.36647
2.37285
2.37431
2.15877
2.14874
2.16147
2.16204
2.38868
2.34765
2.22905
2.16583
2.16538
2.10613
2.1062
2.3065
2.31581
2.31612
2.30313
2.30855
2.43379
2.24231
2.20644
2.15654
2.15185
2.14969
2.14659
2.14966
2.35383
2.32315
2.33633
2.33643
2.35407
2.3393
2.40087
2.41909
2.34318
2.349
2.33739
2.16514
2.17692
2.29635
2.30515
2.24081
2.23929
2.23566
2.41476
2.41616
2.41938
2.45784
2.47767
2.46042
2.45535
2.4705
2.48904
2.16326
2.19299
2.17422
2.22495
2.20806
2.26771
2.27282
2.16886
2.17589
2.35138
2.36107
2.35901
2.36498
2.16485
2.15063
2.17198
2.17454
2.34845
2.35173
2.32714
2.34229
2.29125
2.32983
2.29857
2.32174
2.44146
2.44171
2.3899
2.3578
2.25015
2.38597
2.34896
2.35521
2.36136
2.16949
2.2781
2.26028
2.36504
2.31478
2.35177
2.27767
2.37692
2.3816
2.38054
2.37155
2.36161
2.36733
2.23206
2.23905
2.39625
2.41628
2.37254
2.40517
2.37696
2.40217
2.34154
2.37065
2.38391
2.33954
2.33766
2.31914
2.48079
2.47828
2.48739
2.48489
2.41748
2.4212
2.31165
2.32195
2.15468
2.16013
2.15677
2.14064
2.13617
2.15535
2.15865
2.15269
2.27417
2.27387
2.2806
2.28436
2.28157
2.36438
2.37851
2.37934
2.36252
2.36992
2.45259
2.45878
2.47235
2.45335
2.2713
2.27483
2.15561
2.1523
2.15097
2.1505
2.14953
2.44225
2.41613
2.37171
2.37523
2.38097
2.4578
2.43981
2.49046
2.41944
2.41813
2.38626
2.39164
2.39364
2.4081
2.37311
2.36209
2.37787
2.4523
2.42782
2.39342
2.4393
2.41358
2.45619
2.44957
2.46313
2.46258
2.38524
2.38338
2.34646
2.42143
2.41769
2.41846
2.42798
2.50954
2.10716
2.35042
2.35779
2.36415
2.35419
2.40582
2.4203
2.41146
2.41997
2.42609
2.1125
2.09804
2.10909
2.15549
2.16256
2.15738
2.15388
2.48717
2.43081
2.43905
2.4545
2.40596
2.37471
2.29194
2.39693
2.39702
2.21056
2.28363
2.21377
2.28437
2.27515
2.30236
2.29748
2.276
2.30651
2.32205
2.32719
2.41773
2.16806
2.37246
2.32718
2.29384
2.22189
2.22084
2.21878
2.30819
2.30332
2.29121
2.3808
2.36108
2.34492
2.33388
2.28113
2.28079
2.27686
2.27543
2.2837
2.27386
2.38135
2.39116
2.39409
2.38533
2.40343
2.42219
2.32734
2.31535
2.46101
2.41082
2.42801
2.39854
2.10222
2.0989
2.39768
2.50698
2.39742
2.4079
2.40798
2.37238
2.34584
2.35478
2.14801
2.16361
2.15975
2.16124
2.1526
2.45716
2.43053
2.09771
2.36337
2.24236
2.29586
2.31286
2.24182
2.29954
2.28008
2.24936
2.42284
2.39266
2.41465
2.62046
2.66321
2.54574
2.36881
2.37102
2.15996
2.16169
2.15927
2.16014
2.15982
2.16663
2.42406
2.17132
2.13441
2.09625
2.12748
2.10969
2.4133
2.40124
2.36146
2.32705
2.36375
2.25837
2.28114
2.23503
2.16366
2.22766
2.19299
2.40832
2.4128
2.43158
2.43331
2.42537
2.37347
2.36021
2.15531
2.16875
2.38557
2.37996
2.36353
2.37292
2.30504
2.35671
2.34962
2.34841
2.31087
2.31959
2.26837
2.29932
2.29208
2.26893
2.2814
2.31037
2.29875
2.30078
2.29737
2.30752
2.31127
2.40041
2.40262
2.4005
2.39683
2.39892
2.2038
2.18184
2.29767
2.24368
2.32685
2.26626
2.40235
2.4042
2.41492
2.41597
2.29386
2.30586
2.30009
2.39842
2.36716
2.31783
2.35729
2.15976
2.16492
2.45758
2.47687
2.3591
2.35307
2.35803
2.3322
2.13721
2.12282
2.0982
2.1376
2.1218
2.4333
2.43226
2.40664
2.4019
2.40001
2.32841
2.34934
2.31842
2.24133
2.2499
2.23616
2.23773
2.15783
2.15789
2.15641
2.15165
2.31474
2.3667
2.35343
2.35586
2.3003
2.30781
2.38851
2.42279
2.448
2.48394
2.42709
2.45751
2.51053
2.16038
2.21671
2.15052
2.16923
2.39392
2.38392
2.4085
2.39714
2.38519
2.16117
2.15603
2.15909
2.63653
2.63608
2.32917
2.31792
2.31253
2.17999
2.23473
2.25191
2.18116
2.42522
2.43159
2.44201
2.44725
2.45055
2.44058
2.38842
2.39685
2.39928
2.39447
2.44473
2.47758
2.23225
2.27759
2.18949
2.56169
2.38828
2.3625
2.36571
2.26473
2.45378
2.34154
2.36927
2.10658
2.23763
2.21866
2.23406
2.23334
2.22173
2.22642
2.13538
2.12375
2.18101
2.14369
2.24482
2.24975
2.24257
2.24483
2.24504
2.25077
2.24246
2.24795
2.33531
2.30229
2.36651
2.47441
2.50368
2.40504
2.1491
2.14055
2.15322
2.144
2.50559
2.43195
2.43404
2.5813
2.51569
2.34222
2.23679
2.4243
2.41969
2.43075
2.19173
2.2096
2.17528
2.16773
2.29747
2.31471
2.35699
2.368
2.36032
2.37507
2.40446
2.39803
2.4326
2.42601
2.4627
2.3398
2.39012
2.39604
2.33017
2.36476
2.46013
2.4428
2.44725
2.50379
2.58807
2.12158
2.09295
2.40711
2.41533
2.42807
2.42404
2.40892
2.41386
2.35499
2.36169
2.35279
2.35199
2.36355
2.36258
2.40998
2.41905
2.41091
2.4135
2.46147
2.45605
2.44755
2.44997
2.08351
2.07633
2.11077
2.12449
2.38572
2.38473
2.45861
2.48032
2.4623
2.38101
2.38187
2.37804
2.43546
2.42648
2.4369
2.4304
2.4406
2.34576
2.32642
2.27199
2.27489
2.28558
2.2756
2.24015
2.2505
2.24503
2.26763
2.32546
2.33585
2.37491
2.37256
2.51026
2.50744
2.15677
2.1534
2.41045
2.40933
2.27526
2.2562
2.25999
2.24718
2.25604
2.26219
2.18445
2.17045
2.16858
2.15832
2.15663
2.18424
2.14921
2.35161
2.33147
2.34469
2.31995
2.38684
2.38243
2.38151
2.38217
2.38312
2.37991
2.45776
2.45821
2.46044
2.4562
2.46935
2.35261
2.35878
2.3008
2.28166
2.28465
2.36428
2.39555
2.39381
2.39876
2.314
2.3043
2.10241
2.0694
2.23159
2.26524
2.32969
2.15458
2.13668
2.14147
2.16226
2.14856
2.42277
2.41437
2.41475
2.42219
2.43149
2.40254
2.41887
2.16301
2.175
2.16217
2.15666
2.19274
2.13959
2.20017
2.23897
2.26052
2.20268
2.13136
2.13175
2.10665
2.48731
2.48435
2.48223
2.43446
2.49866
2.32999
2.3245
2.24524
2.39902
2.4026
2.39169
2.3904
2.19487
2.29459
2.21591
2.24173
2.19534
2.19342
2.16393
2.22536
2.22806
2.15974
2.15456
2.50096
2.4758
2.47661
2.47386
2.4611
2.40279
2.29123
2.35192
2.4661
2.53131
2.48583
2.43073
2.42346
2.43196
2.2594
2.25025
2.17648
2.17748
2.24037
2.17637
2.35627
2.36336
2.35394
2.36896
2.32016
2.3175
2.31185
2.29981
2.30139
2.19468
2.15494
2.1639
2.30863
2.41951
2.3189
2.37537
2.42032
2.4158
2.36891
2.40818
2.38931
2.38696
2.42012
2.36758
2.36807
2.38002
2.38806
2.39067
2.13272
2.1421
2.15615
2.15807
2.35907
2.35433
2.1483
2.14835
2.42596
2.39093
2.41666
2.46855
2.07497
2.08488
2.11072
2.17767
2.14942
2.14186
2.28653
2.27214
2.34694
2.34721
2.33716
2.33428
2.24937
2.26513
2.33818
2.08527
2.27395
2.2695
2.25586
2.27228
2.25724
2.25523
2.27581
2.27059
2.2764
2.25701
2.25011
2.25264
2.28305
2.38714
2.38673
2.14221
2.15743
2.1282
2.34901
2.34421
2.34761
2.32872
2.32388
2.31795
2.49795
2.46678
2.36084
2.38793
2.36708
2.40123
2.34616
2.37874
2.37556
2.36358
2.37145
2.28347
2.28208
2.28424
2.28434
2.2852
2.32777
2.3144
2.30324
2.32565
2.32087
2.38051
2.37491
2.37275
2.37064
2.37423
2.37939
2.41027
2.40183
2.4094
2.40892
2.40141
2.47169
2.44809
2.43728
2.45158
2.43962
2.30391
2.31241
2.30071
2.31275
2.31015
2.49217
2.45909
2.10195
2.21992
2.2221
2.24381
2.35922
2.3252
2.20937
2.19095
2.19506
2.60355
2.55167
2.62351
2.64087
2.41381
2.3999
2.48989
2.49881
2.441
2.47873
2.48385
2.46546
2.29342
2.30904
2.42143
2.42775
2.427
2.42863
2.30031
2.25531
2.19757
2.32309
2.16392
2.22933
2.24437
2.19682
2.45661
2.50918
2.47452
2.67683
2.18607
2.24528
2.25869
2.34327
2.35126
2.30154
2.29858
2.37951
2.36649
2.95813
2.60771
2.55587
2.45827
2.44327
2.32982
2.38214
2.31349
2.24561
2.38642
2.39102
2.38669
2.38832
2.42994
2.4234
2.42274
2.42121
2.4178
2.41509
2.42279
2.41622
2.41114
2.30416
2.27802
2.37784
2.18984
2.17699
2.22838
2.22249
2.33218
2.32108
2.32929
2.33285
2.32234
2.31528
2.34451
2.34995
2.35478
2.32243
2.37568
2.41478
2.47828
2.53772
2.31359
2.31359
2.32532
2.31937
2.32358
2.32008
2.38933
2.3918
2.38767
2.38838
2.3881
2.38811
2.49492
2.43921
2.56089
2.50668
2.41764
2.41045
2.41695
2.41039
2.4106
2.42052
2.42639
2.38555
2.38756
2.38891
2.28948
2.16231
2.3674
2.37368
2.34343
2.34381
2.33614
2.33131
2.33477
2.27854
2.27332
2.275
2.28121
2.28119
2.30916
2.29951
2.30251
2.31188
2.3082
2.15117
2.14966
2.1524
2.1554
2.14705
2.15075
2.23536
2.15718
2.15087
2.1773
2.16421
2.16168
2.5968
2.40634
2.411
2.41645
2.41343
2.41212
2.07208
2.4042
2.41152
2.40518
2.40507
2.41038
2.36418
2.3731
2.37607
2.37063
2.36708
2.31685
2.30335
2.32656
2.31372
2.31224
2.22659
2.27
2.34711
2.30578
2.14519
2.14809
2.15301
2.17428
2.1453
2.14726
2.24728
2.23205
2.21627
2.20369
2.21561
2.19726
2.37586
2.36933
2.12695
2.10247
2.10579
2.14899
2.15257
2.46746
2.45271
2.45018
2.4451
2.44847
2.44104
2.47067
2.45547
2.45836
2.46854
2.4681
2.47808
2.40404
2.39635
2.38834
2.37191
2.38227
2.37473
2.17641
2.1651
2.44438
2.46354
2.50302
2.37214
2.37983
2.09575
2.07232
2.26443
2.22133
2.18752
2.2708
2.16649
2.16592
2.39641
2.39558
2.40301
2.40416
2.40231
2.32217
2.32391
2.38453
2.37261
2.37669
2.40224
2.37343
2.41751
2.38527
2.36625
2.373
2.40279
2.77909
3.02002
2.25912
2.25431
2.24799
2.24655
2.24361
2.38538
2.40903
2.38894
2.47954
2.52094
2.52587
2.26096
2.27133
2.27463
2.28834
2.27917
2.272
2.26794
2.27144
2.29006
2.28719
2.27732
2.27619
2.28483
2.28048
2.27975
2.28337
2.28244
2.37008
2.3642
2.37346
2.38177
2.38731
2.40136
2.38324
2.39185
2.31138
2.33713
2.34802
2.3667
2.40123
2.42838
2.39538
2.36164
2.36887
2.34144
2.34199
2.35258
2.34909
2.32677
2.32981
2.31828
2.30747
2.30684
2.29922
2.31196
2.31716
2.31167
2.39386
2.40717
2.40877
2.40858
2.40065
2.40762
2.37173
2.38899
2.35215
2.37506
2.33964
2.39584
2.38995
2.40559
2.40548
2.39733
2.13886
2.13119
2.11209
2.34602
2.34025
2.35638
2.40564
2.41093
2.43091
2.38844
2.38197
2.11134
2.132
2.42591
2.41668
2.41652
2.41753
2.0875
2.10525
2.06863
2.37927
2.38521
2.37702
2.37807
2.3862
2.49476
2.46814
2.37736
2.382
2.38362
2.38232
2.37509
2.18601
2.1556
2.22149
2.1862
2.19625
2.26653
2.22218
2.29047
2.27811
2.31342
2.34289
2.32032
2.42666
2.51902
2.58302
2.16327
2.17431
2.15682
2.20055
2.2255
2.2817
2.28234
2.29962
2.28455
2.2822
2.28463
2.2813
2.28061
2.65162
2.71212
2.83306
2.45946
2.47241
2.59844
2.37309
2.38327
2.38412
2.38935
2.36942
2.36927
2.15812
2.15103
2.1567
2.15868
2.15709
2.15504
2.34013
2.30271
2.30899
2.34386
2.24661
2.22978
2.37407
2.37673
2.37321
2.37581
2.37154
2.37238
2.54628
2.61755
2.56723
2.36721
2.33828
2.2541
2.13436
2.14728
2.13184
2.13724
2.13762
2.14738
2.32277
2.32547
2.35787
2.39602
2.38436
2.32464
2.32448
2.14214
2.14929
2.16439
2.15446
2.18154
2.19652
2.17095
2.23765
2.28931
2.25733
2.20908
2.15036
2.15935
2.18863
2.16822
2.07668
2.08601
2.26876
2.2562
2.2459
2.23466
2.23715
2.34568
2.34919
2.34665
2.35268
2.35985
2.36473
2.36886
2.36506
2.38048
2.36354
2.36861
2.38036
2.42232
2.44505
2.42826
2.43655
2.33097
2.32499
2.30409
2.30607
2.3252
2.30641
2.28601
2.28584
2.36783
2.3676
2.37157
2.37036
2.43066
2.43183
2.41861
2.41727
2.42155
2.24534
2.25309
2.24014
2.23708
2.24434
2.2537
2.35325
2.3423
2.34966
2.34311
2.32268
2.33452
2.33334
2.32479
2.35857
2.36876
2.2677
2.27367
2.2948
2.21463
2.19657
2.23639
2.23132
2.22975
2.29917
2.28492
2.22029
2.27408
2.22362
2.23866
2.26079
2.43259
2.42397
2.41801
2.37471
2.3849
2.39811
2.22451
2.18627
2.23651
2.38591
2.34029
2.35828
2.42526
2.44031
2.43543
2.43183
2.42439
2.47363
2.48645
2.48214
2.48785
2.48108
2.48115
2.47503
2.45815
2.45603
2.46988
2.17234
2.15286
2.15101
2.14636
2.13946
2.33627
2.35167
2.35894
2.42493
2.43611
2.42772
2.29305
2.29302
2.3956
2.39657
2.38618
2.40686
2.42873
2.09545
2.09948
2.13812
2.11043
2.14319
2.15062
2.14638
2.29729
2.30235
2.30845
2.30454
2.30821
2.38585
2.38387
2.43004
2.42041
2.41259
2.45308
2.44611
2.47049
2.34993
2.34108
2.32971
2.34397
2.32886
2.32516
2.29419
2.2913
2.31027
2.2942
2.40705
2.46114
2.46533
2.49549
2.37662
2.37623
2.38549
2.38602
2.38907
2.39301
2.38228
2.38493
2.38421
2.29219
2.28116
2.29058
2.2905
2.30162
2.28343
2.28035
2.27124
2.313
2.3089
2.30332
2.31767
2.30614
2.41618
2.42979
2.45253
2.43647
2.41891
2.53157
2.58394
2.2943
2.29955
2.29075
2.42209
2.41162
2.42217
2.28006
2.26896
2.28944
2.30616
2.2814
2.26903
2.27901
2.26293
2.2652
2.26133
2.252
2.25977
2.25191
2.25795
2.25548
2.25972
2.25416
2.26121
2.26155
2.30422
2.31593
2.30562
2.31305
2.3148
2.30929
2.4232
2.41682
2.42212
2.41761
2.42003
2.41259
2.42261
2.57623
2.64245
2.42498
2.44639
2.47393
2.42301
2.45248
2.25457
2.2498
2.25501
2.24757
2.24958
2.26592
2.26364
2.28182
2.26908
2.28393
2.27804
2.29839
2.30122
2.31696
2.31664
2.33918
2.3191
2.33424
2.33592
2.32353
2.32987
2.33873
2.33553
2.27095
2.26886
2.2568
2.2564
2.25054
2.24779
2.25074
2.30629
2.2927
2.30409
2.26876
2.26605
2.27158
2.28244
2.27976
2.27443
2.27501
2.28052
2.2627
2.25883
2.26309
2.40693
2.37516
2.40569
2.38201
2.50362
2.52661
2.29953
2.29739
2.28648
2.29979
2.29131
2.32126
2.30737
2.31924
2.31189
2.31697
2.37814
2.37118
2.37571
2.3714
2.3677
2.36875
2.35057
2.32092
2.3464
2.32333
2.31758
2.41966
2.4428
2.31668
2.31473
2.1828
2.17235
2.15981
2.15854
2.40927
2.41523
2.27178
2.28433
2.37293
2.32888
2.3015
2.3675
2.40768
2.39158
2.35995
2.36458
2.43191
2.42465
2.42763
2.42279
2.42838
2.41069
2.40594
2.42568
2.4211
2.42029
2.35094
2.34172
2.33572
2.38001
2.39817
2.52266
2.52998
2.34834
2.33974
2.35338
2.20595
2.15176
2.15013
2.18142
2.1375
2.14294
2.54052
2.50527
2.41903
2.52762
2.38766
2.43872
2.19932
2.18166
2.23482
2.32371
2.33702
2.32571
2.3325
2.33224
2.32791
2.35326
2.34327
2.35045
2.26433
2.27687
2.31406
2.32885
2.32645
2.31113
2.31729
2.33518
2.33569
2.32223
2.31975
2.32694
2.30004
2.29661
2.30719
2.3867
2.3731
2.38362
2.36526
2.36188
2.16747
2.13305
2.12702
2.13852
2.14747
2.16162
2.16381
2.13541
2.09974
2.14227
2.1294
2.13983
2.45526
2.46863
2.37948
2.39077
2.34904
2.41325
2.37206
2.25665
2.2545
2.25863
2.28983
2.2937
2.3013
2.46974
2.48232
2.47217
2.46638
2.43806
2.41787
2.38926
2.41742
2.40339
2.11463
2.63
2.54979
2.62769
2.14832
2.14216
2.17088
2.17099
2.1764
2.44095
2.43837
2.34367
2.35225
2.34463
2.15614
2.15614
2.23477
2.15638
2.16129
2.15621
2.39425
2.41537
2.41897
2.41725
2.19453
2.17647
2.30026
2.29364
2.28798
2.35166
2.31464
2.30998
2.43616
2.4115
2.3002
2.29207
2.3072
2.30152
2.40868
2.40223
2.40806
2.59011
2.73288
2.99888
2.83773
2.60609
2.29104
2.3516
1.91078
2.28819
2.2871
2.71159
3.25697
2.3488
3.04988
2.30995
3.0234
2.82414
2.93134
2.94768
2.83077
2.64971
2.68848
2.76681
3.00915
3.11004
2.56144
2.54193
2.66171
2.59423
2.67269
2.73135
3.0628
2.99278
2.03098
2.70995
2.97937
2.79864
2.67023
3.01724
2.95532
2.919
2.94602
2.73273
2.73
1.91253
1.95046
2.55837
2.83708
2.77924
2.02064
2.99789
2.74234
2.88391
2.91263
2.85559
2.54746
3.00434
2.9596
2.9853
2.71462
2.61426
2.73024
2.97329
3.00943
2.96192
2.36546
2.35766
1.98697
1.96063
2.11554
2.62486
2.74345
2.74339
3.04571
2.88833
2.89397
2.94083
2.50491
2.69509
2.33716
2.34263
2.28591
2.28717
2.64995
2.56007
2.63898
2.54088
2.53742
2.82395
2.54363
3.24605
2.8541
3.07102
2.96905
2.92649
2.9563
2.97959
2.72958
2.74516
2.68395
2.89103
2.89769
2.80819
2.75515
2.80089
2.78458
2.75894
2.62145
2.37546
2.40041
2.57122
2.62701
2.55254
2.31005
2.5567
2.84207
2.52582
2.4645
2.32507
2.34695
1.90766
2.05971
1.8861
3.00362
3.00139
2.92507
2.8438
2.7103
2.77754
2.76825
2.36771
3.30034
3.02595
2.57982
2.52755
2.54022
2.65605
2.60511
2.65541
2.59391
2.59513
2.62825
2.29983
2.30413
2.62593
2.59258
2.53697
2.80639
2.65916
3.02082
3.02233
3.04895
1.87532
2.03373
2.6838
2.71102
2.63186
2.93099
2.55054
1.83692
2.11307
2.2946
2.28835
2.29116
2.52814
2.81574
2.50127
1.90288
2.04905
2.18509
2.23251
1.93955
2.12047
2.58887
2.65349
2.69655
2.59229
2.79306
2.61283
2.66311
2.91072
2.89916
2.96437
2.42256
1.87586
2.0261
1.86696
2.03423
2.65935
2.58044
2.63546
2.80836
2.64081
3.39194
3.10194
2.97148
2.67609
1.85184
1.94205
2.08636
2.0603
2.12183
2.2495
2.04027
2.17312
2.8764
2.75387
2.02698
2.0857
1.88038
2.05232
2.99462
2.85179
2.16084
2.83727
2.57414
2.6343
2.8197
2.04058
1.85013
2.02925
3.04642
2.30036
2.29461
2.30462
2.89303
2.61897
3.15694
2.55669
2.58941
1.9036
2.05915
3.15352
2.95002
3.17783
2.87657
2.90916
2.74329
3.0647
2.9302
1.87979
2.05432
2.02626
1.86583
2.04385
1.83715
2.85881
2.6451
2.90839
2.23808
2.32572
2.34404
2.33827
2.31544
2.32391
2.32723
1.84626
2.01129
2.55696
2.5692
2.54812
2.63444
3.15187
2.94859
3.18797
2.83712
2.83863
2.65032
2.00389
1.86748
2.03333
3.07794
3.23043
3.10841
2.87309
2.01003
1.85561
2.02307
2.2415
2.40779
2.33703
2.18427
2.41311
2.27085
1.85464
2.28472
2.43126
2.34189
2.04826
2.21167
2.2577
3.13672
2.6498
2.3661
2.39672
2.76678
2.80394
2.75416
3.00736
3.01389
3.22666
2.3255
2.31665
2.33082
3.06636
2.71143
3.04789
2.87108
2.84736
1.97746
2.15393
2.5577
2.92363
2.53885
2.47205
2.9223
2.68359
2.59528
2.72173
1.84183
3.13543
2.68567
2.44316
2.42377
2.4101
2.36698
2.35553
2.37766
1.8668
2.54954
2.69081
2.61778
1.8718
2.01275
2.73366
2.8391
2.75288
1.8396
1.99274
3.28149
2.6118
2.65698
2.80273
2.61996
2.72656
2.76941
2.59097
2.70118
1.84249
1.99616
1.99167
3.19518
1.8524
2.98996
3.00581
2.99827
3.23049
3.04203
4.04557
3.38617
1.99364
2.15694
2.75972
2.61528
2.65967
3.03177
2.08953
1.93958
3.28991
2.84436
1.80772
1.98605
1.86998
2.0213
2.02519
3.07555
2.62499
2.7106
2.02019
1.80974
1.98087
4.05733
3.59183
3.11863
2.72794
2.7375
2.42875
2.43905
1.84322
2.01072
2.00425
2.94386
2.69264
2.57682
3.6814
3.13426
3.36927
3.01862
2.99745
2.00254
1.79468
1.99262
2.65007
2.50862
1.86483
2.03497
2.02447
2.4532
2.72034
2.59759
2.84542
3.15476
2.66882
2.87098
3.03106
2.92205
3.16138
2.63899
2.71315
1.89122
2.05546
2.04258
3.20464
2.71708
2.73746
1.95286
2.11286
2.85368
3.1144
2.55566
3.2055
2.65065
2.07847
2.78718
2.70859
3.08863
2.97135
2.96328
2.643
2.72952
2.67272
2.60716
2.70799
1.93594
2.06244
2.91052
2.41524
2.41868
1.8996
2.02942
1.9122
2.0189
2.47988
2.28738
2.29205
2.16144
2.12591
2.16244
2.38367
2.4681
2.42344
2.39014
2.1652
2.37066
2.40331
2.39238
2.28561
2.23958
2.40108
2.39693
2.45831
2.21805
2.36555
2.39255
2.32329
2.33565
2.36052
2.25367
2.29848
2.48009
2.46862
2.44408
2.26201
2.37984
2.37083
2.37434
2.40006
2.35798
2.34732
2.14192
2.44274
2.38545
2.33773
2.13542
2.15272
2.3218
2.39306
2.38328
2.38088
2.37807
2.39829
2.39918
2.41373
2.4396
2.47032
2.28551
2.33279
2.14776
2.44808
2.46069
2.5255
2.26071
2.48988
2.29476
2.31745
2.33529
2.31067
2.32366
2.15339
2.41529
2.2243
2.32777
2.2937
2.44969
2.28827
2.27297
2.20766
2.27635
2.28272
2.27296
2.20955
2.20859
2.36028
2.28398
2.1444
2.13748
2.26587
2.14773
2.19775
2.4066
2.28895
2.36665
2.41319
2.35667
2.34189
2.34688
2.2821
2.35313
2.40274
2.38395
2.37172
2.26521
2.26322
2.38678
2.38164
2.43
2.37588
2.42381
2.41638
2.41127
2.41552
2.18322
2.16962
2.40378
2.29099
2.1466
2.35827
2.35087
2.30662
2.38238
2.37731
2.29226
2.34735
2.47163
2.45329
2.4697
2.36373
2.30753
2.3849
2.35974
2.363
2.32647
2.36144
2.38317
2.28561
2.15238
2.34361
2.40344
2.35676
2.38479
2.3916
2.37151
2.38979
2.40767
2.28422
2.27884
2.28503
2.52802
2.44588
2.15816
2.54348
2.15011
2.33474
2.30914
2.22679
2.45666
2.4547
2.47369
2.3629
2.48424
2.4725
2.47403
2.48272
2.43184
2.35709
2.41462
2.16512
2.16281
2.32543
2.33559
2.31559
2.30522
2.40715
2.40041
2.38854
2.38579
2.48678
2.48158
2.40018
2.30812
2.22668
2.40785
2.29642
2.4737
2.50928
2.413
2.46529
2.44915
2.61954
2.40573
2.40291
2.43533
2.17378
2.25908
2.38417
2.39201
2.40409
2.3938
2.37744
2.3923
2.17118
2.4616
2.46644
2.46711
2.32216
2.35837
2.36732
2.32615
2.35646
2.40914
2.42628
2.31234
2.57159
2.60979
2.39464
2.45166
2.26773
2.27489
2.26473
2.37112
2.14863
2.47956
2.43386
2.40541
2.28942
2.2901
2.29633
2.29739
2.29447
2.52402
2.59619
2.27388
2.45806
2.40598
2.33956
2.38121
2.3968
2.39971
2.39647
2.30645
2.21673
2.22336
2.23327
2.21276
2.31249
2.35195
2.37794
2.21238
2.27228
2.35897
2.30572
2.31097
2.39235
2.36643
2.36016
2.36472
2.28909
2.37452
2.39121
2.42468
2.36648
2.38001
2.38725
2.38004
2.29265
2.29756
2.14989
2.16931
2.17229
2.29157
2.38828
2.41935
2.40038
2.40247
2.38028
2.37215
2.38191
2.27577
2.28097
2.29147
2.50919
2.47548
2.49734
2.47096
2.36524
2.35081
2.3744
2.42558
2.40599
2.41174
2.33676
2.46513
2.4283
2.59889
2.58511
2.68112
2.13091
2.37055
2.36174
2.3715
2.32605
2.33743
2.27871
2.27968
2.35909
2.42247
2.43143
2.38414
2.416
2.45988
2.43519
2.42412
2.4263
2.4481
2.35078
2.31565
2.33346
2.315
2.39075
2.38667
2.40607
2.46945
2.45472
2.46615
2.10985
2.39102
2.27517
2.28611
2.42913
2.43203
2.26861
2.2429
2.53592
2.51924
2.16134
2.4406
2.3863
2.33091
2.27799
2.42649
2.36488
2.35658
2.34709
2.40068
2.26925
2.28088
2.36764
2.39606
2.38505
2.42972
2.31113
2.31963
2.3202
2.14997
2.30274
2.30439
2.41825
2.44052
2.4341
2.44047
2.42568
2.41637
2.28485
2.28281
2.29611
2.25481
2.34719
2.38905
2.40094
2.41789
2.43204
2.44169
2.29847
2.3485
2.34482
2.2797
2.46375
2.32044
2.43271