/*--------------------------------*- C++ -*----------------------------------*\
| =========                 |                                                 |
| \\      /  F ield         | OpenFOAM: The Open Source CFD Toolbox           |
|  \\    /   O peration     | Version:  2206                                  |
|   \\  /    A nd           | Website:  www.openfoam.com                      |
|    \\/     M anipulation  |                                                 |
\*---------------------------------------------------------------------------*/
FoamFile
{
    version     2.0;
    format      ascii;
    arch        "LSB;label=32;scalar=64";
    class       volScalarField;
    location    "40";
    object      nut;
}
// * * * * * * * * * * * * * * * * * * * * * * * * * * * * * * * * * * * * * //

dimensions      [0 2 -1 0 0 0 0];

internalField   nonuniform List<scalar> 
184166
(
0.185651
0.186627
0.186437
0.184038
0.187609
0.187305
0.184896
0.187112
0.185349
0.18866
0.184288
0.186771
0.186874
0.187156
0.188394
0.188491
0.187819
0.187872
0.186279
0.188717
0.186137
0.186525
0.18718
0.188021
0.188013
0.188475
0.187662
0.187747
0.18897
0.186784
0.188769
0.184767
0.185522
0.188909
0.188168
0.186916
0.186757
0.187737
0.186949
0.185556
0.188276
0.18692
0.189074
0.188441
0.18786
0.187969
0.185302
0.18821
0.187804
0.188826
0.18512
0.185028
0.185555
0.187861
0.188409
0.187377
0.187592
0.188554
0.189078
0.187448
0.186766
0.187221
0.186954
0.185722
0.18616
0.184368
0.185736
0.188951
0.185219
0.189472
0.186302
0.189368
0.188891
0.187802
0.18651
0.187381
0.187252
0.187919
0.187
0.185602
0.185827
0.187006
0.188538
0.18641
0.188622
0.183997
0.186704
0.185979
0.187453
0.186155
0.185234
0.187832
0.187854
0.177815
0.18794
0.186512
0.188411
0.185044
0.185998
0.188522
0.186789
0.186826
0.187627
0.188992
0.185836
0.186887
0.188585
0.187528
0.185257
0.186817
0.185518
0.189095
0.185344
0.185996
0.189318
0.188329
0.187046
0.186062
0.18467
0.185917
0.187146
0.186857
0.18777
0.187757
0.187703
0.187819
0.18772
0.187894
0.188575
0.18868
0.186649
0.187823
0.187735
0.187616
0.18647
0.186896
0.186502
0.187765
0.18734
0.185652
0.187649
0.184737
0.184802
0.186833
0.187375
0.1888
0.186349
0.188958
0.18614
0.185012
0.189337
0.18606
0.188781
0.186704
0.18869
0.186863
0.188726
0.18434
0.184682
0.185598
0.18525
0.184931
0.187376
0.18678
0.186707
0.18785
0.189177
0.189045
0.1853
0.189282
0.187938
0.187016
0.186985
0.189081
0.187805
0.185111
0.185409
0.185964
0.18851
0.187824
0.185223
0.187327
0.187445
0.188597
0.188854
0.18707
0.189152
0.181573
0.185271
0.18758
0.187744
0.189134
0.187267
0.18532
0.184671
0.189076
0.188379
0.185134
0.185409
0.188246
0.187659
0.189024
0.184449
0.187745
0.185292
0.186732
0.186845
0.186756
0.186923
0.187848
0.185838
0.187042
0.186918
0.186087
0.18618
0.187084
0.188537
0.187151
0.184847
0.185225
0.186894
0.186915
0.187162
0.187287
0.185045
0.186776
0.186324
0.188237
0.187941
0.183759
0.186295
0.185651
0.187019
0.186854
0.188797
0.187291
0.189879
0.188529
0.186673
0.185088
0.1851
0.18886
0.186405
0.188675
0.185645
0.18773
0.188851
0.186824
0.189434
0.189155
0.188033
0.183621
0.189147
0.186791
0.187824
0.189185
0.18816
0.188649
0.188115
0.1873
0.186184
0.185776
0.188337
0.186558
0.18908
0.187553
0.188801
0.185999
0.187989
0.188061
0.188581
0.1852
0.187296
0.189488
0.186864
0.187066
0.184698
0.187545
0.186904
0.187511
0.186704
0.185186
0.187488
0.187945
0.18564
0.186858
0.18245
0.18741
0.187676
0.187034
0.188637
0.187775
0.188854
0.188491
0.18647
0.188577
0.187316
0.181262
0.188531
0.186903
0.187811
0.187266
0.185673
0.188753
0.186384
0.187648
0.187605
0.185679
0.18594
0.185994
0.187867
0.18977
0.188766
0.189366
0.18925
0.187734
0.187396
0.188072
0.187537
0.188348
0.186285
0.186417
0.18759
0.188298
0.188089
0.185774
0.188046
0.187381
0.186667
0.187831
0.188039
0.185604
0.185527
0.188891
0.185082
0.1881
0.187267
0.187136
0.18938
0.187513
0.187617
0.184101
0.186739
0.189128
0.18855
0.189493
0.185787
0.184812
0.187137
0.185107
0.18504
0.187869
0.189138
0.185677
0.186318
0.189327
0.188928
0.187491
0.189314
0.188792
0.186719
0.184765
0.188935
0.186107
0.188153
0.188789
0.185965
0.185994
0.185905
0.185168
0.184813
0.1873
0.186356
0.18938
0.189421
0.189152
0.18747
0.188706
0.186735
0.18761
0.187787
0.187974
0.188995
0.188561
0.187887
0.188912
0.189076
0.186714
0.187038
0.187299
0.188206
0.188185
0.188457
0.185447
0.187119
0.185874
0.188982
0.187384
0.186868
0.187003
0.189105
0.187369
0.186369
0.186849
0.185526
0.187691
0.188405
0.188359
0.187956
0.186419
0.187753
0.186781
0.186696
0.18643
0.186484
0.186431
0.188023
0.185481
0.185319
0.185072
0.186826
0.187601
0.18746
0.187663
0.187857
0.185907
0.185629
0.185817
0.186553
0.186485
0.186495
0.18474
0.18495
0.186446
0.185341
0.184637
0.186029
0.184424
0.187983
0.188044
0.187626
0.187629
0.186672
0.187183
0.186894
0.18754
0.182639
0.181252
0.188274
0.188621
0.188142
0.188013
0.188295
0.188634
0.187756
0.187707
0.187776
0.187734
0.187766
0.188813
0.185943
0.184825
0.184638
0.184797
0.184827
0.185467
0.185212
0.185571
0.187699
0.187619
0.187294
0.187243
0.184476
0.18651
0.187217
0.186844
0.187105
0.183603
0.188429
0.188943
0.188678
0.188981
0.185241
0.185133
0.186908
0.18695
0.186884
0.186703
0.186732
0.186672
0.187021
0.18743
0.187234
0.187369
0.186688
0.189044
0.188362
0.188622
0.188801
0.188847
0.188542
0.188514
0.185666
0.187547
0.187527
0.187719
0.186105
0.187454
0.186139
0.187274
0.185043
0.185181
0.18491
0.185227
0.188199
0.188862
0.188913
0.188821
0.188797
0.188739
0.18899
0.189538
0.189618
0.187489
0.187571
0.187568
0.187614
0.188669
0.18867
0.189415
0.189081
0.186614
0.187538
0.186063
0.189528
0.18954
0.18949
0.187063
0.183442
0.180762
0.181536
0.184414
0.182953
0.188418
0.188337
0.187995
0.187808
0.185523
0.187251
0.186928
0.186668
0.187147
0.186891
0.187097
0.187077
0.186696
0.186783
0.186566
0.186059
0.189033
0.188641
0.18898
0.188858
0.188453
0.188738
0.18856
0.188645
0.188141
0.188076
0.187731
0.18763
0.187698
0.187396
0.187931
0.17879
0.18494
0.185092
0.185377
0.185539
0.185448
0.185725
0.189081
0.188799
0.189497
0.188952
0.189353
0.189096
0.189609
0.189592
0.188128
0.187615
0.188593
0.187575
0.187841
0.18494
0.187393
0.187176
0.187124
0.185947
0.188338
0.188259
0.188575
0.186055
0.188434
0.188387
0.188648
0.18515
0.185929
0.184635
0.18685
0.186821
0.186636
0.186684
0.189364
0.189686
0.189562
0.189629
0.189735
0.18947
0.1896
0.189669
0.187416
0.18764
0.187574
0.187594
0.188562
0.188593
0.185114
0.187367
0.187367
0.187279
0.187621
0.187752
0.188967
0.189456
0.187224
0.187151
0.186942
0.180455
0.185964
0.187004
0.186185
0.189398
0.187728
0.189344
0.189417
0.189197
0.187253
0.189384
0.189395
0.185039
0.185537
0.186701
0.183711
0.182749
0.184541
0.187319
0.183848
0.185779
0.184496
0.184765
0.186167
0.184473
0.185105
0.189451
0.189277
0.189609
0.189263
0.187026
0.184186
0.182322
0.184676
0.186874
0.187909
0.186779
0.185717
0.185303
0.185311
0.185655
0.18552
0.185113
0.187321
0.185742
0.186219
0.179658
0.183196
0.182553
0.18711
0.186958
0.187134
0.187014
0.186931
0.186993
0.189086
0.187525
0.189052
0.189112
0.187682
0.186647
0.186808
0.18671
0.18873
0.187955
0.187681
0.18769
0.185841
0.187181
0.18806
0.188219
0.187353
0.187307
0.18723
0.186896
0.186815
0.186868
0.186825
0.186446
0.187291
0.188981
0.189043
0.188962
0.186935
0.186928
0.187295
0.187368
0.187478
0.187232
0.18715
0.187208
0.18852
0.188697
0.188865
0.188794
0.187385
0.187149
0.186705
0.186742
0.186811
0.188567
0.188338
0.188742
0.188975
0.186873
0.187009
0.185189
0.18493
0.185192
0.188649
0.186579
0.186777
0.186702
0.18875
0.18786
0.188354
0.18797
0.187366
0.187637
0.187572
0.187607
0.187646
0.186979
0.187642
0.187018
0.186853
0.186746
0.186827
0.186788
0.186777
0.18681
0.186732
0.186707
0.186673
0.187477
0.186888
0.186821
0.186847
0.186725
0.188011
0.187607
0.188
0.18787
0.188863
0.188945
0.188759
0.189383
0.187468
0.187406
0.187141
0.186242
0.186441
0.185296
0.185381
0.185445
0.185338
0.187212
0.186304
0.186248
0.186383
0.186685
0.186736
0.18752
0.187626
0.188523
0.188153
0.18822
0.188527
0.187584
0.18779
0.187993
0.186591
0.186737
0.186717
0.186814
0.186777
0.184754
0.1846
0.187998
0.188505
0.184846
0.184875
0.184992
0.185144
0.188452
0.185093
0.185783
0.185238
0.185414
0.186651
0.186824
0.186914
0.186842
0.183312
0.187861
0.188046
0.187771
0.187596
0.187503
0.18756
0.188151
0.186832
0.186691
0.187102
0.186762
0.186993
0.186061
0.181407
0.179264
0.177794
0.177033
0.185239
0.18397
0.18742
0.187112
0.187136
0.187477
0.185048
0.185013
0.180512
0.186166
0.18758
0.187904
0.187371
0.188021
0.185087
0.185083
0.180641
0.179972
0.189151
0.189123
0.188937
0.186256
0.188525
0.186901
0.188025
0.18503
0.184889
0.188505
0.188344
0.188914
0.188592
0.188896
0.188968
0.185661
0.185901
0.186699
0.186495
0.188109
0.188912
0.188063
0.188167
0.184877
0.185127
0.18912
0.188951
0.188438
0.188381
0.187461
0.187445
0.18744
0.187478
0.188998
0.188733
0.189094
0.185565
0.186638
0.185874
0.187348
0.187339
0.187545
0.187449
0.183558
0.185943
0.188419
0.188677
0.189115
0.189417
0.189191
0.188942
0.188963
0.188911
0.188512
0.188397
0.188637
0.188678
0.18576
0.187642
0.187205
0.186742
0.186878
0.186877
0.186806
0.186755
0.186832
0.186733
0.186839
0.186982
0.185329
0.18691
0.187223
0.18716
0.1877
0.188738
0.18916
0.188579
0.188209
0.188364
0.187571
0.188357
0.188221
0.188207
0.188287
0.185549
0.185354
0.185595
0.185571
0.185353
0.187466
0.187332
0.187529
0.180531
0.180195
0.188606
0.189002
0.189393
0.189217
0.185915
0.178352
0.18513
0.188219
0.188308
0.187072
0.187159
0.186529
0.187401
0.187262
0.187446
0.187406
0.187371
0.188561
0.188592
0.188646
0.188383
0.187125
0.183381
0.181435
0.1837
0.184398
0.186731
0.187823
0.187766
0.186823
0.187016
0.187101
0.18716
0.186725
0.187964
0.188062
0.188239
0.188092
0.185757
0.186104
0.185705
0.185968
0.187126
0.186835
0.18543
0.183389
0.188748
0.188889
0.176787
0.178396
0.186961
0.187468
0.186435
0.186271
0.184731
0.185202
0.185349
0.184854
0.188907
0.188837
0.188748
0.188817
0.187479
0.187505
0.18757
0.189454
0.189321
0.189253
0.188983
0.189154
0.189517
0.187325
0.186789
0.187044
0.186342
0.187044
0.187174
0.187198
0.187222
0.189294
0.188888
0.188863
0.18826
0.188699
0.187379
0.187321
0.188712
0.187934
0.187358
0.187329
0.18672
0.186594
0.187493
0.187233
0.187265
0.179241
0.188903
0.188998
0.188962
0.188751
0.185019
0.185293
0.185374
0.186335
0.186231
0.187484
0.188055
0.187239
0.187182
0.187198
0.187142
0.185786
0.185123
0.187308
0.18724
0.18737
0.189037
0.188811
0.184125
0.186869
0.186687
0.185061
0.185185
0.18499
0.186196
0.18583
0.188419
0.188639
0.184478
0.18421
0.187895
0.187793
0.187288
0.186524
0.186384
0.184018
0.185095
0.188744
0.1886
0.1889
0.185201
0.185528
0.18546
0.185323
0.185473
0.18736
0.186823
0.187821
0.187744
0.187376
0.187504
0.18141
0.187525
0.187472
0.187024
0.187291
0.187281
0.188817
0.188891
0.18864
0.188577
0.186456
0.186524
0.186556
0.18647
0.182663
0.183587
0.188817
0.189008
0.188839
0.189151
0.187317
0.187232
0.187018
0.187886
0.187875
0.18747
0.186305
0.184991
0.185064
0.185748
0.18536
0.187117
0.185629
0.185785
0.186397
0.182203
0.182039
0.186561
0.187222
0.187395
0.187179
0.18731
0.187692
0.187982
0.187797
0.185001
0.184649
0.185251
0.185094
0.187355
0.187566
0.185533
0.184594
0.18478
0.185051
0.184967
0.187
0.187113
0.187113
0.186934
0.186983
0.184017
0.186226
0.185712
0.185322
0.185464
0.185423
0.185357
0.185289
0.18677
0.186147
0.187386
0.187372
0.187396
0.187327
0.187717
0.188112
0.187415
0.187412
0.187342
0.184824
0.184759
0.186886
0.18696
0.185804
0.185794
0.18577
0.188532
0.188856
0.188878
0.189428
0.189287
0.189286
0.189433
0.189413
0.189658
0.185096
0.185281
0.18495
0.185285
0.185031
0.185819
0.185856
0.184523
0.184894
0.187301
0.18663
0.186851
0.186304
0.18487
0.18473
0.185027
0.184961
0.187512
0.187589
0.18725
0.187463
0.186692
0.187247
0.186823
0.187132
0.180731
0.180311
0.186604
0.186553
0.18589
0.187628
0.187167
0.186926
0.187252
0.184803
0.186061
0.185986
0.187234
0.186672
0.187115
0.186227
0.187925
0.187964
0.18743
0.187907
0.187766
0.18778
0.185695
0.185866
0.187876
0.188279
0.187373
0.186768
0.187321
0.185806
0.187267
0.187374
0.187015
0.187341
0.187289
0.187072
0.189497
0.189497
0.189285
0.189522
0.187797
0.187487
0.186948
0.187072
0.184764
0.184809
0.184897
0.184429
0.18452
0.184922
0.185127
0.185051
0.186514
0.186562
0.186621
0.186609
0.186615
0.187604
0.187768
0.187827
0.187583
0.187668
0.189487
0.189636
0.189024
0.189265
0.186337
0.186404
0.18525
0.185229
0.185089
0.184965
0.185046
0.178306
0.180208
0.187038
0.187345
0.187384
0.180881
0.184051
0.177619
0.185342
0.185799
0.187486
0.187361
0.186889
0.183853
0.185114
0.185895
0.184954
0.188742
0.188503
0.187957
0.188545
0.188256
0.189396
0.18906
0.189444
0.18933
0.187246
0.187445
0.186761
0.188516
0.188498
0.187449
0.18655
0.17486
0.184819
0.187378
0.187378
0.187512
0.187422
0.187985
0.188478
0.18809
0.188386
0.188459
0.184506
0.18433
0.185011
0.185327
0.185424
0.185072
0.185199
0.179901
0.181019
0.181236
0.188872
0.188266
0.187883
0.186754
0.18223
0.182086
0.185401
0.186342
0.185312
0.186633
0.18651
0.186858
0.186752
0.186528
0.186854
0.187357
0.187451
0.182998
0.185359
0.187689
0.187213
0.186695
0.185598
0.185563
0.18553
0.186897
0.186805
0.186603
0.187394
0.187183
0.187423
0.18735
0.186725
0.186705
0.186658
0.186625
0.186738
0.186579
0.186331
0.185445
0.185742
0.187669
0.188006
0.188335
0.187268
0.187111
0.188892
0.188322
0.188426
0.187982
0.184648
0.18491
0.184776
0.177639
0.187767
0.188091
0.188106
0.187608
0.187454
0.187482
0.185267
0.185154
0.185227
0.185022
0.185205
0.179999
0.182058
0.184669
0.188103
0.186577
0.1865
0.187007
0.186093
0.186815
0.186582
0.186163
0.18359
0.186464
0.184804
0.184887
0.180241
0.184505
0.187312
0.187398
0.185198
0.185204
0.185035
0.185041
0.184931
0.185273
0.18917
0.184523
0.184464
0.185012
0.185317
0.185298
0.18822
0.188142
0.187647
0.187117
0.187301
0.186276
0.18656
0.185928
0.185766
0.186522
0.185996
0.188329
0.188463
0.188597
0.188735
0.188634
0.187682
0.18759
0.184932
0.185183
0.187957
0.187936
0.187732
0.187876
0.186986
0.187595
0.187542
0.187507
0.187008
0.187085
0.186375
0.186781
0.186677
0.186327
0.186487
0.186964
0.186916
0.186883
0.186865
0.186973
0.186982
0.187659
0.188084
0.188154
0.18759
0.188032
0.185095
0.18492
0.186047
0.185517
0.186492
0.185749
0.188267
0.188207
0.188444
0.188445
0.186817
0.186961
0.186842
0.187951
0.187612
0.186659
0.18737
0.184798
0.185277
0.176121
0.173866
0.187652
0.187534
0.187584
0.187194
0.18498
0.184929
0.184691
0.184938
0.184835
0.189025
0.189028
0.187882
0.187778
0.187665
0.186998
0.187228
0.186954
0.185986
0.186149
0.185862
0.185861
0.185495
0.185595
0.185471
0.185228
0.18709
0.187692
0.187558
0.187652
0.186978
0.187094
0.18809
0.185381
0.182779
0.176091
0.184667
0.178607
0.180224
0.185321
0.186003
0.185532
0.185689
0.188089
0.188073
0.188434
0.188193
0.187976
0.185168
0.185056
0.185121
0.183878
0.184232
0.187246
0.187121
0.187416
0.185723
0.186358
0.186395
0.185439
0.188642
0.188612
0.188963
0.188919
0.189024
0.188762
0.18761
0.18777
0.187774
0.187711
0.177232
0.174313
0.186531
0.187182
0.18576
0.181904
0.187194
0.186788
0.187391
0.186271
0.178447
0.187551
0.187922
0.184903
0.185885
0.185535
0.185752
0.185827
0.185511
0.185563
0.184562
0.184602
0.184845
0.184438
0.185875
0.185899
0.185804
0.185808
0.185884
0.185987
0.185847
0.185931
0.186945
0.186377
0.187762
0.17621
0.172904
0.188404
0.184588
0.184561
0.18504
0.184641
0.184575
0.186827
0.186426
0.180071
0.180976
0.187474
0.185949
0.187851
0.188001
0.186421
0.185377
0.185558
0.184974
0.184858
0.186782
0.187105
0.187452
0.187672
0.18695
0.185519
0.187822
0.187664
0.182285
0.182823
0.179714
0.186873
0.187487
0.187671
0.186884
0.187296
0.189034
0.18892
0.189082
0.187258
0.185282
0.184786
0.18456
0.188194
0.188443
0.188834
0.188813
0.188169
0.188313
0.187507
0.187565
0.187455
0.18737
0.18751
0.18754
0.188097
0.188585
0.188216
0.188323
0.189037
0.189183
0.188828
0.188925
0.184307
0.184497
0.184846
0.184447
0.187446
0.187324
0.188924
0.189421
0.189185
0.187472
0.187573
0.187362
0.188794
0.188782
0.18898
0.188791
0.188878
0.187316
0.187744
0.187048
0.187014
0.186603
0.186434
0.185995
0.186128
0.186086
0.186364
0.187163
0.187321
0.18778
0.187763
0.173474
0.172088
0.18483
0.184932
0.188367
0.188017
0.186505
0.186259
0.186262
0.186006
0.186205
0.186207
0.185888
0.185315
0.185492
0.184875
0.184791
0.185165
0.184869
0.187582
0.187291
0.187345
0.186976
0.187597
0.187528
0.187401
0.187411
0.187449
0.187392
0.189416
0.189088
0.189093
0.189307
0.189431
0.187245
0.1871
0.186824
0.186614
0.186626
0.186932
0.187672
0.18754
0.187716
0.186985
0.186845
0.184599
0.184083
0.185328
0.186015
0.186706
0.184867
0.1846
0.184696
0.185125
0.184834
0.188928
0.188461
0.188629
0.188658
0.188876
0.186663
0.185972
0.184827
0.184579
0.1847
0.184629
0.185043
0.185443
0.185169
0.185627
0.185874
0.185087
0.184486
0.184521
0.184416
0.189259
0.189233
0.18914
0.188552
0.189401
0.187357
0.187216
0.186161
0.187805
0.187813
0.187541
0.18751
0.185206
0.186511
0.18522
0.185748
0.185072
0.185149
0.184781
0.18571
0.185754
0.184785
0.184625
0.175242
0.177375
0.189828
0.189736
0.189451
0.188003
0.186586
0.187305
0.182762
0.178824
0.181754
0.188655
0.188453
0.188671
0.186534
0.186475
0.185397
0.185259
0.186108
0.185161
0.187462
0.187294
0.187444
0.18711
0.187115
0.187045
0.186929
0.186809
0.1868
0.185204
0.184465
0.184661
0.186322
0.187859
0.186518
0.18734
0.187811
0.187958
0.187105
0.187651
0.187391
0.185262
0.182307
0.186208
0.186885
0.18721
0.187345
0.187285
0.184696
0.184484
0.184426
0.184544
0.187187
0.187289
0.186095
0.186095
0.182374
0.184846
0.184691
0.181378
0.184468
0.184589
0.184904
0.18565
0.185375
0.185033
0.186661
0.186464
0.187366
0.187393
0.187333
0.187278
0.18583
0.185912
0.186947
0.184604
0.186312
0.186222
0.185964
0.186262
0.186005
0.186073
0.186457
0.186341
0.186426
0.186106
0.186152
0.186146
0.186587
0.186557
0.186861
0.184753
0.18472
0.184744
0.187552
0.187451
0.187521
0.187218
0.187153
0.187012
0.176396
0.180507
0.186837
0.185767
0.186511
0.183886
0.186927
0.187377
0.187323
0.18714
0.187206
0.186636
0.186602
0.186611
0.18661
0.186641
0.187101
0.18691
0.186762
0.187109
0.186967
0.187379
0.187085
0.187236
0.187227
0.187098
0.187129
0.18814
0.18774
0.188048
0.187897
0.18764
0.189115
0.188921
0.188459
0.188875
0.188579
0.186884
0.187006
0.18688
0.186985
0.186902
0.188791
0.189063
0.184503
0.186259
0.186103
0.186448
0.188053
0.187481
0.185442
0.185163
0.185207
0.184367
0.185549
0.182762
0.184364
0.188332
0.188154
0.189356
0.189452
0.188883
0.189249
0.189241
0.189138
0.186854
0.187041
0.188761
0.188799
0.188683
0.188671
0.186451
0.185787
0.185009
0.18676
0.184914
0.185908
0.186078
0.185268
0.185111
0.180954
0.182762
0.183889
0.184927
0.185658
0.185837
0.186982
0.186987
0.186353
0.18633
0.187492
0.187254
0.177085
0.183469
0.185346
0.189152
0.188651
0.187111
0.187785
0.186729
0.185766
0.187393
0.187361
0.187321
0.187385
0.189128
0.189127
0.188872
0.188824
0.188837
0.188734
0.189061
0.18887
0.188657
0.186247
0.186299
0.187405
0.18515
0.184971
0.185729
0.185635
0.187183
0.187173
0.187236
0.187234
0.187201
0.187159
0.187321
0.187382
0.18743
0.187042
0.187724
0.186327
0.177215
0.170651
0.187067
0.187004
0.187104
0.18709
0.187069
0.187031
0.187473
0.18776
0.187953
0.187983
0.187605
0.187951
0.183297
0.186997
0.180827
0.183703
0.187865
0.188365
0.188859
0.188556
0.18871
0.187843
0.187445
0.18747
0.187345
0.187369
0.186862
0.184688
0.187045
0.187265
0.187312
0.187316
0.187257
0.187181
0.18719
0.186471
0.186421
0.186438
0.186561
0.18656
0.186923
0.186839
0.18689
0.186985
0.18694
0.184775
0.184856
0.184642
0.184672
0.184583
0.184799
0.185498
0.184918
0.184447
0.184855
0.184795
0.18486
0.163843
0.187994
0.188161
0.188494
0.188372
0.188484
0.184581
0.188158
0.188293
0.188195
0.188136
0.188326
0.186807
0.187162
0.187302
0.187095
0.187042
0.186888
0.186807
0.187114
0.18684
0.18687
0.185765
0.186581
0.187555
0.18683
0.185389
0.185403
0.18542
0.185706
0.185269
0.185209
0.186087
0.18584
0.18561
0.185364
0.185539
0.185221
0.187337
0.187438
0.184876
0.184669
0.18492
0.18538
0.185236
0.189097
0.189039
0.188915
0.188533
0.18879
0.188698
0.188252
0.189016
0.188884
0.189187
0.189229
0.189491
0.188158
0.18779
0.187606
0.187179
0.187302
0.187232
0.185344
0.18521
0.17721
0.174742
0.171407
0.185663
0.184674
0.184822
0.184538
0.185907
0.185382
0.184675
0.185983
0.184723
0.184815
0.187598
0.187561
0.187778
0.187884
0.187745
0.187114
0.187164
0.188001
0.18789
0.187965
0.188347
0.187844
0.182843
0.18511
0.186272
0.185956
0.183699
0.178925
0.174403
0.186166
0.186052
0.185935
0.185995
0.185881
0.187281
0.183351
0.186425
0.175333
0.171367
0.170691
0.186254
0.186391
0.186475
0.186638
0.186529
0.18638
0.186331
0.186452
0.186747
0.186648
0.186536
0.186522
0.186717
0.186654
0.186604
0.18666
0.186636
0.187304
0.186891
0.18751
0.187802
0.187979
0.188325
0.187543
0.187981
0.186888
0.187162
0.187167
0.186123
0.181933
0.179979
0.182851
0.186488
0.185782
0.187251
0.187269
0.187195
0.187278
0.18715
0.187148
0.186996
0.186884
0.186856
0.186751
0.187095
0.187136
0.187004
0.187976
0.188312
0.188279
0.188321
0.188134
0.188253
0.187698
0.187921
0.18743
0.187672
0.187233
0.186556
0.187176
0.185247
0.185043
0.186927
0.184581
0.184949
0.184369
0.187319
0.187248
0.18737
0.186952
0.18779
0.187117
0.187798
0.18775
0.184589
0.184899
0.189131
0.188917
0.188914
0.188914
0.184159
0.184267
0.183854
0.187259
0.187356
0.187785
0.187803
0.187902
0.175135
0.17752
0.187809
0.187856
0.187869
0.187796
0.187695
0.185971
0.185804
0.186446
0.18553
0.185821
0.186719
0.185991
0.186911
0.186721
0.186736
0.186704
0.186839
0.185289
0.181031
0.176999
0.184941
0.185137
0.185041
0.185475
0.185839
0.186659
0.186637
0.186855
0.186701
0.186636
0.18668
0.186665
0.186604
0.182057
0.180881
0.176463
0.18808
0.188001
0.185358
0.186875
0.187496
0.187376
0.187751
0.186967
0.186855
0.185912
0.185294
0.18577
0.186004
0.185581
0.185421
0.186844
0.186374
0.186567
0.186941
0.185659
0.18533
0.18731
0.187293
0.187208
0.187214
0.187145
0.187221
0.18697
0.184811
0.186214
0.188294
0.187705
0.186785
0.184742
0.18438
0.184452
0.184314
0.18442
0.184469
0.187087
0.186991
0.187705
0.188239
0.188026
0.187336
0.18727
0.185026
0.185214
0.185156
0.184889
0.185292
0.185399
0.184964
0.186032
0.186815
0.186327
0.185737
0.184914
0.184846
0.185237
0.184867
0.184722
0.184833
0.186282
0.186105
0.185886
0.185764
0.18576
0.187459
0.187436
0.187441
0.187475
0.18758
0.18748
0.187558
0.187177
0.187011
0.187335
0.187389
0.187086
0.188566
0.188913
0.188751
0.188784
0.187216
0.187083
0.186821
0.186842
0.187132
0.186845
0.186761
0.186814
0.186937
0.186838
0.186992
0.187007
0.189072
0.189136
0.188679
0.188138
0.188783
0.185859
0.18602
0.185793
0.185738
0.185832
0.185968
0.187165
0.187243
0.187226
0.18723
0.187031
0.187175
0.187155
0.187041
0.187607
0.187623
0.186377
0.186519
0.186752
0.185484
0.185182
0.185739
0.185708
0.185685
0.186889
0.186584
0.185991
0.186546
0.186098
0.186202
0.186538
0.18902
0.188801
0.188842
0.188003
0.188054
0.188263
0.186259
0.185826
0.186575
0.187807
0.18724
0.187358
0.188978
0.189062
0.188977
0.188917
0.188856
0.189277
0.189576
0.189375
0.189497
0.189329
0.187938
0.188916
0.188865
0.188806
0.188326
0.185863
0.185769
0.186083
0.184328
0.184829
0.187205
0.187491
0.187592
0.188438
0.189009
0.188808
0.186805
0.186831
0.187727
0.187801
0.187396
0.187679
0.188284
0.184217
0.184132
0.185073
0.184808
0.185308
0.185176
0.185076
0.18673
0.186699
0.186746
0.1868
0.186759
0.188002
0.187876
0.188455
0.188307
0.188231
0.188913
0.188728
0.179586
0.187508
0.187218
0.187158
0.187433
0.187185
0.187029
0.186823
0.186799
0.18752
0.187196
0.188507
0.189596
0.189146
0.188801
0.187257
0.187149
0.187411
0.187399
0.187392
0.187466
0.187221
0.187153
0.187149
0.186726
0.186562
0.186679
0.186621
0.186816
0.186481
0.186457
0.186397
0.1869
0.186878
0.186837
0.186968
0.186834
0.186222
0.185099
0.180648
0.182125
0.185677
0.172972
0.167705
0.186714
0.186763
0.186574
0.188249
0.187483
0.188279
0.186469
0.186341
0.18657
0.186831
0.186429
0.186269
0.186378
0.186314
0.186365
0.186252
0.186045
0.186153
0.186047
0.186141
0.186096
0.186117
0.18604
0.186206
0.186178
0.186885
0.186923
0.186843
0.186871
0.186922
0.186895
0.188174
0.18751
0.188139
0.187769
0.188448
0.18816
0.188422
0.167374
0.161102
0.185799
0.183326
0.179443
0.185453
0.180671
0.186015
0.185968
0.186019
0.185906
0.185897
0.186246
0.186191
0.18654
0.186334
0.186552
0.186372
0.186785
0.186763
0.187031
0.18701
0.187309
0.187062
0.187251
0.187301
0.187144
0.18732
0.1874
0.187347
0.186411
0.186442
0.186057
0.186037
0.185964
0.185915
0.185927
0.186921
0.186673
0.186868
0.186436
0.186385
0.186371
0.186473
0.186404
0.186333
0.186406
0.186429
0.186282
0.186212
0.1863
0.182719
0.186794
0.183251
0.18606
0.172776
0.169614
0.186714
0.186711
0.186511
0.186717
0.186581
0.187108
0.186849
0.18704
0.186874
0.186932
0.187196
0.187137
0.187137
0.186996
0.186926
0.186938
0.186733
0.186846
0.187023
0.186888
0.186918
0.184648
0.183419
0.187059
0.186995
0.185104
0.184957
0.184791
0.184799
0.188291
0.188404
0.186168
0.18627
0.18757
0.186724
0.186531
0.1874
0.184308
0.185076
0.187559
0.187556
0.187303
0.188144
0.187871
0.187685
0.188073
0.188176
0.188065
0.188239
0.188215
0.18822
0.187477
0.18747
0.187358
0.186463
0.185199
0.175675
0.173484
0.187421
0.187369
0.187385
0.185167
0.185316
0.1853
0.185792
0.185222
0.185348
0.176632
0.180385
0.181215
0.172394
0.186173
0.182653
0.185304
0.185231
0.185793
0.187054
0.187203
0.187066
0.187133
0.187185
0.187159
0.187132
0.187249
0.187213
0.186336
0.186495
0.186974
0.187154
0.187149
0.186886
0.186916
0.187195
0.187196
0.186952
0.186904
0.187051
0.18697
0.186918
0.18703
0.184662
0.186707
0.184923
0.187122
0.187406
0.185425
0.185036
0.184715
0.184666
0.184861
0.184836
0.184938
0.185232
0.18445
0.18498
0.185074
0.184845
0.1898
0.189936
0.187511
0.186709
0.187453
0.187929
0.187184
0.186136
0.186108
0.18617
0.186572
0.186625
0.186753
0.189833
0.189859
0.189775
0.189793
0.188963
0.188594
0.186888
0.182716
0.184358
0.184836
0.185021
0.186972
0.184605
0.185754
0.185906
0.185838
0.184776
0.185215
0.189219
0.189057
0.187418
0.187284
0.187339
0.185057
0.185008
0.186699
0.185771
0.184831
0.18481
0.188159
0.189006
0.189099
0.189103
0.185143
0.184907
0.186864
0.186819
0.186723
0.1875
0.186985
0.186868
0.188519
0.188059
0.186912
0.186771
0.186908
0.186874
0.186784
0.187438
0.186911
0.178266
0.165216
0.155147
0.179921
0.174575
0.186912
0.187525
0.180537
0.18683
0.186854
0.167891
0.179319
0.187367
0.155388
0.187105
0.167519
0.160124
0.180346
0.179201
0.161726
0.170981
0.168076
0.165815
0.1666
0.163267
0.17104
0.176321
0.171225
0.170786
0.168459
0.169512
0.174788
0.178931
0.18563
0.171012
0.172506
0.180725
0.17183
0.176515
0.17706
0.169334
0.175925
0.17611
0.16802
0.181059
0.183817
0.177464
0.172712
0.180618
0.185143
0.177026
0.180295
0.165498
0.157694
0.161586
0.187089
0.174767
0.176591
0.168953
0.171379
0.173684
0.172632
0.180066
0.174985
0.180286
0.187032
0.187366
0.184964
0.184049
0.185065
0.173918
0.173726
0.180897
0.17584
0.182143
0.18139
0.177836
0.187622
0.18152
0.187471
0.187488
0.186759
0.186843
0.177181
0.180663
0.173806
0.176306
0.187164
0.180008
0.187547
0.177546
0.178413
0.177538
0.17792
0.182031
0.182469
0.178098
0.170406
0.163867
0.16907
0.178616
0.175675
0.178926
0.176631
0.176372
0.171106
0.16876
0.171409
0.186111
0.18395
0.174958
0.173265
0.17654
0.187124
0.186999
0.179838
0.187224
0.200177
0.197993
0.18931
0.180583
0.184451
0.179983
0.175973
0.182091
0.166556
0.169774
0.173456
0.168283
0.1714
0.195156
0.167696
0.168201
0.178038
0.173915
0.179654
0.17673
0.169932
0.175336
0.176853
0.172287
0.177714
0.187015
0.186996
0.173969
0.171399
0.177554
0.162855
0.16813
0.183018
0.177414
0.183301
0.179378
0.184281
0.168724
0.16741
0.173568
0.179986
0.186723
0.180959
0.189846
0.186885
0.186813
0.186894
0.187475
0.179742
0.187656
0.182625
0.187728
0.185941
0.186852
0.184268
0.185093
0.173045
0.171238
0.166962
0.17143
0.163137
0.17149
0.164357
0.171593
0.161882
0.159925
0.181322
0.179717
0.184126
0.179284
0.184353
0.168193
0.171402
0.173946
0.16603
0.16971
0.176046
0.179075
0.155843
0.159485
0.179632
0.183267
0.184746
0.184567
0.189864
0.187162
0.187316
0.185938
0.163467
0.172867
0.190485
0.184757
0.182092
0.184217
0.173132
0.177217
0.192337
0.171394
0.175512
0.174567
0.173057
0.184568
0.17907
0.184405
0.179369
0.186985
0.186859
0.186957
0.161916
0.16773
0.177403
0.186828
0.185636
0.183411
0.184563
0.162812
0.163276
0.142246
0.152878
0.159159
0.157648
0.175076
0.162511
0.180262
0.184526
0.184189
0.181524
0.184597
0.178393
0.170094
0.169369
0.160185
0.193149
0.188494
0.187423
0.187415
0.187101
0.187277
0.187277
0.178955
0.18387
0.180443
0.175689
0.177321
0.184049
0.166078
0.174278
0.144499
0.154483
0.166975
0.168843
0.183965
0.180346
0.184172
0.179687
0.1756
0.174001
0.160515
0.18409
0.179088
0.184406
0.192746
0.189812
0.188549
0.191438
0.189243
0.188052
0.180996
0.195677
0.189932
0.189398
0.189767
0.186696
0.187904
0.1539
0.155828
0.197153
0.190001
0.172728
0.165513
0.170738
0.178402
0.181974
0.176193
0.187268
0.187109
0.187241
0.155738
0.157109
0.169949
0.170712
0.173426
0.184506
0.185329
0.187718
0.179526
0.187736
0.1767
0.161806
0.16274
0.170807
0.165463
0.179836
0.154918
0.158376
0.190921
0.196106
0.1895
0.186455
0.187027
0.185146
0.179547
0.178935
0.173172
0.172355
0.180893
0.183957
0.16099
0.153992
0.155085
0.179154
0.183366
0.177708
0.186497
0.185221
0.158942
0.167853
0.163126
0.168861
0.178941
0.173567
0.179402
0.183593
0.183372
0.177946
0.181372
0.176608
0.174035
0.168493
0.177399
0.177828
0.172353
0.172246
0.187354
0.18643
0.163676
0.167621
0.162995
0.147912
0.184625
0.183975
0.140775
0.148081
0.177824
0.183425
0.180078
0.184012
0.184283
0.157005
0.159158
0.154916
0.184277
0.179037
0.183529
0.17436
0.168232
0.153359
0.152698
0.154224
0.191338
0.190121
0.180788
0.183706
0.183777
0.159493
0.160617
0.169949
0.170427
0.170738
0.166357
0.175108
0.18128
0.184079
0.177654
0.183989
0.181514
0.187765
0.182741
0.184213
0.183956
0.179668
0.170647
0.169164
0.166184
0.152328
0.168207