/*--------------------------------*- C++ -*----------------------------------*\
| =========                 |                                                 |
| \\      /  F ield         | OpenFOAM: The Open Source CFD Toolbox           |
|  \\    /   O peration     | Version:  2206                                  |
|   \\  /    A nd           | Website:  www.openfoam.com                      |
|    \\/     M anipulation  |                                                 |
\*---------------------------------------------------------------------------*/
FoamFile
{
    version     2.0;
    format      ascii;
    arch        "LSB;label=32;scalar=64";
    class       volScalarField;
    location    "40";
    object      p;
}
// * * * * * * * * * * * * * * * * * * * * * * * * * * * * * * * * * * * * * //

dimensions      [0 2 -2 0 0 0 0];

internalField   nonuniform List<scalar> 
184166
(
36.2133
100.742
7.19185
27.7259
48.9249
12.9444
8.34718
8.33458
35.4613
55.032
19.196
3.47309
5.09842
64.0874
45.5022
36.0374
23.8617
75.6017
14.2907
49.7129
14.9139
8.39263
13.2161
57.6835
27.1725
43.85
51.7675
10.5056
44.5617
5.16367
35.0778
103.661
42.7642
62.0993
23.0106
1.5702
4.87473
20.0962
54.6942
102.979
65.6727
2.00455
43.8662
70.6
22.2193
66.4196
103.562
57.0443
21.4217
44.7748
11.2868
104.611
11.3165
29.2951
23.1437
9.14873
21.165
23.6944
43.802
51.8828
2.66721
51.1
34.5306
12.0952
51.2152
6.20776
99.9858
50.6199
8.67691
50.0636
7.8812
56.8045
40.9435
33.5086
15.2652
17.2206
83.8029
34.3941
85.9391
98.918
100.077
88.7835
54.102
10.8204
36.9426
29.2532
14.7615
13.6159
73.1219
15.3944
8.21871
47.4534
36.2112
60.13
32.2663
104.28
28.709
104.99
13.8259
34.2018
5.08971
2.64256
35.4583
44.766
9.56356
18.6127
34.8881
48.8355
8.26099
3.09189
102.178
43.1802
105.667
13.0743
49.0796
60.3507
43.8651
13.3873
100.531
101.663
35.4278
2.18281
21.9186
21.1617
18.6158
31.8571
22.4914
24.5248
42.2609
43.1551
5.19252
23.2049
67.7099
74.5092
18.4689
1.11433
17.6681
61.4949
72.8803
14.0183
25.6938
9.00095
8.42436
2.25742
61.7315
48.6871
7.67886
45.4359
10.1059
52.3169
54.7765
52.6383
35.7898
30.5842
42.5788
45.4276
36.9466
34.7334
33.0749
12.6393
105.384
10.1453
8.45342
19.737
86.9638
23.8548
47.8037
47.7595
7.90299
48.2568
24.5927
34.3681
10.7598
57.4195
23.6672
100.67
15.0299
39.4879
43.4327
61.4179
8.28219
1.52577
65.6358
48.3234
53.7962
26.9458
45.3912
59.5209
104.318
11.0952
74.4008
41.5242
7.72965
105.172
5.77608
50.0808
45.0672
30.7139
11.3243
50.8878
20.6728
43.569
7.77018
76.4506
103.098
29.6784
4.30986
5.38379
67.7589
24.7467
44.1172
8.27243
5.94501
59.7955
95.4752
20.0019
61.994
14.3459
11.6743
102.685
87.8585
9.12877
9.36119
3.17504
103.596
4.5272
16.8967
21.5766
26.3111
8.53957
47.5817
90.6067
20.4394
1.83962
35.1577
3.57703
45.2627
44.5573
2.55747
104.644
105.762
35.1044
27.585
44.278
11.5396
50.8107
45.3848
4.64431
60.946
52.732
59.7055
55.8695
41.9303
4.73172
59.7801
38.8274
45.3929
45.5375
69.8658
1.79086
61.0594
102.713
22.2145
65.8623
40.2689
26.3262
35.9793
16.5441
27.0006
58.4906
44.819
12.4196
61.772
43.8242
1.8777
79.6178
104.542
45.2345
88.6062
48.158
4.85786
43.8891
43.5712
25.7914
103.459
6.18467
7.79504
50.4874
78.18
7.18493
56.9693
54.6031
43.9708
24.6988
41.7834
58.0746
9.83433
34.9481
60.5539
51.635
22.4196
8.42718
11.3284
45.5339
57.2832
66.1855
24.3776
3.86885
15.611
8.67755
24.9857
44.5483
40.8374
50.7637
49.4858
47.754
81.3188
58.4898
19.431
58.522
15.6252
17.2157
59.0918
57.3037
76.9218
9.54564
74.6278
81.9684
4.91727
21.9302
21.5224
13.1317
12.7148
41.7076
8.13838
69.2493
5.10793
7.80605
49.4644
51.9186
74.014
38.8612
49.9791
54.6391
70.5159
52.9961
97.0884
8.04815
23.5232
11.1178
103.549
23.2309
44.754
101.187
16.1642
51.6425
39.5365
71.9039
50.3836
47.0734
88.3382
7.58714
41.1185
89.3281
35.2549
58.506
8.90395
97.3225
99.6579
8.31146
104.224
46.8397
46.2058
57.0504
59.3061
59.6879
6.57417
45.0597
0.675499
50.2839
49.999
49.3364
41.8147
40.2018
34.566
61.5404
58.7869
90.9963
24.0526
25.0042
30.2917
34.3877
32.8054
105.346
9.80676
8.13522
57.2866
74.7334
9.52183
71.4503
46.492
5.78766
42.3068
13.5256
11.4622
68.6192
59.8331
57.948
44.0036
86.6
80.1477
18.0491
18.3762
16.2437
16.2693
98.7566
20.5825
15.6647
13.9477
11.2317
43.5991
63.3308
65.8076
63.4554
56.1952
8.41947
9.13591
10.4737
6.26369
6.90366
7.2605
99.4574
43.2265
43.0129
42.2207
41.1268
40.6757
39.9059
26.4807
27.2166
8.30983
8.87879
8.74137
8.05563
9.46786
9.6723
9.92849
9.15401
49.684
49.3469
48.6233
49.4452
48.187
48.3999
46.6566
20.6354
19.4308
19.9464
20.7076
64.2778
1.37341
101.841
102.982
103.59
103.381
99.8469
104.318
101.892
11.9491
11.6797
13.0826
12.4424
20.1678
21.0116
3.00185
5.47295
6.96716
7.89886
41.0725
42.2948
42.0021
42.4836
8.20737
8.13584
1.70376
2.60332
2.1856
3.84505
3.09157
3.37623
57.8124
4.47899
5.10897
5.09684
104.864
33.1567
29.1328
28.1352
30.654
31.3307
30.0313
29.9232
19.5865
18.7399
19.9663
19.3951
17.3004
17.5195
18.035
31.8453
31.4312
8.12481
8.25916
104.793
71.2098
62.8006
62.9308
43.5689
42.3187
43.0738
42.5088
50.4588
53.0532
13.2387
14.1151
13.479
12.9867
67.7289
66.4874
59.2773
63.44
49.8946
49.2988
48.7872
54.5939
51.6
52.8867
38.44
38.1037
38.1824
37.287
37.2483
36.3991
31.8181
31.414
24.5545
23.193
13.0502
79.4968
90.0825
94.0142
83.4751
89.7163
84.0753
85.9941
92.9084
87.0422
98.6162
101.41
32.5829
30.9898
31.9017
31.359
28.6073
30.1653
29.4231
29.0631
32.5522
30.1517
43.9681
44.7664
44.9985
52.3232
34.6063
59.0061
101.054
93.311
8.21267
8.12779
8.33265
8.18243
37.9384
34.9696
56.3885
61.5375
58.8507
62.0316
53.2481
56.5138
30.4961
29.5866
42.1111
41.2704
40.9334
102.849
14.8236
13.8607
14.0661
28.4832
30.1809
29.0359
29.8678
30.772
32.4024
31.2861
32.1589
17.8277
18.4909
19.0115
1.85209
104.546
105.106
104.639
50.1318
52.086
51.8526
50.8967
54.7164
52.3149
54.6146
53.2617
6.51422
7.51754
6.25168
6.97507
56.0503
53.0585
13.1038
9.12043
9.27336
9.85633
70.994
65.3909
59.3019
55.7439
2.82825
1.54583
22.3679
21.4359
21.6932
45.8764
12.7604
51.6977
50.3843
50.611
51.2225
53.9186
52.5706
52.8029
53.586
11.7894
14.1139
8.76031
9.69201
9.04943
8.61045
8.67479
32.2054
31.8985
31.1877
30.0938
29.6987
28.9057
104.307
54.7064
59.6048
54.6586
56.8444
2.56735
12.4493
13.468
13.274
52.0765
51.4676
51.0483
97.088
104.627
104.108
99.4087
100.417
104.023
49.1136
103.156
101.438
32.5606
32.4476
31.6608
1.34152
1.62602
1.88887
2.00631
1.11829
1.00218
49.4767
48.2082
48.3277
48.9548
49.3549
48.8586
16.083
16.1442
35.4937
30.7945
27.4337
28.5232
15.5699
22.3205
31.4789
31.4145
50.4179
49.4045
49.3883
6.37512
5.90903
7.36522
6.4261
19.9741
26.0468
47.828
46.7741
47.5894
83.062
78.9215
13.4425
14.2949
14.4928
40.1075
17.8998
19.2229
57.7611
56.5047
57.0603
56.2579
60.4809
60.5811
7.09901
9.02319
8.96086
37.2043
30.5677
34.6069
37.0196
0.871206
91.4967
104.934
104.306
104.765
37.8793
23.7447
16.8998
21.7474
34.5976
29.1076
48.0789
47.5027
72.6534
68.3713
71.3246
68.3926
20.0383
17.5979
20.2598
18.7974
1.4126
0.813552
0.988561
0.782203
1.23698
1.42247
4.43411
4.42433
4.47692
47.2989
23.7763
0.784794
1.0743
0.827115
49.0227
48.3788
48.3158
48.1745
43.1097
42.3796
43.0641
51.3158
18.1879
18.3997
17.4783
92.402
90.2445
8.26332
8.35271
8.30843
8.31619
86.4153
93.9273
95.7389
97.0007
100.555
102.853
17.3353
18.2152
50.4304
50.8524
51.9409
51.7192
72.1875
67.4102
66.1994
29.8078
2.18424
2.47667
1.85398
1.95929
102.45
103.211
36.8522
36.8245
8.23425
8.765
8.51121
8.14083
33.7595
11.6398
15.5529
12.0595
13.5918
7.26131
8.11896
7.62053
6.71045
28.3798
69.6251
65.9342
69.9149
67.1805
18.1971
18.6132
30.6836
16.9379
15.3105
17.354
15.4257
68.5712
79.9869
10.12
20.018
20.6846
57.3631
4.16175
1.39495
18.8547
16.7406
17.6967
19.1062
8.3211
8.05406
58.0181
58.1224
34.6141
42.5023
37.4985
42.1915
105.183
105.682
18.3332
18.8954
35.679
37.2636
35.977
91.7104
70.5763
83.1923
72.1337
104.77
103.964
39.7904
39.985
41.3041
40.8095
41.2595
40.2979
10.7156
13.9856
20.69
19.5519
34.692
39.8949
31.9601
34.788
98.3787
98.6677
33.8207
34.9968
45.8589
46.0128
15.079
14.0153
13.8527
14.5616
50.2433
49.4708
49.6805
89.3865
73.7528
84.245
7.87251
7.23513
7.78285
7.20721
19.9798
20.465
65.9269
60.3971
59.0566
56.4495
55.715
58.688
57.0267
38.324
36.1778
35.4832
34.499
56.008
55.5971
27.2325
25.497
21.1711
22.2963
3.65495
2.62124
2.91935
3.41013
3.40757
3.75711
83.4832
7.42106
7.62427
7.02808
6.39392
70.6309
59.0452
59.2298
67.4612
73.7051
71.3219
81.936
44.5951
43.0996
43.5248
44.4943
11.5169
10.8187
12.6873
12.2395
11.1796
15.6153
16.2755
16.8657
30.1939
29.3743
66.6416
67.9425
59.1117
56.8215
21.9257
21.0264
21.28
32.811
32.0173
3.08556
3.10506
15.4541
3.89186
3.02239
2.80287
1.84034
2.37724
54.2381
51.0121
51.5432
53.3375
36.2958
36.5374
35.9186
35.7345
56.3714
60.6748
62.0607
63.3838
10.8732
12.7087
13.2393
14.6523
11.9407
29.7498
29.6618
30.8268
30.3221
10.3774
12.3302
10.2595
97.7071
47.7534
45.9511
15.293
14.1742
38.1948
37.5422
21.7673
22.4445
14.1774
14.5977
15.1118
14.5201
98.0707
104.494
105.093
104.419
42.7777
42.6854
43.9441
43.6083
49.8099
48.991
49.2387
57.7996
54.6252
54.4121
58.4055
52.6326
53.0661
40.9
29.9825
35.244
23.9727
7.40168
8.97932
7.90002
8.55825
60.9578
67.0989
61.5071
70.569
65.7772
77.6498
80.2874
67.3069
74.688
37.7733
41.4039
31.7706
33.1458
39.962
18.4075
17.7203
35.0422
40.4099
39.5829
38.8578
38.9705
9.33831
105.195
105.492
11.8443
11.5062
50.5403
52.2128
49.5764
48.6772
5.62983
6.44902
92.6831
102.72
69.3352
2.40356
2.20555
38.8526
37.456
1.97398
2.57602
2.17792
105.231
105.008
104.903
44.7266
45.8262
45.8678
45.1057
101.799
102.227
27.9823
28.2783
24.3294
18.5872
19.6971
41.5218
41.0997
45.2994
45.7676
46.5458
8.32037
8.22004
8.26018
8.25437
8.31719
79.9154
4.58685
70.4362
70.3975
78.2083
74.5214
23.9557
15.3345
15.9769
15.7016
15.0821
58.4353
42.846
43.0261
44.1148
43.4061
6.77874
6.20395
6.60004
6.07768
2.096
1.51818
50.3003
51.251
49.2365
49.0887
42.3332
44.3112
39.6844
25.2451
25.6142
22.6285
25.2683
11.2966
12.7399
19.9453
98.443
83.2938
92.5093
96.4922
87.7311
4.43679
5.08507
55.48
10.8355
12.4846
11.3585
12.4267
22.4
22.4881
21.2258
8.21237
8.32064
8.32735
8.0447
24.9126
21.6736
15.2529
9.45406
8.8869
8.08526
8.0577
1.28114
1.43467
2.05186
1.67207
2.09344
61.4707
18.9511
16.0283
104.542
105.26
104.239
105.881
105.665
66.1787
68.4355
15.4621
14.6842
15.373
14.5924
57.1577
53.3843
3.35132
2.89661
2.89559
103.28
98.4814
0.7919
0.94688
9.97656
9.94768
10.3031
41.1805
42.3032
41.7691
51.4057
53.9706
52.6883
51.1221
52.8037
54.0469
104.219
13.315
11.3766
90.069
92.8539
82.5538
81.3396
97.9582
99.058
9.6748
10.5516
9.41498
9.89041
10.9626
10.7698
11.3188
11.417
23.2586
23.1131
20.7741
21.8501
18.5083
22.0787
18.6265
20.6749
3.06261
2.35209
88.6951
93.5341
82.007
59.315
66.2925
62.8386
67.3922
96.2883
77.3558
81.9068
40.601
30.0562
35.317
23.4761
63.8466
64.199
42.9509
62.9222
65.2929
67.8048
10.7642
12.3788
44.0663
43.9645
59.2815
58.5024
59.6281
58.9975
66.4911
67.8401
66.9858
17.5914
17.8552
16.7227
54.3817
54.115
58.2364
55.7936
38.2871
37.6781
5.67962
5.91906
104.139
103.895
104.418
7.32372
6.66964
104.67
104.146
104.999
5.95257
5.57351
5.60167
6.58435
6.20936
19.4492
19.7352
20.2932
18.9709
19.1995
49.131
49.7244
48.3964
49.0877
14.5006
14.4243
8.34376
8.26657
8.28688
8.20596
8.23342
12.0267
12.7113
47.4057
47.5521
47.2998
33.1574
34.1342
33.6206
33.3588
34.0761
55.8208
26.2163
25.4142
25.1581
13.613
14.1981
14.6697
63.968
71.2312
69.9665
63.147
66.4377
51.9185
51.3121
52.9673
53.0582
56.7479
61.4654
66.3666
37.9287
38.7902
37.1373
37.1035
60.3517
104.299
17.0716
17.3819
17.9853
17.7734
49.3703
48.859
50.0732
49.1053
49.9698
7.22174
6.21056
105.571
105.822
105.649
105.46
105.702
10.4899
25.6961
25.1787
66.2652
69.6567
74.6058
10.2742
13.7328
14.3052
15.2115
23.817
16.0169
102.219
99.2495
94.9562
95.0171
102.595
99.934
22.6801
22.3072
24.4247
105.436
30.3665
25.6966
20.6869
10.9933
11.0437
10.9331
89.2128
85.8826
91.2941
44.1397
36.8408
1.30868
1.57533
5.91184
5.25413
5.55113
5.03746
6.31414
5.86199
16.3308
15.8175
16.8282
41.5396
41.3471
42.5055
1.36895
1.06953
58.3184
64.9197
60.5776
66.287
8.42197
8.1409
4.40915
62.2206
47.0321
46.7827
46.2616
9.00231
8.60928
8.4012
105.52
105.026
105.591
105.231
105.036
14.3301
14.9235
7.9797
74.7039
90.9012
23.266
23.6471
19.3852
23.8753
20.7957
17.9332
27.2204
28.1872
28.047
57.4865
58.4443
58.2668
39.5471
40.0122
105.718
105.696
105.507
105.592
105.649
105.622
47.0367
8.81827
7.33274
105.679
105.316
105.239
28.9315
30.2671
26.569
23.2649
37.8521
16.017
19.2033
14.6
12.0658
18.1874
16.3735
62.6599
61.5364
60.1361
58.4976
58.7694
18.1591
17.9214
11.1557
12.3018
60.8928
62.5596
61.8173
63.187
22.8565
26.0263
26.6105
27.0633
22.2899
23.8447
15.2386
17.4946
17.5653
14.3663
15.6153
3.35922
2.40216
3.26102
2.82093
2.52735
2.93848
31.7085
32.3022
31.8445
31.0349
31.0455
92.6643
94.5047
76.1552
85.0583
71.8501
82.6683
66.6866
68.8931
63.761
64.2595
5.64238
6.70987
5.90254
53.9468
60.3454
72.1721
66.7909
105.598
105.582
16.7952
15.9365
25.6271
24.4739
25.6241
24.098
8.15032
8.26891
7.91007
8.22196
8.25266
37.5231
38.4987
44.9079
44.944
45.6888
81.3386
87.3727
89.106
102.868
101.931
103.594
103.561
8.20703
8.08319
8.17176
8.18615
25.9589
29.1234
29.989
29.066
23.8738
24.7948
43.3636
23.2805
23.4182
23.0076
22.4451
22.242
36.6774
9.92064
15.3928
8.82751
11.4657
59.0549
60.762
58.9985
61.7517
60.5129
105.415
105.455
105.645
44.2918
44.9396
1.24425
1.09707
25.9154
14.1691
20.4045
21.1811
15.4318
33.6631
33.3318
35.2238
35.5106
34.544
33.5822
58.0259
53.3562
54.2008
55.2805
13.4747
12.8941
20.1343
21.9831
15.4653
40.1596
67.8484
70.9132
70.3258
84.8049
1.32184
25.4245
25.0234
7.94015
11.7567
10.7583
10.6567
11.3358
10.3969
10.668
7.28569
5.62686
9.60467
6.27702
9.49987
10.4538
9.82451
10.2213
9.50548
10.6248
9.88926
10.4799
33.2915
28.787
67.5741
23.9591
24.2038
46.6088
8.1752
8.33089
8.34288
8.3212
56.3374
56.7531
57.2584
56.6407
57.2438
82.9989
91.702
38.8847
38.4797
37.7111
15.3446
14.4748
12.5676
12.0456
22.7683
24.7473
26.9414
27.6673
1.15222
1.016
52.2139
51.168
16.3496
15.8134
15.2187
68.6063
59.9726
60.1266
73.4963
67.81
39.0812
39.4924
40.104
54.8717
54.2656
103.668
103.693
47.2186
47.4285
46.3889
46.7476
46.8349
46.4905
16.9268
17.2148
16.2904
15.9257
16.1454
16.7272
46.9013
46.1262
46.31
45.9339
39.0584
41.3834
39.5244
40.6903
7.21092
7.67678
7.90226
7.69021
48.3816
47.2604
50.9518
51.6368
49.6673
46.4719
45.6658
46.2464
39.1725
38.4106
39.0981
38.1814
38.5116
31.1938
27.0112
22.0192
23.2413
91.5397
90.7462
97.8765
100.222
99.1277
95.1218
82.6039
78.7743
71.8244
72.7568
21.5182
22.0545
103.509
103.524
34.1257
34.0909
104.173
103.035
103.098
104.028
103.846
103.545
13.3477
12.4045
13.8621
103.991
103.875
101.712
103.85
74.7936
74.6127
79.5652
84.2296
51.864
51.126
55.1643
53.8541
53.3894
51.8249
48.9335
49.6859
50.5681
49.5692
50.6264
5.77216
5.09825
90.9403
96.3824
97.4798
48.4202
49.438
49.6373
50.3267
6.48372
5.66702
8.46491
8.18475
88.3124
84.9335
74.4202
11.2402
10.4037
10.3157
12.8057
11.949
39.5016
38.8534
38.8319
43.8262
43.1489
63.8928
63.2066
102.758
99.0425
102.943
102.007
97.9288
9.93984
93.7813
86.9397
83.341
90.6129
102.901
102.64
103.285
56.2346
63.4033
58.843
63.5353
57.4748
78.5505
81.1773
88.4276
47.0087
47.2663
47.8997
47.4932
97.2488
81.3006
90.3643
88.653
95.6109
13.087
9.08808
17.4737
16.6786
8.77177
9.45959
20.5974
19.9932
48.0717
47.8451
48.5429
37.557
25.0669
32.0542
34.1293
34.266
33.2442
44.045
44.9499
44.5091
88.4217
91.1647
98.3419
100.926
93.2068
99.4526
64.4857
64.2209
62.9796
63.2452
12.4788
12.4355
11.0712
10.868
10.3131
12.1324
8.19785
10.4993
75.3947
61.0508
76.0549
68.6492
54.6045
55.0065
62.9958
59.7365
63.8785
6.9038
6.55269
6.31247
60.6383
59.1786
56.0357
53.7178
7.70341
7.23396
7.6909
7.78617
3.86366
4.50742
8.25267
8.27251
59.5909
59.8077
59.1026
11.3258
8.17784
8.01135
8.25242
102.291
105.726
105.102
9.11743
8.17647
7.23375
7.95098
8.04132
7.50423
19.2141
22.229
31.7857
105.849
13.34
12.0818
11.2777
13.3847
12.0871
11.4851
14.0082
12.4543
14.15
12.6023
17.2377
16.8876
19.5476
19.2326
18.7551
7.24641
7.58975
7.32612
20.6541
19.608
20.765
19.568
18.3772
18.2972
61.0076
60.7835
61.9024
60.9647
61.9582
61.2831
36.0592
43.6371
42.2007
38.9116
41.9925
2.892
2.57337
2.46573
2.7596
3.02969
82.2789
89.3584
88.4214
80.3085
84.3787
44.4405
43.3405
46.5179
45.2221
46.6348
45.925
46.0125
46.2388
45.5047
45.2448
45.7649
38.8394
40.9957
40.0226
40.3737
39.4162
5.66531
6.87573
6.13267
6.6121
5.93371
54.8259
55.6039
102.562
94.5896
90.2312
89.3144
77.5267
78.3039
12.3772
11.0265
11.3093
53.2355
53.6378
54.0721
46.1341
65.6317
69.71
57.1133
56.8257
67.0586
61.7092
60.0894
65.1627
6.26543
7.19598
43.8287
44.923
44.8671
44.1956
26.1642
20.4488
11.5796
29.1515
11.3357
19.2261
20.7624
15.6541
38.3454
37.7945
37.3238
44.9253
11.4904
18.5041
21.0595
69.2458
64.5717
75.0609
76.7502
61.1483
60.1317
52.8571
54.9636
54.623
40.29
40.4582
28.5182
33.2859
27.2655
20.3788
49.9871
51.3056
49.9467
50.6671
44.0982
43.5764
43.6754
44.4491
43.1789
42.1876
43.0982
42.3652
41.8419
73.4908
77.9384
35.3252
102.483
100.922
94.1304
96.0549
4.52108
3.65856
3.55155
4.09481
2.33279
2.41438
82.1999
77.8501
73.7653
80.7646
74.6251
26.1249
25.6838
26.2291
4.36444
4.81399
4.66684
4.21631
5.21292
5.41823
28.5806
28.9941
29.139
28.5278
27.9095
27.8974
38.9683
40.2143
39.0399
39.9107
39.1867
39.4756
40.1709
40.6987
40.7739
39.9892
39.4665
45.909
46.0856
46.4042
1.50922
96.0269
50.1806
49.1974
6.24869
6.78576
7.01981
6.51203
6.04437
7.75615
6.85189
6.6507
7.89238
7.19364
8.57621
7.66936
7.21691
8.50248
7.60406
8.47666
8.20758
8.26431
8.78821
8.11853
8.18137
88.4808
103.957
103.202
99.686
100.373
102.08
22.8393
47.5409
47.0207
46.5644
47.638
46.9564
105.911
32.74
33.1388
33.784
33.0721
33.6238
48.8624
48.286
48.1596
48.8601
49.3363
5.04329
4.20899
6.74216
5.87166
6.32945
88.1501
84.595
74.0823
76.7726
105.607
104.628
102.416
100.287
105.116
103.191
16.8878
15.7735
14.7185
12.8501
13.464
12.3094
15.6332
15.244
104.235
104.27
104.852
8.32864
8.30251
54.1109
51.243
52.2847
53.1562
51.7344
43.19
51.7657
52.3165
51.6268
53.6264
55.0587
53.805
46.1612
46.9718
46.432
58.5078
53.599
55.2311
101.654
103.809
14.2285
14.7192
13.6863
15.6094
15.0763
7.62144
7.55035
23.1357
15.9503
11.5427
22.4351
8.56105
8.40597
48.5053
48.0133
47.7974
48.3389
47.8545
6.89432
7.48826
65.1109
62.9553
60.9886
61.6428
64.5278
5.40205
4.95049
5.30321
5.85398
5.92955
53.8199
52.9182
13.0862
12.3428
11.0687
11.9306
10.9442
23.7552
23.0467
23.0179
23.113
23.1828
22.3069
8.30499
9.9701
9.09118
10.9646
10.2472
9.89789
8.96157
10.9244
12.2533
7.56989
7.32709
6.88897
4.29293
4.0903
3.78258
3.87821
3.5822
48.1211
49.0098
49.6206
47.8071
49.9108
50.4669
49.0789
47.8605
20.0997
20.8019
22.2588
10.9914
11.7822
11.1173
10.7439
11.6314
12.0368
11.1059
10.4687
10.7836
10.2899
9.56083
10.0176
9.82915
93.4735
97.0583
93.6101
14.7569
15.9781
16.0459
32.0078
33.6549
32.2433
33.3623
32.225
32.9129
29.5207
30.5843
27.8978
30.0386
28.055
27.4898
27.3881
27.0937
26.4884
26.632
8.36088
8.46131
8.20515
10.5382
11.1224
11.9365
59.4909
58.8461
58.7251
60.4185
60.0707
103.865
103.677
47.7983
47.3948
46.1219
46.9377
103.297
102.686
103.544
46.6787
46.7651
27.5379
27.6475
28.3908
25.5182
26.4598
28.4367
29.3386
29.327
28.7833
28.2633
15.1567
11.5937
19.78
14.4896
16.2438
20.8293
17.5404
23.4536
22.1889
102.396
100.009
96.1074
58.4954
58.3323
57.8975
101.189
99.736
103.033
93.5852
93.5823
3.2207
3.13869
5.15192
4.13727
3.46728
3.65822
4.06614
3.80255
55.095
55.226
54.0621
56.2803
56.6288
56.3622
46.023
47.3257
44.5322
43.4735
47.7378
47.3992
8.05983
8.24834
8.31866
8.20402
8.10157
8.08783
34.0395
27.5547
29.6753
35.8835
21.0929
18.3569
50.2995
51.2189
52.092
52.3117
50.7718
50.0428
48.2398
47.581
47.1289
76.3572
78.3553
86.47
8.1047
8.12082
8.29166
8.23933
7.99076
7.76606
18.673
18.0658
29.4745
31.9797
32.5002
27.813
26.9583
9.04826
9.88678
12.6677
10.7056
14.051
98.4588
101.98
94.8841
85.3526
90.6564
97.3958
101.851
103.169
98.2651
101.453
105.286
104.991
14.7561
14.2487
12.3401
12.4059
11.5793
3.85378
3.26713
5.05067
4.48867
5.72039
4.59852
5.24016
3.26147
3.55238
3.55108
4.25665
4.18527
36.3438
37.5796
37.285
35.5462
23.1594
22.8374
19.8189
20.7041
21.8741
20.4013
1.19408
1.44685
46.5276
47.4709
47.0368
46.4036
48.5775
48.4856
38.1746
37.5061
38.134
11.841
12.5522
10.6134
10.2903
10.7871
11.7994
11.9094
12.184
11.4273
11.6287
11.0434
11.1691
10.6989
10.6137
10.2858
10.052
93.3179
87.6485
88.1194
100.669
101.066
96.1647
94.0112
97.084
83.5147
84.6659
17.5957
21.2633
16.601
17.7534
18.5849
41.0965
41.8883
40.2621
25.2767
27.2733
27.4933
90.6219
95.3239
94.1693
24.6532
22.5125
23.4024
40.1606
40.4934
40.8374
39.4528
39.4186
56.6712
56.1637
54.7981
55.4486
54.4658
52.7118
53.1953
53.0341
52.5359
52.3045
13.9661
10.471
8.90181
101.859
102.643
80.7513
75.0171
73.9175
33.3262
33.9925
35.9959
4.31892
4.76961
40.2911
37.264
37.5731
40.7665
42.0591
6.56129
5.31603
105.697
105.972
105.574
105.676
105.739
4.5419
4.47853
4.95642
5.27901
5.3857
25.8331
25.1555
31.6119
30.5343
31.2864
32.8245
32.9335
1.26625
74.5953
80.3123
75.593
79.2839
84.0525
84.4079
7.89848
7.87258
82.028
83.2519
72.1086
48.2466
47.9681
47.2088
45.4042
44.8035
55.0825
51.8684
57.8745
51.814
51.0414
53.833
55.6275
8.61911
8.39171
8.98972
10.478
11.8787
8.96624
8.07363
7.69856
9.73112
8.99031
8.86811
11.9607
11.0133
27.3011
27.4278
26.6037
26.1329
26.4301
26.9236
26.3268
14.0449
15.2291
14.5548
28.1831
27.6561
27.6471
11.5791
9.63994
12.479
14.0596
10.7309
9.67233
10.7494
7.34471
8.0993
7.74848
8.9126
9.86958
8.88773
9.57738
8.36127
9.28668
8.76388
8.51032
9.26153
9.78215
10.8501
9.58113
10.1803
11.2281
10.7243
26.2411
26.2784
26.938
26.9847
27.8964
27.5952
26.7348
23.7781
23.433
24.9647
24.4441
24.7872
25.5214
25.5098
10.2059
9.15763
9.59557
9.41443
10.0188
10.4096
11.3987
11.6539
10.5046
12.625
12.6522
14.2616
13.6693
15.7242
14.9167
16.5096
15.8024
16.7168
15.8032
14.987
15.6334
16.8651
17.0708
10.8836
11.9781
10.4112
9.78949
9.24833
9.45226
10.0858
13.1009
11.3307
12.2261
7.24767
7.47941
8.60573
9.78744
9.92614
9.31657
8.45379
9.07731
8.86633
7.99478
8.31764
17.1117
17.5104
17.8832
18.0864
17.7393
16.9295
10.554
9.64953
9.39418
10.9565
10.3398
13.2314
12.2627
13.0392
11.8395
12.2793
47.7091
48.5904
48.2234
47.5442
48.3677
47.6675
102.276
99.2435
93.6828
89.9839
90.2672
7.07239
6.40606
19.056
18.8352
99.8241
100.655
103.372
103.309
45.3298
44.4908
23.1643
25.3311
36.335
32.1563
27.3977
35.1985
3.26763
2.67968
10.7887
11.5331
24.8967
24.7885
24.3249
25.7398
25.7275
25.0635
25.1791
26.1858
26.6977
26.3786
2.06185
1.71072
2.14034
3.08196
3.35983
4.04478
3.36856
16.2286
15.5871
16.8608
89.6779
103.793
100.626
100.958
105.352
104.667
58.9471
58.7609
60.1297
59.5739
61.8792
61.536
14.3182
12.2627
18.5308
12.1734
12.2578
11.6732
11.7534
12.8826
12.9508
13.0732
12.7067
12.5359
14.8323
16.6862
3.81579
4.59621
4.01024
4.24197
4.65483
5.61902
6.1606
5.49122
5.86677
6.30866
3.69112
3.12354
3.76183
16.1769
16.9305
16.6701
16.3902
16.5938
11.1323
9.6415
9.91029
10.1101
10.9013
104.325
104.314
8.18042
7.86678
8.10479
8.17164
8.17932
44.9859
46.1774
5.81807
5.41055
9.20531
40.5699
36.6541
8.28885
8.60034
8.96285
11.4777
12.2649
13.1468
47.4766
46.8081
46.202
46.4347
36.4823
35.7422
24.2801
23.5912
24.1342
103.495
52.7479
53.1294
53.5218
10.2448
9.0855
13.062
98.7518
99.2965
36.8751
36.7106
13.7596
13.7121
13.281
8.22668
8.12321
18.0061
12.5742
102.369
103.241
75.9452
45.6534
46.6999
45.9063
11.0042
11.0668
14.8823
13.3844
13.496
77.4096
82.1458
84.2422
41.3311
40.3807
4.19148
3.97973
5.00016
4.77953
32.8198
32.545
33.3329
58.2563
31.9484
57.5837
113.068
6.87352
0.24059
0.430926
7.75798
0.379769
0.190406
12.8257
54.5266
0.329457
54.7768
0.280357
36.4748
20.17
118.492
114.899
20.4712
9.01165
26.7883
33.1615
49.3857
57.1685
17.7597
15.8296
26.5085
27.5422
29.7314
32.979
47.7933
42.6643
98.929
35.9622
47.7123
77.9985
28.5308
45.8256
44.6792
51.1826
39.8877
39.4789
35.2257
104.036
102.723
3.54512
38.4498
88.0945
4.49984
46.3643
87.9106
59.9924
57.292
60.2048
99.016
55.3631
56.3674
50.1389
7.91437
7.42022
6.87115
52.4277
47.3773
51.2671
0.337564
0.792158
3.34893
3.95963
5.44936
6.32853
5.66876
77.1647
40.8183
46.1545
47.6628
43.6988
62.8828
73.7173
0.482725
0.90479
0.333245
0.188395
2.68271
3.13396
5.63123
6.47443
65.9415
82.7699
71.1696
41.9718
41.4088
40.8734
42.1422
49.0449
50.1935
45.3991
35.5869
32.5305
34.6506
42.7134
39.3889
41.9619
40.5465
41.4006
37.1965
9.10818
8.69777
0.700674
0.357663
8.79851
7.96137
7.64761
0.259058
104.119
117.546
102.979
53.2193
71.57
61.9116
7.71298
8.07636
7.60235
44.9041
50.1969
35.4347
37.0646
36.2618
34.2017
36.6588
36.2662
56.2546
58.1695
19.1662
16.7862
17.8626
31.7134
28.6804
32.4239
28.9388
26.9287
30.5466
0.228297
0.491709
13.2151
11.897
11.8316
30.6219
32.7978
51.3939
46.802
52.37
7.66596
7.86722
31.6867
29.5574
31.0935
98.0135
77.9953
7.52324
8.2863
0.428531
0.33451
0.217067
97.5233
105.688
89.1042
6.23818
3.57164
11.9728
18.3025
2.9653
7.69017
27.504
26.2353
10.1192
9.89597
18.9603
19.5289
19.8567
56.4734
56.3893
52.8776
0.31686
7.76816
7.90597
106.048
105.871
18.2049
18.9403
29.4429
27.77
28.0356
54.5468
55.2458
22.1249
20.5495
105.269
5.16635
3.98198
5.72249
10.205
19.553
4.33087
10.6163
31.8711
34.8862
100.983
102.756
103.856
103.388
38.6661
40.4718
89.3815
1.42912
1.94428
4.90248
4.61919
7.96365
7.60544
7.89075
77.0041
0.154272
0.433227
0.458931
2.54944
2.2326
109.636
95.3101
87.1722
5.17052
3.73082
56.3706
56.7623
60.3562
58.3728
12.5312
60.015
73.5555
59.6769
104.629
103.877
104.67
7.14929
6.83646
106.13
10.6689
9.97906
24.901
20.6937
29.3439
0.721791
0.313619
0.525918
0.208152
0.70349
7.96908
8.01778
4.28333
4.41454
5.32934
61.3236
63.9017
73.2456
60.4942
60.9965
14.3173
13.8328
7.86962
7.64081
7.94131
56.7848
55.1169
57.4637
16.012
105.731
105.72
105.472
21.2845
40.1411
30.5143
84.2035
62.5382
80.1619
103.944
73.9335
55.3804
68.5825
101.438
88.4452
81.6193
17.5912
14.9475
34.9687
38.6102
38.0127
34.0902
36.5451
43.152
44.6084
41.7395
0.225069
0.578796
0.592225
14.0052
12.4865
37.5465
37.6897
38.8063
103.377
93.6945
71.1679
83.739
66.0609
0.702009
0.832342
0.662991
1.82796
1.14415
7.73096
24.6714
22.7687
45.4084
52.7684
52.9758
0.207158
0.68526
0.502705
105.339
16.1429
14.9861
14.6143
104.478
103.969
20.9746
21.0954
22.009
8.07701
8.12676
81.3611
63.3452
61.8547
18.9866
19.2975
20.2517
33.4746
11.5641
11.0706
8.04849
7.88482
8.18321
52.1243
103.543
53.3399
54.2732
48.5468
42.9824
43.4368
51.6185
50.4421
101.945
93.8383
11.2643
10.8909
11.73
25.0169
101.444
104.277
23.3645
22.1202
106.404
106.092
104.924
104.475
104.994
15.3991
13.8828
13.1357
7.14207
7.3579
7.73993
53.9942
50.818
23.6035
21.5714
21.1804
49.6245
47.4731
103.703
103.312
103.478
25.9852
24.0803
25.6039
55.2407
52.8964
51.6948
44.0983
49.0549
105.195
105.661
105.572
94.254
79.1582
6.43722
6.77769
5.43351
0.681541
1.34075
0.389466
1.00258
26.8039
26.5961
25.295
23.8203
22.6841
18.8224
17.2233
15.7295
103.539
103.351
103.102
3.98311
3.81121
3.28533
102.971
98.9647
57.6869
56.7582
60.9863
78.437
59.7361
103.647
31.0846
32.9979
43.4611
47.3098
44.9658
23.4129
24.7801
25.3605
24.4022
23.671
102.885
102.069
56.7786
15.219
15.8144
6.88762
7.28515
106.224
106.039
52.1737
4.50416
4.62363
99.7143
104.805
9.0785
23.5042
49.581
42.8975
26.8807
102.387
22.022
45.6254
7.18589
4.74979
88.7684
62.8093
69.4978
33.6129
14.3957
61.5066
20.1499
25.7672
12.9553
72.1703
81.7878
84.2194
49.404
49.7663
56.7311
92.9669
24.238
22.6181
23.5448
47.7949
75.432
100.049
7.91655
35.7775
25.0351
67.6142
8.73293
8.00092
7.67837
24.2452
22.6759
21.2028
22.0178
44.9488
45.2848
44.9404
41.1568
55.0747
5.1685
5.1091
105.564
49.8706
35.6714
34.8709
97.872
44.0232
99.2052
13.2264
9.14646
7.77367
8.39495
7.97732
11.3229
91.6132
3.58959
4.30996
37.7872
21.2815
19.9565
98.2465
93.7369
89.2251
91.3045
101.329
100.36
66.9599
80.555
9.79579
9.28126
21.9787
12.5929
16.2763
52.0635
5.07284
61.14
48.798
70.8564
80.0457
75.6507
100.59
25.3455
26.5595
25.7077
25.176
14.7503
7.89246
45.059
43.0972
34.3639
65.7699
54.6612
35.7911
34.857
34.9829
100.072
98.7413
45.4429
6.19385
8.15427
4.29119
8.44253
25.6342
31.0035
30.4543
14.6561
34.3251
46.2905
44.826
44.4331
17.1705
21.6841
4.97105
5.71225
4.9551
71.4415
8.25433
58.3841
95.7
8.16734
77.9921
31.3163
63.9843
20.7195
23.4022
31.8167
48.5105
12.1008
4.88205
5.21102
5.38226
39.6659
41.7337
102.693
43.742
8.35915
80.1488
90.5635
11.724
41.6335
41.1811
57.8869
70.4236
45.4974
44.8229
46.2012
45.3217
8.55351
14.3628
19.1185
8.25886
8.34909
85.6951
95.1736
91.1792
96.2684
10.1063
10.818
10.5078
11.0943
46.6496
46.3164
51.1097
28.1733
17.7271
48.3891
24.2534
54.8914
55.931
46.7816
34.0736
35.3514
57.6592
46.8951
47.4765
40.7487
103.713
14.3226
21.305
22.798
22.162
21.2832
23.9795
24.1664
103.045
54.6254
56.9981
54.244
80.9767
74.3191
69.2958
82.3905
77.6819
45.7826
44.3109
83.7684
45.1921
43.9616
48.0135
7.80598
7.20063
8.38967
7.68215
43.9277
103.542
28.0246
30.6983
29.6306
2.26909
1.87596
1.99371
1.56747
1.10698
42.527
42.8942
88.6625
52.8715
46.6415
1.98457
54.0903
52.0012
53.6244
45.6741
27.7821
103.352
102.227
103.178
101.996
10.7564
32.3388
71.6759
14.9077
104.495
105.696
103.389
103.119
7.42562
7.58057
6.98476
6.32869
2.17394
60.0643
59.0636
5.78678
21.6187
23.3396
22.1369
22.8186
5.08629
5.95405
7.83147
9.28425
8.73672
19.6341
28.9788
30.7696
29.4641
30.4944
25.9205
24.418
25.4218
19.4608
18.7507
20.3003
34.1649
34.5591
33.174
33.6953
61.4349
61.8458
65.2814
50.8614
53.9879
51.5495
9.801
53.0942
50.3622
46.7148
48.0922
47.6154
8.17845
64.0439
61.8126
61.2056
1.67892
1.54081
4.93883
4.82077
3.60923
38.5882
39.4068
6.53782
61.5252
58.747
55.8446
57.3367
55.7152
52.9549
75.103
86.0497
80.4988
85.7302
47.8763
48.0653
50.9853
35.5208
35.5928
35.21
103.369
31.0434
23.5429
0.677506
41.4445
41.3839
94.8151
101.998
54.2514
54.9845
99.1312
40.3156
34.575
81.7722
23.2951
38.2268
80.1231
89.9034
85.2761
44.1581
88.8245
25.1187
30.8031
32.8443
34.2683
34.8248
8.32633
9.79201
9.29478
8.16715
9.51147
9.12824
48.6207
49.3148
48.0295
48.3052
49.8934
49.3352
91.293
96.1923
91.8119
97.2635
5.76469
13.5216
4.34273
62.5344
59.87