/*--------------------------------*- C++ -*----------------------------------*\
| =========                 |                                                 |
| \\      /  F ield         | OpenFOAM: The Open Source CFD Toolbox           |
|  \\    /   O peration     | Version:  2212                                  |
|   \\  /    A nd           | Website:  www.openfoam.com                      |
|    \\/     M anipulation  |                                                 |
\*---------------------------------------------------------------------------*/
FoamFile
{
    version     2.0;
    format      ascii;
    arch        "LSB;label=32;scalar=64";
    class       surfaceScalarField;
    location    "820";
    object      phi;
}
// * * * * * * * * * * * * * * * * * * * * * * * * * * * * * * * * * * * * * //

dimensions      [0 3 -1 0 0 0 0];

oriented        oriented;

internalField   uniform 0;

boundaryField
{
    HUB
    {
        type            calculated;
        value           uniform 0;
    }
    SHROUD
    {
        type            calculated;
        value           uniform 0;
    }
    INFLOW
    {
        type            calculated;
        value           uniform 0;
    }
    OUTFLOW
    {
        type            calculated;
        value           uniform 0;
    }
    BLADE
    {
        type            calculated;
        value           uniform 0;
    }
    PER1
    {
        type            cyclicAMI;
        value           uniform 0;
    }
    PER2
    {
        type            cyclicAMI;
        value           uniform 0;
    }
}


// ************************************************************************* //
