/*--------------------------------*- C++ -*----------------------------------*\
| =========                 |                                                 |
| \\      /  F ield         | OpenFOAM: The Open Source CFD Toolbox           |
|  \\    /   O peration     | Version:  2206                                  |
|   \\  /    A nd           | Website:  www.openfoam.com                      |
|    \\/     M anipulation  |                                                 |
\*---------------------------------------------------------------------------*/
FoamFile
{
    version     2.0;
    format      ascii;
    arch        "LSB;label=32;scalar=64";
    class       volScalarField;
    location    "0.4";
    object      p;
}
// * * * * * * * * * * * * * * * * * * * * * * * * * * * * * * * * * * * * * //

dimensions      [0 2 -2 0 0 0 0];

internalField   nonuniform List<scalar> 
918
(
3.39862
3.33508
0.429728
3.38616
0.146354
3.05104
0.567189
2.45438
3.5642
0.931456
0.614066
2.91485
2.05765
2.0351
1.48812
0.335033
2.79275
0.451812
3.06301
0.388579
-0.397676
3.68002
3.18014
3.03718
2.85193
1.1348
2.12265
0.217563
-0.165215
-0.0477262
0.306851
0.334611
0.282993
1.95851
2.75143
3.46655
2.96387
2.1122
0.845859
0.875842
0.626743
0.413394
2.50746
2.55708
1.73618
2.39183
2.28125
3.07096
3.27741
3.56897
3.10069
3.23732
3.62273
1.14341
0.955921
0.913305
0.933625
0.892187
0.735872
0.657167
0.680146
0.591438
0.616769
2.80526
2.91662
2.92693
2.9184
2.90335
3.07405
3.29637
3.8037
1.52711
2.02675
2.25012
2.06922
2.14234
2.11381
2.06148
1.79945
1.43321
0.898347
1.70915
1.74557
-0.0443384
0.367417
0.38826
2.79094
2.80862
2.7641
2.7366
1.75911
0.588891
0.347487
3.07152
3.10228
3.57402
3.19129
3.36977
3.20291
0.418951
0.441661
0.209649
0.387228
0.390827
0.940059
1.29319
3.08233
3.10905
2.88756
2.95528
2.88432
2.54265
2.91194
2.87299
1.96708
1.67404
1.66358
1.70794
2.06762
1.97391
2.21999
2.14835
-0.0872193
0.0249157
0.332092
0.304716
0.330967
2.96417
2.92781
3.00233
2.9771
3.00322
2.03533
2.01328
2.15963
2.22149
1.19423
1.22727
0.494419
0.529895
0.32791
2.14171
2.61489
2.63542
1.50973
1.76282
1.54359
1.86871
1.91359
2.9964
3.07303
3.02557
3.09468
3.11462
3.11413
3.24077
3.24159
3.5892
1.23758
1.30677
1.06204
1.01837
0.708625
0.780918
0.705416
0.829396
0.856514
0.800074
0.781263
0.688546
0.662352
0.805434
0.746363
0.769688
0.586586
0.518926
2.76687
2.75796
2.85182
2.8572
2.94256
2.924
2.95175
2.94578
2.25644
2.27271
2.20851
2.19705
0.475185
-1.53863
1.93728
1.96331
0.0376862
-0.0427417
0.00587683
0.0650259
0.049506
0.0174527
0.517731
0.434997
0.436336
0.473449
2.83226
2.85701
1.75035
1.83881
1.668
1.62049
3.05325
3.0843
3.11442
3.09649
0.501791
0.520881
0.533323
2.17658
1.7762
1.97424
2.4744
2.37658
2.611
2.6486
2.8529
2.83396
2.8598
2.01086
1.88878
2.278
2.24756
2.18161
2.14991
2.66512
2.35717
1.92072
2.86904
2.9035
2.90911
3.01317
3.02572
3.02783
2.95038
2.9872
2.96546
1.89658
1.71929
2.22756
2.1777
2.17961
2.20069
2.08995
2.10952
2.6966
2.64373
2.67587
2.0933
2.0572
0.939329
0.918269
2.68661
2.7436
2.71295
2.15803
2.19995
2.12003
2.18496
2.15285
2.13193
1.60509
1.21897
1.53047
1.96153
1.99808
1.9687
0.635742
0.563452
0.586475
1.86937
1.91857
1.36923
1.50094
1.47602
1.71714
2.07784
1.95085
1.72832
1.93758
2.09115
2.16789
2.14733
2.18168
2.19339
2.05626
2.06138
2.34659
2.13869
2.18715
0.80716
0.901847
0.861291
1.89416
1.99001
1.96871
3.11613
3.28589
-0.0537364
0.192257
3.32345
3.39083
-0.124132
0.16802
2.05426
1.71293
2.21366
3.11008
3.05939
3.20096
0.929882
1.12056
0.585654
0.731552
0.619514
2.86685
2.81344
2.73838
0.0752571
0.331172
0.331667
0.877715
3.24213
3.14031
3.3077
3.34134
3.33948
0.141912
0.0576139
0.0302831
0.375545
0.315649
0.403045
2.97613
2.96192
1.23485
3.30309
3.30276
3.33916
3.18096
3.23318
3.13498
0.334781
0.168694
0.333928
2.50607
2.63038
2.10544
1.1023
2.29112
2.03472
1.93701
2.02347
1.69906
2.00925
1.54316
2.57917
2.42829
2.31248
2.03793
2.34119
2.28316
3.1806
3.09857
3.15719
3.04199
3.18906
2.98363
3.25903
3.15233
3.23154
3.20564
0.997466
1.03927
1.00324
0.830267
1.07448
1.35484
1.03826
1.07522
0.819627
0.578619
0.61075
0.58163
0.719746
0.644737
0.583077
0.745033
0.67435
0.675667
0.562284
0.699427
0.806303
0.806219
2.78306
2.93342
2.87415
2.91875
2.74669
2.90102
2.73508
2.81886
2.77575
2.60721
2.77574
2.69173
0.0645545
0.184191
0.272722
0.265074
0.425396
0.239177
0.397342
0.293761
0.268193
0.392948
0.253874
0.465191
0.948146
0.858233
1.75047
1.54634
0.978283
2.97789
3.17299
3.11416
3.1867
3.19912
3.17858
3.26543
3.04167
2.95219
3.04229
2.98962
2.96503
1.29888
1.11487
1.21959
1.44977
2.01249
2.82887
2.71604
2.4792
2.53945
2.68739
2.97951
2.87913
0.285875
-0.547817
1.84816
1.62589
1.79303
1.79395
2.08319
1.98647
1.73596
1.60302
1.72161
2.07826
1.79157
2.4388
1.7684
1.66146
2.01685
2.00293
1.79475
2.58343
2.63314
2.40731
2.27987
2.54936
2.49691
2.5238
2.51672
2.52949
2.5968
2.57566
2.36611
2.34478
2.73737
2.57686
2.56292
2.63615
3.0754
3.18177
3.05491
2.98491
3.10498
2.98461
2.9965
2.93527
3.09897
3.17047
3.09692
3.00604
1.05557
0.885297
1.14531
1.07064
1.15228
0.896829
1.22084
1.13662
1.14497
1.30289
1.37092
1.05123
1.20481
1.04931
1.13145
1.3298
1.23581
1.10998
0.758892
0.976585
1.03771
0.97726
0.905686
0.639231
0.71787
0.957369
0.664488
0.692354
0.807537
0.885935
0.603415
0.62283
0.543088
0.55744
0.721389
0.792291
0.65063
0.951796
0.300974
0.300218
0.288139
0.474134
0.553759
0.791606
2.98146
2.8671
2.93674
2.98299
2.95851
2.90031
2.68131
3.08467
3.01058
2.95163
2.81345
2.81869
2.77835
2.74287
2.82362
2.79667
3.02474
3.00582
2.91586
2.81149
2.69282
2.86631
2.76154
2.81985
2.74442
0.315002
0.35144
0.302909
0.385572
0.379492
0.316593
0.633647
0.328811
0.609405
0.4613
0.443645
0.323869
0.285313
1.13012
1.16392
1.22515
0.98692
0.935683
1.73935
1.80843
1.64121
1.45877
1.57312
1.73421
1.73532
1.48907
1.52108
1.51211
2.0779
1.94739
3.16798
3.12204
3.0353
3.16844
3.08727
1.58339
1.80585
1.67891
2.04115
2.10685
2.13851
1.93793
1.85323
1.86614
1.99536
2.78169
2.81856
2.75896
2.83002
2.81613
2.46944
2.6124
2.54123
3.02467
2.72469
2.70944
2.88647
2.80751
2.69334
2.6468
2.73099
2.7854
2.69322
2.71994
2.63302
2.88965
2.77592
2.87053
2.73879
2.78098
2.6383
2.91177
2.93239
2.91253
2.64322
2.70395
2.73753
2.74619
2.69781
2.72201
2.71712
1.92958
1.91995
2.04602
2.08158
2.02955
1.89015
1.92267
1.92433
2.04257
1.82294
1.70955
1.39666
2.33715
2.54022
2.38081
2.35754
2.24797
2.40154
2.3588
2.1088
2.03809
2.71554
2.65342
2.68869
2.58272
2.51131
2.47377
2.44329
2.80603
2.4275
2.11606
2.39909
2.13382
2.23206
2.48348
2.43882
2.40737
2.35185
2.78208
2.5308
2.51805
2.62836
2.40647
2.3409
2.53792
2.63668
2.72966
2.76156
2.53132
2.57564
2.54158
2.53438
2.5553
2.52822
3.0036
3.01365
2.98219
3.05276
2.97284
2.99587
2.91414
2.97161
3.09206
2.99412
3.14662
0.534061
0.632283
0.926918
0.764954
0.825416
0.851283
1.29152
1.16167
0.976983
1.0499
1.05806
1.1033
0.832019
0.907631
1.03043
0.967719
0.887366
0.922891
1.49704
1.49286
1.46566
1.41818
1.43803
1.38787
1.42744
0.727893
0.844833
0.776392
0.812902
0.802965
0.597524
0.540294
0.412708
0.63573
0.693005
0.330133
0.416175
0.433511
0.526008
0.553015
0.514054
2.848
2.90871
2.92162
2.97153
2.85829
2.95892
2.8852
3.04999
2.99431
3.00237
2.93423
2.99608
2.88862
0.559833
0.739419
0.708802
0.429319
0.530648
0.233768
0.172599
1.82031
1.40842
1.36003
1.47921
1.19927
1.30508
1.99911
2.02907
2.12896
2.00432
1.97298
1.9233
2.04045
2.1043
1.60028
1.92722
1.86049
1.7736
1.89299
1.89437
1.86795
1.82904
2.17153
2.30333
1.7915
1.97837
2.22846
2.17762
2.20527
2.20829
2.27618
2.09003
2.03825
1.88226
1.96216
2.1362
2.03421
2.16449
2.15407
1.77702
1.91951
1.94488
2.75952
2.79097
2.78546
2.75875
2.74123
2.8726
2.65553
2.78783
2.85241
2.91321
1.44282
1.41809
1.34873
1.96473
2.41874
2.61921
2.33721
2.67327
2.61935
2.60084
2.61015
2.54283
2.52529
2.61152
2.50197
2.33216
2.38793
2.34761
2.40658
2.34431
2.46062
2.60232
2.52042
2.64923
2.56564
2.61967
2.65946
2.92787
3.11588
2.92056
3.05159
2.93902
2.96335
0.988805
0.85491
1.0457
0.945028
0.848963
0.781368
0.522681
0.510436
0.556625
0.707589
0.701108
0.521283
1.65344
1.71032
1.24419
1.5823
1.51852
1.34915
1.48256
1.40768
1.51977
1.44536
1.93131
1.77809
1.9928
1.86205
1.58004
1.84325
2.17904
2.17864
2.18327
2.03332
2.03
2.17477
1.53592
1.97296
2.97312
3.06132
2.42641
2.25278
2.31403
2.36533
2.6549
2.52621
2.56298
2.63513
2.5716
1.9983
2.05029
2.15367
2.18535
2.08104
2.00782
2.04629
2.11326
2.19481
)
;

boundaryField
{
    wall-4
    {
        type            zeroGradient;
    }
    velocity-inlet-5
    {
        type            zeroGradient;
    }
    velocity-inlet-6
    {
        type            zeroGradient;
    }
    pressure-outlet-7
    {
        type            fixedValue;
        value           uniform 0;
    }
    wall-8
    {
        type            zeroGradient;
    }
    frontAndBackPlanes
    {
        type            empty;
    }
}


// ************************************************************************* //
