/*--------------------------------*- C++ -*----------------------------------*\
| =========                 |                                                 |
| \\      /  F ield         | OpenFOAM: The Open Source CFD Toolbox           |
|  \\    /   O peration     | Version:  2206                                  |
|   \\  /    A nd           | Website:  www.openfoam.com                      |
|    \\/     M anipulation  |                                                 |
\*---------------------------------------------------------------------------*/
FoamFile
{
    version     2.0;
    format      ascii;
    arch        "LSB;label=32;scalar=64";
    class       surfaceScalarField;
    location    "0.4";
    object      phi;
}
// * * * * * * * * * * * * * * * * * * * * * * * * * * * * * * * * * * * * * //

dimensions      [0 3 -1 0 0 0 0];

oriented        oriented;

internalField   nonuniform List<scalar> 
1300
(
3.75095
5.62643
-7.04787
3.75095
-6.44863
5.62643
-6.4663
6.4663
-1.32243
1.32243
1.92441
1.82654
-5.8691
5.8691
-5.67561
5.67561
-3.0962
3.0962
-5.44971
5.44971
-5.32524
5.32524
3.7398
-3.7398
-5.35061
5.35061
-2.09412
2.09412
-6.48419
6.48419
3.23276
-3.23276
-5.67633
5.67633
-0.681335
0.681335
-0.471
4.22195
3.27995
3.27995
-2.72819
2.72819
-5.67331
5.67331
6.22746
-6.22746
9.97916
-9.97916
-2.93129
-3.24504
1.25998
-7.9231
-5.18865
-5.18865
-8.63036
8.63036
-3.00393
2.6225
3.21977
-3.21977
-2.73713
2.73713
-6.20906
-0.257238
-6.20906
6.63606
-0.169767
6.63606
-1.5692
0.246766
-1.5692
4.81573
-4.81573
1.05828
0.264146
1.05828
3.19218
-3.19218
-1.88881
3.81322
1.86214
-1.77937
6.00133
-1.97158
3.79812
-4.99497
4.99497
-5.96276
0.0936576
-5.96276
5.85751
0.0115859
5.85751
-5.58451
5.58451
-5.68873
0.0131291
-5.68873
5.58965
0.0859572
5.58965
3.31572
-3.31572
-3.13247
0.0362718
-3.13247
3.07251
0.0236821
3.07251
0.211706
5.41472
-5.83814
8.46064
-5.41472
-0.0349886
5.27068
0.179037
5.27068
-5.27928
-0.0459605
-5.27928
5.31363
0.0116163
5.31363
3.52734
0.212468
3.52734
-4.16389
0.424081
-4.16389
-3.19831
-3.23449
-5.43605
0.0854463
-5.43605
-2.17116
0.0770358
-2.17116
2.03818
0.0559398
2.03818
-3.96403
3.96403
-6.69169
0.207495
-6.69169
3.18409
0.0486632
3.18409
1.8186
1.93236
5.56955
-5.56955
2.33679
-5.68105
0.00472185
-5.68105
-5.76101
-4.21815
5.76101
-0.0846893
-0.570337
-0.110997
-0.570337
3.25611
0.023848
3.25611
2.94368
0.128833
-2.94368
0.215495
3.71433
-3.71433
2.20015
0.528032
2.20015
-5.49319
5.49319
5.3397
-0.0260759
-5.3397
-0.333607
6.23689
-0.00942549
6.23689
-6.16303
-0.0644293
-6.16303
3.2813
-6.52633
-3.29694
5.24854
0.10207
-5.24854
0.0598899
3.20639
0.0133819
3.20639
-3.18275
3.18275
-3.19589
-0.0238808
-3.19589
-2.70678
-0.0303561
-2.70678
2.75049
-0.0133588
2.75049
-5.73877
-0.470291
-5.73877
-6.74426
0.0525689
6.74426
-0.108194
3.12937
-3.12937
-1.73117
0.161969
-1.73117
-5.25766
-0.481113
5.25766
-0.441928
-4.60894
-0.206791
-4.60894
-3.20138
0.00548263
3.20138
-0.0091967
3.18001
0.0760938
-3.18001
-0.012167
-1.87419
3.80655
-1.87677
3.73891
-4.64636
-0.348616
-4.64636
5.15471
-0.159732
5.15471
6.37209
0.112103
-6.37209
0.409334
5.64818
0.209329
5.64818
-5.44827
-0.136242
-5.44827
5.5381
0.0464089
5.5381
5.65219
-0.00400962
-5.65219
-0.0365412
5.77243
-0.182784
5.77243
3.32527
-0.00955408
3.32527
-3.20232
-0.11339
-3.20232
3.16694
-3.16694
3.09179
0.0751544
-3.09179
-0.0406779
-11.0368
10.9724
0.035207
-11.072
5.30588
5.30588
3.04977
0.477567
3.04977
-4.54403
0.380146
-4.54403
3.30132
-6.59826
3.22719
-6.4255
3.24758
-11.1707
3.39028
-6.62477
5.55073
-5.55073
5.39138
0.159349
-5.39138
-0.0446762
-2.18322
0.0120614
-2.18322
-3.78989
-0.174134
-3.78989
4.33179
-0.367765
4.33179
-3.20541
3.20541
-3.18418
-0.0212271
3.18418
-9.05762e-05
5.58137
0.191067
-5.58137
-0.0996811
0.7926
0.265684
-0.7926
0.222263
3.8498
-0.135469
3.8498
-3.48944
-0.224885
-3.48944
-2.16378
-0.0194405
2.16378
0.0363738
-5.8963
0.40311
-5.8963
-11.1718
0.0997966
-10.9928
-6.06323
-6.06323
2.56712
11.0278
-3.22178
0.0194507
3.22178
-0.0153836
3.14148
0.0639285
-3.14148
-0.0412719
-3.18768
0.0207378
3.18768
-0.00492798
-2.69011
-0.0166655
-2.69011
-2.83787
2.83787
-2.86269
0.0248196
2.86269
-0.112192
3.19147
-0.0621022
3.19147
1.91486
0.123324
-1.91486
0.183695
-4.24361
-0.365321
-4.24361
5.23214
-0.0774361
5.23214
-3.40756
-0.0818823
3.40756
-0.0822904
-0.00029703
10.9727
-5.30559
0.0263024
5.30559
-10.9632
10.9896
-2.71174
0.0216273
2.71174
0.338028
5.06287
0.430317
-5.06287
0.518838
5.5311
0.00700649
-5.5311
-0.0196308
-3.50177
-0.28812
-3.50177
-4.47148
-0.174879
4.47148
-0.139685
-11.0502
-0.245643
11.2958
-11.0385
6.14194
0.0949468
-6.14194
11.0845
-2.8971
-0.232269
2.8971
-0.0592301
3.33508
-0.143612
3.33508
4.11344
-0.263647
-4.11344
-0.130172
-5.47607
0.0278002
5.47607
-0.243928
-3.48112
-0.0206568
3.48112
-0.146039
-4.18901
4.21286
1.81231
-3.3289
-3.19743
-7.54705
1.92093
1.88562
4.25772
-7.02845
-4.14223
-6.96856
6.55418
-6.03534
-6.26189
6.47436
7.67107
-7.87786
-5.71641
5.71632
6.34438
-6.35358
1.87478
1.93845
10.6448
-10.5512
-10.1544
9.80579
10.0297
-10.0166
10.4112
-10.5475
-11.9078
11.9148
-5.56081
5.59708
-6.55853
6.44514
-6.59985
6.51756
-3.19862
-3.22688
8.75137
-8.66592
11.4586
-11.4538
-11.2607
11.4682
3.27953
0.933329
3.35563
-1.9351
3.80987
-1.86303
3.67534
3.26697
-6.46559
3.33129
-6.52871
5.84
5.61855
-5.75531
-1.79175
-5.77162
5.785
-5.69663
5.6917
11.0696
-11.3268
-1.83655
3.775
-1.90236
3.78798
-3.34247
-2.37394
3.29381
0.963914
5.43483
3.31654
-5.5369
-1.43167
-7.51781
7.25417
-7.67321
7.44833
0.51938
5.21482
-5.7342
6.19269
-1.95624
7.17106
4.59794
4.97808
5.53039
-5.10007
0.504953
-6.23915
-6.57276
-2.2479
2.40987
1.96283
-1.69869
6.58505
1.08602
6.14312
-5.3373
-2.54056
-5.70262
3.77488
1.94144
3.75365
4.01129
2.33309
4.01678
2.95418
-3.10557
0.15139
-3.04737
6.00155
0.669425
-5.42131
-4.4574
6.80484
3.83999
6.81643
-7.32979
-3.22138
-6.92045
-6.11954
-4.03486
-6.29442
6.4132
3.39259
6.25347
-7.83241
7.58848
6.54747
3.48222
6.63343
-6.57147
-3.44509
-6.60801
10.3718
-2.87275
-7.49905
-6.9344
-4.97342
6.88799
3.52324
7.31688
4.59795
7.29725
3.52026
6.85155
-7.04349
2.07007
-3.72296
-1.83785
-3.76364
3.58114
2.01594
3.60482
-4.1689
-2.38963
-4.14945
-4.19027
-2.40957
4.19983
2.24531
-4.24326
-3.42995
4.32515
2.19241
3.10522
-7.24744
3.51955
-6.74643
-6.1463
-2.51962
-6.19098
4.11546
2.64176
-6.75721
-2.35014
10.6706
-5.05204
8.87885
-7.2141
-4.23973
-7.31378
-8.79573
-2.46495
-8.74316
-5.17638
4.88826
-5.67599
5.30823
10.3813
-5.77553
-4.6058
-3.99224
-2.36134
4.00441
-0.648782
-3.6508
3.80219
0.159074
3.83441
4.76774
4.11896
-3.77616
-1.92047
-3.81743
3.71981
1.9719
3.74054
8.6314
2.43816
8.46163
-7.55603
-3.77077
-8.02632
5.34568
-5.37603
2.88366
-2.9031
5.0817
2.36663
-4.94623
-2.57158
5.8161
-3.02132
-2.79478
-10.803
6.6282
4.17484
-3.63198
2.56071
3.24204
-4.30087
-1.96102
3.87679
1.10129
7.72949
5.76847
-5.21367
5.61678
6.08213
6.05605
-0.516705
3.61381
-3.59219
6.41739
-1.0842
-5.33318
5.76611
-6.24722
-2.2602
-6.1114
3.85119
-0.104103
0.0563136
-0.167311
-1.89785
-0.350045
-1.71416
0.950757
1.01208
1.21644
1.0725
1.33736
-2.44725
0.114558
2.3327
-1.37475
-1.58413
-4.12797
-0.160252
4.28822
5.48289
1.77128
-5.35272
-0.349905
2.56321
-2.50727
-1.69136
-2.4366
1.13507
-2.82644
-3.08861
-2.20257
5.29118
-3.26858
-0.548856
3.20465
0.549004
-3.75973
-2.01188
3.78361
0.233161
-2.92871
5.97328
-3.04457
-4.84918
2.54961
3.45194
4.49105
-4.62408
2.35776
2.26631
-1.17213
5.69598
1.12044
5.90531
-9.05389
5.8325
7.83767
3.63051
-7.94977
1.02932
-8.02457
9.29709
-8.34265
-0.95444
4.89303
4.40406
5.22378
5.15755
-3.41842
8.6422
-1.25427
-7.08838
9.27884
-5.64833
5.47287
-11.1212
-10.6304
3.54204
-6.6226
8.35669
-1.73409
-2.55983
-5.27257
9.18243
-0.903458
-8.27897
5.35001
-5.06103
-5.37947
10.4405
-7.93379
8.82457
-2.60542
-6.21915
-6.59796
-3.94951
6.57016
1.01832
-9.71933
11.7894
-2.86778
5.85902
0.77441
5.67623
3.84513
-5.91868
2.07356
4.08866
-6.69408
2.42566
-8.34435
-4.75839
9.46724
-4.70885
-7.27801
-6.62205
-0.655961
2.05766
9.73173
-6.65562
5.35643
1.29919
3.17885
0.561697
-3.254
-0.509639
0.312077
4.4156
-4.72768
3.9169
4.04573
3.41656
0.999039
3.76811
2.01689
-3.75273
-0.396721
-3.87103
1.46146
-1.62572
-3.46383
4.92529
-3.95174
0.487907
-2.59146
-3.38457
5.97604
-4.42931
2.8597
3.11358
4.8316
-4.70014
1.31557
-2.35594
-2.3442
2.63617
-4.26189
1.82115
3.10414
4.01356
0.583606
4.65484
4.8124
-7.2966
0.550164
8.12894
-6.69728
1.56152
5.73572
-6.91796
0.295907
-5.89507
1.11199
-6.16403
-5.64522
6.30639
-8.77134
-4.81481
8.12447
0.33716
-8.01628
-0.726885
-3.62142
-1.55496
-3.64207
-1.95611
-3.71988
-5.37453
-0.994242
-4.38029
3.89401
-4.16436
-2.13006
4.30405
1.00418
-4.44292
4.21065
-4.38044
4.23682
0.179289
3.6229
4.29825
1.93691
-2.45077
4.38768
-6.63969
9.07785
-10.771
4.13126
4.57304
-8.34382
-6.19791
3.26112
2.08456
3.24776
5.50526
-6.79531
1.29005
-6.283
7.4234
-1.14041
-9.69963
3.41664
-4.19438
2.54696
0.336692
2.55902
0.656941
2.31778
-2.97472
-2.24616
-2.20978
-2.22213
-3.36428
5.58641
0.900389
-3.1946
2.29421
-3.3205
4.22089
-0.134493
-3.06011
4.92663
-2.60885
5.26332
-3.45499
1.80833
3.20725
5.28223
-2.07499
4.10389
-1.73726
1.83197
-3.90695
-1.53231
-2.94728
4.96322
-3.02876
3.51667
-0.235541
3.75221
-3.9073
0.885971
-0.490734
3.555
3.77049
3.98772
-2.98869
2.71401
-4.45127
-1.19295
-3.86766
-0.763522
-0.820695
-5.05614
5.87684
4.84066
-5.66135
-2.68436
5.40623
-2.72186
4.46325
-3.01734
-1.44591
-2.68245
-2.69358
2.69911
0.914699
5.37795
0.299736
-3.31708
-3.29245
-2.95442
4.9086
1.50879
-0.897319
5.07216
-2.34472
2.40104
0.737633
0.478809
1.03323
-0.295598
-0.533761
1.56699
-0.701072
1.81957
0.743633
-1.9429
0.228739
-1.90661
3.04168
0.426091
-1.43817
1.14257
2.42567
-3.50988
5.0124
-1.61424
-3.39816
7.43808
1.86561
-3.47985
4.24579
-4.34989
2.91731
-3.07756
-0.562542
-4.91244
-3.82641
-2.17235
4.46656
-3.41405
5.18533
1.37795
-4.83543
6.21338
-3.51079
1.30822
-2.64722
3.39085
-0.710102
-1.93712
2.46869
2.82249
-2.84527
0.408664
-0.376578
1.96509
-2.34167
-0.861347
-2.2361
-4.55794
4.7911
-2.16283
4.52059
2.22485
-1.90834
6.42893
1.73866
-3.64699
-3.11052
-3.65938
-1.38068
3.11037
-0.755702
-5.8523
-6.97485
5.85631
0.0489999
-9.0154
10.0738
-1.05843
-5.17541
-0.657097
5.55013
-7.31963
0.625556
-4.89397
5.17985
6.30029
6.34929
-8.06193
-0.217039
-4.66934
1.39972
-6.06906
5.80378
-2.78009
6.32213
-6.86629
4.73623
-5.86211
5.36769
-0.701372
5.32774
-3.25419
2.17131
-6.12082
-5.1025
6.98136
-3.49914
7.75577
-4.07359
11.8294
-6.94136
6.96129
4.86807
-1.39724
-5.91653
-6.91205
5.51481
0.0492361
5.72547
4.93642
-2.91953
4.5397
2.11182
-4.46776
-2.15007
-6.35762
1.88986
-3.24403
-1.70238
3.59224
3.12922
3.69091
1.24804
-3.18127
6.64772
-7.30368
-1.93887
-3.70636
6.65414
-1.13933
3.74962
-7.45598
-2.4144
5.07241
-0.515814
-4.5566
0.703121
-5.51793
2.49136
-8.00929
6.27998
-7.00687
1.31759
-5.51197
-3.12533
-3.18456
-1.27973
-3.1007
-4.46448
3.18475
-1.04785
3.1628
-5.5673
5.05149
-1.8561
5.04085
-3.2705
-0.371575
3.41654
0.820286
5.86114
-0.211993
-5.98591
-1.86814
5.75861
-3.89047
3.04046
-5.26814
0.490471
3.63794
3.80014
-7.48913
-0.854689
-6.8406
-2.32848
4.41304
3.07775
7.9184
1.1231
4.91451
-0.50147
6.03761
2.74629
2.6341
-3.82177
5.11182
2.05507
6.18633
-0.812872
2.6212
1.74615
1.82319
0.684078
2.26699
1.5035
3.15296
0.178247
-2.03153
2.76337
-5.71779
-0.553706
-5.24023
1.23414
3.81197
-2.57783
4.60689
-3.0981
0.716416
2.60345
-2.80272
0.199274
-2.72973
-0.401688
1.1653
-0.86526
2.00783
2.17642
-3.17313
0.4434
-0.106818
-3.71959
3.18438
-2.77571
0.0467818
6.26016
-2.35995
0.0182838
-1.05173
-2.21781
-2.56786
2.33912
6.07605
0.35288
3.03147
5.14398
3.1321
0.212563
4.1948
-5.92889
-4.14955
-6.14593
-0.342152
5.20798
1.76786
7.96387
6.63594
5.49661
-1.95937
-9.26306
7.41947
-2.30765
6.27906
-1.72246
-6.28683
6.47543
2.60242
-6.81259
-0.194274
-6.4811
-8.78875
-0.223721
5.27521
-5.63742
5.26584
3.71088
0.669406
-2.68423
-0.500333
2.65941
-0.0253055
6.0123
-1.08662
-5.36398
6.4506
-2.72534
2.17164
3.96608
1.10609
4.16535
1.06725
-4.29673
-6.87456
-1.23984
-2.27003
-4.63801
-0.349786
-1.82663
3.88148
-1.70985
2.43557
4.74076
5.45717
-1.51411
-4.14725
4.23597
-1.8004
3.65678
)
;

boundaryField
{
    wall-4
    {
        type            calculated;
        value           uniform 0;
    }
    velocity-inlet-5
    {
        type            calculated;
        value           uniform -3.75095;
    }
    velocity-inlet-6
    {
        type            calculated;
        value           uniform -5.62643;
    }
    pressure-outlet-7
    {
        type            calculated;
        value           nonuniform List<scalar> 8(7.04787 6.44863 6.17633 6.66312 6.43279 6.57823 6.52851 6.63786);
    }
    wall-8
    {
        type            calculated;
        value           uniform 0;
    }
    frontAndBackPlanes
    {
        type            empty;
        value           nonuniform List<scalar> 0();
    }
}


// ************************************************************************* //
