/*--------------------------------*- C++ -*----------------------------------*\
| =========                 |                                                 |
| \\      /  F ield         | OpenFOAM: The Open Source CFD Toolbox           |
|  \\    /   O peration     | Version:  2206                                  |
|   \\  /    A nd           | Website:  www.openfoam.com                      |
|    \\/     M anipulation  |                                                 |
\*---------------------------------------------------------------------------*/
FoamFile
{
    version     2.0;
    format      ascii;
    arch        "LSB;label=32;scalar=64";
    class       volVectorField;
    location    "0.4";
    object      U;
}
// * * * * * * * * * * * * * * * * * * * * * * * * * * * * * * * * * * * * * //

dimensions      [0 1 -1 0 0 0 0];

internalField   nonuniform List<vector> 
918
(
(0.680954 -0.345817 0)
(0.22756 2.84928 0)
(-0.201505 1.79129 0)
(0.580837 0.293882 0)
(0.216544 1.73033 -7.38121e-20)
(-0.360288 2.39579 -1.42962e-18)
(1.09617 1.82433 -1.0345e-19)
(0.443047 0.262814 -1.10575e-20)
(0.799413 0.00408418 0)
(0.0123289 1.80029 0)
(0.00751596 1.74431 0)
(0.94998 0.00261036 0)
(0.120756 3.02737 0)
(0.142588 2.96388 0)
(-0.117686 2.61045 -3.40094e-19)
(-0.0120786 1.72446 -6.5463e-20)
(0.678928 0.166363 8.72073e-19)
(0.177542 2.074 -1.12341e-19)
(1.01368 -0.00822413 0)
(0.0138619 1.74215 0)
(0.177831 -0.158938 4.63256e-20)
(0.546697 -0.126889 0)
(0.913134 0.056208 0)
(1.04639 0.0386624 0)
(0.857921 0.0325919 0)
(0.206842 3.07205 0)
(-0.0262835 2.93633 4.4815e-19)
(-0.384249 1.71714 0)
(-0.0325186 1.6794 0)
(-0.201621 1.72883 0)
(0.0848613 1.71254 0)
(-0.10333 1.62468 5.68025e-20)
(-0.0216863 1.74641 0)
(-0.203646 3.14107 -3.74107e-23)
(-0.0449099 3.0202 1.16812e-18)
(0.0646012 3.05796 0)
(0.988797 -0.00389678 0)
(0.834002 1.34525 2.82836e-19)
(1.13751 1.68464 3.33167e-19)
(1.24282 1.60753 -2.50889e-19)
(0.954843 1.88812 2.22571e-20)
(0.893718 1.99179 -9.94365e-20)
(0.478985 0.302457 1.07738e-20)
(0.515236 0.267898 0)
(1.37257 0.812705 0)
(0.39191 0.311708 4.57155e-20)
(0.364369 0.248451 -4.75117e-20)
(0.982369 -0.00985011 0)
(1.12577 -0.00639087 0)
(0.798466 -0.0120772 0)
(1.03205 -0.0800932 0)
(1.06843 -0.0344635 0)
(0.855514 0.0138148 0)
(0.0190481 1.63651 -4.49389e-19)
(0.030059 1.82194 0)
(0.0339989 1.82062 0)
(-0.0187851 1.80653 0)
(-0.00240052 1.79813 0)
(0.00582366 1.73333 0)
(0.0209875 1.75392 0)
(0.0101667 1.74708 0)
(-0.0200142 1.73695 0)
(-0.0116312 1.71355 0)
(1.01659 0.00198319 0)
(0.962512 0.0155816 0)
(0.961618 0.00271574 0)
(0.951944 -0.00161478 0)
(0.941553 -0.000285555 0)
(0.0201783 2.65213 4.47609e-19)
(0.275914 2.70243 0)
(-0.0397594 2.58034 0)
(-0.0534094 3.23825 3.54115e-24)
(-0.252482 3.10162 -6.9561e-19)
(0.121779 3.00501 0)
(0.0418022 2.96391 0)
(0.0467816 3.04155 1.17679e-24)
(0.0514866 2.95619 0)
(0.0798364 2.95943 0)
(-0.225594 2.9788 0)
(0.11271 2.67568 0)
(-0.130042 2.73564 0)
(-0.00772528 2.66606 3.11892e-19)
(-0.051397 2.65913 0)
(-0.00109986 1.73356 0)
(-0.0190269 1.73793 6.45532e-20)
(-0.00365413 1.72587 -7.47136e-20)
(0.709658 0.164899 -3.0279e-19)
(0.72046 0.142839 -2.95111e-19)
(0.67646 0.211657 -9.03186e-19)
(0.653032 0.204663 -5.73236e-19)
(0.167158 1.40131 0)
(0.346803 2.1133 7.81911e-20)
(0.42299 2.13638 -1.15315e-19)
(0.99472 0.000372173 0)
(0.976466 0.00258551 0)
(0.805164 0.00990666 0)
(1.08164 -0.0115214 0)
(0.896291 0.0777947 -3.38131e-18)
(0.948995 0.17935 2.56313e-18)
(0.0151093 1.75634 0)
(0.00873946 1.7438 0)
(0.00687608 1.63097 0)
(-0.042476 1.75813 0)
(-0.00497852 1.78643 0)
(0.424996 0.144173 1.56325e-20)
(0.201601 0.160781 0)
(1.01806 0.00727567 0)
(0.996357 -0.00569258 0)
(0.933601 0.0500536 0)
(0.87993 0.150064 0)
(0.888373 0.00439933 0)
(1.14975 -0.00680243 0)
(0.829091 0.0188074 0)
(0.806718 0.0229604 1.39455e-18)
(-0.0445971 2.85698 4.87857e-19)
(-0.0490657 3.11138 0)
(-0.0681368 3.20642 0)
(0.0655792 2.96341 0)
(0.0466371 2.9752 4.17709e-19)
(0.00823147 2.96128 0)
(0.00686637 2.95025 -1.30296e-18)
(-0.0307097 2.94855 4.38199e-19)
(0.0405327 1.74318 0)
(-0.00653146 1.73893 0)
(0.00977868 1.72862 -1.97378e-21)
(-0.0493148 1.74526 0)
(0.0139191 1.71513 0)
(0.993414 -0.0119495 0)
(0.986019 -0.0109249 0)
(0.976467 0.00121691 0)
(0.994039 -0.0170881 0)
(0.978022 0.0113047 0)
(0.879146 1.41773 -3.49996e-19)
(0.918964 1.37794 0)
(0.834917 1.34899 4.04293e-20)
(0.783464 1.28232 0)
(1.19968 1.45888 8.75033e-20)
(1.33936 1.31365 -2.1999e-19)
(0.576094 2.10786 0)
(0.777382 2.02635 0)
(0.66799 2.10704 0)
(0.544271 1.29661 -1.98785e-19)
(0.535442 0.297824 0)
(0.557139 0.250574 1.53779e-19)
(1.2448 1.2206 0)
(1.26755 0.985693 0)
(1.36851 1.05933 2.80285e-19)
(1.31961 0.752517 0)
(1.38667 0.630621 1.60174e-20)
(0.984632 0.0315423 0)
(0.986341 -0.0144128 0)
(0.983645 -0.00818918 0)
(0.992355 0.00503341 0)
(0.987455 -0.0411582 0)
(0.972435 0.00741373 0)
(1.08792 0.00953958 0)
(1.03613 0.00284125 0)
(0.807151 0.00832752 0)
(0.0420352 1.61093 2.38267e-19)
(-0.00835015 1.5518 0)
(0.0319303 1.66867 4.15206e-19)
(0.017475 1.66308 -3.78555e-19)
(0.0748696 2.0293 9.69453e-20)
(0.0504541 1.91924 0)
(0.0108175 1.96384 0)
(-0.00308688 1.78401 0)
(0.00345499 1.7296 0)
(0.0017925 1.71986 -2.11143e-21)
(-0.0262653 1.7012 0)
(-0.0110662 1.73804 -1.1692e-19)
(-0.00307691 1.7168 2.28818e-19)
(0.0162023 1.74277 0)
(0.0311253 1.75311 0)
(-0.00158254 1.73317 0)
(0.000227551 1.75338 0)
(-0.00355885 1.77139 0)
(1.02687 0.0102572 0)
(1.01953 0.000794686 0)
(1.00451 0.0144919 0)
(0.982586 -0.00707984 0)
(0.971464 -0.00254868 0)
(0.968455 0.0010317 0)
(0.962281 0.0137643 0)
(0.946787 -0.00109767 0)
(0.0211863 3.00794 -4.00911e-21)
(0.00682919 3.04252 0)
(-0.0296965 2.99497 0)
(-0.0652992 2.97654 0)
(0.696307 2.97572 0)
(1.0815 2.34309 1.12133e-20)
(-0.0569302 2.68699 0)
(-0.0969829 2.66624 0)
(-0.00393139 1.76785 0)
(-0.0186944 1.70994 0)
(0.000130524 1.73892 0)
(0.0917055 1.70368 -7.38302e-21)
(0.0443951 1.76691 0)
(-0.00655932 1.77893 0)
(0.014748 1.73087 1.11369e-20)
(0.0201123 1.72727 8.25937e-20)
(-0.0124161 1.72341 7.63269e-20)
(0.011024 1.68887 0)
(0.740027 0.160596 4.75804e-19)
(0.742905 0.0929997 -4.68863e-19)
(0.202882 1.42187 0)
(0.229201 1.37454 -1.16559e-19)
(0.137873 1.48371 -3.67142e-19)
(0.0824601 1.49424 3.67119e-19)
(0.983565 -0.00362577 0)
(0.985154 -0.0158654 0)
(0.983534 0.00655207 0)
(0.976553 0.00321942 0)
(0.0224857 1.76154 0)
(0.0246723 1.73911 0)
(0.00679302 1.70811 0)
(0.311892 0.280448 4.02078e-19)
(0.236971 0.236241 -4.04941e-19)
(0.283003 0.215165 0)
(1.18216 0.0935771 5.312e-20)
(1.2452 0.0537441 0)
(1.11334 0.0557408 0)
(1.06852 -0.00489717 0)
(0.768195 0.0940447 0)
(0.803917 0.0664912 -2.23514e-18)
(0.763082 0.0557915 8.33696e-19)
(-0.0873607 2.93491 4.23219e-19)
(-0.0871828 2.94099 -3.12999e-20)
(0.00811254 3.05371 -7.86486e-21)
(-0.00632589 3.04332 2.80485e-19)
(-0.023408 2.98659 1.41583e-20)
(-0.0584051 2.91468 -5.46831e-23)
(-0.146382 2.93501 -2.75875e-19)
(0.171773 3.10797 1.98259e-19)
(0.0827444 3.08679 -2.80715e-19)
(0.996812 -0.013217 0)
(0.987775 0.0456761 0)
(0.985447 0.0144716 0)
(0.981869 -0.00447895 0)
(0.977322 0.00597577 0)
(0.962498 -0.00132841 0)
(0.980076 -0.0123026 0)
(0.984294 0.00732183 0)
(0.978617 0.00224498 0)
(0.985442 1.43354 -3.54259e-19)
(1.00564 1.44948 0)
(0.63026 1.24327 6.28438e-20)
(0.672512 1.33081 5.01676e-19)
(0.752286 1.34516 -3.0155e-19)
(0.713851 1.30715 5.88611e-19)
(0.498106 1.32648 9.62788e-19)
(0.474041 1.28601 1.79487e-19)
(0.64322 0.238244 6.03456e-19)
(0.589712 0.274781 1.53584e-19)
(0.611713 0.232012 2.90489e-19)
(1.30246 0.561733 -3.48636e-19)
(1.3441 0.411899 -3.80421e-19)
(0.00144069 1.68025 1.80867e-19)
(-0.000173613 1.66188 0)
(1.06755 0.0197555 0)
(1.0407 0.0154874 0)
(1.04453 0.000269031 0)
(-0.0237336 3.0472 0)
(0.0642174 3.01101 6.12277e-19)
(0.012672 3.02248 0)
(0.00198986 2.98049 -6.12011e-19)
(-0.0996057 3.02287 1.44947e-19)
(-0.0242377 2.99798 0)
(1.05714 1.52468 8.23998e-20)
(1.10599 1.61794 -3.27684e-19)
(1.01092 1.43308 2.15474e-19)
(-0.0795036 2.87746 -4.49137e-19)
(-0.0811472 2.79512 0)
(-0.0667747 2.78447 0)
(-0.0108864 1.72777 -6.18618e-21)
(0.0374375 1.72675 -1.94689e-19)
(-0.0149565 1.71583 -6.31109e-21)
(0.267736 1.36651 3.79257e-19)
(0.264668 1.30548 -2.5699e-19)
(0.00812757 1.56723 2.97402e-19)
(0.0667672 1.53484 -3.3038e-19)
(0.0296208 1.52075 1.50949e-20)
(-0.0209461 3.06021 -8.9488e-19)
(-0.152527 3.05632 1.00702e-18)
(0.0635171 2.97397 4.06907e-19)
(-0.0354425 3.05037 -3.98199e-19)
(0.198428 2.96024 -4.14769e-19)
(-0.0933617 2.99069 -1.11957e-18)
(-0.170634 2.97901 1.14666e-18)
(0.546063 1.30387 0)
(0.573627 1.29789 -1.02796e-18)
(0.565158 1.23723 4.52353e-19)
(0.436895 1.33299 5.2073e-19)
(0.415353 1.30626 -8.11421e-19)
(1.24533 0.20804 2.05106e-19)
(1.28739 0.387192 0)
(1.33068 0.249756 -1.99162e-19)
(-0.0391059 1.73222 -2.3251e-21)
(0.0134769 1.7024 0)
(0.0204882 1.72016 0)
(0.284308 1.36597 -1.34195e-19)
(0.366939 1.35298 -3.06538e-19)
(0.365582 1.33222 5.74361e-19)
(0.966246 -0.0212426 0)
(0.985351 -0.0526544 6.33922e-19)
(0.0863797 1.7295 0)
(-0.0453768 1.66136 0)
(1.0124 -0.0546748 1.02445e-20)
(0.868236 -0.0215837 1.28708e-18)
(0.0846796 1.82166 9.9222e-21)
(0.0982858 1.76546 0)
(-0.112808 2.80844 4.60782e-19)
(0.0456013 2.46597 0)
(1.20041 0.658447 -1.97982e-19)
(1.02161 -0.0120524 -1.89738e-22)
(0.972755 0.0368761 0)
(0.911116 0.00341636 -4.96611e-22)
(0.00892779 1.87756 0)
(0.137947 1.69776 0)
(-0.0293388 1.78595 0)
(0.0897988 1.75106 1.31822e-19)
(0.025058 1.74033 1.04402e-19)
(0.989489 -0.00238896 9.6005e-21)
(1.00005 0.0662777 0)
(1.039 0.0379664 0)
(-0.0375049 1.63953 0)
(0.0278536 1.75162 0)
(-0.0279579 1.76442 0)
(0.247387 1.96287 1.60219e-19)
(1.00532 -0.116265 0)
(0.98662 -0.0477005 0)
(0.925587 0.0771253 7.90983e-19)
(0.976889 0.0601517 -9.59942e-19)
(1.03994 -0.0731432 0)
(0.0765054 1.72375 0)
(-0.0362781 1.74352 0)
(-0.00326647 1.80715 0)
(-0.0022085 1.80608 0)
(-0.14425 1.81206 0)
(0.00239168 1.64529 0)
(0.987569 0.0132294 0)
(1.01147 -0.0173979 3.95363e-21)
(0.922787 1.64485 -1.65183e-19)
(0.934014 -0.098007 -7.90896e-19)
(1.02616 0.0343639 9.55447e-19)
(1.04523 0.0271092 0)
(0.984484 -0.00356942 7.6544e-19)
(1.05867 0.121393 -9.49513e-19)
(0.961055 0.0277156 0)
(0.0159244 1.7669 0)
(0.141037 1.78416 6.11981e-20)
(-0.0217413 1.70536 -4.53752e-20)
(1.11531 0.247093 1.10491e-18)
(1.06821 0.0703244 0)
(-0.687677 2.81004 -6.07777e-19)
(-0.167919 3.39723 -3.15128e-20)
(-0.335993 2.73383 1.12903e-18)
(-0.0232887 2.78782 -2.47402e-19)
(0.000306799 2.67501 0)
(-0.0411677 2.92514 1.95866e-19)
(-0.249178 3.04982 5.78195e-19)
(-0.0891053 2.88668 -3.60125e-19)
(-0.313904 3.0359 0)
(0.601732 0.283242 0)
(0.432829 0.324772 0)
(1.06174 0.855738 5.90672e-19)
(1.15149 0.928047 -7.47285e-19)
(1.14772 0.548505 0)
(1.12669 0.578461 0)
(1.01711 0.0380844 -1.44886e-18)
(0.957973 0.00415684 1.82521e-18)
(1.0503 -0.136165 0)
(0.993655 -0.0421242 0)
(0.873215 0.083561 0)
(1.05249 -0.0602135 0)
(1.03617 0.0497935 0)
(0.983512 -0.0097073 0)
(0.990249 -0.1207 0)
(0.927296 -0.0173589 0)
(0.0574829 1.87282 0)
(0.0306079 1.74315 0)
(0.0260394 1.86201 0)
(0.167522 1.87721 0)
(0.23344 1.69692 0)
(0.0339991 1.65022 -2.32688e-19)
(0.0946397 1.68111 0)
(-0.00227601 1.64632 1.54169e-19)
(0.10934 1.75501 -2.05818e-19)
(0.0477087 1.77785 0)
(0.077685 1.73291 0)
(-0.0456949 1.7607 0)
(-0.054214 1.7185 0)
(-0.0139769 1.73032 -1.13718e-19)
(-0.00448424 1.7832 1.45022e-19)
(0.00856003 1.78861 1.73196e-19)
(-0.0222161 1.73579 0)
(-0.0291364 1.7541 -2.75017e-19)
(-0.0188763 1.7014 -1.57969e-19)
(0.0657996 1.84677 8.6542e-20)
(-0.209555 1.68561 -1.83174e-19)
(0.00311839 1.6588 -2.14658e-19)
(0.990346 -0.0278452 1.31194e-18)
(0.962974 -0.0369152 -1.67423e-18)
(0.97936 0.0342037 -1.34599e-18)
(0.917555 0.0146932 1.70643e-18)
(1.06979 0.126727 0)
(1.01769 0.00271383 0)
(1.0635 0.0504321 0)
(1.07456 -0.0411774 0)
(1.01525 -0.00797112 0)
(1.10647 0.0843683 0)
(1.07418 0.0168894 0)
(1.03185 0.0257668 0)
(-0.211666 1.70397 -7.3166e-21)
(-0.0217456 1.7348 0)
(0.0472903 1.73295 0)
(0.0451255 1.74437 3.72123e-20)
(0.0723103 1.75114 -2.15948e-21)
(-0.0236715 1.76733 7.52449e-20)
(-0.137048 1.67972 -7.53875e-20)
(-0.0903977 1.74953 0)
(0.0491227 1.73287 0)
(0.108076 1.6556 0)
(-0.0499821 1.76827 0)
(-0.0892052 1.76843 0)
(0.355237 1.92114 -3.54762e-19)
(0.463806 1.97838 -1.09494e-19)
(0.347145 1.41935 -9.37584e-20)
(0.24672 1.58493 2.78504e-19)
(0.344981 1.77227 9.08276e-20)
(1.04742 0.0431132 0)
(0.997932 0.0564672 0)
(1.00335 0.056514 0)
(0.928443 -0.051835 0)
(1.02951 -0.00983201 0)
(0.940818 0.0389236 0)
(0.968968 0.115363 0)
(0.966449 0.0298415 0)
(0.999804 -0.0324691 1.38634e-18)
(0.988095 -0.0290425 -1.76762e-18)
(1.00605 0.0419407 -1.37782e-18)
(0.967066 0.0265972 1.72843e-18)
(0.900534 1.65733 0)
(0.841861 1.73293 -2.72424e-19)
(0.872594 1.59474 -2.33555e-19)
(1.00195 1.45133 3.10517e-19)
(0.873825 1.51541 1.08268e-18)
(0.841387 0.110663 5.45278e-19)
(1.11253 0.0734045 0)
(1.16414 0.25936 -8.89529e-19)
(1.12048 0.0948158 -3.76836e-20)
(0.984125 0.0893488 0)
(-0.8367 2.43733 5.48308e-19)
(-1.00834 2.34421 -8.63781e-19)
(-1.05655 3.30918 2.94277e-19)
(-1.38833 1.36738 -1.70211e-19)
(-0.13401 2.39309 2.58377e-19)
(-0.0841176 2.63 0)
(-0.109085 2.57167 -3.27863e-19)
(-0.448535 2.38099 -1.37997e-18)
(-0.180816 2.26951 0)
(-0.0511992 2.9879 3.14076e-20)
(-0.0080715 3.0626 -2.92156e-19)
(0.025487 3.05963 4.16391e-19)
(-0.144686 3.01567 0)
(-0.11501 2.97974 0)
(1.03867 1.67952 0)
(0.301614 1.10246 -4.38749e-19)
(1.10423 1.15187 2.5154e-19)
(0.927313 1.43927 0)
(0.796196 1.09694 -2.18579e-19)
(1.03131 1.1068 1.65894e-20)
(0.0369357 0.0532934 -5.66335e-19)
(0.63046 0.258132 -7.97638e-21)
(0.623214 0.298486 3.29411e-19)
(0.372665 0.425111 2.06986e-20)
(0.307732 0.317464 -7.97781e-19)
(0.535713 0.433237 0)
(0.545148 0.525356 5.50565e-19)
(0.554144 0.35216 0)
(0.432559 0.366524 0)
(0.478163 0.339941 0)
(0.596296 0.70919 4.54766e-19)
(1.19093 0.201297 -9.20363e-19)
(1.13615 0.517257 0)
(1.21283 0.2844 0)
(0.731046 0.207234 5.27809e-19)
(0.61649 0.710518 -3.35133e-19)
(0.517052 0.523799 6.35669e-19)
(0.811686 0.358653 -7.72822e-19)
(0.994549 -0.0363385 9.54318e-19)
(1.00515 0.141211 -9.77437e-19)
(0.992686 0.0376702 0)
(1.02788 -0.018634 0)
(1.00503 -0.0281394 -9.10527e-19)
(0.99254 0.0347459 9.03851e-19)
(0.965157 0.0622699 0)
(0.926375 0.0171728 0)
(1.00006 -0.00195721 0)
(0.978953 -0.0450593 0)
(1.05208 0.017147 0)
(0.951604 -0.0298968 0)
(0.155348 1.79257 0)
(0.119371 1.78006 0)
(0.223589 1.84119 -2.47421e-19)
(0.289615 1.97102 -1.04029e-19)
(0.303258 1.90631 -2.50176e-19)
(0.199892 1.91586 3.93154e-19)
(0.00247071 1.75525 0)
(0.132305 1.73057 -2.39455e-19)
(-0.0477961 1.77223 0)
(0.276137 1.67205 -1.30574e-19)
(0.182581 1.59977 3.66975e-19)
(0.300299 1.70218 2.08797e-19)
(0.170021 1.79386 -1.20808e-19)
(0.11207 1.77594 9.70795e-20)
(0.173194 1.79565 -3.10474e-19)
(0.223688 1.78593 0)
(0.284343 1.66011 2.32265e-19)
(0.0824805 1.62299 -9.14611e-20)
(0.151262 1.73627 0)
(0.00348157 1.77806 2.25034e-19)
(-0.099959 1.6777 0)
(0.0228317 1.68712 -1.70426e-19)
(-0.00373903 1.65255 0)
(0.0122108 1.70935 -1.34671e-19)
(0.0856759 1.71106 0)
(0.000848566 1.75723 0)
(0.0440845 1.75972 1.51521e-19)
(0.112374 1.77941 1.65113e-20)
(0.0290907 1.75626 2.54793e-19)
(-0.00176454 1.69854 1.97894e-21)
(0.173727 1.67966 8.02586e-20)
(0.098315 1.61677 5.02543e-20)
(-0.113818 1.7404 0)
(-0.10416 1.73746 0)
(-0.0110828 1.70043 2.03119e-19)
(-0.0545238 1.7304 2.08279e-19)
(0.0649369 1.8047 -2.54252e-19)
(-0.017604 1.7848 0)
(0.0954639 1.77822 -1.90958e-19)
(-0.086891 1.66431 6.53711e-20)
(-0.0343614 1.76712 -1.7652e-20)
(0.145559 1.82356 -9.594e-20)
(0.135238 1.67197 -3.85107e-20)
(-0.0213406 1.67769 2.14302e-19)
(0.985939 0.0512705 -9.2431e-19)
(0.995006 -0.127144 9.01944e-19)
(0.983717 0.0426227 0)
(0.941676 -0.0586602 1.25015e-18)
(0.909727 0.141038 -1.36157e-18)
(0.966263 0.0135924 1.487e-18)
(0.961697 -0.0138401 -1.58418e-19)
(1.05759 -0.117446 0)
(1.0209 0.00269927 8.95104e-19)
(0.997796 -0.0423213 -8.85488e-19)
(0.981546 -0.0468975 -5.14101e-20)
(0.975341 0.0983254 4.27921e-19)
(0.949474 0.0772696 0)
(0.962931 0.109635 -1.5084e-19)
(0.973348 0.0127181 0)
(0.965986 0.0753691 0)
(1.04988 0.0860129 0)
(0.936373 -0.0112527 0)
(0.984635 0.0642336 3.19743e-19)
(1.05734 -0.000249057 -6.89357e-19)
(1.02471 -0.0266416 -3.35132e-19)
(1.01385 -0.00113159 -3.76441e-19)
(1.09285 0.0306688 7.28584e-19)
(0.982877 0.0592777 0)
(0.99315 -0.00479664 0)
(0.00595731 1.83497 -9.33669e-20)
(0.212125 1.7562 -1.18839e-20)
(0.0631459 1.59131 0)
(0.0312877 1.76976 9.66425e-20)
(-0.175934 1.6544 1.85757e-20)
(-0.0569491 1.68357 -1.44729e-20)
(-0.123788 1.76684 1.34454e-19)
(-0.0733507 1.75489 -6.99508e-21)
(0.148888 1.68897 4.4858e-20)
(0.0755883 1.75674 -6.46951e-20)
(-0.0875945 1.76872 7.73242e-20)
(-0.0360554 1.65227 -2.19828e-21)
(0.00758406 1.86598 1.05483e-19)
(0.47326 1.75569 1.93421e-19)
(0.271089 1.83239 3.30256e-19)
(0.759907 1.80172 2.64652e-19)
(0.580824 1.91429 1.05182e-19)
(0.663362 1.93343 0)
(0.368114 1.44977 1.12785e-19)
(0.254227 1.38841 1.3657e-19)
(0.261786 1.53185 1.60462e-20)
(0.342488 1.53158 -4.29194e-19)
(0.482685 1.51321 3.56727e-19)
(0.197738 1.49378 0)
(0.17102 1.45422 -2.31588e-19)
(0.0961809 1.63961 5.74942e-19)
(0.0175631 1.60856 -3.60481e-21)
(0.0229377 1.53712 -7.17638e-19)
(0.680237 1.34844 6.07658e-19)
(0.475458 1.43032 0)
(1.03412 0.150496 3.09663e-20)
(0.984908 -0.128618 -2.61863e-20)
(0.981114 -0.115403 -4.60187e-19)
(1.05552 0.0408507 4.6673e-19)
(0.983046 0.0242005 0)
(0.74648 1.59583 0)
(0.878872 1.59166 0)
(0.90118 1.33719 0)
(0.687974 1.4085 0)
(0.829046 1.532 7.47758e-21)
(0.726557 1.48699 0)
(0.528581 1.42612 6.13337e-21)
(0.423561 1.44585 0)
(0.583851 1.52574 -5.14354e-19)
(0.614422 1.41112 3.31928e-19)
(0.79583 0.105846 0)
(0.763124 0.114952 1.43303e-19)
(0.869844 0.147533 8.93524e-19)
(0.83317 0.0634661 -3.23397e-19)
(0.841979 0.105623 -1.01677e-18)
(1.11065 0.189352 -1.09481e-18)
(0.754781 0.41871 -1.97148e-20)
(0.917246 0.162006 8.0738e-19)
(0.915477 0.140287 8.0851e-19)
(0.851248 0.190113 -1.2261e-18)
(0.89035 0.281256 1.48141e-19)
(0.743155 0.280523 -3.73146e-19)
(0.768666 0.268465 0)
(0.936302 0.136498 6.12465e-19)
(1.01932 0.14506 0)
(0.943768 0.136824 0)
(1.01856 0.19564 3.64204e-19)
(0.974465 0.342152 -8.31865e-22)
(0.866725 0.121976 -2.04986e-19)
(0.991288 0.109112 0)
(0.983554 0.0344957 7.07022e-19)
(0.927849 -0.0716157 8.59414e-19)
(1.05211 0.0666975 -6.83759e-19)
(1.00488 0.125257 -5.77677e-19)
(0.947154 -0.03854 -8.87469e-19)
(0.892298 0.213932 0)
(0.947149 0.022128 0)
(0.88763 0.0841075 -5.22505e-19)
(0.851408 -0.0686077 1.9581e-19)
(1.01993 0.138341 7.72779e-19)
(1.03764 0.0903747 -1.01014e-18)
(0.934564 0.113395 8.83628e-19)
(0.886702 0.180155 0)
(1.02478 0.174483 0)
(0.899917 0.0799314 -4.06976e-19)
(0.953534 0.0551721 -6.41466e-19)
(0.585227 1.53513 2.66249e-19)
(0.62898 1.4646 -2.62801e-19)
(0.740884 1.49686 -4.07837e-19)
(0.699844 1.63903 1.04242e-19)
(0.823232 1.56537 -1.04154e-18)
(1.00613 1.67906 3.4637e-19)
(0.912815 1.52956 6.21829e-22)
(0.827214 1.64815 -4.31793e-19)
(0.76782 1.61595 6.55308e-19)
(0.733688 1.84326 1.70686e-19)
(1.01391 1.86285 -1.75387e-19)
(1.0277 2.01579 0)
(0.472423 1.42135 -4.83855e-20)
(-0.624322 1.71713 3.43061e-19)
(-0.596399 0.362363 3.31641e-19)
(-0.509235 0.362383 2.30075e-19)
(0.221678 0.423731 4.56252e-19)
(0.207041 0.38504 -8.28942e-19)
(0.14479 0.546064 6.77403e-19)
(-0.000414379 0.323197 -2.02815e-19)
(0.201346 0.259431 4.37185e-19)
(0.697674 0.301375 -3.09654e-19)
(0.633391 0.32147 0)
(0.654259 0.261736 -1.12932e-21)
(0.510814 0.475187 2.98905e-19)
(0.313507 0.553934 -1.07779e-18)
(0.27349 0.495207 -1.1238e-20)
(0.42497 0.394003 0)
(0.47203 1.00276 4.05179e-19)
(0.756249 0.920807 4.70751e-19)
(0.619824 1.18844 -5.45637e-19)
(0.720621 0.929299 -2.15407e-19)
(0.922015 0.919519 -7.55869e-20)
(0.962822 1.13843 7.7549e-20)
(0.690265 0.680297 -7.5683e-19)
(0.783555 0.991354 2.01593e-19)
(0.997276 0.860586 0)
(0.876306 0.748695 -2.81433e-19)
(0.858863 0.227856 2.74744e-19)
(0.981467 0.420157 4.91816e-19)
(0.970724 0.268657 4.33217e-19)
(0.909981 0.432442 -5.1523e-19)
(1.02484 0.382136 0)
(1.04842 0.345027 0)
(0.715611 0.471261 -2.64345e-20)
(0.784672 0.213865 0)
(0.655712 0.239507 3.67738e-19)
(0.805886 0.307596 2.4251e-21)
(0.880675 0.542365 2.1423e-18)
(0.761521 0.564151 5.60069e-19)
(0.737257 0.489962 -5.35776e-19)
(0.687428 0.426244 5.73933e-19)
(0.673603 0.577672 3.14507e-19)
(0.591754 0.411666 -3.05503e-19)
(1.03334 0.0846094 7.53359e-19)
(0.933173 -0.0858359 0)
(0.936536 -0.0151706 4.99897e-19)
(0.85981 0.139051 -1.12567e-18)
(1.04723 -0.0136385 5.40307e-19)
(0.932017 0.0390857 -1.14804e-18)
(1.0453 -0.0217371 0)
(0.994048 -0.00832977 -2.38412e-19)
(1.00332 0.0595257 5.96346e-19)
(0.966895 0.000562208 -3.0477e-19)
(0.925747 -0.108932 2.24419e-19)
(-0.102986 1.78768 0)
(0.218723 1.70699 0)
(-0.0403601 1.77129 0)
(-0.0180013 1.80299 0)
(0.00706292 1.81313 3.84681e-19)
(0.00396399 1.83372 -9.18044e-20)
(0.0851041 1.59382 -1.14828e-19)
(0.155206 1.59898 1.50392e-19)
(-0.18149 1.79336 -3.06128e-19)
(0.0839655 1.63022 2.33203e-19)
(0.0268967 1.80124 3.20321e-20)
(-0.0109089 1.7335 -2.96762e-19)
(0.0254098 1.75714 -3.79168e-20)
(0.249376 1.70747 -3.50497e-20)
(0.00227098 1.69722 -2.41284e-19)
(0.0599405 1.66598 0)
(-0.0133947 1.74494 1.21165e-19)
(0.0516169 1.74456 9.05171e-20)
(0.133543 1.61287 -1.10622e-19)
(0.0951404 1.70023 0)
(0.214797 1.54558 -4.41734e-19)
(0.12493 1.60392 3.14898e-19)
(0.259683 1.62861 -2.98131e-19)
(0.212498 1.57161 1.91389e-19)
(-0.028177 1.41182 0)
(0.0927638 1.60699 -2.32858e-19)
(-0.0626108 1.60509 -2.87995e-19)
(-0.00898853 1.71571 0)
(0.0281614 1.8248 1.38797e-21)
(-0.00464454 1.81878 1.15098e-19)
(-0.012742 1.77961 2.08015e-20)
(0.0824466 1.72866 -2.96716e-19)
(-0.0808759 1.795 7.86085e-20)
(-0.0599648 1.51486 1.06218e-19)
(0.0948895 1.85054 0)
(-0.057076 1.81508 0)
(-0.127036 1.78283 1.01215e-19)
(0.124614 1.74913 -2.99395e-20)
(-0.0729228 1.77472 0)
(0.0672065 1.76707 8.80285e-20)
(0.0864729 1.74546 -1.66165e-19)
(0.931553 0.212283 0)
(1.09592 0.0508832 -8.19714e-20)
(0.931075 0.0762491 -5.7611e-19)
(0.904391 0.0226499 0)
(0.888487 -0.124826 0)
(1.04848 -0.0513783 -1.3873e-20)
(0.967277 -0.133284 9.08882e-19)
(0.944111 -0.0147947 1.14944e-18)
(1.01088 0.00982869 0)
(1.01547 -0.0082338 0)
(0.967202 -0.0334082 5.53118e-19)
(0.958983 0.0235649 0)
(0.928066 0.114085 0)
(-0.0632307 1.82108 0)
(-0.0383523 1.57832 3.11094e-20)
(-0.0558809 1.62831 2.94782e-20)
(-0.00745101 1.77114 0)
(0.212902 1.79897 8.24037e-20)
(0.0539183 1.79388 -2.38024e-20)
(0.0440103 1.68082 0)
(0.367655 1.5848 0)
(0.36152 1.45896 -6.00921e-19)
(0.332611 1.50793 0)
(0.498041 1.7687 7.34249e-19)
(0.552506 1.74053 0)
(0.537225 1.81038 -3.1582e-19)
(0.452129 1.43825 -1.40775e-20)
(0.684724 1.35528 -7.25303e-19)
(0.603152 1.38041 9.41933e-19)
(0.502602 1.38942 1.69573e-19)
(0.446999 1.44894 0)
(0.55555 1.43966 0)
(0.536259 1.42109 0)
(0.433401 1.35803 -6.09948e-19)
(0.437481 1.46253 -4.24342e-19)
(0.322763 1.43037 -9.83919e-20)
(0.516882 1.60696 7.92844e-20)
(0.302347 1.45207 0)
(0.477077 1.41764 0)
(0.39054 1.36811 -1.65367e-19)
(0.401311 1.42382 0)
(0.503669 1.48483 0)
(0.678868 1.3866 -5.83874e-19)
(0.437063 1.23231 -3.68026e-20)
(0.759557 1.46289 0)
(0.693619 1.52837 8.97916e-19)
(0.723058 1.34518 -1.9663e-19)
(1.04888 1.19387 0)
(0.776511 0.999105 3.35899e-19)
(0.396042 1.53314 0)
(0.420776 1.22514 0)
(0.730713 1.4271 -3.81628e-19)
(0.696467 1.53038 -2.72215e-19)
(0.74725 1.46388 4.66513e-19)
(0.713365 1.53189 -1.45683e-19)
(0.730665 1.46039 0)
(0.699284 1.45483 1.90273e-19)
(0.72762 1.45444 -3.10913e-19)
(0.765941 1.39884 -1.04477e-21)
(0.606155 1.50685 0)
(0.579741 1.54686 -2.32631e-19)
(0.58022 1.4487 0)
(0.812797 0.139693 0)
(0.790342 0.210174 0)
(0.71364 0.204364 0)
(0.774945 0.311848 -5.80081e-19)
(0.750092 0.189508 3.20522e-19)
(1.00337 -0.0393335 -4.04888e-19)
(0.871717 0.0395415 0)
(0.888671 0.0131464 1.68291e-19)
(0.855462 0.16093 6.76378e-19)
(0.776628 0.0420275 -4.33484e-19)
(0.952492 2.1973 2.23802e-19)
(0.81528 1.99018 0)
(0.876035 2.19148 4.55093e-19)
(0.224628 2.3306 -3.99e-19)
(0.300344 1.86419 -3.90555e-19)
(0.227655 1.39895 5.51808e-19)
(0.332265 1.52286 0)
(0.00160901 0.966088 -1.10617e-19)
(0.0232967 1.14003 7.1658e-19)
(-0.289878 0.924514 -1.65095e-19)
(0.047753 0.580669 1.88696e-19)
(0.302142 0.631292 3.90137e-19)
(0.535484 0.620695 0)
(0.261106 0.867588 0)
(0.117584 0.856224 0)
(0.86117 0.780843 2.30736e-19)
(0.824825 0.595491 -5.36497e-19)
(0.901097 0.641923 4.71667e-19)
(0.811921 0.451486 -4.29256e-19)
(0.968453 0.673994 0)
(0.923757 0.644133 -1.45814e-19)
(0.756552 0.373531 -7.53859e-19)
(0.725624 0.268785 -9.30098e-19)
(0.607542 0.435964 5.85429e-19)
(0.623405 0.400683 -5.38746e-19)
(0.722738 0.389183 -4.50224e-19)
(0.712846 0.317923 5.55624e-19)
(1.00955 0.00165674 -5.8838e-19)
(1.07695 0.033211 1.22503e-18)
(1.03922 0.0347047 7.33465e-19)
(1.08738 -0.0977068 -8.87849e-19)
(0.815918 0.0032067 0)
(0.809629 -0.00126428 -1.4496e-18)
(0.109794 1.6237 6.02602e-20)
(-0.0636146 1.69769 0)
(0.152138 1.80558 4.22539e-19)
(0.115302 1.73272 -3.83326e-19)
(0.0634146 1.81793 2.11783e-19)
(0.124849 1.80455 0)
(-0.0289363 1.82758 0)
(0.112094 1.63385 -3.50958e-20)
(0.0178364 1.63265 3.15277e-20)
(0.169418 1.59627 1.07492e-20)
(-0.248978 1.75364 -8.14888e-20)
(-0.0565789 1.74701 3.11868e-20)
(0.556378 1.569 -6.78e-19)
(0.653067 1.58327 7.16769e-19)
(0.439732 1.74091 -3.68592e-19)
(0.650652 1.60445 3.24865e-20)
(0.574496 1.76121 0)
(0.669283 1.7552 -3.68043e-19)
(0.575882 1.69372 3.56761e-19)
(0.518884 1.67347 3.63345e-19)
(0.61036 1.69275 0)
(0.698659 1.68748 0)
(0.630293 1.39483 6.46446e-19)
(0.31448 1.54616 8.36428e-19)
(0.1977 1.49134 -5.77788e-19)
(0.166131 1.56964 -9.53681e-20)
(0.344683 1.48331 2.00195e-19)
(0.273372 1.30489 -4.75442e-19)
(0.625868 1.38801 -5.33137e-19)
(0.607296 1.44981 0)
(0.569823 1.39711 -5.92413e-19)
(0.749609 1.43042 0)
(0.654164 1.58312 0)
(0.469824 1.79372 -4.02433e-19)
(0.526536 1.88483 -3.34645e-19)
(0.344725 1.96743 3.82796e-19)
(-0.357918 1.46979 0)
(-0.0850515 1.41192 -2.60297e-19)
(0.199832 1.53912 -3.44287e-19)
(0.402965 1.69918 0)
(0.35609 1.89819 2.83836e-19)
(0.0399311 1.94929 0)
(0.552371 0.989457 -8.53305e-19)
(0.595114 1.03842 1.1637e-18)
(0.702616 0.763312 -1.1483e-18)
(0.364035 0.804345 -1.01895e-19)
(0.388415 0.808578 -4.15416e-19)
(0.689286 1.69147 2.53518e-19)
(0.695059 1.65776 -5.2982e-19)
(0.464688 1.76668 6.85885e-19)
(0.501217 1.59972 -4.52574e-19)
(0.63684 1.64129 -6.46051e-19)
(0.640549 1.68927 -5.25496e-20)
(0.678613 1.54728 5.37453e-19)
(0.553195 1.63947 3.75739e-20)
(0.590077 1.49349 2.72997e-19)
)
;

boundaryField
{
    wall-4
    {
        type            noSlip;
    }
    velocity-inlet-5
    {
        type            fixedValue;
        value           uniform (1 0 0);
    }
    velocity-inlet-6
    {
        type            fixedValue;
        value           uniform (0 3 0);
    }
    pressure-outlet-7
    {
        type            zeroGradient;
    }
    wall-8
    {
        type            noSlip;
    }
    frontAndBackPlanes
    {
        type            empty;
    }
}


// ************************************************************************* //
