/*--------------------------------*- C++ -*----------------------------------*\
| =========                 |                                                 |
| \\      /  F ield         | OpenFOAM: The Open Source CFD Toolbox           |
|  \\    /   O peration     | Version:  2206                                  |
|   \\  /    A nd           | Website:  www.openfoam.com                      |
|    \\/     M anipulation  |                                                 |
\*---------------------------------------------------------------------------*/
FoamFile
{
    version     2.0;
    format      ascii;
    arch        "LSB;label=32;scalar=64";
    class       volScalarField;
    location    "100";
    object      epsilon;
}
// * * * * * * * * * * * * * * * * * * * * * * * * * * * * * * * * * * * * * //

dimensions      [0 2 -3 0 0 0 0];

internalField   nonuniform List<scalar> 
12940
(
31.2295
1.03532
0.220873
0.150015
0.1368
0.133643
0.132778
0.132486
119.372
7.01077
0.736683
0.237611
0.162512
0.145138
0.140131
0.13845
233.578
20.9376
2.47369
0.502265
0.226044
0.16826
0.151913
0.146433
362.782
45.6449
6.81329
1.26638
0.38972
0.218252
0.173084
0.158338
487.63
81.5556
14.9853
3.10818
0.807827
0.332496
0.214675
0.178233
579.551
124.834
27.4956
6.57527
1.74713
0.59314
0.300812
0.214515
613.593
167.968
43.7372
11.9078
3.48195
1.13908
0.480513
0.284264
589.601
204.97
62.6113
19.1967
6.20853
2.14034
0.839319
0.421348
537.029
238.315
85.325
29.2123
10.294
3.81345
1.51145
0.690911
490.821
278.044
119.402
45.8154
17.3381
6.77554
2.7786
1.23323
463.166
323.549
173.823
78.741
32.9157
13.5217
5.6688
2.49308
447.188
359.951
238.68
134.148
66.9431
31.0468
13.908
6.23503
433.606
379.549
291.958
198.072
120.442
67.0682
34.9591
17.5143
417.832
384.189
324.357
250.796
178.201
117.356
72.3906
42.5586
398.936
377.983
338.157
284.664
225.244
167.977
118.677
80.3631
377.331
364.398
338.401
301.169
256.242
208.437
162.483
122.306
353.7
345.907
329.388
304.392
272.208
235.292
196.726
159.837
328.712
324.245
314.225
298.168
276.211
249.351
219.3
188.385
302.985
300.675
295.109
285.487
271.382
252.954
230.961
206.815
277.097
276.173
273.638
268.59
260.351
248.627
233.572
215.9
251.578
251.526
251.021
249.167
245.208
238.625
229.214
217.204
226.911
227.385
228.197
228.514
227.594
224.83
219.825
212.494
203.509
204.28
205.904
207.638
208.799
208.779
207.091
203.466
181.704
182.623
184.705
187.307
189.829
191.702
192.423
191.627
161.735
162.708
165.008
168.09
171.442
174.558
176.961
178.254
143.742
144.715
147.077
150.374
154.179
158.059
161.585
164.369
127.774
128.717
131.046
134.384
138.386
142.691
146.93
150.746
113.797
114.697
116.937
120.212
124.245
128.746
133.407
137.918
101.718
102.569
104.69
107.839
111.802
116.35
121.238
126.208
91.3985
92.1963
94.1843
97.1726
101.002
105.505
110.491
115.76
82.6773
83.4189
85.2639
88.0704
91.7295
96.1254
101.126
106.584
75.3846
76.066
77.7608
80.3709
83.8323
88.0788
93.0305
98.5983
69.354
69.9708
71.5099
73.9118
77.1528
81.2127
86.062
91.6688
64.4302
64.9793
66.3592
68.5429
71.5421
75.3777
80.0677
85.6372
60.4733
60.9541
62.1742
64.1324
66.8683
70.4378
74.9023
80.3407
57.3613
57.7752
58.8378
60.5652
63.0162
66.2727
70.4329
75.6215
54.9912
55.3402
56.2479
57.7393
59.8824
62.7743
66.5387
71.3337
53.281
53.5649
54.3171
55.564
57.3729
59.8439
63.1142
67.3589
52.1717
52.3868
52.978
53.9672
55.4118
57.4022
60.0751
63.6297
51.6318
51.7732
52.1964
52.9139
53.9618
55.4008
57.3463
60.0766
51.6676
51.7451
52.0236
52.5063
53.2002
54.0995
55.1522
56.1458
52.11
52.1362
52.3034
52.6111
53.0545
53.6088
54.2051
54.6905
52.9826
52.9641
53.0378
53.2045
53.4596
53.7822
54.123
54.3965
54.2944
54.2375
54.233
54.2864
54.3997
54.5634
54.7509
54.9172
56.0588
55.9677
55.8949
55.852
55.85
55.8929
55.9741
56.0735
58.2932
58.1694
58.0317
57.8981
57.7892
57.7232
57.7125
57.7579
61.019
60.8615
60.6565
60.4273
60.2041
60.0196
59.9072
59.8931
64.2615
64.0675
63.7879
63.4502
63.0915
62.7582
62.5082
62.4068
68.0489
67.8148
67.4515
66.9872
66.4615
65.9279
65.4667
65.2045
72.4095
72.1329
71.6778
71.0701
70.3438
69.5426
68.7408
68.1173
77.9804
77.6554
77.0942
76.317
75.3434
74.1795
72.7947
71.0448
85.0712
84.6958
84.0213
83.067
81.8488
80.369
78.6082
76.5159
93.0739
92.6531
91.874
90.7587
89.3264
87.588
85.5485
83.214
101.972
101.509
100.631
99.3637
97.7307
95.7505
93.4441
90.8444
111.722
111.219
110.244
108.829
106.999
104.774
102.18
99.26
122.259
121.717
120.651
119.097
117.077
114.602
111.691
108.384
133.494
132.919
131.777
130.11
127.927
125.217
121.968
118.191
145.311
144.717
143.534
141.81
139.535
136.657
133.086
128.743
157.553
156.966
155.8
154.119
151.901
149.034
145.292
140.321
170.018
169.467
168.396
166.899
164.977
162.509
159.144
153.944
182.454
181.969
181.055
179.867
178.491
176.984
175.431
174.114
194.607
194.198
193.452
192.57
191.685
190.898
190.299
189.955
206.261
205.922
205.32
204.679
204.139
203.784
203.629
203.587
217.259
216.978
216.485
216.01
215.689
215.574
215.628
215.701
227.499
227.261
226.844
226.478
226.288
226.306
226.464
226.586
236.924
236.716
236.349
236.051
235.939
236.03
236.243
236.389
245.508
245.32
244.985
244.729
244.663
244.795
245.038
245.197
253.252
253.076
252.761
252.531
252.491
252.647
252.907
253.073
260.174
260.004
259.701
259.485
259.461
259.632
259.901
260.073
266.304
266.136
265.839
265.632
265.617
265.797
266.073
266.25
271.683
271.514
271.22
271.018
271.008
271.193
271.475
271.656
276.358
276.185
275.892
275.692
275.685
275.874
276.16
276.346
280.378
280.201
279.906
279.707
279.703
279.894
280.184
280.376
283.797
283.614
283.318
283.118
283.115
283.309
283.602
283.799
286.665
286.477
286.178
285.978
285.976
286.172
286.468
286.671
289.032
288.839
288.538
288.337
288.335
288.533
288.833
289.04
290.944
290.747
290.443
290.241
290.24
290.439
290.742
290.954
292.441
292.24
291.934
291.732
291.73
291.931
292.236
292.451
293.556
293.351
293.044
292.842
292.841
293.042
293.348
293.567
294.313
294.107
293.799
293.597
293.596
293.797
294.105
294.325
294.73
294.523
294.216
294.014
294.013
294.215
294.522
294.743
294.813
294.608
294.302
294.1
294.1
294.301
294.607
294.827
294.561
294.358
294.053
293.853
293.853
294.053
294.358
294.575
293.959
293.76
293.459
293.26
293.26
293.458
293.76
293.975
292.988
292.794
292.496
292.299
292.298
292.495
292.793
293.003
291.615
291.427
291.134
290.938
290.938
291.131
291.425
291.629
289.801
289.62
289.332
289.139
289.137
289.328
289.616
289.813
287.5
287.327
287.043
286.852
286.85
287.036
287.318
287.507
284.66
284.495
284.215
284.026
284.022
284.203
284.477
284.658
281.223
281.065
280.79
280.601
280.594
280.768
281.034
281.205
277.132
276.981
276.708
276.517
276.504
276.67
276.926
277.087
272.328
272.18
271.907
271.712
271.69
271.844
272.086
272.236
266.754
266.607
266.329
266.123
266.086
266.222
266.448
266.585
260.36
260.208
259.919
259.693
259.63
259.739
259.94
260.063
253.105
252.942
252.63
252.369
252.262
252.326
252.491
252.592
244.963
244.779
244.427
244.107
243.926
243.914
244.017
244.085
235.927
235.711
235.295
234.877
234.571
234.427
234.419
234.429
226.024
225.761
225.25
224.677
224.163
223.782
223.561
223.45
215.321
214.997
214.356
213.558
212.711
211.907
211.242
210.821
203.941
203.55
202.754
201.664
200.34
198.824
197.206
195.801
192.069
191.619
190.676
189.291
187.431
184.957
181.507
176.125
179.938
179.456
178.428
176.87
174.726
171.865
168.053
162.948
167.786
167.302
166.265
164.676
162.494
159.643
156.027
151.57
155.816
155.353
154.365
152.85
150.784
148.138
144.891
141.059
144.186
143.758
142.854
141.472
139.601
137.24
134.405
131.139
133.017
132.628
131.823
130.598
128.954
126.902
124.473
121.723
122.4
122.05
121.346
120.284
118.868
117.12
115.075
112.792
112.408
112.094
111.485
110.578
109.38
107.916
106.225
104.363
103.098
102.817
102.295
101.53
100.532
99.3268
97.9551
96.4706
94.5167
94.265
93.8211
93.1832
92.3645
91.3915
90.3041
89.1543
86.6988
86.4744
86.0999
85.5751
84.9153
84.1472
83.3102
82.4549
79.6688
79.4703
79.1579
78.7331
78.2126
77.6237
77.0051
76.4062
73.4418
73.2679
73.0104
72.6735
72.2742
71.8402
71.4098
71.0315
68.0196
67.8704
67.6622
67.401
67.1057
66.8034
66.5325
66.3413
63.3918
63.2672
63.1033
62.9074
62.6991
62.5066
62.3679
62.3315
59.5365
59.4359
59.3111
59.1703
59.0334
58.9296
58.897
58.9845
56.4215
56.344
56.2527
56.1567
56.0762
56.0408
56.0892
56.2712
54.0057
53.9497
53.886
53.8243
53.7853
53.7987
53.9037
54.1517
52.2413
52.2047
52.1623
52.1244
52.1117
52.154
52.2919
52.5785
51.0756
51.0558
51.0279
51.003
51.0012
51.0531
51.2008
51.4992
50.4538
50.4477
50.4273
50.4037
50.3975
50.4401
50.5751
50.8599
50.3207
50.3247
50.3041
50.2706
50.2449
50.2596
50.3604
50.6071
50.623
50.6332
50.6046
50.5497
50.4896
50.4586
50.5045
50.6901
51.3105
51.3228
51.2786
51.191
51.0822
50.9882
50.9596
51.0623
52.3379
52.348
52.2803
52.1491
51.9778
51.8046
51.683
51.6823
53.6644
53.6682
53.5694
53.3841
53.137
52.869
52.6369
52.5137
55.2546
55.2478
55.1107
54.861
54.5256
54.1482
53.7893
53.5259
57.0777
57.0562
56.8736
56.5498
56.1142
55.6138
55.1129
54.6927
59.107
59.0669
58.832
58.4249
57.878
57.2418
56.5849
55.9928
61.3195
61.2568
60.9631
60.4642
59.7956
59.0118
58.1861
57.4083
63.695
63.6059
63.2473
62.6485
61.8487
60.9067
59.9004
58.9244
66.2152
66.0962
65.6671
64.961
64.0213
62.9115
61.7142
60.529
68.8638
68.7115
68.2065
67.3865
66.2993
65.0132
63.6158
62.2115
71.6254
71.4365
70.8509
69.9112
68.6698
67.2001
65.5948
63.9632
74.4853
74.2569
73.5865
72.522
71.1208
69.4614
67.6418
65.7761
77.4293
77.1587
76.4
75.2066
73.6411
71.7873
69.7483
67.6431
80.4436
80.1284
79.2784
77.9528
76.2196
74.168
71.9061
69.5577
83.5143
83.1526
82.209
80.749
78.8459
76.5943
74.1074
71.5134
86.628
86.218
85.1793
83.5834
81.5095
79.0572
76.3445
73.5043
89.7712
89.3115
88.1768
86.4447
84.2002
81.5477
78.61
75.5242
92.9306
92.4203
91.1893
89.3217
86.9077
84.0569
80.8964
77.5673
96.0932
95.5317
94.205
92.2033
89.6222
86.5762
83.1964
79.6274
99.2464
98.6334
97.2121
95.0786
92.334
89.097
85.5026
81.6988
102.378
101.714
100.199
97.9374
95.0337
91.611
87.8079
83.7754
105.476
104.761
103.156
100.77
97.7119
94.1099
90.1051
85.8513
108.53
107.765
106.072
103.566
100.36
96.586
92.3876
87.9206
111.529
110.715
108.938
106.317
102.97
99.0318
94.6485
89.9778
114.464
113.602
111.745
109.014
105.534
101.44
96.8815
92.0171
117.325
116.418
114.484
111.651
108.045
103.805
99.0807
94.0332
120.107
119.155
117.149
114.219
110.496
106.119
101.24
96.021
122.801
121.807
119.733
116.714
112.881
108.377
103.355
97.9755
125.401
124.368
122.231
119.129
115.196
110.575
105.42
99.8923
127.904
126.833
124.638
121.46
117.435
112.707
107.431
101.767
130.304
129.198
126.95
123.703
119.595
114.771
109.384
103.596
132.599
131.461
129.165
125.855
121.672
116.762
111.276
105.376
134.787
133.619
131.279
127.914
123.665
118.678
113.104
107.103
136.867
135.671
133.292
129.878
125.571
120.516
114.866
108.775
138.838
137.616
135.203
131.747
127.389
122.277
116.558
110.39
140.699
139.455
137.012
133.519
129.119
123.957
118.182
111.946
142.454
141.189
138.72
135.197
130.761
125.558
119.734
113.442
144.101
142.818
140.328
136.779
132.315
127.078
121.215
114.875
145.645
144.346
141.837
138.269
133.782
128.519
122.625
116.247
147.087
145.774
143.251
139.667
135.163
129.881
123.963
117.556
148.43
147.105
144.571
140.976
136.461
131.165
125.231
118.802
149.677
148.342
145.8
142.198
137.676
132.374
126.43
119.987
150.833
149.489
146.942
143.337
138.813
133.508
127.56
121.109
151.9
150.55
147.999
144.394
139.873
134.57
128.624
122.172
152.883
151.527
148.977
145.374
140.858
135.563
129.623
123.174
153.786
152.426
149.877
146.28
141.773
136.488
130.559
124.119
154.612
153.25
150.704
147.115
142.619
137.348
131.433
125.006
155.367
154.003
151.462
147.883
143.401
138.146
132.249
125.839
156.053
154.689
152.154
148.587
144.121
138.885
133.008
126.618
156.676
155.312
152.785
149.231
144.782
139.568
133.713
127.347
157.239
155.876
153.358
149.818
145.388
140.196
134.367
128.026
157.746
156.386
153.876
150.352
145.943
140.774
134.971
128.657
158.202
156.844
154.345
150.836
146.448
141.305
135.529
129.244
158.61
157.255
154.766
151.274
146.907
141.79
136.043
129.788
158.973
157.622
155.144
151.669
147.324
142.233
136.515
130.29
159.296
157.948
155.481
152.024
147.701
142.636
136.948
130.755
159.582
158.238
155.782
152.342
148.042
143.003
137.344
131.183
159.834
158.494
156.05
152.627
148.349
143.336
137.707
131.577
160.055
158.72
156.287
152.881
148.625
143.638
138.038
131.939
160.25
158.919
156.497
153.108
148.873
143.911
138.339
132.272
160.42
159.095
156.683
153.31
149.095
144.158
138.614
132.577
160.57
159.249
156.848
153.49
149.295
144.382
138.865
132.858
160.702
159.385
156.994
153.651
149.476
144.586
139.094
133.116
160.818
159.506
157.125
153.796
149.639
144.771
139.304
133.353
160.923
159.615
157.244
153.928
149.788
144.94
139.497
133.572
161.019
159.715
157.352
154.049
149.925
145.096
139.676
133.775
161.107
159.807
157.453
154.161
150.053
145.242
139.843
133.965
161.192
159.896
157.548
154.268
150.174
145.38
139.999
134.144
161.274
159.982
157.642
154.371
150.29
145.511
140.149
134.313
161.357
160.067
157.734
154.473
150.403
145.639
140.293
134.476
161.441
160.155
157.827
154.575
150.516
145.765
140.434
134.634
161.528
160.245
157.923
154.678
150.63
145.89
140.573
134.788
161.618
160.338
158.021
154.785
150.745
146.017
140.713
134.942
161.712
160.434
158.123
154.894
150.863
146.145
140.853
135.096
161.807
160.533
158.227
155.005
150.984
146.276
140.995
135.251
161.904
160.633
158.333
155.118
151.106
146.409
141.139
135.407
161.996
160.73
158.437
155.23
151.227
146.541
141.283
135.563
162.013
148.544
135.905
124.933
116.275
110.48
108.067
109.579
115.57
126.525
142.674
163.804
189.12
217.164
245.628
152.282
139.796
128.655
119.331
112.215
107.658
106.025
107.723
113.195
122.864
137.013
155.65
178.417
204.571
232.994
142.609
131.303
121.507
113.53
107.633
104.076
103.149
105.191
110.591
119.736
132.918
150.226
171.475
196.173
223.692
133.241
123.084
114.477
107.642
102.778
100.098
99.8534
102.353
107.953
117.014
129.817
146.473
166.855
190.563
217.177
124.246
115.154
107.607
101.78
97.8371
95.9643
96.3965
99.4262
105.389
114.621
127.385
143.791
163.693
186.778
212.699
115.644
107.537
100.958
96.0477
92.9502
91.8396
92.9438
96.5444
102.962
112.513
125.438
141.798
161.468
184.17
209.602
107.458
100.273
94.5918
90.533
88.2271
87.845
89.6099
93.7985
100.72
110.671
123.84
140.273
159.852
182.314
207.397
99.7203
93.4098
88.5738
85.3146
83.7571
84.0704
86.4778
91.254
98.6992
109.065
122.516
139.08
158.635
180.93
205.743
92.4745
86.9991
82.9637
80.4594
79.6092
80.5832
83.6081
88.9586
96.9047
107.68
121.422
138.133
157.684
179.837
204.407
85.7654
81.0898
77.8129
76.0208
75.8351
77.4314
81.0415
86.9264
95.3473
106.513
120.528
137.373
156.91
178.913
203.233
79.6345
75.7226
73.1629
72.0365
72.4692
74.6437
78.7912
85.1713
94.0308
105.551
119.808
136.755
156.249
178.076
202.119
74.1149
70.9285
69.039
68.5281
69.5282
72.2279
76.8643
83.6943
92.9485
104.781
119.234
136.242
155.652
177.265
200.992
69.2282
66.723
65.4518
65.5016
67.0117
70.1816
75.2549
82.4848
92.0842
104.178
118.78
135.799
155.08
176.435
199.802
64.9832
63.1072
62.398
62.9475
64.9074
68.4899
73.9454
81.522
91.4138
103.717
118.413
135.393
154.499
175.552
198.513
61.3727
60.0697
59.859
60.8442
63.192
67.128
72.9092
80.7774
90.9068
103.364
118.102
134.993
153.875
174.585
197.098
58.3779
57.5839
57.8053
59.1608
61.8336
66.0635
72.1131
80.217
90.5285
103.085
117.813
134.566
153.183
173.51
195.536
55.9667
55.6138
56.1993
57.8592
60.7946
65.2589
71.5197
79.8036
90.2428
102.846
117.513
134.085
152.396
172.305
193.812
54.098
54.1164
54.9979
56.8973
60.0338
64.6742
71.09
79.4994
90.0132
102.613
117.174
133.522
151.492
170.954
191.914
52.7243
53.044
54.1548
56.231
59.5093
64.2691
70.7855
79.2677
89.8056
102.354
116.766
132.855
150.454
169.443
189.833
51.7944
52.3473
53.6236
55.8167
59.1801
64.0052
70.5699
79.0744
89.5888
102.043
116.267
132.064
149.266
167.762
187.565
51.2564
51.9777
53.3591
55.6127
59.008
63.847
70.4102
78.8895
89.3358
101.655
115.658
131.135
147.918
165.904
185.108
51.0596
51.8886
53.3194
55.5813
58.9586
63.7633
70.2782
78.6873
89.024
101.172
114.922
130.055
146.403
163.866
182.463
51.1567
52.0376
53.4666
55.6889
59.0021
63.7273
70.1498
78.4468
88.6356
100.579
114.05
128.819
144.716
161.649
179.633
51.5045
52.3869
53.7677
55.9066
59.1133
63.7172
70.0061
78.1517
88.1573
99.8664
113.035
127.423
142.858
159.253
176.625
52.065
52.9036
54.1946
56.2106
59.2719
63.7158
69.8327
77.7904
87.5799
99.0276
111.873
125.865
140.83
156.686
173.446
52.8055
53.56
54.7239
56.5812
59.462
63.71
69.6193
77.355
86.8984
98.0601
110.564
124.15
138.64
153.954
170.106
53.6985
54.333
55.3368
57.0034
59.6714
63.6908
69.3593
76.8414
86.1107
96.9645
109.112
122.281
136.292
151.067
166.618
54.7209
55.204
56.0181
57.4655
59.8917
63.6525
69.0497
76.2487
85.2182
95.7438
107.521
120.268
133.798
148.037
162.993
55.8539
56.1579
56.7563
57.9588
60.1172
63.5922
68.69
75.5786
84.2244
94.4038
105.799
118.117
131.168
144.875
159.247
57.0822
57.1827
57.5424
58.4775
60.3447
63.5093
68.282
74.8352
83.1352
92.9517
103.955
115.841
128.414
141.596
155.392
58.3933
58.2688
58.3698
59.0176
60.5731
63.4052
67.8297
74.0242
81.958
91.3965
101.999
113.451
125.549
138.212
151.445
59.7771
59.409
59.2336
59.5768
60.8026
63.2828
67.338
73.1528
80.7017
89.7483
99.9431
110.96
122.586
134.739
147.421
61.2252
60.5973
60.1304
60.154
61.0345
63.146
66.8134
72.2294
79.376
88.0181
97.7984
108.379
119.539
131.191
143.335
62.7307
61.829
61.0577
60.749
61.2711
62.9993
66.2629
71.2629
77.9915
86.2174
95.5777
105.723
116.422
127.584
139.203
64.2874
63.1001
62.0137
61.3624
61.5151
62.848
65.6938
70.2629
76.5592
84.3583
93.2937
103.005
113.25
123.931
135.039
65.8901
64.4075
62.9972
61.995
61.7696
62.6973
65.1141
69.2392
75.0904
82.453
90.9591
100.238
110.036
120.247
130.857
67.5339
65.7482
64.0073
62.6477
62.0377
62.5528
64.5312
68.2016
73.5964
80.5136
88.5867
97.4354
106.793
116.545
126.672
69.2142
67.1196
65.0431
63.3217
62.3225
62.4196
63.9529
67.1596
72.0883
78.5523
86.189
94.6095
103.534
112.838
122.497
70.9266
68.5189
66.1038
64.018
62.627
62.3028
63.3861
66.1226
70.5772
76.5808
83.778
91.7728
100.272
109.14
118.345
72.6669
69.9436
67.1885
64.7374
62.9538
62.2069
62.8379
65.0994
69.0734
74.6106
81.3654
88.937
97.0185
105.461
114.226
74.4305
71.391
68.2962
65.4807
63.3053
62.1364
62.3142
64.0983
67.587
72.6525
78.9625
86.1132
93.7841
101.813
110.152
76.2131
72.8584
69.4258
66.2481
63.6835
62.0947
61.8209
63.1269
66.1273
70.717
76.5799
83.3118
90.5793
98.2049
106.132
78.0103
74.3428
70.5757
67.0398
64.0899
62.0851
61.3627
62.192
64.7028
68.8137
74.2277
80.5428
87.4136
94.6471
102.176
79.8175
75.8412
71.7445
67.8556
64.5257
62.1103
60.944
61.2997
63.3215
66.9517
71.9151
77.8154
84.2959
91.1477
98.292
81.6301
77.3504
72.9302
68.6948
64.9917
62.1723
60.5685
60.4554
61.9903
65.1393
69.651
75.1379
81.2342
87.7142
94.4864
83.4435
78.8671
74.1307
69.5566
65.4883
62.2728
60.2389
59.6636
60.7154
63.3839
67.4434
72.5182
78.2357
84.3535
90.7661
85.2531
80.3878
75.3439
70.4399
66.0152
62.4126
59.9576
58.9279
59.5021
61.6922
65.2994
69.9635
75.3071
81.0716
87.1363
87.0544
81.9091
76.5672
71.3432
66.5722
62.5925
59.7262
58.2512
58.3548
60.07
63.2257
67.4801
72.4543
77.8736
83.6021
88.8427
83.4275
77.7981
72.2648
67.1582
62.8124
59.5458
57.6357
57.277
58.5222
61.228
65.0739
69.6824
74.7643
80.1671
90.6138
84.9394
79.0338
73.2028
67.7723
63.072
59.4167
57.0829
56.2716
57.0529
59.3113
62.75
66.9961
71.7475
76.8349
92.3634
86.4412
80.2715
74.155
68.4129
63.3705
59.3389
56.5936
55.3404
55.6654
57.4799
60.5128
64.3994
68.8266
73.608
94.0873
87.9296
81.5083
75.1191
69.0783
63.7067
59.312
56.1679
54.4845
54.362
55.7373
58.3661
61.8957
66.0043
70.4885
95.7817
89.401
82.7412
76.0926
69.7665
64.0791
59.3347
55.8055
53.7045
53.1444
54.0861
56.3132
59.4879
63.2828
67.4778
97.443
90.8522
83.9673
77.073
70.4753
64.4861
59.4059
55.5055
53.0002
52.0134
52.5284
54.3567
57.1785
60.6637
64.5769
99.0677
92.2802
85.1838
78.0576
71.2024
64.9254
59.5238
55.2666
52.3708
50.9692
51.0653
52.4984
54.9693
58.1484
61.7862
100.653
93.6818
86.3877
79.0438
71.9453
65.3949
59.6865
55.087
51.815
50.0112
49.6973
50.7398
52.8616
55.7376
59.106
102.196
95.0544
87.5763
80.0287
72.7014
65.8922
59.8915
54.9646
51.331
49.1382
48.4244
49.0814
50.8565
53.4319
56.5358
103.694
96.3953
88.747
81.0099
73.4681
66.4146
60.1365
54.8971
50.9169
48.3488
47.2457
47.5235
48.9544
51.2315
54.0753
105.145
97.7023
89.8972
81.9846
74.2426
66.9595
60.4188
54.882
50.5699
47.6407
46.1598
46.0655
47.1554
49.136
51.7235
106.547
98.9733
91.0247
82.9502
75.0223
67.5242
60.7356
54.9163
50.2876
47.0116
45.165
44.7066
45.459
47.1451
49.4792
107.899
100.206
92.1272
83.9044
75.8045
68.1057
61.0841
54.9972
50.0667
46.4585
44.2588
43.4452
43.8645
45.2579
47.3414
109.199
101.4
93.2027
84.8448
76.5866
68.7013
61.4611
55.1216
49.9043
45.9783
43.4387
42.2793
42.3706
43.4734
45.3083
110.447
102.553
94.2495
85.7691
77.366
69.3082
61.8639
55.2863
49.7969
45.5678
42.7015
41.2066
40.9757
41.7903
43.3784
111.642
103.663
95.266
86.6753
78.1404
69.9236
62.2892
55.488
49.7413
45.2235
42.0438
40.2242
39.6776
40.2068
41.5499
112.784
104.731
96.2507
87.5616
78.9072
70.5448
62.7341
55.7235
49.7339
44.9418
41.4623
39.3292
38.4742
38.7211
39.8207
113.873
105.756
97.2025
88.4262
79.6645
71.1692
63.1957
55.9896
49.7712
44.7189
40.9531
38.518
37.3625
37.3311
38.1887
114.909
106.737
98.1205
89.2676
80.4101
71.7942
63.671
56.2831
49.8498
44.5512
40.5125
37.7872
36.3397
36.0344
36.6518
115.893
107.675
99.0039
90.0845
81.1421
72.4176
64.1573
56.6008
49.9662
44.435
40.1366
37.1329
35.4024
34.8282
35.2076
116.825
108.568
99.8522
90.8756
81.8587
73.0369
64.6518
56.9395
50.1169
44.3665
39.8215
36.5514
34.5473
33.7099
33.8534
117.706
109.418
100.665
91.6401
82.5585
73.6502
65.1519
57.2963
50.2986
44.342
39.5632
36.0386
33.7706
32.6762
32.5868
118.537
110.225
101.442
92.3771
83.24
74.2554
65.6552
57.6683
50.508
44.3579
39.358
35.5907
33.0687
31.7239
31.4048
119.32
110.99
102.183
93.0859
83.9019
74.8507
66.1593
58.0527
50.7419
44.4108
39.202
35.2036
32.4376
30.8497
30.3046
120.056
111.713
102.889
93.7663
84.5433
75.4346
66.6622
58.4468
50.9972
44.4971
39.0914
34.8733
31.8735
30.0501
29.2831
120.746
112.395
103.56
94.4178
85.1633
76.0056
67.1616
58.8481
51.271
44.6136
39.0226
34.5961
31.3725
29.3213
28.3373
121.392
113.037
104.196
95.0404
85.7612
76.5624
67.6559
59.2542
51.5605
44.7569
38.9921
34.3682
30.9308
28.6598
27.4638
121.995
113.641
104.798
95.634
86.3363
77.1038
68.1433
59.6631
51.863
44.9242
38.9964
34.1858
30.5444
28.0619
26.6594
122.558
114.208
105.366
96.1989
86.8884
77.6289
68.6224
60.0725
52.176
45.1123
39.0323
34.0454
30.2097
27.5239
25.9207
123.082
114.738
105.902
96.7353
87.4172
78.1368
69.0916
60.4807
52.4971
45.3186
39.0965
33.9435
29.9231
27.0421
25.2444
123.568
115.234
106.405
97.2437
87.9225
78.627
69.55
60.8858
52.8241
45.5404
39.1862
33.8768
29.681
26.6131
24.6271
124.02
115.696
106.879
97.7245
88.4043
79.099
69.9964
61.2864
53.1549
45.7753
39.2984
33.8421
29.48
26.2333
24.0654
124.438
116.127
107.322
98.1785
88.863
79.5524
70.4299
61.6811
53.4878
46.0207
39.4305
33.8365
29.3168
25.8993
23.5561
124.825
116.528
107.737
98.6064
89.2987
79.9869
70.8499
62.0686
53.8209
46.2748
39.5798
33.857
29.1883
25.6078
23.0958
125.182
116.9
108.125
99.0089
89.7118
80.4026
71.2558
62.4479
54.1527
46.5353
39.744
33.901
29.0916
25.3557
22.6815
125.512
117.245
108.487
99.3871
90.1028
80.7995
71.6472
62.8181
54.4819
46.8005
39.9209
33.9657
29.0237
25.1399
22.3099
125.816
117.565
108.825
99.7419
90.4724
81.1777
72.0237
63.1783
54.8071
47.0687
40.1083
34.0489
28.9819
24.9576
21.9782
126.097
117.862
109.139
100.075
90.8213
81.5376
72.3854
63.5281
55.1273
47.3384
40.3044
34.1483
28.9639
24.806
21.6835
126.357
118.137
109.432
100.386
91.1503
81.8796
72.732
63.8669
55.4417
47.6082
40.5073
34.2617
28.967
24.6825
21.4231
126.598
118.392
109.704
100.678
91.4603
82.2042
73.0639
64.1945
55.7494
47.877
40.7156
34.3872
28.9892
24.5847
21.1942
126.822
118.63
109.958
100.951
91.7523
82.5122
73.3813
64.5107
56.0499
48.1436
40.9276
34.5231
29.0283
24.5101
20.9946
127.031
118.851
110.196
101.207
92.0276
82.8043
73.6845
64.8155
56.3428
48.4073
41.1423
34.6676
29.0825
24.4568
20.8218
127.227
119.058
110.419
101.447
92.2872
83.0815
73.9742
65.1091
56.6276
48.6673
41.3585
34.8194
29.1499
24.4226
20.6736
127.412
119.254
110.628
101.674
92.5327
83.3447
74.2511
65.3918
56.9044
48.9231
41.5752
34.9772
29.229
24.4057
20.548
127.589
119.439
110.826
101.889
92.7654
83.5953
74.516
65.664
57.1732
49.1745
41.792
35.1401
29.3185
24.4045
20.4432
127.759
119.616
111.015
102.092
92.9869
83.8344
74.7699
65.9263
57.434
49.421
42.0085
35.3073
29.4173
24.4176
20.3573
127.925
119.788
111.196
102.288
93.1989
84.0637
75.0141
66.1796
57.6873
49.663
42.2241
35.4786
29.5244
24.4437
20.289
128.088
119.954
111.372
102.476
93.4033
84.2848
75.25
66.4251
57.9346
49.901
42.4386
35.6532
29.6392
24.4819
20.237
128.249
120.119
111.543
102.66
93.6019
84.4995
75.4793
66.6645
58.177
50.136
42.6528
35.8306
29.762
24.5318
20.2007
128.411
120.282
111.713
102.841
93.7968
84.7099
75.7042
66.8997
58.4164
50.3697
42.868
36.0124
29.8936
24.5948
20.1813
128.573
120.446
111.882
103.02
93.9901
84.9186
75.9274
67.134
58.656
50.6057
43.0886
36.2034
30.0395
24.6776
20.1868
128.735
120.609
112.051
103.2
94.1838
85.1283
76.1529
67.3727
58.9027
50.8529
43.3263
36.4195
30.2203
24.8074
20.2521
275.663
304.009
338.563
379.457
425.397
474.248
523.265
569.324
609.191
639.825
658.678
663.977
654.974
632.173
597.53
554.6
508.549
465.882
433.738
418.764
425.794
456.653
509.427
578.698
656.966
736.56
811.092
876.076
928.906
968.545
995.13
1009.64
1013.63
1008.95
997.602
981.647
963.153
944.175
926.757
912.932
262.641
295.063
332.638
375.093
421.136
468.799
515.615
558.808
595.526
623.093
639.278
642.563
632.398
609.439
575.76
534.979
492.228
453.814
426.466
416.23
427.237
460.64
514.055
581.953
657.091
732.28
801.652
861.168
908.566
943.047
964.916
975.258
975.659
967.986
954.234
936.442
916.648
896.868
879.107
865.403
253.838
288.766
328.032
371.115
416.688
462.905
507.516
548.026
581.881
606.699
620.512
622.028
610.887
587.903
555.268
516.662
477.168
442.871
420.076
414.228
428.781
464.266
517.895
584.095
655.917
726.658
790.953
845.191
887.426
917.081
934.608
941.173
938.395
928.14
912.387
893.142
872.399
852.126
834.285
820.908
247.766
284.227
324.318
367.378
412.061
456.618
498.979
536.876
568.008
590.241
601.845
601.739
589.748
566.846
535.341
498.959
462.706
432.414
413.944
412.15
429.841
466.979
520.445
584.673
653.04
719.318
778.631
827.767
865.083
890.21
903.728
906.874
901.289
888.831
871.452
851.11
829.744
809.252
791.523
778.478
243.532
280.818
321.105
363.662
407.144
449.89
489.981
525.341
553.879
573.681
583.229
581.645
568.935
546.226
515.937
481.82
448.776
422.359
407.975
409.898
430.326
468.713
521.669
583.693
648.5
710.335
764.785
809.021
841.679
862.583
872.429
872.511
864.483
850.186
831.53
810.418
788.712
768.23
750.759
738.099
240.494
278.078
318.101
359.806
401.866
442.704
480.531
513.432
539.504
557.024
564.673
561.758
548.465
526.068
497.08
465.259
435.376
412.684
402.13
407.423
430.192
469.438
521.568
581.187
642.366
699.81
749.547
789.106
817.386
834.383
840.898
838.267
828.149
812.356
792.746
771.154
749.357
729.072
711.979
699.757
238.197
275.686
315.109
355.711
396.199
435.072
470.66
501.189
524.918
540.303
546.203
542.108
528.37
506.4
478.793
449.287
422.498
403.364
396.369
404.682
429.405
469.143
520.161
577.212
634.73
687.866
733.064
768.19
792.382
805.795
809.316
804.315
792.442
775.474
755.205
733.391
711.714
691.786
675.171
663.43
236.325
273.423
312
351.323
390.139
427.025
460.414
488.66
510.169
523.559
527.86
522.732
508.685
487.254
461.095
433.908
410.129
394.368
390.652
401.636
427.938
467.828
517.484
571.839
625.697
674.636
715.492
746.442
766.845
776.995
777.853
770.811
757.502
739.653
718.991
697.182
675.807
656.367
640.311
629.084
234.662
271.145
308.697
346.617
383.701
418.601
449.843
475.899
495.309
506.842
509.689
503.672
489.446
468.657
444.004
419.122
398.252
385.664
384.942
398.251
425.775
465.505
513.583
565.153
615.381
660.257
696.985
724.027
740.942
748.147
746.664
737.894
723.445
704.987
684.169
662.563
641.644
622.801
607.367
596.678
233.064
268.761
305.156
341.591
376.913
409.845
439.001
462.961
480.39
490.202
491.737
484.97
470.689
450.635
427.528
404.922
386.842
377.217
379.199
394.499
422.909
462.199
508.519
557.244
603.903
644.873
677.699
701.105
714.832
719.404
715.888
705.687
690.372
671.55
650.786
629.553
609.219
591.059
576.298
566.16
231.436
266.215
301.36
336.257
369.809
400.805
427.942
449.901
465.468
473.689
474.05
466.665
452.444
433.206
411.673
391.296
375.873
368.992
373.389
390.355
419.339
457.941
502.36
548.214
591.387
628.623
657.782
677.829
688.665
690.904
685.649
674.295
658.365
639.4
618.874
598.159
578.514
561.107
547.052
537.473
229.717
263.476
297.306
330.636
362.425
391.527
416.717
436.773
450.594
457.353
456.671
448.793
434.737
416.383
396.435
378.225
365.313
360.952
367.48
385.803
415.076
452.774
495.179
538.166
577.96
611.648
637.383
654.345
662.578
662.774
656.058
643.807
627.493
608.579
588.45
568.374
549.504
532.899
519.574
510.553
227.866
260.529
293.001
324.754
354.801
382.059
405.378
423.628
435.816
441.237
439.638
431.384
417.588
400.171
381.806
365.686
355.131
353.06
361.443
380.833
410.137
446.748
487.061
527.209
563.747
594.084
616.639
630.788
636.699
635.127
627.211
614.298
597.806
579.116
559.519
540.18
522.149
506.383
493.798
485.331
225.857
257.367
288.457
318.637
346.973
372.443
393.97
410.511
421.178
425.381
422.985
414.464
401.01
384.572
367.771
353.652
345.29
345.285
355.255
375.442
404.547
439.92
478.091
515.453
548.874
576.063
595.683
607.284
611.142
608.063
599.188
585.83
569.342
551.025
532.073
513.55
496.405
481.5
469.659
461.734
223.674
253.991
283.688
312.311
338.976
362.719
382.535
397.465
406.72
409.82
406.74
398.051
385.011
369.58
354.312
342.095
335.759
337.594
348.899
369.634
398.338
432.353
468.358