/*--------------------------------*- C++ -*----------------------------------*\
| =========                 |                                                 |
| \\      /  F ield         | OpenFOAM: The Open Source CFD Toolbox           |
|  \\    /   O peration     | Version:  2206                                  |
|   \\  /    A nd           | Website:  www.openfoam.com                      |
|    \\/     M anipulation  |                                                 |
\*---------------------------------------------------------------------------*/
FoamFile
{
    version     2.0;
    format      ascii;
    arch        "LSB;label=32;scalar=64";
    class       volScalarField;
    location    "100";
    object      k;
}
// * * * * * * * * * * * * * * * * * * * * * * * * * * * * * * * * * * * * * //

dimensions      [0 2 -2 0 0 0 0];

internalField   nonuniform List<scalar> 
12940
(
1.16224
0.42588
0.387606
0.38838
0.388933
0.389384
0.38958
0.38959
2.79362
0.538753
0.402537
0.399375
0.399434
0.400147
0.400491
0.40047
4.84263
0.816359
0.432784
0.407799
0.408044
0.410242
0.411547
0.411976
7.30823
1.3724
0.516646
0.419703
0.414353
0.418331
0.421522
0.423256
10.0333
2.28263
0.712859
0.451782
0.420876
0.423904
0.429377
0.433307
12.6368
3.53962
1.07936
0.532624
0.435428
0.42815
0.434657
0.441279
14.6399
5.04156
1.64728
0.696465
0.472986
0.435458
0.438112
0.446809
15.8904
6.70415
2.43854
0.980523
0.556373
0.455196
0.442625
0.450416
17.0053
8.75586
3.60353
1.46809
0.729161
0.507276
0.455844
0.454503
19.1967
11.9839
5.76112
2.48909
1.13968
0.654912
0.503347
0.468794
23.0891
17.0271
10.0114
5.0159
2.35302
1.16832
0.702966
0.54231
28.0723
23.2788
16.4622
10.122
5.59003
2.91334
1.54322
0.919707
33.1242
29.5164
23.6745
17.2015
11.4205
7.02999
4.10607
2.37659
37.5439
34.9117
30.2605
24.5296
18.6358
13.3255
9.03289
5.90713
41.028
39.1462
35.5926
30.9059
25.6407
20.3516
15.5003
11.4301
43.5176
42.1938
39.5512
35.8933
31.5335
26.8282
22.1369
17.808
45.0718
44.1562
42.236
39.4736
36.0342
32.1267
27.9942
23.9151
45.8012
45.1816
43.821
41.7959
39.1812
36.0869
32.6612
29.1009
45.8358
45.4291
44.4957
43.0594
41.1401
38.7839
36.0698
33.1239
45.3089
45.0542
44.4432
43.4673
42.1141
40.3887
38.3225
35.9867
44.3495
44.2022
43.8314
43.2098
42.306
41.1003
39.5923
37.8128
43.0767
43.0045
42.8104
42.457
41.9033
41.115
40.0713
38.775
41.5971
41.5769
41.5112
41.3581
41.0725
40.6129
39.9463
39.057
40.0029
40.0186
40.0451
40.0396
39.9567
39.7524
39.3871
38.8338
38.371
38.4115
38.5038
38.6063
38.6754
38.6673
38.5405
38.2614
36.763
36.8212
36.9604
37.1415
37.3241
37.4666
37.5278
37.4717
35.2266
35.2975
35.4703
35.7086
35.976
36.2343
36.4445
36.5702
33.7968
33.877
34.0734
34.3532
34.6839
35.0315
35.3603
35.6358
32.4983
32.5851
32.7973
33.1057
33.4828
33.8988
34.3224
34.722
31.3482
31.4386
31.6592
31.9852
32.3938
32.8604
33.3587
33.8609
30.3575
30.4481
30.6698
31.0023
31.4281
31.9286
32.4824
33.0673
29.5332
29.6203
29.8354
30.163
30.5915
31.1083
31.6983
32.3452
28.8797
28.9596
29.1602
29.4715
29.8877
30.4025
31.0073
31.693
28.3997
28.469
28.6484
28.9326
29.3215
29.8151
30.4116
31.1092
28.0942
28.1507
28.3037
28.552
28.9002
29.3538
29.9171
30.596
27.963
28.0059
28.1299
28.3365
28.6332
29.0294
29.5347
30.1611
28.0047
28.0343
28.1291
28.2915
28.5299
28.855
29.2794
29.8185
28.2162
28.2334
28.3005
28.4194
28.5972
28.8432
29.1691
29.5896
28.5934
28.5991
28.6407
28.7192
28.8391
29.0058
29.2253
29.5051
29.1322
29.1269
29.1455
29.1886
29.2582
29.3554
29.4776
29.6156
29.7498
29.7353
29.7359
29.7529
29.7884
29.8427
29.9112
29.9798
30.3934
30.3712
30.3575
30.355
30.3667
30.3938
30.4338
30.4768
31.1517
31.1218
31.0942
31.0734
31.064
31.0691
31.0887
31.1171
32.0294
31.9912
31.9491
31.9091
31.8781
31.8619
31.8633
31.8804
33.0343
32.9867
32.9279
32.8656
32.8093
32.7682
32.7493
32.755
34.1767
34.118
34.0388
33.9487
33.86
33.7863
33.7403
33.7308
35.4698
35.3977
35.2931
35.167
35.0348
34.9151
34.8289
34.7959
36.9286
36.8405
36.7045
36.5323
36.3413
36.1548
36.0046
35.9297
38.5696
38.4632
38.2899
38.0606
37.792
37.509
37.2524
37.0925
40.4094
40.2832
40.0685
39.7734
39.4094
38.9932
38.558
38.1978
42.7159
42.5677
42.306
41.9345
41.4552
40.8608
40.1189
39.1201
45.603
45.4337
45.1258
44.6819
44.1023
43.38
42.4962
41.4174
48.8201
48.6339
48.2877
47.7856
47.1303
46.3215
45.3564
44.2346
52.3592
52.1592
51.7804
51.2289
50.5098
49.6274
48.5878
47.4032
56.1993
55.9877
55.58
54.9837
54.2047
53.2487
52.1244
50.8479
60.3106
60.0894
59.6566
59.0205
58.185
57.1527
55.9293
54.5297
64.6552
64.428
63.9774
63.3118
62.43
61.3254
59.9918
58.4337
69.1863
68.9594
68.5053
67.8319
66.9302
65.7766
64.3362
62.5789
73.8443
73.6279
73.193
72.55
71.6833
70.5468
69.0535
67.0712
78.5538
78.3601
77.973
77.4128
76.6701
75.6956
74.3561
72.2988
83.2246
83.0632
82.7464
82.3135
81.7866
81.1833
80.5396
79.9813
87.7634
87.6363
87.3913
87.0812
86.7443
86.4158
86.1368
85.9588
92.0913
91.9944
91.809
91.5937
91.3889
91.2236
91.1145
91.0571
96.1509
96.0776
95.9361
95.7859
95.664
95.5896
95.5611
95.5498
99.9059
99.8496
99.7382
99.63
99.5579
99.5336
99.5453
99.5544
103.337
103.292
103.2
103.118
103.076
103.079
103.112
103.131
106.438
106.401
106.321
106.255
106.23
106.249
106.293
106.318
109.213
109.179
109.107
109.051
109.036
109.064
109.115
109.143
111.67
111.638
111.571
111.52
111.511
111.545
111.599
111.63
113.825
113.794
113.729
113.681
113.676
113.713
113.77
113.802
115.696
115.664
115.6
115.554
115.551
115.59
115.649
115.683
117.303
117.269
117.205
117.16
117.158
117.198
117.259
117.296
118.667
118.631
118.566
118.522
118.52
118.562
118.625
118.664
119.809
119.771
119.706
119.661
119.66
119.703
119.767
119.808
120.752
120.711
120.645
120.6
120.599
120.642
120.708
120.751
121.513
121.471
121.403
121.358
121.357
121.401
121.468
121.514
122.112
122.068
121.999
121.954
121.953
121.998
122.066
122.113
122.564
122.518
122.449
122.403
122.403
122.448
122.516
122.565
122.881
122.834
122.764
122.718
122.718
122.763
122.833
122.883
123.073
123.025
122.955
122.91
122.909
122.955
123.024
123.075
123.145
123.098
123.028
122.982
122.982
123.028
123.097
123.148
123.101
123.054
122.985
122.939
122.939
122.984
123.054
123.104
122.938
122.891
122.823
122.778
122.778
122.823
122.892
122.941
122.651
122.606
122.539
122.494
122.494
122.539
122.606
122.654
122.231
122.188
122.122
122.078
122.078
122.122
122.188
122.234
121.665
121.625
121.56
121.517
121.517
121.56
121.624
121.668
120.939
120.901
120.839
120.796
120.796
120.837
120.9
120.941
120.034
119.999
119.938
119.897
119.896
119.936
119.996
120.034
118.929
118.898
118.838
118.797
118.796
118.834
118.891
118.927
117.604
117.575
117.517
117.476
117.473
117.509
117.563
117.595
116.035
116.008
115.951
115.909
115.904
115.936
115.987
116.015
114.199
114.174
114.116
114.072
114.063
114.092
114.138
114.162
112.075
112.05
111.99
111.942
111.927
111.949
111.988
112.008
109.643
109.616
109.551
109.494
109.47
109.481
109.512
109.526
106.887
106.855
106.78
106.71
106.668
106.662
106.678
106.684
103.795
103.755
103.663
103.569
103.498
103.463
103.455
103.448
100.366
100.311
100.193
100.059
99.9394
99.8524
99.8015
99.7699
96.6072
96.532
96.3734
96.177
95.9757
95.7967
95.6616
95.5793
92.5454
92.4426
92.2275
91.939
91.6066
91.2628
90.953
90.7434
88.2266
88.0915
87.807
87.3973
86.8748
86.2524
85.568
84.9626
83.7195
83.5532
83.1996
82.6633
81.923
80.9208
79.5156
77.3389
79.1085
78.9201
78.5198
77.9019
77.038
75.8728
74.3126
72.2232
74.4769
74.2786
73.8607
73.2153
72.3207
71.1437
69.6426
67.7831
69.8946
69.6967
69.2849
68.6528
67.7871
66.6726
65.2961
63.6573
65.4159
65.2249
64.8347
64.24
63.4346
62.4137
61.1782
59.7388
61.0822
60.9017
60.5407
59.9953
59.2634
58.3464
57.2514
55.993
56.9262
56.7573
56.4282
55.9359
55.2807
54.4673
53.5058
52.4118
52.9743
52.817
52.5196
52.0794
51.4985
50.7834
49.9452
49
49.2491
49.1029
48.8351
48.4438
47.9322
47.3074
46.5812
45.7693
45.7701
45.6342
45.3936
45.047
44.5981
44.0547
43.4286
42.735
42.5536
42.4274
42.2115
41.9049
41.5119
41.0408
40.5029
39.9133
39.6129
39.4962
39.3025
39.0313
38.6876
38.2796
37.8185
37.3189
36.9585
36.8507
36.6766
36.4367
36.1357
35.782
35.3867
34.9639
34.5961
34.4971
34.3407
34.1275
33.8629
33.5551
33.215
32.8563
32.5269
32.4368
32.296
32.1056
31.8713
31.6011
31.306
30.9993
30.7476
30.6661
30.5389
30.3676
30.1576
29.9173
29.6574
29.3914
29.2502
29.177
29.0614
28.9053
28.7142
28.4965
28.2626
28.0263
28.0228
27.9572
27.8512
27.7065
27.529
27.3266
27.1102
26.8932
27.0495
26.9909
26.8922
26.7554
26.5861
26.3923
26.1849
25.9776
26.3117
26.2592
26.1655
26.033
25.8668
25.675
25.4687
25.2621
25.7888
25.7413
25.6504
25.5183
25.3503
25.1544
24.942
24.7276
25.4588
25.4153
25.3246
25.1895
25.0149
24.8092
24.584
24.3542
25.2998
25.2588
25.1662
25.0245
24.839
24.6182
24.3742
24.1223
25.2903
25.2505
25.1535
25.0022
24.8018
24.5612
24.2928
24.013
25.4099
25.3701
25.2666
25.1026
24.8837
24.619
24.3217
24.0086
25.6402
25.5991
25.4871
25.3078
25.067
24.7746
24.4443
24.0935
25.9645
25.9208
25.7984
25.6014
25.3361
25.0127
24.6458
24.2536
26.3679
26.3206
26.1862
25.9694
25.677
25.3199
24.9134
24.4768
26.8378
26.7857
26.6379
26.3995
26.0779
25.6848
25.2364
24.7526
27.3629
27.3052
27.1426
26.881
26.5285
26.0975
25.6052
25.0723
27.9337
27.8696
27.6911
27.405
27.0201
26.5497
26.0119
25.4284
28.5418
28.4705
28.2752
27.9636
27.5451
27.0343
26.4498
25.8146
29.1801
29.101
28.8881
28.55
28.0973
27.5451
26.9133
26.2255
29.8423
29.7547
29.5236
29.1586
28.6709
28.0769
27.3973
26.6567
30.5227
30.4263
30.1765
29.7841
29.2613
28.6253
27.8977
27.1042
31.2164
31.1108
30.8421
30.4221
29.8641
29.1861
28.4109
27.5647
31.9191
31.8038
31.5161
31.0686
30.4755
29.756
28.9336
28.0354
32.6266
32.5016
32.1948
31.7199
31.0923
30.3319
29.463
28.5135
33.3353
33.2004
32.8747
32.3729
31.7113
30.9108
29.9965
28.997
34.042
33.8971
33.5527
33.0246
32.3299
31.4904
30.5318
29.4835
34.7435
34.5888
34.226
33.6722
32.9455
32.0682
31.0668
29.9714
35.4371
35.2726
34.892
34.3135
33.5558
32.6422
31.5997
30.4589
36.1204
35.9462
35.5485
34.9461
34.1588
33.2105
32.1287
30.9443
36.7911
36.6074
36.1932
35.5681
34.7527
33.7713
32.6521
31.4263
37.4471
37.2543
36.8243
36.1776
35.3356
34.323
33.1685
31.9035
38.0868
37.8852
37.4401
36.7732
35.9061
34.8643
33.6765
32.3746
38.7085
38.4984
38.0393
37.3533
36.4629
35.3938
34.175
32.8386
39.311
39.0928
38.6204
37.9168
37.0048
35.9104
34.6629
33.2943
39.8931
39.6672
39.1825
38.4626
37.5307
36.4131
35.1391
33.7409
40.4539
40.2208
39.7247
38.9898
38.0397
36.9009
35.6028
34.1775
40.9927
40.7528
40.2463
39.4978
38.5313
37.3733
36.0533
34.6033
41.509
41.2627
40.7468
39.986
39.0047
37.8296
36.4899
35.0176
42.0024
41.7502
41.2257
40.454
39.4596
38.2692
36.9121
35.4199
42.4727
42.2151
41.6829
40.9015
39.8956
38.6919
37.3195
35.8096
42.9198
42.6573
42.1183
41.3285
40.3126
39.0974
37.7116
36.1863
43.344
43.0769
42.532
41.7349
40.7105
39.4855
38.0883
36.5498
43.7453
43.4741
42.9241
42.1208
41.0893
39.8561
38.4494
36.8998
44.1241
43.8493
43.2948
42.4865
41.4492
40.2093
38.7949
37.236
44.4808
44.2028
43.6447
42.8322
41.7904
40.5453
39.1247
37.5584
44.816
44.5352
43.974
43.1584
42.1131
40.8641
39.439
37.8669
45.1303
44.8469
44.2834
43.4655
42.4178
41.1662
39.7378
38.1616
45.4242
45.1387
44.5734
43.7539
42.7048
41.4517
40.0214
38.4425
45.6985
45.4112
44.8447
44.0243
42.9747
41.7211
40.2901
38.7098
45.954
45.6652
45.0979
44.2773
43.2279
41.9748
40.5442
38.9638
46.1913
45.9013
45.3337
44.5136
43.4651
42.2133
40.784
39.2045
46.4114
46.1205
45.5529
44.7337
43.6868
42.437
41.0098
39.4323
46.615
46.3233
45.7562
44.9383
43.8936
42.6465
41.2223
39.6475
46.8029
46.5108
45.9444
45.1283
44.0862
42.8423
41.4216
39.8505
46.9759
46.6836
46.1182
45.3042
44.2651
43.025
41.6085
40.0416
47.1349
46.8425
46.2784
45.4668
44.4311
43.1951
41.7833
40.2212
47.2807
46.9883
46.4257
45.6168
44.5848
43.3532
41.9464
40.3897
47.4141
47.1219
46.561
45.7549
44.7268
43.5
42.0986
40.5475
47.5358
47.2439
46.6848
45.8817
44.8577
43.6359
42.2401
40.695
47.6466
47.3551
46.7979
45.998
44.9782
43.7616
42.3716
40.8328
47.7472
47.4563
46.901
46.1044
45.089
43.8776
42.4936
40.9612
47.8383
47.548
46.9949
46.2015
45.1905
43.9844
42.6065
41.0807
47.9207
47.6311
47.0801
46.2901
45.2835
44.0827
42.7109
41.1917
47.995
47.7061
47.1572
46.3706
45.3684
44.173
42.8072
41.2947
48.0619
47.7737
47.227
46.4437
45.4459
44.2557
42.896
41.3901
48.1219
47.8346
47.29
46.5099
45.5164
44.3315
42.9778
41.4784
48.1757
47.8892
47.3467
46.5699
45.5807
44.4009
43.053
41.5601
48.2239
47.9382
47.3978
46.6242
45.6391
44.4642
43.1221
41.6355
48.2671
47.9823
47.4439
46.6733
45.6922
44.5222
43.1855
41.7051
48.3058
48.0218
47.4854
46.7178
45.7405
44.5751
43.2439
41.7694
48.3405
48.0573
47.5228
46.7581
45.7845
44.6236
43.2975
41.8288
48.3718
48.0894
47.5567
46.7947
45.8247
44.6681
43.3469
41.8838
48.4002
48.1186
47.5876
46.8282
45.8615
44.709
43.3925
41.9347
48.4261
48.1452
47.616
46.859
45.8955
44.7468
43.4348
41.982
48.4499
48.1698
47.6421
46.8875
45.927
44.7819
43.4742
42.0261
48.4721
48.1927
47.6665
46.9141
45.9565
44.8148
43.5111
42.0675
48.493
48.2143
47.6896
46.9392
45.9842
44.8459
43.5458
42.1065
48.5129
48.2348
47.7115
46.9631
46.0107
44.8754
43.5789
42.1435
48.5319
48.2545
47.7325
46.9861
46.0361
44.9037
43.6105
42.1789
48.5504
48.2736
47.7529
47.0083
46.0606
44.931
43.641
42.2131
48.5682
48.2921
47.7727
47.0299
46.0845
44.9575
43.6707
42.2462
48.5854
48.31
47.7918
47.0508
46.1077
44.9835
43.6997
42.2786
48.6018
48.3271
47.8103
47.0711
46.1303
45.0088
43.7282
42.3105
48.6171
48.3431
47.8277
47.0905
46.1522
45.0335
43.7561
42.3419
48.6308
48.3576
47.8437
47.1087
46.1729
45.0574
43.7833
42.3728
48.6422
48.37
47.8578
47.1249
46.192
45.0798
43.8095
42.403
71.7521
66.3343
61.073
56.2354
52.0109
48.5406
45.9407
44.3185
43.7769
44.3986
46.2101
49.1398
52.9945
57.4562
62.0714
67.9314
62.8298
58.0883
53.8464
50.2062
47.2478
45.0433
43.6663
43.1935
43.6947
45.2079
47.7112
51.1053
55.2129
59.788
64.1156
59.4204
55.1572
51.4091
48.2371
45.6919
43.8232
42.6867
42.3442
42.8549
44.2574
46.5477
49.6664
53.4958
57.8858
60.4002
56.1084
52.2719
48.9453
46.1684
43.9763
42.4068
41.5055
41.3246
41.9147
43.3103
45.5124
48.4777
52.1151
56.321
56.8102
52.8952
49.4406
46.4844
44.0539
42.1753
40.8795
40.2062
40.2005
40.9062
42.3523
44.5394
47.4265
50.9413
55.0025
53.3524
49.7866
46.6792
44.0566
41.9382
40.3442
39.3022
38.8474
39.0202
39.8581
41.3849
43.5947
46.4508
49.8903
53.8462
50.0339
46.7945
44.0077
41.6913
39.8584
38.5267
37.7208
37.4731
37.8205
38.7957
40.4139
42.6661
45.5172
48.9104
52.7897
46.866
43.9352
41.4483
39.4158
37.8472
36.7579
36.1708
36.1173
36.6312
37.7388
39.4498
41.7516
44.6097
47.9719
51.7919
43.8637
41.2272
39.0227
37.2551
35.9314
35.0655
34.6802
34.8063
35.4741
36.7051
38.5038
40.8542
43.7219
47.059
50.8277
41.0438
38.689
36.7509
35.2306
34.1328
33.4714
33.2704
33.5597
34.3667
35.7089
37.586
39.9788
42.8528
46.1641
49.883
38.423
36.3376
34.6504
33.3591
32.4677
31.992
31.9568
32.3915
33.3218
34.761
36.7044
39.1299
42.0034
45.2845
48.9506
36.016
34.187
32.7339
31.6524
30.9482
30.6383
30.7493
31.3109
32.3473
33.8681
35.8644
38.3113
41.1752
44.4194
48.0274
33.8343
32.2468
31.0094
30.1185
29.5807
29.4157
29.6526
30.3224
31.4475
33.0339
35.0688
37.525
40.3695
43.5691
47.1124
31.8852
30.5221
29.4815
28.7597
28.3663
28.3248
28.6676
29.4266
30.6227
32.2586
34.3179
36.7714
39.5866
42.7337
46.2056
30.1709
29.0138
28.1484
27.5733
27.302
27.3627
27.7913
28.6207
29.8706
31.5404
33.6103
36.0494
38.8259
41.913
45.307
28.6895
27.7173
27.0042
26.5526
26.3813
26.5233
27.0179
27.8996
29.1866
30.8753
32.9428
35.3567
38.086
41.1063
44.4168
27.4338
26.6234
26.0391
25.6883
25.5951
25.7979
26.3397
27.2563
28.5645
30.2581
32.3112
34.6903
37.3647
40.3124
43.5345
26.3923
25.7197
25.2408
24.9682
24.9323
25.1765
25.7475
26.6825
27.9973
29.6828
31.7109
34.0466
36.6596
39.5297
42.6597
25.5504
24.9916
24.5949
24.3793
24.3807
24.648
25.2315
26.1696
27.4774
29.1434
31.1369
33.4217
35.9679
38.7566
41.7916
24.8911
24.4224
24.0861
23.9073
23.9278
24.2014
24.7819
25.7092
26.9976
28.6336
30.5843
32.812
35.2868
37.9912
40.9292
24.3963
23.9952
23.6988
23.5383
23.5612
23.8257
24.3892
25.2931
26.5511
28.1479
30.0485
32.214
34.614
37.2319
40.0718
24.0472
23.6926
23.4176
23.2589
23.2691
23.5109
24.0448
24.9138
26.1316
27.6812
29.5256
31.6245
33.947
36.477
39.2184
23.8255
23.4984
23.2281
23.0565
23.0409
23.2478
23.7408
24.5649
25.7339
27.2292
29.0122
31.0409
33.284
35.7253
38.3682
23.7137
23.3973
23.1171
22.9199
22.8669
23.0283
23.4707
24.241
25.3532
26.7882
28.5053
30.4612
32.6234
34.9758
37.5209
23.696
23.3754
23.0729
22.839
22.7389
22.8457
23.2288
23.9373
24.9861
26.3553
28.0028
29.8836
31.9641
34.2278
36.676
23.758
23.4207
23.085
22.8054
22.6497
22.6941
23.0105
23.6502
24.6295
25.9283
27.5031
29.307
31.3054
33.4807
35.8334
23.8872
23.5224
23.1448
22.8116
22.5934
22.5688
22.812
23.3769
24.2815
25.5057
27.005
28.7308
30.6467
32.7346
34.9932
24.0728
23.6716
23.2446
22.8515
22.5652
22.4659
22.6306
23.1154
23.9405
25.0865
26.508
28.1545
29.9882
31.9894
34.1558
24.3056
23.8605
23.3781
22.9201
22.5609
22.3826
22.4641
22.8642
23.6056
24.6702
26.0117
27.5782
29.3299
31.2456
33.3215
24.5777
24.0828
23.5401
23.0131
22.5774
22.3164
22.3108
22.6223
23.2764
24.2565
25.5163
27.0022
28.6722
30.5037
32.4911
24.8826
24.333
23.7263
23.1271
22.6121
22.2656
22.1698
22.3894
22.9528
23.8459
25.0223
26.427
28.0158
29.7644
31.6652
25.2148
24.6066
23.9329
23.2592
22.6629
22.2287
22.0404
22.1652
22.6352
23.4388
24.5303
25.8533
27.3616
29.0285
30.8447
25.5695
24.8999
24.157
23.4072
22.728
22.2047
21.9222
21.95
22.324
23.0359
24.0412
25.2821
26.7103
28.297
30.0305
25.943
25.2097
24.3961
23.5691
22.8063
22.193
21.815
21.744
22.02
22.6382
23.5559
24.7144
26.0631
27.5707
29.2235
26.3318
25.5333
24.6481
23.7433
22.8965
22.193
21.7187
21.5478
21.724
22.2468
23.0755
24.1512
25.4209
26.8508
28.4249
26.7331
25.8685
24.9111
23.9284
22.9979
22.2042
21.6335
21.3619
21.437
21.8627
22.6013
23.5937
24.7849
26.1383
27.6355
27.1444
26.2131
25.1836
24.1234
23.1096
22.2263
21.5596
21.187
21.1598
21.4871
22.1345
23.0432
24.1562
25.4343
26.8563
27.5635
26.5655
25.4643
24.3273
23.231
22.259
21.4969
21.0235
20.8936
21.1213
21.6763
22.5008
23.536
24.7399
26.0884
27.9885
26.9241
25.7519
24.5391
23.3616
22.3021
21.4458
20.872
20.6391
20.7664
21.228
21.9677
22.9254
24.056
25.3327
28.4176
27.2875
26.0454
24.758
23.5008
22.3554
21.4062
20.7332
20.3974
20.4235
20.7908
21.4452
22.3254
23.3836
24.5901
28.8492
27.6544
26.3437
24.9833
23.6481
22.4186
21.3783
20.6072
20.1692
20.0938
20.366
20.9345
21.7372
22.7238
23.8614
29.2819
28.0237
26.6459
25.2144
23.803
22.4914
21.362
20.4946
19.9552
19.7783
19.9546
20.4365
21.1618
22.0774
23.1475
29.7142
28.3943
26.9512
25.4504
23.965
22.5735
21.3572
20.3955
19.756
19.4778
19.5578
19.9525
20.6002
21.4454
22.4491
30.1451
28.7651
27.2588
25.6908
24.1336
22.6645
21.3637
20.31
19.572
19.1933
19.1766
19.4835
20.0533
20.8284
21.7669
30.5732
29.1352
27.5678
25.935
24.3083
22.7642
21.3815
20.2382
19.4037
18.9252
18.8119
19.0304
19.5219
20.2274
21.1015
30.9975
29.5037
27.8775
26.1822
24.4887
22.8721
21.4102
20.1799
19.2511
18.6743
18.4644
18.5941
19.007
19.6429
20.4535
31.417
29.8697
28.1871
26.432
24.6741
22.9877
21.4494
20.135
19.1145
18.4409
18.1349
18.1754
18.5093
19.0757
19.8234
31.8308
30.2323
28.496
26.6836
24.8641
23.1107
21.4988
20.1032
18.9936
18.2252
17.8239
17.775
18.0294
18.5262
19.2117
32.2379
30.5909
28.8035
26.9365
25.0581
23.2405
21.558
20.0842
18.8884
18.0275
17.5319
17.3936
17.5681
17.9951
18.6187
32.6376
30.9446
29.1088
27.1901
25.2555
23.3766
21.6264
20.0776
18.7987
17.8476
17.2592
17.0316
17.1258
17.4828
18.0449
33.0291
31.2928
29.4114
27.4437
25.4559
23.5184
21.7036
20.0828
18.7239
17.6854
17.0058
16.6895
16.7031
16.9898
17.4904
33.4117
31.6349
29.7107
27.6969
25.6586
23.6656
21.789
20.0994
18.6636
17.5407
16.7719
16.3676
16.3003
16.5163
16.9556
33.7849
31.9702
30.006
27.9489
25.8631
23.8174
21.8821
20.1268
18.6174
17.4131
16.5573
16.0659
15.9178
16.0628
16.4407
34.1482
32.2983
30.2968
28.1993
26.0689
23.9733
21.9823
20.1643
18.5846
17.302
16.3618
15.7847
15.5558
15.6294
15.9458
34.5009
32.6185
30.5825
28.4474
26.2753
24.1329
22.089
20.2114
18.5646
17.2069
16.185
15.5237
15.2145
15.2164
15.4709
34.8429
32.9306
30.8628
28.6929
26.4818
24.2953
22.2016
20.2675
18.5567
17.1272
16.0265
15.2828
14.8938
14.8238
15.0163
35.1736
33.234
31.1371
28.9351
26.6879
24.4603
22.3195
20.3318
18.5603
17.0621
15.8856
15.0617
14.5938
14.4518
14.5819
35.4929
33.5285
31.4051
29.1737
26.893
24.627
22.442
20.4038
18.5745
17.011
15.7617
14.86
14.3142
14.1003
14.1677
35.8005
33.8137
31.6663
29.4081
27.0967
24.7951
22.5687
20.4827
18.5988
16.9731
15.6541
14.677
14.0548
13.7692
13.7737
36.0964
34.0894
31.9204
29.6379
27.2985
24.9639
22.6989
20.568
18.6323
16.9475
15.562
14.5123
13.8152
13.4583
13.3997
36.3803
34.3554
32.1671
29.8628
27.4978
25.133
22.8321
20.6589
18.6743
16.9335
15.4846
14.365
13.595
13.1675
13.0456
36.6523
34.6115
32.4061
30.0824
27.6943
25.3017
22.9675
20.7549
18.7242
16.9303
15.421
14.2345
13.3936
12.8964
12.7112
36.9123
34.8577
32.6373
30.2963
27.8876
25.4697
23.1048
20.8553
18.7813
16.9371
15.3705
14.1199
13.2104
12.6446
12.3962
37.1605
35.0939
32.8605
30.5043
28.0771
25.6364
23.2433
20.9596
18.8448
16.9532
15.3321
14.0204
13.0446
12.4116
12.1004
37.397
35.3201
33.0755
30.7062
28.2627
25.8014
23.3825
21.0671
18.9141
16.9777
15.3051
13.935
12.8955
12.1969
11.8233
37.6218
35.5363
33.2822
30.9016
28.4439
25.9643
23.522
21.1772
18.9886
17.01
15.2885
13.863
12.7624
11.9998
11.5645
37.8353
35.7426
33.4806
31.0905
28.6205
26.1247
23.6612
21.2894
19.0676
17.0494
15.2817
13.8035
12.6442
11.8197
11.3236
38.0376
35.939
33.6707
31.2726
28.7922
26.2822
23.7996
21.4032
19.1506
17.0951
15.2838
13.7555
12.5403
11.6559
11.1001
38.2289
36.1258
33.8524
31.448
28.9588
26.4364
23.937
21.5181
19.2369
17.1466
15.2941
13.7183
12.4497
11.5075
10.8932
38.4096
36.303
34.0258
31.6164
29.12
26.5872
24.0727
21.6336
19.3261
17.2032
15.3118
13.691
12.3715
11.3738
10.7025
38.5799
36.4709
34.191
31.7779
29.2758
26.7341
24.2066
21.7492
19.4175
17.2642
15.3363
13.6729
12.305
11.254
10.5272
38.7402
36.6297
34.3481
31.9325
29.426
26.8771
24.3382
21.8644
19.5107
17.3292
15.3669
13.6632
12.2492
11.1472
10.3666
38.8909
36.7795
34.4972
32.0801
29.5705
27.0158
24.4673
21.979
19.6051
17.3975
15.4029
13.6611
12.2034
11.0526
10.22
39.0321
36.9207
34.6384
32.2208
29.7092
27.15
24.5935
22.0925
19.7004
17.4686
15.4439
13.6661
12.1668
10.9694
10.0867
39.1644
37.0536
34.772
32.3547
29.8422
27.2798
24.7166
22.2046
19.7961
17.5421
15.4892
13.6773
12.1386
10.8967
9.96582
39.2881
37.1783
34.898
32.4818
29.9693
27.4048
24.8365
22.315
19.8919
17.6175
15.5383
13.6944
12.1182
10.8339
9.85665
39.4036
37.2953
35.0168
32.6023
30.0906
27.5251
24.9528
22.4233
19.9872
17.6943
15.5906
13.7165
12.1049
10.7801
9.75843
39.5112
37.4047
35.1286
32.7163
30.2062
27.6405
25.0654
22.5293
20.0819
17.7721
15.6457
13.7433
12.098
10.7348
9.67042
39.6114
37.507
35.2335
32.824
30.316
27.7511
25.1743
22.6329
20.1755
17.8505
15.7032
13.7742
12.0969
10.697
9.59189
39.7045
37.6024
35.3319
32.9255
30.4203
27.8569
25.2793
22.7337
20.2679
17.9291
15.7625
13.8086
12.1012
10.6663
9.52215
39.7909
37.6914
35.424
33.0211
30.5191
27.9578
25.3803
22.8317
20.3587
18.0077
15.8234
13.8462
12.1102
10.6421
9.46053
39.8711
37.7741
35.51
33.1109
30.6125
28.054
25.4773
22.9267
20.4477
18.0859
15.8854
13.8864
12.1235
10.6237
9.40639
39.9454
37.8511
35.5904
33.1952
30.7007
28.1454
25.5703
23.0186
20.5348
18.1635
15.9482
13.929
12.1406
10.6106
9.35912
40.0143
37.9225
35.6653
33.2742
30.7839
28.2322
25.6593
23.1073
20.6197
18.2402
16.0115
13.9734
12.161
10.6024
9.31817
40.0781
37.9889
35.7351
33.3481
30.8622
28.3145
25.7443
23.1928
20.7023
18.3157
16.0749
14.0195
12.1845
10.5985
9.28298
40.1373
38.0505
35.8001
33.4173
30.9359
28.3925
25.8254
23.275
20.7826
18.3899
16.1383
14.0668
12.2105
10.5986
9.25306
40.1923
38.1078
35.8606
33.4819
31.0052
28.4662
25.9027
23.354
20.8603
18.4627
16.2013
14.115
12.2387
10.6022
9.22795
40.2434
38.161
35.917
33.5424
31.0703
28.5359
25.9763
23.4297
20.9356
18.5338
16.2638
14.1639
12.2689
10.6089
9.20721
40.2911
38.2106
35.9696
33.5989
31.1314
28.6018
26.0463
23.5023
21.0084
18.6032
16.3257
14.2132
12.3007
10.6185
9.19044
40.3357
38.257
36.0188
33.6519
31.189
28.6641
26.1129
23.5719
21.0786
18.6709
16.3867
14.2628
12.3339
10.6305
9.17727
40.3778
38.3005
36.0649
33.7017
31.2432
28.7231
26.1763
23.6386
21.1464
18.7368
16.4467
14.3124
12.3682
10.6448
9.16739
40.4176
38.3416
36.1083
33.7486
31.2944
28.7791
26.2367
23.7025
21.2119
18.801
16.5058
14.362
12.4035
10.661
9.16047
40.4555
38.3805
36.1495
33.793
31.3431
28.8323
26.2945
23.7639
21.2751
18.8634
16.564
14.4115
12.4396
10.679
9.15628
40.4919
38.4178
36.1887
33.8354
31.3895
28.8834
26.35
23.823
21.3363
18.9243
16.6213
14.461
12.4764
10.6987
9.1546
40.5272
38.4538
36.2266
33.8762
31.4342
28.9326
26.4037
23.8804
21.3958
18.9839
16.6779
14.5105
12.5141
10.72
9.1553
40.5617
38.4889
36.2634
33.916
31.4778
28.9805
26.4561
23.9365
21.4543
19.0427
16.7341
14.5603
12.5527
10.7429
9.15835
40.5956
38.5234
36.2997
33.9551
31.5208
29.0279
26.5079
23.9921
21.5125
19.1014
16.7904
14.6108
12.5929
10.7678
9.16403
40.6291
38.5577
36.3359
33.9944
31.564
29.0756
26.5601
24.0482
21.5714
19.1611
16.8481
14.663
12.6355
10.796
9.17345
40.6624
38.592
36.3724
34.0343
31.6083
29.1248
26.6143
24.1067
21.633
19.224
16.9096
14.7197
12.6835
10.8304
9.19007
40.6953
38.6265
36.4098
34.0758
31.6549
29.1771
26.6724
24.1702
21.7008
19.2942
16.9799
14.7871
12.7444
10.8805
9.22516
66.9504
71.015
75.5955
80.686
86.0979
91.5652
96.7846
101.444
105.245
107.928
109.288
109.193
107.601
104.582
100.332
95.2054
89.7235
84.5681
80.5219
78.3465
78.6151
81.5489
86.9308
94.1615
102.449
111.021
119.258
126.733
133.191
138.514
142.681
145.738
147.781
148.93
149.323
149.104
148.428
147.45
146.331
145.235
64.4282
68.9254
73.8318
79.0795
84.4876
89.8193
94.8096
99.1875
102.695
105.106
106.244
105.998
104.344
101.362
97.2639
92.4098
87.3218
82.6655
79.1828
77.5698
78.3191
81.5752
87.0727
94.2085
102.226
110.405
118.177
125.158
131.122
135.972
139.699
142.359
144.052
144.899
145.038
144.617
143.785
142.7
141.52
140.415
62.4676
67.1972
72.2586
77.548
82.8844
88.0506
92.8106
96.9249
100.167
102.336
103.28
102.907
101.208
98.2783
94.3397
89.7612
85.0634
80.8924
77.9481
76.8607
78.045
81.5748
87.1441
94.1518
101.879
109.658
116.97
123.47
128.96
133.36
136.675
138.969
140.342
140.919
140.838
140.243
139.285
138.119
136.902
135.807
60.8646
65.7109
70.8207
76.0734
81.2887
86.2649
90.7887
94.646
97.6347
99.5786
100.344
99.8562
98.1228
95.2526
91.4797
87.1793
82.8674
79.1685
76.7372
76.1392
77.7147
81.4737
87.0766
93.93
101.354
108.731
115.592
121.625
126.661
130.635
133.566
135.521
136.606
136.944
136.673
135.935
134.879
133.655
132.418
131.334
59.4998
64.3823
69.4674
74.628
79.6875
84.4574
88.7429
92.3506
95.0987
96.8306
97.4304
96.8407
95.0834
92.2815
88.6801
84.6591
80.7279
77.4859
75.5415
75.396
77.3198
81.2653
86.867
93.5433
100.654
107.632
114.051
119.635
124.237
127.812
130.385
132.032
132.858
132.988
132.556
131.704
130.574
129.312
128.069
127.002
58.2881
63.1506
68.1607
73.1917
78.0724
82.6266
86.6751
90.0413
92.5611
94.0948
94.5428
93.8634
92.093
89.3683
85.9441
82.2035
78.6463
75.8443
74.3587
74.6282
76.8575
80.9485
86.5163
92.9958
99.7868
106.369
112.359
117.512
121.705
124.907
127.152
128.519
129.116
129.067
128.503
127.561
126.379
125.098
123.861
122.817
57.1701
61.9738
66.8755
71.7521
76.4401
80.7745
84.5894
87.7232
90.0268
91.3755
91.6849
90.928
89.1556
86.5167
83.2751
79.8148
76.6233
74.2429
73.1869
73.8331
76.3258
80.5232
86.0277
92.2938
98.7614
104.956
110.531
115.274
119.082
121.937
123.882
124.999
125.396
125.195
124.525
123.518
122.304
121.019
119.798
118.783
56.1065
60.825
65.5957
70.3027
74.7904
78.9045
82.4915
85.4023
87.5014
88.678
88.8615
88.0391
86.2753
83.7307
80.6762
77.4947
74.6592
72.6804
72.0233
73.0081
75.7235
79.9907
85.4057
91.4451
97.5886
103.404
108.582
112.937
116.385
118.921
120.593
121.488
121.713
121.387
120.635
119.583
118.356
117.081
115.885
114.903
55.0722
59.6873
64.3128
68.8408
73.1251
77.0214
80.3871
83.0847
84.9909
86.0076
86.0776
85.2016
83.4566
81.0139
78.1501
75.2445
72.7534
71.1546
70.8655
72.151
75.0499
79.3535
84.6559
90.4586
96.2796
101.727
106.525
110.515
113.629
115.873
117.301
118.002
118.081
117.655
116.843
115.766
114.541
113.287
112.125
111.18
54.0526
58.5517
63.0227
67.3671
71.4479
75.1305
78.2824
80.7767
82.5011
83.37
83.3385
82.4199
80.7034
78.3694
75.6986
73.0646
70.9048
69.6632
69.7104
71.2597
74.3053
78.6146
83.7849
89.3438
94.8466
99.9388
104.377
108.025
110.83
112.809
114.02
114.553
114.511
114.008
113.157
112.072
110.863
109.642
108.519
107.614
53.0399
57.4138
61.7248
65.8837
69.763
73.2374
76.1833
78.4841
80.0379
80.7704
80.6488
79.6984
78.0192
75.7999
73.323
70.9546
69.1117
68.2035
68.5554
70.3325
73.4904
77.7781
82.8001
88.1109
93.302
98.0538
102.152
105.481
108.004
109.744
110.764
111.153
111.014
110.455
109.584
108.507
107.326
106.146
105.068
104.206
52.0305
56.2725
60.4204
64.3941
68.0752
71.3473
74.0957
76.2126
77.6065
78.2138
78.013
77.0407
75.407
73.3071
71.0237
68.9136
67.3716
66.7724
67.3976
69.3683
72.6067
76.8488
81.7095
86.7707
91.6582
96.0854
99.8645
102.899
105.164
106.69
107.545
107.815
107.6
107.005
106.13
105.074
103.933
102.8
101.772
100.954
51.0234
55.1284
59.1117
62.9017
66.3891
69.4655
72.0245
73.9673
75.2117
75.7045
75.4349
74.45
72.869
70.892
68.8004
66.9398
65.6819
65.3667
66.2346
68.3665
71.6564
75.8321
80.5215
85.334
89.928
94.0471
97.5279
100.291
102.323
103.661
104.373
104.547
104.277
103.663
102.799
101.777
100.683
99.6044
98.63
97.856
50.0185
53.9829
57.8013
61.4103
64.7089
67.5966
69.9747
71.7527
72.8577
73.2461
72.9176
71.9289
70.4066
68.555
66.6523
65.0311
64.0395
63.9835
65.0644
67.3271
70.6423
74.7341
79.2451
83.8119
88.1238
91.9522
95.1559
97.6709
99.4945
100.668
101.26
101.357
101.051
100.434
99.5948
98.6158
97.5773
96.5579
95.6391
94.9104
49.0167
52.8376
56.4919
59.9232
63.0385
65.7446
67.9501
69.5726
70.548
70.842
70.4638
69.4789
68.0208
66.2959
64.5777
63.185
62.4412
62.6197
63.8851