/*--------------------------------*- C++ -*----------------------------------*\
| =========                 |                                                 |
| \\      /  F ield         | OpenFOAM: The Open Source CFD Toolbox           |
|  \\    /   O peration     | Version:  2206                                  |
|   \\  /    A nd           | Website:  www.openfoam.com                      |
|    \\/     M anipulation  |                                                 |
\*---------------------------------------------------------------------------*/
FoamFile
{
    version     2.0;
    format      ascii;
    arch        "LSB;label=32;scalar=64";
    class       volScalarField;
    location    "100";
    object      nut;
}
// * * * * * * * * * * * * * * * * * * * * * * * * * * * * * * * * * * * * * //

dimensions      [0 2 -1 0 0 0 0];

internalField   nonuniform List<scalar> 
12940
(
0.00389286
0.0157667
0.0612185
0.0904941
0.0995192
0.102106
0.102875
0.103107
0.00588404
0.00372611
0.0197958
0.060414
0.0883582
0.0992887
0.103013
0.104253
0.00903592
0.00286468
0.00681458
0.0297989
0.0662923
0.0900204
0.100342
0.104315
0.0132502
0.00371375
0.00352591
0.0125188
0.0396488
0.0721646
0.0923904
0.101827
0.0185796
0.0057499
0.00305199
0.00591009
0.0197348
0.0486397
0.0772928
0.0948082
0.0247987
0.00903281
0.00381339
0.00388302
0.00976676
0.027815
0.0565249
0.0816978
0.0314369
0.013619
0.00558376
0.00366616
0.0057825
0.0149824
0.0359507
0.0632069
0.0385436
0.0197351
0.00854774
0.00450745
0.00448731
0.00871275
0.0210081
0.0433339
0.0484635
0.0289527
0.0136969
0.0066402
0.00464844
0.00607314
0.0123732
0.0269088
0.0675729
0.0464862
0.0250175
0.0121705
0.00674225
0.00569724
0.00820637
0.0160384
0.10359
0.0806465
0.0518952
0.0287567
0.0151387
0.0090852
0.00784549
0.010617
0.158602
0.135494
0.102188
0.0687374
0.0420112
0.0246041
0.0154111
0.0122096
0.227739
0.206586
0.172776
0.134447
0.0974617
0.0663186
0.0434046
0.0290243
0.303612
0.285522
0.25408
0.215925
0.175399
0.136177
0.101441
0.073792
0.379753
0.364879
0.337166
0.301991
0.262692
0.221917
0.182205
0.146315
0.4517
0.439707
0.416036
0.384998
0.349251
0.310779
0.271437
0.233361
0.516913
0.507303
0.487416
0.460705
0.42931
0.394792
0.358524
0.322041
0.574357
0.566621
0.550004
0.527289
0.500215
0.470035
0.437792
0.404585
0.624065
0.617751
0.603806
0.584509
0.561296
0.535185
0.50698
0.477466
0.666774
0.661505
0.649646
0.63311
0.613108
0.590491
0.565885
0.539851
0.703634
0.699114
0.688816
0.674398
0.656919
0.637114
0.615491
0.59245
0.735991
0.731995
0.722822
0.709951
0.694351
0.676689
0.657402
0.636793
0.76522
0.76159
0.753198
0.741407
0.727136
0.711025
0.693482
0.674759
0.792614
0.789244
0.781381
0.770313
0.756937
0.741895
0.725595
0.708279
0.819304
0.816127
0.808622
0.798023
0.785225
0.770887
0.755439
0.739137
0.846216
0.843189
0.835932
0.825636
0.813198
0.799304
0.78442
0.768828
0.874062
0.871154
0.864069
0.853963
0.841736
0.828104
0.813573
0.79846
0.903359
0.900533
0.893555
0.883543
0.871402
0.857878
0.843522
0.828694
0.934472
0.931679
0.924721
0.914684
0.902477
0.888884
0.874502
0.859738
0.967673
0.964837
0.957776
0.947538
0.935046
0.921123
0.906425
0.891417
1.0032
1.00022
0.992886
0.982201
0.969105
0.954471
0.939027
0.923314
1.04131
1.03808
1.03025
1.01881
1.00469
0.988836
0.97205
0.954975
1.08232
1.07873
1.07018
1.05763
1.04202
1.02432
1.00545
0.98616
1.12663
1.12257
1.11312
1.09914
1.08156
1.06139
1.03959
1.01709
1.17466
1.17009
1.15963
1.14404
1.12415
1.10094
1.07544
1.04866
1.22685
1.2218
1.21038
1.1932
1.17093
1.14442
1.11463
1.08266
1.28355
1.27815
1.26604
1.24763
1.22333
1.19372
1.15955
1.12181
1.34483
1.33933
1.32707
1.30821
1.28287
1.25115
1.21328
1.16984
1.41039
1.40515
1.39352
1.37549
1.35084
1.31911
1.27957
1.23134
1.47936
1.47477
1.46469
1.4491
1.42775
1.39991
1.36371
1.31395
1.54167
1.53787
1.52969
1.51737
1.50115
1.48158
1.45998
1.44073
1.59544
1.59231
1.58579
1.57625
1.56428
1.55087
1.53785
1.52851
1.64844
1.64585
1.64066
1.63332
1.62454
1.61533
1.60719
1.60202
1.70053
1.69826
1.69394
1.68804
1.68125
1.6745
1.66891
1.66565
1.75198
1.74978
1.74581
1.74055
1.73466
1.72899
1.72449
1.72202
1.80337
1.80101
1.79691
1.79153
1.78554
1.7798
1.77529
1.7729
1.85565
1.85289
1.84818
1.84196
1.83492
1.828
1.82239
1.81937
1.90993
1.90658
1.90083
1.89306
1.88396
1.87458
1.86647
1.86173
1.96749
1.9634
1.95623
1.94627
1.93407
1.92063
1.90778
1.89905
2.0296
2.02468
2.01588
2.00327
1.98709
1.96775
1.94651
1.9278
2.10589
2.10006
2.08942
2.07379
2.05284
2.02569
1.98994
1.93869
2.20012
2.1935
2.18123
2.1631
2.13872
2.10734
2.06764
2.01769
2.30469
2.29752
2.28414
2.26437
2.23802
2.20477
2.16425
2.11627
2.41962
2.41212
2.39796
2.37708
2.34943
2.31496
2.27376
2.22617
2.54428
2.53658
2.52188
2.50014
2.47136
2.43561
2.39309
2.3443
2.67762
2.66986
2.65479
2.63237
2.60252
2.56522
2.5206
2.46914
2.81831
2.81064
2.79548
2.77269
2.742
2.70309
2.65571
2.60006
2.96473
2.9574
2.94262
2.92015
2.88938
2.84941
2.79911
2.73764
3.11493
3.1083
3.09466
3.07369
3.04451
3.00546
2.95375
2.88531
3.26651
3.26097
3.24937
3.23157
3.2068
3.17327
3.12669
3.05591
3.41658
3.41241
3.40354
3.39027
3.37281
3.35153
3.32779
3.30664
3.56214
3.55932
3.55309
3.54408
3.53295
3.52068
3.50901
3.50085
3.70052
3.69881
3.69472
3.68893
3.68216
3.67525
3.66926
3.66538
3.82976
3.82888
3.8263
3.82271
3.81867
3.81476
3.81153
3.80935
3.94861
3.9483
3.94674
3.94454
3.94214
3.93991
3.93808
3.93668
4.05645
4.05649
4.05557
4.05424
4.05281
4.05153
4.05044
4.04944
4.1531
4.15335
4.15282
4.152
4.15116
4.15041
4.14975
4.14897
4.23872
4.23907
4.23877
4.23826
4.23775
4.23732
4.23691
4.23628
4.31373
4.3141
4.31392
4.31358
4.31327
4.31304
4.31279
4.31227
4.37867
4.37902
4.37889
4.37865
4.37846
4.37835
4.37821
4.3778
4.43423
4.43452
4.4344
4.43421
4.43409
4.43406
4.43401
4.4337
4.48115
4.48136
4.48122
4.48105
4.48097
4.481
4.48103
4.48082
4.5202
4.52033
4.52015
4.51998
4.51992
4.52
4.5201
4.51998
4.55216
4.55219
4.55198
4.55179
4.55175
4.55187
4.55203
4.55201
4.57777
4.57771
4.57745
4.57725
4.57722
4.57737
4.57759
4.57766
4.59772
4.59758
4.59727
4.59706
4.59704
4.59722
4.59749
4.59764
4.61263
4.61242
4.61208
4.61185
4.61183
4.61204
4.61235
4.61257
4.62303
4.62276
4.62239
4.62215
4.62214
4.62236
4.62271
4.62298
4.62934
4.62903
4.62864
4.62839
4.62838
4.62862
4.629
4.62931
4.63186
4.63153
4.63113
4.63087
4.63087
4.63111
4.63151
4.63184
4.63077
4.63043
4.63003
4.62978
4.62978
4.63003
4.63043
4.63077
4.62612
4.6258
4.62541
4.62517
4.62517
4.62542
4.6258
4.62613
4.61783
4.61754
4.61718
4.61695
4.61695
4.61719
4.61755
4.61785
4.60569
4.60545
4.60512
4.60491
4.60491
4.60513
4.60546
4.60572
4.58936
4.58919
4.58891
4.58872
4.58872
4.58891
4.5892
4.5894
4.56841
4.56832
4.56809
4.56792
4.56792
4.56808
4.56831
4.56844
4.54229
4.54229
4.54211
4.54197
4.54195
4.54208
4.54225
4.54228
4.51036
4.51046
4.51034
4.51021
4.51019
4.51026
4.51036
4.5103
4.47193
4.47213
4.47206
4.47194
4.47189
4.47191
4.47192
4.47175
4.42625
4.42654
4.4265
4.42639
4.42629
4.42623
4.42614
4.42586
4.37253
4.3729
4.37288
4.37273
4.37256
4.37239
4.37218
4.37178
4.31
4.31041
4.31037
4.31015
4.30985
4.30954
4.30918
4.30864
4.23792
4.23833
4.23821
4.23782
4.23732
4.23678
4.23621
4.23551
4.15559
4.15595
4.15563
4.15495
4.1541
4.1532
4.15232
4.15142
4.06248
4.06267
4.062
4.06082
4.05937
4.05787
4.05649
4.05529
3.9582
3.95808
3.9568
3.95476
3.9523
3.94978
3.94755
3.94586
3.84268
3.84203
3.83976
3.83631
3.83214
3.82783
3.82405
3.82146
3.71626
3.71481
3.71102
3.70532
3.69829
3.69078
3.68401
3.67951
3.57985
3.57729
3.57131
3.56226
3.55063
3.53741
3.52449
3.51528
3.43508
3.43114
3.42241
3.40886
3.39049
3.36756
3.34152
3.31805
3.28428
3.27891
3.2673
3.24891
3.22265
3.18635
3.13512
3.05645
3.13016
3.12364
3.10984
3.08805
3.05699
3.01458
2.95748
2.88102
2.97529
2.96804
2.95304
2.92965
2.89689
2.85342
2.79765
2.72817
2.82174
2.81415
2.79879
2.77519
2.74272
2.70066
2.64835
2.58546
2.67106
2.66341
2.64828
2.62534
2.59422
2.55459
2.50623
2.44919
2.52444
2.51691
2.50234
2.4805
2.45122
2.41437
2.36995
2.31813
2.38279
2.37546
2.36162
2.34109
2.31379
2.27974
2.23904
2.19191
2.24686
2.23979
2.22673
2.20753
2.18219
2.1508
2.1135
2.07055
2.11733
2.11053
2.09822
2.0803
2.05681
2.02784
1.9936
1.95432
1.99479
1.98826
1.97666
1.95991
1.93807
1.91126
1.87969
1.8436
1.87975
1.87348
1.86253
1.84682
1.82643
1.8015
1.77222
1.73884
1.77267
1.76664
1.75626
1.74145
1.7223
1.69896
1.6716
1.64048
1.67389
1.66809
1.6582
1.64416
1.62605
1.604
1.57821
1.54893
1.58366
1.57808
1.56861
1.55519
1.53792
1.51691
1.49237
1.46453
1.50208
1.49672
1.4876
1.4747
1.45807
1.43788
1.41428
1.38752
1.42916
1.424
1.41519
1.40268
1.38656
1.36696
1.34405
1.31809
1.36476
1.3598
1.35124
1.33905
1.3233
1.30413
1.28171
1.25628
1.30866
1.30389
1.29555
1.2836
1.26812
1.24923
1.22712
1.20203
1.26051
1.25594
1.24778
1.23602
1.22072
1.20202
1.18007
1.15513
1.21991
1.21552
1.20752
1.1959
1.18072
1.1621
1.1402
1.11527
1.18634
1.18212
1.17426
1.16274
1.14762
1.129
1.10705
1.08201
1.15924
1.15518
1.14743
1.13597
1.12085
1.10217
1.08008
1.05482
1.13797
1.13405
1.12638
1.11495
1.09979
1.08099
1.0587
1.03314
1.12187
1.11808
1.11046
1.09902
1.08377
1.06481
1.04225
1.01633
1.11028
1.10659
1.099
1.08751
1.07215
1.05297
1.03011
1.00377
1.10255
1.09894
1.09135
1.07979
1.06427
1.04485
1.02166
0.994877
1.09808
1.09452
1.08691
1.07524
1.05955
1.03987
1.01632
0.989078
1.0963
1.09277
1.08512
1.07334
1.05745
1.03749
1.01358
0.985872
1.09672
1.09322
1.0855
1.07358
1.05748
1.03725
1.01297
0.984809
1.09892
1.09542
1.08762
1.07556
1.05925
1.03873
1.0141
0.9855
1.10254
1.09902
1.09114
1.07892
1.06239
1.04159
1.01662
0.98761
1.10725
1.10371
1.09574
1.08336
1.06661
1.04554
1.02024
0.990853
1.11282
1.10925
1.10117
1.08864
1.07167
1.05034
1.02473
0.994991
1.11902
1.11541
1.10723
1.09453
1.07736
1.05578
1.02989
0.999825
1.12569
1.12203
1.11374
1.10088
1.08351
1.06169
1.03554
1.00519
1.13267
1.12896
1.12056
1.10755
1.08998
1.06794
1.04155
1.01094
1.13986
1.1361
1.12759
1.11443
1.09668
1.07443
1.04781
1.01697
1.14716
1.14334
1.13473
1.12142
1.10349
1.08105
1.05423
1.02319
1.1545
1.15062
1.14191
1.12846
1.11036
1.08773
1.06073
1.02952
1.16181
1.15787
1.14906
1.13548
1.11722
1.09443
1.06726
1.03589
1.16904
1.16505
1.15614
1.14243
1.12403
1.10108
1.07376
1.04227
1.17616
1.17211
1.16311
1.14928
1.13074
1.10765
1.0802
1.04859
1.18313
1.17903
1.16994
1.156
1.13733
1.11411
1.08655
1.05484
1.18993
1.18578
1.1766
1.16256
1.14378
1.12044
1.09277
1.06099
1.19654
1.19233
1.18308
1.16894
1.15006
1.12662
1.09886
1.06702
1.20294
1.19868
1.18937
1.17514
1.15616
1.13264
1.1048
1.0729
1.20912
1.20482
1.19544
1.18113
1.16207
1.13847
1.11057
1.07864
1.21508
1.21074
1.2013
1.18692
1.16779
1.14412
1.11617
1.08421
1.2208
1.21642
1.20693
1.1925
1.17331
1.14958
1.12159
1.08962
1.2263
1.22188
1.21234
1.19786
1.17861
1.15485
1.12683
1.09486
1.23156
1.22711
1.21753
1.203
1.18372
1.15992
1.13188
1.09991
1.23659
1.23211
1.22249
1.20793
1.18861
1.16479
1.13675
1.1048
1.24139
1.23688
1.22723
1.21264
1.1933
1.16947
1.14143
1.1095
1.24596
1.24143
1.23176
1.21714
1.19779
1.17396
1.14593
1.11403
1.25031
1.24575
1.23606
1.22144
1.20208
1.17825
1.15024
1.11838
1.25444
1.24987
1.24016
1.22553
1.20617
1.18236
1.15438
1.12256
1.25836
1.25377
1.24406
1.22942
1.21007
1.18628
1.15833
1.12657
1.26208
1.25747
1.24775
1.23312
1.21379
1.19002
1.16211
1.13041
1.2656
1.26098
1.25126
1.23663
1.21732
1.19358
1.16572
1.13409
1.26893
1.2643
1.25457
1.23996
1.22067
1.19697
1.16917
1.1376
1.27207
1.26743
1.25771
1.24311
1.22385
1.2002
1.17245
1.14095
1.27503
1.27039
1.26068
1.2461
1.22687
1.20326
1.17558
1.14415
1.27783
1.27318
1.26348
1.24892
1.22973
1.20617
1.17855
1.1472
1.28046
1.27581
1.26612
1.25159
1.23244
1.20893
1.18137
1.15011
1.28294
1.27829
1.26861
1.2541
1.23499
1.21154
1.18405
1.15287
1.28527
1.28062
1.27095
1.25648
1.23741
1.21401
1.1866
1.1555
1.28746
1.28281
1.27316
1.25871
1.23969
1.21635
1.189
1.15799
1.28952
1.28487
1.27524
1.26082
1.24184
1.21856
1.19128
1.16035
1.29145
1.2868
1.27718
1.2628
1.24386
1.22064
1.19344
1.1626
1.29326
1.28861
1.27901
1.26466
1.24577
1.22261
1.19548
1.16472
1.29495
1.29031
1.28073
1.26641
1.24757
1.22446
1.1974
1.16672
1.29654
1.2919
1.28234
1.26805
1.24925
1.22621
1.19922
1.16862
1.29802
1.29339
1.28385
1.26959
1.25084
1.22785
1.20093
1.17041
1.29941
1.29478
1.28526
1.27103
1.25233
1.2294
1.20254
1.1721
1.3007
1.29608
1.28658
1.27238
1.25372
1.23085
1.20406
1.17369
1.30191
1.2973
1.28781
1.27365
1.25503
1.23221
1.20548
1.17519
1.30304
1.29843
1.28897
1.27483
1.25626
1.23349
1.20682
1.1766
1.3041
1.2995
1.29005
1.27594
1.2574
1.23469
1.20808
1.17793
1.30508
1.30049
1.29105
1.27698
1.25848
1.23581
1.20926
1.17917
1.30601
1.30141
1.292
1.27795
1.25949
1.23686
1.21037
1.18035
1.30686
1.30228
1.29288
1.27886
1.26043
1.23785
1.21142
1.18145
1.30767
1.30309
1.29371
1.27971
1.26132
1.23878
1.21239
1.18249
1.30842
1.30385
1.29448
1.28051
1.26215
1.23965
1.21331
1.18346
1.30913
1.30456
1.29521
1.28126
1.26293
1.24047
1.21418
1.18438
1.30979
1.30523
1.29589
1.28196
1.26367
1.24124
1.21499
1.18524
1.31041
1.30585
1.29653
1.28263
1.26436
1.24197
1.21576
1.18606
1.31099
1.30644
1.29713
1.28325
1.26501
1.24266
1.21649
1.18683
1.31154
1.307
1.2977
1.28384
1.26562
1.24331
1.21717
1.18755
1.31206
1.30752
1.29823
1.28439
1.2662
1.24392
1.21782
1.18824
1.31253
1.308
1.29873
1.28491
1.26675
1.2445
1.21844
1.1889
1.31298
1.30845
1.2992
1.2854
1.26726
1.24504
1.21902
1.18952
1.31338
1.30886
1.29962
1.28585
1.26774
1.24555
1.21957
1.19011
1.31374
1.30923
1.30001
1.28626
1.26818
1.24603
1.22008
1.19067
1.31405
1.30955
1.30035
1.28663
1.26858
1.24647
1.22056
1.1912
1.31431
1.30982
1.30064
1.28695
1.26894
1.24687
1.22101
1.19169
1.31451
1.31003
1.30087
1.28721
1.26925
1.24723
1.22143
1.19216
1.31464
1.31017
1.30104
1.28741
1.2695
1.24753
1.2218
1.1926
1.31468
1.31023
1.30113
1.28755
1.26969
1.24779
1.22212
1.19301
1.31464
1.3102
1.30113
1.2876
1.2698
1.24798
1.2224
1.19337
1.31451
1.31008
1.30104
1.28756
1.26983
1.24809
1.22261
1.1937
2.85998
2.66601
2.47005
2.27817
2.09385
1.91942
1.75769
1.6132
1.4924
1.40219
1.34701
1.32673
1.33649
1.36813
1.41172
2.72731
2.54143
2.36044
2.18676
2.02165
1.8662
1.72224
1.59304
1.48338
1.39854
1.34248
1.31624
1.31746
1.34116
1.38079
2.59433
2.42013
2.25343
2.09514
1.94563
1.80538
1.67567
1.55902
1.45919
1.38045
1.32626
1.29805
1.29469
1.31293
1.34814
2.46422
2.30195
2.14814
2.00301
1.86651
1.73881
1.62088
1.51479
1.42372
1.35126
1.30045
1.27276
1.26762
1.28272
1.31452
2.33782
2.18673
2.04441
1.9107
1.78529
1.6682
1.56024
1.46328
1.3801
1.31389
1.26729
1.24165
1.23667
1.25043
1.2801
2.21527
2.07447
1.94245
1.81877
1.70299
1.59505
1.49574
1.40683
1.33089
1.27079
1.22884
1.20626
1.20265
1.21634
1.24496
2.09669
1.96539
1.84267
1.72793
1.62062
1.52072
1.42905
1.34737
1.27815
1.22398
1.18698
1.16798
1.16648
1.18093
1.20931
1.98233
1.85984
1.74563
1.63892
1.53918
1.44644
1.36162
1.28653
1.22358
1.17526
1.14325
1.12804
1.12902
1.14474
1.17339
1.87254
1.75831
1.65192
1.55252
1.45958
1.37327
1.29467
1.22566
1.16875
1.12605
1.09889
1.08748
1.09107
1.10828
1.13749
1.76776
1.66132
1.56217
1.46943
1.38266
1.30219
1.22928
1.16607
1.11484
1.07745
1.05489
1.04713
1.05329
1.07204
1.10193
1.66849
1.56938
1.47696
1.39033
1.30916
1.23405
1.16652
1.10869
1.06274
1.0303
1.01203
1.00767
1.01623
1.03642
1.06697
1.57518
1.48301
1.39683
1.31579
1.2398
1.16968
1.1071
1.05424
1.01316
0.985244
0.970887
0.969587
0.980297
1.00177
1.03286
1.48824
1.40262
1.32223
1.2464
1.17519
1.10963
1.05156
1.00322
0.96656
0.942723
0.931838
0.933227
0.945783
0.968309
0.999802
1.40806
1.32859
1.25363
1.18259
1.11571
1.05427
1.00026
0.955976
0.923247
0.902996
0.895125
0.898803
0.912881
0.936219
0.967928
1.33488
1.26124
1.1913
1.1246
1.06162
1.00382
0.953405
0.91267
0.883356
0.866183
0.860855
0.866416
0.881692
0.905592
0.937329
1.26894
1.20072
1.13537
1.07257
1.013
0.958375
0.91103
0.873319
0.846887
0.832279
0.829031
0.836084
0.852242
0.876465
0.908049
1.21027
1.14706
1.08583
1.02645
0.969822
0.917849
0.87305
0.837823
0.813738
0.801194
0.799582
0.807755
0.824505
0.84883
0.880094
1.15882
1.10014
1.04256
0.986112
0.931905
0.882067
0.839275
0.805992
0.783732
0.772773
0.772381
0.781336
0.798412
0.822641
0.853439
1.11436
1.05973
1.0053
0.951277
0.898983
0.850755
0.80944
0.777574
0.756642
0.74682
0.747269
0.756701
0.77387
0.79783
0.828034
1.07659
1.02548
0.973689
0.921593
0.870709
0.823584
0.783235
0.752288
0.732218
0.723123
0.724072
0.73371
0.750769
0.774312
0.803818
1.04507
0.996949
0.947297
0.896643
0.846693
0.800192
0.760329
0.729837
0.710203
0.701466
0.70261
0.712219
0.728993
0.751996
0.780718
1.01928
0.973636
0.92564
0.875976
0.826523
0.780208
0.740395
0.709934
0.69035
0.681637
0.68271
0.692087
0.708429
0.730788
0.758658
0.998672
0.954998
0.908213
0.859135
0.80979
0.763272
0.723116
0.692308
0.672425
0.663443
0.664211
0.673179
0.688964
0.710598
0.737563
0.982644
0.940483
0.894518
0.845676
0.796106
0.749049
0.708206
0.676711
0.656222
0.646709
0.646965
0.655373
0.670498
0.691338
0.717359
0.970613
0.929559
0.884077
0.835181
0.78511
0.73723
0.695405
0.662926
0.641555
0.631279
0.630843
0.638561
0.652937
0.672929
0.697978
0.962017
0.921724
0.876449
0.827266
0.776475
0.727544
0.684486
0.650764
0.628266
0.617019
0.615731
0.622646
0.636199
0.6553
0.679356
0.95634
0.916519
0.871233
0.821586
0.769911
0.719748
0.675251
0.640063
0.616222
0.603818
0.601534
0.607544
0.620211
0.638388
0.661437
0.953113
0.913536
0.868073
0.817837
0.765163
0.713636
0.667533
0.630687
0.605309
0.591579
0.588169
0.593186
0.604912
0.622135
0.644171
0.951924
0.912411
0.866655
0.81575
0.762005
0.709024
0.661189
0.622522
0.595436
0.580226
0.57557
0.579511
0.590247
0.606495
0.627512
0.952413
0.912832
0.866706
0.815089
0.760243
0.705756
0.656096
0.615476
0.586529
0.569696
0.563682
0.56647
0.576172
0.591424
0.611423
0.95427
0.914527
0.867986
0.81565
0.759705
0.703695
0.652151
0.609471
0.578528
0.559939
0.55246
0.554024
0.56265
0.576889
0.595869
0.957231
0.917263
0.870292
0.817254
0.760238
0.702722
0.649266
0.604443
0.571385
0.550918
0.541872
0.542139
0.549649
0.562859
0.580822
0.961074
0.920843
0.873445
0.819742
0.761711
0.70273
0.647362
0.60034
0.565065
0.542603
0.53189
0.530792
0.537146
0.549309
0.566257
0.965611
0.925097
0.877292
0.822978
0.764003
0.703623
0.64637
0.597117
0.559539
0.534975
0.522497
0.519963
0.525119
0.53622
0.552154
0.970683
0.929881
0.881702
0.826839
0.767007
0.705314
0.646229
0.594735
0.554786
0.528019
0.513681
0.509638
0.513553
0.523575
0.538495
0.976161
0.935076
0.886558
0.831218
0.770625
0.707721
0.646879
0.59316
0.550789
0.521727
0.505433
0.499808
0.502438
0.511359
0.525265
0.981933
0.940577
0.891763
0.836019
0.774768
0.71077
0.648265
0.59236
0.547533
0.516095
0.497751
0.490469
0.491766
0.499564
0.512452
0.987909
0.946299
0.897231
0.841157
0.779355
0.714386
0.650333
0.592303
0.545008
0.511122
0.490637
0.481619
0.48153
0.488181
0.500047
0.994014
0.952167
0.902889
0.846558
0.784309
0.718502
0.653029
0.592956
0.543201
0.506809
0.484094
0.473259
0.471731
0.477204
0.488041
1.00019
0.958122
0.908674
0.852154
0.789563
0.723051
0.656298
0.594287
0.542102
0.503157
0.478129
0.465395
0.462367
0.466631
0.476428
1.00637
0.964113
0.914531
0.857887
0.795051
0.72797
0.660086
0.596259
0.541696
0.50017
0.47275
0.458033
0.453441
0.45646
0.465203
1.01254
0.970095
0.920414
0.863703
0.800716
0.733196
0.664338
0.598835
0.541966
0.497848
0.467966
0.45118
0.444958
0.44669
0.454363
1.01864
0.976036
0.926285
0.869559
0.806505
0.738672
0.668998
0.601971
0.542894
0.496191
0.463786
0.444848
0.436923
0.437323
0.443905
1.02465
0.981906
0.93211
0.875413
0.812369
0.744342
0.67401
0.605624
0.544455
0.495197
0.46022
0.439048
0.429344
0.428361
0.433827
1.03056
0.987681
0.937863
0.881233
0.818265
0.750154
0.679317
0.609746
0.546621
0.494859
0.457276
0.43379
0.42223
0.419809
0.424131
1.03634
0.993344
0.943521
0.886988
0.824155
0.756059
0.684867
0.614286
0.549358
0.495168
0.454961
0.429087
0.41559
0.411671
0.414816
1.04199
0.998879
0.949066
0.892655
0.830004
0.762012
0.690604
0.619192
0.55263
0.496108
0.453277
0.424951
0.409436
0.403955
0.405883
1.04748
1.00428
0.954483
0.898214
0.835784
0.767972
0.696477
0.62441
0.556393
0.497659
0.452226
0.421392
0.403778
0.396666
0.397336
1.05282
1.00952
0.959761
0.903647
0.841468
0.773903
0.702437
0.629885
0.560602
0.499795
0.451805
0.418421
0.398629
0.389813
0.389177
1.05799
1.01462
0.964892
0.908942
0.847038
0.779771
0.708439
0.635564
0.565206
0.502486
0.452006
0.416045
0.393999
0.383405
0.38141
1.063
1.01956
0.969869
0.914089
0.852474
0.785548
0.714441
0.641393
0.570153
0.505695
0.452816
0.414269
0.389901
0.377451
0.37404
1.06785
1.02433
0.974687
0.919079
0.857763
0.79121
0.720404
0.647321
0.575389
0.509379
0.454216
0.413094
0.386344
0.371961
0.367073
1.07252
1.02894
0.979345
0.923908
0.862894
0.796736
0.726293
0.6533
0.580858
0.513493
0.456181
0.412518
0.383337
0.366943
0.360514
1.07703
1.03339
0.98384
0.928572
0.867859
0.80211
0.73208
0.659284
0.586506
0.517986
0.458682
0.412534
0.380887
0.362409
0.354369
1.08136
1.03768
0.988173
0.933069
0.872653
0.807319
0.737739
0.665233
0.592278
0.522805
0.461683
0.41313
0.378998
0.358367
0.348646
1.08554
1.04181
0.992343
0.937398
0.877272
0.812353
0.743248
0.671109
0.598123
0.527895
0.465141
0.414287
0.377672
0.354826
0.343351
1.08954
1.04577
0.996353
0.94156
0.881714
0.817205
0.748591
0.67688
0.603992
0.5332
0.469012
0.415983
0.376905
0.351791
0.338492
1.09339
1.04958
1.0002
0.945556
0.885979
0.82187
0.753753
0.682518
0.60984
0.538664
0.473244
0.418187
0.376691
0.349269
0.334076
1.09707
1.05323
1.0039
0.949389
0.890068
0.826346
0.758726
0.687999
0.615627
0.544234
0.477785
0.420866
0.377017
0.347262
0.330109
1.1006
1.05673
1.00744
0.953061
0.893984
0.830633
0.763502
0.693305
0.621316
0.549856
0.48258
0.423978
0.377867
0.34577
0.326596
1.10397
1.06008
1.01083
0.956575
0.897728
0.834732
0.768077
0.698421
0.626877
0.555484
0.487573
0.427479
0.379218
0.34479
0.323542
1.1072
1.06328
1.01407
0.959935
0.901305
0.838645
0.77245
0.703336
0.632283
0.561073
0.49271
0.431321
0.381042
0.344314
0.320951
1.11027
1.06634
1.01717
0.963144
0.904718
0.842376
0.776622
0.708044
0.637513
0.566583
0.497938
0.435452
0.383307
0.344331
0.318822
1.11321
1.06926
1.02012
0.966206
0.907972
0.845928
0.780594
0.71254
0.642551
0.571979
0.503205
0.43982
0.385974
0.344824
0.317155
1.11601
1.07204
1.02294
0.969124
0.911072
0.849308
0.784371
0.716823
0.647383
0.577233
0.508464
0.44437
0.389002
0.345773
0.315945
1.11867
1.07469
1.02563
0.971904
0.914021
0.85252
0.787956
0.720894
0.652003
0.58232
0.513674
0.449051
0.392345
0.347152
0.315184
1.1212
1.07721
1.02818
0.974548
0.916824
0.85557
0.791357
0.724757
0.656405
0.58722
0.518797
0.453811
0.395955
0.34893
0.314861
1.1236
1.0796
1.03061
0.977061
0.919487
0.858463
0.794578
0.728415
0.660588
0.59192
0.523799
0.458603
0.399784
0.351075
0.314961
1.12588
1.08187
1.03291
0.979447
0.922014
0.861205
0.797627
0.731876
0.664553
0.59641
0.528653
0.463382
0.403781
0.353547
0.315466
1.12804
1.08402
1.0351
0.981709
0.924409
0.863801
0.80051
0.735144
0.668304
0.600682
0.533337
0.468107
0.407897
0.356306
0.316353
1.13008
1.08606
1.03717
0.983852
0.926678
0.866258
0.803233
0.738228
0.671844
0.604735
0.537835
0.472745
0.412086
0.359308
0.317594
1.13202
1.08799
1.03912
0.98588
0.928824
0.868581
0.805805
0.741135
0.675181
0.608569
0.542132
0.477264
0.416303
0.36251
0.319161
1.13385
1.08981
1.04097
0.987795
0.930852
0.870775
0.808231
0.743873
0.678322
0.612187
0.546222
0.481638
0.420508
0.365867
0.321019
1.13557
1.09153
1.04272
0.989603
0.932766
0.872846
0.810518
0.746451
0.681275
0.615594
0.550099
0.485849
0.424663
0.369336
0.323134
1.1372
1.09315
1.04436
0.991307
0.934571
0.874798
0.812673
0.748875
0.684048
0.618795
0.553763
0.48988
0.428736
0.372873
0.325468
1.13874
1.09468
1.04591
0.992911
0.93627
0.876637
0.814701
0.751154
0.686651
0.6218
0.557215
0.49372
0.4327
0.37644
0.327983
1.14018
1.09611
1.04736
0.994418
0.937869
0.878367
0.816609
0.753295
0.689092
0.624615
0.560459
0.497363
0.436531
0.379999
0.33064
1.14154
1.09746
1.04872
0.995833
0.93937
0.879994
0.818402
0.755305
0.69138
0.627251
0.563501
0.500805
0.44021
0.383518
0.333402
1.14281
1.09872
1.05
0.997159
0.940779
0.88152
0.820087
0.757191
0.693524
0.629716
0.566349
0.504046
0.443725
0.386967
0.336231
1.14401
1.09991
1.0512
0.998401
0.942098
0.882952
0.821667
0.758961
0.695531
0.63202
0.569009
0.507088
0.447065
0.390321
0.339093
1.14514
1.10102
1.05232
0.999561
0.943333
0.884294
0.823149
0.760619
0.69741
0.634172
0.571492
0.509936
0.450223
0.393558
0.341956
1.1462
1.10205
1.05337
1.00065
0.944487
0.885549
0.824537
0.762174
0.699168
0.636181
0.573806
0.512595
0.453198
0.396663
0.34479
1.14719
1.10303
1.05434
1.00166
0.945564
0.886723
0.825837
0.763629
0.700813
0.638057
0.575962
0.515073
0.455988
0.399623
0.34757
1.14812
1.10393
1.05525
1.0026
0.946568
0.88782
0.827053
0.764992
0.702351
0.639807
0.577969
0.517379
0.458597
0.402427
0.350272
1.149
1.10479
1.0561
1.00348
0.947505
0.888843
0.82819
0.766268
0.703791
0.641441
0.579836
0.519521
0.461028
0.405071
0.352878
1.14983
1.10558
1.0569
1.00429
0.948377
0.889798
0.829254
0.767461
0.705137
0.642966
0.581573
0.521509
0.463288
0.407551
0.355372
1.15061
1.10633
1.05764
1.00506
0.94919
0.890689
0.830248
0.768579
0.706397
0.64439
0.583189
0.523352
0.465384
0.409867
0.357743
1.15134
1.10703
1.05833
1.00577
0.949948
0.891522
0.831178
0.769625
0.707577
0.64572
0.584693
0.52506
0.467324
0.412022
0.359982
1.15204
1.10769
1.05897
1.00643
0.950656
0.8923
0.832049
0.770607
0.708683
0.646965
0.586094
0.526644
0.469116
0.414019
0.362083
1.15269
1.10831
1.05958
1.00705
0.951319
0.893031
0.832867
0.77153
0.709722
0.648131
0.587402
0.528113
0.470771
0.415864
0.364043
1.15332
1.1089
1.06016
1.00764
0.951943
0.893718
0.833639
0.7724
0.710702
0.649227
0.588624
0.529477
0.472299
0.417565
0.365863
1.15391
1.10946
1.0607
1.00819
0.952535
0.894371
0.834371
0.773226
0.711629
0.650261
0.58977
0.530747
0.473711
0.41913
0.367544
1.15448
1.10999
1.06122
1.00872
0.953101
0.894996
0.835072
0.774015
0.712513
0.651243
0.590853
0.531935
0.475018
0.420568
0.369091
1.15502
1.1105
1.06172
1.00923
0.953651
0.895603
0.835754
0.77478
0.713365
0.652184
0.591884
0.533055
0.476234
0.421893
0.370511
1.15553
1.11099
1.0622
1.00974
0.954195
0.896206
0.836429
0.775535
0.714201
0.653102
0.592879
0.534125
0.477377
0.423119
0.371814
1.15603
1.11147
1.06269
1.01025
0.954748
0.896821
0.837118
0.776302
0.715045
0.654018
0.593859
0.535165
0.478468
0.424268
0.373018
1.1565
1.11194
1.06317
1.01077
0.955327
0.897471
0.837847
0.777111
0.715931
0.65497
0.594863
0.536209
0.479545
0.425373
0.374153
1.15695
1.1124
1.06367
1.01133
0.955958
0.898188
0.838655
0.778009
0.716911
0.656014
0.595952
0.537323
0.480673
0.426502
0.375282
1.15738
1.11288
1.06421
1.01194
0.956671
0.899015
0.8396
0.779067
0.718068
0.657248
0.597235
0.538627
0.481978
0.427788
0.376541
1.1578
1.11336
1.06478
1.01264
0.957518
0.900022
0.840774
0.780401
0.719545
0.658843
0.598912
0.540348
0.483706
0.429492
0.3782
1.46343
1.49299
1.51913
1.5441
1.56831
1.5911
1.61114
1.6268
1.63641
1.63851
1.63197
1.61613
1.59094
1.5571
1.51622
1.47091
1.42469
1.38159
1.34537
1.3192
1.30633
1.31067
1.33508
1.37891
1.43786
1.50608
1.57816
1.64998
1.71878
1.78282
1.84116
1.89332
1.93911
1.97852
2.01158
2.0383
2.05864
2.07243
2.07946
2.07945
1.42243
1.44906
1.47488
1.50048
1.52548
1.5488
1.569
1.5845
1.59382
1.59568
1.58913
1.5737
1.54947
1.51727
1.47878
1.43662
1.39419
1.35523
1.32318
1.30105
1.29214
1.30016
1.32739
1.37257
1.43132
1.49809
1.56793
1.63709
1.7031
1.76444
1.82028
1.87023
1.91418
1.95211
1.98406
2.01001
2.02986
2.04343
2.0504
2.05047
1.38355
1.40734
1.43254
1.4584
1.48381
1.50735
1.52752
1.54281
1.55186
1.55357
1.54714
1.53224
1.50909
1.4786
1.44254
1.4035
1.36476
1.32978
1.30174
1.28355
1.27849
1.29
1.31971
1.36589
1.42416
1.48932
1.55684
1.62335
1.68663
1.74536
1.79884
1.84674
1.889
1.92561
1.9566
1.98192
2.00142
2.01485
2.02185
2.02205
1.34565
1.36726
1.39185
1.41773
1.44325
1.46675
1.4867
1.50166
1.51042
1.51197
1.5057
1.49137
1.46932
1.44056
1.4069
1.37089
1.33569
1.30451
1.2803
1.26591
1.26456
1.27932
1.31121
1.35812
1.41573
1.47921
1.54442
1.60836
1.66904
1.72533
1.77662
1.82268
1.86344
1.89893
1.92914
1.95399
1.97327
1.98667
1.99376
1.99412
1.30833
1.32847
1.35257
1.37831
1.4037
1.42696
1.44654
1.4611
1.46952
1.47095
1.46485
1.45111
1.43018
1.40314
1.37182
1.33877
1.30696
1.2794
1.25887
1.24814
1.25033
1.26808
1.30184
1.34922
1.40603
1.46778
1.53073
1.5922
1.65043
1.70445
1.75376
1.79817
1.83764
1.8722
1.9018
1.92633
1.94552
1.95898
1.96622
1.96676
1.27144
1.29071
1.31446
1.33998
1.36508
1.38794
1.40705
1.42116
1.42924
1.43054
1.42463
1.41151
1.3917
1.36637
1.33736
1.30716
1.2786
1.2545
1.23749
1.23028
1.23581
1.25627
1.2916
1.33922
1.3951
1.45511
1.51587
1.57498
1.63093
1.68287
1.73039
1.77335
1.81173
1.84554
1.87471
1.89905
1.91825
1.93185
1.93929
1.94005
1.23493
1.25385
1.27737
1.30261
1.32731
1.34968
1.36826
1.38188
1.38961
1.3908
1.38511
1.37262
1.35395
1.3303
1.30354
1.2761
1.25066
1.22986
1.21621
1.21236
1.22101
1.24388
1.2805
1.32817
1.38302
1.44128
1.49993
1.55682
1.61066
1.6607
1.70663
1.74835
1.78584
1.81908
1.84796
1.87225
1.89156
1.90537
1.91306
1.91406
1.19883
1.21779
1.24119
1.26613
1.29037
1.31218
1.33019
1.34331
1.3507
1.35179
1.34633
1.33449
1.31694
1.29496
1.27041
1.24563
1.22317
1.20552
1.19508
1.19441
1.20593
1.23094
1.26858
1.3161
1.36986
1.42641
1.48303
1.53786
1.58975
1.63809
1.68264
1.72331
1.76008
1.79292
1.82167
1.84602
1.86553
1.87961
1.88759
1.88885
1.16323
1.18251
1.20588
1.23051
1.25424
1.27546
1.29287
1.30548
1.31254
1.31354
1.30833
1.29715
1.28073
1.26039
1.23798
1.21577
1.19617
1.18151
1.17413
1.17644
1.19059
1.21745
1.25587
1.3031
1.35571
1.41058
1.46529
1.5182
1.56833
1.61517
1.65852
1.69834
1.73458
1.76718
1.79592
1.82044
1.84023
1.85462
1.86292
1.86447
1.12824
1.14803
1.17143
1.19573
1.21893
1.23953
1.25633
1.26844
1.27517
1.27611
1.27116
1.26064
1.24535
1.22662
1.20629
1.18655
1.16966
1.15786
1.15338
1.15847
1.17499
1.20343
1.24241
1.28922
1.34066
1.39392
1.44683
1.49798
1.54652
1.59205
1.63441
1.67355
1.70944
1.74194
1.77079
1.79558
1.8157
1.83047
1.83911