/*--------------------------------*- C++ -*----------------------------------*\
| =========                 |                                                 |
| \\      /  F ield         | OpenFOAM: The Open Source CFD Toolbox           |
|  \\    /   O peration     | Version:  2206                                  |
|   \\  /    A nd           | Website:  www.openfoam.com                      |
|    \\/     M anipulation  |                                                 |
\*---------------------------------------------------------------------------*/
FoamFile
{
    version     2.0;
    format      ascii;
    arch        "LSB;label=32;scalar=64";
    class       volScalarField;
    location    "100";
    object      p;
}
// * * * * * * * * * * * * * * * * * * * * * * * * * * * * * * * * * * * * * //

dimensions      [0 2 -2 0 0 0 0];

internalField   nonuniform List<scalar> 
12940
(
764.673
752.864
753.135
751.828
750.286
748.745
747.188
745.626
760.464
754.552
754.424
752.33
750.5
748.836
747.219
745.63
758.934
755.304
754.907
752.609
750.707
748.936
747.243
745.621
758.603
755.877
754.919
752.662
750.812
748.986
747.23
745.578
758.004
756.026
754.663
752.541
750.777
748.966
747.182
745.506
756.708
755.465
754.072
752.204
750.571
748.849
747.102
745.42
754.838
754.316
753.233
751.706
750.244
748.655
746.994
745.341
752.725
753.022
752.433
751.236
749.934
748.466
746.894
745.288
750.548
751.916
751.924
750.993
749.787
748.382
746.854
745.282
748.142
750.771
751.554
750.965
749.844
748.446
746.905
745.328
745.208
748.964
750.717
750.732
749.871
748.551
747.004
745.404
741.686
746.121
748.802
749.671
749.374
748.358
746.95
745.395
737.901
742.503
745.752
747.436
747.912
747.468
746.424
745.066
734.287
738.692
742.095
744.269
745.424
745.664
745.177
744.152
731.126
735.137
738.418
740.749
742.296
743.084
743.164
742.543
728.515
732.055
735.072
737.349
739.034
740.131
740.619
740.342
726.433
729.501
732.201
734.319
735.983
737.198
737.906
737.867
724.809
727.443
729.825
731.745
733.31
734.527
735.321
735.415
723.553
725.813
727.904
729.625
731.063
732.222
733.025
733.188
722.578
724.531
726.371
727.911
729.22
730.3
731.074
731.267
721.81
723.518
725.153
726.539
727.731
728.73
729.46
729.667
721.19
722.709
724.182
725.443
726.537
727.463
728.148
728.362
720.675
722.054
723.402
724.566
725.581
726.444
727.089
727.312
720.238
721.515
722.772
723.861
724.815
725.628
726.24
726.475
719.864
721.071
722.263
723.297
724.203
724.975
725.56
725.809
719.553
720.713
721.861
722.854
723.722
724.46
725.021
725.285
719.314
720.445
721.562
722.524
723.36
724.066
724.604
724.877
719.167
720.278
721.373
722.308
723.116
723.791
724.302
724.574
719.138
720.234
721.309
722.218
722.996
723.64
724.12
724.37
719.264
720.337
721.387
722.268
723.014
723.625
724.069
724.272
719.578
720.615
721.628
722.473
723.184
723.762
724.168
724.293
720.113
721.089
722.046
722.844
723.517
724.067
724.439
724.453
720.885
721.767
722.642
723.382
724.018
724.551
724.899
724.779
721.886
722.635
723.399
724.071
724.676
725.212
725.564
725.303
723.064
723.641
724.268
724.87
725.459
726.032
726.434
726.069
724.31
724.688
725.163
725.7
726.299
726.957
727.483
727.122
725.449
725.625
725.95
726.439
727.081
727.877
728.629
728.502
726.249
726.254
726.454
726.912
727.616
728.583
729.664
730.133
726.465
726.363
726.475
726.9
727.633
728.714
730.114
731.488
725.934
725.81
725.87
726.223
726.868
727.85
729.21
731.108
724.813
724.716
724.721
724.901
725.214
725.599
725.846
725.389
723.562
723.522
723.52
723.608
723.74
723.834
723.681
723.109
722.129
722.153
722.168
722.211
722.255
722.245
722.067
721.709
720.585
720.668
720.707
720.728
720.723
720.668
720.51
720.244
718.982
719.116
719.178
719.185
719.149
719.068
718.936
718.741
717.358
717.534
717.613
717.603
717.53
717.416
717.292
717.142
715.753
715.961
716.043
715.999
715.865
715.683
715.521
715.355
714.217
714.441
714.505
714.399
714.162
713.844
713.532
713.199
712.816
713.029
713.045
712.842
712.442
711.851
711.036
709.91
711.624
711.786
711.729
711.413
710.813
709.799
707.86
704.258
710.568
710.625
710.499
710.18
709.674
708.945
707.683
704.964
709.737
709.638
709.438
709.187
708.903
708.609
708.203
707.349
708.953
708.673
708.373
708.172
708.072
708.094
708.198
708.209
707.917
707.463
707.061
706.898
706.948
707.21
707.637
708.095
706.337
705.738
705.253
705.134
705.331
705.814
706.522
707.362
703.916
703.217
702.686
702.642
703.013
703.749
704.78
706.082
700.336
699.596
699.075
699.155
699.755
700.815
702.277
704.249
695.243
694.543
694.104
694.361
695.245
696.708
698.757
701.76
688.277
687.725
687.444
687.905
689.088
691.024
693.922
698.656
679.18
678.899
678.839
679.477
680.901
683.335
687.265
693.928
667.89
667.912
667.911
668.218
668.806
669.597
670.174
668.901
655.126
655.459
655.574
655.682
655.729
655.476
654.3
651.887
641.493
642.065
642.319
642.401
642.305
641.884
640.818
639.203
627.319
628.021
628.372
628.47
628.344
627.928
627.062
625.771
612.767
613.51
613.909
614.035
613.934
613.58
612.889
611.85
597.893
598.616
599.026
599.172
599.105
598.821
598.265
597.412
582.718
583.387
583.779
583.932
583.894
583.666
583.208
582.49
567.254
567.853
568.211
568.36
568.34
568.155
567.77
567.157
551.517
552.042
552.359
552.496
552.487
552.335
552.008
551.481
535.53
535.982
536.258
536.379
536.376
536.248
535.971
535.52
519.32
519.704
519.939
520.044
520.043
519.937
519.702
519.32
502.917
503.238
503.435
503.524
503.524
503.435
503.238
502.919
486.348
486.612
486.775
486.849
486.849
486.776
486.614
486.35
469.641
469.855
469.987
470.047
470.047
469.988
469.856
469.643
452.822
452.99
453.095
453.142
453.142
453.095
452.991
452.822
435.912
436.04
436.12
436.157
436.157
436.121
436.041
435.912
418.932
419.026
419.084
419.11
419.11
419.084
419.026
418.932
401.902
401.963
402.002
402.019
402.019
402.002
401.963
401.902
384.837
384.87
384.89
384.9
384.9
384.89
384.87
384.838
367.755
367.76
367.763
367.765
367.765
367.763
367.76
367.755
350.669
350.647
350.634
350.629
350.629
350.634
350.647
350.669
333.594
333.546
333.516
333.503
333.503
333.516
333.546
333.594
316.544
316.468
316.422
316.401
316.401
316.422
316.468
316.544
299.535
299.43
299.365
299.335
299.335
299.364
299.43
299.535
282.582
282.444
282.359
282.321
282.32
282.359
282.444
282.582
265.703
265.529
265.421
265.373
265.372
265.421
265.528
265.703
248.917
248.702
248.569
248.509
248.509
248.568
248.701
248.917
232.245
231.983
231.822
231.749
231.749
231.822
231.982
232.244
215.71
215.396
215.203
215.117
215.117
215.203
215.396
215.709
199.337
198.965
198.737
198.636
198.637
198.74
198.968
199.338
183.153
182.718
182.452
182.334
182.338
182.46
182.728
183.163
167.186
166.681
166.376
166.244
166.252
166.398
166.713
167.22
151.46
150.885
150.54
150.397
150.415
150.592
150.962
151.553
136
135.356
134.979
134.83
134.865
135.083
135.524
136.216
120.821
120.123
119.727
119.583
119.644
119.916
120.452
121.277
105.938
105.217
104.827
104.7
104.792
105.129
105.798
106.808
91.3684
90.6818
90.3357
90.2332
90.3458
90.7426
91.583
92.8443
77.1693
76.6035
76.3483
76.2586
76.3398
76.7404
77.7796
79.3674
63.4935
63.1566
63.0384
62.924
62.865
63.102
64.2573
66.6329
50.654
50.6261
50.6302
50.3328
49.7578
49.0018
48.5061
49.7985
39.2351
39.5232
39.6111
39.02
37.6728
35.4101
31.8313
25.3093
29.9357
30.5199
30.8428
30.4162
29.2578
27.3455
24.4355
19.4839
22.7644
23.5379
24.0498
23.8374
22.9685
21.4896
19.3394
15.9988
17.5117
18.3756
19.008
18.9908
18.4076
17.3233
15.7611
13.5186
13.8538
14.7336
15.4187
15.5437
15.1912
14.4231
13.3014
11.8271
11.4629
12.3095
12.9935
13.2033
13.0124
12.4721
11.6598
10.7116
10.0531
10.8374
11.4832
11.7297
11.6397
11.2516
10.6495
10.0554
9.39255
10.0983
10.6821
10.9303
10.8943
10.6022
10.1372
9.77976
9.29818
9.9169
10.4251
10.6503
10.6349
10.3978
10.0211
9.81587
9.62783
10.1555
10.5807
10.7672
10.7493
10.5398
10.2152
10.104
10.2705
10.7058
11.0451
11.1834
11.1481
10.9467
10.652
10.5916
11.1402
11.4839
11.7373
11.8223
11.7603
11.5556
11.274
11.2347
12.17
12.4242
12.5939
12.6238
12.5299
12.314
12.0353
11.9965
13.3085
13.4766
13.5663
13.5416
13.4136
13.1824
12.9001
12.8488
14.5164
14.6029
14.6174
14.5401
14.378
14.1297
13.8406
13.7687
15.7642
15.7744
15.7194
15.593
15.3982
15.133
14.8359
14.74
17.0305
16.9705
16.8522
16.6808
16.4561
16.1753
15.8705
15.7491
18.2999
18.1764
18.0014
17.7897
17.5384
17.2441
16.9329
16.7876
19.5618
19.3818
19.1567
18.9098
18.6356
18.3305
18.0147
17.8475
20.8093
20.5796
20.3111
20.0342
19.741
19.4277
19.1095
18.9242
22.0375
21.7652
21.4596
21.1575
20.8492
20.5308
20.2126
20.0124
23.2434
22.935
22.5983
22.2758
21.9562
21.6354
21.3196
21.1084
24.4246
24.0862
23.724
23.3854
23.0579
22.7372
22.4259
22.207
25.5789
25.2162
24.8334
24.4827
24.1503
23.8321
23.5272
23.3035
26.7042
26.3221
25.9232
25.5637
25.2293
24.9154
24.6183
24.3927
27.7977
27.4007
26.9896
26.6244
26.2901
25.982
25.6942
25.4688
28.8566
28.4486
28.0285
27.6602
27.3278
27.0267
26.749
26.5257
29.8774
29.4616
29.0357
28.6662
28.3372
28.0441
27.7769
27.5572
30.8564
30.4358
30.0064
29.6376
29.3133
29.0286
28.7724
28.5573
31.7898
31.3669
30.9363
30.5697
30.2508
29.975
29.73
29.5202
32.6738
32.2507
31.8208
31.4577
31.1451
30.8784
30.6445
30.4406
33.5045
33.0832
32.6557
32.2972
31.9916
31.7341
31.5111
31.3135
34.2785
33.8608
33.4372
33.0844
32.7861
32.5378
32.3256
32.1345
34.9927
34.5801
34.1619
33.8155
33.525
33.2859
33.0842
32.8999
35.6444
35.2383
34.8268
34.4876
34.2052
33.9754
33.7838
33.6063
36.2313
35.833
35.4293
35.098
34.8241
34.6033
34.4217
34.251
36.7518
36.3623
35.9675
35.6448
35.3796
35.1678
34.9957
34.8317
37.2045
36.8249
36.4399
36.1263
35.87
35.6671
35.5042
35.3471
37.5887
37.2199
36.8455
36.5415
36.2944
36.1002
35.9462
35.7959
37.9041
37.5468
37.1838
36.8899
36.652
36.4665
36.3211
36.1775
38.1509
37.8058
37.4548
37.1714
36.9428
36.7658
36.6288
36.4919
38.3297
37.9973
37.6589
37.3861
37.1671
36.9984
36.8694
36.7392
38.4413
38.1222
37.7968
37.535
37.3254
37.165
37.0438
36.9201
38.4873
38.1817
37.8697
37.619
37.419
37.2667
37.1529
37.0356
38.4692
38.1773
37.879
37.6396
37.449
37.3047
37.198
37.0872
38.3889
38.111
37.8265
37.5984
37.4173
37.2807
37.181
37.0765
38.2485
37.9847
37.7141
37.4974
37.3257
37.1966
37.1035
37.0053
38.0505
37.8007
37.5441
37.3387
37.1762
37.0546
36.9678
36.8757
37.7973
37.5615
37.3187
37.1245
36.9712
36.8568
36.7761
36.69
37.4914
37.2695
37.0405
36.8574
36.713
36.6056
36.5308
36.4505
37.1357
36.9274
36.7121
36.5399
36.4043
36.3037
36.2345
36.1598
36.7329
36.538
36.3361
36.1746
36.0475
35.9535
35.8897
35.8205
36.2858
36.104
35.9152
35.7642
35.6455
35.5579
35.4991
35.4352
35.7972
35.6282
35.4522
35.3114
35.2008
35.1193
35.0654
35.0067
35.2699
35.1134
34.9499
34.819
34.7163
34.6407
34.5913
34.5375
34.7068
34.5623
34.4109
34.2897
34.1945
34.1246
34.0796
34.0305
34.1106
33.9777
33.838
33.726
33.6382
33.5737
33.5328
33.4882
33.484
33.3623
33.2338
33.1308
33.0499
32.9906
32.9536
32.9133
32.8296
32.7185
32.6009
32.5064
32.4322
32.3778
32.3446
32.3084
32.1498
32.049
31.9417
31.8554
31.7876
31.738
31.7081
31.6758
31.4472
31.3561
31.2587
31.1801
31.1185
31.0733
31.0467
31.0179
30.7241
30.6422
30.5541
30.483
30.4271
30.3862
30.3626
30.3372
29.9826
29.9094
29.8302
29.7661
29.7157
29.6788
29.658
29.6358
29.2248
29.1599
29.0891
29.0316
28.9864
28.9532
28.9351
28.9159
28.4529
28.3957
28.3327
28.2815
28.2411
28.2115
28.1958
28.1794
27.6684
27.6185
27.5629
27.5176
27.4818
27.4555
27.4421
27.4282
26.8734
26.8302
26.7816
26.7418
26.7102
26.687
26.6757
26.6642
26.0693
26.0324
25.9903
25.9556
25.928
25.9077
25.8984
25.889
25.2578
25.2267
25.1906
25.1607
25.1368
25.1192
25.1116
25.1042
24.4401
24.4144
24.3839
24.3584
24.338
24.3229
24.3169
24.3113
23.6176
23.5969
23.5715
23.5501
23.5329
23.5201
23.5156
23.5117
22.7914
22.7753
22.7546
22.737
22.7227
22.7121
22.709
22.7065
21.9627
21.9507
21.9344
21.9202
21.9087
21.9
21.8981
21.897
21.1324
21.1242
21.1118
21.1008
21.0917
21.0848
21.0841
21.0841
20.3013
20.2965
20.2877
20.2796
20.2728
20.2676
20.2678
20.269
19.4703
19.4686
19.463
19.4575
19.4528
19.4491
19.4502
19.4523
18.64
18.641
18.6384
18.6353
18.6324
18.63
18.632
18.6349
17.811
17.8145
17.8145
17.8135
17.8123
17.8112
17.8139
17.8175
16.9839
16.9896
16.9919
16.9928
16.9931
16.9931
16.9964
17.0007
16.1591
16.1667
16.171
16.1736
16.1752
16.1763
16.1802
16.1851
15.337
15.3462
15.3523
15.3564
15.3593
15.3613
15.3657
15.371
14.5179
14.5285
14.5361
14.5415
14.5455
14.5483
14.5532
14.559
13.7019
13.7137
13.7228
13.7293
13.7342
13.7378
13.7432
13.7493
12.8895
12.9023
12.9124
12.9199
12.9256
12.93
12.9357
12.9422
12.0807
12.0942
12.1053
12.1136
12.12
12.1249
12.131
12.1379
11.2756
11.2898
11.3016
11.3106
11.3176
11.323
11.3294
11.3365
10.4744
10.489
10.5014
10.5109
10.5184
10.5243
10.5309
10.5382
9.67698
9.69189
9.70472
9.71462
9.7225
9.72874
9.7356
9.74311
8.88346
8.89845
8.91152
8.92168
8.92988
8.93644
8.94348
8.95113
8.09376
8.10867
8.1218
8.1321
8.14049
8.14731
8.15452
8.16228
7.30785
7.32249
7.3355
7.3458
7.35429
7.36131
7.36864
7.37651
6.52565
6.53981
6.55254
6.5627
6.57118
6.57834
6.58578
6.59374
5.74707
5.76055
5.7728
5.78268
5.79107
5.7983
5.80582
5.81387
4.97196
4.98456
4.99615
5.00563
5.01381
5.02106
5.02864
5.03677
4.20017
4.21165
4.22241
4.23135
4.23927
4.24648
4.25411
4.26234
3.43139
3.44155
3.45133
3.45966
3.46724
3.4744
3.48207
3.4904
2.66522
2.6739
2.68257
2.69022
2.69745
2.70452
2.7122
2.72061
1.90114
1.90831
1.91599
1.9231
1.9301
1.93724
1.94506
1.95376
1.13877
1.14567
1.15431
1.16274
1.17124
1.17991
1.18886
1.19796
0.366831
0.369635
0.371403
0.372938
0.375133
0.378325
0.382697
0.390082
15.0745
9.04739
7.87844
6.08467
3.85299
1.32966
-1.6117
-5.04938
-9.00627
-13.483
-18.4708
-23.9622
-29.936
-35.7409
-38.8275
15.5372
9.52588
7.29208
5.12097
2.87884
0.518076
-2.07081
-4.94239
-8.12539
-11.6548
-15.5817
-19.9743
-24.9673
-30.4886
-34.7298
13.2013
8.57943
6.58937
4.57683
2.54453
0.443997
-1.79844
-4.22479
-6.86994
-9.78166
-13.0245
-16.6735
-20.869
-25.7568
-29.9459
11.2107
7.88561
6.21029
4.44028
2.67291
0.856459
-1.06947
-3.14428
-5.40606
-7.90489
-10.7064
-13.8858
-17.5656
-21.8954
-25.6012
9.80266
7.46897
6.07006
4.57601
3.08826
1.54696
-0.0984019
-1.88361
-3.84623
-6.03354
-8.50592
-11.3354
-14.6371
-18.5305
-21.7087
8.85543
7.3043
6.17195
4.95027
3.72134
2.42426
1.01751
-0.531666
-2.25859
-4.20642
-6.4272
-8.98467
-11.9889
-15.531
-18.2119
8.32054
7.39175
6.50194
5.5227
4.51742
3.42816
2.21949
0.861015
-0.679997
-2.44178
-4.46795
-6.81253
-9.57957
-12.8405
-15.0843
8.15237
7.70715
7.02455
6.25
5.4318
4.51551
3.46915
2.26479
0.87186
-0.743044
-2.61627
-4.79166
-7.3673
-10.3998
-12.2909
8.29479
8.21371
7.70189
7.09566
6.43133
5.65716
4.74384
3.66446
2.39094
0.89302
-0.858086
-2.89724
-5.31472
-8.16003
-9.78438
8.69074
8.87446
8.50046
8.03093
7.49214
6.83499
6.03105
5.05432
3.87724
2.4739
0.821779
-1.10593
-3.39122
-6.0809
-7.5157
9.28799
9.65585
9.39248
9.03375
8.59798
8.03772
7.32495
6.43264
5.33505
4.00958
2.43922
0.60396
-1.57064
-4.12628
-5.43845
10.0401
10.5303
10.3559
10.0879
9.73757
9.25884
8.62249
7.80143
6.77077
5.511
4.00945
2.25174
0.172755
-2.26831
-3.51319
10.9098
11.4751
11.3741
11.1816
10.9032
10.494
9.92357
9.1642
8.19156
6.98856
5.5461
3.85507
1.85857
-0.482775
-1.70092
11.866
12.4748
12.4346
12.3058
12.0895
11.7412
11.2294
10.525
9.60406
8.45129
7.06085
5.42841
3.50275
1.25023
0.025282
12.8872
13.5156
13.5278
13.4543
13.293
12.9999
12.5414
11.8873
11.0136
9.90651
8.56291
6.98112
5.12005
2.94596
1.69193
13.9545
14.5887
14.6466
14.6226
14.5115
14.2693
13.8607
13.2537
12.4241
11.3592
10.0581
8.52318
6.71853
4.6151
3.31691
15.0562
15.6862
15.7861
15.8072
15.7428
15.5487
15.1873
14.6251
13.8372
12.812
11.5507
10.0575
8.30568
6.26716
4.9144
16.1812
16.8038
16.9418
17.0051
16.9849
16.8365
16.5204
16.001
15.2531
14.2656
13.0412
11.588
9.88421
7.90392
6.49374
17.3239
17.9362
18.1103
18.2131
18.2346
18.1299
17.8573
17.3793
16.6697
15.7182
14.5294
13.1133
11.454
9.53008
8.06047
18.4775
19.0802
19.2876
19.4274
19.4884
19.4253
19.1944
18.7562
18.0837
17.1671
16.0124
14.6305
13.015
11.1412
9.61468
19.6388
20.2312
20.4696
20.6434
20.7415
20.7178
20.5269
20.1271
19.4905
18.6076
17.4849
16.1373
14.5615
12.7366
11.1589
20.802
21.3847
21.6504
21.856
21.9883
22.0019
21.849
21.4863
20.8844
20.034
18.9433
17.6273
16.091
14.3126
12.6874
21.9631
22.535
22.8255
23.0587
23.2229
23.2713
23.1546
22.8275
22.2594
21.441
20.3806
19.0971
17.5983
15.8644
14.201
23.1167
23.6773
23.988
24.2465
24.439
24.5194
24.4368
24.1439
23.6087
22.8215
21.7922
20.5394
19.0781
17.3877
15.6908
24.258
24.8055
25.1331
25.4121
25.6298
25.7394
25.6889
25.4289
24.9258
24.1697
23.1703
21.9487
20.5241
18.8754
17.1554
25.381
25.9136
26.2533
26.5496
26.7886
26.9246
26.904
26.6756
26.204
25.4786
24.5088
23.3183
21.9292
20.3229
18.5849
26.4797
26.9947
27.3429
27.6519
27.9089
28.0683
28.0756
27.8776
27.4371
26.7415
25.8018
24.6414
23.2883
21.7229
19.9757
27.5479
28.043
28.395
28.7134
28.9846
29.1645
29.1976
29.0289
28.6185
27.9533
27.0428
25.9134
24.5954
23.0707
21.3203
28.5799
29.0522
29.4045
29.7279
30.0101
30.2075
30.2644
30.1237
29.7434
29.1078
28.2275
27.1287
25.8459
24.3613
22.6147
29.57
30.0172
30.3654
30.6906
30.9802
31.1924
31.271
31.1572
30.8063
30.2011
29.3505
28.283
27.0349
25.5903
23.8532
30.513
30.9327
31.2737
31.5968
31.8908
32.1148
32.213
32.1248
31.8032
31.228
30.4082
29.3718
28.1584
26.7536
25.0317
31.4044
31.7945
32.1248
32.443
32.738
32.9711
33.0867
33.023
32.73
32.1855
31.3963
30.3916
29.2127
27.8474
26.1453
32.2401
32.5988
32.9157
33.2256
33.5188
33.7582
33.889
33.8485
33.584
33.0699
32.3121
31.3391
30.1947
28.8687
27.191
33.0165
33.3425
33.6431
33.9424
34.2308
34.4739
34.6177
34.5989
34.3623
33.8793
33.1529
32.2123
31.102
29.8151
28.1653
33.7306
34.0227
34.3051
34.5911
34.8724
35.1164
35.2711
35.2726
35.0633
34.6112
33.9172
33.0088
31.9331
30.6847
29.0667
34.38
34.6376
34.8997
35.1706
35.4423
35.685
35.8481
35.8683
35.6857
35.2646
34.603
33.7279
32.6861
31.4767
29.8926
34.9628
35.1855
35.4262
35.6799
35.9401
36.1789
36.3484
36.3856
36.2286
35.8387
35.2101
34.3682
33.361
32.1898
30.6433
35.4779
35.6658
35.8834
36.1188
36.3652
36.5984
36.7719
36.8242
36.6923
36.3331
35.7379
34.9298
33.957
32.8243
31.3163
35.9243
36.0776
36.2715
36.487
36.7185
36.9436
37.1193
37.1851
37.0768
36.7485
36.1869
35.4129
34.4746
33.3797
31.9126
36.3017
36.421
36.5907
36.7855
37.0004
37.216
37.3916
37.469
37.3835
37.0853
36.5576
35.8182
34.9143
33.8571
32.4319
36.6102
36.6966
36.8418
37.0153
37.2129
37.4169
37.5906
37.6776
37.6131
37.345
36.8512
36.1466
35.2772
34.2574
32.8754
36.8504
36.9049
37.0258
37.1779
37.357
37.5485
37.7181
37.8126
37.7678
37.5286
37.069
36.3994
35.5648
34.582
33.2442
37.0232
37.0472
37.1441
37.2746
37.435
37.6125
37.7765
37.8764
37.8493
37.6385
37.2125
36.5787
35.7785
34.8331
33.5394
37.1298
37.1249
37.1983
37.3076
37.4487
37.6116
37.768
37.8713
37.8603
37.6761
37.2843
36.6856
35.921
35.0117
33.7637
37.1719
37.1396
37.1904
37.2786
37.4007
37.5478
37.6955
37.8001
37.8031
37.6447
37.2858
36.7232
35.9934
35.121
33.9181
37.1512
37.0933
37.1222
37.1901
37.2929
37.4242
37.5617
37.666
37.6807
37.5466
37.22
36.6934
35.9989
35.163
34.0054
37.0697
36.9881
36.9961
37.044
37.1283
37.2431
37.3699
37.4718
37.4969
37.3846
37.0901
36.5987
35.9403
35.1399
34.0286
36.9297
36.8261
36.8143
36.8433
36.9091
37.008
37.1228
37.2214
37.2538
37.1626
36.898
36.4428
35.819
35.0559
33.989
36.7335
36.6098
36.5793
36.5902
36.6387
36.7213
36.824
36.9174
36.956
36.8829
36.6478
36.2273
35.6396
34.9121
33.8911
36.4837
36.3418
36.2939
36.2879
36.3193
36.3863
36.4763
36.5634
36.6059
36.5492
36.3419
35.9557
35.4037
34.7122
33.7364
36.1829
36.0246
35.9605
35.9385
35.9541
36.0056
36.0827
36.1626
36.2073
36.165
35.9836
35.631
35.1144
34.4589
33.5279
35.8338
35.661
35.582
35.5452
35.5456
35.5823
35.6466
35.7185
35.7637
35.7336
35.5764
35.2562
34.7747
34.155
33.2685
35.4391
35.2535
35.1611
35.1106
35.0969
35.1197
35.1713
35.2346
35.2788
35.2587
35.1235
34.8345
34.3876
33.8034
32.9612
35.0015
34.8049
34.7003
34.6374
34.6108
34.6203
34.6597
34.7139
34.7558
34.7437
34.6283
34.3689
33.9561
33.4072
32.6086
34.5239
34.3179
34.2024
34.1283
34.0898
34.087
34.1145
34.1595
34.1979
34.1918
34.0942
33.8627
33.4831
32.969
32.2137
34.0088
33.7951
33.67
33.5858
33.5365
33.5223
33.5385
33.5742
33.6082
33.6064
33.5243
33.319
32.9716
32.4919
31.7793
33.4591
33.2392
33.1056
33.0124
32.9533
32.9286
32.9343
32.9608
32.9897
32.9906
32.9219
32.7408
32.4244
31.9787
31.3081
32.8774
32.6526
32.5118
32.4106
32.3428
32.3086
32.3044
32.3219
32.3453
32.3476
32.2903
32.1313
31.8446
31.432
30.8028
32.2661
32.0378
31.8909
31.7829
31.7073
31.6645
31.6511
31.6601
31.6777
31.6802
31.6323
31.4934
31.2349
30.8545
30.2661
31.6279
31.3972
31.2453
31.1314
31.0491
30.9986
30.9769
30.9778
30.9895
30.9912
30.951
30.8302
30.5981
30.249
29.7004
30.965
30.7331
30.5772
30.4584
30.3703
30.313
30.2838
30.2773
30.2831
30.2833
30.2492
30.1442
29.9369
29.618
29.1084
30.2798
30.0478
29.8889
29.7661
29.6731
29.6098
29.574
29.5606
29.5607
29.5588
29.5294
29.4384
29.254
28.964
28.4922
29.5745
29.3434
29.1823
29.0564
28.9593
28.891
28.8492
28.8296
28.8243
28.8199
28.794
28.7152
28.5518
28.2893
27.8542
28.8512
28.6218
28.4594
28.3311
28.2308
28.1582
28.1114
28.0862
28.0759
28.0688
28.0454
27.9769
27.8327
27.5961
27.1966
28.112
27.885
27.7221
27.5922
27.4893
27.4133
27.3621
27.332
27.317
27.3072
27.2854
27.2258
27.0989
26.8867
26.5213
27.3585
27.1348
26.9721
26.8413
26.7366
26.6578
26.6029
26.5685
26.5494
26.5369
26.5161
26.4639
26.3525
26.163
25.8303
26.5928
26.3729
26.211
26.08
25.9741
25.8931
25.8353
25.7973
25.7745
25.7594
25.739
25.693
25.5953
25.4269
25.1253
25.8163
25.6009
25.4405
25.3098
25.2033
25.1208
25.0605
25.0196
24.9936
24.976
24.9558
24.9149
24.8293
24.6802
24.4081
25.0307
24.8202
24.6618
24.532
24.4254
24.3419
24.2799
24.2365
24.2078
24.1881
24.1677
24.131
24.056
23.9244
23.6801
24.2374
24.0323
23.8764
23.748
23.6418
23.5579
23.4946
23.4493
23.4184
23.3967
23.3761
23.3427
23.2769
23.1613
22.9429
23.4378
23.2384
23.0855
22.9588
22.8536
22.7697
22.7056
22.659
22.6263
22.603
22.582
22.5514
22.4936
22.3922
22.1979
22.633
22.4397
22.2901
22.1657
22.0618
21.9783
21.914
21.8664
21.8324
21.8078
21.7865
21.7582
21.7072
21.6185
21.4465
21.8241
21.6372
21.4914
21.3695
21.2673
21.1847
21.1205
21.0724
21.0375
21.012
20.9905
20.9641
20.9189
20.8414
20.69
21.0123
20.832
20.6902
20.5713
20.4711
20.3897
20.326
20.2777
20.2423
20.2162
20.1946
20.1699
20.1297
20.0622
19.9295
20.1984
20.0249
19.8875
19.7718
19.6739
19.5941
19.5311
19.4832
19.4476
19.4212
19.3997
19.3763
19.3406
19.2818
19.166
19.3833
19.2168
19.0839
18.9717
18.8765
18.7985
18.7367
18.6893
18.6538
18.6274
18.6061
18.5842
18.5522
18.5011
18.4006
18.5678
18.4083
18.2803
18.1718
18.0794
18.0035
17.9431
17.8966
17.8616
17.8354
17.8145
17.7938
17.7652
17.7207
17.634
17.7524
17.6001
17.4771
17.3725
17.2833
17.2097
17.151
17.1055
17.0713
17.0456
17.0253
17.0058
16.9801
16.9415
16.867
16.9379
16.7929
16.675
16.5746
16.4887
16.4176
16.3607
16.3166
16.2833
16.2583
16.2387
16.2205
16.1974
16.1638
16.1002
16.1246
15.987
15.8744
15.7783
15.6959
15.6275
15.5727
15.5302
15.498
15.4739
15.4552
15.4382
15.4175
15.3883
15.3343
15.3132
15.1829
15.0758
14.9841
14.9053
14.8399
14.7874
14.7465
14.7157
14.6927
14.6749
14.6592
14.6406
14.6153
14.5697
14.5039
14.3809
14.2795
14.1923
14.1173
14.055
14.0049
13.9659
13.9366
13.9148
13.8982
13.8837
13.8671
13.8451
13.8069
13.6971
13.5815
13.4857
13.4032
13.3322
13.273
13.2255
13.1886
13.1609
13.1404
13.125
13.1119
13.0971
13.0782
13.0464
12.8931
12.7848
12.6947
12.6171
12.5501
12.4943
12.4495
12.4147
12.3888
12.3698
12.3557
12.3439
12.3309
12.3146
12.2885
12.0921
11.9911
11.9068
11.834
11.7712
11.7189
11.6769
11.6444
11.6203
11.6029
11.5902
11.5798
11.5685
11.5546
11.5334
11.294
11.2004
11.1219
11.0541
10.9956
10.9469
10.9078
10.8778
10.8557
10.8399
10.8287
10.8197
10.8101
10.7983
10.7813
10.499
10.4127
10.3402
10.2775
10.2234
10.1784
10.1424
10.1149
10.0949
10.0808
10.0711
10.0635
10.0555
10.0457
10.0324
9.70718
9.62828
9.56182
9.5043
9.45467
9.41345
9.38065
9.35577
9.33788
9.32566
9.31749
9.31139
9.30491
9.29687
9.28678
8.91857
8.84702
8.78665
8.7344
8.68938
8.65209
8.62258
8.60041
8.58476
8.57441
8.56785
8.5632
8.55822
8.55182
8.54443
8.13315
8.06893
8.01472
7.96784
7.92753
7.89428
7.86817
7.84882
7.83547
7.82704
7.82213
7.81893
7.81538
7.81049
7.80538
7.35087
7.29398
7.24598
7.20455
7.16906
7.13998
7.11739
7.10094
7.08993
7.0835
7.0803
7.07853
7.07632
7.0728
7.06956
6.57166
6.52208
6.48034
6.44447
6.41392
6.38912
6.37015
6.35663
6.34799
6.34368
6.34234
6.34198
6.34095
6.33861
6.33686
5.7954
5.75313
5.71772
5.6875
5.66199
5.64159
5.62632
5.61575
5.60953
5.60746
5.6081
5.60925
5.60919
5.60777
5.6071
5.02198
4.98701
4.95801
4.93354
4.9132
4.89732
4.88584
4.8783
4.87472
4.87483
4.87719
4.88003
4.88085
4.88007
4.88006
4.25126
4.22363
4.20111
4.18251
4.16748
4.15624
4.14868
4.14434
4.14365
4.14576
4.1495
4.15372
4.15565
4.15524
4.15544
3.48308
3.4628
3.44686
3.43423
3.42464
3.41819
3.41471
3.41376
3.41592
3.41994
3.42493
3.42999
3.43316
3.43289
3.43284
2.71709
2.70416
2.69484
2.68829
2.68424
2.68272
2.68346
2.68605
2.6909
2.69676
2.7029
2.7085
2.71248
2.71219
2.71144
1.95465
1.9494
1.94697
1.94687
1.94883
1.95268
1.95803
1.96441
1.97186
1.97938
1.98625
1.99183
1.99541
1.9944
1.992
1.20292
1.20716
1.21365
1.22175
1.23132
1.242
1.25325
1.26447
1.27529
1.28485
1.29242
1.29731
1.29895
1.29544
1.28894
0.406253
0.427118
0.443527
0.455768
0.465794
0.475047
0.484554
0.494927
0.506423
0.51882
0.531502
0.543536
0.553827
0.560647
0.562729
-44.1755
-43.3609
-43.4525
-43.8695
-44.2779
-44.6317
-44.8998
-45.0513
-45.063
-44.9187
-44.5927
-44.0665
-43.3167
-42.3276
-41.094
-39.6252
-37.9518
-36.1246
-34.2156
-32.293
-30.3859
-28.4746
-26.5221
-24.506
-22.4359
-20.3524
-18.3177
-16.3962
-14.6416
-13.1013
-11.8012
-10.7392
-9.94253
-9.43197
-9.21871
-9.30439
-9.68086
-10.3459
-11.3649
-12.3459
-40.7913
-41.0461
-42.6477
-44.3884
-45.9463
-47.3062
-48.4307
-49.2753
-49.8038
-49.9884
-49.8049
-49.239
-48.2848
-46.9502
-45.2588
-43.2513
-40.9869
-38.5399
-35.9952
-33.4258
-30.8693
-28.3291
-25.801
-23.2945
-20.8421
-18.4953
-16.3124
-14.345
-12.6317
-11.1995
-10.0602
-9.2136
-8.66963
-8.4325
-8.50177
-8.87044
-9.52291
-10.4488
-11.6973
-12.8306
-36.3474
-36.4533
-38.16
-39.988
-41.6468
-43.142
-44.4402
-45.4977
-46.2766
-46.7436
-46.8691
-46.6309
-46.0152
-45.02
-43.6564
-41.9503
-39.9437
-37.6955
-35.2786
-32.7637
-30.2034
-27.6349
-25.0938
-22.62
-20.2572
-18.0504
-16.0404
-14.2591
-12.7286
-11.4629
-10.4686
-9.7478
-9.30602
-9.14514
-9.26431
-9.65748
-10.3097
-11.2098
-12.4017
-13.4856
-31.997
-31.9293
-33.6115
-35.4014
-37.0295
-38.5108
-39.8182
-40.9131
-41.7632
-42.3389
-42.6144
-42.5698
-42.1925
-41.4793
-40.4374
-39.0854
-37.4552
-35.5932
-33.5572
-31.4044
-29.1795
-26.9196
-24.6638
-22.453
-20.3294
-18.3342
-16.5044
-14.8695
-13.4515
-12.2659
-11.3228
-10.6299
-10.1946
-10.0214
-10.1116
-10.4609
-11.0556
-11.8852
-12.9916
-13.9882
-28.0978
-27.9345
-29.6262
-31.4155
-33.0478
-34.5452
-35.8838
-37.0289
-37.9514
-38.6247
-39.0261
-39.1381
-38.9497
-38.4582
-37.6692
-36.598
-35.2705
-33.7251
-32.0086
-30.1659
-28.2332
-26.2438
-24.2348
-22.2457
-20.3177
-18.4912
-16.8029
-15.2827
-13.9536
-12.8332
-11.9345
-11.2682
-10.8435
-10.6668
-10.7403
-11.0606
-11.6145
-12.3915
-13.4284
-14.3553
-24.5882
-24.3465
-26.0379
-27.8205
-29.4526
-30.9623
-32.3279
-33.5181
-34.5062
-35.2685
-35.7846
-36.0386
-36.0209
-35.728
-35.164
-34.3401
-33.277
-32.0053
-30.5624
-28.9836
-27.2991
-25.5401
-23.743
-21.9466
-20.1914
-18.5168
-16.9585
-15.5457
-14.302
-13.2462
-12.3933
-11.7563
-11.346
-11.1701
-11.2318
-11.5281
-12.0465
-12.7762
-13.7506
-14.612
-21.4048
-21.0942
-22.7682
-24.5268
-26.1434
-27.6493
-29.0257
-30.2443
-31.281
-32.1146
-32.7269
-33.1039
-33.2368
-33.1218
-32.761
-32.1621
-31.3408
-30.321
-29.1311
-27.7983
-26.3476
-24.8077
-23.213
-21.6009
-20.0103
-18.4797
-17.0434
-15.7307
-14.5659
-13.569
-12.7575
-12.1461
-11.7475
-11.5706
-11.6195
-11.8919
-12.3754
-13.0593
-13.9721
-14.7744
-18.5012
-18.14
-19.7832
-21.5044
-23.0931
-24.5825
-25.9573
-27.1909
-28.2623
-29.1525
-29.8457
-30.3293
-30.5951
-30.6392
-30.4618
-30.0677
-29.4679
-28.6801
-27.7251
-26.6225
-25.3925
-24.0604
-22.6577
-21.2198
-19.7839
-18.3872
-17.0636
-15.8425
-14.7493
-13.8057
-13.0311
-12.4423
-12.0534
-11.8746
-11.9107
-12.1598
-12.6099
-13.2498
-14.1057
-14.8507
-15.8332
-15.4424
-17.0446
-18.7185
-20.2694
-21.7335
-23.0969
-24.3361
-25.4322
-26.3686
-27.1312
-27.7089
-28.0942
-28.2825
-28.2724
-28.0657
-27.6695
-27.0954
-26.3571
-25.4679
-24.4431
-23.3045
-22.0807
-20.8046
-19.512
-18.2389
-17.0188
-15.8816
-14.8539
-13.9591
-13.2184
-12.6503
-12.2704
-12.0898
-12.114
-12.3411
-12.7596
-13.3582
-14.1589
-14.8528
-13.3585
-12.9607
-14.5127
-16.1316
-17.6382
-19.0705
-20.4159
-21.6538
-22.7675
-23.7423
-24.5658
-25.2283
-25.7224
-26.043
-26.1868
-26.1531
-25.9447
-25.5679
-25.0297
-24.3376
-23.5027
-22.5433
-21.4848
-20.3582
-19.1977
-18.0383
-16.9134
-15.8534
-14.886
-14.0362
-13.327
-12.7785
-12.4072
-12.2252
-12.2384
-12.4451
-12.8337
-13.3929
-14.1429
-14.7868
-11.0425
-10.6521
-12.1512
-13.7099
-15.169
-16.5653
-17.8888
-19.1211
-20.2476
-21.2555
-22.134
-22.8741
-23.4687
-23.9119
-24.1986
-24.3254
-24.291
-24.0965
-23.7431
-23.233
-22.5734
-21.7792
-20.8732
-19.8841
-18.845
-17.7901
-16.7526
-15.7636
-14.8519
-14.0441
-13.3644
-12.8345
-12.4718
-12.289
-12.2923
-12.4798
-12.8404
-13.3625
-14.0629
-14.6623
-8.8472
-8.48625
-9.92743
-11.4243
-12.8346
-14.1935
-15.4936
-16.7184
-17.8553
-18.8933
-19.8228
-20.6355
-21.3243
-21.8822
-22.3024
-22.5787
-22.706
-22.6802
-22.4974
-22.1551
-21.6567
-21.0144
-20.2482
-19.3854
-18.4576
-17.4985
-16.5413
-15.6177
-14.7575
-13.9889
-13.3373
-12.8254
-12.4715
-12.2886
-12.283
-12.4528
-12.7868
-13.2734
-13.9283
-14.4832
-6.75198
-6.42922
-7.81357
-9.25
-10.6119
-11.9347
-13.2118
-14.4291
-15.5761
-16.6429
-17.6212
-18.5031
-19.2812
-19.9474
-20.4932
-20.9094
-21.1871
-21.3176
-21.292
-21.1039
-20.7535
-20.2502
-19.612
-18.8646
-18.0386
-17.1672
-16.2837
-15.4205
-14.6084
-13.8766
-13.2519