/*--------------------------------*- C++ -*----------------------------------*\
| =========                 |                                                 |
| \\      /  F ield         | OpenFOAM: The Open Source CFD Toolbox           |
|  \\    /   O peration     | Version:  2206                                  |
|   \\  /    A nd           | Website:  www.openfoam.com                      |
|    \\/     M anipulation  |                                                 |
\*---------------------------------------------------------------------------*/
FoamFile
{
    version     2.0;
    format      ascii;
    arch        "LSB;label=32;scalar=64";
    class       surfaceScalarField;
    location    "100";
    object      phi;
}
// * * * * * * * * * * * * * * * * * * * * * * * * * * * * * * * * * * * * * //

dimensions      [0 3 -1 0 0 0 0];

oriented        oriented;

internalField   nonuniform List<scalar> 
25506
(
0.000235879
0.0372641
0.000510921
0.0372253
0.000836418
0.0371745
0.000930597
0.0374062
0.000970828
0.0374597
0.000991375
0.0374799
0.000998146
0.0374932
0.0375018
0.000996276
0.00180593
0.0354581
0.00209694
0.0369345
0.00216165
0.0371098
0.00218875
0.0373794
0.00220152
0.0374471
0.00220436
0.0374775
0.00219933
0.0374984
0.0375127
0.00218824
0.00273065
0.0327273
0.00341944
0.0362458
0.00351343
0.0370159
0.00351872
0.0373744
0.00349703
0.037469
0.00346773
0.0375072
0.00343839
0.037528
0.0375413
0.00340964
0.0036643
0.0290627
0.0046855
0.0352246
0.00485376
0.0368476
0.0048621
0.0373663
0.0048169
0.0375145
0.00475909
0.0375655
0.00470413
0.0375832
0.0375905
0.00465475
0.0043368
0.0247254
0.00583138
0.0337299
0.00615938
0.0365195
0.00618971
0.0373363
0.00613293
0.0375715
0.00605745
0.0376415
0.00598363
0.0376572
0.037657
0.00591713
0.00458174
0.0201427
0.00664154
0.03167
0.00728963
0.0358713
0.00742882
0.0371973
0.00740402
0.0375967
0.00733654
0.0377095
0.00726113
0.037733
0.0377296
0.00718802
0.00434015
0.0158015
0.00697089
0.0290388
0.00810269
0.0347393
0.00849077
0.0368097
0.00858135
0.0375062
0.00856923
0.0377222
0.00852076
0.0377815
0.0377906
0.0084598
0.00368962
0.0121104
0.00680681
0.0259215
0.00854022
0.0330058
0.00932447
0.0360257
0.00963511
0.037196
0.00973946
0.0376182
0.00975449
0.0377666
0.0378169
0.00972715
0.0028096
0.00929958
0.0062283
0.0225025
0.0086194
0.0306146
0.00992975
0.034716
0.0105649
0.036561
0.0108504
0.0373332
0.0109645
0.0376523
0.0377884
0.0109932
0.00194908
0.00734916
0.00533497
0.0191167
0.00833061
0.0276189
0.0102838
0.0327633
0.0113641
0.0354813
0.011907
0.0367905
0.01216
0.0373993
0.0376855
0.0122611
0.00133472
0.00601387
0.00431251
0.0161386
0.00760861
0.0243227
0.0102218
0.0301508
0.0119043
0.0337988
0.0128448
0.0358506
0.0133173
0.0369263
0.0374736
0.0135298
0.000983519
0.00502985
0.00340587
0.0137163
0.00654998
0.0211784
0.00955429
0.0271467
0.0118794
0.0314739
0.0134078
0.0343222
0.0142842
0.0360499
0.0370332
0.0147225
0.000773332
0.00425649
0.00271422
0.0117752
0.00544259
0.01845
0.00841955
0.02417
0.0111278
0.0287654
0.0132519
0.0321985
0.0147115
0.0345898
0.0361507
0.0155952
0.000621501
0.00363491
0.00219602
0.0102006
0.00448523
0.0161608
0.00717816
0.021477
0.00991221
0.0260313
0.0123705
0.0297401
0.0143538
0.0326067
0.0347053
0.0157976
0.000502279
0.00313269
0.00179581
0.00890693
0.00371284
0.0142437
0.00606159
0.0191282
0.00860818
0.0234845
0.0111117
0.0272366
0.0133704
0.0303477
0.0328197
0.0152571
0.000408092
0.00272455
0.00148164
0.00783325
0.0030983
0.0126269
0.00512938
0.0170969
0.00742099
0.0211928
0.00980286
0.0248545
0.0121134
0.0280373
0.0307127
0.0142197
0.000334559
0.00238993
0.00123395
0.00693364
0.00260906
0.0112517
0.00436864
0.015337
0.00640666
0.0191546
0.00860291
0.0226582
0.0108347
0.0258055
0.0285597
0.0129883
0.000277365
0.00211244
0.00103832
0.00617246
0.00221827
0.0100715
0.00375082
0.0138042
0.00555996
0.0173453
0.00755862
0.0206593
0.00965457
0.0237095
0.0264598
0.0117541
0.000232873
0.00187942
0.000883442
0.00552167
0.00190518
0.00904957
0.00324915
0.01246
0.0048593
0.0157349
0.00667105
0.0188473
0.00861388
0.0217665
0.0244604
0.0106134
0.000198228
0.00168104
0.00076073
0.00495894
0.00165414
0.00815591
0.00284217
0.0112717
0.00428272
0.0142941
0.00592686
0.0172029
0.00772016
0.0199731
0.0225771
0.00960329
0.000171303
0.00150957
0.000663789
0.00446626
0.00145348
0.00736598
0.00251331
0.0102116
0.00381128
0.0129959
0.00530979
0.0157042
0.00696624
0.0183165
0.0208098
0.00873347
0.000150572
0.00135886
0.000587825
0.00402882
0.00129436
0.00665924
0.00224975
0.00925599
0.0034294
0.0118161
0.00480409
0.0143293
0.00634017
0.0167803
0.01915
0.00799985
0.000134858
0.00122387
0.00052921
0.00363432
0.00116996
0.0060183
0.00204139
0.00838438
0.00312432
0.010733
0.00439574
0.0130577
0.00582882
0.015347
0.0175857
0.00739297
0.0001233
0.00110047
0.00048508
0.00327241
0.00107487
0.00542836
0.0018801
0.007579
0.00288545
0.00972745
0.00407255
0.0118705
0.00541972
0.0139997
0.0161032
0.00690218
0.000115163
0.00098521
0.000453105
0.00293437
0.00100459
0.00487674
0.001759
0.00682447
0.00270372
0.00878261
0.00382375
0.0107503
0.00510143
0.012722
0.0146882
0.0065162
0.000109841
0.000875303
0.000431148
0.00261297
0.000954949
0.00435284
0.00167167
0.00610767
0.00257049
0.00788368
0.00363893
0.00968179
0.00486229
0.0114985
0.0133269
0.00622365
0.000106685
0.000768561
0.000417022
0.00230258
0.000921562
0.00384822
0.00161119
0.00541796
0.00247636
0.00701844
0.00350642
0.00865165
0.00468913
0.0103157
0.0120057
0.00601015
0.000104989
0.000663536
0.000408153
0.00199936
0.000899237
0.00335708
0.00156933
0.00474782
0.00240986
0.00617784
0.00341182
0.00764965
0.00456489
0.00916261
0.0107134
0.00585722
0.000103855
0.00055965
0.000401399
0.00170179
0.000881561
0.00287688
0.00153576
0.00409357
0.00235655
0.005357
0.00333654
0.00666962
0.0044674
0.00803172
0.00944148
0.00573928
0.000102212
0.000457422
0.000392914
0.00141106
0.000860715
0.00240905
0.00149788
0.00345638
0.00229857
0.00455628
0.00325743
0.00571073
0.00436832
0.0069208
0.00818619
0.00562364
9.87867e-05
0.00035862
0.000378278
0.00113156
0.000827709
0.00195959
0.00144113
0.00284293
0.00221519
0.0037822
0.00314728
0.00477861
0.00423406
0.005834
0.00694982
0.00547039
9.22382e-05
0.000266378
0.00035281
0.000870975
0.000773076
0.00153932
0.00135015
0.00226583
0.00208428
0.00304806
0.00297668
0.00388618
0.00402769
0.00478298
0.00574212
0.00523542
8.12958e-05
0.000185076
0.000312244
0.000640024
0.000688188
0.00116336
0.00121076
0.00174324
0.00188504
0.00237376
0.00271729
0.00305392
0.00371276
0.0037875
0.00458102
0.00487384
6.50982e-05
0.000119977
0.00025373
0.000451385
0.000567251
0.000849834
0.00101307
0.00129741
0.0016021
0.00178472
0.00234672
0.00230929
0.00325858
0.00287563
0.00349351
0.0043461
4.35867e-05
7.63865e-05
0.00017729
0.000317679
0.000410117
0.000617
0.000755823
0.000951696
0.00123137
0.00130917
0.00185574
0.00168491
0.00264826
0.0020831
0.00251609
0.00362567
1.80776e-05
5.83067e-05
8.75447e-05
0.000248205
0.000225702
0.000478836
0.000451934
0.000725453
0.000788029
0.000973066
0.00125856
0.00121438
0.00189079
0.00145087
0.00169472
0.00271217
-8.27974e-06
6.65818e-05
-4.78663e-06
0.000244706
3.50263e-05
0.000439016
0.000133884
0.000626588
0.000315357
0.000791588
0.000606356
0.000923378
0.00103963
0.00101759
0.00108044
0.00165391
-3.04844e-05
9.70635e-05
-8.29876e-05
0.000297203
-0.000128615
0.000484636
-0.000144634
0.000642602
-0.000109787
0.000756736
-7.62091e-08
0.000813667
0.000216695
0.000800822
0.000710162
0.00058697
-4.28013e-05
0.000139863
-0.000128174
0.000382572
-0.000226793
0.000583252
-0.000318371
0.000734174
-0.000386383
0.000824747
-0.000413688
0.00084097
-0.000375957
0.000763094
0.000558846
-0.000224649
-4.18385e-05
0.000181699
-0.000129029
0.000469761
-0.000235173
0.000689391
-0.000341842
0.000840841
-0.000434552
0.000917453
-0.000499146
0.000905566
-0.000516327
0.00078027
0.000491275
-0.000448765
-2.34227e-05
0.00020512
-7.3354e-05
0.00051969
-0.000132672
0.000748706
-0.00018639
0.000894556
-0.000219672
0.000950732
-0.000215743
0.000901635
-0.000152763
0.000717286
0.000338511
-1.5494e-05
0.000220613
-4.9054e-05
0.000553247
-8.77132e-05
0.000787363
-0.000118804
0.000925644
-0.000129999
0.000961923
-0.000110349
0.000881983
-5.64767e-05
0.000663411
0.000282033
-8.72506e-06
0.000229336
-2.80888e-05
0.000572609
-4.99615e-05
0.000809232
-6.58989e-05
0.000941578
-6.83646e-05
0.000964387
-5.29406e-05
0.000866557
-2.35611e-05
0.00063403
0.000258472
-3.4623e-06
0.000232797
-1.1702e-05
0.000580846
-2.11137e-05
0.000818641
-2.75557e-05
0.000948017
-2.75967e-05
0.000964425
-2.00614e-05
0.00085902
-8.13215e-06
0.0006221
0.000250339
6.39936e-07
0.000232155
1.06965e-06
0.000580414
1.01495e-06
0.000818693
9.07709e-07
0.000948121
1.10976e-06
0.000964221
1.399e-06
0.000858728
1.0129e-06
0.000622484
0.000251351
4.11247e-06
0.000228041
1.17372e-05
0.000572787
1.93481e-05
0.000811079
2.43704e-05
0.000943096
2.4731e-05
0.000963856
1.91211e-05
0.000864336
8.63807e-06
0.000632964
0.000259988
7.27693e-06
0.000220762
2.11849e-05
0.000558876
3.55961e-05
0.000796664
4.57425e-05
0.000932944
4.75362e-05
0.000962059
3.79414e-05
0.000873927
1.79394e-05
0.000652963
0.000277926
9.95468e-06
0.000210806
2.87937e-05
0.000540034
4.87463e-05
0.000776707
6.4111e-05
0.000917576
6.96468e-05
0.000956519
5.99309e-05
0.000883639
3.18841e-05
0.000681006
0.000309808
1.12757e-05
0.000199527
3.1816e-05
0.000519492
5.37075e-05
0.000754812
7.22136e-05
0.000899065
8.31554e-05
0.000945574
8.04962e-05
0.000886295
5.3457e-05
0.00070804
0.000363263
9.70019e-06
0.000189826
2.53997e-05
0.00050379
4.0592e-05
0.000739615
5.29872e-05
0.000886667
6.1804e-05
0.000936753
6.57739e-05
0.00088232
6.00341e-05
0.000713777
0.000423296
3.91837e-06
0.000185906
2.96254e-06
0.000504743
-8.68746e-06
0.000751262
-3.359e-05
0.000911564
-7.58858e-05
0.000979044
-0.000147512
0.000953943
-0.000280073
0.000846329
0.000687792
-0.000544569
-1.16278e-05
0.000197533
-4.89195e-05
0.000542031
-0.000112103
0.000814442
-0.000201163
0.00100062
-0.000318916
0.00109679
-0.000474182
0.0011092
-0.000684465
0.00105661
0.000977642
-0.000974317
-2.83575e-05
0.000225887
-0.000104307
0.000617977
-0.000219679
0.000929811
-0.000367704
0.00114864
-0.000543772
0.00127286
-0.000745698
0.00131112
-0.000971835
0.00128275
0.00121837
-0.00121256
-4.35944e-05
0.000269478
-0.000154408
0.000728787
-0.000314942
0.00109034
-0.000509828
0.00134353
-0.000725332
0.00148836
-0.000948616
0.00153441
-0.00116601
0.00150015
0.00141178
-0.00135943
-5.65575e-05
0.00032603
-0.000196591
0.000868816
-0.000393718
0.00128746
-0.000624168
0.00157398
-0.000865734
0.00172993
-0.00109697
0.00176566
-0.00129671
0.00169988
0.00155915
-0.00144408
-6.7211e-05
0.000393236
-0.000230568
0.00103217
-0.000456006
0.0015129
-0.000712627
0.0018306
-0.000971071
0.00198837
-0.0012026
0.00199719
-0.00137938
0.00187667
0.00165667
-0.0014769
-7.52171e-05
0.000468446
-0.000255148
0.00121209
-0.000499929
0.00175768
-0.000773594
0.00210426
-0.0010413
0.00225608
-0.00126765
0.00222354
-0.00141687
0.00202588
0.00169666
-0.00145687
-7.92644e-05
0.000547705
-0.00026623
0.00139906
-0.00051814
0.00200958
-0.000796903
0.00238303
-0.00106462
0.00252381
-0.00128018
0.00243909
-0.00139754
0.00214323
0.0016684
-0.00136927
-7.69852e-05
0.000624683
-0.000256614
0.00157868
-0.000497267
0.00225023
-0.000762444
0.0026482
-0.00101485
0.00277622
-0.00121049
0.00263473
-0.00129193
0.0022247
0.00155535
-0.00117887
-6.60133e-05
0.00069069
-0.000218913
0.00173158
-0.000422415
0.00245373
-0.000644326
0.00287012
-0.00085135
0.00298324
-0.00100194
0.00278533
-0.00103104
0.00225379
0.00133776
-0.000813451
-4.50095e-05
0.000735694
-0.000150267
0.00183683
-0.000285553
0.00258901
-0.000419087
0.00300365
-0.000514774
0.00307892
-0.000527645
0.00279819
-0.000393473
0.00211961
0.000944283
-2.52126e-05
0.000760901
-8.56856e-05
0.0018973
-0.00016038
0.0026637
-0.000224578
0.00306784
-0.000252014
0.00310635
-0.000218442
0.00276461
-0.000114611
0.00201577
0.00082967
-1.18988e-05
0.000772795
-4.20003e-05
0.00192739
-7.84631e-05
0.00270016
-0.000106346
0.00309572
-0.000111672
0.00311167
-8.6653e-05
0.00273959
-3.87946e-05
0.00196791
0.000790873
-4.49715e-06
0.000777288
-1.73009e-05
0.00194019
-3.2986e-05
0.00271584
-4.39734e-05
0.00310671
-4.39752e-05
0.00311166
-3.14114e-05
0.00272702
-1.24702e-05
0.00194896
0.000778401
-1.08309e-06
0.000778367
-5.41778e-06
0.00194452
-1.11234e-05
0.00272154
-1.493e-05
0.00311051
-1.43378e-05
0.00311107
-9.33975e-06
0.00272201
-3.10412e-06
0.00194272
0.000775295
1.64726e-07
0.000778199
-6.40941e-07
0.00194532
-2.1183e-06
0.00272301
-3.13376e-06
0.00311152
-2.84209e-06
0.00311077
-1.44342e-06
0.00272061
-1.7839e-07
0.00194145
0.000775115
4.34955e-07
0.00077776
7.83279e-07
0.00194497
8.17697e-07
0.00272297
7.64878e-07
0.00311157
8.17376e-07
0.00311071
8.45011e-07
0.00272057
5.20263e-07
0.00194177
0.000775634
3.55667e-07
0.000777401
8.8654e-07
0.00194443
1.29819e-06
0.00272256
1.50806e-06
0.00311135
1.48239e-06
0.00311073
1.15537e-06
0.00272089
5.34389e-07
0.00194238
0.000776166
2.0459e-07
0.000777193
6.09124e-07
0.00194402
1.00171e-06
0.00272216
1.2363e-06
0.00311111
1.21976e-06
0.00311074
9.12195e-07
0.0027212
3.95309e-07
0.00194289
0.00077656
7.9147e-08
0.000777111
3.1483e-07
0.00194378
5.93561e-07
0.00272187
7.91249e-07
0.0031109
8.10569e-07
0.00311072
6.12386e-07
0.00272139
2.65013e-07
0.00194324
0.000776823
-2.09667e-09
0.000777109
1.04642e-07
0.00194367
2.81219e-07
0.00272169
4.37265e-07
0.00311074
4.87945e-07
0.00311066
3.89787e-07
0.00272148
1.76583e-07
0.00194344
0.000776998
-4.56378e-08
0.000777152
-1.8022e-08
0.00194364
8.76744e-08
0.00272158
2.12715e-07
0.00311061
2.83836e-07
0.00311058
2.51336e-07
0.00272151
1.23816e-07
0.00194357
0.00077712
-6.52159e-08
0.000777212
-7.90122e-08
0.00194365
-1.34589e-08
0.0027215
8.93428e-08
0.0031105
1.6806e-07
0.00311049
1.7291e-07
0.00272149
9.3913e-08
0.00194364
0.000777213
-6.92566e-08
0.000777279
-1.00726e-07
0.00194367
-5.90418e-08
0.00272145
2.84929e-08
0.0031104
1.07805e-07
0.00311041
1.28927e-07
0.00272147
7.61025e-08
0.00194369
0.000777287
-6.63903e-08
0.00077734
-1.0251e-07
0.0019437
-7.16108e-08
0.00272142
2.66209e-09
0.00311032
7.54512e-08
0.00311032
1.02716e-07
0.00272143
6.38813e-08
0.00194372
0.000777349
-5.80882e-08
0.000777395
-9.21103e-08
0.00194373
-6.99586e-08
0.00272139
-6.99034e-09
0.00311025
5.75687e-08
0.00311025
8.34292e-08
0.0027214
5.33776e-08
0.00194374
0.000777401
-4.89241e-08
0.000777438
-7.79023e-08
0.00194375
-5.93592e-08
0.00272136
-8.85069e-09
0.00311019
4.35782e-08
0.00311019
6.66551e-08
0.00272137
4.30907e-08
0.00194376
0.000777442
-3.71561e-08
0.000777472
-5.96205e-08
0.00194377
-4.74446e-08
0.00272134
-8.81924e-09
0.00311014
3.2078e-08
0.00311015
4.94632e-08
0.00272135
3.21881e-08
0.00194377
0.000777472
-2.62128e-08
0.000777492
-4.17902e-08
0.00194378
-3.25799e-08
0.00272133
-7.46216e-09
0.00311011
1.91921e-08
0.00311011
3.19575e-08
0.00272133
2.08052e-08
0.00194378
0.000777491
-1.33994e-08
0.000777502
-2.17064e-08
0.00194378
-1.90449e-08
0.00272132
-6.72589e-09
0.00311009
7.19209e-09
0.00311009
1.34728e-08
0.00272131
8.88618e-09
0.00194378
0.000777499
-1.9237e-09
0.000777498
-3.03674e-09
0.00194378
-3.50233e-09
0.00272131
-5.2243e-09
0.00311009
-6.1758e-09
0.00311009
-4.8722e-09
0.00272131
-3.09111e-09
0.00194377
0.000777494
1.10166e-08
0.000777483
1.73124e-08
0.00194376
1.03755e-08
0.00272131
-4.2216e-09
0.0031101
-1.80522e-08
0.00311009
-2.33284e-08
0.0027213
-1.50504e-08
0.00194375
0.000777477
2.2331e-08
0.000777454
3.57929e-08
0.00194374
2.58923e-08
0.00272132
-2.28759e-09
0.00311012
-3.05825e-08
0.00311011
-4.08238e-08
0.00272131
-2.65333e-08
0.00194373
0.000777449
3.45434e-08
0.000777415
5.50125e-08
0.00194372
3.89916e-08
0.00272133
-1.32167e-09
0.00311015
-4.16498e-08
0.00311015
-5.79618e-08
0.00272132
-3.76102e-08
0.00194371
0.000777409
4.46023e-08
0.000777364
7.08734e-08
0.00194368
5.13698e-08
0.00272134
-1.64114e-09
0.0031102
-5.47532e-08
0.0031102
-7.47082e-08
0.00272133
-4.81659e-08
0.00194367
0.000777359
5.40303e-08
0.000777306
8.36666e-08
0.00194365
5.59988e-08
0.00272136
-8.79951e-09
0.00311026
-7.12852e-08
0.00311025
-9.37256e-08
0.00272135
-5.90032e-08
0.00194363
0.000777298
5.87945e-08
0.00077724
8.58038e-08
0.00194362
4.82254e-08
0.00272139
-3.02242e-08
0.00311033
-1.00829e-07
0.00311032
-1.19176e-07
0.00272136
-7.15316e-08
0.00194358
0.000777225
5.74557e-08
0.000777178
7.0237e-08
0.0019436
1.06982e-08
0.00272145
-8.34528e-08
0.00311042
-1.55869e-07
0.00311038
-1.61035e-07
0.00272136
-8.93836e-08
0.0019435
0.000777134
4.21587e-08
0.000777129
1.91371e-08
0.00194361
-7.7014e-08
0.00272154
-1.93473e-07
0.00311053
-2.61838e-07
0.00311045
-2.34821e-07
0.00272133
-1.18607e-07
0.00194338
0.000777013
5.18956e-09
0.000777119
-8.79091e-08
0.0019437
-2.4924e-07
0.00272169
-3.9626e-07
0.00311067
-4.48988e-07
0.00311049
-3.64256e-07
0.00272123
-1.6929e-07
0.00194318
0.000776841
-6.65194e-08
0.000777179
-2.75288e-07
0.0019439
-5.29611e-07
0.00272194
-7.17213e-07
0.00311085
-7.45317e-07
0.00311051
-5.71717e-07
0.00272105
-2.53391e-07
0.00194285
0.000776586
-1.78581e-07
0.000777352
-5.38909e-07
0.00194425
-8.96887e-07
0.00272229
-1.12012e-06
0.00311107
-1.11977e-06
0.00311051
-8.50592e-07
0.00272078
-3.76864e-07
0.00194237
0.000776207
-3.14764e-07
0.00077766
-7.85088e-07
0.00194472
-1.15414e-06
0.00272265
-1.35443e-06
0.00311126
-1.35267e-06
0.0031105
-1.0743e-06
0.00272049
-5.08601e-07
0.0019418
0.000775696
-3.82583e-07
0.000778038
-6.69268e-07
0.001945
-6.73738e-07
0.00272265
-6.2356e-07
0.0031112
-7.02413e-07
0.00311057
-7.72433e-07
0.00272055
-4.95558e-07
0.00194151
0.000775198
-1.22273e-07
0.000778153
6.97373e-07
0.00194417
2.14162e-06
0.0027212
3.11055e-06
0.00311022
2.79715e-06
0.00311087
1.41142e-06
0.00272193
1.67744e-07
0.00194275
0.000775363
1.06517e-06
0.000777085
5.2567e-06
0.00193997
1.07461e-05
0.0027157
1.43875e-05
0.00310657
1.37844e-05
0.00311147
8.95017e-06
0.00272675
2.95682e-06
0.00194873
0.000778318
4.3165e-06
0.000772761
1.6622e-05
0.00192766
3.16968e-05
0.00270062
4.22358e-05
0.00309603
4.21957e-05
0.0031115
3.00942e-05
0.00273885
1.19248e-05
0.0019669
0.000790242
1.14102e-05
0.000761348
4.03889e-05
0.00189867
7.55307e-05
0.00266547
0.000102378
0.00306917
0.000107433
0.00310643
8.3265e-05
0.00276301
3.72386e-05
0.00201292
0.000827481
2.4285e-05
0.000737056
8.28142e-05
0.00184014
0.000155205
0.00259307
0.000217325
0.00300704
0.000243619
0.00308013
0.000210781
0.00279584
0.000110379
0.00211332
0.000937857
4.37191e-05
0.000693335
0.000146493
0.00173736
0.000278721
0.00246083
0.000408861
0.00287689
0.000501131
0.00298784
0.000511712
0.00278526
0.000379528
0.00224549
0.00131739
6.50028e-05
0.000628327
0.000216479
0.00158587
0.000418307
0.00225899
0.000637575
0.00265761
0.000839749
0.00278566
0.000981545
0.00264344
0.000996297
0.00223075
0.00155149
0.000762185
7.78419e-05
0.000550485
0.000260659
0.00140305
0.000506596
0.00201305
0.000778433
0.00238576
0.00103809
0.00252599
0.0012411
0.00244044
0.00132981
0.00214203
0.00166057
0.00122073
8.26778e-05
0.000467803
0.000279157
0.00120657
0.000545533
0.00174667
0.000842463
0.00208882
0.00113115
0.0022373
0.0013701
0.00220146
0.00151336
0.00199879
0.0016613
0.00151262
8.15064e-05
0.000386302
0.000278019
0.00101006
0.00054705
0.00147764
0.000850088
0.00178578
0.00115036
0.00193701
0.00141164
0.0019402
0.00159851
0.00181189
0.00157928
0.00168054
7.67274e-05
0.000309571
0.000264509
0.000822271
0.000524501
0.00121764
0.000821049
0.00148922
0.00112095
0.00163711
0.00139325
0.00166787
0.00161041
0.00159476
0.00143844
0.00175124
7.01575e-05
0.00023942
0.000244243
0.000648185
0.000488019
0.000973863
0.000769724
0.00120751
0.00106014
0.00134669
0.00133307
0.00139498
0.00156621
0.0013616
0.0012612
0.00174348
6.28725e-05
0.000176545
0.000220714
0.000490345
0.000444005
0.000750581
0.000705078
0.000946435
0.000978671
0.0010731
0.00124244
0.00113119
0.00147791
0.00112618
0.00106752
0.00167159
5.5435e-05
0.00012112
0.000195829
0.000349959
0.000396029
0.000550383
0.000632306
0.00071017
0.000882945
0.00082247
0.00112891
0.000885274
0.00135432
0.000900752
0.000874415
0.00154746
4.80698e-05
7.3057e-05
0.000170501
0.000227539
0.000346009
0.000374892
0.000554378
0.000501807
0.000777092
0.000599774
0.000997775
0.000664568
0.0012028
0.000695787
0.000695718
0.00138148
4.08678e-05
3.22053e-05
0.000145169
0.000123256
0.00029496
0.000225112
0.000473147
0.000323633
0.000663963
0.000408954
0.000853462
0.000475111
0.00102964
0.000519554
0.000542331
0.00118303
3.38473e-05
-1.6283e-06
0.000120045
3.70716e-05
0.00024354
0.000101628
0.000389941
0.000177226
0.000545952
0.000252943
0.000699609
0.000321396
0.000840678
0.000378494
0.000422436
0.000960541
2.70219e-05
-2.86398e-05
9.52923e-05
-3.11904e-05
0.000192254
4.6649e-06
0.000305901
6.3569e-05
0.000425075
0.000133738
0.000539744
0.000206714
0.000641067
0.000277135
0.00034194
0.000721576
2.04116e-05
-4.90452e-05
7.10671e-05
-8.18437e-05
0.000141592
-6.5869e-05
0.000222074
-1.6937e-05
0.000303298
5.24815e-05
0.000376907
0.000133059
0.000435531
0.000218496
0.000304744
0.000472691
1.40449e-05
-6.30873e-05
4.75422e-05
-0.000115342
9.20299e-05
-0.000110369
0.000139461
-6.43886e-05
0.000182355
9.55285e-06
0.000213933
0.000101444
0.000228146
0.000204238
0.000313221
0.000219684
7.9544e-06
-7.10404e-05
2.48902e-05
-0.000132281
4.40324e-05
-0.000129522
5.8982e-05
-7.93598e-05
6.38408e-05
4.66791e-06
5.32664e-05
0.000111978
2.25257e-05
0.000234952
0.000368352
-3.26731e-05
2.17135e-06
-7.32144e-05
3.26663e-06
-0.000133381
-2.00073e-06
-0.000124268
-1.85521e-05
-6.28282e-05
-5.08704e-05
3.69518e-05
-0.000102938
0.00016401
-0.000178289
0.000310248
0.000470088
-0.000280032
-3.27625e-06
-6.99433e-05
-1.71955e-05
-0.000119472
-4.57203e-05
-9.57617e-05
-9.24583e-05
-1.61203e-05
-0.000160583
0.000105044
-0.000252858
0.000256236
-0.000371626
0.000428978
0.000617399
-0.000519016
-8.3686e-06
-6.15834e-05
-3.63885e-05
-9.14654e-05
-8.68473e-05
-4.53244e-05
-0.000162161
5.91675e-05
-0.000264342
0.000207189
-0.000395008
0.000386868
-0.000555459
0.000589381
0.000808681
-0.000746729
-1.30907e-05
-4.85028e-05
-5.4233e-05
-5.03378e-05
-0.000125163
2.5585e-05
-0.000227234
0.000161212
-0.000361402
0.000341332
-0.000528275
0.00055371
-0.000728141
0.000789231
0.00104166
-0.000961187
-1.7436e-05
-3.1079e-05
-7.06821e-05
2.89341e-06
-0.00016053
0.000115412
-0.000287379
0.000288041
-0.000451257
0.000505184
-0.000651844
0.000754277
-0.000888573
0.00102592
0.00131379
-0.00116068
-2.14043e-05
-9.68675e-06
-8.57151e-05
6.71895e-05
-0.000192871
0.000222549
-0.000342431
0.000437578
-0.00053358
0.000696312
-0.000765204
0.000985866
-0.00103591
0.00129661
0.00162207
-0.00134426
-2.50018e-05
1.53026e-05
-9.93371e-05
0.00014151
-0.000222176
0.000345369
-0.000392318
0.000607699
-0.00060822
0.000912189
-0.000868043
0.00124567
-0.00116974
0.00159826
0.00196343
-0.00151112
-2.82367e-05
4.35279e-05
-0.000111569
0.000224828
-0.000248463
0.000482246
-0.000437047
0.000796263
-0.000675131
0.00115025
-0.000960269
0.00153078
-0.00128981
0.00192777
0.00233458
-0.00166101
-3.11201e-05
7.46362e-05
-0.00012244
0.000316135
-0.000271786
0.000631575
-0.000476684
0.00100114
-0.000734391
0.00140794
-0.00104194
0.00183829
-0.00139618
0.00228196
0.00273222
-0.00179386
-3.36616e-05
0.000108287
-0.000131987
0.000414447
-0.000292213
0.000791787
-0.000511343
0.00122026
-0.000786149
0.00168273
-0.00111323
0.00216535
-0.00148903
0.00265772
0.00315304
-0.00190991
-3.5872e-05
0.000144147
-0.000140247
0.000518809
-0.000309831
0.000961358
-0.000541164
0.00145158
-0.000830618
0.00197217
-0.00117443
0.00250915
-0.00156873
0.00305198
0.00359381
-0.00200953
-3.77605e-05
0.000181897
-0.000147263
0.0006283
-0.000324733
0.00113882
-0.000566315
0.00169315
-0.000868045
0.0022739
-0.00122588
0.00286698
-0.00163569
0.00346178
0.00405136
-0.00209327
-3.93373e-05
0.000221225
-0.000153077
0.00074203
-0.000337023
0.00132276
-0.000586979
0.0019431
-0.000898721
0.00258564
-0.00126799
0.00323625
-0.00169046
0.00388424
0.00452266
-0.00216177
-4.06125e-05
0.000261831
-0.000157737
0.000859148
-0.000346811
0.00151183
-0.000603363
0.00219965
-0.000922957
0.00290524
-0.00130119
0.00361448
-0.00173361
0.00431667
0.0050048
-0.00221574
-4.15986e-05
0.000303425
-0.000161296
0.000978842
-0.000354221
0.00170475
-0.000615681
0.00246111
-0.000941096
0.00323066
-0.00132595
0.00399935
-0.00176576
0.00475648
0.00549501
-0.00225596
-4.23085e-05
0.000345731
-0.000163809
0.00110034
-0.00035938
0.00190033
-0.000624165
0.0027259
-0.000953484
0.00356
-0.00134278
0.00438866
-0.00178754
0.00520125
0.0059907
-0.00228322
-4.2757e-05
0.000388488
-0.000165336
0.00122292
-0.000362423
0.00209742
-0.000629049
0.00299254
-0.000960488
0.00389145
-0.00135218
0.00478038
-0.00179964
0.00564872
0.00648944
-0.00229835
-4.29595e-05
0.000431448
-0.00016594
0.00134591
-0.000363491
0.00229498
-0.000630581
0.00325964
-0.000962478
0.00422337
-0.00135466
0.00517258
-0.00180271
0.00609679
0.00698894
-0.0023022
-4.29336e-05
0.000474382
-0.000165688
0.00146866
-0.00036273
0.00249203
-0.00062901
0.00352593
-0.000959834
0.0045542
-0.00135075
0.00556351
-0.00179745
0.00654349
0.00748711
-0.0022956
-4.26963e-05
0.00051708
-0.000164647
0.00159062
-0.000360286
0.00268767
-0.000624588
0.00379024
-0.000952929
0.00488256
-0.00134097
0.00595157
-0.00178451
0.00698705
0.007982
-0.00227938
-4.22659e-05
0.000559346
-0.000162886
0.00171124
-0.000356306
0.00288109
-0.000617564
0.0040515
-0.000942139
0.00520715
-0.00132582
0.00633527
-0.00176457
0.00742582
0.00847182
-0.00225437
-4.16599e-05
0.000601007
-0.000160473
0.00183005
-0.000350938
0.00307156
-0.000608188
0.00430876
-0.000927832
0.0055268
-0.00130582
0.00671327
-0.00173828
0.00785829
0.00895494
-0.00222139
-4.08972e-05
0.000641904
-0.000157476
0.00194663
-0.000344325
0.00325842
-0.000596704
0.00456114
-0.000910374
0.00584048
-0.00128146
0.00708436
-0.00170629
0.00828312
0.00942988
-0.00218122
-3.99949e-05
0.0006819
-0.000153962
0.0020606
-0.00033661
0.00344107
-0.000583351
0.00480789
-0.000890117
0.00614726
-0.00125323
0.00744748
-0.00166921
0.00869911
0.00989533
-0.00213464
-3.89712e-05
0.000720871
-0.000149995
0.00217162
-0.000327931
0.00361901
-0.00056836
0.00504832
-0.000867405
0.00644631
-0.00122159
0.00780167
-0.00162765
0.00910518
0.0103501
-0.0020824
-3.78421e-05
0.000758713
-0.000145637
0.00227942
-0.000318417
0.00379179
-0.000551953
0.00528186
-0.000842566
0.00673693
-0.00118699
0.0081461
-0.0015822
0.00950039
0.0107931
-0.00202523
-3.66244e-05
0.000795335
-0.000140948
0.00238374
-0.000308197
0.00395904
-0.000534341
0.005508
-0.000815916
0.00701851
-0.00114987
0.00848006
-0.00153341
0.00988394
0.0112235
-0.00196381
-3.53322e-05
0.000830664
-0.000135984
0.00248438
-0.000297388
0.00412045
-0.000515728
0.00572634
-0.000787754
0.00729054
-0.00111064
0.00880296
-0.00148183
0.0102551
0.0116405
-0.00189881
-3.39807e-05
0.00086464
-0.000130798
0.00258119
-0.000286104
0.00427575
-0.000496303
0.00593654
-0.000758365
0.0075526
-0.00106969
0.00911428
-0.00142794
0.0106134
0.0120434
-0.00183086
-3.25823e-05
0.000897217
-0.000125439
0.00267404
-0.000274451
0.00442476
-0.000476246
0.00613832
-0.000728015
0.00780437
-0.00102738
0.00941365
-0.00137224
0.0109582
0.0124317
-0.00176056
-3.11501e-05
0.00092836
-0.000119954
0.00276284
-0.000262527
0.00456733
-0.000455723
0.00633151
-0.000696953
0.00804559
-0.000984061
0.00970075
-0.00131516
0.0112893
0.012805
-0.00168847
-2.96948e-05
0.000958048
-0.000114385
0.00284752
-0.000250424
0.00470336
-0.00043489
0.00651597
-0.00066541
0.00827611
-0.000940048
0.00997538
-0.00125714
0.0116064
0.013163
-0.00161511
-2.82277e-05
0.000986268
-0.000108772
0.00292805
-0.000238225
0.00483281
-0.000413887
0.00669162
-0.000633601
0.00849582
-0.000895637
0.0102374
-0.00119854
0.0119093
0.0135054
-0.00154097
-2.67574e-05
0.00101302
-0.00010315
0.00300443
-0.000226006
0.00495566
-0.000392846
0.00685846
-0.000601719
0.00870469
-0.000851099
0.0104868
-0.00113973
0.0121979
0.0138322
-0.00146649
-2.52934e-05
0.00103831
-9.75519e-05
0.00307668
-0.000213838
0.00507194
-0.000371884
0.0070165
-0.000569944
0.00890275
-0.000806683
0.0107235
-0.00108104
0.0124722
0.0141432
-0.0013921
-2.38428e-05
0.00106214
-9.20065e-05
0.00314484
-0.000201782
0.00518171
-0.000351111
0.00716582
-0.000538437
0.00909007
-0.000762615
0.0109477
-0.00102277
0.0127324
0.0144386
-0.00131816
-2.24135e-05
0.00108455
-8.65401e-05
0.00320896
-0.000189895
0.00528507
-0.00033062
0.00730654
-0.000507345
0.00926679
-0.000719097
0.0111594
-0.00096518
0.0129785
0.0147184
-0.00124503
-2.10107e-05
0.00110556
-8.11758e-05
0.00326912
-0.000178226
0.00538212
-0.000310498
0.00743881
-0.000476795
0.00943309
-0.000676312
0.011359
-0.000908514
0.0132107
0.0149829
-0.00117301
-1.96407e-05
0.00112519
-7.59337e-05
0.0033254
-0.00016682
0.005473
-0.00029082
0.0075628
-0.000446903
0.00958917
-0.000634419
0.0115465
-0.000852987
0.0134292
0.0152323
-0.00110237
-1.83072e-05
0.0011435
-7.08313e-05
0.00337792
-0.000155714
0.00555788
-0.00027165
0.00767873
-0.000417766
0.00973529
-0.000593559
0.0117223
-0.000798785
0.0136344
0.0154669
-0.00103335
-1.7015e-05
0.00116051
-6.58836e-05
0.00342679
-0.00014494
0.00563694
-0.000253045
0.00778683
-0.000389472
0.00987171
-0.000553852
0.0118866
-0.000746071
0.0138266
0.015687
-0.000966167
-1.57664e-05
0.00117627
-6.11026e-05
0.00347212
-0.000134525
0.00571036
-0.000235051
0.00788736
-0.000362091
0.00999875
-0.000515399
0.0120399
-0.000694982
0.0140062
0.015893
-0.000900996
-1.4565e-05
0.00119083
-5.64987e-05
0.00351404
-0.000124491
0.00577835
-0.000217707
0.00798057
-0.000335682
0.0101167
-0.000478287
0.0121825
-0.000645634
0.0141736
0.0160853
-0.000837989
-1.34118e-05
0.00120424
-5.20797e-05
0.00355271
-0.000114856
0.00584113
-0.000201043
0.00806675
-0.000310294
0.010226
-0.000442583
0.0123148
-0.00059812
0.0143291
0.0162645
-0.000777267
-1.23094e-05
0.00121655
-4.78517e-05
0.00358825
-0.000105634
0.00589891
-0.000185083
0.0081462
-0.000285963
0.0103269
-0.00040834
0.0124372
-0.000552513
0.0144732
0.0164309
-0.000718931
-1.1258e-05
0.00122781
-4.38188e-05
0.0036208
-9.68319e-05