/*--------------------------------*- C++ -*----------------------------------*\
| =========                 |                                                 |
| \\      /  F ield         | OpenFOAM: The Open Source CFD Toolbox           |
|  \\    /   O peration     | Version:  2206                                  |
|   \\  /    A nd           | Website:  www.openfoam.com                      |
|    \\/     M anipulation  |                                                 |
\*---------------------------------------------------------------------------*/
FoamFile
{
    version     2.0;
    format      ascii;
    arch        "LSB;label=32;scalar=64";
    class       volVectorField;
    location    "100";
    object      U;
}
// * * * * * * * * * * * * * * * * * * * * * * * * * * * * * * * * * * * * * //

dimensions      [0 1 -1 0 0 0 0];

internalField   nonuniform List<vector> 
12940
(
(9.92114 -1.16861 0)
(10.0194 0.491383 0)
(9.9666 0.117482 0)
(9.99174 0.167566 0)
(9.99564 0.183524 0)
(9.99754 0.188734 0)
(9.99909 0.190932 0)
(10.0001 0.191737 0)
(9.76401 -0.625706 0)
(9.899 0.795233 0)
(9.90353 0.329122 0)
(9.97009 0.417563 0)
(9.98585 0.422431 0)
(9.99275 0.421771 0)
(9.99774 0.420973 0)
(10.0011 0.420365 0)
(9.19181 -0.223486 0)
(9.7733 0.956437 0)
(9.87894 0.569213 0)
(9.96489 0.681615 0)
(9.98673 0.671994 0)
(9.99555 0.665096 0)
(10.0015 0.659195 0)
(10.0057 0.65532 0)
(8.30654 0.110894 0)
(9.56131 1.08293 0)
(9.85368 0.836784 0)
(9.96467 0.946507 0)
(9.99606 0.924691 0)
(10.0076 0.913369 0)
(10.0127 0.902732 0)
(10.0159 0.895213 0)
(7.20288 0.352504 0)
(9.22842 1.18025 0)
(9.79571 1.10324 0)
(9.96186 1.2025 0)
(10.0102 1.17673 0)
(10.0262 1.16239 0)
(10.0306 1.14819 0)
(10.0316 1.13825 0)
(5.97455 0.465426 0)
(8.75076 1.22507 0)
(9.67313 1.32282 0)
(9.94486 1.43153 0)
(10.0236 1.41799 0)
(10.0468 1.40657 0)
(10.0518 1.39178 0)
(10.051 1.38206 0)
(4.75383 0.449579 0)
(8.11951 1.19492 0)
(9.44357 1.4593 0)
(9.88363 1.61473 0)
(10.0208 1.63566 0)
(10.0607 1.63905 0)
(10.0703 1.63008 0)
(10.0702 1.62461 0)
(3.67497 0.355522 0)
(7.35301 1.0801 0)
(9.07039 1.50007 0)
(9.73775 1.74247 0)
(9.97531 1.82244 0)
(10.0534 1.85527 0)
(10.0776 1.8612 0)
(10.0837 1.86499 0)
(2.81709 0.256407 0)
(6.48635 0.889728 0)
(8.53549 1.45016 0)
(9.47324 1.81356 0)
(9.8593 1.97768 0)
(10.0076 2.05553 0)
(10.0639 2.08548 0)
(10.0856 2.10388 0)
(2.19403 0.192914 0)
(5.56303 0.664825 0)
(7.8244 1.31788 0)
(9.06022 1.8189 0)
(9.64923 2.09533 0)
(9.90831 2.23889 0)
(10.0206 2.30408 0)
(10.0709 2.34223 0)
(1.76515 0.150885 0)
(4.68362 0.477598 0)
(6.95379 1.12275 0)
(8.45308 1.73112 0)
(9.3027 2.14348 0)
(9.73237 2.38533 0)
(9.9379 2.50797 0)
(10.0363 2.577 0)
(1.4603 0.114373 0)
(3.95218 0.359288 0)
(6.05399 0.91651 0)
(7.66659 1.54449 0)
(8.76002 2.06953 0)
(9.41838 2.43863 0)
(9.77953 2.65884 0)
(9.96703 2.78584 0)
(1.22765 0.0839328 0)
(3.3734 0.285221 0)
(5.25609 0.741491 0)
(6.83339 1.31414 0)
(8.05311 1.87505 0)
(8.91489 2.34529 0)
(9.47293 2.68706 0)
(9.8077 2.9108 0)
(1.04294 0.0606416 0)
(2.90939 0.231563 0)
(4.58813 0.604146 0)
(6.0644 1.09702 0)
(7.30046 1.62925 0)
(8.27421 2.13491 0)
(8.99414 2.56493 0)
(9.49259 2.88934 0)
(0.894576 0.0436891 0)
(2.53079 0.189198 0)
(4.03152 0.496824 0)
(5.3913 0.914683 0)
(6.58597 1.39186 0)
(7.59332 1.88243 0)
(8.40569 2.34482 0)
(9.0288 2.73259 0)
(0.774695 0.0316397 0)
(2.21829 0.155285 0)
(3.5643 0.412206 0)
(4.80977 0.767228 0)
(5.93895 1.18656 0)
(6.93383 1.6393 0)
(7.78252 2.0944 0)
(8.47926 2.50425 0)
(0.676994 0.0231637 0)
(1.95783 0.128342 0)
(3.16869 0.345123 0)
(4.30727 0.648896 0)
(5.36269 1.016 0)
(6.32107 1.42518 0)
(7.17049 1.85375 0)
(7.90129 2.25903 0)
(0.596477 0.0172004 0)
(1.73858 0.10706 0)
(2.83074 0.291763 0)
(3.87101 0.553819 0)
(4.85162 0.876028 0)
(5.76188 1.24326 0)
(6.59119 1.63872 0)
(7.32948 2.02587 0)
(0.529281 0.0129912 0)
(1.55211 0.0902815 0)
(2.53942 0.249213 0)
(3.48984 0.477241 0)
(4.39775 0.761541 0)
(5.25494 1.09102 0)
(6.05245 1.45298 0)
(6.78109 1.81676 0)
(0.472445 0.0100128 0)
(1.39177 0.0770742 0)
(2.28591 0.215277 0)
(3.15427 0.415539 0)
(3.99293 0.668132 0)
(4.79562 0.964748 0)
(5.55501 1.29562 0)
(6.26311 1.63518 0)
(0.423666 0.00790663 0)
(1.25224 0.0667244 0)
(2.06303 0.188305 0)
(2.85631 0.365991 0)
(3.62955 0.592285 0)
(4.37813 0.860875 0)
(5.09614 1.16416 0)
(5.77683 1.48089 0)
(0.381125 0.00642953 0)
(1.1292 0.0586959 0)
(1.86482 0.167052 0)
(2.58911 0.326522 0)
(3.30077 0.531224 0)
(3.99651 0.776303 0)
(4.67168 1.05579 0)
(5.32071 1.35209 0)
(0.343356 0.00540646 0)
(1.01907 0.0525764 0)
(1.68626 0.150561 0)
(2.34682 0.29552 0)
(3.00047 0.482732 0)
(3.64505 0.70841 0)
(4.277 0.967821 0)
(4.8918 1.24647 0)
(0.309159 0.00471414 0)
(0.918875 0.0480437 0)
(1.52309 0.138073 0)
(2.12438 0.271699 0)
(2.72325 0.445009 0)
(3.31848 0.654986 0)
(3.90746 0.897837 0)
(4.48657 1.16175 0)
(0.277541 0.00425722 0)
(0.826087 0.0448303 0)
(1.37168 0.128954 0)
(1.91737 0.253976 0)
(2.4643 0.41652 0)
(3.01196 0.614112 0)
(3.55855 0.843668 0)
(4.10125 1.09569 0)
(0.247678 0.0039661 0)
(0.738595 0.0426968 0)
(1.22892 0.122623 0)
(1.722 0.241343 0)
(2.21939 0.395817 0)
(2.72113 0.583947 0)
(3.22606 0.803179 0)
(3.73203 1.04603 0)
(0.21891 0.00378274 0)
(0.654677 0.0413975 0)
(1.09228 0.118472 0)
(1.53509 0.232732 0)
(1.9849 0.381342 0)
(2.44212 0.562469 0)
(2.90609 0.773977 0)
(3.37522 1.01005 0)
(0.190746 0.00366163 0)
(0.573053 0.040653 0)
(0.959802 0.11579 0)
(1.35417 0.226872 0)
(1.75794 0.371209 0)
(2.17174 0.547197 0)
(2.59528 0.753049 0)
(3.02746 0.984247 0)
(0.162906 0.00355904 0)
(0.492978 0.0401225 0)
(0.830348 0.113702 0)
(1.1777 0.222189 0)
(1.53659 0.363065 0)
(1.90773 0.534981 0)
(2.29109 0.736507 0)
(2.68599 0.96391 0)
(0.135369 0.00343522 0)
(0.414379 0.0393956 0)
(0.703722 0.111147 0)
(1.00527 0.216767 0)
(1.32018 0.354017 0)
(1.64908 0.521914 0)
(1.99215 0.719447 0)
(2.34911 0.943063 0)
(0.108429 0.00324701 0)
(0.337978 0.0379967 0)
(0.580888 0.106904 0)
(0.837902 0.208402 0)
(1.10958 0.340727 0)
(1.39636 0.50344 0)
(1.69862 0.696087 0)
(2.01652 0.91455 0)
(0.0827385 0.00295338 0)
(0.265387 0.0354234 0)
(0.464086 0.0996906 0)
(0.678161 0.194779 0)
(0.9074 0.319658 0)
(1.152 0.474675 0)
(1.41256 0.660127 0)
(1.68975 0.870548 0)
(0.0593139 0.00251458 0)
(0.1991 0.0312109 0)
(0.35683 0.0883406 0)
(0.530202 0.173779 0)
(0.718112 0.287529 0)
(0.920466 0.430979 0)
(1.13813 0.605418 0)
(1.37243 0.80329 0)
(0.0394782 0.00190547 0)
(0.142332 0.0250463 0)
(0.263685 0.072082 0)
(0.399549 0.143973 0)
(0.547873 0.242003 0)
(0.708217 0.36882 0)
(0.881717 0.526944 0)
(1.07052 0.706219 0)
(0.0247081 0.00112606 0)
(0.0986256 0.0169247 0)
(0.189735 0.0509279 0)
(0.292543 0.105291 0)
(0.404077 0.182674 0)
(0.523451 0.287036 0)
(0.651912 0.422284 0)
(0.792457 0.57559 0)
(0.0163437 0.000225294 0)
(0.0711512 0.00734794 0)
(0.139628 0.0261439 0)
(0.215294 0.0598531 0)
(0.294392 0.112328 0)
(0.375396 0.188572 0)
(0.459223 0.293771 0)
(0.549306 0.413096 0)
(0.0151455 -0.000681575 0)
(0.0616665 -0.00250772 0)
(0.116144 0.00065003 0)
(0.172006 0.0127336 0)
(0.225005 0.038252 0)
(0.27276 0.0825585 0)
(0.31507 0.151498 0)
(0.354718 0.23001 0)
(0.020755 -0.00140851 0)
(0.0692928 -0.0107986 0)
(0.118425 -0.0210044 0)
(0.162659 -0.0279506 0)
(0.197798 -0.0272277 0)
(0.22056 -0.0141477 0)
(0.228812 0.0166342 0)
(0.222876 0.0528832 0)
(0.031239 -0.00172981 0)
(0.0894904 -0.0154383 0)
(0.140333 -0.0336761 0)
(0.180433 -0.0527031 0)
(0.206356 -0.0687349 0)
(0.214331 -0.0784256 0)
(0.200096 -0.0780981 0)
(0.159431 -0.0733933 0)
(0.0432895 -0.00151689 0)
(0.114527 -0.0151898 0)
(0.170819 -0.0342471 0)
(0.211382 -0.0553348 0)
(0.234121 -0.0750327 0)
(0.235565 -0.0906679 0)
(0.210136 -0.100066 0)
(0.148216 -0.102635 0)
(0.0520205 -0.000860128 0)
(0.132956 -0.0112376 0)
(0.193144 -0.0255888 0)
(0.23307 -0.040627 0)
(0.251024 -0.0524173 0)
(0.242857 -0.0569053 0)
(0.199958 -0.0495683 0)
(0.102608 -0.0294388 0)
(0.0572074 -0.000382078 0)
(0.144052 -0.00749057 0)
(0.206051 -0.0171261 0)
(0.243937 -0.0266118 0)
(0.255991 -0.032595 0)
(0.23809 -0.031929 0)
(0.183173 -0.0228481 0)
(0.081352 -0.00738262 0)
(0.0603485 -1.39431e-05 0)
(0.150904 -0.00426328 0)
(0.213797 -0.0098396 0)
(0.249711 -0.0150666 0)
(0.257117 -0.0177539 0)
(0.232658 -0.0161791 0)
(0.171708 -0.0102672 0)
(0.0706579 -0.00253833 0)
(0.06189 0.000251226 0)
(0.154397 -0.00173344 0)
(0.217717 -0.00415341 0)
(0.252414 -0.00637356 0)
(0.257217 -0.00734308 0)
(0.229577 -0.00634734 0)
(0.166591 -0.00367737 0)
(0.0671425 -0.0010766 0)
(0.0622101 0.000447642 0)
(0.155312 0.000247151 0)
(0.218826 0.00026949 0)
(0.253154 0.000229269 0)
(0.257139 0.000230739 0)
(0.228614 0.000336766 0)
(0.165283 0.000374599 0)
(0.0664495 -0.000326208 0)
(0.0615449 0.000617911 0)
(0.154165 0.00191554 0)
(0.217743 0.00394972 0)
(0.252464 0.00568378 0)
(0.257098 0.00646191 0)
(0.229408 0.00583831 0)
(0.166794 0.00374138 0)
(0.0677201 0.000273824 0)
(0.0599989 0.000789724 0)
(0.15123 0.00341319 0)
(0.214752 0.00719007 0)
(0.250455 0.0105436 0)
(0.25692 0.0122514 0)
(0.231588 0.0113787 0)
(0.170918 0.00762399 0)
(0.0711693 0.00106648 0)
(0.0576434 0.000959888 0)
(0.146729 0.00464868 0)
(0.210037 0.00977417 0)
(0.247024 0.0145265 0)
(0.256112 0.0174381 0)
(0.234553 0.0172108 0)
(0.177791 0.0127899 0)
(0.0780747 0.00259415 0)
(0.0546821 0.00108459 0)
(0.141172 0.00520969 0)
(0.204079 0.0107447 0)
(0.242183 0.0160648 0)
(0.253815 0.0200263 0)
(0.236515 0.0215967 0)
(0.18564 0.0187849 0)
(0.0887442 0.00569195 0)
(0.0516682 0.0010768 0)
(0.135802 0.00438755 0)
(0.19833 0.00838372 0)
(0.236943 0.0119502 0)
(0.249568 0.0147686 0)
(0.233822 0.0170455 0)
(0.185522 0.0171561 0)
(0.0930492 0.00441236 0)
(0.049332 0.000832391 0)
(0.132498 0.00117594 0)
(0.19585 1.94627e-05 0)
(0.235938 -0.00351079 0)
(0.250625 -0.00987017 0)
(0.238924 -0.0198657 0)
(0.201782 -0.037245 0)
(0.146243 -0.0842618 0)
(0.0501463 0.000229575 0)
(0.137101 -0.00484051 0)
(0.205264 -0.0148411 0)
(0.250802 -0.0300454 0)
(0.272348 -0.0504795 0)
(0.271035 -0.0768945 0)
(0.251504 -0.112111 0)
(0.224963 -0.168641 0)
(0.055509 -0.000373766 0)
(0.152329 -0.0113413 0)
(0.229416 -0.0306203 0)
(0.283166 -0.057271 0)
(0.312906 -0.0898662 0)
(0.320776 -0.127578 0)
(0.312023 -0.170367 0)
(0.295668 -0.222456 0)
(0.0652266 -0.000877837 0)
(0.177572 -0.0172767 0)
(0.266765 -0.0448381 0)
(0.329698 -0.0811168 0)
(0.366168 -0.122827 0)
(0.378626 -0.167237 0)
(0.372037 -0.211962 0)
(0.35361 -0.257046 0)
(0.078722 -0.0012673 0)
(0.211394 -0.0223252 0)
(0.315005 -0.0567607 0)
(0.387076 -0.100667 0)
(0.427813 -0.148969 0)
(0.439851 -0.197234 0)
(0.428058 -0.24139 0)
(0.399191 -0.278983 0)
(0.0953749 -0.0015629 0)
(0.252238 -0.026453 0)
(0.371886 -0.0663079 0)
(0.452599 -0.11601 0)
(0.495009 -0.168979 0)
(0.501981 -0.219353 0)
(0.478621 -0.261646 0)
(0.4323 -0.29109 0)
(0.114563 -0.00177114 0)
(0.298509 -0.0295155 0)
(0.435236 -0.0731455 0)
(0.523961 -0.126735 0)
(0.565704 -0.182631 0)
(0.563428 -0.23382 0)
(0.522467 -0.273412 0)
(0.451311 -0.293586 0)
(0.135464 -0.00185278 0)
(0.348169 -0.0310087 0)
(0.502418 -0.0761327 0)
(0.598571 -0.131054 0)
(0.637846 -0.187662 0)
(0.622779 -0.238219 0)
(0.558223 -0.274412 0)
(0.453453 -0.283838 0)
(0.156738 -0.00171083 0)
(0.398107 -0.0300437 0)
(0.569488 -0.0732671 0)
(0.672562 -0.12564 0)
(0.708447 -0.179405 0)
(0.678384 -0.226849 0)
(0.585249 -0.258602 0)
(0.437424 -0.255877 0)
(0.176371 -0.00126014 0)
(0.443878 -0.0257314 0)
(0.63088 -0.0624713 0)
(0.740522 -0.106633 0)
(0.773904 -0.151412 0)
(0.730664 -0.189797 0)
(0.609769 -0.212667 0)
(0.412025 -0.201608 0)
(0.191412 -0.000301025 0)
(0.47888 -0.0176787 0)
(0.676817 -0.0428531 0)
(0.788629 -0.0713508 0)
(0.814233 -0.0962007 0)
(0.749207 -0.109203 0)
(0.580612 -0.099787 0)
(0.273853 -0.0611365 0)
(0.200509 0.000493763 0)
(0.500245 -0.0100414 0)
(0.703504 -0.0244987 0)
(0.812803 -0.0395971 0)
(0.827263 -0.0499574 0)
(0.742351 -0.0501083 0)
(0.548878 -0.0368787 0)
(0.232619 -0.0126037 0)
(0.205079 0.000923798 0)
(0.511379 -0.00484486 0)
(0.716931 -0.0121292 0)
(0.823295 -0.0192545 0)
(0.829629 -0.023119 0)
(0.732919 -0.0211822 0)
(0.528609 -0.0135744 0)
(0.213324 -0.00394874 0)
(0.20698 0.00107337 0)
(0.51642 -0.00191229 0)
(0.723014 -0.00512081 0)
(0.827646 -0.00810848 0)
(0.82987 -0.009407 0)
(0.728237 -0.00800435 0)
(0.521081 -0.00457743 0)
(0.208312 -0.00194116 0)
(0.207549 0.00105135 0)
(0.518295 -0.000524427 0)
(0.725375 -0.00171647 0)
(0.829224 -0.00278314 0)
(0.82968 -0.00316215 0)
(0.726209 -0.00247865 0)
(0.518411 -0.0012402 0)
(0.206859 -0.00120493 0)
(0.207582 0.000950721 0)
(0.518769 8.78367e-06 0)
(0.72609 -0.000315008 0)
(0.829697 -0.000583558 0)
(0.829553 -0.000663532 0)
(0.725541 -0.000416658 0)
(0.51771 -0.0001336 0)
(0.206623 -0.000913458 0)
(0.207464 0.000826954 0)
(0.518735 0.000146729 0)
(0.726175 0.000132634 0)
(0.829771 0.000148928 0)
(0.829517 0.000156346 0)
(0.725442 0.00021072 0)
(0.517709 0.000154814 0)
(0.20674 -0.000764144 0)
(0.207345 0.000705382 0)
(0.518581 0.00013548 0)
(0.726072 0.000195623 0)
(0.829723 0.0002863 0)
(0.82952 0.000314955 0)
(0.725518 0.000309386 0)
(0.517878 0.000175876 0)
(0.206903 -0.000658408 0)
(0.207267 0.000595856 0)
(0.518445 8.79005e-05 0)
(0.72595 0.000140334 0)
(0.829654 0.000230655 0)
(0.829526 0.000262195 0)
(0.725611 0.000251402 0)
(0.518039 0.000130616 0)
(0.20703 -0.000568064 0)
(0.207228 0.000499698 0)
(0.518357 4.44009e-05 0)
(0.725856 7.17988e-05 0)
(0.829591 0.000142892 0)
(0.829522 0.000172733 0)
(0.725676 0.000172153 0)
(0.518151 8.40699e-05 0)
(0.207116 -0.000485755 0)
(0.207218 0.000416297 0)
(0.518311 1.54731e-05 0)
(0.725793 2.16567e-05 0)
(0.82954 7.34707e-05 0)
(0.829508 0.000100957 0)
(0.72571 0.000110694 0)
(0.518219 5.13695e-05 0)
(0.207171 -0.000410229 0)
(0.207223 0.000343617 0)
(0.518292 -1.07519e-06 0)
(0.725752 -7.57257e-06 0)
(0.829498 3.00083e-05 0)
(0.829486 5.49894e-05 0)
(0.725721 7.09296e-05 0)
(0.518258 3.16938e-05 0)
(0.207208 -0.000341632 0)
(0.207236 0.000280438 0)
(0.518287 -8.75036e-06 0)
(0.725726 -2.123e-05 0)
(0.829464 6.54267e-06 0)
(0.82946 2.90946e-05 0)
(0.725719 4.73689e-05 0)
(0.51828 2.07879e-05 0)
(0.207234 -0.000280127 0)
(0.207252 0.000225158 0)
(0.51829 -1.16231e-05 0)
(0.725708 -2.55476e-05 0)
(0.829434 -4.27202e-06 0)
(0.829434 1.57112e-05 0)
(0.72571 3.36208e-05 0)
(0.518293 1.48687e-05 0)
(0.207254 -0.000225542 0)
(0.207267 0.000176941 0)
(0.518296 -1.16249e-05 0)
(0.725695 -2.47382e-05 0)
(0.829407 -8.20089e-06 0)
(0.829409 9.14997e-06 0)
(0.725699 2.52204e-05 0)
(0.5183 1.14465e-05 0)
(0.20727 -0.000177422 0)
(0.207281 0.000134547 0)
(0.518301 -1.05223e-05 0)
(0.725683 -2.16122e-05 0)
(0.829384 -8.68836e-06 0)
(0.829386 5.85988e-06 0)
(0.725687 1.9334e-05 0)
(0.518305 9.08565e-06 0)
(0.207283 -0.000135076 0)
(0.207293 9.7233e-05 0)
(0.518306 -8.67396e-06 0)
(0.725674 -1.7428e-05 0)
(0.829365 -7.7082e-06 0)
(0.829366 3.94821e-06 0)
(0.725676 1.45684e-05 0)
(0.518309 7.08512e-06 0)
(0.207294 -9.76793e-05 0)
(0.207302 6.38152e-05 0)
(0.51831 -6.734e-06 0)
(0.725666 -1.29897e-05 0)
(0.829349 -6.14374e-06 0)
(0.82935 2.489e-06 0)
(0.725667 1.01603e-05 0)
(0.518311 5.12033e-06 0)
(0.207302 -6.42922e-05 0)
(0.207308 3.34859e-05 0)
(0.518312 -4.54399e-06 0)
(0.72566 -8.42731e-06 0)
(0.829337 -4.4302e-06 0)
(0.829337 1.12855e-06 0)
(0.72566 5.88764e-06 0)
(0.518311 3.1007e-06 0)
(0.207308 -3.39238e-05 0)
(0.207312 5.01284e-06 0)
(0.518312 -2.45606e-06 0)
(0.725656 -3.94518e-06 0)
(0.829329 -2.65973e-06 0)
(0.829329 -2.53531e-07 0)
(0.725655 1.60112e-06 0)
(0.518311 1.01343e-06 0)
(0.207311 -5.52018e-06 0)
(0.207312 -2.24582e-05 0)
(0.518311 -1.83022e-07 0)
(0.725653 5.99503e-07 0)
(0.829325 -8.90986e-07 0)
(0.829325 -1.61857e-06 0)
(0.725651 -2.6324e-06 0)
(0.518309 -1.09613e-06 0)
(0.207311 2.19811e-05 0)
(0.207309 -5.02135e-05 0)
(0.518309 1.93705e-06 0)
(0.725652 5.10786e-06 0)
(0.829326 9.4388e-07 0)
(0.829325 -2.95311e-06 0)
(0.72565 -6.86954e-06 0)
(0.518306 -3.18832e-06 0)
(0.207308 4.9675e-05 0)
(0.207303 -7.90876e-05 0)
(0.518304 4.24847e-06 0)
(0.725653 9.73423e-06 0)
(0.82933 2.76525e-06 0)
(0.829329 -4.20642e-06 0)
(0.725651 -1.10337e-05 0)
(0.518302 -5.22791e-06 0)
(0.207302 7.86288e-05 0)
(0.207295 -0.000110394 0)
(0.518299 6.29674e-06 0)
(0.725655 1.42785e-05 0)
(0.829338 4.54592e-06 0)
(0.829337 -5.5138e-06 0)
(0.725653 -1.53002e-05 0)
(0.518296 -7.21392e-06 0)
(0.207293 0.000109921 0)
(0.207283 -0.000144876 0)
(0.518292 8.4207e-06 0)
(0.725659 1.86737e-05 0)
(0.82935 5.83377e-06 0)
(0.829349 -7.14779e-06 0)
(0.725657 -1.98242e-05 0)
(0.518289 -9.24418e-06 0)
(0.207282 0.000144569 0)
(0.207269 -0.000183875 0)
(0.518283 9.79825e-06 0)
(0.725665 2.21661e-05 0)
(0.829365 5.92135e-06 0)
(0.829364 -1.00052e-05 0)
(0.725663 -2.53758e-05 0)
(0.51828 -1.15991e-05 0)
(0.207268 0.000183568 0)
(0.207253 -0.000228056 0)
(0.518275 1.03747e-05 0)
(0.725673 2.36641e-05 0)
(0.829384 2.9055e-06 0)
(0.829382 -1.57638e-05 0)
(0.725668 -3.31796e-05 0)
(0.51827 -1.49566e-05 0)
(0.207251 0.000227799 0)
(0.207237 -0.000278877 0)
(0.518268 8.23744e-06 0)
(0.725685 2.05579e-05 0)
(0.829407 -6.25349e-06 0)
(0.829402 -2.77547e-05 0)
(0.725672 -4.5936e-05 0)
(0.518254 -2.06202e-05 0)
(0.20723 0.000278064 0)
(0.207222 -0.000337087 0)
(0.518268 1.93157e-06 0)
(0.725705 9.04566e-06 0)
(0.829435 -2.69643e-05 0)
(0.829421 -5.11418e-05 0)
(0.72567 -6.76943e-05 0)
(0.51823 -3.09291e-05 0)
(0.207203 0.000334936 0)
(0.207213 -0.000404535 0)
(0.518281 -1.26204e-05 0)
(0.725737 -1.66586e-05 0)
(0.829469 -6.58693e-05 0)
(0.829438 -9.29711e-05 0)
(0.725657 -0.000104468 0)
(0.518191 -4.93822e-05 0)
(0.207167 0.000398784 0)
(0.207219 -0.000482385 0)
(0.518318 -3.83665e-05 0)
(0.725791 -6.14135e-05 0)
(0.829513 -0.000128545 0)
(0.829449 -0.000158441 0)
(0.725623 -0.000161277 0)
(0.518124 -7.99877e-05 0)
(0.207112 0.000469669 0)
(0.207249 -0.000572951 0)
(0.518392 -7.7646e-05 0)
(0.725873 -0.000122842 0)
(0.829568 -0.000207625 0)
(0.829451 -0.000239858 0)
(0.725562 -0.000234473 0)
(0.518017 -0.000123505 0)
(0.207028 0.000547744 0)
(0.207315 -0.000676959 0)
(0.51851 -0.000120428 0)
(0.72598 -0.000171094 0)
(0.82963 -0.000255536 0)
(0.829446 -0.000285774 0)
(0.725475 -0.000287123 0)
(0.517865 -0.000165708 0)
(0.206905 0.000634527 0)
(0.207418 -0.000793681 0)
(0.518642 -0.000128954 0)
(0.726066 -0.000107037 0)
(0.829671 -0.000119955 0)
(0.829446 -0.000130737 0)
(0.725409 -0.000191031 0)
(0.517707 -0.000145043 0)
(0.206749 0.000737452 0)
(0.207519 -0.000914278 0)
(0.518658 3.50475e-06 0)
(0.725973 0.00032219 0)
(0.829596 0.000581511 0)
(0.829484 0.000653457 0)
(0.725511 0.000407907 0)
(0.517713 0.000129757 0)
(0.206634 0.000883992 0)
(0.207475 -0.00101548 0)
(0.518188 0.000511152 0)
(0.725278 0.00166048 0)
(0.82914 0.00268348 0)
(0.82961 0.00304105 0)
(0.726158 0.00237661 0)
(0.518386 0.00118556 0)
(0.206855 0.00116939 0)
(0.206923 -0.00104527 0)
(0.516381 0.00183543 0)
(0.723006 0.00492012 0)
(0.827625 0.00778801 0)
(0.829797 0.00902725 0)
(0.728108 0.00766973 0)
(0.520942 0.00438096 0)
(0.208238 0.00188636 0)
(0.205102 -0.000914813 0)
(0.511535 0.0046506 0)
(0.717155 0.0116709 0)
(0.823442 0.018535 0)
(0.829571 0.0222446 0)
(0.732608 0.0203564 0)
(0.528155 0.0130328 0)
(0.213031 0.00383466 0)
(0.200715 -0.000517526 0)
(0.500803 0.00968533 0)
(0.704192 0.0236971 0)
(0.81332 0.0383246 0)
(0.827306 0.0483191 0)
(0.741702 0.0483808 0)
(0.547612 0.0355438 0)
(0.23153 0.0121662 0)
(0.19193 0.000236457 0)
(0.480072 0.0171972 0)
(0.678266 0.0418134 0)
(0.789884 0.0696503 0)
(0.814783 0.0937761 0)
(0.748504 0.106124 0)
(0.578349 0.0966123 0)
(0.271353 0.0586247 0)
(0.177259 0.00116915 0)
(0.445766 0.0253797 0)
(0.633239 0.0618356 0)
(0.742973 0.105598 0)
(0.776065 0.149655 0)
(0.731958 0.186788 0)
(0.609048 0.208013 0)
(0.406433 0.191562 0)
(0.157711 0.00167606 0)
(0.39994 0.0304198 0)
(0.571657 0.0745154 0)
(0.674911 0.128118 0)
(0.710952 0.18331 0)
(0.680971 0.232293 0)
(0.587498 0.265643 0)
(0.437713 0.261832 0)
(0.135887 0.00189747 0)
(0.348362 0.0323901 0)
(0.502006 0.0799505 0)
(0.597608 0.138193 0)
(0.636467 0.198758 0)
(0.620958 0.253827 0)
(0.555588 0.295018 0)
(0.449262 0.307624 0)
(0.113699 0.00191307 0)
(0.295244 0.032035 0)
(0.429664 0.07983 0)
(0.516588 0.138902 0)
(0.556985 0.201078 0)
(0.553441 0.259082 0)
(0.510715 0.305926 0)
(0.436869 0.332426 0)
(0.0924236 0.00182498 0)
(0.243559 0.0302577 0)
(0.358513 0.0761697 0)
(0.435948 0.133548 0)
(0.476239 0.194828 0)
(0.481511 0.25351 0)
(0.455814 0.303835 0)
(0.405513 0.340599 0)
(0.0727459 0.00170022 0)
(0.195058 0.0277508 0)
(0.290963 0.0705301 0)
(0.358369 0.124619 0)
(0.396958 0.183253 0)
(0.408095 0.240746 0)
(0.394775 0.292295 0)
(0.361634 0.335515 0)
(0.0549655 0.00157158 0)
(0.150665 0.0249364 0)
(0.228452 0.0638936 0)
(0.285655 0.113677 0)
(0.321288 0.16837 0)
(0.335893 0.223034 0)
(0.331395 0.273599 0)
(0.310931 0.319691 0)
(0.0391748 0.00145102 0)
(0.110831 0.0220356 0)
(0.171837 0.0568014 0)
(0.219087 0.101613 0)
(0.251006 0.151358 0)
(0.267374 0.201767 0)
(0.269173 0.249326 0)
(0.258326 0.295133 0)
(0.0253721 0.00133792 0)
(0.0757543 0.0191457 0)
(0.121646 0.0495263 0)
(0.159613 0.0889111 0)
(0.187584 0.132922 0)
(0.204698 0.177868 0)
(0.211151 0.220692 0)
(0.207926 0.263572 0)
(0.0135193 0.00122789 0)
(0.0455121 0.0163049 0)
(0.0782134 0.042202 0)
(0.107936 0.0758486 0)
(0.13221 0.11352 0)
(0.14965 0.152038 0)
(0.159828 0.188725 0)
(0.163013 0.226554 0)
(0.00356795 0.00111511 0)
(0.0201156 0.0135262 0)
(0.0417434 0.0349029 0)
(0.0645653 0.0626097 0)
(0.0857941 0.093505 0)
(0.103628 0.124859 0)
(0.117155 0.154341 0)
(0.126108 0.185489 0)
(-0.00453481 0.000995096 0)
(-0.000466622 0.010817 0)
(0.01234 0.0276837 0)
(0.0298382 0.0493444 0)
(0.0489884 0.0731765 0)
(0.0676618 0.0968608 0)
(0.0845759 0.118376 0)
(0.0990607 0.141646 0)
(-0.0108439 0.000865319 0)
(-0.0163005 0.00818698 0)
(-0.00998179 0.0205974 0)
(0.0039348 0.0361926 0)
(0.0222052 0.052818 0)
(0.0424447 0.0685257 0)
(0.0630834 0.0815859 0)
(0.0831562 0.0961538 0)
(-0.0154207 0.000724914 0)
(-0.0274882 0.00564869 0)
(-0.0252864 0.0136999 0)
(-0.0131078 0.0232903 0)
(0.00564007 0.0326911 0)
(0.0283677 0.0402946 0)
(0.0532843 0.0446443 0)
(0.0792097 0.0500031 0)
(-0.018335 0.000574657 0)
(-0.0341719 0.0032159 0)
(-0.0337229 0.00704568 0)
(-0.0213833 0.0107667 0)
(-0.000702057 0.0130355 0)
(0.0255685 0.0125603 0)
(0.0554653 0.00814324 0)
(0.087655 0.00404123 0)
(-0.019665 0.000416588 0)
(-0.0365285 0.000901398 0)
(-0.0355109 0.000682899 0)
(-0.0211037 -0.00126629 0)
(0.00302033 -0.00593889 0)
(0.0339709 -0.0143342 0)
(0.069647 -0.0274065 0)
(0.108601 -0.0409938 0)
(-0.0194971 0.000253759 0)
(-0.0347657 -0.00128374 0)
(-0.0309312 -0.00534698 0)
(-0.0125798 -0.0127126 0)
(0.016502 -0.0240517 0)
(0.0533023 -0.0400947 0)
(0.0956075 -0.0615668 0)
(0.141888 -0.0844803 0)
(-0.0179238 8.99074e-05 0)
(-0.0291176 -0.00333066 0)
(-0.0203175 -0.0110101 0)
(0.00379539 -0.0234928 0)
(0.0393216 -0.0411553 0)
(0.0831434 -0.0644832 0)
(0.132952 -0.093991 0)
(0.187155 -0.125919 0)
(-0.0150424 -7.07923e-05 0)
(-0.0198374 -0.00523306 0)
(-0.00404219 -0.0162814 0)
(0.0275607 -0.0335455 0)
(0.0709655 -0.0571373 0)
(0.122956 -0.0873187 0)
(0.181139 -0.124411 0)
(0.243877 -0.164931 0)
(-0.0109525 -0.000224261 0)
(-0.00719176 -0.00698759 0)
(0.0174903 -0.0211445 0)
(0.0582071 -0.0428307 0)
(0.11085 -0.0719203 0)
(0.172111 -0.108473 0)
(0.239521 -0.152638 0)
(0.311403 -0.201232 0)
(-0.00575432 -0.000366866 0)
(0.00854469 -0.00859323 0)
(0.0438562 -0.0255919 0)
(0.095192 -0.0513266 0)
(0.158343 -0.0854577 0)
(0.229913 -0.127865 0)
(0.307363 -0.178541 0)
(0.388988 -0.234627 0)
(0.000452534 -0.0004958 0)
(0.027093 -0.0100513 0)
(0.0746228 -0.0296238 0)
(0.137953 -0.0590258 0)
(0.212777 -0.097728 0)
(0.29562 -0.145449 0)
(0.383879 -0.202048 0)
(0.475819 -0.264991 0)
(0.00757034 -0.000609243 0)
(0.0481777 -0.0113643 0)
(0.109355 -0.0332447 0)
(0.185918 -0.065932 0)
(0.273472 -0.108729 0)
(0.368467 -0.161215 0)
(0.468243 -0.22313 0)
(0.57104 -0.292266 0)
(0.0155041 -0.000706415 0)
(0.071527 -0.0125358 0)
(0.147622 -0.0364626 0)
(0.238518 -0.072057 0)
(0.339742 -0.118476 0)
(0.447677 -0.175176 0)
(0.559613 -0.241796 0)
(0.673766 -0.316445 0)
(0.0241613 -0.000787394 0)
(0.0968748 -0.0135693 0)
(0.188998 -0.0392872 0)
(0.295189 -0.0774187 0)
(0.410907 -0.126994 0)
(0.532478 -0.187366 0)
(0.657149 -0.258086 0)
(0.783115 -0.337569 0)
(0.0334523 -0.000852934 0)
(0.123963 -0.0144684 0)
(0.233071 -0.0417298 0)
(0.355382 -0.082039 0)
(0.486302 -0.134318 0)
(0.622113 -0.197834 0)
(0.760024 -0.272064 0)
(0.898211 -0.355709 0)
(0.0432899 -0.000904196 0)
(0.15254 -0.0152368 0)
(0.279441 -0.0438026 0)
(0.418565 -0.0859431 0)
(0.565283 -0.14049 0)
(0.715844 -0.206639 0)
(0.86743 -0.283808 0)
(1.0182 -0.370962 0)
(0.0535897 -0.000942555 0)
(0.182364 -0.0158785 0)
(0.327724 -0.0455188 0)
(0.484228 -0.0891585 0)
(0.64723 -0.145557 0)
(0.812965 -0.21385 0)
(0.97859 -0.293411 0)
(1.14225 -0.383445 0)
(0.06427 -0.00096946 0)
(0.213204 -0.0163979 0)
(0.37755 -0.0468928 0)
(0.551882 -0.0917156 0)
(0.731555 -0.149567 0)
(0.912797 -0.219542 0)
(1.09276 -0.300974 0)
(1.26957 -0.393291 0)
(0.0752519 -0.000986331 0)
(0.244836 -0.0167999 0)
(0.428571 -0.0479404 0)
(0.621065 -0.0936468 0)
(0.817696 -0.152578 0)
(1.0147 -0.223795 0)
(1.20923 -0.306607 0)
(1.3994 -0.400638 0)
(0.0864596 -0.000994472 0)
(0.27705 -0.0170899 0)
(0.480454 -0.0486785 0)
(0.69134 -0.0949866 0)
(0.905126 -0.154644 0)
(1.11807 -0.226693 0)
(1.32734 -0.310421 0)
(1.53103 -0.405635 0)
(0.0978213 -0.000995041 0)
(0.309645 -0.017274 0)
(0.532887 -0.049125 0)
(0.762298 -0.0957711 0)
(0.993352 -0.155826 0)
(1.22235 -0.228321 0)
(1.44645 -0.312536 0)
(1.66378 -0.408432 0)
(0.109269 -0.000989075 0)
(0.342434 -0.0173588 0)
(0.585579 -0.049299 0)
(0.833556 -0.0960375 0)
(1.08191 -0.156183 0)
(1.327 -0.228768 0)
(1.566 -0.313068 0)
(1.79704 -0.409183 0)
(0.120739 -0.000977496 0)
(0.375243 -0.017351 0)
(0.63826 -0.0492201 0)
(0.90476 -0.0958243 0)
(1.17038 -0.155779 0)
(1.43153 -0.228124 0)
(1.68543 -0.312137 0)
(1.9302 -0.408042 0)
(0.132172 -0.000961097 0)
(0.407911 -0.017258 0)
(0.690679 -0.0489085 0)
(0.975584 -0.0951701 0)
(1.25837 -0.154674 0)
(1.53551 -0.226475 0)
(1.80425 -0.309861 0)
(2.06274 -0.405161 0)
(0.143514 -0.000940563 0)
(0.44029 -0.0170869 0)
(0.742609 -0.0483844 0)
(1.04573 -0.0941136 0)
(1.34551 -0.15293 0)
(1.6385 -0.223911 0)
(1.92201 -0.306358 0)
(2.19415 -0.400691 0)
(0.154717 -0.000916506 0)
(0.472247 -0.0168452 0)
(0.793844 -0.047668 0)
(1.11493 -0.0926932 0)
(1.43149 -0.150608 0)
(1.74015 -0.220519 0)
(2.03827 -0.301743 0)
(2.32398 -0.39478 0)
(0.165735 -0.000889502 0)
(0.503661 -0.01654 0)
(0.844197 -0.0467792 0)
(1.18294 -0.0909469 0)
(1.516 -0.147769 0)
(1.84011 -0.216383 0)
(2.15266 -0.29613 0)
(2.45182 -0.387574 0)
(0.17653 -0.000860062 0)
(0.534425 -0.0161785 0)
(0.893502 -0.0457378 0)
(1.24954 -0.0889116 0)
(1.59879 -0.14447 0)
(1.93807 -0.211587 0)
(2.26485 -0.289629 0)
(2.57729 -0.379213 0)
(0.187066 -0.000828664 0)
(0.564445 -0.0157679 0)
(0.941614 -0.0445628 0)
(1.31454 -0.0866233 0)
(1.67962 -0.140768 0)
(2.03378 -0.206211 0)
(2.37453 -0.282347 0)
(2.70006 -0.369834 0)
(0.197314 -0.000795704 0)
(0.593638 -0.0153147 0)
(0.988404 -0.0432723 0)
(1.37777 -0.0841164 0)
(1.75828 -0.136718 0)
(2.12698 -0.200333 0)
(2.48143 -0.274386 0)
(2.81983 -0.359569 0)
(0.207247 -0.00076157 0)
(0.621934 -0.0148254 0)
(1.03376 -0.0418837 0)
(1.43909 -0.0814236 0)
(1.83461 -0.132371 0)
(2.21747 -0.194026 0)
(2.58531 -0.265846 0)
(2.93635 -0.348545 0)
(0.216844 -0.000726576 0)
(0.649274 -0.014306 0)
(1.0776 -0.0404138 0)
(1.49838 -0.0785764 0)
(1.90846 -0.127777 0)
(2.30509 -0.18736 0)
(2.68598 -0.256819 0)
(3.04938 -0.336881 0)
(0.226087 -0.000691048 0)
(0.675609 -0.0137623 0)
(1.11984 -0.038878 0)
(1.55554 -0.0756043 0)
(1.9797 -0.122982 0)
(2.38968 -0.180404 0)
(2.78327 -0.247395 0)
(3.15874 -0.324693 0)
(0.234961 -0.000655222 0)
(0.700902 -0.0131997 0)
(1.16043 -0.0372911 0)
(1.61048 -0.072535 0)
(2.04822 -0.118032 0)
(2.47113 -0.173219 0)
(2.87704 -0.237659 0)
(3.26427 -0.312089 0)
(0.243457 -0.000619365 0)
(0.725124 -0.0126231 0)
(1.19931 -0.0356667 0)
(1.66315 -0.0693943 0)
(2.11397 -0.112966 0)
(2.54934 -0.165865 0)
(2.96719 -0.227688 0)
(3.36584 -0.299169 0)
(0.251567 -0.000583654 0)
(0.748254 -0.0120371 0)
(1.23646 -0.0340174 0)
(1.71351 -0.0662062 0)
(2.17687 -0.107822 0)
(2.62425 -0.158395 0)
(3.05362 -0.217556 0)
(3.46336 -0.286028 0)
(0.259286 -0.000548311 0)
(0.770281 -0.0114461 0)
(1.27186 -0.0323548 0)
(1.76153 -0.0629926 0)
(2.23691 -0.102637 0)
(2.69581 -0.150861 0)
(3.13629 -0.207329 0)
(3.55675 -0.272754 0)
(0.266614 -0.000513458 0)
(0.791201 -0.0108537 0)
(1.30549 -0.0306893 0)
(1.80719 -0.0597734 0)
(2.29405 -0.0974404 0)
(2.76399 -0.143307 0)
(3.21516 -0.197072 0)
(3.64598 -0.259427 0)
(0.27355 -0.000479281 0)
(0.811015 -0.0102635 0)
(1.33737 -0.0290305 0)
(1.8505 -0.056567 0)
(2.3483 -0.0922629 0)
(2.8288 -0.135777 0)
(3.29022 -0.18684 0)
(3.73101 -0.246123 0)
(0.280097 -0.000445865 0)
(0.82973 -0.00967865 0)
(1.36751 -0.0273871 0)
(1.89148 -0.0533899 0)
(2.39967 -0.0871307 0)
(2.89025 -0.128309 0)
(3.36148 -0.176685 0)
(3.81187 -0.232907 0)
(0.28626 -0.000413373 0)
(0.847361 -0.00910192 0)
(1.39592 -0.0257667 0)
(1.93014 -0.0502565 0)
(2.4482 -0.0820673 0)
(2.94836 -0.120936 0)
(3.42897 -0.166654 0)
(3.88855 -0.219843 0)
(0.292046 -0.000381849 0)
(0.863925 -0.00853574 0)
(1.42263 -0.0241761 0)
(1.96652 -0.0471803 0)
(2.49393 -0.0770939 0)
(3.00318 -0.113691 0)
(3.49272 -0.15679 0)
(3.96112 -0.206984 0)
(0.297462 -0.000351429 0)
(0.879443 -0.00798238 0)
(1.44767 -0.0226213 0)
(2.00068 -0.0441724 0)
(2.53689 -0.0722289 0)
(3.05477 -0.106599 0)
(3.5528 -0.147128 0)
(4.02961 -0.19438 0)
(0.302517 -0.000322119 0)
(0.893942 -0.00744363 0)
(1.4711 -0.0211076 0)
(2.03265 -0.041243 0)
(2.57717 -0.0674885 0)
(3.10319 -0.0996842 0)
(3.60928 -0.137701 0)
(4.09412 -0.182073 0)
(0.307222 -0.000294027 0)
(0.907451 -0.00692118 0)
(1.49294 -0.0196394 0)
(2.06251 -0.0384006 0)
(2.61482 -0.0628865 0)
(3.14852 -0.0929675 0)
(3.66225 -0.128538 0)
(4.15471 -0.1701 0)
(0.311588 -0.000267124 0)