# Solver information
# Time          	U_solver        	Ux_initial      	Ux_final        	Ux_iters        	Uz_initial      	Uz_final        	Uz_iters        	U_converged     	k_solver        	k_initial       	k_final         	k_iters         	k_converged     	p_solver        	p_initial       	p_final         	p_iters         	p_converged     	e_solver        	e_initial       	e_final         	e_iters         	e_converged     	omega_solver    	omega_initial   	omega_final     	omega_iters     	omega_converged 
1               	DILUPBiCGStab	1.00000000e+00	8.33050670e-02	1	1.00000000e+00	7.03392640e-02	1	false	DILUPBiCGStab	1.00000000e+00	5.35888300e-02	1	true	GAMG	1.00000000e+00	7.97693700e-03	31	true	DILUPBiCGStab	9.99994290e-01	2.68743350e-02	2	true	DILUPBiCGStab	3.88748380e-03	2.59520810e-04	1	true
2               	DILUPBiCGStab	2.88524430e-01	1.91879480e-03	1	2.47028760e-01	1.06885410e-03	1	false	DILUPBiCGStab	3.67902890e-01	1.80959530e-02	1	true	GAMG	3.94408480e-01	3.42045170e-03	22	true	DILUPBiCGStab	9.99926900e-01	7.34181450e-02	1	true	DILUPBiCGStab	4.70910700e-03	4.03549310e-04	1	true
3               	DILUPBiCGStab	1.26076850e-01	7.69571740e-04	1	1.22856320e-01	8.03253070e-04	1	false	DILUPBiCGStab	1.91820520e-01	1.17390340e-02	1	true	GAMG	1.17940810e-01	1.03339740e-03	28	true	DILUPBiCGStab	2.35645710e-01	1.34687410e-02	1	true	DILUPBiCGStab	5.22946220e-03	4.40174260e-04	1	true
4               	DILUPBiCGStab	1.02621040e-01	5.44348480e-04	1	8.00868630e-02	4.43368700e-04	1	false	DILUPBiCGStab	1.15006810e-01	8.54619220e-03	1	true	GAMG	8.90986740e-02	6.99809250e-04	20	true	DILUPBiCGStab	1.90509400e-01	1.44627810e-02	1	true	DILUPBiCGStab	5.44282490e-03	4.36250520e-04	1	true
5               	DILUPBiCGStab	8.30104270e-02	3.94116190e-04	1	6.38221470e-02	2.70527940e-04	1	false	DILUPBiCGStab	8.15603410e-02	6.67422320e-03	1	true	GAMG	4.29970620e-01	3.20363980e-03	22	true	DILUPBiCGStab	1.52587750e-01	1.21258490e-02	1	true	DILUPBiCGStab	5.51398980e-03	3.55905820e-04	1	true
6               	DILUPBiCGStab	4.58866580e-02	2.66034990e-04	1	3.13642760e-02	2.07619050e-04	1	false	DILUPBiCGStab	6.41937940e-02	5.64326070e-03	1	true	GAMG	1.06332590e-01	9.12953260e-04	26	true	DILUPBiCGStab	9.58490210e-02	6.31917880e-03	1	true	DILUPBiCGStab	5.79863900e-03	2.91127090e-04	1	true
7               	DILUPBiCGStab	3.83160990e-02	1.73425910e-04	1	2.75099360e-02	1.12956310e-04	1	false	DILUPBiCGStab	5.20124080e-02	4.87799800e-03	1	true	GAMG	2.71988420e-01	2.18507210e-03	19	true	DILUPBiCGStab	8.20872520e-02	5.74059420e-03	1	true	DILUPBiCGStab	6.11792070e-03	2.64532670e-04	1	true
8               	DILUPBiCGStab	2.54996620e-02	1.52957620e-04	1	2.06998650e-02	1.44116580e-04	1	false	DILUPBiCGStab	4.23106580e-02	4.20888740e-03	1	true	GAMG	7.58621480e-02	5.87648640e-04	22	true	DILUPBiCGStab	8.91253880e-02	8.48467220e-03	1	true	DILUPBiCGStab	5.59744300e-03	2.75430910e-04	1	true
9               	DILUPBiCGStab	1.88258610e-02	9.32938250e-05	1	1.48553290e-02	1.02971580e-04	1	false	DILUPBiCGStab	3.47082810e-02	2.91994840e-04	1	true	GAMG	7.01125790e-02	5.62661440e-04	21	true	DILUPBiCGStab	9.52822990e-02	7.95300880e-03	1	true	DILUPBiCGStab	5.11454050e-03	2.93736880e-04	1	true
10              	DILUPBiCGStab	1.15905720e-02	3.57288150e-05	1	8.88434430e-03	3.54256070e-05	1	false	DILUPBiCGStab	2.90900230e-02	2.36567010e-03	1	true	GAMG	9.83760660e-02	7.75032420e-04	20	true	DILUPBiCGStab	8.94068870e-02	6.67397870e-03	1	true	DILUPBiCGStab	4.73524290e-03	3.14165910e-04	1	true
11              	DILUPBiCGStab	8.22766600e-03	3.36473670e-05	1	5.20645500e-03	2.91614630e-05	1	false	DILUPBiCGStab	2.48896570e-02	1.92710930e-04	1	true	GAMG	9.80600670e-02	8.58048290e-04	24	true	DILUPBiCGStab	7.96616760e-02	5.54509110e-03	1	true	DILUPBiCGStab	4.41128460e-03	3.45277520e-04	1	true
12              	DILUPBiCGStab	9.22005040e-03	5.51445460e-05	1	6.47368270e-03	4.41247390e-05	1	false	DILUPBiCGStab	2.16331430e-02	1.77569140e-03	1	true	GAMG	5.65722010e-02	4.79038410e-04	19	true	DILUPBiCGStab	7.47059150e-02	4.61724690e-03	1	true	DILUPBiCGStab	4.11813520e-03	3.82382110e-04	1	true
13              	DILUPBiCGStab	9.06973580e-03	6.00648820e-05	1	6.83914250e-03	5.05721440e-05	1	false	DILUPBiCGStab	1.89154530e-02	1.43619120e-04	1	true	GAMG	3.68943340e-02	3.13003830e-04	23	true	DILUPBiCGStab	7.43441160e-02	4.10398210e-03	1	true	DILUPBiCGStab	3.82626390e-03	3.46033550e-05	1	true
14              	DILUPBiCGStab	8.14580070e-03	4.91100660e-05	1	6.13467060e-03	4.24976920e-05	1	false	DILUPBiCGStab	1.65611740e-02	1.46283580e-03	1	true	GAMG	3.25427910e-02	2.72238130e-04	19	true	DILUPBiCGStab	7.46965080e-02	4.06311660e-03	1	true	DILUPBiCGStab	3.55853440e-03	3.21262590e-04	1	true
15              	DILUPBiCGStab	7.23477190e-03	4.08937150e-05	1	5.17684840e-03	3.26774120e-05	1	false	DILUPBiCGStab	1.46856690e-02	1.30465260e-04	1	true	GAMG	3.02120300e-02	2.49350700e-04	14	true	DILUPBiCGStab	7.28682510e-02	4.82799150e-03	1	true	DILUPBiCGStab	3.29543820e-03	3.64885340e-05	1	true
16              	DILUPBiCGStab	6.95143990e-03	4.04935680e-05	1	4.81336160e-03	2.96552730e-05	1	false	DILUPBiCGStab	1.31477900e-02	1.29527570e-03	1	true	GAMG	2.67813640e-02	2.67438400e-04	13	true	DILUPBiCGStab	6.99555390e-02	6.13690880e-03	1	true	DILUPBiCGStab	3.07741660e-03	2.75312860e-04	1	true
17              	DILUPBiCGStab	6.95095340e-03	4.11032900e-05	1	4.90872890e-03	3.02382110e-05	1	false	DILUPBiCGStab	1.18662490e-02	1.37021370e-04	1	true	GAMG	2.36879750e-02	1.89684570e-04	17	true	DILUPBiCGStab	6.65676190e-02	4.43147360e-04	1	true	DILUPBiCGStab	2.84504440e-03	2.91894140e-05	1	true
18              	DILUPBiCGStab	6.91407510e-03	3.85993850e-05	1	4.99375490e-03	2.99426360e-05	1	false	DILUPBiCGStab	1.07589210e-02	9.58159560e-05	1	true	GAMG	2.14734640e-02	2.09337430e-04	19	true	DILUPBiCGStab	6.34775140e-02	4.30932790e-04	1	true	DILUPBiCGStab	2.66364040e-03	2.13242860e-04	1	true
19              	DILUPBiCGStab	6.85759840e-03	3.47409030e-05	1	4.89651180e-03	2.77639180e-05	1	false	DILUPBiCGStab	9.76155540e-03	9.76768850e-05	1	true	GAMG	2.06282600e-02	1.68193310e-04	19	true	DILUPBiCGStab	6.10041310e-02	3.89911500e-04	1	true	DILUPBiCGStab	2.46122880e-03	2.21056310e-04	1	true
20              	DILUPBiCGStab	6.80825470e-03	3.24344160e-05	1	4.74520610e-03	2.53523360e-05	1	false	DILUPBiCGStab	9.05351860e-03	1.00384300e-04	1	true	GAMG	1.96572170e-02	1.71659750e-04	15	true	DILUPBiCGStab	5.87485860e-02	3.42872610e-04	1	true	DILUPBiCGStab	2.31088350e-03	1.94420800e-04	1	true
21              	DILUPBiCGStab	6.76707700e-03	3.17283770e-05	1	4.65532440e-03	2.36584990e-05	1	false	DILUPBiCGStab	8.45826530e-03	1.10965320e-04	1	true	GAMG	1.86703480e-02	1.76141310e-04	15	true	DILUPBiCGStab	5.65682480e-02	2.92895340e-04	1	true	DILUPBiCGStab	2.15750580e-03	1.68839640e-04	1	true
22              	DILUPBiCGStab	6.74976130e-03	3.18904880e-05	1	4.62304410e-03	2.23305360e-05	1	false	DILUPBiCGStab	8.01021500e-03	1.16852050e-04	1	true	GAMG	1.80251810e-02	1.69517580e-04	17	true	DILUPBiCGStab	5.45848120e-02	4.90729940e-03	1	true	DILUPBiCGStab	2.04036640e-03	1.48790510e-04	1	true
23              	DILUPBiCGStab	6.75568240e-03	3.30126620e-05	1	4.61543900e-03	2.09014540e-05	1	false	DILUPBiCGStab	7.61983390e-03	1.08425600e-04	1	true	GAMG	1.77966910e-02	1.48829790e-04	19	true	DILUPBiCGStab	5.26347750e-02	4.86167310e-03	1	true	DILUPBiCGStab	1.92502350e-03	1.33369130e-04	1	true
24              	DILUPBiCGStab	6.75289240e-03	3.45797460e-05	1	4.60258420e-03	1.93218160e-05	1	false	DILUPBiCGStab	7.30069040e-03	9.43166920e-05	1	true	GAMG	1.75521230e-02	1.44448240e-04	19	true	DILUPBiCGStab	5.13296330e-02	4.03168350e-03	1	true	DILUPBiCGStab	1.82526640e-03	1.23996520e-04	1	true
25              	DILUPBiCGStab	6.74723720e-03	3.62085640e-05	1	4.59176700e-03	1.77611750e-05	1	false	DILUPBiCGStab	7.06325480e-03	8.74590430e-05	1	true	GAMG	1.71443420e-02	1.37603700e-04	19	true	DILUPBiCGStab	5.06855750e-02	3.04825930e-03	1	true	DILUPBiCGStab	1.72641010e-03	1.13204310e-04	1	true
26              	DILUPBiCGStab	6.74231400e-03	3.75267940e-05	1	4.58584440e-03	1.63412580e-05	1	false	DILUPBiCGStab	6.89211400e-03	8.26977110e-05	1	true	GAMG	1.68862060e-02	1.63953380e-04	17	true	DILUPBiCGStab	5.07635980e-02	2.31060850e-03	1	true	DILUPBiCGStab	1.64570130e-03	1.02638550e-04	1	true
27              	DILUPBiCGStab	6.72260970e-03	3.83228810e-05	1	4.57946190e-03	1.55002340e-05	1	false	DILUPBiCGStab	6.84566860e-03	7.91986570e-05	1	true	GAMG	1.65315900e-02	1.63849430e-04	17	true	DILUPBiCGStab	5.16847760e-02	1.96131310e-03	1	true	DILUPBiCGStab	1.57662040e-03	9.37221330e-05	1	true
28              	DILUPBiCGStab	6.68305090e-03	3.86795150e-05	1	4.57198600e-03	1.49718590e-05	1	false	DILUPBiCGStab	6.86929610e-03	7.50234960e-05	1	true	GAMG	1.62118840e-02	1.61599780e-04	17	true	DILUPBiCGStab	5.36552780e-02	1.89209710e-03	1	true	DILUPBiCGStab	1.51877240e-03	8.66447940e-05	1	true
29              	DILUPBiCGStab	6.62678550e-03	3.87658500e-05	1	4.56309600e-03	1.46090230e-05	1	false	DILUPBiCGStab	6.98678910e-03	6.96545020e-05	1	true	GAMG	1.59241230e-02	1.45198520e-04	18	true	DILUPBiCGStab	5.68699910e-02	2.06699260e-03	1	true	DILUPBiCGStab	1.47251200e-03	8.05156870e-05	1	true
30              	DILUPBiCGStab	6.55094480e-03	3.86366860e-05	1	4.55228370e-03	1.44082390e-05	1	false	DILUPBiCGStab	7.23868910e-03	6.32118000e-05	1	true	GAMG	1.56124920e-02	1.33594850e-04	18	true	DILUPBiCGStab	6.11091620e-02	2.38663020e-03	1	true	DILUPBiCGStab	1.44199510e-03	7.53068540e-05	1	true
31              	DILUPBiCGStab	6.45636910e-03	3.84156710e-05	1	4.53200520e-03	1.44408730e-05	1	false	DILUPBiCGStab	7.64225310e-03	5.62003860e-05	1	true	GAMG	1.52790320e-02	1.23846150e-04	18	true	DILUPBiCGStab	6.50258070e-02	2.74599390e-03	1	true	DILUPBiCGStab	1.42775210e-03	7.07599950e-05	1	true
32              	DILUPBiCGStab	6.34596550e-03	3.81814400e-05	1	4.50471450e-03	1.45749920e-05	1	false	DILUPBiCGStab	8.12635040e-03	4.55293950e-05	1	true	GAMG	1.49988800e-02	1.28973660e-04	18	true	DILUPBiCGStab	6.84047180e-02	3.04938950e-03	1	true	DILUPBiCGStab	1.41733760e-03	6.68238540e-05	1	true
33              	DILUPBiCGStab	6.22213980e-03	3.79818480e-05	1	4.46547010e-03	1.47306780e-05	1	false	DILUPBiCGStab	8.82300020e-03	3.75770430e-05	1	true	GAMG	1.47639710e-02	1.40130950e-04	18	true	DILUPBiCGStab	7.03866020e-02	3.21403990e-03	1	true	DILUPBiCGStab	1.42415240e-03	6.33961970e-05	1	true
34              	DILUPBiCGStab	6.09100500e-03	3.78506920e-05	1	4.41425060e-03	1.48673690e-05	1	false	DILUPBiCGStab	9.43542620e-03	3.87408170e-05	1	true	GAMG	1.45136730e-02	1.16288440e-04	20	true	DILUPBiCGStab	6.92311930e-02	3.16231950e-03	1	true	DILUPBiCGStab	1.44769630e-03	6.04595880e-05	1	true
35              	DILUPBiCGStab	5.95547620e-03	3.77948760e-05	1	4.35139180e-03	1.49811300e-05	1	false	DILUPBiCGStab	9.66016850e-03	4.83953970e-05	1	true	GAMG	1.42617050e-02	1.21612340e-04	20	true	DILUPBiCGStab	6.46295430e-02	2.91650840e-03	1	true	DILUPBiCGStab	1.47710400e-03	5.76268850e-05	1	true
36              	DILUPBiCGStab	5.81771010e-03	3.77319680e-05	1	4.28097320e-03	1.51388640e-05	1	false	DILUPBiCGStab	9.88124990e-03	5.15799630e-05	1	true	GAMG	1.40472060e-02	1.29197010e-04	20	true	DILUPBiCGStab	5.91544290e-02	2.63135880e-03	1	true	DILUPBiCGStab	1.48669060e-03	5.48664410e-05	1	true
37              	DILUPBiCGStab	5.68132490e-03	3.76634690e-05	1	4.20450490e-03	1.53145510e-05	1	false	DILUPBiCGStab	9.68997400e-03	4.84782230e-05	1	true	GAMG	1.38427410e-02	1.34170730e-04	20	true	DILUPBiCGStab	5.36248150e-02	2.36266200e-03	1	true	DILUPBiCGStab	1.49923450e-03	5.33257160e-05	1	true
38              	DILUPBiCGStab	5.54736730e-03	3.76101680e-05	1	4.12344070e-03	1.55604140e-05	1	false	DILUPBiCGStab	9.42148660e-03	4.78268050e-05	1	true	GAMG	1.35920530e-02	1.34365410e-04	20	true	DILUPBiCGStab	4.83481640e-02	2.12895210e-03	1	true	DILUPBiCGStab	1.49714880e-03	5.14676180e-05	1	true
39              	DILUPBiCGStab	5.42020970e-03	3.74796520e-05	1	4.04127420e-03	1.57883510e-05	1	false	DILUPBiCGStab	9.04719620e-03	4.58810820e-05	1	true	GAMG	1.33091640e-02	1.30179620e-04	20	true	DILUPBiCGStab	4.34618400e-02	1.93664920e-03	1	true	DILUPBiCGStab	1.48624620e-03	5.03997970e-05	1	true
40              	DILUPBiCGStab	5.30236040e-03	3.72256820e-05	1	3.95897460e-03	1.59823230e-05	1	false	DILUPBiCGStab	8.52436260e-03	4.21137020e-05	1	true	GAMG	1.30185550e-02	1.19462580e-04	20	true	DILUPBiCGStab	3.90447940e-02	1.78244860e-03	1	true	DILUPBiCGStab	1.46490810e-03	5.00398260e-05	1	true
41              	DILUPBiCGStab	5.19309530e-03	3.68946030e-05	1	3.87587640e-03	1.61501550e-05	1	false	DILUPBiCGStab	8.01722500e-03	3.93489870e-05	1	true	GAMG	1.26675530e-02	1.04155940e-04	20	true	DILUPBiCGStab	3.51644160e-02	1.66230840e-03	1	true	DILUPBiCGStab	1.43868350e-03	4.98387720e-05	1	true
42              	DILUPBiCGStab	5.09177580e-03	3.64941030e-05	1	3.79607540e-03	1.62774830e-05	1	false	DILUPBiCGStab	7.51952430e-03	3.72500300e-05	1	true	GAMG	1.22782200e-02	1.10081430e-04	18	true	DILUPBiCGStab	3.18561880e-02	1.56245170e-03	1	true	DILUPBiCGStab	1.40100690e-03	4.99798290e-05	1	true
43              	DILUPBiCGStab	4.99933510e-03	3.60123780e-05	1	3.71614830e-03	1.63456060e-05	1	false	DILUPBiCGStab	6.96295800e-03	3.40621650e-05	1	true	GAMG	1.19114940e-02	1.02973060e-04	18	true	DILUPBiCGStab	2.91863670e-02	1.48288210e-03	1	true	DILUPBiCGStab	1.35782960e-03	5.05637340e-05	1	true
44              	DILUPBiCGStab	4.91584920e-03	3.54661440e-05	1	3.63921260e-03	1.63853390e-05	1	false	DILUPBiCGStab	6.41533160e-03	3.10576740e-05	1	true	GAMG	1.14843130e-02	9.58711930e-05	18	true	DILUPBiCGStab	2.72324930e-02	1.42018340e-03	1	true	DILUPBiCGStab	1.31061200e-03	5.13513060e-05	1	true
45              	DILUPBiCGStab	4.83785290e-03	3.48750950e-05	1	3.56441610e-03	1.64195240e-05	1	false	DILUPBiCGStab	5.89798210e-03	2.84374270e-05	1	true	GAMG	1.10607580e-02	8.93812010e-05	18	true	DILUPBiCGStab	2.60290790e-02	1.37327350e-03	1	true	DILUPBiCGStab	1.25714300e-03	5.17056130e-05	1	true
46              	DILUPBiCGStab	4.76280300e-03	3.42996830e-05	1	3.49048860e-03	1.64977070e-05	1	false	DILUPBiCGStab	5.41944330e-03	2.63100800e-05	1	true	GAMG	1.06242120e-02	1.02597120e-04	16	true	DILUPBiCGStab	2.55458590e-02	1.34376520e-03	1	true	DILUPBiCGStab	1.19686040e-03	5.18794090e-05	1	true
47              	DILUPBiCGStab	4.69028250e-03	3.36868940e-05	1	3.42295280e-03	1.65796380e-05	1	false	DILUPBiCGStab	4.99952100e-03	2.47377590e-05	1	true	GAMG	1.02069930e-02	1.00382650e-04	16	true	DILUPBiCGStab	2.57291100e-02	1.33759220e-03	1	true	DILUPBiCGStab	1.13480300e-03	5.18717300e-05	1	true
48              	DILUPBiCGStab	4.61886920e-03	3.30491430e-05	1	3.35530070e-03	1.66224370e-05	1	false	DILUPBiCGStab	4.58795210e-03	2.29373800e-05	1	true	GAMG	9.82265250e-03	9.73674630e-05	16	true	DILUPBiCGStab	2.64789170e-02	1.35361790e-03	1	true	DILUPBiCGStab	1.07080400e-03	5.17191610e-05	1	true
49              	DILUPBiCGStab	4.54711730e-03	3.23719670e-05	1	3.29240740e-03	1.66701730e-05	1	false	DILUPBiCGStab	4.20246030e-03	2.10493560e-05	1	true	GAMG	9.50543000e-03	8.89222240e-05	15	true	DILUPBiCGStab	2.76284510e-02	1.39087220e-03	1	true	DILUPBiCGStab	1.01070070e-03	5.16741350e-05	1	true
50              	DILUPBiCGStab	4.47649030e-03	3.16856900e-05	1	3.23371350e-03	1.68009880e-05	1	false	DILUPBiCGStab	3.83702370e-03	1.91706480e-05	1	true	GAMG	9.17588010e-03	8.70277380e-05	15	true	DILUPBiCGStab	2.89966340e-02	1.44490590e-03	1	true	DILUPBiCGStab	9.51063200e-04	5.11435580e-05	1	true
51              	DILUPBiCGStab	4.40718100e-03	3.10094580e-05	1	3.17740410e-03	1.69376500e-05	1	false	DILUPBiCGStab	3.49077420e-03	3.46275380e-04	1	true	GAMG	8.91553630e-03	8.35845810e-05	15	true	DILUPBiCGStab	3.04288170e-02	1.50813780e-03	1	true	DILUPBiCGStab	8.89508880e-04	5.07872580e-05	1	true
52              	DILUPBiCGStab	4.33795200e-03	3.03292400e-05	1	3.12800090e-03	1.70232520e-05	1	false	DILUPBiCGStab	3.23308800e-03	2.32440180e-05	1	true	GAMG	8.63125790e-03	7.90262220e-05	15	true	DILUPBiCGStab	3.17706060e-02	1.57504440e-03	1	true	DILUPBiCGStab	8.29067150e-04	4.89126840e-05	1	true
53              	DILUPBiCGStab	4.27007880e-03	2.96813970e-05	1	3.08148470e-03	1.70494450e-05	1	false	DILUPBiCGStab	2.92463940e-03	1.59377880e-05	1	true	GAMG	8.33035990e-03	7.40888690e-05	15	true	DILUPBiCGStab	3.29787150e-02	1.63936360e-03	1	true	DILUPBiCGStab	7.72534030e-04	5.02689210e-05	1	true
54              	DILUPBiCGStab	4.20395310e-03	2.90677490e-05	1	3.03997130e-03	1.70292420e-05	1	false	DILUPBiCGStab	2.65604630e-03	2.52043370e-04	1	true	GAMG	8.05201780e-03	6.93043290e-05	15	true	DILUPBiCGStab	3.39479910e-02	1.69753680e-03	1	true	DILUPBiCGStab	7.16050400e-04	4.97610870e-05	1	true
55              	DILUPBiCGStab	4.13938200e-03	2.85026820e-05	1	3.00095630e-03	1.68566960e-05	1	false	DILUPBiCGStab	2.46958210e-03	1.70799780e-05	1	true	GAMG	7.78943370e-03	6.49545650e-05	15	true	DILUPBiCGStab	3.46410970e-02	1.74533640e-03	1	true	DILUPBiCGStab	6.64410430e-04	4.69430690e-05	1	true
56              	DILUPBiCGStab	4.07652170e-03	2.79387650e-05	1	2.96568770e-03	1.66234370e-05	1	false	DILUPBiCGStab	2.27043090e-03	2.17698310e-04	1	true	GAMG	7.52987930e-03	6.09032910e-05	15	true	DILUPBiCGStab	3.50714310e-02	1.77811140e-03	1	true	DILUPBiCGStab	6.17982530e-04	4.83816280e-05	1	true
57              	DILUPBiCGStab	4.01516550e-03	2.73926840e-05	1	2.93116130e-03	1.64664540e-05	1	false	DILUPBiCGStab	2.13876070e-03	1.48937790e-05	1	true	GAMG	7.27334380e-03	5.70625720e-05	15	true	DILUPBiCGStab	3.52178770e-02	1.79538430e-03	1	true	DILUPBiCGStab	5.73431310e-04	4.63736410e-05	1	true
58              	DILUPBiCGStab	3.95510070e-03	2.68903710e-05	1	2.90035190e-03	1.63450280e-05	1	false	DILUPBiCGStab	1.97826470e-03	1.89486980e-04	1	true	GAMG	7.02898210e-03	5.35612330e-05	15	true	DILUPBiCGStab	3.50935290e-02	1.79507220e-03	1	true	DILUPBiCGStab	5.36851580e-04	4.79694980e-05	1	true
59              	DILUPBiCGStab	3.89730450e-03	2.64498020e-05	1	2.87037680e-03	1.63038280e-05	1	false	DILUPBiCGStab	1.87184600e-03	1.29840240e-05	1	true	GAMG	6.81463670e-03	6.69324590e-05	13	true	DILUPBiCGStab	3.46059280e-02	1.77226760e-03	1	true	DILUPBiCGStab	5.02636100e-04	4.49613960e-05	1	true
60              	DILUPBiCGStab	3.84104300e-03	2.60039590e-05	1	2.84294710e-03	1.63568920e-05	1	false	DILUPBiCGStab	1.73552960e-03	1.67547180e-04	1	true	GAMG	6.62315300e-03	5.16006950e-05	15	true	DILUPBiCGStab	3.37888750e-02	1.73509510e-03	1	true	DILUPBiCGStab	4.75154970e-04	4.65632510e-05	1	true
61              	DILUPBiCGStab	3.78529070e-03	2.55469610e-05	1	2.81707310e-03	1.64986030e-05	1	false	DILUPBiCGStab	1.63828750e-03	1.12858780e-05	1	true	GAMG	6.46836350e-03	6.16095020e-05	13	true	DILUPBiCGStab	3.27720110e-02	1.68861200e-03	1	true	DILUPBiCGStab	4.49072050e-04	4.41531170e-05	1	true
62              	DILUPBiCGStab	3.73111270e-03	2.51023310e-05	1	2.79300010e-03	1.67301630e-05	1	false	DILUPBiCGStab	1.51450660e-03	1.45526540e-04	1	true	GAMG	6.31092630e-03	6.14017370e-05	13	true	DILUPBiCGStab	3.15355330e-02	1.63439440e-03	1	true	DILUPBiCGStab	4.29050640e-04	4.13217080e-06	1	true
63              	DILUPBiCGStab	3.67811320e-03	2.46916930e-05	1	2.77130300e-03	1.71146590e-05	1	false	DILUPBiCGStab	1.42085880e-03	9.59159170e-06	1	true	GAMG	6.18762960e-03	6.04199320e-05	13	true	DILUPBiCGStab	3.02069330e-02	1.58219070e-03	1	true	DILUPBiCGStab	4.08609540e-04	3.70340500e-05	1	true
64              	DILUPBiCGStab	3.62648290e-03	2.43162760e-05	1	2.75059650e-03	1.76359200e-05	1	false	DILUPBiCGStab	1.30854700e-03	1.22924480e-04	1	true	GAMG	6.06654140e-03	5.81875380e-05	13	true	DILUPBiCGStab	2.88754720e-02	1.53778390e-03	1	true	DILUPBiCGStab	3.94212650e-04	4.08921980e-06	1	true
65              	DILUPBiCGStab	3.57620390e-03	2.39598130e-05	1	2.73125010e-03	1.82213180e-05	1	false	DILUPBiCGStab	1.22845790e-03	1.22396840e-04	1	true	GAMG	5.96973630e-03	5.55235290e-05	13	true	DILUPBiCGStab	2.75838220e-02	1.49985690e-03	1	true	DILUPBiCGStab	3.74340580e-04	3.59688890e-05	1	true
66              	DILUPBiCGStab	3.52688050e-03	2.36214470e-05	1	2.71295320e-03	1.88731320e-05	1	false	DILUPBiCGStab	1.14955920e-03	1.14461030e-04	1	true	GAMG	5.88960120e-03	5.30024240e-05	13	true	DILUPBiCGStab	2.63390430e-02	1.46159940e-03	1	true	DILUPBiCGStab	3.60291410e-04	3.87397040e-06	1	true
67              	DILUPBiCGStab	3.47838480e-03	2.33204210e-05	1	2.69581760e-03	1.95586740e-05	1	false	DILUPBiCGStab	1.08025590e-03	1.05404700e-04	1	true	GAMG	5.82225140e-03	5.06694920e-05	13	true	DILUPBiCGStab	2.51620800e-02	1.42334380e-03	1	true	DILUPBiCGStab	3.43811460e-04	2.82595550e-06	1	true
68              	DILUPBiCGStab	3.43047760e-03	2.30318750e-05	1	2.67835550e-03	2.02830010e-05	1	false	DILUPBiCGStab	1.02124670e-03	9.77257660e-05	1	true	GAMG	5.77496040e-03	4.81620240e-05	13	true	DILUPBiCGStab	2.40419880e-02	1.38232620e-03	1	true	DILUPBiCGStab	3.32223400e-04	3.27955850e-05	1	true
69              	DILUPBiCGStab	3.38412270e-03	2.27433410e-05	1	2.66273220e-03	2.10706620e-05	1	false	DILUPBiCGStab	9.70864410e-04	9.17713780e-05	1	true	GAMG	5.70256750e-03	4.55054720e-05	13	true	DILUPBiCGStab	2.29783130e-02	1.33344760e-03	1	true	DILUPBiCGStab	3.19615310e-04	3.73130620e-06	1	true
70              	DILUPBiCGStab	3.33797500e-03	2.24680870e-05	1	2.64667280e-03	2.18457040e-05	1	false	DILUPBiCGStab	9.29557720e-04	8.69135570e-05	1	true	GAMG	5.65972400e-03	4.25547730e-05	13	true	DILUPBiCGStab	2.19872500e-02	1.28138620e-03	1	true	DILUPBiCGStab	3.07803660e-04	2.75207950e-06	1	true
71              	DILUPBiCGStab	3.29246790e-03	2.22476830e-05	1	2.63158050e-03	2.26236020e-05	1	false	DILUPBiCGStab	9.01554520e-04	8.33192190e-05	1	true	GAMG	5.62151760e-03	5.47421520e-05	11	true	DILUPBiCGStab	2.10719290e-02	1.22969810e-03	1	true	DILUPBiCGStab	2.98554660e-04	2.54136530e-06	1	true
72              	DILUPBiCGStab	3.24887920e-03	2.20542360e-05	1	2.61596160e-03	2.33523340e-05	1	false	DILUPBiCGStab	8.88379810e-04	8.14506230e-05	1	true	GAMG	5.55674950e-03	5.54797060e-05	11	true	DILUPBiCGStab	2.02127340e-02	1.17501540e-03	1	true	DILUPBiCGStab	2.90247230e-04	2.46478360e-06	1	true
73              	DILUPBiCGStab	3.20481830e-03	2.18555430e-05	1	2.60066740e-03	2.40308370e-05	1	false	DILUPBiCGStab	8.84839350e-04	8.07128330e-05	1	true	GAMG	5.51671330e-03	5.34241030e-05	11	true	DILUPBiCGStab	1.94347050e-02	1.12288630e-03	1	true	DILUPBiCGStab	2.87260300e-04	2.41905700e-06	1	true
74              	DILUPBiCGStab	3.16194860e-03	2.16587440e-05	1	2.58587040e-03	2.46404030e-05	1	false	DILUPBiCGStab	8.91651360e-04	8.10197060e-05	1	true	GAMG	5.46608860e-03	4.94379130e-05	11	true	DILUPBiCGStab	1.87072050e-02	1.07634480e-03	1	true	DILUPBiCGStab	2.81560470e-04	2.40802370e-06	1	true
75              	DILUPBiCGStab	3.12008470e-03	2.15008050e-05	1	2.56987580e-03	2.51514180e-05	1	false	DILUPBiCGStab	8.95003340e-04	8.15116510e-05	1	true	GAMG	5.42140560e-03	4.59912140e-05	11	true	DILUPBiCGStab	1.80471710e-02	1.03333410e-03	1	true	DILUPBiCGStab	2.77682530e-04	2.44783120e-06	1	true
76              	DILUPBiCGStab	3.07866200e-03	2.13608730e-05	1	2.55476090e-03	2.55613020e-05	1	false	DILUPBiCGStab	8.96473560e-04	8.22233650e-05	1	true	GAMG	5.35913940e-03	4.45784680e-05	11	true	DILUPBiCGStab	1.74394210e-02	9.97487480e-04	1	true	DILUPBiCGStab	2.75725030e-04	2.45028410e-06	1	true
77              	DILUPBiCGStab	3.03896870e-03	2.12473880e-05	1	2.53924610e-03	2.58008070e-05	1	false	DILUPBiCGStab	8.98119240e-04	8.30781460e-05	1	true	GAMG	5.30498770e-03	4.44793070e-05	11	true	DILUPBiCGStab	1.68872240e-02	9.67967310e-04	1	true	DILUPBiCGStab	2.73360930e-04	2.55058380e-06	1	true
78              	DILUPBiCGStab	2.99969830e-03	2.11344920e-05	1	2.52372490e-03	2.58366000e-05	1	false	DILUPBiCGStab	8.95808120e-04	8.33060120e-05	1	true	GAMG	5.23988110e-03	4.52368460e-05	11	true	DILUPBiCGStab	1.63780810e-02	9.44696110e-04	1	true	DILUPBiCGStab	2.72760580e-04	2.43946990e-06	1	true
79              	DILUPBiCGStab	2.96129860e-03	2.10245260e-05	1	2.50900410e-03	2.56550080e-05	1	false	DILUPBiCGStab	8.87913210e-04	8.24423760e-05	1	true	GAMG	5.18542390e-03	4.62397440e-05	11	true	DILUPBiCGStab	1.59103210e-02	9.28354900e-04	1	true	DILUPBiCGStab	2.71568200e-04	2.36564710e-06	1	true
80              	DILUPBiCGStab	2.92477940e-03	2.09437110e-05	1	2.49398300e-03	2.52126820e-05	1	false	DILUPBiCGStab	8.71503820e-04	8.01563850e-05	1	true	GAMG	5.15333170e-03	4.67885090e-05	11	true	DILUPBiCGStab	1.54793640e-02	9.19185760e-04	1	true	DILUPBiCGStab	2.70997390e-04	2.34164010e-06	1	true
81              	DILUPBiCGStab	2.88971940e-03	2.08584300e-05	1	2.47960680e-03	2.45680890e-05	1	false	DILUPBiCGStab	8.46194720e-04	7.64461330e-05	1	true	GAMG	5.06947890e-03	4.71529920e-05	11	true	DILUPBiCGStab	1.50594260e-02	9.15599550e-04	1	true	DILUPBiCGStab	2.68781070e-04	2.33511220e-06	1	true
82              	DILUPBiCGStab	2.85647250e-03	2.07749570e-05	1	2.46535340e-03	2.37156820e-05	1	false	DILUPBiCGStab	8.15327280e-04	7.19262940e-05	1	true	GAMG	5.01763670e-03	4.73848240e-05	11	true	DILUPBiCGStab	1.46405090e-02	9.18807620e-04	1	true	DILUPBiCGStab	2.65281090e-04	2.29185370e-06	1	true
83              	DILUPBiCGStab	2.82456860e-03	2.06989140e-05	1	2.45163150e-03	2.26846410e-05	1	false	DILUPBiCGStab	7.81638410e-04	6.69823580e-05	1	true	GAMG	4.97501150e-03	4.73149720e-05	11	true	DILUPBiCGStab	1.42132230e-02	9.25761560e-04	1	true	DILUPBiCGStab	2.61934120e-04	2.24383840e-06	1	true
84              	DILUPBiCGStab	2.79468960e-03	2.06368480e-05	1	2.43817710e-03	2.14928920e-05	1	false	DILUPBiCGStab	7.47370600e-04	6.19533750e-05	1	true	GAMG	4.90159850e-03	4.73495320e-05	11	true	DILUPBiCGStab	1.37751230e-02	9.36180980e-04	1	true	DILUPBiCGStab	2.57079980e-04	2.16549440e-06	1	true
85              	DILUPBiCGStab	2.76559060e-03	2.05946000e-05	1	2.42539460e-03	2.03423130e-05	1	false	DILUPBiCGStab	7.13319460e-04	5.61099060e-05	1	true	GAMG	4.85642250e-03	4.76287780e-05	11	true	DILUPBiCGStab	1.33092890e-02	9.51868550e-04	1	true	DILUPBiCGStab	2.52349770e-04	2.50308760e-05	1	true
86              	DILUPBiCGStab	2.73775470e-03	2.05456600e-05	1	2.41347540e-03	1.88574770e-05	1	false	DILUPBiCGStab	6.80345850e-04	5.15920760e-05	1	true	GAMG	4.79752350e-03	4.79004240e-05	11	true	DILUPBiCGStab	1.28206100e-02	9.63436850e-04	1	true	DILUPBiCGStab	2.46022330e-04	2.66503840e-06	1	true
87              	DILUPBiCGStab	2.71130460e-03	2.04762680e-05	1	2.40147690e-03	1.72816040e-05	1	false	DILUPBiCGStab	6.51036330e-04	4.80686470e-05	1	true	GAMG	4.73640820e-03	4.03123900e-05	12	true	DILUPBiCGStab	1.23183630e-02	9.72100240e-04	1	true	DILUPBiCGStab	2.40547970e-04	2.35681980e-05	1	true
88              	DILUPBiCGStab	2.68595220e-03	2.03995220e-05	1	2.39054180e-03	1.58399950e-05	1	false	DILUPBiCGStab	6.24901510e-04	4.49147460e-05	1	true	GAMG	4.68354850e-03	3.87279730e-05	12	true	DILUPBiCGStab	1.18176490e-02	9.81060330e-04	1	true	DILUPBiCGStab	2.34005440e-04	2.38616360e-06	1	true
89              	DILUPBiCGStab	2.66176100e-03	2.02991760e-05	1	2.38000690e-03	1.48531930e-05	1	false	DILUPBiCGStab	6.01745570e-04	4.21376830e-05	1	true	GAMG	4.63421830e-03	3.83752970e-05	12	true	DILUPBiCGStab	1.13241000e-02	9.88510430e-04	1	true	DILUPBiCGStab	2.29578210e-04	2.18557680e-05	1	true
90              	DILUPBiCGStab	2.63827850e-03	2.01889690e-05	1	2.36941640e-03	1.41735830e-05	1	false	DILUPBiCGStab	5.81604510e-04	3.99343210e-05	1	true	GAMG	4.59257530e-03	3.83971980e-05	12	true	DILUPBiCGStab	1.08479100e-02	9.91847730e-04	1	true	DILUPBiCGStab	2.23556200e-04	2.18443540e-06	1	true
91              	DILUPBiCGStab	2.61562230e-03	2.00780030e-05	1	2.36107580e-03	1.36781750e-05	1	false	DILUPBiCGStab	5.65875810e-04	3.81597580e-05	1	true	GAMG	4.54711800e-03	3.82776830e-05	12	true	DILUPBiCGStab	1.03959180e-02	9.89227300e-04	1	true	DILUPBiCGStab	2.19578070e-04	2.04817510e-05	1	true
92              	DILUPBiCGStab	2.59417120e-03	1.99604180e-05	1	2.35164300e-03	1.33373130e-05	1	false	DILUPBiCGStab	5.52806040e-04	3.68517530e-05	1	true	GAMG	4.49168890e-03	3.80375760e-05	12	true	DILUPBiCGStab	9.97310880e-03	9.75827330e-04	1	true	DILUPBiCGStab	2.14252000e-04	2.03488410e-06	1	true
93              	DILUPBiCGStab	2.57376440e-03	1.98445220e-05	1	2.34373550e-03	1.30889340e-05	1	false	DILUPBiCGStab	5.43939900e-04	3.59198830e-05	1	true	GAMG	4.45419180e-03	3.79447660e-05	12	true	DILUPBiCGStab	9.57780110e-03	6.82101600e-05	1	true	DILUPBiCGStab	2.12401330e-04	1.95724340e-05	1	true
94              	DILUPBiCGStab	2.55385350e-03	1.97179930e-05	1	2.33561970e-03	1.28631730e-05	1	false	DILUPBiCGStab	5.38305400e-04	3.53832950e-05	1	true	GAMG	4.38551670e-03	3.77830620e-05	12	true	DILUPBiCGStab	9.24872390e-03	7.55405030e-04	1	true	DILUPBiCGStab	2.08795200e-04	1.95241810e-06	1	true
95              	DILUPBiCGStab	2.53499590e-03	1.96160070e-05	1	2.32731110e-03	1.26350090e-05	1	false	DILUPBiCGStab	5.35530150e-04	3.51302060e-05	1	true	GAMG	4.32493860e-03	3.69233700e-05	12	true	DILUPBiCGStab	8.94054640e-03	8.49324200e-04	1	true	DILUPBiCGStab	2.07710720e-04	1.91992210e-05	1	true
96              	DILUPBiCGStab	2.51642330e-03	1.95355240e-05	1	2.32007670e-03	1.24320170e-05	1	false	DILUPBiCGStab	5.35527010e-04	3.52182820e-05	1	true	GAMG	4.28872460e-03	3.58328890e-05	12	true	DILUPBiCGStab	8.66202710e-03	6.96518060e-05	1	true	DILUPBiCGStab	2.05092680e-04	1.93057320e-06	1	true
97              	DILUPBiCGStab	2.49846220e-03	1.94555570e-05	1	2.31255540e-03	1.21963180e-05	1	false	DILUPBiCGStab	5.38348640e-04	3.55168940e-05	1	true	GAMG	4.24625930e-03	3.52641140e-05	12	true	DILUPBiCGStab	8.40704410e-03	7.59138930e-04	1	true	DILUPBiCGStab	2.04254830e-04	1.91625610e-05	1	true
98              	DILUPBiCGStab	2.48086900e-03	1.93466480e-05	1	2.30559200e-03	1.19525750e-05	1	false	DILUPBiCGStab	5.43750610e-04	3.60824010e-05	1	true	GAMG	4.21678440e-03	3.47314920e-05	12	true	DILUPBiCGStab	8.18581530e-03	5.81795460e-05	1	true	DILUPBiCGStab	2.02401140e-04	1.94018150e-06	1	true
99              	DILUPBiCGStab	2.46361240e-03	1.92126870e-05	1	2.29824280e-03	1.17414830e-05	1	false	DILUPBiCGStab	5.52334340e-04	3.68557760e-05	1	true	GAMG	4.18900040e-03	3.42105480e-05	12	true	DILUPBiCGStab	7.98174690e-03	7.03857460e-04	1	true	DILUPBiCGStab	2.03011360e-04	1.93534200e-05	1	true