/*--------------------------------*- C++ -*----------------------------------*\
| =========                 |                                                 |
| \\      /  F ield         | OpenFOAM: The Open Source CFD Toolbox           |
|  \\    /   O peration     | Version:  2206                                  |
|   \\  /    A nd           | Website:  www.openfoam.com                      |
|    \\/     M anipulation  |                                                 |
\*---------------------------------------------------------------------------*/
FoamFile
{
    version     2.0;
    format      ascii;
    arch        "LSB;label=32;scalar=64";
    class       volScalarField;
    location    "668";
    object      alphat;
}
// * * * * * * * * * * * * * * * * * * * * * * * * * * * * * * * * * * * * * //

dimensions      [1 -1 -1 0 0 0 0];

internalField   nonuniform List<scalar> 
16000
(
3.4690346e-07
1.2598751e-05
1.4308682e-05
1.9682549e-05
1.5335934e-05
2.2286675e-05
1.6861067e-05
2.2791814e-05
1.8552833e-05
2.2354142e-05
1.9388154e-05
2.1433146e-05
1.9643621e-05
2.0344331e-05
1.9457576e-05
1.9686735e-05
1.9296985e-05
1.9406195e-05
1.9306472e-05
1.9436572e-05
1.9522761e-05
1.9731416e-05
1.9961483e-05
2.0271711e-05
2.0628411e-05
2.105498e-05
2.1544594e-05
2.2110356e-05
2.2757252e-05
2.3497094e-05
2.4340185e-05
2.5300868e-05
2.6397237e-05
2.7650972e-05
2.9088585e-05
3.0741643e-05
3.2648049e-05
3.4853147e-05
3.7411674e-05
4.0390629e-05
4.3871339e-05
4.7947926e-05
5.2735646e-05
5.8374022e-05
6.5034063e-05
7.2919791e-05
8.2280986e-05
9.3420523e-05
0.00010670635
0.00012258829
0.0001416129
0.00016444888
0.00019191073
0.00022499301
0.00026491036
0.00031314628
0.00037151434
0.00044223539
0.0005280375
0.00063228554
0.00075914911
0.00091381847
0.0011027672
0.0011608317
0.0011633536
0.001165653
0.0011677921
0.0011697668
0.0011715793
0.0011732153
0.0011746995
0.0011759741
0.0011771506
0.0011779885
0.001178867
0.0011789521
0.0011795394
0.0011777751
0.0011771085
0.0011714957
3.0762151e-07
1.1478077e-05
1.273472e-05
1.7533522e-05
1.3634774e-05
1.9573157e-05
1.4895356e-05
2.005695e-05
1.6463942e-05
1.9977116e-05
1.7327972e-05
1.9262628e-05
1.7643708e-05
1.8294047e-05
1.7483027e-05
1.7680998e-05
1.7321672e-05
1.7405728e-05
1.7310177e-05
1.7415569e-05
1.7489233e-05
1.7670404e-05
1.7877137e-05
1.8155904e-05
1.8480727e-05
1.886959e-05
1.9318103e-05
1.9836627e-05
2.043032e-05
2.1109298e-05
2.1882871e-05
2.2763242e-05
2.3766606e-05
2.4912128e-05
2.622382e-05
2.7730526e-05
2.9467157e-05
3.1475465e-05
3.3805916e-05
3.6520743e-05
3.9696586e-05
4.3421156e-05
4.7802374e-05
5.2970615e-05
5.9087121e-05
6.6343514e-05
7.4975496e-05
8.5269336e-05
9.7573098e-05
0.00011231373
0.00013001034
0.00015129998
0.00017696003
0.00020794196
0.00024541099
0.00029079408
0.00034584007
0.00041269498
0.00049399907
0.00059301104
0.00071377109
0.00086131016
0.0010419014
0.0011612025
0.0011636477
0.0011658604
0.0011679157
0.0011698125
0.001171549
0.0011731208
0.0011745308
0.0011757639
0.0011768501
0.0011777003
0.0011784256
0.0011786685
0.0011789056
0.0011776883
0.0011770846
0.0011713035
2.7468839e-07
1.054126e-05
1.1415132e-05
1.5950059e-05
1.2275528e-05
1.7482599e-05
1.3375901e-05
1.7875324e-05
1.4861171e-05
1.7953921e-05
1.5701482e-05
1.7358879e-05
1.5982237e-05
1.6472653e-05
1.5779982e-05
1.5887791e-05
1.5577737e-05
1.5607775e-05
1.5523203e-05
1.5590167e-05
1.5652052e-05
1.5797743e-05
1.5977458e-05
1.6216785e-05
1.6501707e-05
1.6842017e-05
1.7237075e-05
1.7693902e-05
1.8218415e-05
1.8819367e-05
1.9505825e-05
2.028861e-05
2.118298e-05
2.2206625e-05
2.3382036e-05
2.4735978e-05
2.6300781e-05
2.8115132e-05
3.0225822e-05
3.269063e-05
3.5582192e-05
3.8982761e-05
4.2994111e-05
4.7738691e-05
5.3369694e-05
6.0068292e-05
6.805854e-05
7.7613215e-05
8.9064006e-05
0.00010281937
0.00011937605
0.00013934562
0.00016347562
0.000192683
0.00022809334
0.0002710884
0.00032336527
0.00038701098
0.00046459732
0.00055930233
0.00067506865
0.0008168055
0.00099063605
0.0011619475
0.0011642771
0.0011663644
0.0011682999
0.0011700833
0.0011717127
0.0011731857
0.0011745
0.0011756524
0.0011766484
0.0011774517
0.0011780688
0.0011783585
0.0011783576
0.0011774711
0.0011765911
0.0011711681
2.4736984e-07
9.7656843e-06
1.2552476e-05
1.4363211e-05
1.1059093e-05
1.5642082e-05
1.2019644e-05
1.5996222e-05
1.3429114e-05
1.6183256e-05
1.4230989e-05
1.5654665e-05
1.4471455e-05
1.4836115e-05
1.4248585e-05
1.4292244e-05
1.4032631e-05
1.4027571e-05
1.3958126e-05
1.399847e-05
1.4050913e-05
1.416622e-05
1.4318143e-05
1.4518034e-05
1.4760011e-05
1.5049134e-05
1.5387193e-05
1.5779637e-05
1.6232909e-05
1.6755332e-05
1.7355995e-05
1.8044971e-05
1.8837066e-05
1.9748992e-05
2.0802103e-05
2.2021558e-05
2.3437802e-05
2.5087363e-05
2.7014145e-05
2.927196e-05
3.1930364e-05
3.5067154e-05
3.8779351e-05
4.3183042e-05
4.8425606e-05
5.4680177e-05
6.2161941e-05
7.1133666e-05
8.191457e-05
9.4899716e-05
0.00011056922
0.00012951646
0.00015246762
0.00018031532
0.00021415735
0.00025534434
0.00030553815
0.00036678653
0.00044161626
0.00053315282
0.00064527476
0.00078281236
0.00095179606
0.0011597672
0.0011654026
0.0011673175
0.0011690893
0.0011707184
0.0011722033
0.0011735413
0.0011747291
0.0011757655
0.0011766504
0.0011773617
0.0011778774
0.0011781333
0.0011779591
0.0011772634
0.0011759037
0.0011711336
2.2382923e-07
9.2995113e-06
1.3467816e-05
1.3298034e-05
1.0014494e-05
1.401681e-05
1.0820725e-05
1.433893e-05
1.2124969e-05
1.4554736e-05
1.2901752e-05
1.4053878e-05
1.3107699e-05
1.3342333e-05
1.2878128e-05
1.2858017e-05
1.2648592e-05
1.2605984e-05
1.2542774e-05
1.2550581e-05
1.2583178e-05
1.2661342e-05
1.2777452e-05
1.2933312e-05
1.3128847e-05
1.3366552e-05
1.3649722e-05
1.3983053e-05
1.43731e-05
1.4827859e-05
1.5356235e-05
1.5967479e-05
1.6675718e-05
1.7496533e-05
1.8450082e-05
1.9560173e-05
2.0855821e-05
2.2371846e-05
2.4149871e-05
2.624036e-05
2.8710734e-05
3.1635042e-05
3.5106663e-05
3.9236411e-05
4.4167427e-05
5.0066531e-05
5.7141989e-05
6.5648932e-05
7.5896688e-05
8.8270292e-05
0.00010323681
0.00012137558
0.00014339598
0.00017017123
0.00020277664
0.00024253757
0.00029108755
0.00035044269
0.00042309412
0.00051212607
0.0006213671
0.00075558515
0.00092073522
0.0011242672
0.0011669009
0.0011686066
0.0011701804
0.001171623
0.001172933
0.0011741075
0.0011751427
0.0011760376
0.0011767909
0.0011773827
0.0011777937
0.001177966
0.0011776638
0.0011770707
0.0011752908
0.0011712882
2.033547e-07
9.0252435e-06
1.3267418e-05
1.3103761e-05
1.1373449e-05
1.2598572e-05
1.0765443e-05
1.3110647e-05
1.2090967e-05
1.6570136e-05
1.185851e-05
1.2638703e-05
1.1919234e-05
1.1992407e-05
1.1615988e-05
1.1518963e-05
1.1330898e-05
1.1244124e-05
1.1171361e-05
1.1145421e-05
1.1154294e-05
1.1199884e-05
1.1285256e-05
1.140708e-05
1.1567803e-05
1.1768749e-05
1.2013439e-05
1.2306127e-05
1.2652912e-05
1.3061466e-05
1.3540385e-05
1.409813e-05
1.4748175e-05
1.5505154e-05
1.638827e-05
1.7420295e-05
1.862912e-05
2.0048307e-05
2.1718093e-05
2.368645e-05
2.6019799e-05
2.8789656e-05
3.2087535e-05
3.6020224e-05
4.0728729e-05
4.6375847e-05
5.3165716e-05
6.1349421e-05
7.1230175e-05
8.3187948e-05
9.7682109e-05
0.00011528449
0.00013669519
0.00016277694
0.00019459345
0.00023345739
0.00028098891
0.0003391897
0.00041053582
0.00049809446
0.00060567341
0.00073801326
0.00090103395
0.0011021417
0.001168774
0.0011702369
0.0011715812
0.001172808
0.0011739157
0.0011749008
0.0011757591
0.0011764896
0.0011770891
0.0011775399
0.0011778326
0.0011778853
0.0011774824
0.0011769144
0.0011747894
0.0011715639
1.8546536e-07
8.8525339e-06
1.2784746e-05
1.2180266e-05
1.0594608e-05
1.1217204e-05
9.8935545e-06
1.2801674e-05
1.0273582e-05
1.6130386e-05
1.0250857e-05
1.1270128e-05
1.0674828e-05
1.0623505e-05
1.0300507e-05
1.0153279e-05
9.9829046e-06
9.8743661e-06
9.8019e-06
9.7627925e-06
9.7636642e-06
9.7964462e-06
9.8689637e-06
9.8978513e-06
1.0034495e-05
1.0211328e-05
1.0431047e-05
1.0697399e-05
1.1015673e-05
1.1393119e-05
1.1838036e-05
1.2358204e-05
1.2966642e-05
1.3677239e-05
1.4508498e-05
1.5482352e-05
1.6625783e-05
1.7971447e-05
1.9558824e-05
2.1606135e-05
2.3847372e-05
2.6514018e-05
2.9697268e-05
3.3501022e-05
3.8066173e-05
4.3553353e-05
5.0164979e-05
5.8151301e-05
6.7812537e-05
7.9527823e-05
9.3753131e-05
0.00011105838
0.00013214099
0.00015786091
0.00018927941
0.00022770693
0.00027476212
0.00033244614
0.00040323629
0.00049020231
0.0005971549
0.00072883569
0.00089116058
0.0010915254
0.0011709446
0.0011721394
0.0011732308
0.0011742195
0.001175104
0.00117588
0.001176543
0.0011770912
0.0011775193
0.0011778142
0.001177974
0.0011778846
0.001177401
0.0011767958
0.0011744032
0.0011719089
1.6982037e-07
8.7345454e-06
1.1274532e-05
1.0718634e-05
7.8131301e-06
9.9396478e-06
7.8310056e-06
1.0349373e-05
9.1206397e-06
1.0352342e-05
9.6984142e-06
9.8553811e-06
9.3839263e-06
9.2600589e-06
9.0034317e-06
8.842132e-06
8.7030899e-06
8.5974031e-06
8.4691216e-06
8.4175422e-06
8.4113131e-06
8.4369606e-06
8.5026052e-06
8.6001781e-06
8.7359808e-06
8.9093338e-06
9.1227488e-06
9.3803432e-06
9.6872077e-06
1.0050718e-05
1.0479426e-05
1.0980882e-05
1.1568127e-05
1.2254762e-05
1.3059107e-05
1.4002757e-05
1.5112409e-05
1.6420513e-05
1.7966706e-05
1.9799136e-05
2.197663e-05
2.4572489e-05
2.7678847e-05
3.1669693e-05
3.6171206e-05
4.1592208e-05
4.813586e-05
5.6055214e-05
6.5650797e-05
7.7306029e-05
9.1478579e-05
0.00010874335
0.0001298033
0.00015552512
0.00018697857
0.00022548484
0.00027267624
0.00033057164
0.00040167128
0.00048907378
0.00059662434
0.00072910342
0.00089246712
0.0010941498
0.0011733605
0.0011742694
0.0011750907
0.0011758255
0.0011764716
0.0011770241
0.001177478
0.0011778304
0.0011780734
0.0011782021
0.0011782139
0.0011779704
0.0011774211
0.0011767253
0.0011741338
0.0011723284
1.5625906e-07
8.6411814e-06
8.2206951e-06
9.2117717e-06
6.796623e-06
9.0403881e-06
7.4544075e-06
9.2640069e-06
8.2335686e-06
9.1435364e-06
8.4997142e-06
8.5994994e-06
8.2502756e-06
8.074378e-06
7.8747552e-06
7.6413975e-06
7.5009897e-06
7.3871384e-06
7.328098e-06
7.2944768e-06
7.3018766e-06
7.3373245e-06
7.409164e-06
7.5104852e-06
7.6473987e-06
7.8202981e-06
8.0315977e-06
8.2858979e-06
8.5882189e-06
8.94609e-06
9.3684208e-06
9.862594e-06
1.0441822e-05
1.1119547e-05
1.1914117e-05
1.2847104e-05
1.3945295e-05
1.5241318e-05
1.6775174e-05
1.8595573e-05
2.0761897e-05
2.334798e-05
2.6449187e-05
3.017214e-05
3.4652801e-05
4.0059032e-05
4.7012963e-05
5.4990349e-05
6.4668092e-05
7.6439512e-05
9.07691e-05
0.00010824377
0.00012957989
0.00015566011
0.00018757352
0.00022666529
0.00027459732
0.00033342513
0.00040569475
0.00049456117
0.00060393721
0.00073868197
0.00090483831
0.0011099309
0.0011759457
0.0011765591
0.0011771016
0.0011775738
0.0011779731
0.0011782939
0.001178531
0.001178679
0.0011787291
0.0011786855
0.0011785363
0.0011781376
0.0011775344
0.0011767052
0.0011739917
0.0011728142
1.4488817e-07
8.5681809e-06
6.4377953e-06
8.4038361e-06
6.1769548e-06
8.2347035e-06
6.7237351e-06
8.2532173e-06
7.466107e-06
8.0625112e-06
7.6195431e-06
7.5534166e-06
7.2834918e-06
6.9898673e-06
6.7903133e-06
6.6102712e-06
6.5028258e-06
6.4109626e-06
6.3697611e-06
6.3505069e-06
6.3680908e-06
6.4120067e-06
6.4899491e-06
6.5964819e-06
6.7373919e-06
6.9140826e-06
7.1288018e-06
7.3865845e-06
7.6923152e-06
8.053599e-06
8.4797964e-06
8.978117e-06
9.5621187e-06
1.0245257e-05
1.1046179e-05
1.1986779e-05
1.3094371e-05
1.4402297e-05
1.5951586e-05
1.7792355e-05
1.9985541e-05
2.2606248e-05
2.5754445e-05
2.9539444e-05
3.4101368e-05
3.9613573e-05
4.6293977e-05
5.4398284e-05
6.4833617e-05
7.6903177e-05
9.1607509e-05
0.00010955307
0.00013147803
0.0001582914
0.00019111432
0.00023133137
0.00028065254
0.0003411919
0.00041556752
0.00050702257
0.00061957663
0.00075821504
0.00092912456
0.0011399869
0.001178629
0.0011789455
0.0011792076
0.0011794154
0.0011795658
0.0011796529
0.0011796707
0.0011796108
0.0011794658
0.0011792465
0.0011789266
0.0011783806
0.0011777284
0.0011767266
0.0011739726
0.0011733674
1.3529075e-07
8.4873903e-06
5.3778474e-06
7.6363347e-06
5.6346667e-06
7.4285409e-06
6.1940029e-06
7.4083435e-06
6.7987102e-06
7.1387271e-06
6.7978712e-06
6.5516944e-06
6.279442e-06
6.0310132e-06
5.8766926e-06
5.7227644e-06
5.6393145e-06
5.5679357e-06
5.542112e-06
5.5378105e-06
5.56723e-06
5.6227833e-06
5.711144e-06
5.8281416e-06
5.9790995e-06
6.1662422e-06
6.3916206e-06
6.6606416e-06
6.9781056e-06
7.351695e-06
7.7394071e-06
8.2456822e-06
8.8390531e-06
9.5330112e-06
1.0346643e-05
1.1302319e-05
1.2428113e-05
1.3758386e-05
1.5335606e-05
1.7211831e-05
1.9450326e-05
2.2309573e-05
2.5556287e-05
2.9464863e-05
3.4181524e-05
3.9886345e-05
4.6809512e-05
5.5218151e-05
6.5445913e-05
7.7908293e-05
9.3962061e-05
0.00011264401
0.00013547736
0.00016340907
0.00019760629
0.00023950956
0.00029089668
0.00035396371
0.00043142958
0.0005266614
0.00064382965
0.00078810053
0.00096587152
0.0011812671
0.0011813341
0.00118136
0.0011813472
0.0011812954
0.0011812011
0.0011810584
0.0011808597
0.001180594
0.0011802569
0.0011798614
0.0011793662
0.0011786884
0.0011779831
0.0011767825
0.0011740942
0.0011739426
1.270502e-07
8.312577e-06
4.8156175e-06
6.9404551e-06
5.1599378e-06
6.7176437e-06
5.6990581e-06
6.6212863e-06
6.1648534e-06
6.2863456e-06
5.8866357e-06
5.6084296e-06
5.4029777e-06
5.1826475e-06
5.0631354e-06
4.9390049e-06
4.8787605e-06
4.8313614e-06
4.8243483e-06
4.8395292e-06
4.8858296e-06
4.9582566e-06
5.0625686e-06
5.1955938e-06
5.3623227e-06
5.5295628e-06
5.7654414e-06
6.0463103e-06
6.3767792e-06
6.7644026e-06
7.2177699e-06
7.747809e-06
8.3675721e-06
9.0909912e-06
9.9381605e-06
1.0932509e-05
1.2103566e-05
1.3487508e-05
1.5129174e-05
1.7083742e-05
1.9418441e-05
2.2216974e-05
2.5584822e-05
2.9645384e-05
3.4552599e-05
4.0852072e-05
4.8125265e-05
5.6966888e-05
6.7728124e-05
8.0850281e-05
9.6865146e-05
0.0001175276
0.00014160489
0.00017106187
0.00020712644
0.00025131299
0.00030548903
0.00037195935
0.00045357688
0.00055387397
0.00067722357
0.00082903696
0.001016002
0.001184216
0.00118399
0.0011837381
0.0011834621
0.0011831612
0.0011828319
0.0011824682
0.0011820605
0.0011815959
0.0011810744
0.0011805043
0.0011798354
0.0011790444
0.0011782745
0.0011768697
0.0011743798
0.0011744274
1.2008308e-07
8.053604e-06
4.3959656e-06
6.2944928e-06
4.720629e-06
6.0568192e-06
5.2266491e-06
5.8784745e-06
5.4691292e-06
5.3056126e-06
5.040879e-06
4.7750045e-06
4.6222506e-06
4.4401958e-06
4.353467e-06
4.2630777e-06
4.2279928e-06
4.2072932e-06
4.2219066e-06
4.2591528e-06
4.3252223e-06
4.4172525e-06
4.5085531e-06
4.6543892e-06
4.8349605e-06
5.0520692e-06
5.3103176e-06
5.6145749e-06
5.9697064e-06
6.383752e-06
6.8657398e-06
7.4272335e-06
8.0824263e-06
8.845817e-06
9.7388566e-06
1.0786377e-05
1.201984e-05
1.347779e-05
1.5208115e-05
1.7269959e-05
1.9735041e-05
2.2692242e-05
2.6255834e-05
3.0557346e-05
3.5761773e-05
4.207275e-05
4.9743677e-05
5.907968e-05
7.1078974e-05
8.5052186e-05
0.00010211373
0.00012296194
0.00014988111
0.00018128779
0.00021973522
0.00026683176
0.00032455977
0.00039536303
0.00048226592
0.00058901276
0.00072023745
0.00088167034
0.0010803811
0.0011870298
0.0011865306
0.0011860192
0.0011854966
0.0011849619
0.0011844118
0.00118384
0.0011832347
0.0011825832
0.0011818881
0.0011811467
0.0011803113
0.0011794253
0.0011785774
0.0011769747
0.0011748444
0.0011747772
1.1461437e-07
6.1866319e-06
4.033327e-06
5.6953593e-06
4.3105164e-06
5.4351395e-06
4.7751536e-06
5.1110022e-06
4.7138136e-06
4.4919854e-06
4.3079014e-06
4.0707982e-06
3.9612449e-06
3.8188837e-06
3.7612102e-06
3.702851e-06
3.6914496e-06
3.6961011e-06
3.7319568e-06
3.7658887e-06
3.8444714e-06
3.9511435e-06
4.0888601e-06
4.2581135e-06
4.4624144e-06
4.7040204e-06
4.9878803e-06
5.3195119e-06
5.7040223e-06
6.1500164e-06
6.6670309e-06
7.2673354e-06
7.9210932e-06
8.7263229e-06
9.6677667e-06
1.0771733e-05
1.2071851e-05
1.3609267e-05
1.5435252e-05
1.7613538e-05
2.0221013e-05
2.3535871e-05
2.7345071e-05
3.1947911e-05
3.752201e-05
4.4285792e-05
5.2514027e-05
6.2536579e-05
7.4756188e-05
9.0500078e-05
0.00010884658
0.00013127172
0.00015869773
0.00019411141
0.00023547779
0.00028614089
0.00034822654
0.00042435085
0.00051775108
0.0006324357
0.00077336659
0.00094667962
0.0011599382
0.0011896478
0.0011888995
0.0011881506
0.0011874018
0.0011866521
0.0011858987
0.0011851347
0.0011843465
0.001183524
0.001182668
0.0011817603
0.0011807695
0.0011798033
0.0011788696
0.0011771851
0.0011754903
0.0011756726
1.1035157e-07
4.6908628e-06
3.7111701e-06
5.1229269e-06
3.9513462e-06
4.8609922e-06
4.3726426e-06
4.328196e-06
4.0683819e-06
3.8199143e-06
3.6934804e-06
3.4906407e-06
3.4133059e-06
3.3069472e-06
3.2733716e-06
3.2434369e-06
3.2536497e-06
3.2580854e-06
3.3063883e-06
3.3802994e-06
3.4836769e-06
3.6150727e-06
3.7774684e-06
3.9719999e-06
4.202562e-06
4.4717448e-06
4.7848003e-06
5.124352e-06
5.5377593e-06
6.0154945e-06
6.5674882e-06
7.2065129e-06
7.9480942e-06
8.8114225e-06
9.8199763e-06
1.100204e-05
1.2394184e-05
1.4040973e-05
1.5997964e-05
1.8334914e-05
2.113568e-05
2.45051e-05
2.8572193e-05
3.3493443e-05
3.9460676e-05
4.7105405e-05
5.5995709e-05
6.6832316e-05
8.00523e-05
9.6196926e-05
0.00011701994
0.00014131121
0.00017102605
0.00020739149
0.00025432607
0.00030923092
0.00037650859
0.00045898367
0.00056015148
0.00068434249
0.00083692241
0.0010245329
0.0011930015
0.001192022
0.0011910511
0.0011900895
0.0011891371
0.0011881935
0.0011872563
0.0011863176
0.0011853646
0.0011843899
0.0011833863
0.0011823201
0.0011811892
0.001180149
0.0011791865
0.0011775913
0.0011763841
0.0011769207
1.0570699e-07
4.3440539e-06
3.3500382e-06
4.587596e-06
3.637343e-06
4.3447359e-06
3.7929441e-06
3.6731045e-06
3.507639e-06
3.2585955e-06
3.171127e-06
3.0052011e-06
2.9530199e-06
2.8798855e-06
2.8682518e-06
2.8456258e-06
2.8670155e-06
2.9114882e-06
2.9863604e-06
3.0868309e-06
3.2161147e-06
3.3738312e-06
3.5630756e-06
3.7853972e-06
4.0288764e-06
4.3246658e-06
4.6661348e-06
5.059098e-06
5.5107979e-06
6.0302511e-06
6.6280929e-06
7.3181617e-06
8.1172836e-06
9.0463756e-06
1.0131276e-05
1.1402422e-05
1.2899875e-05
1.4672149e-05
1.6779478e-05
1.9298742e-05
2.2320954e-05
2.5960453e-05
3.0358755e-05
3.568665e-05
4.2153981e-05
5.0018313e-05
6.0128699e-05
7.1900081e-05
8.6266752e-05
0.00010382334
0.00012528327
0.00015297173
0.00018532099
0.00022492364
0.00027341721
0.00033596173
0.00040926708
0.00049913265
0.00060936129
0.00074466909
0.0009109076
0.0011153323
0.0011953016
0.0011941187
0.0011929531
0.0011918044
0.0011906724
0.0011895569
0.0011884558
0.0011873611
0.0011862634
0.0011851562
0.0011840197
0.0011828101
0.0011815583
0.0011805926
0.0011796563
0.0011781399
0.001177448
0.0011782539
1.0184345e-07
4.0570475e-06
3.0262077e-06
4.0967066e-06
3.3516203e-06
3.7056327e-06
3.3066862e-06
3.111055e-06
3.0088938e-06
2.7793913e-06
2.7202777e-06
2.5929553e-06
2.5633721e-06
2.5223439e-06
2.5085171e-06
2.5226772e-06
2.5729344e-06
2.6466423e-06
2.7489738e-06
2.877183e-06
3.0341184e-06
3.2200922e-06
3.4252737e-06
3.6742968e-06
3.9615978e-06
4.2912989e-06
4.6685752e-06
5.0997431e-06
5.5925918e-06
6.1569981e-06
6.8043338e-06
7.5496408e-06
8.4111896e-06
9.4117945e-06
1.0527522e-05
1.1884761e-05
1.3484486e-05
1.5379385e-05
1.7747177e-05
2.0468743e-05
2.3736945e-05
2.7676303e-05
3.2442754e-05
3.8222764e-05
4.5245472e-05
5.3793154e-05
6.4211735e-05
7.6924915e-05
9.3274332e-05
0.00011240394
0.00013580023
0.00016442746
0.00020135582
0.00024459163
0.00029755565
0.00036598424
0.0004461083
0.00054436225
0.00066490877
0.00081291743
0.00099481113
0.0011986579
0.0011972756
0.0011959189
0.0011945862
0.0011932761
0.0011919883
0.0011907228
0.001189477
0.0011882452
0.0011870228
0.0011858021
0.0011845497
0.0011832235
0.0011820503
0.0011811984
0.0011802596
0.0011788404
0.0011785852
0.0011795247
9.8659876e-08
3.7765368e-06
2.7233713e-06
3.6277877e-06
3.0881873e-06
3.102105e-06
2.8642672e-06
2.6254894e-06
2.5645729e-06
2.3688362e-06
2.3327594e-06
2.2446192e-06
2.2249623e-06
2.2016819e-06
2.2281952e-06
2.2755297e-06
2.3550185e-06
2.4583543e-06
2.5892628e-06
2.7463655e-06
2.9226843e-06
3.1355392e-06
3.3812911e-06
3.6627178e-06
3.9835599e-06
4.3483497e-06
4.7626867e-06
5.233412e-06
5.7688455e-06
6.360028e-06
7.0533316e-06
7.8496879e-06
8.7687254e-06
9.8348687e-06
1.1078475e-05
1.2537301e-05
1.4258214e-05
1.629925e-05
1.8732251e-05
2.1645906e-05
2.51494e-05
2.9593457e-05
3.4756201e-05
4.1023637e-05
4.864523e-05
5.7929206e-05
6.9253392e-05
8.3081086e-05
0.00010089989
0.00012173312
0.00014722913
0.00017844299
0.00021877677
0.0002659769
0.00032383466
0.00039477604
0.00048633959
0.00059387271
0.00072587884
0.00088805125
0.0010874714
0.0012004539
0.0011989201
0.0011974178
0.0011959444
0.0011944979
0.0011930775
0.0011916824
0.00119031
0.0011889585
0.0011876291
0.0011863102
0.0011849618
0.001183683
0.0011826712
0.0011819091
0.0011809675
0.0011797354
0.0011798418
0.0011807889
9.631054e-08
3.4818921e-06
2.4431927e-06
3.1810116e-06
2.6755085e-06
2.5829085e-06
2.4556636e-06
2.2080522e-06
2.1740851e-06
2.0207365e-06
2.0061611e-06
1.9441845e-06
1.9466595e-06
1.9629514e-06
2.0207905e-06
2.1004702e-06
2.2095258e-06
2.3426252e-06
2.496474e-06
2.680405e-06
2.8935277e-06
3.1373701e-06
3.4145907e-06
3.7283298e-06
4.0826291e-06
4.4823974e-06
4.9336624e-06
5.4310586e-06
6.0049636e-06
6.6571606e-06
7.4014403e-06
8.2549505e-06
9.2390537e-06
1.0380313e-05
1.1711821e-05
1.327483e-05
1.5120562e-05
1.7312271e-05
1.992828e-05
2.3065306e-05
2.684263e-05
3.1407261e-05
3.7219855e-05
4.3997376e-05
5.2246115e-05
6.23016e-05
7.4575648e-05
8.9574154e-05
0.00010791919
0.0001315478
0.00015925334
0.00019319659
0.00023480539
0.00028851231
0.00035156896
0.00042894884
0.00052896623
0.00064648333
0.00079087793
0.00096843428
0.0011869743
0.0012019033
0.0012002455
0.0011986238
0.0011970346
0.0011954752
0.0011939439
0.0011924382
0.0011909557
0.0011894997
0.0011880758
0.001186669
0.0011853512
0.0011842309
0.0011833712
0.0011826762
0.0011817456
0.0011807379
0.0011810969
0.001181905
9.5050756e-08
3.1626048e-06
2.1853905e-06
2.7579341e-06
2.3092269e-06
2.1379905e-06
2.0797063e-06
1.8532831e-06
1.8405298e-06
1.733054e-06
1.7307687e-06
1.7045508e-06
1.7406968e-06
1.7939087e-06
1.882581e-06
1.9934499e-06
2.1315548e-06
2.2886992e-06
2.4750808e-06
2.6885578e-06
2.9310723e-06
3.2046054e-06
3.5120504e-06
3.8568446e-06
4.2432996e-06
4.6766686e-06
5.1539682e-06
5.6985795e-06
6.3133368e-06
7.0101212e-06
7.8038796e-06
8.7131963e-06
9.7611722e-06
1.0976569e-05
1.2395372e-05
1.4062492e-05
1.6033659e-05
1.8377426e-05
2.1178721e-05
2.4542257e-05
2.8597048e-05
3.3749357e-05
3.9750861e-05
4.7046947e-05
5.5933539e-05
6.6774429e-05
8.001639e-05
9.6206896e-05
0.00011709536
0.00014154873
0.00017151156
0.00020824843
0.00025331426
0.00031152486
0.00037993661
0.00046397547
0.00057273523
0.00070067114
0.00085806553
0.0010518616
0.0012048322
0.0012030315
0.0012012745
0.0011995569
0.0011978745
0.0011962241
0.0011946022
0.001193004
0.0011914274
0.0011898792
0.0011883669
0.0011869856
0.0011858038
0.0011848321
0.0011841048
0.0011834587
0.0011825689
0.001181781
0.0011822509
0.0011828157
9.5405798e-08
2.8156971e-06
1.9540402e-06
2.3010265e-06
1.9885304e-06
1.7661071e-06
1.7457968e-06
1.5594781e-06
1.5652485e-06
1.5048139e-06
1.5153435e-06
1.5339308e-06
1.6025239e-06
1.6898212e-06
1.8078416e-06
1.9477252e-06
2.1098415e-06
2.2974308e-06
2.5110654e-06
2.7516119e-06
3.0212267e-06
3.3222449e-06
3.6577574e-06
4.031437e-06
4.4478257e-06
4.9066152e-06
5.4239598e-06
6.0040783e-06
6.6572171e-06
7.3961192e-06
8.2369131e-06
9.1995456e-06
1.0308848e-05
1.1595925e-05
1.3099708e-05
1.4868642e-05
1.6963136e-05
1.9456975e-05
2.2441704e-05
2.6030012e-05
3.0565329e-05
3.5852445e-05
4.227091e-05
5.0079609e-05
5.9597113e-05
7.1215864e-05
8.5416643e-05
0.00010278692
0.0001251728
0.00015143257
0.000183634
0.00022313961
0.00027163274
0.00033427824
0.0004080237
0.00049871831
0.00061620017
0.00075463781
0.00092521615
0.0011355941
0.0012057547
0.0012038734
0.0012020388
0.0012002459
0.0011984907
0.0011967693
0.0011950758
0.0011934037
0.0011917513
0.0011901218
0.0011886253
0.0011873618
0.0011862967
0.001185461
0.0011848408
0.0011842235
0.0011833934
0.0011828233
0.0011833498
0.0011837002
9.8246225e-08
2.4511382e-06
1.7540359e-06
1.8361065e-06
1.702397e-06
1.4571143e-06
1.521422e-06
1.3338824e-06
1.3474454e-06
1.3220749e-06
1.3686246e-06
1.4265759e-06
1.5253916e-06
1.6429955e-06
1.7873645e-06
1.9528821e-06
2.1399257e-06
2.3520622e-06
2.5897355e-06
2.8543771e-06
3.1483197e-06
3.4741519e-06
3.8351143e-06
4.2350613e-06
4.6787143e-06
5.1718391e-06
5.7215536e-06
6.3367411e-06
7.0172151e-06
7.7954294e-06
8.6802868e-06
9.6930538e-06
1.086046e-05
1.2216049e-05
1.380146e-05
1.5737317e-05
1.7967331e-05
2.0625879e-05
2.3811469e-05
2.7645484e-05
3.2277414e-05
3.7890848e-05
4.4710259e-05
5.3011711e-05
6.3135975e-05
7.5502415e-05
9.0623238e-05
0.00011008078
0.00013290985
0.00016090196
0.00019524717
0.00023739848
0.00029190387
0.00035600961
0.00043486927
0.00053196261
0.00065779015
0.00080640134
0.00098983845
0.0012084097
0.0012064133
0.0012044707
0.0012025766
0.0012007264
0.0011989161
0.0011971405
0.0011953927
0.0011936672
0.001191965
0.0011903231
0.0011889448
0.0011877742
0.0011868131
0.0011860944
0.0011855427
0.0011849272
0.0011841747
0.0011838433
0.0011844185
0.0011845341
1.0502415e-07
2.0794019e-06
1.5889998e-06
1.4752534e-06
1.4442436e-06
1.2266295e-06
1.262581e-06
1.1475656e-06
1.192451e-06
1.203481e-06
1.2822877e-06
1.3739755e-06
1.4988089e-06
1.6418305e-06
1.80839e-06
1.9955296e-06
2.2043479e-06
2.437422e-06
2.6959441e-06
2.9817139e-06
3.2971712e-06
3.6450644e-06
4.0287456e-06
4.4522188e-06
4.9203655e-06
5.4391561e-06
6.0160246e-06
6.6603449e-06
7.383873e-06
8.2012028e-06
9.1304941e-06
1.019468e-05
1.1422672e-05
1.2850476e-05
1.4522654e-05
1.6494478e-05
1.8834454e-05
2.162718e-05
2.4976926e-05
2.90122e-05
3.3891382e-05
3.9809175e-05
4.7002182e-05
5.5762658e-05
6.6451821e-05
8.0172137e-05
9.6260221e-05
0.00011594278
0.00014005898
0.0001696473
0.00020596398
0.00025289807
0.00030807238
0.00037592895
0.00045947294
0.00056790119
0.00069585659
0.00085386928
0.001049268
0.0012089016
0.0012068581
0.0012048699
0.0012029318
0.0012010392
0.0011991879
0.0011973712
0.001195582
0.0011938186
0.0011920834
0.0011905758
0.0011892932
0.0011882047
0.0011873381
0.0011867029
0.0011861709
0.0011855418
0.0011849026
0.0011848288
0.0011854359
0.0011852712
1.1832739e-07
1.6630198e-06
1.4572386e-06
1.2252237e-06
1.3128177e-06
1.0115756e-06
1.0675973e-06
1.0218262e-06
1.0880362e-06
1.1403098e-06
1.2446716e-06
1.3638071e-06
1.5091717e-06
1.6723675e-06
1.8569745e-06
2.0620119e-06
2.2895359e-06
2.5400821e-06
2.8165876e-06
3.1206899e-06
3.4548834e-06
3.8220239e-06
4.2255603e-06
4.6696169e-06
5.1592122e-06
5.7005466e-06
6.3014119e-06
6.9716291e-06
7.7233788e-06
8.5718773e-06
9.5363344e-06
1.0641148e-05
1.1916785e-05
1.3401014e-05
1.5140741e-05
1.7194224e-05
1.9633499e-05
2.2547379e-05
2.6045202e-05
3.0261595e-05
3.5607673e-05
4.1845162e-05
4.9427118e-05
5.8661962e-05
6.9931286e-05
8.3699384e-05
0.00010052959
0.00012112483
0.00014637147
0.00017901931
0.00021734426
0.00026437881
0.00032216521
0.00039326971
0.00048556716
0.00059442291
0.00072882922
0.00089503559
0.0011008998
0.0012092199
0.0012071425
0.0012051214
0.0012031517
0.0012012292
0.0011993484
0.0011975014
0.0011956821
0.0011938903
0.0011922383
0.0011908408
0.0011896422
0.0011886358
0.0011878512
0.0011872596
0.0011867148
0.0011860891
0.0011855876
0.0011857213
0.0011863313
0.0011859513
1.4044545e-07
1.4681735e-06
1.3273611e-06
9.656091e-07
1.0252317e-06
8.876974e-07
9.3545624e-07
9.4311691e-07
1.0278581e-06
1.1169442e-06
1.2414823e-06
1.3813736e-06
1.5430619e-06
1.722474e-06
1.922257e-06
2.1425345e-06
2.385177e-06
2.6515782e-06
2.9437512e-06
3.2638242e-06
3.6143799e-06
3.9984136e-06
4.4195098e-06
4.8819532e-06
5.3910001e-06
5.9498132e-06
6.5718847e-06
7.264957e-06
8.0511953e-06
8.9308971e-06
9.9314109e-06
1.1078409e-05
1.2403756e-05
1.3947074e-05
1.5757647e-05
1.7896541e-05
2.0439152e-05
2.3478319e-05
2.7128359e-05
3.153018e-05
3.6856732e-05
4.3319138e-05
5.1176684e-05
6.0750213e-05
7.2436632e-05
8.671441e-05
0.00010509112
0.00012660362
0.00015297985
0.00018536366
0.00022510648
0.00027386631
0.00033376962
0.00041138418
0.00050295051
0.00061593894
0.00075556107
0.00092839535
0.0011427143
0.0012094209
0.0012073193
0.001205275
0.0012032836
0.0012013408
0.0011994401
0.0011975746
0.0011957417
0.0011939428
0.0011924024
0.0011910913
0.0011899694
0.0011890441
0.0011883274
0.0011877578
0.0011872066
0.0011866223
0.0011862134
0.0011863218
0.0011867674
0.0011863704
1.3446655e-07
1.2519895e-06
1.1471149e-06
8.3672233e-07
8.691543e-07
7.8887405e-07
8.4718235e-07
8.9815655e-07
1.0033407e-06
1.1190765e-06
1.2597461e-06
1.4154321e-06
1.5905678e-06
1.7834343e-06
1.9961226e-06
2.2293227e-06
2.4847895e-06
2.7640915e-06
3.0692635e-06
3.4025374e-06
3.766571e-06
4.164444e-06
4.5997959e-06
5.0769903e-06
5.6014364e-06
6.1798834e-06
6.8206465e-06
7.5340142e-06
8.3330671e-06
9.2345884e-06
1.0259696e-05
1.1434718e-05
1.2792475e-05
1.4373892e-05
1.6229805e-05
1.8423134e-05
2.1031447e-05
2.4150149e-05
2.789681e-05
3.2416294e-05
3.7885682e-05
4.484283e-05
5.2970638e-05
6.2872361e-05
7.4958205e-05
8.9715877e-05
0.0001077357
0.00012977882
0.00015682771
0.0001900567
0.00023082083
0.00028338542
0.00034520296
0.00042131272
0.00051517009
0.00063103899
0.0007742949
0.00095173534
0.0011718989
0.0012095534
0.0012074358
0.0012053761
0.0012033702
0.0012014126
0.0011994962
0.0011976151
0.0011957685
0.0011940329
0.001192569
0.0011913198
0.0011902615
0.0011894048
0.0011887394
0.0011881853
0.0011876384
0.0011871052
0.0011867913
0.0011868981
0.0011871657
0.001186721
1.1150104e-07
8.741228e-07
9.7385332e-07
7.2582689e-07
7.4699111e-07
7.2210212e-07
7.9841121e-07
8.823357e-07
1.0030808e-06
1.1355616e-06
1.287719e-06
1.4546336e-06
1.6391932e-06
1.8411408e-06
2.0621994e-06
2.3034336e-06
2.5665567e-06
2.8531529e-06
3.1655058e-06
3.5058464e-06
3.8768851e-06
4.2817401e-06
4.7240751e-06
5.2083266e-06
5.7399991e-06
6.3258467e-06
6.9741204e-06
7.6951994e-06
8.5114391e-06
9.4252926e-06
1.0464603e-05
1.1656142e-05
1.303337e-05
1.4637952e-05
1.6521591e-05
1.8748213e-05
2.1396497e-05
2.4563237e-05
2.8367938e-05
3.2957797e-05
3.8512009e-05
4.5248309e-05
5.3436553e-05
6.3416739e-05
7.5602255e-05
9.0476706e-05
0.00010863068
0.00013199692