/*--------------------------------*- C++ -*----------------------------------*\
| =========                 |                                                 |
| \\      /  F ield         | OpenFOAM: The Open Source CFD Toolbox           |
|  \\    /   O peration     | Version:  2206                                  |
|   \\  /    A nd           | Website:  www.openfoam.com                      |
|    \\/     M anipulation  |                                                 |
\*---------------------------------------------------------------------------*/
FoamFile
{
    version     2.0;
    format      ascii;
    arch        "LSB;label=32;scalar=64";
    class       volScalarField;
    location    "668";
    object      div(phi);
}
// * * * * * * * * * * * * * * * * * * * * * * * * * * * * * * * * * * * * * //

dimensions      [1 -3 -1 0 0 0 0];

internalField   nonuniform List<scalar> 
16000
(
0.00023236924
0.00023534844
0.0001775834
0.00020908962
0.00013987737
0.0001822523
0.0001058535
0.00015600047
7.6396481e-05
0.00012871311
5.4750755e-05
9.9978119e-05
3.2216284e-05
7.1309573e-05
1.8309047e-05
4.8388202e-05
7.7638613e-06
3.3058485e-05
5.2889399e-06
2.5380503e-05
5.9486689e-06
2.2137156e-05
7.8868104e-06
1.9760701e-05
8.5353836e-06
1.6668322e-05
7.8363019e-06
1.3034499e-05
6.4483035e-06
9.47269e-06
4.9651651e-06
6.4224041e-06
3.6616855e-06
4.0618955e-06
2.6131313e-06
2.3891846e-06
1.8077415e-06
1.2977094e-06
1.2076801e-06
6.8211843e-07
7.5476007e-07
4.2301406e-07
5.5944663e-07
3.089205e-07
3.8852553e-07
2.1012294e-07
1.7259334e-07
1.7086379e-07
4.6062171e-07
4.6053705e-07
9.0932492e-07
1.8447337e-06
2.2271819e-06
2.1784693e-06
1.8058683e-06
1.4289351e-06
1.1087576e-06
6.7232978e-07
5.0383733e-07
7.4747281e-07
3.3779527e-07
1.1261924e-06
2.8298357e-07
-5.2762337e-07
-2.6663926e-07
-1.5376764e-06
-9.8252735e-07
-3.2754461e-07
1.4800078e-08
4.6706597e-07
6.0465446e-07
8.7255202e-07
8.2212688e-07
7.635824e-07
7.8760599e-07
5.4486015e-07
8.2136724e-07
-9.3363929e-07
-1.0985476e-06
-1.1183965e-05
0.00011027026
0.00012589113
7.9921559e-05
0.00011487576
6.0748284e-05
0.00010380368
4.3603558e-05
9.1153222e-05
2.9633584e-05
7.6400142e-05
1.9835338e-05
5.9647235e-05
7.3719969e-06
4.4945047e-05
2.4665133e-06
3.4278271e-05
-1.3262121e-06
2.849877e-05
-1.1424337e-07
2.5950427e-05
2.2401769e-06
2.3736229e-05
3.7295853e-06
2.0685882e-05
3.9809097e-06
1.6942462e-05
3.5002378e-06
1.3051152e-05
2.7251023e-06
9.4889566e-06
1.9857938e-06
6.5189821e-06
1.3877018e-06
4.2248893e-06
9.709937e-07
2.5733725e-06
7.0188802e-07
1.4676402e-06
5.5025884e-07
7.9853131e-07
4.8637165e-07
4.4879373e-07
4.7878351e-07
3.7060184e-07
4.6753709e-07
2.4434349e-07
4.1271993e-07
2.3217234e-07
3.4830195e-07
2.4438523e-07
3.5648483e-07
3.3943338e-07
2.9179989e-07
1.5938098e-07
1.5746046e-08
-1.3687817e-07
-3.4463722e-07
-4.2257172e-07
-4.1320315e-07
-5.0815541e-07
4.4676977e-07
-2.1119134e-07
-2.3293505e-08
-4.2842878e-07
-1.2537708e-06
8.713975e-09
-6.0854448e-07
-3.8212983e-07
-1.1670339e-07
-2.6321147e-08
1.7512297e-07
2.1179663e-07
1.2844535e-07
3.1505392e-08
-3.6290511e-08
1.899993e-07
-1.1570814e-07
-2.5991315e-07
-3.1886498e-06
-3.1933737e-06
0.00010946346
0.00011495746
8.3535898e-05
0.00010339144
6.3317946e-05
9.23855e-05
4.5352386e-05
7.9296979e-05
3.2090105e-05
6.342433e-05
1.7233747e-05
4.6101324e-05
7.9611636e-06
3.1998701e-05
1.7011978e-06
2.2585936e-05
2.1785063e-08
1.859981e-05
1.5080733e-06
1.7312847e-05
3.241833e-06
1.6273052e-05
3.9595658e-06
1.4552622e-05
3.733156e-06
1.2228581e-05
3.006311e-06
9.6648018e-06
2.1918345e-06
7.2157607e-06
1.5009732e-06
5.088519e-06
1.0007225e-06
3.3869884e-06
6.83337e-07
2.1136399e-06
4.9993706e-07
1.238042e-06
4.1188423e-07
6.9554097e-07
3.9119294e-07
4.1706185e-07
4.1032737e-07
2.8999718e-07
4.0015154e-07
2.2554184e-07
3.1454811e-07
1.3562789e-07
2.1467486e-07
1.0178983e-07
1.2805191e-07
4.8052419e-08
2.9021661e-08
-5.991761e-08
-1.6687176e-07
-2.7519827e-07
-3.7712732e-07
-4.4013908e-07
-5.0800666e-07
-9.881204e-08
-3.7131662e-07
5.5659828e-07
-1.9822099e-07
-5.3044136e-07
1.6010818e-07
-1.1737938e-06
-2.9248388e-07
-2.5189566e-07
-1.7971104e-07
-1.4075891e-08
9.6103059e-08
1.7530867e-07
7.6305454e-08
1.565099e-08
3.6951984e-08
6.62653e-08
-7.8479487e-08
-1.1721773e-06
-2.9155111e-06
-4.0348908e-06
9.7040531e-05
0.00010579403
6.884365e-05
9.1488218e-05
4.8221508e-05
7.8488367e-05
3.2817708e-05
6.4818743e-05
2.1645562e-05
4.9904771e-05
9.6002907e-06
3.6462974e-05
4.3535745e-06
2.6628592e-05
6.4139424e-07
2.1134257e-05
1.1995804e-06
1.9082986e-05
2.8727901e-06
1.782989e-05
3.8600943e-06
1.6107202e-05
3.8703427e-06
1.3789581e-05
3.3085619e-06
1.1176961e-05
2.5341656e-06
8.6023632e-06
1.8160981e-06
6.2910409e-06
1.2296209e-06
4.3596802e-06
8.1108235e-07
2.8459164e-06
5.2941535e-07
1.734384e-06
3.6497168e-07
9.818467e-07
2.8221076e-07
5.2565475e-07
2.6530776e-07
2.9876798e-07
2.8209584e-07
2.0101305e-07
2.7044401e-07
1.3240355e-07
2.03784e-07
6.123031e-08
1.0237393e-07
-1.5932742e-09
1.6031758e-08
-5.4452461e-08
-7.2532224e-08
-1.2584141e-07
-1.8274282e-07
-2.3778755e-07
-3.4854857e-07
-3.4981855e-07
-2.8217452e-07
-3.3629117e-07
6.2926028e-07
1.0348669e-07
2.1199572e-07
3.5021461e-09
-9.9866204e-07
3.8948916e-07
-4.2288431e-07
-2.7046021e-07
-2.3295524e-07
-1.005471e-07
-1.8180968e-09
-4.3689455e-08
-1.8568925e-07
-3.0998463e-07
-1.8814559e-07
-2.4776758e-08
-2.2032687e-07
-1.2597085e-06
-3.250649e-06
-2.6011415e-06
7.4502648e-05
8.6648446e-05
5.3669023e-05
7.7984571e-05
3.7617579e-05
6.7077592e-05
2.5671263e-05
5.3775415e-05
1.2270844e-05
3.9343532e-05
3.7379205e-06
2.744498e-05
-2.1906288e-06
1.9226716e-05
-3.8568385e-06
1.5419293e-05
-2.4541266e-06
1.3998281e-05
-4.9583232e-07
1.3049013e-05
7.9658048e-07
1.1776391e-05
1.3245133e-06
1.0124502e-05
1.3262949e-06
8.2784674e-06
1.0965227e-06
6.452394e-06
8.1151309e-07
4.7836838e-06
5.6009476e-07
3.3574734e-06
3.6941441e-07
2.2032213e-06
2.3528527e-07
1.3291877e-06
1.5403562e-07
7.1690805e-07
1.1086385e-07
3.3736024e-07
1.0785526e-07
1.4254529e-07
1.2521436e-07
5.9950898e-08
1.2488619e-07
1.408103e-08
8.0397944e-08
-3.309725e-08
1.141482e-08
-7.6353386e-08
-6.0177065e-08
-1.134133e-07
-1.1390026e-07
-1.4187772e-07
-1.7287087e-07
-2.0157289e-07
-2.2204958e-07
-1.9910659e-07
-1.8261284e-07
2.0881786e-07
9.8115425e-08
9.4784067e-07
3.064281e-07
1.7485791e-07
7.3194855e-07
-7.3438894e-07
-7.3409048e-08
-2.7117119e-07
-2.2819541e-07
-1.7402694e-07
-9.9963291e-08
-1.6205653e-07
-2.8992945e-07
-3.1594944e-07
-1.5356477e-07
3.8769184e-08
-2.5711153e-07
-1.4405281e-06
-3.0852547e-06
-2.6700264e-06
6.5592081e-05
7.6325044e-05
4.7139657e-05
6.8682102e-05
3.3801242e-05
5.8663788e-05
2.2749498e-05
4.643632e-05
1.0928202e-05
3.4922478e-05
5.1269904e-06
2.6176882e-05
9.514771e-07
2.092691e-05
8.8893409e-07
1.8562676e-05
2.0717739e-06
1.6941775e-05
2.8219074e-06
1.504803e-05
2.8177626e-06
1.2786301e-05
2.3701304e-06
1.0382946e-05
1.7585993e-06
8.079585e-06
1.2030711e-06
6.0268556e-06
7.5329299e-07
4.294441e-06
4.3666223e-07
2.8957365e-06
2.161001e-07
1.8136572e-06
7.7749447e-08
1.0198568e-06
-7.660527e-09
4.7523754e-07
-4.9110017e-08
1.4213232e-07
-5.7547504e-08
-2.9272195e-08
-4.4148014e-08
-9.4529615e-08
-3.6261259e-08
-1.2209576e-07
-5.4833857e-08
-1.399614e-07
-9.4931821e-08
-1.6203779e-07
-1.3921265e-07
-1.720676e-07
-1.6359178e-07
-1.6926574e-07
-1.7137373e-07
-1.4460666e-07
-1.6532972e-07
-9.3811094e-08
2.4424645e-08
3.9236509e-08
1.0212524e-06
6.3731437e-07
1.2758855e-06
7.5732411e-07
-9.0800319e-08
7.1259011e-07
-1.1626585e-07
-1.9385592e-07
-1.9010422e-07
-1.7950723e-07
-1.6304069e-07
-3.1526498e-07
-4.992444e-07
-5.0474964e-07
-2.1351272e-07
-2.5416301e-08
-2.9184239e-07
-1.6857879e-06
-2.9662964e-06
-2.1401487e-06
6.1966704e-05
7.0208479e-05
4.3742768e-05
6.0688363e-05
3.0993246e-05
4.944952e-05
1.790961e-05
3.7340718e-05
8.950428e-06
2.7249242e-05
2.4237511e-06
2.0126673e-05
-2.2503764e-07
1.6520608e-05
-1.3277689e-07
1.4793389e-05
6.682218e-07
1.3456471e-05
1.1652924e-06
1.1908717e-05
1.2438847e-06
1.0128493e-05
1.0415612e-06
8.2650898e-06
7.5171305e-07
6.4826939e-06
4.7294347e-07
4.8746978e-06
2.52431e-07
3.4958925e-06
9.2712406e-08
2.3544389e-06
-2.1572074e-08
1.4510239e-06
-9.961403e-08
7.6763602e-07
-1.5585075e-07
2.8749418e-07
-1.8753171e-07
-1.7734709e-08
-2.0067409e-07
-1.8055824e-07
-1.9359819e-07
-2.4503489e-07
-1.8625992e-07
-2.6161956e-07
-1.9007018e-07
-2.6305729e-07
-2.1043342e-07
-2.6328171e-07
-2.301692e-07
-2.4946488e-07
-2.2750641e-07
-2.0888628e-07
-1.9015924e-07
-1.4245466e-07
-1.1604298e-07
-1.5003686e-08
4.972188e-08
4.317869e-07
5.5316999e-07
1.3914681e-06
9.0778825e-07
1.2442041e-06
1.3385614e-06
2.413903e-07
2.7035e-07
1.3503701e-08
-1.6213503e-07
-1.359202e-07
-2.7118231e-07
-4.2216101e-07
-5.9255375e-07
-4.8309693e-07
-2.0908338e-07
5.9937903e-08
-4.1513739e-07
-1.6007407e-06
-2.8761249e-06
-1.8482647e-06
4.7864121e-05
5.5886136e-05
3.3836068e-05
4.8777801e-05
2.393485e-05
3.9837181e-05
1.3652151e-05
3.1031245e-05
7.9597382e-06
2.4091622e-05
3.7063204e-06
1.9848831e-05
2.9047548e-06
1.7865844e-05
3.3240249e-06
1.6442985e-05
3.5426591e-06
1.4740099e-05
3.2341156e-06
1.2677744e-05
2.6161674e-06
1.04535e-05
1.9017555e-06
8.2864838e-06
1.2709648e-06
6.3187995e-06
7.5954865e-07
4.6226782e-06
3.9186014e-07
3.2173548e-06
1.2843691e-07
2.0924729e-06
-4.6039907e-08
1.2247082e-06
-1.6673614e-07
5.8184439e-07
-2.446054e-07
1.348861e-07
-2.9444943e-07
-1.5114456e-07
-3.1890006e-07
-3.0635707e-07
-3.2314628e-07
-3.7144631e-07
-3.188367e-07
-3.8490816e-07
-3.1826251e-07
-3.8072564e-07
-3.2642352e-07
-3.6650079e-07
-3.2675363e-07
-3.320066e-07
-2.9725518e-07
-2.621064e-07
-2.2100438e-07
-1.5305441e-07
-1.0979735e-07
4.751124e-09
7.8854931e-08
2.710198e-07
7.4894207e-07
8.0920613e-07
1.5615903e-06
1.3225285e-06
9.8873874e-07
1.2391232e-06
5.6544601e-07
4.2298567e-07
1.2439794e-07
-5.4636253e-08
-1.833575e-07
-4.9912146e-07
-6.2271676e-07
-5.5685402e-07
-1.1158652e-07
-3.3502061e-08
-3.5919221e-07
-1.8895162e-06
-2.6083467e-06
-1.8184765e-06
4.1386507e-05
4.8924755e-05
2.9772374e-05
4.1673519e-05
1.9105755e-05
3.2951036e-05
1.1592327e-05
2.5248526e-05
5.8605259e-06
1.957972e-05
3.2555935e-06
1.6538581e-05
2.7287746e-06
1.4906064e-05
2.7681366e-06
1.3564216e-05
2.6290019e-06
1.2049975e-05
2.246202e-06
1.0347648e-05
1.7262415e-06
8.5741174e-06
1.2174158e-06
6.8648135e-06
7.8127974e-07
5.2974453e-06
4.4356656e-07
3.9232718e-06
1.9265122e-07
2.7526162e-06
7.2736868e-09
1.7912777e-06
-1.2835481e-07
1.0258198e-06
-2.3343695e-07
4.4550089e-07
-3.1059009e-07
2.8656773e-08
-3.6911189e-07
-2.4461461e-07
-4.037074e-07
-4.0128431e-07
-4.2075961e-07
-4.7180738e-07
-4.2365835e-07
-4.9168213e-07
-4.2753799e-07
-4.8716684e-07
-4.2891897e-07
-4.6340076e-07
-4.1438158e-07
-4.0842503e-07
-3.5861855e-07
-3.0834978e-07
-2.5223786e-07
-1.6697763e-07
-1.0971726e-07
1.5630707e-09
8.247107e-08
2.2670507e-07
4.6140432e-07
8.4763751e-07
9.5588243e-07
1.3542788e-06
1.6605362e-06
1.0687438e-06
1.226036e-06
5.5542574e-07
4.519855e-07
1.4337343e-07
-2.5089562e-07
-4.5638181e-07
-7.0783268e-07
-4.1040346e-07
-2.1761435e-07
9.912249e-08
-6.4357122e-07
-1.7126804e-06
-2.7231579e-06
-1.3893164e-06
3.7911078e-05
4.4085532e-05
2.7449256e-05
3.6829238e-05
1.7722293e-05
2.9126876e-05
1.1500158e-05
2.2809316e-05
6.8938886e-06
1.8841928e-05
5.2805907e-06
1.6873212e-05
4.952089e-06
1.5520276e-05
4.6732331e-06
1.4028713e-05
4.0912309e-06
1.2267343e-05
3.3206728e-06
1.0352869e-05
2.5047746e-06
8.4457093e-06
1.7810309e-06
6.6604783e-06
1.1750251e-06
5.0660556e-06
7.1077896e-07
3.6920891e-06
3.5430919e-07
2.5441621e-06
9.5771779e-08
1.6148913e-06
-9.8453374e-08
8.8569993e-07
-2.386386e-07
3.3762798e-07
-3.4358594e-07
-5.5447879e-08
-4.1742261e-07
-3.1483995e-07
-4.6592905e-07
-4.6886558e-07
-4.9244665e-07
-5.4352694e-07
-5.058535e-07
-5.722847e-07
-5.141172e-07
-5.6952348e-07
-5.116803e-07
-5.3873755e-07
-4.8142862e-07
-4.6347304e-07
-4.0018679e-07
-3.362891e-07
-2.6686424e-07
-1.720634e-07
-1.004704e-07
6.4139705e-09
8.3013624e-08
2.0954209e-07
3.2450255e-07
5.3465602e-07
9.0460119e-07
1.1109596e-06
1.0858208e-06
1.4229078e-06
9.1566956e-07
1.1274332e-06
6.1350809e-07
3.0497077e-07
3.1505983e-08
-5.2182925e-07
-4.8808622e-07
-5.096958e-07
3.2660825e-08
-6.6961127e-08
-4.4901306e-07
-2.0939997e-06
-2.3095726e-06
-1.6241252e-06
4.1444755e-05
4.3563533e-05
2.8855993e-05
3.4784094e-05
1.9845218e-05
2.6845695e-05
1.293227e-05
2.0885686e-05
8.9175605e-06
1.7336614e-05
6.9409137e-06
1.5215781e-05
5.7823999e-06
1.3584705e-05
4.785795e-06
1.1994742e-05
3.8234467e-06
1.0360276e-05
2.9131597e-06
8.7182114e-06
2.1288278e-06
7.1451015e-06
1.4858953e-06
5.6843672e-06
9.8466964e-07
4.3733619e-06
5.9936854e-07
3.2205938e-06
3.0290235e-07
2.2378064e-06
7.4693936e-08
1.4197764e-06
-1.0633416e-07
7.6520292e-07
-2.4669453e-07
2.6026393e-07
-3.5862385e-07
-1.0708563e-07
-4.4063634e-07
-3.5663805e-07
-4.9937299e-07
-5.0899118e-07
-5.3504466e-07
-5.9198393e-07
-5.5956834e-07
-6.2775665e-07
-5.708325e-07
-6.268803e-07
-5.6384031e-07
-5.8533674e-07
-5.1598539e-07
-4.8890684e-07
-4.1130052e-07
-3.3761516e-07
-2.5584096e-07
-1.5288227e-07
-7.88815e-08
3.1830658e-08
9.0994379e-08
1.8745012e-07
2.9201422e-07
3.9399337e-07
5.1692185e-07
7.25894e-07
9.6328637e-07
8.7408119e-07
1.2571565e-06
8.8448298e-07
8.8721852e-07
5.8379674e-07
-2.6468358e-10
-2.0289439e-07
-6.6461363e-07
-1.4287753e-07
-1.9795849e-07
2.3955092e-07
-1.0113527e-06
-1.7736432e-06
-2.7300099e-06
-1.0838528e-06
2.9344921e-05
3.1383963e-05
2.0161949e-05
2.5786048e-05
1.4648258e-05
2.0975644e-05
1.0447894e-05
1.7726324e-05
8.4279261e-06
1.5889169e-05
7.3710973e-06
1.4538824e-05
6.4437483e-06
1.3146667e-05
5.41632e-06
1.1602031e-05
4.3628461e-06
9.9644299e-06
3.366876e-06
8.3325739e-06
2.5111871e-06
6.7801235e-06
1.7958734e-06
5.3558612e-06
1.2300975e-06
4.08595e-06
7.7768159e-07
2.9819269e-06
4.2896298e-07
2.047955e-06
1.5269853e-07
1.2786348e-06
-5.9261113e-08
6.6687434e-07
-2.2581064e-07
1.9748353e-07
-3.5156994e-07
-1.4404095e-07
-4.4522186e-07
-3.7812823e-07
-5.1016211e-07
-5.2571771e-07
-5.5499813e-07
-6.1267048e-07
-5.8437149e-07
-6.5081867e-07
-5.9605424e-07
-6.4792157e-07
-5.7885439e-07
-5.9246963e-07
-5.1218733e-07
-4.7650419e-07
-3.8696575e-07
-3.058501e-07
-2.156057e-07
-1.1048953e-07
-3.4506719e-08
6.4218285e-08
1.2253176e-07
2.1554298e-07
2.3722712e-07
3.1553236e-07
4.3001139e-07
4.7810168e-07
5.9045375e-07
7.9871432e-07
7.7230213e-07
9.7596971e-07
8.4333165e-07
4.9974791e-07
2.6679176e-07
-6.6386644e-07
-9.1262238e-08
-8.1464542e-07
5.2408366e-07
-5.3657842e-07
-2.2405604e-07
-2.5014286e-06
-1.9221521e-06
-1.4716782e-06
2.2068112e-05
2.4404676e-05
1.642387e-05
2.077361e-05
1.2061561e-05
1.7575426e-05
9.4322871e-06
1.5422668e-05
7.910073e-06
1.3899813e-05
6.8025588e-06
1.2564379e-05
5.7513627e-06
1.1206713e-05
4.7207908e-06
9.8109448e-06
3.7454456e-06
8.4105862e-06
2.8900314e-06
7.0612489e-06
2.1681858e-06
5.7879001e-06
1.5812549e-06
4.6186428e-06
1.1082705e-06
3.5589733e-06
7.2692868e-07
2.6238161e-06
4.1932945e-07
1.814311e-06
1.6752826e-07
1.1371705e-06
-3.5238831e-08
5.8765413e-07
-1.9984467e-07
1.6143479e-07
-3.2741144e-07
-1.5394609e-07
-4.247416e-07
-3.7303396e-07
-4.9392883e-07
-5.179874e-07
-5.4483736e-07
-6.0408294e-07
-5.7413332e-07
-6.4203308e-07
-5.81605e-07
-6.3019188e-07
-5.4966129e-07
-5.5915645e-07
-4.6514014e-07
-4.2568071e-07
-3.2417336e-07
-2.4237851e-07
-1.4626319e-07
-4.6315265e-08
2.5989553e-08
1.2264418e-07
1.6148184e-07
2.2535856e-07
2.7199943e-07
3.1562607e-07
3.0577295e-07
4.0099378e-07
4.4115266e-07
5.0278187e-07
6.2654781e-07
6.7459398e-07
5.5533657e-07
5.418659e-07
-4.1181685e-07
1.6404856e-07
-1.1734438e-06
6.2193664e-07
-6.2092497e-07
9.9168107e-07
-1.5161511e-06
-1.6965889e-06
-3.1908523e-06
-9.5017885e-07
1.7699562e-05
1.9653576e-05
1.3482302e-05
1.7167703e-05
1.0417417e-05
1.5200129e-05
8.6441941e-06
1.3890697e-05
7.5647062e-06
1.281859e-05
6.6314125e-06
1.169028e-05
5.6665633e-06
1.0448614e-05
4.7047819e-06
9.1361205e-06
3.7940567e-06
7.8185478e-06
2.991779e-06
6.5449224e-06
2.2961838e-06
5.3482231e-06
1.7182502e-06
4.2497067e-06
1.2324565e-06
3.2613051e-06
8.3593916e-07
2.3931485e-06
5.0637225e-07
1.648163e-06
2.3997291e-07
1.0282502e-06
2.2588694e-08
5.2847254e-07
-1.4891995e-07
1.4140222e-07
-2.8242319e-07
-1.4481389e-07
-3.8137475e-07
-3.468547e-07
-4.542498e-07
-4.8296619e-07
-5.0329434e-07
-5.6234274e-07
-5.2911474e-07
-5.9358617e-07
-5.2480426e-07
-5.6810854e-07
-4.7690958e-07
-4.8241627e-07
-3.7691464e-07
-3.3680649e-07
-2.2727679e-07
-1.5100434e-07
-5.4383482e-08
3.5205037e-08
1.0526243e-07
1.8211749e-07
2.1881332e-07
2.8366801e-07
2.6245269e-07
3.0468797e-07
3.3362114e-07
3.2635334e-07
3.3962668e-07
3.5590331e-07
3.9527731e-07
3.6481741e-07
4.5532903e-07
4.3919581e-08
2.6709165e-07
-6.4382899e-07
4.4257336e-07
-4.1582652e-07
1.0281345e-06
-2.3459566e-07
-6.9866974e-07
-3.4217213e-06
-1.411848e-06
-1.9359936e-06
1.6187115e-05
1.7649244e-05
1.3298208e-05
1.6088063e-05
1.1181616e-05
1.4479795e-05
9.3964817e-06
1.296301e-05
7.8754608e-06
1.1562617e-05
6.5370611e-06
1.0239425e-05
5.3621065e-06
8.9866466e-06
4.3344925e-06
7.790101e-06
3.4602136e-06
6.6633792e-06
2.7249346e-06
5.5996209e-06
2.1148787e-06
4.6113099e-06
1.608476e-06
3.6956836e-06
1.1860248e-06
2.8655758e-06
8.3265727e-07
2.1241611e-06
5.3509417e-07
1.4811333e-06
2.8713431e-07
9.3837242e-07
8.1474667e-08
4.9656944e-07
-8.4074792e-08
1.5104264e-07
-2.1427604e-07
-1.0749338e-07
-3.1175475e-07
-2.9351317e-07
-3.8380298e-07
-4.1705243e-07
-4.2701215e-07
-4.887308e-07
-4.4523201e-07
-5.071645e-07
-4.2561411e-07
-4.6834173e-07
-3.6331559e-07
-3.7022105e-07
-2.528191e-07
-2.1964959e-07
-1.0385552e-07
-4.1639884e-08
5.5924752e-08
1.2888655e-07
1.9256682e-07
2.5795662e-07
2.7636949e-07
3.0614934e-07
3.2177731e-07
3.3369481e-07
2.839927e-07
3.215796e-07
3.0913064e-07
2.7361618e-07
2.82406e-07
2.6377117e-07
2.8017013e-07
2.1713717e-07
7.023363e-08
2.725513e-07
4.2182262e-08
6.4060245e-07
4.6676082e-07
4.2440771e-07
-2.2058843e-06
-4.6897675e-07
-4.0351094e-06
-1.3790099e-06
1.1781338e-05
1.3376695e-05
9.6943213e-06
1.2648387e-05
8.3777601e-06
1.1827885e-05
7.3362015e-06
1.0934088e-05
6.4191724e-06
9.9817226e-06
5.5614249e-06
8.9957001e-06
4.7618038e-06
7.9947229e-06
4.0123586e-06
6.9981061e-06
3.3322061e-06
6.0220811e-06
2.7146769e-06
5.0809503e-06
2.1715545e-06
4.1903504e-06
1.6926421e-06
3.3623863e-06
1.2809903e-06
2.610371e-06
9.2622183e-07
1.942457e-06
6.2717765e-07
1.3654496e-06
3.759094e-07
8.811059e-07
1.7006047e-07
4.878471e-07
4.4358366e-09
1.8064171e-07
-1.2353171e-07
-5.0431264e-08
-2.2021492e-07
-2.1639826e-07
-2.8543258e-07
-3.2511318e-07
-3.2280313e-07
-3.8434996e-07
-3.2731974e-07
-3.8775839e-07
-2.9385426e-07
-3.3671957e-07
-2.1919606e-07
-2.3091979e-07
-1.0444477e-07
-8.3741137e-08
3.5569657e-08
7.970035e-08
1.7651746e-07
2.2770368e-07
2.8792119e-07
3.2253199e-07
3.4343843e-07
3.7253816e-07
3.2790732e-07
3.3948335e-07
3.3225148e-07
3.0658957e-07
2.691763e-07
2.6842305e-07
2.2958725e-07
2.0840211e-07
2.1842329e-07
2.0673091e-07
2.4636545e-07
2.3455901e-07
4.4431453e-07
4.5987044e-07
7.2001765e-07
-4.6381528e-07
2.8091171e-07
-2.8306148e-06
-2.5587319e-06
-1.6283338e-06
1.5837546e-05
1.4916923e-05
1.3294935e-05
1.3276599e-05
1.1081392e-05
1.1682259e-05
9.1500535e-06
1.0274709e-05
7.5111264e-06
9.0372908e-06
6.1440069e-06
7.9488548e-06
5.0124218e-06
6.9618118e-06
4.0811455e-06
6.0591845e-06
3.3129438e-06
5.2118165e-06
2.6754874e-06
4.4172658e-06
2.1415548e-06
3.6679409e-06
1.6899028e-06
2.972472e-06
1.3053378e-06
2.3354594e-06
9.7692337e-07
1.7662475e-06
6.9746643e-07
1.2699579e-06
4.6172874e-07
8.4992598e-07
2.6644248e-07
5.0642934e-07
1.0849225e-07
2.3543618e-07
-1.4259218e-08
2.9900738e-08
-1.060484e-07
-1.1655375e-07
-1.6462755e-07
-2.132856e-07
-1.9437551e-07
-2.5750094e-07
-1.8523889e-07
-2.4936746e-07
-1.4014931e-07
-1.8807982e-07
-5.6830283e-08
-8.0260956e-08
5.5940842e-08
5.7703987e-08
1.8223302e-07
2.0256038e-07
3.0114237e-07
3.2377561e-07
3.8005349e-07
3.9753341e-07
4.0458346e-07
3.912512e-07
3.9222039e-07
3.7852529e-07
3.1096433e-07
3.270434e-07
2.761091e-07
2.5626779e-07
1.99656e-07
1.8454317e-07
1.5854668e-07
1.3159548e-07
2.1371867e-07
2.2546079e-07
3.1414899e-07
3.4711295e-07
3.7871115e-07
2.1301742e-07
-4.230099e-07
-1.3256097e-06
-3.5210583e-06
-1.6397038e-06
1.0107559e-05
1.0351939e-05
8.819391e-06
9.6551116e-06
7.7582964e-06
8.8940711e-06
6.8216998e-06
8.1613233e-06
5.9790274e-06
7.4590127e-06
5.2104973e-06
6.7664423e-06
4.4973935e-06
6.0713401e-06
3.8395341e-06
5.3712541e-06
3.2354501e-06
4.6726158e-06
2.6897466e-06
3.9878052e-06
2.2026228e-06
3.3307148e-06
1.7738663e-06
2.7151693e-06
1.4003067e-06
2.1520846e-06
1.0782397e-06
1.6496751e-06
8.0324413e-07
1.212854e-06
5.7182349e-07
8.4368449e-07
3.8037763e-07
5.4137029e-07
2.2676956e-07
3.0255895e-07
1.0679743e-07
1.2144207e-07
2.1167867e-08
-8.3446303e-09
-3.4577921e-08
-9.1484955e-08
-5.341766e-08
-1.225486e-07
-3.4827297e-08
-1.0375299e-07
2.1313189e-08
-3.4948069e-08
1.0930104e-07
7.1039737e-08
2.1634522e-07
1.9671324e-07
3.2789258e-07
3.2084635e-07
4.2088412e-07
4.1365893e-07
4.7435464e-07
4.517311e-07
4.7078599e-07
4.5537072e-07
4.0835372e-07
3.8846709e-07
3.6222231e-07
3.3441554e-07
2.6502704e-07
2.7164344e-07
1.778639e-07
1.7234001e-07
9.9016192e-08
9.3929061e-08
9.9231547e-08
9.6539735e-08
1.6230583e-07
1.2088025e-07
9.6000752e-08
1.1522618e-07
1.583706e-07
-2.127743e-06
-3.827608e-06
-1.4906357e-06
1.2121979e-05
1.0750494e-05
1.0639017e-05
9.6242666e-06
9.1418435e-06
8.5204178e-06
7.7599721e-06
7.5641567e-06
6.5490357e-06
6.7468601e-06
5.5125604e-06
6.0226453e-06
4.6293588e-06
5.3571353e-06
3.8778278e-06
4.7248919e-06
3.2352516e-06
4.1167623e-06
2.6847732e-06
3.5316697e-06
2.2116863e-06
2.9752868e-06
1.8044248e-06
2.4548433e-06
1.4536803e-06
1.977589e-06
1.151945e-06
1.5493822e-06
8.9393012e-07
1.1744857e-06
6.7567321e-07
8.5503243e-07
4.9424958e-07
5.9134981e-07
3.4759862e-07
3.8096879e-07
2.3309908e-07
2.2004996e-07
1.5070854e-07
1.0209364e-07
9.8935157e-08
3.1578353e-08
8.7922195e-08
8.6868974e-09
1.1438036e-07
3.7263041e-08
1.7930449e-07
1.0973141e-07
2.6898642e-07
2.1150145e-07
3.6925432e-07
3.2466495e-07
4.6504913e-07
4.2613529e-07
5.3465802e-07
4.9443159e-07
5.5871053e-07
5.1620449e-07
5.3009849e-07
4.6588732e-07
4.6961215e-07
4.2331023e-07
3.6152094e-07
3.5739938e-07
2.853704e-07
2.7686453e-07
1.716357e-07
1.7920752e-07
6.1177452e-08
7.1531471e-08
1.9846395e-09
3.0794089e-08
-1.2924772e-08
-2.2493472e-08
-1.6053158e-07
6.9135491e-08
1.9429362e-07
-2.5618582e-06
-3.818915e-06
-1.2984918e-06
8.8686517e-06
8.164404e-06
8.1480968e-06
7.5899983e-06
7.3550462e-06
6.9683176e-06
6.561615e-06
6.3943671e-06
5.7975368e-06
5.8569545e-06
5.0753043e-06
5.3298039e-06
4.3977752e-06
4.8000897e-06
3.7738564e-06
4.2669662e-06
3.2074382e-06
3.7379856e-06
2.7028015e-06
3.2238696e-06
2.258165e-06
2.7343626e-06
1.8704341e-06
2.277719e-06
1.5338508e-06
1.859865e-06
1.2434258e-06
1.485364e-06
9.9463209e-07
1.1571094e-06
7.8390492e-07
8.7666165e-07
6.0867888e-07
6.4399026e-07
4.6622167e-07
4.5680152e-07
3.5549768e-07
3.1106189e-07
2.7293943e-07
2.0478491e-07
2.2683865e-07
1.4294574e-07
2.1892969e-07
1.2808578e-07
2.5415332e-07
1.6392866e-07
3.2466473e-07
2.3860037e-07
4.1503165e-07
3.3574516e-07
5.0951102e-07
4.3629702e-07
5.8975789e-07
5.1859756e-07
6.3925468e-07
5.6421086e-07
6.4331891e-07
5.5305356e-07
5.9119075e-07
5.1835499e-07
4.9333379e-07
4.3313986e-07
4.1219852e-07
3.6796478e-07
2.9256013e-07
3.0314425e-07
1.7699521e-07
2.0727706e-07
4.2773356e-08
9.740665e-08
-6.8150332e-08
3.620702e-08
-1.3506542e-07
-7.9690519e-08
-2.8543213e-07
1.5934934e-07
3.1006161e-08
-2.8253596e-06
-3.6829963e-06
-1.1140721e-06
9.4268903e-06
8.1751065e-06
8.6269157e-06
7.4041507e-06
7.6733257e-06
6.6333268e-06
6.730866e-06
5.9620258e-06
5.8520619e-06
5.3736303e-06
5.0542959e-06
4.8321861e-06
4.3383282e-06
4.3202967e-06
3.7046601e-06
3.8296381e-06
3.1499012e-06
3.3610423e-06
2.6682359e-06
2.9160123e-06
2.2515139e-06
2.4977601e-06
1.8908364e-06
2.1088199e-06
1.5785953e-06
1.7523079e-06
1.3084052e-06
1.430879e-06
1.0759621e-06
1.1470143e-06
8.7785373e-07
9.0220189e-07
7.1199151e-07
6.9671319e-07
5.7584087e-07
5.2894223e-07
4.6802802e-07
3.9530404e-07
3.878676e-07
2.9879309e-07
3.4408025e-07
2.4128139e-07
3.3938054e-07
2.3334899e-07
3.8071633e-07
2.7243486e-07
4.5491503e-07
3.47775e-07
5.4590999e-07
4.4037013e-07
6.3474191e-07
5.290985e-07
7.0260629e-07
5.9545683e-07
7.3626272e-07
6.2147333e-07
7.1575917e-07
6.0212936e-07
6.4670688e-07
5.207716e-07
5.5087133e-07
4.5872053e-07
4.2480229e-07
3.8946629e-07
3.2481179e-07
3.2375203e-07
1.9256123e-07
2.4461878e-07
4.3586043e-08
1.4898509e-07
-9.7772949e-08
7.8363815e-08
-1.9834594e-07
2.8492833e-08
-3.9857916e-07
3.4167462e-07
-1.6103252e-07
-3.0148661e-06
-3.4963674e-06
-9.4541161e-07
8.442202e-06
7.4600663e-06
7.8881917e-06
6.8157725e-06
7.147163e-06
6.1458709e-06
6.3691655e-06
5.5404181e-06
5.6053092e-06
4.9868267e-06
4.8827769e-06
4.4687754e-06
4.2193018e-06
3.9816848e-06
3.6270427e-06
3.525103e-06
3.106943e-06
3.0984305e-06
2.655447e-06
2.7007743e-06
2.2640548e-06
2.331036e-06
1.9248048e-06
1.9893761e-06
1.6300502e-06
1.6764301e-06
1.3744515e-06
1.3939764e-06
1.1536628e-06
1.1434759e-06
9.6508234e-07
9.2619227e-07
8.0603486e-07
7.4199448e-07
6.7499987e-07
5.8934324e-07
5.6860804e-07
4.6661116e-07
4.9166317e-07
3.7545576e-07
4.4637508e-07
3.2237081e-07
4.4600241e-07
3.1775086e-07
4.8978765e-07
3.5923306e-07
5.6761997e-07
4.3485271e-07
6.5985172e-07
5.2386699e-07
7.4382204e-07
6.0379085e-07
8.0366449e-07
6.5807341e-07
8.2148482e-07
6.6707116e-07
7.8937911e-07
6.2102088e-07
7.0110619e-07
5.598795e-07
5.8138248e-07
4.6630471e-07
4.7449197e-07
4.0530911e-07
3.4720416e-07
3.5335653e-07
2.1284685e-07
2.9168589e-07
5.2538537e-08
2.2729004e-07
-1.1160558e-07
2.08158e-07
-2.3713971e-07
1.3010463e-07
-4.1933788e-07
5.4585741e-07
-4.269308e-07
-3.0821993e-06
-3.2762049e-06
-7.9136697e-07
8.3762684e-06
7.3519372e-06
7.8751249e-06
6.6428017e-06
7.0972817e-06
5.9055787e-06
6.2654797e-06
5.2311189e-06
5.4528196e-06
4.6306213e-06
4.7095772e-06
4.0988282e-06
4.0543138e-06
3.6292213e-06
3.4889288e-06
3.2105322e-06
3.0049535e-06
2.8329602e-06
2.5902133e-06
2.4874749e-06
2.2326902e-06
2.1688233e-06
1.9223277e-06
1.8741216e-06
1.6518565e-06
1.6032867e-06
1.4158742e-06
1.3570961e-06
1.2109796e-06
1.1371318e-06
1.0345495e-06
9.4419313e-07
8.8461365e-07
7.7870946e-07
7.5922235e-07
6.3908316e-07
6.5674548e-07
5.247966e-07
5.8023074e-07
4.3624783e-07
5.3548429e-07
3.8648392e-07
5.3711207e-07
3.8252207e-07
5.8362388e-07
4.2613513e-07
6.6555976e-07
5.0246444e-07
7.5947157e-07
5.8843298e-07
8.4144653e-07
6.6315831e-07
8.9476503e-07
7.0559014e-07
9.0179961e-07
7.031947e-07
8.5066062e-07
6.5664771e-07
7.5378955e-07
5.5928315e-07
6.3108164e-07
4.8667346e-07
4.9761278e-07
4.2536635e-07
3.7945903e-07
3.7807188e-07
2.3437296e-07
3.390335e-07
7.5017507e-08
3.07782e-07
-9.087725e-08
2.7942656e-07
-2.3953105e-07
3.0932087e-07
-4.7272012e-07
7.7347539e-07
-6.6319645e-07
-3.0384121e-06
-3.0224858e-06
-6.4772617e-07
8.4065817e-06
7.4891397e-06
7.9098341e-06
6.6681874e-06
7.0638772e-06
5.8020074e-06
6.1492696e-06
5.0258561e-06
5.2949379e-06
4.3708145e-06
4.5473732e-06
3.8261407e-06
3.9125722e-06
3.37048e-06
3.3791204e-06
2.9814133e-06
2.9289198e-06
2.6393572e-06
2.5453717e-06
2.3310795e-06
2.2144934e-06
2.0481346e-06
1.9267198e-06
1.7869622e-06
1.6747914e-06
1.546201e-06
1.4543093e-06
1.326716e-06
1.2618572e-06
1.1291671e-06
1.0951371e-06
9.5457379e-07
9.5221255e-07
8.0283543e-07
8.309403e-07
6.7275701e-07
7.3124642e-07
5.6251203e-07
6.5289442e-07
4.7674341e-07
6.1055762e-07
4.2764834e-07
6.125124e-07
4.2576286e-07
6.639689e-07
4.7159303e-07
7.507184e-07
5.4950683e-07
8.4695424e-07
6.3475938e-07
9.2965973e-07
7.0555936e-07
9.7666653e-07
7.4142187e-07
9.7394145e-07
7.2922028e-07
9.1560416e-07
6.6219553e-07
8.0151093e-07
5.8324266e-07
6.6544285e-07
4.9372174e-07
5.423512e-07
4.3627384e-07
4.052648e-07
4.0340779e-07
2.6471996e-07
3.8784523e-07
1.0511116e-07
3.8240829e-07
-7.580311e-08
4.370512e-07
-2.2160272e-07
4.3854619e-07
-4.3106395e-07
9.3449759e-07
-8.9225339e-07
-2.8578068e-06
-2.7210529e-06
-5.1016356e-07
8.3132626e-06
7.5010758e-06
7.8355601e-06
6.5202818e-06
6.8541501e-06
5.51739e-06
5.863586e-06
4.6790014e-06
4.9962811e-06
4.016715e-06
4.279298e-06
3.4986894e-06
3.6943496e-06
3.0852131e-06
3.2130337e-06
2.7411547e-06
2.810098e-06
2.4426844e-06
2.4662585e-06
2.1739867e-06
2.1684198e-06
1.9269825e-06
1.9074196e-06
1.6975034e-06
1.6776954e-06
1.4849042e-06
1.4750685e-06
1.2893169e-06
1.2971193e-06
1.1118438e-06
1.1413642e-06
9.529413e-07
1.0065092e-06
8.1292121e-07
8.9043372e-07
6.9027557e-07
7.9261387e-07
5.8359133e-07
7.1614288e-07
5.0092057e-07
6.7554405e-07
4.5297177e-07
6.8133668e-07
4.5413869e-07
7.3868699e-07
5.0280142e-07
8.3067382e-07
5.8211995e-07
9.3086273e-07
6.6828666e-07
1.01366e-06
7.3587713e-07
1.0565114e-06
7.6648211e-07
1.0465677e-06
7.4787017e-07
9.7161267e-07
6.8565501e-07
8.513945e-07
5.8600624e-07
7.1105956e-07
5.099974e-07
5.6605271e-07
4.5887425e-07
4.3735589e-07
4.36643e-07
2.978417e-07
4.3647739e-07
1.4608206e-07
4.5684894e-07
-3.5121305e-09
4.650226e-07
-1.7272814e-07
5.4549392e-07
-4.2659083e-07
1.049333e-06
-1.0160997e-06
-2.5296435e-06
-2.3542503e-06
-3.7815519e-07
8.7203396e-06
7.8559677e-06
7.9504447e-06
6.497836e-06
6.7133381e-06
5.2935101e-06
5.6091597e-06
4.3854109e-06
4.735941e-06
3.727478e-06
4.0587538e-06
3.2423419e-06
3.5236042e-06
2.8668942e-06
3.0884736e-06
2.5593239e-06
2.7241532e-06
2.2930536e-06
2.412005e-06
2.0533192e-06
2.1397169e-06
1.8316482e-06
1.8998627e-06
1.6250738e-06
1.6872638e-06
1.4321273e-06
1.4989109e-06
1.2536429e-06
1.3318892e-06
1.0899284e-06
1.1847576e-06
9.4208587e-07
1.055578e-06
8.0987731e-07
9.4380144e-07
6.9207685e-07
8.4700577e-07
5.892895e-07
7.7444116e-07
5.0808061e-07
7.3526166e-07
4.6301376e-07
7.4727862e-07
4.6641281e-07
8.103336e-07
5.1771398e-07
9.0774165e-07
5.9915462e-07
1.0126309e-06
6.8636302e-07
1.0946712e-06
7.5344329e-07
1.1341363e-06
7.8258742e-07
1.1136053e-06
7.5943565e-07
1.0325532e-06
6.8486496e-07
8.9630639e-07