/*--------------------------------*- C++ -*----------------------------------*\
| =========                 |                                                 |
| \\      /  F ield         | OpenFOAM: The Open Source CFD Toolbox           |
|  \\    /   O peration     | Version:  2206                                  |
|   \\  /    A nd           | Website:  www.openfoam.com                      |
|    \\/     M anipulation  |                                                 |
\*---------------------------------------------------------------------------*/
FoamFile
{
    version     2.0;
    format      ascii;
    arch        "LSB;label=32;scalar=64";
    class       volScalarField;
    location    "668";
    object      k;
}
// * * * * * * * * * * * * * * * * * * * * * * * * * * * * * * * * * * * * * //

dimensions      [0 2 -2 0 0 0 0];

internalField   nonuniform List<scalar> 
16000
(
0.039657064
0.028444605
0.019245413
0.014131618
0.012409891
0.011395528
0.010879318
0.010513762
0.01028408
0.010111329
0.0099921926
0.0098968104
0.0098258996
0.009769016
0.0097251175
0.0096898391
0.0096623158
0.0096405278
0.0096237989
0.0096110935
0.0096019206
0.0095957144
0.0095921183
0.0095907901
0.0095914883
0.0095940033
0.0095981707
0.0096038549
0.0096109414
0.0096193302
0.0096289296
0.0096396573
0.0096514396
0.009664206
0.0096778884
0.0096924178
0.0097077242
0.0097237354
0.009740377
0.009757573
0.0097752449
0.0097933093
0.0098116817
0.0098302764
0.0098490085
0.0098677912
0.0098865393
0.0099051691
0.0099236
0.0099417553
0.0099595626
0.0099769554
0.0099938732
0.010010263
0.010026079
0.010041284
0.010055851
0.010069761
0.010083004
0.010095578
0.010107489
0.010118747
0.010129365
0.010139353
0.010148708
0.010157409
0.010165453
0.010172817
0.010179528
0.010185518
0.010190957
0.01019553
0.010199764
0.010202291
0.010204636
0.010202246
0.01020041
0.010183957
0.010155675
0.010114094
0.036288991
0.025239707
0.018183638
0.01368538
0.012118968
0.011208588
0.010717654
0.010381828
0.010168785
0.010009612
0.0098994126
0.0098120004
0.0097469626
0.0096954035
0.009655812
0.0096245062
0.0096004069
0.0095818231
0.0095679926
0.0095580384
0.00955144
0.0095477094
0.0095464847
0.0095474584
0.0095503899
0.0095550839
0.0095613766
0.0095691376
0.0095782525
0.0095886227
0.0096001555
0.0096127666
0.0096263804
0.0096409238
0.0096563267
0.009672518
0.0096894244
0.0097069691
0.0097250723
0.0097436521
0.0097626243
0.0097818996
0.0098013879
0.0098209984
0.0098406423
0.00986023
0.0098796744
0.0098988915
0.0099178015
0.0099363302
0.0099544088
0.0099719756
0.0099889759
0.010005363
0.010021099
0.010036155
0.01005051
0.010064154
0.010077084
0.010089307
0.010100836
0.01011169
0.010121887
0.010131447
0.010140376
0.01014866
0.010156295
0.010163272
0.010169593
0.010175249
0.010180297
0.010184656
0.010188466
0.010191094
0.010192831
0.01019127
0.010188117
0.010174631
0.010155655
0.010106095
0.033348458
0.022632508
0.01723918
0.013274129
0.011845322
0.011019113
0.010564715
0.010257436
0.010059929
0.0099140838
0.0098123309
0.0097327943
0.009673494
0.0096272765
0.0095920151
0.0095647793
0.0095442234
0.0095289978
0.0095182388
0.0095112231
0.0095073965
0.0095063407
0.0095076882
0.009511161
0.0095165203
0.0095235833
0.0095321871
0.0095422056
0.0095535246
0.0095660464
0.009579676
0.0095943256
0.0096099151
0.0096263659
0.0096436025
0.0096615471
0.0096801192
0.0096992348
0.0097188069
0.0097387463
0.0097589617
0.0097793574
0.0097998373
0.0098203061
0.0098406725
0.0098608458
0.0098807401
0.0099002737
0.0099193711
0.009937964
0.009955991
0.009973399
0.0099901428
0.010006186
0.0100215
0.010036068
0.010049878
0.010062929
0.01007523
0.010086794
0.010097644
0.010107807
0.010117309
0.010126177
0.010134426
0.010142052
0.010149054
0.010155428
0.010161169
0.010166283
0.010170795
0.010174703
0.010178018
0.010180411
0.01018164
0.010180359
0.010176278
0.010164453
0.010147871
0.010096183
0.030781421
0.020505794
0.016402192
0.012900288
0.0115947
0.010846021
0.010425333
0.010145026
0.009962108
0.0098291057
0.0097353891
0.0096635206
0.0096098282
0.0095688814
0.0095379183
0.0095147316
0.0094977128
0.0094858304
0.0094781276
0.0094740225
0.0094729353
0.0094745126
0.0094783886
0.0094843143
0.0094920588
0.009501452
0.0095123355
0.009524588
0.009538096
0.0095527617
0.0095684868
0.0095851767
0.0096027434
0.0096210976
0.009640152
0.009659816
0.0096799975
0.0097006015
0.0097215309
0.0097426867
0.0097639705
0.0097852808
0.0098065173
0.0098275816
0.0098483826
0.0098688322
0.009888849
0.0099083578
0.0099272914
0.0099455919
0.0099632088
0.0099801013
0.0099962368
0.010011591
0.01002615
0.010039906
0.01005286
0.010065023
0.010076411
0.010087049
0.010096966
0.010106198
0.010114778
0.010122741
0.010130108
0.010136883
0.010143069
0.010148664
0.010153662
0.01015807
0.010161905
0.010165192
0.010167918
0.01016986
0.010170609
0.010169263
0.010164501
0.01015364
0.010135627
0.010087096
0.0285382
0.019387667
0.015663657
0.012563648
0.011368615
0.010691378
0.010301696
0.010046877
0.0098775882
0.0097569787
0.00967092
0.0096065024
0.0095582143
0.0095223557
0.0094955171
0.0094762066
0.0094625641
0.0094538687
0.0094490844
0.0094477663
0.0094493193
0.0094534504
0.0094598007
0.0094681459
0.0094782628
0.0094899902
0.00950317
0.0095176807
0.0095334039
0.0095502363
0.009568071
0.0095868024
0.0096063293
0.0096265481
0.0096473563
0.0096686484
0.0096903181
0.0097122571
0.0097343555
0.0097565043
0.0097785992
0.0098005348
0.0098222099
0.0098435272
0.0098643998
0.0098847461
0.0099044937
0.0099235787
0.0099419467
0.009959554
0.0099763648
0.0099923537
0.010007504
0.010021805
0.010035257
0.010047866
0.010059646
0.010070618
0.010080807
0.010090248
0.010098978
0.010107037
0.010114469
0.01012131
0.010127591
0.010133322
0.01013851
0.010143153
0.010147245
0.010150788
0.0101538
0.010156311
0.010158318
0.010159636
0.010159852
0.010158187
0.010152894
0.01014266
0.010123541
0.010078623
0.026562258
0.018870949
0.015007184
0.012260928
0.011165655
0.010554444
0.010193463
0.0099627755
0.00980625
0.0096975278
0.0096185744
0.0095611075
0.0095178693
0.0094867797
0.0094638502
0.009448243
0.0094378851
0.0094323275
0.0094304732
0.0094319898
0.0094362716
0.0094430689
0.0094520272
0.0094629347
0.0094755712
0.0094897745
0.0095053813
0.0095222619
0.0095402869
0.0095593411
0.0095793043
0.0096000559
0.0096214793
0.0096434548
0.0096658653
0.0096885915
0.0097115138
0.0097345121
0.0097574675
0.0097802641
0.0098027938
0.0098249513
0.0098466402
0.0098677697
0.0098882628
0.0099080501
0.0099270735
0.009945285
0.0099626473
0.0099791345
0.0099947283
0.010009421
0.010023212
0.010036108
0.010048123
0.010059276
0.010069592
0.010079103
0.010087843
0.010095854
0.010103178
0.010109862
0.010115954
0.010121496
0.010126523
0.01013105
0.010135087
0.010138633
0.01014168
0.010144226
0.010146284
0.010147891
0.010149056
0.010149619
0.010149224
0.010147066
0.01014134
0.010131485
0.010111596
0.010070761
0.024807234
0.018654212
0.014418792
0.011988288
0.010983235
0.010432446
0.01009824
0.0098903635
0.0097454968
0.0096486679
0.0095756569
0.0095249282
0.0094867599
0.0094604993
0.0094416565
0.0094299555
0.0094231492
0.0094210054
0.0094223837
0.0094270339
0.0094343456
0.0094440949
0.0094559313
0.0094696457
0.0094850179
0.009501879
0.0095200564
0.0095394083
0.0095597912
0.009581075
0.0096031246
0.0096258023
0.0096489752
0.0096725077
0.0096962685
0.0097201261
0.0097439513
0.0097676173
0.0097910021
0.0098139895
0.0098364725
0.0098583533
0.009879546
0.0098999721
0.0099195712
0.0099382926
0.0099560979
0.0099729592
0.0099888594
0.010003793
0.010017762
0.010030777
0.010042853
0.010054014
0.010064287
0.010073704
0.010082299
0.010090112
0.010097185
0.010103564
0.010109296
0.010114433
0.010119024
0.010123115
0.010126744
0.01012993
0.010132687
0.010135012
0.010136896
0.010138329
0.01013932
0.01013991
0.010140114
0.010139811
0.010138713
0.010135929
0.010129829
0.010120151
0.010099831
0.010063109
0.023239648
0.018574524
0.013888267
0.011741883
0.010817419
0.010323737
0.01001371
0.0098270365
0.0096940562
0.009607844
0.00954222
0.009498534
0.0094658137
0.0094447081
0.0094303292
0.0094228638
0.0094199555
0.0094215347
0.009426448
0.0094345025
0.0094450947
0.0094580138
0.0094729158
0.0094895867
0.0095078065
0.0095273947
0.0095481679
0.0095699695
0.0095926395
0.0096160309
0.0096399921
0.0096643681
0.0096890098
0.009713766
0.009738493
0.0097630499
0.0097873028
0.0098111241
0.0098343955
0.0098570085
0.009878867
0.009899889
0.0099200065
0.0099391612
0.0099573145
0.0099744401
0.0099905239
0.010005561
0.010019558
0.01003253
0.010044498
0.010055492
0.010065543
0.010074688
0.010082965
0.010090417
0.010097085
0.010103015
0.010108253
0.010112849
0.010116852
0.010120313
0.010123284
0.010125812
0.010127937
0.010129682
0.01013106
0.010132071
0.010132699
0.010132929
0.010132764
0.010132243
0.010131388
0.01013013
0.010128236
0.010124738
0.01011831
0.010108648
0.010088195
0.010055463
0.021840836
0.018498277
0.013410443
0.011520196
0.010669892
0.010229119
0.0099430949
0.0097765841
0.0096555592
0.0095793798
0.0095219056
0.0094851099
0.0094579485
0.0094420511
0.0094322798
0.0094291549
0.0094302887
0.0094357109
0.0094442854
0.0094558492
0.0094698153
0.0094859728
0.0095039855
0.0095236299
0.0095446794
0.0095669395
0.0095902119
0.0096143205
0.0096390851
0.0096643377
0.0096899074
0.0097156217
0.0097413157
0.0097668256
0.0097920001
0.009816695
0.0098407787
0.0098641319
0.0098866488
0.0099082389
0.0099288275
0.0099483569
0.0099667862
0.0099840849
0.01000024
0.010015255
0.01002914
0.010041917
0.010053615
0.010064269
0.010073919
0.010082609
0.010090386
0.010097296
0.010103386
0.010108704
0.010113299
0.010117216
0.010120506
0.010123217
0.010125399
0.010127102
0.010128376
0.010129269
0.01012982
0.010130054
0.010129987
0.010129617
0.010128924
0.010127886
0.010126498
0.010124793
0.010122799
0.010120511
0.01011773
0.010113469
0.01010675
0.010096966
0.010076663
0.010047642
0.020599218
0.018420752
0.012985689
0.011326006
0.010544741
0.010151993
0.0098893825
0.0097418831
0.009632026
0.0095661403
0.0095157415
0.0094856433
0.009464052
0.009453302
0.0094481889
0.0094494202
0.0094546568
0.0094639665
0.0094762612
0.0094913782
0.009508756
0.0095281716
0.0095492926
0.0095718777
0.009595686
0.0096205
0.0096460994
0.0096722817
0.0096988414
0.0097255869
0.0097523276
0.009778876
0.0098050567
0.0098307013
0.0098556604
0.0098797982
0.0099029974
0.009925159
0.0099462024
0.0099660658
0.0099847054
0.010002096
0.010018231
0.010033112
0.010046757
0.010059197
0.01007047
0.010080621
0.010089699
0.010097758
0.010104852
0.010111037
0.010116369
0.0101209
0.010124685
0.010127772
0.010130211
0.010132051
0.010133337
0.010134117
0.010134438
0.010134348
0.010133892
0.010133118
0.010132062
0.010130752
0.010129205
0.010127418
0.010125367
0.010123021
0.010120369
0.010117427
0.010114236
0.010110857
0.010107107
0.010102064
0.010095077
0.010085038
0.010065205
0.010039374
0.019496369
0.018259936
0.0126123
0.011158897
0.010440592
0.010092246
0.0098508888
0.0097210125
0.0096221703
0.0095658659
0.0095228082
0.0094992501
0.0094833138
0.0094777218
0.0094773807
0.0094830632
0.0094925414
0.00950587
0.009522027
0.0095408246
0.0095617226
0.0095844684
0.0096087218
0.0096342108
0.0096606688
0.0096878459
0.0097154943
0.0097433823
0.00977128
0.0097989759
0.009826267
0.0098529622
0.0098788877
0.0099038852
0.0099278224
0.0099505875
0.009972093
0.0099922734
0.010011086
0.010028507
0.010044532
0.010059175
0.010072464
0.010084435
0.010095137
0.010104628
0.010112969
0.010120225
0.010126461
0.010131744
0.010136138
0.010139706
0.010142507
0.010144598
0.010146034
0.010146863
0.010147133
0.010146889
0.010146173
0.010145028
0.010143497
0.010141621
0.010139444
0.010137008
0.010134348
0.010131493
0.010128461
0.010125248
0.010121827
0.010118161
0.010114224
0.010110017
0.010105593
0.010101066
0.010096275
0.010090458
0.010083196
0.010072763
0.010053851
0.010030195
0.018512768
0.017700053
0.012284428
0.011014012
0.010354191
0.010046308
0.0098256808
0.0097123123
0.0096243782
0.0095773923
0.0095417661
0.0095247948
0.0095147767
0.009514573
0.009519328
0.0095297655
0.0095438101
0.0095614509
0.0095817311
0.0096044103
0.0096289573
0.009655074
0.0096823998
0.0097106254
0.0097394526
0.0097685983
0.0097977907
0.0098267757
0.0098553093
0.0098831734
0.0099101676
0.0099361159
0.009960865
0.0099842855
0.010006281
0.01002678
0.010045739
0.010063139
0.010078983
0.010093294
0.01010611
0.010117483
0.010127476
0.010136156
0.0101436
0.010149886
0.010155094
0.010159301
0.010162584
0.010165015
0.010166663
0.010167594
0.010167866
0.010167536
0.010166653
0.010165264
0.010163412
0.010161135
0.01015847
0.010155454
0.010152122
0.010148511
0.010144658
0.0101406
0.010136371
0.010131998
0.010127501
0.010122877
0.010118098
0.010113122
0.010107905
0.010102427
0.010096752
0.010091028
0.010085131
0.010078562
0.010070993
0.010060017
0.010042801
0.010019182
0.017633788
0.016809049
0.011997159
0.01088838
0.010283426
0.010012837
0.0098124426
0.0097148342
0.0096380584
0.009600415
0.0095727014
0.0095626679
0.0095590878
0.0095647106
0.0095750255
0.0095906082
0.0096095579
0.009631759
0.0096563143
0.0096829152
0.0097110309
0.0097403119
0.0097703724
0.0098008683
0.0098314731
0.0098618776
0.0098917985
0.009920974
0.0099491645
0.0099761666
0.010001805
0.010025939
0.010048459
0.010069285
0.010088374
0.01010571
0.010121303
0.01013519
0.010147422
0.010158067
0.010167205
0.010174922
0.01018131
0.010186463
0.010190473
0.010193434
0.010195435
0.010196562
0.010196892
0.0101965
0.010195453
0.010193814
0.010191639
0.010188976
0.01018587
0.010182362
0.010178487
0.010174276
0.010169759
0.010164965
0.010159922
0.010154658
0.010149205
0.010143593
0.010137853
0.010132014
0.010126095
0.010120096
0.010113991
0.010107733
0.010101258
0.010094526
0.010087603
0.010080634
0.010073569
0.010066263
0.010058357
0.010046567
0.010032525
0.010006473
0.016849384
0.016026177
0.011747537
0.01078191
0.010228886
0.0099929413
0.0098126966
0.0097303805
0.0096652002
0.0096370645
0.0096177882
0.0096150349
0.0096183223
0.0096300827
0.009646234
0.0096671345
0.0096910697
0.0097177975
0.0097464734
0.0097767123
0.0098079776
0.009839868
0.0098719707
0.0099039156
0.0099353574
0.0099659782
0.0099954995
0.010023677
0.010050303
0.010075216
0.010098292
0.010119451
0.010138647
0.01015587
0.010171141
0.010184506
0.010196037
0.010205819
0.010213954
0.010220548
0.010225713
0.01022956
0.010232204
0.010233749
0.0102343
0.010233954
0.010232803
0.010230932
0.010228415
0.010225322
0.010221716
0.010217649
0.010213172
0.010208324
0.010203143
0.010197661
0.010191904
0.010185895
0.010179657
0.010173209
0.01016657
0.010159762
0.010152808
0.010145732
0.010138562
0.010131326
0.010124043
0.010116719
0.010109333
0.010101835
0.010094144
0.010086199
0.010078046
0.010069786
0.010061482
0.010053422
0.010045238
0.010033933
0.010023679
0.010002667
0.016153254
0.015338429
0.011535567
0.010696783
0.010193099
0.0099892058
0.0098289864
0.0097613516
0.0097080579
0.0096894201
0.0096788811
0.0096835361
0.0096938792
0.0097118607
0.0097338752
0.0097600178
0.0097887507
0.0098196911
0.0098520306
0.0098853012
0.0099189546
0.009952542
0.0099856329
0.010017843
0.010048834
0.010078309
0.010106026
0.010131794
0.01015547
0.010176965
0.010196236
0.010213281
0.010228137
0.01024087
0.010251568
0.010260341
0.010267312
0.010272612
0.010276377
0.010278741
0.010279835
0.010279787
0.010278716
0.010276732
0.01027394
0.010270432
0.010266296
0.010261609
0.010256437
0.010250842
0.010244874
0.010238579
0.010231994
0.010225153
0.010218082
0.010210804
0.010203335
0.010195691
0.010187884
0.010179926
0.010171826
0.010163599
0.010155259
0.010146825
0.010138318
0.010129766
0.010121189
0.010112599
0.010103986
0.010095299
0.010086447
0.010077352
0.010068006
0.010058423
0.010048787
0.010039861
0.010032492
0.010023888
0.010017675
0.010003966
0.015538578
0.014739925
0.011359218
0.010633076
0.010176613
0.010002233
0.0098619396
0.0098083689
0.0097672255
0.009758056
0.0097564875
0.0097686454
0.0097861467
0.0098103457
0.0098381092
0.0098692434
0.0099023553
0.009936913
0.0099721266
0.010007453
0.010042329
0.010076283
0.010108895
0.010139805
0.010168723
0.010195419
0.010219732
0.010241563
0.010260869
0.010277662
0.010291992
0.010303952
0.010313658
0.010321249
0.010326874
0.010330693
0.010332866
0.010333553
0.010332909
0.010331081
0.010328205
0.01032441
0.010319812
0.010314515
0.010308614
0.010302193
0.010295327
0.01028808
0.010280509
0.010272661
0.010264576
0.010256288
0.010247825
0.010239209
0.010230455
0.010221577
0.010212582
0.010203478
0.010194267
0.010184952
0.010175537
0.010166025
0.010156424
0.010146745
0.010137004
0.010127224
0.010117428
0.010107636
0.010097849
0.010088025
0.010078078
0.010067916
0.010057442
0.010046551
0.010035483
0.010027795
0.010022312
0.010015986
0.010013389
0.01000495
0.014994651
0.014224072
0.011214856
0.010589229
0.010178381
0.010031444
0.0099112275
0.0098714613
0.0098428848
0.0098433411
0.0098510413
0.0098708517
0.0098955581
0.0099258584
0.0099590421
0.0099946221
0.010031312
0.010068446
0.010105242
0.010141115
0.010175523
0.010208024
0.010238262
0.010265964
0.010290945
0.010313094
0.010332374
0.01034881
0.010362479
0.010373501
0.010382027
0.010388229
0.010392294
0.010394412
0.010394778
0.010393578
0.010390991
0.010387185
0.010382317
0.010376531
0.010369956
0.01036271
0.010354897
0.010346606
0.010337919
0.010328904
0.01031962
0.010310118
0.01030044
0.01029062
0.010280687
0.010270662
0.010260562
0.010250398
0.010240176
0.0102299
0.010219569
0.010209183
0.010198735
0.010188222
0.010177639
0.01016698
0.010156246
0.010145439
0.010134571
0.010123656
0.01011272
0.010101788
0.010090875
0.010079959
0.010068982
0.010057841
0.010046345
0.01003427
0.010024418
0.010018527
0.010014435
0.010009767
0.010009504
0.010005465
0.01451213
0.01377881
0.011100352
0.010564738
0.010198353
0.010077269
0.0099776392
0.0099516637
0.0099361814
0.0099465316
0.0099637426
0.0099912402
0.010022933
0.010058851
0.010096633
0.010135532
0.01017434
0.010212308
0.010248702
0.010282971
0.010314664
0.010343453
0.010369121
0.010391549
0.01041071
0.010426651
0.01043948
0.010449357
0.010456472
0.010461045
0.0104633
0.01046347
0.010461781
0.010458453
0.010453696
0.0104477
0.010440641
0.010432678
0.010423954
0.010414599
0.010404723
0.010394425
0.010383791
0.010372892
0.010361791
0.010350538
0.010339179
0.010327746
0.010316269
0.010304768
0.01029326
0.010281755
0.010270258
0.01025877
0.010247291
0.010235814
0.010224334
0.010212839
0.010201319
0.010189761
0.010178153
0.010166483
0.010154743
0.010142928
0.01013104
0.010119088
0.010107091
0.010095079
0.010083077
0.010071097
0.010059133
0.010047085
0.010034706
0.010023638
0.010016023
0.010011667
0.010008548
0.010005457
0.010006993
0.01000759
0.014085095
0.013395531
0.011014861
0.010560249
0.010237752
0.010141411
0.010063149
0.010051118
0.010049219
0.010069643
0.010096289
0.010131062
0.010168891
0.010209187
0.010249889
0.010290063
0.010328619
0.010364839
0.01039813
0.010428087
0.010454451
0.010477094
0.010496003
0.010511259
0.010523017
0.010531486
0.010536911
0.01053956
0.010539712
0.010537643
0.010533623
0.010527904
0.010520725
0.010512304
0.010502839
0.010492503
0.010481452
0.010469823
0.010457736
0.010445296
0.010432591
0.010419696
0.010406674
0.010393579
0.010380453
0.010367331
0.010354239
0.010341198
0.010328223
0.010315322
0.010302502
0.01028976
0.010277093
0.010264496
0.010251958
0.010239469
0.010227012
0.010214573
0.010202133
0.010189675
0.010177179
0.010164628
0.010152006
0.0101393
0.010126503
0.010113613
0.010100642
0.010087611
0.010074549
0.01006151
0.010048554
0.010035614
0.01002409
0.010015451
0.010009845
0.010006752
0.01000427
0.010002428
0.010005323
0.01000936
0.013709492
0.013068059
0.010958847
0.010577458
0.010298925
0.010226721
0.010170827
0.010172942
0.010184732
0.010214891
0.010250106
0.010290787
0.010332787
0.010375039
0.010415792
0.010454102
0.010489116
0.010520309
0.010547351
0.010570107
0.010588585
0.01060291
0.010613298
0.010620026
0.010623409
0.010623781
0.01062148
0.010616835
0.010610164
0.010601756
0.010591881
0.010580781
0.010568676
0.010555759
0.010542193
0.010528122
0.010513674
0.010498955
0.010484057
0.010469056
0.010454015
0.010438987
0.010424013
0.010409127
0.010394354
0.010379712
0.010365213
0.010350866
0.010336673
0.010322632
0.010308738
0.010294983
0.010281356
0.010267844
0.01025443
0.010241096
0.010227821
0.010214586
0.010201366
0.01018814
0.010174884
0.010161573
0.010148187
0.010134705
0.01012111
0.010107391
0.010093544
0.010079569
0.010065485
0.010051367
0.010037353
0.010025112
0.010015857
0.010009302
0.010005413
0.01000333
0.010001394
0.010000621
0.010004304
0.010009302
0.013385427
0.012793119
0.010935095
0.0106199
0.010386057
0.010337277
0.010304361
0.010320441
0.010345111
0.010383473
0.010424955
0.010468666
0.010511327
0.010551688
0.010588435
0.010620865
0.01064852
0.010671225
0.010689019
0.010702088
0.010710726
0.010715299
0.010716208
0.010713869
0.010708695
0.010701077
0.010691383
0.010679947
0.010667069
0.010653017
0.010638025
0.010622302
0.010606024
0.01058934
0.010572376
0.010555242
0.010538029
0.010520813
0.010503656
0.010486607
0.010469707
0.010452986
0.010436465
0.010420163
0.010404086
0.010388242
0.010372629
0.010357246
0.010342085
0.010327133
0.010312378
0.01029781
0.010283408
0.010269152
0.010255021
0.01024099
0.010227038
0.010213138
0.010199264
0.01018539
0.010171488
0.010157531
0.010143491
0.010129342
0.010115062
0.010100629
0.010086024
0.010071218
0.010056203
0.010040994
0.010027374
0.01001711
0.010009634
0.010004795
0.010002307
0.010001024
0.0099996658
0.0099999323
0.010004062
0.01000918
0.01311689
0.012570869
0.010949039
0.010693384
0.010505383
0.010478655
0.010467599
0.010495564
0.01053069
0.010573882
0.010617268
0.010659253
0.010697493
0.010730985
0.010759035
0.010781412
0.010798161
0.010809532
0.010815925
0.010817816
0.010815717
0.010810144
0.010801596
0.010790538
0.010777392
0.010762539
0.010746313
0.010729003
0.010710859
0.010692095
0.010672897
0.010653419
0.010633785
0.010614099
0.01059445
0.010574911
0.010555541
0.010536386
0.010517482
0.010498855
0.010480523
0.0104625
0.010444792
0.010427401
0.010410322
0.010393551
0.010377079
0.010360893
0.010344976
0.010329311
0.010313882
0.010298671
0.010283653
0.0102688
0.010254088
0.010239491
0.010224982
0.010210534
0.010196117
0.010181702
0.010167258
0.010152755
0.010138162
0.01012345
0.010108592
0.010093561
0.010078327
0.010062859
0.010047146
0.010031767
0.010020004
0.010011205
0.010005081
0.010001567
0.010000098
0.0099993648
0.0099985923
0.0099999437
0.010004435
0.010009351
0.01290798
0.012403589
0.011006975
0.010803653
0.010662458
0.010654191
0.010662492
0.010698189
0.010737886
0.010779846
0.010818579
0.010852568
0.010880534
0.010902073
0.010917212
0.010926267
0.010929759
0.010928291
0.010922514
0.010913065
0.010900543
0.010885494
0.010868404
0.010849696
0.010829735
0.01080883
0.010787244
0.010765192
0.010742858
0.010720395
0.010697928
0.010675554
0.010653351
0.010631385
0.010609708
0.010588363
0.010567379
0.010546777
0.010526571
0.01050677
0.010487374
0.010468384
0.010449792
0.010431588
0.01041376
0.010396294
0.010379176
0.010362382
0.01034589
0.010329679
0.010313731
0.010298022
0.01028252
0.010267195
0.010252021
0.010236969
0.01022201
0.010207115
0.010192252
0.01017739
0.010162498
0.010147542
0.010132489
0.010117307
0.010101966
0.010086433
0.010070668
0.010054651
0.010038392
0.010025002
0.010014698
0.010007022
0.010001917
0.009999288
0.0099983581
0.0099978741
0.0099977325
0.010000234
0.010005289
0.010009918
0.01276514
0.012293772
0.011114516
0.010953009
0.010858129
0.010864516
0.010884284
0.010920346
0.010955964
0.010988826
0.011015586
0.01103538
0.011048037
0.011053872
0.011053546
0.011047816
0.011037496
0.011023361
0.011006128
0.01098643
0.010964815
0.010941747
0.010917616
0.010892744
0.010867396
0.010841787
0.010816091
0.010790449
0.010764978
0.01073977
0.010714891
0.010690393
0.010666318
0.010642699
0.010619559
0.010596913
0.010574769
0.010553129
0.01053199
0.010511346
0.010491187
0.010471501
0.010452272
0.010433481
0.010415109
0.010397137
0.010379544
0.010362301
0.010345381
0.010328761
0.010312422
0.010296334
0.010280461
0.010264771
0.010249234
0.010233822
0.010218504
0.010203249
0.010188025
0.010172801
0.010157543
0.010142217
0.010126789
0.010111228
0.010095498
0.010079554
0.010063348
0.010046845
0.010031749
0.010019972
0.010010868
0.010004148
0.0099998213
0.0099976482
0.009996772
0.0099962678
0.0099966988
0.010000153
0.010006197
0.010011393
0.012698289
0.012243412
0.011275697
0.011148266
0.011087219
0.011099037
0.011119355
0.011146139
0.011168742
0.011184897
0.01119357
0.011194777
0.011189314
0.011178059
0.011162033
0.011142159
0.011119285
0.011094127
0.011067291
0.011039272
0.011010472
0.010981213
0.01095175
0.010922286
0.01089298
0.010863953
0.010835302
0.010807103
0.010779412
0.010752269
0.010725698
0.010699717
0.010674342
0.010649578
0.010625426
0.010601882
0.010578937
0.010556579
0.010534795
0.010513567
0.010492877
0.010472706
0.010453031
0.010433826
0.010415069
0.010396736
0.010378804
0.010361237
0.010344005
0.010327084
0.010310455
0.010294086
0.010277936
0.010261967
0.010246152
0.010230461
0.010214863
0.010199326
0.010183817
0.010168304
0.010152753
0.01013713
0.010121404
0.010105545
0.010089519
0.010073285
0.010056816
0.0100401
0.010026585
0.010016047
0.010007935
0.010002063
0.0099983551
0.0099963844
0.0099953389
0.0099947016
0.0099952456
0.0099983645
0.010003461
0.010007554
0.012720967
0.012264465
0.01148612
0.01138043
0.011336586
0.011340858
0.011349921
0.011357323
0.011358695
0.011352636
0.011339878
0.011321187
0.011297811
0.011270777
0.011241059
0.011209432
0.011176537
0.011142872
0.011108831
0.011074711
0.011040744
0.011007102
0.010973915
0.010941279
0.010909263
0.010877915
0.010847273
0.010817361
0.010788188
0.010759756
0.010732061
0.010705102
0.010678869
0.010653351
0.010628532
0.010604395
0.01058092
0.010558088
0.010535875
0.010514258
0.010493213
0.010472715
0.010452739
0.010433252
0.010414231
0.010395651
0.010377484
0.010359691
0.010342237
0.010325103
0.010308271
0.010291704
0.010275355
0.010259186
0.010243168
0.010227273
0.01021147
0.010195725
0.010180006
0.010164277
0.010148504
0.010132651
0.010116686
0.010100576
0.01008428
0.010067757
0.01005098
0.010035096
0.010022649
0.010012957
0.01000559
0.0100004
0.0099971881
0.0099953994
0.009994302
0.0099936651
0.0099943139
0.0099971116
0.010001232
0.010003989
0.01283617
0.01236624
0.011734765
0.011631018
0.011586339
0.011568743
0.011553568
0.011534342
0.011510149
0.011480741
0.01144744
0.011411149
0.011372911
0.011333464
0.011293431
0.011253256
0.011213279
0.011173742
0.011134819
0.011096631
0.011059262
0.011022767
0.010987179
0.010952514
0.010918777
0.010885966
0.010854077
0.010823095
0.010792999
0.010763769
0.010735384
0.010707824
0.010681066
0.010655085
0.010629858
0.010605358
0.010581559
0.010558435
0.010535958
0.010514101
0.010492836
0.010472136
0.010451969
0.010432304
0.010413116
0.01039438
0.010376064
0.010358123
0.010340525
0.010323255
0.010306295
0.010289604
0.010273128
0.010256828
0.01024068
0.010224657
0.010208726
0.010192854
0.010177007
0.010161149
0.010145244
0.010129259
0.01011316
0.010096911
0.010080473
0.010063807
0.010046893
0.010031847
0.010020021
0.010010822
0.010003913
0.009999128
0.0099961654
0.0099944588
0.0099934396
0.0099930573
0.0099940132
0.0099968425
0.010000722
0.010003095
0.013021871
0.012523094
0.011996659
0.011872644
0.011804581
0.011755835
0.011710655
0.011664361
0.011616846
0.01156812
0.011518998
0.011469928
0.011421379
0.011373625
0.011326877
0.011281257
0.011236844
0.011193675
0.011151762
0.011111101
0.011071675
0.01103346
0.010996425
0.010960537
0.010925761
0.010892064
0.010859413
0.010827771
0.010797099
0.010767364
0.010738536
0.010710583
0.010683474
0.010657177
0.010631663
0.010606901
0.010582862
0.010559515
0.01053683
0.010514779
0.010493332
0.01047246
0.010452129
0.010432307
0.010412969
0.010394093
0.010375642
0.010357567
0.010339839
0.010322449
0.01030538
0.010288583
0.010272
0.010255595
0.010239347
0.010223229
0.01020721
0.010191255
0.01017533
0.010159398
0.010143423
0.010127371
0.010111207
0.010094892
0.010078385
0.010061653
0.010044667
0.010030092
0.010018576
0.01000961
0.010002897
0.0099981962
0.0099951351
0.0099932257
0.0099921212
0.0099918738
0.0099928517
0.0099951565
0.0099980838
0.01000008
0.013273348
0.012700628
0.012226093
0.012064629
0.011962188
0.011882088
0.011810653
0.011743604
0.011679661
0.011618249
0.01155923
0.011502462
0.011447864
0.011395335
0.011344785
0.011296119
0.011249247
0.011204079
0.011160533
0.011118528
0.01107799
0.01103885
0.011001041
0.010964501
0.010929173
0.010895007
0.010861954
0.010829963
0.010798989
0.010768991
0.01073993
0.010711771
0.010684477
0.010658014
0.010632349
0.010607449
0.010583283
0.010559819
0.010537025
0.010514872
0.010493329
0.010472368
0.010451952
0.010432051
0.01041264
0.010393697
0.010375183
0.010357048
0.010339265
0.010321828
0.01030472
0.010287891
0.010271279
0.010254851
0.010238588
0.010222466
0.010206453
0.010190515
0.010174618
0.010158726
0.010142807
0.010126825
0.010110747
0.010094535
0.010078153
0.01006157
0.010044756
0.010030098
0.010018501
0.010009493
0.010002748
0.0099979424
0.0099946755
0.0099925675
0.0099914211
0.0099912549
0.009992131
0.0099939115
0.0099961481
0.0099982298
0.013530316
0.012846119
0.012370065
0.012171405
0.012043369
0.011943594
0.01185778
0.01178032
0.011708746
0.011641757
0.011578591
0.011518721
0.011461775
0.011407455
0.011355529
0.011305798
0.011258097
0.01121228
0.01116822
0.011125806
0.011084939
0.011045531
0.011007499
0.010970772
0.010935281
0.010900971
0.010867786
0.010835673
0.010804583
0.01077447
0.010745295
0.010717019
0.010689607
0.010663023
0.010637233
0.010612204
0.010587905
0.010564304
0.010541369
0.010519071
0.010497382
0.010476271
0.010455704
0.010435648
0.010416081
0.010396985
0.010378318
0.01036003
0.010342091
0.010324499
0.010307244
0.010290273
0.010273524
0.01025696
0.010240563
0.010224311
0.010208173
0.010192117
0.010176108
0.010160111
0.010144093
0.010128021
0.010111858
0.010095569
0.010079119
0.010062476
0.010045607
0.010030886
0.010019187
0.010010074
0.010003203
0.0099982174
0.0099947316
0.0099924531
0.0099912555