/*--------------------------------*- C++ -*----------------------------------*\
| =========                 |                                                 |
| \\      /  F ield         | OpenFOAM: The Open Source CFD Toolbox           |
|  \\    /   O peration     | Version:  2206                                  |
|   \\  /    A nd           | Website:  www.openfoam.com                      |
|    \\/     M anipulation  |                                                 |
\*---------------------------------------------------------------------------*/
FoamFile
{
    version     2.0;
    format      ascii;
    arch        "LSB;label=32;scalar=64";
    class       volScalarField;
    location    "668";
    object      Ma;
}
// * * * * * * * * * * * * * * * * * * * * * * * * * * * * * * * * * * * * * //

dimensions      [0 0 0 0 0 0 0];

internalField   nonuniform List<scalar> 
16000
(
0.87076354
1.0037745
0.94961509
0.9787224
0.95919354
0.9681707
0.96000046
0.96238302
0.95809738
0.95805863
0.95507375
0.95386834
0.95147274
0.9497009
0.94741374
0.94531932
0.94297221
0.94064173
0.93815934
0.93562154
0.93296685
0.93022677
0.92737934
0.92443323
0.92138053
0.91822282
0.91495726
0.91158396
0.90810235
0.90451304
0.90081708
0.89701639
0.89311365
0.88911249
0.88501745
0.88083405
0.87656879
0.87222919
0.86782377
0.86336199
0.85885414
0.85431132
0.84974526
0.84516824
0.84059291
0.83603213
0.83149879
0.82700562
0.82256498
0.8181887
0.81388792
0.80967285
0.80555267
0.80153536
0.79762751
0.79383433
0.7901595
0.78660532
0.78317283
0.77986212
0.77667259
0.77360333
0.77065314
0.76782016
0.76510124
0.76249156
0.75998216
0.75756132
0.75520732
0.75290622
0.7506187
0.7483679
0.74606645
0.74386449
0.74143763
0.7393313
0.73638258
0.7346052
0.73007351
0.7298669
0.88110687
1.0144481
0.95851041
0.98889817
0.96828316
0.97779805
0.96905377
0.97157983
0.96695477
0.96689239
0.96368031
0.9623299
0.95974572
0.95778627
0.95530308
0.95299476
0.95043156
0.94786541
0.94514291
0.94234816
0.93942934
0.93641145
0.93327788
0.93003481
0.92667731
0.92320664
0.91962193
0.91592402
0.91211395
0.90819356
0.90416541
0.90003283
0.8958
0.89147201
0.88705486
0.88255559
0.87798229
0.87334415
0.86865138
0.86391514
0.85914744
0.85436099
0.84956902
0.84478511
0.84002296
0.83529621
0.83061823
0.8260019
0.82145942
0.81700213
0.81264038
0.80838333
0.80423889
0.80021356
0.7963124
0.79253891
0.78889507
0.78538142
0.78199726
0.77874087
0.77560995
0.77260194
0.76971419
0.76694371
0.76428662
0.76173751
0.7592879
0.75692505
0.75463021
0.75238216
0.75015434
0.7479386
0.74570378
0.74349184
0.74118128
0.73895031
0.73627898
0.73413577
0.73014614
0.72916762
0.89093549
1.0242393
0.96658755
0.99798607
0.97651827
0.98636227
0.97715039
0.97969946
0.97477416
0.97460551
0.97117326
0.96962192
0.96683056
0.96463716
0.96192674
0.9593618
0.95654511
0.95370242
0.95070106
0.94761093
0.94439117
0.94106051
0.93760759
0.93403648
0.93034474
0.92653338
0.92260297
0.91855499
0.9143917
0.9101161
0.90573224
0.90124506
0.89666062
0.89198604
0.88722961
0.88240076
0.87751005
0.87256905
0.8675903
0.86258719
0.85757378
0.8525646
0.84757446
0.8426181
0.83771004
0.83286428
0.8280941
0.82341192
0.81882903
0.81435554
0.81000021
0.80577037
0.8016719
0.79770915
0.79388491
0.79020047
0.78665561
0.7832487
0.77997697
0.77683673
0.77382381
0.7709339
0.76816282
0.76550634
0.76295966
0.76051676
0.75816903
0.75590365
0.75370254
0.75154303
0.74940106
0.74725923
0.74510248
0.74293703
0.74071944
0.73846865
0.73598494
0.73364137
0.7300619
0.72858436
0.8992229
1.0325565
0.97255558
1.005348
0.98306973
0.99319106
0.98352566
0.9860524
0.98082771
0.98050962
0.97685162
0.97506229
0.9720473
0.9695913
0.96663584
0.96379401
0.96070988
0.95757836
0.95428977
0.95089836
0.94737391
0.94372837
0.93995468
0.93605444
0.93202695
0.92787286
0.92359385
0.91919214
0.91467143
0.91003628
0.90529277
0.90044817
0.8955112
0.89049193
0.88540179
0.88025347
0.87506068
0.86983804
0.86460093
0.85936525
0.85414713
0.84896277
0.84382812
0.8387586
0.83376888
0.82887256
0.82408203
0.81940833
0.81486099
0.81044798
0.80617568
0.80204886
0.79807071
0.79424287
0.79056548
0.78703725
0.78365547
0.78041623
0.77731458
0.7743448
0.77150088
0.76877682
0.76616697
0.76366598
0.76126828
0.75896744
0.75675489
0.75461818
0.75253964
0.75049659
0.74846462
0.74642335
0.74436005
0.74227326
0.74014324
0.73793124
0.73559213
0.73314451
0.72993145
0.72795248
0.9056358
1.0391449
0.97736436
1.0106661
0.98773144
0.99805745
0.98797558
0.99041647
0.98491083
0.98437957
0.98051546
0.97845471
0.97521683
0.97248513
0.9692859
0.96616345
0.96281229
0.95938956
0.9558101
0.95211074
0.94827142
0.9442974
0.9401856
0.93593595
0.93154991
0.9270288
0.92237642
0.91759699
0.91269684
0.90768342
0.90256598
0.89735518
0.89206332
0.88670408
0.88129252
0.87584481
0.87037803
0.86490992
0.85945861
0.85404223
0.84867855
0.8433848
0.8381773
0.83307122
0.82808036
0.82321695
0.81849147
0.81391259
0.80948713
0.8052201
0.80111472
0.79717257
0.79339363
0.78977646
0.7863182
0.78301477
0.77986093
0.7768504
0.77397614
0.77123056
0.76860591
0.76609471
0.76369001
0.76138547
0.75917487
0.75705149
0.7550069
0.75302918
0.75110131
0.74920112
0.74730389
0.74538758
0.74343881
0.74145631
0.73942336
0.73729309
0.73507744
0.73259998
0.72970909
0.72730534
0.91033382
1.0440897
0.98076447
1.0141023
0.99053268
1.0011308
0.99060158
0.99293743
0.98714997
0.98632694
0.98234735
0.98000925
0.97655773
0.97354063
0.97008709
0.96666213
0.96301547
0.95926575
0.95535284
0.95129839
0.94709268
0.94273679
0.9382324
0.93357989
0.92878399
0.92384846
0.91878042
0.91358746
0.90827964
0.90286828
0.89736663
0.89178941
0.88615291
0.88047466
0.87477332
0.86906837
0.8633798
0.85772783
0.85213243
0.84661298
0.84118794
0.83587446
0.83068798
0.82564219
0.82074875
0.81601723
0.81145506
0.80706752
0.80285781
0.79882721
0.79497527
0.79129991
0.78779762
0.78446367
0.78129221
0.77827642
0.77540865
0.77268052
0.77008314
0.76760731
0.7652439
0.76298422
0.76082033
0.75874514
0.75675202
0.75483422
0.75298366
0.75118913
0.74943455
0.7476986
0.74595649
0.74418469
0.74236914
0.74050916
0.73858589
0.73656634
0.73446524
0.73201477
0.72940389
0.72668756
0.91371939
1.0476955
0.98312177
1.0166147
0.99253116
1.0027987
0.99204601
0.99436675
0.98807341
0.98757987
0.98264521
0.97996507
0.97624149
0.97286278
0.96907729
0.96526635
0.96123842
0.95707639
0.95274486
0.94825375
0.94360334
0.93879294
0.93382919
0.92871449
0.92345737
0.91806502
0.91254844
0.90691928
0.90119174
0.89538145
0.88950591
0.8835841
0.87763634
0.87168396
0.86574897
0.85985369
0.8540203
0.84827045
0.8426248
0.83710265
0.83172157
0.82649704
0.82144223
0.81656786
0.81188205
0.80739044
0.80309628
0.79900053
0.79510211
0.79139807
0.78788387
0.78455364
0.78140036
0.77841613
0.7755923
0.77291965
0.77038845
0.76798862
0.76570983
0.76354169
0.7614741
0.75949752
0.75760338
0.75578412
0.75403297
0.75234333
0.75070768
0.74911573
0.74755262
0.74599821
0.74442799
0.74281728
0.74115164
0.73942889
0.73762968
0.73574252
0.73375354
0.73138161
0.72902431
0.72606977
0.91600915
1.0501108
0.98412936
1.0182226
0.99260865
1.0038352
0.99173735
0.99329285
0.98728131
0.9854079
0.98112291
0.9779705
0.97387518
0.97003279
0.96582205
0.96153853
0.95704748
0.95239952
0.94758079
0.94259242
0.93744288
0.93213149
0.92666929
0.92106167
0.91532107
0.90945881
0.90349018
0.89743143
0.89130145
0.88512059
0.87891101
0.87269609
0.86650019
0.86034814
0.85426478
0.84827441
0.84240032
0.83666424
0.83108597
0.82568295
0.82046997
0.81545901
0.81065918
0.80607663
0.80171465
0.79757386
0.79365242
0.78994637
0.7864499
0.78315568
0.78005511
0.77713867
0.77439616
0.77181692
0.76938999
0.76710425
0.76494845
0.7629113
0.76098155
0.75914817
0.7574005
0.75572866
0.75412377
0.75257816
0.75108515
0.74963855
0.74823158
0.74685504
0.74549555
0.74413449
0.74274781
0.74131041
0.73980716
0.73823209
0.73656969
0.73482869
0.73295141
0.73069957
0.72857624
0.72546355
0.9167822
1.0508204
0.98291709
1.0161765
0.990899
1.0004659
0.98948429
0.99055553
0.98417969
0.98194977
0.97710639
0.97343719
0.96892543
0.96457427
0.95989396
0.95509887
0.95010509
0.94493689
0.93959779
0.93408392
0.92841025
0.92257818
0.91660304
0.9104946
0.90427
0.89794585
0.89154285
0.88508301
0.87859083
0.87209219
0.86561435
0.85918515
0.85283263
0.84658429
0.84046652
0.834504
0.8287192
0.82313184
0.81775861
0.81261294
0.8077048
0.80304081
0.79862422
0.79445525
0.79053125
0.7868471
0.78339548
0.78016727
0.77715203
0.77433824
0.77171368
0.76926573
0.7669816
0.76484856
0.76285398
0.76098547
0.75923089
0.75757837
0.75601636
0.75453365
0.7531196
0.75176434
0.75045911
0.7491964
0.74796985
0.74677388
0.74560259
0.74444803
0.74329855
0.74213722
0.74094091
0.73968486
0.7383524
0.7369323
0.73541742
0.73382939
0.73206509
0.72996791
0.72805677
0.72485462
0.9155044
1.0488501
0.97939483
1.0127197
0.98706108
0.99624836
0.98477996
0.98519164
0.97857717
0.97570726
0.97055661
0.96633463
0.96137434
0.95648454
0.95129778
0.94595839
0.9404248
0.93470267
0.9288088
0.92273862
0.91651295
0.91013799
0.90363457
0.8970191
0.8903152
0.88354675
0.87674142
0.86992819
0.86313789
0.85640207
0.84975257
0.84322069
0.83683647
0.830628
0.82462079
0.8188372
0.81329606
0.80801236
0.80299709
0.79825728
0.79379608
0.78961304
0.78570444
0.78206364
0.77868153
0.77554703
0.7726475
0.76996909
0.76749719
0.76521684
0.76311297
0.7611707
0.7593755
0.75771331
0.75617062
0.75473453
0.75339271
0.75213336
0.75094518
0.74981734
0.74873963
0.74770263
0.746698
0.74571866
0.74475878
0.7438135
0.74287789
0.74194542
0.7410063
0.74004541
0.73904113
0.73796979
0.73681195
0.73555117
0.73419121
0.73275598
0.73110866
0.72919554
0.72746758
0.72423675
0.91236641
1.0444077
0.97410096
1.0069767
0.98125014
0.98957618
0.97806041
0.97773863
0.97084836
0.96733347
0.96175542
0.95692413
0.95144816
0.94595787
0.94019425
0.93424505
0.92810241
0.92176219
0.91525208
0.90857216
0.90175027
0.89480108
0.88775316
0.88063207
0.87346976
0.86629861
0.85915387
0.8520713
0.84508719
0.83823717
0.83155548
0.82507408
0.81882194
0.81282437
0.80710254
0.80167309
0.79654805
0.79173478
0.78723611
0.78305072
0.77917345
0.77559584
0.7723066
0.7692922
0.76653734
0.7640255
0.7617394
0.75966137
0.7577737
0.756059
0.75450043
0.75308181
0.75178778
0.75060386
0.74951653
0.74851311
0.74758176
0.74671133
0.74589126
0.74511157
0.74436286
0.7436365
0.74292485
0.74222145
0.74152112
0.7408198
0.74011359
0.73939745
0.73866349
0.7378985
0.73708315
0.73619525
0.73521165
0.73411221
0.73291058
0.73162202
0.7300996
0.72839431
0.72680759
0.72361952
0.90786339
1.0380901
0.96770082
0.99961186
0.9738912
0.98124538
0.96959219
0.96840596
0.96117967
0.95690393
0.95081568
0.94527413
0.93917102
0.93297666
0.92652611
0.91986747
0.91302018
0.90598012
0.89878551
0.89144635
0.88399923
0.87647001
0.86889644
0.8613142
0.85376374
0.8462854
0.83892063
0.83170993
0.82469236
0.8179043
0.81137867
0.8051441
0.79922435
0.79363787
0.78839766
0.78351125
0.77898089
0.77480399
0.77097352
0.76747869
0.76430552
0.7614375
0.75885623
0.75654203
0.75447443
0.75263268
0.75099614
0.74954461
0.74825863
0.74711963
0.74611008
0.74521359
0.74441496
0.74370023
0.74305659
0.74247227
0.74193644
0.74143906
0.74097077
0.74052277
0.74008681
0.73965529
0.73922146
0.73877964
0.73832536
0.73785537
0.73736676
0.73685603
0.73631704
0.73573872
0.73510476
0.73439445
0.73358091
0.73264282
0.73159877
0.73044674
0.7290586
0.72757427
0.72608373
0.72303714
0.90230612
1.0299807
0.96003378
0.99061369
0.96496882
0.97110271
0.95928678
0.95706731
0.94938519
0.94420978
0.9374637
0.93108161
0.92421469
0.91720043
0.90995235
0.90249564
0.89487125
0.88708291
0.87917881
0.87118205
0.86313871
0.85508673
0.84707318
0.83914326
0.83134461
0.82372338
0.81632439
0.80918924
0.80235554
0.79585578
0.78971669
0.78395871
0.77859578
0.77363538
0.76907879
0.76492164
0.76115444
0.75776338
0.7547311
0.75203745
0.74966028
0.74757614
0.74576087
0.74419018
0.74284009
0.74168729
0.74070941
0.73988528
0.73919504
0.73862022
0.73814375
0.73775007
0.73742508
0.73715603
0.73693142
0.73674087
0.736575
0.73642526
0.73628377
0.73614318
0.7359966
0.73583764
0.73566054
0.7354605
0.73523377
0.73497779
0.73469069
0.73437027
0.73401204
0.73360743
0.73314353
0.73260079
0.73195005
0.73117182
0.73028156
0.72925449
0.72800738
0.7267469
0.72533517
0.7224933
0.8955937
1.0194685
0.95074565
0.97961074
0.95406861
0.95871348
0.94665172
0.94321956
0.93495116
0.92874513
0.92121197
0.91388709
0.90615401
0.8982458
0.89013741
0.88184603
0.87342899
0.86490387
0.85632896
0.84774268
0.83920137
0.8307553
0.82246023
0.81436905
0.80653384
0.7990026
0.79181869
0.78501928
0.7786346
0.77268727
0.76719213
0.7621563
0.75757955
0.75345499
0.74976988
0.74650652
0.74364322
0.74115535
0.73901617
0.7371977
0.73567144
0.73440902
0.73338263
0.7325655
0.73193213
0.73145849
0.73112225
0.73090274
0.73078104
0.73073991
0.7307638
0.73083883
0.73095262
0.73109412
0.73125355
0.73142231
0.73159278
0.73175812
0.73191211
0.73204899
0.7321633
0.73224996
0.7323043
0.73232234
0.73230106
0.73223854
0.73213373
0.73198551
0.73179094
0.7315443
0.73123593
0.73084711
0.73034965
0.72972833
0.72898603
0.72807373
0.72696993
0.72592623
0.72460605
0.72201331
0.88719413
1.0062486
0.93932241
0.96606532
0.94070475
0.94362131
0.93126414
0.9264893
0.91753002
0.91020605
0.90178515
0.89345012
0.88478076
0.8759379
0.86694304
0.8578198
0.84864004
0.83944088
0.83029235
0.82124976
0.81238004
0.80374419
0.7954038
0.78741477
0.77982772
0.77268547
0.76602239
0.75986352
0.75422441
0.74911131
0.74452172
0.74044523
0.73686466
0.73375727
0.73109594
0.72885032
0.72698804
0.7254757
0.72427964
0.7233667
0.72270477
0.72226314
0.72201289
0.72192699
0.72198046
0.72215041
0.722416
0.7227584
0.72316068
0.7236078
0.72408649
0.72458501
0.72509305
0.72560162
0.72610303
0.72659063
0.72705868
0.72750212
0.72791641
0.72829736
0.72864102
0.7289436
0.72920156
0.72941174
0.72957177
0.72968025
0.72973675
0.72974086
0.72969119
0.72958496
0.72941497
0.72916378
0.72880838
0.72833827
0.72773596
0.72693323
0.72597523
0.72513157
0.72391955
0.72150675
0.87684915
0.99206178
0.92571209
0.94991093
0.92481553
0.92578803
0.91305763
0.90681529
0.89703404
0.88849574
0.8790716
0.86965238
0.85997842
0.85017122
0.84028883
0.83037438
0.82051493
0.81077089
0.80122481
0.7919473
0.78301252
0.77448618
0.76642807
0.75888785
0.7519048
0.74550647
0.73970881
0.73451634
0.72992308
0.7259138
0.72246531
0.71954814
0.71712816
0.71516799
0.71362828
0.71246895
0.71165025
0.71113351
0.7108816
0.7108595
0.7110345
0.71137636
0.71185739
0.71245242
0.71313873
0.71389599
0.71470604
0.71555281
0.7164222
0.71730193
0.71818127
0.71905088
0.71990279
0.72073038
0.72152805
0.7222911
0.72301559
0.72369817
0.72433592
0.7249262
0.72546649
0.72595429
0.72638714
0.72676273
0.72707926
0.72733575
0.727532
0.72766804
0.72774408
0.72775971
0.72770925
0.72757807
0.72735166
0.72702179
0.72654834
0.72585824
0.72505477
0.72437068
0.7232139
0.72102263
0.86485265
0.9753174
0.91006617
0.93124348
0.90641626
0.90518213
0.89192204
0.88404739
0.87326103
0.86338441
0.85282496
0.84224836
0.83152361
0.82076323
0.81005592
0.79947341
0.78911812
0.77907237
0.76942719
0.7602604
0.75164357
0.74363464
0.73627864
0.72960569
0.72363141
0.71835735
0.71377239
0.70985437
0.70657206
0.70388716
0.70175637
0.70013331
0.69897015
0.69821884
0.69783222
0.6977651
0.69797482
0.6984215
0.69906835
0.69988172
0.70083115
0.70188921
0.70303141
0.704236
0.7054838
0.70675794
0.70804369
0.70932832
0.7106009
0.71185203
0.71307361
0.7142589
0.71540246
0.71649982
0.71754732
0.71854206
0.71948176
0.72036468
0.72118942
0.72195474
0.72265947
0.72330231
0.72388183
0.72439656
0.72484529
0.72522729
0.72554226
0.72579055
0.72597371
0.72609262
0.72614254
0.72611377
0.72600105
0.72579394
0.72543546
0.72486827
0.72423101
0.72365184
0.72247401
0.72061285
0.85138398
0.95618776
0.89222333
0.90980672
0.88518887
0.88144835
0.86743718
0.85774692
0.84574912
0.83441554
0.82261622
0.81086129
0.7991213
0.78752497
0.77618668
0.76520805
0.75470133
0.74476007
0.735471
0.72690226
0.71910566
0.71211367
0.7059405
0.70058287
0.69602198
0.69222599
0.68915261
0.68675189
0.68496873
0.6837453
0.68302303
0.68274431
0.68285347
0.68329769
0.68402777
0.68499863
0.68616916
0.68750221
0.68896451
0.69052649
0.69216203
0.69384818
0.69556493
0.69729487
0.69902297
0.7007363
0.70242387
0.70407641
0.70568609
0.7072463
0.70875166
0.71019805
0.71158218
0.71290142
0.71415385
0.71533823
0.71645383
0.7175003
0.71847755
0.7193856
0.72022442
0.72099384
0.7216934
0.72232249
0.72288049
0.72336679
0.72378089
0.72412341
0.72439657
0.72460118
0.72473364
0.72479084
0.72477457
0.72466855
0.72441084
0.72397695
0.72350964
0.72299216
0.7217715
0.72026412
0.83634688
0.93415007
0.87176572
0.88509169
0.86055159
0.85398171
0.83893222
0.82724742
0.81384923
0.80099704
0.7879474
0.77512262
0.76256835
0.75044292
0.73887527
0.72798405
0.71787406
0.70862703
0.7003024
0.69293477
0.68653509
0.68109241
0.67657671
0.67294245
0.67013224
0.66808051
0.66671689
0.66596904
0.66576508
0.66603558
0.66671483
0.66774157
0.66905937
0.67061712
0.67236921
0.67427514
0.67629898
0.67840918
0.68057827
0.6827824
0.68500102
0.6872165
0.6894138
0.69158015
0.6937048
0.69577881
0.69779478
0.69974662
0.70162937
0.70343919
0.70517326
0.70682951
0.70840637
0.7099029
0.71131885
0.7126544
0.71391009
0.71508671
0.71618525
0.71720676
0.7181522
0.71902236
0.71981772
0.72053856
0.72118487
0.72175607
0.7222517
0.72267269
0.72302084
0.7232957
0.72349549
0.72362412
0.72368654
0.72365952
0.72348898
0.7231891
0.72288149
0.7224172
0.72121105
0.72000902
0.81954315
0.90852627
0.84800497
0.85631821
0.83163327
0.82191293
0.80549475
0.79169678
0.77681039
0.76253723
0.74843078
0.73488397
0.72198431
0.7099103
0.69878014
0.6886978
0.67972972
0.67191284
0.66525152
0.65972311
0.65528098
0.65186029
0.64938278
0.64776196
0.64690736
0.64672822
0.64713623
0.64804764
0.64938473
0.65107658
0.65305916
0.65527517
0.65767408
0.66021196
0.66285076
0.66555745
0.66830352
0.67106465
0.67382018
0.67655264
0.67924736
0.68189211
0.68447674
0.68699288
0.68943385
0.69179431
0.69407
0.69625761
0.69835489
0.70036048
0.70227345
0.70409327
0.70582001
0.70745438
0.70899739
0.71045037
0.71181481
0.71309242
0.71428503
0.71539449
0.71642258
0.71737086
0.71824075
0.71903339
0.71974925
0.72038806
0.72094988
0.72143586
0.72184618
0.72217869
0.72243446
0.72262297
0.72274723
0.72277829
0.72268077
0.72250407
0.72233596
0.72194577
0.72084892
0.71983033
0.80046608
0.87811867
0.81974993
0.82228134
0.79716192
0.78408732
0.76603615
0.75023401
0.7339988
0.71870393
0.70407789
0.69050916
0.67808126
0.66695062
0.65718164
0.64881709
0.64184774
0.63623388
0.63190373
0.62876514
0.62671069
0.62562563
0.62539296
0.62589822
0.62703267
0.62869547
0.63079487
0.63324889
0.63598522
0.63894063
0.64206005
0.6452962
0.64860909
0.65196497
0.65533516
0.65869539
0.66202538
0.66530837
0.66853052
0.67168053
0.67474926
0.67772936
0.68061503
0.68340187
0.68608667
0.6886671
0.69114147
0.693509
0.69576979
0.69792423
0.69997273
0.7019162
0.70375632
0.70549499
0.70713417
0.708676
0.71012276
0.71147681
0.71274064
0.71391668
0.71500729
0.71601472
0.71694117
0.71778847
0.71855754
0.71924888
0.71986365
0.72040277
0.72086416
0.72124506
0.72155031
0.72179074
0.72196153
0.72203229
0.72199624
0.72192978
0.72187501
0.72155214
0.72059296
0.71976233
0.77822041
0.84130923
0.78531925
0.7814201
0.75553022
0.73916172
0.71934289
0.70226922
0.68524633
0.66977512
0.65563876
0.6431658
0.63237228
0.62332486
0.61598323
0.61028515
0.60611926
0.6033548
0.60184278
0.60142988
0.60196366
0.60329911
0.60530192
0.6078507
0.61083771
0.61416881
0.61776289
0.62155082
0.62547399
0.62948282
0.63353586
0.63759912
0.64164473
0.6456496
0.64959455
0.65346409
0.65724579
0.66092981
0.66450841
0.66797567
0.67132714
0.67455962
0.67767094
0.68065996
0.68352628
0.68626987
0.68889121
0.69139169
0.69377312
0.69603704
0.69818497
0.70021926
0.70214278
0.70395821
0.70566821
0.70727559
0.70878317
0.71019385
0.7115105
0.71273594
0.71387293
0.7149243
0.7158928
0.71678061
0.71758922
0.71832044
0.71897658
0.71955767
0.72006023
0.72048359
0.7208358
0.72112247
0.72132735
0.72142686
0.72144894
0.7214818
0.72150761
0.72121756
0.72038241
0.71979247
0.75145834
0.79621363
0.74279881
0.73223455
0.70542957
0.68627037
0.66574351
0.64776939
0.63127283
0.61705585
0.60490452
0.59498426
0.58717531
0.581395
0.577465
0.57520127
0.57439311
0.57483425
0.57632375
0.57867703
0.58172755
0.5853294
0.58935668
0.59370254
0.59827726
0.60300639
0.60782872
0.61269406
0.61756127
0.62239699
0.62717483
0.63187405
0.63647794
0.64097309
0.64534911
0.64959821
0.65371461
0.65769422
0.6615343
0.66523327
0.66879042
0.67220579
0.67548011
0.67861477
0.68161144
0.68447187
0.68719832
0.68979382
0.69226132
0.69460317
0.69682194
0.69892105
0.70090417
0.7027746
0.70453556
0.70619032
0.7077421
0.70919411
0.71054947
0.71181122
0.71298243
0.71406631
0.71506583
0.71598329
0.71682098
0.71758215
0.71826944
0.71888184
0.71941694
0.71987858
0.72027525
0.72060257
0.7208366
0.72096916
0.72105439
0.72116505
0.72122043
0.72092731
0.72022958
0.71992066
0.71856903
0.740838
0.6902678
0.67350163
0.64699549
0.62487145
0.60480593
0.58830477
0.57424514
0.56316206
0.55472107
0.54885492
0.54525661
0.54367291
0.54379437
0.54534105
0.54804293
0.55166348
0.55599522
0.56086333
0.56612187
0.57165138
0.57735487
0.58315445
0.5889881
0.59480691
0.60057238
0.60625416
0.61182866
0.61727822
0.62258988
0.62775385
0.6327627
0.63761129
0.64229645
0.64681644
0.65117068
0.65535949
0.65938397
0.6632458
0.66694708
0.67049025
0.67387823
0.67711428
0.68020152
0.68314299
0.68594233
0.68860378
0.69113106
0.69352712
0.6957952
0.69793951
0.69996442
0.70187377
0.70367114
0.70536004
0.70694394
0.70842624
0.70981021
0.71109905
0.7122961
0.71340471
0.71442771
0.71536757
0.71622752
0.71701154
0.71772158
0.71835631
0.71891682
0.71941128
0.71984513
0.72020563
0.72047135
0.72065206
0.7208063
0.72096712
0.72100745
0.72069795
0.7202095
0.72016228
0.67695771
0.67308766
0.62759721
0.60349772
0.57613322
0.55683309
0.53971897
0.52698742
0.5175631
0.51159272
0.5084506
0.50781754
0.50920076
0.51221942
0.51649746
0.52173058
0.52765833
0.53407331
0.54080877
0.54773469
0.5547499
0.56177683
0.56875628
0.57564368
0.58240591
0.58901855
0.5954636
0.6017282
0.60780394
0.6136859
0.61937125
0.62485856
0.63014781
0.63524024
0.64013795
0.64484365
0.6493605
0.65369203
0.65784211
0.66181473
0.66561393
0.6692439
0.67270915
0.67601419
0.67916309
0.68215976
0.6850089
0.68771572
0.69028444
0.69271813
0.69502042
0.69719631
0.69925092
0.70118844
0.70301248
0.70472668
0.70633468
0.70784001
0.70924605
0.7105562
0.71177397
0.71290259
0.71394474
0.71490323
0.71578198
0.71658465
0.71731191
0.71796339
0.71854416
0.71906384
0.71952288
0.71990586
0.72020213
0.7204352
0.72065241
0.72085167
0.72090748
0.72066389
0.72028433
0.72043425
0.61865832
0.59093687
0.54538633
0.52331863
0.50026749
0.48516993
0.47394622
0.46789002
0.46538164
0.46616568
0.46934142
0.47440756
0.48080834
0.48815681
0.49612302
0.50446764
0.51300574
0.52160338
0.53016183
0.53861068
0.54689981
0.5549944
0.5628709
0.57051421
0.57791534
0.58506939
0.5919745
0.59863148
0.60504327
0.61121379
0.61714736
0.62284878
0.62832336
0.6335767
0.63861453
0.64344259
0.64806659
0.65249227
0.65672534
0.66077133
0.66463555
0.66832339
0.67184048
0.67519214
0.67838285
0.68141709
0.68430057
0.6870393
0.68963749
0.6920979
0.69442452
0.69662335
0.69870021
0.70065926
0.70250396
0.70423802
0.70586522
0.70738919
0.70881346
0.71014164
0.71137728
0.71252347
0.71358288
0.71455884
0.71545542
0.71627517
0.717018
0.71768541
0.71828493
0.71882415
0.71929851
0.71969443
0.72001301
0.72028574
0.72054788
0.72077441
0.7208498
0.72068359
0.72045522
0.7206231
0.53538587
0.4907078
0.45440135
0.43574923
0.42071832
0.41469872
0.41307137
0.41615639
0.42204323
0.43013784
0.43954332
0.4497905
0.46045631
0.47128397
0.48208081
0.49272556
0.50313567
0.5132606
0.52306956
0.53254631
0.54168391
0.5504819
0.55894416
0.56707749
0.57489013
0.58239102
0.58958977
0.59649671
0.60312211
0.60947566
0.61556656
0.62140384
0.62699625
0.63235219
0.63747971
0.6423865
0.64707992
0.6515671
0.65585493
0.65994984
0.66385792
0.66758541
0.67113871
0.67452346
0.6777442
0.68080595
0.68371538
0.68647896
0.6891004
0.69158194
0.69392817
0.69614623
0.69824236
0.70022041
0.70208357
0.70383558
0.70548036
0.70702166
0.7084632
0.70980873
0.71106179
0.71222539
0.71330253
0.71429695
0.71521233
0.71605025
0.71681102
0.71749816
0.71811935
0.71867821
0.71916758
0.7195789
0.7199215
0.72022532
0.72051102
0.72074336
0.72082539
0.72071109
0.72060216
0.72092057
0.42284712
0.37531865
0.35270427
0.34616552
0.345877
0.35301565
0.36340028
0.37633682
0.39028023
0.40471576
0.41911278
0.43324948
0.44695942
0.46017299
0.47285222
0.48499047
0.49659412
0.5076793
0.51826633
0.52837776
0.53803654
0.54726532
0.55608603
0.56451945
0.57258476
0.58029968
0.58768109
0.594745
0.60150603
0.60797736
0.61417127
0.62009928
0.62577214
0.6311999
0.63639197
0.64135713
0.6461037
0.65063964
0.65497245
0.65910902
0.66305591
0.66681992
0.67040785
0.67382532
0.67707681
0.68016786
0.68310594
0.68589756
0.68854563
0.69105207
0.69342223
0.69566422
0.69778437
0.69978605
0.70167216
0.70344649
0.70511309
0.70667585
0.70813862
0.7095052
0.7107791
0.71196345
0.71306162
0.71407746
0.71501409
0.71587289
0.71665541
0.71736644
0.71801199
0.71859248
0.71910183
0.71953822
0.71991419
0.72024953
0.72054768
0.72077613
0.72088156
0.72086339
0.7208611
0.72109605
0.25877642
0.2484564
0.25228289
0.26711335
0.28676813
0.30842337
0.3300272
0.35097979
0.37085018
0.38959106
0.40718748
0.42370924
0.43922681
0.45382264
0.46757234
0.48054751
0.49281217
0.50442405
0.51543437
0.52588871
0.53582744
0.54528652
0.55429811
0.56289086
0.57109012
0.57891861
0.58639715
0.59354478
0.60037847
0.60691345
0.61316364
0.61914187
0.62485995
0.63032881
0.63555855
0.64055855
0.64533761
0.64990409
0.65426581
0.65842987
0.66240305
0.66619247
0.66980509
0.67324645
0.67652098
0.67963452
0.68259496
0.68540878
0.68807841
0.69060557
0.69299606
0.69525846
0.69739912
0.6994211
0.70132714
0.70312105
0.70480693
0.70638876
0.70787043
0.70925572
0.7105481
0.7117509
0.71286771
0.71390221
0.71485713
0.71573421
0.71653619
0.71726793
0.71793341
0.71853191
0.71906061
0.7195226
0.71992878
0.72028799
0.72059495
0.72083002
0.72097622
0.72104781
0.72110791
0.72123457
0.10594864
0.13706947
0.1803357
0.21962133
0.25493316
0.28616528
0.31402312
0.33905789
0.36172854
0.38241357
0.40140415
0.41893991
0.43521065
0.45037315
0.46455556
0.47786488
0.49039065
0.50220868
0.51338353
0.52397058
0.53401756
0.543566
0.55265233
0.56130848
0.56956239
0.57743876
0.5849599
0.59214605
0.59901529
0.60558366
0.61186564
0.61787454
0.62362254
0.6291209
0.63437996
0.63940924
0.64421769
0.64881381
0.65320548
0.65739978
0.66140348
0.66522375
0.66886771
0.67234083
0.67564723
0.67879256
0.68178504
0.68463156
0.68733434
0.68989438
0.6923171
0.69461144
0.69678428
0.69883873
0.70077725
0.70260342
0.70432129
0.70593481
0.70744787
0.70886418
0.7101872
0.7114203
0.71256713
0.71363114
0.71461488
0.71552038
0.71635088
0.71711084
0.71780293
0.71842634
0.71898067
0.719471
0.71990533
0.72028563
0.72060455
0.72085449
0.7210391
0.72117187
0.72126206
0.72131013
0.095015833
0.35845981
0.6004415
0.65159923
0.65602652
0.65307586
0.65318505
0.65447215
0.65675231
0.65804795
0.66032619
0.66119004
0.66279636
0.66421749
0.66581506
0.66747552
0.66911735
0.67080388
0.67251474
0.67427474
0.67606509
0.67789905
0.67976546
0.68166907
0.68360082
0.6855608
0.68754189
0.68954171
0.69155436
0.69357638
0.69560281
0.69762994
0.6996535
0.70166986
0.70367522
0.7056661
0.70763901
0.70959058
0.71151745
0.71341632
0.71528394
0.71711706
0.71891244
0.72066689
0.72237719
0.72404014
0.72565255
0.72721125
0.72871313
0.73015511
0.73153404
0.73284702
0.73409075
0.7352625
0.73635829
0.73737593
0.73830963
0.73915917
0.73991462
0.74058246
0.74114322
0.74162172
0.74197437
0.74226903
0.74239972
0.74253081
0.74240955
0.74241045
0.74195261
0.74183043
0.74089074
0.74073906
0.73909489
0.73910092
0.73648025
0.73702579
0.73297692
0.73427191
0.72815482
0.73054366
0.055222361
0.50818972
0.66699661
0.68224621
0.67800565
0.67454574
0.67409961
0.67458303
0.67456507
0.67487881
0.67472522
0.67527992
0.67572478
0.67642955
0.6772436
0.67824233
0.67931366
0.68049996
0.68175258
0.68309645
0.68449854
0.68597188
0.68749682
0.68907698
0.69069917
0.69236313
0.69406
0.69578739
0.69753884
0.69931094
0.70109853
0.70289781
0.70470425
0.70651393
0.70832266
0.71012652
0.71192149
0.71370366
0.71546914
0.71721405
0.71893457
0.72062689
0.72228724
0.72391185
0.72549702
0.72703906
0.72853432
0.72997918
0.7313701
0.73270368
0.73397643
0.7351851
0.73632616
0.73739658
0.73839229
0.73931073
0.74014635
0.74089831
0.7415576
0.74212927
0.7425963
0.74298007
0.74324265
0.7434439
0.74348986
0.74352821
0.74332962
0.74323715
0.74271228
0.74250206
0.74150715
0.74126434
0.73957663
0.73950529
0.73685186
0.7373359
0.73323209
0.73451788
0.72830022
0.73075295
0.17649478
0.60097094
0.68186452
0.68767641
0.67837022
0.68022968
0.68039028
0.68124922
0.68148995
0.68235239
0.68301318
0.68380614
0.6845855
0.68555483
0.68647725
0.68750439
0.68853056
0.68963458
0.69076195
0.69194964
0.69316639
0.69443341
0.69573395
0.69707696
0.69845277
0.69986458
0.70130649
0.70277828
0.70427564
0.70579657
0.70733731
0.70889493
0.71046577
0.71204644
0.71363322
0.71522242
0.71681022
0.71839273
0.719966
0.72152601
0.72306871
0.72459002
0.72608583
0.72755204
0.72898455
0.73037926
0.73173214
0.73303915
0.73429636
0.73549996
0.73664612
0.73773122
0.73875143
0.73970343
0.74058296
0.74138719
0.74211057
0.7427519
0.74330258
0.74376691
0.74412922
0.74440897
0.74457157
0.74467204
0.74462413
0.7445645
0.74428005
0.74409039
0.74349098
0.74319264
0.74213609
0.74180666
0.74007781
0.73991815
0.73721472
0.73764347
0.73348031
0.73475638
0.72843721
0.73095267
0.30208064
0.67302761
0.69728527
0.6954078
0.69052307
0.69199047
0.69148838
0.69270376
0.6928421
0.69383184
0.6942665
0.69507298
0.69566044
0.69647217
0.69720102
0.69804545
0.69886823
0.69976298
0.70066816
0.70162561
0.70260404
0.70362697
0.70467789
0.70576679
0.70688532
0.70803713
0.70921783
0.7104277
0.7116638
0.71292481
0.71420814
0.71551159
0.71683241
0.71816781
0.71951475
0.72086995
0.72223