/*--------------------------------*- C++ -*----------------------------------*\
| =========                 |                                                 |
| \\      /  F ield         | OpenFOAM: The Open Source CFD Toolbox           |
|  \\    /   O peration     | Version:  2206                                  |
|   \\  /    A nd           | Website:  www.openfoam.com                      |
|    \\/     M anipulation  |                                                 |
\*---------------------------------------------------------------------------*/
FoamFile
{
    version     2.0;
    format      ascii;
    arch        "LSB;label=32;scalar=64";
    class       volScalarField;
    location    "668";
    object      nut;
}
// * * * * * * * * * * * * * * * * * * * * * * * * * * * * * * * * * * * * * //

dimensions      [0 2 -1 0 0 0 0];

internalField   nonuniform List<scalar> 
16000
(
3.6242234e-07
1.2593086e-05
1.4550139e-05
1.9774285e-05
1.5498277e-05
2.2396436e-05
1.6975104e-05
2.2869192e-05
1.8618588e-05
2.237831e-05
1.9396364e-05
2.1398564e-05
1.9588774e-05
2.0249293e-05
1.9337673e-05
1.9528741e-05
1.9109077e-05
1.9179949e-05
1.9044917e-05
1.9134001e-05
1.9178915e-05
1.9341647e-05
1.9523379e-05
1.9780685e-05
2.0080498e-05
2.044492e-05
2.0866886e-05
2.1358418e-05
2.1923695e-05
2.2573305e-05
2.3316295e-05
2.4165413e-05
2.5136814e-05
2.6249836e-05
2.7528127e-05
2.8999782e-05
3.0698472e-05
3.2664392e-05
3.4945982e-05
3.7602454e-05
4.0705546e-05
4.4337913e-05
4.8600651e-05
5.361591e-05
5.953321e-05
6.6530458e-05
7.4825183e-05
8.4680685e-05
9.6416315e-05
0.00011042197
0.00012717066
0.00014724044
0.00017133445
0.00020031029
0.00023521422
0.0002773228
0.00032819521
0.00038973933
0.00046429715
0.00055475581
0.00066469124
0.00079855292
0.00096188832
0.0010107705
0.001011305
0.0010117443
0.0010121417
0.0010124952
0.0010128057
0.0010130685
0.0010132917
0.0010134565
0.0010135904
0.0010136147
0.0010136112
0.0010133218
0.0010130343
0.0010118924
0.0010100291
0.001007301
3.2404304e-07
1.1557212e-05
1.3054681e-05
1.7744199e-05
1.3885636e-05
1.9811723e-05
1.5107198e-05
2.0267094e-05
1.6639632e-05
2.0135303e-05
1.745282e-05
1.9357787e-05
1.7707912e-05
1.8322439e-05
1.748124e-05
1.7642604e-05
1.725105e-05
1.729757e-05
1.716615e-05
1.7231469e-05
1.7264429e-05
1.7401081e-05
1.7560918e-05
1.7788744e-05
1.805889e-05
1.8388279e-05
1.8772191e-05
1.9220047e-05
1.9736223e-05
2.0329728e-05
2.1008703e-05
2.1783911e-05
2.266978e-05
2.368334e-05
2.4845976e-05
2.6183329e-05
2.7726392e-05
2.9512145e-05
3.1585209e-05
3.4000554e-05
3.6825793e-05
4.0137893e-05
4.403146e-05
4.8620548e-05
5.404608e-05
6.0475036e-05
6.8112581e-05
7.7207457e-05
8.8061609e-05
0.00010104497
0.00011660663
0.00013529711
0.00015778733
0.00018489755
0.00021763128
0.00025721628
0.00030515592
0.00036329357
0.00043389562
0.00051975775
0.00062434442
0.00075196786
0.00090800279
0.0010102637
0.0010107848
0.0010112005
0.0010115748
0.0010119065
0.001012195
0.0010124388
0.0010126401
0.0010127928
0.0010129029
0.0010129326
0.0010128949
0.0010126513
0.0010122897
0.0010113117
0.0010099645
0.0010067881
2.914646e-07
1.0684488e-05
1.1787798e-05
1.6248578e-05
1.2587957e-05
1.7810136e-05
1.3655442e-05
1.8175555e-05
1.5113606e-05
1.8204402e-05
1.5907828e-05
1.7543647e-05
1.6129025e-05
1.6585874e-05
1.5859197e-05
1.5931011e-05
1.5586886e-05
1.5579811e-05
1.5458868e-05
1.5486512e-05
1.5508207e-05
1.5610695e-05
1.5744937e-05
1.5935343e-05
1.616791e-05
1.6451618e-05
1.6785411e-05
1.7175516e-05
1.7627081e-05
1.8147856e-05
1.8745804e-05
1.9430429e-05
2.0215334e-05
2.1116229e-05
2.2153145e-05
2.3349858e-05
2.4735036e-05
2.6342899e-05
2.8214754e-05
3.0401565e-05
3.2967384e-05
3.5984303e-05
3.9541458e-05
4.3745841e-05
4.8731248e-05
5.4655402e-05
6.1713182e-05
7.0141454e-05
8.0227764e-05
9.2325838e-05
0.00010686519
0.00012437411
0.00014549751
0.00017102567
0.00020192771
0.00023939224
0.00028487791
0.00034017713
0.00040749725
0.00048956432
0.00058975863
0.00071228735
0.0008623958
0.001009902
0.0010103973
0.0010107758
0.0010111143
0.0010114119
0.0010116676
0.0010118809
0.0010120519
0.0010121791
0.0010122612
0.0010122775
0.0010122112
0.0010119827
0.0010115688
0.0010106824
0.0010094676
0.0010061726
2.6400455e-07
9.950204e-06
1.3041172e-05
1.4708579e-05
1.1403159e-05
1.6015524e-05
1.2334065e-05
1.634304e-05
1.372256e-05
1.6482923e-05
1.4481189e-05
1.5886765e-05
1.4662168e-05
1.4993697e-05
1.4370359e-05
1.4378054e-05
1.4083619e-05
1.4041749e-05
1.3935977e-05
1.3937747e-05
1.3950744e-05
1.4024127e-05
1.4132032e-05
1.4284909e-05
1.4476748e-05
1.4711941e-05
1.4991831e-05
1.5321162e-05
1.5705634e-05
1.6152628e-05
1.667017e-05
1.7267095e-05
1.7956618e-05
1.8753566e-05
1.9676943e-05
2.0749054e-05
2.1996844e-05
2.3452555e-05
2.5154851e-05
2.7151059e-05
2.9502426e-05
3.2276987e-05
3.5559572e-05
3.9451413e-05
4.408107e-05
4.9599039e-05
5.6192247e-05
6.4088614e-05
7.3564573e-05
8.496195e-05
9.8695526e-05
0.00011527749
0.00013533397
0.00015963382
0.00018912179
0.00022495925
0.00026857402
0.00032172427
0.00038657805
0.00046581565
0.00056276152
0.00068155411
0.00082735806
0.0010066295
0.0010101007
0.001010431
0.0010107233
0.0010109768
0.0010111905
0.0010113638
0.0010114966
0.0010115887
0.0010116376
0.0010116283
0.0010115349
0.0010113023
0.00101085
0.001010017
0.0010087224
0.001005607
2.3988595e-07
9.5091443e-06
1.405164e-05
1.3667925e-05
1.0366478e-05
1.440069e-05
1.1142823e-05
1.469618e-05
1.2428556e-05
1.4866285e-05
1.3163726e-05
1.4296899e-05
1.3310231e-05
1.3511374e-05
1.301191e-05
1.2956132e-05
1.2712397e-05
1.263374e-05
1.2534953e-05
1.2505311e-05
1.2499624e-05
1.2537396e-05
1.2611173e-05
1.2722054e-05
1.2869742e-05
1.3056164e-05
1.3284151e-05
1.355775e-05
1.388279e-05
1.4266364e-05
1.471634e-05
1.5240785e-05
1.5852279e-05
1.6564592e-05
1.7395596e-05
1.8366334e-05
1.9502411e-05
2.0834476e-05
2.2399068e-05
2.4240408e-05
2.6417745e-05
2.8995658e-05
3.2055609e-05
3.5693992e-05
4.0035466e-05
4.5224766e-05
5.144252e-05
5.8909711e-05
6.7893833e-05
7.8727659e-05
9.181425e-05
0.00010765323
0.00012685569
0.00015017323
0.00017853064
0.00021306686
0.00025518471
0.00030661439
0.00036949253
0.00044646307
0.0005408065
0.00065660652
0.00079896163
0.00097424788
0.0010099043
0.0010101754
0.0010104112
0.0010106109
0.0010107734
0.0010108978
0.0010109839
0.0010110322
0.0010110404
0.0010109959
0.0010108723
0.0010106216
0.0010101396
0.0010093417
0.0010079866
0.0010050793
2.1856773e-07
9.2491236e-06
1.3881247e-05
1.3498931e-05
1.1802564e-05
1.2968829e-05
1.1108113e-05
1.3459056e-05
1.241301e-05
1.6946533e-05
1.2113416e-05
1.2869936e-05
1.2113446e-05
1.2152121e-05
1.1741837e-05
1.1609481e-05
1.1387953e-05
1.126601e-05
1.1158594e-05
1.1096407e-05
1.1068238e-05
1.1074961e-05
1.1119643e-05
1.119838e-05
1.1313332e-05
1.146531e-05
1.1657354e-05
1.1893098e-05
1.2177922e-05
1.251861e-05
1.2922726e-05
1.339758e-05
1.395512e-05
1.4608199e-05
1.537377e-05
1.6271868e-05
1.732701e-05
1.8568629e-05
2.0031922e-05
2.1758749e-05
2.3807338e-05
2.6239866e-05
2.9135973e-05
3.2588271e-05
3.6719304e-05
4.1670009e-05
4.7617086e-05
5.4777649e-05
6.3413463e-05
7.3852465e-05
8.6490541e-05
0.00010182025
0.00012044406
0.00014310381
0.00017071352
0.00020440039
0.00024555478
0.00029589349
0.00035753908
0.0004331196
0.00052589625
0.0006399276
0.00078028014
0.00095329028
0.0010097882
0.0010099912
0.0010101619
0.0010102995
0.0010104028
0.0010104708
0.001010503
0.0010105001
0.0010104607
0.0010103736
0.0010102156
0.0010099372
0.0010094312
0.0010086552
0.0010072595
0.0010045892
1.9971729e-07
9.0832453e-06
1.3398848e-05
1.2561089e-05
1.1008345e-05
1.1557297e-05
1.0218033e-05
1.3149284e-05
1.0553423e-05
1.6499538e-05
1.0473524e-05
1.1475922e-05
1.0845589e-05
1.0758823e-05
1.0403039e-05
1.0221049e-05
1.0018146e-05
9.8755545e-06
9.7695292e-06
9.6955302e-06
9.6607019e-06
9.6561592e-06
9.6895755e-06
9.6788381e-06
9.7720567e-06
9.902412e-06
1.0072109e-05
1.0284282e-05
1.0543507e-05
1.0856144e-05
1.1229453e-05
1.1670083e-05
1.2189517e-05
1.279988e-05
1.3517421e-05
1.4361343e-05
1.5355254e-05
1.6527672e-05
1.7913009e-05
1.9708309e-05
2.1667757e-05
2.3999889e-05
2.6783866e-05
3.0109498e-05
3.409894e-05
3.889091e-05
4.4660231e-05
5.1622882e-05
6.0037549e-05
7.0230922e-05
8.2595344e-05
9.7621056e-05
0.00011590745
0.00013819314
0.00016538912
0.00019861964
0.00023927263
0.00028906315
0.00035011339
0.00042505199
0.00051714085
0.00063043733
0.00077000207
0.00094215983
0.0010097437
0.0010098708
0.0010099689
0.0010100374
0.0010100749
0.0010100799
0.0010100517
0.0010099914
0.0010098978
0.0010097618
0.0010095643
0.001009251
0.0010087246
0.0010079599
0.0010065437
0.0010041141
1.8303976e-07
8.964444e-06
1.1825201e-05
1.1053916e-05
8.1222541e-06
1.0238598e-05
8.0878041e-06
1.0627817e-05
9.3632423e-06
1.0582457e-05
9.8962325e-06
1.0018905e-05
9.5151112e-06
9.3561584e-06
9.068556e-06
8.8740124e-06
8.7039221e-06
8.5658544e-06
8.405967e-06
8.3215749e-06
8.2816588e-06
8.2721219e-06
8.3007823e-06
8.3592302e-06
8.4532911e-06
8.5818534e-06
8.7469402e-06
8.9520435e-06
9.2015392e-06
9.5018872e-06
9.860555e-06
1.0283959e-05
1.0783551e-05
1.1371135e-05
1.2062721e-05
1.2877117e-05
1.3837569e-05
1.4972289e-05
1.6315698e-05
1.7909543e-05
1.9804772e-05
2.2064848e-05
2.4769521e-05
2.8249273e-05
3.2165959e-05
3.6880031e-05
4.2566527e-05
4.9443383e-05
5.7769011e-05
6.7873198e-05
8.0149062e-05
9.5090369e-05
0.00011330042
0.00013552267
0.00016267431
0.00019588762
0.00023656087
0.0002864228
0.00034761354
0.00042278455
0.00051522509
0.00062902328
0.00076927128
0.00094232352
0.0010097529
0.0010097983
0.0010098185
0.0010098125
0.0010097789
0.0010097158
0.0010096222
0.0010094991
0.0010093457
0.001009156
0.0010089139
0.001008561
0.0010080171
0.0010072554
0.0010058365
0.0010036425
1.6830252e-07
8.8566177e-06
8.6162111e-06
9.489303e-06
7.0566718e-06
9.2985451e-06
7.6834519e-06
9.4899572e-06
8.4298897e-06
9.3175395e-06
8.6439057e-06
8.7098059e-06
8.3315977e-06
8.1221545e-06
7.8936571e-06
7.6293282e-06
7.4600133e-06
7.3163226e-06
7.2274108e-06
7.1629053e-06
7.1383086e-06
7.1402377e-06
7.1766283e-06
7.2403143e-06
7.3368849e-06
7.4662955e-06
7.6304649e-06
7.8333327e-06
8.0791827e-06
8.3745807e-06
8.7272827e-06
9.143516e-06
9.6348172e-06
1.0212778e-05
1.089334e-05
1.1695189e-05
1.2641525e-05
1.3760582e-05
1.5086938e-05
1.6662656e-05
1.853896e-05
2.0779526e-05
2.3466652e-05
2.6691998e-05
3.0572545e-05
3.525265e-05
4.1274687e-05
4.8172681e-05
5.6535616e-05
6.670114e-05
7.9067503e-05
9.4137943e-05
0.00011252634
0.00013498876
0.00016245779
0.00019608488
0.00023729212
0.00028783789
0.00034989958
0.00042617465
0.00052000769
0.00063555122
0.00077796828
0.00095368663
0.0010097999
0.0010097599
0.0010096982
0.001009614
0.0010095056
0.0010093707
0.001009208
0.0010090179
0.0010088004
0.0010085528
0.0010082611
0.001007866
0.0010073072
0.0010065414
0.0010051368
0.0010031641
1.5566185e-07
8.7555653e-06
6.7308869e-06
8.6294305e-06
6.3925328e-06
8.4378342e-06
6.9033628e-06
8.4183919e-06
7.609027e-06
8.1754866e-06
7.7075672e-06
7.6069111e-06
7.3106062e-06
6.9859321e-06
6.7599887e-06
6.5520952e-06
6.417894e-06
6.298508e-06
6.2292637e-06
6.1809398e-06
6.1680946e-06
6.1799572e-06
6.2237237e-06
6.2937515e-06
6.3952565e-06
6.529171e-06
6.6972379e-06
6.9037759e-06
7.1529061e-06
7.4512119e-06
7.8068029e-06
8.2257089e-06
8.7196952e-06
9.30029e-06
9.9835998e-06
1.0788482e-05
1.1738477e-05
1.2862294e-05
1.4195246e-05
1.578043e-05
1.7670207e-05
1.9929086e-05
2.2643056e-05
2.5905797e-05
2.9837505e-05
3.4586847e-05
4.0340696e-05
4.7318065e-05
5.6302918e-05
6.6684499e-05
7.9326419e-05
9.4747764e-05
0.00011358008
0.00013660087
0.00016476883
0.00019926764
0.00024155887
0.00029344902
0.00035717491
0.00043550687
0.00053187788
0.00065054509
0.00079679074
0.00097717247
0.0010098663
0.0010097389
0.0010095935
0.0010094291
0.0010092437
0.0010090348
0.0010088006
0.0010085407
0.0010082557
0.0010079469
0.0010076013
0.0010071633
0.0010065912
0.0010058147
0.001004443
0.0010026635
1.447731e-07
8.6358579e-06
5.6000758e-06
7.8043608e-06
5.8031623e-06
7.5715638e-06
6.3240291e-06
7.511546e-06
6.8850113e-06
7.1903443e-06
6.8276095e-06
6.5488759e-06
6.2530826e-06
5.9777096e-06
5.799433e-06
5.6205869e-06
5.5123622e-06
5.4155477e-06
5.3632977e-06
5.3314226e-06
5.3316284e-06
5.3561377e-06
5.4110554e-06
5.4920319e-06
5.6037753e-06
5.7479888e-06
5.9262135e-06
6.1430719e-06
6.4025712e-06
6.7113072e-06
7.0306613e-06
7.4552069e-06
7.9555058e-06
8.5430428e-06
9.2342058e-06
1.0048161e-05
1.1008981e-05
1.2146116e-05
1.3495956e-05
1.5103089e-05
1.7021669e-05
1.9476013e-05
2.2260386e-05
2.5612571e-05
2.9657623e-05
3.4549525e-05
4.0485166e-05
4.7692818e-05
5.6457627e-05
6.7134681e-05
8.0888709e-05
9.6885689e-05
0.00011643237
0.00014033747
0.00016959764
0.00020544278
0.00024939053
0.00030331538
0.00036953784
0.00045093134
0.00055105451
0.00067431529
0.00082617166
0.0010101343
0.0010099347
0.0010097198
0.0010094902
0.001009245
0.0010089821
0.0010086985
0.0010083917
0.0010080604
0.001007706
0.0010073329
0.0010069294
0.0010064493
0.001005864
0.0010050696
0.0010037571
0.0010021145
1.3525487e-07
8.4126591e-06
4.9877263e-06
7.0510024e-06
5.2817166e-06
6.8019234e-06
5.778502e-06
6.6644836e-06
6.1947723e-06
6.280296e-06
5.861369e-06
5.5552556e-06
5.3287977e-06
5.0852818e-06
4.9438142e-06
4.7972345e-06
4.7138201e-06
4.6425613e-06
4.6102661e-06
4.5987859e-06
4.616478e-06
4.6581778e-06
4.7290214e-06
4.8256746e-06
4.9524695e-06
5.0785774e-06
5.2664287e-06
5.4937527e-06
5.7643435e-06
6.0846195e-06
6.4618641e-06
6.9053839e-06
7.4262941e-06
8.0364044e-06
8.7528845e-06
9.595717e-06
1.0590107e-05
1.1766928e-05
1.3164443e-05
1.482973e-05
1.6820131e-05
1.9207047e-05
2.2080471e-05
2.5545609e-05
2.9733737e-05
3.5112534e-05
4.1320327e-05
4.8866656e-05
5.8051001e-05
6.9249741e-05
8.2916363e-05
0.00010055043
0.00012109451
0.00014622723
0.00017699561
0.00021469088
0.00026090527
0.00031760377
0.00038721858
0.00047276107
0.0005779591
0.00070742562
0.00086686166
0.0010102763
0.0010099878
0.001009687
0.0010093744
0.0010090493
0.0010087095
0.0010083517
0.0010079725
0.0010075695
0.0010071449
0.0010067049
0.0010062402
0.0010057194
0.0010051197
0.0010042996
0.0010030904
0.0010014653
1.2706638e-07
8.1004799e-06
4.5240818e-06
6.3503399e-06
4.7970773e-06
6.0852528e-06
5.2559145e-06
5.8653186e-06
5.4446477e-06
5.2487063e-06
4.9670768e-06
4.678107e-06
4.5062113e-06
4.3041508e-06
4.1970099e-06
4.0860084e-06
4.0288718e-06
3.9852681e-06
3.9751704e-06
3.9860117e-06
4.0234021e-06
4.0842875e-06
4.1438859e-06
4.2528574e-06
4.3925368e-06
4.5642261e-06
4.7717606e-06
5.0191777e-06
5.3104868e-06
5.6524942e-06
6.0528269e-06
6.521292e-06
7.0699365e-06
7.7110068e-06
8.4627486e-06
9.3462516e-06
1.0388257e-05
1.1621522e-05
1.3086753e-05
1.4834221e-05
1.6924884e-05
1.9434299e-05
2.2459647e-05
2.6112747e-05
3.0533922e-05
3.5896386e-05
4.2415727e-05
5.0351565e-05
6.0553962e-05
7.243506e-05
8.6944029e-05
0.00010467536
0.00012757354
0.00015429093
0.00018700131
0.00022707421
0.00027619764
0.00033645262
0.00041041466
0.00050127244
0.00061297239
0.00075039495
0.00091956145
0.0010103843
0.0010100103
0.0010096265
0.0010092333
0.0010088303
0.0010084153
0.001007985
0.0010075348
0.0010070611
0.0010065665
0.0010060571
0.0010055279
0.0010049676
0.0010043521
0.0010034918
0.0010024691
0.0010007233
1.204078e-07
6.1784902e-06
4.1190234e-06
5.6979343e-06
4.3417372e-06
5.4092555e-06
4.7536704e-06
5.045545e-06
4.6396907e-06
4.3911462e-06
4.1915253e-06
3.9358275e-06
3.8085197e-06
3.6486779e-06
3.5717389e-06
3.493999e-06
3.461204e-06
3.4433214e-06
3.4544748e-06
3.463629e-06
3.5135935e-06
3.5886735e-06
3.691258e-06
3.8214729e-06
3.9821854e-06
4.1751245e-06
4.4044126e-06
4.6746451e-06
4.9900374e-06
5.3578495e-06
5.7861129e-06
6.2851925e-06
6.829111e-06
7.5022029e-06
8.2908579e-06
9.21733e-06
1.0310088e-05
1.1603965e-05
1.3142379e-05
1.4979309e-05
1.7179892e-05
1.9980151e-05
2.319897e-05
2.7090399e-05
3.180511e-05
3.7528448e-05
4.4493638e-05
5.298076e-05
6.333187e-05
7.6672555e-05
9.2223561e-05
0.00011123739
0.00013449799
0.00016454
0.00019964246
0.0002426444
0.00029535377
0.00035999573
0.00043932396
0.00053674848
0.00065649075
0.00080377158
0.00098502706
0.0010104445
0.0010099894
0.0010095264
0.0010090559
0.0010085778
0.0010080903
0.0010075898
0.0010070709
0.001006529
0.0010059655
0.0010053843
0.0010047868
0.0010041865
0.001003559
0.0010027314
0.0010019301
0.0010004823
1.1490037e-07
4.6440005e-06
3.75371e-06
5.0726304e-06
3.9367941e-06
4.7824386e-06
4.2999254e-06
4.2183219e-06
3.9502603e-06
3.681554e-06
3.540379e-06
3.3228498e-06
3.2288586e-06
3.1068747e-06
3.0548251e-06
3.0061399e-06
2.995116e-06
2.9787955e-06
3.0026738e-06
3.0495337e-06
3.1225861e-06
3.2201977e-06
3.3447663e-06
3.4970341e-06
3.6801985e-06
3.8963026e-06
4.1497186e-06
4.425261e-06
4.7637328e-06
5.1566282e-06
5.6122847e-06
6.1414498e-06
6.7571947e-06
7.4756858e-06
8.3167084e-06
9.3041035e-06
1.0468714e-05
1.1848134e-05
1.3489247e-05
1.5450943e-05
1.7804048e-05
2.0637145e-05
2.4059309e-05
2.8202902e-05
3.3230265e-05
3.9674334e-05
4.7172807e-05
5.6317675e-05
6.7479471e-05
8.1117196e-05
9.8713398e-05
0.00011925173
0.00014438652
0.00017515949
0.00021488789
0.00026138492
0.00031838006
0.00038827303
0.00047403375
0.00057934222
0.00070875883
0.00086792916
0.0010109691
0.0010104462
0.0010099153
0.0010093776
0.0010088338
0.0010082839
0.0010077268
0.0010071591
0.0010065746
0.0010059682
0.001005338
0.0010046834
0.0010040127
0.0010033663
0.0010027883
0.001002118
0.0010015528
0.0010005296
1.0889718e-07
4.2540513e-06
3.3498123e-06
4.4877064e-06
3.5776472e-06
4.2173516e-06
3.6768088e-06
3.5268845e-06
3.3524445e-06
3.0894906e-06
2.9878137e-06
2.8101913e-06
2.7421595e-06
2.6544634e-06
2.6246524e-06
2.5849431e-06
2.5857126e-06
2.6072818e-06
2.6559838e-06
2.727143e-06
2.8233584e-06
2.9440284e-06
3.0916481e-06
3.2673644e-06
3.460791e-06
3.6986133e-06
3.9749354e-06
4.2945949e-06
4.6636424e-06
5.0896281e-06
5.581466e-06
6.1507674e-06
6.8116543e-06
7.5816886e-06
8.4825682e-06
9.5398669e-06
1.0787253e-05
1.226552e-05
1.4025342e-05
1.613142e-05
1.8660419e-05
2.1708701e-05
2.5395603e-05
2.9865269e-05
3.5294909e-05
4.1902161e-05
5.0401005e-05
6.030432e-05
7.2398897e-05
8.7188145e-05
0.00010527639
0.00012862446
0.00015592233
0.00018935865
0.00023032222
0.0002831732
0.00034515402
0.0004211692
0.00051444651
0.00062898942
0.00076976619
0.00094293805
0.0010109761
0.0010103826
0.0010097817
0.0010091743
0.0010085612
0.0010079432
0.0010073197
0.0010066876
0.0010060415
0.0010053751
0.001004682
0.001003955
0.0010032057
0.0010026313
0.0010021633
0.0010016272
0.0010012743
0.0010005612
1.0366137e-07
3.9241807e-06
2.9866766e-06
3.9525639e-06
3.2484977e-06
3.5421846e-06
3.1533643e-06
2.9368178e-06
2.82445e-06
2.5864293e-06
2.5134642e-06
2.3762943e-06
2.3312192e-06
2.2757458e-06
2.2458852e-06
2.2413658e-06
2.2691856e-06
2.3175985e-06
2.3909203e-06
2.4864525e-06
2.6064665e-06
2.7510407e-06
2.9116957e-06
3.1093164e-06
3.3390279e-06
3.6042356e-06
3.9092424e-06
4.2593167e-06
4.660967e-06
5.1224511e-06
5.6532825e-06
6.2660436e-06
6.9760209e-06
7.802304e-06
8.7252852e-06
9.8500156e-06
1.1177681e-05
1.2752457e-05
1.4722381e-05
1.6989511e-05
1.9714879e-05
2.3003189e-05
2.6985642e-05
3.1819302e-05
3.7697315e-05
4.4857768e-05
5.3592626e-05
6.4259712e-05
7.798539e-05
9.4060585e-05
0.00011373528
0.00013782537
0.00016891546
0.00020534602
0.00025000028
0.00030771569
0.00037534393
0.00045831648
0.00056016284
0.00068526704
0.00083907696
0.0010115586
0.0010109087
0.001010251
0.001009586
0.0010089141
0.0010082363
0.0010075536
0.0010068663
0.0010061726
0.0010054685
0.0010047473
0.0010039975
0.0010032051
0.0010025257
0.0010020551
0.0010016695
0.001001233
0.0010010207
0.0010005685
9.9077407e-08
3.6025212e-06
2.6482867e-06
3.4459956e-06
2.9435655e-06
2.9141054e-06
2.6810726e-06
2.4310467e-06
2.3587265e-06
2.1583269e-06
2.108522e-06
2.0110897e-06
1.9770423e-06
1.9401045e-06
1.9478517e-06
1.9739276e-06
2.0280154e-06
2.1025255e-06
2.200471e-06
2.3204706e-06
2.4565532e-06
2.6232235e-06
2.8173214e-06
3.0411252e-06
3.2977359e-06
3.5909262e-06
3.9253668e-06
4.3067678e-06
4.7420746e-06
5.2240636e-06
5.7909973e-06
6.4438313e-06
7.1989355e-06
8.0766799e-06
9.1023934e-06
1.0307599e-05
1.1731454e-05
1.3422485e-05
1.5440814e-05
1.7860733e-05
2.077379e-05
2.4471669e-05
2.8773301e-05
3.4000562e-05
4.03634e-05
4.8121381e-05
5.7592918e-05
6.9168722e-05
8.4094528e-05
0.00010156484
0.00012296245
0.0001491791
0.00018307294
0.00022277442
0.00027147304
0.00033122214
0.00040837249
0.0004990472
0.00061041759
0.00074730713
0.00091571648
0.0010114752
0.0010107679
0.0010100529
0.0010093298
0.0010085989
0.0010078609
0.0010071169
0.001006368
0.0010056143
0.0010048546
0.0010040828
0.0010032841
0.0010025493
0.0010019975
0.0010016161
0.0010012899
0.0010009487
0.0010008468
0.0010006678
9.5282992e-08
3.2703803e-06
2.3364791e-06
2.9689817e-06
2.502249e-06
2.3789272e-06
2.250432e-06
2.0001788e-06
1.9539085e-06
1.7978525e-06
1.7692225e-06
1.6987394e-06
1.6862225e-06
1.6860089e-06
1.7219997e-06
1.7766681e-06
1.8562471e-06
1.9559705e-06
2.0730139e-06
2.2150586e-06
2.3812995e-06
2.5729779e-06
2.7922978e-06
3.0418772e-06
3.3250905e-06
3.6460369e-06
4.0097463e-06
4.412016e-06
4.87771e-06
5.4084912e-06
6.015828e-06
6.7139758e-06
7.5206912e-06
8.4580621e-06
9.5536238e-06
1.084173e-05
1.2365069e-05
1.4176416e-05
1.6341181e-05
1.8940228e-05
2.2073391e-05
2.5863839e-05
3.0693993e-05
3.6334125e-05
4.3205756e-05
5.1591068e-05
6.1836666e-05
7.4368634e-05
8.9711219e-05
0.00010948497
0.0001326977
0.00016116058
0.00019607946
0.00024117535
0.00029417341
0.00035925483
0.00044341399
0.00054237977
0.00066405047
0.00081374533
0.0009980865
0.0010113169
0.0010105594
0.0010097935
0.0010090186
0.0010082343
0.0010074409
0.0010066391
0.0010058303
0.0010050168
0.0010042016
0.0010033801
0.00100263
0.0010020329
0.001001596
0.0010012889
0.0010010033
0.0010007388
0.0010007224
0.001000749
9.2479218e-08
2.9192245e-06
2.0506014e-06
2.5232633e-06
2.1132664e-06
1.9252455e-06
1.8603264e-06
1.6374033e-06
1.6115008e-06
1.5013237e-06
1.4853293e-06
1.4490919e-06
1.4670821e-06
1.4997055e-06
1.5623231e-06
1.6434508e-06
1.7471623e-06
1.8666181e-06
2.0101451e-06
2.1759754e-06
2.3657257e-06
2.5810636e-06
2.8244179e-06
3.098673e-06
3.407436e-06
3.7550915e-06
4.1394341e-06
4.5794581e-06
5.077701e-06
5.6440184e-06
6.290798e-06
7.0334381e-06
7.8910853e-06
8.8875971e-06
1.0052846e-05
1.1424145e-05
1.3047845e-05
1.4981038e-05
1.7294535e-05
2.0075753e-05
2.3432519e-05
2.770082e-05
3.2680532e-05
3.8741215e-05
4.6131243e-05
5.5156217e-05
6.6191732e-05
7.9698397e-05
9.7135742e-05
0.00011757591
0.00014264463
0.00017340832
0.00021117888
0.00025999372
0.00031742238
0.00038802082
0.00047943007
0.0005870502
0.00071953168
0.00088274645
0.0010118868
0.0010110931
0.0010102918
0.0010094816
0.0010086611
0.0010078295
0.0010069863
0.001006131
0.0010052645
0.0010043903
0.0010035158
0.0010027338
0.0010021119
0.0010016333
0.0010012952
0.0010010483
0.0010007983
0.0010006004
0.0010006371
0.0010007295
9.1052647e-08
2.5476129e-06
1.7934876e-06
2.0573071e-06
1.7745497e-06
1.5496568e-06
1.5190766e-06
1.3393748e-06
1.3310208e-06
1.2658392e-06
1.2626761e-06
1.2666617e-06
1.3127675e-06
1.3744288e-06
1.4614118e-06
1.566304e-06
1.6894211e-06
1.8333562e-06
1.9986203e-06
2.1859811e-06
2.3972649e-06
2.6344553e-06
2.9001553e-06
3.1974475e-06
3.5301257e-06
3.8981555e-06
4.3146053e-06
4.7831126e-06
5.3121569e-06
5.9122751e-06
6.5967891e-06
7.3821818e-06
8.2889897e-06
9.3429599e-06
1.0576343e-05
1.2029313e-05
1.3752028e-05
1.5805852e-05
1.8267015e-05
2.1229476e-05
2.4976325e-05
2.935162e-05
3.4669391e-05
4.1146509e-05
4.9050093e-05
5.8709476e-05
7.0528463e-05
8.5000888e-05
0.00010366509
0.00012558913
0.00015249976
0.00018554504
0.00022614405
0.00027862229
0.00034046513
0.00041657905
0.00051522244
0.00063156639
0.00077501214
0.00095203158
0.0010116468
0.001010816
0.0010099771
0.0010091286
0.0010082689
0.0010073966
0.0010065102
0.0010056079
0.0010046888
0.0010037534
0.001002901
0.0010022305
0.0010017095
0.0010013289
0.001001072
0.0010008737
0.0010006609
0.0010005277
0.0010005979
0.001000708
9.1640112e-08
2.1664802e-06
1.5682874e-06
1.5977947e-06
1.4749482e-06
1.2406312e-06
1.2828649e-06
1.1100679e-06
1.1098286e-06
1.0777032e-06
1.1059208e-06
1.1437288e-06
1.214947e-06
1.301469e-06
1.4096719e-06
1.5350606e-06
1.6780253e-06
1.8414462e-06
2.0257911e-06
2.2323144e-06
2.4629966e-06
2.7200325e-06
3.0061461e-06
3.3245634e-06
3.6792164e-06
4.0748902e-06
4.5174752e-06
5.014308e-06
5.5655919e-06
6.1974674e-06
6.9175401e-06
7.7433508e-06
8.6969647e-06
9.8060919e-06
1.1105172e-05
1.2692613e-05
1.4524647e-05
1.671148e-05
1.9335054e-05
2.2496484e-05
2.6320459e-05
3.0960297e-05
3.6603697e-05
4.3481738e-05
5.1879914e-05
6.2149858e-05
7.4721452e-05
9.0910357e-05
0.00010993231
0.00013328036
0.00016195581
0.00019718221
0.00024276133
0.00029643114
0.00036250702
0.00044392369
0.0005494887
0.00067428312
0.00082842132
0.0010122181
0.0010113623
0.0010105
0.0010096294
0.0010087484
0.0010078556
0.001006949
0.0010060268
0.001005087
0.0010041285
0.0010031835
0.0010024356
0.0010018479
0.0010014041
0.0010010998
0.0010009028
0.0010007388
0.0010005636
0.0010004973
0.0010005955
0.0010007046
9.5323344e-08
1.7878172e-06
1.3770979e-06
1.2438999e-06
1.2091397e-06
1.0095001e-06
1.0280291e-06
9.2277097e-07
9.4981212e-07
9.5014485e-07
1.005263e-06
1.0708942e-06
1.1630291e-06
1.2698565e-06
1.3956418e-06
1.5381614e-06
1.6984017e-06
1.8784807e-06
2.079475e-06
2.3029378e-06
2.5509343e-06
2.825784e-06
3.1302961e-06
3.4678102e-06
3.8423798e-06
4.2589469e-06
4.723648e-06
5.2442022e-06
5.8302776e-06
6.4938751e-06
7.2499395e-06
8.117355e-06
9.1199442e-06
1.0287407e-05
1.165656e-05
1.3273145e-05
1.519393e-05
1.7489136e-05
2.0245433e-05
2.3569794e-05
2.7594225e-05
3.248121e-05
3.842848e-05
4.5680509e-05
5.4539712e-05
6.5919536e-05
7.9284591e-05
9.5654219e-05
0.00011573315
0.0001403939
0.00017069291
0.00020987564
0.00025599538
0.0003127658
0.00038271861
0.00047355613
0.00058085962
0.00071346091
0.00087754223
0.0010119326
0.0010110509
0.0010101624
0.0010092651
0.0010083571
0.0010074366
0.0010065013
0.0010055488
0.0010045778
0.0010035886
0.0010027551
0.0010020895
0.0010015658
0.0010011805
0.0010009278
0.0010007637
0.0010006172
0.0010004818
0.0010004857
0.0010006228
0.0010007248
1.0389277e-07
1.384071e-06
1.217179e-06
9.9680889e-07
1.0577776e-06
8.0169422e-07
8.3789736e-07
7.935886e-07
8.3867015e-07
8.7341287e-07
9.4907014e-07
1.0366193e-06
1.1449712e-06
1.267754e-06
1.4078414e-06
1.5646098e-06
1.739779e-06
1.9339122e-06
2.1494182e-06
2.3877299e-06
2.6509519e-06
2.9414857e-06
3.262213e-06
3.616565e-06
4.0087007e-06
4.4437409e-06
4.9281013e-06
5.4698493e-06
6.0789863e-06
6.7680111e-06
7.5527097e-06
8.4531364e-06
9.4943606e-06
1.0707511e-05
1.2131312e-05
1.3813931e-05
1.5815026e-05
1.8208269e-05
2.1084495e-05
2.4555711e-05
2.8959552e-05
3.4106993e-05
4.0371612e-05
4.8011266e-05
5.7345243e-05
6.8762441e-05
8.2735248e-05
9.9853437e-05
0.00012086088
0.0001480455
0.0001800017
0.00021925849
0.00026753424
0.00032698864
0.00040420731
0.00049537634
0.00060802775
0.00074742872
0.00092020357
0.0010116348
0.0010107318
0.0010098218
0.0010089029
0.001007973
0.00100703
0.0010060712
0.0010050936
0.0010040952
0.0010031711
0.0010024283
0.0010018305
0.0010013614
0.0010010212
0.001000796
0.0010006375
0.0010004932
0.0010003941
0.0010004566
0.0010006555
0.0010007974
1.184286e-07
1.177414e-06
1.0623513e-06
7.5362083e-07
7.9324767e-07
6.7742771e-07
7.0821523e-07
7.0883957e-07
7.6902737e-07
8.3309015e-07
9.2462769e-07
1.0285216e-06
1.1497739e-06
1.2854393e-06
1.43766e-06
1.6066727e-06
1.7940482e-06
2.001005e-06
2.2292465e-06
2.4805788e-06
2.7571736e-06
3.0615396e-06
3.3966634e-06
3.7661016e-06
4.1741999e-06
4.6237218e-06
5.1255024e-06
5.6860025e-06
6.323071e-06
7.0375351e-06
7.8515722e-06
8.7862614e-06
9.8678064e-06
1.1128847e-05
1.2610044e-05
1.4361864e-05
1.6446719e-05
1.8941589e-05
2.1941408e-05
2.5563358e-05
2.9951462e-05
3.5281782e-05
4.1770798e-05
4.968663e-05
5.9361219e-05
7.1195219e-05
8.6437796e-05
0.00010431011
0.0001262474
0.00015320967
0.00018633263
0.00022701072
0.00027703235
0.00034188277
0.000418477
0.00051306492
0.00063003559
0.00077493049
0.00095472009
0.0010113458
0.0010104257
0.0010094985
0.0010085622
0.0010076151
0.0010066551
0.0010056797
0.0010046871
0.0010036766
0.0010028412
0.0010021682
0.0010016268
0.0010012062
0.0010009021
0.0010006902
0.0010005245
0.0010003758
0.0010002868
0.0010003352
0.0010004868
0.0010005739
1.0792359e-07
9.6049922e-07
8.7696281e-07
6.2632292e-07
6.4571317e-07
5.8067683e-07
6.2088073e-07
6.5617344e-07
7.323854e-07
8.1716981e-07
9.2134752e-07
1.0376931e-06
1.1696483e-06
1.3160749e-06
1.4786828e-06
1.6581405e-06
1.8559277e-06
2.0733954e-06
2.3122629e-06
2.5744154e-06
2.862082e-06
3.1778366e-06
3.5247086e-06
3.9063169e-06
4.3271266e-06
4.7926873e-06
5.3098241e-06
5.8869777e-06
6.5348711e-06
7.2672518e-06
8.1014267e-06
9.0590008e-06
1.0166951e-05
1.1458968e-05
1.2976972e-05
1.4772938e-05
1.6911051e-05
1.9470395e-05
2.2548569e-05
2.6266005e-05
3.0770126e-05
3.6503016e-05
4.3212713e-05
5.1396869e-05
6.1398411e-05
7.3625684e-05
8.8573558e-05
0.00010688006
0.00012936857
0.00015702427
0.00019098592
0.00023480843
0.00028641087
0.0003500001
0.0004284826
0.00052544697
0.00064541846
0.00079412066
0.00097874534
0.0010110875
0.0010101544
0.0010092138
0.0010082637
0.0010073022
0.0010063267
0.0010053349
0.001004325
0.001003361
0.0010025856
0.0010019606
0.0010014616
0.0010010803
0.0010008054
0.0010006054
0.0010004389
0.0010002928
0.001000213
0.0010002473
0.0010003491
0.0010003672
8.4657581e-08
6.3972832e-07
7.1010761e-07
5.2173673e-07
5.3514502e-07
5.1545093e-07
5.6998582e-07
6.3064541e-07
7.1888762e-07
8.1665408e-07
9.2990813e-07
1.0551903e-06
1.1947676e-06
1.3485908e-06
1.5180861e-06
1.7041995e-06
1.9083748e-06
2.131973e-06
2.3768961e-06
2.6450281e-06
2.9386363e-06
3.2603221e-06
3.6131327e-06
4.0007419e-06
4.4276861e-06
4.8995155e-06
5.4230042e-06
6.0066638e-06
6.6684811e-06
7.4110066e-06
8.2568022e-06
9.2278321e-06
1.0351586e-05
1.1662353e-05
1.3202756e-05
1.5025585e-05
1.7195931e-05
1.9794008e-05
2.2918993e-05
2.6693219e-05
3.1265839e-05
3.6818365e-05
4.3575973e-05
5.1822499e-05
6.1903425e-05
7.4223683e-05
8.9278327e-05
0.00010866986