/*--------------------------------*- C++ -*----------------------------------*\
| =========                 |                                                 |
| \\      /  F ield         | OpenFOAM: The Open Source CFD Toolbox           |
|  \\    /   O peration     | Version:  2206                                  |
|   \\  /    A nd           | Website:  www.openfoam.com                      |
|    \\/     M anipulation  |                                                 |
\*---------------------------------------------------------------------------*/
FoamFile
{
    version     2.0;
    format      ascii;
    arch        "LSB;label=32;scalar=64";
    class       volScalarField;
    location    "668";
    object      omega;
}
// * * * * * * * * * * * * * * * * * * * * * * * * * * * * * * * * * * * * * //

dimensions      [0 0 -1 0 0 0 0];

internalField   nonuniform List<scalar> 
16000
(
1439.868
2258.7477
1138.247
635.18056
449.25868
312.41352
244.06178
188.88858
156.18503
129.19871
111.43009
95.930576
84.296954
74.426512
66.442934
59.614597
53.868428
48.905152
44.630137
40.895737
37.627651
34.745576
32.193776
29.920954
27.888365
26.064127
24.421927
22.940397
21.601382
20.389395
19.290689
18.293629
17.388782
16.567785
15.823516
15.149559
14.540163
13.990101
13.494699
13.04989
12.651973
12.296864
11.981009
11.70108
11.454142
11.237099
11.047212
10.881835
10.738441
10.614739
10.50851
10.417767
10.340633
10.275416
10.220608
10.174877
10.137055
10.106139
10.081279
10.061775
10.047099
10.036952
10.031415
10.03131
10.03526
10.039502
10.043508
10.047274
10.05082
10.054126
10.057279
10.060156
10.063005
10.065256
10.067604
10.06812
10.069165
10.064269
10.054834
10.040787
1472.9268
2183.8923
1125.5852
635.06741
450.0004
314.31573
245.21894
190.02693
157.00579
129.83522
111.95313
96.373684
84.621886
74.695793
66.643235
59.776293
53.988353
48.998365
44.698274
40.94607
37.662187
34.768662
32.207692
29.928193
27.890156
26.061804
24.416201
22.931961
21.590768
20.37719
19.277324
18.279305
17.373706
16.552083
15.807336
15.133049
14.523482
13.973384
13.478021
13.033315
12.635736
12.281112
11.965868
11.686608
11.44047
11.224285
11.035313
10.870897
10.728471
10.605751
10.500481
10.410676
10.334438
10.270062
10.216027
10.170991
10.133781
10.103388
10.078958
10.059785
10.045318
10.035209
10.029418
10.028518
10.032181
10.036249
10.040083
10.043687
10.047069
10.050235
10.053223
10.056011
10.05868
10.060979
10.063068
10.063948
10.064429
10.060827
10.055457
10.037956
1506.1254
2118.2585
1111.6644
634.08258
449.83189
315.43006
245.88019
190.87368
157.55838
130.29471
112.30198
96.694275
84.826271
74.867345
66.750293
59.856959
54.032493
49.023285
44.703157
40.938595
37.643266
34.742471
32.176051
29.893427
27.853201
26.023814
24.377664
22.893379
21.552465
20.339595
19.240751
18.2438
17.339352
16.518869
15.775287
15.1022
14.493893
13.945114
13.451066
13.007619
12.611479
12.258371
11.944714
11.667008
11.422498
11.207924
11.020549
10.857712
10.716797
10.595539
10.49164
10.403125
10.328083
10.264795
10.211735
10.167557
10.131085
10.101312
10.077386
10.058598
10.044389
10.034377
10.028435
10.02689
10.030139
10.033928
10.037495
10.040843
10.043979
10.046917
10.049677
10.052275
10.054735
10.056937
10.05881
10.059815
10.059897
10.05702
10.052696
10.034246
1538.3152
2060.8415
1096.544
632.50977
448.87802
316.12888
246.1084
191.46575
157.88241
130.59606
112.5013
96.902627
84.924329
74.947598
66.771947
59.86033
54.004767
48.981681
44.646261
40.87362
37.570792
34.666216
32.097647
29.814976
27.775417
25.9477
24.303535
22.82159
21.483174
20.273119
19.177348
18.183417
17.282013
16.464484
15.723815
15.053603
14.448168
13.902266
13.411038
12.970231
12.576856
12.226514
11.915637
11.640569
11.398701
11.186662
11.001713
10.841204
10.702455
10.583237
10.481205
10.394404
10.320914
10.259012
10.207172
10.16405
10.128475
10.099447
10.076121
10.057794
10.043906
10.034058
10.028067
10.026086
10.02881
10.032237
10.035456
10.038474
10.041295
10.043932
10.046405
10.04874
10.050949
10.052961
10.05463
10.055611
10.055399
10.052939
10.047985
10.030853
1568.766
2038.8445
1087.0643
630.23506
447.14006
316.42684
245.90191
191.81497
157.97872
130.74814
112.55198
97.000957
84.916139
74.936639
66.70822
59.786383
53.90558
48.87398
44.528241
40.751784
37.4454
34.540391
31.972787
29.6929
27.656612
25.833001
24.193111
22.715672
21.381794
20.176504
19.085754
18.096731
17.200246
16.387512
15.651566
14.986
14.385165
13.843833
13.357089
12.920454
12.531323
12.185132
11.878362
11.607125
11.369011
11.160511
10.978883
10.821503
10.685611
10.569037
10.469382
10.384724
10.313144
10.252923
10.20254
10.160665
10.126136
10.097966
10.075324
10.057522
10.044003
10.034364
10.028391
10.026169
10.028269
10.03125
10.034044
10.036655
10.039091
10.04136
10.043483
10.045487
10.047391
10.049137
10.050579
10.051424
10.050981
10.048787
10.043329
10.02769
1597.2494
2040.296
1081.1121
627.54917
444.64112
316.31384
245.24767
191.91097
157.82838
130.73737
112.44257
96.9724
84.793069
74.82436
66.553419
59.628952
53.730515
48.695566
44.344927
40.568737
37.262749
34.360495
31.796871
29.522545
27.492108
25.675097
24.041874
22.571279
21.244185
20.045846
18.962329
17.980375
17.090967
16.285143
15.556004
14.897118
14.302862
13.768031
13.287679
12.856959
12.473747
12.133261
11.832084
11.565999
11.33286
11.128995
10.95165
10.798258
10.665953
10.55266
10.455914
10.373845
10.304544
10.246305
10.197625
10.157191
10.123863
10.096671
10.074806
10.057597
10.044502
10.035116
10.029206
10.0268
10.028363
10.030829
10.033131
10.035275
10.037265
10.039109
10.040825
10.042444
10.043988
10.045411
10.046592
10.047224
10.046588
10.044547
10.03872
10.024755
1623.8294
2053.6947
1076.1217
625.16723
443.45171
315.7721
244.59064
191.78871
157.67683
130.95539
112.18649
96.810157
84.556567
74.606234
66.303831
59.381982
53.472982
48.438847
44.088293
40.316171
37.014496
34.118369
31.562032
29.296458
27.274931
25.467548
23.843932
22.38309
21.065592
19.876933
18.803395
17.831169
16.951466
16.155106
15.435254
14.785444
14.200067
13.673936
13.20214
12.779279
12.403842
12.070752
11.77678
11.517245
11.290365
11.092268
10.920185
10.771648
10.643651
10.534262
10.440936
10.361879
10.295205
10.239228
10.192475
10.153661
10.121672
10.095565
10.074558
10.058004
10.045378
10.036284
10.030475
10.027928
10.029024
10.030917
10.032672
10.034294
10.035787
10.037155
10.038416
10.039601
10.040733
10.041785
10.042662
10.043021
10.042215
10.040232
10.034171
10.021877
1648.3108
2072.0219
1071.4203
622.33638
441.82429
314.71581
243.58692
191.63069
157.10509
131.18342
111.69178
96.516108
84.198876
74.271553
65.946052
59.031292
53.118629
48.089888
43.745091
39.981754
36.689278
33.803668
31.258895
29.000889
26.992127
25.198309
23.588199
22.140995
20.836867
19.661534
18.601617
17.642618
16.776048
15.992449
15.285059
14.647353
14.073723
13.558989
13.098383
12.687368
12.321696
11.997771
11.712691
11.46113
11.241801
11.0506
10.884725
10.741881
10.618868
10.513967
10.424531
10.34887
10.285131
10.231668
10.187039
10.150002
10.119477
10.094552
10.074476
10.058632
10.046518
10.037752
10.032079
10.029433
10.030115
10.031391
10.032556
10.033616
10.034572
10.035427
10.036193
10.036902
10.037579
10.03822
10.038752
10.038796
10.037836
10.035834
10.029657
10.018968
1669.6714
2088.639
1064.9912
618.59036
437.76034
313.24201
241.59241
190.97892
156.24008
130.71996
111.1455
96.062988
83.695779
73.797391
65.460776
58.559446
52.65243
47.635394
43.295203
39.545278
36.267433
33.397664
30.870629
28.63014
26.63945
24.864311
23.272529
21.843621
20.557288
19.39946
18.357278
17.415403
16.565741
15.798487
15.106968
14.484576
13.925693
13.425103
12.978027
12.579886
12.226306
11.91355
11.639277
11.3985
11.187946
11.004694
10.845876
10.709481
10.592033
10.492124
10.406969
10.335018
10.274466
10.223714
10.181367
10.14623
10.117265
10.093595
10.074507
10.059417
10.04785
10.039441
10.033936
10.031225
10.031512
10.032141
10.032688
10.033158
10.033549
10.033861
10.034104
10.034304
10.034491
10.034686
10.034832
10.034537
10.033434
10.031346
10.025166
10.01595
1687.6495
2103.8907
1052.4797
613.84881
432.73251
311.54971
239.53549
190.11411
155.16617
130.06429
110.39332
95.433093
83.038688
73.173329
64.840097
57.945815
52.050406
47.050828
42.729844
39.001432
35.745978
32.89895
30.396372
28.179579
26.212793
24.462013
22.893952
21.488591
20.225071
19.089479
18.069717
17.149363
16.320849
15.573918
14.902005
14.298392
13.757441
13.273894
12.842961
12.46005
12.120664
11.820775
11.558694
11.329069
11.128595
10.954407
10.804418
10.675108
10.563665
10.469144
10.388561
10.320545
10.263358
10.215454
10.175495
10.142341
10.115002
10.092639
10.07458
10.060276
10.049281
10.041251
10.035942
10.033208
10.033072
10.033041
10.032954
10.032818
10.032628
10.032381
10.03208
10.031749
10.031419
10.03114
10.03086
10.030215
10.028974
10.026736
10.020682
10.012705
1702.7905
2114.4322
1035.1083
608.81676
427.18909
309.58938
237.1013
188.99356
153.8873
129.2012
109.47906
94.628171
82.227321
72.374611
64.051521
57.178639
51.307356
46.334633
42.042406
38.343931
35.118964
32.302033
29.831225
27.645002
25.70868
23.988766
22.45063
21.074895
19.839996
18.732054
17.740048
16.846138
16.043456
15.321156
14.672811
14.091567
13.571771
13.108122
12.695837
12.330353
12.007111
11.721569
11.473018
11.25566
11.066167
10.901573
10.760286
10.638721
10.534411
10.445546
10.369699
10.305742
10.25201
10.207022
10.1695
10.138367
10.112685
10.091655
10.074644
10.061141
10.050732
10.043096
10.038005
10.035307
10.034657
10.033965
10.033243
10.032497
10.03172
10.030907
10.030056
10.029178
10.028315
10.027535
10.026795
10.025799
10.024413
10.021955
10.016218
10.009031
1715.6163
2103.9784
1014.1642
603.36141
421.13801
307.31875
234.42866
187.6469
152.42575
128.13327
108.38964
93.609033
81.206348
71.38077
63.086137
56.245143
50.41079
45.475304
41.222157
37.563287
34.378133
31.600022
29.169756
27.022437
25.12452
23.443345
21.942548
20.603624
19.404113
18.329937
17.367352
16.505335
15.733652
15.040655
14.420119
13.865015
13.369701
12.92884
12.537682
12.19175
11.88658
11.618425
11.384411
11.180132
11.002287
10.847662
10.715392
10.60172
10.504149
10.421214
10.350792
10.290905
10.240628
10.198553
10.16346
10.134339
10.11031
10.09061
10.074647
10.061948
10.052127
10.044887
10.040022
10.037453
10.036132
10.034791
10.033444
10.032093
10.030736
10.02936
10.027957
10.026531
10.025124
10.023819
10.022588
10.021246
10.019695
10.016948
10.011861
10.004523
1726.8058
2075.0683
991.9753
597.50751
414.66366
304.76732
231.53331
186.06517
150.78186
126.8449
107.0492
92.332926
79.957519
70.168651
61.921574
55.125512
49.342749
44.457657
40.256312
36.649395
33.515903
30.787656
28.408966
26.310893
24.461019
22.821257
21.366153
20.072242
18.915865
17.883166
16.960097
16.135686
15.400231
14.741021
14.152186
13.626516
13.158446
12.742639
12.374428
12.049488
11.763306
11.512035
11.29343
11.102913
10.937337
10.794009
10.670837
10.565124
10.474225
10.397074
10.331677
10.276334
10.229425
10.190188
10.157458
10.130296
10.107883
10.089486
10.074551
10.062641
10.053401
10.046551
10.041888
10.039341
10.037376
10.035409
10.033453
10.031515
10.029588
10.027662
10.025717
10.023747
10.021795
10.019942
10.018189
10.016504
10.014771
10.011609
10.007815
9.9992405
1736.2341
2050.3483
969.39266
591.32796
407.82945
301.96201
228.43682
184.23603
148.89025
125.1941
105.41142
90.762209
78.446477
68.70935
60.532773
53.799682
48.087012
43.269645
39.136274
35.597002
32.529962
29.865052
27.541184
25.503778
23.713998
22.132095
20.732858
19.493384
18.388445
17.404584
16.527393
15.7459
15.051486
14.429967
13.876099
13.382477
12.943729
12.55457
12.21047
11.907407
11.640881
11.406737
11.203744
11.027056
10.873585
10.740647
10.626587
10.528908
10.44528
10.373689
10.313053
10.261817
10.218592
10.182055
10.151574
10.126275
10.10541
10.088266
10.074319
10.063171
10.054494
10.04803
10.043565
10.040861
10.038285
10.035722
10.033184
10.030678
10.028202
10.025742
10.023271
10.020773
10.018282
10.015858
10.013548
10.011509
10.009614
10.006601
10.004369
9.9978444
1743.4009
2015.7204
946.62988
584.82121
400.62912
298.87706
225.12976
182.05414
146.62462
123.14635
103.43768
88.864368
76.646295
66.982248
58.903237
52.256149
46.635677
41.907296
37.861155
34.395178
31.409477
28.82402
26.578644
24.616666
22.900595
21.388563
20.055599
18.880049
17.834538
16.906356
16.0807
15.346411
14.693288
14.112517
13.596124
13.136445
12.728457
12.366974
12.047625
11.766885
11.520437
11.304971
11.117356
10.954235
10.812621
10.68966
10.584292
10.49419
10.417118
10.351485
10.295301
10.247854
10.207892
10.174269
10.145878
10.122308
10.102898
10.086937
10.073927
10.0635
10.055359
10.04927
10.045074
10.041925
10.03878
10.035655
10.032564
10.029516
10.026513
10.02354
10.020565
10.017565
10.014548
10.011535
10.008625
10.006178
10.004596
10.002701
10.002144
9.9986708
1748.51
1967.4569
923.49659
577.8046
393.07069
295.46454
221.62885
179.3407
143.95192
120.66499
101.09779
86.616118
74.536714
64.973023
57.022056
50.489004
44.986545
40.354058
36.415314
33.054292
30.172477
27.686549
25.537885
23.666979
22.038753
20.608559
19.351555
18.24342
17.264081
16.397227
15.627676
14.944661
14.338208
13.799873
13.322215
12.897148
12.520234
12.186447
11.8915
11.632618
11.40542
11.206858
11.034226
10.884304
10.754333
10.641891
10.544623
10.461596
10.3905
10.330163
10.278678
10.234684
10.197663
10.1666
10.140437
10.118423
10.100352
10.085492
10.073353
10.063598
10.055952
10.050191
10.046156
10.042478
10.038808
10.035159
10.031546
10.027982
10.024474
10.021009
10.017558
10.014089
10.010572
10.006974
10.003415
10.001478
10.000678
9.9997151
10.000646
9.9993381
1752.3424
1920.425
899.3213
570.23724
385.23233
291.73545
217.56147
176.04473
140.82824
117.71001
98.353591
83.989439
72.093653
62.665861
54.879094
48.472558
43.112982
38.620271
34.821042
31.593553
28.84109
26.476313
24.44348
22.67887
21.145262
19.807259
18.635443
17.605513
16.697434
15.895758
15.184829
14.554637
13.995591
13.499758
13.060858
12.669918
12.323437
12.016634
11.745005
11.50705
11.298142
11.115431
10.95684
10.81923
10.699971
10.596896
10.508019
10.431527
10.365769
10.310216
10.262856
10.222458
10.188039
10.159272
10.135052
10.114644
10.097776
10.083923
10.072583
10.063447
10.056259
10.050807
10.046651
10.042493
10.038343
10.03421
10.030109
10.026055
10.02206
10.018121
10.01422
10.010319
10.006345
10.002212
9.9991625
9.9979809
9.9977434
9.9974394
9.9992972
9.9997799
1754.9132
1875.454
874.21965
562.12928
377.15839
287.27031
212.92445
172.07826
137.17535
114.21783
95.148726
80.944972
69.287672
60.04468
52.431879
46.208355
41.039689
36.729879
33.107501
30.044987
27.448892
25.226338
23.319009
21.674956
20.25161
19.013984
17.933158
16.985361
16.150649
15.415528
14.763454
14.185661
13.673074
13.218087
12.814266
12.456086
12.138727
11.857943
11.610039
11.391693
11.199853
11.031594
10.885874
10.759576
10.650091
10.555436
10.473797
10.403521
10.343086
10.29182
10.248154
10.210881
10.179085
10.152359
10.129905
10.111001
10.095172
10.082231
10.071611
10.06303
10.05626
10.051145
10.046562
10.041977
10.037393
10.032816
10.02826
10.023741
10.019274
10.014871
10.010536
10.006232
10.001859
9.9981492
9.9960562
9.9955131
9.9956544
9.9959745
9.9985268
10.000911
1756.0647
1832.097
847.97176
553.32653
368.88047
281.77143
207.6108
167.31356
132.88066
110.10454
91.415096
77.440762
66.063053
57.048583
49.698351
43.725532
38.805173
34.726856
31.321242
28.454352
26.029827
23.968493
22.206557
20.692909
19.386162
18.252598
17.264482
16.399365
15.636714
14.963821
14.368669
13.841174
13.372988
12.957169
12.587887
12.260178
11.969703
11.712575
11.485455
11.28536
11.109611
10.955787
10.821581
10.705536
10.604891
10.517835
10.442716
10.378043
10.322515
10.275017
10.234663
10.200207
10.170841
10.145862
10.124963
10.107337
10.092549
10.080418
10.070437
10.062344
10.0559
10.050883
10.045927
10.040964
10.035992
10.031015
10.02604
10.021079
10.016152
10.011285
10.006511
10.001807
9.9977959
9.9951325
9.9938949
9.9938712
9.9942429
9.9950433
9.9981002
10.001869
1754.9504
1789.4786
820.33886
543.59003
359.43143
274.98981
201.43714
161.5828
127.80017
105.27412
87.086262
73.407532
62.398444
53.72466
46.729244
41.085175
36.474849
32.675754
29.512994
26.867398
24.639539
22.751738
21.142336
19.762413
18.57285
17.542103
16.644138
15.855952
15.162684
14.550534
14.008673
13.52794
13.100785
12.720956
12.383247
12.083281
11.817265
11.581607
11.373294
11.189611
11.028111
10.886669
10.763894
10.657033
10.564292
10.484019
10.414691
10.354919
10.303471
10.25977
10.22234
10.190344
10.163048
10.139801
10.120281
10.103787
10.089918
10.078495
10.069077
10.06143
10.055358
10.050086
10.044808
10.039515
10.034203
10.02887
10.023517
10.018147
10.012773
10.007431
10.002187
9.9977795
9.994749
9.9929803
9.9924706
9.992854
9.9934165
9.9946201
9.9979341
10.002006
1749.3765
1746.1109
790.98215
532.5863
348.57625
266.57062
194.12187
154.67751
121.77883
99.645133
82.084378
68.84074
58.357612
50.159604
43.619904
38.381202
34.136105
30.644865
27.755775
25.347289
23.324163
21.612654
20.154923
18.905462
17.828278
16.894905
16.07938
15.364732
14.73559
14.17907
13.685757
13.247445
12.857379
12.509966
12.200564
11.925344
11.681232
11.464797
11.273343
11.104386
10.955578
10.825884
10.712564
10.61385
10.528112
10.453852
10.389689
10.334323
10.286685
10.246038
10.211183
10.181349
10.155876
10.134179
10.115868
10.100366
10.087299
10.076482
10.067524
10.060215
10.054387
10.048843
10.043288
10.037712
10.032107
10.026468
10.020787
10.015055
10.009272
10.003448
9.9983685
9.9948169
9.9925518
9.9915169
9.9915952
9.9922941
9.9930615
9.9946581
9.9980848
10.002098
1736.0657
1700.0461
759.65302
519.14476
336.06924
256.12371
185.32826
146.39115
114.68668
93.20991
76.421346
63.859097
54.081706
46.496207
40.501228
35.724544
31.872353
28.715521
26.10911
23.939125
22.11735
20.575989
19.262289
18.134909
17.161201
16.315239
15.576347
14.927975
14.356782
13.850011
13.399985
12.999425
12.642334
12.323724
12.039392
11.785712
11.560941
11.361484
11.184969
11.029238
10.892294
10.772249
10.667266
10.57572
10.496117
10.427104
10.367484
10.31591
10.271757
10.233775
10.201165
10.173198
10.14928
10.129001
10.111737
10.097095
10.084736
10.074435
10.06586
10.058802
10.053032
10.047259
10.04147
10.035654
10.029802
10.023905
10.017951
10.011929
10.005837
9.9999326
9.9956593
9.992739
9.9910527
9.9905792
9.9910785
9.9919828
9.9929605
9.994973
9.99848
10.002304
1711.1733
1649.0198
726.32789
501.31786
321.55143
243.23462
175.50503
136.74162
106.48037
85.970931
70.302802
58.684814
49.776544
42.907393
37.511094
33.222006
29.768665
26.945268
24.613672
22.671129
21.038268
19.654427
18.472649
17.456245
16.576284
15.809791
15.138448
14.547673
14.025553
13.562408
13.150273
12.782737
12.454537
12.161323
11.899452
11.665822
11.457748
11.272859
11.109027
10.964317
10.836963
10.725369
10.627692
10.542421
10.468154
10.403594
10.348057
10.300065
10.258638
10.222955
10.192304
10.165941
10.143497
10.124294
10.107911
10.093983
10.08227
10.072411
10.064178
10.057379
10.051421
10.045456
10.039472
10.033456
10.027397
10.021282
10.015096
10.008832
10.002497
9.9974575
9.9938159
9.9913778
9.9901238
9.9900192
9.9907285
9.9917074
9.9929175
9.9953787
9.9990616
10.002668
1668.8724
1589.7588
691.23632
478.27482
304.3929
227.8084
163.51704
125.59672
97.437492
78.286664
64.073161
53.605353
45.660761
39.550236
34.759722
30.9498
27.876762
25.368286
23.291179
21.556453
20.09423
18.851307
17.786631
16.868157
16.070587
15.373737
14.761353
14.220961
13.742167
13.316601
12.937031
12.597808
12.294298
12.022662
11.779671
11.562566
11.368944
11.196666
11.043784
10.908497
10.789106
10.684826
10.593513
10.513757
10.444283
10.383926
10.331622
10.286415
10.247311
10.213523
10.184625
10.159773
10.138428
10.120122
10.104466
10.091206
10.07994
10.070421
10.062436
10.055804
10.049692
10.043571
10.037428
10.031249
10.025022
10.018728
10.012348
10.005869
10.000038
9.9956999
9.9925766
9.9905467
9.98962
9.989696
9.9904033
9.9913404
9.9927607
9.9955888
9.9996416
10.003416
1602.7061
1514.8892
655.13078
450.53167
286.93256
208.65261
149.54546
113.57634
88.07795
70.707029
58.123351
48.886021
41.904658
36.531825
32.315537
28.953745
26.232991
24.002037
22.151007
20.599192
19.285958
18.16526
17.201623
16.367357
15.640597
15.003917
14.441806
13.944164
13.501743
13.10811
12.75619
12.441005
12.158459
11.905149
11.678203
11.475164
11.293882
11.132437
10.989081
10.862194
10.750268
10.651887
10.565731
10.490384
10.424654
10.367441
10.317724
10.274942
10.237923
10.205937
10.178347
10.154586
10.134152
10.116568
10.101589
10.088775
10.077852
10.068583
10.060767
10.054231
10.047995
10.041749
10.035478
10.029171
10.022816
10.016395
10.009898
10.003321
9.9981786
9.9943771
9.9916811
9.9900126
9.9893433
9.9894897
9.9900987
9.9909473
9.9923798
9.9950145
9.9985944
10.001814
1506.3859
1438.977
618.97784
413.90165
264.20862
188.17323
134.57142
101.60104
79.077131
63.735873
52.760568
44.704255
38.614732
33.915595
30.216404
27.254524
24.846047
22.860737
21.20423
19.808054
18.620413
17.601913
16.722113
15.95714
15.288041
14.699625
14.179638
13.71813
13.306996
12.939636
12.610459
12.315028
12.04968
11.811363
11.597499
11.405868
11.234523
11.081713
10.945828
10.825363
10.7189
10.625085
10.543222
10.471571
10.409028
10.354574
10.307262
10.266227
10.230701
10.199954
10.173383
10.150437
10.130784
10.113855
10.099298
10.086811
10.076131
10.06703
10.059314
10.052817
10.046487
10.040142
10.033769
10.027354
10.020881
10.014332
10.007697
10.00148
9.9968009
9.9933645
9.9909872
9.9896077
9.989143
9.9893523
9.9899172
9.9907394
9.9921856
9.9946396
9.9977425
10.000317
1383.9537
1374.4699
584.44007
376.53522
239.64585
167.26928
119.75329
90.55106
71.070335
57.750776
48.216866
41.196177
35.877759
31.756382
28.495869
25.870164
23.722359
21.941646
20.444899
19.175929
18.090576
17.155116
16.34334
15.634565
15.012251
14.463047
13.976107
13.542555
13.155109
12.808667
12.497548
12.217757
11.965988
11.73948
11.535895
11.35322
11.189678
11.04367
10.913721
10.798453
10.696565
10.606819
10.527943
10.458811
10.398381
10.345684
10.29981
10.259921
10.22555
10.195783
10.170047
10.147811
10.128603
10.112024
10.09774
10.08546
10.074926
10.065918
10.058244
10.051739
10.045355
10.038953
10.032522
10.026046
10.019509
10.012896
10.006198
10.000345
9.9959329
9.9927066
9.990523
9.989312
9.9889448
9.9891754
9.9897564
9.9906686
9.9922232
9.9946591
9.9976179
9.9999777
1250.6875
1277.171
555.89285
340.2251
215.29005
148.00415
106.70001
81.274968
64.477321
52.905315
44.591146
38.432519
33.741028
30.081263
27.165813
24.801138
22.85321
21.227199
19.854461
18.684299
17.678518
16.807803
16.049246
15.384654
14.799398
14.281449
13.821077
13.410272
13.042444
12.712178
12.415023
12.147305
11.905975
11.688486
11.492675
11.316679
11.158847
11.017687
10.891819
10.779948
10.680846
10.593875
10.517356
10.450222
10.39149
10.340235
10.295584
10.256732
10.22298
10.193721
10.1684
10.146495
10.127541
10.111155
10.097014
10.084835
10.074367
10.065392
10.057723
10.051197
10.044783
10.038352
10.031892
10.025387
10.018818
10.012174
10.005442
9.9997909
9.9955103
9.9923814
9.9902767
9.989095
9.9886748
9.9888044
9.9893339
9.9902887
9.9918333
9.9940152
9.9965275
9.9986894
1131.6676
1164.2324
537.53141
311.93044
196.11043
133.46226
97.149142
74.717052
59.909187
49.635648
42.202465
36.656422
32.40086
29.055828
26.371438
24.178864
22.360931
20.83433
19.538468
18.42835
17.469892
16.63678
15.908321
15.267982
14.703583
14.202832
13.756718
13.35779
12.999889
12.677943
12.387762
12.125886
11.88944
11.676017
11.483578
11.310359
11.154802
11.015495
10.891127
10.780469
10.682348
10.595633
10.519235
10.452126
10.393351
10.342008
10.297235
10.25824
10.224334
10.194923
10.169454
10.147402
10.128303
10.111776
10.097498
10.085187
10.074591
10.065491
10.057698
10.05105
10.044658
10.038257
10.031834
10.025372
10.018856
10.012274
10.005615
9.9999243
9.9956044
9.9924527
9.9903293
9.9890954
9.988578
9.9886124
9.9891145
9.9900947
9.9915828
9.9935207
9.9957137
9.9978956
1078.1256
1104.4009
518.69042
292.32165
182.44132
124.14679
90.975433
70.403079
56.78214
47.306317
40.449167
35.316539
31.362065
28.239506
25.72217
23.656961
21.937524
20.488076
19.253357
18.19222
17.273413
16.472739
15.771109
15.153204
14.606561
14.120928
13.6878
13.300096
12.951929
12.638423
12.355548
12.099965
11.868905
11.660052
11.471451
11.301417
11.14847
11.011269
10.888575
10.779223
10.682102
10.596136
10.520282
10.453551
10.395025
10.343836
10.299142
10.260164
10.226227
10.196753
10.171202
10.149056
10.129852
10.113207
10.098805
10.086365
10.075639
10.066409
10.058486
10.051707
10.045271
10.038828
10.032366
10.025868
10.01932
10.012709
10.006023
10.000302
9.995935
9.9927337
9.9905522
9.9892361
9.9886193
9.9885758
9.9890524
9.9900299
9.9914536
9.9932243
9.9952569
9.9975221
48610.674
111304.24
43668.466
16256.993
6571.2621
2811.6802
1294.6394
670.83514
412.17524
287.5205
220.72837
179.43631
151.85538
130.97697
114.76003
101.39391
90.40707
81.089983
73.210474
66.40163
60.500598
55.318347
50.756941
46.708
43.108787
39.88451
36.989917
34.379208
32.019131
29.880072
27.938127
26.171962
24.563785
23.097698
21.760987
20.541968
19.430613
18.418122
17.496654
16.65917
15.89939
15.211285
14.589732
14.029728
13.526369
13.075335
12.67277
12.314551
11.996964
11.716517
11.469845
11.253745
11.065084
10.901191
10.759332
10.637108
10.532206
10.442629
10.366587
10.303066
10.251962
10.212784
10.186814
10.173417
10.168256
10.16615
10.165294
10.16428
10.164142
10.163205
10.163815
10.162541
10.162194
10.148105
10.132841
10.126853
10.090956
10.09397
10.037764
10.04702
28313.71
75924.066
26831.688
10835.096
4496.602
1901.5471
894.55264
495.13413
329.20676
245.67835
197.85267
165.21824
142.04395
123.3986
108.75106
96.453155
86.367867
77.708309
70.38276
63.999393
58.454344
53.558243
49.239969
45.392589
41.963151
38.883912
36.114839
33.611654
31.34499
29.287112
27.41613
25.712033
24.158351
22.740135
21.445719
20.264052
19.185755
18.202568
17.307096
16.492684
15.753393
15.083446
14.478022
13.932303
13.441559
13.001669
12.608949
12.25937
11.949361
11.675543
11.434651
11.223574
11.039257
10.879126
10.740579
10.621126
10.518599
10.43106
10.356763
10.294411
10.244164
10.205751
10.180499
10.167735
10.162995
10.161163
10.160481
10.159656
10.159652
10.158891
10.159611
10.158609
10.158991
10.146549
10.131975
10.126436
10.090881
10.094005
10.038143
10.047375
35700.862
35358.5
14291.723
5716.3037
2339.6191
1038.5777
573.3339
370.19146
278.75808
219.37646
183.1003
155.0954
134.72225
117.56061
104.13259
92.602734
83.203823
75.015285
68.109706
62.039188
56.765222
52.08633
47.957524
44.26796
40.97345
38.011157
35.344685
32.930186
30.74161
28.752315
26.941943
25.291368
23.785143
22.408987
21.152081
20.003799
18.955289
17.998704
17.126994
16.333811
15.613491
14.960452
14.370133
13.83786
13.359045
12.929746
12.546426
12.205128
11.902411
11.634999
11.399713
11.193525
11.013453
10.857104
10.721731
10.605012
10.504839
10.419327
10.346774
10.285738
10.236326
10.198664
10.174123
10.161985
10.157666
10.15611
10.155616
10.154988
10.155131
10.154549
10.155388
10.154562
10.155467
10.144858
10.13069
10.125962
10.090731
10.093978
10.038527
10.047704
41215.029
21164.502
8479.6261
3234.7346
1385.8028
692.42643
455.41996
320.10828
255.42822
204.10499
173.75727
147.88669
129.32051
113.03293
100.50851
89.508751
80.637891
72.793075
66.217503
60.3865
55.32845
50.822197
46.847374
43.28635
40.105385
37.237915
34.657537
32.317917
30.195944
28.265603
26.507754
24.903923
23.439465
22.100604
20.877217
19.758972
18.737448
17.805125
16.955224
16.181645
15.478947
14.8417
14.265567
13.745984
13.278483
12.859278
12.484956
12.151618
11.855943
11.594741
11.36491
11.163499
10.987703
10.834973
10.70273
10.588722
10.490894
10.407408
10.336603
10.27705
10.228447
10.191529
10.167693
10.156174
10.152279
10.151004
10.15071
10.150288
10.150589
10.150195
10.151161
10.150509
10.151596
10.143133
10.129391
10.125475
10.09059
10.093966
10.03891
10.048052
42833.406
15702.851
5821.8354
2104.3854
1013.0802
559.34165
409.02581
293.586
241.50165
193.52712
167.02678
142.24226
125.03594
109.34026
97.540719
86.932339
78.490002
70.909472
64.604247
58.963965
54.083369
49.718546
45.871837
42.417937
39.332552
36.547487
34.038301
31.762888
29.698512
27.819494
26.107675
24.545081
23.117709
21.812172
20.618941
19.527875
18.530921
17.620818
16.791006
16.035586
15.3493
14.726835
14.164054
13.656471
13.199718
12.790148
12.424455
12.098778
11.809911
11.554737
11.330224
11.133487
10.961896
10.812727
10.68358
10.572264
10.476772
10.395311
10.326261
10.268228
10.220533
10.18435
10.161215
10.15031
10.146839
10.145851
10.145767
10.145558
10.14603
10.145831
10.146934
10.146462
10.147611
10.14141
10.127968
10.124951
10.090436
10.093943
10.039298
10.048402
41516.671
11663.92
4460.6924
1626.2025
876.33655
502.86041
386.87265
277.30573
232.84321
185.9498
162.10448
137.86618
121.64921
106.35458
95.1058
84.786123
76.678963
69.302422
63.214975
57.727723
52.992742
48.745107
45.005662
41.642201
38.6381
35.923684
33.475636
31.256145
29.24207
27.408156
25.737011
24.211076
22.816861
21.541289
20.375339
19.308988
18.334504
17.444835
16.633594
15.895048
15.224091
14.615501
14.065314
13.569102
13.122581
12.722227
12.364822
12.046536
11.764262
11.51495
11.295625
11.103602
10.936021
10.790359
10.664279
10.555637
10.462476
10.383042
10.315754
10.259252
10.212592
10.177136
10.154697
10.144404
10.141357
10.140661
10.140798
10.140808
10.14146
10.141466
10.142714
10.142433
10.143844
10.139685
10.126591
10.124385
10.090278
10.093909
10.039694
10.048757
37827.381
8837.8989
3804.6387
1406.7486
812.48039
471.01519
372.65517
265.94851
226.61009
180.08316
158.24385
134.32415
118.86118
103.87401
93.053454
82.963189
75.123399
67.911926
62.00288
56.641885
52.028034
47.879163
44.230319
40.944113
38.009627
35.356295
32.963189
30.790728
28.820847
27.026825
25.391845
23.898708
22.534316
21.285841
20.144705
19.100941
18.147106
17.276306
16.482299
15.759491
15.102901
14.507373
13.969103
13.483695
13.046938
12.655417
12.305989
11.994842
11.718964
11.475359
11.261267
11.073715
10.910072
10.767875
10.644835
10.538855
10.44802
10.370614
10.305096
10.250135
10.204641