/*--------------------------------*- C++ -*----------------------------------*\
| =========                 |                                                 |
| \\      /  F ield         | OpenFOAM: The Open Source CFD Toolbox           |
|  \\    /   O peration     | Version:  2206                                  |
|   \\  /    A nd           | Website:  www.openfoam.com                      |
|    \\/     M anipulation  |                                                 |
\*---------------------------------------------------------------------------*/
FoamFile
{
    version     2.0;
    format      ascii;
    arch        "LSB;label=32;scalar=64";
    class       volScalarField;
    location    "668";
    object      p;
}
// * * * * * * * * * * * * * * * * * * * * * * * * * * * * * * * * * * * * * //

dimensions      [1 -1 -2 0 0 0 0];

internalField   nonuniform List<scalar> 
16000
(
78494.668
78707.38
78716.532
78942.504
78973.161
79191.276
79254.967
79461.323
79559.469
79757.073
79886.759
80081.356
80238.22
80435.946
80616.158
80822.21
81023.2
81241.554
81462.044
81695.617
81935.316
82186.231
82445.443
82715.231
82994.491
83284.205
83583.99
83894.23
84214.763
84545.661
84886.762
85237.932
85598.907
85969.369
86348.902
86737.005
87133.079
87536.425
87946.244
88361.643
88781.638
89205.166
89631.093
90058.228
90485.334
90911.15
91334.405
91753.841
92168.229
92576.387
92977.199
93369.624
93752.713
94125.616
94487.586
94837.988
95176.297
95502.096
95815.075
96115.025
96401.831
96675.467
96935.98
97183.493
97418.198
97640.302
97850.137
98047.898
98234.255
98408.899
98573.971
98726.257
98874.131
99002.083
99142.054
99233.484
99395.08
99399.63
99673.714
99485.215
77565.55
77805.065
77810.243
78057.254
78086.683
78326.58
78391.366
78619.134
78722.178
78939.993
79078.822
79292.653
79462.553
79679.456
79876.077
80102.225
80322.658
80562.798
80805.539
81063.028
81327.567
81604.616
81890.961
82188.907
82497.195
82816.714
83146.959
83488.185
83840.109
84202.672
84575.586
84958.587
85351.281
85753.222
86163.856
86582.544
87008.53
87440.954
87878.852
88321.159
88766.714
89214.284
89662.574
90110.249
90555.951
90998.324
91436.037
91867.797
92292.38
92708.642
93115.535
93512.119
93897.571
94271.188
94632.392
94980.722
95315.834
95637.493
95945.564
96240.005
96520.858
96788.239
97042.326
97283.365
97511.647
97727.493
97931.276
98123.369
98304.214
98474.139
98633.866
98783.054
98924.191
99053.171
99180.359
99285.14
99415.652
99463.937
99674.083
99536.668
76741.26
77002.398
77007.936
77276.82
77307.502
77570.7
77639.154
77889.657
78000.47
78239.74
78390.676
78625.364
78811.523
79049.943
79266.493
79515.612
79759.031
80023.949
80292.097
80576.124
80867.948
81173.062
81488.15
81815.438
82153.645
82503.579
82864.722
83237.253
83620.851
84015.365
84420.415
84835.603
85260.383
85694.12
86136.048
86585.289
87040.848
87501.626
87966.422
88433.942
88902.817
89371.624
89838.904
90303.192
90763.042
91217.052
91663.883
92102.284
92531.107
92949.32
93356.023
93750.45
94131.97
94500.091
94854.447
95194.796
95521.011
95833.065
96131.02
96415.022
96685.28
96942.059
97185.671
97416.47
97634.833
97841.157
98035.862
98219.369
98392.119
98554.554
98707.144
98850.208
98984.691
99109.885
99228.462
99336.778
99446.604
99520.866
99681.523
99598.044
76083.791
76362.152
76369.447
76663.555
76695.137
76984.705
77056.92
77332.925
77452.721
77716.228
77881.749
78140.368
78345.641
78608.264
78847.141
79120.97
79388.694
79679.03
79972.846
80283.206
80601.919
80934.542
81277.862
81634.084
82002.022
82382.436
82774.82
83179.266
83595.366
84022.815
84461.059
84909.472
85367.253
85833.476
86307.062
86786.81
87271.401
87759.417
88249.354
88739.648
89228.707
89714.922
90196.698
90672.487
91140.809
91600.281
92049.638
92487.749
92913.628
93326.446
93725.53
94110.363
94480.579
94835.95
95176.38
95501.886
95812.59
96108.697
96390.488
96658.298
96912.51
97153.537
97381.82
97597.816
97801.99
97994.811
98176.743
98348.243
98509.766
98661.756
98804.623
98938.777
99064.844
99182.719
99293.266
99398.319
99493.143
99581.977
99699.091
99663.591
75598.348
75899.762
75907.473
76228.543
76260.271
76579.386
76656.293
76960.36
77090.62
77380.527
77563.262
77847.328
78072.378
78358.369
78618.63
78915.507
79206.201
79520.603
79839.362
80175.752
80521.779
80882.912
81256.105
81643.399
82043.628
82457.348
82883.93
83323.214
83774.556
84237.347
84710.719
85193.704
85685.147
86183.761
86688.112
87196.65
87707.722
88219.592
88730.478
89238.589
89742.146
90239.422
90728.771
91208.653
91677.657
92134.524
92578.165
93007.672
93422.319
93821.562
94205.033
94572.525
94923.983
95259.489
95579.237
95883.524
96172.726
96447.282
96707.679
96954.434
97188.085
97409.177
97618.256
97815.864
98002.53
98178.768
98345.067
98501.897
98649.716
98788.951
98919.981
99043.23
99159.218
99267.71
99369.882
99467.632
99550.941
99646.746
99723.916
99742.963
75257.003
75587.084
75594.97
75949.027
75982.608
76335.503
76420.029
76755.873
76897.485
77214.848
77409.836
77714.474
77956.792
78264.541
78546.715
78868.26
79185.246
79527.942
79877.007
80245.374
80625.23
81021.599
81431.478
81856.506
82295.393
82748.322
83214.411
83693.126
84183.485
84684.491
85194.899
85713.339
86238.271
86768.026
87300.812
87834.745
88367.872
88898.209
89423.779
89942.647
90452.952
90952.96
91441.085
91915.918
92376.245
92821.059
93249.565
93661.182
94055.534
94432.442
94791.898
95134.055
95459.204
95767.749
96060.188
96337.088
96599.069
96846.782
97080.896
97302.084
97511.011
97708.325
97894.655
98070.598
98236.727
98393.578
98541.649
98681.404
98813.286
98937.684
99054.935
99165.473
99269.63
99367.094
99459.772
99547.263
99621.056
99716.802
99759.605
99829.02
75020.896
75385.736
75394.704
75788.972
75821.624
76210.76
76297.589
76660.391
76814.056
77155.541
77370.056
77703.57
77973.456
78313.252
78628.471
78985.361
79339.493
79720.688
80109.965
80519.499
80941.785
81381.217
81834.844
82303.817
82786.686
83283.215
83792.228
84312.788
84843.549
85383.102
85929.803
86481.875
87037.382
87594.275
88150.415
88703.618
89251.69
89792.477
90323.903
90844.017
91351.031
91843.356
92319.617
92778.69
93219.698
93642.017
94045.263
94429.277
94794.108
95139.991
95467.32
95776.626
96068.542
96343.789
96603.138
96847.399
97077.396
97293.955
97497.887
97689.98
97870.988
98041.627
98202.567
98354.436
98497.817
98633.242
98761.195
98882.119
98996.421
99104.436
99206.477
99302.949
99393.933
99479.305
99561.338
99636.717
99702.388
99792.258
99805.854
99918.879
74888.509
75295.27
75302.69
75738.39
75772.462
76200.312
76297.439
76699.61
76876.154
77256.245
77506.431
77880.719
78189.348
78570.53
78927.788
79327.587
79726.103
80152.074
80587.394
81043.206
81512.479
81998.872
82499.513
83015.019
83543.758
84085.041
84637.351
85199.297
85769.102
86344.886
86924.54
87505.829
88086.389
88663.788
89235.572
89799.317
90352.682
90893.468
91419.654
91929.449
92421.317
92894
93346.526
93778.218
94188.676
94577.772
94945.624
95292.563
95619.103
95925.915
96213.795
96483.629
96736.367
96972.998
97194.522
97401.939
97596.23
97778.34
97949.175
98109.589
98260.38
98402.288
98535.993
98662.118
98781.229
98893.832
99000.374
99101.262
99196.848
99287.406
99373.23
99454.636
99531.47
99604.046
99674.289
99736.55
99795.119
99874.113
99862.999
100014.54
74936.872
75393.04
75397.02
75883.276
75925.074
76402.999
76522.876
76973.816
77179.201
77605.061
77889.433
78305.714
78655.308
79079.378
79481.301
79926.147
80371.645
80844.693
81328.407
81832.606
82350.815
82885.849
83434.87
83997.876
84572.936
85158.78
85753.401
86354.8
86960.627
87568.406
88175.482
88779.119
89376.54
89964.995
90541.829
91104.54
91650.838
92178.693
92686.377
93172.484
93635.947
94076.041
94492.369
94884.846
95253.668
95599.28
95922.343
96223.695
96504.316
96765.285
97007.754
97232.912
97441.96
97636.089
97816.467
97984.217
98140.411
98286.058
98422.098
98549.4
98668.76
98780.904
98886.483
98986.086
99080.234
99169.385
99253.935
99334.238
99410.575
99483.165
99552.28
99618.075
99680.285
99739.735
99797.258
99846.289
99898.537
99962.69
99932.139
100116.43
75180.282
75693.561
75697.485
76245.232
76295.392
76830.482
76968.211
77467.915
77704.514
78174.832
78499.378
78959.787
79354.698
79824.663
80275.117
80768.346
81264.576
81788.33
82324.236
82880.568
83451.345
84038.347
84638.549
85251.094
85873.49
86503.653
87138.865
87776.369
88413.136
89046.068
89671.997
90287.797
90890.439
91477.077
92045.109
92592.24
93116.523
93616.39
94090.674
94538.607
94959.803
95354.242
95722.229
96064.36
96381.475
96674.611
96944.96
97193.828
97422.597
97632.687
97825.522
98002.509
98165.019
98314.371
98451.816
98578.531
98695.609
98804.056
98904.795
98998.661
99086.407
99168.706
99246.154
99319.276
99388.53
99454.306
99516.94
99576.714
99633.832
99688.474
99740.858
99790.939
99838.53
99884.806
99928.992
99965.482
100011.62
100057.39
100013.14
100226.89
75573.057
76152.315
76157.009
76773.049
76833.011
77428.879
77590.746
78143.33
78416.693
78935.785
79306.132
79815.472
80262.165
80784.07
81290.393
81839.352
82394.252
82976.579
83572.372
84187.942
84817.463
85461.342
86116.026
86779.558
87448.656
88120.303
88791.006
89457.271
90115.483
90762.088
91393.635
92006.889
92598.895
93167.058
93709.194
94223.564
94708.899
95164.398
95589.708
95984.903
96350.432
96687.078
96995.9
97278.18
97535.372
97769.048
97980.852
98172.465
98345.566
98501.805
98642.775
98770.005
98884.942
98988.941
99083.254
99169.034
99247.332
99319.098
99385.188
99446.364
99503.302
99556.592
99606.749
99654.216
99699.369
99742.523
99783.94
99823.82
99862.298
99899.524
99935.613
99970.346
100003.79
100037.11
100067.85
100093.17
100132.72
100157.77
100107.36
100345.05
76084.727
76740.778
76743.945
77435.928
77506.783
78170.189
78361.56
78973.92
79293.484
79869.883
80298.021
80867.126
81378.64
81964.702
82539.695
83156.284
83781.037
84431.746
85095.597
85776.631
86468.877
87171.224
87879.412
88590.342
89299.918
90004.257
90699.215
91380.763
92044.959
92688.119
93306.885
93898.318
94459.964
94989.905
95486.771
95949.742
96378.533
96773.346
97134.825
97463.991
97762.177
98030.964
98272.115
98487.518
98679.127
98848.922
98998.87
99130.889
99246.823
99348.424
99437.348
99515.137
99583.214
99642.879
99695.312
99741.582
99782.645
99819.354
99852.459
99882.618
99910.399
99936.29
99960.71
99984.004
100006.46
100028.31
100049.74
100070.86
100091.75
100112.53
100133.15
100153.34
100173.5
100194.28
100212.08
100227.93
100259.82
100263.94
100215.9
100465.72
76694.361
77440.458
77443.635
78226.72
78317.256
79062.839
79298.112
79984.461
80367.11
81015.039
81517.423
82160.032
82750.643
83412.909
84067.664
84760.938
85462.724
86186.814
86921.345
87668.013
88420.501
89176.155
89929.923
90677.607
91414.363
92135.627
92836.846
93513.804
94162.649
94780.044
95363.226
95910.068
96419.106
96889.533
97321.165
97714.39
98070.108
98389.649
98674.69
98927.178
99149.251
99343.169
99511.252
99655.824
99779.173
99883.517
99970.977
100043.55
100103.11
100151.4
100190
100220.39
100243.85
100261.59
100274.64
100283.95
100290.34
100294.53
100297.14
100298.7
100299.65
100300.37
100301.17
100302.3
100303.95
100306.28
100309.37
100313.26
100318.01
100323.65
100329.97
100336.8
100344.8
100353.68
100359.55
100367.7
100390.74
100375.85
100336.54
100583.06
77441.543
78295.664
78307.941
79203.843
79326.672
80170.865
80465.103
81237.687
81698.044
82427.7
83016.491
83741.404
84420.152
85165.421
85905.581
86679.253
87459.767
88256.714
89058.814
89865.315
90669.275
91466.466
92250.984
93017.68
93761.191
94476.657
95159.608
95806.227
96413.386
96978.738
97500.731
97978.603
98412.335
98802.581
99150.579
99458.056
99727.126
99960.19
100159.84
100328.78
100469.76
100585.5
100678.65
100751.76
100807.26
100847.4
100874.29
100889.87
100895.91
100894.01
100885.63
100872.04
100854.39
100833.69
100810.84
100786.6
100761.64
100736.51
100711.7
100687.59
100664.5
100642.71
100622.41
100603.74
100586.83
100571.72
100558.42
100546.93
100537.26
100529.31
100522.78
100517.73
100514.81
100512.54
100508.01
100510.1
100523.19
100492.09
100464.35
100693.03
78381.122
79371.327
79395.49
80419.271
80580.033
81531.786
81895.272
82760.702
83309.937
84128.186
84813.127
85627.257
86401.328
87234.769
88063.884
88919.222
89776.915
90642.133
91503.639
92358.154
93197.905
94017.251
94809.666
95569.543
96291.618
96971.502
97605.637
98191.444
98727.311
99212.584
99647.492
100033.06
100371
100663.54
100913.35
101123.4
101296.84
101436.9
101546.82
101629.78
101688.86
101726.97
101746.84
101751.04
101741.9
101721.57
101692
101654.93
101611.93
101564.4
101513.56
101460.47
101406.1
101351.25
101296.61
101242.78
101190.23
101139.39
101090.57
101044.04
101000
100958.59
100919.92
100884.05
100850.98
100820.72
100793.18
100768.32
100746.1
100726.28
100708.59
100693.35
100680.74
100668.32
100655.41
100652.77
100654.55
100609.55
100595.56
100805.76
79509.89
80659.047
80689.619
81857.661
82064.987
83135.425
83583.209
84551.63
85205.325
86122.708
86916.567
87829.23
88706.78
89633.481
90553.302
91488.256
92416.483
93338.675
94243.22
95124.57
95974.348
96786.181
97553.724
98271.948
98936.776
99545.409
100096.22
100588.77
101023.67
101402.46
101727.47
102001.63
102228.3
102411.14
102553.99
102660.71
102735.14
102780.97
102801.74
102800.76
102781.13
102745.7
102697.04
102637.53
102569.27
102494.14
102413.84
102329.83
102243.42
102155.72
102067.71
101980.26
101894.06
101809.73
101727.74
101648.51
101572.36
101499.56
101430.3
101364.7
101302.87
101244.83
101190.59
101140.15
101093.42
101050.33
101010.75
100974.63
100941.79
100911.91
100884.9
100861.17
100840.1
100819.03
100800.22
100793.62
100782.49
100726.04
100732.25
100929.06
80795.523
82132.898
82177.596
83514.047
83785.129
84991.254
85545.323
86631.241
87409.241
88439.068
89355.788
90376.203
91363.028
92383.883
93389.554
94393.373
95374.748
96330.315
97248.25
98121.721
98942.772
99705.724
100405.85
101040.19
101607.18
102106.74
102540.07
102909.43
103218
103469.58
103668.46
103819.17
103926.36
103994.64
104028.54
104032.37
104010.15
103965.66
103902.35
103823.37
103731.56
103629.47
103519.37
103403.29
103282.98
103160
103035.7
102911.25
102787.63
102665.7
102546.19
102429.71
102316.73
102207.65
102102.77
102002.36
101906.58
101815.56
101729.35
101647.98
101571.43
101499.67
101432.61
101370.16
101312.2
101258.56
101209.13
101163.77
101122.21
101084.13
101049.67
101019.03
100990.78
100963.09
100940.83
100930.28
100906.26
100844.64
100873.86
101048.59
82255.068
83819.957
83886.094
85419.611
85776.512
87137.27
87824.529
89044.38
89968.501
91124.307
92175.321
93307.945
94401.723
95506.742
96579.585
97625.561
98625.325
99572.959
100457.7
101273.46
102014.6
102678.14
103262.69
103768.8
104198.49
104555.07
104842.83
105066.76
105232.28
105345.03
105410.65
105434.66
105422.35
105378.71
105308.36
105215.53
105104.04
104977.35
104838.54
104690.35
104535.2
104375.19
104212.18
104047.75
103883.29
103719.99
103558.83
103400.66
103246.18
103096
102950.59
102810.3
102675.41
102546.17
102422.71
102305.14
102193.49
102087.75
101987.89
101893.83
101805.48
101722.7
101645.38
101573.34
101506.4
101444.38
101387.13
101334.44
101285.95
101241.49
101201.31
101165.13
101131.11
101098.95
101074.87
101059.54
101024.67
100967.6
101017.71
101156.36
83903.369
85747.895
85849.818
87616.259
88091.984
89630.649
90485.553
91857.399
92948.116
94238.849
95426.124
96662.063
97842.822
99001.482
100100.17
101138.5
102099.88
102978.82
103768.12
104465.14
105068.82
105580.72
106004.03
106343.55
106605.09
106795.16
106920.64
106988.54
107005.72
106978.75
106913.81
106816.62
106692.44
106546
106381.5
106202.68
106012.85
105814.91
105611.37
105404.43
105195.97
104987.62
104780.74
104576.52
104375.93
104179.78
103988.76
103803.4
103624.16
103451.37
103285.27
103126.04
102973.81
102828.65
102690.55
102559.48
102435.37
102318.11
102207.57
102103.6
102006.05
101914.72
101829.44
101749.97
101676.1
101607.64
101544.42
101486.1
101432.34
101383.18
101338.78
101298.26
101259.91
101225.26
101200.23
101179.68
101137.51
101090.32
101153.24
101250.73
85783.329
87975.359
88136.945
90177.115
90815.519
92556.459
93618.03
95156.709
96422.803
97840.571
99143.909
100448.24
101666.61
102818.44
103873.04
104828.89
105675.38
106411.32
107035.91
107552.42
107965.77
108282.78
108511.32
108659.92
108737.35
108752.25
108712.95
108627.27
108502.42
108344.92
108160.64
107954.84
107732.13
107496.5
107251.41
106999.9
106744.56
106487.61
106230.94
105976.16
105724.61
105477.42
105235.52
104999.7
104770.55
104548.56
104334.14
104127.59
103929.09
103738.76
103556.68
103382.88
103217.35
103060
102910.72
102769.36
102635.76
102509.76
102391.13
102279.69
102175.21
102077.46
101986.22
101901.2
101822.2
101749.02
101681.39
101618.91
101561.37
101509.01
101461.61
101417.72
101376.45
101340.99
101315.34
101289.69
101243.74
101206.72
101271
101335.4
87983.378
90607.409
90865.153
93218.125
94069.484
96026.088
97319.178
99022.495
100448.97
101953.3
103314.55
104613.8
105782.67
106834.51
107749.76
108531.71
109179.26
109698.74
110097.33
110384.85
110571.9
110669.68
110689.3
110641.51
110536.36
110383.08
110190.04
109964.65
109713.42
109442.05
109155.51
108858.05
108553.29
108244.26
107933.59
107623.48
107315.78
107012.05
106713.55
106421.34
106136.28
105859.05
105590.2
105330.16
105079.22
104837.61
104605.49
104382.95
104169.95
103966.48
103772.48
103587.87
103412.46
103246.08
103088.53
102939.6
102799.04
102666.63
102542.11
102425.23
102315.73
102213.37
102117.83
102028.86
101946.25
101869.76
101799.02
101733.64
101673.69
101619.34
101569.74
101523.34
101480.7
101445.91
101419.54
101388.54
101340.82
101313.77
101375.95
101416.31
90627.681
93789.724
94203.458
96902.161
98024.049
100187.8
101696.34
103495.61
105022.86
106526.01
107834.41
109010.54
110009.03
110846.79
111519.56
112039.77
112417.23
112666.3
112801.13
112836.5
112786.5
112664.44
112482.43
112251.33
111980.72
111678.95
111353.19
111009.54
110653.22
110288.63
109919.5
109548.87
109179.25
108812.77
108451.19
108095.95
107748.22
107408.92
107078.81
106758.47
106448.33
106148.74
105859.91
105581.98
105315.02
105059.04
104814.02
104579.84
104356.33
104143.38
103940.83
103748.46
103565.99
103393.18
103229.77
103075.47
102930.01
102793.1
102664.45
102543.79
102430.84
102325.29
102226.83
102135.21
102050.23
101971.54
101898.7
101831.53
101770.29
101714.72
101663.42
101615.48
101573.13
101539.78
101511.62
101474.85
101427.95
101413.45
101473.71
101489.29
93878.311
97687.648
98330.34
101358.14
102795.43
105082.53
106755.2
108569.61
110033.09
111378.53
112475.87
113384
114084.25
114602.46
114950.28
115149.35
115218.27
115176.76
115042.62
114832.36
114560.49
114239.71
113880.88
113493.25
113084.59
112661.35
112228.89
111791.62
111353.23
110916.69
110484.41
110058.3
109639.94
109230.61
108831.32
108442.84
108065.78
107700.58
107347.55
107006.9
106678.76
106363.17
106060.11
105769.49
105491.2
105225.12
104971.06
104728.74
104497.92
104278.41
104069.97
103872.27
103684.97
103507.78
103340.38
103182.45
103033.68
102893.76
102762.37
102639.22
102524.01
102416.39
102316.07
102222.82
102136.38
102056.29
101982.19
101914.16
101852.35
101795.89
101743.33
101695.05
101654.09
101621.59
101590.18
101548.75
101506.77
101507.14
101562.85
101547.49
97953.193
102469.09
103429.23
106639.19
108372.16
110754.43
112352.38
113958.09
115172.05
116179.07
116910.55
117425.37
117732.36
117866.56
117851.68
117714.78
117478.24
117162.64
116785.22
116360.73
115901.33
115417.08
114916.18
114405.28
113889.73
113373.83
112861.01
112354.05
111855.15
111365.99
110887.85
110421.74
109968.48
109528.65
109102.64
108690.75
108293.12
107909.82
107540.86
107186.15
106845.59
106519.01
106206.21
105906.94
105620.97
105348.06
105087.91
104840.12
104604.41
104380.53
104168.18
103966.96
103776.5
103596.42
103426.4
103266.11
103115.19
102973.32
102840.19
102715.49
102598.87
102489.98
102388.57
102294.41
102207.12
102126.22
102051.54
101983.31
101921.26
101864.11
101810.99
101763.42
101723.94
101691.06
101656.48
101613.99
101580.12
101592.33
101636.98
101593.07
103129.08
108214.45
109595.53
113018.25
114691.64
116763.72
118114.6
119283.51
120051.13
120565.25
120815.24
120864.7
120741.59
120484.94
120122.41
119679.97
119177.82
118632.88
118058.46
117465.24
116861.56
116254.01
115647.71
115046.63
114453.82
113871.62
113301.85
112745.88
112204.68
111678.91
111169.06
110675.47
110198.32
109737.69
109293.54
108865.78
108454.27
108058.8
107679.14
107315.02
106966.16
106632.28
106313
106007.97
105716.91
105439.5
105175.33
104923.92
104684.96
104458.2
104243.32
104039.83
103847.27
103665.3
103493.56
103331.71
103179.4
103036.29
102902.06
102776.38
102658.89
102549.26
102447.27
102352.62
102264.85
102183.58
102108.84
102040.77
101978.62
101921.11
101868.27
101822.09
101783.77
101750.12
101714.32
101674.85
101647.48
101657.68
101690.21
101643.92
109881.79
115324.68
116825.81
119858.73
121307.46
122783.05
123574.57
124099.22
124262.45
124199.02
123931.93
123522.55
123002.81
122406.31
121755.8
121070.45
120364.21
119647.97
118929.81
118215.83
117510.56
116817.34
116138.64
115476.2
114831.25
114204.65
113596.99
113008.58
112439.49
111889.72
111359.18
110847.72
110355.09
109881.02
109425.17
108987.22
108566.81
108163.55
107777.05
107406.93
107052.8
106714.25
106390.84
106082.14
105787.85
105507.6
105240.86
104987.11
104746.04
104517.47
104301
104096.06
103902.16
103718.94
103546.07
103383.21
103230.01
103086.12
102951.2
102824.92
102706.91
102596.87
102494.58
102399.66
102311.63
102230.29
102155.77
102087.89
102025.63
101968.09
101916.04
101871.29
101833.66
101799.12
101762.68
101726.5
101705.7
101715.14
101733.66
101690.85
118106.4
123407.56
124626.82
126838.23
127581.09
128167.41
128186.53
127971.63
127504.6
126895.15
126173.61
125385.81
124555.25
123703.45
122843.87
121987
121139.85
120307.49
119493.34
118699.72
117928.15
117179.55
116454.42
115752.9
115074.98
114420.5
113789.18
113180.58
112594.24
112029.71
111486.52
110964.17
110462.14
109979.94
109517.06
109072.98
108647.24
108239.31
107848.71
107474.99
107117.7
106776.35
106450.42
106139.48
105843.23
105561.24
105292.88
105037.59
104795.15
104565.43
104347.96
104142.04
103947.16
103763.02
103589.32
103425.7
103271.81
103127.31
102991.84
102865.04
102746.58
102636.2
102533.59
102438.35
102350.08
102268.71
102194.28
102126.32
102063.84
102006.49
101955.33
101911.45
101873.69
101838.28
101802.22
101769.31
101752.79
101761.84
101772.09
101723.64
127130.63
131687.78
132129.9
132967.09
132749.86
132344.43
131600.84
130732.72
129754.12
128731.39
127684.51
126637.37
125600.93
124584.31
123592.33
122628.32
121693.96
120790.14
119917.04
119074.51
118262.08
117479.14
116724.94
115998.68
115299.59
114626.87
113979.71
113357.27
112758.77
112183.51
111630.76
111099.86
110590.13
110100.94
109631.69
109181.79
108750.67
108337.76
107942.53
107564.49
107203.16
106858
106528.44
106214.09
105914.66
105629.66
105358.35
105100.21
104855.13
104622.99
104403.22
104195.04
103997.95
103811.71
103636.04
103470.58
103314.96
103168.85
103031.87
102903.68
102783.96
102672.43
102568.77
102472.55
102383.49
102301.54
102226.58
102158
102095.06
102037.86
101987.25
101943.44
101904.85
101869.04
101835.34
101807.45
101792.7
101793.22
101792.33
101758.85
137369.47
138557.56
138038.91
137307.02
136166.91
134932
133611.56
132287.25
130972.85
129690.96
128447.21
127247.21
126091.96
124981.84
123915.93
122892.99
121911.41
120969.56
120065.71
119198.21
118365.46
117565.94
116798.2
116060.88
115352.75
114672.65
114019.45
113392.11
112789.64
112211.18
111655.87
111122.93
110611.61
110121.19
109651
109200.41
108768.8
108355.56
107960.14
107582.02
107220.69
106875.59
106546.12
106231.92
105932.69
105647.9
105376.77
105118.79
104873.9
104642
104422.46
104214.45
104017.49
103831.38
103655.84
103490.5
103335.01
103189
103052.12
102924.03
102804.41
102692.98
102589.37
102493.22
102404.31
102322.55
102247.64
102179
102116.24
102059.6
102009.48
101965.48
101926.27
101890.84
101859.82
101835.49
101820.19
101812.91
101806.32
101789.86
143579.93
142682.57
141281.42
139697.97
138053.19
136427.65
134845
133323.99
131867.23
130476.66
129149.94
127884.65
126677.42
125525.01
124424.17
123371.82
122365.11
121401.39
120478.24
119593.43
118744.95
117930.95
117149.72
116399.72
115679.55
114987.95
114323.69
113685.65
113072.8
112484.2
111919
111376.36
110855.53
110355.77
109876.4
109416.79
108976.32
108554.37
108150.38
107763.85
107394.3
107041.12
106703.72
106381.75
106074.96
105782.83
105504.53
105239.51
104987.75
104749.24
104523.36
104309.23
104106.32
103914.44
103733.34
103562.68
103402.08
103251.2
103109.67
102977.16
102853.37
102737.98
102630.63
102530.99
102438.86
102354.09
102276.33
102205.07
102140.08
102081.61
102029.74
101983.8
101942.82
101906.72
101876.48
101852.96
101835.62
101822.87
101814.04
101809.41
106551.69
106507.47
106590.16
106682.37
106783.06
106836.56
106862.46
106880.11
106889.11
106877.86
106855.52
106810.17
106770.18
106706.3
106616.44
106512.47
106397.66
106275.07
106142.7
106002.94
105855.16
105701.11
105540.73
105375.43
105205.44
105031.87
104855.07
104675.91
104494.77
104312.3
104128.88
103945.01
103761.04
103577.39
103394.36
103212.32
103031.56
102852.4
102675.12
102500.03
102327.39
102157.48
101990.58
101826.95
101666.88
101510.62
101358.45
101210.65
101067.48
100929.21
100796.12
100668.46
100546.52
100430.5
100320.74
100217.31
100120.72
100030.65
99948.129
99871.876
99804.305
99741.754
99690.141
99640.162
99606.058
99565.722
99552.062
99515.169
99528.127
99487.216
99535.964
99472.627
99576.882
99459.639
99645.398
99444.982
99744.775
99421.722
99870.075
99378.926
106268.62
106267.54
106336.97
106368.89
106359.04
106357.21
106344.42
106317.66
106284.35
106241.31
106187.63
106134.32
106045.91
105958.99
105860.33
105756.87
105644.37
105527.8
105403.97
105276.29
105142.79
105005.72
104863.97
104719
104570.23
104418.64
104264.02
104107.06
103947.79
103786.74
103624.09
103460.28
103295.59
103130.4
102965.03
102799.86
102635.18
102471.37
102308.74
102147.63
101988.36
101831.26
101676.63
101524.82
101376.13
101230.87
101089.37
100951.93
100818.87
100690.49
100567.1
100448.97
100336.43
100229.69
100129.12
100034.8
99947.223
99866.138
99792.471
99725.109
99666.175
99612.447
99569.142
99527.966
99501.64
99470.189
99463.481
99435.785
99454.463
99422.34
99475.426
99421.705
99528.204
99420.201
99608.911
99415.368
99720.069
99398.163
99857.127
99359.524
105692.65
105672.41
105618.3
105569.76
105521.32
105477.13
105419.9
105371.46
105306.27
105250.38
105180.51
105115.06
105039.41
104965.74
104882.1
104799.15
104707.62
104615.06
104515.42
104413.53
104305.71
104194.99
104079.26
103960.4
103837.32
103711.23
103581.64
103449.36
103314.28
103176.97
103037.51
102896.36
102753.73
102609.98
102465.4
102320.32
102175.06
102029.96
101885.35
101741.58
101598.98
101457.91
101318.72
101181.75
101047.37
100915.92
100787.76
100663.24
100542.7
100426.49
100314.95
100208.4
100107.18
100011.54
99921.848
99838.233
99761.168
99690.462
99626.958
99569.685
99520.539
99476.637
99442.645
99411.075
99393.411
99371.449
99372.485
99354.437
99379.498
99356.464
99414.327
99370.031
99479.284
99380.448
99571.27
99386.497
99694.268
99375.967
99843.025
99341.517
104910.7
104876.35
104796.6
104733.84
104669.07
104613.16
104538.39
104482.52
104405.9
104345.83
104267.82
104202.71
104122.81
104051.87
103969.67
103892.84
103807.61
103724.99
103636.08
103547.78
103454.66
103360.82
103263.11
103163.87
103061.35
102956.91
102849.58
102740.17
102628.22
102514.23
102398.06
102280.07
102160.3
102039.06
101916.54
101793.02
101668.77
101544.11
101419.33
101294.78
101170.8
101047.74
100925.97
100805.84
100687.74
100572.04
100459.13
100349.38
100243.18
100140.89
100042.9
99949.549
99861.196
99778.131
99700.731
99629.154
99563.863
99504.719
99452.503
99406.354
99367.99
99334.791
99310.997
99289.741
99281.536
99269.579
99279.093
99271.014
99303.139
99289.393
99352.535
99317.139
99428.604
99340.407
99534.035
99358.127
99668.882
99354.7
99829.346
99324.585
103506.96
103478.98
103428.15
103393.81
103341.94
103314.32
103257.77
103228.38
103171.11
103137.34
103080.05
103041.05
102983.44
102938.88
102880.28
102829.97
102769.42
102713.31
102649.75
102587.85
102520.43
102452.77
102380.8
102307.48
102230.5
102151.57
102069.42
101985.03
101897.79
101808.26
101716.22
101622.06
101525.77
101427.66
101327.86
101226.66
101124.28
101021.02
100917.15
100813.01
100708.91
100605.2
100502.25
100400.42
100300.1
100201.69
100105.58
100012.17
99921.86
99835.041
99752.106
99673.422
99599.373
99530.267
99466.491
99408.231
99355.939
99309.519
99269.695
99235.7
99209.097
99187.494
99174.749
99164.54
99166.528
99165.139
99183.768
99185.995
99225.785
99221.771
99290.722
99264.969
99377.914
99301.237
99496.81
99330.41
99643.438
99334.583
99815.555
99308.917
102149.91
102141.59
102116.07
102111.45
102078.49
102076.72
102039.61
102035.12
101996.56
101986.71
101948.04
101932.17
101893.45
101871.12
101831.67
101802.85
101761.88
101726.93
101683.5
101642.88
101596.34
101550.14
101499.47
101447.93
101392.69
101335.82
101275.78
101213.71
101148.84
101081.78
101012.23
100940.54
100866.65
100790.83
100713.15
100633.86
100553.14
100471.24
100388.41
100304.95
100221.15
100137.37
100053.93
99971.216
99889.595
99809.46
99731.206
99655.238
99581.957
99511.762
99445.059
99382.224
99323.649
99269.661
99220.647
99176.81
99138.589
99105.922
99079.475
99058.565
99044.607
99035.409
99034.487
99036.002
99048.845
99058.538
99086.841
99099.654
99147.643
99153.803
99229.145
99213.257
99329.29
99263.773
99460.396
99303.455
99618.445
99315.624
99802.018
99294.514
100895.05
100901.43
100887.46
100901.05
100879.79
100895.49
100871.26
100884.89
100860.44
100869.87
100846.26
100849.69
100827.15
100823.86
100800.95
100790.94
100767.27
100751.28
100726.21
100704.87
100677.48
100650.91
100619.64
100587.97
100552.61
100515.95
100476.24
100434.73
100390.55
100344.35
100295.74
100245.08
100192.26
100137.52
100080.89
100022.61
99962.793
99901.69
99839.513
99776.531
99713.018
99649.286
99585.652
99522.459
99460.061
99398.829
99339.145
99281.401
99225.997
99173.327
99123.794
99077.778
99035.669
98997.797
98964.54
98936.114
98912.93
98894.953
98882.789
98875.823
98875.327
98879.292
98890.906
98904.776
98929.072