/*--------------------------------*- C++ -*----------------------------------*\
| =========                 |                                                 |
| \\      /  F ield         | OpenFOAM: The Open Source CFD Toolbox           |
|  \\    /   O peration     | Version:  2206                                  |
|   \\  /    A nd           | Website:  www.openfoam.com                      |
|    \\/     M anipulation  |                                                 |
\*---------------------------------------------------------------------------*/
FoamFile
{
    version     2.0;
    format      ascii;
    arch        "LSB;label=32;scalar=64";
    class       surfaceScalarField;
    location    "668";
    object      phi;
}
// * * * * * * * * * * * * * * * * * * * * * * * * * * * * * * * * * * * * * //

dimensions      [1 0 -1 0 0 0 0];

oriented        oriented;

internalField   nonuniform List<scalar> 
31760
(
-0.00089718917
-0.063039888
0.063937078
-0.0022326848
-0.077865689
0.079201185
-0.003534646
-0.076534507
0.077836469
-0.0049385757
-0.083294323
0.084698254
-0.0063745732
-0.085303635
0.086739633
-0.0078908596
-0.090608779
0.092125066
-0.0094581684
-0.094098578
0.095665887
-0.011103565
-0.09914327
0.10078867
-0.012811267
-0.10348507
0.10519277
-0.014596936
-0.10870383
0.1104895
-0.01645215
-0.11368545
0.11554067
-0.01839059
-0.11924321
0.12118165
-0.020405765
-0.1248376
0.12685278
-0.022508165
-0.1308552
0.1329576
-0.024694489
-0.13704978
0.1392361
-0.026972758
-0.14361336
0.14589163
-0.029342802
-0.15043629
0.15280634
-0.031810106
-0.15761757
0.16008487
-0.034375973
-0.16511517
0.16768103
-0.037045042
-0.17298258
0.17565165
-0.03981958
-0.18121126
0.1839858
-0.042703948
-0.189834
0.19271837
-0.045701086
-0.19885843
0.20185557
-0.04881519
-0.20830979
0.21142389
-0.052048769
-0.21820328
0.22143686
-0.055406778
-0.22856048
0.23191849
-0.058893154
-0.23940132
0.2428877
-0.062511539
-0.2507487
0.25436709
-0.066265689
-0.26262431
0.26637846
-0.070160258
-0.27505205
0.27894662
-0.074199111
-0.28805626
0.29209511
-0.078386345
-0.30166251
0.30584975
-0.082725593
-0.31589812
0.32023736
-0.087220986
-0.33078981
0.3352852
-0.091875524
-0.34636774
0.35102228
-0.096691998
-0.36266209
0.36747857
-0.10167301
-0.37970456
0.38468557
-0.10682037
-0.39752901
0.40267636
-0.1121353
-0.41616939
0.42148433
-0.11761792
-0.43566372
0.44114634
-0.12326774
-0.45605018
0.46169999
-0.12908271
-0.47736924
0.4831842
-0.1350595
-0.49966409
0.50564088
-0.1411934
-0.5229801
0.529114
-0.14747735
-0.54736567
0.55364962
-0.15390253
-0.57287082
0.579296
-0.16045702
-0.59954972
0.60610422
-0.16712707
-0.6274585
0.63412854
-0.17389546
-0.6566581
0.66342649
-0.18074121
-0.6872118
0.69405754
-0.18763958
-0.7191864
0.72608477
-0.19456239
-0.75265347
0.75957628
-0.20147615
-0.78768766
0.79460143
-0.20834246
-0.82436782
0.83123413
-0.215118
-0.86277649
0.86955203
-0.22175216
-0.90300126
0.90963542
-0.22818865
-0.94513267
0.95156915
-0.23436408
-0.9892656
0.99544103
-0.24020599
-1.0354998
1.0413418
-0.24563461
-1.0839396
1.0893682
-0.25056028
-1.1346948
1.1396205
-0.25488367
-1.1878809
1.1922043
-0.25849374
-1.2436205
1.2472305
-0.26126703
-1.3020429
1.3048162
-0.26306547
-1.3632816
1.36508
-0.26373568
-1.4274756
1.4281458
-0.26310321
-1.4947631
1.4941307
-0.2609822
-1.5652764
1.5631554
-0.2571543
-1.6391443
1.6353164
-0.25138493
-1.7164869
1.7107176
-0.243403
-1.7974163
1.7894343
-0.23296099
-1.8820719
1.8716299
-0.21968821
-1.970589
1.9573162
-0.20336009
-2.0631899
2.0468618
-0.18338833
-2.1598641
2.1398924
-0.15972652
-2.2610441
2.2373823
-0.13131271
-2.3658856
2.3374718
-0.098567349
-2.4761473
2.443402
-0.059778417
-2.5876467
2.5488577
-2.7089491
2.6653576
-0.00085974713
-0.06218014
-0.0020680587
-0.076657376
-0.0033006473
-0.075301918
-0.0045878002
-0.082007169
-0.0059274453
-0.08396399
-0.0073250506
-0.089211173
-0.0087803414
-0.092643287
-0.010300865
-0.097622746
-0.011883848
-0.10190209
-0.013535903
-0.10705177
-0.015253418
-0.11196794
-0.017048292
-0.11744834
-0.018913776
-0.12297212
-0.020860451
-0.12890852
-0.022884567
-0.13502566
-0.024994443
-0.14150349
-0.027187968
-0.14824277
-0.029472036
-0.1553335
-0.031847108
-0.16274009
-0.034318491
-0.1705112
-0.036888352
-0.1786414
-0.039560742
-0.18716161
-0.042339142
-0.19608003
-0.045227727
-0.20542121
-0.048231309
-0.2151997
-0.051352851
-0.22543894
-0.05459738
-0.23615679
-0.05796907
-0.24737701
-0.061472773
-0.25912061
-0.065112712
-0.27141211
-0.0688939
-0.28427507
-0.072820695
-0.29773572
-0.076897669
-0.31182114
-0.081129303
-0.32655817
-0.085519676
-0.34197737
-0.090073073
-0.3581087
-0.09479267
-0.37498496
-0.099682376
-0.3926393
-0.10474366
-0.4111081
-0.10997858
-0.43042881
-0.1153879
-0.45064086
-0.12097071
-0.47178642
-0.12672466
-0.49391014
-0.13264656
-0.5170582
-0.13873069
-0.54128154
-0.14496933
-0.56663217
-0.15135251
-0.59316655
-0.15786698
-0.62094403
-0.16449709
-0.65002798
-0.17122398
-0.6804849
-0.17802485
-0.71238553
-0.18487308
-0.74580524
-0.19173759
-0.78082315
-0.19858295
-0.81752246
-0.20536846
-0.85599098
-0.21204765
-0.89632207
-0.21856833
-0.93861198
-0.22487155
-0.98296238
-0.23089074
-1.0294807
-0.23655233
-1.078278
-0.24177376
-1.1294734
-0.24646344
-1.1831912
-0.25051907
-1.2395648
-0.25382837
-1.2987336
-0.25626474
-1.3608452
-0.25768905
-1.4260513
-0.25794061
-1.4945116
-0.25684523
-1.5663717
-0.25420693
-1.6417826
-0.24980804
-1.7208858
-0.24341019
-1.8038141
-0.23476
-1.8907221
-0.22356223
-1.9817868
-0.20953769
-2.0772144
-0.19226611
-2.1771357
-0.17152492
-2.2817853
-0.14660409
-2.3908064
-0.11750897
-2.5052425
-0.083069763
-2.6220859
-2.7478848
-0.0007644734
-0.061415666
-0.0018717529
-0.075550096
-0.0030182787
-0.074155392
-0.0042147745
-0.080810673
-0.0054383402
-0.082740424
-0.0067320607
-0.087917452
-0.0080656823
-0.091309665
-0.0094703349
-0.096218093
-0.010924417
-0.10044801
-0.012449385
-0.1055268
-0.014029052
-0.11038827
-0.015683772
-0.11579362
-0.017400414
-0.12125548
-0.019193825
-0.12711511
-0.021056984
-0.1331625
-0.022999953
-0.13956052
-0.025020675
-0.14622205
-0.027126033
-0.15322814
-0.029317464
-0.16054866
-0.03159977
-0.16822889
-0.033976134
-0.17626503
-0.036451082
-0.18468666
-0.039027837
-0.19350328
-0.041711898
-0.20273714
-0.044506164
-0.21240543
-0.047416474
-0.22252863
-0.050446278
-0.23312699
-0.053601353
-0.24422194
-0.056885663
-0.2558363
-0.060305448
-0.26799233
-0.063864661
-0.28071586
-0.067569124
-0.29403125
-0.071424364
-0.3079659
-0.075434932
-0.3225476
-0.079606956
-0.33780534
-0.083945259
-0.35377039
-0.088455166
-0.37047505
-0.093140201
-0.38795427
-0.098004821
-0.40624348
-0.10305182
-0.42538181
-0.10828254
-0.44541014
-0.11369798
-0.46637097
-0.11929762
-0.48831051
-0.12507821
-0.5112776
-0.13103572
-0.53532403
-0.13716338
-0.56050451
-0.14345255
-0.58687738
-0.14989081
-0.61450577
-0.15646457
-0.64345422
-0.16315586
-0.67379361
-0.16994306
-0.70559833
-0.17680252
-0.73894578
-0.18370518
-0.77392049
-0.19061823
-0.81060941
-0.19750426
-0.84910495
-0.20432069
-0.88950565
-0.21101991
-0.93191275
-0.21754692
-0.97643538
-0.22384225
-1.0231853
-0.22983753
-1.0722828
-0.23545819
-1.1238527
-0.24062028
-1.1780291
-0.24523185
-1.2349533
-0.24918958
-1.2947758
-0.25237887
-1.3576559
-0.25467079
-1.4237594
-0.25592679
-1.4932556
-0.25598436
-1.5663142
-0.25466205
-1.6431049
-0.25176711
-1.7237808
-0.24707634
-1.8085049
-0.24036173
-1.8974367
-0.23135882
-1.9907897
-0.21979696
-2.0887763
-0.20532827
-2.1916044
-0.18767612
-2.2994375
-0.16631164
-2.4121709
-0.14107425
-2.5304799
-0.11109651
-2.6520636
-2.7821035
-0.00069266941
-0.060722996
-0.001695323
-0.074547442
-0.0027282182
-0.073122496
-0.003837795
-0.079701096
-0.0049541108
-0.081624108
-0.006145775
-0.086725787
-0.0073641864
-0.090091254
-0.0086565049
-0.094925774
-0.0099872052
-0.099117305
-0.011389598
-0.10412441
-0.012835266
-0.1089426
-0.014352984
-0.1142759
-0.015925416
-0.11968304
-0.017571335
-0.12546919
-0.019282225
-0.13145161
-0.021070502
-0.13777224
-0.022933068
-0.14435948
-0.024877927
-0.15128329
-0.026905074
-0.15852152
-0.029021117
-0.16611285
-0.031227275
-0.17405888
-0.033529675
-0.18238426
-0.035931294
-0.19110166
-0.038436397
-0.20023204
-0.041050067
-0.20979176
-0.043776519
-0.21980218
-0.046621246
-0.23028226
-0.049589307
-0.24125388
-0.052687352
-0.25273825
-0.055919856
-0.26475982
-0.059293848
-0.27734187
-0.062815841
-0.29050926
-0.066491949
-0.30428979
-0.070328983
-0.31871057
-0.074333617
-0.33380071
-0.078511776
-0.34959223
-0.082869475
-0.36611735
-0.087412708
-0.38341104
-0.092145826
-0.40151036
-0.097072992
-0.42045465
-0.1021976
-0.44028553
-0.10752044
-0.46104814
-0.11304197
-0.48278898
-0.11876047
-0.5055591
-0.12467199
-0.52941252
-0.13077147
-0.55440503
-0.13704945
-0.5805994
-0.14349695
-0.60805827
-0.15009959
-0.63685158
-0.15684146
-0.66705174
-0.16370358
-0.69873621
-0.17066274
-0.73198663
-0.17769321
-0.76689002
-0.18476551
-0.80353711
-0.1918444
-0.84202606
-0.19889262
-0.88245742
-0.20586612
-0.92493926
-0.21271623
-0.96958526
-0.21938863
-1.0165129
-0.22582227
-1.0658491
-0.23194958
-1.1177254
-0.23769545
-1.1722832
-0.24297708
-1.2296716
-0.24770184
-1.2900511
-0.25176708
-1.3535907
-0.2550607
-1.4204657
-0.25744795
-1.4908683
-0.25879205
-1.5649701
-0.25892578
-1.6429711
-0.2576759
-1.7250306
-0.25484431
-1.8113365
-0.25020844
-1.9020726
-0.2435497
-1.9974484
-0.23460508
-2.0977209
-0.22308378
-2.2031257
-0.20870156
-2.3138197
-0.1910164
-2.4298561
-0.16981713
-2.5516791
-0.14441112
-2.6774696
-2.8114636
-0.00063145978
-0.060091536
-0.0015434634
-0.073635438
-0.0024423602
-0.072223599
-0.0034735255
-0.07866993
-0.0044924152
-0.080605218
-0.0055849661
-0.085633236
-0.0066921834
-0.088984036
-0.0078726805
-0.093745277
-0.0090819685
-0.097908017
-0.01036526
-0.10284112
-0.0116838
-0.10762406
-0.013076948
-0.11288275
-0.014522546
-0.11823745
-0.016041827
-0.12394991
-0.017623779
-0.12986966
-0.019280656
-0.13611536
-0.021008547
-0.14263159
-0.022815619
-0.14947621
-0.024701511
-0.15663562
-0.026672046
-0.16414231
-0.02873011
-0.17200081
-0.030879548
-0.18023482
-0.033125387
-0.18885582
-0.035472743
-0.19788469
-0.037926241
-0.20733826
-0.040492113
-0.2172363
-0.043176598
-0.22759778
-0.045986107
-0.23844437
-0.048927368
-0.24979699
-0.052007942
-0.26167925
-0.055235422
-0.27411439
-0.058617381
-0.2871273
-0.062161719
-0.30074546
-0.065876782
-0.31499551
-0.069769827
-0.32990766
-0.073848365
-0.3455137
-0.078119488
-0.36184623
-0.082589803
-0.37894072
-0.08726464
-0.39683553
-0.092148929
-0.41557036
-0.097245776
-0.43518868
-0.10255799
-0.45573592
-0.10808543
-0.47726154
-0.11382705
-0.49981748
-0.1197804
-0.52345917
-0.12593936
-0.54824607
-0.13229698
-0.57424177
-0.13884339
-0.60151187
-0.14556615
-0.63012882
-0.15245123
-0.66016666
-0.15948043
-0.69170701
-0.16663386
-0.7248332
-0.1738879
-0.75963597
-0.18121569
-0.79620932
-0.18858744
-0.83465432
-0.19596868
-0.87507618
-0.20332034
-0.91758759
-0.21060041
-0.96230519
-0.21776001
-1.0093533
-0.22474601
-1.0588631
-0.23149809
-1.1109733
-0.23795025
-1.1658311
-0.24402874
-1.2235931
-0.24965241
-1.2844274
-0.25473074
-1.3485124
-0.25916102
-1.4160355
-0.26283421
-1.4871951
-0.26561404
-1.5621903
-0.26736882
-1.6412164
-0.26792402
-1.7244755
-0.26711234
-1.8121482
-0.26473841
-1.9044465
-0.26059655
-2.0015903
-0.25445812
-2.1038593
-0.24606281
-2.211521
-0.23513721
-2.3247453
-0.2213155
-2.4436778
-0.20436419
-2.5686304
-0.18373048
-2.6981033
-2.8358329
-0.00057670927
-0.059514827
-0.0014179951
-0.072794152
-0.0022136838
-0.07142791
-0.0031500836
-0.07773353
-0.0040584198
-0.079696881
-0.005065826
-0.08462583
-0.0060723891
-0.087977473
-0.0071491842
-0.092668481
-0.0082627658
-0.096794435
-0.0094179287
-0.10168596
-0.010648383
-0.10639361
-0.011950485
-0.11158065
-0.013298299
-0.11688963
-0.014714333
-0.12253388
-0.016186361
-0.12839763
-0.017728121
-0.1345736
-0.019335321
-0.14102439
-0.021016344
-0.14779519
-0.022772207
-0.15487976
-0.024608841
-0.16230568
-0.026530123
-0.17007953
-0.028542009
-0.17822294
-0.03064964
-0.18674819
-0.032859231
-0.19567509
-0.03517739
-0.2050201
-0.037611619
-0.21480208
-0.040168284
-0.22504111
-0.042856218
-0.23575644
-0.045683405
-0.2469698
-0.048658419
-0.25870423
-0.05179057
-0.27098224
-0.055088394
-0.28382948
-0.05856191
-0.29727194
-0.062218938
-0.31133848
-0.066069178
-0.32605742
-0.070121136
-0.34146174
-0.0743821
-0.35758526
-0.078859183
-0.37446364
-0.083558909
-0.3921358
-0.088485819
-0.41064345
-0.093644063
-0.43003044
-0.099035095
-0.45034489
-0.1046603
-0.47163634
-0.11051871
-0.49395907
-0.11660649
-0.51737139
-0.12291918
-0.54193338
-0.12945093
-0.56771002
-0.13619141
-0.59477139
-0.14313093
-0.62318931
-0.15025494
-0.65304265
-0.15754947
-0.68441248
-0.16499589
-0.71738678
-0.17257395
-0.75205792
-0.18026046
-0.78852281
-0.18802918
-0.82688561
-0.19585056
-0.8672548
-0.20369239
-0.90974576
-0.21151683
-0.95448076
-0.21928285
-1.0015873
-0.22694365
-1.0512023
-0.23444864
-1.1034683
-0.2417402
-1.1585395
-0.2487551
-1.2165782
-0.25542271
-1.2777598
-0.26166445
-1.3422706
-0.26739236
-1.4103076
-0.27250783
-1.4820797
-0.27690237
-1.5577957
-0.28044285
-1.6376759
-0.28299555
-1.7219228
-0.28439687
-1.8107468
-0.28447859
-1.9043648
-0.28305906
-2.0030098
-0.27993362
-2.1069848
-0.27487508
-2.2165796
-0.2676347
-2.3319857
-0.25788148
-2.453431
-0.24540574
-2.5811062
-0.22975013
-2.7137589
-2.8549669
-0.00051923882
-0.058995588
-0.001297765
-0.072015626
-0.0020149188
-0.070710756
-0.0028502597
-0.076898189
-0.0036874491
-0.078859692
-0.0045932619
-0.083720017
-0.0055305725
-0.087040162
-0.0065677495
-0.091631304
-0.0075982895
-0.095763895
-0.0087275178
-0.10055673
-0.0098629303
-0.1052582
-0.011065239
-0.11037834
-0.012307223
-0.11564765
-0.013613153
-0.12122794
-0.014971962
-0.12703882
-0.016397166
-0.1331484
-0.017886687
-0.13953487
-0.019449049
-0.14623283
-0.021086189
-0.15324262
-0.022805719
-0.16058615
-0.024611393
-0.16827386
-0.026511035
-0.1763233
-0.028510371
-0.18474885
-0.03061672
-0.19356875
-0.032838182
-0.20279864
-0.035182624
-0.21245763
-0.037659778
-0.22256396
-0.040278283
-0.23313793
-0.043047459
-0.24420063
-0.045978243
-0.25577345
-0.049080065
-0.26788041
-0.052363564
-0.28054598
-0.055838658
-0.29379685
-0.059516189
-0.30766095
-0.063404672
-0.32216894
-0.06751356
-0.33735285
-0.071851627
-0.3532472
-0.076425761
-0.3698895
-0.081241914
-0.38731965
-0.086305111
-0.40558025
-0.091619063
-0.42471649
-0.097185423
-0.44477853
-0.10300498
-0.46581678
-0.10907591
-0.48788813
-0.11539613
-0.51105117
-0.12196092
-0.5353686
-0.12876378
-0.56090716
-0.13579771
-0.58773746
-0.1430521
-0.61593491
-0.15051671
-0.64557804
-0.15817764
-0.67675156
-0.16602031
-0.7095441
-0.17402827
-0.74404996
-0.18218179
-0.78036929
-0.19045975
-0.81860765
-0.19883749
-0.85887706
-0.20728843
-0.90129482
-0.21578189
-0.94598729
-0.22428347
-0.99308573
-0.23275542
-1.0427304
-0.24115427
-1.0950695
-0.24943287
-1.1502609
-0.25753776
-1.2084733
-0.26541014
-1.2698874
-0.27298419
-1.3346966
-0.28018526
-1.4031065
-0.28693013
-1.4753348
-0.29312525
-1.5516006
-0.29865906
-1.6321421
-0.30340873
-1.7171731
-0.3072414
-1.8069142
-0.31000374
-1.9016025
-0.31153456
-2.001479
-0.31166565
-2.1068537
-0.31019335
-2.2180519
-0.30689008
-2.3352889
-0.30147299
-2.4588481
-0.29374532
-2.5888338
-0.2833031
-2.7242012
-2.8685632
-0.00044490663
-0.058550681
-0.0011501662
-0.071310366
-0.0018107963
-0.070050126
-0.0026336738
-0.076075311
-0.0034074722
-0.078085893
-0.004306263
-0.082821226
-0.0051572333
-0.086189192
-0.0061177837
-0.090670754
-0.0070549803
-0.094826699
-0.0081095031
-0.099502205
-0.0091449159
-0.10422278
-0.010247918
-0.10927534
-0.011391609
-0.11450396
-0.012600175
-0.12001938
-0.013863041
-0.12577596
-0.015194137
-0.1318173
-0.01659085
-0.13813816
-0.018063354
-0.14476032
-0.019614143
-0.15169183
-0.021250968
-0.15894932
-0.022979606
-0.16654522
-0.024807807
-0.1744951
-0.026743195
-0.18281346
-0.028795455
-0.19151649
-0.030972263
-0.20062183
-0.033284442
-0.21014545
-0.035741596
-0.2201068
-0.038354797
-0.23052473
-0.041135244
-0.24142018
-0.044094136
-0.25281456
-0.047242753
-0.2647318
-0.050592795
-0.27719594
-0.054155531
-0.29023411
-0.057941074
-0.30387541
-0.06195983
-0.31815018
-0.066221246
-0.33309143
-0.070732901
-0.34873554
-0.075502109
-0.3651203
-0.080534617
-0.38228714
-0.085834681
-0.40028019
-0.09140502
-0.41914615
-0.097247928
-0.43893562
-0.10336243
-0.45970228
-0.1097476
-0.48150297
-0.11640078
-0.50439799
-0.12331776
-0.52845161
-0.13049353
-0.55373139
-0.13792172
-0.58030927
-0.14559456
-0.60826208
-0.15350321
-0.63766939
-0.16163793
-0.66861684
-0.16998663
-0.7011954
-0.17853679
-0.7354998
-0.18727366
-0.77163241
-0.19618123
-0.80970009
-0.20524128
-0.84981701
-0.21443248
-0.89210362
-0.22373159
-0.93668818
-0.23311226
-0.98370505
-0.24254443
-1.0332982
-0.2519944
-1.0856195
-0.26142439
-1.1408309
-0.27079175
-1.199106
-0.28004963
-1.2606295
-0.28914415
-1.325602
-0.29801616
-1.3942345
-0.30659702
-1.4667539
-0.31480703
-1.5433906
-0.32255811
-1.624391
-0.32975038
-1.7099808
-0.33625481
-1.8004097
-0.3419537
-1.8959036
-0.34670265
-1.99673
-0.35035824
-2.1031981
-0.35275576
-2.2156543
-0.35369225
-2.3343524
-0.352912
-2.4596284
-0.3502503
-2.5914956
-0.34533218
-2.7291193
-2.8762816
-0.00038548977
-0.058165191
-0.0010535793
-0.070642276
-0.00167176
-0.069431946
-0.002470908
-0.075276163
-0.0031614285
-0.077395373
-0.0040227822
-0.081959872
-0.0047982721
-0.085413702
-0.0056708198
-0.089798206
-0.0065417585
-0.09395576
-0.0074818667
-0.098562096
-0.0084525001
-0.10325215
-0.0094898359
-0.108238
-0.01056829
-0.1134255
-0.011711505
-0.11887616
-0.012911124
-0.12457634
-0.014180283
-0.13054814
-0.015519703
-0.13679874
-0.016938343
-0.14334168
-0.01844101
-0.15018917
-0.020036768
-0.15735356
-0.02173232
-0.16484967
-0.023537631
-0.17268979
-0.025461135
-0.18088996
-0.027513369
-0.18946425
-0.029705514
-0.19842969
-0.032048477
-0.20780249
-0.034554668
-0.21760061
-0.037236313
-0.22784308
-0.040105647
-0.23855085
-0.043175847
-0.24974436
-0.046459534
-0.26144811
-0.049968319
-0.27368715
-0.05371367
-0.28648876
-0.057706906
-0.29988217
-0.061957718
-0.31389937
-0.066474299
-0.32857485
-0.071264535
-0.34394531
-0.076334489
-0.36005034
-0.081688537
-0.37693309
-0.087330431
-0.39463829
-0.093261908
-0.41321467
-0.099483625
-0.4327139
-0.10599567
-0.45319023
-0.1127971
-0.47470155
-0.11988514
-0.49730995
-0.12725698
-0.52107976
-0.13490871
-0.54607966
-0.14283598
-0.572382
-0.15103384
-0.60006421
-0.15949595
-0.62920727
-0.16821621
-0.65989658
-0.17718727
-0.69222434
-0.18640057
-0.7262865
-0.19584728
-0.7621857
-0.20551648
-0.80003088
-0.21539632
-0.83993717
-0.22547217
-0.88202777
-0.23572902
-0.92643133
-0.24614779
-0.97328628
-0.25670717
-1.0227388
-0.26738333
-1.0749433
-0.27814853
-1.1300657
-0.2889716
-1.1882829
-0.29981647
-1.2497847
-0.31064423
-1.3147743
-0.32140857
-1.3834701
-0.33205847
-1.456104
-0.34253001
-1.532919
-0.35275447
-1.6141665
-0.36264311
-1.7000922
-0.37210382
-1.790949
-0.38102727
-1.8869801
-0.38930001
-1.9884573
-0.39679753
-2.0957006
-0.40339144
-2.2090604
-0.40890436
-2.3288395
-0.41311111
-2.4554216
-0.41590062
-2.588706
-0.41688851
-2.7281314
-2.8777302
-0.00034797021
-0.057817221
-0.0010212306
-0.069969016
-0.001591748
-0.068861428
-0.0023267927
-0.074541118
-0.0029592911
-0.076762874
-0.0037274243
-0.081191738
-0.0044533187
-0.084687808
-0.0052833934
-0.088968131
-0.0061049739
-0.093134179
-0.0070065148
-0.097660555
-0.0079292318
-0.10232943
-0.0089189137
-0.10724832
-0.0099535981
-0.11239082
-0.011055311
-0.11777445
-0.012218635
-0.12341301
-0.013456224
-0.12931055
-0.014770775
-0.13548419
-0.016172122
-0.14194033
-0.017666912
-0.14869438
-0.019264202
-0.15575627
-0.020974777
-0.16313909
-0.022807953
-0.17085661
-0.024776347
-0.17892156
-0.026891477
-0.18734912
-0.029166134
-0.19615503
-0.031614148
-0.20535448
-0.034249097
-0.21496567
-0.037084522
-0.22500766
-0.040134919
-0.23550045
-0.043413263
-0.24646601
-0.046932136
-0.25792924
-0.050704137
-0.26991515
-0.054740103
-0.28245279
-0.0590502
-0.29557207
-0.063642953
-0.30930662
-0.068525668
-0.32369214
-0.073704253
-0.33876672
-0.079183242
-0.35457135
-0.084966483
-0.37114985
-0.091055778
-0.388549
-0.09745256
-0.40681789
-0.10415748
-0.42600898
-0.11117032
-0.44617739
-0.11848983
-0.46738204
-0.12611545
-0.48968433
-0.13404595
-0.51314927
-0.14227926
-0.53784635
-0.15081385
-0.5638474
-0.15964785
-0.59123022
-0.16877939
-0.62007573
-0.17820551
-0.65047046
-0.18792457
-0.68250528
-0.19793292
-0.71627815
-0.208227
-0.75189162
-0.21880269
-0.78945519
-0.2296544
-0.82908546
-0.24077587
-0.8709063
-0.2521586
-0.9150486
-0.26379299
-0.96165189
-0.27566711
-1.0108647
-0.28776583
-1.0628446
-0.30007268
-1.1177588
-0.31256764
-1.175788
-0.32522812
-1.2371242
-0.33802714
-1.3019752
-0.35093393
-1.3705633
-0.36391182
-1.4431261
-0.37691869
-1.5199122
-0.38989961
-1.6011856
-0.40279214
-1.6871996
-0.41552338
-1.7782178
-0.42799808
-1.8745054
-0.44012997
-1.9763254
-0.45182489
-2.0840057
-0.46298756
-2.1978978
-0.4734591
-2.318368
-0.48306104
-2.4458197
-0.49170774
-2.5800593
-0.49903295
-2.7208062
-2.8724515
-0.00031126398
-0.057505957
-0.00099180861
-0.069288471
-0.0014988594
-0.068354377
-0.0022103056
-0.073829672
-0.002800324
-0.076172856
-0.0035473554
-0.080444707
-0.0042364469
-0.083998716
-0.0050323218
-0.088172256
-0.0058229292
-0.092343572
-0.0066921876
-0.096791297
-0.0075902848
-0.10143134
-0.0085572179
-0.10628139
-0.009575244
-0.11137279
-0.010664232
-0.11668546
-0.011822372
-0.12225487
-0.013061906
-0.12807102
-0.014388364
-0.13415773
-0.015812213
-0.14051649
-0.017343549
-0.14716304
-0.018993685
-0.15410613
-0.020774426
-0.16135835
-0.022699406
-0.16893163
-0.024781867
-0.1768391
-0.027036521
-0.18509447
-0.029478707
-0.19371284
-0.032122677
-0.20271051
-0.03498364
-0.2121047
-0.03807641
-0.22191489
-0.041415238
-0.23216162
-0.045012398
-0.24286885
-0.048881415
-0.25406022
-0.053032187
-0.26576438
-0.057475221
-0.27800976
-0.062217855
-0.29082944
-0.067266744
-0.30425773
-0.072627915
-0.31833097
-0.078305336
-0.3330893
-0.084301739
-0.34857495
-0.090619415
-0.36483217
-0.097260114
-0.3819083
-0.10422469
-0.39985331
-0.11151393
-0.41871974
-0.11912809
-0.43856322
-0.12706839
-0.45944175
-0.13533555
-0.48141716
-0.14393028
-0.50455454
-0.15285483
-0.5289218
-0.1621101
-0.55459214
-0.17169897
-0.58164134
-0.18162363
-0.61015108
-0.19188702
-0.64020707
-0.20249109
-0.67190121
-0.21343911
-0.70533013
-0.22473388
-0.74059685
-0.23637737
-0.77781171
-0.2483715
-0.81709133
-0.26071783
-0.85855997
-0.27341621
-0.90235022
-0.2864656
-0.9486025
-0.29986315
-0.99746717
-0.31360568
-1.0491021
-0.32768616
-1.1036784
-0.34209686
-1.1613773
-0.35682766
-1.2223934
-0.37186585
-1.2869371
-0.38719582
-1.3552334
-0.40279821
-1.4275238
-0.41864558
-1.5040648
-0.43470883
-1.5851223
-0.45094342
-1.6709651
-0.46729006
-1.7618712
-0.48369432
-1.8581012
-0.50007548
-1.9599442
-0.51636864
-2.0677125
-0.53250728
-2.1817591
-0.54838213
-2.3024931
-0.56383506
-2.4303668
-0.57880012
-2.5650943
-0.59292619
-2.7066801
-2.8598781
-0.00028019686
-0.05722576
-0.000982617
-0.068586051
-0.0014461212
-0.067890873
-0.002150102
-0.073125691
-0.0027187992
-0.075604159
-0.0034517595
-0.079711746
-0.0041269061
-0.083323569
-0.0049106925
-0.08738847
-0.0056928976
-0.091561367
-0.0065542446
-0.09592995
-0.0074502787
-0.1005353
-0.0084177121
-0.10531395
-0.0094449043
-0.1103456
-0.010550058
-0.11558031
-0.011736071
-0.12106886
-0.013015791
-0.1267913
-0.014398582
-0.13277494
-0.015897253
-0.13901781
-0.017523927
-0.14553637
-0.019293548
-0.15233651
-0.021220183
-0.15943172
-0.023319742
-0.16683207
-0.025607739
-0.17455111
-0.028100608
-0.1826016
-0.030814522
-0.19099893
-0.033765382
-0.19975965
-0.036967905
-0.20890218
-0.040436891
-0.2184459
-0.044184792
-0.22841372
-0.048224299
-0.23882935
-0.052564781
-0.24971974
-0.057215323
-0.26111384
-0.062183177
-0.27304191
-0.067473842
-0.28553877
-0.073091845
-0.29863973
-0.079040621
-0.31238219
-0.085322185
-0.32680774
-0.091938859
-0.34195828
-0.098891779
-0.35787925
-0.10618263
-0.37461745
-0.11381298
-0.39222296
-0.12178478
-0.41074794
-0.13010085
-0.43024716
-0.13876406
-0.45077854
-0.14777807
-0.47240315
-0.15714801
-0.4951846
-0.16687894
-0.51919087
-0.1769771
-0.54449398
-0.18744905
-0.57116939
-0.19830253
-0.59929761
-0.20954543
-0.62896416
-0.22118707
-0.66025957
-0.23323599
-0.6932812
-0.24570173
-0.72813111
-0.25859324
-0.7649202
-0.27192088
-0.80376369
-0.28569305
-0.8447878
-0.29991879
-0.88812448
-0.31460649
-0.9339148
-0.32976379
-0.98230987
-0.34539669
-1.0334692
-0.36151079
-1.0875643
-0.37811022
-1.1447778
-0.3951979
-1.2053057
-0.41277575
-1.2693592
-0.43084351
-1.3371656
-0.4493982
-1.4089691
-0.4684327
-1.4850303
-0.48793875
-1.5656163
-0.507888
-1.6510158
-0.52825605
-1.7415031
-0.54899364
-1.8373636
-0.57005519
-1.9388827
-0.59140301
-2.0463647
-0.61299631
-2.1601658
-0.63475702
-2.2807324
-0.65658174
-2.408542
-0.67839523
-2.5432808
-0.69984182
-2.6852335
-2.8393341
-0.00024814737
-0.056977612
-0.00099966757
-0.067834531
-0.0014424482
-0.067448092
-0.0021502258
-0.072417914
-0.0027087971
-0.075045587
-0.0034395424
-0.078981001
-0.0041123558
-0.082650756
-0.0048948736
-0.086605952
-0.0056838464
-0.090772394
-0.0065546074
-0.095059189
-0.0074719261
-0.099617982
-0.0084683676
-0.10431751
-0.009539546
-0.10927442
-0.010702706
-0.11441715
-0.011965895
-0.11980567
-0.013343152
-0.12541404
-0.014847578
-0.13127051
-0.016494173
-0.13737122
-0.018298747
-0.14373179
-0.020277414
-0.15035785
-0.022447719
-0.15726141
-0.024826766
-0.16445302
-0.027431742
-0.17194613
-0.030280133
-0.17975321
-0.033387853
-0.18789121
-0.036770128
-0.19637737
-0.04044182
-0.20523049
-0.044414389
-0.21447333
-0.048699102
-0.22412901
-0.053304829
-0.23422362
-0.058238951
-0.24478562
-0.063507476
-0.25584531
-0.069113413
-0.26743597
-0.075061264
-0.27959092
-0.081352514
-0.29234848
-0.087988621
-0.30574608
-0.094971667
-0.31982469
-0.10230254
-0.3346274
-0.10998423
-0.35019757
-0.11801899
-0.36658268
-0.1264101
-0.38383184
-0.13516196
-0.40199609
-0.14428046
-0.42112866
-0.15377189
-0.44128711
-0.16364413
-0.46253091
-0.17390635
-0.48492238
-0.18456839
-0.50852883
-0.19564135
-0.53342102
-0.20713779
-0.55967295
-0.21907053
-0.58736487
-0.23145406
-0.61658063
-0.24430242
-0.64741121
-0.25763243
-0.67995119
-0.27145971
-0.71430384
-0.28580188
-0.75057802
-0.30067554
-0.78889003
-0.31609917
-0.82936417
-0.33209027
-0.87213339
-0.34866653
-0.91733854
-0.36584659
-0.96512981
-0.38364701
-1.0156688
-0.4020853
-1.069126
-0.42117855
-1.1256846
-0.44094335
-1.1855409
-0.46139556
-1.248907
-0.4825516
-1.3160096
-0.50442679
-1.3870939
-0.52703516
-1.4624219
-0.55038194
-1.5422695
-0.57447145
-1.6269263
-0.59929587
-1.7166787
-0.62483844
-1.811821
-0.65107142
-1.9126497
-0.677973
-2.0194631
-0.70554331
-2.1325955
-0.73373627
-2.2525395
-0.76252278
-2.3797555
-0.79178873
-2.5140149
-0.82115246
-2.6558698
-2.8100573
-0.00021743596
-0.056760176
-0.0010235173
-0.067028449
-0.0014487167
-0.067022893
-0.0021641866
-0.071702444
-0.0027220992
-0.074487675
-0.0034616825
-0.078241418
-0.0041512798
-0.081961159
-0.0049550196
-0.085802212
-0.0057803998
-0.089947014
-0.0066949856
-0.094144603
-0.0076746109
-0.098638357
-0.0087473514
-0.10324477
-0.0099165769
-0.1081052
-0.011199062
-0.11313466
-0.012607912
-0.11839682
-0.014159054
-0.1238629
-0.015869396
-0.12956017
-0.017756361
-0.13548425
-0.019838595
-0.14164956
-0.022134699
-0.14806174
-0.024663284
-0.15473283
-0.027442969
-0.16167334
-0.030491728
-0.16889737
-0.033825341
-0.17641959
-0.03745931
-0.18425724
-0.041406657
-0.19243002
-0.045678332
-0.20095881
-0.050283765
-0.2098679
-0.055229956
-0.21918282
-0.060521941
-0.22893163
-0.066163062
-0.23914449
-0.072156165
-0.24985221
-0.078502473
-0.26108966
-0.085202918
-0.27289048
-0.09225878
-0.28529262
-0.099671144
-0.29833372
-0.1074418
-0.31205403
-0.11557444
-0.32649477
-0.12407178
-0.34170023
-0.13293996
-0.3577145
-0.14218501
-0.37458679
-0.15181618
-0.39236492
-0.16184177
-0.41110307
-0.17227329
-0.43085558
-0.18312394
-0.45168026
-0.19440672
-0.4736396
-0.20613742
-0.49679813
-0.218333
-0.52122544
-0.23101093
-0.54699502
-0.24419094
-0.57418487
-0.25789288
-0.60287869
-0.27213932
-0.63316477
-0.28695193
-0.66513859
-0.30235463
-0.69890114
-0.31837268
-0.73455997
-0.33503153
-0.77223118
-0.35235739
-0.81203831
-0.37037855
-0.85411222
-0.38912274
-0.89859435
-0.40861795
-0.9456346
-0.42889357
-0.99539315
-0.4499795
-1.0480401
-0.4719056
-1.1037585
-0.49470203
-1.1627445
-0.51840165
-1.2252074
-0.54303674
-1.2913745
-0.56864043
-1.3614902
-0.59524567
-1.4358167
-0.62288175
-1.5146334
-0.65157884
-1.5982292
-0.68135384
-1.6869037
-0.71221172
-1.7809631
-0.74415318
-1.8807082
-0.77718764
-1.9864286
-0.81131882
-2.0984643
-0.84655581
-2.2173025
-0.88293725
-2.3433741
-0.9203641
-2.476588
-0.95836061
-2.6178733
-2.7712324
-0.00020333067
-0.056556846
-0.0010019446
-0.066229835
-0.0014296102
-0.066595227
-0.0021759954
-0.070956058
-0.0027619721
-0.073901698
-0.0035388028
-0.077464587
-0.0042800152
-0.081219946
-0.0051408599
-0.084941367
-0.0060443924
-0.089043481
-0.0070486542
-0.093140341
-0.0081423711
-0.09754464
-0.0093496975
-0.10203745
-0.010682388
-0.10677251
-0.012157626
-0.11165942
-0.013794148
-0.1167603
-0.015610172
-0.12204688
-0.0176265
-0.12754384
-0.019862953
-0.1332478
-0.022340472
-0.13917204
-0.0250789
-0.14532331
-0.028097731
-0.15171399
-0.031414461
-0.15835661
-0.035045011
-0.16526682
-0.03900362
-0.17246098
-0.043301155
-0.17995971
-0.047947075
-0.1877841
-0.052947136
-0.19595875
-0.058305979
-0.20450906
-0.064026275
-0.21346252
-0.07010884
-0.22284907
-0.076554324
-0.23269901
-0.083362142
-0.24304439
-0.090532797
-0.25391901
-0.098066444
-0.26535683
-0.10596505
-0.27739401
-0.11423054
-0.29006822
-0.12286776
-0.30341681
-0.13188157
-0.31748096
-0.1412805
-0.3323013
-0.15107263
-0.34792237
-0.16127032
-0.36438911
-0.17188479
-0.38175044
-0.18293145
-0.40005641
-0.19442682
-0.41936022
-0.20638814
-0.43971894
-0.2188351
-0.46119265
-0.23178882
-0.48384441
-0.2452718