/*--------------------------------*- C++ -*----------------------------------*\
| =========                 |                                                 |
| \\      /  F ield         | OpenFOAM: The Open Source CFD Toolbox           |
|  \\    /   O peration     | Version:  2206                                  |
|   \\  /    A nd           | Website:  www.openfoam.com                      |
|    \\/     M anipulation  |                                                 |
\*---------------------------------------------------------------------------*/
FoamFile
{
    version     2.0;
    format      ascii;
    arch        "LSB;label=32;scalar=64";
    class       volScalarField;
    location    "668";
    object      rho;
}
// * * * * * * * * * * * * * * * * * * * * * * * * * * * * * * * * * * * * * //

dimensions      [1 -3 0 0 0 0 0];

internalField   nonuniform List<scalar> 
16000
(
0.95718012
1.0004498
0.98340513
0.9953608
0.98952512
0.99509918
0.9932821
0.99661651
0.99646833
0.99892003
0.99957673
1.0016161
1.0027999
1.0046934
1.0062005
1.0080903
1.0098334
1.011796
1.0137336
1.0158133
1.0179283
1.0201518
1.0224399
1.0248235
1.0272858
1.0298392
1.0324777
1.0352057
1.0380209
1.040924
1.0439131
1.0469868
1.0501425
1.0533769
1.0566859
1.0600647
1.0635073
1.0670073
1.0705572
1.0741488
1.077773
1.0814204
1.0850811
1.0887444
1.0923997
1.0960362
1.099643
1.1032093
1.1067251
1.1101803
1.1135658
1.116873
1.1200942
1.1232224
1.1262515
1.1291761
1.1319919
1.1346953
1.1372835
1.1397547
1.1421079
1.144343
1.1464607
1.1484622
1.150349
1.1521222
1.1537832
1.1553306
1.1567661
1.158081
1.1592906
1.1603597
1.1613672
1.162166
1.1630367
1.1634527
1.1643627
1.1639332
1.1654204
1.1630046
0.94932302
0.99315273
0.97549075
0.98812697
0.98193375
0.9879583
0.98597745
0.9896313
0.98944147
0.99214382
0.99284658
0.99508423
0.99637433
0.99845041
1.0001022
1.0021762
1.0040938
1.0062528
1.0083902
1.0106839
1.0130212
1.0154774
1.0180069
1.02064
1.023359
1.0261749
1.0290809
1.03208
1.0351687
1.0383463
1.0416098
1.0449566
1.0483828
1.0518841
1.0554554
1.0590909
1.0627837
1.0665258
1.0703085
1.074122
1.077956
1.0817996
1.0856414
1.0894697
1.093273
1.0970397
1.1007584
1.1044184
1.1080095
1.1115222
1.1149481
1.1182795
1.1215098
1.1246334
1.1276458
1.130543
1.1333225
1.1359821
1.1385205
1.1409374
1.1432329
1.1454082
1.1474649
1.1494054
1.1512319
1.1529469
1.154552
1.156048
1.1574341
1.1587078
1.15987
1.1609126
1.1618588
1.1626641
1.1634233
1.1639432
1.1645931
1.1645156
1.1654712
1.1634061
0.94244169
0.98659478
0.96838539
0.98162801
0.97518032
0.98160949
0.97952892
0.9834816
0.9832975
0.98624063
0.98702864
0.98946812
0.99089919
0.99317363
0.9950051
0.997287
0.99941297
1.0017949
1.0041617
1.0066933
1.0092754
1.0119821
1.014768
1.0176615
1.0206457
1.0237301
1.0269081
1.0301817
1.0335469
1.0370022
1.0405435
1.0441668
1.0478669
1.0516378
1.0554725
1.0593631
1.0633007
1.0672756
1.0712772
1.0752943
1.079315
1.0833268
1.0873173
1.0912738
1.0951842
1.0990367
1.1028201
1.1065242
1.1101394
1.1136576
1.1170714
1.1203748
1.123563
1.126632
1.1295792
1.1324026
1.1351013
1.1376749
1.1401238
1.1424491
1.1446524
1.1467359
1.1487023
1.1505547
1.1522963
1.1539298
1.1554578
1.1568811
1.1581993
1.1594109
1.1605137
1.1615064
1.162396
1.1631708
1.1638567
1.1644058
1.1648813
1.1650258
1.1655561
1.1639832
0.93699079
0.98145568
0.96252664
0.97651929
0.96982711
0.9766825
0.97450791
0.97877886
0.97861581
0.98181955
0.98272241
0.98539032
0.98699289
0.98949012
0.99152603
0.99403191
0.99637965
0.99899027
1.0015894
1.0043568
1.0071802
1.0101321
1.0131695
1.0163196
1.0195668
1.0229197
1.0263719
1.0299243
1.0335724
1.0373131
1.0411408
1.0450496
1.049032
1.0530792
1.0571816
1.0613283
1.0655075
1.069707
1.073914
1.0781149
1.0822962
1.0864445
1.0905461
1.094588
1.0985579
1.1024443
1.106237
1.1099267
1.1135057
1.1169673
1.1203063
1.123519
1.1266027
1.1295559
1.1323779
1.1350693
1.1376311
1.1400649
1.1423728
1.1445575
1.146622
1.1485696
1.150404
1.1521292
1.153749
1.1552669
1.1566858
1.1580072
1.1592308
1.1603552
1.1613772
1.1622961
1.1631146
1.1638283
1.1644456
1.1649665
1.1653154
1.1655877
1.1657356
1.1646037
0.93306521
0.97795459
0.95845155
0.97293733
0.96604594
0.97334296
0.97109369
0.97569101
0.97557341
0.97904325
0.98009879
0.98300181
0.98478375
0.98748898
0.98971849
0.99242712
0.99498088
0.99780301
1.0006239
1.0036201
1.0066845
1.0098861
1.0131851
1.0166056
1.0201329
1.0237733
1.0275194
1.0313697
1.0353178
1.0393579
1.0434819
1.0476809
1.0519445
1.0562611
1.060618
1.0650014
1.069397
1.0737897
1.0781641
1.0825049
1.0867973
1.0910269
1.09518
1.0992441
1.1032075
1.10706
1.110793
1.1143992
1.1178731
1.1212107
1.1244094
1.127468
1.1303866
1.1331662
1.1358087
1.1383167
1.1406936
1.1429427
1.1450681
1.1470738
1.1489638
1.1507427
1.1524148
1.1539848
1.1554569
1.1568353
1.1581229
1.1593216
1.1604313
1.1614503
1.1623752
1.163205
1.1639405
1.1645772
1.1651261
1.1655856
1.1658426
1.1661766
1.1659786
1.165369
0.93039671
0.97579446
0.95578
0.97072588
0.96364218
0.97145026
0.96915139
0.97411346
0.97405602
0.97778915
0.9789567
0.98203311
0.98396725
0.98685708
0.98928198
0.9922031
0.99498989
0.9980574
1.0011441
1.0044171
1.007775
1.0112798
1.0148937
1.0186366
1.022493
1.0264659
1.030546
1.0347285
1.0390042
1.0433639
1.0477964
1.0522893
1.056829
1.0614008
1.0659891
1.0705775
1.0751491
1.079687
1.0841742
1.0885943
1.0929319
1.0971724
1.101303
1.1053125
1.1091912
1.1129311
1.116526
1.1199718
1.1232658
1.1264072
1.1293964
1.1322353
1.1349268
1.1374746
1.1398831
1.1421573
1.1443024
1.1463236
1.1482264
1.150016
1.1516975
1.1532762
1.154757
1.1561449
1.1574447
1.1586604
1.1597955
1.1608518
1.1618294
1.1627262
1.1635385
1.1642647
1.1649033
1.1654499
1.1659219
1.1662956
1.1664811
1.1668154
1.1663224
1.1662119
0.92863948
0.97460034
0.95416757
0.96968234
0.96241603
0.97057325
0.96824457
0.97356431
0.97348334
0.97762651
0.97874006
0.98206726
0.9842553
0.98742259
0.99014396
0.99336958
0.9964822
0.99987967
1.0033134
1.0069375
1.0106578
1.0145282
1.0185135
1.022628
1.026856
1.0311961
1.0356368
1.0401698
1.0447826
1.0494627
1.0541953
1.0589645
1.0637535
1.0685443
1.0733185
1.0780574
1.0827423
1.087355
1.0918782
1.0962957
1.1005926
1.1047559
1.1087745
1.1126397
1.1163447
1.1198852
1.1232584
1.1264637
1.1295021
1.1323762
1.1350898
1.1376478
1.1400561
1.1423209
1.144449
1.1464472
1.1483224
1.1500814
1.1517306
1.1532761
1.1547239
1.1560795
1.1573483
1.1585353
1.1596453
1.1606826
1.1616503
1.1625504
1.163383
1.1641456
1.1648344
1.1654468
1.1659787
1.1664278
1.1668143
1.1670879
1.1672175
1.1675026
1.1667682
1.1671073
0.92777859
0.9743544
0.95343259
0.9696685
0.96194111
0.97080169
0.96824867
0.97380047
0.97408989
0.97825505
0.98001074
0.98367842
0.986213
0.98972874
0.99281867
0.99640744
0.99990439
1.0036831
1.0075131
1.0115323
1.0156556
1.019927
1.0243137
1.0288242
1.0334414
1.0381596
1.0429646
1.0478438
1.0527812
1.0577602
1.0627623
1.0677679
1.0727567
1.0777079
1.0826005
1.087414
1.0921289
1.0967269
1.1011914
1.1055076
1.1096634
1.1136487
1.1174559
1.1210799
1.1245182
1.1277704
1.1308383
1.1337253
1.1364362
1.1389773
1.1413556
1.143579
1.145656
1.1475949
1.1494044
1.1510928
1.1526684
1.1541387
1.155511
1.156792
1.1579878
1.159104
1.1601462
1.1611191
1.1620274
1.1628751
1.1636653
1.1643998
1.1650784
1.1656984
1.166256
1.1667474
1.1671654
1.1675123
1.1678043
1.1679714
1.1680567
1.1682492
1.1673207
1.1680736
0.92844161
0.97567511
0.9540963
0.97075325
0.96314851
0.97223684
0.97018991
0.97619059
0.97671131
0.98132521
0.98331871
0.98733537
0.99023931
0.99411775
0.99760544
1.001582
1.0054928
1.0096792
1.0139313
1.0183685
1.0229141
1.0276023
1.0324018
1.0373148
1.0423223
1.0474134
1.0525699
1.0577743
1.0630059
1.0682433
1.0734637
1.0786435
1.0837592
1.0887876
1.0937064
1.0984948
1.1031339
1.1076071
1.1119005
1.1160029
1.1199062
1.123605
1.1270967
1.1303815
1.1334614
1.136341
1.1390265
1.1415256
1.143847
1.1460001
1.147995
1.1498421
1.1515517
1.1531338
1.1545985
1.155955
1.1572121
1.1583782
1.1594605
1.160466
1.1614005
1.1622698
1.1630787
1.1638318
1.1645334
1.1651871
1.1657955
1.1663604
1.1668811
1.167355
1.1677781
1.1681447
1.1684463
1.1686899
1.1688801
1.1689426
1.1689924
1.1690579
1.1679919
1.1691149
0.93078794
0.97859825
0.95645572
0.97385755
0.96627659
0.9759262
0.97397969
0.98037932
0.98121706
0.9861812
0.98857952
0.99296765
0.9962911
1.0005633
1.0044859
1.008879
1.0132336
1.0178542
1.0225544
1.0274339
1.0324243
1.0375487
1.0427759
1.0481001
1.0534983
1.0589526
1.0644391
1.069934
1.0754112
1.0808442
1.086206
1.0914703
1.0966116
1.1016061
1.1064325
1.1110719
1.1155085
1.11973
1.1237273
1.1274949
1.1310304
1.1343344
1.1374103
1.1402638
1.1429028
1.1453364
1.1475751
1.1496304
1.1515143
1.1532392
1.1548171
1.1562602
1.15758
1.1587877
1.1598937
1.1609079
1.1618391
1.1626956
1.1634846
1.1642126
1.1648851
1.1655073
1.1660835
1.1666179
1.1671139
1.1675746
1.1680024
1.1683985
1.168762
1.1690904
1.1693795
1.1696214
1.1698082
1.169949
1.1700329
1.1699996
1.1700166
1.1699239
1.1687797
1.1702505
0.93450198
0.98280801
0.9603169
0.97847023
0.97096486
0.98111053
0.97943934
0.98626082
0.98746537
0.99282132
0.99564441
1.0004304
1.0042154
1.008917
1.0133219
1.0181792
1.0230305
1.028139
1.0333404
1.0387116
1.0441894
1.0497832
1.0554584
1.0611995
1.066977
1.0727652
1.0785336
1.0842526
1.0898911
1.0954192
1.1008078
1.10603
1.1110611
1.1158801
1.1204692
1.1248146
1.1289067
1.1327396
1.1363112
1.1396233
1.1426803
1.1454898
1.1480613
1.1504063
1.1525375
1.1544687
1.1562139
1.1577876
1.1592041
1.1604776
1.1616215
1.1626486
1.1635713
1.1644008
1.1651476
1.1658213
1.1664303
1.1669824
1.1674842
1.1679415
1.1683593
1.1687419
1.169093
1.1694159
1.1697134
1.1699879
1.1702413
1.1704743
1.1706859
1.1708736
1.1710328
1.171154
1.1712313
1.1712725
1.1712501
1.1711354
1.1711157
1.1708468
1.1696995
1.1714655
0.93933918
0.98810339
0.96549353
0.98432176
0.97694332
0.98760943
0.98625182
0.99351829
0.99517031
1.0009633
1.0043107
1.0095718
1.0139206
1.0191466
1.0241354
1.0295525
1.0349908
1.0406672
1.046436
1.0523493
1.0583457
1.0644198
1.070532
1.0766565
1.0827573
1.0888015
1.0947535
1.1005793
1.1062455
1.1117215
1.1169795
1.1219954
1.1267494
1.1312262
1.1354155
1.1393113
1.1429125
1.1462216
1.1492452
1.1519928
1.1544762
1.1567095
1.1587082
1.1604884
1.1620672
1.1634612
1.1646874
1.165762
1.1667004
1.1675175
1.1682272
1.1688423
1.169375
1.1698359
1.1702349
1.1705807
1.170881
1.1711428
1.1713717
1.1715727
1.17175
1.1719069
1.1720463
1.1721705
1.1722816
1.1723813
1.1724708
1.1725504
1.172619
1.1726744
1.1727111
1.172719
1.1726956
1.1726418
1.1725187
1.1723393
1.1722729
1.1718313
1.1707617
1.1727091
0.94504204
0.99421319
0.97168129
0.99120567
0.98406358
0.99532746
0.99443192
1.002243
1.0044964
1.010842
1.0148583
1.020713
1.025751
1.0316079
1.0372782
1.0433355
1.0494235
1.0557115
1.0620693
1.0685249
1.0750162
1.0815234
1.0880013
1.0944146
1.1007217
1.1068841
1.1128634
1.1186244
1.1241354
1.129369
1.134303
1.1389206
1.1432106
1.1471676
1.1507912
1.1540859
1.1570604
1.1597267
1.1621
1.1641972
1.166037
1.1676389
1.1690226
1.170208
1.1712145
1.1720609
1.1727649
1.1733435
1.1738121
1.1741853
1.1744766
1.1746981
1.1748605
1.1749737
1.1750464
1.1750862
1.1750997
1.1750927
1.1750699
1.1750352
1.1749917
1.1749417
1.1748874
1.17483
1.1747708
1.1747108
1.1746506
1.1745899
1.1745277
1.174462
1.1743859
1.1742913
1.1741778
1.1740355
1.1738226
1.1735953
1.1734703
1.1728792
1.1719507
1.1739281
0.95188492
1.0013177
0.97919498
0.99954807
0.99280917
1.0047851
1.0045193
1.0129733
1.0159758
1.0229642
1.0277646
1.0342929
1.0401009
1.0466486
1.0530474
1.0597745
1.0665218
1.0734116
1.0803254
1.0872668
1.0941708
1.1010039
1.1077145
1.1142598
1.1205943
1.1266779
1.1324734
1.1379499
1.1430821
1.1478517
1.1522469
1.156263
1.1599011
1.1631681
1.1660756
1.1686391
1.1708776
1.1728118
1.1744641
1.1758578
1.1770163
1.1779626
1.1787192
1.1793075
1.1797479
1.1800592
1.1802592
1.180364
1.1803881
1.1803452
1.180247
1.1801043
1.1799264
1.1797217
1.1794975
1.1792602
1.179015
1.1787663
1.1785177
1.178272
1.1780312
1.1777968
1.1775699
1.177351
1.1771405
1.1769386
1.1767453
1.1765598
1.1763815
1.1762075
1.176031
1.1758469
1.1756547
1.1754314
1.1751443
1.1748846
1.1746889
1.1739785
1.1732258
1.1751058
0.96041093
1.0100909
0.98866726
1.0099153
1.0036964
1.0164254
1.0169113
1.0260469
1.0299022
1.037582
1.0432444
1.0504961
1.0571246
1.0643967
1.0715414
1.0789375
1.0863184
1.0937593
1.101148
1.1084643
1.1156384
1.1226244
1.1293669
1.1358196
1.1419389
1.1476893
1.1530421
1.1579774
1.1624832
1.1665558
1.1701987
1.1734221
1.1762417
1.1786775
1.1807527
1.1824933
1.1839261
1.1850789
1.185979
1.1866534
1.1871278
1.1874268
1.1875733
1.1875885
1.1874921
1.1873017
1.1870337
1.1867023
1.1863208
1.1859005
1.1854515
1.1849825
1.1845015
1.1840151
1.1835291
1.183048
1.1825759
1.1821158
1.18167
1.1812405
1.1808282
1.1804338
1.1800573
1.1796987
1.1793574
1.179033
1.1787246
1.1784315
1.1781529
1.1778851
1.1776222
1.1773631
1.177103
1.1768086
1.1764683
1.1761897
1.1759078
1.1751024
1.1745602
1.1762978
0.97070459
1.0211569
1.0000674
1.0222585
1.0166858
1.0302048
1.0315859
1.0414587
1.0462929
1.0547355
1.0613537
1.0693938
1.0768958
1.0849219
1.0928121
1.1008466
1.1087913
1.1166757
1.1243895
1.1318918
1.1391096
1.1459914
1.1524842
1.1585476
1.164149
1.1692668
1.1738895
1.1780152
1.1816511
1.1848117
1.1875183
1.1897965
1.1916758
1.1931874
1.1943642
1.1952391
1.1958443
1.1962109
1.1963685
1.1963449
1.1961658
1.1958548
1.1954335
1.1949214
1.194336
1.1936929
1.193006
1.1922874
1.1915479
1.1907966
1.1900414
1.1892895
1.1885468
1.1878181
1.1871074
1.1864178
1.185752
1.1851119
1.1844988
1.1839135
1.1833562
1.1828267
1.1823242
1.1818481
1.1813971
1.1809699
1.1805653
1.1801825
1.1798199
1.1794733
1.1791396
1.1788199
1.1785019
1.1781505
1.1777827
1.1774942
1.1771099
1.176226
1.1759495
1.1775931
0.9824629
1.0338585
1.0132358
1.0364682
1.0317447
1.0461433
1.0486217
1.0593286
1.0653026
1.0746056
1.0822822
1.091176
1.0995843
1.1083593
1.1169391
1.1255089
1.1338581
1.1419762
1.1497555
1.1571438
1.1640734
1.1704996
1.1763845
1.1817057
1.1864524
1.1906266
1.1942404
1.1973148
1.199878
1.2019633
1.2036076
1.2048497
1.2057288
1.206284
1.2065533
1.2065728
1.2063759
1.205994
1.2054556
1.204787
1.2040117
1.2031507
1.2022228
1.2012446
1.2002306
1.1991937
1.198145
1.197094
1.1960488
1.1950164
1.1940027
1.193013
1.1920508
1.1911194
1.1902213
1.1893584
1.1885321
1.1877431
1.1869919
1.1862783
1.1856018
1.1849614
1.1843559
1.1837839
1.1832436
1.1827331
1.1822509
1.1817959
1.1813654
1.1809557
1.1805669
1.1801993
1.1798333
1.1794432
1.1790723
1.1787759
1.1782924
1.1773886
1.1773834
1.1788545
0.9957858
1.0483038
1.0283522
1.0527546
1.0491315
1.0645136
1.0683289
1.0799831
1.0872701
1.0975336
1.1063481
1.1161208
1.1253995
1.1348265
1.1439245
1.1527929
1.1612429
1.1692387
1.1766858
1.1835381
1.18975
1.1953001
1.2001794
1.2043956
1.2079681
1.2109271
1.21331
1.21516
1.2165236
1.2174484
1.2179822
1.2181709
1.2180586
1.2176871
1.2170948
1.2163164
1.2153834
1.2143243
1.2131647
1.2119271
1.2106312
1.2092946
1.2079324
1.2065576
1.2051817
1.2038143
1.2024637
1.2011366
1.1998389
1.1985755
1.1973503
1.1961662
1.1950252
1.1939293
1.1928796
1.191877
1.1909215
1.1900131
1.1891512
1.188335
1.1875634
1.1868348
1.1861477
1.1855001
1.1848896
1.1843141
1.183772
1.1832612
1.1827781
1.1823207
1.1818914
1.1814864
1.1810831
1.1806731
1.1803135
1.1800021
1.1794461
1.1786173
1.1788436
1.1800009
1.0107842
1.064675
1.0456728
1.071415
1.0692415
1.0857451
1.0911965
1.1039274
1.1126852
1.1239724
1.1339225
1.1444866
1.1544499
1.1642592
1.1735139
1.1822524
1.1903188
1.1976792
1.2042727
1.2100831
1.2151045
1.2193537
1.2228605
1.2256674
1.227825
1.2293889
1.2304176
1.2309698
1.231103
1.230872
1.2303278
1.2295175
1.2284846
1.2272685
1.2259035
1.2244199
1.2228449
1.2212023
1.2195128
1.2177945
1.2160628
1.214331
1.2126104
1.2109106
1.2092397
1.2076044
1.2060102
1.2044615
1.202962
1.2015147
1.2001213
1.1987832
1.1975012
1.1962761
1.1951079
1.193996
1.1929399
1.1919385
1.1909907
1.190095
1.18925
1.1884536
1.1877041
1.1869989
1.1863355
1.1857117
1.1851255
1.1845737
1.1840524
1.183562
1.1831049
1.1826715
1.1822419
1.1818284
1.1814856
1.1811539
1.1805612
1.1798661
1.1802443
1.1810204
1.0278067
1.0833716
1.0657315
1.0930029
1.0927287
1.1105028
1.1179255
1.1318428
1.1421216
1.1543507
1.1652424
1.176289
1.1865027
1.196174
1.2049882
1.212966
1.2200096
1.2261207
1.2312946
1.2355644
1.2389739
1.2415833
1.2434599
1.2446762
1.2453057
1.2454207
1.2450901
1.2443786
1.2433455
1.2420444
1.240523
1.2388246
1.2369873
1.2350435
1.2330211
1.2309447
1.2288358
1.2267125
1.2245903
1.2224825
1.2204001
1.2183523
1.2163468
1.2143901
1.2124871
1.2106419
1.2088578
1.2071371
1.2054817
1.2038923
1.2023696
1.2009137
1.1995246
1.1982015
1.1969433
1.1957489
1.1946168
1.1935455
1.1925334
1.1915784
1.1906788
1.1898325
1.1890371
1.18829
1.1875887
1.186931
1.1863143
1.1857342
1.185188
1.1846781
1.1842035
1.1837494
1.1833047
1.1829
1.1825731
1.1822194
1.1816256
1.1810718
1.1814981
1.1819534
1.0478092
1.1052296
1.0895198
1.1184653
1.1205831
1.1396763
1.1492487
1.1643329
1.175976
1.1887876
1.2001046
1.2110028
1.2207218
1.2294716
1.2370514
1.2435167
1.2488547
1.2531284
1.2563994
1.2587538
1.2602807
1.2610747
1.2612281
1.2608298
1.2599624
1.2587018
1.2571161
1.2552659
1.2532041
1.2509768
1.2486246
1.2461825
1.2436797
1.2411404
1.2385858
1.2360341
1.2335007
1.2309982
1.228537
1.226126
1.2237721
1.221481
1.2192574
1.2171047
1.2150255
1.2130216
1.2110946
1.2092452
1.207473
1.2057777
1.2041592
1.202617
1.2011492
1.1997541
1.1984302
1.1971757
1.1959886
1.194867
1.1938086
1.1928114
1.1918732
1.1909917
1.1901644
1.1893885
1.1886619
1.1879823
1.187346
1.1867485
1.1861896
1.1856715
1.1851871
1.1847193
1.1842722
1.1838877
1.1835719
1.1831898
1.1826118
1.1821994
1.1826428
1.1828627
1.0720876
1.1313919
1.1184404
1.1491505
1.1542081
1.1744943
1.1859565
1.2016224
1.2141023
1.2267524
1.237543
1.2473025
1.2555211
1.2624162
1.2679295
1.2721857
1.2752643
1.2772907
1.2783823
1.2786627
1.2782477
1.2772465
1.2757578
1.2738699
1.2716605
1.2691972
1.2665379
1.2637319
1.260821
1.2578411
1.2548228
1.2517906
1.2487644
1.2457612
1.2427958
1.23988
1.2370235
1.2342342
1.2315181
1.2288802
1.2263241
1.2238529
1.2214684
1.2191718
1.2169638
1.2148445
1.2128142
1.2108717
1.2090153
1.2072444
1.2055583
1.2039549
1.2024315
1.2009859
1.1996162
1.1983199
1.197095
1.1959388
1.1948491
1.1938235
1.1928597
1.1919551
1.191107
1.1903131
1.1895713
1.188879
1.1882314
1.1876258
1.1870643
1.1865457
1.1860561
1.1855833
1.185149
1.1847914
1.1844734
1.1840524
1.1835077
1.1832548
1.1837136
1.1837001
1.1017673
1.1630953
1.1538757
1.1859905
1.194439
1.2150861
1.2281568
1.2436083
1.2554599
1.266629
1.2755743
1.283017
1.2887114
1.292926
1.2957407
1.2973473
1.2978955
1.2975497
1.2964542
1.2947436
1.2925348
1.2899303
1.2870174
1.2838704
1.2805516
1.2771129
1.2735972
1.2700397
1.2664702
1.2629135
1.259389
1.2559115
1.2524936
1.2491463
1.2458781
1.2426956
1.2396038
1.2366066
1.2337067
1.230906
1.2282056
1.2256063
1.223108
1.2207101
1.2184117
1.2162121
1.2141101
1.2121031
1.2101889
1.2083666
1.2066347
1.2049901
1.2034294
1.2019503
1.2005503
1.1992268
1.1979772
1.196799
1.1956895
1.1946463
1.193667
1.1927488
1.1918888
1.1910852
1.1903359
1.1896371
1.1889846
1.1883784
1.1878207
1.1873046
1.1868134
1.1863471
1.1859382
1.1856029
1.1852658
1.1848105
1.184332
1.1842535
1.1846981
1.1844127
1.1389376
1.2015423
1.1972262
1.229146
1.2411095
1.2617974
1.2741385
1.2876019
1.297335
1.3055793
1.3114642
1.3156296
1.318087
1.3191577
1.3190225
1.3179081
1.3159924
1.3134423
1.3103953
1.3069694
1.3032614
1.2993515
1.2953049
1.2911746
1.2870036
1.282826
1.2786693
1.274556
1.2705044
1.2665282
1.2626375
1.2588402
1.2551435
1.2515526
1.2480712
1.2447018
1.2414459
1.2383044
1.2352775
1.2323648
1.2295658
1.2268793
1.2243038
1.2218374
1.2194784
1.2172253
1.2150757
1.2130262
1.211074
1.2092182
1.2074568
1.2057859
1.2042018
1.2027015
1.2012825
1.1999421
1.1986776
1.1974862
1.1963655
1.1953127
1.1943252
1.1934
1.1925347
1.1917276
1.1909758
1.190275
1.1896226
1.189021
1.1884696
1.1879562
1.1874686
1.1870198
1.1866394
1.1863152
1.1859587
1.1855045
1.1851205
1.1851802
1.1855541
1.1850064
1.1859082
1.2469475
1.2494558
1.281293
1.2924484
1.3103943
1.3208643
1.3305083
1.3365689
1.3407243
1.3426835
1.3430671
1.3420568
1.3399886
1.3370734
1.3335227
1.3294944
1.3251233
1.320514
1.3157511
1.3109004
1.306014
1.3011327
1.2962882
1.291505
1.2868017
1.2821933
1.2776915
1.2733046
1.2690377
1.2648946
1.2608787
1.2569922
1.2532362
1.2496108
1.2461155
1.2427495
1.2395116
1.2364001
1.2334131
1.2305487
1.2278047
1.2251785
1.2226672
1.2202686
1.2179808
1.2158005
1.2137233
1.2117465
1.2098692
1.2080894
1.2064026
1.2048038
1.2032902
1.2018594
1.2005088
1.1992355
1.1980369
1.1969103
1.195853
1.194862
1.1939344
1.1930683
1.1922616
1.1915105
1.1908111
1.1901632
1.1895692
1.1890241
1.1885144
1.1880367
1.1876116
1.1872564
1.1869386
1.1865842
1.1861765
1.1858733
1.1859243
1.18619
1.18569
1.2459422
1.3034779
1.3080542
1.335928
1.3460377
1.3585423
1.3644848
1.3687792
1.3699627
1.369454
1.3672866
1.364018
1.3598684
1.3551162
1.3499329
1.3444716
1.3388397
1.3331232
1.3273852
1.3216738
1.3160248
1.3104651
1.3050145
1.2996873
1.2944933
1.2894402
1.2845334
1.2797762
1.2751693
1.2707126
1.2664061
1.2622494
1.258241
1.2543793
1.2506619
1.2470867
1.243651
1.2403523
1.2371876
1.234154
1.2312488
1.2284692
1.2258114
1.2232722
1.2208493
1.2185405
1.2163416
1.2142473
1.2122551
1.2103651
1.2085751
1.2068792
1.2052719
1.2037503
1.2023127
1.2009566
1.1996789
1.198477
1.1973482
1.1962896
1.1952982
1.1943714
1.1935073
1.1927032
1.191955
1.1912598
1.1906191
1.1900331
1.1894934
1.1889887
1.1885243
1.1881212
1.1877828
1.1874665
1.1871173
1.1867576
1.1865386
1.1866046
1.1867514
1.1862854
1.3170827
1.3663969
1.3714165
1.3911746
1.3958667
1.4009134
1.4007563
1.3990995
1.3953236
1.390505
1.3847808
1.3785509
1.3719766
1.3652331
1.3584205
1.351622
1.3448913
1.3382688
1.3317813
1.3254477
1.3192803
1.3132874
1.3074734
1.3018402
1.296388
1.2911168
1.2860253
1.2811104
1.2763685
1.2717965
1.2673917
1.2631507
1.2590698
1.2551456
1.2513744
1.2477527
1.2442768
1.2409431
1.237748
1.234688
1.2317599
1.2289603
1.2262848
1.2237298
1.2212936
1.2189735
1.2167643
1.2146599
1.2126588
1.2107621
1.2089672
1.2072666
1.205654
1.2041275
1.2026857
1.2013262
1.200046
1.1988424
1.1977126
1.1966536
1.1956626
1.1947372
1.1938753
1.1930737
1.1923285
1.1916384
1.1910047
1.1904249
1.1898894
1.1893921
1.1889427
1.1885562
1.1882241
1.187906
1.187568
1.1872498
1.1870836
1.1871594
1.1872453
1.1867691
1.3927963
1.4300375
1.4310267
1.4386816
1.4362933
1.4333003
1.4273185
1.4205497
1.4128501
1.4048391
1.3966179
1.3883919
1.3802348
1.3722215
1.3643878
1.3567611
1.3493549
1.3421772
1.3352306
1.3285147
1.322027
1.3157639
1.3097203
1.3038907
1.2982698
1.2928529
1.2876342
1.2826073
1.2777664
1.2731068
1.2686237
1.2643121
1.2601675
1.2561852
1.2523609
1.2486902
1.2451691
1.2417934
1.238559
1.2354624
1.2325001
1.2296681
1.2269617
1.2243776
1.2219144
1.219569
1.2173351
1.2152064
1.2131828
1.2112661
1.2094528
1.207734
1.2061032
1.2045594
1.2031017
1.2017277
1.2004343
1.1992187
1.1980781
1.1970097
1.1960105
1.1950785
1.1942111
1.1934049
1.1926571
1.191967
1.1913345
1.1907553
1.1902216
1.1897324
1.1892967
1.1889202
1.1885884
1.188274
1.1879682
1.1877097
1.1875718
1.1875756
1.1875633
1.1872392
1.472361
1.4814169
1.4772253
1.4715524
1.4624787
1.452895
1.4425766
1.4322724
1.4220161
1.4120086
1.4022771
1.3928718
1.3837979
1.3750609
1.3666542
1.3585699
1.3507971
1.3433241
1.3361389
1.3292298
1.3225857
1.3161957
1.3100493
1.3041366
1.2984492
1.292979
1.2877179
1.2826577
1.2777914
1.2731127
1.2686158
1.2642949
1.2601445
1.2561595
1.252335
1.2486662
1.2451487
1.2417779
1.2385496
1.2354599
1.2325053
1.2296814
1.2269834
1.2244079
1.2219538
1.2196177
1.2173927
1.2152723
1.2132571
1.2113495
1.2095453
1.207835
1.206212
1.2046756
1.2032254
1.2018587
1.2005727
1.1993643
1.1982308
1.1971692
1.1961771
1.1952521
1.1943914
1.1935919
1.1928514
1.1921694
1.1915442
1.190971
1.1904451
1.1899682
1.1895455
1.1891754
1.1888449
1.1885417
1.1882714
1.1880585
1.1879263
1.1878649
1.1878055
1.1876499
1.5244406
1.5136016
1.5024763
1.4903607
1.4776933
1.4651771
1.4529508
1.4411749
1.4298609
1.419032
1.4086701
1.3987611
1.3892809
1.3802077
1.3715183
1.3631915
1.3552068
1.3475457
1.3401909
1.3331265
1.3263383
1.3198133
1.3135391
1.3075045
1.3016997
1.296116
1.2907448
1.2855774
1.2806062
1.2758247
1.2712267
1.2668066
1.2625588
1.2584779
1.2545591
1.2507976
1.2471889
1.2437287
1.2404125
1.2372367
1.2341978
1.2312916
1.2285129
1.2258585
1.2233276
1.2209174
1.2186204
1.2164295
1.2143454
1.2123716
1.2105046
1.2087342
1.2070531
1.2054603
1.2039559
1.2025375
1.2012023
1.1999473
1.1987697
1.1976666
1.1966355
1.195674
1.1947793
1.1939483
1.1931794
1.1924715
1.1918222
1.1912271
1.1906834
1.1901932
1.1897587
1.1893748
1.1890317
1.1887271
1.188471
1.1882733
1.1881285
1.188021
1.1879451
1.1879055
1.170661
1.170903
1.200568
1.2175221
1.2229914
1.2242259
1.2244541
1.2251336
1.2255886
1.2261191
1.2262713
1.2262229
1.2262429
1.2259247
1.2253673
1.2246688
1.2238433
1.2229399
1.221931
1.220851
1.2196875
1.2184645
1.2171783
1.2158464
1.214469
1.2130588
1.2116181
1.2101558
1.2086749
1.2071818
1.2056794
1.2041723
1.2026632
1.2011558
1.1996526
1.1981566
1.1966702
1.195196
1.1937362
1.1922933
1.1908694
1.1894668
1.1880876
1.1867341
1.1854083
1.1841126
1.1828491
1.1816201
1.1804278
1.1792744
1.1781623
1.1770936
1.1760707
1.1750952
1.17417
1.1732952
1.172475
1.1717062
1.170997
1.1703362
1.1697435
1.1691882
1.1687196
1.1682601
1.1679279
1.1675385
1.1673641
1.166987
1.1670108
1.1665583
1.1668396
1.1661434
1.1668288
1.1655746
1.1668855
1.1648412
1.1670331
1.1637515
1.1669339
1.1616263
1.1653056
1.1888608
1.2174796
1.2253527
1.2257668
1.225279
1.2248332
1.2245581
1.2242123
1.2237693
1.2231428
1.2226621
1.2217651
1.2209693
1.2200739
1.2191777
1.2181996
1.2172093
1.2161564
1.2150868
1.2139689
1.2128317
1.2116569
1.2104619
1.2092366
1.2079918
1.2067224
1.2054355
1.2041296
1.2028095
1.2014759
1.2001326
1.1987813
1.1974255
1.1960673
1.19471
1.1933559
1.1920079
1.1906686
1.1893407
1.1880267
1.1867293
1.185451
1.1841945
1.1829624
1.1817572
1.1805816
1.1794382
1.1783295
1.177258
1.1762264
1.1752369
1.1742924
1.1733945
1.1725462
1.1717479
1.1710036
1.1703105
1.1696762
1.1690906
1.1685712
1.1680908
1.167693
1.1673084
1.1670428
1.1667288
1.1666144
1.1663153
1.1663884
1.1660108
1.1663293
1.1657131
1.1664133
1.1652451
1.1665817
1.164598
1.1668276
1.1635616
1.1668289
1.1614761
1.1610547
1.1962187
1.2135025
1.2183782
1.2173289
1.2167339
1.2159024
1.215577
1.2148887
1.2144997
1.2138789
1.2133588
1.2127185
1.2121562
1.2114668
1.2108174
1.2100712
1.2093369
1.2085294
1.2077146
1.2068413
1.2059498
1.2050115
1.2040501
1.2030504
1.2020269
1.2009723
1.1998959
1.1987948
1.1976752
1.1965368
1.1953839
1.1942177
1.1930417
1.1918578
1.1906688
1.1894773
1.188286
1.1870974
1.1859145
1.18474
1.1835767
1.1824275
1.1812953
1.1801829
1.1790933
1.1780294
1.1769942
1.1759905
1.1750213
1.1740894
1.1731974
1.1723483
1.1715441
1.1707878
1.1700802
1.169425
1.1688202
1.1682723
1.1677726
1.1673367
1.1669403
1.166622
1.1663195
1.1661279
1.1658951
1.1658467
1.1656299
1.1657574
1.1654591
1.1658176
1.1652817
1.1659989
1.1649185
1.1662636
1.1643635
1.1666089
1.1633858
1.1667094
1.1613399
1.1592933
1.200579
1.2097405
1.2120201
1.2102706
1.2099455
1.2089152
1.2086225
1.207784
1.2073846
1.2066199
1.2061112
1.2053685
1.2047967
1.2040725
1.2034446
1.2027148
1.2020364
1.2012898
1.2005657
1.1997934
1.1990259
1.1982228
1.1974136
1.1965757
1.1957256
1.1948511
1.1939613
1.1930501
1.1921228
1.191177
1.1902161
1.1892397
1.1882507
1.1872502
1.1862406
1.1852238
1.1842026
1.1831791
1.1821563
1.1811368
1.1801236
1.1791195
1.1781277
1.1771511
1.176193
1.1752564
1.1743446
1.1734609
1.1726082
1.1717899
1.1710087
1.1702678
1.1695695
1.1689169
1.168311
1.1677554
1.1672485
1.1667963
1.1663911
1.1660468
1.1657415
1.16551
1.1652954
1.1651844
1.1650369
1.1650605
1.1649283
1.1651156
1.1648984
1.1653015
1.1648432
1.1655774
1.1645934
1.1659549
1.1641338
1.1663975
1.1632178
1.1665964
1.1612127
1.1493648
1.1932594
1.1979888
1.2002561
1.1982573
1.1986557
1.1976428
1.1977237
1.196998
1.1969119
1.1963188
1.1960833
1.1955493
1.195246
1.1947424
1.1943711
1.1938701
1.19344
1.1929248
1.1924414
1.191899
1.1913646
1.1907876
1.1902044
1.1895869
1.1889555
1.1882953
1.1876173
1.1869142
1.1861923
1.1854486
1.1846869
1.1839066
1.1831105
1.1822995
1.1814761
1.1806418
1.1797991
1.1789503
1.1780979
1.1772445
1.1763931
1.1755464
1.1747077
1.17388
1.1730667
1.1722711
1.1714964
1.170746
1.1700234
1.1693318
1.1686742
1.168054
1.1674736
1.1669362
1.1664431
1.1659977
1.1655987
1.1652518
1.1649499
1.1647057
1.1644991
1.1643617
1.1642413
1.1642169
1.1641595
1.1642603
1.1642156
1.1644673
1.1643351
1.1647871
1.1644126
1.1651665
1.1642793
1.1656451
1.1639107
1.1661853
1.1630605
1.1664822
1.1610969
1.1402886
1.1856508
1.1869617
1.1898513
1.1876319
1.1885643
1.1875336
1.1879353
1.1872859
1.1874474
1.1869623
1.1869374
1.1865359
1.1864197
1.1860579
1.1858611
1.18551
1.1852491
1.1848913
1.1845777
1.1842007
1.1838385
1.183432
1.1830246
1.1825829
1.182131
1.1816512
1.181156
1.1806368
1.1801
1.179542
1.1789663
1.1783717
1.1777606
1.1771335
1.1764923
1.1758383
1.1751737
1.1745003
1.1738205
1.1731367
1.1724516
1.1717682
1.1710893
1.1704182
1.169758
1.1691121
1.1684839
1.1678767
1.167294
1.1667391
1.1662151
1.1657255
1.1652729
1.1648604
1.1644894
1.1641632
1.163881
1.1636476
1.1634569
1.1633202
1.1632191
1.1631822
1.1631616
1.1632294
1.1632663
1.1634488
1.163494
1.1638142
1.1637698
1.1642749
1.1639844
1.1647736
1.1639775
1.1653446
1.1636949
1.1659785
1.1629133
1.1663711
1.160992
1.1313425
1.1779419
1.1763155
1.1798815
1.1773935
1.1787454
1.1776572
1.1783148
1.1777113
1.1780845
1.1776904
1.1778507
1.1775726
1.1776275
1.1773987
1.1773647
1.1771568
1.1770579
1.1768545
1.1767048
1.1764888
1.1762923
1.1760485
1.1758078
1.1755325
1.1752497
1.1749396
1.1746161
1.1742694
1.1739064
1.1735228
1.1731222
1.172703
1.1722676
1.1718159
1.1713498
1.1708702
1.170379
1.169878
1.1693692
1.1688549
1.1683377
1.1678201
1.1673049
1.166795