/*--------------------------------*- C++ -*----------------------------------*\
| =========                 |                                                 |
| \\      /  F ield         | OpenFOAM: The Open Source CFD Toolbox           |
|  \\    /   O peration     | Version:  2206                                  |
|   \\  /    A nd           | Website:  www.openfoam.com                      |
|    \\/     M anipulation  |                                                 |
\*---------------------------------------------------------------------------*/
FoamFile
{
    version     2.0;
    format      ascii;
    arch        "LSB;label=32;scalar=64";
    class       volScalarField;
    location    "668";
    object      T;
}
// * * * * * * * * * * * * * * * * * * * * * * * * * * * * * * * * * * * * * //

dimensions      [0 0 0 1 0 0 0];

internalField   nonuniform List<scalar> 
16000
(
285.67878
273.97195
278.78123
276.19791
277.94613
277.14359
277.87802
277.6643
278.05011
278.05391
278.32238
278.43083
278.64619
278.8053
279.01059
279.19837
279.40864
279.61719
279.8391
280.0657
280.30244
280.54647
280.79972
281.06135
281.33205
281.61161
281.90026
282.19793
282.50464
282.82029
283.14474
283.47778
283.8191
284.16832
284.52497
284.88849
285.25823
285.63346
286.01336
286.39704
286.78356
287.17191
287.56105
287.94989
288.33735
288.72232
289.10372
289.48051
289.85166
290.21624
290.57336
290.92224
291.26219
291.59261
291.91306
292.22318
292.52276
292.81167
293.08992
293.35757
293.61471
293.86149
294.09804
294.32456
294.54137
294.74891
294.94797
295.13955
295.3255
295.50682
295.68676
295.86295
296.04322
296.21496
296.40516
296.5724
296.80306
296.95981
297.33632
297.47168
284.85951
273.04241
278.03388
275.32191
277.17759
276.32196
277.11206
276.8839
277.30215
277.3077
277.59768
277.71924
277.9522
278.12839
278.35171
278.55891
278.78884
279.01866
279.26221
279.51184
279.77219
280.04097
280.31961
280.60752
280.9051
281.21219
281.52881
281.85483
282.19012
282.53444
282.88751
283.24897
283.61839
283.99526
284.37899
284.76891
285.16425
285.56414
285.96762
286.37367
286.78121
287.18909
287.59616
288.00125
288.40319
288.80084
289.1931
289.57891
289.95731
290.3274
290.68839
291.03959
291.38044
291.71047
292.02938
292.33696
292.63313
292.91793
293.19151
293.45406
293.70583
293.94709
294.17809
294.39913
294.61055
294.81284
295.00674
295.19335
295.37423
295.55108
295.72594
295.89924
296.07387
296.24607
296.42708
296.60276
296.81308
296.99613
297.32894
297.52496
284.03803
272.17103
277.33903
274.52438
276.46589
275.57623
276.4121
276.18054
276.62755
276.64241
276.95322
277.09305
277.3453
277.54287
277.7871
278.0177
278.27078
278.52574
278.79464
279.07105
279.35867
279.65574
279.96323
280.28074
280.60841
280.94611
281.29369
281.65097
282.01764
282.39335
282.77767
283.17005
283.56989
283.97649
284.38905
284.8067
285.22846
285.65329
286.08006
286.5076
286.93466
287.35999
287.78233
288.20042
288.61307
289.01913
289.41754
289.80731
290.18757
290.55755
290.91661
291.26424
291.60004
291.92376
292.23526
292.53453
292.82168
293.09693
293.36058
293.613
293.85458
294.08572
294.30679
294.51818
294.72031
294.91369
295.09908
295.27756
295.45064
295.62016
295.78791
295.95517
296.12324
296.29156
296.46492
296.64146
296.83754
297.03506
297.3336
297.5639
283.34602
271.4222
276.8177
273.87035
275.89302
274.9746
275.8546
275.6239
276.09943
276.1275
276.45958
276.62109
276.89406
277.11562
277.38239
277.63831
277.91591
278.19729
278.49248
278.79642
279.11186
279.4376
279.77425
280.12156
280.4795
280.84794
281.22662
281.61525
282.0134
282.42057
282.83613
283.25934
283.68936
284.12521
284.56582
285.01003
285.4566
285.90424
286.35162
286.79738
287.24014
287.67857
288.11132
288.53714
288.95483
289.36333
289.76168
290.14904
290.52471
290.88812
291.23884
291.5766
291.90123
292.2127
292.51109
292.79662
293.06959
293.3304
293.57952
293.81749
294.04483
294.26208
294.46972
294.66822
294.85804
295.03973
295.21402
295.38196
295.54502
295.70504
295.86385
296.02298
296.1834
296.34535
296.51143
296.68452
296.86921
297.07328
297.34327
297.60327
282.80809
270.82758
276.40889
273.39701
275.48658
274.54664
275.46662
275.24253
275.74468
275.79175
276.14308
276.32924
276.62276
276.86954
277.15876
277.44044
277.74259
278.05065
278.37243
278.7044
279.04836
279.40368
279.77056
280.14891
280.53848
280.93905
281.35018
281.77139
282.20204
282.64136
283.08846
283.54233
284.00182
284.46566
284.93249
285.40086
285.86925
286.33613
286.79992
287.25911
287.71222
288.15784
288.59469
289.02155
289.43734
289.84116
290.23221
290.6099
290.97377
291.32353
291.65902
291.98023
292.28727
292.58035
292.85982
293.1261
293.37971
293.62121
293.85127
294.07053
294.27967
294.47933
294.67009
294.85248
295.02702
295.19425
295.35488
295.50991
295.66076
295.80923
295.95718
296.10628
296.25744
296.41099
296.56913
296.73543
296.91043
297.11515
297.35984
297.64327
282.41369
270.38149
276.1168
273.0952
275.24794
274.28101
275.24324
275.02763
275.55664
275.6307
275.99237
276.20397
276.5173
276.79022
277.10271
277.41184
277.74061
278.07793
278.4293
278.79256
279.16856
279.55706
279.95784
280.37074
280.79528
281.231
281.6772
282.1331
282.59773
283.07001
283.54869
284.03241
284.51968
285.00894
285.49852
285.98673
286.47182
286.95208
287.42581
287.89142
288.34739
288.79238
289.22518
289.64477
290.0503
290.4411
290.81668
291.17673
291.52112
291.84986
292.16312
292.46119
292.74445
293.01339
293.26858
293.51068
293.74036
293.95838
294.16551
294.36255
294.55024
294.72933
294.90047
295.06422
295.22114
295.37176
295.51675
295.65703
295.79394
295.92922
296.06476
296.20232
296.34283
296.48658
296.63583
296.79313
296.95909
297.16003
297.38193
297.6808
282.13092
270.05779
275.91919
272.87938
275.08077
274.14067
275.12558
274.91313
275.48733
275.53143
275.98023
276.22262
276.5602
276.86515
277.20671
277.54951
277.91128
278.28417
278.67147
279.07209
279.486
279.91313
280.35283
280.80478
281.26813
281.74214
282.22574
282.71779
283.21695
283.72175
284.23059
284.74174
285.25337
285.7636
286.27053
286.77224
287.26687
287.75263
288.22783
288.69095
289.14058
289.57554
289.99488
290.39783
290.78389
291.15274
291.50425
291.83849
292.15567
292.45619
292.74051
293.00923
293.26302
293.50263
293.72882
293.94243
294.14431
294.33532
294.51635
294.68826
294.85188
295.008
295.15731
295.30042
295.43786
295.57015
295.69791
295.82198
295.94358
296.06435
296.1862
296.31096
296.43957
296.5724
296.71163
296.85827
297.01536
297.20857
297.40941
297.7175
281.93487
269.83758
275.83794
272.73969
275.0839
274.04644
275.16145
275.01609
275.56454
275.73206
276.12084
276.40435
276.77381
277.11892
277.49706
277.88068
278.28236
278.69716
279.12641
279.56982
280.02659
280.49662
280.97884
281.47262
281.97674
282.49007
283.01113
283.53839
284.07009
284.60437
285.13925
285.67265
286.20247
286.72657
287.24286
287.74934
288.2441
288.72542
289.19175
289.64176
290.07438
290.48877
290.88431
291.26066
291.61772
291.9556
292.27461
292.57523
292.85805
293.12379
293.37326
293.60734
293.82694
294.033
294.22647
294.40832
294.57949
294.74094
294.89361
295.0384
295.17618
295.30774
295.4338
295.55496
295.67175
295.78464
295.89416
296.00107
296.10646
296.21186
296.31915
296.4302
296.54597
296.66711
296.79534
296.9303
297.07852
297.2608
297.44178
297.75274
281.83927
269.75104
275.93649
272.91862
275.22311
274.34834
275.34918
275.24738
275.82734
276.02651
276.4647
276.79427
277.20049
277.59083
278.01052
278.43944
278.88546
279.34602
279.8208
280.30993
280.81197
281.3266
281.85233
282.38813
282.93236
283.48344
284.03944
284.59836
285.15801
285.71609
286.27027
286.81815
287.35738
287.88569
288.40093
288.90114
289.38458
289.84974
290.29541
290.72065
291.12482
291.50757
291.86881
292.20871
292.52765
292.82619
293.10509
293.36524
293.60759
293.83319
294.04312
294.23847
294.42036
294.58987
294.74805
294.89596
295.0346
295.16496
295.28797
295.40455
295.51556
295.62177
295.72388
295.82247
295.91804
296.01101
296.10182
296.19113
296.27987
296.36944
296.46168
296.55842
296.66076
296.76969
296.88611
297.0089
297.14809
297.31675
297.47938
297.78829
281.90885
269.90312
276.22947
273.19767
275.54243
274.70068
275.74777
275.70662
276.30787
276.5655
277.03128
277.4109
277.85729
278.29583
278.76041
279.23732
279.73048
280.239
280.76132
281.29761
281.84591
282.40549
282.97439
283.55102
284.13323
284.71884
285.30538
285.89031
286.47096
287.04464
287.60868
288.1605
288.69767
289.21794
289.71933
290.20017
290.65908
291.09503
291.50732
291.89559
292.2598
292.60019
292.91725
293.21171
293.48447
293.73657
293.96916
294.18348
294.38081
294.56244
294.72965
294.88369
295.02579
295.1571
295.27875
295.39179
295.49723
295.59604
295.68912
295.77734
295.86151
295.94238
296.02059
296.09669
296.17112
296.24424
296.31643
296.38819
296.46032
296.53406
296.61115
296.69336
296.78203
296.87845
296.9825
297.09318
297.22292
297.37577
297.52216
297.82503
282.15848
270.29341
276.68822
273.704
276.04948
275.28885
276.33757
276.36375
276.98869
277.3044
277.80749
278.2409
278.73191
279.22237
279.73614
280.26472
280.80891
281.36877
281.94175
282.52767
283.12395
283.72915
284.34067
284.95618
285.57283
286.18777
286.79795
287.40032
287.99182
288.56953
289.13066
289.67269
290.19338
290.69082
291.1635
291.61028
292.03043
292.42358
292.78975
293.12929
293.44285
293.73129
293.99573
294.23742
294.45773
294.65812
294.84007
295.00508
295.15466
295.29025
295.41324
295.52497
295.62669
295.71957
295.80472
295.88316
295.95584
296.02366
296.08746
296.14803
296.2061
296.26236
296.31739
296.37168
296.42563
296.47952
296.53364
296.58838
296.64436
296.70268
296.7649
296.83271
296.90777
296.99157
297.08306
297.18208
297.30165
297.43715
297.57057
297.8621
282.54069
270.86346
277.25256
274.36355
276.70379
276.03307
277.09105
277.19484
277.84709
278.22923
278.77485
279.26876
279.81206
280.3614
280.93199
281.51903
282.12081
282.73743
283.36542
284.00371
284.64897
285.29881
285.94985
286.59894
287.24256
287.87727
288.49959
289.10618
289.6939
290.25987
290.80158
291.3169
291.80415
292.26209
292.68997
293.08746
293.45467
293.79207
294.1005
294.38104
294.63504
294.86399
295.06953
295.25335
295.41721
295.56285
295.69198
295.80627
295.90731
295.99661
296.07559
296.14556
296.20776
296.2633
296.3132
296.35839
296.39973
296.43803
296.47402
296.5084
296.5418
296.57482
296.60797
296.64168
296.67629
296.71201
296.74906
296.78768
296.82838
296.87204
296.92002
296.9739
297.03572
297.10694
297.18601
297.27412
297.38265
297.50021
297.62429
297.89469
283.01766
271.60019
277.93032
275.16893
277.4936
276.93388
278.00058
278.1954
278.88379
279.34329
279.94332
280.50825
281.11507
281.73271
282.36911
283.02157
283.68639
284.36297
285.04693
285.73608
286.42629
287.11419
287.79568
288.46692
289.12392
289.7629
290.38028
290.97281
291.53764
292.07241
292.57525
293.04485
293.48043
293.88174
294.24902
294.58293
294.88453
295.15519
295.39652
295.61033
295.79854
295.96316
296.10621
296.22971
296.33563
296.42586
296.50222
296.56641
296.62001
296.66448
296.7012
296.73139
296.75618
296.77656
296.79343
296.80763
296.81987
296.83084
296.84116
296.8514
296.86209
296.87373
296.88676
296.90153
296.91832
296.9373
296.95859
296.98234
297.00891
297.03898
297.07363
297.11439
297.16354
297.22233
297.28938
297.36749
297.46432
297.56378
297.67988
297.92527
283.5845
272.54399
278.73124
276.13707
278.44156
278.01789
279.10051
279.40305
280.13958
280.68846
281.35459
281.99946
282.67846
283.37013
284.07672
284.79629
285.52368
286.2571
286.99136
287.72304
288.44724
289.15972
289.85583
290.53128
291.18195
291.80415
292.39463
292.95075
293.47045
293.95234
294.39565
294.80024
295.16653
295.49545
295.78835
296.04693
296.27317
296.46923
296.63739
296.78
296.89942
296.99797
297.07789
297.14133
297.19032
297.22678
297.25246
297.269
297.27788
297.28045
297.27793
297.27142
297.26186
297.25013
297.23699
297.2231
297.20908
297.19544
297.18269
297.17127
297.16159
297.15406
297.14903
297.14678
297.14754
297.15144
297.15853
297.16888
297.1827
297.20047
297.22295
297.25168
297.28889
297.33552
297.39113
297.46012
297.54487
297.62665
297.7347
297.94949
284.29477
273.71642
279.71512
277.32464
279.60128
279.33674
280.43968
280.86133
281.6546
282.29922
283.03867
283.76716
284.52194
285.28826
286.06413
286.84715
287.63098
288.41225
289.18494
289.94438
290.68505
291.40204
292.09053
292.74628
293.36559
293.94545
294.48361
294.97861
295.42973
295.837
296.20111
296.52331
296.80538
297.04941
297.25783
297.43324
297.57836
297.69593
297.78869
297.8593
297.91031
297.94414
297.96307
297.96921
297.96451
297.95075
297.92955
297.90238
297.87053
297.8352
297.79739
297.75801
297.71787
297.67767
297.63801
297.5994
297.56229
297.52708
297.49412
297.46374
297.43625
297.41194
297.39108
297.37391
297.36058
297.3512
297.34577
297.3443
297.3469
297.35376
297.36546
297.38346
297.40961
297.44452
297.48943
297.54991
297.62234
297.68714
297.78591
297.98077
285.18565
274.97042
280.89826
278.7517
280.98982
280.90124
282.02876
282.5772
283.43568
284.18074
284.99995
285.81441
286.64672
287.48584
288.3266
289.16509
289.99384
290.80777
291.60012
292.36526
293.09746
293.79181
294.44402
295.05071
295.60941
296.1186
296.5777
296.98699
297.34754
297.66104
297.92978
298.15642
298.34393
298.49542
298.61414
298.70332
298.76611
298.80556
298.82456
298.82583
298.8119
298.78509
298.74754
298.70117
298.64774
298.58879
298.52572
298.45978
298.39204
298.32346
298.25485
298.18694
298.12036
298.05563
297.99317
297.93335
297.87648
297.82282
297.77261
297.72606
297.68337
297.64473
297.61034
297.58036
297.55492
297.53409
297.51786
297.5062
297.49909
297.49654
297.49897
297.50766
297.52376
297.54777
297.58292
297.63486
297.69467
297.74558
297.83848
298.01533
286.23591
276.47615
282.26327
280.40125
282.597
282.70415
283.86703
284.55266
285.48864
286.34038
287.24621
288.14787
289.05647
289.96205
290.85705
291.73543
292.58886
293.41086
294.19448
294.93402
295.62446
296.262
296.84393
297.36875
297.83611
298.24666
298.60201
298.90448
299.157
299.36294
299.52595
299.64982
299.73838
299.7954
299.82457
299.82937
299.81304
299.77862
299.7289
299.66643
299.59351
299.51221
299.4244
299.33172
299.23563
299.13742
299.03821
298.93899
298.84059
298.74373
298.64906
298.5571
298.46829
298.38296
298.3014
298.22385
298.15049
298.08147
298.01691
297.95691
297.90156
297.85098
297.80528
297.76458
297.72895
297.69844
297.67306
297.65277
297.63744
297.62694
297.62167
297.62246
297.62968
297.64414
297.67057
297.7132
297.76001
297.80231
297.89534
298.04489
287.42441
278.18669
283.81378
282.28556
284.44083
284.76583
285.97964
286.81301
287.83917
288.80159
289.79672
290.7807
291.75594
292.71164
293.63858
294.52885
295.37398
296.1673
296.90288
297.57644
298.18506
298.72737
299.20336
299.6143
299.9625
300.25114
300.48403
300.66542
300.7998
300.89179
300.94594
300.96667
300.95818
300.92448
300.86924
300.79581
300.70724
300.60628
300.49541
300.37685
300.25253
300.12419
299.99332
299.86126
299.72913
299.59794
299.46853
299.34162
299.21782
299.09765
298.98157
298.86988
298.76284
298.66068
298.56356
298.47159
298.38484
298.30335
298.22714
298.15622
298.09061
298.03032
297.9754
297.92591
297.88189
297.84338
297.81039
297.7829
297.76068
297.74364
297.73208
297.7263
297.72602
297.73262
297.75133
297.78376
297.81782
297.85537
297.95
298.06826
288.76874
280.14936
285.58076
284.44064
286.56174
287.12575
288.40937
289.39791
290.52284
291.59269
292.66963
293.71845
294.7357
295.70906
296.62904
297.48734
298.27705
298.99331
299.63308
300.19523
300.68038
301.09062
301.42932
301.70078
301.90996
302.06226
302.16323
302.21845
302.23336
302.21313
302.1626
302.08624
301.98819
301.8722
301.74156
301.5992
301.44775
301.28953
301.12657
300.96064
300.79329
300.62583
300.45941
300.29501
300.13346
299.97546
299.82161
299.67238
299.52818
299.38935
299.25613
299.12867
299.00713
298.89161
298.78216
298.67877
298.58141
298.49005
298.40463
298.32507
298.25132
298.18334
298.1211
298.06458
298.0138
297.96879
297.92958
297.89611
297.86818
297.84581
297.82919
297.81799
297.81167
297.81221
297.82416
297.84611
297.86801
297.90207
297.99485
298.08696
290.28787
282.41169
287.61231
286.91918
289.01853
289.83901
291.21181
292.3543
293.57474
294.73258
295.86465
296.94
297.95287
298.89083
299.7466
300.51429
301.191
301.77604
302.271
302.67922
303.00552
303.25572
303.43632
303.55415
303.61612
303.62897
303.59916
303.53273
303.43525
303.31175
303.16676
303.00438
302.82824
302.64146
302.44674
302.24645
302.04271
301.83729
301.63175
301.42739
301.22533
301.02652
300.83175
300.6417
300.45691
300.27781
300.10478
299.93811
299.77803
299.62465
299.4781
299.33844
299.20571
299.07988
298.96089
298.84867
298.74312
298.64414
298.5516
298.46538
298.38536
298.31143
298.24351
298.18153
298.12543
298.07526
298.03103
297.99262
297.95998
297.93327
297.91248
297.89679
297.88581
297.88198
297.88829
297.9005
297.91156
297.94039
298.02519
298.10162
291.99122
285.06636
289.99701
289.80451
291.8961
292.97449
294.44483
295.71614
297.00586
298.20521
299.3373
300.37428
301.31253
302.14324
302.86469
303.47663
303.98234
304.3869
304.69721
304.92115
305.06726
305.14421
305.16059
305.12458
305.04381
304.92531
304.77543
304.59983
304.40349
304.19078
303.96554
303.73112
303.49036
303.24561
302.99893
302.75213
302.50671
302.26397
302.02496
301.79057
301.56154
301.33848
301.12189
300.91217
300.7096
300.51443
300.32684
300.14697
299.97485
299.81047
299.65388
299.50508
299.36394
299.23034
299.10417
298.9853
298.87358
298.76885
298.67095
298.57971
298.49496
298.41656
298.34435
298.27821
298.21806
298.1639
298.11566
298.07323
298.03671
298.00639
297.98197
297.96241
297.94794
297.94127
297.94302
297.94665
297.9488
297.97257
298.04709
298.10997
293.92287
288.22939
292.85102
293.19214
295.28683
296.59433
298.1524
299.47382
300.77072
301.93141
302.97636
303.88571
304.66279
305.30701
305.82488
306.22374
306.51361
306.70512
306.80953
306.83791
306.80092
306.70845
306.56958
306.39241
306.18413
305.95102
305.69852
305.43129
305.1533
304.86798
304.57826
304.28658
303.99487
303.70481
303.41789
303.1353
302.85805
302.58693
302.32262
302.06564
301.8164
301.57525
301.34243
301.11812
300.90242
300.6954
300.49713
300.30757
300.1266
299.95418
299.7903
299.63482
299.48752
299.34823
299.21679
299.09303
298.97676
298.8678
298.76594
298.67099
298.58275
298.50104
298.42567
298.35646
298.29331
298.23614
298.18477
298.13914
298.09951
298.06609
298.03821
298.01513
297.99814
297.98958
297.98717
297.98318
297.97915
298.00053
298.06546
298.11218
296.24748
292.01621
296.28498
297.14362
299.22765
300.69187
302.22927
303.55014
304.74031
305.74864
306.59737
307.28112
307.81346
308.2041
308.468
308.61934
308.67317
308.64359
308.5439
308.38609
308.18085
307.93752
307.66415
307.36764
307.05381
306.72757
306.393
306.0535
305.71194
305.37075
305.03185
304.69675
304.36671
304.04286
303.72611
303.41714
303.11652
302.82469
302.54197
302.26862
302.0048
301.75063
301.50617
301.27143
301.04635
300.83091
300.62506
300.4286
300.24135
300.06325
299.89421
299.734
299.58231
299.43895
299.30374
299.17645
299.05689
298.94484
298.84008
298.74242
298.65162
298.56748
298.48978
298.41834
298.35301
298.29361
298.23987
298.19182
298.14977
298.11357
298.08233
298.05612
298.03712
298.02643
298.01928
298.0092
298.00339
298.02611
298.08081
298.10421
299.01584
296.51133
300.36893
301.65518
303.60467
305.19578
306.60351
307.73635
308.68308
309.41724
309.96901
310.34866
310.57993
310.68127
310.67336
310.57412
310.40032
310.16646
309.88513
309.56699
309.22098
308.85453
308.47376
308.08371
307.68847
307.29137
306.8951
306.50186
306.11351
305.73146
305.35677
304.99028
304.63276
304.28481
303.94686
303.61923
303.30214
302.99576
302.70016
302.41538
302.14141
301.87821
301.6257
301.38373
301.15218
300.93095
300.71986
300.51865
300.32707
300.14504
299.97243
299.80893
299.65419
299.50797
299.37006
299.24023
299.11828
299.00396
298.89707
298.79737
298.70465
298.61867
298.53921
298.46609
298.39913
298.33803
298.28255
298.2328
298.1889
298.15026
298.1161
298.08736
298.06626
298.05218
298.03963
298.02566
298.02147
298.04591
298.08486
298.08853
302.35498
301.74325
304.98182
306.69801
308.55559
309.83148
310.93359
311.73634
312.32068
312.6865
312.87758
312.91587
312.83176
312.64774
312.3855
312.0624
311.69332
311.29023
310.86292
310.41921
309.96536
309.50633
309.04608
308.58772
308.1337
307.68592
307.2459
306.81491
306.39384
305.98331
305.58378
305.19568
304.81932
304.45489
304.1025
303.76217
303.43392
303.11768
302.81338
302.52088
302.24007
301.97078
301.71283
301.46598
301.23006
301.00491
300.79028
300.58581
300.39124
300.2065
300.03143
299.86567
299.70877
299.56047
299.42057
299.28886
299.1651
299.04905
298.9405
298.83921
298.74495
298.65746
298.57656
298.50207
298.43374
298.37123
298.31443
298.26347
298.21814
298.17756
298.14137
298.11096
298.08774
298.06971
298.05233
298.03591
298.03134
298.05084
298.08046
298.06763
306.64128
307.63409
310.54962
311.96896
313.37014
314.26464
314.91396
315.25925
315.40107
315.35666
315.17647
314.887
314.51762
314.08857
313.61746
313.11737
312.59874
312.0695
311.53577
311.00221
310.47236
309.94894
309.434
308.92906
308.43524
307.9534
307.4842
307.02811
306.58531
306.15594
305.74009
305.33784
304.94915
304.57395
304.21212
303.86351
303.52796
303.20528
302.89528
302.59772
302.3124
302.03909
301.77752
301.52741
301.28854
301.06074
300.84369
300.63696
300.44026
300.25359
300.0768
299.90942
299.7509
299.60099
299.45954
299.32634
299.20114
299.08369
298.97377
298.87112
298.77551
298.68669
298.60449
298.5287
298.45903
298.39522
298.33725
298.28517
298.2385
298.19639
298.15898
298.12771
298.10292
298.08171
298.06063
298.04208
298.03606
298.04965
298.06817
298.05644
311.8024
314.04801
315.99084
317.03353
317.81908
318.13007
318.21292
318.055
317.75079
317.32657
316.82498
316.26804
315.67688
315.06491
314.44296
313.81847
313.19704
312.58261
311.97805
311.38539
310.80606
310.24107
309.69105
309.1564
308.63734
308.13401
307.64647
307.17458
306.71814
306.27698
305.85095
305.43984
305.04342
304.66144
304.29365
303.93979
303.59958
303.27277
302.95905
302.65816
302.36984
302.09382
301.82976
301.57734
301.33637
301.10666
300.88782
300.67931
300.48092
300.29273
300.11458
299.94586
299.78593
299.6346
299.49175
299.3572
299.23067
299.11192
299.00069
298.89673
298.79978
298.70963
298.62608
298.5489
298.47779
298.41255
298.35323
298.29972
298.2514
298.20774
298.16923
298.13699
298.11048
298.08686
298.06406
298.04535
298.03902
298.04841
298.05688
298.03117
317.39343
320.21532
321.06816
321.3842
321.3921
321.07889
320.61169
320.01295
319.34676
318.63461
317.90192
317.161
316.42241
315.69219
314.97479
314.27291
313.58833
312.92212
312.27484
311.64676
311.03789
310.44814
309.87725
309.32491
308.79079
308.2746
307.77598
307.29445
306.82961
306.38111
305.94862
305.53178
305.13024
304.74367
304.37172
304.01406
303.67038
303.34035
303.02365
302.71998
302.42905
302.15055
301.88412
301.62944
301.38633
301.1546
300.93376
300.72324
300.5229
300.33293
300.15311
299.98268
299.82098
299.66786
299.52328
299.38704
299.25886
299.13849
299.02565
298.92009
298.82155
298.72981
298.64466
298.56583
298.49305
298.42619
298.36521
298.30987
298.25961
298.2142
298.17421
298.14012
298.11098
298.08479
298.0611
298.04295
298.0349
298.03667
298.03679
298.01792
324.43388
325.24036
324.94157
324.4638
323.76463
322.94305
322.06826
321.16825
320.26859
319.37965
318.50989
317.66285
316.84094
316.04494
315.2751
314.53114
313.81255
313.11866
312.44873
311.80198
311.17765
310.57501
309.99332
309.43187
308.89003
308.36725
307.86292
307.37645
306.90729
306.45499
306.01912
305.59924
305.19494
304.80584
304.43155
304.07171
303.72598
303.394
303.07543
302.76995
302.47729
302.1971
301.92901
301.67268
301.42798
301.1947
300.97229
300.76018
300.55828
300.36681
300.18555
300.01364
299.85042
299.69578
299.5497
299.41199
299.28235
299.16054
299.04627
298.93929
298.83933
298.74619
298.65961
298.57934
298.50513
298.43687
298.37442
298.31747
298.2656
298.21878
298.17737
298.14132
298.10972
298.08157
298.05731
298.0388
298.02749
298.02204
298.01728
298.00717
327.52118
327.80467
326.98754
325.9495
324.87126
323.78656
322.72143
321.6864
320.687
319.7246
318.79938
317.91028
317.05601
316.23497
315.44558
314.68626
313.95552
313.25197
312.5743
311.92132
311.29193
310.68513
310.09999
309.53564
308.99132
308.46635
307.96008
307.47186
307.00105
306.54717
306.10975
305.68834
305.2825
304.89183
304.51594
304.15445
303.80701
303.47326
303.15287
302.8455
302.5509
302.26872
301.99856
301.7401
301.49323
301.25777
301.03317
300.81877
300.61449
300.42065
300.23707
300.0629
299.89737
299.74034
299.59185
299.45172
299.31969
299.19549
299.07884
298.96951
298.86722
298.77176
298.68289
298.60034
298.52391
298.45346
298.38882
298.32966
298.27569
298.22695
298.18359
298.14533
298.11144
298.08163
298.05652
298.03691
298.02252
298.01215
298.00504
298.00124
315.97032
315.88009
308.37815
304.27133
303.18071
303.02807
303.05659
302.93083
302.84971
302.6862
302.58734
302.47662
302.35617
302.25272
302.13438
302.01069
301.88842
301.76247
301.63443
301.50241
301.36786
301.22975
301.08895
300.94507
300.79883
300.6502
300.49973
300.34759
300.19424
300.03994
299.88508
299.72993
299.57483
299.42006
299.26592
299.11268
298.96062
298.81001
298.66111
298.51419
298.36952
298.22736
298.08798
297.95164
297.81861
297.68916
297.56356
297.44207
297.32495
297.21247
297.10489
297.00247
296.90547
296.81415
296.72884
296.64974
296.57731
296.51164
296.45342
296.4023
296.35958
296.32367
296.2974
296.27631
296.26739
296.25974
296.27023
296.27384
296.31
296.32421
296.39702
296.41572
296.54096
296.54972
296.75026
296.72105
297.03641
296.95566
297.47233
297.40264
316.62674
310.52554
303.36193
301.44698
301.32818
301.43511
301.50861
301.49636
301.47973
301.46317
301.46256
301.42673
301.3953
301.34133
301.27922
301.20342
301.12214
301.03213
300.93709
300.83508
300.72863
300.61668
300.50074
300.38049
300.25693
300.13005
300.00053
299.86851
299.73449
299.59871
299.46158
299.32336
299.18442
299.04504
298.90555
298.76626
298.62749
298.48954
298.35272
298.21734
298.08372
297.95215
297.82294
297.69642
297.57287
297.45261
297.33593
297.22315
297.11456
297.01043
296.91107
296.81674
296.72776
296.64437
296.56692
296.49565
296.43099
296.37306
296.32251
296.27907
296.24387
296.21554
296.19654
296.18293
296.1809
296.18064
296.19749
296.20846
296.25025
296.27138
296.34894
296.37446
296.50332
296.51847
296.72169
296.6973
297.01691
296.9372
297.46126
297.38656
316.17044
306.93737
302.27512
300.87173
300.98285
301.00156
301.04084
300.97638
300.95584
300.88825
300.83949
300.77804
300.71751
300.64348
300.5732
300.49491
300.41676
300.33264
300.24679
300.15627
300.06354
299.96688
299.86762
299.76501
299.65982
299.55175
299.44127
299.32836
299.21336
299.0964
298.97779
298.85772
298.73649
298.61435
298.4916
298.36851
298.2454
298.12256
298.00031
297.87897
297.75886
297.64032
297.52368
297.40927
297.29742
297.18848
297.08278
296.98065
296.88242
296.78839
296.6989
296.61424
296.53474
296.46068
296.39241
296.33019
296.27445
296.22533
296.18347
296.14862
296.12184
296.10186
296.09093
296.08541
296.09099
296.09855
296.12243
296.14108
296.18906
296.21721
296.29999
296.33204
296.46383
296.48689
296.69414
296.67382
296.99807
296.91936
297.45079
297.37128
314.29827
303.34456
300.74283
299.97456
300.22194
300.14396
300.18557
300.09371
300.08034
300.00577
299.972
299.9106
299.86587
299.80392
299.74833
299.6838
299.62103
299.55263
299.48349
299.41022
299.33538
299.25701
299.17648
299.09292
299.00704
298.9185
298.82766
298.73446
298.63915
298.54181
298.44264
298.3418
298.2395
298.13597
298.03143
297.92614
297.82037
297.71441
297.60855
297.50312
297.39844
297.29484
297.19266
297.09227
296.994
296.89822
296.80528
296.71554
296.62935
296.54706
296.469
296.3955
296.32692
296.26355
296.20575
296.15381
296.10816
296.06895
296.0368
296.0115
295.99403
295.98322
295.98113
295.98437
295.99822
296.01414
296.04558
296.07228
296.1269
296.1625
296.2508
296.28961
296.42619
296.45573
296.66568
296.65096
296.97872
296.90255
297.43995
297.35707
312.70042
301.02999
299.66485
298.985
299.3394
299.16156
299.25475
299.14695
299.16461
299.08905
299.07411
299.0209
298.98972
298.9377
298.89612
298.84468
298.79673
298.74335
298.69011
298.63335
298.57565
298.51495
298.45258
298.38764
298.32068
298.25136
298.17991
298.10624
298.03048
297.95269
297.87297
297.79146
297.70831
297.62369
297.5378
297.45086
297.36311
297.27481
297.18624
297.09771
297.00951
296.92199
296.83549
296.75035
296.66694
296.58562
296.50677
296.43074
296.35792
296.28866
296.22332
296.16224
296.10579
296.05428
296.0081
295.96752
295.93299
295.90468
295.88317
295.86829
295.86095
295.86006
295.86752
295.88014
295.90287
295.92762
295.96714
296.0022
296.06389
296.10726
296.20146
296.2483
296.38976
296.42518
296.63812
296.62868
296.95975
296.88666
297.42929
297.34388
311.02019
298.99251
298.59014
297.83662
298.30786
298.06776
298.22422
298.10726
298.16147
298.0927
298.10517
298.06597
298.05661
298.02198
298.00051
297.96751
297.93874
297.90421
297.8699
297.83212
297.79337
297.75162
297.70814
297.66217
297.6141
297.56372
297.51117
297.45643
297.39957
297.34066
297.27979
297.21706
297.15261
297.08658
297.01914
296.95047
296.8808
296.81036
296.73939
296.66818
296.59701
296.52622
296.45612
296.38706
296.31939
296.25349
296.18972
296.12845
296.07007
296.01492
295.96338
295.91581
295.87256
295.83397
295.80043
295.77221
295.74977
295.73327
295.72328
295.71965
295.72323
295.73297
295.75066
295.77326
295.80543
295.83948
295.8875
295.93124
296.00035
296.05185
296.15226
296.20551
296.35461
296.39461
296.61056
296.60707
296.9409
296.87178
297.41869
297.33178
309.61515
297.29154
297.66575
296.78628
297.36493
297.06568
297.27591
297.1455
297.23006
297.16317
297.19661
297.16642
297.17309
297.15049
297.14372
297.12417
297.10962
297.08941
297.06969
297.04672
297.02309
296.99675
296.96884
296.93879
296.90684
296.8729
296.83698
296.79913
296.75933
296.71768
296.6742
296.62898
296.58211
296.53371
296.48391
296.43287
296.38077
296.32781
296.27423
296.22027
296.1662
296.11232
296.05894
296.00638
295.95499
295.90511
295.8571
295.81134
295.76817
295.72797
295.6911
295.65791
295.62876
295.60399
295.58397
295.569
295.5595
295.55565
295.55798
295.56635
295.58156
295.60259