/*--------------------------------*- C++ -*----------------------------------*\
| =========                 |                                                 |
| \\      /  F ield         | OpenFOAM: The Open Source CFD Toolbox           |
|  \\    /   O peration     | Version:  2206                                  |
|   \\  /    A nd           | Website:  www.openfoam.com                      |
|    \\/     M anipulation  |                                                 |
\*---------------------------------------------------------------------------*/
FoamFile
{
    version     2.0;
    format      ascii;
    arch        "LSB;label=32;scalar=64";
    class       volVectorField;
    location    "668";
    object      U;
}
// * * * * * * * * * * * * * * * * * * * * * * * * * * * * * * * * * * * * * //

dimensions      [0 1 -1 0 0 0 0];

internalField   nonuniform List<vector> 
16000
(
(295.28103 -3.8960767e-17 -11.052752)
(333.51195 0 6.328777)
(318.21811 0 -8.4988488)
(326.54424 5.5046299e-17 3.710823)
(321.00056 -5.4678186e-17 -6.2047954)
(323.59345 0 1.5519113)
(321.2594 0 -4.523972)
(321.96475 9.1586419e-17 0.0095360432)
(320.735 -8.6825965e-17 -3.4547492)
(320.74125 0 -1.0033159)
(319.88504 7.8058649e-17 -2.863139)
(319.55214 -2.2175474e-16 -1.6392115)
(318.86648 1.4019837e-16 -2.5952047)
(318.36754 -1.3338564e-16 -2.0423296)
(317.71421 1.2647749e-16 -2.5265194)
(317.12008 -3.7443101e-18 -2.3167333)
(316.44979 -3.56224e-18 -2.572786)
(315.7858 -1.0571691e-16 -2.5288082)
(315.07606 2.074991e-16 -2.6832467)
(314.35061 -9.8683389e-17 -2.716198)
(313.59009 1.8865149e-16 -2.8298915)
(312.80447 -1.7931816e-16 -2.897991)
(311.98668 0 -2.9978836)
(311.13951 1.6883494e-16 -3.0822451)
(310.26029 -4.3271988e-18 -3.1788321)
(309.34952 -2.9807971e-16 -3.2706276)
(308.40614 1.4213328e-16 -3.3667197)
(307.43013 0 -3.460969)
(306.42113 0 -3.555769)
(305.37921 2.5329015e-16 -3.6485849)
(304.30454 -2.3767585e-16 -3.7394879)
(303.19752 0 -3.8270179)
(302.0588 0 -3.910443)
(300.8893 0 -3.9885758)
(299.69019 6.2513778e-18 -4.0604275)
(298.46295 1.9234598e-16 -4.1249011)
(297.20936 -1.7780121e-16 -4.1809751)
(295.9315 -1.7681084e-16 -4.2276173)
(294.63178 1.5822296e-16 -4.2638507)
(293.31287 0 -4.2887516)
(291.97776 -1.5612654e-16 -4.3014714)
(290.62966 1.4914102e-16 -4.3012598)
(289.27202 -2.8772186e-16 -4.2874889)
(287.90848 2.7496372e-16 -4.2596778)
(286.54279 -2.7359954e-16 -4.2175144)
(285.17883 5.0852036e-16 -4.160868)
(283.82048 8.7654312e-18 -4.0898054)
(282.47163 1.0667151e-18 -4.0045926)
(281.13606 -2.2505862e-16 -3.9056957)
(279.81744 2.1727079e-16 -3.7937754)
(278.51921 -1.9491991e-16 -3.6696726)
(277.24461 0 -3.5343886)
(275.99652 1.205058e-17 -3.3890632)
(274.77752 0 -3.2349449)
(273.58976 1.1144949e-17 -3.0733611)
(272.43497 3.5409306e-16 -2.9056881)
(271.31444 -6.5945961e-16 -2.7333165)
(270.22901 1.8782189e-17 -2.5576249)
(269.17916 3.0480134e-16 -2.37995)
(268.16506 -2.7590139e-16 -2.2015627)
(267.18667 2.6475086e-16 -2.0236487)
(266.24384 -1.7032351e-17 -1.8472895)
(265.33634 0 -1.6734318)
(264.46372 0 -1.5029038)
(263.62515 -2.2850761e-16 -1.3363942)
(262.81924 2.3438534e-16 -1.1744647)
(262.04337 -2.1232473e-16 -1.0175727)
(261.29402 4.2276713e-16 -0.86593738)
(260.56457 -4.2109423e-16 -0.71996982)
(259.85071 1.9036912e-16 -0.5792741)
(259.14034 1.2274113e-17 -0.4451916)
(258.44044 0 -0.31448591)
(257.72426 1.1470912e-17 -0.19398654)
(257.0382 -1.1099334e-17 -0.068688162)
(256.28185 0 0.0324186)
(255.62582 -8.5981724e-17 0.16720031)
(254.70525 1.6172094e-16 0.21807056)
(254.15726 -8.3364987e-17 0.44500316)
(252.74973 0 0.25247728)
(252.7341 0 0.93749113)
(298.19491 0 -14.935686)
(336.52721 -3.9008251e-18 3.6164539)
(320.64354 -1.2979009e-16 -12.3817)
(329.43575 1.1606921e-16 0.88881577)
(323.50143 0 -9.956453)
(326.32719 1.0627841e-16 -1.3935863)
(323.77202 -1.9640444e-16 -8.1228354)
(324.57 -1.9640291e-19 -3.061815)
(323.20913 8.7806895e-17 -6.9196336)
(323.23872 0 -4.1667879)
(322.29981 -1.5810501e-16 -6.2332051)
(321.94223 1.542175e-16 -4.8543167)
(321.19459 1.4689014e-16 -5.9045803)
(320.65114 -2.7028727e-16 -5.2781345)
(319.939 1.2434569e-16 -5.7978188)
(319.28881 1.1446761e-17 -5.5540827)
(318.5565 1.2014532e-16 -5.8183576)
(317.82819 -1.0716395e-16 -5.7572201)
(317.05056 0 -5.9084455)
(316.25363 0 -5.9299788)
(315.41857 5.9746979e-18 -6.0355835)
(314.55486 -1.889165e-16 -6.0929594)
(313.6561 3.599625e-16 -6.1818094)
(312.72485 -3.3848124e-16 -6.2536735)
(311.75902 1.538999e-16 -6.3361842)
(310.75914 0 -6.4122589)
(309.72464 1.3654818e-16 -6.4904904)
(308.65572 -1.4732817e-16 -6.5647502)
(307.55249 0 -6.6370393)
(306.41535 3.9566494e-18 -6.7047604)
(305.24489 -1.5198162e-17 -6.7677104)
(304.04195 0 -6.8243068)
(302.80758 0 -6.8736065)
(301.54315 -2.0092981e-16 -6.9142768)
(300.25029 4.0329219e-16 -6.9451556)
(298.93093 -1.9586641e-16 -6.9649848)
(297.58735 -1.9459145e-16 -6.9725763)
(296.22215 1.8006373e-16 -6.9667689)
(294.83823 -1.4109398e-16 -6.946506)
(293.43882 -8.3484146e-19 -6.910843)
(292.02743 -8.0180677e-19 -6.8589787)
(290.60776 3.0593115e-16 -6.7902768)
(289.18375 -1.4646133e-16 -6.704289)
(287.75943 0 -6.6007737)
(286.33891 2.7980265e-16 -6.4797185)
(284.92631 1.7523787e-17 -6.3413536)
(283.5257 -6.6101421e-18 -6.1861561)
(282.141 -2.3920559e-16 -6.0148432)
(280.77598 0 -5.8283607)
(279.43416 -2.2173846e-16 -5.6278641)
(278.11877 -1.4193694e-17 -5.4146952)
(276.83272 4.0845224e-16 -5.1903503)
(275.57853 -2.08095e-16 -4.9564472)
(274.35834 0 -4.7146881)
(273.17381 -3.4000057e-17 -4.4668209)
(272.02617 -3.5984899e-16 -4.2146049)
(270.91619 6.2774416e-16 -3.9597707)
(269.84418 -3.8170918e-16 -3.7039936)
(268.81007 0 -3.4488619)
(267.8135 -3.1654688e-16 -3.1958533)
(266.85389 3.3936315e-16 -2.9463155)
(265.93061 5.1614506e-17 -2.7014486)
(265.04296 0 -2.4622816)
(264.19016 -2.8682948e-16 -2.2296901)
(263.37114 1.4786312e-17 -2.0043698)
(262.58435 2.3564825e-16 -1.786874)
(261.82729 -4.259805e-17 -1.5776157)
(261.09616 2.0525998e-16 -1.3768409)
(260.38523 -2.3690368e-16 -1.1847519)
(259.688 1.2690176e-17 -1.0013767)
(258.99625 -1.2236014e-17 -0.82693917)
(258.30737 0 -0.66042933)
(257.61189 -1.1392819e-17 -0.50370827)
(256.92268 1.100158e-17 -0.35119818)
(256.20263 2.1273631e-17 -0.21246531)
(255.50721 2.5696819e-18 -0.068884542)
(254.6738 0 0.040746464)
(254.01067 8.1971795e-17 0.22535663)
(252.77182 -1.590035e-16 0.15204779)
(252.51535 7.1961408e-17 0.6944068)
(300.87548 0 -18.821165)
(339.2518 -1.2233117e-16 0.56054835)
(322.76696 2.575917e-16 -16.371836)
(331.97522 -2.2344922e-16 -2.20986)
(325.69392 1.1130652e-16 -13.841763)
(328.7115 -3.2677625e-18 -4.6141234)
(325.95102 9.9374521e-17 -11.873299)
(326.81837 -9.3442282e-17 -6.4018299)
(325.32951 -5.5392417e-18 -10.558868)
(325.36474 -5.2463015e-18 -7.5890845)
(324.34122 -9.969945e-18 -9.7994567)
(323.94582 1.3786061e-16 -8.3205818)
(323.12926 -1.3975533e-16 -9.4295449)
(322.52928 1.3744484e-16 -8.7628238)
(321.74886 -1.1816273e-16 -9.3004969)
(321.03087 -1.5542105e-17 -9.0421249)
(320.22574 0 -9.3075433)
(319.42161 -3.8667422e-20 -9.2396531)
(318.56507 -2.2866242e-16 -9.385121)
(317.68579 -7.3191463e-19 -9.3997994)
(316.76582 1.7677767e-16 -9.4955712)
(315.81416 1.7484859e-17 -9.5426251)
(314.82515 -2.2272357e-17 -9.6176219)
(313.80115 0 -9.6742825)
(312.74052 3.0306629e-20 -9.7382266)
(311.64387 -1.7504643e-16 -9.7935324)
(310.51094 1.5746393e-16 -9.8477454)
(309.34212 8.8899462e-18 -9.8951862)
(308.13784 0 -9.937345)
(306.89885 -8.137085e-18 -9.9717138)
(305.62613 1.0150868e-20 -9.9978097)
(304.32099 -2.2412743e-16 -10.013985)
(302.98504 2.2782955e-16 -10.019114)
(301.62024 1.3696247e-17 -10.01175)
(300.2289 -2.1027303e-16 -9.9905785)
(298.81369 1.7535825e-16 -9.9542118)
(297.37762 -2.1739597e-16 -9.9013473)
(295.92405 1.8436348e-16 -9.8307743)
(294.45661 -1.7772321e-16 -9.7414301)
(292.97923 1.6963421e-16 -9.6324255)
(291.49606 2.0437588e-17 -9.5031017)
(290.0114 0 -9.3530511)
(288.52966 2.6367251e-16 -9.1821385)
(287.05528 -3.2383956e-16 -8.9905129)
(285.59263 0 -8.7786135)
(284.14597 2.4982047e-16 -8.5471735)
(282.71934 -2.2253696e-16 -8.2972084)
(281.31657 2.4548477e-16 -8.0300012)
(279.94115 -2.6403685e-16 -7.7470719)
(278.59625 0 -7.4501449)
(277.28461 2.7148573e-16 -7.141112)
(276.0086 -2.0765375e-16 -6.8219879)
(274.77013 0 -6.4948662)
(273.57066 0 -6.1618766)
(272.41119 2.075456e-16 -5.8251362)
(271.29226 -3.5377196e-16 -5.4867184)
(270.21397 2.1200443e-16 -5.1486086)
(269.17596 3.2667992e-16 -4.8126826)
(268.17754 9.4914346e-19 -4.4806767)
(267.21773 8.6572347e-19 -4.1541724)
(266.29539 -6.1432888e-16 -3.8345794)
(265.40934 1.7317568e-16 -3.5231267)
(264.55842 0 -3.2208476)
(263.74147 2.8876417e-16 -2.9285902)
(262.95714 -3.3865887e-16 -2.6470012)
(262.20367 2.3716661e-16 -2.3765626)
(261.47855 2.8900559e-17 -2.1176041)
(260.77794 -1.9149734e-16 -1.8702696)
(260.09633 2.6330497e-17 -1.6346225)
(259.42678 5.0721658e-17 -1.4106573)
(258.76183 -2.4414312e-16 -1.1982315)
(258.09605 2.3482107e-16 -0.9969633)
(257.42485 -1.8117603e-16 -0.8070695)
(256.75015 3.4900358e-16 -0.62615523)
(256.05901 -1.4712003e-16 -0.45619999)
(255.35716 -1.6244003e-16 -0.29736154)
(254.58255 1.3708336e-16 -0.14219195)
(253.85635 0 0.010561396)
(252.74468 9.164758e-18 0.05784031)
(252.33042 -3.5026362e-17 0.45504014)
(303.03813 0 -22.830209)
(341.52605 0 -2.6442283)
(324.21946 0 -20.573918)
(333.98818 1.0198235e-16 -5.4668084)
(327.3439 -1.1947947e-16 -17.933658)
(330.56118 -2.1063781e-16 -8.0139721)
(327.5822 2.0073781e-16 -15.820235)
(328.51876 -1.1823059e-17 -9.9377184)
(326.89278 5.6545108e-18 -14.392045)
(326.92761 -1.6572343e-16 -11.216481)
(325.81324 1.6234024e-16 -13.564263)
(325.37206 9.6744431e-18 -11.998852)
(324.47976 -1.4705391e-16 -13.161231)
(323.81581 1.3066431e-16 -12.464932)
(322.96113 -3.3844231e-20 -13.016299)
(322.16957 -7.8691464e-18 -12.748523)
(321.28725 0 -13.011056)
(320.40362 -7.197515e-18 -12.936666)
(319.4656 -2.0585045e-16 -13.071669)
(318.50213 2.0865388e-16 -13.076338)
(317.49606 1.2490047e-17 -13.156828)
(316.45573 -1.1922335e-17 -13.188571)
(315.37593 2.1643559e-16 -13.243874)
(314.25871 -1.7342674e-16 -13.279625)
(313.10269 1.0392289e-17 -13.319047)
(311.90846 1.9893404e-16 -13.347622)
(310.676 -1.3254042e-16 -13.371703)
(309.40596 0 -13.38602)
(308.09915 1.5684374e-16 -13.39142)
(306.75678 -1.3280599e-16 -13.385346)
(305.38044 2.7160202e-16 -13.366899)
(303.97211 -1.3956336e-17 -13.334242)
(302.53423 -2.3336585e-16 -13.285972)
(301.06961 1.9684004e-16 -13.220471)
(299.58151 -2.1432927e-16 -13.136282)
(298.07359 -9.1259169e-20 -13.031983)
(296.54981 2.4752053e-16 -12.906318)
(295.01447 -3.7887883e-16 -12.758201)
(293.47209 1.129539e-16 -12.586758)
(291.92739 4.3694612e-17 -12.391362)
(290.38517 -6.2776946e-17 -12.171703)
(288.85028 0 -11.927791)
(287.32751 -1.1586685e-16 -11.659985)
(285.82151 1.8404812e-16 -11.369002)
(284.33673 -2.839467e-16 -11.055894)
(282.87731 2.7106129e-16 -10.722032)
(281.44707 -2.9386513e-16 -10.36907)
(280.04941 5.6298489e-16 -9.9989261)
(278.68729 -4.50025e-16 -9.6137306)
(277.36323 4.60479e-16 -9.2157838)
(276.07928 -2.2017624e-16 -8.8075016)
(274.83699 2.1233983e-16 -8.3913656)
(273.63746 -1.5196137e-16 -7.9698694)
(272.48134 4.8873659e-17 -7.545478)
(271.3688 0 -7.1205752)
(270.29959 0 -6.6974372)
(269.27305 0 -6.2781935)
(268.28812 4.1248555e-17 -5.8648077)
(267.34343 0 -5.4590558)
(266.43739 -3.0458496e-16 -5.0625167)
(265.5683 3.6456142e-16 -4.676562)
(264.73444 -2.1045851e-16 -4.302354)
(263.93422 -6.1358443e-19 -3.9408426)
(263.16612 5.1590119e-16 -3.5927703)
(262.42856 6.2355046e-17 -3.2586729)
(261.71968 -2.9696597e-16 -2.9389083)
(261.03694 1.1422079e-16 -2.6336839)
(260.37664 -3.2867457e-16 -2.343021)
(259.7334 -1.0534058e-16 -2.0668681)
(259.10029 -1.5173587e-16 -1.8050957)
(258.46974 -1.4593469e-16 -1.5574212)
(257.83541 1.4003226e-16 -1.3235307)
(257.19337 0 -1.1032209)
(256.54325 0 -0.89433089)
(255.87934 -4.1575047e-17 -0.69812135)
(255.1895 0 -0.51842691)
(254.46007 1.9284264e-17 -0.32981301)
(253.70067 1.4882379e-16 -0.1951459)
(252.70363 -2.153261e-16 -0.041682327)
(252.12857 -9.323706e-20 0.21699426)
(304.57298 0 -27.069077)
(343.28704 -7.9956708e-18 -5.9622087)
(325.28122 2.5065704e-16 -24.950597)
(335.39168 -2.2779033e-16 -8.8943324)
(328.39846 2.3520605e-16 -22.180596)
(331.81702 -2.1277995e-16 -11.601808)
(328.61291 -2.0390441e-16 -19.919602)
(329.61174 1.9203309e-16 -13.672451)
(327.8452 0 -18.387705)
(327.86609 0 -15.050341)
(326.66231 1.6547758e-16 -17.507569)
(326.16721 -1.5671353e-16 -15.881398)
(325.19789 -9.3533355e-18 -17.074143)
(324.46626 2.6666031e-17 -16.360351)
(323.53723 -8.4758422e-18 -16.908851)
(322.67071 3.2271195e-17 -16.633859)
(321.71111 0 -16.882235)
(320.74687 0 -16.799371)
(319.72606 -2.2418907e-16 -16.916631)
(318.67595 1.9970601e-16 -16.908387)
(317.58039 0 -16.969095)
(316.44678 0 -16.982866)
(315.27052 -1.8642531e-16 -17.015394)
(314.05343 3.5557688e-16 -17.0276)
(312.79461 -1.6956606e-16 -17.039465)
(311.4949 -2.0314356e-17 -17.037882)
(310.15489 -3.8915841e-17 -17.027653)
(308.77581 -1.4926493e-16 -17.003756)
(307.35927 1.2432727e-16 -16.966228)
(305.90735 0 -16.912355)
(304.42258 -3.2772775e-17 -16.840779)
(302.908 0 -16.749461)
(301.3671 0 -16.636763)
(299.80383 2.3064481e-16 -16.500988)
(298.22253 -2.4744871e-16 -16.340675)
(296.62794 2.635609e-17 -16.154542)
(295.02506 -2.5265663e-17 -15.941585)
(293.41912 -4.8759952e-17 -15.701065)
(291.81551 -3.0895735e-19 -15.432573)
(290.21961 3.0166942e-19 -15.136051)
(288.63677 -2.9267378e-19 -14.811817)
(287.07215 0 -14.460553)
(285.53068 -1.5794753e-16 -14.083337)
(284.01696 1.5066383e-16 -13.681628)
(282.53519 0 -13.257231)
(281.0891 -6.9712365e-17 -12.81227)
(279.68191 2.6695867e-16 -12.349119)
(278.31632 -3.1843049e-16 -11.870363)
(276.99447 -3.0674514e-16 -11.378735)
(275.71796 2.3418241e-16 -10.877069)
(274.48788 1.6930018e-16 -10.368229)
(273.3048 -2.1521657e-16 -9.8550647)
(272.16885 -5.1554181e-17 -9.3403498)
(271.07971 -3.4716895e-16 -8.8267525)
(270.03664 1.8954468e-16 -8.3167854)
(269.03855 -1.8223897e-16 -7.8127852)
(268.08397 1.7412987e-16 -7.3168851)
(267.17115 4.1846478e-16 -6.8309987)
(266.29807 -3.1992858e-16 -6.3568135)
(265.46254 0 -5.8957865)
(264.66236 -7.3466603e-17 -5.4491458)
(263.89534 -1.4110888e-16 -5.0178954)
(263.15951 2.7006397e-16 -4.6028199)
(262.45304 2.5940344e-16 -4.2044911)
(261.77415 -4.9688499e-16 -3.8232768)
(261.12088 1.7825493e-16 -3.4593692)
(260.49077 1.141099e-16 -3.1128052)
(259.88025 2.1906095e-16 -2.7834519)
(259.28417 3.1520913e-16 -2.4711052)
(258.69574 1.5570333e-19 -2.1754723)
(258.10732 0 -1.8961478)
(257.51206 0 -1.6328521)
(256.9058 -8.9136362e-17 -1.3850761)
(256.28825 2.5677805e-16 -1.1504743)
(255.6546 -2.464884e-16 -0.93167428)
(254.99018 -2.3701598e-16 -0.72904799)
(254.29936 1.5178001e-16 -0.51694778)
(253.52988 0 -0.38726261)
(252.63365 1.4067824e-16 -0.1393775)
(251.92146 1.6564335e-19 -0.014397061)
(305.52564 0 -31.501317)
(344.55973 2.7309396e-20 -9.4169673)
(325.86937 8.1630188e-18 -29.463579)
(336.23324 2.5341967e-16 -12.471041)
(328.86605 5.7419504e-19 -26.563837)
(332.52568 -4.4545746e-16 -15.377112)
(329.07183 -5.5936635e-19 -24.156287)
(330.13726 4.0262099e-16 -17.594018)
(328.22302 -1.8575849e-16 -22.520553)
(328.21125 -1.1029655e-17 -19.066503)
(326.94066 1.0511174e-17 -21.59172)
(326.39079 -1.6006558e-16 -19.923314)
(325.34706 1.7090252e-16 -21.113076)
(324.54459 -1.6324846e-16 -20.390065)
(323.53814 2.7606526e-16 -20.920046)
(322.58946 -2.7956645e-16 -20.642905)
(321.54392 1.2520207e-16 -20.871681)
(320.48758 0 -20.784141)
(319.37077 0 -20.883084)
(318.21908 1.3629294e-17 -20.864391)
(317.01793 -2.6100701e-17 -20.905677)
(315.77424 0 -20.901888)
(314.48445 1.9091757e-16 -20.910447)
(313.1507 9.6008965e-19 -20.896702)
(311.77298 -3.4821127e-16 -20.876949)
(310.3529 1.6612895e-16 -20.839488)
(308.89204 1.989285e-17 -20.787515)
(307.39265 0 -20.716255)
(305.85746 -1.832996e-16 -20.625027)
(304.28972 1.3959184e-16 -20.511067)
(302.69319 -2.3562633e-16 -20.372735)
(301.07212 2.2397243e-16 -20.207984)
(299.43123 -2.470647e-16 -20.015183)
(297.77565 2.3534315e-16 -19.792803)
(296.11086 8.5039078e-17 -19.539645)
(294.44258 0 -19.254805)
(292.77673 0 -18.93777)
(291.11932 4.964279e-17 -18.588412)
(289.47629 4.7584911e-17 -18.207052)
(287.85343 -4.5612132e-17 -17.794448)
(286.25626 4.3720149e-17 -17.351784)
(284.68995 8.4552536e-17 -16.880657)
(283.15917 -8.0651589e-17 -16.38306)
(281.66805 4.6399945e-16 -15.861322)
(280.22013 -3.6982971e-16 -15.318085)
(278.81835 7.0690997e-17 -14.756253)
(277.46498 -6.8267327e-17 -14.178915)
(276.16166 0 -13.589277)
(274.90945 3.1214871e-16 -12.990589)
(273.70878 -2.3847452e-16 -12.386096)
(272.55961 0 -11.778968)
(271.4614 0 -11.172264)
(270.4132 2.1019013e-16 -10.568875)
(269.41369 -1.0040341e-16 -9.9715031)
(268.46121 0 -9.3826251)
(267.55382 -2.7678622e-16 -8.8044781)
(266.68934 1.7610227e-16 -8.2390474)
(265.86535 2.5381253e-16 -7.6880607)
(265.07928 -3.2285317e-16 -7.1529918)
(264.32847 3.0978809e-16 -6.6350671)
(263.61027 -2.959409e-16 -6.1352756)
(262.92215 4.5864483e-19 -5.6543805)
(262.26182 0 -5.1929303)
(261.62723 1.3002238e-16 -4.7512713)
(261.01648 -6.224964e-16 -4.3295551)
(260.42761 3.5724232e-16 -3.9277729)
(259.85826 0 -3.5457696)
(259.30508 -3.2797605e-16 -3.183246)
(258.76322 2.0925255e-16 -2.8398355)
(258.22616 3.0123611e-16 -2.5150702)
(257.68626 2.2115048e-19 -2.208447)
(257.13619 -1.8405055e-16 -1.9196981)
(256.57157 2.6480032e-16 -1.6478864)
(255.9923 -4.2299848e-16 -1.3908908)
(255.39285 2.4330541e-16 -1.1525707)
(254.76295 7.7670966e-17 -0.92702115)
(254.10795 1.4930043e-16 -0.70002699)
(253.34616 0 -0.56336879)
(252.53729 -1.3781472e-16 -0.24520376)
(251.72323 6.4196235e-17 -0.23880427)
(306.00706 0 -36.135429)
(345.4259 8.1717722e-18 -13.03296)
(326.08439 -2.6395552e-16 -34.149544)
(336.77319 2.1054557e-16 -16.243632)
(329.03701 2.193064e-16 -31.088277)
(332.78781 -4.242318e-16 -19.35717)
(329.13391 1.9615349e-16 -28.525902)
(330.3008 1.9849907e-16 -21.698041)
(328.17152 -1.8858774e-16 -26.763868)
(328.30356 3.3647066e-17 -23.209497)
(326.73314 0 -25.734092)
(326.10783 0 -24.065543)
(324.97218 -1.935007e-17 -25.24287)
(324.07444 -1.4784304e-16 -24.537403)
(322.96716 1.2276329e-16 -25.048571)
(321.9099 1.6811138e-17 -24.784672)
(320.75238 -3.2092596e-17 -24.995459)
(319.5773 2.7573535e-16 -24.909626)
(318.3385 -2.0365504e-16 -24.989959)
(317.06003 2.2368224e-16 -24.960415)
(315.72937 -1.8607024e-16 -24.978313)
(314.35331 2.5584882e-17 -24.951312)
(312.92963 1.4675485e-16 -24.927887)
(311.46109 -1.860189e-16 -24.878236)
(309.94885 0 -24.815047)
(308.39551 0 -24.72814)
(306.80386 0 -24.619317)
(305.17736 -1.9657638e-16 -24.484175)
(303.52 1.8700318e-16 -24.321548)
(301.83634 -3.6155423e-17 -24.128791)
(300.13144 0 -23.904231)
(298.41085 -2.9840464e-16 -23.646042)
(296.68055 2.521892e-16 -23.352878)
(294.94682 -6.099413e-17 -23.02365)
(293.21616 1.7526236e-16 -22.657725)
(291.4952 -5.463808e-17 -22.254876)
(289.79054 -2.1272538e-16 -21.815381)
(288.10863 2.5651357e-16 -21.340012)
(286.45563 -1.9533807e-16 -20.830052)
(284.83731 9.4425e-17 -20.287265)
(283.25891 -8.9850107e-17 -19.713887)
(281.72506 1.7267953e-16 -19.11257)
(280.23971 -8.2093078e-17 -18.486317)
(278.80606 -3.166631e-16 -17.8384)
(277.42658 6.8020528e-16 -17.1723)
(276.10296 -2.889175e-16 -16.491634)
(274.83619 -2.0873807e-16 -15.80009)
(273.62659 1.3148525e-16 -15.10135)
(272.47387 1.2749874e-16 -14.399014)
(271.37717 -2.4333966e-16 -13.696545)
(270.33521 2.3202036e-16 -12.997221)
(269.34628 0 -12.30411)
(268.40834 2.1300395e-16 -11.620022)
(267.51913 -3.0522405e-16 -10.947501)
(266.67612 9.7599155e-17 -10.288812)
(265.87666 9.2814767e-17 -9.645927)
(265.11793 0 -9.0205391)
(264.397 0 -8.4140636)
(263.71088 0 -7.8276532)
(263.05653 0 -7.2622124)
(262.43102 0 -6.7184157)
(261.83157 -1.4211964e-16 -6.1967244)
(261.2557 0 -5.6974013)
(260.70123 -3.9119147e-19 -5.2205301)
(260.16621 4.9822334e-16 -4.7660179)
(259.64875 -4.7631403e-16 -4.3336326)
(259.14664 -2.283516e-16 -3.9230152)
(258.65684 -4.3637514e-16 -3.5336919)
(258.17486 6.2518201e-16 -3.165119)
(257.69456 4.337051e-19 -2.8166509)
(257.2084 1.9063892e-16 -2.4877273)
(256.7087 0 -2.1780097)
(256.19092 0 -1.8861208)
(255.65454 0 -1.6107492)
(255.09379 -3.2015623e-16 -1.3556652)
(254.5052 0 -1.1091118)
(253.88523 -2.9378092e-16 -0.87405369)
(253.1473 4.2210542e-16 -0.72089661)
(252.4174 2.6994858e-16 -0.35312158)
(251.52444 -6.2281657e-17 -0.45203973)
(306.06738 0 -40.975559)
(345.91798 0 -16.83234)
(325.82814 2.6688761e-16 -39.0126)
(337.00674 1.6054073e-17 -20.198691)
(328.59626 -2.2135226e-16 -35.702013)
(332.81028 0 -23.479918)
(328.64151 1.3260829e-17 -32.923129)
(329.69922 -2.5209177e-17 -25.927835)
(327.57195 0 -31.081401)
(327.36581 1.5988517e-16 -27.497751)
(325.94016 -3.4749156e-16 -30.029944)
(325.19874 1.6513158e-16 -28.398702)
(323.94181 1.9783534e-17 -29.547561)
(322.91679 0 -28.873914)
(321.68151 1.7917479e-17 -29.353141)
(320.48885 -2.9196572e-16 -29.103087)
(319.19537 6.4162832e-17 -29.28438)
(317.87918 2.1827747e-16 -29.192711)
(316.49821 2.0991647e-16 -29.242221)
(315.07479 -2.2788211e-16 -29.18965)
(313.59859 0 -29.169952)
(312.07637 -2.6201519e-16 -29.104379)
(310.50732 2.2434785e-16 -29.032303)
(308.89501 -1.9207897e-16 -28.928764)
(307.24186 1.8272282e-16 -28.80306)
(305.55167 -1.7609718e-16 -28.646486)
(303.82855 3.3620721e-16 -28.459696)
(302.07737 -1.6096693e-16 -28.238723)
(300.30357 1.5476412e-16 -27.982149)
(298.51315 -2.9602289e-16 -27.687623)
(296.71264 1.4111174e-16 -27.353683)
(294.90896 1.3577809e-16 -26.97898)
(293.10931 -2.6079716e-16 -26.562739)
(291.32108 6.0283564e-17 -26.104625)
(289.55165 -1.5183888e-18 -25.604897)
(287.80824 2.8463504e-16 -25.064353)
(286.09779 0 -24.484389)
(284.42674 6.88316e-19 -23.866963)
(282.80099 0 -23.214568)
(281.2257 -9.5545876e-17 -22.530175)
(279.70523 -1.8331192e-16 -21.817184)
(278.24312 8.8077841e-17 -21.079319)
(276.84202 0 -20.320562)
(275.50371 -8.108534e-17 -19.545049)
(274.22913 3.8658337e-16 -18.756977)
(273.01843 -4.4264488e-16 -17.960506)
(271.87101 -4.2434796e-16 -17.159704)
(270.78568 4.0344434e-16 -16.35848)
(269.7607 -2.5788522e-16 -15.560532)
(268.79388 0 -14.769298)
(267.88269 0 -13.987926)
(267.0243 1.1300245e-16 -13.219257)
(266.21574 1.0796002e-16 -12.465813)
(265.4539 2.0558657e-16 -11.729788)
(264.73557 -9.8333712e-17 -11.013062)
(264.05752 -1.8744996e-16 -10.317206)
(263.41648 -3.5888507e-16 -9.6435001)
(262.80917 -1.7233448e-16 -8.9929496)
(262.23234 3.2693835e-16 -8.3663065)
(261.68275 0 -7.7640906)
(261.15733 -1.4961527e-16 -7.1866128)
(260.65319 -2.8543801e-16 -6.6339959)
(260.16777 2.7260556e-16 -6.1061914)
(259.69886 1.2961626e-16 -5.6030036)
(259.24454 1.2434849e-16 -5.1240849)
(258.80306 0 -4.6689755)
(258.37244 4.5384251e-16 -4.2371189)
(257.94998 4.3356529e-16 -3.8278693)
(257.53164 -6.2126456e-16 -3.4405038)
(257.11177 1.982353e-16 -3.0742254)
(256.68297 -1.8903069e-16 -2.7284392)
(256.23744 -2.87667e-19 -2.4026059)
(255.77043 6.9056742e-16 -2.095088)
(255.28019 -6.6006223e-16 -1.8057324)
(254.76211 1.5745035e-16 -1.5365487)
(254.21916 4.5246156e-16 -1.2724343)
(253.63405 -1.4430831e-16 -1.034456)
(252.93302 -1.3795232e-16 -0.8576073)
(252.27582 0 -0.45760135)
(251.32887 1.2137529e-16 -0.64963503)
(305.56409 3.2596836e-16 -45.9941)
(345.88224 8.3467595e-19 -20.777276)
(324.85095 -2.86181e-16 -43.943888)
(336.16696 0 -24.293264)
(327.56313 0 -40.393241)
(331.53959 -2.1174294e-16 -27.772336)
(327.51285 2.1530632e-16 -37.463193)
(328.54263 5.1244668e-17 -30.381741)
(326.2328 -1.9561919e-16 -35.566772)
(325.97098 1.8539192e-16 -32.026667)
(324.35168 -1.9983738e-16 -34.520941)
(323.48026 1.6852235e-16 -32.932366)
(322.09133 -4.032422e-17 -34.017001)
(320.92425 -3.8648735e-17 -33.376046)
(319.54949 -1.4727708e-16 -33.800772)
(318.20912 1.3991055e-16 -33.556259)
(316.7687 -3.0228151e-16 -33.691519)
(315.30085 5.1260191e-16 -33.580826)
(313.76812 -2.4433253e-16 -33.583617)
(312.19119 -2.3514668e-16 -33.491678)
(310.56206 2.2356434e-16 -33.416801)
(308.88776 -2.7352519e-17 -33.293719)
(307.16909 -2.0614834e-16 -33.153037)
(305.41075 1.9605332e-16 -32.974309)
(303.61676 2.3649204e-16 -32.763803)
(301.79246 -1.34323e-16 -32.514172)
(299.94372 0 -32.225188)
(298.07715 2.4896851e-16 -31.893413)
(296.19998 -3.1715529e-16 -31.517458)
(294.31992 1.1248959e-16 -31.095535)
(292.44506 -2.920321e-16 -30.626761)
(290.58371 2.0861618e-16 -30.110651)
(288.74421 -6.7329013e-17 -29.547439)
(286.93473 2.5650963e-16 -28.93798)
(285.1631 -2.4404277e-16 -28.283844)
(283.43663 -2.3508068e-16 -27.587237)
(281.76194 2.2366653e-16 -26.851003)
(280.14482 -5.3304699e-17 -26.078541)
(278.59013 0 -25.273727)
(277.10174 9.8970936e-17 -24.440824)
(275.6825 -9.3351814e-17 -23.584373)
(274.33423 0 -22.70908)
(273.05775 1.7210017e-16 -21.819722)
(271.853 -8.2203055e-17 -20.921041)
(270.71906 -2.3447951e-16 -20.017658)
(269.6543 7.4849537e-16 -19.113991)
(268.65645 -2.8732936e-16 -18.214179)
(267.72274 1.3643804e-16 -17.32205)
(266.85002 -3.9231888e-16 -16.441094)
(266.03485 -6.4941689e-19 -15.574448)
(265.27359 2.3781829e-16 -14.724876)
(264.56252 -2.2735224e-16 -13.894766)
(263.89789 -1.081196e-16 -13.086151)
(263.27596 -1.0322943e-16 -12.300717)
(262.69306 -1.9869252e-16 -11.539827)
(262.1456 3.7712338e-16 -10.804545)
(261.63004 0 -10.095656)
(261.14296 1.7145833e-16 -9.4136934)
(260.68102 -6.5662373e-16 -8.758962)
(260.24096 4.688994e-16 -8.1315665)
(259.81971 1.4908973e-16 -7.5314365)
(259.41441 2.8528307e-16 -6.9583479)
(259.02254 2.73482e-16 -6.4119413)
(258.64195 -2.5956383e-16 -5.8917456)
(258.27083 -2.4741154e-16 -5.3971668)
(257.90761 -7.0937516e-16 -4.9275296)
(257.55059 -2.0287607e-19 -4.4820978)
(257.19745 -2.1503398e-16 -4.0600601)
(256.8447 0 -3.6605237)
(256.48721 -5.8805545e-16 -3.2825873)
(256.11787 1.8711609e-16 -2.9256013)
(255.72899 0 -2.5887203)
(255.31535 3.4108334e-16 -2.270395)
(254.87352 0 -1.9715388)
(254.40146 3.1064224e-16 -1.6910619)
(253.90629 -4.4459649e-16 -1.4141734)
(253.35638 4.2478352e-16 -1.1766619)
(252.70312 -2.7044692e-16 -0.9711202)
(252.11169 2.5837418e-16 -0.55420582)
(251.13241 0 -0.81861995)
(304.34302 -3.2932144e-16 -51.163622)
(345.06121 2.6988535e-16 -24.831177)
(323.12046 -2.5684055e-16 -48.957864)
(334.852 2.510231e-16 -28.571637)
(325.83574 2.4392842e-16 -45.20534)
(329.93333 -1.3304301e-17 -32.303116)
(325.60114 -2.191395e-16 -42.154853)
(326.55732 -2.0891283e-16 -35.035691)
(324.10186 2.2358667e-16 -40.170832)
(323.70169 0 -36.703235)
(321.96452 2.2523708e-17 -39.090606)
(320.9464 0 -37.581365)
(319.41831 -1.0331635e-16 -38.574084)
(318.09684 1.9612444e-16 -37.970987)
(316.57227 0 -38.325447)
(315.07235 0 -38.078846)
(313.47368 0 -38.15379)
(311.84283 3.3101275e-17 -38.009902)
(310.1475 0 -37.949659)
(308.40703 -2.1112625e-16 -37.80013)
(306.61617 2.8758908e-16 -37.650602)
(304.78278 1.1036345e-16 -37.448456)
(302.90983 1.5863918e-16 -37.216291)
(301.00383 -2.5248612e-16 -36.937643)
(299.07099 -4.8059378e-17 -36.616264)
(297.11885 -2.3219555e-16 -36.246102)
(295.15548 1.7702459e-16 -35.826492)
(293.18965 -2.1300686e-16 -35.354838)
(291.23052 8.0104357e-17 -34.830306)
(289.28754 7.7416862e-17 -34.252194)
(287.3702 0 -33.620806)
(285.4878 2.8714898e-16 -32.937104)
(283.64923 -2.7425009e-16 -32.202908)
(281.86277 0 -31.420775)
(280.13589 -2.515746e-16 -30.594008)
(278.47508 2.3921602e-16 -29.726546)
(276.88575 -1.1571877e-16 -28.822883)
(275.37211 2.1990768e-16 -27.887941)
(273.93721 -3.1480426e-16 -26.926944)
(272.58286 3.7750456e-19 -25.9453)
(271.30975 -1.9096339e-16 -24.948467)
(270.11748 -9.1102843e-17 -23.941835)
(269.00471 -1.7551398e-16 -22.930626)
(267.96925 3.3270423e-16 -21.919802)
(267.00822 -1.5815643e-16 -20.914003)
(266.11816 0 -19.917493)
(265.29519 -1.5370842e-18 -18.934123)
(264.53513 1.375426e-16 -17.967309)
(263.83359 0 -17.020031)
(263.18612 1.2547341e-16 -16.094847)
(262.58826 1.2094002e-16 -15.193908)
(262.03563 -1.1467055e-16 -14.318967)
(261.52398 4.3749877e-16 -13.471419)
(261.04921 -4.1684441e-16 -12.652334)
(260.60743 -1.9911952e-16 -11.862476)
(260.1949 -1.898268e-16 -11.102341)
(259.80808 1.8096252e-16 -10.372178)
(259.44358 3.4429293e-16 -9.6720264)
(259.09815 -6.5617277e-16 -9.0017386)
(258.76867 7.816454e-16 -8.3610094)
(258.45222 -2.9758433e-16 -7.7493996)
(258.14609 2.8419024e-16 -7.1663567)
(257.8479 -2.7054724e-16 -6.6112331)
(257.55562 5.1642182e-16 -6.0833032)
(257.26763 -7.390397e-16 -5.5817529)
(256.98257 4.6948135e-16 -5.1057195)
(256.69906 -5.957806e-19 -4.6543114)
(256.4152 2.1364414e-16 -4.2265659)
(256.12809 0 -3.821451)
(255.83314 0 -3.4380091)
(255.52373 0 -3.0754721)
(255.19253 -3.524269e-16 -2.7326746)
(254.83344 1.8798811e-19 -2.4085332)
(254.44137 0 -2.1044747)
(254.01764 0 -1.8158451)
(253.57016 2.91173e-16 -1.5319777)
(253.05664 -5.5500565e-16 -1.2966898)
(252.46043 0 -1.060259)
(251.92556 0 -0.64441485)
(250.93328 -4.5669388e-16 -0.96988098)
(302.46065 2.2058968e-17 -56.497056)
(343.5126 -5.6665548e-16 -29.03146)
(320.77793 2.5953826e-16 -54.122169)
(332.83514 -1.6099973e-17 -33.05426)
(323.46104 2.7910243e-16 -50.118203)
(327.55873 -2.6267122e-16 -37.01091)
(323.041 0 -46.894142)
(323.89347 -2.3986406e-16 -39.844139)
(321.28632 1.7731806e-16 -44.84855)
(320.73609 1.6985981e-16 -41.510388)
(318.85024 -1.8436698e-16 -43.749893)
(317.66262 0 -42.33127)
(315.97747 5.3253286e-19 -43.206859)
(314.47925 0 -42.636646)
(312.78419 3.0909927e-16 -42.902712)
(311.10285 -5.8928657e-16 -42.63987)
(309.32476 2.8088593e-16 -42.637036)
(307.51049 -3.3479134e-17 -42.440537)
(305.63378 -3.256961e-17 -42.296604)
(303.7135 3.1723121e-17 -42.065586)
(301.74796 -5.8695765e-17 -41.815946)
(299.74684 -2.8367023e-16 -41.506236)
(297.71606 2.7001186e-16 -41.152259)
(295.66469 5.1522966e-17 -40.741138)
(293.60169 -2.5016895e-16 -40.274986)
(291.53712 -1.4523969e-18 -39.749376)
(289.48143 2.7288733e-16 -39.16405)
(287.4454 -1.7418804e-16 -38.517909)
(285.43983 -1.687124e-18 -37.811512)
(283.47532 0 -37.04597)
(281.56198 0 -36.223494)
(279.70918 -7.4097414e-17 -35.34711)
(277.92534 1.403443e-16 -34.420724)