/*--------------------------------*- C++ -*----------------------------------*\
| =========                 |                                                 |
| \\      /  F ield         | OpenFOAM: The Open Source CFD Toolbox           |
|  \\    /   O peration     | Version:  2206                                  |
|   \\  /    A nd           | Website:  www.openfoam.com                      |
|    \\/     M anipulation  |                                                 |
\*---------------------------------------------------------------------------*/
FoamFile
{
    version     2.0;
    format      ascii;
    arch        "LSB;label=32;scalar=64";
    class       volScalarField;
    location    "200";
    object      alphat;
}
// * * * * * * * * * * * * * * * * * * * * * * * * * * * * * * * * * * * * * //

dimensions      [1 -1 -1 0 0 0 0];

internalField   nonuniform List<scalar> 
50904
(
9.9406038e-07
1.1571637e-06
1.1432101e-06
1.4138087e-06
1.4225627e-05
1.6162964e-05
1.732662e-05
1.8058381e-05
6.490088e-05
6.610653e-05
6.5338881e-05
6.7049024e-05
0.00017255859
0.00017011719
0.00015739981
0.00015555685
0.00036316041
0.00035037053
0.00031781248
0.00030995566
0.00065976264
0.00063540036
0.00057487482
0.00055536275
0.0010495141
0.0010131873
0.00090652371
0.00087053631
0.0015045552
0.001453777
0.0012747684
0.0012175872
0.002005008
0.0019370014
0.0016542053
0.0015728612
0.002543175
0.0024568962
0.0020428427
0.0019320403
0.0031160228
0.0030171808
0.0023698353
0.0022190359
0.0036905723
0.0035956062
0.0029051247
0.0027332239
0.0041998226
0.0041268979
0.0033474854
0.0032038573
0.0046030913
0.0045528798
0.0037457984
0.0036503111
0.0048919291
0.004846636
0.0040599219
0.0040056148
0.005044147
0.0049938948
0.0042730889
0.0042199843
0.0050505792
0.004967548
0.0043689843
0.0042989267
0.0048646106
0.004727741
0.0043578038
0.0042551983
0.0045072865
0.0043167537
0.0042503277
0.0041027684
0.0040663574
0.0038392222
0.004071104
0.0038710445
0.0036340997
0.0034072953
0.0038442962
0.0035919363
0.0032321634
0.0030456818
0.0035659978
0.0032747448
0.0028525693
0.0027162569
0.0032735562
0.0029668429
0.0024569418
0.0023782334
0.003020447
0.0027136898
0.0021339153
0.0020530076
0.0027424746
0.0024618682
0.0018233964
0.0018015118
0.0023823375
0.0021452101
0.0014836832
0.0014799885
0.0019666851
0.0017707922
0.0011591495
0.0011679007
0.0015368667
0.001375072
0.00086202258
0.0008787768
0.0011267965
0.00099525381
0.00060276671
0.0006237328
0.00076463075
0.00066329885
0.00038647603
0.00040741868
0.00046793548
0.00039930499
0.00021594558
0.0002332269
0.00024819619
0.00021228834
9.4452181e-05
0.0001052632
0.00010965964
9.8375846e-05
2.4081781e-05
2.7888747e-05
3.7969711e-05
3.6471285e-05
1.418302e-06
1.8075602e-06
4.9700264e-06
4.6242548e-06
4.9956559e-08
6.7203894e-08
3.788077e-07
3.199222e-07
1.115358e-06
1.3002951e-06
1.2047446e-06
1.4169967e-06
1.2739491e-06
1.2923397e-06
1.0325539e-06
9.3413976e-07
7.6199131e-07
6.7172437e-07
5.4348678e-07
5.0164463e-07
4.0250945e-07
3.91338e-07
1.8028203e-05
1.8075457e-05
2.0289228e-05
2.0173002e-05
2.0847052e-05
2.0697053e-05
1.8719543e-05
1.8833036e-05
1.5581616e-05
1.592866e-05
1.2651431e-05
1.3196784e-05
9.7981366e-06
1.0707968e-05
7.0342409e-05
7.1216629e-05
8.4448656e-05
8.2998064e-05
8.7330129e-05
8.7092663e-05
8.1508847e-05
8.2404613e-05
7.2125209e-05
7.1145812e-05
6.3494089e-05
6.3182345e-05
5.6605691e-05
5.8487873e-05
0.00016984833
0.00016475694
0.00020500894
0.00020072712
0.00021084268
0.00020978467
0.00019946526
0.00020223178
0.00018571041
0.00019202866
0.00017483254
0.000183397
0.00016690912
0.0001772378
0.00034264456
0.00032913193
0.00039122853
0.00037882214
0.00039343467
0.00038665697
0.00038269995
0.00038022485
0.00037263632
0.00037178817
0.00036598469
0.00030519456
0.00029722954
0.00024842706
0.00059705674
0.00056793232
0.00061103937
0.00058091795
0.00059761446
0.00057244083
0.00058339813
0.00055949065
0.00051405812
0.00039728953
0.00033942495
0.00029422018
0.00028626647
0.00027049118
0.00088718491
0.00083838503
0.00081622019
0.00076143303
0.00077469768
0.00072659084
0.00075079458
0.00062500419
0.00050096332
0.0004203844
0.00035843439
0.0003337354
0.00032360109
0.00032419358
0.0011730975
0.0011010071
0.00098063929
0.00090037458
0.00090248141
0.00083741775
0.00086433372
0.00069489497
0.00054081802
0.00047269845
0.0003916819
0.0003799944
0.00035600337
0.00037647894
0.0014357967
0.0013387413
0.0010975504
0.00099522477
0.00097848123
0.00090600842
0.00092946862
0.00083304865
0.00060529268
0.00053403542
0.00041381825
0.00040473729
0.00036036042
0.00038974083
0.0016645585
0.0015417711
0.0011645955
0.0010488137
0.0010080739
0.000937025
0.00095313401
0.0009109403
0.00081992699
0.0007041918
0.00047818763
0.00044646383
0.00035193462
0.00036036196
0.0018630908
0.0017190523
0.0012156926
0.0011025677
0.001044209
0.00098196118
0.00099460324
0.00095807551
0.00098033757
0.00095326355
0.00082819171
0.0006695469
0.00049767894
0.0004379466
0.0020693494
0.0019142843
0.0013414521
0.0012217704
0.0011762799
0.0010997538
0.0011342603
0.0010740679
0.0011267161
0.00106676
0.0011280301
0.00081531168
0.00089975491
0.00051404105
0.0023256393
0.0021736477
0.0015616297
0.0014128545
0.0014012444
0.0012739117
0.0013578465
0.0012358915
0.0013487203
0.0012227497
0.0013480946
0.00088006838
0.0011185112
0.0005568938
0.0026152022
0.0024854026
0.0017628633
0.0015931647
0.0015730585
0.0014038219
0.0015167934
0.0013393407
0.0015036416
0.0013137825
0.00150397
0.0012650794
0.0012404657
0.000708764
0.002945182
0.0028689753
0.0019667157
0.0018147023
0.0017382313
0.0015616082
0.0016745124
0.0014689047
0.0016618817
0.001430055
0.0016657558
0.0014088306
0.0016726352
0.0011078777
0.0032040592
0.0031616067
0.0021296283
0.0020136578
0.0018770076
0.0017070268
0.0018154033
0.0016022439
0.0018100478
0.0015568775
0.0018215476
0.0015348285
0.0018337917
0.0015233219
0.0033341205
0.0032790952
0.0022829574
0.0021870582
0.0020291653
0.0018595186
0.0019724505
0.0017514167
0.0019719295
0.001701904
0.0019874637
0.0016790357
0.002004558
0.00166964
0.0033550065
0.00327367
0.0024074004
0.0022804253
0.0021766097
0.0019897518
0.0021302691
0.0018908775
0.0021358669
0.0018432006
0.0021551538
0.0018215309
0.0021742686
0.0018138369
0.0032995704
0.0031645351
0.0024990361
0.0023312771
0.0023225394
0.0021074985
0.0022959328
0.0020250597
0.0023111401
0.001986666
0.0023359855
0.0019710243
0.0023596415
0.0019668873
0.0031804224
0.0029935477
0.002559717
0.0023611997
0.0024665696
0.0022160705
0.0024726595
0.0021535839
0.0025022474
0.0021232094
0.0025342503
0.0021106524
0.0025618027
0.0021069788
0.0030074893
0.0027871885
0.0025717174
0.0023759356
0.0025660025
0.0023072836
0.0026156099
0.0022729541
0.0026679575
0.0022537809
0.0027120718
0.0022446164
0.0027461508
0.0022416702
0.002766506
0.0025399798
0.0024352986
0.0022773826
0.0024895459
0.0022808869
0.0025964305
0.0022979071
0.0026926689
0.0023068215
0.0027656086
0.002310999
0.0028172885
0.0023121549
0.0025324361
0.0023054424
0.0021598162
0.0020407482
0.0021486772
0.0020607789
0.0022164018
0.0021203066
0.0022874203
0.002167772
0.0023416266
0.002199708
0.0023761482
0.0022187261
0.0024533484
0.0021993304
0.0020373283
0.0018749327
0.0019295959
0.0018339939
0.0019230477
0.0018610337
0.0019440517
0.0018950676
0.0019646237
0.001920443
0.0018787177
0.0019351945
0.0024734613
0.0021957303
0.0021826307
0.0019081834
0.0020486657
0.0017927273
0.0019877277
0.0017527113
0.0019671934
0.0017438371
0.0013908839
0.0017457009
0.0007366592
0.00098884287
0.0023564866
0.0021189077
0.0023379406
0.0020622333
0.0023783024
0.0020439912
0.0024115431
0.002041877
0.0020061628
0.0020551069
0.0012442669
0.0012418489
0.00096787218
0.00080321229
0.0020476781
0.0018607244
0.0021774975
0.0019826306
0.0023411957
0.0020855505
0.0024396069
0.0021381486
0.0021019122
0.0021734735
0.0015054411
0.0014117918
0.0012122478
0.00099077949
0.0016423585
0.0014931637
0.0018174956
0.0016948303
0.0020294295
0.001873782
0.0021496471
0.00196416
0.0019006929
0.0020125336
0.0014572595
0.0014309345
0.0011852336
0.0010150102
0.0012149332
0.0010943794
0.001382728
0.0013081139
0.0016133635
0.0015312285
0.00174967
0.0016527014
0.0017553144
0.0017134754
0.001363043
0.0013998047
0.0010961291
0.00099213813
0.00081833366
0.00072448294
0.0009464161
0.00090117959
0.0011691329
0.0011325813
0.0013183979
0.0012772858
0.0013930414
0.0013488646
0.0013911944
0.00138544
0.0010437673
0.00096235464
0.00048978633
0.00042626602
0.00056536247
0.00054021724
0.00074452611
0.00073338699
0.00089020351
0.000881955
0.00097002684
0.00096199428
0.0010100979
0.0010007759
0.001032602
0.0010208736
0.00025492579
0.00022253965
0.00028815748
0.00027732243
0.00039644521
0.00039533888
0.00050879908
0.00051345446
0.00058255188
0.00059087612
0.00062081391
0.00062989332
0.00064041771
0.00064857675
0.00011673351
0.0001064923
0.00012759391
0.00012466652
0.00017031855
0.0001704417
0.00022881823
0.00023207822
0.00027871373
0.00028600964
0.00030751491
0.00031746317
0.0003213483
0.00033185307
4.5731419e-05
4.3762214e-05
4.8005093e-05
4.7899777e-05
5.7229716e-05
5.7061001e-05
7.3994255e-05
7.3937581e-05
9.3236551e-05
9.382983e-05
0.00010687549
0.00010817753
0.00011332542
0.00011463253
8.6751681e-06
8.2073983e-06
8.0738753e-06
8.4568798e-06
9.6972582e-06
1.0079042e-05
1.2199092e-05
1.2413664e-05
1.5409252e-05
1.5544823e-05
1.8127258e-05
1.8166803e-05
1.9495298e-05
1.942313e-05
6.975037e-07
6.2231809e-07
4.846168e-07
5.3569759e-07
6.0457794e-07
7.1047923e-07
8.9094608e-07
1.0580575e-06
1.2002494e-06
1.4290212e-06
1.3546266e-06
1.6079462e-06
1.3905047e-06
1.6476099e-06
3.111905e-07
3.1730407e-07
2.623994e-07
2.74466e-07
2.3094447e-07
2.4452994e-07
2.0627375e-07
2.1443311e-07
2.0598175e-07
2.0033919e-07
2.871089e-07
2.4903167e-07
7.8479916e-06
8.1802435e-06
6.6664487e-06
6.3145385e-06
5.987979e-06
5.5394468e-06
5.8251113e-06
5.4073213e-06
6.7621967e-06
6.2301353e-06
8.9623229e-06
8.173617e-06
5.1991653e-05
5.5789766e-05
4.8750281e-05
5.1004298e-05
4.7456175e-05
4.8343899e-05
4.7829935e-05
4.7298655e-05
5.0836101e-05
4.8482726e-05
5.6479232e-05
5.2051865e-05
0.00016135121
0.00017221159
0.00015727602
0.00016718311
0.00015427309
0.00016218959
0.00015097881
0.00015568912
0.00014705011
0.00014628556
0.00014396344
0.00013442447
0.00028298801
0.00024787268
0.00030315074
0.00026626188
0.00034252669
0.00030252272
0.00034817491
0.00034014929
0.000330803
0.00031757933
0.00030108858
0.00028070703
0.00030682057
0.00029805242
0.00035667016
0.00034646226
0.00043216093
0.00041958733
0.00058560837
0.00055582491
0.0005870413
0.00054839809
0.00054071642
0.00049881802
0.00036133504
0.00037515918
0.00044557674
0.00046675475
0.00057541638
0.00060252481
0.00076595454
0.00079250466
0.00086812022
0.00080847169
0.00083982531
0.00076478646
0.00040783671
0.00045258396
0.00053382732
0.00059363757
0.00074451286
0.00080850582
0.0010409433
0.0010343912
0.001105515
0.0010616847
0.0010017947
0.0009935675
0.00041251934
0.00047471615
0.00056363981
0.00064495089
0.00085454337
0.00090933259
0.0012287825
0.00118088
0.0013655799
0.0012748731
0.0013681311
0.0013618026
0.00035089943
0.00039359966
0.00043759492
0.0005099041
0.00077605591
0.00072881457
0.0012693863
0.001251413
0.0014505239
0.0013930684
0.0017754396
0.0016156562
0.00037523848
0.00036806653
0.00034078286
0.00037673657
0.00039806534
0.00047122411
0.00070613272
0.00080797675
0.0014814109
0.0014674509
0.0018900565
0.0017789903
0.00058945258
0.00041313991
0.00044236876
0.00039484198
0.00040129237
0.00044869391
0.00049819373
0.00068973619
0.0010513744
0.0014798583
0.0019434068
0.0019308068
0.00071675151
0.00046442743
0.00053214457
0.00046471827
0.00047819966
0.00053159493
0.00056467431
0.00076111209
0.0010398552
0.0014145472
0.0021523057
0.0020221513
0.00078323963
0.00053518037
0.00059394221
0.00050152739
0.00055105889
0.00054023731
0.00065195836
0.00070038289
0.0010946295
0.0011244167
0.0021464722
0.001657878
0.0010594117
0.00071562157
0.00077954282
0.00058651321
0.00071466441
0.00059984029
0.00081172205
0.00074732363
0.0011733127
0.0011147086
0.0018879615
0.0013712567
0.0014202552
0.00094913325
0.0010212919
0.00068746885
0.00091307747
0.00066500931
0.0010302569
0.00082118924
0.0014293793
0.0012279457
0.001905806
0.0014626796
0.0017089183
0.0012247424
0.0012027481
0.00083764842
0.0010502016
0.0007570713
0.0011686364
0.00089372493
0.0015941982
0.0012965171
0.0020834389
0.0016619737
0.001964241
0.0014481576
0.0013617835
0.00095847754
0.0011640101
0.0008315444
0.001271646
0.00094975009
0.001707216
0.0013524755
0.0022760695
0.0018600798
0.002302506
0.0016561067
0.0015568494
0.0010689338
0.0012856964
0.00089072118
0.0013679228
0.00098249259
0.001804913
0.001377409
0.0024769861
0.0020462291
0.0025869485
0.0018341406
0.0017728506
0.0011525477
0.0014114411
0.00091982247
0.0014503311
0.00097904926
0.0018769798
0.0013528555
0.0026524947
0.0021635488
0.0027750787
0.0020300549
0.0020640969
0.0012568189
0.0015836916
0.00097246213
0.0015549132
0.0010038627
0.0019504148
0.0013516992
0.0027863025
0.0021793357
0.0028572135
0.0021300361
0.0024144411
0.0013204679
0.0017919511
0.0010125209
0.0016761701
0.0010343401
0.0020420593
0.0013719058
0.002839342
0.0022160031
0.0022637195
0.0022288081
0.0014535343
0.0013924241
0.0011497654
0.0010525449
0.0012013773
0.0010574951
0.0016103219
0.0013837286
0.0026289977
0.0023747197
0.0010597411
0.0014227854
0.00076642832
0.00094080734
0.00072669949
0.0007821373
0.00093135212
0.00086482723
0.0018410652
0.0013549872
0.0028822971
0.0025015807
0.00058290643
0.00064186944
0.00065888705
0.00055517407
0.00097728116
0.0006497752
0.0018612188
0.0010941286
0.0029392272
0.0024447289
0.0032612472
0.0027285113
0.0010588779
0.00075738422
0.0017434443
0.00092611573
0.0020399231
0.0012588583
0.0029490158
0.0019823482
0.0031750115
0.0027284749
0.0033021681
0.0028523518
0.0012393021
0.00094203769
0.0015359671
0.001095308
0.002043974
0.0013960261
0.0027542597
0.0020550978
0.0029591744
0.0026438619
0.0030227971
0.0026966304
0.0011752481
0.00094796132
0.0013858364
0.0010815155
0.0017387909
0.0013519999
0.0021996264
0.0019003548
0.0025078426
0.0023544823
0.0025498549
0.0023854689
0.0010549339
0.00090452216
0.0011851532
0.0010004355
0.0014124506
0.0012035978
0.0017377315
0.0016083004
0.0020186063
0.0019636558
0.0021003987
0.0019814239
0.00093141272
0.00082048295
0.00099815087
0.0008695423
0.0011614223
0.0010151244
0.0014621977
0.0013342103
0.0015840403
0.0015293125
0.0016057304
0.001539749
0.00089742108
0.00079696822
0.00087950884
0.00076200521
0.0010065967
0.00086854595
0.0011015831
0.0010846327
0.0011164002
0.0010941957
0.0011355484
0.0011024096
0.00065237646
0.00065917921
0.00066314511
0.00066902605
0.00067274926
0.00067708934
0.00068168701
0.0006840867
0.00069125054
0.00068892739
0.00070851034
0.00069649587
0.00032857236
0.00033885532
0.00033350853
0.00034308333
0.00033713451
0.0003454519
0.0003405834
0.0003470974
0.0003455206
0.00034907369
0.00035761427
0.00035491378
0.00011597089
0.00011687523
0.00011729586
0.00011753044
0.00011801155
0.00011748991
0.00011854642
0.00011725154
0.00011943932
0.00011722969
0.00012354891
0.00011945793
1.9836017e-05
1.968396e-05
1.9842544e-05
1.9551404e-05
1.9847944e-05
1.9455064e-05
1.9845611e-05
1.9397112e-05
1.9801085e-05
1.93431e-05
2.0082622e-05
1.9402846e-05
1.3906902e-06
1.6449228e-06
1.3733114e-06
1.6248566e-06
1.3461138e-06
1.5970475e-06
1.3150678e-06
1.5682664e-06
1.3088196e-06
1.5582815e-06
1.4325404e-06
1.6705318e-06
3.2270162e-07
2.644643e-07
2.3668817e-07
2.0046582e-07
1.8241146e-07
1.6220933e-07
1.4506316e-07
1.3561748e-07
1.0250425e-07
1.0253295e-07
5.0698609e-08
5.5391543e-08
8.5979921e-06
7.5613273e-06
5.2886022e-06
4.4213219e-06
3.6668971e-06
3.0292356e-06
2.8409798e-06
2.308083e-06
2.2988225e-06
1.8132329e-06
1.8857929e-06
1.398677e-06
5.2369414e-05
4.6507471e-05
3.6217068e-05
3.0697212e-05
2.8101591e-05
2.3501358e-05
2.4684919e-05
2.0491833e-05
2.2728955e-05
1.8709126e-05
2.1472799e-05
1.7337717e-05
0.00012440936
0.00011025232
9.4104099e-05
8.14294e-05
8.2855778e-05
7.1554932e-05
7.8058222e-05
6.7688767e-05
6.3797299e-05
5.9159718e-05
5.9662722e-05
5.3689567e-05
0.00025045495
0.00022474106
0.00020051055
0.0001725518
0.00018351499
0.00015506892
0.00017547663
0.00014679507
0.00016986759
0.0001411294
0.00012698568
0.00012584194
0.00046234025
0.00041609822
0.00039909674
0.00034665494
0.00037749847
0.00032128571
0.00036582799
0.00030704571
0.00035614376
0.00029501608
0.00030540519
0.00028226261
0.00075668876
0.00068340574
0.00069674829
0.00061779522
0.00067721011
0.00058973547
0.0006655808
0.00058011798
0.00065384323
0.00056579514
0.00063840761
0.00054710159
0.00090331196
0.00085048869
0.00083550017
0.00074861766
0.00078636669
0.00064924418
0.0008141601
0.00061211782
0.00099286045
0.00074026204
0.0010563049
0.00093685708
0.0011706995
0.0011535049
0.0010240024
0.0009263636
0.00086398613
0.00071032917
0.00080762112
0.00060889974
0.00098756809
0.000724613
0.0013567662
0.0011238316
0.00165901
0.0017076257
0.0013026546
0.0012447835
0.00095523279
0.00083958333
0.00080286902
0.00063730792
0.00093697482
0.00070135537
0.0014136673
0.0011167206
0.0022618471
0.0020552141
0.0019349956
0.0020853891
0.0011971767
0.0013416466
0.00082600925
0.00084916989
0.00083180734
0.00076098784
0.0012130964
0.0010480861
0.0024476859
0.0023602247
0.0027117021
0.002584537
0.0028066257
0.0026699517
0.0013495314
0.0016626377
0.00088848559
0.0012524028
0.00094697394
0.0013217374
0.0026794558
0.0023937984
0.0030136261
0.0025870013
0.0031470306
0.0022097472
0.0032300904
0.00116303
0.0033071629
0.00094425786
0.0032590812
0.0012740863
0.0025199102
0.0017265148
0.0027682112
0.0016995005
0.0028805232
0.0012489462
0.0021327374
0.00055272179
0.0013570883
0.00044246771
0.0013691514
0.00069934636
0.0019134725
0.0012535911
0.0019113954
0.001141867
0.001919853
0.0011044924
0.0010326116
0.0010344956
0.00061458838
0.0003896323
0.00062966575
0.00035358574
0.0017962157
0.0013051121
0.0017115896
0.0011767644
0.0016838707
0.0011328074
0.0016722046
0.0011131297
0.00093449344
0.00067329705
0.00069314666
0.00048052911
0.0019501014
0.0015064139
0.0018405016
0.0013685887
0.0017993911
0.0013148657
0.0017796432
0.0012877262
0.0012904976
0.00088285561
0.00090786983
0.00059630169
0.0021498651
0.001720103
0.0020363518
0.001580522
0.0019901065
0.0015235751
0.0019663619
0.0014944337
0.0014335641
0.00082702997
0.0010498195
0.00068923805
0.0023642115
0.001929675
0.0022583596
0.0018011802
0.0022158442
0.0017509882
0.0021927788
0.0011275451
0.0014549765
0.00081668554
0.0011202516
0.00079785032
0.0025635219
0.0020987312
0.0025045595
0.0020136935
0.0024828252
0.001981515
0.0023039322
0.0011675852
0.0015250903
0.00084493888
0.0012612305
0.0008590962
0.0027298182
0.0022885259
0.0027591498
0.0022806303
0.0027765997
0.0021066866
0.0027409405
0.0011886599
0.0016205133
0.00091948239
0.0016299491
0.0010507589
0.0028698911
0.0024467845
0.0030320041
0.0025763131
0.0030967558
0.0023008207
0.0023821624
0.0013389308
0.0018343905
0.0011396167
0.0021183685
0.00149946
0.0030178023
0.0027039997
0.0033445312
0.0030180413
0.0034588766
0.003127558
0.0032754158
0.0020772051
0.0017593223
0.0015311345
0.0013828885
0.0015928286
0.0033136715
0.0029200392
0.0035231339
0.0031563508
0.003584077
0.0032264686
0.0016534308
0.0017743471
0.00097461038
0.00097827093
0.0010412185
0.00094119334
0.003492247
0.0029753738
0.0035879972
0.0030681493
0.0031450138
0.0024531712
0.0014392907
0.00097376072
0.0010738213
0.0007403482
0.0013647457
0.0010758305
0.0034020911
0.0029380219
0.0034670571
0.0029830168
0.0029459479
0.002222472
0.0017817081
0.0010417168
0.0015170217
0.00087060384
0.0018825208
0.001302667
0.0030840777
0.002741324
0.0031289435
0.0027710328
0.0027896039
0.0022838239
0.0022448585
0.001242653
0.0021102175
0.001060909
0.0023980398
0.0015080675
0.0024920733
0.0024148239
0.0024575512
0.0024321501
0.0024301724
0.0020817728
0.0023975142
0.0014705159
0.0024260074
0.0013580777
0.0024555324
0.0017897032
0.0020693091
0.0019996306
0.0020470329
0.0019213722
0.0020880885
0.00183207
0.002140505
0.0017327914
0.0020833345
0.0017730933
0.001835049
0.0019999243
0.0016323306
0.0015507569
0.0016506083
0.0015443036
0.0016540205
0.0015385182
0.0016548751
0.0015342932
0.0015350648
0.0015298101
0.0011716991
0.0015231201
0.0011650345
0.0011141467
0.0011869551
0.0011119257
0.001189364
0.0011050512
0.0011882126
0.0010988949
0.0010982978
0.0010920684
0.00081960087
0.0010826356
0.00074251946
0.00071350405
0.00077814214
0.00072565933
0.00078291783
0.00072156438
0.0007819088
0.00071636669
0.00077756821
0.00071013062
0.00064075211
0.00070083143
0.00038899334
0.00037476525
0.00043481177
0.00040351444
0.00044197796
0.0004040645
0.00044129498
0.00040092784
0.00043727824
0.00039588333
0.00042944448
0.00038772513
0.00013987198
0.00013256402
0.00017453607
0.0001621372
0.00018102111
0.00016574644
0.00018042739
0.0001643527
0.00017756694
0.00016125132
0.00017284731
0.00015628812
2.3065271e-05
2.2060454e-05
3.1267123e-05
3.0543604e-05
3.4316813e-05
3.2895083e-05
3.4032546e-05
3.2594055e-05
3.3175671e-05
3.1741294e-05
3.1958395e-05
3.0462688e-05
1.8149156e-06
2.0674304e-06
2.1994373e-06
2.4766012e-06
2.2192233e-06
2.4817949e-06
2.1509416e-06
2.3928131e-06
2.0551438e-06
2.2769267e-06
1.9372376e-06
2.1296537e-06
1.9574035e-08
2.22894e-08
1.4818875e-08
1.3940461e-08
2.395671e-08
2.4284859e-08
3.2038898e-08
4.1312347e-08
3.5946715e-08
5.5993123e-08
3.7120331e-08
5.7002375e-08
4.5654396e-08
8.3344241e-08
1.7421155e-06
1.2057002e-06
1.7599018e-06
1.1900498e-06
1.7782663e-06
1.2583641e-06
1.7578706e-06
1.338061e-06
1.7214855e-06
1.3776886e-06
1.6947338e-06
1.2194542e-06
1.8145629e-06
1.2303845e-06
2.1399338e-05
1.7097737e-05
2.1872827e-05
1.7746735e-05
2.2209651e-05
1.8588559e-05
2.2205383e-05
1.9182601e-05
2.1975001e-05
1.8860192e-05
2.1748995e-05
1.7162393e-05
2.2663045e-05
1.7043799e-05
5.9977652e-05
5.1872472e-05
6.0398829e-05
5.0737031e-05
6.1581351e-05
5.0446019e-05
6.284366e-05
4.9288328e-05
6.4710269e-05
4.717618e-05
6.4981049e-05
4.563512e-05
6.8480577e-05
4.58948e-05
0.00011796694
0.00010646835
0.00012378368
0.00010027943
0.00014509759
0.00010713939
0.00014904591
0.00011142209
0.00014656777
0.00010441708
0.00014925572
9.906398e-05
0.00016079883
9.6427081e-05
0.00020963059
0.00024290063
0.00018372708
0.00017806603
0.00022388748
0.00017874206
0.00032631582
0.00023345605
0.0003203134
0.00021759907
0.00032116652
0.00020437346
0.00034134782
0.00019868516
0.00039497593
0.00052640325
0.00026642601
0.00032601718
0.00027984608
0.0002606284
0.00044224123
0.00032338197
0.00062833445
0.00045306322
0.00061856588
0.00042457974
0.00063763181
0.00040711815
0.00075385126
0.0009196949
0.00044884287
0.00060221581
0.00040199148
0.00041536984
0.00056570037
0.00044729606
0.0010270815
0.00072109962
0.0010525312
0.00079477554
0.0010566152
0.00075314684
0.0013163996
0.0013986943
0.0008832339
0.0010907751
0.00069290659
0.00074543297
0.00080887003
0.00069999344
0.0012933324
0.0009712039
0.0016108052
0.0013077389
0.0015921532
0.0012351233
0.0018399715
0.0016976342
0.0017166618
0.0017664716
0.0014440753
0.0014628505
0.0014535584
0.0012955255
0.0018842037
0.0015027953
0.0022681999
0.001926785
0.0022291961
0.0018249566
0.0019092292
0.0017014628
0.002434565
0.002272757
0.0027258158
0.002571677
0.0028740214
0.002558089
0.0030267691
0.0025921065
0.0029878328
0.0025999794
0.002942716
0.002482039
0.0013211602
0.0016455576
0.0018459428
0.0020562694
0.0026153702
0.0026534809
0.0035493824
0.0032864393
0.0037254509
0.0033152748
0.003727753
0.0032695845
0.003699182
0.0031652819
0.0023760387
0.0020599315
0.0018029775
0.0024752479
0.0016641004
0.0025151719
0.0022887776
0.0026940499
0.0034778293
0.0032290456
0.0044188154
0.0038415934
0.0044431887
0.0038153041
0.0018553817
0.0016807291
0.0022919762
0.0023382459
0.0023420922
0.0025831573
0.0024899733
0.0024606613
0.0027769218
0.0024326656
0.0037307726
0.0031157902
0.0049099547
0.0043223307
0.00092642918
0.00053741797
0.0017672142
0.0010758565
0.0026789912
0.0014404954
0.0028561428
0.0017173787
0.002690902
0.0022415043
0.0031006578
0.0023186999
0.0046325159
0.0036545867
0.00070747263
0.00050735464
0.00097160378
0.00068829352
0.0017705984
0.0011250724
0.002132602
0.0012112673
0.0026274608
0.0014397226
0.0026556877
0.0018879493
0.0038106164
0.0028001629
0.00083144257
0.00060401029
0.00098096048
0.00076215453
0.0013794764
0.0010421587
0.0017897726
0.0011706737
0.0020183568
0.0011972453
0.0026517579
0.0015438169
0.0032341038
0.0025189264
0.00095525903
0.00075391912
0.0010695386
0.00091558322
0.0013660553
0.0011386558
0.0017785794
0.0013129612
0.0017927806
0.0012370217
0.0021262036
0.0013949998
0.0033861727
0.0028506204
0.0010735046
0.00093056579
0.0012000694
0.0011125556
0.00147055
0.0012959994
0.0017697342
0.0014094004
0.0018347916
0.001401333
0.0018999672
0.0014253268
0.0031144748
0.0025032945
0.0012152717
0.0010395684
0.0012603036
0.0012365502
0.0014256066
0.0013952212
0.0016752259
0.0014510293
0.0018959832
0.0014258513
0.0020116084
0.0016148127
0.002710497
0.002322864
0.0019268589
0.0014114288
0.0018556442
0.0016492016
0.0016585116
0.0017207658
0.0016466207
0.001695338
0.0018253907
0.0016188901
0.0021823501
0.0016494811
0.0025453538
0.0021410375
0.0030010349
0.0023167252
0.003285814
0.0028049717
0.0032871659
0.0027725054
0.0026282482
0.0024634739
0.0021648371
0.0021906277
0.0022118659
0.0020956342
0.0026436436
0.0021892037
0.0016791449
0.0020637165
0.0029433952
0.0029400899
0.0038267464
0.003496242
0.0038207944
0.0035163226
0.0031428726
0.003171109
0.0027320159
0.0029774629
0.0027560583
0.0030135719
0.0016675179
0.0013923422
0.0027917593
0.0023851672
0.004064962
0.0037529819
0.0040879268
0.0037482721
0.0037901479
0.0034648478
0.0036846333
0.0037418017
0.0031141823
0.0036318772
0.0019768869
0.0019544438
0.0023237562
0.0024895138
0.00276082
0.0027428975
0.0032757502
0.0028888256
0.0037872081
0.0032889458
0.0039642232
0.0037675928
0.0034250824
0.0038145508
0.0021950879
0.002149067
0.0020461091
0.0023938878
0.0021608753
0.0022577602
0.0026453385
0.0024444777
0.0033917551
0.0029752174
0.0037908651
0.0035838631
0.0035903792
0.0037669692
0.002305222
0.0021570239
0.0018685124
0.0020983039
0.0018374912
0.0019199055
0.0022197999
0.0020988886
0.0029068529
0.0026087997
0.0034484071
0.0032505689
0.0036662391
0.0035481894
0.0020105725
0.0021147077
0.0015778832
0.0018267493
0.0016058074
0.0016428764
0.0019702152
0.0018322531
0.0025017028
0.0022659283
0.0029743992
0.0027982598
0.0032866634
0.0031764897
0.0014084767
0.0019568948
0.0012515822
0.0015874836
0.0014696126
0.0014196365
0.0018509618
0.0016309405
0.0021748775
0.0019565492
0.0023940659
0.0022428879
0.0027241126
0.0026407043
0.00096222217
0.0014936044
0.001034351
0.0012232635
0.0014163279
0.0012480671
0.001628222
0.0014634027
0.0016555457
0.0015001534
0.0017889649
0.0016676106
0.0020878665
0.0020302605
0.00074762875
0.0010347672
0.00091042979
0.00096588493
0.0011463955
0.0010295661
0.0011303071
0.0010044372
0.0011352153
0.0010153405
0.0012298421
0.0011364052
0.0014718017
0.001432838
0.00064124733
0.0006864462
0.00074531695
0.00066712078
0.00072447691
0.00063933469
0.00070102153
0.00061249785
0.00069249622
0.00060690508
0.00074896959
0.00068080281
0.00092362254
0.00089618418
0.00041824359
0.00037442761
0.00040499121
0.00035810671
0.00038461341
0.00033529939
0.0003637432
0.00031369753
0.00035235265
0.00030086918
0.00037769659
0.00033486213
0.00048663778
0.00046857718
0.00016571266
0.00014834782
0.00015788637
0.00013959256
0.00014692167
0.00012761819
0.00013512445
0.00011546184
0.00012803416
0.00010794593
0.00013340939
0.00011548114
0.00018050704
0.00016996705
3.0173867e-05
2.8408832e-05
2.8345078e-05
2.630072e-05
2.5771008e-05
2.3371776e-05
2.3102177e-05
2.0285995e-05
2.1696863e-05
1.8982016e-05
2.1878858e-05
1.9472248e-05
2.9275827e-05
2.7384665e-05
1.7692477e-06
1.9109196e-06
1.5893347e-06
1.678344e-06
1.3268688e-06
1.3512009e-06
1.033149e-06
9.8316919e-07
8.3806679e-07
7.2874406e-07
1.0691565e-06
9.4881794e-07
1.6949617e-06
1.7726752e-06
6.0062828e-08
1.1319738e-07
7.0581063e-08
1.1499396e-07
6.3505791e-08
6.693744e-08
8.1724475e-08
8.0284097e-08
2.1944205e-06
1.4174764e-06
2.4217429e-06
1.4385332e-06
3.2296544e-06
1.7543952e-06
3.5935951e-06
2.3762405e-06
2.6169381e-05
1.8386639e-05
2.8950092e-05
1.8556798e-05
3.6585321e-05
2.2765565e-05
4.0839533e-05
3.0890156e-05
7.9332027e-05
4.6762413e-05
8.8468782e-05
4.9809596e-05
0.00011183382
6.6119699e-05
0.00012445688
9.7139638e-05
0.00018740253
9.8997365e-05
0.00020663528
0.0001050279
0.00025369056
0.00014534384
0.00027609054
0.00021694434
0.00038795332
0.00020591125
0.00041717708
0.00021645483
0.00048661462
0.00029571217
0.00051807097
0.0004150354
0.00069997582
0.00041592223
0.00073650246
0.00042800293
0.00082222253
0.00054712231
0.00086453664
0.00070655855
0.0011250366
0.0007572365
0.0011664631
0.00076641894
0.0012645044
0.00091093813
0.0013240795
0.0010972326
0.0016573079
0.0012280832
0.0017032322
0.0012321205
0.0018141028
0.0013851297
0.0019014379
0.0015885722
0.002283823
0.0018020743
0.0023313759
0.0017992129
0.0024511399
0.0019457507
0.0025642562
0.0021532893
0.00298571
0.002445315
0.0030341012
0.002439506
0.0031603676
0.0025759647
0.0032949824
0.0027804578
0.0037339488
0.003123213
0.0037844696
0.0031218495
0.0039157377
0.0032519266
0.0040647868
0.0034493015
0.0044756558
0.003782499
0.0045238163
0.00378805
0.0046469957
0.003908232
0.0047828917
0.0040804201
0.005132636
0.0043496666
0.0051845548
0.004371326
0.0052953105
0.0044816296
0.0053928017
0.0046103783
0.0055935977
0.0046989449
0.0056631205
0.0047492527
0.0057576572
0.0048300266
0.0058116769
0.0049057208
0.0056382334
0.0044526219
0.0057651696
0.0047525262
0.0058670154
0.004767536
0.0059401272
0.0042392724
0.0046608883
0.003524494
0.0055498041
0.0045431024
0.0056387599
0.0044759147
0.0055375628
0.0036965616
0.0039281603
0.0031433633
0.0049560264
0.0037917903
0.0052805091
0.0039273514
0.0049263124
0.0040330293
0.0040612064
0.0035058592
0.0045013588
0.003636953
0.0048679574
0.0040126802
0.0047402826
0.0040882221
0.0036901213
0.0031574182
0.0041710357
0.0035510099
0.0044219242
0.0037263713
0.0046238587
0.0038596688
0.0032906678
0.002901879
0.003761023