/*--------------------------------*- C++ -*----------------------------------*\
| =========                 |                                                 |
| \\      /  F ield         | OpenFOAM: The Open Source CFD Toolbox           |
|  \\    /   O peration     | Version:  2206                                  |
|   \\  /    A nd           | Website:  www.openfoam.com                      |
|    \\/     M anipulation  |                                                 |
\*---------------------------------------------------------------------------*/
FoamFile
{
    version     2.0;
    format      ascii;
    arch        "LSB;label=32;scalar=64";
    class       volScalarField;
    location    "200";
    object      k;
}
// * * * * * * * * * * * * * * * * * * * * * * * * * * * * * * * * * * * * * //

dimensions      [0 2 -2 0 0 0 0];

internalField   nonuniform List<scalar> 
50904
(
4.3926036
5.0202242
5.0137049
6.0570731
14.497268
16.287525
18.063045
18.492128
27.675272
28.698485
30.439179
29.936336
32.162212
32.165888
33.431862
32.476972
36.593177
35.558357
36.842434
35.406026
42.876538
41.221324
43.912936
41.739916
50.68535
48.80085
53.814472
51.000714
59.141887
57.333441
65.591072
62.260682
66.915194
65.373631
77.155575
73.675544
72.66387
71.361146
85.350715
82.107219
75.859296
74.562443
87.478234
84.908545
77.234523
75.694726
83.958243
82.200817
78.23365
76.413518
78.320889
76.968189
80.158396
78.135574
74.911306
73.389253
83.120233
80.847203
75.580232
73.435018
85.956618
84.081931
79.268906
76.380802
88.052016
86.156475
82.743444
79.30517
87.411402
85.203911
85.479534
81.37603
84.759626
81.91531
87.61774
82.691235
81.540447
78.009807
89.63716
83.921398
79.2085
75.811516
91.390153
85.092156
77.874074
75.70271
91.963727
85.617352
77.346521
76.434724
90.482494
84.421206
75.663632
76.037705
87.231432
81.092966
70.935414
72.352507
82.303727
76.379979
64.120899
66.373279
75.776819
70.338562
56.043317
58.712202
67.863579
62.945325
47.431919
50.211722
59.231634
54.722105
38.994732
41.647382
50.278179
46.208368
31.159684
33.657564
41.442077
37.983428
24.032258
26.32082
33.182845
30.584629
17.534799
19.531728
25.753971
24.278597
11.50737
13.083803
19.506877
19.13466
5.6964217
6.6438522
14.069099
13.963652
1.0142216
1.2958182
4.6324022
4.2153347
0.22731603
0.30573912
1.7287763
1.4533895
4.8456989
5.4803733
5.1985637
5.916558
5.4860595
5.3736194
4.4335053
3.8693343
3.2641878
2.7767531
2.3247948
2.0718807
1.7206397
1.615902
18.627354
18.247383
19.70983
19.012123
19.299123
18.528526
16.832301
16.382934
13.904638
13.773299
11.381541
11.456036
9.0970887
9.3853031
31.021474
29.860336
30.733907
29.24452
29.556528
28.981075
27.829218
27.943739
25.636164
25.679714
23.751756
23.440655
22.281016
21.41978
34.704731
33.045834
36.239194
34.774359
36.48551
35.995822
35.508048
35.406418
33.728864
33.547159
31.893532
31.577477
30.557916
29.933943
39.171393
37.187948
43.6361
42.269339
45.636157
45.665987
46.219581
46.903656
45.841651
46.48313
45.014577
45.402278
43.914887
43.808364
48.117833
45.21126
53.712997
52.361834
58.233493
58.905547
61.408876
62.840242
62.734341
63.716439
62.502885
62.50909
60.937349
59.760741
59.346994
55.660832
65.750371
64.068644
73.168184
73.816595
79.226603
80.193701
82.114362
81.477949
81.900594
78.983731
78.875644
74.576874
72.389896
67.717822
77.742492
75.248899
87.185585
86.87739
95.371923
94.454942
99.006725
95.16616
97.971553
91.227484
93.403131
85.624318
85.258177
79.769977
86.614196
83.222607
96.234949
95.044818
105.40337
103.48344
109.83202
104.59812
108.71821
100.36206
103.37082
94.024259
93.268636
87.739965
90.387039
86.933663
99.78117
98.948571
110.35674
109.29707
117.36203
114.02244
119.15799
112.60494
115.43957
106.55629
94.446267
90.051512
92.007296
89.734383
104.1638
104.66854
118.35153
118.6504
129.19074
127.18211
135.65109
130.28942
137.01042
127.64131
89.599038
86.966556
94.043646
92.858456
110.65893
111.00295
128.24965
127.42814
142.13167
137.97205
151.95075
142.95685
157.43264
142.09549
81.893671
80.341442
92.150326
91.099704
109.35912
108.90847
125.62843
123.94632
137.92337
133.62598
146.09258
138.53718
150.78426
138.54634
75.611654
74.05061
88.867828
87.219699
107.30067
105.84619
124.46765
121.70488
137.74439
132.8998
146.91729
139.67148
152.86503
142.73695
73.783264
71.847302
88.121177
85.748865
110.16584
106.84573
131.28304
124.37453
148.18408
137.28703
160.47093
145.92341
168.65476
151.38687
75.954567
73.228191
89.298696
85.684195
114.56473
109.26828
139.50283
128.89058
159.56734
143.67187
174.2663
153.97267
184.29511
160.88368
79.482542
75.832936
93.455285
88.392539
121.67286
114.15094
149.48829
135.52104
171.60221
151.28072
187.60679
162.31554
198.44549
169.79596
83.594385
79.143772
100.5274
94.736318
132.23712
123.44697
162.94319
147.42292
186.97644
164.59075
204.0522
176.44634
215.37275
184.3782
88.738127
83.723713
111.91206
105.98761
149.04677
139.73408
183.73555
167.42747
210.57178
187.34345
229.52192
201.11685
242.05693
210.25867
94.943061
89.876541
128.37434
123.11233
173.28502
163.71748
213.07038
196.04945
243.30399
219.4947
264.60466
235.82949
278.81541
246.7799
101.60403
96.952883
146.29783
141.82906
199.69442
189.45266
245.05609
226.34842
278.90519
252.88839
302.60065
271.26537
318.47614
283.83186
106.65041
103.15044
159.07367
156.85818
220.15434
212.17387
272.89287
256.10793
312.0554
287.20732
338.99771
308.19313
356.69826
321.88449
107.7133
104.73172
157.63279
157.74726
217.71303
217.03251
272.94144
267.69676
315.08154
303.91373
343.83867
327.96017
361.93407
343.04557
106.4345
102.9941
147.88503
147.76194
196.76844
200.40814
242.20211
246.81042
276.78103
280.70738
299.55519
302.88977
312.31141
315.95803
104.94558
100.80618
140.87774
138.24577
177.31794
177.561
207.45396
210.5985
228.08065
233.94666
240.38274
248.20122
244.27414
255.40869
101.25457
96.847239
136.87037
132.92576
167.26666
164.9852
188.70772
188.74023
200.75419
203.20203
205.26671
210.4117
204.93429
211.37326
93.175094
88.659522
129.40989
125.13933
157.91607
154.59634
176.12836
174.56588
185.67367
185.95008
189.76354
191.34389
190.82575
192.63555
81.07597
76.658176
115.4038
111.54632
143.14983
139.99041
160.73372
158.84372
170.04699
169.566
174.57033
174.96507
176.32238
176.89109
67.081536
63.078418
96.277523
93.47455
121.81578
119.93434
138.5265
137.67724
147.58788
147.94003
152.26917
153.34164
154.63409
155.85109
53.531802
50.181588
76.135124
74.441588
98.15797
97.677754
113.13848
113.53119
121.54343
122.82461
125.99093
127.79922
128.46874
130.3845
41.738108
39.301648
57.964124
57.175703
75.88572
76.322405
88.812188
89.88394
96.238778
97.733385
100.3348
102.03916
102.61776
104.26363
32.371067
31.093491
43.312025
43.117542
56.582986
57.299453
67.456246
68.566451
73.897033
75.053222
77.416495
78.470053
79.393918
80.274412
25.746755
25.475134
32.498037
32.553139
40.647668
41.12212
48.997373
49.540427
54.430354
54.84002
57.203696
57.335582
58.60063
58.461211
20.214836
20.054546
23.039495
23.216189
27.077303
27.28176
32.301383
32.258061
36.340622
35.873588
38.346617
37.341316
39.125143
37.587733
8.8988369
8.2582158
8.2717135
8.6544142
10.546148
11.075279
13.446413
13.78742
16.144798
16.322423
17.723553
17.672635
18.246513
17.979364
3.1637947
2.7992703
2.1794913
2.3804081
2.7147422
3.1458465
4.0030498
4.6835444
5.3991075
6.3313164
6.0955559
7.1247734
6.2546176
7.2962037
1.3297955
1.3099434
1.1210138
1.1327786
0.98642996
1.0089583
0.88082355
0.88443728
0.87934955
0.82592536
1.2256602
1.0261659
7.4449075
7.401148
6.4360216
5.9297814
5.8221577
5.2810296
5.5985955
5.1184287
6.2392961
5.6702502
7.8803734
7.085593
21.070244
19.460475
20.180198
17.905607
19.730292
17.156043
19.635084
16.887811
19.958698
17.166774
20.272051
17.944493
29.393685
28.495704
28.485235
27.224087
27.815248
26.240198
27.054345
25.170242
26.100619
23.909053
25.616729
22.793699
42.495921
41.819715
40.88525
39.744321
39.467132
38.022974
37.840857
36.162212
35.725536
33.780838
33.414083
30.994789
58.328321
56.447917
55.608738
53.42928
53.466334
51.192276
51.339896
49.038875
48.637106
46.374026
45.196057
42.87776
74.670936
70.053931
70.826231
66.439132
68.091016
64.032172
65.620099
61.915971
62.770161
59.470123
58.990849
56.21376
87.878249
80.513706
83.388514
76.77185
80.376184
74.433337
77.86579
72.523179
75.189622
70.518606
71.797922
68.22844
96.775594
88.245527
91.512357
84.242771
88.362261
81.896578
85.932099
80.068946
83.577018
78.367533
81.291972
77.123994
107.77866
98.915704
100.04292
92.745602
95.059618
89.088073
91.857844
86.566694
88.962289
84.267304
86.729876
82.690524
132.14353
119.64445
121.38606
109.40212
111.15255
101.72902
102.51681
95.821991
95.897564
91.032658
91.126193
87.243524
158.10872
135.23394
150.94784
124.27646
138.79761
114.78925
123.15733
106.42306
108.08496
99.344464
96.940197
92.933721
152.00319
133.72434
147.65529
125.72775
139.17429
118.68293
126.98454
112.07164
113.20109
105.6905
101.47608
99.178477
156.15431
141.85952
154.8999
136.47701
149.49962
130.41178
140.22673
123.61488
127.75823
115.69517
115.08688
106.30412
174.78158
154.14181
178.05868
152.55056
176.73849
148.00442
170.44485
141.0904
157.80059
131.06386
139.27143
116.00092
192.16754
166.06441
197.88815
168.61852
199.73317
167.09188
196.81162
161.67811
186.72474
151.27957
166.52518
132.71988
206.91861
175.79745
213.55471
180.19769
216.83666
181.16799
215.54765
178.04211
206.63759
168.9229
185.61996
149.62135
224.03756
190.77108
230.88034
195.91459
234.52546
198.00341
233.36931
195.90133
223.5924
187.04215
199.90995
166.89928
251.31561
217.50397
258.60407
223.52878
262.69557
226.39021
261.2563
224.32839
249.01638
213.70436
219.5719
189.73614
289.27918
255.38529
297.38543
262.35315
301.80921
265.31587
299.18272
261.25351
281.63165
244.5515
241.15758
210.68682
330.25455
293.59502
339.21934
301.17921
343.79532
303.84612
339.733
297.17873
315.48336
273.1039
260.87274
226.92265
369.80192
332.16405
379.12323
338.92626
382.83052
338.72734
375.40014
325.44831
340.86683
289.63009
270.2218
230.921
374.10013
353.40878
379.32986
358.40009
372.31644
354.17152
344.03182
332.93188
288.90858
286.03862
226.59101
224.58934
317.91372
323.66667
309.70024
321.90982
287.30378
307.42487
255.53568
278.15111
224.36758
238.2926
202.30537
203.48189
239.69114
255.10677
227.7216
242.98668
217.43235
228.11531
209.70549
214.20404
203.38719
203.12087
199.12759
194.19965
202.60362
208.15969
199.89362
202.83098
198.25402
198.63848
197.05336
195.02811
196.27401
191.64494
197.02871
189.58587
190.53989
191.4745
189.62009
188.88838
188.99137
186.70392
188.73326
184.8345
189.03808
183.19405
190.93896
182.85892
176.73268
176.68278
176.42119
175.14543
176.16435
173.70356
176.15777
172.42659
176.69256
171.38191
178.60145
171.60528
155.66993
156.50497
155.92407
155.90018
156.0402
155.11873
156.28988
154.35553
157.02574
153.79686
159.0274
154.35448
130.01218
131.72415
130.81917
131.94203
131.31122
131.74844
131.83434
131.46113
132.71691
131.33994
134.86587
132.15616
104.1441
105.5908
105.24952
106.36205
106.02514
106.69801
106.72418
106.86723
107.72964
107.06866
109.99304
108.17049
80.608892
81.270642
81.576639
82.017238
82.365441
82.517928
83.111969
82.885208
84.184626
83.303625
86.460125
84.539614
59.409469
59.072218
60.037601
59.440746
60.593299
59.705711
61.243913
59.997955
62.302174
60.552945
64.539677
61.871208
39.479248
37.500067
39.769663
37.305285
40.125847
37.244238
40.62253
37.366441
41.404948
37.816839
43.232869
39.131631
18.3451
17.914466
18.389036
17.770658
18.479852
17.706151
18.638097
17.75519
18.948392
17.957742
19.824742
18.585204
6.2525381
7.2789124
6.1803746
7.1942991
6.062487
7.0737145
5.9275477
6.9485176
5.9089723
6.9092151
6.4899312
7.4208942
1.3757116
1.0884509
1.0069097
0.8237627
0.77531445
0.66599183
0.61627289
0.55657999
0.4352652
0.42062833
0.21515236
0.22710441
7.6076677
6.6073779
4.8809634
4.0749675
3.4310022
2.8430472
2.6374588
2.1613566
2.0999521
1.679595
1.6676135
1.2637339
19.023558
16.589091
14.824555
12.577244
12.179234
10.198371
11.014962
9.1774285
10.296604
8.5553712
9.6087247
7.8462474
24.122492
20.657352
21.856233
18.680761
21.186563
18.252618
21.129885
18.416716
20.84175
18.42953
19.964583
17.858752
31.047428
27.933125
29.053058
25.498134
28.801497
25.076809
28.939018
25.116263
29.121456
25.245009
29.046345
25.3743
42.027227
39.030974
40.084505
36.154591
39.669265
35.199785
39.603602
34.70569
39.630417
34.308244
39.551119
33.850015
55.320082
52.337982
53.149951
49.405522
52.381569
48.150965
51.956259
47.323212
51.624236
46.526838
51.278835
45.577502
68.298287
65.426034
65.961903
62.973893
65.056149
61.818141
64.50607
60.937859
64.025134
60.039627
63.489438
58.98472
79.234885
76.568167
77.355344
75.524604
76.436238
74.72484
75.719276
73.798227
75.005526
72.645567
74.234086
71.308396
86.545602
83.915361
86.065783
84.72912
85.553879
84.697121
84.893771
84.086309
84.056508
82.92275
83.086909
81.369511
91.236621
88.096898
92.310449
89.88443
92.743047
90.563507
92.743374
90.757956
92.26001
90.364949
91.328284
89.244816
95.018711
92.310297
96.486814
94.078473
97.416354
94.855555
98.274201
95.350022
99.271128
95.727389
99.871714
95.777674
97.869804
98.502074
98.222072
101.16636
98.789067
102.63282
99.406684
103.71492
100.1937
104.53292
101.36246
104.6825
111.54337
104.02148
113.87247
108.62187
115.47872
111.6962
116.79591
113.75497
118.30084
114.14476
120.04857
111.84095
129.96445
107.85678
132.35074
111.93919
134.69104
115.61701
136.59664
118.15629
138.07461
120.207
137.3129
118.37803
151.98266
119.52132
153.13531
120.71751
155.99747
123.36876
158.2036
125.63016
160.03734
127.93417
160.27922
129.02587
166.44862
132.44562
163.4985
129.14497
165.01996
129.52859
166.91885
130.38179
168.8488
131.66815
170.31025
132.68845
175.95665
147.05164
168.40023
140.78037
167.82642
139.74362
168.57694
139.70857
169.68804
140.11353
170.55953
139.69965
188.62163
165.88022
176.92247
157.97995
174.72961
156.48878
174.51543
155.80945
174.64614
154.78822
174.30129
151.9597
198.61321
178.52906
181.68608
167.58674
177.86721
165.30699
176.65763
164.04323
175.99256
162.36953
175.03622
158.91172
203.44976
185.69523
180.91596
172.24524
175.4423
169.15745
173.06673
167.15412
171.19452
164.70011
168.70968
160.91764
205.27867
185.50312
182.62017
171.77267
176.98523
168.38502
173.76045
165.96401
170.60273
163.11957
166.74156
159.4505
190.97962
186.94061
182.04755
177.94172
180.08299
175.92928
179.10885
174.53671
177.96217
172.72938
175.52999
169.74318
193.57972
188.61528
194.70956
188.68854
195.58838
189.22914
196.0424
189.4713
195.47922
188.96248
192.42489
186.15216
200.33948
193.41624
205.18579
199.45474
207.15083
201.86165
208.0073
202.94269
207.31801
201.81015
204.38307
197.65642
201.07657
193.27332
206.30318
200.42583
208.28104
203.10653
209.08609
204.14596
208.77799
203.02197
207.18964
199.49226
195.22012
187.04895
199.4429
193.19845
200.87984
195.33547
201.46834
196.10428
201.48605
195.38506
200.91549
193.01516
182.41573
175.32248
185.84444
179.55631
186.89999
180.7249
187.37615
180.94659
187.60212
180.3505
187.61656
178.92336
162.8591
157.50243
166.59481
159.90589
167.83672
160.23417
168.50008
160.13925
168.9835
159.78942
169.36645
159.1362
138.98543
134.86252
143.50016
136.6152
145.19272
136.85798
146.18238
136.88233
146.92034
136.82366
147.42536
136.67772
114.18733
110.68621
119.24215
112.80131
121.3104
113.34174
122.48613
113.60391
123.21679
113.75575
123.35825
113.76569
90.678894
87.043229
96.064223
89.76588
98.128606
90.585371
99.134423
90.995835
99.497626
91.202684
98.999759
91.000097
68.9608
64.834729
74.592818
68.561099
76.122189
69.406622
76.47231
69.636903
76.143934
69.417247
75.023294
68.623434
47.354198
42.715925
53.024535
48.050418
53.641521
48.78433
53.098631
48.410692
52.128346
47.63442
50.765343
46.415526
22.541829
20.981512
27.32378
25.868574
27.951869
26.567983
27.178026
25.97015
26.219877
25.100551
25.138897
24.016801
8.2763734
9.229231
10.090586
11.108666
10.193299
11.13834
9.8789497
10.733918
9.4332515
10.204819
8.8834832
9.5324538
0.083165747
0.091513197
0.062948037
0.057225156
0.1017729
0.099700099
0.13617479
0.1696918
0.15298961
0.23027906
0.15853299
0.23518621
0.1969157
0.34767454
1.4568864
1.0362572
1.3972685
0.96090224
1.3686923
0.95610553
1.3354217
0.95744621
1.3038081
0.95604227
1.2981749
0.86348758
1.4120707
0.88416751
9.2694325
7.4018465
9.1935181
7.3206117
9.0926085
7.3246393
8.8774533
7.2725154
8.5988632
7.0687499
8.3743465
6.4970843
8.519198
6.4586836
18.74779
16.816924
17.773381
15.902316
16.936633
15.090306
16.144413
14.342467
15.423267
13.589968
14.839975
12.787602
14.693564
12.456966
27.585749
24.361556
25.779711
22.768433
23.998256
20.967632
22.36629
19.223409
21.043343
17.674402
20.336472
16.49209
20.427146
15.717423
38.605861
33.260236
36.647694
31.75781
33.955813
29.257027
31.304276
26.348022
29.039635
23.628046
27.746964
21.762237
27.862544
20.837859
50.891812
44.59797
49.635679
43.571072
46.730072
41.203806
42.995515
37.439871
39.706532
33.527232
37.267737
30.411713
36.817322
28.806217
62.969235
57.916445
62.120477
56.748167
59.824237
54.620502
55.858934
50.675529
51.713717
45.783946
48.163947
41.337649
46.724121
38.537408
73.517655
70.113513
72.700389
68.889313
71.109784
66.982753
68.005133
63.509962
63.809217
58.433322
59.630825
53.061343
57.226486
49.003817
82.236242
80.017629
81.413196
78.760477
80.229574
77.049168
78.207564
74.266907
75.022649
69.941368
70.988468
64.45956
68.114016
59.59551
90.383278
87.935897
89.549638
86.710667
88.563139
85.209817
87.170739
83.042087
85.006152
79.685962
81.865714
74.853418
79.238029
69.948163
99.548916
95.272771
98.892234
94.419077
97.966238
93.123171
96.725928
91.239818
94.974752
88.406932
92.641087
84.355345
90.60822
80.016136
102.92926
104.27517
104.85367
103.66134
106.73419
102.63114
107.33825
100.84156
106.40706
98.010072
104.46037
94.135715
102.44673
90.07489
121.10312
109.63953
121.65938
108.17177
121.93675
107.0406
121.70689
106.27539
120.39994
105.52009
117.42229
103.61584
114.2834
100.28407
133.69627
109.48244
130.27194
102.11797
127.57491
96.732219
125.82392
94.067901
125.39952
96.96106
125.98502
104.18461
124.29911
108.98883
153.25861
122.53252
140.88627
110.38076
128.10455
96.874327
118.03835
84.844861
114.30405
80.399009
120.95437
92.436629
128.95536
113.60083
166.54974
129.05024
154.9937
120.02045
136.24658
106.30658
116.35898
89.903967
102.99459
76.413907
108.21748
80.595292
128.78452
112.49744
168.08498
135.71917
160.02465
128.63545
143.86719
117.22572
122.46875
101.57864
101.35646
83.803497
95.602247
77.99183
121.34304
105.91116
171.14491
146.55531
164.11316
139.41589
150.85043
129.05095
131.56735
114.57197
108.65755
96.277886
91.620261
82.666263
108.36286
98.493987
172.59727
153.62366
167.93638
147.42859
158.62538
139.03664
143.39498
127.64964
122.77223
112.37642
101.45022
94.934056
101.09977
98.787687
166.24419
156.70378
163.78506
152.54314
159.843
147.26013
152.05858
139.87622
138.13718
129.06535
118.43513
112.99737
104.62995
105.08355
163.56581
156.31765
160.82486
153.66543
157.52123
150.35874
152.98442
145.51859
145.07983
137.71278
130.96284
125.332
113.09419
110.7025
171.87956
166.344
168.40252
163.12265
164.33845
158.97103
159.31399
153.51512
152.53973
146.25971
141.29156
135.2921
125.25261
121.56654
188.2356
181.64393
184.27594
177.45863
179.4693
172.66994
173.27581
166.6493
165.16811
158.43407
154.90797
148.13781
142.99527
138.63419
200.83416
193.52945
196.8858
189.49413
191.12379
183.82599
183.89969
176.4405
175.93221
167.87908
168.06658
159.56394
163.36269
156.11476
204.96298
196.02135
201.90218
192.42293
196.60382
187.18106
189.63512
180.09608
182.76089
172.81418
178.02834
167.51084
180.4998
169.67418
199.85413
190.494
197.97751
187.59195
193.96743
183.00164
188.07198
176.85818
182.7113
171.22908
180.75068
169.0277
187.77126
175.02141
187.29828
177.34711
186.27184
175.30738
183.25775
171.76786
178.57365
166.92181
175.11127
163.31075
175.93705
164.10636
185.3873
173.15167
169.30241
158.31648
168.28404
157.04961
165.30073
154.47642
161.80882
150.84244
160.67491
149.33945
164.03356
152.76589
175.17774
164.40655
147.04672
136.40688
145.49445
135.59632
142.66054
133.33786
140.28746
130.61172
140.91814
130.59354
146.35783
136.22015
158.8006
150.05232
122.35899
113.42282
120.45663
112.30919
117.9076
109.99731
116.49639
107.80292
118.13399
108.92167
124.78477
116.02015
138.26256
131.48333
97.56502
90.069683
95.604957
88.337874
93.166187
85.710543
92.065352
84.186374
93.914084
85.802922
100.71972
93.315621
114.58166
109.49
73.229787
67.027616
71.26966
64.987843
69.015729
62.500293
67.94304
61.314514
69.476938
62.665674
75.432438
69.345493
88.641879
84.803236
49.000885
44.620028
47.327708
42.80386
45.47741
40.731969
44.272595
39.479581
45.151192
40.47136
49.161528
44.895993
59.670753
56.44952
23.799893
22.492648
22.581885
21.076546
21.11125
19.330105
19.972011
17.761539
20.066857
17.937417
21.779231
20.060063
27.113218
25.695841
8.1262943
8.5637535
7.307647
7.5278573
6.1111251
6.0696267
4.7777739
4.4342663
3.9154509
3.3220447
5.1190965
4.4401265
8.505699
8.7333732
0.26173696
0.4788305
0.31258001
0.49672069
0.28827993
0.29857774
0.38440307
0.37329976
1.7219614
1.0106822
1.8990418
1.0426095
2.5356308
1.3208878
2.9119156
1.8603467
9.5482992
6.9548559
10.170923
6.8890687
11.952293
8.1014407
13.491913
9.8682535
15.895703
12.908281
16.867651
12.656611
19.282283
13.931145
21.906228
16.829706
22.085119
15.757736
23.367577
16.190396
26.505294
18.780368
29.995078
23.066635
29.773569
21.162575
31.192918
21.656441
34.780328
25.143883
39.035157
30.329232
38.656404
28.961264
40.13385
29.300772
44.033303
33.184479
49.082837
38.894436
48.295204
38.256044
49.856757
38.429914
54.088145
42.3966
60.030072
48.656012
58.484619
48.243069
60.220707
48.389829
64.87528
52.491639
71.829691
59.50437
69.143657
58.493492
71.106859
58.774867
76.160069
63.148322
83.964496
71.019508
80.256229
68.853978
82.49775
69.502404
87.891053
74.347849
96.392774
83.22139
91.764233
79.31511
94.257392
80.556989
99.858848
86.0435
108.94268
96.03691
103.37204
89.698463
105.78996
91.522297
111.23976
97.641446
120.58229
108.61686
114.1566
99.680668
116.08936
101.90062
121.29568
108.82216
130.81308
120.82224
122.92353
108.85926
124.16274
111.22012
129.21498
119.05051
138.90809
132.21265
128.47467
116.76001
129.56577
119.25206
135.03491
127.64058
144.96355
140.85113
133.25078
122.89246
135.03904
126.72528
140.60579
134.834
150.01924
145.88687
134.41133
123.06954
138.41114
128.8657
144.24269
135.89414
152.20401
143.78932
127.9452
116.41525
135.26759
123.75644
141.57886
129.47124
147.93622
134.4078
116.33799
108.88446
125.11751
114.9697
131.6126
119.29858
137.4301
123.66625
110.16729
109.1897
115.25454
110.8377
120.84988
113.34219
126.49512
117.91143
111.07662
112.32213
112.77145
112.60601
117.0751
114.98565
123.1101
119.71091
119.36983
119.08738
119.4652
120.46166
123.06878
122.77708
129.22019
127.2772
135.25667
135.19526
133.6149
135.26552
136.40969
136.97471
142.27667
141.63593
158.95571
158.34298
156.06299
158.36463
157.92598
159.66328
163.20745
164.14782
183.98031
179.91193
182.55438
183.33459
183.25978
185.35109
185.83776
188.78423
199.13987
190.84192
201.49157
198.14735
199.87078
199.89228
196.5913
199.66558
200.27198
190.65708
205.28806
198.62455
200.65823
198.07136
192.77398
194.05265
190.22044
181.95347
195.41139
188.74895
189.47772
186.24335
180.61737
180.11991
174.14791
167.76559
178.77782
173.61745
172.77071
170.11485
164.58619
163.86306
154.05826
149.59647
158.6345
155.19837
153.36429
151.60431
146.67358
146.21874
130.79806
128.10052
135.57487
133.90107
131.6106
131.02206
126.60464
126.7235
104.93671
103.55112
109.83711
109.68719
107.20874
107.79036
103.46238
104.3141
75.196842
74.532348
79.63305
80.588257
77.986822
79.473435
74.929471
76.419327
37.248549
37.490051
41.358447
43.042681
39.317429
41.14529
36.280999
37.840852
10.458857
11.853467
9.0621544
10.391209
5.9860993
6.770831
5.0940049
5.0883753
4.8131379
3.7954773
0.3497709
0.3718277
2.722806
2.1067909
13.352344
12.304417
2.5509157
2.1557489
5.415628
6.8841944
25.181241
24.798695
11.33773
10.286249
16.373181
19.345298
31.823798
32.251581
15.719855
15.323291
25.661203
29.54818
37.714103
38.727925
19.507606
20.534185
33.401568
37.998229
43.762201
45.076451
24.780019
26.31093
40.475146
45.747921
50.145765
51.509203
30.615733
32.529907
47.305195
53.220785
56.648828
57.912591
36.691025
38.999572
54.076691
60.538668
62.815975
63.950682
42.926115
45.523557
60.892838
67.734524
68.211773
69.274196
49.307129
52.098248
67.917
74.847336
72.753069
73.787226
55.902407
58.62819
75.370955
82.004745
76.72601
77.661237
62.78084
65.241494
83.353661
89.394296
80.444719
81.082304
69.072654
71.657198
91.79809
97.304249
84.114027
84.351628
74.87721
77.106649
100.41824
105.03631
87.467359
87.144874
81.345887
82.293884
107.71413
110.13495
90.202076
88.953817
89.176057
88.924489
113.16111
114.29839
92.265617
91.110737
95.420143
93.957113
115.58114
115.37504
92.983409
92.324324
97.140701
96.516129
115.61796
114.89647
93.17715
94.176406
95.692109
96.646341
115.35775
114.03851
94.584828
98.428382
94.789834
96.65874
117.41623
115.5088
98.301859
105.05426
97.117049
100.50809
122.03754
120.46602
104.04768
111.94843
104.66068
109.07938
127.38944
128.18958
110.09396
117.64595
117.09497
120.32566
129.60771
134.00503
113.78424
120.90893
126.31848
128.78294
130.81182
138.86481
116.28245
123.23515
132.55716
137.50969
133.41088
145.97752
117.16617
124.06757
138.52525
148.10596
138.78045
158.66039
115.71131
122.03226
145.18637
162.20857
149.7729
176.44485
110.7591
114.53393
151.58544
172.51204
170.46107
190.7317
101.70948
101.17152
154.27362
170.10474
198.23498
193.39159
88.99617
84.4022
149.43594
151.08437
215.29359
187.08925
73.821461
67.516267
134.70719
124.08411
208.89379
171.46152
57.611371
51.85339
113.34295
96.308053
186.97269
148.73501
41.078934
36.742889
88.565896
70.895441
159.05474
122.63554
24.085925
21.121519
60.222256
45.481472
123.61791
92.939908
8.3263513
5.9207901
30.903252
17.146435
79.380177
58.599272
1.8466318
1.055726
9.1683755
1.8561057
37.543915
24.309598
1.408373
2.4769343
3.3915535
4.0305872
4.2349476
4.268275
3.0534565
4.6197944
5.0188882
5.0119149
4.7483728
4.7575104
8.3234764
9.3968291
10.810815
12.097933
12.973882
13.49506
12.736341
14.181761
16.002665
16.700932
17.089314
17.612998
24.35561
23.872631
24.32983
25.02751
25.824389
26.53084
31.246509
28.271247
28.859265
29.206406
29.865855
30.169101
37.58856
36.466845
34.9802
33.649226
32.743722
32.047138
46.577353
41.144878
37.943709
34.510291
34.41466
33.706031
48.600823
47.669377
45.045113
42.317964
39.885031
37.789674
59.214256
54.126662
48.94057
44.000345
40.594432
37.963679
58.505935
57.865274
54.600838
51.103297
47.823814
44.893138
69.979147
66.514265
61.073991
55.390163
50.477868
46.407448
67.649084
67.134152
63.598351
59.81128
56.236536
53.023634
78.85264
77.795547
73.5511
67.972354
62.373135
57.283914
75.909176
75.198636
71.744685
68.030708
64.518372
61.412084
85.590947
87.103432
85.239188
80.589138
75.096241
69.654599
82.894638
81.637585
78.528355
75.094311
71.775411
68.916843
89.707398
93.222144
94.136456
91.030511
86.274301
81.181077
88.227279
86.25006
83.523345
80.351571
77.151608
74.474396
91.247683
95.366978
97.975098
96.528266
92.97222
88.805327
92.083803
89.377852
86.765243
83.800032
80.607865
77.768639
91.08678
93.983613
96.211412
95.559035
93.097039
90.085918
95.278986
91.857186
88.8498
85.776772
82.492791
79.431629
90.36007
90.905792
91.218323
90.218666
88.137621
85.811492
99.394011
94.836729
90.868893
87.310194
83.846077
80.657739
90.251993
88.607994
86.906362
84.783128
82.243746
79.941076
106.00182
99.190782
93.807091
89.593109
85.87418
82.653446
91.932799
89.023664
85.957876
82.880309
79.626638
76.746849
116.26265
105.69644
98.339155
93.042944
88.832279
85.610337
97.387067
92.89438
89.019973
85.249609
81.506036
78.149321
126.54701
114.52828
104.73363
97.012982
92.1361
88.682391
106.23508
99.493117
94.677025
90.685268
86.39967
82.524688
133.82886
120.41334
108.76732
100.5871
94.862122
90.677528
114.58379
107.28267
101.75038
96.537968
91.411184
86.657119
138.7313
124.40208
111.06008
101.8919
95.207726
90.46592
122.41438
115.71127
109.22243
102.47567
95.996643
90.172012
142.54038
126.59394
112.63485
101.81091
94.266659
88.663149
128.9311
122.91966
116.32487
108.15109
100.21482
93.217532
146.25812
129.26364
114.02612
101.16876
92.356498
86.248267
133.44261
128.23294
122.12605
113.13781
103.89611
96.044254
150.75037
132.77213
115.05966
99.711601
89.717005
83.688428
138.04963
132.87174
126.54567
117.34183
107.50219
98.548206
152.4119
136.14368
114.72379
96.740849
86.185247
80.968408
143.49687
136.89714
129.20884
119.54517
109.07899
99.319961
155.05811
137.83758
112.04074
91.418878
81.107977
78.070322
149.57164
139.85619
129.69733
118.51127
107.44251
97.51972
158.80086
137.11135
108.51099
85.788575
75.962405
74.41931
152.57255
139.48188
127.01193
114.45303
103.32788
94.000417
162.07107
134.82617
104.66981
80.162576
70.137694
68.867684
151.2621
135.97095
121.79757
108.23479
97.367502
88.917958
164.30868
131.9676
100.23858
74.117575
63.242369
61.608368
145.54324
129.68223
114.48223
100.35738
89.830337
81.921436
164.84962
128.21093
94.662345
67.335557
55.503788
53.519158
136.15423
120.86968
105.25303
91.167374
80.904398
73.639361
162.38396
122.83288
87.588979
59.722918
47.294772
45.238359
124.31849
110.12086
94.565005
81.020629
71.254453
64.566371
154.47926
114.88495
78.744637
51.466668
39.053012
37.258059
110.83328
98.165441
83.129233
70.531752
61.543085
55.270714
140.22157
103.99634
68.368949
42.898132
31.172493
29.80491
96.469934
85.433389
71.507463
60.101893
51.860785
45.953157
123.35053
90.491905
56.865046
34.26674
23.802434
22.949352
81.817914
72.219183
59.8952
49.836916
42.403087
36.987827
104.38678
74.906376
44.652454
25.720187
16.946332
16.63251
66.861514
58.697229
48.185109
39.588625
33.10702
28.511585
82.836408
57.545233
32.042956
17.343241
10.667976
10.811221
51.078847
44.415101
35.915759
29.026421
23.94683
20.832612
57.631827
38.074638
19.167424
9.0892075
5.1201027
5.4000142
32.994879
28.164938
22.231712
17.939128
15.351398
14.250776
25.688721
15.18906
5.797427
1.9840531
0.93899556
1.0043649
11.180931