/*--------------------------------*- C++ -*----------------------------------*\
| =========                 |                                                 |
| \\      /  F ield         | OpenFOAM: The Open Source CFD Toolbox           |
|  \\    /   O peration     | Version:  2206                                  |
|   \\  /    A nd           | Website:  www.openfoam.com                      |
|    \\/     M anipulation  |                                                 |
\*---------------------------------------------------------------------------*/
FoamFile
{
    version     2.0;
    format      ascii;
    arch        "LSB;label=32;scalar=64";
    class       volScalarField;
    location    "200";
    object      nut;
}
// * * * * * * * * * * * * * * * * * * * * * * * * * * * * * * * * * * * * * //

dimensions      [0 2 -1 0 0 0 0];

internalField   nonuniform List<scalar> 
50904
(
8.4580079e-07
9.8486356e-07
9.7237876e-07
1.2030937e-06
1.2101636e-05
1.3753372e-05
1.4735888e-05
1.5364666e-05
5.5189727e-05
5.6230186e-05
5.5557656e-05
5.7035396e-05
0.00014667161
0.00014463846
0.00013379332
0.00013228793
0.00030854302
0.00029776944
0.00027005463
0.00026351427
0.00056035066
0.00053982891
0.00048835887
0.00047203668
0.00089112857
0.00086054249
0.00076990909
0.00073974634
0.0012771556
0.0012343905
0.0010823749
0.0010343827
0.0017015206
0.0016441886
0.0014041592
0.0013358143
0.002157713
0.0020848783
0.0017336157
0.0016404029
0.002643271
0.002559699
0.0020107137
0.0018836453
0.0031304482
0.0030500197
0.0024647321
0.0023199109
0.0035625799
0.0035006061
0.0028398522
0.0027190105
0.003905086
0.003861867
0.0031767313
0.0030965265
0.0041507072
0.0041108677
0.0034407374
0.0033950563
0.0042805122
0.0042356172
0.0036180931
0.0035728141
0.0042866854
0.0042132199
0.0036957969
0.0036354031
0.0041295445
0.0040099737
0.0036829775
0.0035942301
0.0038266963
0.0036614646
0.0035886835
0.0034611578
0.0034522377
0.0032561462
0.0034334623
0.0032609456
0.0030848733
0.0028893524
0.0032382635
0.0030210555
0.0027433747
0.0025823692
0.0030005697
0.0027503107
0.002421414
0.0023033809
0.002753728
0.0024908328
0.002086245
0.0020176149
0.0025424941
0.002280356
0.0018128778
0.0017428388
0.0023112825
0.0020718363
0.0015499859
0.0015304631
0.0020104951
0.0018082758
0.0012620028
0.0012583009
0.001661832
0.0014948662
0.00098647731
0.00099361676
0.0013000276
0.001162207
0.00073393318
0.00074804979
0.00095394462
0.00084196799
0.00051337369
0.00053117735
0.00064774733
0.00056153946
0.00032923971
0.00034707668
0.00039661117
0.00033824396
0.00018399681
0.0001987361
0.00021046591
0.00017992459
8.0490468e-05
8.9717299e-05
9.3035788e-05
8.3426343e-05
2.0525541e-05
2.3775347e-05
3.2229729e-05
3.0947296e-05
1.2090775e-06
1.54126e-06
4.2203303e-06
3.9258423e-06
4.2590688e-08
5.7307601e-08
3.2171989e-07
2.7166496e-07
9.4936255e-07
1.1073798e-06
1.0262865e-06
1.2075323e-06
1.0855311e-06
1.101383e-06
8.7991876e-07
7.961677e-07
6.4939903e-07
5.7259771e-07
4.6322477e-07
4.2767806e-07
3.4310187e-07
3.3366859e-07
1.534456e-05
1.5392265e-05
1.7284117e-05
1.71901e-05
1.7764017e-05
1.7638334e-05
1.5952498e-05
1.6050634e-05
1.3279405e-05
1.3577198e-05
1.0783286e-05
1.1250211e-05
8.3522495e-06
9.1294395e-06
5.9867688e-05
6.0640705e-05
7.1946561e-05
7.0731268e-05
7.4427185e-05
7.4238407e-05
6.9478054e-05
7.0251309e-05
6.1487474e-05
6.0660551e-05
5.4135552e-05
5.3876187e-05
4.8267097e-05
4.9876762e-05
0.00014454125
0.00014028272
0.00017468716
0.00017109759
0.0001797418
0.00017888136
0.00017008385
0.00017247033
0.00015837817
0.00016378493
0.00014911629
0.0001564334
0.00014236924
0.00015118693
0.00029156605
0.00028023074
0.00033341937
0.0003229672
0.0003354804
0.0003297828
0.0003264158
0.00032435273
0.00031787881
0.00031718116
0.0003122328
0.00026038236
0.00025359412
0.00021196089
0.00050801835
0.00048353275
0.00052081483
0.00049533796
0.00050967387
0.00048833408
0.00049769725
0.0004773738
0.0004386123
0.00033900869
0.00028964096
0.00025107824
0.00024430493
0.0002308477
0.00075482456
0.00071375136
0.00069577422
0.00064934286
0.00066080948
0.00061995094
0.00064063528
0.00053338608
0.00042754233
0.00035880251
0.00030594794
0.00028487729
0.00027625445
0.00027676265
0.00099802978
0.0009372896
0.00083607656
0.00076796584
0.0007699975
0.00071467599
0.00073772811
0.000593177
0.00046170359
0.00040355525
0.00033444338
0.00032444888
0.00030403
0.00032148536
0.0012215679
0.0011396997
0.00093606681
0.00084910182
0.00083516033
0.00077341915
0.00079362723
0.00071126169
0.00051693989
0.00045599462
0.00035347237
0.00034561595
0.00030785875
0.00033283907
0.001416442
0.0013127095
0.00099377138
0.00089515576
0.00086083158
0.00080007612
0.00081415251
0.00077782832
0.00070046254
0.00060126075
0.0004085528
0.0003811945
0.00030071339
0.00030768372
0.0015858653
0.001464046
0.0010381083
0.00094154385
0.00089220342
0.00083868485
0.00084993537
0.00081815108
0.0008377689
0.00081390495
0.00070776477
0.00057160807
0.00042533049
0.00037387167
0.0017625807
0.0016313615
0.0011469816
0.0010446086
0.0010062897
0.00094029869
0.00097036502
0.00091803937
0.00096386314
0.00091155433
0.00096497284
0.00069659332
0.00076972478
0.00043917219
0.0019822185
0.0018535806
0.0013377918
0.0012101827
0.0012015657
0.0010915845
0.0011646527
0.0010587711
0.0011568828
0.0010472557
0.0011563787
0.00075364681
0.00095949605
0.00047686626
0.0022283571
0.0021184706
0.0015104329
0.0013646116
0.0013492704
0.0012028947
0.0013012715
0.0011472785
0.0012899908
0.0011250061
0.0012902636
0.0010830616
0.0010642265
0.00060671371
0.0025059283
0.0024414694
0.001682455
0.0015515055
0.0014884509
0.0013352979
0.0014338803
0.0012552511
0.0014228345
0.0012213601
0.0014259937
0.0012027801
0.001431838
0.00094563876
0.0027198472
0.0026839005
0.0018165413
0.0017163453
0.0016024075
0.0014548694
0.0015495311
0.0013643312
0.0015444913
0.0013246399
0.0015539878
0.001305181
0.0015643109
0.0012949973
0.0028225251
0.0027756186
0.0019396216
0.0018563527
0.0017246785
0.0015772986
0.0016755717
0.0014835688
0.0016742093
0.001440024
0.0016868085
0.0014196579
0.0017010692
0.001411161
0.0028317102
0.0027620655
0.0020353765
0.001925392
0.0018392612
0.0016769938
0.0017980312
0.0015904148
0.001801116
0.0015480557
0.0018164086
0.0015285313
0.0018321262
0.0015214274
0.0027762228
0.0026605826
0.0021011142
0.0019560224
0.0019487081
0.0017622587
0.001922507
0.001688689
0.0019326358
0.0016539011
0.0019519772
0.0016394277
0.0019711914
0.0016353944
0.0026674962
0.0025073355
0.0021393531
0.0019673146
0.0020533959
0.0018368145
0.0020522851
0.0017791845
0.0020731168
0.0017511559
0.002097717
0.0017395262
0.002119839
0.0017361847
0.0025149312
0.0023258564
0.0021379688
0.0019670414
0.0021217138
0.001898275
0.0021547821
0.0018639008
0.0021933955
0.0018455285
0.0022274401
0.0018371426
0.0022546759
0.0018347944
0.0023081973
0.0021137252
0.0020180908
0.001878953
0.0020516638
0.001871221
0.0021324231
0.0018806217
0.0022074459
0.0018865132
0.002265361
0.0018898849
0.0023071622
0.0018914155
0.0021123399
0.0019187312
0.0017916844
0.0016873631
0.0017754982
0.0016970653
0.001827241
0.0017432475
0.0018836322
0.0017814888
0.0019273783
0.0018078333
0.0019556635
0.0018239661
0.0020501763
0.0018354557
0.0016973778
0.0015595291
0.0016050829
0.0015226666
0.0015982776
0.0015439787
0.0016151062
0.0015719395
0.0016320063
0.0015930884
0.001560698
0.0016055903
0.0020719728
0.0018381221
0.0018259651
0.0015956871
0.001713814
0.0014988924
0.0016631093
0.0014655452
0.0016461719
0.0014583344
0.0011640597
0.0014601175
0.00061660981
0.0008271982
0.0019785369
0.0017785831
0.001962263
0.0017310413
0.0019972251
0.0017166475
0.0020262574
0.0017156037
0.0016862333
0.0017271954
0.0010460859
0.001043898
0.00081387039
0.00067529172
0.0017225983
0.0015651907
0.0018320159
0.0016685149
0.001970932
0.0017562687
0.0020549122
0.0018014002
0.0017710724
0.0018316392
0.0012687622
0.001189935
0.001021822
0.00083518104
0.0013837047
0.0012580226
0.0015318676
0.0014288937
0.0017114581
0.0015806852
0.0018136299
0.0016575551
0.0016040035
0.0016987105
0.0012299705
0.0012079174
0.0010004636
0.00085686234
0.0010247182
0.00092310904
0.0011669447
0.001104297
0.0013623706
0.0012933426
0.0014780048
0.0013963625
0.0014830645
0.001447917
0.0011517438
0.0011829175
0.00092624456
0.00083841917
0.00069075515
0.0006116101
0.000799451
0.00076147343
0.0009881802
0.00095751412
0.0011147161
0.0010801368
0.0011780358
0.0011408079
0.0011765582
0.0011717767
0.0008827421
0.00081392137
0.00041368012
0.00036008456
0.00047788156
0.00045677556
0.00062970559
0.00062043661
0.00075315068
0.00074629916
0.00082081786
0.00081411905
0.00085478102
0.00084696505
0.0008738218
0.00086394602
0.00021543522
0.00018809767
0.00024370164
0.00023461483
0.00033547306
0.00033461869
0.00043065966
0.00043467496
0.00049315163
0.00050026135
0.00052557197
0.00053330895
0.00054216769
0.00054911369
9.8708856e-05
9.006402e-05
0.00010796746
0.00010552187
0.00014419221
0.00014432807
0.00019375513
0.0001965459
0.00023602646
0.00024223146
0.00026042787
0.00026887332
0.00027214497
0.00028105554
3.8690968e-05
3.7029944e-05
4.064195e-05
4.0563672e-05
4.8477038e-05
4.8343392e-05
6.2687333e-05
6.2646829e-05
7.8994224e-05
7.9502712e-05
9.0553605e-05
9.1660574e-05
9.6020439e-05
9.7130048e-05
7.3421771e-06
6.9470755e-06
6.8376796e-06
7.1639304e-06
8.2180405e-06
8.5433749e-06
1.0340831e-05
1.0524195e-05
1.3062877e-05
1.3179116e-05
1.536735e-05
1.5402039e-05
1.6527194e-05
1.6467031e-05
5.9039566e-07
5.2681523e-07
4.104492e-07
4.5383413e-07
5.1242414e-07
6.0232234e-07
7.5540427e-07
8.9724593e-07
1.0177806e-06
1.211936e-06
1.1487172e-06
1.3636813e-06
1.1791325e-06
1.3972872e-06
2.6528802e-07
2.7056013e-07
2.2371393e-07
2.3403807e-07
1.9690686e-07
2.0850947e-07
1.7587679e-07
1.8283889e-07
1.7562978e-07
1.7080933e-07
2.4480528e-07
2.1229345e-07
6.6905765e-06
6.9747976e-06
5.6837492e-06
5.3842092e-06
5.1055476e-06
4.7233592e-06
4.9668675e-06
4.6106638e-06
5.7661115e-06
5.3120642e-06
7.642258e-06
6.9681161e-06
4.4336317e-05
4.7578224e-05
4.1574814e-05
4.3498499e-05
4.0472832e-05
4.1230177e-05
4.0793132e-05
4.0338842e-05
4.3358593e-05
4.1347517e-05
4.8170184e-05
4.4383512e-05
0.00013763724
0.00014690506
0.00013416913
0.00014262107
0.00013161345
0.00013836502
0.00012880834
0.00013282148
0.00012546155
0.00012479706
0.00012282588
0.00011466048
0.00024146138
0.00021149962
0.00025868677
0.00022720542
0.00029230769
0.00025816123
0.00029714599
0.0002902814
0.00028233414
0.00027102052
0.00025697538
0.00023952525
0.00026187407
0.00025439123
0.00030445502
0.00029573715
0.0003689295
0.00035818408
0.0004999675
0.00047451242
0.00050122262
0.00046817793
0.00046167837
0.00042580414
0.0003085112
0.00032030723
0.00038049212
0.00039855706
0.00049142899
0.00051454161
0.00065423291
0.00067683596
0.00074155849
0.00069048725
0.00071739604
0.00065308852
0.00034835522
0.00038652065
0.00045604905
0.00050705117
0.00063613898
0.00069066304
0.00088955533
0.00088371993
0.00094483044
0.00090706005
0.00085615707
0.0008486833
0.0003524765
0.00040545034
0.00048168814
0.00055091933
0.00073042889
0.00077686603
0.0010505119
0.0010090005
0.0011675946
0.0010893501
0.0011696346
0.0011632545
0.00029986215
0.00033607936
0.00037400541
0.00043543628
0.00066341244
0.00062248211
0.0010854004
0.0010690659
0.001240469
0.0011901903
0.0015179843
0.0013797852
0.00032071148
0.00031421984
0.00029129663
0.00032165403
0.00034032766
0.00040241159
0.0006039065
0.00069022105
0.0012672573
0.0012538616
0.0016163645
0.0015194335
0.00050431217
0.00035298201
0.00037852459
0.00033739899
0.00034345211
0.00038352196
0.00042654666
0.00058979863
0.00090044193
0.0012657515
0.0016639069
0.0016507745
0.00061490746
0.00039768557
0.00045658177
0.00039796365
0.00041035859
0.00045530564
0.00048463789
0.00065201219
0.00089236753
0.0012117524
0.0018459929
0.001731309
0.0006719937
0.00045808959
0.00050961886
0.00042927861
0.00047286452
0.0004624417
0.00055945759
0.00059956891
0.00093909877
0.00096243289
0.0018402364
0.0014181605
0.00090691017
0.00061073892
0.00066736668
0.00050051517
0.00061187572
0.00051189797
0.00069498996
0.00063778841
0.0010043432
0.00095116694
0.0016148843
0.0011692634
0.0012115306
0.00080669367
0.00087124982
0.000584209
0.0007790099
0.00056509694
0.00087902359
0.00069780967
0.0012192581
0.0010431895
0.0016242823
0.0012414073
0.0014501314
0.0010348654
0.0010207014
0.00070767475
0.0008913955
0.00063958653
0.00099207467
0.00075508603
0.0013531441
0.0010951891
0.0017669136
0.0014023636
0.0016550778
0.0012144169
0.0011476501
0.00080374357
0.00098130717
0.00069740956
0.0010725001
0.00079684088
0.0014401663
0.0011349884
0.0019192055
0.001559945
0.001923482
0.0013768997
0.0013010057
0.00088892808
0.0010750673
0.00074111206
0.0011448571
0.00081825778
0.0015120483
0.0011484955
0.0020763443
0.0017072628
0.0021407469
0.0015115988
0.0014677639
0.00095040513
0.001169581
0.00075923259
0.001203619
0.00080951489
0.0015608377
0.0011213811
0.0022104507
0.0017980303
0.0022786007
0.0016622046
0.0016957368
0.0010299332
0.0013023999
0.00079795598
0.0012812691
0.00082562863
0.0016120782
0.0011157053
0.0023113643
0.0018065986
0.0023402129
0.0017434397
0.0019787144
0.0010818813
0.0014700528
0.00083079805
0.0013779123
0.00085085672
0.0016847417
0.0011330892
0.0023534107
0.0018396244
0.0018635648
0.0018331507
0.0011973648
0.0011461877
0.00094819758
0.00086748015
0.00099283307
0.00087347246
0.0013351797
0.0011469818
0.0021873535
0.0019769228
0.00088054149
0.0011808082
0.00063720218
0.00078127305
0.00060474197
0.00065012194
0.00077618764
0.00071997312
0.0015372048
0.0011305098
0.0024102147
0.0020918879
0.00048804118
0.0005370794
0.00055192324
0.00046477887
0.00081908464
0.00054432225
0.0015609564
0.00091729225
0.0024667848
0.0020514591
0.0027386366
0.0022916867
0.00089058872
0.00063690827
0.0014667033
0.00077902993
0.0017164181
0.00105918
0.002481733
0.0016682806
0.0026725737
0.0022968394
0.0027807126
0.002402297
0.0010447668
0.00079419801
0.0012949794
0.00092352055
0.0017233124
0.0011771239
0.0023222134
0.0017328864
0.0024953748
0.0022295988
0.0025499796
0.0022749382
0.0009921056
0.00080030429
0.0011699165
0.00091308746
0.0014678537
0.0011414235
0.00185689
0.0016043263
0.0021173882
0.0019878668
0.0021535737
0.0020146293
0.00089145539
0.0007643803
0.0010014976
0.00084542515
0.0011935396
0.0010170585
0.0014684213
0.0013589857
0.0017060056
0.001659373
0.0017756136
0.0016747935
0.00078771966
0.00069391255
0.00084415511
0.00073538267
0.00098221297
0.00085845519
0.0012366008
0.0011282561
0.0013398232
0.0012933329
0.0013584741
0.0013024273
0.00075941224
0.00067442684
0.00074425054
0.00064481988
0.00085178436
0.00073494284
0.00093219043
0.00091777174
0.00094485238
0.00092593367
0.00096124666
0.00093305804
0.00055228086
0.00055806487
0.00056139363
0.00056638085
0.00056952529
0.00057318801
0.00057712156
0.00057911503
0.00058529543
0.00058326787
0.00060000398
0.00058976866
0.00027826396
0.00028697968
0.00028244876
0.00029055741
0.00028552544
0.00029256053
0.00028846245
0.00029396227
0.00029267081
0.00029565946
0.00030294142
0.00030063241
9.8263555e-05
9.903058e-05
9.938783e-05
9.9585954e-05
9.9995407e-05
9.9551297e-05
0.00010045098
9.9350215e-05
0.00010121085
9.9333296e-05
0.00010469569
0.00010122195
1.6816038e-05
1.668798e-05
1.682152e-05
1.657532e-05
1.6826011e-05
1.6493296e-05
1.6824068e-05
1.6443883e-05
1.678653e-05
1.6397856e-05
1.7025601e-05
1.6448288e-05
1.1792707e-06
1.3949671e-06
1.1645087e-06
1.3779008e-06
1.1414196e-06
1.354266e-06
1.1150717e-06
1.3298041e-06
1.1097713e-06
1.3212893e-06
1.2147348e-06
1.4164729e-06
2.7513531e-07
2.2540357e-07
2.0177881e-07
1.7083733e-07
1.5550488e-07
1.3823729e-07
1.23669e-07
1.1558209e-07
8.7389266e-08
8.7390512e-08
4.3223559e-08
4.7213709e-08
7.3304517e-06
6.4442458e-06
4.5080112e-06
3.7672867e-06
3.1254957e-06
2.5810796e-06
2.4215459e-06
1.9667027e-06
1.9594744e-06
1.5451229e-06
1.6074492e-06
1.1919225e-06
4.4655407e-05
3.9642011e-05
3.0874295e-05
2.6158326e-05
2.395354e-05
2.0024825e-05
2.1040237e-05
1.7460019e-05
1.9372507e-05
1.5940821e-05
1.8301652e-05
1.47723e-05
0.0001061226
9.4010905e-05
8.0252126e-05
6.9413517e-05
7.0650326e-05
6.0988324e-05
6.6553853e-05
5.7688704e-05
5.4390647e-05
5.0416176e-05
5.0862328e-05
4.5751388e-05
0.00021373335
0.00019171856
0.00017108431
0.00014716401
0.00015656852
0.00013223947
0.00014969878
0.00012517397
0.00014489922
0.00012033101
0.00010830608
0.00010728214
0.00039472714
0.00035510841
0.00034069872
0.00029578847
0.00032224139
0.00027411787
0.00031225826
0.0002619494
0.00030395978
0.00025165966
0.00026061475
0.00024074154
0.00064631556
0.00058342553
0.000595058
0.000527294
0.00057833893
0.00050329383
0.00056836877
0.0004950443
0.00055827943
0.00048276088
0.00054500331
0.00046672198
0.0007718413
0.00072615327
0.00071377127
0.00063894942
0.00067173856
0.00055405139
0.00069542132
0.00052231286
0.00084793806
0.00063155881
0.00090192722
0.00079909074
0.001000481
0.00098468381
0.00087483814
0.00079038008
0.00073803615
0.00060594256
0.00068982496
0.00051936562
0.0008434021
0.00061797233
0.0011584204
0.00095816896
0.00141758
0.0014570116
0.0011125352
0.0010613568
0.00081566767
0.000715696
0.0006855007
0.00054322276
0.00079990745
0.00059775932
0.0012066083
0.0009515661
0.0019328777
0.0017536925
0.0016526472
0.001778226
0.0010222999
0.0011438093
0.00070528873
0.00072391924
0.00071011696
0.00064865736
0.0010352766
0.00089310316
0.0020942913
0.0020162374
0.002319223
0.0022066417
0.0024001461
0.0022792259
0.0011540251
0.0014192288
0.00075961035
0.0010688346
0.00080920194
0.0011275724
0.0022968432
0.0020480442
0.0025825679
0.0022123637
0.0026967054
0.0018895054
0.0027678109
0.00099439988
0.0028335724
0.00080713514
0.0027916033
0.0010884782
0.0021587719
0.0014756319
0.0023704417
0.0014517579
0.002466285
0.0010667168
0.0018258917
0.00047204473
0.0011616075
0.00037781949
0.0011714061
0.00059692822
0.0016352523
0.0010678803
0.0016326269
0.00097208317
0.0016396119
0.00094012162
0.00088183275
0.00088055815
0.00052478439
0.00033166822
0.00053750433
0.00030097542
0.0015293416
0.0011062
0.0014565079
0.00099659993
0.0014327383
0.0009591916
0.0014227876
0.00094256055
0.00079507762
0.00057017917
0.00058970217
0.00040699054
0.001651979
0.0012689899
0.0015582257
0.0011517508
0.0015232201
0.0011062605
0.0015064913
0.0010834215
0.0010924064
0.00074281024
0.00076854127
0.00050173679
0.001811123
0.0014403794
0.0017145971
0.0013222322
0.0016754618
0.0012742591
0.0016555004
0.0012498354
0.0012069739
0.0006916386
0.00088396052
0.0005763579
0.0019815899
0.0016092111
0.0018926373
0.0015014028
0.0018570849
0.0014594871
0.0018380727
0.00093988432
0.0012199231
0.00068078405
0.00093954934
0.00066515467
0.002138871
0.001746258
0.0020906652
0.0016762734
0.0020732029
0.0016500618
0.001924694
0.00097267281
0.0012747943
0.0007042014
0.0010549604
0.00071634006
0.002270174
0.0019023743
0.0022968623
0.0018981926
0.0023126621
0.0017545741
0.0022845562
0.00099068945
0.0013519418
0.00076700207
0.0013613106
0.00087736507
0.0023869411
0.0020387572
0.0025252678
0.002150244
0.0025808863
0.0019216772
0.0019868117
0.0011190895
0.001531456
0.00095332579
0.0017705965
0.0012555809
0.0025161534
0.0022577869
0.0027909145
0.0025232576
0.0028876502
0.0026162529
0.0027359657
0.0017385907
0.0014705459
0.0012824317
0.0011568602
0.0013351872
0.0027730694
0.0024455447
0.0029492838
0.0026453526
0.0030009036
0.0027049588
0.0013847403
0.0014880137
0.00081653298
0.00082075166
0.00087290649
0.00079013484
0.0029337163
0.0025010496
0.0030145444
0.0025801852
0.0026424705
0.0020633181
0.0012093713
0.00081910744
0.00090248248
0.00062292112
0.0011476098
0.00090565685
0.002865972
0.0024760096
0.0029211364
0.0025148373
0.0024820807
0.001873796
0.0015011285
0.00087829712
0.0012782756
0.00073411676
0.0015868198
0.0010988195
0.0026027321
0.0023138102
0.0026410168
0.0023394815
0.0023545477
0.0019281694
0.001894621
0.0010490698
0.0017809853
0.00089564509
0.002024192
0.0012733851
0.0021055145
0.00204021
0.0020766546
0.0020551836
0.0020534724
0.0017590662
0.0020256862
0.0012424479
0.0020496124
0.001147408
0.0020745813
0.0015122417
0.0017497912
0.001690671
0.0017311456
0.0016246931
0.0017658104
0.0015491319
0.0018099436
0.0014650445
0.0017613973
0.0014990102
0.0015513694
0.0016907982
0.0013812417
0.001312028
0.0013967965
0.0013066698
0.0013996163
0.0013017182
0.0014001729
0.0012979922
0.0012986222
0.0012940331
0.00099112566
0.0012882789
0.00098634932
0.00094314976
0.001004943
0.00094130808
0.0010069283
0.00093543506
0.0010058415
0.00093010992
0.00092960919
0.00092420333
0.00069365807
0.00091613945
0.00062886968
0.00060423999
0.00065905163
0.00061454346
0.00066306634
0.00061104269
0.00066215353
0.00060657865
0.00065841318
0.00060122814
0.00054253001
0.00059331238
0.00032953947
0.00031746392
0.00036834999
0.00034180927
0.00037440666
0.00034225875
0.0003738063
0.0003395779
0.00037038257
0.00033528046
0.00036373714
0.00032835695
0.00011852583
0.00011232352
0.00014789024
0.00013736967
0.0001533809
0.00014042134
0.00015287299
0.0001392343
0.00015044595
0.00013660209
0.00014644704
0.00013239634
1.9553975e-05
1.870043e-05
2.6504456e-05
2.5888162e-05
2.9088243e-05
2.7879868e-05
2.8846318e-05
2.7623628e-05
2.8119266e-05
2.690002e-05
2.7086979e-05
2.5815837e-05
1.5390832e-06
1.7530852e-06
1.8650839e-06
2.0998983e-06
1.881735e-06
2.10416e-06
1.8237264e-06
2.0285967e-06
1.7424013e-06
1.9302345e-06
1.642341e-06
1.8052738e-06
1.6688384e-08
1.8999789e-08
1.2634485e-08
1.1883701e-08
2.0425393e-08
2.0702658e-08
2.7315514e-08
3.5218255e-08
3.064599e-08
4.7730251e-08
3.1647425e-08
4.8588223e-08
3.892913e-08
7.105289e-08
1.4850245e-06
1.0275277e-06
1.5002418e-06
1.0142491e-06
1.5159403e-06
1.0725233e-06
1.498563e-06
1.1404657e-06
1.4675444e-06
1.1742032e-06
1.4448245e-06
1.039354e-06
1.5472362e-06
1.0488773e-06
1.8239487e-05
1.4568319e-05
1.8643765e-05
1.5121987e-05
1.8931668e-05
1.5840038e-05
1.8928871e-05
1.6346913e-05
1.8733425e-05
1.6072778e-05
1.8542376e-05
1.4627268e-05
1.932502e-05
1.4529744e-05
5.1129856e-05
4.4202091e-05
5.1489536e-05
4.3235133e-05
5.2499416e-05
4.2988753e-05
5.3578367e-05
4.2004648e-05
5.5173508e-05
4.0207874e-05
5.5409696e-05
3.8899675e-05
5.8403924e-05
3.9131707e-05
0.00010060435
9.0756811e-05
0.00010555962
8.5476716e-05
0.00012373375
9.1322872e-05
0.00012710399
9.4976494e-05
0.00012499908
8.9013252e-05
0.00012730485
8.4463506e-05
0.00013717309
8.2240128e-05
0.00017886161
0.00020713925
0.00015674385
0.00015183288
0.0001909924
0.00015239679
0.0002783626
0.00019903975
0.00027325144
0.00018552947
0.00027401047
0.00017428247
0.00029128167
0.00016949261
0.00033713392
0.00044898465
0.00022737858
0.00027802782
0.00023880329
0.0002222335
0.00037734845
0.000275713
0.00053612316
0.0003862665
0.00052784264
0.00036203168
0.00054424933
0.00034729507
0.00064355707
0.00078427708
0.0003831169
0.00051345403
0.00034307749
0.0003540899
0.0004827305
0.00038124715
0.00087637507
0.00061456137
0.00089816351
0.00067741521
0.00090195018
0.0006422547
0.0011237138
0.0011921954
0.00075383834
0.00092955972
0.00059131682
0.00063515934
0.00069018228
0.00059635185
0.0011034364
0.00082731224
0.0013743538
0.0011140447
0.0013589157
0.0010526877
0.0015701568
0.0014462222
0.0014647466
0.0015046129
0.001232062
0.0012458532
0.0012400398
0.001103238
0.0016072456
0.0012796276
0.0019347041
0.0016406119
0.0019018158
0.0015543147
0.0016288875
0.0014494202
0.0020767426
0.0019356946
0.0023249953
0.0021899883
0.0024512441
0.0021781789
0.0025812047
0.0022068567
0.0025474103
0.0022131052
0.0025085072
0.0021124516
0.0011283416
0.001403304
0.0015758499
0.001753045
0.0022318422
0.002261551
0.0030278451
0.0028001379
0.0031768838
0.0028236663
0.0031772657
0.0027834684
0.0031512134
0.0026934854
0.0020344897
0.0017589374
0.0015430924
0.0021127224
0.0014231789
0.0021459613
0.0019554501
0.0022975516
0.0029681095
0.0027521859
0.0037674275
0.0032719668
0.0037852097
0.0032476818
0.0015866569
0.0014339744
0.0019592038
0.0019943481
0.0020011251
0.0022026708
0.0021262559
0.0020975456
0.0023695389
0.0020726811
0.0031807078
0.0026530884
0.0041830998
0.0036789877
0.00079059626
0.00045743562
0.0015077612
0.00091571709
0.0022852586
0.0012260339
0.0024358952
0.0014615722
0.002294267
0.001907293
0.0026423128
0.0019724439
0.0039465015
0.0031091906
0.00060190829
0.00042982641
0.00082670968
0.00058331921
0.0015068031
0.00095390388
0.0018151841
0.0010274859
0.002236635
0.0012219012
0.0022606845
0.0016032286
0.0032449101
0.0023803236
0.00070398108
0.00050835134
0.00083080155
0.00064170386
0.001168796
0.00087798523
0.0015172673
0.00098712558
0.0017123103
0.0010110219
0.00225195
0.0013068633
0.0027504559
0.0021381813
0.00080447016
0.00063053028
0.00090084888
0.00076588177
0.0011508731
0.00095274347
0.0014991954
0.0010992933
0.0015130295
0.0010377525
0.0017989883
0.0011758518
0.0028741141
0.0024149699
0.00090057277
0.00077596106
0.0010069175
0.00092784586
0.0012339542
0.0010808054
0.0014852778
0.0011754373
0.0015413559
0.0011702319
0.0016008525
0.001196322
0.0026364021
0.0021152702
0.0010171235
0.0008671457
0.001055324
0.0010317271
0.0011941437
0.0011642058
0.0014035457
0.0012106719
0.0015892718
0.0011899919
0.0016892344
0.0013510624
0.0022864337
0.0019556992
0.0016107251
0.0011793614
0.0015524418
0.0013788155
0.0013885336
0.0014393138
0.0013794484
0.0014185087
0.0015301473
0.0013548272
0.0018308971
0.0013808165
0.0021404465
0.0017968194
0.0025106051
0.0019412233
0.0027510486
0.0023516803
0.002754434
0.0023257792
0.0022040859
0.0020678031
0.0018169396
0.0018399313
0.0018575639
0.0017606206
0.0022212308
0.0018384621
0.0014057121
0.0017308946
0.0024659191
0.0024672314
0.0032087025
0.0029357428
0.0032061991
0.0029543212
0.0026389645
0.0026654294
0.0022947614
0.0025027617
0.0023151074
0.0025314501
0.0013989423
0.0011695241
0.0023438611
0.0020046049
0.0034155864
0.0031561527
0.0034369279
0.0031534665
0.0031876794
0.0029152205
0.0030993483
0.003147209
0.0026192323
0.0030524928
0.0016633466
0.0016461126
0.0019563502
0.0020977206
0.0023257158
0.0023121879
0.0027606971
0.0024357316
0.0031928287
0.0027732276
0.0033432485
0.0031767608
0.0028890881
0.0032158479
0.0018509278
0.0018133719
0.0017257985
0.0020204853
0.0018231257
0.0019060148
0.0022324622
0.0020639653
0.0028633489
0.0025126495
0.0032015473
0.0030278548
0.0030323067
0.003183498
0.0019460809
0.0018217076
0.0015775223
0.0017723467
0.0015515275
0.0016218517
0.0018747392
0.0017733105
0.0024557544
0.0022047594
0.002914184
0.0027483635
0.0030977021
0.0030006107
0.0016986342
0.001787022
0.0013330357
0.0015437291
0.0013567495
0.0013884216
0.0016650176
0.001548704
0.0021147563
0.0019158303
0.0025149575
0.0023669179
0.0027782263
0.0026871477
0.0011906621
0.0016544138
0.0010579961
0.0013420639
0.0012424665
0.0012002407
0.0015652526
0.0013791536
0.0018395874
0.0016549618
0.0020254142
0.0018979063
0.0023040224
0.0022346998
0.00081388618
0.0012632614
0.00087490146
0.0010345975
0.0011981798
0.0010556913
0.0013777274
0.0012380902
0.0014010932
0.001269492
0.0015143248
0.0014117211
0.001766938
0.0017188444
0.00063272544
0.00087560439
0.00077052548
0.00081732592
0.0009703673
0.00087131706
0.00095689837
0.00085019573
0.00096117573
0.00085958997
0.0010415116
0.00096241834
0.0012461455
0.0012135367
0.00054294044
0.00058112387
0.00063107343
0.00056477353
0.00061349391
0.00054130148
0.00059368849
0.00051863935
0.00058652187
0.00051398039
0.00063448395
0.00057675768
0.00078225996
0.00075925929
0.00035424974
0.00031709283
0.00034303356
0.00030327508
0.00032579562
0.00028397739
0.00030813179
0.00026570117
0.00029850451
0.00025486919
0.00032004125
0.00028376235
0.00041225209
0.00039709059
0.00014040305
0.00012567018
0.0001337734
0.00011825455
0.00012448657
0.00010811432
0.00011449213
9.7820266e-05
0.00010849097
9.1464246e-05
0.00011306827
9.7882756e-05
0.00015294432
0.00014406998
2.5573912e-05
2.4074783e-05
2.402321e-05
2.2287711e-05
2.1841053e-05
1.9805372e-05
1.9578608e-05
1.7190477e-05
1.838823e-05
1.6086988e-05
1.8545882e-05
1.6507886e-05
2.4809168e-05
2.3216106e-05
1.4998335e-06
1.6197612e-06
1.3472212e-06
1.4225256e-06
1.1246576e-06
1.1451752e-06
8.7563903e-07
8.332249e-07
7.1030167e-07
6.1763943e-07
9.0631969e-07
8.0441403e-07
1.4364055e-06
1.5028969e-06
5.1222961e-08
9.6518511e-08
6.0205311e-08
9.8068633e-08
5.4182013e-08
5.7101868e-08
6.9767206e-08
6.8534491e-08
1.8714401e-06
1.2085831e-06
2.0657411e-06
1.2267996e-06
2.7554923e-06
1.4966188e-06
3.0677958e-06
2.0284635e-06
2.2318962e-05
1.5677889e-05
2.4695925e-05
1.5826852e-05
3.1215688e-05
1.9421993e-05
3.4864878e-05
2.6369933e-05
6.7671033e-05
3.9881346e-05
7.5480087e-05
4.2490438e-05
9.5430883e-05
5.6416782e-05
0.000106256
8.2931843e-05
0.0001598934
8.4453464e-05
0.00017633079
8.961601e-05
0.0002165084
0.00012403413
0.00023573081
0.00018522965
0.00033109792
0.00017571057
0.00035607252
0.00018473985
0.0004153474
0.0002523932
0.00044236552
0.00035438879
0.00059758842
0.00035497158
0.00062881609
0.00036538536
0.00070191303
0.00046704877
0.00073824989
0.00060335299
0.00096070446
0.00064616375
0.00099625881
0.00065435242
0.0010797553
0.00077781048
0.0011307859
0.00093704747
0.0014151721
0.0010474501
0.0014549033
0.001051715
0.0015495496
0.0011829232
0.0016240985
0.0013568492
0.0019492525
0.0015357678
0.0019908305
0.0015347168
0.0020936408
0.0016612161
0.0021905221
0.001839569
0.0025456476
0.0020817629
0.0025882933
0.0020784196
0.0026975318
0.0021969985
0.0028142813
0.0023744136
0.0031806556
0.0026576368
0.0032248447
0.0026577288
0.0033386241
0.002770661
0.0034696247
0.0029431913
0.0038123417
0.003219414
0.0038544144
0.0032249846
0.0039618178
0.003329311
0.0040835427
0.0034816974
0.0043726479
0.0037027611
0.0044183366
0.0037221754
0.004516046
0.003818254
0.004606428
0.0039348169
0.0047666025
0.0039998522
0.004828521
0.004044879
0.0049131327
0.0041167333
0.0049664175
0.0041881794
0.0048046515
0.0037885554
0.0049171716
0.0040474952
0.0050084266
0.0040642145
0.0050766848
0.0036189209
0.0039683544
0.002995458
0.0047307036
0.0038653557
0.0048112215
0.0038122495
0.0047292575
0.0031519165
0.0033390552
0.0026668483
0.0042179581
0.0032200382
0.0044985617
0.0033381948
0.0042001434
0.0034308078
0.0034442678
0.0029677104
0.0038220493
0.0030809974
0.0041370333
0.0034013463
0.004031474
0.0034674394
0.003120537