/*--------------------------------*- C++ -*----------------------------------*\
| =========                 |                                                 |
| \\      /  F ield         | OpenFOAM: The Open Source CFD Toolbox           |
|  \\    /   O peration     | Version:  2206                                  |
|   \\  /    A nd           | Website:  www.openfoam.com                      |
|    \\/     M anipulation  |                                                 |
\*---------------------------------------------------------------------------*/
FoamFile
{
    version     2.0;
    format      ascii;
    arch        "LSB;label=32;scalar=64";
    class       volScalarField;
    location    "200";
    object      omega;
}
// * * * * * * * * * * * * * * * * * * * * * * * * * * * * * * * * * * * * * //

dimensions      [0 0 -1 0 0 0 0];

internalField   nonuniform List<scalar> 
50904
(
5193425.8
5097380.4
5156123.4
5034581.3
1197959.3
1184256.8
1225786
1203548.9
475585.46
478445.78
518114.83
506578.49
219280.41
222388.2
249876.92
245502.16
118599.92
119415.74
136425.86
134360.94
76517.332
76359.979
89919.399
88425.153
56877.707
56709.401
69897.178
68943.517
46307.502
46446.762
60599.22
60191.149
39326.703
39760.42
54947.884
55154.032
33676.337
34227.967
49232.776
50053.082
28699.023
29129.38
41964.2
43264.411
24672.034
24817.783
34063.841
35321.607
21959.83
21828.654
27579.213
28307.426
20526.666
20232.591
23581.254
23700.509
20025.559
19666.701
21966.289
21629.985
20080.919
19851.164
21909.029
21378.331
20540.816
20449.081
22388.525
21814.684
21167.323
21247.998
23209.355
22640.74
22149.556
22372.28
24415.009
23891.206
23619.592
23957.71
26106.93
25735.295
25676.419
26238.238
28221.963
28166.367
28386.234
29315.216
30648.756
31130.066
31942.708
33183.71
32858.181
33892.763
35441.539
36934.055
34309.394
35561.537
38466.539
40204.343
35609.549
36865.838
41368.699
43368.102
37690.626
38898.139
44408.234
46659.905
40836.606
42107.665
48082.119
50534.294
45561.829
47084.647
53131.175
55674.612
52705.553
54881.383
60695.911
63364.079
63978.769
67641.601
72993.194
75835.75
83665.936
90421.806
95299.473
98279.72
122366.47
134937.62
142965.62
145833.67
209670.68
229359.92
277528.46
279442.92
436525.51
451207.5
838839.17
840752.52
1097639.7
1073740.2
5337223.6
5335053.5
5373545
5349933.7
5104160.6
4948955.3
5065411.6
4899709.8
5053802.2
4878974.5
5038539.3
4859948.9
5026474.7
4849396.1
5018718.7
4844486.8
5014952.9
4842835.3
1213938.6
1185490.4
1140343.4
1105992.5
1086416.6
1050469.2
1055151.4
1020703.2
1047082.9
1014443.4
1055479.9
1018295.3
1089178.3
1028026.2
502874.41
490109.8
427176.88
413459.58
397120.06
390378.45
400546.88
397768.24
416933.12
407712.2
437297.93
412283.77
456271.41
411702.71
240102.6
235565.97
207451.96
203242.84
202988.45
201227.35
208767.9
205289.91
212964.1
204824.45
213883.62
201858.92
214638.47
197992.92
134348.26
132704.74
130874.52
130878.12
136032.26
138472.92
141597.26
144606.94
144211.1
146550.73
144169.92
145133.61
141655.65
140992.21
94716.724
93501.959
103132.62
105709.31
114256.38
120625.51
123386.01
131637.39
128570.45
136378.66
129207.49
134177.39
124109.45
125833.22
78623.559
77983.504
94499.579
98666.895
110725.08
119068.45
123668.81
133115.81
131010.88
137709.72
130537.94
131757.09
121440.62
119183.72
72532.802
72248.558
92984.896
97984.696
113228.4
121561.93
129103.35
136433.72
137773.44
139565.49
136163.21
130959.33
124199.41
116666.18
69794.056
69992.104
92529.93
98012.517
115229.31
122889.15
132812.19
137748.84
142604.88
141486.41
142127.39
133875.39
130538.29
119622.09
65847.128
66838.828
90953.554
97115.683
115912.53
123673.95
135547.99
140515.68
147656.29
148001.53
152954.62
147034.49
147891.19
136160.43
59555.037
61508.661
88629.768
95305.58
116748.93
124800.8
139247.68
145022.6
154208.09
156261.63
163100.69
161117.7
166813.05
159089.79
50834.005
53309.187
81992.292
88893.057
109967.27
118050.74
132166.4
138804.65
147460.43
151359.11
157466.35
158096.1
163512.32
159212.97
41314.149
43343.915
68882.415
75277.647
91013.849
99770.992
107867.72
117066.2
119219.83
127596.33
126336.28
133341
130456.25
134331.5
33931.569
34954.75
58835.999
63915.402
79524.954
87992.902
95650.793
106081.38
106779.36
118132.51
113866.1
125388.27
118259.24
129559.07
29443.485
29427.894
52376.542
55268.165
74013.757
80016.4
91557.877
99083.387
104147.1
112405.04
112532.71
121321.76
117789
127324.69
27926.042
27284.242
49158.638
49922.47
71495.383
75105.215
90029.063
94471.619
103313.85
108461.07
112141.35
117970.35
117812.33
124234.77
28160.084
27321.094
48182.226
47616.243
70548.139
72371.166
89216.291
91348.004
102497.47
105054.31
111219.96
114334.27
116659.28
120323.59
29520.812
28653.836
49390.075
49203.652
71896.871
73612.063
90623.116
92694.633
103811.44
106320.94
112338.27
115435.22
117553.45
121187.65
31963.619
31468.188
53263.195
54185.275
76484.912
79292.598
95570.813
99146.417
108955.75
113273.67
117584.32
122675.03
122797.27
128567.56
35592.577
35845.439
60006.147
62578.87
84389.483
89131.198
103821.04
110190.62
117361.45
125342.75
126139.35
135571.1
131526.69
142139.2
40400.32
41684.811
68428.419
72102.733
94119.399
99802.534
113726.63
121438.01
127156.81
137027.63
135851.31
147656.13
141251.41
154694.1
46205.065
48800.308
78823.841
83481.694
107305.27
113387.93
127973.13
136182.59
141364.91
152242.41
149644.01
163075.08
154604.76
170181.79
50992.408
54583.839
87980.223
93487.439
122620.81
127886.95
149373.53
153562.11
167273.39
170595.37
178397.09
181410.63
185069.7
188076.72
51914.802
56113.641
87125.58
94747.796
122590.83
131616.56
151539.45
159853.52
171370.17
178573.9
183550.27
190127.41
190293.37
196786.21
50650.075
54841.939
77152.486
86637.144
103463.94
118461.47
124738.62
143699.76
138552.15
160420.44
146271.44
169987.15
148220.81
174759
51176.489
54451.907
69751.285
76789.481
83749.526
96108.961
93131.169
110013.89
97573.009
117648.55
97778.355
120537.25
94228.819
118315.38
54089.856
56644.551
70637.97
75000.426
80122.536
88025.45
85710.895
96905.661
88025.75
101521.13
87994.375
102878.01
86314.418
101274.66
58593.407
60935.451
75335.362
78064.814
83642.032
88563.119
88625.428
95830.131
90958.024
99820.427
91296.164
101238.43
90223.555
100356.82
65463.4
68332.575
82503.933
84646.203
89414.565
92732.079
93725.34
98597.065
96097.755
102174.39
96827.72
103674.01
96275.425
103330.6
77497.506
82048.331
95234.259
97759.928
99332.055
102011.82
101495.34
105108.16
103174.65
107664.59
104001.04
109064.48
103958.04
109234.15
100894.64
109145.61
121293.91
125172.42
120509.84
123014.03
117920.88
120439.56
117247.42
120048.03
117380.71
120476.24
117435.57
120683.04
150258.94
165305.03
177725.62
183780.12
168666.26
171238.05
156634.7
157741.89
149846.48
150028.02
147299.51
147138.08
146437.94
146189.06
260835.31
282855.84
300998.43
308496.6
281899.2
284921.14
252882.98
252055.25
230611.23
226395.12
219652.74
213243.85
215328.72
208005.9
520244.25
536541.23
566889.51
572339.42
558559.35
564332.76
515277.67
514919.29
460041.51
451224.7
423468.69
407386.89
407466.82
386983.57
1212016.1
1188732.7
1209725.2
1208053.9
1283292.3
1296358.8
1300322.2
1310068.9
1235929.8
1238506.7
1153325.3
1147421.8
1104029.7
1091840
5358770.3
5313571.4
5310014.6
5245106
5297842.2
5222862.2
5299215.2
5219911.6
5304785.4
5224134.3
5306402.7
5224661.7
5304423.1
5221692.2
5012648.4
4841597.9
5010925.3
4840146.5
5009627.2
4838908.8
5008185.2
4837249.3
5006836.4
4835364.5
5006673.7
4833714.4
1112745.3
1061127.3
1132355
1101328.2
1140359.1
1118066.5
1127188.4
1110128.4
1082063
1067428.8
1031157.7
1016859.2
473442.44
409020.62
485394.79
411637.34
487494.71
416104.05
481333.09
418648.88
460317.01
415182.71
420842.29
404305.4
213559.1
193973.61
212308.41
190884.04
211340.46
189644.73
210035.66
189504.31
208036.81
191583.46
208561.33
198792.98
137242.71
135133.74
132625.4
129767.91
129564.03
126502.1
127347.69
124576.4
126536.37
124643.1
130028.34
129400.92
115500.02
115854.32
107685.75
108003.05
102689.11
103406.85
99199.139
100469.82
97036.934
99052.139
97895.114
100698.32
108832.22
106483.54
98362.398
97355.656
91888.279
92139.539
87209.192
88588.183
83686.327
86127.763
82229.125
85659.152
109761.31
103729.42
98213.545
93747.373
89487.01
87147.275
82295.337
82065.795
76175.515
77744.142
71775.302
75056.747
115067.2
105577
100963.43
94474.798
91165.184
86673.578
81800.212
79354.711
71580.513
71939.71
63064.577
66300.19
131894.08
119113.12
111926.65
102176.67
96458.466
90359.657
84630.375
80974.141
71716.657
70801.538
57134.896
59929.999
161556.57
147136.98
144017.04
126463.27
120995.87
106519.93
96704.911
88477.77
75673.317
72601.84
56377.256
57418.455
165843.05
151760.32
160184.29
134715.45
145023.11
115314.5
118226.11
94623.345
85918.213
75441.607
58260.589
56297.043
132020.06
128621.97
128576.69
116512.72
119074.48
103225.19
101476.89
88728.77
77564.715
73763.711
54971.002
57285.255
120673.36
129353.14
119064.09
122691.48
112603.19
114155.36
100262.64
103383.02
81925.074
90103.853
62539.18
74959.158
121665.62
131316.6
123490.46
131169.55
121443.12
127054.17
114704.6
120044.92
102442.24
110466.41
86242.361
99208.541
122024.45
129293.5
124945.81
132533.75
125191.84
131596.23
121855.58
126645.86
114041.76
117939.67
102522.31
106910.82
120646.29
125025.44
123642.14
128742.35
124494.56
129387.23
122193.03
126174.6
115600.95
118453.19
105053.22
106692.26
121187.33
125532.04
123895.42
129083.06
124709.83
130076.73
122454.03
127308.82
115621.58
119548.8
104162.87
106990.49
126260.52
132933.45
128777.91
136571.31
129581.01
137815.87
127187.34
134972.7
119381.83
126059.52
105749.27
111134.7
135130.02
147077.49
137769.61
151303.24
138745.49
152975.77
136160.58
149474.65
126746.36
137573.68
109098.82
117176.46
144937.44
160064.08
147617.82
164740.38
148720.32
166842.71
146101.93
162913.25
135065.76
148033.96
112865.26
121150.18
158020.63
175679.56
160250.41
180252.37
160866.88
181722.44
157293.3
175497.3
143163.01
155342.46
114821.35
120685.27
189539.06
192758.44
192241.31
195919.99
189712.94
195112.59
175875.03
184363.86
144308.77
155658.21
103591.4
113605.52
193962.36
200992.81
189763.04
201166.1
173252.21
192649.57
144022.02
169907.28
109947.71
132982.68
83936.659
97271.888
141274.58
173489.97
124132.04
159485.58
107452.82
138833.62
94112.66
116822.13
82450.316
99012.875
72710.484
84740.924
89196.375
111571.85
84251.33
103224.68
80340.108
96426.997
76780.977
89793.507
73440.073
83438.544
70855.474
78918.579
83802.05
97361.305
81032.819
92236.337
78956.643
88273.122
77250.243
84985.656
75755.385
82164.584
74878.622
80379.728
88366.145
97623.05
86152.945
93813.634
84427.258
90791.244
83021.497
88277.106
81942.765
86213.982
81551.345
85179.584
94941.847
101468.75
93165.466
98607.913
91701.299
96240.905
90497.624
94241.119
89646.288
92683.718
89561.941
92163.286
103192.02
108181.49
101876.78
106113.25
100700.98
104285.04
99709.014
102719.2
99055.541
101551.54
99277.471
101469.12
117077.78
120241.55
116230.36
118986.52
115322.4
117650.07
114487.53
116442.06
114017.43
115633.19
114427.49
115931.15
145956.34
145629.38
145310.94
144809.34
144621.22
143963.11
144011.2
143123.91
143832.71
142822.24
144099.25
143343.69
213500.41
205841.12
212561.04
204574.87
212216.81
204079.86
212311.56
204100.87
212874.57
204806.38
213043.43
205803.52
401768.98
378671.58
400146.21
374603.88
401276.89
374121.07
404401.52
376108.3
409095.94
380706.57
412938.4
386592.36
1090928.8
1073495.2
1093185.2
1072115.5
1098290.7
1073536.2
1107823.4
1079744.4
1128785.5
1095127.4
1164407.8
1129917.3
5302038.1
5217981.6
5307280.6
5221202.5
5311356.9
5223282.9
5315844.6
5225218.8
5324495.4
5229146.5
5342673.1
5238994.9
5000127.5
4828898.2
4990165.5
4821912.7
4985788.5
4817743.7
4983244.7
4815451.9
4980762.8
4813203.7
4977664.1
4810137.1
1037817
1025314.4
1082731
1081671.7
1097746.6
1101495.3
1089163.3
1098974.7
1071691.5
1087030
1037428.4
1060248.4
426007.94
418472.48
480158.51
480812.26
508452.36
509286.38
523518.93
525625.34
531505.99
536695.76
525019.53
531145.94
227307.78
219733.57
272344.6
269122.81
299879.2
299280.52
317485.52
319243.02
328029.47
333091.63
328924.49
338146.25
145262.44
145698.59
169817.19
173263.38
183954.59
189631.8
193314.99
200650.85
200977.32
209796.36
207129.32
218594.23
106471.59
109912.84
117653.82
122231.24
123104.19
128411.13
126829.64
132490.06
130380.46
136327.95
133987.49
140607.29
85592.991
89643.083
89318.943
93696.349
90572.441
94932.907
91412.938
95593.893
92470.246
96376.57
94089.034
97654.501
71695.277
76163.406
71733.366
76776.734
71166.917
76158.243
70628.731
75235.208
70333.321
74348.286
70393.083
73814.796
60524.63
65673.458
59322.309
65640.122
58169.553
64586.871
56918.109
62857.691
55679.604
60738.088
54626.429
58793.53
52110.91
57138.095
50510.005
56854.777
49275.149
55961.616
47743.101
54193.059
45953.062
51548.454
44213.404
48715.538
47202.479
50235.088
44897.923
48636.442
43771.25
47686.479
42440.742
46447.067
40543.736
44489.373
38321.485
41827.001
45370.341
45783.446
41603.077
42634.231
40587.676
41477.249
39835.687
40561.114
38712.599
39404.691
36789.549
37796.622
42610.573
48095.677
38032.716
45727.724
36633.244
44775.94
35915.274
43803.041
35359.5
42203.641
34747.464
39857.92
51669.825
70492.837
48038.505
74820.928
46822.944
77329.978
45899.624
78248.059
44666.108
74687.732
42627.502
65852.736
79476.694
101000.81
81066.127
115153.93
82148.124
122980.91
82601.612
127511.18
81922.324
131444.36
77392.302
127842.36
99377.838
108046.76
105138.68
121129.36
108880.64
128617.44
111192.7
133286.04
113223.01
137714.33
114216.52
141831.88
100757.1
104370.9
104926.07
112129.26
108336.25
117086.88
110799.74
120342.63
113211.77
123632.9
115955.03
127705.77
97153.342
102092.3
98215.631
106471.74
100167.26
109666.56
101828.39
111781.57
103648.23
114080.15
105951.93
116394.33
95187.016
103081.7
93479.331
105221.56
94088.112
107221.76
94944.792
108814.81
96049.952
110150.36
97499.416
110159.57
92858.902
102235.21
86903.482
99975.783
85793.44
100182.3
85668.415
100614.2
85943.099
100865.17
86483.097
99795.555
89618.577
97612.351
78766.566
90741.711
75861.621
89226.951
74508.995
88294.086
73445.302
87002.122
72103.293
84651.927
86000.729
90988.332
72317.149
79885.199
68575.371
76878.922
66370.522
74793.16
64243.535
72401.879
61745.166
69376.701
75901.421
82798.165
65228.638
70520.632
62363.158
67244.75
60854.236
65309.65
59417.905
63400.617
57294.568
60840.577
69807.026
77126.081
66019.267
71328.315
65176.494
69956.384
64493.138
68961.97
63114.463
67423.108
60071.057
64156.259
68288.635
77334.031
68065.272
77302.49
68006.234
77317.919
67608.957
76726.314
66130.238
74017.865
63216.49
69268.608
70159.99
78058.39
70624.29
79697.333
70685.071
80076.046
70391.123
79598.653
69505.48
77139.052
68030.855
72861.347
75005.846
80840.228
75517.466
82581.741
75599.545
82986.753
75443.173
82694.286
75044.994
81198.274
74417.838
78546.349
81952.143
85933.544
82463.997
87367.53
82559.065
87684.659
82518.914
87499.713
82400.332
86728.445
82211.319
85451.866
90387.984
93159.717
91379.408
94424.653
91693.17
94677.25
91860.076
94641.835
91998.956
94439.439
92149.369
94118.976
100623.54
102789.36
102735.2
104552.19
103737.52
105136.41
104403.1
105456.98
104991.11
105734.28
105550.99
106093.27
115767.64
117358.05
118655.64
119834.64
120475.71
121164.73
121774.78
122140.3
122866.22
123085.19
123726.35
124179.45
144193.46
144054.07
145761.3
146069.21
147992.14
148247.21
149715.16
150014.9
151056.71
151693.97
151927.85
153376.37
209264.16
204227.08
202505.28
200582.91
203314.2
202789.92
204577.37
205069.01
205581.85
207042.33
206256.9
208990.35
399526.41
380293.69
358539.79
349789.13
349727.51
347413.93
347338.22
347692.28
346492.18
348709.31
346646.42
350580.12
1152800.3
1121980.2
1030912.7
999243.36
960933.58
952945.11
942166.21
940142.62
932452.39
933105.28
928080.49
930312.71
5377469.9
5264565
5410258.6
5290097.3
5416968.3
5293485
5416903.4
5291301.9
5413937.2
5286828.3
5409037
5280336.8
4983451.1
4816537.5
4982240.1
4815432.2
4982665.6
4815811.5
4985254.7
4818290.8
4992157.4
4824593.5
5009348.7
4840395.5
5058312.4
4893179.4
981052.14
1008495.7
931362.17
947402.61
902866.91
891454.36
891134.83
839522.18
888428.41
814205.15
898500.07
830792.54
912640.67
842965.6
508206.86
508078.28
493114.9
484103.83
480285.64
462412.98
468990.12
444886.16
459011.81
439796.4
451632.88
444176.21
440837.74
444514.62
320449.15
333066.66
310981.98
325188.76
301129.07
316906.53
291014.34
310360.76
279541.18
306150.94
267822.71
304734.22
251585.22
301311.09
203486.95
220528.12
194684.03
216387.59
184822.76
209047.17
175968.44
202401.75
168347.99
198559.22
159746.24
195257
148915.12
191116.23
134862.08
144261.42
130209.27
144486.28
120978.74
139501.14
112458.63
132375.68
106274.41
127354.68
101262.42
124867.62
95654.986
122942.58
95810.342
99330.723
95217.073
100880.38
88778.093
99207.155
79990.44
92837.78
74062.332
86798.185
70603.878
84002.905
67647.896
82944.503
70760.295
73846.918
70798.037
74167.234
67973.119
73646.677
61679.435
69634.809
56578
64208.429
53624.92
61022.617
51803.439
60003.31
53914.204
57631.33
53277.015
56875.758
52002.522
56013.923
49084.304
53927.602
45713.505
50390.727
43388.263
47629.456
42111.872
46551.143
42983.555
46867.783
42011.437
45582.067
40956.924
44342.646
39615.306
42868.789
38057.493
41016.387
36692.157
39289.951
35815.255
38341.985
36710.804
39746.72
35621.246
38365.644
34689.95
37208.149
33798.81
36071.489
32932.743
34906.087
32136.838
33822.802
31587.723
33112.316
34650.412
36150.367
33059.284
34787.707
31797.582
33551.339
30776.23
32407.752
29895.569
31309.271
29157.488
30305.839
28753.438
29707.284
34024.464
37893.856
33140.264
36305.466
31931.53
34597.087
30348.851
32613.169
28858.367
30534.462
27727.24
28770.376
27065.009
27735.134
40416.921
59489.125
38454.53
54239.162
36313.585
48595.824
33742.813
42460.967
30904.128
35886.666
28183.965
30291.675
26433.988
27258.604
69636.266
109811.3
62670.343
93159.465
55825.151
78898.486
47944.71
64360.765
39530.999
50837.003
32032.392
39045.868
27014.425
29062.619
107954.29
135714.69
95008.169
120475.81
79730.871
101555.65
65028.31
82575.207
51105.364
65798.287
40246.51
52769.07
29911.591
34469.263
115214.06
126915.38
107888.59
119350.06
93754.673
106639.75
76689.836
91076.525
60149.491
75580.859
47799.809
61670.792
34763.898
40505.342
106519.34
115041.28
103219.72
110454.91
94446.932
102707.63
81554.685
92403.589
66989.085
80754.805
53142.229
66327.939
38503.024
43856.101
97535.342
107449.22
95335.234
103361.41
89842.315
97554.579
81323.142
90365.385
70494.781
82272.483
57232.168
69100.342
41102.553
46563.312
86470.383
96845.911
85545.862
93407.217
82676.973
89210
77475.519
84696.65
70308.512
79968.955
60056.924
70266.228
44217.233
50512.721
70954.629
81888.307
70249.925
79452.533
69710.65
77068.287
68663.353
75063.069
66054.539
73775.866
60955.197
70665.981
48882.301
56353.411
59911.744
66996.447
58459.476
64991.254
57188.239
63141.636
56357.622
61763.87
56092.783
61316.629
55271.942
61148.204
50915.103
57918.777
54896.755
58412.665
52978.317
56359.996
51216.481
54150.19
49689.363
51962.909
48787.451
50287.678
48067.914
48743.638
46869.592
47653.565
57127.512
60453.8
54826.492
57565.793
52544.214
54708.994
50415.899
51900.275
48679.32
49449.307
47102.682
47069.583
45931.468
45416.715
60746.237
65600.735
58749.632
62594.227
56545.922
59182.453
54416.231
56029.377
52332.646
53128.812
50270.442
50228.502
49175.954
48545.441
66628.737
69724.835
65274.731
67380.896
63356.005
64938.447
60870.885
62139.315
58159.672
58841.741
55606.967
55323.275
54566.354
53298.034
73746.021
76458.4
72937.57
74745.66
71345.118
72684.939
68597.134
69816.492
65285
65943.883
62024.458
61501.215
60228.618
58328.595
81991.048
84342.397
81580.093
83301.768
80174.656
81776.209
77389.561
78996.224
73941.894
74803.45
69956.273
69333.354
66728.655
64436.975
92261.472
93843.718
91955.265
93562.128
90393.773
92826.997
88033.376
90544.821
85275.432
86661.16
80987.659
80491.801
76031.266
73569.859
105691
106581.46
104916.69
107005.67
103146.66
106832.22
101825.26
105494.51
100577.28
102870.71
96648.901
96492.25
89873.328
87298.373
123691.97
125276.04
122746.69
126082.79
121508.22
126242.58
121743.74
126797.76
122905.71
126713.52
119811.21
120550.64
110952.18
108347.22
151906.18
154992.23
151495.77
156412.92
151861.63
158341.6
155073.5
162321.61
160120.34
166938.12
158742.74
161793.46
146475.17
144206.33
206717.97
211381.68
207762.94
214286.79
211837.5
220088.97
220499.94
230764.94
232750.05
245873.87
235695.99
244378.76
215018.63
213561.44
349001.57
355056.61
353790.13
361963.74
365319.81
376749.06
386686.79
403593.07
416174.66
442482.85
434795.1
458671.11
390146.9
391820.14
930631.68
934282.48
940002.81
945657.73
966585.72
976003.12
1020093.5
1033219.7
1091288.1
1115026.4
1174343.2
1215180.6
1092870.9
1106811
5418131.1
5287047
5424236.8
5291895.7
5433765.1
5300172.9
5456328.2
5321812.1
5512377.4
5378614.9
5648223.9
5519702.9
5921516.6
5811026.3
5109758.6
4961022.4
5191900.8
5065031.2
5320583.5
5228861.1
5509795.9
5446888.9
920126.36
836253.8
919302.92
849861.33
920209.71
882581.31
949188.22
917121.07
427811.07
443609.2
411846.22
435277.26
382893.79
417127.15
386977.2
374223.68
234896.72
300871.85
223471.54
288591.06
202054.96
246932.64
206164.63
202934.18
138124.02
186584.84
132521.25
180664.11
122421.55
151412.91
127242.92
124529.93
89923.759
120439.97
87602.708
117226.69
83737.922
99621.872
88241.862
85581.805
64687.338
81587.556
63824.464
80191.422
62733.276
71051.422
66485.397
64463.816
50270.615
59204.876
50043.981
58729.688
50092.966
54507.623
53087.037
51924.81
41326.859
46057.63
41391.552
46010.402
41867.185
44374.511
44227.423
43854.814
35471.884
38087.458
35717.183
38296.88
36376.855
38013.309
38330.815
38606.603
31526.841
33074.841
31873.416
33440.026
32582.026
33840.646
34251.293
35049.239
28850.729
29844.225
29228.506
30310.462
29910.18
31055.225
31398.98
32630.196
27115.103
27861.736
27446.443
28379.143
28077.96
29327.824
29528.843
31196.526
26106.972
26920.632
26274.45
27376.631
26858.823
28500.503
28397.944
30705.937
25788.5
27215.821
25714.446
27496.526
26299.916
28918.684
27969.475
31568.049
26739.644
29425.944
26349.654
29463.176
26961.543
31405.965
28554.767
34734.247
29404.71
33273.132
28545.233
32784.895
29224.552
34742.91
30754.007
37826.511
32953.837
36907.819
31610.635
35957.928
32064.179
37244.004
33209.433
39071.028
35544.644
38903.091
34131.509
37620.047
34222.316
38064.704
34719.335
38762.84
37281.399
40854.188
35427.236
38321.622
35126.56
37881.168
35051.796
37894.137
39711.056
44713.927
36291.874
39598.875
35330.816
37912.575
34856.533
37418.235
41812.381
47331.106
37374.028
41017.56
35920.706
38740.056
35348.774
37983.191
42520.686
46032.802
39023.414
42432.555
37602.921
40509.731
37151.63
39819.303
44619.476
46530.644
42302.493
45478.314
40984.892
43991.533
40675.453
43596.922
49494.864
50381.189
48166.767
51097.357
46899.709
50180.481
46441.202
49748.106
56049.42
55578.16
55716.688
57627.19
54383.848
57528.928
53106.294
56838.237
62000.575
59961.72
62334.148
62246.535
60440.898
62238.876
57683.34
60858.744
67377.387
64391.913
67427.502
65559.338
64677.514
64747.613
61135.375
62869.872
74541.037
71262.568
73695.02
70761.064
70223.548
68961.678
66675.085
67143.375
86503.165
82823.81
84406.211
80659.108
80298.129
77913.031
76599.687
76418.437
106585.89
102218.09
102961.26
98480.764
98345.505
94978.631
94193.832
93587.272
142064.48
136632.52
137070.68
131498.31
131335.22
126791.97
125551.25
124659.01
210975.14
203532.64
204606.22
197367.53
196209.4
190170.48
186412.66
185402.27
383055.86
371531.43
373574.73
363602.1
355960.96
347699.18
334958.03
333894.23
1048936.4
1028519.2
1031692.3
1014792.7
970433.92
956525.44
909457.67
906584.95
6025430.1
5943151.6
5873200.8
5815698.1
5686608.2
5652907.3
5525319.1
5511346.8
5129312.3
5191322.2
5076369.1
5122217.6
5027838.9
5041093
1030250.1
998070.98
877573.84
913757.61
788870.57
771420.93
351869.31
333643.29
356349.09
380130.07
235987.86
231032.51
162530.34
155084.19
172766.95
182935.84
113814.74
113221.13
93241.109
90394.416
95511.721
103391.97
70956.903
71346.723
62548.134
61442.103
62280.381
66535.812
50812.647
51496.572
46853.467
46321.265
45235.037
47618.133
39659.298
40473.814
37824.237
37464.397
35294.046
36859.148
32855.593
33696.717
31978.313
31706.528
28982.063
30158.947
28410.953
29175.746
27808.556
27629.583
24804.715
25788.129
25360.327
26031.271
24681.779
24602.778
21988.834
22806.054
23240.747
23861.908
22360.592
22357.563
20123.162
20782.556
21914.602
22473.417
20798.382
20821.634
18782.083
19424.282
21318.306
21778.469
19872.491
19870.571
17864.867
18399.069
21444.936
21665.387
19417.922
19320.655
17557.593
17884.536
21997.94
21899.504
19580.09
19255.242
18333.054
18617.902
23066.714
23156.953
20446.315
20057.455
19653.35
19906.704
23528.944
23741.144
21781.746
21480.693
20552.289
21138.69
23423.721
23755.138
23630.665
23654.654
21222.934
22207.868
23363.847
23672.167
26041.922
26571.38
21965.758
23223.136
23858.646
24017.988
28858.337
29927.106
22681.701
24567.446
24923.424
24974.017
31997.254
33383.183
23848.418
26873.047
26009.709
26346.994
35354.248
37114.083
26996.416
31067.223
26358.124
27455.675
39824.194
41693.458
31242.975
36546.8
26588.484
28705.894
46181.33
47614.112
37224.032
44397.07
27390.576
31351.691
54494.531
54755.723
45966.314
55475.062
29486.708
37513.26
64521.448
62515.076
58274.917
70735.468
35050.099
47955.179
75957.557
69920.901
74610.607
89932.991
48902.082
59956.885
88606.809
76294.556
94361.789
110535.94
74115.587
72300.57
103286.77
82795.973
116533.21
126683.54
103053
88957.395
123045.41
93896.016
142111.42
141291.76
130262.4
110854.61
155156.9
117309.28
179334.82
167105.65
162764.86
142929.17
217994.35
169014.92
249724.49
225907.66
224434.64
206398.97
375625.35
308711.73
422140.92
372577.78
387573.89
376343.94
977440.6
877837.17
1073127.1
908458.41
1025107.9
1045393.8
5296929.6
5292249.4
5262004.2
5220707
5421956.9
5345342.1
5108134.4
5137217.4
5166100.7
5189254.1
5206565.8
5219811.6
5109935.2
5139226.8
5161024.8
5175098.6
5184366.4
5192770.9
782760.21
897727.88
991685.51
1069760.1
1140950.3
1183156.5
847655.25
1090689.7
1180337.1
1220853.8
1231769.9
1232143.2
248567.27
288026.9
329828.99
371955.29
416283.44
455306.95
273876.43
362128.18
429426.81
477780.08
505345.3
518199.79
128358.9
143971.83
158779.2
173810.55
190876.52
209294.04
143280.03
172835.28
198527.73
215057.31
236431.28
247737.93
83781.389
92347.958
98101.919
103176.85
108791.37
114907.6
94722.298
109208.55
118716.43
124553.25
130774.5
134912.26
61617.777
67641.612
70265.629
71977.605
73692.165
75569.064
69983.78
80779.569
85571.772
87705.526
89240.683
90158.291
48640.262
53355.202
54893.671
55530.027
56050.267
56661.708
54892.505
64905.166
69066.537
70373.595
70681.081
70531.85
40138.698
43909.237
45136.317
45510.782
45743.712
46091.537
44258.781
54140.074
59000.798
60692.439
61103.631
61021.1
34166.389
37033.998
38163.985
38493.32
38658.803
38974.161
36336.721
45566.419
51157.561
53477.115
54411.17
54818.729
29823.538
31824.644
32749.589
32997.454
33063.87
33305.156
30851.467
38322.359
43488.032
46047.365
47429.189
48506.126
26793.005
27984.693
28487.476
28569.843
28485.238
28505.466
27262.563
32404.669
35817.64
37859.014
39335.554
40773.988
24976.865
25414.395
25410.518
25221.07
24953.414
24741.851
24977.956
28050.377
29608.719
30707.291
31754.219
32955.968
24269.591
23983.843
23539.46
23085.008
22641.366
22250.062
23663.371
25285.106
25708.775
26009.862
26406.978
26992.584
24468.541
23383.702
22584.313
21957.548
21399.665
20921.662
23149.598
23777.29
23692.89
23582.207
23514.307
23539.371
25560.908
23451.49
22304.152
21533.038
20918.417
20426.978
23651.522
23384.696
23105.242
22858.854
22606.584
22323.93
26377.246
23913.263
22468.515
21454.908
20857.266
20440.959
24828.733
23739.447
23356.819
23151.769
22836.089
22431.956
26720.892
24028.397
22433.269
21523.363
21020.186
20711.391
25673.636
24454.994
24063.148
23771.023
23416.026
22950.069
26832.108
24024.578
22360.36
21563.274
21230.819
21158.952
26532.111
25459.038
25013.679
24626.579
24220.844
23759.064
27095.458
24054.032
22479.534
21831.609
21786.024
21966.709
27514.958
26641.396
26188.173
25723.538
25302.148
24904.417
27730.164
24441.835
22985.879
22573.948
22797.616
23270.225
28606.089
27969.168
27571.692
27077.996
26675.244
26454.952
28568.441
25174.581
23955.783
23799.491
24267.946
25056.508
29834.197
29415.345
29070.787
28573.977
28306.342
28320.722
28177.379
26275.012
25553.595
25661.997
26311.323
27380.978
31254.754
30917.263
30578.669
30032.696
29907.76
30303.341
28923.627
28153.127
28069.171
28415.745
29083.083
30480.582
33167.51
32631.852
32086.057
31293.343
31199.828
32000.402
30947.143
30546.465
31449.032
31961.047
32370.281
33720.004
35350.302
34536.263
33657.626
32553.134
32320.183
33223.532
33946.684
33554.719
35697.695
36331.817
36056.931
36855.15
37853.361
36914.393
35671.99
34224.979
33803.435
34585.256
38250.142
37764.122
41066.047
41606.258
40173.304
40026.349
40889.078
39971.927
38274.763
36509.549
35992.358
36678.861
44597.717
43759.941
47886.698
47930.752
44902.863
43524.337
44762.282
43866.966
41567.609
39550.754
38958.788
39750.28
53933.542
52125.037
56650.444
55718.743
50701.163
47831.66
49652.874
48788.083
45854.76
43659.086
43093.697
44167.478
66406.331
63341.456
67911.385
65649.928
58211.519
53667.736
55959.396
55193.913
51751.967
49498.478
49167.601
50731.73
81177.725
78309.629
82876.497
79014.263
68554.267
62192.411
64922.925
64261.783
60424.287
58238.795
58340.592
60787.175
100287.06
99506.018
104383.64
98550.839
84052.091
75758.846
78765.144
78275.58
74127.297
72360.323
73533.045
77904.76
129970.67
133298.1
139356.84
130693.43
110380.52
99986.033
102274.01
101946.11
97981.594
97804.903
101945.59
111045.47
187324.95
197535.17
206882.6
192892.5
164286.55
151179.24
148559.53
148665.82
146702.87
152390.93
165842.01
187287.62
328593.38
357380.6
374492.39
346433.27
309507.12
291788.77
267654.37
271074.32
281103.67
311286.46
355276.87
402815.12
877042.29
957277.77
964178.42
905204.72
866485.32
848480.5
774622.15
803353.32
877894.25
979336.58
1055935.1
1093707.4
5124106.5