/*--------------------------------*- C++ -*----------------------------------*\
| =========                 |                                                 |
| \\      /  F ield         | OpenFOAM: The Open Source CFD Toolbox           |
|  \\    /   O peration     | Version:  2206                                  |
|   \\  /    A nd           | Website:  www.openfoam.com                      |
|    \\/     M anipulation  |                                                 |
\*---------------------------------------------------------------------------*/
FoamFile
{
    version     2.0;
    format      ascii;
    arch        "LSB;label=32;scalar=64";
    class       volScalarField;
    location    "200";
    object      p;
}
// * * * * * * * * * * * * * * * * * * * * * * * * * * * * * * * * * * * * * //

dimensions      [1 -1 -2 0 0 0 0];

internalField   nonuniform List<scalar> 
50904
(
99546.766
99560.805
99606.659
99626.385
99549.719
99562.549
99606.273
99625.367
99552.214
99564.095
99606.047
99624.55
99555.532
99566.265
99605.889
99623.665
99559.565
99569.175
99605.922
99622.838
99564.616
99573.352
99606.182
99622.352
99570.576
99578.449
99606.209
99622.258
99577.368
99584.632
99605.812
99622.629
99585.358
99591.997
99604.861
99623.094
99594.174
99600.139
99603.631
99623.332
99603.108
99608.481
99601.859
99622.799
99612.505
99616.973
99599.063
99621.092
99622.67
99625.217
99594.867
99616.292
99632.323
99634.058
99588.644
99608.47
99641.315
99644.189
99580.269
99599.011
99648.951
99651.991
99571.353
99588.543
99652.37
99655.37
99560.842
99576.407
99652.813
99656.154
99548.363
99561.386
99651.315
99653.648
99534.999
99544.1
99650.853
99646.304
99520.382
99524.954
99669.396
99652.972
99515.621
99513.805
99699.542
99673.155
99519.801
99512.334
99738.633
99703.713
99540.859
99525.354
99772.197
99735.351
99562.283
99539.81
99795.99
99761.848
99580.89
99552.678
99808.886
99778.337
99596.179
99563.369
99814.045
99786.877
99607.763
99571.427
99814.807
99790.286
99616.52
99577.364
99813.582
99790.983
99623.047
99581.702
99811.609
99790.413
99627.674
99584.939
99809.508
99789.387
99630.878
99587.418
99807.57
99788.204
99633.217
99589.422
99805.954
99787.077
99635.143
99591.129
99804.819
99786.241
99636.759
99592.54
99804.106
99785.73
99638.052
99593.709
99803.505
99785.341
99639.528
99595.102
99581.317
99628.429
99614.473
99694.658
99617.365
99711.922
99613.558
99713.184
99609.928
99711.148
99607.255
99708.735
99605.454
99706.63
99581.381
99627.687
99613.891
99693.3
99617.358
99711.476
99613.967
99713.449
99610.454
99711.672
99607.683
99709.331
99605.761
99707.162
99581.521
99627.538
99613.319
99692.996
99617.439
99712.159
99614.984
99715.537
99612.181
99714.872
99609.515
99712.801
99607.165
99710.249
99581.858
99627.709
99612.722
99693.074
99618.313
99713.896
99617.854
99719.704
99616.562
99720.833
99614.104
99719.428
99611.278
99716.804
99582.454
99628.272
99612.157
99693.332
99619.74
99716.456
99621.125
99724.737
99620.397
99727.292
99618.139
99726.299
99615.322
99723.408
99583.225
99628.961
99611.654
99693.324
99621.329
99719.146
99624.145
99730.092
99624.287
99734.119
99622.451
99733.53
99619.622
99730.523
99583.379
99628.919
99610.979
99692.427
99622.351
99720.704
99626.468
99734.13
99627.32
99739.109
99625.794
99738.702
99623.235
99735.944
99582.772
99627.946
99609.48
99689.846
99621.829
99719.915
99626.857
99735.315
99628.151
99741.293
99627.041
99741.381
99624.91
99738.826
99581.902
99625.513
99606.602
99684.337
99618.957
99715.043
99624.33
99731.656
99625.905
99738.291
99625.234
99738.757
99623.448
99736.357
99579.905
99622.006
99601.314
99674.724
99612.651
99704.249
99618.093
99720.996
99619.921
99728.869
99619.306
99729.935
99617.643
99727.54
99577.334
99616.683
99592.738
99659.734
99601.24
99684.424
99605.561
99699.731
99606.661
99707.921
99605.541
99709.936
99603.333
99707.322
99573.274
99609.798
99579.498
99639.944
99583.278
99657.133
99586.192
99669.325
99586.713
99676.254
99585.808
99678.226
99584.357
99676.751
99566.568
99600.198
99561.249
99616.374
99556.425
99622.404
99554.243
99628.081
99552.549
99631.273
99551.09
99632.111
99550.138
99631.15
99556.129
99586.943
99539.537
99593.59
99527.257
99592.162
99519.696
99591.795
99514.454
99590.899
99510.255
99589.26
99507.704
99587.422
99540.41
99569.772
99513.461
99566.112
99495.276
99560.281
99483.143
99553.343
99474.495
99544.952
99465.977
99536.718
99458.115
99529.462
99522.632
99551.912
99487.003
99535.788
99464.462
99523.289
99447.578
99509.309
99434.731
99494.453
99422.399
99477.446
99409.035
99459.766
99505.85
99535.15
99462.044
99508.177
99436.017
99489.254
99415.687
99469.245
99399.739
99449.366
99384.302
99426.519
99366.3
99400.801
99490.774
99521.068
99441.838
99488.681
99413.267
99466.691
99391.272
99442.955
99373.969
99420.677
99356.725
99396.273
99335.843
99367.11
99478.461
99509.479
99425.667
99475.562
99394.844
99453.208
99371.378
99429.434
99353.194
99406.832
99335.319
99382.506
99312.672
99353.4
99470.315
99502.319
99414.202
99469.829
99383.218
99451.113
99359.505
99431.066
99341.305
99412.149
99323.796
99391.845
99301.714
99367.217
99468.006
99497.859
99406.028
99462.477
99373.284
99443.768
99348.462
99425.311
99329.812
99409.355
99312.663
99392.375
99292.084
99371.584
99471.427
99497.299
99402.828
99457.211
99368.965
99440.149
99344.426
99424.025
99327.263
99408.571
99311.967
99392.762
99294.764
99376.123
99481.877
99499.142
99404.095
99450.957
99366.598
99431.759
99342.047
99413.648
99327.323
99400.13
99316.195
99390.061
99306.961
99379.999
99495.284
99502.857
99410.238
99445.225
99371.92
99416.361
99348.416
99397.895
99336.309
99388.027
99331.447
99383.285
99335.742
99384.774
99509.002
99507.373
99421.445
99443.033
99382.783
99412.153
99360.318
99393.018
99352.416
99383.766
99356.878
99384.973
99367.294
99394.669
99521.182
99512.735
99433.354
99445.213
99396.173
99413.771
99376.367
99393.75
99374.423
99388.613
99381.338
99395.216
99389.861
99404.929
99531.227
99517.327
99443.379
99448.02
99408.988
99419.281
99390.426
99402.48
99388.848
99400.894
99395.585
99409.526
99406.106
99421.873
99538.973
99520.6
99450.841
99450.373
99419.573
99423.937
99401.591
99409.05
99399.273
99408.32
99405.28
99416.721
99416.494
99429.481
99544.395
99522.587
99455.82
99452.325
99428.05
99428.367
99411.468
99415.4
99409.012
99414.799
99414.641
99422.275
99426.188
99434.926
99548.059
99523.615
99458.622
99453.151
99433.845
99431.485
99419.196
99420.993
99416.793
99420.404
99421.686
99427.031
99433.797
99439.989
99550.44
99523.946
99459.841
99453.379
99437.311
99433.251
99425.064
99425.537
99423.759
99426.275
99427.252
99431.64
99438.114
99443.792
99552.033
99524.08
99460.263
99453.103
99439.01
99434.211
99429.207
99428.548
99429.992
99431.802
99433.855
99436.973
99443.213
99447.357
99553.391
99524.407
99460.571
99452.7
99439.728
99434.6
99431.891
99430.394
99435.016
99436.594
99440.083
99443.19
99448.572
99452.886
99554.635
99524.782
99460.91
99452.389
99439.978
99434.323
99433.576
99431.711
99438.911
99439.943
99445.481
99448.449
99453.572
99457.644
99555.64
99525.225
99461.334
99452.361
99439.95
99433.789
99434.199
99431.918
99441.506
99442.245
99449.901
99452.845
99457.776
99461.852
99556.973
99526.121
99462.168
99452.888
99440.437
99433.974
99434.957
99432.381
99443.161
99443.794
99452.775
99455.636
99460.705
99464.787
99603.983
99704.881
99602.743
99703.311
99601.891
99702.107
99601.109
99701.01
99600.168
99699.799
99598.563
99698.102
99604.268
99705.355
99603.003
99703.597
99602.149
99702.18
99601.438
99701.023
99600.472
99699.813
99598.684
99698.227
99605.163
99708.044
99602.919
99705.181
99600.924
99702.17
99599.871
99700.234
99599.557
99699.486
99598.373
99698.785
99608.975
99714.359
99605.495
99709.89
99601.153
99704.005
99598.13
99699.729
99597.704
99698.847
99597.771
99699.726
99612.666
99720.527
99608.446
99715.317
99602.783
99708.059
99598.06
99701.793
99596.691
99699.523
99597.541
99701.271
99616.725
99727.255
99612.15
99721.043
99605.872
99711.973
99599.985
99703.557
99597.264
99699.819
99598.139
99702.141
99620.517
99732.581
99615.88
99725.771
99609.048
99715.053
99602.247
99704.319
99598.476
99698.839
99598.723
99701.389
99622.47
99735.394
99617.948
99728.018
99610.751
99715.727
99602.999
99702.934
99598.196
99695.872
99597.903
99698.409
99621.25
99733.047
99616.928
99725.842
99609.696
99713.651
99601.34
99700.719
99595.77
99693.123
99595.272
99694.999
99615.818
99724.723
99612.428
99719.29
99606.642
99710.214
99598.965
99699.852
99593.143
99692.936
99592.794
99694.02
99601.124
99703.878
99598.223
99699.248
99594.643
99693.076
99590.006
99686.401
99584.966
99681.481
99584.593
99682.228
99582.22
99674.691
99578.889
99671.121
99575.718
99666.38
99572.594
99661.508
99568.887
99657.485
99567.183
99657.375
99549.125
99629.611
99546.723
99626.221
99543.922
99621.363
99541.105
99616.636
99537.581
99613.174
99534.844
99613.495
99506.424
99585.818
99503.769
99582.307
99500.347
99577.467
99496.882
99573.237
99493.517
99570.844
99490.851
99570.341
99453.452
99523.777
99448.483
99517.51
99442.226
99509.971
99436.123
99503.313
99430.746
99500.829
99426.992
99504.52
99398.57
99447.221
99389.679
99435.495
99379.456
99421.665
99369.51
99407.474
99361.088
99396.824
99355.146
99396.845
99350.432
99380.608
99337.143
99363.269
99323.105
99344.172
99309.732
99324.486
99298.33
99307.555
99289.541
99299.835
99316.691
99342.22
99300.952
99321
99285.06
99298.79
99270.174
99276.486
99257.501
99256.855
99247.145
99245.4
99291.054
99327.868
99274.019
99306.131
99257.701
99283.967
99242.811
99262.539
99230.493
99243.539
99220.243
99232.655
99280.369
99345.644
99263.904
99327.685
99248.717
99309.66
99235.451
99292.777
99225.234
99277.921
99217.428
99271.529
99271.997
99353.736
99255.813
99339.414
99241.398
99325.199
99229.443
99312.004
99220.254
99300.812
99214.146
99299.231
99277.161
99361.999
99261.49
99350.909
99249.657
99340.281
99239.492
99331.138
99230.025
99324.916
99223.287
99326.239
99300.666
99372.817
99297.643
99368.629
99294.592
99363.23
99289.148
99357.408
99280.511
99351.65
99267.998
99348.737
99344.168
99390.493
99350.094
99395.234
99352.941
99397.348
99351.902
99396.411
99343.682
99391.462
99327.575
99383.377
99374.715
99402.596
99380.076
99408.584
99385.052
99413.697
99386.545
99416.258
99382.434
99415.164
99376.742
99414.638
99396.82
99412.681
99404.824
99422.275
99416.319
99434.642
99427.017
99446.097
99432.864
99453.547
99431.48
99457.005
99416.663
99433.628
99428.867
99446.185
99443.827
99461.11
99457.268
99475.722
99464.435
99484.902
99462.674
99486.013
99428.246
99441.844
99441.644
99455.781
99457.324
99472.45
99470.908
99488.249
99478.383
99498.325
99478.426
99500.882
99438.355
99447.433
99451.921
99461.402
99467.126
99477.69
99480
99492.977
99487.489
99503.514
99488.981
99508.449
99446.365
99452.637
99459.522
99466.268
99473.711
99481.684
99485.825
99495.959
99493.537
99506.123
99496.333
99512.593
99451.13
99457.017
99464.78
99470.781
99478.656
99485.401
99490.273
99498.804
99497.501
99508.605
99500.634
99515.849
99454.314
99459.135
99467.127
99472.894
99480.553
99487.677
99491.336
99500.103
99498.268
99509.241
99502.435
99517.632
99457.803
99463.079
99468.414
99475.008
99479.509
99487.43
99489.049
99498.37
99496.772
99507.943
99503.165
99518.301
99461.515
99466.438
99470.447
99476.481
99479.734
99486.871
99488.144
99496.583
99495.947
99506.648
99503.818
99518.798
99464.706
99469.621
99471.977
99477.946
99479.086
99486.095
99485.84
99494.358
99493.759
99504.784
99503.644
99518.846
99466.91
99471.934
99473.014
99479.079
99478.875
99485.637
99485.334
99493.265
99493.84
99504.25
99504.452
99519.209
99594.992
99692.274
99592.994
99685.325
99593.46
99683.956
99594.207
99683.621
99594.96
99683.473
99595.75
99683.339
99594.926
99692.654
99592.519
99685.32
99592.661
99683.442
99593.404
99682.996
99594.282
99682.873
99595.26
99682.789
99594.897
99694.021
99592.293
99686.653
99591.924
99684.105
99592.22
99683.138
99592.858
99682.71
99593.981
99682.553
99595.75
99696.916
99593.834
99690.923
99593.152
99688.046
99592.764
99686.42
99592.654
99685.307
99593.039
99684.382
99597.153
99701.237
99596.121
99697.337
99595.602
99694.945
99595.076
99693.141
99594.354
99691.473
99593.824
99689.635
99599.118
99705.709
99598.641
99703.943
99597.697
99701.901
99596.362
99699.56
99594.938
99697.258
99594.117
99695.039
99600.633
99708.337
99599.96
99708.355
99598.075
99705.712
99595.41
99701.815
99592.716
99697.714
99591.049
99694.406
99600.957
99708.533
99600.513
99710.556
99598.201
99707.168
99594.278
99702.01
99589.241
99696.261
99585.156
99690.839
99600.051
99706.864
99600.864
99710.85
99598.247
99706.036
99593.603
99699.023
99587.549
99692.334
99580.975
99685.941
99598.697
99707.001
99600.737
99711.482
99597.003
99703.918
99590.853
99694.254
99584.066
99685.979
99576.985
99679.222
99593.006
99696.591
99595.399
99702.917
99588.306
99691.116
99579.034
99675.823
99571.282
99665.058
99565.038
99658.538
99573.664
99669.238
99576.509
99678.441
99565.678
99668.364
99545.299
99644.773
99530.979
99626.193
99524.587
99617.115
99538.333
99623.469
99539.036
99629.287
99529.795
99617.904
99508.533
99599.158
99482.652
99586.161
99461.447
99579.613
99490.555
99574.888
99488.509
99577.124
99479.511
99569.031
99463.999
99558.643
99449.981
99553.097
99439.28
99550.176
99426.919
99510.075
99425.019
99513.1
99417.025
99509.443
99405.115
99501.002
99396.213
99493.101
99391.317
99489.777
99354.437
99406.111
99352.617
99409.734
99343.377
99405.187
99325.886
99394.813
99309.401
99384.598
99300.867
99380.17
99287.278
99306.473
99284.798
99308.624
99272.908
99299.949
99250.19
99281.65
99226.383
99263.31
99211.415
99253.662
99243.011
99250.673
99239.3
99251.578
99225.267
99239.027
99199.398
99213.632
99173.089
99189.657
99156.326
99177.308
99214.629
99236.788
99208.776
99235.028
99192.002
99219.008
99163.47
99193.207
99136.825
99172.083
99120.706
99159.569
99213.009
99277.421
99206.724
99276.74
99189.859
99260.359
99162.538
99234.049
99137.888
99213.742
99122.551
99201.74
99209.957
99305.023
99201.644
99303.712
99184.391
99289.043
99156.645
99267.163
99132.822
99250.756
99117.109
99241.053
99215.63
99326.213
99201.774
99321.094
99185.174
99306.872
99163.637
99287.18
99143.826
99270.873
99125.658
99257.438
99251.113
99341.157
99233.415
99328.424
99217.86
99315.945
99202.331
99302.978
99195.16
99291.953
99190.116
99282.958
99309.638
99371.406
99296.177
99359.343
99299.368
99360.983
99313.236
99372.222
99321.103
99380.553
99319.322
99381.286
99368.18
99407.371
99365.73
99404.102
99385.082
99422.463
99413.592
99447.37
99428.842
99459.626
99430.594
99460.038
99422.297
99449.016
99426.973
99453.491
99453.708
99479.957
99491.268
99512.77
99517.54
99531.813
99531.288
99538.212
99452.662
99476.869
99456.744
99482.832
99483.874
99513.663
99527.585
99555.908
99568.253
99585.247
99599.579
99600.448
99469.821
99493.565
99471.738
99500.535
99495.068
99530.32
99539.902
99574.68
99592.467
99612.107
99640.371
99637.475
99482.213
99504.204
99483.121
99508.891
99505.362
99532.659
99550.59
99575.022
99606.912
99620.825
99658.015
99658.936
99492.55
99511.396
99494.377
99515.883
99515.561
99537.942
99556.816
99579.904
99607.147
99628.348
99650.582
99668.693
99501.003
99518.796
99505.863
99526.048
99524.159
99546.103
99557.247
99581.457
99596.994
99621.464
99631.169
99655.039
99507.519
99525.691
99517.797
99538.738
99533.78
99556.498
99558.969
99583.748
99588.153
99613.931
99614.578
99640.463
99512.299
99530.526
99529.551
99551.192
99544.636
99567.202
99564.044
99587.866
99585.152
99610.129
99605.48
99630.744
99515.427
99533.907
99540.518
99562.563
99557.137
99579.226
99573.657
99596.056
99589.815
99612.72
99605.515
99629.126
99517.736
99535.97
99548.77
99571.163
99566.485
99588.8
99580.869
99603.172
99593.692
99616.082
99606.726
99629.335
99519.583
99537.503
99553.301
99576.261
99573.395
99595.802
99587.192
99609.135
99598.69
99620.514
99610.224
99632.32
99596.358
99683.344
99596.841
99683.475
99597.32
99683.805
99597.794
99684.432
99598.355
99685.972
99598.496
99687.007
99597.961
99690.329
99596.003
99682.894
99596.548
99683.161
99597.043
99683.478
99597.508
99683.99
99598.091
99685.716
99598.213
99686.848
99597.535
99689.853
99595.059
99682.706
99595.904
99682.99
99596.643
99683.37
99597.257
99684.041
99597.891
99686.045
99597.906
99687.093
99597.003
99689.847
99593.668
99683.859
99594.327
99683.73
99595.09
99683.898
99595.9
99684.369
99596.743
99685.864
99596.666
99686.526
99595.361
99689.177
99593.552
99688.008
99593.153
99686.611
99593.024
99685.567
99593.359
99684.979
99593.907
99685.025
99593.641
99684.396
99591.748
99685.567
99593.398
99692.844
99592.187
99690.441
99590.789
99687.851
99589.93
99685.587
99589.79
99683.9
99588.961
99680.786
99586.201
99678.519
99590.212
99691.927
99588.971
99689.619
99586.929
99686.599
99584.86
99682.961
99583.76
99679.876
99582.54
99675.266
99578.847
99669.011
99583.645
99687.046
99582.647
99683.748
99580.571
99680.192
99577.732
99675.848
99575.286
99671.518
99573.643
99666.262
99569.257
99657.006
99576.024
99679.831
99573.018
99673.86
99570.502
99669.253
99567.434
99664.396
99564.327
99658.847
99561.857
99652.845
99556.984
99642.039
99569.237
99672.32
99561.221
99662.489
99555.478
99654.306
99551.438
99647.966
99548.578
99641.629
99546.003
99634.61
99541.176
99622.848
99557.576
99652.572
99546.249
99641.671
99535.484
99630.156
99527.89
99621.412
99523.942
99615.232
99522.364
99608.71
99519.997
99597.558
99520.283
99610.581
99513.65
99600.821
99505.927
99590.29
99498.15
99581.906
99492.984
99577.09
99492.502
99573.721
99492.437
99564.865
99444.364
99575.86
99432.115
99568.837
99427.358
99559.155
99428.289
99548.594
99433.698
99540.507
99444.653
99535.739
99453.802
99525.891
99428.972
99547.254
99419.159
99541.055
99414.538
99533.309
99413.226
99525.608
99411.652
99516.214
99411.612
99503.336
99410.943
99483.131
99385.916
99489.284
99377.411
99488.826
99368.28
99488.058
99362.766
99486.314
99362.404
99483.816
99365.557
99476.102
99352.684
99434.514
99295.894
99379.475
99291.061
99380.539
99287.622
99383.815
99286.013
99385.868
99290.701
99389.961
99309.829
99415.744
99287.841
99378.639
99203.5
99251.001
99198.243
99251.297
99196.616
99256.236
99199.377
99264.208
99210.436
99276.779
99244.978
99324.77
99228.251
99323.396
99145.989
99172.228
99138.58
99169.527
99136.744
99172.688
99141.251
99180.576
99154.43
99193.848
99193.916
99252.697
99196.136
99290.466
99109.556
99151.333
99100.609
99144.442
99096.946
99142.945
99100.09
99145.162
99114.685
99149.898
99155.668
99194.805
99186.097
99277.887
99111.387
99193.186
99102.08
99185.039
99096.953
99180.954
99097.372
99180.267
99109.7
99181.854
99147.59
99208.193
99198.33
99285.272
99102.849
99233.4
99089.356
99224.552
99080.553
99218.218
99076.981
99214.447
99085.05
99212.642
99120.998
99225.725
99219.338
99306.402
99108.472
99245.626
99091.8
99232.032
99076.524
99216.909
99066.703
99203.215
99062.749
99186.829
99087.225
99181.095
99200.549
99247.404
99179.428
99273.425
99165.513
99262.153
99148.463
99247.085
99134.245
99230.252
99119.221
99205.12
99114.608
99167.328
99196.106
99186.807
99311.392
99375.928
99300.317
99367.641
99287.175
99356.152
99275.577
99344.237
99252.154
99315.152
99218.055
99252.056
99261.489
99224.905
99433.861
99459.386
99440.724
99462.406
99441.177
99464.256
99430.011
99459.884
99394.842
99428.948
99332.919
99351.569
99349.335
99303.247
99552.529
99549.344
99577.076
99570.15
99583.112
99581.63
99565.729
99573.921
99516.625
99533.016
99430.35
99438.785
99432.903
99381.458
99638.371
99622.832
99673.714
99654.598
99679.034
99668.106
99653.684
99654.017
99595.804
99603.674
99495.56
99497.187
99497.621
99439.519
99688.801
99670.045
99723.72
99706.342
99723.572
99716.971
99695.147
99698.797
99640.04
99646.686
99535.769
99533.413
99545.025
99482.48
99700.874
99698.111
99726.776
99732.755
99723.504
99739.152
99702.451
99718.343
99660.277
99668.903
99558.608
99552.691
99582.053
99514.684
99682.722
99703.894
99701.717
99730.902
99702.906
99734.535
99695.82
99718.798
99665.716
99676.106
99570.216
99560.92
99610.968
99537.094
99656.62
99684.402
99674.897
99708.719
99683.595
99716.785
99686.667
99709.868
99664.05
99674.118
99575.475
99562.487
99632.241
99553.036
99637.04
99664.43
99656.512
99686.902
99669.967
99699.242
99677.85
99698.727
99660.108
99668.535
99577.902
99561.432
99647.968
99565.703
99625.048
99650.162
99644.424
99669.955
99660.209
99685.445
99670.993
99689.862
99656.026
99662.445
99579.061
99559.507
99660.32
99575.732
99621.455
99645.575
99638.633
99662.718
99654.689
99677.515
99666.633
99683.295
99652.923
99657.608
99580.003
99557.985
99669.991
99583.636
99620.536
99643.26
99636.27
99658.817
99652.325
99673.566
99664.556
99679.963
99651.189
99654.712
99580.906
99557.111
99676.749
99589.138
99622.45
99644.801
99636.845
99659.088
99652.675
99673.433
99664.631
99679.312
99651.004
99653.409
99582.985
99557.197
99684.093
99595.288
99596.37
99704.315
99560.474
99683.033
99506.829
99634.136
99392.488
99497.756
99595.842
99703.808
99559.915
99682.716
99506.715
99634.316
99391.604
99496.964
99595.219
99703.829
99559.282
99682.695
99506.586
99634.618
99390.793
99496.214
99593.321
99702.919
99557.585
99681.734
99506.023
99634.283
99389.745
99495.025
99589.225
99697.732
99554.008
99677.255
99504.638
99631.741
99388.325
99493.094
99582.863
99687.36
99548.273
99667.494
99502.312
99626.106
99386.337
99490.255
99574.383
99673.367
99540.475
99653.518
99498.85
99617.679
99383.576
99486.349
99563.582
99656.497
99530.431
99636.199
99493.838
99606.863
99379.717
99480.843
99550.14
99637.176
99517.817
99616.048
99486.783
99593.433
99374.279
99473.218
99533.518
99614.769
99502.153
99592.634
99476.826
99576.453
99366.223
99462.509
99512.389
99587.975
99482.333
99565.116
99462.296
99554.307
99354.073
99447.31
99485.184
99555.127
99456.609
99532.181
99440.896
99525.051
99335.473
99425.094
99448.189
99514.375
99421.305
99491.291
99408.308
99485.456
99306.509
99392.43
99400.478
99464.984
99372.158
99439.293
99358.803
99430.923
99263.345
99347.268
99335.749
99404.974
99305.75
99374.619
99289.929
99360.844
99204.668
99289.016
99264.339
99341.643
99233.29
99306.682
99216.599
99289.898
99144.884
99227.758
99202.027
99283.095
99171.9
99250.021
99158.756
99233.483
99101.689
99178.065
99166.737
99254.412
99141.038
99228.458
99134.641
99214.926
99080.452
99166.517
99171.743
99265.053
99152.65
99245.763
99155.436
99247.15
99093.578
99204.687
99221.972
99316.936
99217.08
99323.631
99241.032
99345.228
99158.946
99292.718
99274.785
99357.266
99309.529
99383.831
99382.759
99475.174
99276.396
99398.035
99322.77
99356.056
99415.936
99454.737
99560.705
99619.848
99426.065
99530.32
99362.899
99322.315
99523.751
99502.915
99748.864
99761.033
99590.589
99674.953
99447.121
99364.022
99643.951
99588.734
99907.753
99889.024
99731.708
99792.223
99545.722
99444.979
99752.593
99680.294
100021.46
99985.212
99828.858
99873.486
99633.72
99526.983
99835.413
99755.816
100090.83
100044.9
99873.836
99915.142
99700.815
99592.449
99891.105
99810.839
100127.72
100077.85
99883.124
99925.893
99749.807
99644.325
99927.532
99850.21
100144.09
100093.21
99883.008
99924.066
99791.857
99688.106
99952.942
99882.219
100154.17
100105.73
99889.068
99929.708
99827.881
99725.036
99975.178
99912.686
100166.63
100123.26
99901.305
99943.439
99854.973
99755.208
99998.132
99941.461
100179.82
100141.36
99913.308
99958.646
99875.533
99780.044
100018.69
99966.488
100190.37
100156.52
99924.082
99972.775
99891.801
99799.387
100034.78
99986.774
100197.76
100168.43
99933.573
99984.816
99904.505
99814.11
100046.54
100002.06
100202.47
100176.85
99940.679
99993.85
99913.085
99823.987
100053.9
100011.74
100204.28
100181.1
99944.184
99998.67
99921.537
99833.761
100059.63
100019.51
100203.8
100182.65
99945.352
100000.87
99715.047
99775.269
99630.534
99557.733
99811.785
100012.77
99716.387
99776.256
99631.044
99559.016
99813.922
100013.96
99717.171
99776.659
99631.579
99560.266
99815.196
100014.16
99718.219
99776.983
99632.515
99562.033
99816.088
100013.42
99719.393
99777.111
99633.737
99564.291
99816.7
100011.93
99720.84
99777.19
99635.184
99567.033
99817.51
100010.06
99722.611
99777.243
99637.038
99570.264
99818.71
100007.87
99724.75
99777.212
99639.496
99573.948
99820.598
100005.7
99727.467
99777.188
99642.363
99577.84
99823.716
100004
99730.718
99776.864
99645.474
99582.195
99828.485
100002.13
99734.158
99775.403
99649.06
99587.388
99834.043
99998.279
99737.996
99772.685
99652.013
99592.311
99839.156
99992.125
99741.297
99768.386
99652.671
99596.763
99839.189
99982.05
99739.893
99758.572
99648.492
99596.686
99824.577
99957.48
99731.726
99741.23
99634.103
99586.597
99787.998
99905.629
99715.945
99716.428
99605.434
99560.91
99722.261
99817.78
99689.444
99682.572
99563.038
99519.2
99635.16
99699.414
99650.397
99642.181
99507.173
99463.36
99538.689
99568.477
99598.276
99598.207
99441.409
99402.685
99436.084
99441.918
99543.514
99559.227
99383.692
99357.778
99344.038
99328.24
99501.552
99537.14
99344.906
99337.756
99257.26
99220.442
99484.953
99538.287
99342.083
99348.07
99191.915
99152.366
99490.152
99551.829
99408.674
99421.818
99159.392
99131.47
99506.18
99559.246
99525.518
99546.38
99173.433
99149.961
99524.474
99560.657
99643.979
99666.857
99224.793
99192.481
99536.744
99556.993
99745.74
99772.639
99287.199
99238.763
99545.825
99552
99824.471
99867.049
99344.732
99270.079
99553.258
99547.355
99886.735
99939.513
99392.149
99282.491
99558.384
99545.126
99939.759
99985.953
99420.474
99285.316
99561.535
99546.316
99980.112
100015.3
99433.691
99285.431
99563.57
99550.088
100003.62
100031.76
99436.035
99282.797
99564.558
99554.197
100014.79
100037.27
99438.245
99281.95
99564.788
99557.281
100019.08
100037.69
99448.454
99284.469
99564.763
99559.096
100020.17
100036.91
99460.021
99288.123
99565.351
99560.339
100020.56
100036.39
99466.898
99290.596
99566.728
99561.782
100020.82
100036.19
99469.663
99291.773
99989.448
99791.522
99706.606
99617.816
99569.255
99553.333
99959.25
99637.502
99591.192
99544.544
99556.926
99591.076
99987.574
99793.632
99709.429
99621.499
99573.279
99556.938
99958.19
99640.97
99594.029
99546.705
99558.001
99591.224
99985.517
99795.209
99711.649
99624.537
99576.688
99560.011
99956.83
99643.859
99596.454
99548.595
99558.973
99591.423
99982.23
99796.628
99714.175
99628.282
99581.037
99563.958
99954.322
99647.282
99599.665
99551.178
99560.548
99591.898
99977.765
99797.62
99716.696
99632.409
99585.976
99568.603
99951.098
99650.886
99603.375
99554.158
99562.436
99592.652
99972.134
99798.153
99719.17
99637.004
99591.721
99574.085
99947.426
99654.588
99607.566
99557.466
99564.295
99593.521
99965.027
99798.194
99721.659
99642.172
99598.366
99580.467
99943.747
99658.206
99612.054
99561.145
99566.099
99593.862
99956.429
99797.762
99724.197
99647.928
99605.95
99587.819
99940.538
99661.454
99616.536
99564.854
99567.874
99593.729
99946.344
99796.828
99726.864
99654.403
99614.654
99596.389
99936.215
99664.111
99621.107
99568.667
99569.674
99593.353
99934.566
99795.44
99729.429
99661.25
99623.997
99605.753
99929.367
99666.814
99626.493
99572.69
99571.189
99592.559
99920.741
99794.196
99731.598
99668.138
99633.563
99615.422
99920.932
99671.544
99632.865
99576.744
99571.912
99591.1
99905.285
99793.001
99733.456
99675.629
99643.85
99625.891
99912.415
99679.801
99639.589
99581.314
99572.94
99589.321
99889.01
99789.051
99733.127
99683.451
99654.862
99636.953
99903.762
99691.872
99647.751
99588.332
99575.579
99587.486
99873.663
99779.883
99724.176
99688.877
99664.577
99647.029
99900.867
99709.056
99657.999
99597.813
99578.857
99584.946
99862.974
99774.387
99713.181
99688.494
99671.102
99654.728
99910.531
99730.942
99666.99
99606.387
99580.486
99580.769
99851.911
99773.175
99715.794
99687.564
99672.706
99658.86
99930.311
99764.408
99681.204
99615.906
99580.984
99574.653
99852.919
99771.43
99714.878
99690.761
99671.468
99660.65
99958.243
99807.178
99700.32
99626.123
99580.721
99567.466
99868.671
99787.171
99714.207
99697.688
99674.414
99661.343
99989.258
99855.057
99727.313
99640.131
99582.634
99560.119
99889.054
99815.507
99725.732
99703.196
99681.413
99662.783
100019.77
99903.217
99758.632
99658.601
99588.18
99554.21
99915.23
99854.702
99750.177
99716.42
99692.686
99670.054
100047.49
99951.679
99793.693
99682.035
99595.306
99548.799
99938.16
99890.7
99779.17
99738.004
99715.063
99692.894
100077.71
100001.09
99836.271
99715.535
99613.592
99554.688
99954.016
99913.483
99799.704
99756.018
99741.624
99720.936
100106.93
100045.53
99874.754
99750.4
99639.249
99568.232
99960.136
99917.677
99809.44
99770.937
99769.095
99758.202
100128.22
100076.95
99901.239
99781.009
99670.169
99594.785
99970.529
99919.99
99815.314
99780.896
99789.709
99788.645
100141.78
100096.82
99916.945
99800.977
99694.531
99618.535
99978.295
99923.041
99818.641
99785.957
99804.545
99808.336
100147.52
100108.95
99926.187
99814.36
99713.109
99637.763
99981.248
99926.641
99819.395
99787.843
99813.789
99819.597
100147.71
100115.15
99931.464
99822.988
99726.41
99653.344
99980.169
99927.368
99817.592
99787.376
99818.262
99824.905
100145.12
100118.1
99934.287
99828.527
99735.604
99665.738
99976.64
99924.202
99814.04
99785.196
99819.169
99826.895
100141.38
100119.37
99935.529
99832.011
99741.636
99674.839
99972.149
99918.785
99809.044
99781.74
99817.644
99826.86
100137.6
100119.07
99936.004
99833.909
99745.486
99681.239
99967.511
99912.575
99803.286
99777.64
99814.972
99825.692
100134.9
100117.92
99935.996
99834.796
99748.068
99685.587
99963.574
99906.53
99797.539
99773.499
99812.018
99824.005
100133.54
100116.76
99935.784
99835.154
99749.894
99688.524
99961.005
99901.169
99792.236
99769.641
99809.207
99822.16
100132.86
100115.87
99935.542
99835.268
99751.257
99690.6
99959.283
99896.612
99787.646
99766.283
99806.804
99820.427
100132.27
100115.23
99935.361
99835.359
99752.391
99692.247
99957.833
99892.993
99784.158
99763.781
99805.03
99819.102
100131.7
100114.79
99935.305
99835.553
99753.385
99693.633
99956.225
99890.321
99781.771
99762.08
99803.768
99818.179
100131.11
100114.44
99935.329
99835.772
99754.191
99694.739
99954.026
99887.588
99779.441