/*--------------------------------*- C++ -*----------------------------------*\
| =========                 |                                                 |
| \\      /  F ield         | OpenFOAM: The Open Source CFD Toolbox           |
|  \\    /   O peration     | Version:  2206                                  |
|   \\  /    A nd           | Website:  www.openfoam.com                      |
|    \\/     M anipulation  |                                                 |
\*---------------------------------------------------------------------------*/
FoamFile
{
    version     2.0;
    format      ascii;
    arch        "LSB;label=32;scalar=64";
    class       surfaceScalarField;
    location    "200";
    object      phi;
}
// * * * * * * * * * * * * * * * * * * * * * * * * * * * * * * * * * * * * * //

dimensions      [1 0 -1 0 0 0 0];

oriented        oriented;

internalField   nonuniform List<scalar> 
146294
(
3.9282793e-07
-8.7166459e-09
3.2575038e-08
-4.5626106e-08
-3.7405677e-07
-3.4646971e-08
6.1332606e-12
-1.5582577e-08
4.4274757e-07
3.171621e-07
-1.3814815e-08
-1.1756837e-08
-3.005734e-07
-1.4276289e-08
-4.3455917e-08
3.4015172e-07
1.3474429e-06
-6.0099706e-08
2.9756729e-08
4.2329775e-08
-1.3290552e-06
-9.9121884e-08
-5.4421116e-08
7.3422064e-08
1.4272166e-06
1.0061964e-06
-7.1791917e-09
-7.2007754e-08
-1.0012845e-06
-2.790775e-08
-1.1677438e-07
1.0372613e-06
2.3743891e-06
-1.8117317e-07
-9.8982276e-09
1.8870028e-07
-2.3430881e-06
-2.1930429e-07
-1.4192021e-07
2.1658439e-07
2.4645748e-06
1.750368e-06
1.9801566e-08
-1.8552387e-07
-1.773041e-06
-4.2775514e-08
-2.2646416e-07
1.7724082e-06
3.4448874e-06
-3.4337819e-07
-8.4733313e-08
3.5950909e-07
-3.3869704e-06
-3.7876782e-07
-2.5824716e-07
3.8433169e-07
3.5554514e-06
2.562783e-06
5.5798366e-08
-3.341595e-07
-2.6082146e-06
-6.1935856e-08
-3.7101835e-07
2.5740474e-06
4.6368428e-06
-5.2670818e-07
-1.958628e-07
5.4614567e-07
-4.5453498e-06
-5.6449116e-07
-4.0662211e-07
5.7127889e-07
4.7784602e-06
3.4781381e-06
9.5015576e-08
-5.0545789e-07
-3.5385856e-06
-8.9869363e-08
-5.4266488e-07
3.4842843e-06
6.0099142e-06
-7.2345908e-07
-3.5421674e-07
7.4912968e-07
-5.8775734e-06
-7.6938357e-07
-5.9624201e-07
7.7652379e-07
6.1922541e-06
4.5417084e-06
1.3270151e-07
-6.9154782e-07
-4.6114492e-06
-1.2589125e-07
-7.3516262e-07
4.5434074e-06
7.6954203e-06
-9.3596591e-07
-5.8142464e-07
9.8352317e-07
-7.5158005e-06
-9.9323685e-07
-8.4292399e-07
1.0048763e-06
7.9304896e-06
5.8391545e-06
1.5683991e-07
-8.9319069e-07
-5.9060565e-06
-1.758494e-07
-9.5110052e-07
5.8470008e-06
9.6516663e-06
-1.1454801e-06
-9.0481301e-07
1.2452727e-06
-9.428217e-06
-1.2135062e-06
-1.1668272e-06
1.2406699e-06
9.9483157e-06
7.3373676e-06
1.5062147e-07
-1.092817e-06
-7.3838924e-06
-2.4747511e-07
-1.1738434e-06
7.3692674e-06
1.1848091e-05
-1.3268033e-06
-1.389754e-06
1.5397535e-06
-1.1576118e-05
-1.4050058e-06
-1.6221583e-06
1.4807778e-06
1.2227645e-05
8.9641716e-06
6.6018143e-08
-1.2633637e-06
-8.9430254e-06
-3.7821625e-07
-1.380396e-06
9.0702916e-06
1.4119017e-05
-1.444903e-06
-2.0055819e-06
1.8550461e-06
-1.3913372e-05
-1.5096501e-06
-2.1653857e-06
1.6924581e-06
1.4479401e-05
1.0539564e-05
-3.2968184e-08
-1.3771906e-06
-1.0508313e-05
-5.0466965e-07
-1.5200327e-06
1.0676375e-05
1.6955928e-05
-1.5348344e-06
-2.9309028e-06
2.3023071e-06
-1.679812e-05
-1.5654193e-06
-2.938064e-06
1.9717811e-06
1.7322216e-05
1.2257573e-05
-2.6643049e-07
-1.4254367e-06
-1.2133554e-05
-7.1892261e-07
-1.5966662e-06
1.2503038e-05
2.0832973e-05
-1.6692579e-06
-4.2945284e-06
2.993504e-06
-2.0793606e-05
-1.5972994e-06
-4.0384676e-06
2.3848943e-06
2.1145766e-05
1.4474772e-05
-7.106669e-07
-1.4199663e-06
-1.4279832e-05
-1.0903202e-06
-1.5761735e-06
1.4825036e-05
2.5161126e-05
-1.8831776e-06
-6.0656563e-06
3.8682488e-06
-2.5375103e-05
-1.5899613e-06
-5.4630238e-06
2.9055721e-06
2.5270051e-05
1.7039921e-05
-1.3481673e-06
-1.3446449e-06
-1.6940972e-05
-1.6424043e-06
-1.3604028e-06
1.736243e-05
3.1977664e-05
-2.3241275e-06
-8.6435841e-06
5.1898422e-06
-3.2265496e-05
-1.6853773e-06
-7.2614442e-06
3.7656507e-06
3.1695766e-05
2.1655965e-05
-2.6079144e-06
-1.2546242e-06
-2.146575e-05
-2.4246833e-06
-1.0325609e-06
2.1785406e-05
4.0639281e-05
-3.0124894e-06
-1.1972898e-05
6.8835912e-06
-4.118114e-05
-1.869509e-06
-9.6809243e-06
5.0145829e-06
3.991364e-05
2.8382948e-05
-4.3630138e-06
-1.1558211e-06
-2.8484542e-05
-3.5060107e-06
-5.4828214e-07
2.8143047e-05
4.227636e-05
-3.2091487e-06
-1.5857672e-05
7.4446562e-06
-4.2627132e-05
-2.0017126e-06
-1.2865925e-05
5.9279085e-06
4.1535121e-05
3.1251312e-05
-6.2365081e-06
-1.0218478e-06
-3.1565119e-05
-4.7033542e-06
-2.1060397e-07
3.0657527e-05
4.4198548e-05
-3.4288255e-06
-2.0880545e-05
8.3008356e-06
-4.404775e-05
-2.2567232e-06
-1.7403904e-05
7.1779105e-06
4.3815297e-05
3.4568104e-05
-8.038488e-06
-1.1222449e-06
-3.5072714e-05
-5.8594373e-06
-1.8875652e-07
3.3656215e-05
4.6256586e-05
-3.4436712e-06
-2.7655222e-05
9.3271469e-06
-4.5365427e-05
-2.465204e-06
-2.3877223e-05
8.7114144e-06
4.6483652e-05
3.777833e-05
-9.5127618e-06
-1.3739474e-06
-3.837377e-05
-6.8549851e-06
-4.2325147e-07
3.673192e-05
4.9413204e-05
-2.5830781e-06
-3.6673848e-05
1.0027814e-05
-4.7839386e-05
-1.7684153e-06
-3.2757087e-05
9.9682445e-06
5.0093198e-05
3.9377596e-05
-9.7323752e-06
-1.8116507e-06
-3.9929407e-05
-7.2710238e-06
-9.2698292e-07
3.895221e-05
5.370385e-05
-2.797692e-06
-4.5766871e-05
9.6623516e-06
-5.1475534e-05
-1.4801793e-06
-4.1978512e-05
1.0167333e-05
5.4238069e-05
3.9793953e-05
-9.5896077e-06
-2.5695075e-06
-4.0164884e-05
-7.5516863e-06
-1.8114295e-06
4.0405879e-05
5.6837784e-05
-3.4244036e-06
-5.2654224e-05
7.7942329e-06
-5.4320366e-05
-1.5034677e-06
-4.9424874e-05
8.7201884e-06
5.7067393e-05
4.0114855e-05
-9.0727011e-06
-3.6857397e-06
-4.0370409e-05
-7.6798845e-06
-3.0465475e-06
4.1786154e-05
5.7192065e-05
-5.7707102e-06
-5.3153046e-05
4.2267304e-06
-5.5149298e-05
-3.000071e-06
-5.1225882e-05
5.1944727e-06
5.6798619e-05
4.2397664e-05
-9.1903873e-06
-5.423881e-06
-4.2626773e-05
-8.4168999e-06
-4.904983e-06
4.5039619e-05
4.3676407e-05
-5.93438e-06
-4.8007216e-05
-1.9245539e-07
-4.2695533e-05
-3.3005373e-06
-4.7290013e-05
3.6267913e-07
4.2678367e-05
3.7399776e-05
-9.0279931e-06
-6.0538762e-06
-3.7442676e-05
-8.6724432e-06
-5.7069261e-06
4.0061728e-05
3.3051439e-05
-5.5115235e-06
-3.9993159e-05
-2.6872355e-06
-3.2866717e-05
-3.1141526e-06
-4.0016759e-05
-2.7735458e-06
3.1665857e-05
3.2601695e-05
-8.4057026e-06
-6.1805891e-06
-3.255489e-05
-8.2491847e-06
-5.9410296e-06
3.5005334e-05
2.5263241e-05
-4.8513718e-06
-3.1474775e-05
-3.5401712e-06
-2.5390253e-05
-2.7248846e-06
-3.174272e-05
-4.106836e-06
2.3820871e-05
2.7878221e-05
-7.4448707e-06
-5.8572969e-06
-2.7833173e-05
-7.3754432e-06
-5.6865363e-06
2.9966108e-05
1.9162092e-05
-4.0341137e-06
-2.3891426e-05
-3.3859613e-06
-1.932529e-05
-2.2123197e-06
-2.4093399e-05
-4.2013772e-06
1.7926507e-05
2.3029826e-05
-6.3979221e-06
-5.1569596e-06
-2.29539e-05
-6.354577e-06
-5.0437115e-06
2.4840372e-05
1.4919806e-05
-3.3173166e-06
-1.7597145e-05
-2.9003926e-06
-1.4996579e-05
-1.7461785e-06
-1.7622579e-05
-3.7822802e-06
1.3977385e-05
1.9176449e-05
-5.3403484e-06
-4.4643056e-06
-1.9087108e-05
-5.2879935e-06
-4.3809649e-06
2.0744606e-05
1.1499279e-05
-2.6256586e-06
-1.2695118e-05
-2.3001144e-06
-1.1475471e-05
-1.3002602e-06
-1.2562423e-05
-3.1195796e-06
1.0859052e-05
1.5634456e-05
-4.287635e-06
-3.7233856e-06
-1.5589437e-05
-4.2176749e-06
-3.644811e-06
1.6908704e-05
8.7104133e-06
-1.9803363e-06
-9.0092457e-06
-1.7678779e-06
-8.6483242e-06
-9.029299e-07
-8.805844e-06
-2.4370329e-06
8.2937423e-06
1.2254497e-05
-3.3403277e-06
-2.9372702e-06
-1.2244973e-05
-3.2829743e-06
-2.8677651e-06
1.3284584e-05
6.5911105e-06
-1.4627481e-06
-6.2222864e-06
-1.3692554e-06
-6.5461161e-06
-5.8904921e-07
-6.0483139e-06
-1.8903663e-06
6.3130736e-06
9.4627584e-06
-2.5151177e-06
-2.2549664e-06
-9.4957915e-06
-2.4947716e-06
-2.1828616e-06
1.0268371e-05
5.0075757e-06
-1.0701509e-06
-4.0789402e-06
-1.0841403e-06
-4.9969891e-06
-3.5014846e-07
-3.9952598e-06
-1.501554e-06
4.8061929e-06
7.2949611e-06
-1.8008613e-06
-1.6988989e-06
-7.3806244e-06
-1.8141619e-06
-1.6150835e-06
7.8792448e-06
3.7407599e-06
-7.5889477e-07
-2.4497657e-06
-8.5122791e-07
-3.7600555e-06
-1.6997699e-07
-2.4666787e-06
-1.2075695e-06
3.5897533e-06
5.4899922e-06
-1.194351e-06
-1.2217094e-06
-5.6338047e-06
-1.2224081e-06
-1.1276554e-06
5.8559004e-06
2.7296863e-06
-5.1264748e-07
-1.2465219e-06
-6.6073852e-07
-2.7600834e-06
-3.4229124e-08
-1.3293634e-06
-9.9180426e-07
2.6183801e-06
4.0188547e-06
-6.9197228e-07
-8.2074583e-07
-4.2133444e-06
-7.1337374e-07
-7.1760602e-07
4.1931549e-06
1.8645627e-06
-3.0455967e-07
-4.4373148e-07
-4.9024945e-07
-1.873389e-06
6.3108736e-08
-5.2119269e-07
-8.0688807e-07
1.8001244e-06
2.7464246e-06
-2.996093e-07
-4.7382725e-07
-2.9698315e-06
-3.0841199e-07
-3.7810932e-07
2.7826178e-06
1.0181656e-06
-1.1551059e-07
-6.1508713e-08
-3.0039768e-07
-9.8546824e-07
1.0937509e-07
-7.8380326e-08
-5.5312406e-07
1.0190453e-06
1.5072358e-06
-6.0008593e-08
-1.7600469e-07
-1.6867667e-06
-6.1795508e-08
-1.1556642e-07
1.4854769e-06
2.9425144e-07
1.7128678e-10
-9.0374593e-08
-2.6555668e-07
6.6031952e-08
-1.6670138e-07
3.1654011e-07
4.0815489e-07
-1.6159399e-09
-4.6637636e-07
1.2313819e-08
4.0007706e-07
3.7581456e-07
-2.0201759e-08
1.5739401e-09
-3.6915303e-07
-3.8410855e-08
4.8925825e-09
3.6569551e-07
1.198223e-07
-1.2930472e-09
-2.2405781e-08
-1.1616733e-07
-2.7512981e-08
-1.765395e-08
1.2654624e-07
5.812448e-08
2.2255196e-08
-2.0942061e-08
-6.0739609e-08
-4.0237069e-09
-1.9142835e-08
5.3707276e-08
2.7440881e-08
3.6327192e-08
-1.0699505e-08
-3.0826599e-08
1.1412987e-08
-1.2109041e-08
2.4030747e-08
1.430784e-08
4.255041e-08
-3.8329793e-09
-1.6670221e-08
1.9438807e-08
-6.2609617e-09
1.2509581e-08
8.4954378e-09
4.3903436e-08
2.5073858e-11
-9.8704134e-09
2.3041029e-08
-2.5834507e-09
7.4421505e-09
5.9013113e-09
1.7898668e-09
4.2859886e-08
-6.6220839e-09
-3.5307673e-10
2.4222513e-08
5.059059e-09
1.2365294e-06
-7.6719548e-08
1.4861131e-08
-1.2454327e-06
-6.9836396e-08
2.5714934e-09
1.1916215e-06
3.8534884e-07
-5.4625864e-08
-4.875703e-08
-3.8108638e-07
-7.3419158e-08
-4.2386064e-08
4.1356931e-07
1.8859983e-07
-2.2917433e-08
-4.7568504e-08
-1.9371494e-07
-5.1255857e-08
-4.2485142e-08
1.8971164e-07
9.6362752e-08
2.522127e-10
-2.7684578e-08
-1.025512e-07
-3.3522011e-08
-2.7959418e-08
9.4434748e-08
5.5624144e-08
1.4639329e-08
-1.375292e-08
-6.0090084e-08
-2.2823038e-08
-1.6557538e-08
5.518959e-08
3.6812117e-08
2.2734811e-08
-5.4846961e-09
-3.9351484e-08
-1.6612792e-08
-9.2685749e-09
3.7287703e-08
2.7991271e-08
-9.7217006e-10
2.6515114e-08
-2.9027589e-08
-5.0076245e-09
-1.268931e-08
2.8682952e-08
2.1436294e-06
-1.7992319e-07
4.4892478e-08
-2.1792173e-06
-1.3523082e-07
-5.6607781e-09
2.0606747e-06
6.3781046e-07
-1.6734129e-07
-6.2979913e-08
-6.3611339e-07
-1.6604242e-07
-6.3950722e-08
6.9019254e-07
3.079897e-07
-1.489227e-07
-5.9524457e-08
-3.1445108e-07
-1.6382098e-07
-5.7176534e-08
3.2043799e-07
1.6294624e-07
-1.3732697e-07
-3.3505313e-08
-1.6870703e-07
-1.6079186e-07
-3.5506747e-08
1.6745503e-07
9.8807648e-08
-1.3145232e-07
-1.6467347e-08
-1.0195852e-07
-1.5881301e-07
-2.0824243e-08
1.010856e-07
6.8649521e-08
-1.2781473e-07
-7.8578555e-09
-6.9904882e-08
-1.5552807e-07
-1.3307576e-08
6.9397581e-08
5.4224167e-08
-3.9336863e-09
-1.2479457e-07
-5.4278179e-08
-9.8706517e-09
-1.5018272e-07
5.3733303e-08
3.1180447e-06
-3.1637661e-07
8.4370343e-08
-3.175497e-06
-2.2852987e-07
-2.0449694e-08
2.9901681e-06
8.9988566e-07
-3.1482761e-07
-6.4396306e-08
-9.0005833e-07
-2.874482e-07
-8.0648768e-08
9.7543593e-07
4.3416341e-07
-3.106054e-07
-5.6343087e-08
-4.4157577e-07
-3.0250758e-07
-6.4832607e-08
4.5685275e-07
2.3424286e-07
-3.0784514e-07
-2.989905e-08
-2.4060984e-07
-3.0679388e-07
-3.908455e-08
2.4209449e-07
1.4369208e-07
-3.0510671e-07
-1.5058972e-08
-1.4781747e-07
-3.0539507e-07
-2.4190358e-08
1.4566528e-07
9.9902979e-08
-3.0111359e-07
-9.2876473e-09
-1.0247476e-07
-2.998444e-07
-1.7716135e-08
9.8747706e-08
7.8286914e-08
-7.5695034e-09
-2.9593752e-07
-7.9813492e-08
-1.5457935e-08
-2.911524e-07
7.5184816e-08
4.225183e-06
-4.7647801e-07
1.2879546e-07
-4.2984965e-06
-3.421438e-07
-4.0175772e-08
4.0444768e-06
1.1984943e-06
-4.8105303e-07
-5.8079918e-08
-1.2002243e-06
-4.2769473e-07
-9.5813022e-08
1.2992037e-06
5.7749005e-07
-4.7991625e-07
-4.759471e-08
-5.8736105e-07
-4.5229814e-07
-7.2211433e-08
6.0947549e-07
3.1218176e-07
-4.7493383e-07
-2.5758872e-08
-3.212974e-07
-4.5585421e-07
-4.4815357e-08
3.2146581e-07
1.9020058e-07
-4.6810651e-07
-1.5015805e-08
-1.970702e-07
-4.5002581e-07
-3.00521e-08
1.9022859e-07
1.301955e-07
-4.6078089e-07
-1.1411178e-08
-1.3539076e-07
-4.3965806e-07
-2.3568284e-08
1.2567913e-07
1.0000343e-07
-1.1079778e-08
-4.5320523e-07
-1.040762e-07
-2.0928792e-08
-4.2716885e-07
9.2974245e-08
5.5082543e-06
-6.5742916e-07
1.7712776e-07
-5.590856e-06
-4.7478021e-07
-6.9117461e-08
5.2766677e-06
1.5497441e-06
-6.6608499e-07
-4.6770111e-08
-1.5524391e-06
-5.9116686e-07
-1.1081689e-07
1.6810869e-06
7.4281616e-07
-6.6137651e-07
-3.8267832e-08
-7.5685317e-07
-6.2421766e-07
-8.0596378e-08
7.8424301e-07
3.9812641e-07
-6.5020797e-07
-2.3164188e-08
-4.1186749e-07
-6.2583123e-07
-5.2222065e-08
4.071598e-07
2.3818286e-07
-6.373719e-07
-1.6239257e-08
-2.4980803e-07
-6.1473259e-07
-3.6709741e-08
2.3372776e-07
1.5846129e-07
-6.2495963e-07
-1.4153742e-08
-1.6811635e-07
-5.9973254e-07
-2.8889801e-08
1.4879042e-07
1.1836095e-07
-1.3888994e-08
-6.1455382e-07
-1.2597623e-07
-2.457205e-08
-5.8474543e-07
1.0700015e-07
7.0538203e-06
-8.6409146e-07
2.1956331e-07
-7.1252965e-06
-6.3193532e-07
-1.1223477e-07
6.77782e-06
1.9699832e-06
-8.7774145e-07
-3.287789e-08
-1.9702087e-06
-7.8849972e-07
-1.2632739e-07
2.1420685e-06
9.3462367e-07
-8.6782439e-07
-2.9179535e-08
-9.5362384e-07
-8.3211758e-07
-8.9050289e-08
9.8669698e-07
4.9263839e-07
-8.5012602e-07
-2.0607583e-08
-5.1289879e-07
-8.3316606e-07
-5.7753162e-08
4.9921268e-07
2.8680716e-07
-8.3192141e-07
-1.6468458e-08
-3.0477787e-07
-8.1952926e-07
-3.984199e-08
2.7630542e-07
1.8486188e-07
-8.1673767e-07
-1.4846797e-08
-1.9937715e-07
-8.0372926e-07
-2.9803114e-08
1.6995612e-07
1.3456712e-07
-1.4028318e-08
-8.0557011e-07
-1.4558992e-07
-2.401396e-08
-7.8865014e-07
1.189343e-07
8.847264e-06
-1.0970495e-06
2.4933676e-07
-8.8729157e-06
-8.1728926e-07
-1.605257e-07
8.5388932e-06
2.4611191e-06
-1.1238721e-06
-1.5306432e-08
-2.4518965e-06
-1.0325181e-06
-1.3759534e-07
2.687581e-06
1.1552702e-06
-1.1116178e-06
-1.9504264e-08
-1.1771699e-06
-1.0936584e-06
-9.4958056e-08
1.2223397e-06
5.9803302e-07
-1.0895529e-06
-1.6704696e-08
-6.2402236e-07
-1.0973619e-06
-5.9505596e-08
6.0346938e-07
3.3920828e-07
-1.0685096e-06
-1.4305588e-08
-3.6240042e-07
-1.0832081e-06
-3.8452572e-08
3.2367553e-07
2.1211972e-07
-1.0522732e-06
-1.2966214e-08
-2.3026669e-07
-1.0669276e-06
-2.6504045e-08
1.9251732e-07
1.4983638e-07
-1.1835607e-08
-1.0412288e-06
-1.6306177e-07
-1.9680756e-08
-1.0519335e-06
1.3051815e-07
1.0786951e-05
-1.3603754e-06
2.6096794e-07
-1.0701584e-05
-1.0388682e-06
-2.3114535e-07
1.0516021e-05
3.0234288e-06
-1.4236452e-06
6.8864331e-09
-2.9823371e-06
-1.3426643e-06
-1.4121121e-07
3.330869e-06
1.4181434e-06
-1.4204655e-06
-1.0580514e-08
-1.4302541e-06
-1.4342509e-06
-9.9258402e-08
1.5140213e-06
7.301697e-07
-1.4012025e-06
-1.4046222e-08
-7.5208304e-07
-1.4444647e-06
-6.1418754e-08
7.4229848e-07
4.0871985e-07
-1.3817711e-06
-1.2386195e-08
-4.3010349e-07
-1.4283905e-06
-3.6985493e-08
3.9114756e-07
2.4877856e-07
-1.366538e-06
-1.0746649e-08
-2.6622132e-07
-1.4083644e-06
-2.2800699e-08
2.2505141e-07
1.6897386e-07
-9.2416711e-09
-1.3567177e-06
-1.8142025e-07
-1.445461e-08
-1.3911063e-06
1.4646089e-07
1.2676588e-05
-1.6795106e-06
3.5519604e-07
-1.2468556e-05
-1.3001655e-06
-2.1076678e-07
1.2436293e-05
3.6489713e-06
-1.8243043e-06
6.0735602e-08
-3.5580119e-06
-1.7353843e-06
-1.1381301e-07
4.0567981e-06
1.748061e-06
-1.8510771e-06
5.2601652e-09
-1.7371336e-06
-1.8766235e-06
-9.7748022e-08
1.8877829e-06
9.1603919e-07
-1.8445443e-06
-1.2513469e-08
-9.2408873e-07
-1.8996395e-06
-6.617073e-08
9.4381619e-07
5.2292775e-07
-1.831522e-06
-1.33967e-08
-5.3497012e-07
-1.8781441e-06
-4.0018173e-08
5.0443441e-07
3.2029496e-07
-1.8193786e-06
-1.1169521e-08
-3.319982e-07
-1.8448399e-06
-2.3605266e-08
2.8780172e-07
2.1040786e-07
-8.6593373e-09
-1.8108853e-06
-2.1952023e-07
-1.3042863e-08
-1.8155242e-06
1.7964506e-07
1.4514099e-05
-2.0681769e-06
4.86733e-07
-1.4002939e-05
-1.6066089e-06
-1.4536104e-07
1.4458629e-05
4.3708607e-06
-2.3555715e-06
1.4317463e-07
-4.1658752e-06
-2.2214628e-06
-6.7052085e-08
4.93899e-06
2.1758488e-06
-2.4398847e-06
3.0016524e-08
-2.1163122e-06
-2.4352851e-06
-9.4035767e-08
2.3859362e-06
1.1681233e-06
-2.4571945e-06
-8.8644128e-09
-1.1544477e-06
-2.4820754e-06
-7.3062623e-08
1.2218137e-06
6.8213666e-07
-2.4563325e-06
-1.4837125e-08
-6.8160723e-07
-2.4615239e-06
-4.6915342e-08
6.684338e-07
4.3142466e-07
-2.4507459e-06
-1.3034323e-08
-4.351416e-07
-2.4140849e-06
-2.8702328e-08
3.8907916e-07
2.9080264e-07
-9.8843302e-09
-2.4447493e-06
-2.9562923e-07
-1.6051983e-08
-2.3619542e-06
2.4162695e-07
1.6473826e-05
-2.4486804e-06
6.573669e-07
-1.5615731e-05
-1.8779145e-06
-5.4658494e-08
1.6684863e-05
5.1559471e-06
-2.9407773e-06
2.3560332e-07
-4.7561855e-06
-2.7404624e-06
-1.1440873e-08
5.9629823e-06
2.6764327e-06
-3.1364811e-06
6.2015776e-08
-2.5127395e-06
-3.0694729e-06
-8.5183524e-08
2.9965721e-06
1.4673344e-06
-3.2073091e-06
1.1194896e-09
-1.4064351e-06
-3.1602623e-06
-7.6015643e-08
1.5611203e-06
8.6463462e-07
-3.2317164e-06
-1.2142236e-08
-8.429526e-07
-3.1533232e-06
-5.1224213e-08
8.6197251e-07
5.4921528e-07
-3.2378249e-06
-1.2372945e-08
-5.4373512e-07
-3.1046491e-06
-3.1523984e-08
5.0338872e-07
3.7365218e-07
-9.6532756e-09
-3.2350884e-06
-3.7664583e-07
-1.6937708e-08
-3.03985e-06
3.0970673e-07
1.8390314e-05
-2.6057856e-06
9.9378243e-07
-1.7465586e-05
-1.8305418e-06
1.0819028e-07
1.8697646e-05
5.6925454e-06
-3.2923347e-06
4.1644209e-07
-5.1868191e-06
-2.9372118e-06
8.9820954e-08
6.6979592e-06
2.988983e-06
-3.6437208e-06
1.404528e-07
-2.7159935e-06
-3.4339005e-06
-5.2255787e-08
3.4527801e-06
1.64934e-06
-3.8229448e-06
3.9590625e-08
-1.5086414e-06
-3.626374e-06
-6.2718692e-08
1.8284588e-06
9.6846153e-07
-3.9190333e-06
9.24293e-09
-8.9373041e-07
-3.6825579e-06
-4.4637534e-08
1.0180736e-06
6.0852147e-07
-3.9733878e-06
1.3370123e-09
-5.6792381e-07
-3.6733412e-06
-2.7158861e-08
5.9487999e-07
4.0715274e-07
3.6617448e-10
-4.0051902e-06
-3.8535643e-07
-1.3103598e-08
-3.6315137e-06
3.6149179e-07
2.2060088e-05
-2.4261512e-06
9.2885408e-07
-2.082358e-05
-1.4602551e-06
2.37724e-07
2.2358327e-05
6.9878715e-06
-3.2962602e-06
6.0639177e-07
-6.3076851e-06
-2.8115952e-06
2.8839887e-07
8.1406524e-06
3.7556856e-06
-3.7913122e-06
2.170326e-07
-3.3371429e-06
-3.4782028e-06
2.731e-08
4.3427982e-06
2.1025676e-06
-4.0660687e-06
7.1814749e-08
-1.8600773e-06
-3.7807403e-06
-2.882836e-08
2.3711735e-06
1.2378922e-06
-4.225222e-06
2.5326e-08
-1.0947705e-06
-3.9114644e-06
-2.8422167e-08
1.3524471e-06
7.7617198e-07
-4.3244411e-06
1.0750103e-08
-6.8640895e-07
-3.9580517e-06
-1.8599034e-08
8.1415151e-07
5.1687549e-07
6.6353912e-09
-4.3898694e-06
-4.5768572e-07
-8.6128925e-09
-3.9549173e-06
5.0928133e-07
2.7362164e-05
-1.7947556e-06
4.2923178e-07
-2.6223564e-05
-6.4049502e-07
3.6042567e-08
2.765612e-05
9.2030606e-06
-2.7880572e-06
7.9676459e-07
-8.40012e-06
-2.1362495e-06
5.3940066e-07
1.0447818e-05
5.0869656e-06
-3.4469072e-06
2.9900403e-07
-4.510013e-06
-2.921683e-06
1.5577601e-07
5.7440119e-06
2.9087737e-06
-3.8455612e-06
1.0185353e-07
-2.5402212e-06
-3.3140291e-06
2.8104432e-08
3.2441319e-06
1.7221204e-06
-4.0858543e-06
3.682575e-08
-1.4932683e-06
-3.5297347e-06
-1.5048695e-09
1.9109705e-06
1.0763434e-06
-4.2401583e-06
1.5242667e-08
-9.2658621e-07
-3.6575408e-06
-4.9128063e-09
1.1904096e-06
7.1604687e-07
7.976121e-09
-4.3456511e-06
-6.1185956e-07
-2.0814479e-09
-3.7351817e-06
7.8720335e-07
2.8679852e-05
-1.0421596e-06
-4.9326779e-07
-2.7736934e-05
1.4245446e-07
-5.5898153e-07
2.892189e-05
1.0048784e-05
-1.8913664e-06
8.3986522e-07
-9.242624e-06
-1.0180251e-06
6.2569488e-07
1.1122992e-05
5.5570298e-06
-2.5517309e-06
3.3174105e-07
-4.9293097e-06
-1.6483967e-06
2.243666e-07
6.1189136e-06
3.2016344e-06
-2.9962416e-06
1.1030404e-07
-2.7656056e-06
-1.9940555e-06
5.9081049e-08
3.5162761e-06
1.8961595e-06
-3.2835232e-06
3.6847475e-08
-1.6088269e-06
-2.214763e-06
1.176069e-08
2.1036748e-06
1.1744893e-06
-3.4755553e-06
1.2957694e-08
-9.8021169e-07
-2.3700435e-06
7.0253373e-10
1.3241079e-06
7.7033725e-07
4.9916616e-09
-3.6110334e-06
-6.3182874e-07
-2.2625008e-10
-2.4832659e-06
8.8175331e-07
2.9958689e-05
-8.968805e-07
-1.479574e-06
-2.9197694e-05
3.1598601e-07
-1.2455158e-06
3.014054e-05
1.1038254e-05
-1.6182486e-06
7.1870178e-07
-1.0195697e-05
-5.013921e-07
5.0948922e-07
1.1971838e-05
6.0516848e-06
-2.2726418e-06
3.0733527e-07
-5.3728201e-06
-9.4807096e-07
1.9547403e-07
6.5273348e-06
3.4725936e-06
-2.7498089e-06
9.9423374e-08
-2.9845938e-06
-1.2163717e-06
4.6675912e-08
3.7532461e-06
2.0395974e-06
-3.0705457e-06
2.9921451e-08
-1.7118783e-06
-1.4124217e-06
3.6899862e-09
2.2437806e-06
1.2436071e-06
-3.2874629e-06
8.0713336e-09
-1.0218469e-06
-1.5671271e-06
-5.3885174e-09
1.404356e-06
7.9735549e-07
1.1720437e-09
-3.4401286e-06
-6.4083611e-07
-5.3342235e-09
-1.6892369e-06
9.2461279e-07
3.0471834e-05
-1.225083e-06
-2.265722e-06
-2.9834454e-05
-1.0203615e-07
-1.8115904e-06
3.0716746e-05
1.1883897e-05
-1.8859144e-06
4.6801097e-07
-1.0972333e-05
-7.2500904e-07
2.438001e-07
1.2772573e-05
6.4683387e-06
-2.5546082e-06
2.2770486e-07
-5.7199436e-06
-1.0791e-06
8.2882599e-08
6.9351009e-06
3.679846e-06
-3.0613249e-06
7.0248711e-08
-3.1439824e-06
-1.3140621e-06
-5.3792829e-09
3.9668218e-06
2.1375876e-06
-3.4069016e-06
1.6951834e-08
-1.7789844e-06
-1.5044606e-06
-2.2930094e-08
2.3546642e-06
1.2828617e-06
-3.6407211e-06
1.0426879e-09
-1.042045e-06
-1.6626148e-06
-2.0980558e-08
1.4565681e-06
8.0395629e-07
-3.4097286e-09
-3.8031903e-06
-6.3687104e-07
-1.5960974e-08
-1.7903201e-06
9.4232361e-07
3.0402736e-05
-1.9177176e-06
-2.8163979e-06
-2.9745932e-05
-8.959173e-07
-2.2546969e-06
3.081484e-05
1.245443e-05
-2.5965999e-06
1.3117942e-07
-1.1438684e-05
-1.509423e-06
-5.788328e-08
1.3369628e-05
6.8296156e-06
-3.2668251e-06
8.9121431e-08
-6.0207551e-06
-1.8627955e-06
-4.614128e-08
7.312075e-06
3.8761375e-06
-3.7709069e-06
1.391579e-08
-3.3157473e-06
-2.0990591e-06
-5.8274271e-08
4.1652659e-06
2.2417885e-06
-4.1133329e-06
-9.2152343e-09
-1.8731519e-06
-2.2885567e-06
-4.731883e-08
2.4557245e-06
1.3380911e-06
-4.3442481e-06
-1.3466716e-08
-1.0926913e-06
-2.4436015e-06
-3.4605367e-08
1.5067314e-06
8.3277015e-07
-1.2920175e-08
-4.5043087e-06
-6.6317102e-07
-2.5462052e-08
-2.5673211e-06
9.6602208e-07
3.0067852e-05
-3.003839e-06
-3.2614731e-06
-2.9188362e-05
-2.1365497e-06
-2.6204481e-06
3.0758787e-05
1.2846273e-05
-3.8501527e-06
-2.4730126e-07
-1.162144e-05
-2.9478762e-06
-3.176142e-07
1.3917344e-05
7.1634614e-06
-4.5826313e-06
-7.7723524e-08
-6.2640887e-06
-3.3925389e-06
-1.44145e-07
7.7061837e-06
4.0749261e-06
-5.0915203e-06
-6.0222788e-08
-3.4919093e-06
-3.6531592e-06
-9.6601462e-08
4.3738498e-06
2.361538e-06
-5.425333e-06
-4.6609525e-08
-1.990291e-06
-3.8381814e-06
-6.6070161e-08
2.5653525e-06
1.4158712e-06
-5.6480575e-06
-3.5377246e-08
-1.1712523e-06
-3.9804723e-06
-4.6544665e-08
1.5700774e-06
8.8693905e-07
-2.7643371e-08
-5.802683e-06
-7.1756415e-07
-3.4570717e-08
-4.0922157e-06
1.0078159e-06
2.9713456e-05
-4.3856044e-06
-3.8348723e-06
-2.8440139e-05
-3.6524593e-06
-3.130825e-06
3.0829793e-05
1.3377127e-05
-5.4062051e-06
-7.7804428e-07
-1.182576e-05
-4.6057434e-06
-6.3983485e-07
1.4652639e-05
7.5649919e-06
-6.1918392e-06
-3.159215e-07
-6.5411224e-06
-5.0740799e-06
-2.589273e-07
8.1481564e-06
4.3052639e-06
-6.6955493e-06
-1.6877586e-07
-3.6930151e-06
-5.3089783e-06
-1.4332217e-07
4.5868621e-06
2.4983942e-06
-7.0126821e-06
-1.0249313e-07
-2.1253467e-06
-5.4585425e-06
-9.1374059e-08
2.6732972e-06
1.504888e-06
-7.2214583e-06
-6.8493132e-08
-1.263012e-06
-5.5693337e-06
-6.3600874e-08
1.6327154e-06
9.4906124e-07
-4.9953468e-08
-7.3663181e-06
-7.8187241e-07
-4.7737226e-08
-5.6569069e-06
1.0498213e-06
3.0289847e-05
-6.3848926e-06
-4.5831969e-06
-2.8580437e-05
-5.8591042e-06
-3.8473716e-06
3.1960588e-05
1.4065033e-05
-7.6318277e-06
-1.3998931e-06
-1.2196227e-05
-7.0653051e-06
-9.7979707e-07
1.5611199e-05
7.9091042e-06
-8.4938755e-06
-5.7882141e-07
-6.7841298e-06
-7.6055213e-06
-3.6396508e-07
8.5543915e-06
4.4420793e-06
-9.0023339e-06
-2.8470436e-07
-3.8177056e-06
-7.8385511e-06
-1.8554043e-07
4.7173061e-06
2.5481977e-06
-9.3053246e-06
-1.6126512e-07
-2.1864099e-06
-7.9693085e-06
-1.1407799e-07
2.7016862e-06
1.5180419e-06
-9.497656e-06
-1.0246064e-07
-1.2917569e-06
-8.0602827e-06
-7.7501582e-08
1.6228986e-06
9.4818226e-07
-7.1878984e-08
-9.6303127e-06
-7.9358423e-07
-5.7090134e-08
-8.1297657e-06
1.027034e-06
2.6012889e-05
-7.1054059e-06
-5.1333606e-06
-2.4411181e-05
-6.5913505e-06
-4.3550645e-06
2.7405015e-05
1.1906365e-05
-8.204469e-06
-1.8008024e-06
-1.0406384e-05
-7.6220489e-06
-1.0996911e-06
1.3056973e-05
6.4883096e-06
-8.8744123e-06
-7.2025712e-07
-5.6769047e-06
-8.0690205e-06
-3.430057e-07
6.9143518e-06
3.5436915e-06
-9.2495967e-06
-3.3934389e-07
-3.1138862e-06
-8.2746938e-06
-1.617057e-07
3.7255118e-06
1.9797253e-06
-9.4663894e-06
-1.8716371e-07
-1.7370166e-06
-8.3930861e-06
-9.7054767e-08
2.0811125e-06
1.1497008e-06
-9.604902e-06
-1.1690886e-07
-9.9675372e-07
-8.4713347e-06
-6.6173193e-08
1.216607e-06
6.9728247e-07
-8.0909027e-08
-9.701763e-06
-5.913807e-07
-4.9370449e-08
-8.5278168e-06
7.4605551e-07
2.260127e-05
-7.2068733e-06
-5.4091984e-06
-2.1299093e-05
-6.6194887e-06
-4.668131e-06
2.3592866e-05
9.698065e-06
-8.1150648e-06
-2.0167935e-06
-8.5738709e-06
-7.3460779e-06
-1.1870505e-06
1.0512017e-05
5.058671e-06
-8.6326314e-06
-7.7464344e-07
-4.4867253e-06
-7.7001111e-06
-3.3019621e-07
5.3998928e-06
2.683182e-06
-8.9259397e-06
-3.5236714e-07
-2.3768371e-06
-7.8945231e-06
-1.3504638e-07
2.8509512e-06
1.4641273e-06
-9.10528e-06
-1.8998901e-07
-1.281977e-06
-8.0161748e-06
-7.4867179e-08
1.5635785e-06
8.2701687e-07
-9.2241533e-06
-1.1736828e-07
-7.0767508e-07
-8.0981137e-06
-5.0837748e-08
8.936312e-07
4.8413158e-07
-8.2166221e-08
-9.3108569e-06
-3.9618435e-07
-3.9919535e-08
-8.155915e-06
5.3247073e-07
1.9712998e-05
-6.7765913e-06
-5.4188135e-06
-1.878414e-05
-6.1727156e-06
-4.8383615e-06
2.036936e-05
7.6729709e-06
-7.4956852e-06
-2.1462499e-06
-6.8244023e-06
-6.6993715e-06
-1.3653673e-06
8.3779928e-06
3.7848752e-06
-7.9390758e-06
-8.2376229e-07
-3.2923719e-06
-6.9913667e-06
-3.9705384e-07
4.1437229e-06
1.9454936e-06
-8.2160781e-06
-3.627918e-07
-1.658061e-06
-7.1756723e-06
-1.5345381e-07
2.148214e-06
1.0296917e-06
-8.3952356e-06
-1.8932417e-07
-8.5121367e-07
-7.2993748e-06
-7.9570072e-08
1.1580822e-06
5.5648795e-07
-8.519476e-06
-1.1327031e-07
-4.3633875e-07
-7.388466e-06
-5.1973098e-08
6.4672034e-07
3.0028057e-07
-7.6845579e-08
-8.6063883e-06
-2.1870313e-07
-4.051657e-08
-7.4586066e-06
3.710038e-07
1.7148462e-05
-5.9981921e-06
-5.2304797e-06
-1.6495526e-05
-5.4907233e-06
-4.8316101e-06
1.7588772e-05
6.2769603e-06
-6.5570317e-06
-2.2452575e-06
-5.6191284e-06
-5.8886278e-06
-1.5839863e-06
6.8934509e-06
2.8768828e-06
-6.8957249e-06
-9.0168172e-07
-2.4602715e-06
-6.1204509e-06
-5.4125341e-07
3.2529099e-06
1.394684e-06
-7.1194559e-06
-3.9173934e-07
-1.1419969e-06
-6.2894358e-06
-2.2143915e-07
1.6316646e-06
6.9822409e-07
-7.2616279e-06
-1.9705639e-07
-5.4832861e-07
-6.4147072e-06
-1.0968073e-07
8.5359701e-07
3.5451678e-07
-7.3471499e-06
-1.1248444e-07
-2.6977457e-07
-6.5059539e-06
-6.5227931e-08
4.5902418e-07
1.8311134e-07
-7.0695834e-08
-7.3978405e-06
-1.3857846e-07
-4.4727395e-08
-6.5695515e-06
2.5090973e-07
1.5236856e-05
-5.2528398e-06
-4.8560405e-06
-1.4822834e-05
-4.846711e-06
-4.6165113e-06
1.5487447e-05
5.5461131e-06
-5.7034756e-06
-2.2621126e-06
-5.0786139e-06
-5.1771756e-06
-1.728813e-06
6.0214369e-06
2.487282e-06
-5.944022e-06
-9.5569245e-07
-2.1927253e-06
-5.3503881e-06
-6.5947826e-07
2.7787173e-06
1.1920256e-06
-6.0969209e-06
-4.1362413e-07
-1.0172443e-06
-5.4691517e-06
-2.7539148e-07
1.3647395e-06
5.989318e-07
-6.1909962e-06
-2.0291702e-07
-4.9899221e-07
-5.5495687e-06
-1.3104671e-07
7.0071886e-07
3.1199953e-07
-6.2462862e-06
-1.1183455e-07
-2.5736554e-07
-5.6008048e-06
-7.187055e-08
3.6987226e-07
1.6947536e-07
-6.6793634e-08
-6.2791411e-06
-1.4051902e-07
-4.4079129e-08
-5.6301608e-06
1.9818733e-07
1.3279086e-05
-4.4783818e-06
-4.2800619e-06
-1.3100061e-05
-4.1458595e-06
-4.1687107e-06
1.3332357e-05
4.9377852e-06
-4.8650161e-06
-2.1616427e-06
-4.6516696e-06
-4.4363628e-06
-1.7578612e-06
5.2572804e-06
2.2392591e-06
-5.0421722e-06
-9.5582536e-07
-2.0619692e-06
-4.5620018e-06
-7.2268077e-07
2.4281052e-06
1.0898091e-06
-5.1482475e-06
-4.1136071e-07
-9.8600211e-07
-4.6396704e-06
-3.0067903e-07
1.1927611e-06
5.5800079e-07
-5.2139882e-06
-1.9625851e-07
-4.9891425e-07
-4.6884686e-06
-1.3706843e-07
6.1282374e-07
2.9750312e-07
-5.2533584e-06
-1.047844e-07
-2.6518911e-07
-4.717246e-06
-7.0912397e-08
3.2531664e-07
1.6567136e-07
-6.0722957e-08
-5.2766048e-06
-1.4849239e-07
-4.0926256e-08
-4.7325547e-06
1.7783001e-07
1.1088699e-05
-3.6631122e-06
-3.618652e-06
-1.1024359e-05
-3.4241356e-06
-3.5744107e-06
1.1050714e-05
4.2482415e-06
-4.0202195e-06
-1.9892841e-06
-4.0635025e-06
-3.7104877e-06
-1.7025226e-06
4.4792417e-06
1.9647146e-06
-4.1649727e-06
-9.2103339e-07
-1.8547625e-06
-3.8140902e-06
-7.4880611e-07
2.0944296e-06
9.7511529e-07
-4.242537e-06
-3.9396986e-07
-9.1494198e-07
-3.8688927e-06
-3.1213786e-07
1.0413749e-06
5.0905022e-07
-4.2916149e-06
-1.8022709e-07
-4.7600719e-07
-3.9026624e-06
-1.3613527e-07
5.4188383e-07
2.7691002e-07
-4.3229464e-06
-9.1633078e-08
-2.5872789e-07
-3.9231111e-06
-6.6365688e-08
2.9281332e-07
1.5693192e-07
-5.1486503e-08
-4.3420301e-06
-1.4708869e-07
-3.6414666e-08
-3.9344462e-06
1.6375127e-07
9.0142778e-06
-2.9306165e-06
-2.9166576e-06
-9.040657e-06
-2.759541e-06
-2.9031892e-06
8.9197327e-06