/*--------------------------------*- C++ -*----------------------------------*\
| =========                 |                                                 |
| \\      /  F ield         | OpenFOAM: The Open Source CFD Toolbox           |
|  \\    /   O peration     | Version:  2206                                  |
|   \\  /    A nd           | Website:  www.openfoam.com                      |
|    \\/     M anipulation  |                                                 |
\*---------------------------------------------------------------------------*/
FoamFile
{
    version     2.0;
    format      ascii;
    arch        "LSB;label=32;scalar=64";
    class       volScalarField;
    location    "200";
    object      rho;
}
// * * * * * * * * * * * * * * * * * * * * * * * * * * * * * * * * * * * * * //

dimensions      [1 -3 0 0 0 0 0];

internalField   nonuniform List<scalar> 
50904
(
1.175289
1.1749483
1.1756839
1.1751443
1.1755127
1.1752001
1.1758111
1.1753188
1.1759594
1.1756413
1.1760554
1.1755687
1.1764962
1.1761546
1.17644
1.175896
1.1770171
1.1766504
1.1768452
1.1762386
1.1774103
1.1770403
1.1771565
1.1765246
1.177736
1.177382
1.1774425
1.1768038
1.1780516
1.1777287
1.1777513
1.1771148
1.1783625
1.1780895
1.1780754
1.177455
1.1786437
1.1784363
1.1783711
1.177784
1.178851
1.1787248
1.178604
1.178054
1.1789278
1.1788797
1.1786777
1.178159
1.1788711
1.1789095
1.1787534
1.1783174
1.1787426
1.1789323
1.1791361
1.1788406
1.1785772
1.1789813
1.1799569
1.1798375
1.178398
1.1790241
1.1810334
1.1811374
1.1782015
1.1790384
1.1821494
1.1825172
1.1780018
1.1789955
1.1832284
1.183897
1.1778532
1.1789691
1.1843696
1.1853746
1.1778903
1.1790693
1.1857139
1.1870926
1.1780385
1.1792592
1.1871474
1.1889673
1.1781706
1.1794138
1.1884403
1.1906818
1.1780593
1.1792478
1.1887725
1.1911048
1.1776861
1.1787351
1.1879858
1.190029
1.1770872
1.1779676
1.1865596
1.1882542
1.1763955
1.1771024
1.1849506
1.186329
1.1756576
1.1761801
1.183444
1.1845824
1.1750392
1.1754036
1.1821801
1.1831558
1.1745246
1.1747571
1.181197
1.1820566
1.1741286
1.1742458
1.180446
1.181215
1.1738439
1.1738579
1.1798343
1.1805236
1.1736376
1.1735507
1.1792703
1.1798739
1.173458
1.1732765
1.1786823
1.179194
1.1732592
1.1730112
1.1780959
1.1784967
1.1730447
1.1727809
1.1776392
1.1779013
1.1729456
1.1726873
1.1774457
1.1776351
1.1748494
1.1742088
1.1738872
1.1734648
1.1735722
1.1733791
1.173465
1.1732952
1.1733792
1.1731174
1.173268
1.1729492
1.1731485
1.1728344
1.1748921
1.1743208
1.1738655
1.1735244
1.1735551
1.1734132
1.1734552
1.1733515
1.173367
1.173192
1.1732445
1.1730255
1.1731135
1.1729053
1.1749645
1.1744031
1.1737692
1.1734282
1.1733633
1.1731483
1.1731596
1.1729975
1.1730066
1.1728514
1.1728723
1.1727323
1.1727594
1.1726478
1.1750855
1.1744636
1.1735776
1.1731733
1.1730308
1.1727587
1.1727467
1.1725598
1.1725758
1.172444
1.1724577
1.1723648
1.1723679
1.172309
1.1751867
1.1745033
1.1733827
1.1729431
1.1727501
1.1724595
1.1724309
1.1722573
1.1722591
1.1721635
1.1721532
1.1721015
1.1720679
1.172042
1.1752661
1.1745478
1.1732373
1.1727709
1.1725429
1.172232
1.1721948
1.1720179
1.1720103
1.1719155
1.1718817
1.1718267
1.1717589
1.17173
1.1753525
1.1746178
1.1731107
1.1726209
1.1723465
1.1720135
1.1719532
1.171767
1.171728
1.1716317
1.1715535
1.1715058
1.1713878
1.1713777
1.1754134
1.1746712
1.1729061
1.1724149
1.1720576
1.1717446
1.1716155
1.17148
1.1713533
1.1713352
1.1711456
1.1711996
1.1709482
1.1710609
1.175372
1.174644
1.1725129
1.1720912
1.1716088
1.1714326
1.1711652
1.1712267
1.170915
1.1711441
1.170723
1.1710608
1.1705382
1.1709588
1.1751689
1.1744953
1.1718948
1.171655
1.1710466
1.1711698
1.170707
1.1711329
1.1705508
1.171192
1.1704427
1.1712232
1.1703324
1.1712091
1.1748103
1.1741791
1.1710653
1.1710211
1.170371
1.1708345
1.1702104
1.1710252
1.1701766
1.1712222
1.1701511
1.1713391
1.1700994
1.1713822
1.1740452
1.1734274
1.1695499
1.1695963
1.1689276
1.1695792
1.1689006
1.1699584
1.1689586
1.1702649
1.168976
1.1704271
1.1689307
1.1704772
1.1732507
1.172675
1.1673189
1.1674721
1.1661821
1.1670298
1.165881
1.1672886
1.1658228
1.1675751
1.1657899
1.1677464
1.1657278
1.1678197
1.173601
1.1732061
1.1671246
1.1674858
1.1658585
1.1670365
1.1656241
1.1674068
1.165622
1.1678003
1.16563
1.1680586
1.1656031
1.1682017
1.1752858
1.1751019
1.1689559
1.1696396
1.1678123
1.169483
1.1678189
1.1702079
1.1680077
1.1708709
1.1681369
1.1713118
1.1681735
1.1715654
1.1780291
1.1779895
1.1723533
1.1732242
1.1713673
1.1733196
1.1715823
1.1743804
1.1719378
1.1753213
1.1721762
1.1759507
1.1722681
1.1763128
1.1812545
1.1813926
1.1770118
1.178148
1.176547
1.1789262
1.1771806
1.180543
1.1778274
1.1818581
1.178239
1.1827045
1.1784106
1.1831676
1.1847986
1.1852253
1.1827789
1.1843953
1.1834152
1.1864992
1.1847787
1.1889209
1.1858575
1.1906552
1.1864917
1.191687
1.1867461
1.1921942
1.1885107
1.1894143
1.1893861
1.1918458
1.1918354
1.1959075
1.194239
1.1991904
1.1958488
1.2012
1.1967279
1.2022636
1.1970636
1.202699
1.1922875
1.1939159
1.1964911
1.2002146
1.2012148
1.2064749
1.2048323
1.2104332
1.2069978
1.2124616
1.2080992
1.213349
1.2084893
1.2135683
1.1958535
1.1983494
1.2028788
1.2078727
1.2094009
1.2154633
1.2138628
1.2194609
1.2163595
1.2212117
1.2175734
1.2217975
1.2179803
1.2217555
1.198557
1.2016604
1.2067339
1.2120487
1.2134279
1.2189297
1.2175963
1.221887
1.2198119
1.2227964
1.2208247
1.2228253
1.2211055
1.2224468
1.1988772
1.2015453
1.2054669
1.2094303
1.2101827
1.2143191
1.2129773
1.2162969
1.2143667
1.2168317
1.2149284
1.2167648
1.2150087
1.2164294
1.1966524
1.1982476
1.2002798
1.2022429
1.2021783
1.2044619
1.2032001
1.2053494
1.203668
1.2055601
1.2038089
1.2054842
1.2037676
1.2052853
1.1937711
1.1945508
1.19533
1.1958381
1.1953839
1.1960347
1.1951876
1.1959448
1.1950109
1.1957732
1.1948562
1.1955893
1.1946926
1.1954123
1.1910249
1.1913459
1.1914512
1.1913253
1.1908033
1.1906878
1.1901465
1.1901799
1.1897303
1.189852
1.1894501
1.1896267
1.1892215
1.1894301
1.1887148
1.1888164
1.18858
1.1882606
1.1878623
1.1874894
1.1872074
1.186937
1.186802
1.1866276
1.1865432
1.1864444
1.1863591
1.1863051
1.1869285
1.1869132
1.1864574
1.1861136
1.1857898
1.185424
1.1852733
1.1849742
1.1849681
1.184742
1.1847922
1.1846294
1.1846843
1.1845663
1.1856267
1.1855364
1.1849131
1.1845671
1.1842324
1.1839311
1.1838054
1.1835762
1.1835726
1.1834072
1.1834602
1.1833494
1.1834122
1.1833438
1.1846943
1.1845503
1.1838325
1.1834682
1.1831171
1.1828351
1.1827208
1.1825222
1.1825119
1.1823766
1.1824272
1.1823413
1.1824148
1.1823681
1.1839736
1.1837942
1.1830598
1.1826754
1.18234
1.1820498
1.1819727
1.1817714
1.1817809
1.1816383
1.1817037
1.1816024
1.1817078
1.1816405
1.183306
1.1831069
1.1824191
1.1820328
1.1817498
1.1814608
1.1814412
1.1812377
1.1812835
1.1811348
1.1812158
1.181104
1.181217
1.1811338
1.1826042
1.1824067
1.1817812
1.1814282
1.1811911
1.1809324
1.1809661
1.1807838
1.180858
1.1807287
1.1808065
1.1807165
1.1807982
1.1807384
1.1819663
1.1818061
1.181171
1.1808541
1.1805531
1.1803268
1.1803701
1.1802286
1.1802958
1.1802092
1.1802455
1.180197
1.1802218
1.1801964
1.1815526
1.1814177
1.1807917
1.1804805
1.1799964
1.1797495
1.1797013
1.1795357
1.1796216
1.1795042
1.1795956
1.1795064
1.1795891
1.1795162
1.1814174
1.1812834
1.1806986
1.1803819
1.1798389
1.1795665
1.1794295
1.179228
1.1792811
1.1791227
1.1792516
1.1791217
1.1792608
1.179149
1.1730289
1.1727673
1.1729238
1.1727408
1.1728615
1.1727522
1.1728309
1.1727981
1.1728179
1.172882
1.1728052
1.1730539
1.1729918
1.1728288
1.1728963
1.1727885
1.1728378
1.172777
1.1727938
1.1727858
1.1727482
1.1728276
1.1727323
1.1730024
1.1726651
1.1725903
1.1725917
1.172553
1.172544
1.1725368
1.1724997
1.1725338
1.1724574
1.1725668
1.1724936
1.1727748
1.1722933
1.1722646
1.1722221
1.1722189
1.1721681
1.1721863
1.1721198
1.1721683
1.1720732
1.1721876
1.1720937
1.1723696
1.1719804
1.1719769
1.1718835
1.1718993
1.1718019
1.1718364
1.1717301
1.1717915
1.171672
1.1717907
1.1716631
1.1719308
1.171634
1.1716301
1.1715036
1.1715209
1.1713916
1.1714293
1.1712929
1.1713601
1.1712187
1.1713454
1.1711972
1.1714729
1.1712218
1.1712479
1.1710538
1.1711115
1.1709044
1.1709934
1.1707674
1.1708962
1.1706699
1.1708713
1.1706579
1.1710303
1.1707495
1.1709179
1.170548
1.1707646
1.1703619
1.1706227
1.1701839
1.1704966
1.1700671
1.1704679
1.1701062
1.1707164
1.1703456
1.1708367
1.1701343
1.1706812
1.16992
1.170514
1.1696987
1.1703463
1.1695668
1.170306
1.1697081
1.1706833
1.1702025
1.171151
1.170023
1.1710188
1.169794
1.1708201
1.1695097
1.1705668
1.1693351
1.1704586
1.1696034
1.1709476
1.1700189
1.1713663
1.1698826
1.1712478
1.1696532
1.1710003
1.1692749
1.1706058
1.1689898
1.1703452
1.1693257
1.1708247
1.1688248
1.1704277
1.1686658
1.1702524
1.1684085
1.1699302
1.1679701
1.1694435
1.1676204
1.1691539
1.1679781
1.169637
1.165625
1.1678257
1.1654968
1.1677405
1.1653214
1.1675562
1.1651468
1.167328
1.1652769
1.1673567
1.1659339
1.1679898
1.1655461
1.1682876
1.1654636
1.1683028
1.1653632
1.1682279
1.1653401
1.1681441
1.165617
1.1683066
1.1664111
1.1690341
1.168155
1.1717308
1.1680877
1.1718191
1.1679895
1.1717966
1.1679623
1.1717423
1.1682389
1.1719379
1.1691002
1.1727526
1.1722817
1.1765721
1.1722147
1.1767516
1.1721
1.1768057
1.172047
1.1768098
1.1723353
1.177107
1.1733219
1.1782431
1.1784576
1.1834799
1.1783545
1.183663
1.1781545
1.1836886
1.1779722
1.1836068
1.1781437
1.1838295
1.1791402
1.1851232
1.1867968
1.1924715
1.1865842
1.1925166
1.1861833
1.192333
1.1856838
1.1918943
1.1854298
1.1916205
1.1859436
1.1924009
1.197051
1.2027795
1.1966507
1.2024975
1.1959218
1.2018711
1.1948415
1.2007128
1.1936874
1.199316
1.1929554
1.1985437
1.2084327
1.2133779
1.2078582
1.2126909
1.2067921
1.2115161
1.2049753
1.2094271
1.2025464
1.206419
1.1999791
1.2032883
1.2178872
1.2213027
1.2172272
1.2202917
1.2159795
1.2186914
1.2135727
1.2158768
1.2098761
1.2115199
1.2054796
1.2063198
1.2209203
1.2217435
1.220207
1.2205293
1.2189706
1.2187329
1.2164563
1.2156454
1.2120905
1.2107659
1.2064796
1.2045954
1.2147254
1.2158346
1.2139444
1.2148308
1.21258
1.2133361
1.2100497
1.2106794
1.2060713
1.2064086
1.201908
1.2012203
1.2035107
1.2049251
1.2028024
1.2041979
1.2016687
1.2030624
1.1999059
1.2011938
1.1976707
1.198563
1.1958673
1.1958483
1.1943796
1.1951109
1.1938019
1.1944908
1.1931382
1.1937326
1.192358
1.1927808
1.1915215
1.1917025
1.1908288
1.1906127
1.188964
1.1891575
1.1886823
1.1888063
1.1884768
1.1885216
1.1882889
1.1882582
1.1879977
1.1879259
1.1875259
1.1873435
1.1861997
1.1861497
1.1860939
1.1860137
1.1860729
1.1859636
1.1860494
1.1859391
1.1858637
1.1858016
1.1854201
1.1853642
1.1845998
1.1845011
1.1845601
1.1844599
1.1845805
1.1844858
1.1845755
1.1845189
1.1844038
1.1844266
1.184011
1.1840734
1.1833838
1.1833405
1.183381
1.1833519
1.1834132
1.1834106
1.1834012
1.1834565
1.1832354
1.1833722
1.1829143
1.1830855
1.1824165
1.1824011
1.1824259
1.1824351
1.1824546
1.1825013
1.182433
1.1825421
1.1822756
1.1824585
1.1820103
1.1822149
1.1817311
1.1816971
1.1817376
1.1817334
1.1817506
1.1817871
1.1817147
1.1818109
1.1815605
1.1817215
1.1813288
1.1815016
1.1812404
1.1811874
1.181248
1.18123
1.1812456
1.1812692
1.1811844
1.1812622
1.1810284
1.1811509
1.1808427
1.1809645
1.1807938
1.1807642
1.1807754
1.1807764
1.1807512
1.1807878
1.1806854
1.1807549
1.1805776
1.1806613
1.1804733
1.1805573
1.1802024
1.1801934
1.1801833
1.1801909
1.1801697
1.1801947
1.180142
1.1801841
1.1801039
1.1801651
1.1800764
1.1801584
1.1795892
1.1795292
1.1795928
1.1795491
1.1795989
1.1795741
1.1795965
1.1795944
1.1795818
1.1796115
1.1795543
1.1796271
1.1792799
1.179184
1.1793054
1.1792261
1.179333
1.1792717
1.1793572
1.1793213
1.1793597
1.1793644
1.1793029
1.1793603
1.1728833
1.1732924
1.1730081
1.173431
1.1730272
1.1734122
1.1729953
1.1733434
1.1729615
1.1732732
1.1729392
1.1732089
1.1729144
1.1733456
1.1731564
1.1736091
1.173221
1.1736312
1.1732092
1.17358
1.1731832
1.1735202
1.1731587
1.173463
1.1727452
1.1731865
1.1730492
1.1735159
1.1731707
1.1736112
1.1732244
1.1736432
1.1732583
1.1736614
1.1732711
1.173664
1.1723173
1.172761
1.1726057
1.1731058
1.1727586
1.1732562
1.1728581
1.1733453
1.1729461
1.1734273
1.1730238
1.1735069
1.1718103
1.1722446
1.1719984
1.1725136
1.1721066
1.1726371
1.1721981
1.1727285
1.1723154
1.1728431
1.1724705
1.1729999
1.1712907
1.1717499
1.1714067
1.1719691
1.1714773
1.1720714
1.1715559
1.1721566
1.1716805
1.172282
1.1718646
1.1724715
1.1707729
1.1713676
1.1708914
1.1716333
1.1709572
1.1717518
1.1710369
1.1718507
1.1711756
1.1719987
1.171383
1.1722216
1.1703338
1.1712248
1.1705433
1.1716384
1.170644
1.1718122
1.1707437
1.1719371
1.1709115
1.1721189
1.1711642
1.1724039
1.1701367
1.171447
1.170505
1.1720483
1.1706556
1.1722715
1.1707624
1.1723913
1.1709339
1.1725654
1.171221
1.172895
1.1703113
1.1720056
1.1708885
1.1728228
1.1711054
1.1731005
1.1712155
1.1731981
1.171354
1.1733073
1.1716041
1.1735607
1.1701967
1.1719353
1.1708462
1.1727357
1.1710621
1.1729635
1.1711647
1.1730174
1.1713667
1.1731738
1.1717607
1.1735331
1.1687418
1.1706085
1.1692287
1.1712536
1.1693562
1.1714292
1.1694124
1.1715078
1.1696597
1.1717461
1.1702566
1.1721974
1.1665819
1.1688216
1.1669107
1.1693382
1.1669909
1.1694845
1.1670199
1.1695798
1.1671355
1.1698882
1.1674586
1.1705207
1.1672887
1.1700173
1.167804
1.1706501
1.1679604
1.170832
1.1680525
1.1709098
1.1682848
1.1711087
1.1688102
1.1715753
1.170139
1.173906
1.1707484
1.1746598
1.1709192
1.1748399
1.1709835
1.174818
1.1711255
1.1747652
1.1714617
1.1747994
1.1745026
1.1798157
1.1751324
1.1807791
1.1752814
1.1810022
1.1753016
1.1809635
1.1753487
1.1808517
1.1754182
1.1806886
1.1804638
1.1870969
1.1811521
1.1882681
1.1813074
1.1885679
1.1813166
1.1885736
1.1813347
1.1885345
1.1812896
1.1884751
1.1870343
1.1942013
1.1876562
1.1953437
1.1877958
1.1956556
1.1877749
1.1957043
1.1877341
1.1957545
1.1876317
1.1958508
1.1930882
1.1991435
1.1932342
1.1996648
1.1931841
1.1997285
1.1929772
1.1996637
1.1926789
1.199625
1.1923286
1.1994959
1.1985398
1.2018449
1.1979725
1.2012918
1.1975795
1.2008732
1.1970382
1.2003884
1.1963423
1.199854
1.195524
1.1992854
1.2024709
1.202984
1.2012691
1.2014746
1.2006076
1.2006826
1.1997694
1.199831
1.1986561
1.1988004
1.1973381
1.1976302
1.2023301
1.2001353
1.2006664
1.1981492
1.1998808
1.1972982
1.1989875
1.1964466
1.1978082
1.1954116
1.1964152
1.1942361
1.1993714
1.1976328
1.1983639
1.1960892
1.197817
1.1954341
1.1971699
1.1947637
1.1963736
1.1939307
1.1953809
1.1929628
1.1949472
1.194024
1.1945727
1.1931683
1.1943326
1.1927977
1.1940368
1.1924266
1.1935959
1.1919207
1.1928179
1.1911807
1.1903833
1.1896501
1.1902287
1.1891198
1.1901794
1.1889448
1.1901148
1.1888071
1.1898528
1.1885104
1.1892071
1.1879009
1.1870636
1.1865956
1.1868864
1.1861669
1.1868864
1.1860801
1.1869124
1.1860642
1.186772
1.1859201
1.1863481
1.185515
1.1849386
1.1847662
1.1847495
1.1844645
1.1847727
1.1844519
1.1848588
1.1845285
1.1848596
1.1845195
1.1846899
1.184298
1.1835935
1.1836153
1.1834184
1.1834223
1.1834454
1.1834533
1.1835566
1.1835634
1.1836421
1.1836048
1.1836279
1.1834769
1.1826034
1.1827438
1.182473
1.1826062
1.18251
1.182643
1.1826363
1.1827568
1.1827738
1.1828427
1.1828576
1.1828285
1.1817849
1.1819541
1.1817099
1.1818622
1.1817671
1.1819134
1.1819077
1.1820512
1.1820719
1.1822032
1.1821903
1.1822906
1.1811581
1.1813041
1.1811169
1.1812559
1.1811804
1.1813232
1.181312
1.1814678
1.1814618
1.1816322
1.1815632
1.1817367
1.1807207
1.1808289
1.1806998
1.1808104
1.1807534
1.1808739
1.1808573
1.1809956
1.180973
1.1811334
1.1810445
1.1812183
1.180415
1.1804972
1.1804311
1.1805251
1.1804757
1.180582
1.1805445
1.1806653
1.1806123
1.1807528
1.1806451
1.1808038
1.180097
1.1801982
1.180173
1.1802984
1.1802063
1.1803508
1.1802438
1.1804038
1.1802706
1.1804455
1.1802718
1.1804565
1.1795694
1.1796763
1.1796931
1.179829
1.1797486
1.1798866
1.1797882
1.1799339
1.17982
1.1799729
1.1798435
1.18
1.1792186
1.1793097
1.1792699
1.179391
1.1793495
1.1794706
1.1794212
1.179541
1.1794893
1.1796114
1.1795587
1.1796846
1.1729137
1.1731393
1.1728912
1.1730741
1.1728886
1.173031
1.1729195
1.1730379
1.1729663
1.173116
1.1729337
1.1731727
1.1727567
1.1729888
1.1731224
1.1733993
1.1730787
1.1733309
1.1730451
1.1732744
1.1730375
1.1732585
1.1730381
1.1732966
1.1729687
1.1732809
1.1727769
1.173049
1.1732423
1.1736246
1.173198
1.1735716
1.1731481
1.1735173
1.173096
1.1734693
1.1730371
1.1734246
1.1729347
1.173315
1.1727308
1.1730282
1.1730456
1.1735298
1.1730311
1.1735139
1.1729912
1.1734702
1.1729297
1.1734018
1.1728504
1.173307
1.1727379
1.1731491
1.1725338
1.172829
1.1725828
1.1731169
1.1726423
1.1731783
1.1726598
1.1731934
1.1726297
1.1731544
1.1725508
1.1730509
1.1724276
1.1728613
1.1722331
1.1725065
1.1720267
1.1726441
1.1721486
1.1727765
1.1722324
1.1728729
1.1722689
1.1729117
1.1722295
1.1728545
1.1720958
1.1726565
1.1718822
1.172235
1.1715698
1.1724304
1.1717287
1.1726063
1.1718686
1.1727683
1.1719704
1.1728935
1.1719965
1.1729291
1.1718755
1.1727696
1.1715803
1.1722543
1.1713821
1.1726658
1.1715559
1.1728719
1.1717221
1.1730632
1.1718762
1.1732443
1.1719657
1.1733566
1.1718704
1.1732473
1.1714785
1.1726607
1.1714723
1.1732089
1.171649
1.173432
1.1718026
1.1736157
1.1719658
1.1737927
1.1720951
1.1739267
1.1720455
1.1738658
1.171635
1.1733046
1.1718393
1.1738405
1.1719855
1.1740372
1.17208
1.1741757
1.1721869
1.1742938
1.1723185
1.1744005
1.1723756
1.1744307
1.1721409
1.174123
1.1721063
1.173892
1.1722998
1.1741299
1.1723963
1.174288
1.1724746
1.1744164
1.1726188
1.1745694
1.1728903
1.1748106
1.1730945
1.1749566
1.1708867
1.1726309
1.1713951
1.1729701
1.1718437
1.1733014
1.172247
1.1736705
1.1726746
1.1741029
1.1732582
1.174644
1.1738913
1.1751621
1.1678794
1.1711227
1.1684184
1.1715916
1.169284
1.172049
1.1704607
1.1725743
1.1717321
1.1732658
1.1728999
1.174093
1.173829
1.1747777
1.1693655
1.1720774
1.1698508
1.1724362
1.1703877
1.1727387
1.17106
1.1731146
1.171925
1.1736806
1.1729379
1.1744012
1.1737599
1.1748696
1.1718107
1.1748494
1.1720784
1.1748787
1.1722923
1.174923
1.1725228
1.1750215
1.1728809
1.1752281
1.1734636
1.1755467
1.1738285
1.1754142
1.1753828
1.180371
1.175266
1.1799603
1.1750696
1.17944
1.1748682
1.1788651
1.1747383
1.1782642
1.1747273
1.1775921
1.1743365
1.1763791
1.1810581
1.1881749
1.1807398
1.1877044
1.1802542
1.1869889
1.1796027
1.1859421
1.1787331
1.1841932
1.1775385
1.1813148
1.1758428
1.1780696
1.1874387
1.1956906
1.1872564
1.1954629
1.186973
1.1951336
1.1863559
1.1943684
1.1848947
1.19202
1.1818885
1.1863738
1.1781622
1.1803958
1.1920243
1.1992429
1.191825
1.1990737
1.191738
1.1991052
1.1915173
1.1990435
1.190375
1.1974831
1.1868471
1.191424
1.1813353
1.1834396
1.1948123
1.1988394
1.1942338
1.1985245
1.1938318
1.1984318
1.193567
1.1985323
1.1929886
1.1982025
1.1908403
1.195217
1.1854694
1.187741
1.196268
1.1967738
1.1953068
1.1961002
1.1944339
1.1955459
1.1936805
1.1951552
1.192951
1.1949052
1.1919567
1.1945693
1.1891695
1.1915708
1.1953432
1.1934357
1.194386
1.1927521
1.1934089
1.1920759
1.1924436
1.1913484
1.1914745
1.190603
1.1907348
1.1902815
1.1901706
1.1907799
1.1945155
1.1922832
1.1936301
1.1916555
1.1926149
1.1909224
1.1916897
1.1902303
1.1909492
1.1897179
1.1905446
1.1896709
1.1904667
1.1904528
1.1919848
1.1905204
1.1910942
1.189844
1.1901213
1.1891002
1.189413
1.1886196
1.1889991
1.1885371
1.1888413
1.188927
1.1889676
1.189807
1.1884997
1.1873087
1.1878017
1.186771
1.187084
1.1862779
1.1865663
1.1860197
1.1861607
1.1859631
1.1857399
1.1859857
1.1855237
1.1861726
1.1859392
1.1851221
1.1856014
1.1848083
1.1852585
1.1845449
1.1849421
1.1843599
1.1845413
1.1840957
1.1840728
1.1836311
1.1840422
1.1832799
1.1845458
1.184067
1.1844602
1.1839127
1.1843111
1.1837738
1.1840579
1.183599
1.1836904
1.1832582
1.1833182
1.1827289
1.1835351
1.1824891
1.1836406
1.1833697
1.1836766
1.1833354
1.1835695
1.1832692
1.1833
1.183088
1.1829745
1.1827396
1.1826837
1.1822378
1.1830078
1.1821046
1.1829357
1.1828327
1.1829743
1.1828674
1.1828187
1.1827932
1.1825324
1.1825662
1.1822638
1.1822322
1.182013
1.1817696
1.182329
1.1816819
1.1822564
1.18234
1.1822485
1.1823569
1.1820662
1.1822274
1.1818173
1.1819839
1.18161
1.1816958
1.1813614
1.1812607
1.1816297
1.1811776
1.1816006
1.1817748
1.18157
1.1817623
1.1814037
1.1816205
1.1812196
1.1814187
1.1810694
1.1811917
1.1808242
1.1807809
1.1810834
1.1807126
1.1810639
1.181239
1.1810305
1.1812182
1.1809032
1.1811065
1.1807902
1.1809706
1.1806827
1.1807942
1.180439
1.1803966
1.1807105
1.1803401
1.1806462
1.1808139
1.1806169
1.1807984
1.1805358
1.1807256
1.1804793
1.1806404
1.1803931
1.1804847
1.1801497
1.1800795
1.1804374
1.1800259
1.180264
1.1804537
1.1802524
1.1804413
1.1802211
1.1804004
1.1802073
1.1803468
1.1801366
1.1801981
1.1799013
1.1797904
1.1802141
1.1797534
1.179869
1.1800245
1.1799039
1.1800548
1.1799343
1.1800725
1.1799704
1.1800717
1.1799321
1.1799608
1.1797151
1.1795725
1.1800407
1.1795546
1.1796295
1.1797539
1.1797132
1.1798339
1.1797981
1.1799075
1.17988
1.1799566
1.1798744
1.1798859
1.1796682
1.1795144
1.1800022
1.1795055
1.1725763
1.1728049
1.1723395
1.1725866
1.1720825
1.1722461
1.1713881
1.1714408
1.1725839
1.1728415
1.1723361
1.1725902
1.1720789
1.1722391
1.1713932
1.1714485
1.1725178
1.1727752
1.1722619
1.1724883
1.1720171
1.1721539
1.171366
1.1714158
1.1723189
1.1725385
1.1720811
1.1722542
1.1718829
1.1719864
1.1712928
1.1713189
1.1720467
1.172212
1.1718616
1.1719769
1.1717354
1.1718052
1.1712111
1.1712182
1.1717178
1.1718774
1.171607
1.1716737
1.1715846
1.1716329
1.1711378
1.1711301
1.1713343
1.1717057
1.1712526
1.171374
1.1714023
1.1714458
1.1710623
1.1710534
1.1710538
1.1718957
1.1708434
1.1712632
1.1711027
1.1711569
1.1709374
1.1709467
1.1710999
1.1724503
1.1706841
1.1715346
1.1707291
1.170938
1.1707651
1.1707802
1.1716404
1.1734029
1.1710569
1.1723419
1.1707547
1.1712809
1.1706142
1.1705401
1.1728685
1.1746366
1.1722401
1.1737313
1.1715775
1.1724927
1.1708077
1.1710082
1.1739557
1.1751843
1.1735355
1.1746306
1.1728597
1.1737006
1.171535
1.1719597
1.1739913
1.1749029
1.1736715
1.1745948
1.1729453
1.1738861
1.1712604
1.1719629
1.173805
1.174709
1.1734178
1.1744009
1.1725546
1.1737379
1.1707122
1.1716882
1.1734978
1.1747796
1.1728479
1.1741396
1.1718912
1.1732668
1.170195
1.1713254
1.1734948
1.1752823
1.1724565
1.1741895
1.1714288
1.1730522
1.17008
1.1714189
1.1745141
1.1766127
1.1731456
1.1753388
1.1720017
1.1740876
1.1709159
1.1727981
1.1764287
1.178681
1.1749824
1.1775606
1.1738217
1.1764896
1.1728915
1.1755334
1.1791204
1.1813347
1.1777344
1.1804467
1.1766783
1.1797329
1.1758187
1.179032
1.1825276
1.1846847
1.1810359
1.1836202
1.1801833
1.1832438
1.1793235
1.1826899
1.1861587
1.1883393
1.184288
1.1864993
1.1837319
1.186308
1.1830731
1.1856855
1.1888919
1.1905422
1.1870848
1.1888531
1.1869188
1.188615
1.1866592
1.187981
1.1900728
1.1912243
1.1887788
1.1901102
1.1891092
1.1899302
1.1891503
1.1895792
1.1889611
1.190423
1.1884665
1.1896481
1.1898805
1.1900632
1.1900028
1.1901664
1.1859333
1.1866125
1.1869592
1.1870369
1.1897945
1.1892362
1.1897807
1.1899416
1.1851603
1.1840017
1.1870447
1.1857055
1.1899252
1.1888521
1.1892484
1.1894439
1.185047
1.1836139
1.1871092
1.1856911
1.1898229
1.188826
1.1887815
1.1891369
1.1845997
1.1833343
1.1865841
1.1853298
1.1891265
1.1883084
1.18812
1.188531
1.1838319
1.1828793
1.1856212
1.1846691
1.1879956
1.187358
1.1872872
1.1876519
1.1829941
1.1823103
1.1845605
1.1838995
1.1867552
1.1863
1.1862633
1.1866396
1.1823848
1.1818341
1.1837706
1.1832901
1.1857204
1.1853887
1.1852255
1.1855818
1.1820068
1.1814731
1.1833058
1.1828576
1.1850597
1.1847408
1.1844235
1.1847039
1.1817529
1.1811887
1.183031
1.1825478
1.184677
1.184295
1.1839447
1.1841028
1.1815527
1.1809596
1.1828186
1.1823023
1.1844088
1.1839594
1.1836436
1.183678
1.1813746
1.180769
1.1826144
1.1820837
1.184172
1.1836794
1.183408
1.1833485
1.1813139
1.1807021
1.1825213
1.1819807
1.1840553
1.1835437
1.1833044
1.1832113
1.1744623
1.1746259
1.1701113
1.1697146
1.170139
1.1706601
1.1747226
1.174818
1.1702429
1.1698318
1.1702788
1.1707674
1.1752149
1.175239
1.1705789
1.170144
1.1705289
1.1709697
1.1757266
1.1756924
1.1709709
1.1704996
1.1707468
1.1711566
1.1761836
1.1761084
1.1713367
1.1708128
1.1709558
1.171344
1.1765186
1.1764148
1.1716523
1.1710812
1.1712056
1.1715666
1.1767782
1.1766521
1.17195
1.1713439
1.171507
1.1718264
1.1770047
1.1768557
1.1722696
1.1716405
1.1718291
1.1721072
1.1771913
1.1770133
1.1726253
1.1719797
1.1721984
1.1724417
1.1773095
1.1770846
1.1729993
1.1723365
1.1726469
1.1728653
1.1773447
1.1770489
1.1733516
1.172672
1.1731713
1.1733671
1.177261
1.1768828
1.1736526
1.1729854
1.1736864
1.1738809
1.177022
1.1765807
1.1739485
1.1733182
1.1741267
1.1742844
1.1767968
1.1762565
1.174326
1.1736779
1.1742869
1.1745033
1.1766393
1.176007
1.1745746
1.1739559
1.1742816
1.1744979
1.1763808
1.1757326
1.1743584
1.1738497
1.1735863
1.1738201
1.1758909
1.1752751
1.173934
1.1735293
1.1725292
1.1727033
1.1753651
1.1747766
1.1735899
1.1732643
1.1715836
1.1717187
1.1749161
1.1743721
1.1735848
1.1733655
1.1715104
1.1715352
1.1744711
1.1740271
1.1738987
1.1737665
1.172165
1.1719748
1.1739174
1.1736435
1.17372
1.1737666
1.1721122
1.1718357
1.1734678
1.1733305
1.1733262
1.1735009
1.1721655
1.1717686
1.1732921
1.1731454
1.1734647
1.173569
1.1725402
1.1720304
1.1733284
1.1730432
1.1741901
1.1740995
1.1732781
1.1726475
1.1734125
1.1729333
1.1752441
1.1749092
1.1740622
1.1733285
1.173229
1.1726004
1.1761718
1.1755871
1.1746609
1.1737641
1.1728047
1.1721548
1.1762018
1.1754941
1.1749626
1.1737867
1.1724209
1.1717753
1.1760524
1.1751884
1.1750266
1.1735665
1.1720635
1.1714343
1.1759061
1.1749061
1.1748867
1.1732806
1.1717463
1.1711402
1.1757851
1.1747255
1.174652
1.1730328
1.1715258
1.1709294
1.1757239
1.1746425
1.1744516
1.1728641
1.1714001
1.1708114
1.175751
1.1746473
1.1743557
1.1727623
1.1713401
1.1707514
1.1758663
1.1747152
1.1743653
1.1727094
1.1713391
1.1707232
1.1760608
1.1748284
1.1744228
1.1726996
1.1713891
1.1707101
1.1763116
1.1749501
1.1744707
1.1727307
1.1714434
1.1707063
1.1765287
1.1750352
1.1744618
1.1727564
1.1726297
1.1745783
1.1750945
1.1755065
1.1755941
1.1755597
1.1747887
1.1763691
1.1764004
1.1764647
1.176332
1.1761702
1.1726261
1.1746322
1.1752386
1.1756907
1.1758004
1.1757695
1.1748423
1.1764697
1.1765533
1.1766154
1.1764696
1.1762934
1.1726482
1.1747948
1.1755589
1.1761067
1.1762579
1.1762222
1.1749946
1.1767631
1.1769602
1.1770105
1.1768029
1.1765692
1.1726297
1.1749276
1.1758603
1.1765377
1.1767715
1.1767683
1.1750749
1.1770652
1.1774466
1.1775585
1.177323
1.1770242
1.1726281
1.1750256
1.1761012
1.1768956
1.1772186
1.177275
1.1751333
1.1773014
1.1778308
1.178024
1.1777987
1.1774826
1.1726878
1.1751396
1.1763071
1.1771666
1.1775473
1.1776444
1.1752479
1.1775225
1.1781324
1.1783536
1.178142
1.1778138
1.1728244
1.1753156
1.1765286
1.1774121
1.1778219
1.1779458
1.1754493
1.1778033
1.1784372
1.1786503
1.1784455
1.1781049
1.1730292
1.1755483
1.1767723
1.1776622
1.1780917
1.1782332
1.1757379
1.1781424
1.1787637
1.1789592
1.1787514
1.1784046
1.1732875
1.175836
1.1770172
1.1778904
1.1783393
1.1785031
1.1760923
1.1784836
1.1790664
1.1792418
1.1790367
1.1786956
1.1735726
1.1761594
1.1772341
1.1780646
1.1785289
1.1787312
1.1764599
1.1787886
1.17932
1.179462
1.1792626
1.178945
1.1738335
1.1764582
1.1773664
1.1781343
1.178614
1.1788699
1.1767791
1.179063
1.1795043
1.1795913
1.179406
1.1791202
1.1739759
1.1765773
1.1773474
1.1780568
1.1785437
1.1788542
1.1769759
1.1792408
1.1795827
1.1796122
1.1794097
1.179138
1.1738842
1.1764116
1.1771306
1.1778021
1.1783206
1.1786899
1.1769557
1.1792524
1.1795693
1.1795895
1.1794051
1.1791477
1.1735567
1.1759664
1.1766822
1.1773497
1.1779486
1.1784314
1.1767454
1.179103
1.1794983
1.1796372
1.1795732
1.1794308
1.1730343
1.1752867
1.1760024
1.1767346
1.1774317
1.1780803
1.1764058
1.1789403
1.1794434
1.1798067
1.179988
1.180072
1.172546
1.174474
1.1751993
1.1760006
1.1768638
1.1776725
1.1759331
1.1786784
1.1793218
1.1799877
1.1805002
1.1808695
1.17248
1.1738614
1.1745091
1.1753384
1.1763037
1.1772939
1.1755118
1.1783894
1.179167
1.1800837
1.1809508
1.1816759
1.1727989
1.173652
1.1740785
1.1748293
1.1757974
1.1769321
1.1752237
1.1781347
1.1789649
1.1800847
1.181296
1.1824218
1.1733481
1.1737963
1.173997
1.1745489
1.1754696
1.1766624
1.1751274
1.178009
1.1788482
1.1801243
1.1816581
1.1831872
1.1740322
1.1742078
1.1742079
1.1745259
1.1753823
1.1766116
1.1752863
1.1781422
1.1789596
1.1803538
1.1821762
1.1841214
1.1747228
1.1747438
1.1745449
1.174618
1.1754004
1.1766831
1.1754995
1.1783404
1.1791291
1.1806119
1.1827229
1.1850971
1.1753592
1.1752774
1.1748549
1.1746943
1.175417
1.1767534
1.1756052
1.1783943
1.1791857
1.1807496
1.183143
1.1859585
1.1758179
1.1756797
1.1750373
1.1746636
1.1753191
1.1766466
1.1754684
1.1781964
1.1789799
1.1805541
1.1830521
1.1861063
1.1760527
1.1759373
1.1751309
1.1745687
1.1751357
1.1763722
1.1751621
1.1779316
1.1787038
1.1801866
1.1825654
1.1855046
1.1760566
1.1760386
1.1751505
1.1744371
1.1748577
1.1759329
1.1747355
1.1775805
1.1783563
1.179689
1.1818119
1.1844156
1.175869
1.1759873
1.175109
1.1743152
1.1745453
1.1754268
1.1742523
1.1771271
1.1779041
1.1791003
1.1809341
1.183157
1.1755464
1.1758145
1.1750099
1.1742024
1.1742171
1.1748968
1.1737717
1.1766105
1.1773819
1.1784773
1.1800421
1.1819377
1.1751596
1.1755756
1.1748574
1.1740962
1.173962
1.1744537
1.1733413
1.1761238
1.1768684
1.1778684
1.1792097
1.1808648
1.1747859
1.1753302
1.1746712
1.1739901
1.1737787
1.1741002
1.1729773
1.1756905
1.1764003
1.1773301
1.1785016
1.1799945
1.1744724
1.1751204
1.1744941
1.1739034
1.173672
1.1738421
1.1726829
1.1753338
1.1760061
1.176893
1.1779507
1.1793231
1.1742361
1.1749622
1.1743551
1.1738487
1.1736463
1.1736746
1.1724552
1.1750697
1.1757157
1.1765737
1.1775436
1.1787919
1.1740641
1.1748643
1.1742814
1.1738376
1.1736775
1.1735817
1.1722859
1.174893
1.1755351
1.1763628
1.1772377
1.1783363
1.1739373
1.1748197
1.1742572
1.1738466
1.1737222
1.1735211
1.1721612
1.1747824
1.175418
1.176193
1.1769586
1.1778826
1.1738224
1.1747592
1.1741917
1.1738043
1.1737281
1.1734488
1.1720511
1.1746559
1.1752715
1.1759878
1.1766455
1.177412
1.1736363
1.1745929
1.174026
1.1736934
1.1736688
1.1733384
1.171871
1.1744417
1.1750662
1.1757569
1.1763498
1.177035
1.1734604
1.174456
1.1739305
1.1736347
1.1736261