/*--------------------------------*- C++ -*----------------------------------*\
| =========                 |                                                 |
| \\      /  F ield         | OpenFOAM: The Open Source CFD Toolbox           |
|  \\    /   O peration     | Version:  2206                                  |
|   \\  /    A nd           | Website:  www.openfoam.com                      |
|    \\/     M anipulation  |                                                 |
\*---------------------------------------------------------------------------*/
FoamFile
{
    version     2.0;
    format      ascii;
    arch        "LSB;label=32;scalar=64";
    class       volScalarField;
    location    "200";
    object      T;
}
// * * * * * * * * * * * * * * * * * * * * * * * * * * * * * * * * * * * * * //

dimensions      [0 0 0 1 0 0 0];

internalField   nonuniform List<scalar> 
50904
(
290.16214
290.03815
290.0922
289.9962
290.14402
290.02261
290.09376
289.99159
290.12178
290.00512
290.11247
290.01535
290.11869
290.00595
290.14634
290.0638
290.14082
290.03213
290.2047
290.13293
290.18657
290.0845
290.2922
290.22237
290.25583
290.16156
290.41444
290.35052
290.35156
290.26752
290.58498
290.52438
290.47246
290.40316
290.81952
290.75962
290.60812
290.55944
291.1227
291.06315
290.73781
290.71551
291.47483
291.41771
290.84176
290.84244
291.80887
291.75538
290.89297
290.91497
292.01168
291.95803
290.88281
290.92935
291.97927
291.93387
290.82496
290.89104
291.63876
291.62607
290.76334
290.82829
291.09894
291.13907
290.76611
290.79479
290.58695
290.66142
290.81329
290.78945
290.16369
290.24754
290.86758
290.80391
289.83184
289.9024
290.90404
290.83277
289.53036
289.57441
290.94868
290.90377
289.23933
289.24493
291.00835
291.01098
288.93995
288.90373
291.09517
291.13613
288.68058
288.62184
291.1795
291.24844
288.5313
288.45146
291.25466
291.34369
288.48292
288.38048
291.32738
291.43217
288.49942
288.379
291.39368
291.51659
288.55173
288.42181
291.45945
291.6022
288.61894
288.48884
291.52318
291.69086
288.69022
288.56703
291.58136
291.77641
288.76304
288.64989
291.63092
291.85453
288.8369
288.73591
291.67318
291.92525
288.91116
288.82614
291.71118
291.98712
288.98619
288.92409
291.75382
292.03689
289.06091
289.04149
291.81102
292.07773
289.13217
289.17611
291.85023
292.1023
289.1763
289.26219
290.42899
290.4003
290.98023
291.0406
291.22068
291.31935
291.33031
291.44996
291.37898
291.50597
291.39874
291.53381
291.40765
291.55258
290.45351
290.41315
291.02664
291.06956
291.28124
291.37393
291.4009
291.52509
291.4531
291.5882
291.47248
291.61078
291.47698
291.61607
290.51638
290.47939
291.11516
291.16536
291.38073
291.4919
291.5142
291.66987
291.58385
291.76623
291.62444
291.81932
291.65179
291.84708
290.59204
290.56731
291.2166
291.28689
291.50414
291.64256
291.66785
291.84882
291.77227
291.97332
291.84375
292.05286
291.89696
292.10488
290.68415
290.67373
291.33525
291.42887
291.64837
291.81284
291.83555
292.03547
291.95846
292.17076
292.04799
292.27172
292.12712
292.35675
290.80237
290.80325
291.48073
291.59897
291.81908
292.0133
292.02105
292.25095
292.15554
292.41692
292.28091
292.56765
292.40626
292.68894
290.96181
290.97299
291.67547
291.82294
292.0471
292.28156
292.2766
292.56128
292.45451
292.78292
292.63303
292.97306
292.78558
293.10485
291.19163
291.21507
291.95713
292.14372
292.376
292.66182
292.64725
292.98991
292.86949
293.24489
293.0799
293.44779
293.24729
293.57755
291.53349
291.56905
292.37636
292.61868
292.84844
293.19458
293.14916
293.52459
293.38198
293.76382
293.59006
293.95515
293.75809
294.0794
292.02183
292.0741
293.0048
293.32624
293.53939
293.95955
293.84898
294.25602
294.02745
294.4113
294.16395
294.5225
294.28739
294.61094
292.66663
292.73751
293.91512
294.3356
294.56063
295.08122
294.91278
295.37974
295.07705
295.47086
295.14023
295.48134
295.15361
295.45842
293.39526
293.47662
295.0818
295.56295
295.912
296.44989
296.36221
296.77257
296.57223
296.8406
296.64127
296.80311
296.62342
296.70703
294.00855
294.05699
296.18831
296.60044
297.19179
297.53534
297.69039
297.80718
297.91814
297.86553
297.99751
297.82536
297.98659
297.71325
294.22111
294.18007
296.57539
296.78954
297.51806
297.67866
297.96075
297.95483
298.14525
298.02401
298.20549
298.0064
298.19538
297.9331
293.86829
293.73686
296.09877
296.08574
296.88063
296.7968
297.19883
296.99041
297.32397
297.02408
297.36228
297.01067
297.35559
296.97806
293.04163
292.89185
294.98298
294.81754
295.51533
295.22513
295.63634
295.18257
295.63797
295.06195
295.60918
294.95886
295.5737
294.88674
292.10576
291.97951
293.64032
293.38887
293.87349
293.42685
293.76869
293.09719
293.62464
292.77764
293.50729
292.54308
293.41999
292.38558
291.20654
291.09819
292.19854
291.8723
292.07497
291.45493
291.7321
290.82526
291.4448
290.32193
291.24586
289.97733
291.11439
289.75419
290.40277
290.27059
290.75521
290.2699
290.22707
289.36847
289.66019
288.51493
289.26373
287.92816
289.02144
287.56512
288.88464
287.35376
289.69402
289.46835
289.38808
288.58689
288.41183
287.19496
287.60477
286.19217
287.10735
285.61417
286.84586
285.32037
286.73959
285.20317
289.09294
288.71965
288.3406
287.12735
286.99399
285.35071
285.95447
284.24747
285.34585
283.70208
285.05665
283.49467
284.97831
283.49056
288.61235
288.13964
287.84203
286.34758
286.42587
284.52874
285.33148
283.52885
284.70899
283.12585
284.43933
283.05616
284.40299
283.17616
288.28407
287.9079
288.00226
286.75903
287.12252
285.50833
286.46542
284.86338
286.14638
284.64893
286.07253
284.67331
286.16055
284.8395
288.09143
287.87076
288.29572
287.52641
288.03055
286.98068
287.80441
286.72294
287.75066
286.69419
287.82717
286.79966
287.99647
286.98994
287.99366
287.87849
288.47433
288.08623
288.59699
288.0613
288.70012
288.10753
288.84233
288.22542
289.03952
288.39671
289.3191
288.64786
287.96466
287.89354
288.54396
288.31642
288.76489
288.47655
288.9424
288.63551
289.1195
288.80462
289.3141
289.01023
289.50709
289.25531
287.98494
287.93177
288.61968
288.42826
288.83327
288.59485
288.99069
288.73389
289.13576
288.87032
289.28419
289.02975
289.43135
289.21313
288.03322
287.99309
288.73185
288.53683
288.9296
288.6819
289.06739
288.79581
289.19517
288.9111
289.32792
289.04807
289.46319
289.20911
288.09781
288.07123
288.87001
288.66696
289.06264
288.79742
289.18775
288.89522
289.29948
288.99629
289.41784
289.11608
289.54499
289.25918
288.17139
288.16152
289.02415
288.82085
289.22005
288.94662
289.33968
289.03908
289.44089
289.1315
289.54213
289.23356
289.6544
289.35695
288.25322
288.26139
289.19777
289.00374
289.40132
289.12955
289.52005
289.22333
289.61805
289.31681
289.71158
289.41386
289.80785
289.51828
288.342
288.36441
289.3979
289.22348
289.61806
289.35749
289.73801
289.4528
289.84281
289.55584
289.94021
289.65713
290.03618
289.75932
288.42419
288.45919
289.61937
289.47491
289.88613
289.64703
290.01044
289.75056
290.12566
289.86351
290.23307
289.9742
290.33176
290.07939
288.4827
288.52034
289.82229
289.71491
290.1994
289.99966
290.34881
290.13205
290.46875
290.25161
290.57504
290.36736
290.66389
290.46874
288.49907
288.5332
289.94143
289.87286
290.47263
290.32425
290.68503
290.5326
290.80466
290.6561
290.89036
290.74833
290.95347
290.81796
288.48395
288.51839
289.9456
289.89661
290.55343
290.43014
290.82595
290.70605
290.95919
290.84363
291.0328
290.91951
291.08178
290.97034
291.414
291.56922
291.42354
291.58702
291.43593
291.59968
291.45407
291.60827
291.49543
291.62149
291.61498
291.66057
291.47584
291.61434
291.47539
291.61207
291.48053
291.61346
291.49677
291.62097
291.54707
291.64599
291.66724
291.68622
291.6713
291.85903
291.68336
291.85776
291.69458
291.85133
291.71515
291.84575
291.757
291.84373
291.79607
291.8058
291.94099
292.14033
291.96875
292.15609
291.98309
292.15497
291.99267
292.14161
291.99849
292.10685
291.96131
291.99676
292.20033
292.42378
292.24593
292.45666
292.26455
292.46131
292.26716
292.44372
292.25041
292.39111
292.1761
292.2509
292.50578
292.76942
292.55898
292.80195
292.57652
292.80107
292.57006
292.77372
292.5345
292.7063
292.43557
292.54863
292.89376
293.18158
292.94393
293.20496
292.95276
293.19401
292.93251
293.1545
292.8742
293.06953
292.74316
292.8906
293.35769
293.64452
293.40172
293.65721
293.40135
293.63703
293.36918
293.58786
293.29231
293.48916
293.13117
293.29295
293.86682
294.1403
293.90534
294.14625
293.89794
294.11947
293.85825
294.06268
293.77189
293.95338
293.60051
293.7491
294.37955
294.66174
294.41471
294.66381
294.40258
294.6305
294.35729
294.56664
294.26782
294.45215
294.09559
294.24021
295.14016
295.41839
295.10954
295.36702
295.05239
295.29392
294.96268
295.18891
294.84104
295.04216
294.66424
294.82156
296.53435
296.56531
296.39247
296.41653
296.22265
296.26466
296.00582
296.08191
295.76213
295.86553
295.52633
295.58649
297.89911
297.54055
297.73465
297.3575
297.52882
297.17841
297.25736
296.96624
296.94121
296.70475
296.67022
296.35637
298.11812
297.79671
297.96377
297.63867
297.77342
297.48205
297.52448
297.29138
297.21551
297.04148
296.87866
296.6948
297.30849
296.92083
297.21067
296.84359
297.08604
296.77172
296.91715
296.69202
296.68434
296.59292
296.38494
296.4526
295.52052
294.81066
295.44366
294.72086
295.35355
294.65207
295.23992
294.5998
295.08862
294.5602
294.88943
294.5219
293.32907
292.23537
293.22234
292.0628
293.10241
291.90288
292.95398
291.74353
292.75311
291.56173
292.4702
291.28997
290.99687
289.5554
290.87076
289.33104
290.72877
289.10443
290.54739
288.84978
290.28564
288.51624
289.87836
287.97854
288.80185
287.20422
288.74028
287.06242
288.68736
286.93226
288.62771
286.78945
288.52922
286.58382
288.31695
286.18768
286.72957
285.18753
286.80152
285.2606
286.95037
285.4125
287.19659
285.64978
287.55081
285.95704
287.93519
286.20563
285.04409
283.63351
285.25259
283.9561
285.61131
284.45607
286.20914
285.19191
287.11248
286.19574
288.18424
287.2983
284.53834
283.46346
284.83958
283.98319
285.31728
284.73926
286.16387
285.81118
287.46901
287.22505
288.91944
288.68898
286.4006
285.15172
286.8505
285.67526
287.52612
286.42993
288.44351
287.48767
289.48958
288.79543
290.26531
289.9192
288.33118
287.32161
288.92545
287.87905
289.54723
288.55749
290.13401
289.34108
290.57613
290.09911
290.83787
290.5962
289.70415
289.06443
290.0442
289.56648
290.27814
289.95909
290.46494
290.27691
290.66013
290.53454
290.89656
290.79805
289.69617
289.52712
289.85069
289.75496
289.99181
289.93597
290.16098
290.12277
290.40897
290.3631
290.75713
290.69442
289.5906
289.42079
289.74633
289.61461
289.89549
289.78758
290.07409
289.98028
290.33494
290.23757
290.68099
290.59081
289.61581
289.40005
289.77254
289.58657
289.92661
289.75688
290.11269
289.94968
290.37118
290.20815
290.67355
290.5484
289.69458
289.43813
289.85381
289.62039
290.01328
289.79101
290.20389
289.9867
290.45281
290.24359
290.70814
290.55393
289.79938
289.52473
289.96094
289.70506
290.12329
289.8765
290.31149
290.07193
290.54602
290.32249
290.76423
290.59832
289.93409
289.6595
290.08874
289.83166
290.24816
290.00049
290.4344
290.19144
290.65928
290.4335
290.83802
290.67084
290.15451
289.88617
290.28891
290.02604
290.43471
290.17606
290.60744
290.36275
290.79231
290.58446
290.91584
290.75684
290.44363
290.20102
290.56036
290.32618
290.67903
290.45484
290.80425
290.59961
290.91987
290.74542
290.99328
290.84633
290.75277
290.57143
290.83299
290.66141
290.9073
290.74359
290.97833
290.82227
291.03885
290.89342
291.08011
290.94719
291.00999
290.87986
291.05611
290.92872
291.09762
290.97261
291.13518
291.01262
291.16938
291.04964
291.1957
291.08061
291.12637
291.01673
291.16319
291.05408
291.19711
291.08897
291.22906
291.12232
291.26143
291.15672
291.29101
291.19611
291.66009
291.63426
291.62639
291.5802
291.60167
291.55936
291.60523
291.55732
291.63473
291.57112
291.70789
291.61064
291.67496
291.63207
291.61943
291.55975
291.59571
291.53615
291.60346
291.54026
291.63911
291.56274
291.71885
291.62189
291.7041
291.66559
291.59182
291.54244
291.57874
291.52618
291.61083
291.54309
291.67718
291.59162
291.79793
291.69462
291.80618
291.79686
291.66002
291.63114
291.63261
291.5949
291.65397
291.6041
291.71632
291.64909
291.84418
291.7563
292.01
292.04054
291.86625
291.87967
291.81681
291.82448
291.80127
291.80064
291.80863
291.79637
291.86175
291.82957
292.28639
292.35943
292.17239
292.23165
292.12093
292.17706
292.08733
292.14155
292.05695
292.10671
292.03363
292.0707
292.60622
292.71946
292.52833
292.63367
292.49022
292.59341
292.45806
292.5585
292.42145
292.51755
292.37
292.46094
292.99167
293.13189
292.93332
293.06498
292.90357
293.03182
292.87463
292.99813
292.8398
292.95695
292.79102
292.90304
293.46686
293.60817
293.41489
293.55257
293.38689
293.52175
293.35563
293.48524
293.3162
293.43787
293.26534
293.37977
293.97507
294.11024
293.92296
294.0638
293.89001
294.03049
293.85089
293.98582
293.80083
293.92478
293.73931
293.85074
294.53434
294.68653
294.45762
294.63574
294.39781
294.59125
294.32494
294.52401
294.23536
294.42377
294.13391
294.29614
295.41285
295.43144
295.35598
295.3793
295.29788
295.33299
295.20908
295.26323
295.04111
295.14116
294.78506
294.94747
296.61672
296.12884
296.64868
296.01548
296.63816
295.93251
296.59137
295.81949
296.50362
295.63602
296.34516
295.40109
296.68486
296.43201
296.58148
296.27415
296.50988
296.16328
296.42064
296.0131
296.26906
295.76882
296.00585
295.49386
296.16902
296.33397
296.04612
296.26484
295.9755
296.22579
295.88876
296.18603
295.73256
296.11175
295.47336
295.91833
294.75351
294.43677
294.71776
294.35288
294.71339
294.33624
294.71129
294.3489
294.70538
294.38659
294.68608
294.4741
292.25962
290.93382
292.22271
290.69563
292.24189
290.63614
292.27215
290.64188
292.31897
290.6938
292.41458
290.83824
289.4987
287.32614
289.34506
286.91358
289.30486
286.77181
289.29309
286.71746
289.29066
286.69142
289.30352
286.69535
288.04374
285.60812
287.89821
285.19843
287.83279
285.03302
287.78119
284.90985
287.70864
284.762
287.57286
284.55747
288.15263
286.17052
288.22916
286.03427
288.24225
285.97159
288.23039
285.90375
288.19044
285.79126
288.09194
285.59858
288.93441
287.92138
289.22548
288.1007
289.31746
288.16085
289.37235
288.20727
289.42684
288.25503
289.49306
288.28879
289.8168
289.45512
290.10247
289.67269
290.19713
289.75695
290.2775
289.84778
290.37925
289.97506
290.51367
290.13216
290.57339
290.35877
290.63431
290.43736
290.67214
290.47979
290.72288
290.54113
290.81231
290.64604
290.99858
290.81342
290.9763
290.76209
291.03209
290.7762
291.0792
290.80846
291.15446
290.87412
291.29555
291.01108
291.47491
291.24773
291.11044
291.00956
291.2154
291.09218
291.27493
291.14834
291.34956
291.23511
291.45755
291.37785
291.55196
291.50425
291.03897
290.96785
291.15766
291.06973
291.21383
291.12661
291.26884
291.20082
291.33081
291.30199
291.38422
291.38586
290.93502
290.86765
291.02884
290.96118
291.07079
291.00932
291.1081
291.06796
291.14793
291.14606
291.18874
291.21887
290.86577
290.79516
290.92497
290.87629
290.95283
290.91854
290.97951
290.96494
291.01028
291.02169
291.04839
291.08124
290.83954
290.74626
290.8687
290.79524
290.88744
290.82453
290.91085
290.85811
290.9416
290.90078
290.98526
290.95632
290.86019
290.73329
290.87274
290.74894
290.88812
290.76688
290.91146
290.79528
290.94404
290.83709
290.99375
290.90009
290.90707
290.76267
290.91887
290.77072
290.93648
290.78897
290.96105
290.8182
290.99355
290.86046
291.04215
290.92344
290.96678
290.81868
290.98402
290.83173
291.00579
290.85348
291.03134
290.88207
291.06197
290.92094
291.10277
290.97667
291.03349
290.89035
291.05592
290.9101
291.08089
290.93502
291.10488
290.96163
291.12935
290.99266
291.15568
291.03255
291.11131
290.97658
291.13164
290.99734
291.15374
291.02075
291.16927
291.03982
291.17923
291.05664
291.18265
291.07324
291.21131
291.09886
291.20981
291.09784
291.21113
291.10172
291.20429
291.10054
291.19101
291.09568
291.17237
291.08621
291.30419
291.2277
291.28993
291.21015
291.2675
291.19207
291.24171
291.17297
291.21154
291.15021
291.17424
291.12168
291.83449
291.69751
291.98777
291.8178
292.15339
291.9604
292.30819
292.10146
292.41939
292.24095
292.4777
292.40728
292.49631
292.29244
291.84958
291.72757
292.00724
291.86601
292.17489
292.02249
292.32421
292.16277
292.42596
292.28059
292.47936
292.4096
292.50711
292.29535
291.9488
291.84063
292.0956
291.98731
292.2348
292.1276
292.35307
292.24744
292.4353
292.34041
292.48413
292.4071
292.5233
292.32326
291.99927
291.90356
292.13841
292.04438
292.26262
292.17255
292.36705
292.2787
292.44497
292.35404
292.49828
292.39528
292.54594
292.36498
291.98306
291.91984
292.1229
292.04258
292.25872
292.17684
292.37822
292.29802
292.47204
292.38544
292.53634
292.43217
292.58592
292.44006
292.05344
292.06499
292.14081
292.10684
292.27567
292.21473
292.40749
292.35119
292.51877
292.47132
292.59654
292.54319
292.64265
292.56561
292.32031
292.40372
292.30776
292.36334
292.37699
292.3768
292.49247
292.47663
292.60207
292.60352
292.68134
292.69479
292.72069
292.71992
292.73121
292.84423
292.66727
292.77901
292.63413
292.71489
292.6703
292.71311
292.7375
292.78345
292.79842
292.86278
292.82318
292.88368
293.20956
293.3247
293.14125
293.26248
293.05147
293.17404
292.97874
293.07803
292.95254
293.03508
292.95405
293.04378
292.94422
293.04039
293.68092
293.78836
293.61581
293.72517
293.52147
293.63637
293.39254
293.50549
293.2584
293.35628
293.15092
293.24379
293.07462
293.17825
294.05349
294.19612
293.97899
294.10948
293.8866
294.00816
293.75852
293.86987
293.58107
293.67641
293.37083
293.4532
293.19682
293.28303
294.56435
294.75562
294.38722
294.58068
294.21691
294.39616
294.03803
294.18955
293.82197
293.93606
293.54728
293.62653
293.28665
293.3532
296.09829
295.21866
295.71969
295.05233
295.17319
294.83812
294.58523
294.53824
294.09249
294.16133
293.68272
293.76159
293.34472
293.41048
295.74441
295.33195
295.50125
295.1992
295.20401
295.02918
294.79534
294.76638
294.27998
294.35744
293.766
293.86593
293.38461
293.46699
295.23173
295.70858
295.04713
295.53316
294.87615
295.34272
294.65484
295.06669
294.29688
294.6412
293.80742
294.04514
293.40988
293.51849
294.64628
294.57796
294.58465
294.64792
294.50862
294.67909
294.40349
294.6511
294.20682
294.48505
293.84236
294.11583
293.42984
293.56402
292.57836
291.09382
292.76193
291.37937
292.97274
291.72484
293.20031
292.14716
293.43347
292.69762
293.55299
293.37458
293.39426
293.47604
289.37365
286.77322
289.49174
286.902
289.73562
287.16528
290.19625
287.69181
291.07627
288.9055
292.4992
291.67582
293.12982
293.07736
287.4151
284.37368
287.26669
284.22266
287.18472
284.12015
287.37382
284.25764
288.31452
285.45162
290.70686
289.50978
292.55806
292.34474
287.94605
285.38462
287.74807
285.14797
287.48957
284.85306
287.28151
284.56485
287.51686
284.84003
289.18378
287.7241
291.89714
291.7209
289.52961
288.27667
289.53096
288.21923
289.47477
288.08348
289.30811
287.79673
289.05645
287.31797
289.20887
287.38967
291.19208
290.77674
290.61085
290.23277
290.70597
290.33963
290.8119
290.46365
290.92159
290.59991
290.97735
290.67722
290.88825
290.59112
290.95588
290.71433
291.17027
290.95387
291.29068
291.07747
291.37634
291.20169
291.4345
291.32688
291.44284
291.41928
291.39313
291.45138
291.27324
291.4418
291.55748
291.39448
291.5914
291.47876
291.59226
291.52475
291.54572
291.53707
291.42886
291.50254
291.27691
291.4349
291.13598
291.37405
291.5796
291.5433
291.57662
291.55632
291.52479
291.54193
291.40549
291.47992
291.23081
291.36815
291.03829
291.23595
290.81989
291.05678
291.40081
291.41152
291.39165
291.41641
291.33271
291.39086
291.2105
291.31531
291.03876
291.19715
290.83
291.04341
290.54379
290.7856
291.21017
291.24827
291.21503
291.25976
291.1832
291.24439
291.09131
291.18487
290.9303
291.07639
290.70325
290.90652
290.35286
290.6002
291.07916
291.11453
291.10417
291.13687
291.10834
291.14453
291.04747
291.11344
290.88833
291.01233
290.64081
290.82587
290.24435
290.48344
291.03015
291.00253
291.07525
291.04777
291.09914
291.09015
291.04975
291.08603
290.88425
290.98564
290.62299
290.78738
290.20317
290.42559
291.04969
290.96073
291.10143
291.02337
291.12054
291.08183
291.06139
291.08035
290.89212
290.9748
290.63159
290.7724
290.20486
290.40838
291.09478
290.9843
291.13585
291.04394
291.13917
291.09079
291.06574
291.07536
290.89817
290.96457
290.64711
290.76601
290.2205
290.40835
291.13907
291.02697
291.16017
291.07142
291.14381
291.09548
291.05776
291.06098
290.89759
290.95033
290.65871
290.76088
290.23713
290.41418
291.17096
291.06476
291.16823
291.08681
291.12918
291.08488
291.03543
291.03343
290.88462
290.92698
290.6582
290.74926
290.24455
290.41542
291.17406
291.08095
291.14714
291.07682
291.09188
291.05161
290.99544
290.98966
290.8533
290.88733
290.64088
290.72426
290.24146
290.40902
291.14596
291.07119
291.10003
291.04462
291.03568
291.00223
290.93987
290.93238
290.80346
290.83252
290.60821
290.69059
290.22986
290.39712
291.1351
291.09192
291.08153
291.05036
291.01179
290.99529
290.91156
290.91501
290.77037
290.80289
290.58122
290.66641
290.2223
290.39159
292.48677
291.80395
292.55027
291.62031
292.71069
292.27072
292.82214
292.79203
292.51559
291.86717
292.58001
291.72162
292.71071
292.33536
292.82019
292.78012
292.55008
292.04895
292.61736
291.99131
292.7175
292.46666
292.8261
292.76845
292.57767
292.24909
292.64432
292.27211
292.72976
292.56297
292.83812
292.7717
292.61292
292.40694
292.67153
292.44661
292.74536
292.62705
292.84992
292.78487
292.658
292.54609
292.70244
292.56514
292.76262
292.67232
292.85831
292.80065
292.71959
292.68255
292.74178
292.66634
292.78187
292.7101
292.86264
292.81628
292.80495
292.83189
292.79766
292.77823
292.8054
292.7549
292.86349
292.83175
292.91098
292.98548
292.87591
292.90691
292.83936
292.82142
292.86295
292.84764
293.02679
293.12419
292.97013
293.03937
292.89047
292.91335
292.86282
292.87047
293.12891
293.21912
293.06014
293.14259
292.95097
293.007
292.86532
292.90919
293.18661
293.25489
293.11028
293.18143
292.98901
293.0565
292.86271
292.93379
293.20744
293.26803
293.11543
293.17864
292.98247
293.055
292.83102
292.91726
293.22356
293.28716
293.11107
293.16906
292.96482
293.03366
292.79885
292.8823
293.2312
293.3003
293.09533
293.14486
292.93571
292.97544
292.77552
292.80898
293.23006
293.29369
293.07116
293.08894
292.90149
292.86151
292.7622
292.64407
293.18533
293.2101
293.00902
292.95032
292.83305
292.63381
292.7158
292.29836
292.94687
292.83699
292.77855
292.55241
292.60216
292.13757
292.50489
291.68271
292.40261
292.1104
292.24638
291.81124
292.08523
291.38703
291.99847
290.89666
291.78077
291.50999
291.49487
290.9816
291.3038
290.52534
291.23322
290.05077
291.36023
291.25493
290.87098
290.5771
290.4782
289.88686
290.34274
289.4382
291.1916
291.2317
290.60613
290.62496
289.89395
289.67961
289.7038
289.30666
291.1841
291.41438
290.54762
290.83136
289.72493
289.78383
289.49244
289.365
290.95853
291.28225
290.40548
290.80365
289.66467
289.92208
289.41048
289.54839
290.57423
290.83608
290.18785
290.49866
289.6481
289.95625
289.43556
289.72845
290.26649
290.48173
290.00165
290.2262
289.61125
289.90778
289.47295
289.79474
290.00615
290.26325
289.77988
290.02723
289.52129
289.81912
289.5026
289.81869
289.85078
290.12993
289.63589
289.90591
289.47428
289.77249
289.55391
289.85692
289.79519
290.06975
289.60293
289.87365
289.49587
289.78713
289.62664
289.91561
289.79805
290.05786
289.63323
289.89138
289.55364
289.83381
289.70891
289.98194
289.82593
290.06858
289.68438
289.92882
289.62364
289.89316
289.79383
290.0506
289.85984
290.08701
289.73917
289.97076
289.69353
289.9525
289.87343
290.11643
289.88869
290.10404
289.78727
290.00865
289.75533
290.0044
289.94091
290.17304
289.91047
290.11808
289.82758
290.0416
289.80738
290.04818
289.99743
290.21918
289.93314
290.1362
289.86629
290.07582
289.85498
290.08937
290.0477
290.25751
289.95904
290.16417
289.90276
290.11307
289.89211
290.12294
290.08459
290.28443
290.31148
290.35773
291.6433
291.70445
293.51851
293.40724
290.27488
290.33006
291.61259
291.66973
293.45946
293.35031
290.23632
290.30049
291.54748
291.59843
293.36266
293.26161
290.22981
290.29798
291.49685
291.54338
293.28279
293.18312
290.24888
290.31632
291.46249
291.50565
293.20123
293.09741
290.28866
290.35078
291.44249
291.47819
293.10676
292.99453
290.34699
290.39926
291.43058
291.45547
292.99521
292.86999
290.42351
290.46084
291.42437
291.43628
292.86702
292.72287
290.5162
290.53328
291.42352
291.42009
292.72326
292.55208
290.61785
290.61082
291.42835
291.40662
292.56617
292.36745
290.7223
290.68907
291.43712
291.3958
292.40336
292.18771
290.82419
290.76137
291.45147
291.39467
292.24978
292.02335
290.9139
290.82504
291.47833
291.41723
292.119
291.88037
290.9948
290.89965
291.52305
291.47465
292.00169
291.74928
291.09568
291.02824
291.59795
291.58847
291.89344
291.63788
291.23042
291.22733
291.68195
291.71387
291.78815
291.56232
291.37188
291.43939
291.74244
291.79631
291.7011
291.52348
291.50488
291.61222
291.77468
291.81287
291.66992
291.5525
291.60698
291.72111
291.79281
291.80493
291.70653
291.65325
291.68747
291.77489
291.81145
291.80225
291.72311
291.73397
291.73475
291.77799
291.76551
291.71221
291.65617
291.70512
291.72328
291.72385
291.65403
291.57008
291.54021
291.5961
291.6457
291.66328
291.48209
291.39059
291.37774
291.41474
291.58916
291.65149
291.26043
291.1843
291.20441
291.20425
291.56956
291.69301
291.05696
291.02837
291.01232
290.92445
291.59133
291.78963
290.9037
290.91132
290.77054
290.50187
291.65043
291.91
290.75368
290.85111
290.44048
289.96585
291.71819
292.0483
290.62707
290.88299
289.97314
289.67231
291.77666
292.1974
290.56226
291.01672
289.53261
289.66514
291.8253
292.34184
290.56314
291.16961
289.37942
289.73725
291.85932
292.46184
290.59331
291.25653
289.39383
289.84338
291.87172
292.54977
290.62059
291.29087
289.43346
289.91757
291.85242
292.6023
290.62407
291.28792
289.47177
289.96459
291.79174
292.61708
290.58684
291.24305
289.50427
289.99147
291.68819
292.59265
290.48827
291.13457
289.53525
290.00204
291.61052
292.57015
290.3511
290.98561
289.56766
289.99948
291.37298
290.733
290.45303
290.40768
290.346
290.2605
291.04826
290.70663
290.45896
290.37327
290.27756
290.18028
291.361
290.70786
290.4256
290.38099
290.32155
290.23796
290.98861
290.68833
290.44726
290.36605
290.27572
290.18281
291.32583
290.66719
290.39049
290.34862
290.29213
290.21185
290.88969
290.64902
290.41374
290.35341
290.2793
290.19666
291.2989
290.62835
290.36728
290.33451
290.2821
290.20626
290.82225
290.60962
290.382
290.35194
290.29693
290.22395
291.2709
290.59259
290.34993
290.33492
290.29107
290.22363
290.76881
290.57714
290.37057
290.3705
290.33377
290.27434
291.2361
290.55503
290.33717
290.34373
290.3178
290.26297
290.71944
290.55099
290.38694
290.41348
290.39757
290.35288
291.19161
290.51236
290.32983
290.35895
290.35997
290.32319
290.66955
290.53157
290.43282
290.49223
290.50189
290.46913
291.13987
290.46516
290.3279
290.38424
290.41768
290.40478
290.61409
290.5192
290.51248
290.61944
290.65844
290.63728
291.08591
290.4113
290.32906
290.41977
290.49033
290.50577
290.54751
290.52719
290.6285
290.80441
290.87821
290.87087
291.03508
290.35463
290.32941
290.46092
290.57126
290.61697
290.47862
290.55274
290.79742
291.06364
291.17274
291.17567
290.99788
290.30384
290.32667
290.49921
290.64712
290.72383
290.41128
290.5873
291.00978
291.38334
291.52623
291.53189
291.00988
290.27161
290.31952
290.5178
290.69565
290.80251
290.34769
290.60154
291.17886
291.65321
291.8368
291.86052
291.12863
290.27604
290.30044
290.49436
290.69151
290.82576
290.30747
290.55287
291.1992
291.74854
291.98182
292.04475
291.4247
290.32978
290.28961
290.44829
290.64074
290.79037
290.30777
290.43182
291.03225
291.58616
291.87858
291.98207
292.03049
290.56854
290.33382
290.43454
290.5826
290.72178
290.36986
290.20356
290.63893
291.1239
291.4353
291.58766
292.93285
291.05526
290.59486
290.53557
290.60103
290.67619
290.55776
289.9344
290.13713
290.51815
290.81323
290.99773
293.6596
291.61792
291.02991
290.80934
290.74017
290.73714
290.85128
289.7917
289.78341
290.01131
290.26433
290.45682
293.99557
292.09718
291.46592
291.12872
290.9491
290.85434
291.22167
289.72995
289.55459
289.66084
289.85887
290.03444
294.02445
292.3873
291.77791
291.39361
291.13377
290.96331
291.61595
289.74988
289.39625
289.44383
289.57701
289.719
293.75562
292.49429
291.93936
291.54496
291.24465
291.02352
291.93102
289.79956
289.28743
289.28293
289.35599
289.44585
293.32508
292.46376
292.02815
291.63682
291.3165
291.06866
292.23294
289.93244
289.3201
289.15188
289.1655
289.19366
292.92072
292.34672
292.06574
291.73125
291.39446
291.11901
292.53754
290.20664
289.51421
289.14148
288.99558
288.95347
292.64564
292.22996
292.11278
291.85624
291.52781
291.21329
292.856
290.63566
289.853
289.30293
288.96056
288.7588
292.48917
292.15195
292.14999
291.9597
291.63536
291.29918
293.1457
291.01214
290.18927
289.49117
289.01245
288.68794
292.43646
292.12954
292.2007
292.04589
291.71748
291.37569
293.41343
291.3326
290.46901
289.67295
289.09262
288.69568
292.47474
292.15191
292.26176
292.12292
291.78157
291.44958
293.66766
291.60586
290.68992
289.83315
289.18611
288.74673
292.57207
292.20354
292.32288
292.19018
291.83081
291.51335
293.90256
291.83701
290.86431
289.96649
289.28156
288.81449
292.70433
292.26851
292.37673
292.24662
291.87317
291.56925
294.11314
292.03216
291.00498
290.07766
289.37091
288.88731
292.85335
292.3355
292.4186
292.29046
291.91053
291.61955
294.29935
292.19504
291.11814
290.17219
289.45343
288.9633
292.98976
292.39836
292.44714
292.32061
291.93727
291.65734
294.46057
292.3308
291.20704
290.25185
289.52695
289.03699
293.09376
292.45242
292.4652
292.33822
291.95206
291.68355
294.59718
292.44404
291.27844
290.31561
289.58944
289.10316
293.17461
292.4957
292.47556
292.3447
291.95521
291.69973
294.71272
292.53811
291.33841
290.36331
289.64091
289.16299
293.24317
292.52807
292.47885
292.34003
291.94574
291.70741
294.81052
292.61645
291.38879
290.39955
289.68428
289.22024
293.30427
292.55196
292.47563
292.32379
291.92355
291.71135
294.89772
292.68588
291.4335
290.42992
289.72428
289.27874
293.3675
292.57114
292.47189
292.30455
291.90141
291.72853
294.98753
292.76109
291.48141
290.46686
289.76865
289.33939
293.41963
292.58764
292.47644