/*--------------------------------*- C++ -*----------------------------------*\
| =========                 |                                                 |
| \\      /  F ield         | OpenFOAM: The Open Source CFD Toolbox           |
|  \\    /   O peration     | Version:  2206                                  |
|   \\  /    A nd           | Website:  www.openfoam.com                      |
|    \\/     M anipulation  |                                                 |
\*---------------------------------------------------------------------------*/
FoamFile
{
    version     2.0;
    format      ascii;
    arch        "LSB;label=32;scalar=64";
    class       volVectorField;
    location    "200";
    object      U;
}
// * * * * * * * * * * * * * * * * * * * * * * * * * * * * * * * * * * * * * //

dimensions      [0 1 -1 0 0 0 0];

internalField   nonuniform List<vector> 
50904
(
(-9.2507946 -4.3229456 -0.30716986)
(-10.176728 -3.9257296 -0.17224135)
(-10.487268 -2.2126695 0.067651686)
(-11.995734 -1.6472021 0.12704956)
(-25.33501 -8.3817507 -0.012115464)
(-26.500865 -8.0369637 0.018156309)
(-27.192995 -5.3596784 0.016531446)
(-28.897216 -4.5979627 0.052256006)
(-35.045321 -8.8851804 -0.063319353)
(-36.433795 -8.741134 0.01832993)
(-37.625999 -6.2216916 -0.032724416)
(-39.016935 -5.6020957 0.038717418)
(-39.792541 -8.3777067 -0.017961398)
(-41.468591 -8.4391157 0.083380813)
(-43.398654 -6.1019235 -0.10381522)
(-44.656865 -5.5899666 -0.0089259639)
(-41.907943 -7.8609119 0.032115602)
(-43.786736 -8.0109878 0.13792338)
(-46.190438 -5.75877 -0.19398347)
(-47.479774 -5.3257504 -0.072283466)
(-42.459841 -7.5440078 0.11011402)
(-44.459659 -7.7279709 0.2266548)
(-47.202642 -5.5087649 -0.27977643)
(-48.526791 -5.1390414 -0.14066757)
(-41.94646 -7.3959935 0.22385327)
(-44.000368 -7.6597376 0.33321398)
(-46.93886 -5.4140047 -0.37007472)
(-48.334296 -5.1135905 -0.22419254)
(-40.611166 -7.3442968 0.38643627)
(-42.650919 -7.7711863 0.47580481)
(-45.514798 -5.4464662 -0.43837613)
(-47.063671 -5.2437899 -0.30708088)
(-38.615741 -7.3488184 0.62079329)
(-40.550456 -7.9730235 0.67619652)
(-42.950967 -5.5689222 -0.44131725)
(-44.699825 -5.5028276 -0.35295037)
(-36.207207 -7.3708595 0.96828219)
(-37.936865 -8.1821976 0.96325177)
(-39.433301 -5.7468368 -0.34696063)
(-41.327865 -5.8494937 -0.32215037)
(-33.652769 -7.3341824 1.4478504)
(-35.098021 -8.3502338 1.3488804)
(-35.401517 -5.9395982 -0.14155321)
(-37.316048 -6.2374795 -0.21491557)
(-31.252812 -7.1874215 2.1155971)
(-32.359528 -8.4293759 1.8710821)
(-31.552005 -6.1356973 0.22297443)
(-33.339644 -6.6612335 0.0012281673)
(-29.232448 -6.9572985 2.9573546)
(-30.018269 -8.4002307 2.5244182)
(-28.665102 -6.282301 0.77344341)
(-30.242214 -7.1419201 0.3900252)
(-27.567824 -6.7023092 3.9712825)
(-28.06164 -8.2726845 3.3045616)
(-26.992091 -6.581514 1.5924866)
(-28.29027 -7.6866632 1.0292314)
(-26.335165 -6.46697 5.070033)
(-26.607793 -8.0808596 4.1825814)
(-26.674884 -7.0061452 2.6599098)
(-27.601208 -8.3009951 1.8932099)
(-25.582108 -6.2927604 6.1126276)
(-25.801434 -7.5947628 5.1206867)
(-27.458695 -7.4687919 3.7037667)
(-28.029042 -8.7721942 2.7373307)
(-24.926726 -5.9953863 7.2328124)
(-25.3091 -7.1030323 6.2675515)
(-28.357571 -7.7620122 4.4809693)
(-28.714817 -9.0111807 3.3837678)
(-24.339437 -5.7851926 8.5738355)
(-25.025488 -6.5579379 7.7407917)
(-29.127382 -7.8871472 5.0152137)
(-29.419351 -9.0440743 3.8530013)
(-23.839535 -5.580512 10.145842)
(-24.825876 -5.9059661 9.5003127)
(-29.667615 -7.7407442 5.2747328)
(-30.019296 -8.7906923 4.1517458)
(-23.281213 -5.3550508 11.315709)
(-24.482442 -5.1731138 10.924584)
(-30.001093 -7.2941255 5.1494889)
(-30.477941 -8.2236271 4.186921)
(-22.286912 -4.9419718 11.930846)
(-23.580056 -4.3658375 11.732508)
(-30.219648 -6.6014474 4.8508084)
(-30.871689 -7.4358099 4.1530984)
(-20.772898 -4.2049655 11.645619)
(-21.934301 -3.7878343 11.667018)
(-30.793768 -5.6498909 4.3948862)
(-31.675268 -6.4375547 4.0202328)
(-19.003369 -3.5289912 10.407808)
(-19.86749 -3.588019 10.628046)
(-32.045182 -4.7205643 4.0862321)
(-33.19543 -5.4748181 3.9522634)
(-17.436619 -3.205098 8.5530766)
(-17.924989 -3.7070418 8.8325734)
(-33.557513 -3.9575244 3.6798731)
(-34.822182 -4.6428569 3.6255514)
(-16.287707 -2.9644868 6.6892441)
(-16.515282 -3.8435429 6.9737068)
(-34.936091 -3.4133986 3.1765373)
(-36.275 -4.0526204 3.157741)
(-15.387767 -2.7548349 5.0375496)
(-15.488271 -3.9058113 5.2510796)
(-35.987313 -3.048685 2.6726409)
(-37.411187 -3.7084876 2.6512495)
(-14.616648 -2.6140536 3.7015884)
(-14.681869 -3.9142928 3.8382718)
(-36.637542 -2.8819772 2.203459)
(-38.060823 -3.6103945 2.1806462)
(-13.897997 -2.562918 2.6655467)
(-14.007637 -3.917811 2.7294971)
(-36.875238 -2.879011 1.770472)
(-38.173642 -3.6915422 1.7347939)
(-13.239132 -2.5873089 1.8938967)
(-13.400518 -3.9476677 1.9127718)
(-36.603358 -2.9962398 1.3868879)
(-37.663364 -3.8987564 1.3463379)
(-12.660217 -2.6429735 1.3252149)
(-12.826161 -4.0104332 1.320903)
(-35.953395 -3.1790601 1.0527521)
(-36.694976 -4.2262122 1.0231773)
(-12.118079 -2.6697172 0.89485171)
(-12.230197 -4.0828766 0.89091024)
(-35.055911 -3.4134864 0.77346041)
(-35.331555 -4.6597655 0.75971175)
(-11.507635 -2.6096019 0.56968165)
(-11.531002 -4.1271284 0.57563875)
(-33.744701 -3.715202 0.53360838)
(-33.374628 -5.1660222 0.53018487)
(-10.663324 -2.4001751 0.33026222)
(-10.598288 -4.0824762 0.34689207)
(-31.584287 -4.0613652 0.33146505)
(-30.401493 -5.7060119 0.33264093)
(-9.1952693 -1.921944 0.15964259)
(-9.1118169 -3.7870643 0.17949794)
(-27.459311 -4.3739429 0.16789365)
(-25.525281 -6.0554854 0.16910822)
(-6.2856481 -1.0349429 0.041045027)
(-6.403331 -2.7454266 0.058021412)
(-19.087662 -4.2526713 0.083264885)
(-17.107669 -5.5426316 0.078491434)
(-2.2551715 -0.15884725 0.0751131)
(-2.470962 -0.8870637 0.046401975)
(-6.4292081 -2.2920057 -0.16009751)
(-5.5803403 -2.718991 -0.1597697)
(-10.202174 -1.8014157 -0.011821594)
(-11.27195 -0.83192826 0.13088928)
(-10.395612 -1.6691119 0.076440372)
(-11.689123 -0.31876777 0.27553705)
(-10.48975 -2.6590633 0.05361924)
(-10.724168 -1.4349905 0.25896335)
(-9.0990414 -3.1662698 0.0057232737)
(-8.510206 -2.0857452 0.19988756)
(-7.4847525 -3.2102975 -0.047412459)
(-6.780891 -2.292083 0.13902119)
(-6.0212338 -3.0319516 -0.096376362)
(-5.6171238 -2.3202298 0.078977143)
(-4.9398176 -2.7952545 -0.1200779)
(-4.8981203 -2.2630877 0.025842149)
(-27.130081 -4.1311176 -0.026141826)
(-28.24427 -3.0359854 0.11067366)
(-27.090812 -3.8825964 0.1392981)
(-28.367156 -2.2507375 0.3591865)
(-26.785321 -4.7118382 0.30264794)
(-26.770303 -3.2107934 0.56245232)
(-24.563266 -5.1632729 0.31655589)
(-23.424487 -3.6722916 0.61556061)
(-22.238583 -5.2055774 0.24714098)
(-20.82907 -3.7589812 0.57212872)
(-20.090496 -5.0684702 0.12652046)
(-19.159208 -3.7372457 0.4658345)
(-18.278941 -4.8378551 0.0030603814)
(-18.143097 -3.6743414 0.33705932)
(-37.287456 -4.5576197 -0.082728948)
(-38.072447 -3.6269403 0.11420402)
(-35.559358 -3.8252775 0.19378316)
(-36.500654 -2.2653135 0.48839364)
(-34.294894 -3.8665909 0.41724279)
(-34.292674 -2.4381351 0.74874763)
(-32.068766 -3.7383465 0.42407816)
(-31.498807 -2.34968 0.80347116)
(-30.220852 -3.4568659 0.30578943)
(-29.713849 -2.1425411 0.74198614)
(-28.872591 -3.2094042 0.15193436)
(-28.604616 -1.998219 0.64721304)
(-27.839495 -3.0264189 0.023346632)
(-27.783078 -1.9289144 0.5604597)
(-42.65031 -4.2104105 -0.15546211)
(-43.305129 -3.4034225 0.062146507)
(-39.500757 -3.0397657 0.17785711)
(-40.270467 -1.6138885 0.49417059)
(-37.893179 -2.5673158 0.3898375)
(-37.950303 -1.2825182 0.75606557)
(-36.091879 -2.1300239 0.36982915)
(-35.645938 -0.96264427 0.80897456)
(-34.619178 -1.7608697 0.27412867)
(-33.953609 -0.69596586 0.78146573)
(-33.445501 -1.5092517 0.20590712)
(-32.572226 -0.53055755 0.77021114)
(-32.284087 -1.3374854 0.17061382)
(-31.325468 -0.43594068 0.79064687)
(-45.279579 -3.7669041 -0.24825224)
(-45.907849 -3.0187261 -0.037396307)
(-41.286995 -2.2974779 0.11561834)
(-41.938038 -0.96525004 0.4391209)
(-39.540755 -1.6303407 0.27691918)
(-39.496004 -0.40518409 0.69210169)
(-37.841675 -1.1670001 0.2556169)
(-37.16201 -0.044347929 0.75442166)
(-36.25232 -0.8223813 0.20012389)
(-35.131764 0.20979899 0.77001339)
(-34.696152 -0.5597301 0.19043258)
(-33.191502 0.41160284 0.82402571)
(-33.083878 -0.33211014 0.24743408)
(-31.292513 0.58615987 0.92248555)
(-46.083242 -3.4396239 -0.34462663)
(-46.772846 -2.7182732 -0.15211368)
(-41.767858 -1.7409379 0.025707194)
(-42.330119 -0.43994791 0.34262925)
(-39.843216 -1.0125303 0.1539227)
(-39.620776 0.26994973 0.60634074)
(-37.949743 -0.56659575 0.16585228)
(-36.935964 0.68679135 0.72456958)
(-35.968843 -0.21641786 0.18423876)
(-34.232038 1.0167155 0.82498974)
(-33.710779 0.13390498 0.25922188)
(-31.440967 1.3554993 0.94639763)
(-31.369243 0.48121213 0.36845946)
(-28.980745 1.6588469 1.0417789)
(-45.638974 -3.2510319 -0.44859168)
(-46.447906 -2.5450315 -0.29415389)
(-41.253661 -1.3271408 -0.088816349)
(-41.77738 -0.0036295517 0.20438208)
(-39.074812 -0.5531566 0.019987684)
(-38.676191 0.86798476 0.47976101)
(-36.80848 -0.073158094 0.075893124)
(-35.428234 1.410126 0.64329349)
(-34.193966 0.37635282 0.15454205)
(-31.956608 1.9184997 0.77897291)
(-31.19583 0.87832348 0.26752725)
(-28.567561 2.4348686 0.89508972)
(-28.405022 1.3493035 0.37887966)
(-25.853376 2.8669488 0.964228)
(-44.113089 -3.150314 -0.56173694)
(-45.110135 -2.4640519 -0.46322842)
(-39.842458 -0.9728538 -0.2222288)
(-40.447936 0.40788802 0.0195629)
(-37.430221 -0.13329707 -0.12177789)
(-37.019527 1.4717933 0.30629098)
(-34.800989 0.42246395 -0.032928073)
(-33.302516 2.1724169 0.47693159)
(-31.675123 0.99184149 0.075606713)
(-29.344352 2.846756 0.5956894)
(-28.171568 1.6339616 0.19766675)
(-25.619675 3.5071939 0.66762292)
(-24.987615 2.2315891 0.2940139)
(-22.732617 4.0422757 0.69093479)
(-41.363569 -3.0509253 -0.64271353)
(-42.684574 -2.4117796 -0.63579407)
(-37.667804 -0.57077417 -0.3794097)
(-38.573192 0.84999653 -0.22893509)
(-35.341176 0.34086753 -0.28158922)
(-35.298972 2.0689953 0.058300405)
(-32.703084 0.95661953 -0.1777271)
(-31.707326 2.8409819 0.21165716)
(-29.488846 1.6003266 -0.074745444)
(-27.725647 3.5781806 0.28464391)
(-25.725358 2.3482888 0.038133764)
(-23.710245 4.3397762 0.30714084)
(-22.087323 3.0877184 0.12500062)
(-20.44837 4.9928398 0.28261017)
(-37.560715 -2.8829458 -0.71029792)
(-39.289997 -2.328856 -0.80106013)
(-34.974712 -0.0045659731 -0.54676969)
(-36.418542 1.3528035 -0.54685253)
(-33.384968 0.92451684 -0.4222287)
(-34.083371 2.6008863 -0.23343705)
(-31.379875 1.4927681 -0.27137944)
(-31.344456 3.2863539 -0.045481535)
(-28.916703 2.0385696 -0.16340361)
(-28.187322 3.8617357 0.0032487855)
(-25.646173 2.7333691 -0.071955715)
(-24.422003 4.5559967 -0.022711404)
(-21.654668 3.5897998 -0.0035209015)
(-20.489634 5.3297567 -0.10848309)
(-32.913812 -2.6472031 -0.76346859)
(-35.05822 -2.2592964 -0.97853983)
(-31.977911 0.65544382 -0.77287174)
(-34.104187 1.7719493 -0.91801446)
(-31.731953 1.5196635 -0.57168711)
(-33.167089 2.9362121 -0.53054089)
(-30.670681 1.9792877 -0.31819907)
(-31.349438 3.5065871 -0.25074028)
(-29.0516 2.3987321 -0.15336211)
(-29.087938 3.9220156 -0.15934991)
(-26.897841 2.8900021 -0.062503605)
(-26.283199 4.394244 -0.16756642)
(-23.879096 3.5677147 -0.027326715)
(-22.731729 5.0421723 -0.25914125)
(-28.0209 -2.5228642 -0.83302518)
(-30.392534 -2.4153689 -1.1737935)
(-28.200792 1.0757341 -1.0123806)
(-31.02848 1.8494193 -1.3195669)
(-29.277165 1.9343166 -0.75939476)
(-31.465754 2.977638 -0.89408179)
(-29.225224 2.3469174 -0.44145184)
(-30.353167 3.515244 -0.53203463)
(-28.390271 2.6926325 -0.23066708)
(-28.479172 3.9138669 -0.36511938)
(-26.911657 3.0756616 -0.10933379)
(-26.028403 4.3542607 -0.33587755)
(-24.892243 3.5527842 -0.061855986)
(-22.8118 4.9538038 -0.41938824)
(-23.981725 -2.6832202 -0.93449418)
(-26.27579 -3.0028068 -1.3351249)
(-23.60315 1.0331877 -1.2341505)
(-26.69805 1.2510931 -1.6268313)
(-24.524212 2.0632871 -0.93478833)
(-27.600627 2.4505775 -1.182285)
(-24.631985 2.6531224 -0.58846521)
(-27.033576 3.1002268 -0.81092259)
(-24.025883 3.1050786 -0.34856804)
(-25.574779 3.5966493 -0.62482292)
(-22.921364 3.5268535 -0.21697429)
(-23.446024 4.1138374 -0.58824886)
(-21.368253 3.9835583 -0.17130265)
(-20.605837 4.7504221 -0.69486029)
(-21.735607 -3.3508666 -0.97413139)
(-23.83686 -4.0877342 -1.4003025)
(-21.1653 0.031306824 -1.6255668)
(-24.223233 -0.25826515 -1.9586975)
(-22.345194 0.96989836 -1.3058111)
(-25.858137 0.78133584 -1.5138499)
(-22.763437 1.5326118 -0.95763294)
(-26.003155 1.3735113 -1.1624166)
(-22.39227 1.985477 -0.72530207)
(-25.105109 1.8572267 -0.9720574)
(-21.472504 2.4147382 -0.60027929)
(-23.609512 2.3332007 -0.92176539)
(-20.099646 2.8695778 -0.56183866)
(-21.45691 2.9057307 -1.0092652)
(-21.27052 -4.3772846 -0.697797)
(-23.114073 -5.4541816 -1.1544831)
(-20.278644 -1.6060482 -1.8618687)
(-23.249043 -2.3172538 -2.2840797)
(-21.787994 -0.82701612 -1.5135177)
(-25.758913 -1.5813969 -1.9195988)
(-22.682895 -0.34800257 -1.1170899)
(-26.80205 -1.1990504 -1.5642442)
(-22.669218 0.054750846 -0.85539828)
(-26.509771 -0.81284317 -1.3428379)
(-21.99938 0.45978074 -0.70501225)
(-25.529662 -0.38375434 -1.2458888)
(-20.89492 0.86984637 -0.63648291)
(-24.047938 0.11237595 -1.256792)
(-22.233345 -5.1896269 -0.072649237)
(-23.853342 -6.4631185 -0.55111151)
(-20.359876 -2.8579244 -1.7430505)
(-23.089241 -3.9898346 -2.2298052)
(-21.79893 -2.1433129 -1.3991975)
(-25.728985 -3.5277835 -1.972503)
(-22.868083 -1.6880518 -0.95272337)
(-27.360807 -3.3887645 -1.599375)
(-23.041268 -1.2874354 -0.65151185)
(-27.646999 -3.158686 -1.3518405)
(-22.525839 -0.88278282 -0.47213088)
(-27.116545 -2.8026259 -1.2185324)
(-21.560963 -0.47044723 -0.37417685)
(-26.083606 -2.3863046 -1.1784287)
(-23.464973 -5.4687536 0.65146686)
(-24.938064 -6.862338 0.15033406)
(-20.935205 -3.4680114 -1.3997073)
(-23.56488 -4.9276699 -1.8125772)
(-22.157995 -2.7358267 -1.1708797)
(-26.040997 -4.6435871 -1.6871863)
(-23.204741 -2.2597517 -0.74420964)
(-27.825098 -4.6608774 -1.3470586)
(-23.413987 -1.8362832 -0.44234217)
(-28.327034 -4.5215604 -1.0907375)
(-22.947858 -1.4220587 -0.25755549)
(-27.96736 -4.2176276 -0.93966308)
(-22.044771 -1.0053379 -0.14720885)
(-27.096476 -3.837637 -0.87480906)
(-24.387214 -5.3081343 1.2710744)
(-25.80167 -6.7145028 0.77849505)
(-21.530518 -3.5210723 -0.89191559)
(-24.233848 -5.0932585 -1.1570722)
(-22.560671 -2.7230205 -0.79125015)
(-26.529369 -4.8067078 -1.094619)
(-23.520261 -2.2036551 -0.44017089)
(-28.199027 -4.8044717 -0.80487796)
(-23.688821 -1.7451632 -0.1809393)
(-28.703341 -4.663564 -0.58219433)
(-23.208114 -1.3136166 -0.019001856)
(-28.407278 -4.3708595 -0.44116788)
(-22.313145 -0.88912593 0.083324733)
(-27.609914 -4.0024568 -0.36351764)
(-24.827812 -4.7859216 1.7111897)
(-26.327639 -6.1324781 1.2687649)
(-22.323325 -3.1823285 -0.38331707)
(-25.286152 -4.7171081 -0.46456575)
(-23.564546 -2.4010922 -0.43936148)
(-27.74853 -4.413614 -0.47207296)
(-24.576341 -1.8923661 -0.21745753)
(-29.340998 -4.3630968 -0.27241685)
(-24.743394 -1.4428353 -0.030591137)
(-29.75074 -4.1762664 -0.11375346)
(-24.246582 -1.0202089 0.10063059)
(-29.386594 -3.875508 -0.0028653444)
(-23.332718 -0.59762759 0.20013758)
(-28.568604 -3.5097283 0.08262969)
(-24.839225 -3.9496964 1.9643891)
(-26.593313 -5.1671148 1.5956268)
(-23.25117 -2.459974 0.15662538)
(-26.712261 -3.8160601 0.14748082)
(-25.07704 -1.7014468 0.075210688)
(-29.564433 -3.4524464 0.11353467)
(-26.30186 -1.2344321 0.2272896)
(-31.089762 -3.3303253 0.24070267)
(-26.530816 -0.81592849 0.36763302)
(-31.366153 -3.1065891 0.34929617)
(-26.034643 -0.41077001 0.48036348)
(-30.887286 -2.7954872 0.4395896)
(-25.082273 0.0081880701 0.58282975)
(-29.962294 -2.4260688 0.53366046)
(-24.818839 -2.9431679 2.2099721)
(-27.020623 -4.0821946 1.9109409)
(-24.454951 -1.5961752 0.74313805)
(-28.522131 -2.8731862 0.68867124)
(-26.946117 -0.89900778 0.57516025)
(-31.645559 -2.5085164 0.55230427)
(-28.401954 -0.49190595 0.63147552)
(-33.003514 -2.3723496 0.60286338)
(-28.701174 -0.1140049 0.71986986)
(-33.087145 -2.1469614 0.69100691)
(-28.216417 0.26675136 0.81808703)
(-32.474005 -1.8437916 0.80209547)
(-27.237472 0.67537593 0.93317161)
(-31.417369 -1.4796046 0.93057212)
(-25.418934 -1.6821696 2.5825968)
(-28.167307 -2.7639815 2.3368702)
(-25.950857 -0.27876774 1.6273114)
(-30.62741 -1.3855725 1.3498657)
(-28.640452 0.5008765 1.3753043)
(-33.564098 -0.84688956 1.0817403)
(-30.011444 0.94703402 1.3163569)
(-34.477578 -0.58157273 1.0692348)
(-30.193009 1.3370742 1.3340204)
(-34.214539 -0.27644593 1.157588)
(-29.608397 1.7303398 1.4071798)
(-33.296722 0.076353498 1.2853343)
(-28.53364 2.1409882 1.5308723)
(-32.049761 0.46569827 1.4498227)
(-27.327388 -0.42410114 2.9255962)
(-30.389727 -1.5027059 2.6606269)
(-27.927265 1.3785235 2.3461397)
(-32.501686 0.23324895 1.6272128)
(-30.017569 2.3596254 1.9237501)
(-34.512267 1.023917 1.132708)
(-30.701133 2.9324339 1.7313828)
(-34.785624 1.4880183 1.0478588)
(-30.342612 3.4309388 1.7049629)
(-34.070698 1.9168709 1.1229582)
(-29.320275 3.9109336 1.7865424)
(-32.957655 2.3405912 1.2652717)
(-27.84186 4.4100258 1.9539329)
(-31.526082 2.7874876 1.4588434)
(-29.584656 0.74161642 3.0538205)
(-32.653067 -0.33172078 2.7746424)
(-28.698349 3.2569802 2.6441143)
(-32.910231 1.8827059 1.6217325)
(-29.618384 4.5557669 2.0794182)
(-33.588289 2.9222911 0.95147215)
(-29.437069 5.345674 1.8281214)
(-33.266106 3.5561742 0.79303114)
(-28.464566 6.0112406 1.786524)
(-32.360182 4.0979418 0.82214244)
(-26.946504 6.6392488 1.8723548)
(-31.026764 4.6237209 0.94278519)
(-24.956888 7.2692937 2.0561082)
(-29.315102 5.1557005 1.129378)
(-31.962453 1.6361599 2.9892301)
(-34.815344 0.60401083 2.7722942)
(-28.339324 4.9844834 2.6957698)
(-32.19211 3.4217698 1.6884135)
(-27.394832 6.7840157 2.0378613)
(-31.60149 4.7673608 0.90500651)
(-26.330625 7.8997141 1.7235843)
(-30.717379 5.5992441 0.65254048)
(-24.751317 8.7973365 1.6454882)
(-29.389485 6.3203778 0.61548304)
(-22.423424 9.6761343 1.7211399)
(-27.572339 6.9963401 0.70172725)
(-19.004631 10.721402 1.9756752)
(-24.978204 7.7920168 0.92089557)
(-34.784828 2.1045236 2.8153763)
(-37.39991 1.1224623 2.6950512)
(-29.147417 6.1160798 2.7338342)
(-32.801338 4.4682199 1.8972393)
(-25.974236 8.4458912 2.1240247)
(-30.484641 6.1981694 1.1883725)
(-23.324007 9.9505292 1.7539367)
(-28.5313 7.3459888 0.88810295)
(-20.616014 11.134578 1.6232826)
(-26.402699 8.3031033 0.81375056)
(-17.658906 12.176037 1.6312707)
(-23.738003 9.257775 0.88376971)
(-14.8882 13.034247 1.7354028)
(-20.616094 10.238948 1.0769304)
(-37.684377 2.2122062 2.5483364)
(-40.003872 1.3140666 2.514389)
(-31.764823 6.5070083 2.6932585)
(-34.984424 4.9739834 2.0591589)
(-27.90577 8.9788303 2.2097292)
(-31.948116 6.8956166 1.4943802)
(-24.965503 10.468957 1.8199981)
(-29.622699 8.1049235 1.1840378)
(-22.42293 11.557655 1.6321036)
(-27.455455 9.0256855 1.0421103)
(-20.100318 12.394374 1.5735457)
(-25.10372 9.8510871 1.020304)
(-18.122015 13.022841 1.5770233)
(-22.683562 10.588484 1.0685461)
(-40.180363 2.1047052 2.2254095)
(-42.160712 1.2988635 2.2433859)
(-34.94261 6.5293643 2.5465986)
(-37.633377 5.1629773 2.0669868)
(-31.321253 8.9570727 2.1901049)
(-34.628674 7.1063315 1.6405132)
(-28.705763 10.299446 1.7984394)
(-32.424529 8.22925 1.3011827)
(-26.526541 11.257801 1.587727)
(-30.444745 9.0555161 1.0995992)
(-24.530146 11.986296 1.4991204)
(-28.375574 9.7588824 1.0094892)
(-22.791729 12.538136 1.4585161)
(-26.255998 10.379849 0.98340709)
(-41.938843 1.8674078 1.8653195)
(-43.564866 1.1487178 1.9128975)
(-37.667244 6.4568013 2.3181599)
(-39.871442 5.2683028 1.9899544)
(-34.58524 8.8526978 2.0850604)
(-37.201818 7.2169866 1.687064)
(-32.486687 10.032299 1.7062885)
(-35.299105 8.2192593 1.3379053)
(-30.782004 10.845573 1.4593806)
(-33.599612 8.9446644 1.0893127)
(-29.161232 11.47012 1.3324306)
(-31.863199 9.5404065 0.95503146)
(-27.639828 11.965572 1.269339)
(-30.041206 10.072698 0.89137807)
(-42.819475 1.5347772 1.5032996)
(-44.064642 0.89014094 1.5512379)
(-39.430138 6.3919085 2.0344872)
(-41.247468 5.3971312 1.8270736)
(-36.920072 8.8597032 1.9183304)
(-39.05238 7.4189138 1.6561447)
(-35.337236 9.9016592 1.5622663)
(-37.547099 8.2931054 1.3204212)
(-34.092863 10.590632 1.2795782)
(-36.234757 8.8994736 1.0311115)
(-32.939173 11.085213 1.1054254)
(-34.931883 9.3677057 0.84819771)
(-31.745428 11.49636 1.0196172)
(-33.492733 9.7987588 0.75386775)
(-42.797176 1.0850757 1.1585273)
(-43.565247 0.49432353 1.2020734)
(-40.011405 6.3457581 1.7225627)
(-41.516343 5.5671257 1.6065914)
(-38.111458 9.0409534 1.7245963)
(-39.953104 7.7797094 1.5717737)
(-36.956366 9.9995575 1.4249569)
(-38.815226 8.5745655 1.2867441)
(-36.027918 10.588699 1.1309831)
(-37.804508 9.0647138 0.9775751)
(-35.170162 10.992363 0.92315694)
(-36.812429 9.4338955 0.75674024)
(-34.28336 11.311328 0.80881942)
(-35.766991 9.7497184 0.63413954)
(-41.633224 0.42830964 0.83710659)
(-41.861323 -0.13100931 0.87658599)
(-39.112935 6.1982289 1.3800444)
(-40.356863 5.6931067 1.3374026)
(-38.031398 9.3637909 1.5007915)
(-39.74315 8.2966479 1.4274144)
(-37.290122 10.345138 1.2949645)
(-38.982922 9.0947179 1.2443581)
(-36.53497 10.903166 1.0220725)
(-38.163589 9.5225587 0.95030041)
(-35.816274 11.262391 0.79490866)
(-37.357006 9.8116343 0.69674543)
(-35.063479 11.545247 0.65200693)
(-36.513492 10.065452 0.54522873)
(-38.975753 -0.573301 0.54218227)
(-38.436078 -1.1038369 0.58068039)
(-36.13189 5.6660389 1.0057669)
(-37.167405 5.5218046 1.0067214)
(-36.223317 9.6453815 1.2253978)
(-37.923544 8.8637703 1.2127448)
(-36.114615 10.835521 1.1455228)
(-37.800365 9.8138442 1.158252)
(-35.52367 11.452004 0.92025649)
(-37.164434 10.292932 0.92253852)
(-34.870756 11.828152 0.68817413)
(-36.459296 10.572095 0.65207489)
(-34.200431 12.112029 0.52410855)
(-35.752282 10.8047 0.46799618)
(-33.718937 -1.9588809 0.29408489)
(-32.507852 -2.3561095 0.31830039)
(-30.216176 4.3011361 0.61586544)
(-31.087469 4.5702098 0.63037158)
(-31.50383 9.2972093 0.8687165)
(-33.197617 8.9831917 0.89606105)
(-32.516936 11.024827 0.9267307)
(-34.273182 10.350146 0.96671825)
(-32.474938 11.811075 0.77933348)
(-34.25003 11.008254 0.83003977)
(-32.080076 12.233016 0.55651873)
(-33.832385 11.320669 0.56596672)
(-31.618733 12.525204 0.37644522)
(-33.35397 11.542831 0.37438669)
(-23.964108 -3.2183529 0.14000107)
(-22.607027 -3.3021822 0.13539155)
(-20.356024 1.7853351 0.25968675)
(-21.067786 2.3390406 0.26759383)
(-21.928906 7.0385324 0.45512778)
(-23.366604 7.2676766 0.49185731)
(-23.972938 9.5820806 0.61605524)
(-25.658937 9.5563634 0.67100006)
(-25.075693 10.805807 0.56336775)
(-26.987389 10.583053 0.60545319)
(-25.356262 11.325325 0.37121732)
(-27.398836 10.970479 0.39863059)
(-25.268867 11.619041 0.18807041)
(-27.398803 11.161932 0.1992602)
(-8.6698251 -2.269097 -0.12846396)
(-8.0959196 -2.1550022 -0.10211412)
(-7.0540021 -0.53577087 -0.092014495)
(-7.4510944 -0.2025944 -0.07131947)
(-7.599668 1.9583309 -0.031266647)
(-8.2611664 2.2390958 -0.0054483333)
(-8.7500953 3.9881939 0.078971586)
(-9.6083639 4.3787007 0.11930935)
(-10.002189 5.511354 0.14060864)
(-11.101122 5.9258843 0.18281514)
(-10.697126 6.1692223 0.07826599)
(-11.932693 6.5619254 0.11137916)
(-10.884756 6.3614658 -0.038393332)
(-12.188577 6.7332785 -0.0069944238)
(-4.1992335 -2.5758465 -0.12185384)
(-4.3884976 -2.1714797 -0.01324538)
(-3.8049472 -2.3766371 -0.12091538)
(-4.1103061 -2.028472 -0.058270295)
(-3.566653 -2.1681586 -0.11160118)
(-3.859563 -1.8421468 -0.086731411)
(-3.3158815 -1.9184893 -0.084194455)
(-3.4884213 -1.6043055 -0.07645511)
(-3.2688333 -1.6588803 -0.037451693)
(-3.2257466 -1.362623 -0.01108522)
(-4.1027511 -1.7376543 -0.017103225)
(-3.5965672 -1.5749797 0.056353112)
(-16.76968 -4.5792502 -0.11920037)
(-17.389259 -3.613907 0.18021007)
(-15.759805 -4.2966392 -0.27016839)
(-16.859616 -3.4697128 -0.023105354)
(-15.037678 -4.0199169 -0.38573992)
(-16.235674 -3.2889245 -0.16865591)
(-14.314082 -3.7119684 -0.41575557)
(-15.38111 -3.0829183 -0.21131355)
(-14.143099 -3.4130304 -0.29157842)
(-14.914627 -2.928581 -0.090971118)
(-15.931484 -3.5573753 -0.076840726)
(-15.840578 -3.3762275 0.11310688)
(-26.965962 -2.9165065 -0.10679191)
(-27.052285 -1.9473857 0.44935562)
(-26.305457 -2.8090346 -0.24884036)
(-26.489162 -1.9596365 0.31361413)
(-25.540998 -2.7314816 -0.32950162)
(-25.761328 -1.9927215 0.21945293)
(-24.577221 -2.6863743 -0.34480965)
(-24.820154 -2.0707244 0.15205262)
(-23.779832 -2.7422848 -0.2685048)
(-23.946515 -2.2919936 0.14324554)
(-24.190361 -3.0336013 -0.087986076)
(-23.994381 -2.8921328 0.23497217)
(-31.163786 -1.2396613 0.13930449)
(-30.138439 -0.42504584 0.79312684)
(-30.30041 -1.1820521 0.098655886)
(-29.244946 -0.43298171 0.75653194)
(-29.436852 -1.1566177 0.071378968)
(-28.385475 -0.46447619 0.71216229)
(-28.453515 -1.1691851 0.030877333)
(-27.471342 -0.55023267 0.61932937)
(-27.595309 -1.3167561 -0.036820264)
(-26.760301 -0.83214466 0.44181586)
(-27.800834 -1.6959797 -0.070206513)
(-27.10574 -1.5239669 0.2550884)
(-31.458793 -0.15962024 0.33499227)
(-29.566587 0.69615667 1.0067273)
(-30.311475 -0.045704345 0.38329399)
(-28.423743 0.76496434 1.0280594)
(-29.445602 0.014120639 0.39703261)
(-27.592813 0.78330151 1.0035008)
(-28.663456 0.031861056 0.35186396)
(-26.934874 0.7416647 0.89084499)
(-28.070449 -0.060180369 0.19092381)
(-26.603449 0.53555815 0.61676831)
(-28.596914 -0.38214612 -0.12559599)
(-27.457589 -0.08037718 0.1615213)
(-29.401849 0.74644953 0.45177665)
(-27.058751 1.8666599 1.0815593)
(-28.17462 0.91929719 0.48670146)
(-25.918061 1.9967867 1.0695213)
(-27.37839 1.0139751 0.48702539)
(-25.208976 2.0498691 1.0128818)
(-26.835027 1.0512879 0.42868589)
(-24.791218 2.0276398 0.87252984)
(-26.634565 0.99578067 0.23738756)
(-24.818359 1.8528924 0.55776316)
(-27.572336 0.74340771 -0.25382656)
(-26.12545 1.2976574 -0.080301207)
(-26.18339 1.7114381 0.44801469)
(-23.841279 3.1645928 0.97176615)
(-24.875946 1.9367544 0.46261083)
(-22.71436 3.343774 0.93291315)
(-24.131897 2.0541197 0.43458363)
(-22.087481 3.4215308 0.85485285)
(-23.749517 2.0956588 0.34473169)
(-21.803705 3.4117212 0.69744372)
(-23.849071 2.0373745 0.11659222)
(-22.029269 3.2509581 0.35094892)
(-25.185708 1.7933501 -0.47322424)
(-23.607614 2.7024517 -0.4237746)
(-22.496121 2.6989265 0.34003246)
(-20.654243 4.4171033 0.66176201)
(-21.073665 2.9864048 0.33319743)
(-19.516933 4.6443226 0.60405472)
(-20.311799 3.1403287 0.28270197)
(-18.894975 4.7566864 0.51497336)
(-19.96726 3.2072367 0.16922473)
(-18.598351 4.7850429 0.35549133)
(-20.13904 3.1753546 -0.086796933)
(-18.756397 4.6891662 0.020858956)
(-21.571532 2.9545278 -0.74534404)
(-20.180344 4.2314707 -0.82123778)
(-19.172432 3.6880373 0.15799703)
(-18.089196 5.4713806 0.21371882)
(-17.512903 4.0596275 0.13856947)
(-16.806433 5.7651089 0.13290034)
(-16.634637 4.2682084 0.073080999)
(-16.083628 5.9309769 0.027721134)
(-16.207178 4.3847275 -0.05677313)
(-15.659545 6.0227793 -0.13906527)
(-16.237568 4.4287811 -0.33109489)
(-15.578745 6.0358542 -0.46181163)
(-17.334171 4.3362304 -1.0120858)
(-16.466472 5.8049948 -1.2685807)
(-17.814449 4.4281853 0.0094732684)
(-17.182717 6.0174779 -0.24589024)
(-15.317241 5.0117866 -0.032594116)
(-15.243045 6.4723034 -0.38866335)
(-13.869475 5.3760386 -0.12891021)
(-14.093005 6.7625585 -0.5560245)
(-13.077833 5.605731 -0.28925918)
(-13.365781 6.9627797 -0.77809586)
(-12.759422 5.7676863 -0.58422981)
(-12.928149 7.1148757 -1.1387943)
(-13.315402 5.8456756 -1.2344514)
(-13.130779 7.1418209 -1.8521423)
(-19.720677 4.5062879 -0.054879386)
(-18.643247 5.8493964 -0.46237154)
(-15.937287 5.4056788 -0.15609227)
(-15.550856 6.5481509 -0.7164239)
(-13.107761 6.1123854 -0.33324429)
(-13.473805 7.0634509 -1.0159216)
(-11.089995 6.6655687 -0.5848799)
(-11.996252 7.473597 -1.381269)
(-9.9653604 7.0542754 -0.91545648)
(-10.991804 7.8015826 -1.8378728)
(-9.7100978 7.3206716 -1.4473242)
(-10.463453 8.0493868 -2.4928509)
(-21.817869 4.2552001 -0.09796318)
(-18.856367 5.7275992 -0.65164045)
(-17.990306 5.1644504 -0.22829788)
(-15.581378 6.4385266 -0.96442325)
(-14.330723 6.0686622 -0.45806677)
(-13.198004 7.0022219 -1.3438374)
(-10.790171 6.9913071 -0.8024037)
(-11.277851 7.5039494 -1.8201597)
(-8.0904577 7.7760053 -1.1938138)
(-9.7997046 7.9422144 -2.3654164)
(-6.6778725 8.2884074 -1.5344184)
(-8.593277 8.3504009 -3.0103638)
(-18.978324 4.6081762 -0.21666759)
(-17.198791 5.4933734 -0.95883464)
(-15.894054 5.4075352 -0.36550627)
(-14.421057 6.1321149 -1.2795711)
(-12.868656 6.2010453 -0.60794388)
(-12.38913 6.6227854 -1.6465998)
(-9.7176382 7.0553533 -0.96326856)
(-10.62438 7.0765667 -2.1144745)
(-6.8738836 7.8864117 -1.3587185)
(-8.9952569 7.5251125 -2.6859553)
(-4.9564035 8.5228196 -1.5896311)
(-7.3129289 7.9829957 -3.3434824)
(-17.948903 3.475035 -0.61288778)
(-18.435253 3.6388802 -1.2662529)
(-15.112931 4.2388495 -0.76013287)
(-15.639388 4.3118098 -1.5968243)
(-12.352055 4.9755919 -0.97951235)
(-13.456614 4.8379025 -1.9710649)
(-9.4040247 5.7751784 -1.2948969)
(-11.37956 5.3393692 -2.4659612)
(-6.387282 6.6246674 -1.6659723)
(-9.166154 5.870742 -3.1237532)
(-3.7902266 7.3987633 -1.8710297)
(-6.5583603 6.4580134 -3.8843077)
(-19.141083 1.3845666 -0.63121487)
(-21.833215 0.75693033 -1.3985387)
(-16.605077 2.0799385 -0.68989908)
(-19.187945 1.5240456 -1.6554692)
(-13.944692 2.7802933 -0.81134614)
(-16.889842 2.1824915 -1.982375)
(-10.893772 3.5824159 -1.0182968)
(-14.587427 2.8441308 -2.4470846)
(-7.2658628 4.564637 -1.3187571)
(-11.948182 3.5857979 -3.1308138)
(-3.235671 5.7033516 -1.5513887)
(-8.3841032 4.4375828 -4.041855)
(-20.052333 0.0036379417 -0.32068403)
(-24.435548 -1.8676654 -1.2333569)
(-17.874049 0.63237264 -0.2920199)
(-22.014726 -1.1132305 -1.3863815)
(-15.387862 1.297639 -0.30402064)
(-19.607522 -0.38509519 -1.609873)
(-12.392037 2.082498 -0.36280582)
(-17.072528 0.4059522 -1.9377454)
(-8.6243246 3.0942168 -0.47138158)
(-14.15396 1.3731635 -2.4269181)
(-3.8529234 4.4433604 -0.50987024)
(-10.188548 2.6442763 -3.0725507)
(-20.652354 -0.55181137 -0.069277225)
(-25.710394 -3.3962465 -0.87151344)
(-18.624158 0.05245677 0.0095688656)