/*--------------------------------*- C++ -*----------------------------------*\
| =========                 |                                                 |
| \\      /  F ield         | OpenFOAM: The Open Source CFD Toolbox           |
|  \\    /   O peration     | Version:  2206                                  |
|   \\  /    A nd           | Website:  www.openfoam.com                      |
|    \\/     M anipulation  |                                                 |
\*---------------------------------------------------------------------------*/
FoamFile
{
    version     2.0;
    format      ascii;
    arch        "LSB;label=32;scalar=64";
    class       volVectorField;
    location    "200";
    object      Urel;
}
// * * * * * * * * * * * * * * * * * * * * * * * * * * * * * * * * * * * * * //

dimensions      [0 1 -1 0 0 0 0];

internalField   nonuniform List<vector> 
50904
(
(-9.2519986 -4.3182722 -0.30716986)
(-10.177906 -3.9211431 -0.17224135)
(-10.488372 -2.2080088 0.067651686)
(-11.996816 -1.6426201 0.12704956)
(-25.336217 -8.3770773 -0.012115464)
(-26.502045 -8.0323773 0.018156309)
(-27.194101 -5.3550176 0.016531446)
(-28.898301 -4.5933808 0.052256006)
(-35.046531 -8.8805069 -0.063319353)
(-36.434978 -8.7365477 0.01832993)
(-37.627108 -6.2170307 -0.032724416)
(-39.018022 -5.5975139 0.038717418)
(-39.793755 -8.3730332 -0.017961398)
(-41.469779 -8.4345296 0.083380813)
(-43.399767 -6.0972625 -0.10381522)
(-44.657956 -5.5853849 -0.0089259639)
(-41.909163 -7.8562383 0.032115602)
(-43.787929 -8.006402 0.13792338)
(-46.191555 -5.7541089 -0.19398347)
(-47.480869 -5.3211688 -0.072283466)
(-42.461067 -7.5393342 0.11011402)
(-44.460858 -7.7233854 0.2266548)
(-47.203765 -5.5041036 -0.27977643)
(-48.527892 -5.13446 -0.14066757)
(-41.947695 -7.3913198 0.22385327)
(-44.001575 -7.6551525 0.33321398)
(-46.93999 -5.4093432 -0.37007472)
(-48.335403 -5.1090093 -0.22419254)
(-40.612411 -7.3396229 0.38643627)
(-42.652137 -7.7666017 0.47580481)
(-45.515936 -5.4418043 -0.43837613)
(-47.064787 -5.2392089 -0.30708088)
(-38.616999 -7.3441444 0.62079329)
(-40.551686 -7.9684395 0.67619652)
(-42.952116 -5.5642598 -0.44131725)
(-44.700951 -5.4982468 -0.35295037)
(-36.208481 -7.3661852 0.96828219)
(-37.938111 -8.1776143 0.96325177)
(-39.434463 -5.7421736 -0.34696063)
(-41.329004 -5.8449131 -0.32215037)
(-33.654062 -7.3295077 1.4478504)
(-35.099285 -8.3456513 1.3488804)
(-35.402695 -5.9349338 -0.14155321)
(-37.317202 -6.2328989 -0.21491557)
(-31.254129 -7.1827462 2.1155971)
(-32.360814 -8.4247944 1.8710821)
(-31.553202 -6.1310313 0.22297443)
(-33.340816 -6.6566528 0.0012281673)
(-29.233792 -6.9526222 2.9573546)
(-30.019582 -8.3956502 2.5244182)
(-28.666321 -6.2776324 0.77344341)
(-30.243408 -7.1373389 0.3900252)
(-27.569201 -6.6976312 3.9712825)
(-28.062984 -8.2681048 3.3045616)
(-26.993336 -6.5768417 1.5924866)
(-28.291488 -7.6820806 1.0292314)
(-26.33658 -6.462289 5.070033)
(-26.609174 -8.07628 4.1825814)
(-26.676158 -7.001467 2.6599098)
(-27.602454 -8.2964099 1.8932099)
(-25.583562 -6.2880748 6.1126276)
(-25.802851 -7.5901821 5.1206867)
(-27.459998 -7.4641061 3.7037667)
(-28.030315 -8.767605 2.7373307)
(-24.928215 -5.9906945 7.2328124)
(-25.310551 -7.0984491 6.2675515)
(-28.358898 -7.7573174 4.4809693)
(-28.716113 -9.0065861 3.3837678)
(-24.340957 -5.7804926 8.5738355)
(-25.026968 -6.5533502 7.7407917)
(-29.128728 -7.882442 5.0152137)
(-29.420665 -9.0394729 3.8530013)
(-23.841081 -5.5758017 10.145842)
(-24.82738 -5.9013718 9.5003127)
(-29.668973 -7.7360273 5.2747328)
(-30.020622 -8.7860827 4.1517458)
(-23.28278 -5.3503288 11.315709)
(-24.483967 -5.1685113 10.924584)
(-30.002459 -7.2893956 5.1494889)
(-30.479273 -8.2190079 4.186921)
(-22.288499 -4.9372376 11.930846)
(-23.5816 -4.3612263 11.732508)
(-30.22102 -6.596704 4.8508084)
(-30.873027 -7.4311805 4.1530984)
(-20.774508 -4.2002201 11.645619)
(-21.935867 -3.7832154 11.667018)
(-30.795149 -5.645134 4.3948862)
(-31.676615 -6.4329152 4.0202328)
(-19.005004 -3.5242374 10.407808)
(-19.86908 -3.5833946 10.628046)
(-32.046577 -4.7157958 4.0862321)
(-33.19679 -5.4701702 3.9522634)
(-17.438276 -3.2003389 8.5530766)
(-17.926599 -3.7024144 8.8325734)
(-33.558922 -3.9527471 3.6798731)
(-34.823555 -4.6382028 3.6255514)
(-16.289383 -2.9597248 6.6892441)
(-16.51691 -3.8389143 6.9737068)
(-34.937513 -3.4086147 3.1765373)
(-36.276386 -4.0479619 3.157741)
(-15.389459 -2.7500717 5.0375496)
(-15.489915 -3.9011826 5.2510796)
(-35.988748 -3.0438963 2.6726409)
(-37.412584 -3.703826 2.6512495)
(-14.618354 -2.6092901 3.7015884)
(-14.683526 -3.9096647 3.8382718)
(-36.638988 -2.8771849 2.203459)
(-38.062231 -3.6057307 2.1806462)
(-13.899714 -2.5581547 2.6655467)
(-14.009305 -3.9131839 2.7294971)
(-36.876693 -2.874216 1.770472)
(-38.175059 -3.6868769 1.7347939)
(-13.240859 -2.5825461 1.8938967)
(-13.402195 -3.9430416 1.9127718)
(-36.604822 -2.9914428 1.3868879)
(-37.664789 -3.8940901 1.3463379)
(-12.661952 -2.6382114 1.3252149)
(-12.827846 -4.0058082 1.320903)
(-35.954866 -3.1742616 1.0527521)
(-36.696408 -4.2215451 1.0231773)
(-12.11982 -2.6649558 0.89485171)
(-12.231888 -4.0782526 0.89091024)
(-35.057387 -3.4086868 0.77346041)
(-35.332992 -4.6550979 0.75971175)
(-11.509381 -2.6048411 0.56968165)
(-11.532698 -4.1225052 0.57563875)
(-33.746182 -3.7104015 0.53360838)
(-33.37607 -5.1613543 0.53018487)
(-10.665074 -2.3954149 0.33026222)
(-10.599988 -4.0778538 0.34689207)
(-31.585772 -4.0565641 0.33146505)
(-30.402939 -5.7013438 0.33264093)
(-9.1970228 -1.9171843 0.15964259)
(-9.11352 -3.7824425 0.17949794)
(-27.460799 -4.3691413 0.16789365)
(-25.52673 -6.0508171 0.16910822)
(-6.2874042 -1.0301835 0.041045027)
(-6.4050366 -2.7408053 0.058021412)
(-19.089153 -4.2478693 0.083264885)
(-17.10912 -5.5379631 0.078491434)
(-2.2569296 -0.15408819 0.0751131)
(-2.4726697 -0.88244276 0.046401975)
(-6.4307006 -2.2872034 -0.16009751)
(-5.5817931 -2.7143224 -0.1597697)
(-10.203189 -1.7967664 -0.011821594)
(-11.272948 -0.82735009 0.13088928)
(-10.396562 -1.6644696 0.076440372)
(-11.690059 -0.31419196 0.27553705)
(-10.490677 -2.6544226 0.05361924)
(-10.725081 -1.4304146 0.25896335)
(-9.0999562 -3.1616299 0.0057232737)
(-8.5111068 -2.0811691 0.19988756)
(-7.4856601 -3.205658 -0.047412459)
(-6.7817846 -2.2875067 0.13902119)
(-6.0221366 -3.0273124 -0.096376362)
(-5.6180126 -2.3156533 0.078977143)
(-4.9407167 -2.7906155 -0.1200779)
(-4.8990054 -2.258511 0.025842149)
(-27.131097 -4.1264682 -0.026141826)
(-28.24527 -3.0314073 0.11067366)
(-27.091763 -3.877954 0.1392981)
(-28.368093 -2.2461617 0.3591865)
(-26.786249 -4.7071974 0.30264794)
(-26.771217 -3.2062175 0.56245232)
(-24.564182 -5.1586329 0.31655589)
(-23.425389 -3.6677155 0.61556061)
(-22.239492 -5.2009378 0.24714098)
(-20.829965 -3.7544049 0.57212872)
(-20.0914 -5.0638309 0.12652046)
(-19.160098 -3.7326692 0.4658345)
(-18.279841 -4.833216 0.0030603814)
(-18.143983 -3.6697647 0.33705932)
(-37.288475 -4.5529702 -0.082728948)
(-38.073449 -3.6223622 0.11420402)
(-35.560311 -3.820635 0.19378316)
(-36.501593 -2.2607377 0.48839364)
(-34.295824 -3.86195 0.41724279)
(-34.29359 -2.4335592 0.74874763)
(-32.069683 -3.7337063 0.42407816)
(-31.49971 -2.3451039 0.80347116)
(-30.221762 -3.4522261 0.30578943)
(-29.714745 -2.1379647 0.74198614)
(-28.873496 -3.2047647 0.15193436)
(-28.605507 -1.9936425 0.64721304)
(-27.840397 -3.0217797 0.023346632)
(-27.783966 -1.9243377 0.5604597)
(-42.651331 -4.2057609 -0.15546211)
(-43.306134 -3.3988445 0.062146507)
(-39.501712 -3.035123 0.17785711)
(-40.271408 -1.6093128 0.49417059)
(-37.894111 -2.5626747 0.3898375)
(-37.951221 -1.2779423 0.75606557)
(-36.092798 -2.1253836 0.36982915)
(-35.646843 -0.95806812 0.80897456)
(-34.62009 -1.7562298 0.27412867)
(-33.954507 -0.6913895 0.78146573)
(-33.446408 -1.5046121 0.20590712)
(-32.573119 -0.525981 0.77021114)
(-32.28499 -1.332846 0.17061382)
(-31.326357 -0.43136394 0.79064687)
(-45.280604 -3.7622543 -0.24825224)
(-45.908857 -3.0141482 -0.037396307)
(-41.287953 -2.2928351 0.11561834)
(-41.938982 -0.96067432 0.4391209)
(-39.541689 -1.6256994 0.27691918)
(-39.496924 -0.40060819 0.69210169)
(-37.842597 -1.1623596 0.2556169)
(-37.162918 -0.039771781 0.75442166)
(-36.253234 -0.81774117 0.20012389)
(-35.132664 0.21437536 0.77001339)
(-34.697061 -0.55509025 0.19043258)
(-33.192397 0.4161794 0.82402571)
(-33.084784 -0.32747052 0.24743408)
(-31.293405 0.59073663 0.92248555)
(-46.084271 -3.4349739 -0.34462663)
(-46.773859 -2.7136954 -0.15211368)
(-41.768819 -1.7362948 0.025707194)
(-42.331066 -0.43537224 0.34262925)
(-39.844153 -1.0078888 0.1539227)
(-39.621699 0.27452561 0.60634074)
(-37.950668 -0.56195496 0.16585228)
(-36.936875 0.6913675 0.72456958)
(-35.96976 -0.21177747 0.18423876)
(-34.232941 1.0212919 0.82498974)
(-33.711691 0.1385451 0.25922188)
(-31.441865 1.3600759 0.94639763)
(-31.370152 0.48585202 0.36845946)
(-28.981639 1.6634237 1.0417789)
(-45.640009 -3.2463816 -0.44859168)
(-46.448924 -2.5404537 -0.29415389)
(-41.254626 -1.3224974 -0.088816349)
(-41.778332 0.00094612433 0.20438208)
(-39.075753 -0.54851473 0.019987684)
(-38.677118 0.87256068 0.47976101)
(-36.809408 -0.068516919 0.075893124)
(-35.429148 1.4147022 0.64329349)
(-34.194887 0.3809936 0.15454205)
(-31.957515 1.9230761 0.77897291)
(-31.196746 0.88296399 0.26752725)
(-28.568462 2.4394453 0.89508972)
(-28.405934 1.3539438 0.37887966)
(-25.854274 2.8715257 0.964228)
(-44.114131 -3.1456632 -0.56173694)
(-45.11116 -2.4594741 -0.46322842)
(-39.843429 -0.96820972 -0.2222288)
(-40.448893 0.41246386 0.0195629)
(-37.431167 -0.1286545 -0.12177789)
(-37.020459 1.4763694 0.30629098)
(-34.801922 0.42710585 -0.032928073)
(-33.303435 2.1769934 0.47693159)
(-31.676048 0.99648301 0.075606713)
(-29.345263 2.8513327 0.5956894)
(-28.172488 1.6386029 0.19766675)
(-25.620581 3.5117709 0.66762292)
(-24.988531 2.2362301 0.2940139)
(-22.733519 4.0468529 0.69093479)
(-41.364619 -3.0462737 -0.64271353)
(-42.685607 -2.4072017 -0.63579407)
(-37.668782 -0.56612913 -0.3794097)
(-38.574155 0.85457267 -0.22893509)
(-35.342128 0.34551114 -0.28158922)
(-35.29991 2.0735718 0.058300405)
(-32.704023 0.96126251 -0.1777271)
(-31.70825 2.8455588 0.21165716)
(-29.489777 1.6049692 -0.074745444)
(-27.726563 3.5827578 0.28464391)
(-25.726284 2.3529312 0.038133764)
(-23.711156 4.3443536 0.30714084)
(-22.088245 3.0923606 0.12500062)
(-20.449277 4.9974175 0.28261017)
(-37.561775 -2.878293 -0.71029792)
(-39.29104 -2.3242778 -0.80106013)
(-34.975698 8.0576545e-05 -0.54676969)
(-36.419513 1.3573803 -0.54685253)
(-33.385928 0.92916207 -0.4222287)
(-34.084316 2.6054636 -0.23343705)
(-31.380821 1.4974128 -0.27137944)
(-31.345387 3.2909316 -0.045481535)
(-28.917641 2.043214 -0.16340361)
(-28.188245 3.8663138 0.0032487855)
(-25.647105 2.7380132 -0.071955715)
(-24.422921 4.560575 -0.022711404)
(-21.655597 3.5944438 -0.0035209015)
(-20.490548 5.3343353 -0.10848309)
(-32.914885 -2.6425485 -0.76346859)
(-35.059275 -2.2547176 -0.97853983)
(-31.978906 0.66009264 -0.77287174)
(-34.105168 1.7765271 -0.91801446)
(-31.732921 1.5243112 -0.57168711)
(-33.168043 2.9407907 -0.53054089)
(-30.671635 1.9839349 -0.31819907)
(-31.350377 3.5111662 -0.25074028)
(-29.052546 2.4033791 -0.15336211)
(-29.088869 3.9265951 -0.15934991)
(-26.898782 2.8946489 -0.062503605)
(-26.284124 4.3988239 -0.16756642)
(-23.880033 3.5723613 -0.027326715)
(-22.732651 5.0467524 -0.25914125)
(-28.021988 -2.518207 -0.83302518)
(-30.393603 -2.4107891 -1.1737935)
(-28.201799 1.0803863 -1.0123806)
(-31.029473 1.8539989 -1.3195669)
(-29.278144 1.9389679 -0.75939476)
(-31.466718 2.9822186 -0.89408179)
(-29.226189 2.3515684 -0.44145184)
(-30.354116 3.5198254 -0.53203463)
(-28.391227 2.6972833 -0.23066708)
(-28.480113 3.9184487 -0.36511938)
(-26.912608 3.0803123 -0.10933379)
(-26.029338 4.3588429 -0.33587755)
(-24.89319 3.5574348 -0.061855986)
(-22.812731 4.9583863 -0.41938824)
(-23.98283 -2.678559 -0.93449418)
(-26.276876 -2.9982251 -1.3351249)
(-23.604171 1.037845 -1.2341505)
(-26.699056 1.2556756 -1.6268313)
(-24.525204 2.067944 -0.93478833)
(-27.601603 2.4551615 -1.182285)
(-24.632962 2.6577792 -0.58846521)
(-27.034537 3.1048117 -0.81092259)
(-24.026851 3.1097354 -0.34856804)
(-25.575731 3.6012348 -0.62482292)
(-22.922326 3.5315102 -0.21697429)
(-23.44697 4.1184234 -0.58824886)
(-21.369211 3.988215 -0.17130265)
(-20.606779 4.7550084 -0.69486029)
(-21.736733 -3.3461997 -0.97413139)
(-23.837966 -4.0831494 -1.4003025)
(-21.166339 0.035971518 -1.6255668)
(-24.224256 -0.2536781 -1.9586975)
(-22.346202 0.9745633 -1.3058111)
(-25.859129 0.78592496 -1.5138499)
(-22.764429 1.537277 -0.95763294)
(-26.00413 1.3781017 -1.1624166)
(-22.393252 1.9901424 -0.72530207)
(-25.106075 1.8618179 -0.9720574)
(-21.47348 2.4194037 -0.60027929)
(-23.610472 2.3377924 -0.92176539)
(-20.100618 2.8742433 -0.56183866)
(-21.457866 2.9103228 -1.0092652)
(-21.27167 -4.3726093 -0.697797)
(-23.115202 -5.4495921 -1.1544831)
(-20.279705 -1.6013729 -1.8618687)
(-23.250086 -2.3126601 -2.2840797)
(-21.789021 -0.82233967 -1.5135177)
(-25.759922 -1.5768003 -1.9195988)
(-22.683904 -0.34332535 -1.1170899)
(-26.803042 -1.194452 -1.5642442)
(-22.670217 0.059428523 -0.85539828)
(-26.510753 -0.8082438 -1.3428379)
(-22.000373 0.46445866 -0.70501225)
(-25.530637 -0.37915431 -1.2458888)
(-20.895909 0.87452441 -0.63648291)
(-24.048909 0.11697645 -1.256792)
(-22.234519 -5.1849413 -0.072649237)
(-23.854494 -6.4585228 -0.55111151)
(-20.360959 -2.8532366 -1.7430505)
(-23.090305 -3.9852328 -2.2298052)
(-21.799976 -2.1386229 -1.3991975)
(-25.730012 -3.5231778 -1.972503)
(-22.869109 -1.6833605 -0.95272337)
(-27.361815 -3.3841567 -1.599375)
(-23.042284 -1.2827433 -0.65151185)
(-27.647996 -3.1540769 -1.3518405)
(-22.526848 -0.87809032 -0.47213088)
(-27.117536 -2.798016 -1.2185324)
(-21.561968 -0.4657545 -0.37417685)
(-26.084593 -2.3816942 -1.1784287)
(-23.466167 -5.4640568 0.65146686)
(-24.939235 -6.8577351 0.15033406)
(-20.936307 -3.4633107 -1.3997073)
(-23.565962 -4.9230595 -1.8125772)
(-22.159058 -2.731123 -1.1708797)
(-26.04204 -4.6389722 -1.6871863)
(-23.205783 -2.2550462 -0.74420964)
(-27.826121 -4.6562599 -1.3470586)
(-23.415018 -1.8315767 -0.44234217)
(-28.328046 -4.5169415 -1.0907375)
(-22.948882 -1.4173517 -0.25755549)
(-27.968365 -4.2130078 -0.93966308)
(-22.045791 -1.0006306 -0.14720885)
(-27.097477 -3.8330167 -0.87480906)
(-24.388425 -5.3034257 1.2710744)
(-25.802855 -6.7098919 0.77849505)
(-21.531636 -3.5163589 -0.89191559)
(-24.234945 -5.0886394 -1.1570722)
(-22.561748 -2.7183037 -0.79125015)
(-26.530426 -4.8020838 -1.094619)
(-23.521317 -2.1989363 -0.44017089)
(-28.200063 -4.799845 -0.80487796)
(-23.689866 -1.7404432 -0.1809393)
(-28.704365 -4.6589357 -0.58219433)
(-23.209152 -1.308896 -0.019001856)
(-28.408296 -4.3662303 -0.44116788)
(-22.314179 -0.88440497 0.083324733)
(-27.610927 -3.9978271 -0.36351764)
(-24.829035 -4.7812007 1.7111897)
(-26.328835 -6.1278585 1.2687649)
(-22.324456 -3.1776029 -0.38331707)
(-25.287261 -4.7124803 -0.46456575)
(-23.565636 -2.3963633 -0.43936148)
(-27.749598 -4.4089814 -0.47207296)
(-24.57741 -1.8876352 -0.21745753)
(-29.342045 -4.3584615 -0.27241685)
(-24.744451 -1.4381033 -0.030591137)
(-29.751776 -4.1716296 -0.11375346)
(-24.247632 -1.0154763 0.10063059)
(-29.387623 -3.8708704 -0.0028653444)
(-23.333764 -0.59289463 0.20013758)
(-28.569629 -3.5050901 0.08262969)
(-24.840456 -3.9449628 1.9643891)
(-26.594517 -5.1624857 1.5956268)
(-23.252312 -2.4552364 0.15662538)
(-26.713379 -3.8114235 0.14748082)
(-25.078141 -1.6967065 0.075210688)
(-29.565511 -3.4478055 0.11353467)
(-26.30294 -1.2296902 0.2272896)
(-31.09082 -3.3256821 0.24070267)
(-26.531885 -0.81118565 0.36763302)
(-31.367199 -3.1019445 0.34929617)
(-26.035705 -0.40602666 0.48036348)
(-30.888326 -2.7908419 0.4395896)
(-25.083331 0.012931705 0.58282975)
(-29.963329 -2.421423 0.53366046)
(-24.820078 -2.9384212 2.2099721)
(-27.021833 -4.0775554 1.9109409)
(-24.456102 -1.5914255 0.74313805)
(-28.523257 -2.8685405 0.68867124)
(-26.947228 -0.894256 0.57516025)
(-31.646646 -2.503867 0.55230427)
(-28.403045 -0.48715298 0.63147552)
(-33.004581 -2.3676982 0.60286338)
(-28.702253 -0.10925127 0.71986986)
(-33.088201 -2.1423089 0.69100691)
(-28.21749 0.27150536 0.81808703)
(-32.475054 -1.8391385 0.80209547)
(-27.23854 0.68013013 0.93317161)
(-31.418414 -1.4749511 0.93057212)
(-25.420181 -1.6774092 2.5825968)
(-28.168524 -2.7593318 2.3368702)
(-25.952017 -0.27400503 1.6273114)
(-30.628543 -1.3809169 1.3498657)
(-28.641573 0.50564084 1.3753043)
(-33.565193 -0.84223067 1.0817403)
(-30.012544 0.95179929 1.3163569)
(-34.478653 -0.57691209 1.0692348)
(-30.194098 1.34184 1.3340204)
(-34.215603 -0.27178432 1.157588)
(-29.609479 1.7351058 1.4071798)
(-33.29778 0.081015637 1.2853343)
(-28.534718 2.1457543 1.5308723)
(-32.050815 0.4703607 1.4498227)
(-27.328644 -0.41932798 2.9255962)
(-30.390952 -1.4980464 2.6606269)
(-27.928433 1.3832991 2.3461397)
(-32.502827 0.23791449 1.6272128)
(-30.018698 2.3644027 1.9237501)
(-34.513369 1.0285858 1.132708)
(-30.702241 2.9372121 1.7313828)
(-34.786706 1.4926889 1.0478588)
(-30.343709 3.4357176 1.7049629)
(-34.071769 1.9215425 1.1229582)
(-29.321366 3.9157126 1.7865424)
(-32.95872 2.3452633 1.2652717)
(-27.842947 4.4148049 1.9539329)
(-31.527143 2.79216 1.4588434)
(-29.585921 0.74640022 3.0538205)
(-32.6543 -0.32705328 2.7746424)
(-28.699525 3.2617673 2.6441143)
(-32.911378 1.8873802 1.6217325)
(-29.619519 4.5605561 2.0794182)
(-33.589397 2.9269691 0.95147215)
(-29.438184 5.3504644 1.8281214)
(-33.267193 3.5608542 0.79303114)
(-28.465669 6.0160316 1.786524)
(-32.361258 4.1026228 0.82214244)
(-26.947601 6.6440402 1.8723548)
(-31.027834 4.6284025 0.94278519)
(-24.957981 7.2740852 2.0561082)
(-29.316168 5.1603824 1.129378)
(-31.963727 1.6409525 2.9892301)
(-34.816585 0.60868487 2.7722942)
(-28.340506 4.9892808 2.6957698)
(-32.193263 3.4264519 1.6884135)
(-27.395973 6.7888158 2.0378613)
(-31.602603 4.7720471 0.90500651)
(-26.331745 7.9045158 1.7235843)
(-30.718471 5.6039327 0.65254048)
(-24.752425 8.802139 1.6454882)
(-29.390565 6.3250676 0.61548304)
(-22.424526 9.6809372 1.7211399)
(-27.573413 7.0010306 0.70172725)
(-19.005729 10.726205 1.9756752)
(-24.979274 7.7967077 0.92089557)
(-34.786111 2.1093235 2.8153763)
(-37.401159 1.1271416 2.6950512)
(-29.148605 6.1208861 2.7338342)
(-32.802496 4.4729087 1.8972393)
(-25.975382 8.4507011 2.1240247)
(-30.485758 6.2028632 1.1883725)
(-23.325131 9.955341 1.7539367)
(-28.532395 7.3506852 0.88810295)
(-20.617126 11.139391 1.6232826)
(-26.403783 8.3078011 0.81375056)
(-17.660012 12.18085 1.6312707)
(-23.73908 9.2624736 0.88376971)
(-14.889302 13.039061 1.7354028)
(-20.617167 10.243647 1.0769304)
(-37.685667 2.217012 2.5483364)
(-40.005129 1.3187502 2.514389)
(-31.766017 6.5118223 2.6932585)
(-34.985587 4.978678 2.0591589)
(-27.90692 8.9836487 2.2097292)
(-31.949236 6.9003169 1.4943802)
(-24.96663 10.473778 1.8199981)
(-29.623797 8.1096267 1.1840378)
(-22.424045 11.562477 1.6321036)
(-27.456541 9.0303904 1.0421103)
(-20.101426 12.399197 1.5735457)
(-25.104799 9.8557928 1.020304)
(-18.123119 13.027664 1.5770233)
(-22.684637 10.59319 1.0685461)
(-40.18166 2.1095159 2.2254095)
(-42.161975 1.3035505 2.2433859)
(-34.943808 6.5341849 2.5465986)
(-37.634544 5.1676768 2.0669868)
(-31.322406 8.9618985 2.1901049)
(-34.629797 7.1110374 1.6405132)
(-28.706893 10.304275 1.7984394)
(-32.425629 8.2339592 1.3011827)
(-26.527659 11.262631 1.587727)
(-30.445833 9.0602271 1.0995992)
(-24.531257 11.991127 1.4991204)
(-28.376655 9.7635944 1.0094892)
(-22.792836 12.542967 1.4585161)
(-26.257075 10.384562 0.98340709)
(-41.940146 1.8722225 1.8653195)
(-43.566135 1.1534076 1.9128975)
(-37.668446 6.4616274 2.3181599)
(-39.872613 5.2730063 1.9899544)
(-34.586396 8.8575298 2.0850604)
(-37.202943 7.2216971 1.687064)
(-32.487819 10.037134 1.7062885)
(-35.300207 8.2239734 1.3379053)
(-30.783124 10.85041 1.4593806)
(-33.600702 8.9493805 1.0893127)
(-29.162345 11.474958 1.3324306)
(-31.864282 9.5451237 0.95503146)
(-27.640937 11.97041 1.269339)
(-30.042285 10.077416 0.89137807)
(-42.820784 1.5395951 1.5032996)
(-44.065916 0.89483291 1.5512379)
(-39.431343 6.3967391 2.0344872)
(-41.248641 5.4018381 1.8270736)
(-36.92123 8.8645403 1.9183304)
(-39.053507 7.4236281 1.6561447)
(-35.33837 9.9064998 1.5622663)
(-37.548203 8.2978236 1.3204212)
(-34.093984 10.595474 1.2795782)
(-36.235848 8.9041939 1.0311115)
(-32.940287 11.090056 1.1054254)
(-34.932967 9.3724272 0.84819771)
(-31.746538 11.501204 1.0196172)
(-33.493813 9.8034809 0.75386775)
(-42.798489 1.0898961 1.1585273)
(-43.566525 0.49901725 1.2020734)
(-40.012613 6.3505924 1.7225627)
(-41.517519 5.5718353 1.6065914)
(-38.112618 9.0457947 1.7245963)
(-39.954233 7.7844269 1.5717737)
(-36.957502 10.004403 1.4249569)
(-38.816331 8.5792872 1.2867441)
(-36.029041 10.593546 1.1309831)
(-37.8056 9.0694377 0.9775751)
(-35.171277 10.997211 0.92315694)
(-36.813514 9.4386206 0.75674024)
(-34.284471 11.316177 0.80881942)
(-35.768072 9.7544442 0.63413954)
(-41.63454 0.43313206 0.83710659)
(-41.862604 -0.12631421 0.87658599)
(-39.114145 6.2030662 1.3800444)
(-40.358041 5.6978185 1.3374026)
(-38.032559 9.3686356 1.5007915)
(-39.74428 8.301368 1.4274144)
(-37.291259 10.349987 1.2949645)
(-38.984028 9.0994423 1.2443581)
(-36.536094 10.908017 1.0220725)
(-38.164682 9.5272854 0.95030041)
(-35.81739 11.267243 0.79490866)
(-37.358092 9.8163623 0.69674543)
(-35.064591 11.5501 0.65200693)
(-36.514573 10.070181 0.54522873)
(-38.977072 -0.56847698 0.54218227)
(-38.437361 -1.0991407 0.58068039)
(-36.133101 5.6708785 1.0057669)
(-37.168584 5.5265181 1.0067214)
(-36.22448 9.650229 1.2253978)
(-37.924675 8.8684924 1.2127448)
(-36.115753 10.840373 1.1455228)
(-37.801472 9.8185708 1.158252)
(-35.524794 11.456858 0.92025649)
(-37.165528 10.297661 0.92253852)
(-34.871873 11.833007 0.68817413)
(-36.460382 10.576825 0.65207489)
(-34.201544 12.116885 0.52410855)
(-35.753364 10.809431 0.46799618)
(-33.720258 -1.9540556 0.29408489)
(-32.509137 -2.3514125 0.31830039)
(-30.217389 4.3059777 0.61586544)
(-31.088649 4.5749247 0.63037158)
(-31.504994 9.302059 0.8687165)
(-33.198749 8.9879154 0.89606105)
(-32.518074 11.029681 0.9267307)
(-34.274289 10.354874 0.96671825)
(-32.476063 11.815931 0.77933348)
(-34.251124 11.012985 0.83003977)
(-32.081194 12.237874 0.55651873)
(-33.833472 11.325401 0.56596672)
(-31.619846 12.530062 0.37644522)
(-33.355052 11.547564 0.37438669)
(-23.965431 -3.2135266 0.14000107)
(-22.608314 -3.2974845 0.13539155)
(-20.357238 1.7901782 0.25968675)
(-21.068967 2.3437566 0.26759383)
(-21.93007 7.0433839 0.45512778)
(-23.367737 7.2724016 0.49185731)
(-23.974077 9.5869365 0.61605524)
(-25.660045 9.5610932 0.67100006)
(-25.076819 10.810665 0.56336775)
(-26.988484 10.587785 0.60545319)
(-25.35738 11.330185 0.37121732)
(-27.399923 10.975213 0.39863059)
(-25.269981 11.623901 0.18807041)
(-27.399886 11.166667 0.1992602)
(-8.6711496 -2.2642699 -0.12846396)
(-8.0972081 -2.1503039 -0.10211412)
(-7.0552167 -0.53092655 -0.092014495)
(-7.4522767 -0.19787751 -0.07131947)
(-7.6008329 1.9631838 -0.031266647)
(-8.2622998 2.2438219 -0.0054483333)
(-8.7512348 3.9930513 0.078971586)
(-9.6094722 4.3834316 0.11930935)
(-10.003315 5.5162138 0.14060864)
(-11.102217 5.9306178 0.18281514)
(-10.698244 6.1740834 0.07826599)
(-11.93378 6.5666603 0.11137916)
(-10.88587 6.3663277 -0.038393332)
(-12.18966 6.7380142 -0.0069944238)
(-4.2001293 -2.5712076 -0.12185384)
(-4.3893794 -2.1669029 -0.01324538)
(-3.8058402 -2.3719981 -0.12091538)
(-4.1111851 -2.0238949 -0.058270295)
(-3.5675436 -2.1635195 -0.11160118)
(-3.8604397 -1.8375695 -0.086731411)
(-3.3167692 -1.9138502 -0.084194455)
(-3.4892953 -1.5997281 -0.07645511)
(-3.269716 -1.6542412 -0.037451693)
(-3.2266158 -1.3580454 -0.01108522)
(-4.1036217 -1.7330153 -0.017103225)
(-3.5974247 -1.5704015 0.056353112)
(-16.770577 -4.5746112 -0.11920037)
(-17.390142 -3.6093301 0.18021007)
(-15.760699 -4.2920001 -0.27016839)
(-16.860496 -3.4651357 -0.023105354)
(-15.03857 -4.0152777 -0.38573992)
(-16.236552 -3.2843472 -0.16865591)
(-14.314971 -3.7073292 -0.41575557)
(-15.381985 -3.0783409 -0.21131355)
(-14.143983 -3.4083912 -0.29157842)
(-14.915497 -2.9240033 -0.090971118)
(-15.932356 -3.5527362 -0.076840726)
(-15.841437 -3.3716493 0.11310688)
(-26.96686 -2.9118673 -0.10679191)
(-27.053169 -1.9428088 0.44935562)
(-26.306353 -2.8043953 -0.24884036)
(-26.490043 -1.9550594 0.31361413)
(-25.541891 -2.7268422 -0.32950162)
(-25.762207 -1.9881442 0.21945293)
(-24.578111 -2.6817349 -0.34480965)
(-24.82103 -2.066147 0.15205262)
(-23.780717 -2.7376455 -0.2685048)
(-23.947387 -2.2874159 0.14324554)
(-24.191234 -3.028962 -0.087986076)
(-23.995241 -2.8875546 0.23497217)
(-31.164686 -1.235022 0.13930449)
(-30.139325 -0.42046896 0.79312684)
(-30.301307 -1.1774126 0.098655886)
(-29.245829 -0.4284046 0.75653194)
(-29.437747 -1.1519782 0.071378968)
(-28.386356 -0.4598989 0.71216229)
(-28.454407 -1.1645455 0.030877333)
(-27.47222 -0.54565522 0.61932937)
(-27.596196 -1.3121166 -0.036820264)
(-26.761174 -0.82756698 0.44181586)
(-27.801709 -1.6913402 -0.070206513)
(-27.106602 -1.5193886 0.2550884)
(-31.459695 -0.1549807 0.33499227)
(-29.567475 0.70073356 1.0067273)
(-30.312375 -0.041064678 0.38329399)
(-28.424628 0.76954147 1.0280594)
(-29.446499 0.018760388 0.39703261)
(-27.593696 0.78787881 1.0035008)
(-28.66435 0.036500825 0.35186396)
(-26.935754 0.74624217 0.89084499)
(-28.071338 -0.055540636 0.19092381)
(-26.604325 0.54013585 0.61676831)
(-28.597791 -0.37750644 -0.12559599)
(-27.458453 -0.075798902 0.1615213)
(-29.402754 0.75108933 0.45177665)
(-27.059642 1.8712368 1.0815593)
(-28.175522 0.92393713 0.48670146)
(-25.918949 2.0013638 1.0695213)
(-27.37929 1.0186151 0.48702539)
(-25.209862 2.0544464 1.0128818)
(-26.835924 1.0559279 0.42868589)
(-24.792101 2.0322173 0.87252984)
(-26.635457 1.0004207 0.23738756)
(-24.819237 1.8574701 0.55776316)
(-27.573216 0.74804767 -0.25382656)
(-26.126317 1.3022357 -0.080301207)
(-26.184299 1.7160783 0.44801469)
(-23.842173 3.1691698 0.97176615)
(-24.876852 1.9413947 0.46261083)
(-22.715252 3.3483512 0.93291315)
(-24.132801 2.0587601 0.43458363)
(-22.08837 3.4261082 0.85485285)
(-23.750418 2.1002993 0.34473169)
(-21.804592 3.4162988 0.69744372)
(-23.849967 2.0420149 0.11659222)
(-22.030151 3.2555359 0.35094892)
(-25.186592 1.7979905 -0.47322424)
(-23.608484 2.7070301 -0.4237746)
(-22.497034 2.7035675 0.34003246)
(-20.655142 4.4216806 0.66176201)
(-21.074575 2.9910459 0.33319743)
(-19.517829 4.6489001 0.60405472)
(-20.312707 3.1449699 0.28270197)
(-18.895869 4.7612641 0.51497336)
(-19.968165 3.2118779 0.16922473)
(-18.599242 4.7896208 0.35549133)
(-20.13994 3.1799958 -0.086796933)
(-18.757283 4.6937443 0.020858956)
(-21.57242 2.959169 -0.74534404)
(-20.181219 4.2360494 -0.82123778)
(-19.173351 3.6926794 0.15799703)
(-18.0901 5.4759584 0.21371882)
(-17.513819 4.0642698 0.13856947)
(-16.807334 5.769687 0.13290034)
(-16.63555 4.2728508 0.073080999)
(-16.084527 5.9355552 0.027721134)
(-16.208089 4.3893699 -0.05677313)
(-15.660441 6.0273577 -0.13906527)
(-16.238474 4.4334235 -0.33109489)
(-15.579636 6.0404329 -0.46181163)
(-17.335065 4.3408728 -1.0120858)
(-16.467352 5.8095741 -1.2685807)
(-17.815374 4.4328292 0.0094732684)
(-17.183627 6.0220566 -0.24589024)
(-15.318164 5.0164307 -0.032594116)
(-15.243953 6.4768824 -0.38866335)
(-13.870395 5.3806828 -0.12891021)
(-14.09391 6.7671377 -0.5560245)
(-13.07875 5.6103752 -0.28925918)
(-13.366684 6.9673591 -0.77809586)
(-12.760334 5.7723306 -0.58422981)
(-12.929047 7.1194554 -1.1387943)
(-13.316302 5.8503199 -1.2344514)
(-13.131665 7.1464012 -1.8521423)
(-19.72161 4.5109345 -0.054879386)
(-18.644165 5.8539767 -0.46237154)
(-15.938218 5.4103256 -0.15609227)
(-15.551772 6.5527315 -0.7164239)
(-13.108689 6.1170324 -0.33324429)
(-13.474718 7.0680317 -1.0159216)
(-11.09092 6.6702157 -0.5848799)
(-11.997162 7.478178 -1.381269)
(-9.9662808 7.0589225 -0.91545648)
(-10.99271 7.8061639 -1.8378728)
(-9.7110063 7.3253188 -1.4473242)
(-10.464347 8.0539688 -2.4928509)
(-21.818812 4.2598507 -0.09796318)
(-18.857295 5.7321819 -0.65164045)
(-17.991247 5.1691013 -0.22829788)
(-15.582303 6.4431096 -0.96442325)
(-14.331661 6.0733132 -0.45806677)
(-13.198927 7.0068052 -1.3438374)
(-10.791106 6.9959582 -0.8024037)
(-11.278771 7.5085329 -1.8201597)
(-8.0913879 7.7806565 -1.1938138)
(-9.8006199 7.9467982 -2.3654164)
(-6.6787908 8.2930588 -1.5344184)
(-8.5941807 8.3549855 -3.0103638)
(-18.979279 4.612833 -0.21666759)
(-17.19973 5.49796 -0.95883464)
(-15.895006 5.4121923 -0.36550627)
(-14.421993 6.1367018 -1.2795711)
(-12.869606 6.2057026 -0.60794388)
(-12.390064 6.6273726 -1.6465998)
(-9.7185852 7.0600107 -0.96326856)
(-10.625311 7.0811541 -2.1144745)
(-6.8748256 7.8910693 -1.3587185)
(-8.9961835 7.5297003 -2.6859553)
(-4.9573336 8.5274775 -1.5896311)
(-7.313844 7.9875844 -3.3434824)
(-17.949872 3.4797006 -0.61288778)
(-18.436206 3.6434726 -1.2662529)
(-15.113897 4.2435155 -0.76013287)
(-15.640338 4.3164026 -1.5968243)
(-12.353019 4.9802582 -0.97951235)
(-13.457561 4.8424956 -1.9710649)
(-9.4049856 5.7798449 -1.2948969)
(-11.380505 5.3439627 -2.4659612)
(-6.3882379 6.6293342 -1.6659723)
(-9.167094 5.8753359 -3.1237532)
(-3.7911706 7.4034306 -1.8710297)
(-6.5592887 6.4626083 -3.8843077)
(-19.142068 1.3892448 -0.63121487)
(-21.834183 0.76153118 -1.3985387)
(-16.606059 2.0846172 -0.68989908)
(-19.18891 1.5286469 -1.6554692)
(-13.945672 2.7849724 -0.81134614)
(-16.890805 2.1870932 -1.982375)
(-10.894749 3.5870953 -1.0182968)
(-14.588387 2.8487329 -2.4470846)
(-7.2668347 4.5693168 -1.3187571)
(-11.949137 3.5904006 -3.1308138)
(-3.236631 5.7080323 -1.5513887)
(-8.385047 4.4421867 -4.041855)
(-20.053335 0.0083309598 -0.32068403)
(-24.436531 -1.8630546 -1.2333569)
(-17.875048 0.63706626 -0.2920199)
(-22.015707 -1.1086191 -1.3863815)
(-15.388858 1.3023331 -0.30402064)
(-19.6085 -0.38048333 -1.609873)
(-12.39303 2.0871925 -0.36280582)
(-17.073504 0.41056451 -1.9377454)
(-8.6253128 3.0989119 -0.47138158)
(-14.154931 1.3777765 -2.4269181)
(-3.8538997 4.4480566 -0.50987024)
(-10.189507 2.6488907 -3.0725507)
(-20.653371 -0.54710365 -0.069277225)
(-25.711391 -3.3916257 -0.87151344)
(-18.625172 0.057165179 0.0095688656)