/*--------------------------------*- C++ -*----------------------------------*\
| =========                 |                                                 |
| \\      /  F ield         | OpenFOAM: The Open Source CFD Toolbox           |
|  \\    /   O peration     | Version:  2212                                  |
|   \\  /    A nd           | Website:  www.openfoam.com                      |
|    \\/     M anipulation  |                                                 |
\*---------------------------------------------------------------------------*/
FoamFile
{
    version     2.0;
    format      ascii;
    arch        "LSB;label=32;scalar=64";
    class       volScalarField;
    location    "0.1";
    object      k;
}
// * * * * * * * * * * * * * * * * * * * * * * * * * * * * * * * * * * * * * //

dimensions      [0 2 -2 0 0 0 0];

internalField   nonuniform List<scalar> 
3072
(
2.34505
3.24722
3.75379
3.74815
3.6927
3.3946
3.22694
4.09423
12.3287
22.7527
26.9882
29.0283
4.90531
7.93079
8.43419
8.20996
8.3603
8.03716
12.1364
19.181
21.9621
31.7403
38.547
46.3186
6.61875
11.2745
13.1174
14.6982
19.3054
21.693
21.8899
26.9475
35.0754
44.9871
52.9375
60.1975
8.81994
16.6567
18.7332
19.5207
22.1488
23.2884
27.0835
36.4123
45.9347
54.62
61.681
67.7501
10.415
20.0656
22.0863
21.9694
23.4573
26.6153
34.8336
45.0719
53.875
61.2512
67.2882
72.4336
11.7037
22.2469
23.6885
23.5864
26.4424
33.1808
42.8429
52.0232
59.5578
65.6689
70.75
75.1358
12.5181
23.6659
25.6766
27.0821
32.5112
41.2705
50.1879
57.8663
64.103
69.1458
73.3984
77.1457
13.7795
26.9405
30.8809
35.7989
44.1194
52.1396
59.1905
64.96
69.6363
73.4582
76.7554
79.7716
15.5082
33.3499
42.9624
53.3904
62.8226
69.3003
73.6737
76.6722
78.9407
80.8335
82.6257
84.496
18.5182
42.9844
62.9671
78.452
88.6318
93.3011
94.6642
94.295
93.3992
92.5885
92.1934
92.3646
21.1656
56.569
91.67
111.52
120.531
122.384
120.491
116.469
112.127
108.243
105.198
103.134
53.0822
92.9539
130.666
147.003
151.004
149.801
144.687
138.041
131.129
124.791
119.483
115.375
30.6639
31.4781
31.9567
32.0299
32.0562
31.0616
29.5873
27.1651
24.0154
20.0364
14.8128
11.2473
53.1817
58.9458
62.9359
64.9399
65.0246
64.3264
62.965
60.4798
55.7895
45.8656
32.8072
27.1634
66.1054
70.4408
73.2722
74.8084
75.5488
75.9022
75.9193
75.3143
73.1572
67.0362
50.3308
39.4974
72.6666
76.5088
79.4059
81.5136
83.1408
84.5948
86.1007
87.5098
87.8435
85.116
71.4234
49.1267
76.6824
80.1729
83.0425
85.4685
87.7376
90.1729
93.0643
96.3871
99.1293
99.3359
89.7818
57.9256
78.9009
82.1871
85.1343
87.9311
90.865
94.2919
98.5448
103.699
109.188
112.41
107.77
66.4115
80.5126
83.639
86.6718
89.8078
93.3373
97.6402
103.116
109.972
117.784
124.184
124.118
75.0415
82.6482
85.5166
88.5256
91.8703
95.8315
100.806
107.274
115.634
125.697
135.04
138.201
84.8747
86.5466
88.8726
91.6168
94.9473
99.0981
104.445
111.526
121.005
133.129
145.529
150.916
96.2167
93.1342
94.5477
96.7401
99.7999
103.87
109.243
116.412
126.325
139.935
155.617
164.714
108.311
102.375
102.974
104.395
106.829
110.559
115.62
122.263
131.619
145.386
164.08
180.302
122.283
113.003
112.924
113.986
115.896
118.928
123.297
128.767
136.484
148.093
168.037
194.49
139.947
2.34506
3.24725
3.7538
3.74817
3.69272
3.39461
3.22696
4.09426
12.3289
22.7528
26.9882
29.0284
4.90534
7.93083
8.43421
8.20997
8.36031
8.03717
12.1365
19.181
21.9622
31.7405
38.5472
46.3188
6.61879
11.2745
13.1174
14.6983
19.3054
21.693
21.8899
26.9477
35.0756
44.9873
52.9377
60.1978
8.82001
16.6568
18.7333
19.5207
22.1488
23.2885
27.0836
36.4126
45.9349
54.6203
61.6813
67.7503
10.4151
20.0658
22.0864
21.9694
23.4574
26.6154
34.8339
45.0722
53.8753
61.2515
67.2885
72.4338
11.7038
22.247
23.6886
23.5865
26.4426
33.1811
42.8432
52.0235
59.5581
65.6692
70.7503
75.1361
12.5182
23.666
25.6768
27.0823
32.5115
41.2708
50.1882
57.8666
64.1033
69.1461
73.3987
77.146
13.7795
26.9406
30.881
35.7991
44.1197
52.14
59.1909
64.9604
69.6366
73.4585
76.7557
79.7719
15.5082
33.35
42.9626
53.3907
62.8229
69.3005
73.674
76.6725
78.941
80.8338
82.626
84.4963
18.5182
42.9844
62.9672
78.4521
88.6319
93.3012
94.6644
94.2952
93.3994
92.5887
92.1937
92.3649
21.1656
56.569
91.67
111.52
120.531
122.384
120.491
116.469
112.127
108.243
105.198
103.135
53.0822
92.954
130.666
147.003
151.004
149.802
144.687
138.041
131.129
124.791
119.483
115.375
30.664
31.4781
31.9568
32.03
32.0563
31.0616
29.5873
27.1651
24.0154
20.0364
14.8128
11.2473
53.1819
58.946
62.9361
64.9401
65.0248
64.3266
62.9651
60.4799
55.7896
45.8656
32.8072
27.1634
66.1057
70.441
73.2724
74.8086
75.549
75.9023
75.9195
75.3145
73.1573
67.0364
50.3309
39.4974
72.6669
76.5091
79.4061
81.5138
83.1411
84.5951
86.1009
87.51
87.8437
85.1161
71.4235
49.1268
76.6827
80.1732
83.0428
85.4688
87.7379
90.1731
93.0645
96.3873
99.1295
99.3361
89.782
57.9256
78.9012
82.1874
85.1347
87.9314
90.8653
94.2922
98.5451
103.699
109.188
112.41
107.771
66.4116
80.5129
83.6394
86.6722
89.8082
93.3376
97.6405
103.116
109.972
117.784
124.185
124.119
75.0415
82.6485
85.5169
88.526
91.8706
95.8318
100.806
107.274
115.634
125.697
135.04
138.202
84.8748
86.547
88.8729
91.6171
94.9476
99.0984
104.445
111.527
121.006
133.129
145.529
150.916
96.2168
93.1345
94.548
96.7404
99.8002
103.87
109.243
116.413
126.325
139.936
155.617
164.714
108.311
102.375
102.974
104.395
106.829
110.559
115.62
122.264
131.62
145.386
164.08
180.302
122.283
113.003
112.925
113.987
115.896
118.928
123.298
128.768
136.485
148.093
168.038
194.49
139.947
2.34507
3.24726
3.75382
3.74819
3.69274
3.39463
3.22697
4.09428
12.3289
22.7528
26.9882
29.0284
4.90536
7.93086
8.43427
8.21003
8.36037
8.03721
12.1365
19.181
21.9622
31.7405
38.5472
46.3187
6.61882
11.2746
13.1175
14.6984
19.3055
21.693
21.8899
26.9477
35.0756
44.9873
52.9377
60.1977
8.82004
16.6569
18.7334
19.5208
22.1488
23.2885
27.0836
36.4126
45.9349
54.6203
61.6813
67.7503
10.4152
20.0658
22.0865
21.9695
23.4574
26.6154
34.8339
45.0722
53.8753
61.2515
67.2885
72.4338
11.7038
22.247
23.6887
23.5866
26.4426
33.1811
42.8432
52.0235
59.5581
65.6692
70.7503
75.1361
12.5182
23.6661
25.6768
27.0823
32.5115
41.2709
50.1882
57.8666
64.1033
69.1462
73.3987
77.1461
13.7796
26.9407
30.8811
35.7992
44.1198
52.1401
59.191
64.9605
69.6367
73.4586
76.7558
79.772
15.5083
33.35
42.9627
53.3907
62.823
69.3006
73.6741
76.6726
78.9411
80.8339
82.6261
84.4964
18.5183
42.9844
62.9672
78.4522
88.632
93.3014
94.6645
94.2954
93.3995
92.5889
92.1938
92.365
21.1656
56.569
91.6701
111.521
120.532
122.385
120.491
116.469
112.127
108.243
105.199
103.135
53.0823
92.954
130.666
147.003
151.004
149.802
144.687
138.041
131.13
124.791
119.483
115.375
30.664
31.4781
31.9567
32.03
32.0562
31.0616
29.5873
27.1651
24.0154
20.0364
14.8128
11.2473
53.1818
58.9459
62.9361
64.94
65.0247
64.3265
62.965
60.4798
55.7895
45.8656
32.8072
27.1634
66.1056
70.441
73.2724
74.8086
75.5489
75.9023
75.9194
75.3144
73.1572
67.0363
50.3308
39.4974
72.6668
76.509
79.4061
81.5137
83.141
84.595
86.1008
87.5099
87.8436
85.116
71.4234
49.1267
76.6826
80.1732
83.0427
85.4688
87.7379
90.1731
93.0645
96.3872
99.1294
99.336
89.7819
57.9256
78.9012
82.1874
85.1346
87.9314
90.8652
94.2921
98.5451
103.699
109.188
112.41
107.77
66.4115
80.5129
83.6394
86.6722
89.8082
93.3376
97.6405
103.116
109.972
117.784
124.184
124.118
75.0415
82.6486
85.517
88.526
91.8706
95.8318
100.806
107.274
115.634
125.697
135.04
138.202
84.8747
86.547
88.873
91.6172
94.9477
99.0985
104.445
111.527
121.006
133.129
145.529
150.916
96.2167
93.1346
94.5481
96.7405
99.8003
103.87
109.243
116.413
126.325
139.936
155.617
164.714
108.311
102.376
102.974
104.395
106.829
110.559
115.62
122.264
131.62
145.386
164.08
180.302
122.283
113.003
112.925
113.987
115.896
118.928
123.298
128.768
136.485
148.093
168.037
194.49
139.947
2.34505
3.24724
3.75379
3.74816
3.69271
3.3946
3.22695
4.09424
12.3287
22.7527
26.9881
29.0283
4.90533
7.93081
8.4342
8.20996
8.36029
8.03715
12.1364
19.181
21.9621
31.7404
38.547
46.3186
6.61877
11.2745
13.1174
14.6982
19.3053
21.693
21.8898
26.9476
35.0754
44.9871
52.9375
60.1976
8.81998
16.6568
18.7333
19.5207
22.1487
23.2884
27.0835
36.4124
45.9347
54.6201
61.6811
67.7501
10.4151
20.0657
22.0863
21.9694
23.4573
26.6153
34.8338
45.072
53.8751
61.2513
67.2883
72.4336
11.7037
22.2469
23.6886
23.5864
26.4425
33.1809
42.843
52.0233
59.5579
65.669
70.7501
75.1359
12.5182
23.666
25.6767
27.0822
32.5113
41.2706
50.188
57.8664
64.1031
69.146
73.3985
77.1459
13.7795
26.9405
30.881
35.799
44.1196
52.1399
59.1907
64.9602
69.6365
73.4584
76.7556
79.7718
15.5082
33.3499
42.9625
53.3906
62.8228
69.3005
73.6739
76.6724
78.9409
80.8337
82.6259
84.4962
18.5182
42.9843
62.9671
78.452
88.6319
93.3012
94.6644
94.2952
93.3994
92.5887
92.1937
92.3648
21.1656
56.5689
91.67
111.52
120.531
122.385
120.491
116.469
112.127
108.243
105.198
103.135
53.0822
92.9539
130.666
147.003
151.004
149.802
144.687
138.041
131.13
124.791
119.483
115.375
30.6639
31.478
31.9567
32.0299
32.0562
31.0616
29.5873
27.165
24.0153
20.0364
14.8127
11.2473
53.1817
58.9458
62.9359
64.9399
65.0246
64.3264
62.965
60.4798
55.7895
45.8656
32.8071
27.1634
66.1055
70.4408
73.2723
74.8084
75.5488
75.9022
75.9193
75.3143
73.1572
67.0362
50.3308
39.4973
72.6667
76.5089
79.4059
81.5136
83.1409
84.5949
86.1007
87.5098
87.8435
85.116
71.4234
49.1267
76.6825
80.173
83.0426
85.4686
87.7377
90.173
93.0644
96.3871
99.1293
99.3359
89.7818
57.9256
78.9011
82.1872
85.1345
87.9313
90.8651
94.292
98.5449
103.699
109.188
112.41
107.77
66.4115
80.5128
83.6392
86.672
89.808
93.3375
97.6404
103.116
109.972
117.784
124.184
124.118
75.0414
82.6484
85.5168
88.5258
91.8705
95.8317
100.806
107.274
115.634
125.697
135.04
138.201
84.8747
86.5469
88.8728
91.617
94.9475
99.0983
104.445
111.527
121.005
133.129
145.529
150.916
96.2166
93.1344
94.5479
96.7403
99.8001
103.87
109.243
116.413
126.325
139.935
155.617
164.714
108.311
102.375
102.974
104.395
106.829
110.559
115.62
122.263
131.619
145.386
164.08
180.302
122.283
113.003
112.925
113.987
115.896
118.928
123.297
128.767
136.485
148.093
168.037
194.49
139.947
164.57
161.732
162.472
163.812
163.631
161.699
157.077
150.917
143.992
137.22
131.177
126.145
164.839
158.361
155.653
155.448
155.996
155.714
154.239
151.274
146.87
142.078
137.321
133.051
152.845
148.92
145.684
144.146
143.973
144.307
144.461
143.976
142.8
140.771
138.237
135.98
139.994
138.348
136.443
134.884
134.338
134.577
135.224
135.875
136.307
136.303
136.019
135.78
123.167
122.911
123.86
125.466
127.825
130.932
134.44
139.412
147.538
163.442
192.266
183.857
131.081
131.394
132.275
133.365
134.462
135.436
136.809
139.265
143.605
152.498
172.826
172.336
135.961
136.559
136.839
136.617
135.925
134.959
134.453
134.734
136.558
140.835
152.742
155.386
136.687
136.269
134.702
132.65
130.253
128.524
127.694
127.795
129.158
131.545
137.931
140.971
164.57
161.732
162.472
163.812
163.632
161.699
157.077
150.917
143.992
137.22
131.177
126.145
164.839
158.361
155.653
155.448
155.997
155.714
154.239
151.274
146.87
142.078
137.321
133.052
152.845
148.921
145.685
144.147
143.973
144.307
144.461
143.976
142.8
140.771
138.237
135.981
139.994
138.348
136.444
134.884
134.338
134.577
135.225
135.876
136.307
136.304
136.019
135.78
123.167
122.911
123.86
125.466
127.825
130.932
134.44
139.412
147.538
163.443
192.266
183.857
131.081
131.395
132.275
133.365
134.462
135.437
136.809
139.265
143.605
152.499
172.826
172.337
135.961
136.559
136.839
136.617
135.925
134.959
134.453
134.734
136.558
140.836
152.742
155.386
136.687
136.269
134.702
132.651
130.253
128.524
127.694
127.795
129.158
131.545
137.931
140.971
164.57
161.732
162.472
163.812
163.632
161.699
157.078
150.917
143.992
137.221
131.177
126.146
164.839
158.361
155.654
155.448
155.997
155.714
154.239
151.274
146.87
142.078
137.321
133.052
152.845
148.921
145.685
144.147
143.974
144.307
144.461
143.976
142.8
140.771
138.237
135.981
139.994
138.349
136.444
134.885
134.338
134.577
135.225
135.876
136.307
136.304
136.019
135.78
123.167
122.911
123.861
125.466
127.825
130.932
134.44
139.412
147.538
163.443
192.266
183.857
131.081
131.395
132.275
133.365
134.462
135.436
136.809
139.265
143.605
152.499
172.826
172.336
135.961
136.559
136.839
136.617
135.925
134.959
134.453
134.734
136.558
140.836
152.742
155.386
136.687
136.269
134.702
132.65
130.253
128.524
127.694
127.795
129.158
131.545
137.931
140.971
164.57
161.732
162.472
163.812
163.632
161.699
157.077
150.917
143.992
137.22
131.177
126.146
164.839
158.361
155.653
155.448
155.997
155.714
154.239
151.274
146.87
142.078
137.321
133.052
152.845
148.921
145.685
144.147
143.973
144.307
144.461
143.976
142.8
140.771
138.237
135.981
139.994
138.348
136.444
134.884
134.338
134.577
135.225
135.876
136.307
136.304
136.019
135.78
123.167
122.911
123.86
125.466
127.825
130.932
134.44
139.412
147.538
163.443
192.266
183.856
131.081
131.395
132.275
133.365
134.462
135.436
136.809
139.265
143.605
152.498
172.826
172.336
135.961
136.559
136.839
136.617
135.925
134.959
134.453
134.734
136.558
140.835
152.742
155.386
136.687
136.269
134.702
132.65
130.253
128.524
127.694
127.795
129.158
131.545
137.931
140.97
128.94
128.082
127.495
127.492
127.878
128.474
128.968
129.171
128.896
128.162
127.359
126.928
121.601
121.568
121.708
122.067
122.382
122.398
121.602
119.969
117.447
114.495
111.931
111.064
114.953
115.106
115.204
115.214
114.672
113.355
111.016
107.699
103.606
99.5433
96.5413
96.3195
106.632
106.455
105.851
104.837
102.973
100.189
96.4296
91.9321
87.1792
83.1623
81.0577
80.9678
127.183
124.884
121.855
121.138
120.671
121.308
122.465
124.091
126.106
128.447
130.353
130.651
112.271
112.4
111.142
112.411
113.896
115.999
118.099
120.196
121.935
123.094
123.743
122.976
100.278
102.869
102.627
105.313
107.832
110.569
112.969
114.801
116.03
116.735
116.771
115.719
87.3334
94.4577
94.9114
98.0875
100.955
103.661
105.758
107.269
108.3
108.682
108.279
107.257
128.941
128.082
127.496
127.492
127.879
128.475
128.969
129.172
128.896
128.162
127.359
126.928
121.602
121.569
121.708
122.067
122.382
122.398
121.603
119.969
117.447
114.495
111.931
111.064
114.954
115.106
115.204
115.214
114.672
113.355
111.016
107.699
103.606
99.5434
96.5414
96.3195
106.633
106.456
105.851
104.837
102.973
100.19
96.4296
91.9322
87.1792
83.1624
81.0577
80.9678
127.183
124.884
121.855
121.138
120.671
121.308
122.465
124.092
126.106
128.447
130.353
130.651
112.271
112.4
111.142
112.411
113.896
115.999
118.099
120.196
121.935
123.094
123.743
122.976
100.278
102.869
102.627
105.313
107.832
110.569
112.969
114.801
116.03
116.735
116.771
115.719
87.3334
94.4576
94.9114
98.0874
100.955
103.661
105.758
107.269
108.3
108.682
108.279
107.257
128.941
128.082
127.496
127.492
127.879
128.475
128.969
129.171
128.896
128.162
127.359
126.928
121.602
121.569
121.708
122.067
122.382
122.398
121.603
119.969
117.447
114.495
111.931
111.064
114.954
115.106
115.204
115.214
114.672
113.355
111.016
107.699
103.606
99.5433
96.5413
96.3195
106.633
106.456
105.851
104.837
102.973
100.189
96.4295
91.932
87.1791
83.1623
81.0577
80.9678
127.183
124.884
121.855
121.138
120.671
121.308
122.465
124.091
126.106
128.447
130.353
130.651
112.271
112.4
111.142
112.411
113.896
115.999
118.099
120.196
121.935
123.094
123.743
122.976
100.278
102.869
102.627
105.313
107.832
110.569
112.969
114.801
116.03
116.735
116.771
115.719
87.3334
94.4576
94.9113
98.0874
100.955
103.661
105.758
107.269
108.3
108.682
108.279
107.257
128.941
128.082
127.496
127.492
127.878
128.474
128.969
129.171
128.896
128.162
127.359
126.928
121.602
121.568
121.708
122.067
122.382
122.398
121.603
119.969
117.447
114.495
111.931
111.064
114.954
115.106
115.204
115.214
114.672
113.355
111.016
107.699
103.605
99.5432
96.5413
96.3194
106.632
106.455
105.851
104.837
102.973
100.189
96.4295
91.932
87.1791
83.1622
81.0576
80.9677
127.183
124.884
121.855
121.138
120.671
121.307
122.465
124.091
126.106
128.447
130.352
130.65
112.271
112.4
111.142
112.411
113.896
115.999
118.099
120.196
121.935
123.094
123.743
122.976
100.278
102.869
102.627
105.313
107.831
110.569
112.968
114.801
116.03
116.735
116.771
115.719
87.3333
94.4576
94.9113
98.0873
100.955
103.661
105.758
107.269
108.3
108.682
108.279
107.257
95.3816
94.2752
92.4196
89.873
86.2274
81.4754
75.525
68.443
60.2343
50.6132
38.9099
29.1816
80.7263
78.226
74.6922
70.1662
64.2323
56.8076
47.61
36.4659
23.4452
12.1584
6.18882
4.90498
63.0144
58.876
53.4899
46.8578
38.6357
28.8432
17.5113
7.44422
2.31478
0.959892
0.820109
0.837308
43.3254
37.6544
30.7424
22.6339
13.4113
5.33066
1.20614
0.258739
0.192617
0.178683
0.181938
0.183839
23.4272
16.8579
9.74174
3.77189
0.814107
0.139767
0.127204
0.107794
0.111589
0.110068
0.109448
0.107655
6.33538
2.33516
0.579326
0.0998621
0.119392
0.106188
0.107043
0.106644
0.106611
0.106403
0.106444
0.106427
0.392391
0.103385
0.112689
0.105437
0.10567
0.105726
0.105841
0.105905
0.105931
0.105972
0.106106
0.106204
0.107661
0.103922
0.104143
0.104368
0.104578
0.104796
0.104964
0.105162
0.105362
0.105589
0.105826
0.106042
0.101537
0.101803
0.102077
0.102365
0.102645
0.102928
0.103184
0.103429
0.103666
0.103907
0.104195
0.104528
0.0955564
0.0958638
0.0961542
0.0964806
0.0967773
0.0971013
0.0973989
0.0977225
0.0980214
0.098348
0.0986845
0.0990394
0.080468
0.0808188
0.0811601
0.0815027
0.0818422
0.0821903
0.08254
0.0829049
0.083283
0.083674
0.0840685
0.0844162
0.047785
0.0464676
0.0466185
0.0456014
0.0457149
0.0449442
0.0450491
0.0445511
0.0446657
0.0445092
0.0446337
0.0447363
68.2178
84.7282
86.8103
89.8805
92.5311
94.7676
96.4624
97.752
98.4466
98.4576
97.6042
96.4292
58.9572
74.0993
77.6906
80.2905
82.4019
84.1255
85.4614
86.3044
86.4985
85.8274
84.4451
82.7136
52.3292
64.1681
67.4444
69.4824
71.0342
72.256
72.9969
73.1776
72.541
71.0492
68.9374
66.2868
46.1834
54.087
56.4753
58.026
58.962
59.4425
59.4489
58.6172
57.0555
54.6919
51.6913
47.944
40.0042
43.9418
45.4523
46.2894
46.4985
46.0613
45.0589
43.2598
40.8334
37.6158
33.7431
29.0254
33.3762
34.0689
34.6421
34.5673
33.8739
32.4604
30.5887
27.97
24.8819
20.9991
16.5519
11.4397
26.8743
23.9724
24.2917
22.8579
21.6763
19.3922
16.9892
13.7538
10.4584
6.70763
3.58382
1.19351
20.1469
14.4011
14.5575
11.8201
10.7162
7.73049
5.78058
3.12126
1.68057
0.416508
0.280575
0.0886876
12.6631
5.64677
5.95985
3.26579
2.90513
0.998419
0.761094
0.154011
0.164486
0.0942667
0.103078
0.101097
6.62707
0.956691
1.08955
0.299438
0.312464
0.0919436
0.110895
0.0927378
0.0952938
0.0947238
0.0950748
0.0953284
2.66291
0.0981635
0.129911
0.0745812
0.0819998
0.0773707
0.0787994
0.0789999
0.0791674
0.0794572
0.0797634
0.0801115
2.05158
0.0707486
0.0666997
0.0598775
0.0587945
0.0546288
0.0546496
0.050983
0.0515067
0.0489833
0.0493358
0.0475562
95.3817
94.2753
92.4198
89.8732
86.2276
81.4755
75.5251
68.4431
60.2344
50.6133
38.9099
29.1817
80.7264
78.2261
74.6924
70.1664
64.2325
56.8078
47.6101
36.4661
23.4452
12.1584
6.18884
4.90501
63.0145
58.8761
53.49
46.8579
38.6359
28.8434
17.5114
7.44428
2.3148
0.959903
0.820117
0.837317
43.3255
37.6545
30.7425
22.634
13.4114
5.33072
1.20616
0.258746
0.192621
0.17869
0.181944
0.183844
23.4273
16.858
9.74185
3.77194
0.814126
0.139771
0.127205
0.107796
0.111591
0.110071
0.10945
0.107658
6.33541
2.33517
0.579355
0.0998594
0.119392
0.106187
0.107042
0.106643
0.106611
0.106403
0.106443
0.106427
0.39238
0.103383
0.112688
0.105436
0.105669
0.105725
0.105841
0.105904
0.10593
0.105971
0.106105
0.106204
0.10766
0.103922
0.104143
0.104367
0.104578
0.104796
0.104963
0.105162
0.105362
0.105589
0.105825
0.106041
0.101537
0.101803
0.102077
0.102364
0.102644
0.102927
0.103184
0.103428
0.103665
0.103907
0.104194
0.104528
0.0955563
0.0958637
0.096154
0.0964804
0.0967771
0.0971012
0.0973988
0.0977223
0.0980213
0.0983478
0.0986844
0.0990392
0.0804679
0.0808188
0.0811601
0.0815027
0.0818421
0.0821903
0.08254
0.0829048
0.083283
0.083674
0.0840685
0.0844162
0.047785
0.0464676
0.0466185
0.0456014
0.0457149
0.0449442
0.0450492
0.0445511
0.0446657
0.0445092
0.0446337
0.0447364
68.2177
84.7281
86.8102
89.8805
92.5311
94.7676
96.4623
97.752
98.4465
98.4575
97.6041
96.4291
58.9572
74.0992
77.6905
80.2904
82.4018
84.1254
85.4613
86.3043
86.4984
85.8273
84.4449
82.7135
52.3291
64.168
67.4443
69.4822
71.0341
72.2559
72.9968
73.1775
72.5409
71.0491
68.9373
66.2867
46.1833
54.0868
56.4751
58.0259
58.9618
59.4424
59.4488
58.617
57.0554
54.6918
51.6912
47.9438
40.0041
43.9416
45.4522
46.2893
46.4983
46.0612
45.0587
43.2596
40.8333
37.6156
33.7429
29.0252
33.3761
34.0688
34.6419
34.5671
33.8738
32.4603
30.5885
27.9698
24.8817
20.9989
16.5517
11.4396
26.8742
23.9723
24.2915
22.8577
21.6762
19.3921
16.9891
13.7536
10.4583
6.70753
3.58375
1.19348
20.1467
14.4009
14.5573
11.82
10.716
7.73035
5.78047
3.12118
1.68052
0.416493
0.280573
0.0886878
12.663
5.64665
5.95974
3.2657
2.90504
0.99838
0.761069
0.154006
0.164483
0.0942674
0.103079
0.101097
6.62698
0.956658
1.08952
0.299424
0.312452
0.0919432
0.110894
0.0927381
0.095294
0.0947242
0.0950751
0.0953287
2.66287
0.0981622
0.129908
0.0745815
0.0819997
0.077371
0.0787997
0.0790001
0.0791677
0.0794575
0.0797636
0.0801118
2.05154
0.0707487
0.0666994
0.0598775
0.0587945
0.0546288
0.0546496
0.050983
0.0515067
0.0489834
0.0493359
0.0475563
95.3816
94.2752
92.4197
89.873
86.2274
81.4754
75.5249
68.443
60.2343
50.6133
38.9099
29.1816
80.7262
78.226
74.6922
70.1662
64.2323
56.8076
47.61
36.4659
23.4452
12.1584
6.18883
4.90499
63.0144
58.8759
53.4898
46.8578
38.6357
28.8432
17.5113
7.44423
2.31479
0.9599
0.820113
0.837314
43.3253
37.6543
30.7424
22.6339
13.4113
5.33066
1.20614
0.258746
0.19262
0.17869
0.181944
0.183844
23.4271
16.8578
9.74174
3.77188
0.814109
0.13977
0.127207
0.107797
0.111592
0.110071
0.109451
0.107658
6.33532
2.33512
0.579343
0.0998586
0.119392
0.106188
0.107043
0.106644
0.106612
0.106403
0.106444
0.106427
0.392373
0.103382
0.112689
0.105437
0.105669
0.105725
0.105841
0.105905
0.10593
0.105972
0.106105
0.106204
0.10766
0.103922
0.104143
0.104368
0.104578
0.104796
0.104964
0.105162
0.105362
0.105589
0.105825
0.106042
0.101537
0.101803
0.102077
0.102365
0.102645
0.102928
0.103184
0.103429
0.103666
0.103907
0.104195
0.104528
0.0955566
0.095864
0.0961544
0.0964808
0.0967775
0.0971015
0.0973991
0.0977227
0.0980216
0.0983482
0.0986847
0.0990396
0.0804682
0.0808191
0.0811604
0.081503
0.0818425
0.0821906
0.0825404
0.0829052
0.0832834
0.0836743
0.0840688
0.0844165
0.0477851
0.0464677
0.0466186
0.0456016
0.0457151
0.0449443
0.0450493
0.0445513
0.0446659
0.0445094
0.0446339
0.0447365
68.2177
84.7281
86.8102
89.8805
92.531
94.7675
96.4623
97.7519
98.4465
98.4575
97.6041
96.429
58.9572
74.0992
77.6905
80.2904
82.4018
84.1254
85.4613
86.3043
86.4984
85.8273
84.4449
82.7135
52.3291
64.168
67.4443
69.4822
71.0341
72.2559
72.9968
73.1775
72.5409
71.0491
68.9372
66.2866
46.1833
54.0869
56.4751
58.0259
58.9618
59.4424
59.4488
58.617
57.0553
54.6917
51.6911
47.9438
40.0042
43.9416
45.4522
46.2893
46.4983
46.0612
45.0587
43.2596
40.8333
37.6156
33.7429
29.0252
33.3761
34.0688
34.6419
34.5671
33.8738
32.4603
30.5885
27.9698
24.8817
20.9989
16.5517
11.4396
26.8743
23.9723
24.2915
22.8577
21.6762
19.3921
16.9891
13.7536
10.4583
6.70753
3.58376
1.19348
20.1468
14.401
14.5574
11.82
10.716
7.73035
5.78047
3.12119
1.68053
0.416491
0.280576
0.0886882
12.663
5.64665
5.95974
3.2657
2.90505
0.998382
0.761071
0.154007
0.164483
0.0942677
0.103079
0.101097
6.62701
0.956657
1.08952
0.299424
0.312452
0.0919433
0.110894
0.0927382
0.0952941
0.0947243
0.0950752
0.0953287
2.66288
0.0981622
0.129908
0.0745815
0.0819997
0.0773709
0.0787996
0.0790001
0.0791676
0.0794575
0.0797636
0.0801117
2.05156
0.0707491
0.0666995
0.0598776
0.0587946
0.0546289
0.0546497
0.0509831
0.0515068
0.0489834
0.049336
0.0475563
95.3815
94.2751
92.4196
89.873
86.2274
81.4753
75.5249
68.443
60.2342
50.6132
38.9099
29.1816
80.7262
78.2259
74.6922
70.1661
64.2323
56.8076
47.6099
36.4659
23.4452
12.1584
6.18883
4.905
63.0143
58.8759
53.4898
46.8577
38.6357
28.8432
17.5113
7.44423
2.31479
0.959904
0.820119
0.83732
43.3253
37.6543
30.7423
22.6338
13.4113
5.33065
1.20615
0.258751
0.192625
0.178693
0.181948
0.183848
23.4271
16.8578
9.74173
3.77187
0.814112
0.139771
0.127209
0.107799
0.111594
0.110074
0.109453
0.107661
6.33531
2.33512
0.579346
0.0998593
0.119393
0.106189
0.107043
0.106645
0.106612
0.106404
0.106445
0.106428
0.392375
0.103383
0.112689
0.105437
0.10567
0.105726
0.105841
0.105905
0.105931
0.105972
0.106106
0.106204
0.107661
0.103922
0.104143
0.104368
0.104578
0.104796
0.104964
0.105163
0.105362
0.105589
0.105826
0.106042
0.101537
0.101803
0.102077
0.102365
0.102645
0.102928
0.103185
0.103429
0.103666
0.103908
0.104195
0.104528
0.0955566
0.095864
0.0961544
0.0964808
0.0967775
0.0971016
0.0973992
0.0977227
0.0980217
0.0983483
0.0986848
0.0990397
0.0804682
0.0808191
0.0811604
0.0815029
0.0818424
0.0821906
0.0825403
0.0829051
0.0832833
0.0836742
0.0840687
0.0844165
0.0477851
0.0464677
0.0466186
0.0456015
0.045715
0.0449443
0.0450493
0.0445512
0.0446658
0.0445093
0.0446338
0.0447365
68.2177
84.7281
86.8102
89.8804
92.531
94.7675
96.4622
97.7519
98.4465
98.4575
97.6042
96.4292
58.9571
74.0992
77.6904
80.2904
82.4017
84.1254
85.4612
86.3043
86.4984
85.8273
84.445
82.7136
52.3291
64.1679
67.4443
69.4822
71.0341
72.2558
72.9968
73.1775
72.5409
71.0491
68.9373
66.2867
46.1833
54.0868
56.4751
58.0259
58.9618
59.4424
59.4488
58.617
57.0554
54.6918
51.6912
47.9438
40.0041
43.9416
45.4522
46.2893
46.4983
46.0612
45.0588
43.2596
40.8333
37.6157
33.7429
29.0252
33.3761
34.0688
34.6419
34.5671
33.8738
32.4603
30.5886
27.9698
24.8817
20.999
16.5517
11.4396
26.8742
23.9723
24.2915
22.8577
21.6762
19.3921
16.9891
13.7537
10.4584
6.70758
3.58378
1.19348
20.1468
14.401
14.5574
11.82
10.7161
7.73043
5.78055
3.12126
1.68058
0.416529
0.280592
0.0886992
12.663
5.64673
5.95981
3.26577
2.90512
0.99844
0.761118
0.15404
0.164514
0.0942933
0.103105
0.101123
6.62705
0.956714
1.08957
0.299466
0.312491
0.0919705
0.110922
0.0927636
0.0953198
0.0947497
0.0951006
0.0953541
2.66291
0.0981804
0.129932
0.0746005
0.0820204
0.0773912
0.078821
0.0790218
0.0791897
0.0794796
0.0797858
0.0801338
2.05157
0.0707547
0.0667097
0.0598847
0.0588023
0.0546355
0.054657
0.0509898
0.0515137
0.0489901
0.0493426
0.0475626
)
;

boundaryField
{
    rotor
    {
        type            kqRWallFunction;
        value           nonuniform List<scalar> 
192
(
2.34505
3.24722
3.75379
3.74815
3.6927
3.3946
3.22694
4.09423
12.3287
22.7527
26.9882
29.0283
30.6639
31.4781
31.9567
32.0299
32.0562
31.0616
29.5873
27.1651
24.0154
20.0364
14.8128
11.2473
2.34506
3.24725
3.7538
3.74817
3.69272
3.39461
3.22696
4.09426
12.3289
22.7528
26.9882
29.0284
30.664
31.4781
31.9568
32.03
32.0563
31.0616
29.5873
27.1651
24.0154
20.0364
14.8128
11.2473
2.34507
3.24726
3.75382
3.74819
3.69274
3.39463
3.22697
4.09428
12.3289
22.7528
26.9882
29.0284
30.664
31.4781
31.9567
32.03
32.0562
31.0616
29.5873
27.1651
24.0154
20.0364
14.8128
11.2473
2.34505
3.24724
3.75379
3.74816
3.69271
3.3946
3.22695
4.09424
12.3287
22.7527
26.9881
29.0283
30.6639
31.478
31.9567
32.0299
32.0562
31.0616
29.5873
27.165
24.0153
20.0364
14.8127
11.2473
2.34505
4.90531
6.61875
8.81994
10.415
11.7037
12.5181
13.7795
15.5082
18.5182
21.1656
53.0822
11.2473
27.1634
39.4973
49.1267
57.9256
66.4115
75.0414
84.8747
96.2166
108.311
122.283
139.947
2.34506
4.90534
6.61879
8.82001
10.4151
11.7038
12.5182
13.7795
15.5082
18.5182
21.1656
53.0822
11.2473
27.1634
39.4974
49.1267
57.9256
66.4115
75.0415
84.8747
96.2167
108.311
122.283
139.947
2.34507
4.90536
6.61882
8.82004
10.4152
11.7038
12.5182
13.7796
15.5083
18.5183
21.1656
53.0823
11.2473
27.1634
39.4974
49.1268
57.9256
66.4116
75.0415
84.8748
96.2168
108.311
122.283
139.947
2.34505
4.90533
6.61877
8.81998
10.4151
11.7037
12.5182
13.7795
15.5082
18.5182
21.1656
53.0822
11.2473
27.1634
39.4974
49.1267
57.9256
66.4115
75.0415
84.8747
96.2167
108.311
122.283
139.947
)
;
    }
    stator
    {
        type            kqRWallFunction;
        value           nonuniform List<scalar> 
192
(
0.047785
0.0464676
0.0466185
0.0456014
0.0457149
0.0449442
0.0450491
0.0445511
0.0446657
0.0445092
0.0446337
0.0447363
2.05158
0.0707486
0.0666997
0.0598775
0.0587945
0.0546288
0.0546496
0.050983
0.0515067
0.0489833
0.0493358
0.0475562
0.047785
0.0464676
0.0466185
0.0456014
0.0457149
0.0449442
0.0450492
0.0445511
0.0446657
0.0445092
0.0446337
0.0447364
2.05154
0.0707487
0.0666994
0.0598775
0.0587945
0.0546288
0.0546496
0.050983
0.0515067
0.0489834
0.0493359
0.0475563
0.0477851
0.0464677
0.0466186
0.0456016
0.0457151
0.0449443
0.0450493
0.0445513
0.0446659
0.0445094
0.0446339
0.0447365
2.05156
0.0707491
0.0666995
0.0598776
0.0587946
0.0546289
0.0546497
0.0509831
0.0515068
0.0489834
0.049336
0.0475563
0.0477851
0.0464677
0.0466186
0.0456015
0.045715
0.0449443
0.0450493
0.0445512
0.0446658
0.0445093
0.0446338
0.0447365
2.05157
0.0707547
0.0667097
0.0598847
0.0588023
0.0546355
0.054657
0.0509898
0.0515137
0.0489901
0.0493426
0.0475626
68.2178
58.9572
52.3292
46.1834
40.0042
33.3762
26.8743
20.1469
12.6631
6.62707
2.66291
2.05158
29.1816
4.90498
0.837308
0.183839
0.107655
0.106427
0.106204
0.106042
0.104528
0.0990394
0.0844162
0.0447363
68.2177
58.9572
52.3291
46.1833
40.0041
33.3761
26.8742
20.1467
12.663
6.62698
2.66287
2.05154
29.1817
4.90501
0.837317
0.183844
0.107658
0.106427
0.106204
0.106041
0.104528
0.0990392
0.0844162
0.0447364
68.2177
58.9572
52.3291
46.1833
40.0042
33.3761
26.8743
20.1468
12.663
6.62701
2.66288
2.05156
29.1816
4.90499
0.837314
0.183844
0.107658
0.106427
0.106204
0.106042
0.104528
0.0990396
0.0844165
0.0447365
68.2177
58.9571
52.3291
46.1833
40.0041
33.3761
26.8742
20.1468
12.663
6.62705
2.66291
2.05157
29.1816
4.905
0.83732
0.183848
0.107661
0.106428
0.106204
0.106042
0.104528
0.0990397
0.0844165
0.0447365
)
;
    }
    front
    {
        type            empty;
    }
    back
    {
        type            empty;
    }
}


// ************************************************************************* //
