/*--------------------------------*- C++ -*----------------------------------*\
| =========                 |                                                 |
| \\      /  F ield         | OpenFOAM: The Open Source CFD Toolbox           |
|  \\    /   O peration     | Version:  2206                                  |
|   \\  /    A nd           | Website:  www.openfoam.com                      |
|    \\/     M anipulation  |                                                 |
\*---------------------------------------------------------------------------*/
FoamFile
{
    version     2.0;
    format      ascii;
    arch        "LSB;label=32;scalar=64";
    class       volScalarField;
    location    "400";
    object      epsilon;
}
// * * * * * * * * * * * * * * * * * * * * * * * * * * * * * * * * * * * * * //

dimensions      [0 2 -3 0 0 0 0];

internalField   nonuniform List<scalar> 
12940
(
31.2085
1.01575
0.217553
0.14741
0.134289
0.131012
0.129968
0.129507
119.606
6.80749
0.701329
0.226556
0.155958
0.139547
0.134657
0.132865
235.141
20.3543
2.29209
0.456566
0.208644
0.157107
0.142393
0.1373
368.33
44.6281
6.27674
1.09994
0.338342
0.194257
0.156429
0.143936
501.857
80.5172
13.85
2.64047
0.65418
0.274568
0.183233
0.154982
607.931
124.9
25.5353
5.54916
1.34325
0.445497
0.23512
0.1744
658.177
170.488
40.7506
9.98195
2.59294
0.781849
0.333654
0.208866
642.607
209.319
57.918
15.7785
4.48118
1.36466
0.51113
0.269007
576.816
236.585
75.4267
22.6602
6.98166
2.24814
0.80651
0.370474
489.116
251.044
92.2943
30.4233
10.0591
3.45333
1.25686
0.534007
403.133
253.37
107.94
39.0035
13.7381
4.99416
1.89185
0.783873
330.309
245.23
121.626
48.3843
18.1094
6.90911
2.73735
1.14557
272.352
229.211
132.235
58.4156
23.2942
9.27704
3.8267
1.64512
226.701
208.474
138.59
68.6415
29.3795
12.2118
5.21339
2.31191
190.229
185.938
140.027
78.2472
36.3313
15.8386
6.97807
3.18505
160.534
163.673
136.739
86.2024
43.9005
20.2514
9.22471
4.32058
136.006
142.836
129.652
91.5726
51.5735
25.454
12.0628
5.79539
115.6
123.945
120.013
93.8325
58.6238
31.2936
15.5745
7.70313
98.6595
107.199
109.028
92.9979
64.2852
37.4205
19.7686
10.1388
84.8109
92.6966
97.6933
89.5451
67.9789
43.3191
24.5338
13.1722
73.8973
80.571
86.8146
84.2276
69.4833
48.4277
29.6196
16.8152
65.8819
71.0195
77.0911
77.9236
68.979
52.3151
34.6773
20.9995
60.6865
64.2241
69.1718
71.5617
66.9926
54.8348
39.3766
25.5931
58.0211
60.1622
63.5758
66.0841
64.305
56.1935
43.5629
30.4892
57.3569
58.4775
60.4768
62.3101
61.8596
56.9112
47.3589
35.753
58.0771
58.5749
59.5895
60.6431
60.5671
57.7141
51.0881
41.632
59.6441
59.8419
60.3426
60.9171
60.9228
59.3264
55.1073
48.1922
61.6664
61.7882
62.1438
62.6103
62.8051
62.0888
59.6899
55.1725
63.8858
64.0683
64.5161
65.1502
65.7205
65.8065
64.8515
62.368
66.1387
66.4498
67.1127
68.0655
69.1321
70.0193
70.3187
69.5956
68.3227
68.779
69.6925
71.0104
72.6058
74.2709
75.7048
76.5568
70.3738
70.9561
72.0945
73.7479
75.8315
78.2057
80.6562
82.9233
72.2526
72.9212
74.2211
76.1311
78.6095
81.5793
84.9043
88.4167
73.9371
74.6446
76.0267
78.0889
80.8347
84.2484
88.2701
92.8253
75.4188
76.1216
77.508
79.6117
82.4795
86.1549
90.6538
95.9964
76.7016
77.3664
78.6914
80.7332
83.5731
87.3054
92.0175
97.821
77.8019
78.4061
79.6189
81.5087
84.1758
87.7479
92.3698
98.2273
78.7505
79.2775
80.3382
81.9991
84.3603
87.5578
91.7659
97.2126
79.5953
80.0301
80.9053
82.2739
84.2157
86.8462
90.334
94.9249
80.4048
80.7354
81.4011
82.434
83.877
85.7938
88.3015
91.6941
81.1638
81.4023
81.8849
82.6244
83.6222
84.8547
86.2305
87.4461
81.893
82.061
82.4049
82.9292
83.6172
84.4193
85.2235
85.8041
82.7356
82.8468
83.0813
83.4422
83.91
84.4366
84.9329
85.2589
83.725
83.7945
83.9502
84.1973
84.5203
84.8805
85.2119
85.4224
84.884
84.926
85.0299
85.2046
85.4398
85.7058
85.952
86.1088
86.2254
86.2517
86.3264
86.4615
86.6516
86.8735
87.0843
87.2223
87.7533
87.7734
87.8369
87.9586
88.1375
88.3549
88.5698
88.7167
89.4651
89.4862
89.5521
89.6813
89.8785
90.1294
90.3919
90.5836
91.3535
91.3797
91.4565
91.6084
91.8494
92.1762
92.5502
92.8584
93.4089
93.4404
93.5293
93.7086
94.0086
94.4537
95.0427
95.6602
95.8996
95.9326
96.0253
96.2205
96.5702
97.1495
98.0984
99.7534
98.9112
98.9319
98.9982
99.1531
99.4444
99.9272
100.666
101.723
102.175
102.169
102.179
102.242
102.395
102.667
103.078
103.623
105.708
105.665
105.597
105.539
105.517
105.548
105.636
105.776
109.536
109.446
109.288
109.094
108.887
108.678
108.469
108.26
113.677
113.536
113.282
112.951
112.563
112.126
111.64
111.107
118.141
117.948
117.6
117.141
116.589
115.945
115.2
114.346
122.92
122.675
122.245
121.683
121.004
120.195
119.217
118.028
127.976
127.689
127.201
126.581
125.843
124.954
123.82
122.287
133.243
132.927
132.417
131.804
131.118
130.32
129.263
127.553
138.626
138.3
137.803
137.262
136.749
136.297
135.922
135.666
144.027
143.703
143.238
142.789
142.451
142.275
142.265
142.357
149.366
149.053
148.624
148.254
148.046
148.039
148.2
148.393
154.583
154.284
153.887
153.575
153.451
153.539
153.778
154.007
159.637
159.351
158.978
158.706
158.633
158.773
159.05
159.294
164.497
164.222
163.867
163.621
163.578
163.747
164.043
164.294
169.141
168.875
168.533
168.303
168.278
168.462
168.769
169.022
173.552
173.293
172.96
172.74
172.726
172.918
173.23
173.485
177.716
177.463
177.137
176.923
176.915
177.112
177.426
177.68
181.623
181.375
181.053
180.844
180.839
181.038
181.354
181.606
185.264
185.019
184.7
184.495
184.492
184.692
185.007
185.257
188.629
188.388
188.072
187.868
187.866
188.067
188.381
188.629
191.713
191.474
191.161
190.958
190.957
191.158
191.471
191.718
194.51
194.274
193.962
193.761
193.76
193.96
194.272
194.517
197.015
196.78
196.47
196.27
196.269
196.469
196.78
197.023
199.225
198.992
198.682
198.483
198.483
198.682
198.991
199.233
201.136
200.904
200.596
200.397
200.397
200.595
200.904
201.145
202.748
202.517
202.21
202.011
202.011
202.209
202.517
202.757
204.061
203.83
203.523
203.325
203.325
203.523
203.83
204.069
205.075
204.845
204.538
204.34
204.34
204.538
204.844
205.083
205.794
205.563
205.257
205.059
205.059
205.256
205.563
205.802
206.221
205.99
205.684
205.486
205.486
205.683
205.989
206.229
206.363
206.131
205.824
205.627
205.626
205.824
206.131
206.37
206.228
205.995
205.687
205.489
205.489
205.687
205.994
206.235
205.826
205.59
205.282
205.084
205.084
205.282
205.59
205.833
205.168
204.931
204.621
204.423
204.423
204.621
204.931
205.176
204.271
204.031
203.72
203.521
203.521
203.721
204.032
204.28
203.152
202.908
202.595
202.396
202.397
202.598
202.912
203.163
201.831
201.583
201.269
201.069
201.071
201.274
201.592
201.847
200.333
200.08
199.764
199.564
199.568
199.775
200.097
200.357
198.686
198.428
198.11
197.912
197.919
198.131
198.459
198.726
196.921
196.658
196.34
196.144
196.156
196.376
196.713
196.988
195.073
194.806
194.489
194.299
194.322
194.554
194.903
195.19
193.182
192.912
192.6
192.423
192.462
192.714
193.083
193.385
191.289
191.019
190.72
190.565
190.634
190.918
191.318
191.645
189.433
189.171
188.899
188.784
188.903
189.242
189.694
190.06
187.652
187.41
187.187
187.143
187.347
187.78
188.325
188.758
185.973
185.771
185.635
185.71
186.06
186.656
187.368
187.932
184.406
184.274
184.278
184.547
185.138
186.022
187.053
187.898
182.938
182.913
183.123
183.686
184.662
186.047
187.725
189.292
181.538
181.652
182.129
183.082
184.599
186.764
189.691
193.644
180.172
180.443
181.217
182.598
184.691
187.618
191.543
196.699
178.814
179.243
180.315
182.121
184.77
188.402
193.2
199.409
177.444
178.02
179.372
181.576
184.741
189.011
194.584
201.718
176.05
176.755
178.357
180.919
184.544
189.379
195.625
203.541
174.625
175.44
177.257
180.13
184.156
189.48
196.297
204.86
173.174
174.077
176.076
179.215
183.584
189.324
196.623
205.72
171.707
172.682
174.832
178.195
182.858
188.953
196.66
206.206
170.243
171.277
173.553
177.107
182.022
188.426
196.489
206.424
168.807
169.888
172.272
175.993
181.132
187.812
196.195
206.485
167.423
168.546
171.027
174.899
180.243
187.179
195.863
206.488
166.121
167.282
169.852
173.868
179.409
186.591
195.567
206.521
164.925
166.123
168.782
172.938
178.673
186.099
195.366
206.649
163.857
165.094
167.843
172.142
178.071
185.744
195.303
206.919
162.936
164.214
167.056
171.5
177.629
185.552
195.407
207.357
162.174
163.495
166.435
171.03
177.363
185.539
195.689
207.963
161.58
162.948
165.989
170.739
177.277
185.704
196.143
208.731
161.159
162.576
165.72
170.626
177.368
186.043
196.761
209.648
160.912
162.379
165.627
170.688
177.631
186.543
197.527
210.692
160.837
162.354
165.705
170.917
178.053
187.191
198.422
211.839
160.93
162.497
165.947
171.303
178.621
187.969
199.423
213.063
161.188
162.801
166.346
171.836
179.32
188.856
200.507
214.337
161.604
163.261
166.892
172.504
180.136
189.836
201.653
215.634
162.173
163.868
167.575
173.294
181.053
190.889
202.838
216.931
162.888
164.616
168.388
174.194
182.056
191.998
204.043
218.207
163.744
165.499
169.321
175.196
183.133
193.148
205.251
219.444
164.735
166.509
170.367
176.288
184.273
194.327
206.449
220.627
165.857
167.641
171.519
177.462
185.466
195.524
207.625
221.745
167.104
168.889
172.77
178.712
186.703
196.73
208.77
222.79
168.472
170.25
174.116
180.032
187.979
197.938
209.879
223.758
169.957
171.717
175.551
181.415
189.289
199.145
210.947
224.645
171.555
173.288
177.07
182.859
190.628
200.348
211.975
225.453
173.261
174.957
178.671
184.36
191.995
201.544
212.961
226.183
175.072
176.722
180.35
185.915
193.389
202.735
213.907
226.839
176.982
178.577
182.104
187.523
194.807
203.922
214.817
227.427
178.988
180.52
183.93
189.181
196.251
205.105
215.695
227.953
181.086
182.546
185.824
190.888
197.72
206.288
216.545
228.424
183.269
184.651
187.783
192.642
199.215
207.473
217.372
228.847
185.534
186.831
189.805
194.442
200.736
208.662
218.181
229.231
187.873
189.079
191.886
196.287
202.284
209.859
218.978
229.583
190.283
191.393
194.021
198.173
203.858
211.067
219.768
229.91
192.756
193.766
196.208
200.1
205.461
212.287
220.556
230.221
195.287
196.192
198.442
202.065
207.09
213.522
221.346
230.522
197.868
198.667
200.719
204.066
208.745
214.774
222.143
230.819
200.493
201.183
203.034
206.098
210.426
216.043
222.95
231.119
203.155
203.736
205.382
208.16
212.131
217.332
223.77
231.427
205.848
206.317
207.757
210.247
213.859
218.64
224.606
231.748
208.563
208.922
210.155
212.355
215.607
219.967
225.46
232.085
211.294
211.542
212.57
214.482
217.374
221.312
226.332
232.441
214.033
214.173
214.996
216.622
219.156
222.675
227.225
232.82
216.774
216.806
217.428
218.77
220.95
224.054
228.137
233.223
219.509
219.436
219.86
220.923
222.753
225.447
229.069
233.651
222.231
222.056
222.286
223.074
224.561
226.852
230.02
234.104
224.934
224.659
224.7
225.221
226.371
228.267
230.988
234.584
227.611
227.239
227.096
227.357
228.179
229.688
231.972
235.089
230.256
229.79
229.469
229.477
229.98
231.112
232.97
235.618
232.862
232.306
231.814
231.577
231.771
232.537
233.979
236.169
235.423
234.782
234.125
233.652
233.547
233.958
234.996
236.742
237.935
237.212
236.397
235.697
235.304
235.371
236.019
237.333
240.392
239.59
238.624
237.707
237.037
236.774
237.045
237.941
242.789
241.913
240.803
239.679
238.743
238.163
238.07
238.562
245.121
244.176
242.93
241.608
240.418
239.533
239.09
239.193
247.385
246.374
244.999
243.489
242.057
240.882
240.103
239.832
249.576
248.504
247.007
245.319
243.658
242.204
241.106
240.476
251.692
250.562
248.95
247.095
245.216
243.498
242.093
241.12
253.729
252.545
250.826
248.813
246.728
244.76
243.064
241.761
255.685
254.451
252.632
250.47
248.191
245.986
244.013
242.398
257.557
256.277
254.365
252.064
249.602
247.173
244.938
243.025
259.344
258.022
256.023
253.592
250.959
248.319
245.836
243.64
261.045
259.683
257.604
255.053
252.26
249.422
246.703
244.241
262.657
261.26
259.107
256.444
253.501
250.477
247.539
244.823
264.181
262.751
260.53
257.764
254.682
251.485
248.339
245.385
265.617
264.157
261.874
259.012
255.801
252.442
249.102
245.923
266.963
265.477
263.137
260.187
256.857
253.347
249.826
246.436
268.222
266.712
264.32
261.289
257.849
254.199
250.509
246.922
269.393
267.862
265.423
262.318
258.777
254.997
251.149
247.377
270.478
268.927
266.446
263.275
259.64
255.74
251.746
247.801
271.478
269.91
267.391
264.159
260.439
256.429
252.299
248.193
272.394
270.812
268.259
264.971
261.174
257.062
252.806
248.55
273.23
271.635
269.052
265.714
261.845
257.64
253.268
248.873
273.988
272.381
269.771
266.388
262.455
258.164
253.685
249.161
274.67
273.053
270.419
266.996
263.003
258.635
254.057
249.413
275.279
273.654
270.998
267.539
263.493
259.053
254.384
249.63
275.819
274.187
271.512
268.02
263.926
259.421
254.668
249.812
276.294
274.656
271.964
268.443
264.305
259.74
254.91
249.959
276.707
275.064
272.357
268.81
264.633
260.013
255.112
250.074
277.064
275.416
272.696
269.125
264.912
260.242
255.277
250.157
277.369
275.717
272.986
269.393
265.147
260.431
255.405
250.21
277.628
275.971
273.23
269.618
265.341
260.583
255.502
250.237
277.845
276.186
273.434
269.804
265.5
260.703
255.57
250.24
278.028
276.365
273.605
269.958
265.629
260.795
255.614
250.223
278.182
276.517
273.748
270.086
265.732
260.864
255.638
250.191
278.315
276.647
273.87
270.194
265.817
260.918
255.649
250.148
278.434
276.763
273.979
270.289
265.891
260.961
255.654
250.103
278.546
276.873
274.082
270.379
265.961
261.004
255.659
250.061
278.66
276.985
274.188
270.473
266.037
261.053
255.674
250.032
278.785
277.107
274.304
270.579
266.126
261.119
255.708
250.027
278.927
277.248
274.441
270.707
266.239
261.211
255.773
250.058
279.096
277.416
274.607
270.865
266.386
261.342
255.881
250.138
279.298
277.621
274.812
271.066
266.579
261.522
256.046
250.284
200.545
211.87
229.783
256.069
292.557
340.922
402.45
477.858
567.186
669.749
784.032
907.558
1036.99
1167.33
1291.12
204.651
217.972
237.559
264.807
301.104
347.697
405.556
475.252
556.873
649.979
753.367
865.381
984.049
1106.77
1230.41
208.478
222.973
243.382
270.867
306.587
351.591
406.715
472.472
548.95
635.76
731.671
835.411
945.478
1060.17
1178.11
211.705
226.853
247.622
275.053
310.183
353.958
407.134
470.16
543.088
625.327
715.801
813.328
916.578
1024.15
1135.26
214.228
229.736
250.665
277.987
312.67
355.584
407.406
468.501
538.798
617.538
703.799
796.424
894.148
995.671
1100.34
216.08
231.814
252.855
280.132
314.554
356.92
407.813
467.499
535.643
611.58
694.394
782.955
876.043
972.403
1071.36
217.365
233.296
254.484
281.824
316.165
358.224
408.484
466.984
533.33
606.884
686.73
771.769
860.822
952.679
1046.62
218.22
234.377
255.789
283.307
317.715
359.638
409.39
466.839
531.611
603.04
680.221
762.089
847.516
935.34
1024.82
218.789
235.232
256.952
284.75
319.333
361.206
410.462
466.964
530.287
599.747
674.454
753.386
835.466
919.594
1005.02
219.203
236.003
258.109
286.264
321.085
362.866
411.66
467.262
529.201
596.782
669.138
745.292
824.225
904.9
986.591
219.578
236.8
259.353
287.911
322.924
364.605
412.936
467.643
528.222
593.975
664.061
737.55
813.483
890.89
969.075
220.004
237.701
260.737
289.667
324.839
366.392
414.231
468.026
527.246
591.198
659.068
729.978
803.027
877.312
952.177
220.546
238.749
262.253
291.514
326.806
368.186
415.487
468.336
526.184
588.348
654.047
722.448
792.71
863.998
935.694
221.242
239.948
263.882
293.434
328.792
369.938
416.646
468.508
524.967
585.351
648.913
714.867
782.431
850.831
919.492
222.099
241.281
265.609
295.395
330.754
371.599
417.654
468.487
523.537
582.147
643.605
707.172
772.118
837.734
903.483
223.107
242.734
267.405
297.363
332.65
373.121
418.464
468.226
521.847
578.692
638.08
699.317
761.726
824.656
887.607
224.254
244.283
269.238
299.295
334.434
374.462
419.034
467.687
519.865
574.954
632.307
691.274
751.225
811.564
871.829
225.519
245.897
271.07
301.152
336.067
375.582
419.33
466.839
517.564
570.912
626.268
683.024
740.596
798.439
856.126
226.874
247.545
272.865
302.894
337.511
376.449
419.324
465.662
514.928
566.553
619.953
674.558
729.831
785.271
840.485
228.291
249.19
274.586
304.488
338.736
377.037
418.996
464.14
511.947
561.87
613.358
665.876
718.927
772.057
824.901
229.739
250.801
276.2
305.902
339.715
377.327
418.333
462.266
508.619
556.866
606.486
656.98
707.888
758.798
809.374
231.187
252.346
277.678
307.112
340.43
377.304
417.327
460.039
504.945
551.545
599.344
647.877
696.721
745.499
793.905
232.609
253.8
278.997
308.099
340.866
376.962
415.977
457.46
500.933
545.916
591.944
638.58
685.435
732.169
778.499
233.979
255.138
280.137
308.848
341.016
376.297
414.286
454.538
496.594
539.995
584.299
629.102
674.044
718.817
763.163
235.277
256.343
281.084
309.351
340.876
375.313
412.261
451.285
491.943
533.795
576.427
619.459
662.561
705.455
747.906
236.485
257.4
281.829
309.603
340.448
374.016
409.912
447.715
486.996
527.337
568.346
609.669
651.002
692.096
732.735
237.591
258.301
282.366
309.604
339.736
372.415
407.255
443.845
481.772
520.639
560.074
599.749
639.383
678.752
717.661
238.584
259.039
282.694
309.358
338.749
370.524
404.305
439.693
476.292
513.723
551.634
589.719
627.721
665.437
702.693
239.459
259.612
282.816
308.872
337.498
368.357
401.079
435.28
470.578
506.61
543.046
579.598
616.032
652.166
687.842
240.213
260.021
282.736
308.155
335.996
365.931
397.599
430.628
464.651
499.323
534.331
569.407
604.334
638.951
673.116
240.847
260.271
282.464
307.219
334.26
363.265
393.884
425.759
458.535
491.884
525.51
559.163
592.644
625.808
658.528
241.363
260.368
282.008
306.077
332.305
360.378
389.956
420.694
452.252
484.316
516.606
548.887
580.978
612.749
644.086
241.766
260.319
281.38
304.745
330.149
357.289
385.837
415.457
445.825
476.64
507.637
538.598
569.353
599.787
629.802
242.062
260.135
280.593
303.237
327.811
354.02
381.547
410.07
439.276
468.878
498.626
528.313
557.784
586.937
615.684
242.26
259.826
279.662
301.572
325.31
350.59
377.109
404.554
432.627
461.051
489.59
518.049
546.286
574.21
601.741
242.368
259.404
278.599
299.765
322.663
347.021
372.543
398.932
425.898
453.179
480.549
507.825
534.875
561.617
587.984
242.396
258.881
277.421
297.833
319.891
343.331
367.871
393.223
419.111
445.282
471.52
497.655
523.563
549.171
574.419
242.353
258.27
276.141
295.794
317.011
339.54
363.112
387.448
412.284
437.377
462.521
487.554
512.363
536.881
561.057
242.251
257.583
274.775
293.664
314.041
335.668
358.285
381.626
405.436
429.482
453.567
477.538
501.288
524.758
547.903
242.099
256.833
273.338
291.458
310.999
331.732
353.41
375.776
398.585
421.614
444.674
467.619
490.349
512.81
534.964
241.907
256.031
271.842
289.193
307.901
327.75
348.502
369.913
391.747
413.787
435.855
457.809
479.556
501.047
522.248
241.686
255.19
270.301
286.883
304.763
323.738
343.58
364.056
384.937
406.017
427.123
448.12
468.919
489.476
509.76
241.443
254.321
268.728
284.542
301.6
319.711
338.658
358.218
378.17
398.317
418.491
438.562
458.447
478.103
497.505
241.188
253.433
267.136
282.183
298.426
315.684
333.751
352.413
371.46
390.699
409.969
429.145
448.147
466.936
485.488
240.929
252.537
265.534
279.819
295.254
311.67
328.872
346.656
364.819
383.175
401.568
419.879
438.028
455.979
473.712
240.672
251.641
263.934
277.461
292.096
307.682
324.034
340.958
358.257
375.754
393.297
410.769
428.095
445.238
462.181
240.425
250.753
262.344
275.119
288.963
303.731
319.248
335.329
351.786
368.447
385.164
401.824
418.354
434.717
450.897
240.193
249.881
260.774
272.803
285.866
299.827
314.525
329.781
345.415
361.262
377.176
393.05
408.809
424.419
439.864
239.981
249.031
259.23
270.521
282.812
295.981
309.873
324.321
339.153
354.206
369.341
384.452
399.465
414.348
429.082
239.793
248.208
257.72
268.28
279.811
292.199
305.302
318.959
333.006
347.286
361.664
376.034
390.326
404.504
418.552
239.632
247.418
256.248
266.088
276.87
288.491
300.819
313.702
326.982
340.509
354.15
367.802
381.394
394.891
408.276
239.502
246.663
254.821
263.95
273.995
284.862
296.43
308.555
321.086
333.878
346.803
359.757
372.671
385.509
398.253
239.404
245.947
253.441
261.871
271.191
281.318
292.141
303.524
315.324
327.4
339.626
351.903
364.16
376.359
388.483
239.339
245.273
252.113
259.855
268.463
277.864
287.957
298.614
309.699
321.076
332.624
344.242
355.861
367.441
378.964
239.308
244.642
250.839
257.905
265.814
274.504
283.881
293.829
304.216
314.912
325.797
336.774
347.774
358.755
369.697
239.311
244.054
249.62
256.024
263.248
271.241
279.919
289.172
298.877
308.907
319.148
329.502
339.9
350.3
360.678
239.347
243.511
248.459
254.212
260.766
268.077
276.071
284.645
293.684
303.065
312.677
322.426
332.239
342.074
351.907
239.416
243.013
247.354
252.473
258.371
265.015
272.34
280.251
288.639
297.387
306.387
315.544
324.79
334.077
343.38
239.516
242.558
246.307
250.805
256.063
262.056
268.727
275.99
283.742
291.873
300.275
308.858
317.551
326.306
335.095
239.646
242.146
245.317
249.21
253.842
259.2
265.233
271.864
278.995
286.523
294.343
302.366
310.521
318.759
327.05
239.802
241.774
244.383
247.686
251.709
256.447
261.858
267.871
274.398
281.337
288.589
296.067
303.698
311.433
319.241
239.984
241.442
243.503
246.232
249.663
253.797
258.601
264.013
269.949
276.314
283.013
289.959
297.08
304.327
311.665
240.187
241.147
242.676
244.847
247.702
251.248
255.462
260.287
265.648
271.453
277.612
284.04
290.665
297.436
304.317
240.41
240.886
241.9
243.53
245.825
248.801
252.439
256.694
261.493
266.753
272.385
278.308
284.45
290.758
297.196
240.649
240.657
241.172
242.278
244.03
246.451
249.532
253.23
257.483
262.211
267.331
272.76
278.431
284.289
290.295
240.901
240.458
240.49
241.089
242.315
244.199
246.736
249.895
253.616
257.826
262.445
267.395
272.606
278.026
283.612
241.164
240.284
239.851
239.959
240.677
242.04
244.052
246.685
249.889
253.594
257.726
262.208
266.972
271.964
277.142
241.433
240.134
239.252
238.888
239.114
239.973
241.475
243.598
246.299
249.514
253.17
257.196
261.525
266.1
270.88
241.706
240.004
238.69
237.87
237.622
237.994
239.002
240.632
242.844
245.581
248.775
252.357
256.26
260.43
264.823
241.98
239.891
238.162
236.904
236.199
236.101
236.632
237.783
239.521
241.793
244.537
247.686
251.175
254.95
258.966
242.251
239.792
237.666
235.986
234.842
234.291
234.36
235.047
236.325
238.147
240.453
243.18
246.265
249.655
253.303
242.518
239.704
237.196
235.113
233.547
232.559
232.183
232.422
233.254
234.638
236.518
238.834
241.527
244.541
247.831
242.776
239.623
236.752
234.282
232.31
230.902
230.097
229.904
230.304
231.263
232.729
234.646
236.955
239.604
242.545
243.023
239.548
236.329
233.489
231.128
229.318
228.1
227.488
227.471
228.018
229.083
230.611
232.547
234.839
237.44
243.257
239.475
235.925
232.732
229.999
227.801
226.186
225.172
224.752
224.899
225.574
226.724
228.296
230.241
232.511
243.475
239.403
235.536
232.006
228.918
226.35
224.353
222.95
222.141
221.903
222.198
222.981
224.2
225.806
227.754
243.676
239.327
235.161
231.309
227.882
224.959
222.596
220.82
219.635
219.024
218.952
219.378
220.254
221.53
223.163
243.857
239.247
234.796
230.639
226.887
223.626
220.912
218.778
217.231
216.258
215.832
215.911
216.452
217.408
218.734
244.018
239.159
234.438
229.992
225.932
222.346
219.297
216.818
214.923
213.602
212.832
212.576
212.791
213.434
214.461
244.155
239.063
234.087
229.365
225.012
221.118
217.747
214.938
212.708
211.052
209.949
209.367
209.266
209.605
210.341
244.27
238.957
233.739
228.756
224.124
219.936
216.258
213.134
210.582
208.602
207.177
206.28
205.873
205.916
206.369
244.36
238.839
233.393
228.163
223.267
218.799
214.828
211.401
208.54
206.249
204.514
203.311
202.606
202.362
202.539
244.425
238.708
233.047
227.583
222.436
217.702
213.453
209.736
206.579
203.988
201.954
200.455
199.462
198.938
198.847
244.465
238.564
232.699
227.015
221.63
216.644
212.129
208.136
204.695
201.816
199.493
197.709
196.436
195.641
195.288
244.48
238.406
232.35
226.456
220.847
215.621
210.853
206.597
202.884
199.728
197.128
195.068
193.523
192.464
191.857
244.471
238.234
231.997
225.907
220.085
214.632
209.623
205.115
201.142
197.721
194.853
192.527
190.72
189.405
188.551
244.439
238.048
231.641
225.365
219.342
213.673
208.436
203.688
199.467
195.792
192.666
190.082
188.022
186.459
185.364
244.384
237.849
231.282
224.831
218.618
212.744
207.29
202.314
197.855
193.936
190.563
187.731
185.424
183.621
182.293
244.31
237.639
230.921
224.304
217.91
211.843
206.183
200.989
196.304
192.151
188.54
185.469
182.925
180.888
179.333
244.219
237.419
230.558
223.784
217.221
210.97
205.114
199.713
194.811
190.434
186.594
183.293
180.519
178.257
176.482
244.113
237.192
230.196
223.274
216.549
210.125
204.083
198.484
193.375
188.784
184.725
181.201
178.206
175.724
173.735
243.997
236.961
229.838
222.775
215.898
209.309
203.09
197.304
191.998
187.201
182.931
179.193
175.983
173.289
171.092
243.875
236.731
229.487
222.292
215.27
208.525
202.138
196.174
190.679
185.686
181.213
177.269
173.852
170.952
168.552
243.755
236.507
229.149
221.829
214.671
207.778
201.232
195.098
189.424
184.243
179.576
175.434
171.816
168.716
166.12
243.643
236.298
228.832
221.394
214.108
207.076
200.381
194.086
188.242
182.882
178.029
173.696
169.885
166.592
163.805
243.548
236.112
228.545
220.998
213.593
206.432
199.596
193.152
187.147
181.617
176.588
172.074
168.077
164.598
161.626
243.482
235.962
228.304
220.656
213.142
205.863
198.899
192.316
186.163
180.477
175.283
170.597
166.425
162.769
159.621
243.459
235.863
228.124
220.388
212.779
205.396
198.321
191.616
185.331
179.504
174.161
169.32
164.988
161.168
157.856
243.494
235.835
228.029
220.222
212.537
205.071
197.906
191.103
184.712
178.769
173.303
168.332
163.865
159.906
156.453
243.607
235.901
228.047
220.193
212.459
204.942
197.721
190.857
184.4
178.384
172.839
167.783
163.225
159.172
155.623
1414.14
1509.15
1608.01
1710.12
1810.66
1903.25
1981
2037.31
2066.72
2065.68
2033.22
1971.26
1884.67
1780.96
1669.5
1560.52
1463.79
1387.45
1337.15
1315.89
1324.23
1360.83
1422.95
1506.88
1608.25
1722.35
1844.35
1969.6
2093.78
2213.02
2324.04
2424.11
2511.18
2583.78
2641.11
2682.93
2709.61
2722.04
2721.62
2710.17
1344.03
1444.91
1547.16
1649.18
1746.6
1834.06
1905.87
1956.68
1982.2
1979.85
1949.25
1892.53
1814.39
1721.72
1623.02
1527.44
1443.62
1378.74
1337.81
1323.47
1336.23
1374.86
1436.87
1518.78
1616.52
1725.66
1841.69
1960.23
2077.2
2188.99
2292.52
2385.28
2465.36
2531.49
2582.99
2619.76
2642.28
2651.56
2649.07
2636.72
1287.78
1390.79
1493.37
1593.46
1686.97
1769.27
1835.6
1881.62
1903.96
1900.79
1872.21
1820.5
1750.16
1667.56
1580.41
1496.86
1424.61
1369.98
1337.37
1329.12
1345.68
1385.91
1447.5
1527.23
1621.27
1725.49
1835.65
1947.62
2057.61
2162.2
2258.54
2344.3
2417.75
2477.76
2523.78
2555.85
2574.53
2580.92
2576.56
2563.42
1241.76
1344.87
1445.97
1542.92
1631.97
1709.06
1770.2
1811.86
1831.43
1827.68
1801.1
1754.08
1690.92
1617.5
1540.81
1468.14
1406.3
1360.84
1335.66
1332.79
1352.61
1394.07
1455
1532.41
1622.73
1722.06
1826.45
1932.04
2035.24
2132.89
2222.32
2301.4
2368.54
2422.77
2463.66
2491.34
2506.48
2510.24
2504.22
2490.42
1203.41
1305.09
1403.49
1496.54
1580.8
1652.75
1709.02
1746.74
1763.92
1759.82
1735.24
1692.64
1636.09
1571.06
1503.85
1440.98
1388.48
1351.23
1332.63
1334.49
1357.08
1399.41
1459.47
1534.45
1621.02
1715.54
1814.29
1913.65
2010.3
2101.28
2184.1
2256.81
2317.98
2366.76
2402.85
2426.46
2438.36
2439.74
2432.25
2417.92
1170.72
1269.86
1364.76
1453.45
1532.82
1599.79
1651.53
1685.72
1700.86
1696.64
1674.06
1635.62
1585.2
1527.82
1469.2
1415.15
1371
1341.05
1328.28
1334.24
1359.14
1402.03
1461.01
1533.48
1616.3
1706.08
1799.33
1892.68
1983.02
2067.59
2144.11
2210.77
2266.3
2309.97
2341.58
2361.44
2370.36
2369.6
2360.83
2346.09
1142.09
1237.96
1328.87
1412.97
1487.48
1549.72
1597.29
1628.33
1641.77
1637.61
1617.04
1582.54
1537.78
1487.39
1436.53
1390.41
1353.72
1330.24
1322.58
1332.08
1358.86
1402.01
1459.75
1529.63
1608.73
1693.86
1781.77
1869.31
1953.59
2032.05
2102.56
2163.5
2213.72
2252.61
2280.06
2296.46
2302.67
2300
2290.12
2275.06
1116.36
1208.47
1295.13
1374.6
1444.4
1502.17
1545.93
1574.19
1586.24
1582.31
1563.74
1532.95
1493.42
1449.4
1405.57
1366.54
1336.49
1318.73
1315.54
1328.05
1356.33
1399.48
1455.83
1523.07
1598.48
1679.07
1761.81
1843.76
1922.24
1994.86
2059.68
2115.22
2160.45
2194.88
2218.48
2231.7
2235.46
2231.08
2220.24
2204.97
1092.66
1180.74
1263.05
1337.96
1403.24
1456.87
1497.16
1522.99
1533.91
1530.36
1513.75
1486.46
1451.76
1413.55
1376.04
1343.36
1319.2
1306.48
1307.16
1322.22
1351.64
1394.56
1449.39
1513.96
1585.72
1661.89
1739.64
1816.23
1889.16
1956.24
2015.68
2066.13
2106.69
2136.97
2157.01
2167.33
2168.87
2162.98
2151.33
2135.93
1070.38
1154.32
1232.29
1302.77
1363.78
1413.56
1450.74
1474.45
1484.47
1481.41
1466.73
1442.74
1412.48
1379.54
1347.72
1320.71
1301.77
1293.46
1297.48
1314.65
1344.9
1387.38
1440.58
1502.47
1570.65
1642.53
1715.47
1786.92
1854.57
1916.39
1970.75
2016.42
2052.63
2079.05
2095.82
2103.49
2103.04
2095.82
2083.5
2068.04
1049.1
1128.88
1202.59
1268.83
1325.83
1372.08
1406.46
1428.32
1437.66
1435.18
1422.37
1401.45
1375.28
1347.12
1320.42
1298.46
1284.12
1279.65
1286.53
1305.43
1336.22
1378.08
1429.56
1488.76
1553.44
1621.17
1689.49
1756.04
1818.67
1875.52
1925.09
1966.28
1998.43
2021.29
2035.05
2040.32
2038.09
2029.71
2016.83
2001.39
1028.54
1104.22
1173.81
1236.01
1289.26
1332.28
1364.14
1384.41
1393.23
1391.4
1380.4
1362.35
1339.91
1316.08
1293.96
1276.48
1266.19
1265.06
1274.36
1294.64
1325.72
1366.8
1416.5
1473.03
1534.28
1597.99
1661.89
1723.76
1781.64
1833.79
1878.87
1915.88
1944.26
1963.83
1974.84
1977.94
1974.12
1964.74
1951.42
1936.05
1008.52
1080.2
1145.82
1204.2
1253.97
1294.03
1323.64
1342.54
1350.99
1349.84
1340.56
1325.18
1306.15
1286.23
1268.2
1254.68
1247.94
1249.68
1261.01
1282.36
1313.52
1353.68
1401.55
1455.43
1513.35
1573.2
1632.86
1690.29
1743.66
1791.4
1832.26
1865.38
1890.26
1906.81
1915.31
1916.45
1911.23
1900.99
1887.33
1872.09
988.894
1056.7
1118.54
1173.33
1219.87
1257.23
1284.83
1302.55
1310.74
1310.29
1302.65
1289.72
1273.81
1257.4
1243.01
1233
1229.34
1233.55
1246.56
1268.71
1299.74
1338.87
1384.87
1436.13
1490.82
1546.97
1602.59
1655.81
1704.93
1748.51
1785.43
1814.92
1836.57
1850.34
1856.57
1855.95
1849.5
1838.53
1824.62
1809.56
969.591
1033.68
1091.93
1143.35
1186.89
1221.79
1247.59
1264.29
1272.31
1272.57
1266.46
1255.81
1242.71
1229.45
1218.3
1211.36
1210.39
1216.69
1231.07
1253.76