/*--------------------------------*- C++ -*----------------------------------*\
| =========                 |                                                 |
| \\      /  F ield         | OpenFOAM: The Open Source CFD Toolbox           |
|  \\    /   O peration     | Version:  2206                                  |
|   \\  /    A nd           | Website:  www.openfoam.com                      |
|    \\/     M anipulation  |                                                 |
\*---------------------------------------------------------------------------*/
FoamFile
{
    version     2.0;
    format      ascii;
    arch        "LSB;label=32;scalar=64";
    class       volScalarField;
    location    "400";
    object      k;
}
// * * * * * * * * * * * * * * * * * * * * * * * * * * * * * * * * * * * * * //

dimensions      [0 2 -2 0 0 0 0];

internalField   nonuniform List<scalar> 
12940
(
1.16199
0.424869
0.386757
0.385482
0.384996
0.384681
0.38429
0.383863
2.7958
0.533844
0.400971
0.39423
0.392413
0.391609
0.390779
0.389903
4.86003
0.802233
0.428442
0.400959
0.398429
0.397904
0.397018
0.395845
7.37582
1.3445
0.503899
0.410661
0.402891
0.40274
0.402261
0.401144
10.2206
2.24363
0.681584
0.4365
0.407549
0.405923
0.405982
0.405284
13.0379
3.50504
1.01596
0.50092
0.417365
0.408191
0.408079
0.407948
15.294
5.02529
1.53267
0.629332
0.44138
0.411702
0.409026
0.409167
16.5658
6.62672
2.219
0.840345
0.491076
0.420264
0.409915
0.409331
16.8121
8.13602
3.04295
1.14348
0.578005
0.439246
0.412507
0.409099
16.3398
9.42773
3.9735
1.54485
0.71326
0.475384
0.41943
0.409389
15.5401
10.4223
4.97919
2.05183
0.908683
0.53685
0.434488
0.411558
14.6754
11.0818
6.01229
2.67095
1.17796
0.633621
0.462994
0.417746
13.8468
11.4158
7.00083
3.39908
1.53599
0.777859
0.512128
0.431277
13.0672
11.4744
7.86186
4.21293
1.99555
0.983852
0.591268
0.457081
12.326
11.3248
8.52876
5.06374
2.56107
1.26687
0.712141
0.502076
11.6145
11.029
8.97136
5.88386
3.22103
1.64022
0.888502
0.575465
10.9316
10.6362
9.19663
6.60452
3.94301
2.11029
1.13483
0.688767
10.2849
10.1862
9.2364
7.17543
4.67628
2.67057
1.4636
0.85531
9.69481
9.71808
9.1358
7.57635
5.36372
3.29775
1.88106
1.08883
9.20081
9.2804
8.9503
7.81919
5.95926
3.95425
2.38297
1.40101
8.86723
8.94227
8.75191
7.94726
6.44431
4.59958
2.95343
1.79863
8.78259
8.80001
8.63982
8.03895
6.84094
5.20948
3.57128
2.28265
9.03947
8.96581
8.74363
8.21537
7.22436
5.80021
4.22822
2.85427
9.69515
9.52843
9.19764
8.63532
7.73249
6.4551
4.9612
3.53691
10.7418
10.5086
10.0826
9.44777
8.54671
7.33759
5.89236
4.42255
12.1141
11.8532
11.3846
10.7131
9.80898
8.63902
7.22661
5.71381
13.7215
13.4684
13.0161
12.376
11.529
10.4461
9.12174
7.63375
15.4753
15.2558
14.8651
14.3158
13.594
12.6729
11.531
10.1937
17.3013
17.1309
16.8284
16.4052
15.8509
15.1416
14.2496
13.1675
19.1435
19.0278
18.8232
18.5383
18.1646
17.682
17.0625
16.2835
20.9628
20.8996
20.789
20.6362
20.4346
20.168
19.8112
19.338
22.7347
22.7161
22.6853
22.646
22.5936
22.5163
22.3936
22.2021
24.4471
24.4612
24.4902
24.5375
24.6023
24.6781
24.7503
24.8016
26.0974
26.1312
26.1974
26.3012
26.4463
26.6328
26.8532
27.0989
27.6902
27.7319
27.8141
27.9448
28.1324
28.3837
28.6994
29.0814
29.2353
29.2761
29.3574
29.4893
29.6839
29.9534
30.3066
30.7559
30.7454
30.7798
30.849
30.9631
31.135
31.379
31.709
32.145
32.2337
32.2594
32.3107
32.3959
32.5246
32.7079
32.9573
33.2913
33.7124
33.7286
33.7609
33.8142
33.8926
33.9976
34.127
34.2766
35.1906
35.1978
35.2133
35.24
35.2773
35.3176
35.3378
35.2762
36.4982
36.4986
36.503
36.5152
36.5357
36.5611
36.5833
36.5917
37.6341
37.6298
37.627
37.6306
37.6428
37.6628
37.6864
37.705
38.7771
38.769
38.7605
38.7577
38.764
38.7797
38.8013
38.8196
39.9303
39.9192
39.9059
39.8977
39.8987
39.9099
39.9281
39.9441
41.0969
41.0833
41.0659
41.0525
41.0481
41.0542
41.0684
41.0819
42.2803
42.2645
42.243
42.2241
42.2136
42.2139
42.2235
42.2348
43.4841
43.4661
43.4401
43.4149
43.397
43.3902
43.3944
43.4033
44.7119
44.6914
44.6601
44.6272
44.6001
44.5841
44.5814
44.5875
45.9677
45.9442
45.9063
45.8635
45.8243
45.7961
45.7838
45.7865
47.2562
47.2287
47.182
47.1262
47.0709
47.0257
46.9996
46.9986
48.7484
48.715
48.6555
48.5802
48.4995
48.4246
48.3705
48.3655
50.4772
50.4347
50.3558
50.2503
50.1269
49.9924
49.851
49.7004
52.2897
52.236
52.1338
51.9921
51.8176
51.6142
51.3819
51.1156
54.1975
54.131
54.0028
53.8214
53.5926
53.3189
53.0006
52.6359
56.2105
56.1301
55.9743
55.7519
55.468
55.1249
54.7231
54.2639
58.3356
58.2407
58.0573
57.7949
57.458
57.047
56.5618
56.0042
60.5751
60.4662
60.2577
59.9603
59.5764
59.1028
58.5339
57.8676
62.9243
62.8036
62.5767
62.2555
61.8396
61.3179
60.6709
59.8795
65.3683
65.2408
65.0072
64.6828
64.2651
63.732
63.0371
62.109
67.88
67.7525
67.5283
67.2302
66.8602
66.3945
65.7617
64.7736
70.4206
70.2997
70.0993
69.8549
69.5866
69.3058
69.0271
68.7997
72.9474
72.8368
72.6647
72.4768
72.3029
72.1638
72.0739
72.0384
75.4239
75.3241
75.1776
75.0352
74.929
74.8756
74.8743
74.8989
77.8225
77.7323
77.6058
77.4956
77.4323
77.427
77.4676
77.515
80.1242
80.0417
79.9296
79.8405
79.8033
79.8243
79.8857
79.9432
82.3163
82.2397
82.1375
82.0619
82.04
82.0756
82.1477
82.2099
84.3906
84.3184
84.2229
84.1557
84.1428
84.1865
84.2641
84.3285
86.3415
86.2726
86.1816
86.1197
86.1122
86.1602
86.2406
86.3058
88.1654
88.0989
88.0112
87.9526
87.9482
87.9986
88.0802
88.1454
89.8595
89.795
89.7095
89.6532
89.6506
89.7021
89.7841
89.8489
91.422
91.3591
91.2752
91.2204
91.2189
91.2709
91.3527
91.4169
92.8511
92.7895
92.707
92.6533
92.6524
92.7045
92.7859
92.8493
94.1457
94.0852
94.0038
93.9508
93.9503
94.0023
94.0832
94.1458
95.3047
95.2451
95.1645
95.1122
95.1119
95.1637
95.244
95.3059
96.3271
96.2684
96.1885
96.1367
96.1365
96.188
96.2678
96.329
97.2123
97.1542
97.0751
97.0236
97.0235
97.0747
97.1539
97.2145
97.9596
97.9022
97.8236
97.7725
97.7724
97.8234
97.9021
97.9621
98.5688
98.5119
98.4338
98.383
98.383
98.4336
98.5118
98.5713
99.0398
98.9833
98.9056
98.855
98.855
98.9054
98.9832
99.0423
99.3724
99.3162
99.2389
99.1886
99.1885
99.2387
99.3161
99.3749
99.5671
99.5111
99.434
99.384
99.3839
99.4338
99.5109
99.5694
99.6243
99.5684
99.4916
99.4417
99.4416
99.4913
99.5682
99.6265
99.5448
99.4889
99.4123
99.3625
99.3624
99.412
99.4886
99.5469
99.3298
99.2738
99.1972
99.1476
99.1474
99.1969
99.2734
99.3317
98.9805
98.9242
98.8478
98.7981
98.798
98.8473
98.9237
98.9822
98.4986
98.4421
98.3656
98.316
98.3158
98.365
98.4414
98.5001
97.8863
97.8293
97.7527
97.703
97.7028
97.752
97.8284
97.8874
97.1458
97.0882
97.0114
96.9617
96.9615
97.0106
97.0871
97.1465
96.28
96.2218
96.1447
96.0949
96.0945
96.1436
96.2202
96.2801
95.2922
95.233
95.1556
95.1055
95.105
95.1541
95.2308
95.2913
94.1859
94.1257
94.0478
93.9974
93.9966
94.0456
94.1225
94.1836
92.9654
92.904
92.8253
92.7744
92.7733
92.822
92.899
92.9609
91.6354
91.5726
91.4929
91.4412
91.4395
91.4878
91.5648
91.6274
90.2012
90.1367
90.0558
90.0029
90
90.0475
90.1243
90.1876
88.6688
88.6024
88.5199
88.4653
88.4604
88.5063
88.5824
88.6464
87.0451
86.9767
86.8923
86.8349
86.8266
86.8693
86.9439
87.0084
85.3382
85.2679
85.1814
85.1198
85.1055
85.1421
85.213
85.2777
83.5576
83.4864
83.398
83.3308
83.3064
83.3309
83.3926
83.4556
81.7154
81.6454
81.5569
81.4833
81.4433
81.4448
81.4833
81.5354
79.8272
79.7618
79.678
79.6007
79.5426
79.5068
79.4897
79.4875
77.913
77.8577
77.787
77.7174
77.6517
77.5774
77.4537
77.172
75.998
75.9585
75.9134
75.8734
75.8404
75.8071
75.7567
75.664
74.1068
74.0878
74.0792
74.0886
74.1204
74.1776
74.2644
74.3946
72.2587
72.2623
72.2964
72.3667
72.4803
72.6471
72.8834
73.2167
70.467
70.4931
70.5713
70.706
70.9059
71.1847
71.564
72.0751
68.7401
68.7869
68.9074
69.1047
69.3882
69.7733
70.2831
70.9494
67.0834
67.1486
67.3076
67.5629
67.9239
68.4065
69.0337
69.8358
65.5007
65.5817
65.7751
66.0829
66.5145
67.0855
67.818
68.7408
63.9952
64.0899
64.3138
64.6689
65.1645
65.8157
66.6437
67.6753
62.5697
62.6763
62.9276
63.3257
63.8799
64.6049
65.5208
66.6526
61.227
61.3442
61.6206
62.0586
62.6675
63.4615
64.4598
65.6856
59.9699
60.0969
60.3969
60.8726
61.5334
62.3932
63.4698
64.7853
58.8006
58.9372
59.2601
59.7722
60.4831
61.4063
62.5587
63.9606
57.7205
57.8668
58.2123
58.7603
59.5204
60.5054
61.7314
63.2171
56.7304
56.8866
57.2549
57.8387
58.6472
59.6929
60.9906
62.5575
55.8304
55.9967
56.388
57.0075
57.8641
58.9692
60.3366
61.9812
55.0197
55.1964
55.6109
56.2659
57.1697
58.3328
59.7672
61.4857
54.2969
54.4841
54.9217
55.6118
56.5617
57.7807
59.279
61.067
53.6598
53.8576
54.3181
55.0423
56.0367
57.3091
58.8675
60.72
53.1059
53.3141
53.7968
54.5538
55.5906
56.9131
58.5273
60.4386
52.6321
52.8504
53.3542
54.1424
55.2187
56.5874
58.2522
60.216
52.2351
52.4629
52.9866
53.8035
54.916
56.3264
58.0361
60.0455
51.9112
52.1477
52.6895
53.5325
54.6772
56.1242
57.8726
59.9204
51.6567
51.901
52.4588
53.3245
54.4971
55.9751
57.7556
59.8343
51.4676
51.7186
52.29
53.1748
54.3704
55.8735
57.6792
59.7809
51.3402
51.5965
52.1788
53.0788
54.2922
55.8142
57.638
59.755
51.2706
51.5307
52.1211
53.032
54.2579
55.7924
57.6271
59.7515
51.255
51.5174
52.1128
53.0302
54.2631
55.8037
57.6421
59.7663
51.2898
51.553
52.1501
53.0697
54.304
55.8442
57.6791
59.7955
51.3717
51.6338
52.2296
53.1468
54.377
55.9103
57.7348
59.8362
51.4972
51.7567
52.3479
53.2583
54.4789
55.9992
57.8065
59.8859
51.6633
51.9185
52.502
53.4012
54.6069
56.1081
57.8918
59.9425
51.8671
52.1163
52.6891
53.5729
54.7585
56.2349
57.9889
60.0045
52.1056
52.3473
52.9065
53.7708
54.9315
56.3777
58.0961
60.0708
52.3762
52.609
53.1517
53.9929
55.1241
56.5349
58.2123
60.1406
52.6764
52.8988
53.4225
54.2369
55.3344
56.7051
58.3365
60.2134
53.0036
53.2144
53.7168
54.5012
55.5611
56.8873
58.4681
60.2888
53.3556
53.5537
54.0325
54.7841
55.8028
57.0806
58.6066
60.3669
53.73
53.9144
54.3678
55.0838
56.0582
57.284
58.7515
60.4476
54.1248
54.2945
54.7209
55.399
56.3262
57.497
58.9027
60.5312
54.5377
54.6921
55.0899
55.7282
56.6059
57.719
59.0599
60.6179
54.9668
55.1052
55.4734
56.0702
56.8963
57.9493
59.2229
60.7079
55.4101
55.532
55.8696
56.4235
57.1964
58.1874
59.3918
60.8016
55.8657
55.9708
56.277
56.787
57.5054
58.4328
59.5663
60.8992
56.3318
56.4198
56.6941
57.1595
57.8224
58.6851
59.7464
61.0009
56.8065
56.8774
57.1195
57.5398
58.1465
58.9438
59.9319
61.1071
57.2882
57.342
57.5518
57.9267
58.4768
59.2082
60.1226
61.2179
57.7753
57.812
57.9895
58.3191
58.8126
59.4779
60.3184
61.3334
58.2661
58.2858
58.4314
58.7159
59.153
59.7523
60.519
61.4537
58.7591
58.7622
58.8761
59.1159
59.4971
60.0309
60.724
61.5788
59.2528
59.2396
59.3224
59.5182
59.8441
60.3131
60.9333
61.7086
59.746
59.7168
59.7691
59.9216
60.1931
60.5981
61.1463
61.843
60.2371
60.1924
60.215
60.3252
60.5434
60.8854
61.3626
61.9817
60.725
60.6653
60.659
60.7279
60.8939
61.1744
61.5819
62.1246
61.2085
61.1343
61.1
61.1288
61.244
61.4643
61.8036
62.2714
61.6864
61.5983
61.537
61.5269
61.5927
61.7544
62.0271
62.4216
62.1577
62.0563
61.9689
61.9213
61.9394
62.0441
62.252
62.5749
62.6214
62.5073
62.3949
62.3112
62.2831
62.3327
62.4777
62.7308
63.0766
62.9503
62.814
62.6957
62.6231
62.6196
62.7035
62.889
63.5224
63.3846
63.2255
63.074
62.9587
62.9039
62.9289
63.0487
63.958
63.8093
63.6285
63.4454
63.2892
63.185
63.1532
63.2097
64.3826
64.2237
64.0224
63.8091
63.6138
63.4624
63.3759
63.3712
64.7958
64.6272
64.4064
64.1644
63.932
63.7353
63.5964
63.5327
65.1967
65.0191
64.78
64.5109
64.243
64.0032
63.814
63.6938
65.585
65.3989
65.1425
64.8478
64.5463
64.2654
64.0283
63.8537
65.9601
65.7661
65.4936
65.1746
64.8413
64.5214
64.2385
64.0121
66.3217
66.1204
65.8327
65.491
65.1276
64.7708
64.4443
64.1683
66.6693
66.4612
66.1594
65.7964
65.4048
65.0128
64.645
64.3217
67.0028
66.7885
66.4735
66.0905
65.6722
65.2473
64.8402
64.472
67.322
67.1018
66.7746
66.373
65.9298
65.4736
65.0295
64.6186
67.6265
67.4011
67.0626
66.6436
66.177
65.6916
65.2124
64.761
67.9164
67.6862
67.3372
66.9021
66.4136
65.9007
65.3886
64.8989
68.1917
67.957
67.5983
67.1482
66.6394
66.1008
65.5576
65.0318
68.4522
68.2135
67.846
67.3821
66.8543
66.2916
65.7192
65.1593
68.6981
68.4558
68.0802
67.6034
67.0581
66.4729
65.8732
65.2812
68.9296
68.6839
68.3009
67.8124
67.2507
66.6446
66.0193
65.3971
69.1467
68.8981
68.5082
68.0089
67.4321
66.8065
66.1574
65.5068
69.3496
69.0984
68.7024
68.1931
67.6024
66.9587
66.2872
65.6101
69.5388
69.2852
68.8836
68.3652
67.7616
67.1012
66.4089
65.7069
69.7145
69.4588
69.052
68.5253
67.9099
67.2339
66.5223
65.797
69.877
69.6194
69.2081
68.6737
68.0475
67.3571
66.6274
65.8804
70.0269
69.7676
69.3521
68.8108
68.1745
67.4708
66.7243
65.957
70.1645
69.9037
69.4844
68.9368
68.2912
67.5752
66.8132
66.027
70.2904
70.0283
69.6056
69.0521
68.3981
67.6708
66.8943
66.0904
70.4052
70.1419
69.7161
69.1573
68.4956
67.7576
66.9677
66.1473
70.5094
70.2451
69.8165
69.2529
68.5839
67.8363
67.0339
66.1981
70.6039
70.3386
69.9074
69.3394
68.6638
67.9071
67.0931
66.2429
70.6892
70.423
69.9896
69.4174
68.7357
67.9707
67.1458
66.2822
70.7662
70.4993
70.0637
69.4877
68.8003
68.0275
67.1925
66.3163
70.8357
70.568
70.1304
69.551
68.8584
68.0783
67.2339
66.3459
70.8985
70.6302
70.1908
69.6081
68.9106
68.1237
67.2705
66.3716
70.9557
70.6867
70.2456
69.6599
68.9579
68.1647
67.3033
66.394
71.0081
70.7385
70.2959
69.7074
69.0011
68.2021
67.333
66.4141
71.0567
70.7866
70.3425
69.7515
69.0413
68.237
67.3608
66.4329
71.1025
70.832
70.3866
69.7933
69.0796
68.2703
67.3876
66.4515
71.1466
70.8757
70.4292
69.8339
69.1171
68.3033
67.4148
66.4713
71.19
70.9188
70.4714
69.8744
69.1549
68.3373
67.4436
66.4936
71.2335
70.9622
70.5143
69.916
69.1943
68.3735
67.4755
66.52
71.2781
71.0068
70.5587
69.9596
69.2363
68.4132
67.5119
66.5523
71.3246
71.0539
70.6062
70.0067
69.2824
68.4577
67.5545
66.5922
75.9891
75.4451
75.7684
77.2241
80.0333
84.3518
90.2425
97.657
106.438
116.335
127.03
138.149
149.292
159.993
169.672
75.1141
74.9515
75.677
77.4652
80.4604
84.7587
90.3901
97.3076
105.387
114.441
124.215
134.437
144.832
155.113
164.99
74.2299
74.3791
75.3926
77.4011
80.5118
84.7939
90.2639
96.8758
104.52
113.033
122.184
131.752
141.52
151.277
160.869
73.3305
73.7262
74.9558
77.1289
80.3339
84.6255
90.0108
96.4409
103.811
111.953
120.663
129.744
139.005
148.273
157.443
72.4092
73.0045
74.4105
76.7249
80.0251
84.3545
89.7105
96.0377
103.225
111.101
119.483
128.186
137.038
145.882
154.631
71.4673
72.2342
73.7975
76.2474
79.6518
84.043
89.4077
95.6813
102.735
110.41
118.535
126.935
135.448
143.929
152.297
70.5142
71.4387
73.1531
75.7407
79.2596
83.7306
89.1281
95.3687
102.322
109.836
117.747
125.891
134.115
142.283
150.316
69.565
70.6422
72.508
75.2382
78.8801
83.4417
88.8803
95.0978
101.969
109.345
117.07
124.988
132.957
140.849
148.586
68.6366
69.8669
71.8871
74.7643
78.5338
83.1888
88.6653
94.8655
101.663
108.914
116.469
124.181
131.919
139.561
147.033
67.7459
69.132
71.3096
74.336
78.2333
82.9725
88.4844
94.6669
101.393
108.525
115.918
123.438
130.959
138.371
145.601
66.9081
68.4526
70.7892
73.9636
77.9787
82.7948
88.3358
94.4958
101.15
108.162
115.4
122.735
130.051
137.245
144.25
66.135
67.8397
70.3338
73.6477
77.7707
82.6542
88.2151
94.3455
100.922
107.815
114.899
122.054
129.172
136.16
142.953
65.4357
67.2995
69.9444
73.3875
77.6075
82.5466
88.1167
94.2088
100.702
107.474
114.404
121.382
128.31
135.099
141.69
64.8151
66.833
69.6193
73.1805
77.4846
82.4664
88.034
94.0783
100.483
107.129
113.906
120.711
127.451
134.048
140.446
64.2739
66.4381
69.3555
73.0219
77.3962
82.4071
87.96
93.9473
100.256
106.774
113.398
120.03
126.588
132.998
139.21
63.81
66.1114
69.1479
72.9055
77.3354
82.3614
87.8879
93.8089
100.016
106.403
112.873
119.336
125.715
131.943
137.975
63.42
65.8479
68.9901
72.8243
77.2949
82.3224
87.811
93.6574
99.7574
106.011
112.326
118.621
124.825
130.877
136.734
63.0991
65.6413
68.8752
72.7707
77.2674
82.2833
87.7235
93.4873
99.4754
105.593
111.755
117.884
123.916
129.796
135.484
62.8411
65.4845
68.7954
72.7374
77.246
82.238
87.6198
93.2942
99.166
105.146
111.154
117.12
122.984
128.696
134.221
62.6391
65.3701
68.7434
72.7172
77.2242
82.1809
87.4954
93.0741
98.8262
104.668
110.524
116.328
122.028
127.577
132.943
62.4861
65.2908
68.712
72.7036
77.1963
82.1072
87.3465
92.8241
98.4536
104.156
109.86
115.507
121.045
126.436
131.648
62.3749
65.2395
68.6945
72.6906
77.1574
82.0129
87.17
92.5419
98.0464
103.609
109.163
114.654
120.036
125.272
130.335
62.2986
65.2095
68.685
72.6731
77.1034
81.895
86.9635
92.2258
97.6036
103.026
108.433
113.771
118.999
124.084
129.003
62.2509
65.195
68.6782
72.6469
77.0308
81.7508
86.7254
91.8748
97.1246
102.408
107.668
112.856
117.934
122.874
127.652
62.2257
65.1906
68.6697
72.6084
76.937
81.5787
86.4546
91.4884
96.6094
101.754
106.87
111.911
116.843
121.64
126.282
62.218
65.1919
68.6558
72.5548
76.8202
81.3776
86.1508
91.0669
96.0585
101.066
106.039
110.936
115.725
120.383
124.893
62.223
65.1949
68.6335
72.484
76.6792
81.1468
85.814
90.6106
95.4726
100.344
105.176
109.932
114.582
119.105
123.486
62.2371
65.1966
68.6005
72.3945
76.5131
80.8866
85.4447
90.1205
94.853
99.5888
104.283
108.9
113.414
117.806
122.063
62.2569
65.1945
68.5553
72.2856
76.3219
80.5971
85.0437
89.5978
94.2011
98.803
103.361
107.843
112.224
116.488
120.623
62.28
65.1868
68.4966
72.1568
76.1059
80.2793
84.6125
89.0441
93.5186
97.988
102.413
106.762
111.013
115.152
119.168
62.3042
65.1723
68.4241
72.0082
75.8657
79.9343
84.1523
88.461
92.8074
97.1458
101.439
105.658
109.782
113.799
117.7
62.3281
65.15
68.3374
71.8404
75.6023
79.5635
83.6649
87.8504
92.0695
96.2785
100.442
104.533
108.533
112.431
116.219
62.3507
65.1197
68.2368
71.654
75.3169
79.1685
83.1523
87.2145
91.307
95.3881
99.4243
103.39
107.269
111.051
114.728
62.3712
65.0813
68.1229
71.4502
75.011
78.7511
82.6163
86.5555
90.5222
94.477
98.3879
102.231
105.991
109.659
113.229
62.3895
65.035
67.9965
71.2301
74.6863
78.3132
82.0593
85.8754
89.7174
93.5473
97.3349
101.058
104.701
108.258
111.722
62.4055
64.9813
67.8586
70.9953
74.3445
77.8569
81.4832
85.1767
88.8948
92.6015
96.2677
99.8723
103.402
106.849
110.211
62.4194
64.921
67.7102
70.7471
73.9874
77.3841
80.8904
84.4616
88.0569
91.6418
95.1885
98.677
102.094
105.435
108.695
62.4315
64.8549
67.5527
70.4874
73.6169
76.8971
80.2832
83.7324
87.206
90.6705
94.0995
97.4738
100.781
104.017
107.178
62.4423
64.784
67.3875
70.2176
73.235
76.3978
79.6636
82.9915
86.3442
89.6898
93.0029
96.265
99.4649
102.598
105.662
62.4525
64.7091
67.2158
69.9395
72.8436
75.8885
79.034
82.241
85.474
88.702
91.9008
95.0525
98.1465
101.179
104.147
62.4627
64.6315
67.039
69.6548
72.4446
75.3711
78.3964
81.4832
84.5974
87.7093
90.7953
93.8384
96.8283
99.7612
102.635
62.4736
64.5521
66.8586
69.3652
72.0398
74.8477
77.753
80.7203
83.7166
86.7136
89.6884
92.6246
95.5122
98.3475
101.129
62.4858
64.4719
66.6759
69.0721
71.631
74.3203
77.1059
79.9541
82.8337
85.717
88.5821
91.4129
94.1999
96.9393
99.6302
62.5
64.392
66.4922
68.7772
71.2201
73.7906
76.4568
79.1869
81.9506
84.7215
87.4782
90.2052
92.8931
95.5382
98.1396
62.5169
64.3133
66.3087
68.482
70.8085
73.2604
75.8078
78.4203
81.0692
83.7289
86.3786
89.0033
91.5935
94.1458
96.6591
62.5369
64.2367
66.1266
68.1877
70.3979
72.7315
75.1605
77.6563
80.1913
82.7409
85.285
87.8087
90.3027
92.7635
95.1901
62.5607
64.163
65.9468
67.8957
69.9897
72.2054
74.5166
76.8965
79.3186
81.7593
84.199
86.6229
89.0222
91.3929
93.7339
62.5886
64.0929
65.7705
67.6072
69.5853
71.6835
73.8777
76.1424
78.4527
80.7856
83.122
85.4476
87.7533
90.0352
92.292
62.6209
64.027
65.5985
67.3233
69.1859
71.1673
73.2452
75.3957
77.595
79.8212
82.0556
84.284
86.4975
88.6918
90.8654
62.6581
63.966
65.4315
67.0448
68.7927
70.658
72.6204
74.6576
76.747
78.8675
81.001
83.1335
85.2559
87.3638
89.4555
62.7003
63.9101
65.2702
66.7727
68.4066
70.1567
72.0045
73.9294
75.91
77.9259
79.9596
81.9973
84.0297
86.0524
88.0632
62.7476
63.8599
65.1151
66.5077
68.0285
69.6644
71.3987
73.2123
75.0851
76.9975
78.9324
80.8764
82.8201
84.7585
86.6896
62.8
63.8155
64.9669
66.2505
67.6593
69.1821
70.804
72.5074
74.2734
76.0833
77.9206
79.772
81.6279
83.4833
85.3355
62.8576
63.7771
64.8257
66.0016
67.2996
68.7105
70.2212
71.8155
73.4758
75.1844
76.9252
78.6849
80.4541
82.2274
84.0019
62.9202
63.7448
64.6919
65.7614
66.95
68.2503
69.651
71.1376
72.6934
74.3016
75.9469
77.616
79.2996
80.9919
82.6895
62.9876
63.7187
64.5657
65.5302
66.6109
67.8022
69.0943
70.4742
71.9267
73.4358
74.9866
76.5662
78.1651
79.7772
81.399
63.0596
63.6987
64.4471
65.3084
66.2828
67.3665
68.5515
69.8262
71.1766
72.5877
74.045
75.5361
77.0513
78.5842
80.1311
63.136
63.6846
64.3362
65.0959
65.9658
66.9437
68.0231
69.194
70.4436
71.7577
73.1227
74.5263
75.9587
77.4134
78.8862
63.2164
63.6762
64.2329
64.893
65.6603
66.534
67.5095
68.5781
69.7281
70.9466
72.2203
73.5373
74.8879
76.2653
77.6649
63.3004
63.6733
64.137
64.6996
65.3662
66.1377
67.011
67.9788
69.0307
70.1547
71.3382
72.5697
73.8394
75.1403
76.4676
63.3875
63.6756
64.0485
64.5156
65.0836
65.7549
66.5277
67.3963
68.3516
69.3824
70.4769
71.6237
72.8135
74.0389
75.2947
63.4774
63.6828
63.967
64.3409
64.8124
65.3855
66.0598
66.831
67.6911
68.63
69.6365
70.6999
71.8106
72.9613
74.1464
63.5696
63.6944
63.8923
64.1752
64.5526
65.0296
65.6074
66.2828
67.0493
67.8976
68.8174
69.7982
70.8308
71.9077
73.023
63.6635
63.71
63.8239
64.0184
64.3038
64.687
65.1702
65.7518
66.4263
67.1854
68.0197
68.9191
69.8745
70.8784
71.9247
63.7586
63.7293
63.7616
63.87
64.066
64.3576
64.7484
65.238
65.8221
66.4936
67.2435
68.0626
68.9418
69.8735
70.8515
63.8545
63.7516
63.7049
63.7297
63.8387
64.0411
64.3417
64.7413
65.2367
65.822
66.4889
67.2287
68.0326
68.8931
69.8036
63.9507
63.7766
63.6534
63.5972
63.6217
63.7372
63.9498
64.2614
64.67
65.1706
65.7558
66.4174
67.147
67.9371
68.7811
64.0465
63.8038
63.6066
63.472
63.4146
63.4457
63.5726
63.7982
64.1218
64.5393
65.0442
65.6288
66.2851
67.0056
67.7837
64.1415
63.8327
63.5641
63.3537
63.217
63.1662
63.2096
63.3514
63.5919
63.9279
64.3538
64.8626
65.4467
66.0986
66.8116
64.2352
63.8628
63.5254
63.2418
63.0284
62.8982
62.8606
62.9207
63.08
63.3362
63.6846
64.1188
64.6316
65.2157
65.8646
64.3271
63.8935
63.49
63.1359
62.8484
62.6414
62.5251
62.5058
62.5857
62.7639
63.0363
63.3971
63.8397
64.3571
64.9424
64.4168
63.9246
63.4575
63.0355
62.6765
62.3952
62.2027
62.1061
62.1088
62.2106
62.4085
62.6973
63.0708
63.5223
64.045
64.5038
63.9554
63.4273
62.9401
62.5122
62.1592
61.8929
61.7213
61.6489
61.6762
61.8011
62.0191
62.3246
62.7111
63.1721
64.5878
63.9857
63.3991
62.8492
62.3552
61.9329
61.5952
61.351
61.2054
61.16
61.2135
61.3622
61.6009
61.9234
62.3234
64.6683
64.0148
63.3723
62.7625
62.2047
61.7159
61.3093
60.9946
60.7779
60.6617
60.6455
60.7262
60.8991
61.1587
61.4986
64.7449
64.0426
63.3466
62.6793
62.0605
61.5075
61.0344
60.6517
60.366
60.1809
60.0965
60.1106
60.2191
60.4167
60.6974
64.8175
64.0685
63.3216
62.5993
61.9219
61.3074
60.7703
60.3217
59.9692
59.717
59.5662
59.5152
59.5604
59.697
59.9194
64.8858
64.0924
63.2968
62.522
61.7886
61.115
60.5162
60.0041
59.5869
59.2696
59.054
58.9393
58.9225
58.9993
59.1642
64.9494
64.1138
63.272
62.447
61.6601
60.9298
60.2717
59.6984
59.2186
58.8381
58.5595
58.3826
58.3051
58.3231
58.4315
65.0082
64.1326
63.2467
62.374
61.5358
60.7513
60.0364
59.404
58.8638
58.422
58.0821
57.8445
57.7076
57.6679
57.7207
65.0621
64.1486
63.2208
62.3025
61.4155
60.5791
59.8096
59.1204
58.5218
58.0208
57.6213
57.3245
57.1295
57.0332
57.0314
65.111
64.1614
63.1939
62.2324
61.2988
60.4127
59.5909
58.8472
58.1923
57.6339
57.1765
56.8222
56.5703
56.4186
56.3631
65.1549
64.1712
63.1658
62.1632
61.1852
60.2517
59.3798
58.5837
57.8746
57.2607
56.7473
56.3368
56.0295
55.8235
55.7154
65.1937
64.1776
63.1365
62.0947
61.0745
60.0957
59.1759
58.3295
57.5683
56.9008
56.333
55.868
55.5066
55.2475
55.0877
65.2275
64.1809
63.1058
62.0268
60.9663
59.9445
58.9788
58.0842
57.2727
56.5536
55.9332
55.4152
55.0011
54.6901
54.4796
65.2565
64.1809
63.0736
61.9593
60.8606
59.7976
58.7881
57.8474
56.9876
56.2187
55.5473
54.9779
54.5124
54.1506
53.8905
65.2808
64.1778
63.04
61.8922
60.7571
59.6549
58.6036
57.6186
56.7125
55.8955
55.1749
54.5556
54.0401
53.6287
53.32
65.3008
64.1718
63.005
61.8254
60.6557
59.5162
58.425
57.3976
56.4471
55.5838
54.8156
54.1479
53.5837
53.124
52.7677
65.3169
64.1632
62.969
61.7592
60.5565
59.3815
58.2522
57.1843
56.1911
55.2833
54.4691
53.7545
53.143
52.636
52.2331
65.3293
64.1523
62.9321
61.6936
60.4597
59.2509
58.0853
56.9786
55.9445
54.9938
54.1352
53.3752
52.7177
52.1647
51.7162
65.3389
64.1397
62.8948
61.6291
60.3656
59.1246
57.9243
56.7807
55.7073
54.7154
53.8141
53.01
52.3078
51.7099
51.2169
65.3461
64.126
62.8577
61.5663
60.2746
59.003
57.7698
56.5909
55.48
54.4485
53.5059
52.6593
51.9136
51.272
50.7354
65.352
64.1121
62.8216
61.5058
60.1875
58.8871
57.6226
56.41
55.2632
54.1939
53.2116
52.3238
51.5361
50.8519
50.2728
65.3574
64.0988
62.7875
61.4489
60.1055
58.7778
57.4837
56.2393
55.0584
53.9529
52.9325
52.0052
51.1768
50.4512
49.8306
65.3635
64.0875
62.7568
61.3968
60.03
58.6768
57.3551
56.0808
54.8677
53.7277
52.6711
51.7059
50.8383
50.0728
49.412
65.3718
64.0797
62.7311
61.3514
59.9632
58.5865
57.2393
55.9372
54.6941
53.522
52.4313
51.4302
50.5254
49.7216
49.0221
65.3839
64.0773
62.7125
61.3153
59.9078
58.5102
57.14
55.8128
54.5425
53.3411
52.2189
51.1847
50.2451
49.4054
48.6693
65.4016
64.0822
62.7037
61.2914
59.8676
58.4521
57.0623
55.7137
54.4199
53.1928
52.0431
50.9794
50.0087
49.1367
48.3674
65.4268
64.0972
62.7077
61.2836
59.8472
58.4181
57.0133
55.6481
54.3361
53.0889
51.9172
50.8298
49.8338
48.9351
48.1382
65.4618
64.125
62.7282
61.2967
59.8528
58.4157
57.0024
55.6278
54.3051
53.0461
51.8611
50.7591
49.7471
48.8314
48.0164
178.81
185.538
192.162
198.648
204.706
209.982
214.125
216.825
217.854
217.096
214.575
210.466
205.101
198.953
192.6
186.676
181.794
178.474
177.082
177.813
180.69
185.599
192.32
200.555
209.963
220.18
230.846
241.619
252.192
262.296
271.706
280.242
287.764
294.174
299.411
303.452
306.303
308.003
308.618
308.234
173.641
180.958
188.015
194.715
200.806
206
210.013
212.606
213.609
212.956
210.7
207.027
202.262
196.846
191.312
186.232
182.153
179.533
178.695
179.81
182.895
187.844
194.454
202.448
211.508
221.293
231.465
241.703
251.717
261.255
270.104
278.097
285.103
291.034
295.838
299.497
302.028
303.475
303.911
303.432
169.399
177.046
184.321
191.103
197.16
202.248
206.139
208.647
209.649
209.116
207.124
203.87
199.664
194.922
190.134
185.815
182.454
180.456
180.107
181.553
184.809
189.774
196.259
204.007
212.72
222.08
231.769
241.486
250.959
259.949
268.258
275.727
282.239
287.713
292.103
295.402
297.63
298.84
299.111
298.546
165.879
173.703
181.06
187.827
193.792
198.75
202.515
204.942
205.949
205.536
203.799
200.935
197.247
193.124
189.015
185.384
182.668
181.226
181.309
183.043
186.437
191.398
197.747
205.245
213.614
222.556
231.774
240.984
249.93
258.389
266.176
273.143
279.18
284.215
288.213
291.169
293.114
294.104
294.223
293.579
162.929
170.808
178.146
184.825
190.658
195.468
199.105
201.457
202.475
202.182
200.686
198.189
194.981
191.425
187.932
184.922
182.785
181.837
182.299
184.28
187.785
192.721
198.925
206.171
214.2
222.733
231.49
240.207
248.643
256.59
263.874
270.357
275.939
280.558
284.182
286.816
288.494
289.279
289.258
288.545
160.418
168.257
175.501
182.044
187.716
192.368
195.877
198.162
199.195
199.02
197.756
195.603
192.838
189.801
186.867
184.416
182.796
182.286
183.08
185.271
188.857
193.753
199.803
206.795
214.488
222.62
230.929
239.169
247.113
254.566
261.365
267.385
272.534
276.755
280.027
282.357
283.786
284.38
284.232
283.456
158.235
165.963
173.064
179.436
184.931
189.421
192.806
195.028
196.082
196.024
194.98
193.148
190.793
188.23
185.803
183.854
182.694
182.571
183.652
186.018
189.662
194.502
200.389
207.128
214.49
222.23
230.106
237.883
245.352
252.33
258.666
264.243
268.979
272.823
275.761
277.806
279.002
279.42
279.156
278.325
156.29
163.86
170.783
176.964
182.273
186.6
189.867
192.034
193.112
193.168
192.334
190.802
188.825
186.694
184.724
183.226
182.474
182.69
184.018
186.528
190.208
194.977
200.697
207.181
214.218
221.577
229.032
236.364
243.376
249.898
255.79
260.945
265.288
268.776
271.399
273.176
274.156
274.412
274.042
273.164
154.517
161.896
168.618
174.598
179.718
183.886
187.041
189.159
190.264
190.432
189.795
188.543
186.913
185.175
183.619
182.522
182.132
182.643
184.183
186.808
190.503
195.189
200.736
206.968
213.685
220.675
227.722
234.625
241.198
247.284
252.753
257.506
261.476
264.627
266.954
268.481
269.26
269.367
268.901
267.983
152.863
160.031
166.541
172.314
177.246
181.261
184.311
186.386
187.52
187.796
187.346
186.353
185.041
183.66
182.475
181.737
181.665
182.433
184.151
186.865
190.557
195.15
200.519
206.501
212.907
219.537
226.192
232.681
238.834
244.503
249.568
253.939
257.556
260.39
262.44
263.733
264.326
264.296
263.745
262.793
151.292
158.237
164.528
170.094
174.843
178.71
181.663
183.701
184.866
185.245
184.97
184.217
183.195
182.138
181.285
180.865
181.073
182.062
183.928
186.708
190.38
194.871
200.06
205.793
211.895
218.178
224.454
230.547
236.298
241.569
246.251
250.259
253.543
256.078
257.868
258.944
259.365
259.211
258.583
257.602
149.778
156.493
162.565
167.925
172.496
176.224
179.085
181.09
182.287
182.764
182.652
182.119
181.362
180.597
180.042
179.903
180.355
181.534
183.521
186.346
189.985
194.364
199.371
204.86
210.665
216.612
222.524
228.238
233.604
238.497
242.813
246.48
249.449
251.703
253.25
254.125
254.388
254.12
253.424
252.42
148.301
154.785
160.638
165.798
170.197
173.792
176.569
178.544
179.772
180.342
180.381
180.05
179.533
179.03
178.74
178.849
179.514
180.852
182.936
185.788
189.381
193.643
198.467
203.715
209.232
214.853
220.416
225.767
230.767
235.299
239.27
242.613
245.287
247.278
248.598
249.287
249.404
249.034
248.278
247.255
146.848
153.101
158.738
163.704
167.938
171.407
174.104
176.053
177.311
177.967
178.146
177.999
177.7
177.432
177.377
177.703
178.551
180.023
182.183
185.045
188.58
192.719
197.36
202.372
207.609
212.918
218.145
223.149
227.8
231.99
235.635
238.672
241.068
242.813
243.923
244.439
244.424
243.96
243.152
242.116
145.407
151.434
156.86
161.637
165.713
169.062
171.685
173.61
174.895
175.631
175.938
175.958
175.855
175.796
175.949
176.465
177.469
179.053
181.268
184.125
187.594
191.606
196.064
200.845