/*--------------------------------*- C++ -*----------------------------------*\
| =========                 |                                                 |
| \\      /  F ield         | OpenFOAM: The Open Source CFD Toolbox           |
|  \\    /   O peration     | Version:  2206                                  |
|   \\  /    A nd           | Website:  www.openfoam.com                      |
|    \\/     M anipulation  |                                                 |
\*---------------------------------------------------------------------------*/
FoamFile
{
    version     2.0;
    format      ascii;
    arch        "LSB;label=32;scalar=64";
    class       volScalarField;
    location    "400";
    object      nut;
}
// * * * * * * * * * * * * * * * * * * * * * * * * * * * * * * * * * * * * * //

dimensions      [0 2 -1 0 0 0 0];

internalField   nonuniform List<scalar> 
12940
(
0.0038938
0.0159942
0.0618803
0.0907246
0.0993375
0.101656
0.102265
0.1024
0.00588169
0.00376777
0.0206323
0.0617402
0.0888636
0.098907
0.102065
0.102978
0.00904049
0.00284569
0.00720767
0.0316912
0.0684759
0.0906992
0.0996261
0.102712
0.0132931
0.00364549
0.00364079
0.0137987
0.043178
0.0751477
0.0930976
0.100618
0.0187332
0.00562674
0.00301877
0.00649429
0.022851
0.0540108
0.0809566
0.0953851
0.0251654
0.00885249
0.00363789
0.0040696
0.0116713
0.0336609
0.0637442
0.0858827
0.0319846
0.0133312
0.00518806
0.00357098
0.00676199
0.0195113
0.0451281
0.0721399
0.0384345
0.0188813
0.00765146
0.00402804
0.00484338
0.0116483
0.0295869
0.0560569
0.0441013
0.0251814
0.0110486
0.00519324
0.00430672
0.00772389
0.0189887
0.0406575
0.0491272
0.0318646
0.0153962
0.00706005
0.00455177
0.00588971
0.0125972
0.0282467
0.0539142
0.0385844
0.0206718
0.00971457
0.0054093
0.00519382
0.0089807
0.0194473
0.0586817
0.0450703
0.0267484
0.0132699
0.006896
0.00522973
0.00704794
0.0137102
0.0633594
0.0511706
0.0333575
0.0178007
0.00911528
0.00586996
0.00616844
0.0101756
0.067788
0.0568396
0.0401384
0.0232715
0.0121989
0.00713381
0.00603519
0.00813311
0.0718798
0.0620773
0.0467522
0.0294928
0.0162481
0.00911987
0.00654093
0.00712303
0.0756275
0.066886
0.0529744
0.036145
0.0212697
0.0119561
0.00770205
0.00689824
0.0790775
0.0712811
0.0587113
0.0428706
0.0271314
0.0157461
0.00960856
0.00736724
0.0823532
0.0753418
0.0639764
0.0493838
0.0335714
0.0205114
0.0123787
0.00854717
0.0857398
0.0792894
0.0688967
0.0555507
0.0402777
0.0261558
0.0161092
0.0105238
0.0898344
0.0836203
0.0737994
0.0614504
0.0470168
0.0324857
0.0208312
0.0134111
0.0957613
0.0893222
0.0794064
0.0674874
0.0537917
0.0393174
0.0265043
0.0173151
0.105371
0.0981367
0.0871462
0.0746402
0.06106
0.046688
0.0331013
0.0223311
0.121181
0.112648
0.0994712
0.0848821
0.0701156
0.055217
0.0408621
0.028649
0.145803
0.135819
0.119758
0.101555
0.0836828
0.0667365
0.0508509
0.0369271
0.181054
0.16996
0.151285
0.128927
0.106275
0.0851435
0.0659812
0.049235
0.227416
0.215873
0.195753
0.17033
0.142973
0.116383
0.0920009
0.0705776
0.284106
0.272814
0.252687
0.226289
0.196358
0.165541
0.13589
0.108828
0.349519
0.339006
0.320023
0.294596
0.264815
0.2328
0.200484
0.169506
0.421693
0.412247
0.395056
0.371783
0.34407
0.313556
0.281792
0.250198
0.498689
0.490372
0.475144
0.454415
0.429549
0.40187
0.372612
0.342893
0.578861
0.571563
0.558113
0.539733
0.517613
0.492889
0.466594
0.439623
0.661015
0.654513
0.642436
0.625856
0.605847
0.583443
0.559568
0.534998
0.744466
0.738488
0.727274
0.711772
0.692976
0.671869
0.64934
0.626137
0.829037
0.823308
0.81244
0.797265
0.778709
0.757728
0.735224
0.711997
0.914985
0.909273
0.898312
0.882808
0.863595
0.841588
0.817718
0.792898
1.00289
0.997048
0.985714
0.969436
0.948894
0.924897
0.898354
0.870296
1.09348
1.08749
1.07574
1.05859
1.03646
1.00991
0.979666
0.946755
1.18744
1.18142
1.16954
1.15189
1.12857
1.09964
1.06528
1.02608
1.28509
1.27934
1.26792
1.25077
1.22761
1.19781
1.16035
1.11393
1.38616
1.38105
1.37097
1.35584
1.33534
1.30849
1.27278
1.22142
1.47714
1.47285
1.46452
1.45238
1.43666
1.41777
1.39684
1.37805
1.55653
1.55299
1.54628
1.5368
1.52515
1.51226
1.49986
1.49118
1.63569
1.63281
1.62749
1.62022
1.61171
1.60295
1.59536
1.59076
1.71392
1.71155
1.70724
1.70153
1.69512
1.68887
1.68383
1.68103
1.79075
1.78868
1.78498
1.78016
1.77488
1.7699
1.76604
1.76399
1.86588
1.86392
1.86041
1.85584
1.85085
1.84615
1.84252
1.84058
1.93928
1.93723
1.93351
1.9286
1.9231
1.91777
1.91348
1.9111
2.0111
2.00879
2.00451
1.99867
1.99186
1.98489
1.97888
1.97524
2.08172
2.079
2.07382
2.06653
2.05759
2.04777
2.0384
2.03188
2.15165
2.14842
2.14214
2.13298
2.12119
2.10714
2.09176
2.07817
2.23022
2.22639
2.21881
2.20746
2.19217
2.17237
2.14655
2.1105
2.3184
2.31401
2.30523
2.292
2.27407
2.25096
2.2218
2.18547
2.40842
2.40361
2.39398
2.3795
2.36003
2.33534
2.30514
2.26932
2.50088
2.49577
2.48556
2.47025
2.4498
2.42414
2.39326
2.35733
2.5961
2.5908
2.58017
2.56426
2.54304
2.51651
2.48472
2.44792
2.69425
2.68881
2.6779
2.66154
2.63966
2.61218
2.5791
2.54063
2.7953
2.78983
2.77883
2.76225
2.73989
2.71148
2.67674
2.63568
2.89906
2.89371
2.88294
2.86661
2.84431
2.81535
2.77885
2.7341
3.00503
3.00005
2.99002
2.97477
2.95368
2.92555
2.88833
2.83903
3.11232
3.10798
3.09934
3.08632
3.06843
3.04436
3.01102
2.96037
3.21957
3.21609
3.20932
3.19953
3.1869
3.17172
3.15494
3.1401
3.32521
3.32259
3.31765
3.3109
3.30285
3.29423
3.28625
3.2809
3.42775
3.42586
3.42241
3.41796
3.41307
3.40837
3.40456
3.40237
3.52606
3.52473
3.52234
3.51945
3.51655
3.51405
3.51227
3.51136
3.6194
3.61844
3.61677
3.61489
3.61318
3.6119
3.61115
3.61083
3.70729
3.7066
3.70539
3.70413
3.70313
3.70253
3.70232
3.70228
3.7895
3.78898
3.78807
3.78719
3.78661
3.78639
3.78647
3.78658
3.86592
3.86552
3.86479
3.86415
3.86381
3.86381
3.86404
3.86422
3.93651
3.93619
3.93559
3.93509
3.93489
3.93501
3.93532
3.93553
4.00128
4.00102
4.0005
4.00009
3.99997
4.00016
4.00051
4.00072
4.06026
4.06004
4.05957
4.05923
4.05915
4.05937
4.05974
4.05994
4.11347
4.11328
4.11286
4.11255
4.11251
4.11274
4.1131
4.1133
4.16094
4.16078
4.16039
4.16011
4.16008
4.16032
4.16068
4.16086
4.2027
4.20257
4.2022
4.20194
4.20192
4.20216
4.20251
4.20267
4.23877
4.23865
4.23831
4.23806
4.23805
4.23828
4.23862
4.23877
4.26915
4.26905
4.26873
4.26849
4.26849
4.26871
4.26903
4.26917
4.29385
4.29377
4.29346
4.29324
4.29323
4.29345
4.29376
4.29388
4.31285
4.31279
4.3125
4.31228
4.31228
4.31249
4.31279
4.31289
4.32616
4.32611
4.32583
4.32562
4.32562
4.32582
4.3261
4.3262
4.33373
4.33369
4.33343
4.33323
4.33323
4.33342
4.33369
4.33377
4.33553
4.33551
4.33526
4.33507
4.33507
4.33525
4.3355
4.33557
4.33152
4.33151
4.33127
4.33109
4.33109
4.33126
4.3315
4.33155
4.32163
4.32164
4.32141
4.32124
4.32123
4.3214
4.32162
4.32166
4.3058
4.30582
4.3056
4.30544
4.30543
4.30559
4.30579
4.30582
4.28393
4.28396
4.28376
4.28359
4.28358
4.28373
4.28392
4.28393
4.25591
4.25595
4.25576
4.25561
4.25559
4.25572
4.25589
4.25588
4.22162
4.22167
4.22149
4.22134
4.22131
4.22142
4.22157
4.22154
4.1809
4.18097
4.1808
4.18063
4.18059
4.18067
4.18079
4.18073
4.13359
4.13366
4.13349
4.13331
4.13324
4.13328
4.13335
4.13327
4.07948
4.07956
4.07937
4.07916
4.07904
4.07902
4.07903
4.07891
4.01835
4.01843
4.01821
4.01793
4.01772
4.01761
4.01753
4.01735
3.94997
3.95002
3.94973
3.94934
3.94899
3.94872
3.9485
3.94823
3.8741
3.8741
3.87367
3.87308
3.87247
3.87195
3.87152
3.87111
3.79053
3.7904
3.78973
3.78878
3.78776
3.78681
3.78602
3.78541
3.69909
3.69876
3.69767
3.69611
3.69437
3.6927
3.69132
3.69035
3.59978
3.5991
3.5973
3.59473
3.59178
3.58888
3.58646
3.58488
3.49282
3.49157
3.48864
3.48442
3.47945
3.47441
3.47013
3.46742
3.37882
3.37673
3.37206
3.36525
3.35696
3.34821
3.34043
3.33544
3.25894
3.25568
3.24857
3.23796
3.22446
3.20926
3.19459
3.1843
3.13503
3.13032
3.12016
3.10457
3.08364
3.05793
3.0293
3.00406
3.00951
3.00334
2.99004
2.96915
2.93977
2.90015
2.8463
2.76794
2.8851
2.87776
2.86207
2.83743
2.80284
2.75669
2.69661
2.61951
2.76413
2.75609
2.73907
2.71259
2.676
2.62846
2.56919
2.49793
2.64827
2.63996
2.62253
2.59574
2.55929
2.513
2.45693
2.39177
2.53851
2.53025
2.51309
2.48698
2.45193
2.40815
2.35618
2.297
2.43532
2.42732
2.41085
2.386
2.35302
2.31237
2.26481
2.21147
2.33879
2.33117
2.31563
2.29237
2.26179
2.22449
2.18138
2.13365
2.24878
2.24161
2.22712
2.20559
2.17752
2.14361
2.10483
2.06238
2.16505
2.15836
2.14496
2.12519
2.09962
2.069
2.03434
1.99683
2.08729
2.08107
2.06876
2.05072
2.02757
2.0001
1.96931
1.93637
2.01518
2.00942
1.99816
1.9818
1.96096
1.93645
1.90927
1.88056
1.94843
1.94312
1.93286
1.91808
1.89942
1.8777
1.85388
1.82908
1.88677
1.88188
1.87258
1.8593
1.84269
1.82357
1.80289
1.7817
1.82994
1.82545
1.81706
1.8052
1.79052
1.77384
1.75608
1.73824
1.7777
1.77359
1.76606
1.75555
1.7427
1.72831
1.71328
1.69857
1.72983
1.72608
1.71938
1.71014
1.69902
1.68678
1.67432
1.66256
1.68613
1.68273
1.67681
1.66878
1.65929
1.6491
1.63907
1.63006
1.64641
1.64333
1.63816
1.63129
1.62335
1.61509
1.60734
1.60091
1.61047
1.60771
1.60325
1.59747
1.591
1.58456
1.57895
1.57492
1.57813
1.57567
1.57188
1.56714
1.56205
1.55733
1.55371
1.5519
1.54919
1.54702
1.54387
1.54011
1.53632
1.53319
1.53141
1.53164
1.52347
1.52156
1.51901
1.51617
1.5136
1.51194
1.51185
1.51393
1.50076
1.4991
1.49712
1.49513
1.49367
1.49336
1.49481
1.49856
1.48087
1.47945
1.47798
1.47677
1.47633
1.47724
1.48007
1.48532
1.4636
1.46239
1.4614
1.4609
1.46138
1.46338
1.46744
1.474
1.44875
1.44773
1.44717
1.44731
1.44861
1.45158
1.45672
1.46443
1.43613
1.43529
1.4351
1.43581
1.43783
1.44165
1.44772
1.4564
1.42555
1.42486
1.42501
1.42621
1.42886
1.4334
1.44027
1.44978
1.41683
1.41627
1.41672
1.41834
1.42153
1.42668
1.4342
1.44439
1.40981
1.40937
1.41006
1.41204
1.41567
1.42134
1.42939
1.4401
1.40433
1.40398
1.40488
1.40716
1.41115
1.41722
1.42568
1.43679
1.40024
1.39997
1.40103
1.40355
1.40783
1.4142
1.42296
1.43435
1.39741
1.3972
1.39839
1.40109
1.40558
1.41216
1.42112
1.43268
1.39571
1.39554
1.39683
1.39966
1.40428
1.411
1.42007
1.4317
1.39502
1.39488
1.39623
1.39914
1.40385
1.41062
1.41972
1.43132
1.39524
1.39511
1.39649
1.39944
1.40418
1.41095
1.41998
1.43147
1.39627
1.39614
1.39753
1.40048
1.40519
1.41189
1.4208
1.4321
1.39802
1.39788
1.39925
1.40217
1.4068
1.41338
1.42211
1.43316
1.40041
1.40024
1.40158
1.40443
1.40895
1.41536
1.42385
1.43459
1.40336
1.40317
1.40445
1.4072
1.41157
1.41777
1.42597
1.43636
1.40681
1.40658
1.40779
1.41042
1.41461
1.42056
1.42844
1.43842
1.4107
1.41043
1.41154
1.41403
1.41802
1.42369
1.43121
1.44075
1.41497
1.41465
1.41566
1.41798
1.42175
1.42711
1.43425
1.44331
1.41957
1.41919
1.42009
1.42224
1.42575
1.43079
1.43751
1.44608
1.42446
1.42401
1.42479
1.42674
1.43
1.43469
1.44098
1.44904
1.42959
1.42908
1.42972
1.43147
1.43445
1.43878
1.44463
1.45215
1.43492
1.43434
1.43484
1.43639
1.43907
1.44304
1.44843
1.45541
1.44042
1.43977
1.44013
1.44145
1.44384
1.44743
1.45236
1.45878
1.44606
1.44534
1.44555
1.44665
1.44874
1.45194
1.45639
1.46226
1.45182
1.45102
1.45107
1.45194
1.45372
1.45654
1.46052
1.46583
1.45765
1.45678
1.45668
1.45732
1.45879
1.46121
1.46472
1.46948
1.46355
1.46261
1.46235
1.46275
1.46391
1.46594
1.46898
1.47318
1.46949
1.46847
1.46805
1.46822
1.46906
1.47071
1.47328
1.47693
1.47544
1.47435
1.47377
1.47371
1.47424
1.4755
1.47761
1.48072
1.4814
1.48023
1.4795
1.4792
1.47943
1.4803
1.48195
1.48453
1.48734
1.48611
1.48522
1.48468
1.4846
1.4851
1.4863
1.48835
1.49326
1.49195
1.49091
1.49014
1.48976
1.48988
1.49064
1.49217
1.49913
1.49775
1.49656
1.49557
1.49489
1.49464
1.49497
1.49599
1.50494
1.5035
1.50215
1.50094
1.49997
1.49937
1.49926
1.4998
1.51069
1.50918
1.50769
1.50626
1.50501
1.50405
1.50353
1.50358
1.51636
1.51478
1.51316
1.51151
1.50998
1.50868
1.50775
1.50733
1.52195
1.5203
1.51854
1.51669
1.51488
1.51325
1.51192
1.51104
1.52743
1.52573
1.52383
1.52178
1.51971
1.51775
1.51603
1.51471
1.53282
1.53106
1.52903
1.52678
1.52445
1.52217
1.52008
1.51833
1.53809
1.53627
1.53412
1.53168
1.5291
1.52651
1.52406
1.52189
1.54324
1.54137
1.5391
1.53648
1.53366
1.53077
1.52797
1.52538
1.54827
1.54635
1.54396
1.54117
1.53811
1.53494
1.53179
1.52881
1.55318
1.55121
1.5487
1.54574
1.54245
1.539
1.53553
1.53217
1.55795
1.55593
1.55332
1.55019
1.54669
1.54297
1.53917
1.53545
1.56258
1.56052
1.5578
1.55452
1.55081
1.54683
1.54272
1.53865
1.56707
1.56496
1.56215
1.55872
1.55481
1.55058
1.54618
1.54176
1.57141
1.56927
1.56637
1.56279
1.55868
1.55422
1.54953
1.54479
1.57561
1.57343
1.57044
1.56672
1.56244
1.55774
1.55279
1.54772
1.57967
1.57745
1.57438
1.57053
1.56606
1.56115
1.55593
1.55057
1.58357
1.58132
1.57817
1.57419
1.56956
1.56444
1.55897
1.55331
1.58733
1.58505
1.58182
1.57773
1.57293
1.56761
1.5619
1.55596
1.59094
1.58863
1.58532
1.58112
1.57618
1.57066
1.56472
1.55852
1.5944
1.59206
1.58869
1.58438
1.57929
1.57359
1.56743
1.56097
1.59771
1.59535
1.59191
1.5875
1.58227
1.5764
1.57003
1.56333
1.60088
1.59849
1.595
1.59049
1.58513
1.57909
1.57252
1.56558
1.60391
1.6015
1.59794
1.59334
1.58786
1.58166
1.5749
1.56774
1.6068
1.60436
1.60075
1.59607
1.59047
1.58412
1.57718
1.5698
1.60955
1.60709
1.60343
1.59867
1.59295
1.58646
1.57935
1.57177
1.61217
1.60969
1.60599
1.60114
1.59532
1.58869
1.58141
1.57364
1.61466
1.61216
1.60841
1.60349
1.59758
1.59082
1.58338
1.57543
1.61702
1.61451
1.61072
1.60573
1.59972
1.59284
1.58526
1.57712
1.61927
1.61674
1.61291
1.60786
1.60176
1.59476
1.58704
1.57873
1.6214
1.61886
1.61499
1.60988
1.60369
1.59659
1.58873
1.58027
1.62342
1.62087
1.61696
1.6118
1.60553
1.59833
1.59034
1.58173
1.62534
1.62277
1.61884
1.61362
1.60728
1.59998
1.59187
1.58312
1.62716
1.62458
1.62061
1.61535
1.60894
1.60155
1.59334
1.58445
1.62888
1.62629
1.6223
1.61699
1.61052
1.60305
1.59474
1.58573
1.6305
1.62791
1.62389
1.61855
1.61202
1.60448
1.59608
1.58696
1.63204
1.62944
1.6254
1.62003
1.61346
1.60585
1.59737
1.58815
1.63349
1.63088
1.62683
1.62143
1.61482
1.60716
1.59861
1.5893
1.63484
1.63223
1.62817
1.62275
1.61611
1.60841
1.5998
1.59043
1.63611
1.63349
1.62943
1.624
1.61734
1.60961
1.60096
1.59153
1.63727
1.63466
1.6306
1.62516
1.61849
1.61074
1.60206
1.5926
1.63833
1.63573
1.63167
1.62624
1.61956
1.61181
1.60312
1.59364
1.63928
1.63669
1.63265
1.62722
1.62055
1.6128
1.6041
1.59462
2.59139
2.41789
2.24854
2.096
1.97048
1.87835
1.82118
1.79618
1.79766
1.81867
1.85235
1.89262
1.93438
1.97356
2.00677
2.48125
2.31954
2.1697
2.03951
1.93504
1.85956
1.81315
1.79313
1.795
1.81344
1.84325
1.87962
1.91847
1.95649
1.99117
2.3787
2.23302
2.1019
1.99058
1.90287
1.8405
1.80294
1.78771
1.79107
1.80868
1.83635
1.87007
1.90645
1.94275
1.97697
2.28603
2.15646
2.04204
1.94652
1.8725
1.82093
1.79099
1.78041
1.7859
1.80387
1.83062
1.86272
1.89728
1.93198
1.96515
2.20269
2.08791
1.98801
1.90586
1.84335
1.80101
1.77788
1.77181
1.77988
1.79892
1.82559
1.85687
1.89024
1.92366
1.95573
2.12737
2.02576
1.93845
1.8678
1.81526
1.78105
1.76413
1.76245
1.77339
1.79394
1.82107
1.8521
1.88478
1.91732
1.94845
2.05876
1.96881
1.89255
1.83199
1.78827
1.76139
1.75024
1.75288
1.76677
1.78906
1.817
1.84817
1.88054
1.91251
1.94296
1.99585
1.91627
1.84983
1.7983
1.76254
1.74238
1.73666
1.74348
1.76028
1.78441
1.81335
1.84491
1.87724
1.9089
1.93889
1.93789
1.86762
1.81006
1.76672
1.73825
1.72432
1.72376
1.73451
1.75411
1.78009
1.81013
1.84221
1.87468
1.90623
1.93595
1.88435
1.82256
1.77311
1.73729
1.71556
1.70752
1.71174
1.72615
1.7484
1.77617
1.80731
1.83998
1.8727
1.90428
1.93389
1.83489
1.78091
1.73894
1.71009
1.69471
1.6921
1.70072
1.71852
1.74323
1.77267
1.80487
1.83817
1.87119
1.90289
1.93249
1.78927
1.74253
1.70753
1.68524
1.67574
1.67813
1.69078
1.71165
1.7386
1.76959
1.80279
1.83669
1.87005
1.90191
1.93158
1.74733
1.70736
1.67891
1.66275
1.65867
1.66561
1.68191
1.70556
1.73453
1.76691
1.80102
1.83547
1.86916
1.90122
1.93102
1.70895
1.67536
1.65307
1.64257
1.64344
1.65451
1.67408
1.70022
1.73098
1.76458
1.7995
1.83446
1.86846
1.90072
1.93069
1.67404
1.64647
1.6299
1.62459
1.62996
1.64474
1.66723
1.69556
1.72789
1.76256
1.79818
1.83358
1.86787
1.90033
1.93047
1.6425
1.62056
1.60928
1.60871
1.61813
1.63621
1.66128
1.69151
1.72519
1.76079
1.797
1.83277
1.86731
1.89996
1.93028
1.61419
1.59747
1.59104
1.59476
1.60781
1.62881
1.65612
1.688
1.72283
1.75919
1.79589
1.83197
1.86671
1.89953
1.93003
1.58894
1.57704
1.57502
1.5826
1.59886
1.62241
1.65165
1.68492
1.72072
1.7577
1.79479
1.83112
1.86602
1.89898
1.92966
1.56655
1.55907
1.56104
1.57205
1.59113
1.61689
1.64777
1.68221
1.71879
1.75627
1.79365
1.83015
1.86517
1.89826
1.92909
1.54684
1.54337
1.54891
1.56296
1.58449
1.61213
1.64438
1.67978
1.71697
1.75482
1.79241
1.82903
1.86413
1.89731
1.92828
1.52959
1.52974
1.53845
1.55515
1.57878
1.608
1.64139
1.67754
1.71519
1.75331
1.79103
1.8277
1.86283
1.89608
1.92717
1.5146
1.51798
1.52948
1.54847
1.57387
1.60441
1.6387
1.67543
1.71341
1.75168
1.78945
1.82612
1.86125
1.89453
1.92572
1.50167
1.5079
1.52183
1.54277
1.56966
1.60125
1.63624
1.67338
1.71157
1.7499
1.78765
1.82426
1.85935
1.89263
1.9239
1.49058
1.49933
1.51534
1.53791
1.56601
1.59844
1.63393
1.67134
1.70962
1.74792
1.78558
1.82209
1.8571
1.89035
1.92167
1.48116
1.49208
1.50986
1.53379
1.56285
1.59589
1.63173
1.66926
1.70752
1.74572
1.78323
1.81959
1.85447
1.88766
1.91901
1.47323
1.48601
1.50526
1.53027
1.56007
1.59353
1.62956
1.6671
1.70525
1.74327
1.78057
1.81673
1.85146
1.88456
1.9159
1.46661
1.48096
1.50142
1.52728
1.5576
1.59132
1.62739
1.66483
1.70278
1.74055
1.77758
1.81351
1.84804
1.88102
1.91232
1.46117
1.47682
1.49824
1.52473
1.55538
1.5892
1.62519
1.66242
1.70009
1.73754
1.77427
1.80991
1.84421
1.87704
1.90828
1.45676
1.47346
1.49562
1.52254
1.55335
1.58713
1.62292
1.65985
1.69716
1.73424
1.77061
1.80593
1.83997
1.87261
1.90376
1.45326
1.4708
1.49348
1.52065
1.55148
1.58508
1.62056
1.65711
1.69399
1.73064
1.7666
1.80156
1.83531
1.86774
1.89876
1.45056
1.46873
1.49175
1.51901
1.54971
1.58302
1.6181
1.65418
1.69058
1.72674
1.76226
1.79682
1.83024
1.86242
1.89329
1.44857
1.46718
1.49038
1.51757
1.54802
1.58093
1.61552
1.65106
1.68691
1.72255
1.75758
1.79171
1.82477
1.85667
1.88736
1.4472
1.46609
1.48932
1.51631
1.54638
1.5788
1.61283
1.64776
1.68301
1.71807
1.75256
1.78623
1.8189
1.85049
1.88096
1.44639
1.4654
1.48851
1.51519
1.54479
1.57663
1.61
1.64427
1.67886
1.7133
1.74723
1.7804
1.81265
1.84391
1.87413
1.44605
1.46506
1.48793
1.51418
1.54322
1.57439
1.60706
1.6406
1.67449
1.70827
1.7416
1.77423
1.80603
1.83692
1.86687
1.44615
1.46502
1.48755
1.51328
1.54167
1.5721
1.60399
1.63676
1.6699
1.70298
1.73567
1.76774
1.79906
1.82955
1.85919
1.44663
1.46526
1.48735
1.51247
1.54012
1.56976
1.60082
1.63276
1.6651
1.69744
1.72946
1.76095
1.79175
1.82182
1.85112
1.44744
1.46573
1.4873
1.51173
1.53859
1.56737
1.59754
1.62861
1.66012
1.69168
1.723
1.75386
1.78413
1.81374
1.84268
1.44856
1.46643
1.48738
1.51107
1.53707
1.56493
1.59417
1.62432
1.65496
1.68571
1.7163
1.74651
1.77621
1.80535
1.83389
1.44994
1.46732
1.4876
1.51047
1.53556
1.56245
1.59071
1.61991
1.64964
1.67956
1.70938
1.73891
1.76802
1.79665
1.82477
1.45156
1.46838
1.48793
1.50993
1.53406
1.55995
1.58719
1.6154
1.64419
1.67323
1.70227
1.73109
1.75958
1.78767
1.81534
1.4534
1.4696
1.48837
1.50946
1.53259
1.55742
1.58361
1.61079
1.63861
1.66676
1.69497
1.72306
1.7509
1.77844
1.80564
1.45543
1.47096
1.48891
1.50904
1.53113
1.55489
1.57999
1.60612
1.63294
1.66015
1.68752
1.71485
1.74202
1.76897
1.79567
1.45763
1.47246
1.48954
1.50869
1.52971
1.55236
1.57635
1.60139
1.62718
1.65344
1.67993
1.70648
1.73296
1.7593
1.78547
1.45999
1.47408
1.49026
1.5084
1.52833
1.54984
1.57269
1.59662
1.62135
1.64663
1.67223
1.69797
1.72373
1.74944
1.77506
1.46248
1.4758
1.49107
1.50818
1.52699
1.54734
1.56903
1.59182
1.61548
1.63976
1.66444
1.68935
1.71437
1.73942
1.76447
1.46509
1.47763
1.49196
1.50802
1.5257
1.54487
1.56538
1.58703
1.60958
1.63283
1.65657
1.68063
1.70489
1.72926
1.75371
1.46782
1.47955
1.49293
1.50793
1.52446
1.54245
1.56176
1.58223
1.60367
1.62588
1.64865
1.67184
1.69531
1.71898
1.74282
1.47064
1.48155
1.49398
1.5079
1.52328
1.54007
1.55818
1.57747
1.59777
1.61891
1.64071
1.663
1.68566
1.70862
1.73181
1.47354
1.48363
1.49509
1.50794
1.52216
1.53775
1.55464
1.57273
1.59189
1.61195
1.63274
1.65412
1.67596
1.69817
1.72071
1.47651
1.48577
1.49627
1.50805
1.52111
1.53549
1.55116
1.56805
1.58605
1.60501
1.62479
1.64523
1.66623
1.68768
1.70953
1.47954
1.48797
1.49752
1.50822
1.52013
1.53331
1.54775
1.56343
1.58026
1.59811
1.61686
1.63635
1.65649
1.67716
1.69831
1.48263
1.49023
1.49882
1.50846
1.51923
1.5312
1.54442
1.55889
1.57453
1.59127
1.60896
1.6275
1.64675
1.66663
1.68706
1.48575
1.49253
1.50017
1.50876
1.51839
1.52917
1.54117
1.55442
1.56889
1.58449
1.60113
1.61868
1.63704
1.65611
1.6758
1.4889
1.49487
1.50158
1.50912
1.51763
1.52723
1.53802
1.55005
1.56333
1.5778
1.59337
1.60993
1.62738
1.64561
1.66456
1.49207
1.49724
1.50302
1.50954
1.51694
1.52537
1.53495
1.54578
1.55787
1.5712
1.58569
1.60125
1.61777
1.63516
1.65334
1.49526
1.49963
1.50451
1.51002
1.51633
1.5236
1.53199
1.54161
1.55252
1.5647
1.57811
1.59266
1.60824
1.62477
1.64217
1.49845
1.50204
1.50603
1.51055
1.51578
1.52192
1.52913
1.53756
1.54729
1.55833
1.57064
1.58417
1.5988
1.61446
1.63106
1.50164
1.50446
1.50758
1.51113
1.51531
1.52032
1.52638
1.53363
1.54218
1.55207
1.5633
1.57579
1.58947
1.60425
1.62003
1.50482
1.50689
1.50915
1.51175
1.5149
1.51882
1.52373
1.52981
1.5372
1.54596
1.55609
1.56754
1.58026
1.59414
1.6091
1.50798
1.50931
1.51074
1.51242
1.51456
1.5174
1.52119
1.52612
1.53236
1.53998
1.54901
1.55943
1.57117
1.58415
1.59828
1.51112
1.51173
1.51234
1.51312
1.51428
1.51607
1.51875
1.52256
1.52765
1.53415
1.54209
1.55147
1.56223
1.5743
1.58758
1.51423
1.51413
1.51395
1.51385
1.51405
1.51482
1.51643
1.51912
1.52309
1.52847
1.53533
1.54366
1.55344
1.56459
1.57701
1.5173
1.51651
1.51556
1.5146
1.51388
1.51365
1.5142
1.5158
1.51867
1.52294
1.52872
1.53602
1.54481
1.55503
1.56659
1.52033
1.51887
1.51717
1.51538
1.51375
1.51255
1.51208
1.51262
1.51439
1.51758
1.52228
1.52854
1.53635
1.54564
1.55633
1.5233
1.5212
1.51876
1.51618
1.51367
1.51153
1.51006
1.50955
1.51026
1.51237
1.51601
1.52124
1.52806
1.53641
1.54623
1.52623
1.52349
1.52035
1.51698
1.51363
1.51057
1.50813
1.50661
1.50627
1.50732
1.50992
1.51412
1.51995
1.52737
1.53631
1.5291
1.52574
1.52192
1.51779
1.51362
1.50968
1.5063
1.50378
1.50242
1.50244
1.50399
1.50719
1.51204
1.51852
1.52657
1.53191
1.52795
1.52346
1.51861
1.51364
1.50885
1.50455
1.50107
1.49871
1.49771
1.49825
1.50043
1.50431
1.50985
1.51702
1.53465
1.53011
1.52498
1.51942
1.51369
1.50807
1.50289
1.49848
1.49514
1.49314
1.49268
1.49387
1.49677
1.50139
1.50766
1.53732
1.53222
1.52647
1.52023
1.51375
1.50733
1.5013
1.49599
1.49171
1.48873
1.48728
1.48749
1.48943
1.49312
1.49851
1.53992
1.53428
1.52792
1.52102
1.51383
1.50665
1.49979
1.4936
1.4884
1.48448
1.48206
1.4813
1.48229
1.48506
1.48956
1.54244
1.53627
1.52933
1.5218
1.51393
1.506
1.49835
1.49131
1.48522
1.48037
1.47701
1.4753
1.47535
1.4772
1.48081
1.54488
1.53821
1.5307
1.52257
1.51403
1.50539
1.49697
1.48911
1.48216
1.47641
1.47213
1.46949
1.46861
1.46954
1.47228
1.54725
1.54008
1.53203
1.52331
1.51413
1.5048
1.49565
1.487
1.47922
1.4726
1.46741
1.46385
1.46206
1.4621
1.46396
1.54953
1.54188
1.53332
1.52402
1.51424
1.50425
1.49438
1.48498
1.47638
1.46892
1.46285
1.4584
1.45571
1.45486
1.45585
1.55173
1.54362
1.53455
1.52471
1.51434
1.50371
1.49316
1.48303
1.47366
1.46537
1.45845
1.45313
1.44956
1.44782
1.44796
1.55384
1.54529
1.53574
1.52537
1.51443
1.5032
1.49199
1.48116
1.47103
1.46195
1.45421
1.44803
1.44359
1.44099
1.44028
1.55586
1.54689
1.53687
1.526
1.51451
1.5027
1.49086
1.47935
1.46851
1.45866
1.45011
1.4431
1.43781
1.43436
1.4328
1.5578
1.54842
1.53795
1.52659
1.51459
1.50221
1.48977
1.47761
1.46607
1.45548
1.44615
1.43833
1.43222
1.42793
1.42554
1.55966
1.54988
1.53897
1.52715
1.51464
1.50173
1.48871
1.47593
1.46372
1.45242
1.44234
1.43373
1.4268
1.4217
1.41849
1.56143
1.55126
1.53994
1.52767
1.51469
1.50125
1.48768
1.4743
1.46145
1.44946
1.43865
1.42928
1.42157
1.41566
1.41164
1.56312
1.55258
1.54086
1.52816
1.51471
1.50078
1.48668
1.47273
1.45926
1.44661
1.43509
1.42498
1.4165
1.40981
1.405
1.56472
1.55384
1.54173
1.52861
1.51472
1.50032
1.4857
1.4712
1.45714
1.44386
1.43166
1.42083
1.4116
1.40414
1.39855
1.56625
1.55502
1.54255
1.52903
1.51471
1.49985
1.48475
1.46972
1.45509
1.4412
1.42835
1.41682
1.40686
1.39865
1.3923
1.5677
1.55615
1.54332
1.52942
1.51469
1.49939
1.48382
1.46829
1.45312
1.43863
1.42515
1.41295
1.40229
1.39334
1.38624
1.56908
1.55721
1.54404
1.52977
1.51465
1.49894
1.48292
1.4669
1.45121
1.43616
1.42207
1.40922
1.39787
1.38821
1.38037
1.57039
1.55822
1.54472
1.5301
1.51461
1.4985
1.48205
1.46556
1.44937
1.43378
1.4191
1.40563
1.39361
1.38325
1.3747
1.57163
1.55918
1.54537
1.53042
1.51456
1.49806
1.4812
1.46428
1.4476
1.43149
1.41625
1.40217
1.38951
1.37848
1.36922
1.57282
1.5601
1.54599
1.53071
1.51452
1.49765
1.4804
1.46305
1.44592
1.42931
1.41353
1.39886
1.38558
1.37388
1.36394
1.57397
1.56098
1.54658
1.53101
1.51448
1.49727
1.47965
1.4619
1.44433
1.42724
1.41094
1.39571
1.38182
1.36949
1.35888
1.57506
1.56183
1.54717
1.5313
1.51448
1.49694
1.47896
1.46083
1.44284
1.4253
1.40851
1.39274
1.37827
1.36532
1.35406
1.57613
1.56267
1.54776
1.53162
1.51451
1.49666
1.47836
1.45987
1.44149
1.42352
1.40626
1.38998
1.37495
1.36139
1.3495
1.57717
1.5635
1.54836
1.53198
1.5146
1.49647
1.47786
1.45905
1.44031
1.42194
1.40423
1.38746
1.3719
1.35778
1.34528
1.57819
1.56434
1.54899
1.53239
1.51477
1.49639
1.47751
1.4584
1.43933
1.42059
1.40248
1.38526
1.36921
1.35454
1.34147
1.57921
1.56519
1.54966
1.53286
1.51504
1.49645
1.47733
1.45796
1.43861
1.41955
1.40108
1.38346
1.36695
1.35179
1.33818
1.58022
1.56606
1.55038
1.53343
1.51545
1.49667
1.47737
1.45779
1.4382
1.41888
1.4001
1.38214
1.36524
1.34965
1.33556
1.58122
1.56696
1.55117
1.5341
1.51599
1.4971
1.47765
1.45792
1.43817
1.41865
1.39964
1.38141
1.36421
1.34827
1.33379
1.58221
1.56788
1.55201
1.53487
1.51669
1.49772
1.47821
1.4584
1.43855
1.41892
1.39978
1.38138
1.36397
1.34779
1.33303
1.58318
1.5688
1.5529
1.53573
1.51753
1.49855
1.47903
1.45921
1.43934
1.41969
1.4005
1.38205
1.36455
1.34826
1.33336
2.03485
2.05294
2.06676
2.07675
2.08289
2.08502
2.08301
2.07684
2.06676
2.05344
2.03805
2.02238
2.00883
2.00027
1.99972
2.00979
2.032
2.06621
2.11063
2.16246
2.21895
2.2782
2.33937
2.40232
2.46702
2.53326
2.60043
2.66764
2.73385
2.79794
2.8589
2.91578
2.96781
3.01435
3.05487
3.08896
3.1163
3.13659
3.1496
3.15505
2.01901
2.03966
2.05632
2.06907
2.0778
2.08238
2.08277
2.07909
2.07174
2.06153
2.04976
2.03824
2.02927
2.02551
2.02957
2.04357
2.06852
2.104
2.1482
2.19864
2.25302
2.30982
2.36843
2.42872
2.49066
2.554
2.61815
2.68225
2.74529
2.80624
2.86413
2.91807
2.96733
3.0113
3.04949
3.08153
3.10711
3.12598
3.13792
3.14269
2.0055
2.02839
2.04751
2.06271
2.07382
2.08073
2.08346
2.08225
2.07764
2.07053
2.0623
2.05474
2.05005
2.05062
2.0587
2.07598
2.10306
2.13931
2.183
2.23196
2.28427
2.33873
2.39487
2.45262
2.51191
2.57246
2.63368
2.69477
2.75476
2.81268
2.8676
2.9187
2.96528
3.00677
3.04273
3.07279
3.09669
3.1142
3.12513
3.12929
1.99428
2.0192
2.04047
2.05785
2.07111
2.08018
2.08513
2.08632
2.08436
2.08027
2.07543
2.07159
2.07082
2.07526
2.08681
2.10678
2.13546
2.17209
2.21506
2.26248
2.31278
2.365
2.41878
2.47408
2.5308
2.58865
2.64705
2.70522
2.76225
2.81723
2.86928
2.91762
2.96161
3.00071
3.03451
3.06268
3.08497
3.10119
3.11116
3.11473
1.98529
2.01196
2.03509
2.05436
2.06955
2.08059
2.08765
2.09113
2.09174
2.09053
2.0889
2.08852
2.09131
2.09916
2.11367
2.1358
2.16562
2.20232
2.24441
2.29027
2.33861
2.38868
2.4402
2.49314
2.54738
2.60261
2.65828
2.71362
2.7678
2.81993
2.8692
2.91489
2.95638
2.99317
3.02489
3.05124
3.07199
3.08697
3.09603
3.09903
1.97832
2.00646
2.03117
2.05209
2.06898
2.08183
2.09085
2.09651
2.09957
2.10111
2.10247
2.10528
2.11127
2.1221
2.13908
2.16291
2.1935
2.23
2.27109
2.31538
2.36182
2.40982
2.45918
2.50985
2.56169
2.6144
2.66742
2.72004
2.77145
2.82083
2.86742
2.91055
2.94963
2.9842
3.01392
3.03852
3.0578
3.0716
3.0798
3.08227
1.97307
2.00245
2.0285
2.05083
2.06924
2.08374
2.09459
2.1023
2.10768
2.11178
2.11593
2.12164
2.13047
2.14386
2.16287
2.188
2.21904
2.25515
2.29515
2.33788
2.38249
2.42851
2.47578
2.52426
2.57379
2.62405
2.67452
2.7245
2.77325
2.81998
2.864
2.90465
2.94141
2.97386
3.00166
3.02459
3.04246
3.05514
3.06251
3.06447
1.96925
1.99965
2.02683
2.05039
2.07015
2.08615
2.0987
2.10834
2.11588
2.12237
2.12907
2.13738
2.14871
2.16427
2.18494
2.21102
2.24224
2.27779
2.31665
2.35785
2.40068
2.4448
2.49007
2.53643
2.58373
2.63164
2.67964
2.72708
2.77326
2.81745
2.85898
2.89725
2.93179
2.96219
2.98816
3.00948
3.02601
3.03762
3.04422
3.04571
1.96656
1.99783
2.02596
2.05058
2.07154
2.08891
2.10303
2.11446
2.124
2.13269
2.14171
2.15234
2.16583
2.18322
2.20519
2.23193
2.2631
2.29798
2.33567
2.37535
2.41648
2.45877
2.50211
2.54644
2.59158
2.63722
2.68284
2.72784
2.77155
2.81328
2.85242
2.88842
2.92082
2.94926
2.97347
2.99327
3.00851
3.01911
3.02497
3.02602
1.96476
1.99674
2.02568
2.05123
2.07325
2.09187
2.10743
2.12051
2.1319
2.14259
2.15369
2.16636
2.1817
2.20059
2.22357
2.25071
2.28166
2.31578
2.35227
2.39049
2.42997
2.47049
2.51198
2.55435
2.59741
2.64085
2.68419
2.72684
2.76816
2.80754
2.84439
2.8782
2.90855
2.93512
2.95766
2.97599
2.99002
2.99965
3.00482
3.00545
1.96363
1.99622
2.02584
2.05218
2.07515
2.0949
2.11177
2.12636
2.13944
2.15193
2.16487
2.17932
2.19622
2.21633
2.24004
2.26737
2.29797
2.33125
2.36656
2.40333
2.44123
2.48006
2.51976
2.56023
2.6013
2.64262
2.68375
2.72414
2.76318
2.8003
2.83496
2.86667
2.89506
2.91984
2.94077
2.95772
2.97059
2.97931
2.98382
2.98407
1.96299
1.99607
2.02627
2.0533
2.07712
2.09787
2.11594
2.1319
2.14649
2.16059
2.17515
2.19112
2.20932
2.23038
2.2546
2.28194
2.31208
2.34448
2.3786
2.41398
2.45034
2.48755
2.52552
2.56417
2.6033
2.6426
2.68161
2.71982
2.75667
2.79163
2.82417
2.85388
2.8804
2.90346
2.92287
2.9385
2.95027
2.95812
2.96202
2.96191
1.96268
1.99618
2.02685
2.05448
2.07902
2.10068
2.11982
2.137
2.15295
2.16847
2.18443
2.20168
2.22095
2.24273
2.26726
2.29447
2.32405
2.35554
2.38849
2.42252
2.45741
2.49304
2.52936
2.56625
2.60352
2.64085
2.67782
2.71394
2.7487
2.78157
2.81211
2.8399
2.86464
2.88606
2.90402
2.91839
2.92912
2.93616
2.93948
2.93905
1.96258
1.9964