/*--------------------------------*- C++ -*----------------------------------*\
| =========                 |                                                 |
| \\      /  F ield         | OpenFOAM: The Open Source CFD Toolbox           |
|  \\    /   O peration     | Version:  2206                                  |
|   \\  /    A nd           | Website:  www.openfoam.com                      |
|    \\/     M anipulation  |                                                 |
\*---------------------------------------------------------------------------*/
FoamFile
{
    version     2.0;
    format      ascii;
    arch        "LSB;label=32;scalar=64";
    class       volScalarField;
    location    "400";
    object      p;
}
// * * * * * * * * * * * * * * * * * * * * * * * * * * * * * * * * * * * * * //

dimensions      [0 2 -2 0 0 0 0];

internalField   nonuniform List<scalar> 
12940
(
748.425
736.681
737.074
735.919
734.565
733.244
731.939
730.656
744.112
738.263
738.263
736.33
734.715
733.29
731.938
730.636
742.38
738.818
738.558
736.429
734.767
733.265
731.865
730.55
741.749
739.091
738.284
736.214
734.632
733.109
731.688
730.38
740.757
738.839
737.638
735.736
734.276
732.805
731.409
730.129
738.975
737.769
736.544
734.941
733.664
732.332
731.03
729.809
736.565
735.992
735.079
733.878
732.843
731.714
730.566
729.444
734.026
733.981
733.53
732.734
731.953
731.042
730.069
729.072
731.909
732.267
732.219
731.735
731.163
730.437
729.618
728.743
730.505
731.125
731.326
731.033
730.596
729.998
729.289
728.509
729.797
730.532
730.853
730.668
730.299
729.773
729.127
728.408
729.605
730.336
730.71
730.6
730.262
729.766
729.149
728.461
729.742
730.404
730.801
730.76
730.444
729.958
729.347
728.67
730.083
730.657
731.058
731.083
730.799
730.321
729.707
729.03
730.554
731.051
731.439
731.522
731.287
730.826
730.21
729.53
731.118
731.553
731.918
732.045
731.873
731.446
730.836
730.158
731.747
732.136
732.478
732.635
732.531
732.158
731.569
730.9
732.42
732.777
733.101
733.281
733.242
732.939
732.392
731.746
733.11
733.452
733.772
733.974
733.996
733.774
733.289
732.683
733.788
734.136
734.47
734.704
734.787
734.652
734.249
733.702
734.414
734.795
735.169
735.458
735.61
735.568
735.263
734.793
734.944
735.387
735.833
736.207
736.453
736.516
736.325
735.949
735.333
735.863
736.41
736.905
737.283
737.478
737.423
737.161
735.547
736.181
736.842
737.483
738.033
738.405
738.523
738.402
735.567
736.309
737.081
737.866
738.606
739.195
739.539
739.6
735.391
736.239
737.102
737.999
738.903
739.714
740.315
740.597
735.034
735.981
736.915
737.874
738.875
739.848
740.679
741.18
734.529
735.564
736.556
737.537
738.556
739.587
740.538
741.194
733.927
735.038
736.079
737.059
738.047
739.039
739.974
740.664
733.303
734.47
735.549
736.519
737.452
738.359
739.19
739.793
732.749
733.946
735.046
735.995
736.867
737.676
738.376
738.819
732.37
733.559
734.654
735.57
736.379
737.096
737.667
737.904
732.259
733.396
734.45
735.319
736.067
736.708
737.166
737.16
732.487
733.517
734.489
735.296
735.99
736.583
736.962
736.689
733.069
733.934
734.782
735.517
736.177
736.768
737.126
736.605
733.935
734.588
735.279
735.946
736.606
737.264
737.701
737.041
734.911
735.328
735.852
736.468
737.179
737.992
738.66
738.14
735.713
735.912
736.285
736.876
737.683
738.728
739.81
739.934
735.992
736.038
736.297
736.868
737.753
739.012
740.586
741.898
735.459
735.45
735.637
736.14
736.972
738.206
739.896
742.116
734.18
734.186
734.287
734.577
735.011
735.525
735.875
735.349
732.697
732.761
732.843
733.013
733.22
733.364
733.183
732.427
730.948
731.082
731.173
731.28
731.368
731.367
731.12
730.58
729.015
729.214
729.326
729.399
729.422
729.354
729.115
728.676
726.96
727.214
727.351
727.406
727.388
727.288
727.078
726.727
724.831
725.131
725.287
725.323
725.268
725.138
724.95
724.666
722.674
723.009
723.171
723.174
723.06
722.868
722.663
722.391
720.549
720.902
721.05
720.99
720.773
720.452
720.124
719.722
718.533
718.879
718.982
718.82
718.43
717.832
717.032
715.944
716.721
717.019
717.045
716.751
716.123
715.04
713.048
709.578
714.997
715.184
715.125
714.783
714.152
713.176
711.54
708.147
713.54
713.561
713.421
713.14
712.737
712.219
711.467
710.115
712.264
712.073
711.818
711.588
711.388
711.238
711.083
710.718
710.857
710.448
710.067
709.873
709.845
709.986
710.237
710.415
709.001
708.395
707.9
707.746
707.884
708.29
708.892
709.537
706.38
705.617
705.044
704.956
705.282
705.977
706.962
708.151
702.662
701.805
701.21
701.237
701.8
702.845
704.311
706.255
697.499
696.637
696.096
696.286
697.132
698.596
700.686
703.749
690.551
689.802
689.395
689.774
690.909
692.839
695.791
700.675
681.594
681.094
680.892
681.431
682.787
685.185
689.144
696.035
670.607
670.401
670.255
670.468
671.001
671.787
672.46
671.464
658.313
658.424
658.4
658.429
658.447
658.234
657.23
655.184
645.3
645.667
645.795
645.812
645.704
645.338
644.437
643.121
631.871
632.395
632.637
632.683
632.554
632.193
631.464
630.406
618.162
618.761
619.073
619.158
619.057
618.749
618.165
617.3
604.21
604.826
605.17
605.286
605.22
604.97
604.49
603.762
590.014
590.614
590.962
591.095
591.057
590.852
590.443
589.804
575.569
576.134
576.47
576.608
576.589
576.416
576.056
575.481
560.874
561.397
561.712
561.848
561.839
561.688
561.366
560.843
545.937
546.415
546.706
546.833
546.83
546.697
546.406
545.93
530.772
531.206
531.469
531.587
531.586
531.467
531.204
530.773
515.398
515.786
516.023
516.129
516.129
516.023
515.787
515.4
499.834
500.178
500.387
500.481
500.481
500.388
500.179
499.836
484.101
484.4
484.583
484.665
484.665
484.584
484.402
484.102
468.221
468.476
468.632
468.702
468.702
468.633
468.477
468.222
452.215
452.427
452.556
452.614
452.614
452.556
452.427
452.215
436.105
436.273
436.375
436.421
436.421
436.376
436.273
436.105
419.912
420.037
420.112
420.146
420.146
420.113
420.037
419.913
403.659
403.74
403.788
403.81
403.81
403.788
403.74
403.659
387.367
387.403
387.425
387.435
387.435
387.425
387.403
387.367
371.058
371.049
371.044
371.042
371.042
371.044
371.049
371.058
354.753
354.7
354.667
354.652
354.652
354.667
354.7
354.753
338.476
338.377
338.316
338.289
338.289
338.316
338.377
338.476
322.247
322.103
322.014
321.975
321.975
322.014
322.103
322.248
306.092
305.9
305.783
305.731
305.731
305.783
305.9
306.092
290.032
289.793
289.646
289.581
289.581
289.646
289.792
290.032
274.092
273.803
273.627
273.548
273.548
273.627
273.802
274.091
258.295
257.956
257.749
257.657
257.656
257.749
257.955
258.294
242.667
242.276
242.037
241.931
241.931
242.037
242.275
242.666
227.232
226.787
226.516
226.396
226.396
226.518
226.789
227.234
212.015
211.515
211.211
211.077
211.08
211.219
211.525
212.026
197.04
196.484
196.147
196.001
196.008
196.168
196.513
197.075
182.327
181.716
181.35
181.196
181.212
181.397
181.789
182.419
167.893
167.233
166.845
166.689
166.72
166.94
167.39
168.104
153.748
153.054
152.658
152.511
152.566
152.831
153.362
154.187
139.895
139.2
138.822
138.695
138.778
139.099
139.746
140.731
126.344
125.704
125.38
125.281
125.383
125.755
126.554
127.763
113.134
112.634
112.412
112.332
112.404
112.775
113.754
115.259
100.395
100.14
100.066
99.9733
99.9174
100.134
101.221
103.465
88.4043
88.4727
88.5375
88.2866
87.7531
87.0424
86.5936
87.8437
77.6944
78.096
78.2655
77.752
76.4965
74.3691
71.0184
64.8885
68.9191
69.6357
70.0518
69.7017
68.6161
66.7882
63.9928
59.1789
62.1049
63.0329
63.6521
63.5145
62.6978
61.257
59.1269
55.741
57.0801
58.1197
58.8752
58.9345
58.391
57.315
55.7217
53.3585
53.5667
54.6377
55.4606
55.6676
55.3516
54.5793
53.4062
51.8038
51.2774
52.323
53.1556
53.4544
53.3038
52.7592
51.8984
50.8489
49.9588
50.9415
51.7413
52.0832
52.0404
51.6561
51.0186
50.366
49.4022
50.2984
51.0359
51.3829
51.4016
51.1238
50.6427
50.2703
49.4407
50.236
50.892
51.2163
51.2612
51.0492
50.6736
50.4935
49.9416
50.6281
51.1908
51.473
51.5181
51.3414
51.0338
50.9785
50.7994
51.3736
51.8364
52.0637
52.0906
51.927
51.659
51.6778
51.9298
52.3909
52.7514
52.9156
52.9118
52.7454
52.4964
52.5512
53.2649
53.6148
53.8732
53.9701
53.9273
53.7469
53.5016
53.5646
54.75
54.9921
55.1508
55.1789
55.0924
54.8903
54.638
54.6894
56.3404
56.4793
56.5424
56.5022
56.3694
56.141
55.8746
55.9016
57.9996
58.0407
58.013
57.9067
57.7274
57.4702
57.1854
57.1791
59.6975
59.647
59.5342
59.3649
59.1401
58.8534
58.5477
58.5028
61.4093
61.2735
61.0818
60.8534
60.585
60.2692
59.9417
59.8556
63.1142
62.8999
62.6355
62.3525
62.0434
61.6996
61.3503
61.2226
64.7946
64.5086
64.1781
63.8452
63.4988
63.1289
62.7588
62.59
66.4357
66.0849
65.695
65.3172
64.9369
64.5432
64.1536
63.9455
68.0249
67.6162
67.1733
66.7556
66.3451
65.93
65.5228
65.2777
69.5513
69.0914
68.6019
68.1492
67.7121
67.2783
66.8555
66.5761
71.0052
70.5009
69.971
69.4879
69.028
68.5782
68.1419
67.8309
72.3786
71.8361
71.2717
70.763
70.2839
69.8207
69.373
69.0335
73.6643
73.0898
72.4966
71.9667
71.4718
70.9978
70.5409
70.1758
74.8562
74.2557
73.639
73.0919
72.5846
72.1021
71.6381
71.2505
75.9491
75.3281
74.693
74.1328
73.616
73.1274
72.6582
72.251
76.9388
76.3025
75.6538
75.084
74.5606
74.0681
73.5955
73.1716
77.8218
77.1751
76.5171
75.9412
75.4139
74.9195
74.4453
74.0073
78.5955
77.9428
77.2796
76.7008
76.172
75.6775
75.2033
74.754
79.2579
78.6034
77.9388
77.3599
76.8318
76.339
75.8664
75.4082
79.8079
79.1554
78.4928
77.9164
77.3912
76.9017
76.4321
75.9675
80.2451
79.598
78.9405
78.369
77.8486
77.3638
76.8986
76.4298
80.5698
79.9312
79.2816
78.7172
78.2032
77.7245
77.2649
76.7941
80.7829
80.1554
79.5162
78.9608
78.4548
77.9835
77.5306
77.0598
80.8857
80.2717
79.6452
79.1005
78.6039
78.141
77.6958
77.2269
80.8802
80.2819
79.6699
79.1374
78.6515
78.198
77.7615
77.2962
80.7689
80.188
79.5922
79.0733
78.5991
78.1559
77.7289
77.2689
80.5546
79.9926
79.4145
78.9103
78.4487
78.0166
77.5999
77.1465
80.2405
79.6986
79.1394
78.6508
78.2027
77.7824
77.3766
76.9311
79.83
79.3093
78.77
78.2979
77.864
77.456
77.0617
76.6253
79.327
78.8283
78.3097
77.8547
77.4354
77.0403
76.658
76.2317
78.7355
78.2593
77.762
77.3246
76.9205
76.5386
76.1687
75.7535
78.0595
77.6062
77.1307
76.7114
76.3228
75.9545
75.5972
75.1939
77.3033
76.8732
76.4198
76.0187
75.646
75.2915
74.9472
74.5564
76.4713
76.0645
75.6332
75.2506
74.8939
74.5535
74.2224
73.8445
75.5678
75.1841
74.7751
74.4111
74.0704
73.7442
73.4264
73.062
74.5972
74.2365
73.8497
73.5041
73.1796
72.8675
72.5631
72.2126
73.5637
73.2257
72.8609
72.5338
72.2253
71.9275
71.6364
71.3
72.4716
72.156
71.8129
71.5041
71.2115
70.9279
70.6502
70.3279
71.3252
71.0315
70.7098
70.4189
70.1422
69.8726
69.6082
69.3002
70.1286
69.8562
69.5555
69.2823
69.0211
68.7654
68.5142
68.2204
68.8856
68.6341
68.3538
68.098
67.8521
67.6101
67.3718
67.0923
67.6004
67.369
67.1086
66.8697
66.6388
66.4104
66.1848
65.9194
66.2765
66.0645
65.8235
65.6011
65.3848
65.1697
64.9566
64.7052
64.9175
64.7243
64.5021
64.2956
64.0937
63.8914
63.6907
63.453
63.527
63.3518
63.1476
62.9567
62.7686
62.579
62.3902
62.166
62.1083
61.9503
61.7635
61.5875
61.4129
61.2356
61.0585
60.8474
60.6643
60.5228
60.3527
60.1911
60.0295
59.8642
59.6984
59.5002
59.1983
59.0724
58.9182
58.7705
58.6215
58.4676
58.3129
58.1272
57.7128
57.6018
57.4628
57.3283
57.1914
57.0488
56.9047
56.7312
56.2106
56.1136
55.9892
55.8673
55.742
55.6101
55.4763
55.3146
54.6941
54.6104
54.4997
54.39
54.2757
54.1542
54.0303
53.8799
53.1657
53.0944
52.9967
52.8985
52.7948
52.6832
52.5689
52.4294
51.6274
51.5678
51.4825
51.3951
51.3015
51.1994
51.0942
50.9653
50.0814
50.0327
49.9589
49.8818
49.7978
49.7048
49.6084
49.4895
48.5294
48.4909
48.4279
48.3605
48.2856
48.2013
48.1131
48.0039
46.9731
46.944
46.8912
46.833
46.7666
46.6905
46.6103
46.5103
45.4142
45.3938
45.3504
45.3007
45.2425
45.1741
45.1015
45.0102
43.8539
43.8415
43.807
43.7652
43.7146
43.6536
43.5881
43.5052
42.2937
42.2886
42.2622
42.2279
42.1844
42.1303
42.0716
41.9966
40.7346
40.7362
40.7173
40.6899
40.653
40.6055
40.5532
40.4856
39.1777
39.1854
39.1734
39.1524
39.1217
39.0803
39.034
38.9734
37.624
37.6371
37.6314
37.6162
37.5913
37.5556
37.515
37.4611
36.0741
36.0922
36.0922
36.0824
36.0627
36.0324
35.9971
35.9494
34.5289
34.5513
34.5565
34.5516
34.5368
34.5115
34.4811
34.4392
32.989
33.0152
33.0249
33.0245
33.0142
32.9935
32.9677
32.9313
31.4547
31.4842
31.4981
31.5017
31.4955
31.4791
31.4576
31.4262
29.9266
29.9589
29.9765
29.9837
29.9812
29.9687
29.9511
29.9244
28.4049
28.4397
28.4604
28.4707
28.4716
28.4627
28.4488
28.4265
26.89
26.9266
26.95
26.9632
26.9671
26.9614
26.9509
26.9326
25.3818
25.42
25.4457
25.4613
25.4679
25.4652
25.4578
25.4432
23.8805
23.9198
23.9474
23.9651
23.9741
23.9741
23.9695
23.9584
22.3861
22.4262
22.4553
22.4747
22.4858
22.4882
22.4862
22.4783
20.8984
20.9389
20.9692
20.9901
21.003
21.0076
21.008
21.0028
19.4173
19.458
19.489
19.5111
19.5255
19.5321
19.5346
19.5321
17.9427
17.9832
18.0147
18.0376
18.0532
18.0616
18.0661
18.066
16.4742
16.5142
16.5459
16.5693
16.586
16.5959
16.6021
16.6043
15.0116
15.0509
15.0824
15.1062
15.1236
15.1347
15.1425
15.1467
13.5544
13.5928
13.624
13.6478
13.6658
13.678
13.687
13.6929
12.1024
12.1396
12.1702
12.1939
12.2122
12.2252
12.2353
12.2427
10.6551
10.6909
10.7207
10.744
10.7625
10.7761
10.7872
10.7958
9.21212
9.24648
9.27521
9.29798
9.31629
9.3303
9.34202
9.35164
7.7733
7.80604
7.83352
7.85542
7.87331
7.88742
7.89954
7.90989
6.33854
6.3695
6.39549
6.41618
6.43325
6.4471
6.45931
6.4701
4.90818
4.93716
4.96125
4.9802
4.99593
5.00903
5.0209
5.03178
3.48334
3.50965
3.53112
3.54747
3.56106
3.57272
3.58363
3.59397
2.06476
2.08579
2.10234
2.11446
2.12486
2.13449
2.14407
2.15406
0.667775
0.677849
0.685316
0.69206
0.699673
0.708445
0.71834
0.731045
55.4403
49.3421
47.5642
44.8991
41.4702
37.4378
32.7322
27.342
21.3344
14.8633
8.21178
1.71351
-4.29891
-6.96315
2.08166
55.549
49.3268
46.5995
43.7814
40.7159
37.3671
33.6284
29.4405
24.7943
19.732
14.3831
8.89412
3.16377
-1.47009
3.22654
53.1058
48.1783
45.8251
43.3797
40.8201
38.0986
35.121
31.8191
28.1495
24.0959
19.7095
15.0845
10.0025
4.73232
7.11322
51.1101
47.5061
45.6068
43.5641
41.4587
39.2341
36.8052
34.106
31.0824
27.7037
23.9831
19.9812
15.5189
10.4285
11.5702
49.7581
47.2371
45.729
44.0745
42.3746
40.5622
38.5646
36.3234
33.7884
30.9246
27.7313
24.2357
20.3021
15.638
16.0277
48.9118
47.2862
46.131
44.828
43.4729
41.9974
40.3427
38.46
36.3084
33.856
31.0946
28.0311
24.5557
20.3798
20.3731
48.5109
47.6196
46.7692
45.7643
44.692
43.4881
42.1056
40.5096
38.6635
36.5434
34.1381
31.444
28.3645
24.6611
24.5
48.5018
48.1938
47.5945
46.8334
45.9893
45.0028
43.8417
42.4757
40.8783
39.0302
36.9212
34.5432
31.8061
28.5262
28.3433
48.8239
48.9631
48.5651
47.9997
47.3376
46.5287
45.5464
44.3677
42.9744
41.3515
39.491
37.3838
34.944
32.0329
31.8844
49.4186
49.8884
49.6485
49.2386
48.7231
48.0583
47.2199
46.1947
44.9701
43.5347
41.8834
40.0078
37.8266
35.2329
35.1325
50.2329
50.9375
50.8205
50.5343
50.1372
49.5854
48.8639
47.9648
46.8799
45.6013
44.1263
42.4482
40.4914
38.1708
38.1074
51.2221
52.0844
52.0631
51.8754
51.5692
51.107
50.4801
49.6845
48.7153
47.5677
46.241
44.731
42.9683
40.8824
40.8344
52.3481
53.3095
53.3623
53.249
53.0119
52.6204
52.0696
51.3584
50.4846
49.4461
48.244
46.8762
45.281
43.3968
43.3392
53.5802
54.5962
54.7031
54.6439
54.4589
54.1225
53.6321
52.9891
52.1935
51.2454
50.1473
48.8994
47.448
45.7372
45.6457
54.8928
55.9283
56.0718
56.0509
55.9042
55.6094
55.166
54.5773
53.8451
52.9712
51.9595
50.8122
49.4837
47.9218
47.7753
56.2634
57.2904
57.4568
57.4616
57.3412
57.0765
56.6686
56.1222
55.4406
54.627
53.6865
52.623
51.3992
49.965
49.7461
57.6715
58.6697
58.8478
58.8675
58.7632
58.5187
58.1363
57.6218
56.9797
56.2143
55.3317
54.3376
53.2026
51.8777
51.5734
59.1006
60.0548
60.235
60.2601
60.1631
59.9302
59.5647
59.0731
58.4608
57.7332
56.8973
55.96
54.8998
53.6682
53.2696
60.5359
61.4347
61.6085
61.6311
61.5339
61.3051
60.9489
60.4723
59.8815
59.1828
58.3837
57.4926
56.495
55.343
54.8443
61.9643
62.7991
62.9593
62.9723
62.8683
62.6372
62.2837
61.8153
61.2388
60.5613
59.7907
58.9364
57.9912
56.9063
56.3053
63.3738
64.138
64.2783
64.2759
64.1592
63.9202
63.5638
63.0978
62.5295
61.8665
61.1172
60.2921
59.3898
58.362
57.6588
64.7535
65.4421
65.5569
65.534
65.4
65.1482
64.7841
64.3155
63.7501
63.0961
62.3621
61.5592
60.6923
59.7125
58.9093
66.0933
66.7027
66.7874
66.7395
66.5841
66.3156
65.9396
65.4642
64.8975
64.2478
63.5239
62.7378
61.8995
60.9599
60.061
67.3839
67.9115
67.9621
67.8859
67.7055
67.4169
67.0257
66.5401
65.9684
65.319
64.6012
63.8271
63.0118
62.1059
61.1162
68.6172
69.0612
69.0746
68.9668
68.7587
68.4473
68.0382
67.5396
66.9599
66.3079
65.5925
64.8267
64.0295
63.1515
62.0777
69.7852
70.1449
70.1183
69.9769
69.7389
69.4024
68.9733
68.4595
67.8695
67.2122
66.4966
65.7358
64.9527
64.098
62.9467
70.8812
71.1563
71.088
70.9109
70.6414
70.2785
69.8277
69.2971
68.695
68.0304
67.3124
66.554
65.7817
64.9461
63.725
71.8988
72.09
71.9785
71.7647
71.4627
71.0721
70.5987
70.0501
69.4347
68.7615
68.0391
67.2813
66.517
65.6971
64.4136
72.8327
72.9413
72.7858
72.5345
72.1995
71.7807
71.284
70.7167
70.0872
69.4043
68.6767
67.9178
67.1593
66.3524
65.0142
73.6784
73.7061
73.5063
73.2176
72.8492
72.4022
71.882
71.2958
70.6518
69.9587
69.2248
68.4639
67.7094
66.9132
65.528
74.432
74.381
74.1374
73.8112
73.41
72.935
72.3916
71.7866
71.1281
70.4244
69.6841
68.9203
68.1685
67.3812
65.9566
75.0905
74.9638
74.6767
74.314
73.8806
73.3782
72.8121
72.1888
71.5159
70.802
70.0548
69.288
68.5378
67.758
66.301
75.6517
75.4524
75.1232
74.7247
74.2602
73.7315
73.1435
72.5025
71.8159
71.0918
70.3383
69.5681
68.8189
68.0453
66.5629
76.114
75.8458
75.4757
75.0432
74.5487
73.9948
73.386
72.7282
72.0286
71.2952
70.5353
69.7621
69.0133
68.2452
66.7438
76.4765
76.1433
75.7343
75.269
74.7463
74.1687
73.5404
72.867
72.1553
71.4132
70.6478
69.8715
69.1231
68.3598
66.8458
76.7392
76.3451
75.8989
75.403
74.8539
74.2542
73.6078
72.92
72.1975
71.4474
70.677
69.8984
69.1502
68.3915
66.8705
76.9023
76.4515
75.9707
75.446
74.8725
74.2524
73.5896
72.8889
72.1564
71.3998
70.625
69.8447
69.0971
68.3428
66.8206
76.9668
76.4638
75.9506
75.3996
74.8034
74.1652
73.4875
72.7754
72.0347
71.272
70.4942
69.7128
68.9661
68.2164
66.6976
76.9342
76.3834
75.8404
75.265
74.6488
73.9938
73.3036
72.5818
71.8339
71.067
70.2869
69.5053
68.7598
68.0147
66.504
76.8062
76.2122
75.642
75.0448
74.4103
73.7414
73.0401
72.3102
71.5571
70.7867
70.0057
69.2246
68.481
67.7407
66.2422
76.5853
75.9525
75.3578
74.7411
74.0912
73.4098
72.6996
71.9635
71.2062
70.4342
69.653
68.8736
68.1323
67.3972
65.9146
76.2741
75.6069
74.9905
74.357
73.6934
73.0023
72.2847
71.5439
70.7845
70.0118
69.2319
68.4548
67.7166
66.987
65.5237
75.8754
75.1782
74.5429
73.8949
73.2205
72.521
71.7983
71.0547
70.2942
69.5225
68.7448
67.9712
67.2366
66.5131
65.072
75.3924
74.6694
74.018
73.3581
72.6746
71.9695
71.2433
70.4985
69.7385
68.9689
68.1946
67.4254
66.6953
65.9782
64.562
74.8287
74.084
73.4191
72.7495
72.0596
71.3502
70.6226
69.8779
69.1202
68.3538
67.5842
66.8204
66.0954
65.3854
63.9963
74.1877
73.4252
72.7493
72.0726
71.3779
70.6667
69.939
69.1965
68.4419
67.6804
66.9164
66.159
65.44
64.7375
63.3775
73.473
72.6964
72.0122
71.3302
70.6332
69.9216
69.1958
68.4567
67.7071
66.9514
66.1942
65.4441
64.7318
64.0374
62.7082
72.6884
71.9012
71.2109
70.5261
69.8282
69.1184
68.3961
67.6618
66.9183
66.1697
65.4204
64.6785
63.9738
63.288
61.991
71.8377
71.0431
70.3491
69.6631
68.9667
68.26
67.5426
66.8147
66.0786
65.3382
64.5978
63.8651
63.1686
62.492
61.2285
70.9245
70.1256
69.4301
68.745
68.0514
67.3495
66.6385
65.9181
65.1906
64.4596
63.7291
63.0065
62.3191
61.6522
60.4231
69.9527
69.1525
68.4574
67.7749
67.0858
66.39
65.6865
64.975
64.2573
63.5368
62.8172
62.1055
61.4278
60.7712
59.5774
68.9261
68.1271
67.4343
66.7561
66.073
65.3846
64.69
63.9885
63.2817
62.5726
61.8647
61.1647
60.4974
59.8517
58.6936
67.8481
67.0529
66.3643
65.6919
65.0161
64.3365
63.6519
62.9615
62.2665
61.5697
60.8743
60.1867
59.5304
58.8961
57.7743
66.7226
65.9335
65.2507
64.5855
63.9183
63.2487
62.5752
61.8968
61.2145
60.5307
59.8486
59.174
58.5294
57.9069
56.8216
65.553
64.772
64.0965
63.4399
62.7826
62.124
61.4625
60.797
60.1281
59.4581
58.7899
58.1289
57.4966
56.8863
55.8377
64.3428
63.5718
62.9051
62.2582
61.6118
60.9652
60.3166
59.6647
59.01
58.3544
57.7007
57.0539
56.4343
55.8367
54.8247
63.0953
62.336
61.6793
61.0433
60.4088
59.775
59.14
58.5024
57.8625
57.222
56.5832
55.9511
55.3447
54.7602
53.7847
61.8137
61.0676
60.4222
59.798
59.1762
58.5559
57.9352
57.3126
56.688
56.0629
55.4396
54.8226
54.23
53.6588
52.7196
60.5011
59.7696
59.1364
58.5249
57.9166
57.3105
56.7047
56.0975
55.4887
54.8796
54.2721
53.6706
53.092
52.5345
51.6312
59.1603
58.4447
57.8247
57.2266
56.6325
56.0412
55.4507
54.8593
54.2667
53.6739
53.0827
52.497
51.9327
51.3892
50.5214
57.7943
57.0956
56.4896
55.9057
55.3262
54.7502
54.1755
53.6003
53.0242
52.448
51.8733
51.3036
50.754
50.2246
49.3918
56.4057
55.7248
55.1335
54.5643
54.0001
53.4397
52.8811
52.3225
51.7631
51.2037
50.6457
50.0923
49.5575
49.0425
48.2441
54.997
54.3347
53.7588
53.2048
52.6562
52.1118
51.5696
51.0277
50.4853
49.9429
49.4017
48.8647
48.345
47.8445
47.0798
53.5706
52.9275
52.3675
51.8292
51.2965
50.7684
50.2428
49.7178
49.1925
48.6672
48.143
47.6226
47.1181
46.6321
45.9005
52.1287
51.5054
50.9618
50.4395
49.923
49.4113
48.9025
48.3945
47.8864
47.3784
46.8712
46.3674
45.8782
45.4069
44.7077
50.6734
50.0704
49.5435
49.0375
48.5375
48.0424
47.5504
47.0595
46.5686
46.0778
45.5878
45.1006
44.6269
44.1702
43.5026
49.2067
48.6242
48.1144
47.625
47.1416
46.6632
46.1881
45.7143
45.2407
44.7671
44.2941
43.8236
43.3653
42.9233
42.2866
47.7304
47.1688
46.6762
46.2035
45.7368
45.2752
44.817
44.3603
43.9038
43.4475
42.9915
42.5377
42.0948
41.6675
41.0608
46.2463
45.7056
45.2305
44.7746
44.3247
43.8799
43.4385
42.9988
42.5595
42.1202
41.6812
41.244
40.8166
40.4039
39.8264
44.7558
44.2362
43.7787
43.3397
42.9065
42.4785
42.054
41.6312
41.2089
40.7866
40.3644
39.9436
39.5317
39.1336
38.5845
43.2605
42.762
42.3221
41.9
41.4836
41.0723
40.6645
40.2585
39.853
39.4476
39.0421
38.6377
38.2411
37.8575
37.336
41.7616
41.2842
40.862
40.4568
40.0571
39.6624
39.2712
38.8818
38.493
38.1043
37.7154
37.3272
36.9457
36.5766
36.0818
40.2604
39.804
39.3995
39.0111
38.628
38.2498
37.875
37.5021
37.1299
36.7576
36.385
36.0129
35.6466
35.2918
34.8229
38.7581
38.3224
37.9355
37.5639
37.1974
36.8354
36.4769
36.1203
35.7644
35.4084
35.052
34.6957
34.3444
34.0038
33.5599
37.2554
36.8405
36.471
36.1161
35.7659
35.4202
35.0778
34.7373
34.3974
34.0575
33.717
33.3764
33.0399
32.7134
32.2938
35.7535
35.359
35.0069
34.6685
34.3345
34.0048
33.6784
33.3537
33.0297
32.7056
32.3808
32.0557
31.7339
31.4213
31.0251
34.253
33.8787
33.5438
33.2218
32.9039
32.5901
32.2793
31.9703
31.6619
31.3534
31.0441
30.7342
30.427
30.1281
29.7546
32.7547
32.4002
32.0824
31.7766
31.4747
31.1764
30.8812
30.5876
30.2946
30.0014
29.7075
29.4126
29.1197
28.8344
28.4828
31.2591
30.9243
30.6234
30.3335
30.0473
29.7646
29.4846
29.2062
28.9284
28.6503
28.3714
28.0913
27.8126
27.5408
27.2104
29.7668
29.4513
29.167
28.893
28.6223
28.3549
28.09
27.8266
27.5637
27.3005
27.0364
26.7709
26.5063
26.2477
25.9377
28.2782
27.9816
27.7138
27.4555
27.2002
26.9478
26.6977
26.4491
26.201
25.9524
25.7028
25.4518
25.201
24.9556
24.6653
26.7936
26.5157
26.2641
26.0213
25.7811
25.5436
25.3083
25.0742
24.8406
24.6065
24.3712
24.1343
23.8972
23.6649
23.3937
25.3132
25.0537
24.8182
24.5906
24.3654
24.1426
23.9218
23.7021
23.4828
23.2629
23.0418
22.8189
22.5954
22.3759
22.1231
23.8374
23.5959
23.3762
23.1637
22.9533
22.745
22.5385
22.3331
22.1279
21.922
21.7149
21.5059
21.2957
21.089
20.8539
22.3661
22.1423
21.9382
21.7406
21.5448
21.351
21.1587
20.9673
20.7761
20.5841
20.3908
20.1954
19.9986
19.8045
19.5866
20.8995
20.6931
20.5044
20.3215
20.1402
19.9606
19.7824
19.6049
19.4275
19.2493
19.0697
18.8878
18.7042
18.5227
18.3215
19.4374
19.2481
19.0746
18.9063
18.7394
18.5739
18.4096
18.246
18.0823
17.9178
17.7517
17.5833
17.4128
17.2438
17.0587
17.9799
17.8073
17.6488
17.495
17.3423
17.1909
17.0405
16.8906
16.7405
16.5895
16.437
16.282
16.1245
15.9681
15.7987
16.5266
16.3705
16.2269
16.0874
15.9488
15.8114
15.6748
15.5386
15.4021
15.2647
15.1256
14.984
14.8397
14.6957
14.5417
15.0775
14.9375
14.8086
14.6833
14.5589
14.4353
14.3125
14.19
14.0671
13.9432
13.8176
13.6894
13.5583
13.427
13.2879
13.6321
13.5081
13.3937
13.2826
13.1721
13.0624
12.9534
12.8445
12.7353
12.625
12.513
12.3983
12.2804
12.1619
12.0375
12.1901
12.0818
11.9819
11.8848
11.7883
11.6925
11.5972
11.5021
11.4066
11.31
11.2116
11.1106
11.0062
10.9006
10.7908
10.7512
10.6583
10.5727
10.4896
10.407
10.3251
10.2438
10.1625
10.0808
9.99793
9.9134
9.82626
9.73553
9.6432
9.54775
9.31487
9.2372
9.16586
9.09667
9.02806
8.9601
8.89263
8.82527
8.75746
8.68846
8.6181
8.54532
8.46847
8.38966
8.30858
7.88081
7.81815
7.76091
7.70562
7.65096
7.59698
7.54353
7.49022
7.43647
7.38153
7.32558
7.26733
7.20484
7.13993
7.07331
6.44856
6.4007
6.35748
6.31604
6.27535
6.23542
6.19607
6.15694
6.11747
6.07691
6.03541
5.99165
5.94418
5.89369
5.8417
5.0175
4.98415
4.95475
4.92707
4.90031
4.87445
4.84929
4.82444
4.7994
4.77347
4.74647
4.71734
4.6851
4.64952
4.61236
3.58648
3.56726
3.55157
3.53784
3.52552
3.51442
3.50423
3.49448
3.48464
3.47402
3.46212
3.44816
3.43128
3.41109
3.38915
2.15634
2.15508
2.1561
2.1589
2.16346
2.16954
2.17672
2.18453
2.19243
2.19977
2.2058
2.20987
2.21117
2.20937
2.20559
0.753019
0.783169
0.805998
0.820921
0.830645
0.837372
0.842964
0.849
0.856703
0.866871
0.879814
0.8955
0.913381
0.932728
0.950612
-10.0659
-3.94481
-1.49377
0.417557
2.77592
5.57773
8.80466
12.442
16.4461
20.7562
25.3048
30.0187
34.8205
39.625
44.3375
48.854
53.068
56.8827
60.2244
63.0515
65.3553
67.1541
68.4843
69.3908
69.9207
70.1188
70.0244
69.6712
69.0889
68.3026
67.3344
66.2033
64.9257
63.5144
61.9785
60.3241
58.5569
56.6651
54.5023
52.315
-10.3173
-5.01591
-4.43617
-3.7846
-2.35839
-0.307683
2.33626
5.56725
9.3488
13.621
18.3068
23.3147
28.5411
33.8714
39.1825
44.3457
49.2344
53.735
57.758
61.2458
64.1736
66.5447
68.3835
69.7263
70.6153
71.0927
71.1981
70.9674
70.4334
69.6257
68.5714
67.2953
65.8197
64.1643
62.3455
60.377
58.2731
56.0325
53.5391
51.1344
-5.74915
0.0445951
0.604655
1.27741
2.64377
4.54514
6.96132
9.89201
13.3097
17.1682
21.4064
25.9498
30.7109
35.59
40.4751
45.2462
49.7811
53.9671
57.7125
60.9556
63.666
65.8421
67.5032
68.6823
69.419
69.7547
69.7295
69.3808
68.7429
67.8474
66.7229
65.3954
63.8881
62.2211
60.4113
58.4727
56.4203
54.2554
51.8703
49.575
0.00131903
5.62966
6.23996
7.00653
8.39698
10.2597
12.5735
15.3324
18.5072
22.0535
25.915
30.0237
34.3009
38.6569
42.9918
47.1991
51.1719
54.8129
58.0443
60.8149
63.1014
64.905
66.2448
67.1521
67.6634
67.8172
67.6504
67.1977
66.4908
65.5585
64.4268
63.1193
61.6564
60.0561
58.3329
56.4989
54.5674
52.5382
50.3064
48.1809
5.56283
10.6996
11.2789
12.0505
13.392
15.1614
17.3352
19.9033
22.8357
26.0893
29.6109
33.3369
37.1942
41.0999
44.9632
48.6887
52.1822
55.36
58.1567
60.5305
62.4637
63.9595
65.0366
65.7239
66.0552
66.0655
65.7889
65.2572
64.4996
63.5424
62.4096
61.1224
59.6995
58.1568
56.5074
54.762
52.9324
51.0173
48.9166
46.9415
10.8126
15.451
15.991
16.7365
18.0042
19.6611
21.6812
24.0512
26.7406
29.7081
32.9033
36.2668
39.7307
43.219
46.6493
49.9362
52.9973
55.7604
58.1703
60.1928
61.8143
63.0393
63.8858
64.3805
64.5542
64.4392
64.067
63.467
62.6662
61.6889
60.5573
59.2907
57.9063
56.4184
54.8387
53.1767
51.4432
49.6357
47.6595
45.8261
15.7223
19.9318
20.4367
21.1465
22.3352
23.8773
25.7445
27.9209
30.3758
33.069
35.9528
38.9716
42.0624
45.1557
48.1773
51.0516
53.7069
56.0819
58.1307
59.8256
61.157
62.1305
62.7633
63.0802
63.1096
62.8812
62.4238
61.7646
60.9285
59.9379
58.813
57.5716
56.2292
54.7985
53.29
51.712
50.074
48.3727
46.5185
44.8215
20.2722
24.1196
24.5921
25.2618
26.3696
27.7965
29.5128
31.5007
33.7294
36.1602
38.7476
41.4396
44.178
46.8997
49.538
52.0267
54.3042
56.3188
58.0329
59.4249
60.4885
61.2305
61.6674
61.8222
61.7212
61.3915
60.8596
60.1504
59.2868
58.2893
57.1764
55.9641
54.6663
53.2944
51.8576
50.3629
48.8188
47.2211
45.4849
43.9185
24.4737
28.0088
28.4526
29.0815
30.1085
31.4211
32.9892
34.7937
36.8042
38.9835
41.2885
43.6709
46.0771
48.45
50.7305
52.8608
54.7887
56.4711
57.8777
58.992
59.8106
60.3414
60.6004
60.6088
60.391
59.9718
59.3754
58.6248
57.7406
56.7418
55.645
54.4647
53.2133
51.9008
50.5351
49.1223
47.6697
46.1721
44.5496
43.1072
28.3519
31.6086
32.0269
32.6159
33.5634
34.7637
36.1869
37.8135
39.6138
41.5523
43.5886
45.6778
47.7712
49.8174
51.7645
53.5628
55.168
56.5451
57.6699
58.5305
59.126
59.465
59.5629
59.4398
59.1179
58.62
57.9684
57.1839
56.2854
55.2901
54.2129
53.067
51.8631
50.6101
49.3147
47.9819
46.6181
45.2172
43.7036
42.3791
31.9359
34.9338
35.3288
35.8785
36.7477
37.8377
39.1196
40.5739
42.172
43.8802
45.661
47.4731
49.2724
51.0133
52.6506
54.1418
55.4502
56.5474
57.4148
58.0442
58.437
58.6023
58.5551
58.3142
57.9
57.3336
56.6351
55.8236
54.9164
53.9287
52.8742
51.7644
50.6088
49.415
48.1887
46.9339
45.6559
44.3479
42.9388
41.7256
35.253
38.0025
38.3743
38.8843
39.6757
40.6572
41.8013
43.0888
44.4924
45.9806
47.5188
49.0693
50.5928
52.0489
53.3989
54.6069
55.6429
56.4842
57.117
57.5365
57.7458
57.7544
57.5771
57.2311
56.7357
56.11
55.3724
54.5402
53.629
52.6527
51.6232
50.5509
49.444
48.3088
47.1501
45.971
44.7756
43.5569
42.2473
41.1397
38.3283
40.8334
41.1807
41.6493
42.3627
43.237
44.2464
45.3722
46.5888
47.8671
49.1752
50.4794
51.7445
52.9357
54.0199
54.9674
55.7537
56.3617
56.7814
57.0108
57.0544
56.9223
56.6286
56.1897
55.6232
54.9466
54.1769
53.3296
52.4188
51.457
50.4546
49.4207
48.3624
47.285
46.1921
45.0862
43.9703
42.8368
41.6223
40.6141
41.1833
43.4455
43.765
44.1895
44.8238
45.5918
46.4692
47.4383
48.4753
49.5533
50.6436
51.716
52.7397
53.685
54.5238
55.232
55.7903
56.1859
56.4125
56.4702
56.3648
56.1067
55.7095
55.1887
54.5604
53.8409
53.0454
52.1881
51.2815
50.3367
49.363
48.3682
47.3582
46.3374
45.3084
44.2729
43.2333
42.1812
41.0569
40.1426
43.8369
45.8559
46.1435
46.5202
47.0738
47.7359
48.4838
49.301
50.1654
51.0527
51.937
52.7917
53.5903
54.3076
54.9204
55.4093
55.7598
55.9626
56.0146
55.9176
55.6787
55.3083
54.8195
54.2269
53.5455
52.7901
51.9746
51.1117
50.2125
49.287