/*--------------------------------*- C++ -*----------------------------------*\
| =========                 |                                                 |
| \\      /  F ield         | OpenFOAM: The Open Source CFD Toolbox           |
|  \\    /   O peration     | Version:  2206                                  |
|   \\  /    A nd           | Website:  www.openfoam.com                      |
|    \\/     M anipulation  |                                                 |
\*---------------------------------------------------------------------------*/
FoamFile
{
    version     2.0;
    format      ascii;
    arch        "LSB;label=32;scalar=64";
    class       surfaceScalarField;
    location    "400";
    object      phi;
}
// * * * * * * * * * * * * * * * * * * * * * * * * * * * * * * * * * * * * * //

dimensions      [0 3 -1 0 0 0 0];

oriented        oriented;

internalField   nonuniform List<scalar> 
25506
(
0.000200087
0.0372999
0.000442999
0.0372571
0.000742003
0.037201
0.000810772
0.0374312
0.000827637
0.0374831
0.000826568
0.0375011
0.000815358
0.0375112
0.0375163
0.000799076
0.001727
0.035573
0.0019359
0.0370482
0.00193196
0.037205
0.00190149
0.0374617
0.00186492
0.0375197
0.00182334
0.0375427
0.00177998
0.0375546
0.0375588
0.00173744
0.00261187
0.0329611
0.00316216
0.0364979
0.0031341
0.0372331
0.00304016
0.0375557
0.00293929
0.0376206
0.00284258
0.0376394
0.00275565
0.0376415
0.0376352
0.00267927
0.00351313
0.029448
0.00433219
0.0356789
0.00431385
0.0372514
0.00416935
0.0377002
0.00400581
0.0377842
0.00385384
0.0377914
0.00372189
0.0377735
0.0377472
0.00360997
0.00416589
0.0252821
0.00538839
0.0344564
0.00544967
0.0371901
0.00525973
0.0378902
0.00503288
0.038011
0.00482893
0.0379953
0.00465654
0.0379459
0.0378905
0.00451318
0.0044062
0.0208759
0.0061217
0.032741
0.00640508
0.0369068
0.00623858
0.0380567
0.00597756
0.0382721
0.00573678
0.0382361
0.00553609
0.0381466
0.038055
0.00537163
0.00417876
0.0166972
0.00639332
0.0305264
0.0070443
0.0362558
0.00701788
0.0380831
0.0067899
0.0385001
0.00654749
0.0384786
0.00634003
0.0383541
0.0382245
0.0061706
0.00358425
0.013113
0.00620648
0.0279042
0.00731728
0.035145
0.00754888
0.0378516
0.00743757
0.0386114
0.0072431
0.038673
0.00705779
0.0385394
0.0383794
0.00690285
0.00283182
0.0102812
0.00568935
0.0250467
0.00727005
0.0335644
0.00784129
0.0372803
0.00792054
0.0385322
0.00782403
0.0387696
0.0076915
0.038672
0.0385002
0.00757068
0.0021164
0.00816479
0.00500744
0.0221557
0.00699603
0.0315758
0.00794167
0.0363347
0.00826292
0.038211
0.00830542
0.0387271
0.00825293
0.0387245
0.0385695
0.00818362
0.00154366
0.00662115
0.00429264
0.0194067
0.00658257
0.0292859
0.00789945
0.0350179
0.00849372
0.0376167
0.00870658
0.0385143
0.00875693
0.0386742
0.0385726
0.00875392
0.00113375
0.00548741
0.00362595
0.0169145
0.00609066
0.0268212
0.00774828
0.0333602
0.00863299
0.036732
0.00904176
0.0381055
0.00921541
0.0385005
0.0384958
0.00929218
0.000859121
0.00462831
0.00304787
0.0147258
0.0055611
0.024308
0.00750645
0.0314149
0.00868848
0.03555
0.00931631
0.0374777
0.00963405
0.0381828
0.038325
0.0098049
0.000678612
0.00394971
0.00257052
0.0128339
0.00502515
0.0218534
0.0071856
0.0292545
0.00865913
0.0340765
0.00952706
0.0366098
0.0100117
0.0376982
0.0380433
0.0102933
0.000556702
0.00339302
0.0021872
0.0112034
0.00450843
0.0195321
0.00679862
0.0269643
0.00854042
0.0323347
0.00966457
0.0354857
0.0103406
0.0370222
0.0376304
0.0107535
0.000469205
0.00292383
0.00188127
0.00979139
0.00402894
0.0173845
0.00636277
0.0246305
0.00832969
0.0303678
0.00971607
0.0340993
0.0106078
0.0361305
0.0370624
0.0111758
0.000401344
0.0025225
0.00163306
0.00855969
0.00359447
0.0154231
0.00589791
0.0223271
0.00802968
0.0282361
0.00966885
0.0324602
0.0107965
0.0350029
0.0363128
0.0115461
0.000343845
0.00217866
0.00142358
0.00747997
0.00320245
0.0136442
0.00542154
0.020108
0.00764963
0.026008
0.00951365
0.0305962
0.0108884
0.0336281
0.0353554
0.0118458
0.00029027
0.00188841
0.00123567
0.00653458
0.00284209
0.0120378
0.00494377
0.0180063
0.00720274
0.023749
0.00924714
0.0285518
0.0108662
0.0320091
0.0341679
0.0120537
0.000236264
0.00165215
0.00105467
0.00571619
0.00249744
0.0105951
0.00446464
0.0160392
0.00670121
0.0215125
0.00887218
0.0263809
0.0107166
0.0301647
0.0327366
0.0121479
0.000180671
0.00147149
0.000870956
0.00502592
0.00215183
0.0093142
0.00397504
0.014216
0.00615096
0.0193366
0.00839494
0.0241369
0.010432
0.0281277
0.0310602
0.0121084
0.000127181
0.00134431
0.00068518
0.00446794
0.00179564
0.00820375
0.00346217
0.0125495
0.00554925
0.0172495
0.0078198
0.0218664
0.0100089
0.0259387
0.0291508
0.0119183
8.35041e-05
0.00126081
0.000512268
0.00403918
0.00143822
0.0072778
0.00292284
0.0110649
0.00488968
0.0152827
0.00714552
0.0196106
0.00944418
0.02364
0.0270318
0.0115632
5.63322e-05
0.00120448
0.000376172
0.00371935
0.00111539
0.0065386
0.00238488
0.00979539
0.00418233
0.0134853
0.00637201
0.0174209
0.00873241
0.0212796
0.0247354
0.0110288
4.6801e-05
0.00115769
0.000295012
0.00347114
0.000876221
0.00595739
0.00191864
0.00875298
0.00348845
0.0119155
0.00553288
0.0153765
0.00788124
0.0189313
0.0223125
0.0103041
5.12815e-05
0.0011064
0.000270518
0.00325191
0.000751472
0.00547644
0.00160491
0.00789954
0.00292634
0.0105941
0.00474123
0.0135616
0.00696443
0.0167081
0.01986
0.00941698
6.47577e-05
0.00104165
0.000290398
0.00302627
0.000734514
0.00503233
0.00147541
0.00715865
0.00259793
0.00947153
0.00416193
0.0119976
0.00616092
0.0147091
0.0175151
0.00850586
8.25792e-05
0.000959067
0.000336662
0.00277219
0.000791541
0.00457745
0.00149524
0.00645496
0.00250715
0.00845963
0.00388326
0.0106215
0.00565269
0.0129397
0.0153699
0.00779781
0.00010088
0.000858186
0.000391926
0.00248114
0.000882154
0.00408722
0.0015972
0.00573991
0.0025737
0.00748312
0.00385173
0.00934348
0.00546341
0.011328
0.0134145
0.00741884
0.000116526
0.000741658
0.000441921
0.00215575
0.000971446
0.0035577
0.00171594
0.00499542
0.00269643
0.00650262
0.00393893
0.00810098
0.00546764
0.0097993
0.0115868
0.00729527
0.000126929
0.000614727
0.000475471
0.0018072
0.00103255
0.00300062
0.00180034
0.00422763
0.00279073
0.00551223
0.00402054
0.00687118
0.00550606
0.00831377
0.00983673
0.00725619
0.000129931
0.000484795
0.000483978
0.00145315
0.00104566
0.00243894
0.00181366
0.00345962
0.00279601
0.00452988
0.00400521
0.00566199
0.00545314
0.00686585
0.00814415
0.00714571
0.000123858
0.000360935
0.00046124
0.00111577
0.000997051
0.00190312
0.00173105
0.00272562
0.00267189
0.00358904
0.00383228
0.00450159
0.00522399
0.00547415
0.00651511
0.00685303
0.000107721
0.000253213
0.00040386
0.000819629
0.000879238
0.00142774
0.00153845
0.00206641
0.00239442
0.00273307
0.00346394
0.00343207
0.00476303
0.00417507
0.00497636
0.00630177
8.16502e-05
0.000171561
0.000312514
0.000588764
0.000693032
0.00104722
0.00123502
0.00152442
0.00195771
0.00201038
0.00288462
0.00250516
0.00403978
0.00301991
0.00357398
0.00544217
4.75974e-05
0.000123963
0.000194107
0.000442254
0.000451581
0.000789744
0.000839222
0.00113678
0.00138216
0.00146745
0.0021107
0.00177662
0.00305884
0.00207177
0.00237358
0.00425923
1.00705e-05
0.000113892
6.40098e-05
0.000388314
0.000184873
0.000668878
0.000396748
0.000924905
0.000727117
0.00113708
0.00120933
0.00129441
0.00188499
0.00139611
0.00145619
0.00280239
-2.3722e-05
0.000137613
-5.36115e-05
0.000418203
-5.91036e-05
0.000674369
-1.55948e-05
0.000881397
0.000101139
0.00102034
0.000320085
0.00107547
0.000681942
0.00103426
0.000892256
0.00124587
-4.52662e-05
0.00018288
-0.000130605
0.000503543
-0.000223084
0.000766847
-0.000301011
0.000959326
-0.000347124
0.00106646
-0.000342926
0.00107127
-0.000259904
0.000951243
0.000669654
-3.73046e-05
-4.89525e-05
0.000231832
-0.000148071
0.000602663
-0.000266608
0.000885384
-0.000384853
0.00107757
-0.000488632
0.00117024
-0.000564682
0.00114733
-0.000593429
0.000979989
0.000607719
-0.000531498
-2.83842e-05
0.000260218
-8.76524e-05
0.000661932
-0.000157099
0.000954831
-0.000219545
0.00114002
-0.000258319
0.00120901
-0.000254202
0.00114321
-0.000181039
0.000906827
0.00042668
-1.93511e-05
0.00027957
-6.04533e-05
0.000703036
-0.000107157
0.00100154
-0.000144344
0.00117721
-0.000157529
0.0012222
-0.000133729
0.00111941
-6.85954e-05
0.000841693
0.000358085
-1.14103e-05
0.000290982
-3.61558e-05
0.000727783
-6.36462e-05
0.00102903
-8.33737e-05
0.00119694
-8.61611e-05
0.00122498
-6.66529e-05
0.0010999
-2.96729e-05
0.000804714
0.000328412
-5.19006e-06
0.000296173
-1.69501e-05
0.000739545
-2.99647e-05
0.00104204
-3.86239e-05
0.0012056
-3.84519e-05
0.00122481
-2.79606e-05
0.00108941
-1.13862e-05
0.000788141
0.000317026
-3.85936e-07
0.000296561
-2.02837e-06
0.000741189
-4.14644e-06
0.00104416
-5.43851e-06
0.00120689
-4.98839e-06
0.00122436
-2.93486e-06
0.00108736
-7.22431e-07
0.00078593
0.000316304
3.62982e-06
0.000292933
1.03972e-05
0.000734424
1.72512e-05
0.00103731
2.18952e-05
0.00120225
2.23768e-05
0.00122389
1.73913e-05
0.00109235
7.88928e-06
0.000795433
0.000324194
7.34928e-06
0.000285585
2.17095e-05
0.000720065
3.68334e-05
0.00102219
4.75742e-05
0.00119151
4.94265e-05
0.00122204
3.92115e-05
0.00110257
1.83509e-05
0.000816296
0.000342546
1.07926e-05
0.000274793
3.18924e-05
0.000698968
5.4709e-05
0.000999376
7.23533e-05
0.00117387
7.83497e-05
0.00121604
6.65259e-05
0.00111439
3.46085e-05
0.000848214
0.000377155
1.32741e-05
0.000261521
3.87674e-05
0.000673476
6.69468e-05
0.000971198
9.10007e-05
0.00114982
0.000104348
0.00120269
9.85821e-05
0.00112016
6.22433e-05
0.000884554
0.000439399
1.33179e-05
0.000248204
3.77109e-05
0.000649084
6.4353e-05
0.000944559
8.83566e-05
0.00112581
0.000105748
0.00118531
0.000110975
0.00111493
9.29962e-05
0.000902536
0.000532396
1.10096e-05
0.000237196
2.68509e-05
0.000633245
3.83421e-05
0.000933069
4.03155e-05
0.00112384
2.633e-05
0.00119929
-1.81124e-05
0.00115938
-0.000128865
0.00101329
0.000789378
-0.000385846
-3.03939e-06
0.000240236
-2.00013e-05
0.000650209
-5.4994e-05
0.000968065
-0.00011092
0.00117977
-0.000193272
0.00128165
-0.000313988
0.0012801
-0.000495275
0.00119458
0.00106581
-0.00077171
-1.98316e-05
0.00026007
-7.5465e-05
0.000705844
-0.000162699
0.0010553
-0.000277971
0.00129505
-0.000419777
0.00142346
-0.000589485
0.00144981
-0.000789989
0.00139508
0.00129332
-0.00101749
-3.63107e-05
0.000296381
-0.000129529
0.000799064
-0.000265651
0.00119142
-0.000432349
0.00146175
-0.000618864
0.00160997
-0.000815526
0.00164647
-0.00101207
0.00159163
0.00147488
-0.00119363
-5.11424e-05
0.000347526
-0.000177811
0.000925735
-0.000356245
0.00136986
-0.000565125
0.00167063
-0.000784658
0.00182951
-0.000995829
0.00185764
-0.00117974
0.00177554
0.00161249
-0.00131735
-6.38462e-05
0.000411372
-0.00021856
0.00108045
-0.000431668
0.00158297
-0.000673934
0.0019129
-0.000917662
0.00207324
-0.0011357
0.00207569
-0.0013016
0.00194144
0.00170268
-0.00139179
-7.37635e-05
0.00048514
-0.000249525
0.00125621
-0.000488039
0.00182148
-0.000754197
0.00217906
-0.00101407
0.00233312
-0.00123308
0.0022947
-0.00137605
0.00208442
0.0017378
-0.00141116
-7.93588e-05
0.000564499
-0.000265831
0.00144269
-0.000516512
0.00207217
-0.00079352
0.00245607
-0.00105925
0.00259884
-0.00127275
0.00250821
-0.00138786
0.00219954
0.00170664
-0.00135671
-7.80727e-05
0.000642576
-0.000259648
0.00162427
-0.000502499
0.00231502
-0.000769908
0.00272348
-0.00102444
0.00285337
-0.00122181
0.00270558
-0.00130394
0.00228165
0.00159154
-0.00118885
-6.74249e-05
0.000710002
-0.000223195
0.00178004
-0.000430264
0.00252209
-0.000656011
0.00294922
-0.000866712
0.00306408
-0.00102021
0.00285908
-0.00105026
0.0023117
0.00137089
-0.000829614
-4.61021e-05
0.00075611
-0.000153716
0.00188765
-0.000291911
0.00266029
-0.000428277
0.00308559
-0.000526016
0.00316182
-0.000539279
0.00287234
-0.0004024
0.00217483
0.000968493
-2.58081e-05
0.000781918
-8.7655e-05
0.0019495
-0.000164032
0.00273667
-0.000229692
0.00315125
-0.000257776
0.00318991
-0.000223453
0.00283803
-0.000117215
0.0020686
0.00085128
-1.20986e-05
0.000794021
-4.27648e-05
0.00198017
-7.99699e-05
0.00277388
-0.000108475
0.00317976
-0.000113989
0.00319543
-8.85198e-05
0.00281256
-3.96863e-05
0.00201977
0.000811595
-4.47011e-06
0.000798491
-1.73552e-05
0.00199306
-3.32343e-05
0.00278976
-4.44298e-05
0.00319096
-4.45221e-05
0.00319552
-3.18573e-05
0.0027999
-1.26812e-05
0.0020006
0.000798915
-9.603e-07
0.000799455
-5.16352e-06
0.00199727
-1.08276e-05
0.00279543
-1.468e-05
0.00319482
-1.41768e-05
0.00319503
-9.26612e-06
0.002795
-3.0896e-06
0.00199443
0.000795827
3.0512e-07
0.000799149
-3.16702e-07
0.00199789
-1.68531e-06
0.0027968
-2.70773e-06
0.00319584
-2.51805e-06
0.00319484
-1.26476e-06
0.00279375
-1.29121e-07
0.00199329
0.000795698
5.65182e-07
0.000798588
1.07967e-06
0.00199738
1.2067e-06
0.00279667
1.14054e-06
0.00319591
1.09011e-06
0.00319489
9.77088e-07
0.00279386
5.45226e-07
0.00199373
0.000796244
4.66259e-07
0.000798121
1.12623e-06
0.00199672
1.59861e-06
0.00279621
1.77446e-06
0.00319574
1.64735e-06
0.00319502
1.20943e-06
0.0027943
5.25974e-07
0.00199441
0.000796771
3.01913e-07
0.000797823
8.02228e-07
0.00199622
1.21834e-06
0.00279579
1.4017e-06
0.00319556
1.29092e-06
0.00319513
8.98849e-07
0.00279469
3.598e-07
0.00199495
0.000797131
1.64628e-07
0.000797657
4.71884e-07
0.00199591
7.53423e-07
0.00279551
8.85874e-07
0.00319543
8.13644e-07
0.00319521
5.53833e-07
0.00279496
2.11932e-07
0.0019953
0.000797343
7.88289e-08
0.000797582
2.42123e-07
0.00199575
4.02263e-07
0.00279535
4.86916e-07
0.00319534
4.52374e-07
0.00319525
3.04413e-07
0.00279511
1.13711e-07
0.00199549
0.000797457
2.86436e-08
0.000797551
1.03303e-07
0.00199568
1.88536e-07
0.00279527
2.38298e-07
0.0031953
2.25934e-07
0.00319526
1.54126e-07
0.00279518
5.7271e-08
0.00199559
0.000797515
6.82154e-09
0.000797548
3.44035e-08
0.00199565
7.17543e-08
0.00279523
1.01549e-07
0.00319527
1.03734e-07
0.00319526
7.261e-08
0.00279521
2.7664e-08
0.00199564
0.000797543
-4.29742e-09
0.00079755
9.51359e-10
0.00199565
1.86506e-08
0.00279522
3.57072e-08
0.00319525
4.161e-08
0.00319525
3.27916e-08
0.00279522
1.33061e-08
0.00199566
0.000797557
-5.04435e-09
0.000797559
-8.14224e-09
0.00199565
-4.29413e-09
0.00279521
6.86396e-09
0.00319524
1.55825e-08
0.00319525
1.40904e-08
0.00279522
6.4709e-09
0.00199566
0.000797563
-6.07424e-09
0.000797563
-1.14446e-08
0.00199566
-8.74132e-09
0.00279521
-2.4958e-09
0.00319524
3.462e-09
0.00319524
6.21833e-09
0.00279522
3.2148e-09
0.00199567
0.000797567
-2.54831e-09
0.000797568
-7.01909e-09
0.00199566
-9.2597e-09
0.00279521
-4.95837e-09
0.00319523
7.10735e-10
0.00319524
2.06512e-09
0.00279522
1.21594e-09
0.00199567
0.000797568
-2.10778e-09
0.000797568
-5.16118e-09
0.00199567
-4.68973e-09
0.00279522
-3.54719e-09
0.00319523
-1.98341e-09
0.00319523
-8.45128e-11
0.00279522
-2.75958e-10
0.00199567
0.000797568
1.81276e-09
0.000797569
8.50192e-10
0.00199567
-2.30187e-09
0.00279522
-2.47948e-09
0.00319523
-1.70317e-09
0.00319524
-2.56999e-09
0.00279522
-1.8797e-09
0.00199567
0.000797566
2.30056e-09
0.000797563
3.00926e-09
0.00199567
2.90149e-09
0.00279522
-3.57888e-10
0.00319524
-3.93231e-09
0.00319524
-4.63096e-09
0.00279522
-3.48298e-09
0.00199567
0.000797562
6.34302e-09
0.00079756
9.21603e-09
0.00199567
5.41667e-09
0.00279522
7.04273e-10
0.00319524
-3.86052e-09
0.00319524
-7.46154e-09
0.00279522
-5.33126e-09
0.00199567
0.000797557
7.10478e-09
0.000797549
1.1837e-08
0.00199566
1.10386e-08
0.00279522
2.95909e-09
0.00319525
-6.30363e-09
0.00319525
-9.90552e-09
0.00279523
-7.21492e-09
0.00199566
0.000797549
1.16523e-08
0.00079754
1.88948e-08
0.00199565
1.4286e-08
0.00279523
4.3239e-09
0.00319526
-6.39179e-09
0.00319526
-1.3171e-08
0.00279523
-9.39034e-09
0.00199566
0.00079754
1.29928e-08
0.000797523
2.23753e-08
0.00199564
2.04689e-08
0.00279523
6.48256e-09
0.00319527
-9.48042e-09
0.00319527
-1.63828e-08
0.00279524
-1.17233e-08
0.00199565
0.000797528
1.79799e-08
0.000797507
2.95266e-08
0.00199563
2.26946e-08
0.00279523
5.76305e-09
0.00319529
-1.2041e-08
0.00319529
-2.16051e-08
0.00279525
-1.47573e-08
0.00199564
0.000797513
1.89131e-08
0.000797484
3.03545e-08
0.00199561
2.32727e-08
0.00279524
3.28016e-10
0.00319531
-2.25895e-08
0.00319531
-2.99868e-08
0.00279526
-1.90869e-08
0.00199563
0.000797493
2.13163e-08
0.000797464
2.82943e-08
0.00199561
9.23527e-09
0.00279526
-2.04257e-08
0.00319534
-4.37192e-08
0.00319534
-4.76226e-08
0.00279526
-2.67208e-08
0.00199561
0.000797466
1.48182e-08
0.000797445
6.33355e-09
0.00199561
-2.75678e-08
0.00279529
-7.01454e-08
0.00319538
-9.45595e-08
0.00319536
-8.27553e-08
0.00279524
-4.09508e-08
0.00199557
0.000797424
6.4787e-10
0.000797446
-4.27735e-08
0.00199566
-1.15587e-07
0.00279536
-1.76621e-07
0.00319544
-1.93347e-07
0.00319537
-1.52521e-07
0.0027952
-6.83304e-08
0.00199548
0.000797355
-3.76438e-08
0.000797479
-1.49126e-07
0.00199576
-2.79854e-07
0.00279549
-3.71494e-07
0.00319553
-3.76314e-07
0.00319538
-2.78644e-07
0.0027951
-1.18567e-07
0.00199532
0.000797236
-1.04502e-07
0.000797585
-3.26777e-07
0.00199599
-5.51274e-07
0.00279571
-6.81783e-07
0.00319565
-6.6319e-07
0.00319536
-4.84457e-07
0.00279492
-2.03993e-07
0.00199504
0.000797032
-2.14239e-07
0.000797794
-5.80331e-07
0.00199635
-8.96878e-07
0.00279603
-1.06329e-06
0.00319582
-1.0254e-06
0.00319531
-7.59171e-07
0.00279465
-3.29574e-07
0.0019946
0.000796702
-3.41515e-07
0.000798137
-8.02248e-07
0.00199681
-1.11938e-06
0.00279634
-1.25657e-06
0.00319595
-1.2248e-06
0.00319528
-9.70894e-07
0.0027944
-4.62666e-07
0.00199409
0.000796238
-4.00161e-07
0.000798533
-6.46202e-07
0.00199705
-5.58344e-07
0.00279625
-4.29303e-07
0.00319582
-4.95872e-07
0.00319535
-6.27262e-07
0.00279453
-4.43223e-07
0.00199391
0.000795794
-1.1378e-07
0.000798648
8.17195e-07
0.00199612
2.43272e-06
0.00279463
3.53067e-06
0.00319472
3.21187e-06
0.00319566
1.6795e-06
0.00279605
2.53247e-07
0.00199533
0.000796047
1.12628e-06
0.000797516
5.58661e-06
0.00199165
1.14449e-05
0.00278877
1.53404e-05
0.00319082
1.47098e-05
0.00319629
9.55987e-06
0.0028012
3.1588e-06
0.00200173
0.000799204
4.50483e-06
0.000793012
1.74184e-05
0.00197874
3.32754e-05
0.00277291
4.43789e-05
0.00317972
4.4338e-05
0.00319633
3.15903e-05
0.00281394
1.24847e-05
0.00202083
0.000811686
1.1856e-05
0.000781151
4.21149e-05
0.00194848
7.88976e-05
0.00273613
0.000107022
0.00315159
0.000112295
0.00319105
8.69511e-05
0.00283928
3.88058e-05
0.00206896
0.000850488
2.52118e-05
0.000755939
8.62276e-05
0.00188746
0.000161858
0.00266049
0.000226805
0.00308663
0.000254227
0.00316362
0.00021976
0.00287374
0.000114858
0.00217385
0.000965345
4.54141e-05
0.00071052
0.000152597
0.00178027
0.00029079
0.0025223
0.000426861
0.00295056
0.000523164
0.00306732
0.000533708
0.00286318
0.000395078
0.00231248
0.00136042
6.77041e-05
0.000642814
0.000226103
0.00162187
0.000437636
0.00231076
0.000667692
0.0027205
0.000879683
0.00285532
0.00102784
0.00271502
0.00104212
0.00229819
0.00160655
0.000795979
8.15398e-05
0.000561268
0.000273838
0.00142957
0.000533399
0.00205119
0.000821233
0.00243267
0.00109725
0.0025793
0.00131461
0.00249765
0.00141283
0.00219997
0.00171481
0.00130456
8.7249e-05
0.000474014
0.000295483
0.00122133
0.000579029
0.00176764
0.000896807
0.00211489
0.00120811
0.00226799
0.00146938
0.00223638
0.0016322
0.00203713
0.00170152
0.00164548
8.67227e-05
0.000387285
0.000296721
0.00101132
0.000585662
0.00147869
0.000913284
0.00178726
0.001241
0.00194026
0.00153057
0.00194679
0.00174444
0.00182325
0.00159633
0.00184961
8.23241e-05
0.000304956
0.000284631
0.00080901
0.000566168
0.00119715
0.000889497
0.00146393
0.0012195
0.00161025
0.00152319
0.0016431
0.00177061
0.00157582
0.00142902
0.00193791
7.58515e-05
0.000229099
0.000264777
0.000620079
0.000530585
0.000931334
0.00083959
0.00115491
0.00116051
0.00128933
0.00146473
0.00133886
0.00172729
0.00131325
0.00122752
0.00192877
6.8418e-05
0.000160676
0.000240748
0.000447743
0.000485475
0.000686599
0.000772866
0.000867517
0.00107528
0.000986911
0.00136764
0.0010465
0.00162815
0.00105271
0.00101613
0.00183954
6.06223e-05
0.000100048
0.000214614
0.000293746
0.000434812
0.000466396
0.000695211
0.000607111
0.000971441
0.000710676
0.00124125
0.000776682
0.00148505
0.000808907
0.000814558
0.0016866
5.27632e-05
4.72806e-05
0.000187521
0.000158982
0.000380975
0.000272936
0.000610477
0.000377605
0.000854518
0.000466629
0.00109319
0.000538009
0.00130855
0.000593528
0.00063797
0.00148513
4.49833e-05
2.2929e-06
0.00016012
4.3841e-05
0.00032548
0.000107572
0.000521373
0.000181708
0.000728803
0.000259194
0.000929871
0.000336935
0.00110808
0.000415307
0.000497379
0.00124866
3.7359e-05
-3.50699e-05
0.000132819
-5.1623e-05
0.000269383
-2.89967e-05
0.000429964
2.11239e-05
0.000597795
9.1361e-05
0.000756784
0.000177942
0.000891787
0.000280294
0.00040031
0.000988848
2.99428e-05
-6.50167e-05
0.000105918
-0.000127602
0.000213495
-0.000136578
0.000337901
-0.000103285
0.000464382
-3.51231e-05
0.000578521
6.37969e-05
0.000666502
0.000192309
0.000351493
0.00071531
2.27748e-05
-8.77955e-05
7.96623e-05
-0.000184494
0.000158492
-0.000215412
0.000246562
-0.000191359
0.000330971
-0.000119534
0.000398897
-4.13276e-06
0.000437849
0.000153352
0.000353453
0.000435882
1.58813e-05
-0.000103681
5.42304e-05
-0.000222848
0.000104898
-0.000266084
0.000157056
-0.00024352
0.000199508
-0.00016199
0.000220969
-2.55968e-05
0.000210295
0.000164023
0.000407049
0.000156695
9.287e-06
-0.000112973
2.97685e-05
-0.000243335
5.31203e-05
-0.000289441
7.0234e-05
-0.000260638
7.15116e-05
-0.000163272
4.71352e-05
-1.2247e-06
-1.26727e-05
0.000223828
0.000511805
-0.000117436
3.00975e-06
-0.000115988
6.38801e-06
-0.000246719
3.47419e-06
-0.000286533
-1.3247e-05
-0.000243921
-5.18602e-05
-0.000124664
-0.000120744
6.7654e-05
-0.000228295
0.000331373
0.000666214
-0.000382708
-2.93773e-06
-0.000113056
-1.58272e-05
-0.000233836
-4.37952e-05
-0.000258572
-9.28647e-05
-0.000194858
-0.000169672
-4.78629e-05
-0.000281183
0.000179158
-0.00043442
0.000484605
0.000868045
-0.000636261
-8.54518e-06
-0.000104517
-3.68092e-05
-0.000205579
-8.84924e-05
-0.000206896
-0.00016821
-0.000115147
-0.00028121
6.51306e-05
-0.000433076
0.000331018
-0.000629494
0.000681018
0.00111457
-0.000876024
-1.3803e-05
-9.07201e-05
-5.65026e-05
-0.000162887
-0.000130466
-0.00013294
-0.00023898
-6.64021e-06
-0.000385943
0.000212088
-0.000575618
0.000520687
-0.000812386
0.000917782
0.00140271
-0.00110053
-1.87047e-05
-7.20222e-05
-7.4868e-05
-0.000106732
-0.000169609
-3.82065e-05
-0.00030494
0.000128684
-0.000483479
0.000390619
-0.000708225
0.000745427
-0.000982304
0.00119185
0.00172916
-0.00130876
-2.32439e-05
-4.8785e-05
-9.18729e-05
-3.81107e-05
-0.000205829
7.57418e-05
-0.000365913
0.000288761
-0.000573542
0.00059824
-0.0008305
0.00100238
-0.00113871
0.00150006
0.00209048
-0.00150004
-2.74159e-05
-2.1376e-05
-0.00010749
4.19555e-05
-0.000239056
0.0002073
-0.000421786
0.000471484
-0.000655953
0.000832399
-0.000942191
0.00128861
-0.00128128
0.00183914
0.00248318
-0.00167399
-3.12156e-05
9.83319e-06
-0.000121697
0.000132429
-0.000269249
0.000354844
-0.00047249
0.000674717
-0.000730611
0.00109051
-0.00104317
0.00160115
-0.00140987
0.00220584
0.00290375
-0.00183046
-3.46398e-05
4.44665e-05
-0.000134485
0.000232267
-0.000296393
0.000516745
-0.000517997
0.000896314
-0.000797485
0.00136999
-0.0011334
0.00193706
-0.00152448
0.00259691
0.00334876
-0.0019695
-3.76876e-05
8.21482e-05
-0.000145855
0.000340426
-0.000320491
0.000691374
-0.000558321
0.00113414
-0.000856606
0.00166827
-0.00121297
0.00229341
-0.00162523
0.00300916
0.00381483
-0.00209131
-4.03617e-05
0.000122504
-0.000155815
0.000455873
-0.000341564
0.000877117
-0.00059351
0.00138608
-0.000908067
0.00198282
-0.00128202
0.00266735
-0.00171237
0.0034395
0.00429871
-0.00219626
-4.26656e-05
0.000165165
-0.000164384
0.000577585
-0.000359658
0.00107239
-0.00062365
0.00165006
-0.000952017
0.00231118
-0.00134078
0.00305611
-0.00178623
0.00388494
0.00479728
-0.00228481
-4.4606e-05
0.000209766
-0.000171588
0.000704562
-0.000374837
0.00127563
-0.000648865
0.00192409
-0.00098866
0.00265097
-0.00138958
0.00345703
-0.00184726
0.00434262
0.00530757
-0.00235756
-4.6192e-05
0.000255955
-0.000177465
0.000835832
-0.00038719
0.00148536
-0.000669316
0.00220621
-0.00101825
0.0029999
-0.00142878
0.00386756
-0.00189598
0.00480982
0.00582677
-0.00241518
-4.74362e-05
0.00030339
-0.000182065
0.000970459
-0.000396825
0.00170012
-0.000685194
0.00249458
-0.00104109
0.0033558
-0.00145881
0.00428527
-0.00193296
0.00528397
0.00635224
-0.00245843
-4.83532e-05
0.000351742
-0.000185444
0.00110755
-0.000403869
0.00191854
-0.000696722
0.00278743
-0.00105752
0.0037166
-0.00148015
0.00470791
-0.00195884
0.00576266
0.00688151
-0.0024881
-4.89604e-05
0.000400703
-0.000187669
0.00124626
-0.000408464
0.00213934
-0.000704143
0.00308312
-0.00106791
0.00408036
-0.00149332
0.00513333
-0.0019743
0.00624364
0.00741228
-0.00250507
-4.92766e-05
0.000449981
-0.00018881
0.0013858
-0.000410765
0.0023613
-0.000707724
0.00338008
-0.00107265
0.00444529
-0.00149887
0.00555955
-0.00198006
0.00672482
0.00794243
-0.00251021
-4.93229e-05
0.000499305
-0.000188946
0.00152542
-0.000410936
0.00258329
-0.000707742
0.00367689
-0.00107217
0.00480972
-0.00149737
0.00598475
-0.00197684
0.0072043
0.00847002
-0.00250443
-4.91202e-05
0.000548427
-0.000188156
0.00166446
-0.000409149
0.00280429
-0.000704485
0.00397223
-0.00106688
0.00517212
-0.00148938
0.00640726
-0.00196539
0.0076803
0.00899326
-0.00248862
-4.86912e-05
0.000597119
-0.000186523
0.00180229
-0.000405578
0.00302335
-0.000698243
0.00426489
-0.00105721
0.00553109
-0.00147549
0.00682555
-0.00194644
0.00815125
0.00951053
-0.00246371
-4.80576e-05
0.000645178
-0.000184129
0.00193836
-0.000400394
0.00323962
-0.000689306
0.00455381
-0.00104359
0.00588538
-0.00145628
0.00723824
-0.00192072
0.00861568
0.0100204
-0.00243057
-4.7242e-05
0.000692421
-0.000181055
0.00207218
-0.000393772
0.00345234
-0.000677961
0.004838
-0.00102644
0.00623386
-0.0014323
0.0076441
-0.00188894
0.00907232
0.0105215
-0.00239006
-4.62659e-05
0.000738688
-0.000177383
0.0022033
-0.000385879
0.00366083
-0.000664488
0.00511661
-0.00100616
0.00657553
-0.00140411
0.00804205
-0.00185181
0.00952002
0.0110127
-0.00234304
-4.51506e-05
0.000783839
-0.000173189
0.00233134
-0.000376878
0.00386453
-0.000649156
0.00538889
-0.00098315
0.00690953
-0.00137222
0.00843112
-0.00180997
0.00995777
0.011493
-0.00229028
-4.39158e-05
0.000827756
-0.000168546
0.00245597
-0.000366924
0.00406291
-0.000632223
0.00565419
-0.000957781
0.00723509
-0.00133714
0.00881047
-0.00176407
0.0103847
0.0119616
-0.00223258
-4.25809e-05
0.000870336
-0.000163526
0.00257691
-0.000356163
0.00425554
-0.000613931
0.00591195
-0.000930407
0.00755156
-0.00129934
0.00917941
-0.00171469
0.0108
0.0124175
-0.00217063
-4.11633e-05
0.000911498
-0.000158194
0.00269394
-0.000344733
0.00444208
-0.000594511
0.00616173
-0.000901363
0.00785841
-0.00125928
0.00953732
-0.00166242
0.0112032
0.0128602
-0.00210514
-3.968e-05
0.000951175
-0.000152611
0.00280687
-0.000332764
0.00462223
-0.000574174
0.00640314
-0.000870958
0.00815519
-0.00121736
0.00988372
-0.00160776
0.0115936
0.0132892
-0.00203673
-3.81457e-05
0.000989318
-0.000146833
0.00291555
-0.000320373
0.00479577
-0.000553119
0.00663588
-0.000839482
0.00844155
-0.00117397
0.0102182
-0.00155122
0.0119708
0.0137039
-0.00196599
-3.65748e-05
0.00102589
-0.000140912
0.00301989
-0.00030767
0.00496253
-0.000531528
0.00685973
-0.0008072
0.00871722
-0.00112948
0.0105405
-0.00149324
0.0123346
0.0141042
-0.00189348
-3.49796e-05
0.00106087
-0.000134896
0.0031198
-0.000294754
0.00512238
-0.000509565
0.00707454
-0.000774354
0.00898201
-0.00108419
0.0108503
-0.00143423
0.0126846
0.0144896
-0.00181969
-3.3372e-05
0.00109423
-0.000128826
0.00321525
-0.000281715
0.00527527
-0.000487382
0.0072802
-0.000741164
0.00923578
-0.00103843
0.0111476
-0.00137458
0.0130207
0.0148601
-0.00174508
-3.17616e-05
0.00112599
-0.00012274
0.00330622
-0.000268633
0.00542115
-0.000465113
0.00747667
-0.00070783
0.00947849
-0.000992438
0.0114322
-0.00131462
0.0133429
0.0152156
-0.00167008
-3.01581e-05
0.00115614
-0.000116674
0.00339273
-0.000255582
0.00556006
-0.000442881
0.00766396
-0.000674529
0.00971014
-0.000946473
0.0117041
-0.00125466
0.0136511
0.015556
-0.00159505
-2.85689e-05
0.00118471
-0.000110656
0.00347481
-0.000242625
0.00569203
-0.000420792
0.00784213
-0.000641422
0.00993076
-0.000900748
0.0119634
-0.00119498
0.0139453
0.0158813
-0.00152034
-2.70015e-05
0.00121171
-0.000104713
0.00355252
-0.000229818
0.00581713
-0.000398943
0.00801125
-0.000608651
0.0101405
-0.000855456
0.0122102
-0.00113584
0.0142257
0.0161917
-0.00144625
-2.54615e-05
0.00123717
-9.88681e-05
0.00362592
-0.000217211
0.00593547
-0.000377418
0.00817145
-0.000576339
0.0103394
-0.000810767
0.0124446
-0.00107744
0.0144924
0.0164873
-0.00137305
-2.39545e-05
0.00126112
-9.31412e-05
0.0036951
-0.000204847
0.00604717
-0.000356288
0.00832289
-0.000544596
0.0105277
-0.00076683
0.0126669
-0.00101998
0.0147455
0.0167683
-0.00130099
-2.24846e-05
0.0012836
-8.75491e-05
0.00376017
-0.000192763
0.00615238
-0.000335618
0.00846574
-0.000513515
0.0107056
-0.000723776
0.0128771
-0.000963637
0.0149854
0.017035
-0.00123026
-2.10559e-05
0.00130465
-8.2106e-05
0.00382121
-0.000180988
0.00625127
-0.000315459
0.00860021
-0.000483178
0.0108733
-0.000681715
0.0130757
-0.000908546
0.0152122
0.0172875
-0.00116106
-1.96708e-05
0.00132432
-7.68237e-05
0.00387836
-0.00016955
0.00634399
-0.000295858
0.00872651
-0.000453652
0.0110311
-0.000640742
0.0132628
-0.000854834
0.0154263
0.0175262
-0.00109354
-1.83324e-05
0.00134265
-7.17118e-05
0.00393174
-0.00015847
0.00643075
-0.00027685
0.00884489
-0.000424994
0.0111792
-0.000600937
0.0134387
-0.000802607
0.0156279
0.0177514
-0.00102783
-1.70419e-05
0.00135969
-6.67779e-05
0.00398147
-0.000147763
0.00651173
-0.000258467
0.00895559
-0.00039725
0.011318
-0.000562365
0.0136038
-0.000751951
0.0158175
0.0179635
-0.000964032
-1.58014e-05
0.00137549
-6.20276e-05
0.0040277
-0.000137445
0.00658715
-0.000240732
0.00905888
-0.000370457
0.0114477
-0.000525079
0.0137584
-0.000702937
0.0159954
0.0181628
-0.000902251
-1.46113e-05
0.00139011
-5.74652e-05
0.00407055
-0.000127524
0.0066572
-0.000223661
0.00915501
-0.000344643
0.0115687
-0.00048912
0.0139029