/*--------------------------------*- C++ -*----------------------------------*\
| =========                 |                                                 |
| \\      /  F ield         | OpenFOAM: The Open Source CFD Toolbox           |
|  \\    /   O peration     | Version:  2206                                  |
|   \\  /    A nd           | Website:  www.openfoam.com                      |
|    \\/     M anipulation  |                                                 |
\*---------------------------------------------------------------------------*/
FoamFile
{
    version     2.0;
    format      ascii;
    arch        "LSB;label=32;scalar=64";
    class       volVectorField;
    location    "400";
    object      U;
}
// * * * * * * * * * * * * * * * * * * * * * * * * * * * * * * * * * * * * * //

dimensions      [0 1 -1 0 0 0 0];

internalField   nonuniform List<vector> 
12940
(
(9.92378 -1.17193 0)
(10.0209 0.480942 0)
(9.96793 0.101028 0)
(9.99358 0.146316 0)
(9.99764 0.157399 0)
(9.99936 0.158215 0)
(10.0006 0.156554 0)
(10.0013 0.154155 0)
(9.78256 -0.63354 0)
(9.91624 0.772213 0)
(9.91764 0.289448 0)
(9.98267 0.36725 0)
(9.99732 0.361517 0)
(10.0031 0.351912 0)
(10.0065 0.343183 0)
(10.0082 0.335671 0)
(9.23744 -0.235403 0)
(9.81977 0.922214 0)
(9.91835 0.504087 0)
(9.99804 0.598309 0)
(10.0151 0.571047 0)
(10.0207 0.550554 0)
(10.0231 0.532809 0)
(10.0235 0.51844 0)
(8.38964 0.0969488 0)
(9.65328 1.03822 0)
(9.93386 0.745467 0)
(10.0312 0.826861 0)
(10.0504 0.777839 0)
(10.0541 0.747368 0)
(10.0524 0.720738 0)
(10.0486 0.699191 0)
(7.33051 0.33994 0)
(9.38408 1.12628 0)
(9.93569 0.986157 0)
(10.0775 1.04352 0)
(10.1025 0.977867 0)
(10.102 0.936931 0)
(10.0935 0.901939 0)
(10.083 0.874225 0)
(6.14833 0.456742 0)
(8.98912 1.16483 0)
(9.89653 1.1817 0)
(10.1293 1.23016 0)
(10.1693 1.1613 0)
(10.1621 1.11293 0)
(10.1441 1.07124 0)
(10.1249 1.03958 0)
(4.96847 0.443229 0)
(8.45845 1.13516 0)
(9.77874 1.29738 0)
(10.1623 1.36818 0)
(10.2389 1.31533 0)
(10.2286 1.26839 0)
(10.1998 1.22444 0)
(10.1705 1.19199 0)
(3.91731 0.344186 0)
(7.80607 1.03643 0)
(9.54856 1.32416 0)
(10.1425 1.44911 0)
(10.29 1.43214 0)
(10.2903 1.39846 0)
(10.254 1.35935 0)
(10.2149 1.33009 0)
(3.06562 0.2258 0)
(7.06732 0.888834 0)
(9.19036 1.27804 0)
(10.0409 1.47751 0)
(10.2995 1.51204 0)
(10.3328 1.50286 0)
(10.2985 1.47622 0)
(10.253 1.45465 0)
(2.41846 0.133369 0)
(6.29123 0.722789 0)
(8.71046 1.18575 0)
(9.84091 1.4651 0)
(10.2497 1.56077 0)
(10.343 1.58502 0)
(10.3253 1.57734 0)
(10.2795 1.5678 0)
(1.94291 0.0773301 0)
(5.52978 0.565888 0)
(8.13244 1.07086 0)
(9.53872 1.42332 0)
(10.1298 1.58481 0)
(10.3113 1.6493 0)
(10.3273 1.66573 0)
(10.2903 1.67204 0)
(1.5953 0.0478726 0)
(4.82477 0.435498 0)
(7.48944 0.948979 0)
(9.13939 1.36024 0)
(9.93357 1.58852 0)
(10.2302 1.69876 0)
(10.299 1.74378 0)
(10.2816 1.76947 0)
(1.33596 0.0327364 0)
(4.19894 0.337194 0)
(6.8172 0.829652 0)
(8.65456 1.28141 0)
(9.65809 1.57377 0)
(10.0935 1.73437 0)
(10.235 1.81246 0)
(10.2497 1.86124 0)
(1.13503 0.0243136 0)
(3.65639 0.267545 0)
(6.14832 0.719237 0)
(8.10144 1.19153 0)
(9.30306 1.54102 0)
(9.89538 1.75534 0)
(10.1297 1.87128 0)
(10.1906 1.94734 0)
(0.972886 0.0190327 0)
(3.18954 0.219053 0)
(5.50762 0.62188 0)
(7.50187 1.0953 0)
(8.87206 1.49076 0)
(9.63059 1.75984 0)
(9.97659 1.91847 0)
(10.0995 2.0266 0)
(0.83766 0.0153423 0)
(2.78663 0.184303 0)
(4.91014 0.539153 0)
(6.87967 0.997421 0)
(8.37391 1.42446 0)
(9.29581 1.74579 0)
(9.76913 1.95127 0)
(9.97042 2.09671 0)
(0.722511 0.012548 0)
(2.43634 0.157754 0)
(4.36216 0.469949 0)
(6.25698 0.901926 0)
(7.82283 1.34486 0)
(8.89113 1.71179 0)
(9.501 1.96647 0)
(9.79655 2.15441 0)
(0.623641 0.0103301 0)
(2.1297 0.135687 0)
(3.86409 0.411217 0)
(5.65112 0.811302 0)
(7.23677 1.25548 0)
(8.42147 1.65771 0)
(9.16766 1.96099 0)
(9.57064 2.19573 0)
(0.539258 0.00855892 0)
(1.8606 0.115556 0)
(3.41352 0.359047 0)
(5.07351 0.725844 0)
(6.63439 1.15963 0)
(7.89684 1.5848 0)
(8.76774 1.93252 0)
(9.28591 2.21647 0)
(0.468997 0.00724875 0)
(1.62572 0.0956052 0)
(3.00754 0.309571 0)
(4.53039 0.643692 0)
(6.03199 1.05936 0)
(7.331 1.49518 0)
(8.3041 1.87999 0)
(8.93726 2.2127 0)
(0.413316 0.0065653 0)
(1.42435 0.0750857 0)
(2.64439 0.259815 0)
(4.02469 0.56166 0)
(5.44177 0.954688 0)
(6.739 1.39081 0)
(7.78399 1.80357 0)
(8.52252 2.18133 0)
(0.372443 0.00673462 0)
(1.25757 0.0548412 0)
(2.32474 0.209002 0)
(3.55858 0.476964 0)
(4.87206 0.84392 0)
(6.13455 1.27243 0)
(7.21781 1.70387 0)
(8.04323 2.12025 0)
(0.345007 0.0077361 0)
(1.12634 0.0373681 0)
(2.0521 0.160022 0)
(3.13637 0.390109 0)
(4.32955 0.725633 0)
(5.52892 1.1394 0)
(6.61709 1.58098 0)
(7.50457 2.02779 0)
(0.327371 0.00908543 0)
(1.02818 0.0254111 0)
(1.83026 0.119149 0)
(2.76661 0.30796 0)
(3.82368 0.603441 0)
(4.93268 0.992427 0)
(5.99324 1.43449 0)
(6.9143 1.90181 0)
(0.314624 0.0101532 0)
(0.955118 0.0200949 0)
(1.65692 0.0924743 0)
(2.45825 0.242821 0)
(3.37032 0.491123 0)
(4.36151 0.840935 0)
(5.35962 1.26817 0)
(6.28184 1.74099 0)
(0.302297 0.010622 0)
(0.895497 0.0205884 0)
(1.51962 0.0819478 0)
(2.20937 0.204768 0)
(2.98468 0.408949 0)
(3.84078 0.709016 0)
(4.74023 1.10058 0)
(5.62264 1.5543 0)
(0.287263 0.0105237 0)
(0.838146 0.0250554 0)
(1.40025 0.0849015 0)
(2.00245 0.194538 0)
(2.66396 0.368691 0)
(3.39097 0.623423 0)
(4.17092 0.966533 0)
(4.9709 1.37636 0)
(0.267777 0.0100326 0)
(0.775197 0.0315347 0)
(1.28288 0.0962578 0)
(1.81435 0.20457 0)
(2.38574 0.365376 0)
(3.0053 0.591166 0)
(3.67119 0.892021 0)
(4.36805 1.25373 0)
(0.243251 0.00932054 0)
(0.702693 0.0383664 0)
(1.15779 0.110803 0)
(1.62748 0.224518 0)
(2.12484 0.383927 0)
(2.65751 0.597327 0)
(3.22694 0.87258 0)
(3.82549 1.20089 0)
(0.214021 0.00850089 0)
(0.620041 0.044256 0)
(1.02153 0.124259 0)
(1.43323 0.245156 0)
(1.86543 0.408438 0)
(2.32455 0.619285 0)
(2.81284 0.882944 0)
(3.32634 1.19359 0)
(0.181174 0.0076202 0)
(0.529245 0.0481772 0)
(0.875488 0.133349 0)
(1.23058 0.259439 0)
(1.60217 0.426301 0)
(1.99536 0.637238 0)
(2.41258 0.895727 0)
(2.85212 1.19643 0)
(0.146427 0.00667322 0)
(0.434284 0.0493034 0)
(0.724556 0.135609 0)
(1.02388 0.262266 0)
(1.33738 0.428559 0)
(1.66891 0.636991 0)
(2.02099 0.890217 0)
(2.3936 1.18125 0)
(0.112014 0.00562623 0)
(0.340591 0.0470103 0)
(0.576081 0.129299 0)
(0.821118 0.250152 0)
(1.07839 0.409215 0)
(1.35061 0.609136 0)
(1.64053 0.852622 0)
(1.94959 1.12947 0)
(0.0805408 0.00443985 0)
(0.254552 0.0409427 0)
(0.43897 0.113479 0)
(0.632577 0.221187 0)
(0.83575 0.364832 0)
(1.05017 0.547971 0)
(1.27885 0.774158 0)
(1.52479 1.02904 0)
(0.0547625 0.00309603 0)
(0.18288 0.0311727 0)
(0.322746 0.0883409 0)
(0.469721 0.175489 0)
(0.622053 0.294961 0)
(0.780369 0.451673 0)
(0.947821 0.650615 0)
(1.12891 0.873112 0)
(0.0371988 0.00163293 0)
(0.131655 0.0184518 0)
(0.23623 0.0557759 0)
(0.343721 0.116166 0)
(0.450539 0.203519 0)
(0.556069 0.324024 0)
(0.663014 0.484252 0)
(0.776876 0.662029 0)
(0.029535 0.000181072 0)
(0.10492 0.00446935 0)
(0.185597 0.0199758 0)
(0.263186 0.0504301 0)
(0.332767 0.100675 0)
(0.392201 0.177355 0)
(0.442632 0.287946 0)
(0.489087 0.409072 0)
(0.0318599 -0.00102391 0)
(0.102934 -0.00810846 0)
(0.171849 -0.0124796 0)
(0.230884 -0.0100391 0)
(0.274654 0.00398908 0)
(0.299448 0.0353046 0)
(0.303644 0.0906614 0)
(0.289263 0.149634 0)
(0.0419788 -0.00167664 0)
(0.120636 -0.0161753 0)
(0.188346 -0.0339138 0)
(0.239854 -0.0511029 0)
(0.270488 -0.0637934 0)
(0.275677 -0.0682753 0)
(0.250786 -0.0602496 0)
(0.191888 -0.0517063 0)
(0.0556048 -0.00159708 0)
(0.14805 -0.0176716 0)
(0.22092 -0.039112 0)
(0.272342 -0.0625062 0)
(0.299419 -0.0843478 0)
(0.29803 -0.102004 0)
(0.261841 -0.113406 0)
(0.179749 -0.121464 0)
(0.0660811 -0.000827988 0)
(0.169702 -0.0135854 0)
(0.246845 -0.0304717 0)
(0.29751 -0.0479693 0)
(0.319427 -0.0616495 0)
(0.307682 -0.0668949 0)
(0.252043 -0.0583674 0)
(0.128286 -0.0354841 0)
(0.0724734 -0.000253755 0)
(0.183113 -0.00934607 0)
(0.262241 -0.0210437 0)
(0.310371 -0.0324181 0)
(0.32529 -0.0395263 0)
(0.302052 -0.0386376 0)
(0.232127 -0.0276348 0)
(0.103044 -0.0094004 0)
(0.0764843 0.000187883 0)
(0.191685 -0.00557683 0)
(0.271795 -0.0126263 0)
(0.317413 -0.0191271 0)
(0.326614 -0.0224028 0)
(0.295361 -0.0203402 0)
(0.218031 -0.0128792 0)
(0.0898944 -0.00353491 0)
(0.0786041 0.000494079 0)
(0.196345 -0.0025949 0)
(0.276917 -0.00597553 0)
(0.320881 -0.00898592 0)
(0.326691 -0.0102452 0)
(0.29133 -0.00881296 0)
(0.21134 -0.00510405 0)
(0.0852404 -0.00172679 0)
(0.0792838 0.000701222 0)
(0.197989 -0.000274953 0)
(0.278763 -0.000809168 0)
(0.322057 -0.00128427 0)
(0.326542 -0.00141589 0)
(0.289753 -0.00102236 0)
(0.209117 -0.000382156 0)
(0.0839417 -0.000808515 0)
(0.0788196 0.000861525 0)
(0.197233 0.00166399 0)
(0.278058 0.00348798 0)
(0.321579 0.00508429 0)
(0.326455 0.00583253 0)
(0.290234 0.00532374 0)
(0.210163 0.00344424 0)
(0.0848961 -0.000105262 0)
(0.0773379 0.00101584 0)
(0.194374 0.00344185 0)
(0.275103 0.00738997 0)
(0.319571 0.0109493 0)
(0.326271 0.0127658 0)
(0.292403 0.0118343 0)
(0.21423 0.00786677 0)
(0.0882497 0.00079758 0)
(0.0748812 0.00117547 0)
(0.18956 0.00506007 0)
(0.269978 0.0108897 0)
(0.31583 0.0163775 0)
(0.325448 0.0197057 0)
(0.295724 0.0193019 0)
(0.221619 0.0140788 0)
(0.0953688 0.00253886 0)
(0.0715697 0.00131012 0)
(0.183111 0.00619088 0)
(0.262911 0.0132303 0)
(0.310104 0.0201811 0)
(0.322969 0.025288 0)
(0.298572 0.0268817 0)
(0.231298 0.022563 0)
(0.107636 0.00659436 0)
(0.0678262 0.00134146 0)
(0.175981 0.00615664 0)
(0.254915 0.012783 0)
(0.302798 0.0194177 0)
(0.317656 0.0249703 0)
(0.296772 0.028686 0)
(0.234803 0.0277991 0)
(0.116973 0.011485 0)
(0.0640886 0.00117649 0)
(0.169358 0.00394511 0)
(0.247957 0.0068654 0)
(0.296869 0.00848274 0)
(0.31413 0.00775542 0)
(0.298682 0.00338258 0)
(0.251022 -0.00850279 0)
(0.17681 -0.0473336 0)
(0.0627215 0.000587152 0)
(0.168771 -0.00148456 0)
(0.250144 -0.00655213 0)
(0.303161 -0.0154748 0)
(0.3265 -0.0289086 0)
(0.321278 -0.0481724 0)
(0.292145 -0.0767259 0)
(0.250426 -0.127386 0)
(0.0657249 -7.43434e-05 0)
(0.17838 -0.00799788 0)
(0.266501 -0.0223432 0)
(0.326397 -0.0427487 0)
(0.357402 -0.0684757 0)
(0.361778 -0.0993393 0)
(0.345157 -0.136083 0)
(0.31741 -0.18423 0)
(0.0732861 -0.000688355 0)
(0.198441 -0.0144022 0)
(0.296668 -0.0376772 0)
(0.364615 -0.068554 0)
(0.402064 -0.104393 0)
(0.411672 -0.14306 0)
(0.398918 -0.182834 0)
(0.37193 -0.225183 0)
(0.0850707 -0.00121276 0)
(0.228081 -0.0201686 0)
(0.339087 -0.0513274 0)
(0.415286 -0.0910986 0)
(0.456854 -0.134921 0)
(0.46665 -0.178834 0)
(0.450043 -0.219248 0)
(0.414586 -0.255028 0)
(0.100558 -0.00164674 0)
(0.265993 -0.0250897 0)
(0.391829 -0.0627984 0)
(0.47602 -0.109765 0)
(0.51916 -0.15975 0)
(0.524323 -0.207205 0)
(0.49706 -0.246953 0)
(0.445405 -0.275349 0)
(0.119125 -0.00198024 0)
(0.310595 -0.0288969 0)
(0.452749 -0.0714565 0)
(0.544519 -0.123644 0)
(0.586898 -0.177969 0)
(0.583038 -0.227587 0)
(0.538656 -0.265761 0)
(0.462807 -0.285504 0)
(0.139877 -0.00216044 0)
(0.359702 -0.0309954 0)
(0.519022 -0.0759383 0)
(0.617989 -0.130572 0)
(0.657819 -0.1868 0)
(0.641213 -0.236945 0)
(0.573345 -0.27271 0)
(0.463965 -0.28212 0)
(0.16135 -0.0020777 0)
(0.409928 -0.030424 0)
(0.586344 -0.0740636 0)
(0.692179 -0.126911 0)
(0.728571 -0.181132 0)
(0.696888 -0.229005 0)
(0.600239 -0.261093 0)
(0.447384 -0.258436 0)
(0.181362 -0.00163764 0)
(0.456447 -0.0262472 0)
(0.648655 -0.0636388 0)
(0.761129 -0.108584 0)
(0.795015 -0.15415 0)
(0.75003 -0.193288 0)
(0.62526 -0.216766 0)
(0.421754 -0.205367 0)
(0.196768 -0.000638784 0)
(0.492218 -0.0180857 0)
(0.695556 -0.0437994 0)
(0.810246 -0.0729229 0)
(0.836239 -0.0983109 0)
(0.769119 -0.11163 0)
(0.595825 -0.102028 0)
(0.281151 -0.0621631 0)
(0.206094 0.00021669 0)
(0.514087 -0.0102661 0)
(0.722857 -0.02504 0)
(0.834971 -0.0404969 0)
(0.849569 -0.0511061 0)
(0.762105 -0.0512969 0)
(0.563302 -0.0377605 0)
(0.238693 -0.0124328 0)
(0.210762 0.000711105 0)
(0.525459 -0.00492363 0)
(0.736578 -0.0123422 0)
(0.8457 -0.0196319 0)
(0.851992 -0.0235981 0)
(0.752451 -0.0216579 0)
(0.542537 -0.0138924 0)
(0.21891 -0.00371965 0)
(0.212677 0.000921266 0)
(0.530566 -0.00190652 0)
(0.742761 -0.00513999 0)
(0.850139 -0.0081828 0)
(0.852259 -0.00952061 0)
(0.747706 -0.00812789 0)
(0.534888 -0.00465492 0)
(0.213816 -0.00176381 0)
(0.213221 0.000953 0)
(0.532421 -0.000484483 0)
(0.745128 -0.00165317 0)
(0.851741 -0.00272628 0)
(0.852091 -0.00312327 0)
(0.745688 -0.00246452 0)
(0.532218 -0.00123437 0)
(0.212356 -0.0010822 0)
(0.213217 0.000899544 0)
(0.532848 5.41887e-05 0)
(0.745817 -0.0002341 0)
(0.852217 -0.000493671 0)
(0.851992 -0.000586408 0)
(0.745059 -0.000368822 0)
(0.531554 -0.000110714 0)
(0.212135 -0.000844205 0)
(0.213063 0.000816834 0)
(0.532767 0.000185773 0)
(0.745875 0.00020305 0)
(0.852295 0.000229202 0)
(0.851987 0.00022417 0)
(0.745004 0.000252185 0)
(0.53159 0.000172434 0)
(0.212265 -0.000742312 0)
(0.212914 0.000730598 0)
(0.532578 0.000165767 0)
(0.745756 0.000248537 0)
(0.852259 0.000345418 0)
(0.852021 0.000360806 0)
(0.745118 0.000334572 0)
(0.531786 0.000183792 0)
(0.212431 -0.00067665 0)
(0.212812 0.000650683 0)
(0.532416 0.000110933 0)
(0.745628 0.000177666 0)
(0.852206 0.00027027 0)
(0.852058 0.000287961 0)
(0.745242 0.000262053 0)
(0.531962 0.000130356 0)
(0.212554 -0.000619037 0)
(0.212752 0.000578324 0)
(0.532311 6.23601e-05 0)
(0.745535 9.79564e-05 0)
(0.852164 0.000168608 0)
(0.852085 0.000184237 0)
(0.745331 0.000172888 0)
(0.53208 7.84534e-05 0)
(0.21263 -0.000562389 0)
(0.212723 0.000512875 0)
(0.532253 3.03707e-05 0)
(0.74548 4.05793e-05 0)
(0.852138 9.0358e-05 0)
(0.8521 0.000103794 0)
(0.745385 0.000105812 0)
(0.53215 4.27561e-05 0)
(0.212672 -0.000505809 0)
(0.212711 0.000452241 0)
(0.532226 1.17912e-05 0)
(0.745451 6.91248e-06 0)
(0.852122 4.1892e-05 0)
(0.852107 5.31262e-05 0)
(0.745413 6.33912e-05 0)
(0.532186 2.17961e-05 0)
(0.212694 -0.000449784 0)
(0.212709 0.000395466 0)
(0.532215 2.93102e-06 0)
(0.745438 -9.51271e-06 0)
(0.852114 1.55263e-05 0)
(0.852109 2.51401e-05 0)
(0.745427 3.91112e-05 0)
(0.532205 1.06434e-05 0)
(0.212705 -0.000394859 0)
(0.21271 0.000341054 0)
(0.532213 -1.12646e-06 0)
(0.745433 -1.56914e-05 0)
(0.852109 3.19258e-06 0)
(0.852108 1.10922e-05 0)
(0.745432 2.56453e-05 0)
(0.532213 5.18274e-06 0)
(0.212711 -0.000341253 0)
(0.212712 0.00028875 0)
(0.532214 -1.99427e-06 0)
(0.745431 -1.63012e-05 0)
(0.852106 -1.85172e-06 0)
(0.852107 4.75352e-06 0)
(0.745434 1.81797e-05 0)
(0.532217 2.60008e-06 0)
(0.212714 -0.000288984 0)
(0.212714 0.000237578 0)
(0.532216 -2.14157e-06 0)
(0.745432 -1.44234e-05 0)
(0.852105 -3.03602e-06 0)
(0.852106 2.0589e-06 0)
(0.745435 1.34409e-05 0)
(0.532219 1.39851e-06 0)
(0.212715 -0.000237872 0)
(0.212716 0.00018762 0)
(0.532219 -1.31979e-06 0)
(0.745433 -1.14076e-05 0)
(0.852105 -2.88809e-06 0)
(0.852105 1.04447e-06 0)
(0.745435 1.00535e-05 0)
(0.53222 7.1148e-07 0)
(0.212716 -0.000187709 0)
(0.212717 0.000138084 0)
(0.53222 -8.63499e-07 0)
(0.745433 -8.14192e-06 0)
(0.852105 -1.96347e-06 0)
(0.852105 5.33153e-07 0)
(0.745435 6.98974e-06 0)
(0.532221 2.33586e-07 0)
(0.212717 -0.000138205 0)
(0.212717 8.91555e-05 0)
(0.532221 1.17859e-07 0)
(0.745434 -4.71821e-06 0)
(0.852105 -1.12639e-06 0)
(0.852105 2.4126e-07 0)
(0.745435 4.15561e-06 0)
(0.532221 -2.55001e-07 0)
(0.212717 -8.91051e-05 0)
(0.212717 4.00758e-05 0)
(0.532222 5.86245e-07 0)
(0.745435 -1.3834e-06 0)
(0.852106 -5.3931e-08 0)
(0.852106 -1.29431e-07 0)
(0.745436 1.18208e-06 0)
(0.532222 -7.34203e-07 0)
(0.212717 -4.00996e-05 0)
(0.212716 -8.95205e-06 0)
(0.532221 1.58615e-06 0)
(0.745436 2.07682e-06 0)
(0.852107 8.01647e-07 0)
(0.852107 -4.40246e-07 0)
(0.745437 -1.71171e-06 0)
(0.532221 -1.27879e-06 0)
(0.212716 9.0804e-06 0)
(0.212715 -5.87066e-05 0)
(0.532221 2.12015e-06 0)
(0.745437 5.53585e-06 0)
(0.852109 1.93697e-06 0)
(0.85211 -8.26395e-07 0)
(0.745438 -4.78306e-06 0)
(0.532221 -1.8201e-06 0)
(0.212714 5.8763e-05 0)
(0.212712 -0.000109009 0)
(0.532219 3.25314e-06 0)
(0.745438 9.22486e-06 0)
(0.852112 2.90861e-06 0)
(0.852112 -1.13628e-06 0)
(0.745439 -7.80618e-06 0)
(0.53222 -2.43388e-06 0)
(0.212712 0.000109248 0)
(0.212709 -0.000160693 0)
(0.532217 3.93483e-06 0)
(0.745438 1.29319e-05 0)
(0.852115 4.10332e-06 0)
(0.852116 -1.62335e-06 0)
(0.745441 -1.11282e-05 0)
(0.532219 -3.0874e-06 0)
(0.212709 0.000160913 0)
(0.212705 -0.000213642 0)
(0.532214 5.1384e-06 0)
(0.745439 1.66628e-05 0)
(0.852119 4.75495e-06 0)
(0.85212 -2.45301e-06 0)
(0.745443 -1.47597e-05 0)
(0.532217 -3.96995e-06 0)
(0.212706 0.000214116 0)
(0.212699 -0.000268805 0)
(0.53221 5.54465e-06 0)
(0.745441 1.96874e-05 0)
(0.852124 4.55693e-06 0)
(0.852125 -4.59064e-06 0)
(0.745445 -1.95943e-05 0)
(0.532215 -5.31879e-06 0)
(0.212702 0.000269297 0)
(0.212694 -0.000326218 0)
(0.532207 5.62077e-06 0)
(0.745443 2.09859e-05 0)
(0.85213 1.3672e-06 0)
(0.852131 -9.58134e-06 0)
(0.745447 -2.6706e-05 0)
(0.532211 -7.87192e-06 0)
(0.212696 0.000326871 0)
(0.212688 -0.00038709 0)
(0.532206 3.06321e-06 0)
(0.745449 1.80134e-05 0)
(0.852139 -7.4601e-06 0)
(0.852137 -2.07548e-05 0)
(0.745446 -3.88507e-05 0)
(0.532203 -1.2864e-05 0)
(0.212687 0.000387298 0)
(0.212685 -0.00045183 0)
(0.532211 -3.20045e-06 0)
(0.745462 7.02694e-06 0)
(0.852152 -2.74861e-05 0)
(0.852143 -4.30921e-05 0)
(0.74544 -5.9905e-05 0)
(0.532187 -2.2659e-05 0)
(0.212673 0.000450939 0)
(0.212688 -0.000522211 0)
(0.532229 -1.75541e-05 0)
(0.745486 -1.76491e-05 0)
(0.852171 -6.49274e-05 0)
(0.852146 -8.35189e-05 0)
(0.745422 -9.58382e-05 0)
(0.532156 -4.06541e-05 0)
(0.212649 0.000518092 0)
(0.212704 -0.000599343 0)
(0.53227 -4.26955e-05 0)
(0.745532 -6.07609e-05 0)
(0.852199 -0.00012527 0)
(0.852143 -0.000146793 0)
(0.745386 -0.000151327 0)
(0.532099 -7.0805e-05 0)
(0.212608 0.000588901 0)
(0.212745 -0.000685621 0)
(0.532348 -8.11448e-05 0)
(0.745605 -0.00011945 0)
(0.852239 -0.000200081 0)
(0.852134 -0.000224316 0)
(0.745324 -0.000222086 0)
(0.532003 -0.000113524 0)
(0.212537 0.000663791 0)
(0.212821 -0.000781867 0)
(0.532466 -0.000122337 0)
(0.745701 -0.000162621 0)
(0.852286 -0.000239729 0)
(0.852121 -0.000261974 0)
(0.745242 -0.000269141 0)
(0.531865 -0.00015375 0)
(0.212426 0.000744791 0)
(0.212931 -0.000887361 0)
(0.532595 -0.000127505 0)
(0.745771 -8.74547e-05 0)
(0.85231 -8.56956e-05 0)
(0.852116 -8.75953e-05 0)
(0.745186 -0.000158973 0)
(0.531727 -0.000127222 0)
(0.212282 0.00084028 0)
(0.213037 -0.000992943 0)
(0.532596 1.3674e-05 0)
(0.74565 0.000367766 0)
(0.852213 0.00065849 0)
(0.852155 0.000743662 0)
(0.745315 0.000476427 0)
(0.531767 0.000164724 0)
(0.212185 0.000979605 0)
(0.21299 -0.00107437 0)
(0.532087 0.00054296 0)
(0.744895 0.00176651 0)
(0.851717 0.00285908 0)
(0.852289 0.00324358 0)
(0.746019 0.00253764 0)
(0.532509 0.00126936 0)
(0.212439 0.00126267 0)
(0.212413 -0.00107748 0)
(0.530182 0.00191753 0)
(0.742494 0.00515873 0)
(0.850114 0.00817999 0)
(0.85249 0.0094866 0)
(0.748089 0.0080573 0)
(0.535221 0.00459887 0)
(0.213902 0.00199508 0)
(0.210522 -0.00090999 0)
(0.525118 0.00483683 0)
(0.736362 0.0121768 0)
(0.845728 0.0193699 0)
(0.85226 0.0232563 0)
(0.752821 0.0212731 0)
(0.542785 0.0136053 0)
(0.218906 0.00400875 0)
(0.205973 -0.000461537 0)
(0.513933 0.0100622 0)
(0.722821 0.0246873 0)
(0.835146 0.0399858 0)
(0.849907 0.0504336 0)
(0.762353 0.0504772 0)
(0.56311 0.0370446 0)
(0.23816 0.0126498 0)
(0.19686 0.00036056 0)
(0.492336 0.0178783 0)
(0.695756 0.0435812 0)
(0.810672 0.072698 0)
(0.836878 0.0979167 0)
(0.769582 0.110765 0)
(0.595358 0.100745 0)
(0.279775 0.0609667 0)
(0.181612 0.00137376 0)
(0.456545 0.0264552 0)
(0.648687 0.0646222 0)
(0.761617 0.110533 0)
(0.79647 0.15676 0)
(0.752508 0.195672 0)
(0.627719 0.217843 0)
(0.420526 0.200019 0)
(0.161209 0.00195564 0)
(0.408528 0.0318873 0)
(0.583989 0.0783348 0)
(0.689985 0.135 0)
(0.727878 0.193536 0)
(0.698784 0.245757 0)
(0.604995 0.2818 0)
(0.453288 0.278351 0)
(0.138274 0.00223818 0)
(0.354094 0.0341989 0)
(0.510195 0.084685 0)
(0.607723 0.146828 0)
(0.648138 0.211841 0)
(0.633813 0.271552 0)
(0.569121 0.317186 0)
(0.462732 0.332415 0)
(0.114769 0.00229336 0)
(0.297573 0.0340961 0)
(0.432846 0.0852568 0)
(0.520557 0.148876 0)
(0.561858 0.21635 0)
(0.559376 0.280062 0)
(0.517795 0.332645 0)
(0.44503 0.363633 0)
(0.0920377 0.00222057 0)
(0.24211 0.0324636 0)
(0.356093 0.0820071 0)
(0.432962 0.14432 0)
(0.473288 0.211388 0)
(0.479278 0.276346 0)
(0.454968 0.333016 0)
(0.406655 0.375278 0)
(0.0708409 0.00208632 0)
(0.189651 0.0299895 0)
(0.28266 0.0764834 0)
(0.348067 0.135616 0)
(0.385779 0.20014 0)
(0.397305 0.263945 0)
(0.385709 0.321738 0)
(0.355672 0.370512 0)
(0.0515495 0.00192675 0)
(0.141311 0.0271072 0)
(0.214289 0.0696927 0)
(0.268114 0.124374 0)
(0.302078 0.184706 0)
(0.316957 0.245255 0)
(0.314866 0.30136 0)
(0.299135 0.35223 0)
(0.0343172 0.00175761 0)
(0.0977012 0.0240556 0)
(0.1521 0.0622274 0)
(0.194753 0.111586 0)
(0.224453 0.166447 0)
(0.241339 0.22196 0)
(0.246724 0.273931 0)
(0.242907 0.323133 0)
(0.0191877 0.0015846 0)
(0.0591458 0.0209578 0)
(0.0968165 0.054425 0)
(0.129201 0.097866 0)
(0.154724 0.146285 0)
(0.173028 0.195341 0)
(0.184813 0.241203 0)
(0.191617 0.285738 0)
(0.00615246 0.00140882 0)
(0.0258003 0.0178755 0)
(0.0488962 0.046485 0)
(0.0723255 0.083619 0)
(0.0942721 0.1249 0)
(0.114026 0.166434 0)
(0.131839 0.204702 0)
(0.148715 0.242316 0)
(-0.00482344 0.0012304 0)
(-0.00228537 0.0148433 0)
(0.00860115 0.0385368 0)
(0.0247037 0.069138 0)
(0.0440742 0.102825 0)
(0.0657731 0.136106 0)
(0.0897471 0.165749 0)
(0.116625 0.194848 0)
(-0.0137893 0.0010498 0)
(-0.0251327 0.0118851 0)
(-0.0239584 0.0306772 0)
(-0.0133368 0.0546514 0)
(0.00474526 0.0804915 0)
(0.0292155 0.105079 0)
(0.0598216 0.125452 0)
(0.0969364 0.144995 0)
(-0.0208073 0.000867632 0)
(-0.0428233 0.00901953 0)
(-0.0487903 0.0229855 0)
(-0.0416617 0.0403507 0)
(-0.0233968 0.0582611 0)
(0.00488424 0.073953 0)
(0.0428103 0.0847311 0)
(0.0905797 0.0941215 0)
(-0.0259483 0.000684463 0)
(-0.0554878 0.00625946 0)
(-0.066015 0.015521 0)
(-0.0603201 0.0263856 0)
(-0.040284 0.0364264 0)
(-0.00702286 0.0432126 0)
(0.0390358 0.0443196 0)
(0.0979749 0.0433057 0)
(-0.0292891 0.000501607 0)
(-0.0632907 0.003616 0)
(-0.0758269 0.00833119 0)
(-0.069492 0.0128727 0)
(-0.0460502 0.0152128 0)
(-0.00657295 0.0132387 0)
(0.0484936 0.00479196 0)
(0.119159 -0.00660887 0)
(-0.0309126 0.000320384 0)
(-0.0664252 0.00109744 0)
(-0.0784826 0.0014521 0)
(-0.0694595 -9.8453e-05 0)
(-0.0409762 -0.00520648 0)
(0.00596782 -0.0156786 0)
(0.0709245 -0.0334009 0)
(0.15384 -0.0549537 0)
(-0.0309053 0.000142118 0)
(-0.0651059 -0.00129024 0)
(-0.0742858 -0.0050885 0)
(-0.0605857 -0.0124575 0)
(-0.0254679 -0.0246931 0)
(0.0301551 -0.0433033 0)
(0.105845 -0.0699027 0)
(0.201503 -0.10121 0)
(-0.0293569 -3.17006e-05 0)
(-0.0595643 -0.00354211 0)
(-0.0635793 -0.0112682 0)
(-0.0433009 -0.0241481 0)
(-2.4118e-05 -0.0431398 0)
(0.0654284 -0.0694578 0)
(0.15264 -0.104452 0)
(0.261477 -0.145004 0)
(-0.0263593 -0.000199426 0)
(-0.0500458 -0.00565388 0)
(-0.0467351 -0.0170693 0)
(-0.0180827 -0.0351283 0)
(0.0347869 -0.0604657 0)
(0.111139 -0.0940114 0)
(0.210591 -0.13686 0)
(0.332977 -0.186066 0)
(-0.0220069 -0.000359512 0)
(-0.0368056 -0.00762251 0)
(-0.0241459 -0.0224793 0)
(0.01456 -0.0453673 0)
(0.0783439 -0.0766091 0)
(0.166576 -0.116869 0)
(0.278906 -0.166989 0)
(0.415144 -0.224207 0)
(-0.0163956 -0.000510453 0)
(-0.0201069 -0.00944548 0)
(0.00377917 -0.0274878 0)
(0.0540808 -0.0548378 0)
(0.129994 -0.0915268 0)
(0.230991 -0.137963 0)
(0.356754 -0.194747 0)
(0.507074 -0.259302 0)
(-0.00962264 -0.000650887 0)
(-0.000218837 -0.0111205 0)
(0.036616 -0.0320855 0)
(0.0999239 -0.0635225 0)
(0.189065 -0.10519 0)
(0.303607 -0.157253 0)
(0.443272 -0.220078 0)
(0.607839 -0.291276 0)
(-0.00178663 -0.000779585 0)
(0.0225835 -0.0126455 0)
(0.0739322 -0.0362666 0)
(0.151522 -0.071411 0)
(0.254868 -0.117581 0)
(0.383636 -0.174713 0)
(0.537588 -0.242953 0)
(0.716502 -0.320093 0)
(0.00701262 -0.000895425 0)
(0.0480215 -0.014019 0)
(0.115294 -0.0400286 0)
(0.208303 -0.078499 0)
(0.326714 -0.128695 0)
(0.470287 -0.190338 0)
(0.638833 -0.263369 0)
(0.832136 -0.345756 0)
(0.0166747 -0.000997649 0)
(0.0758175 -0.0152413 0)
(0.160267 -0.0433721 0)
(0.269695 -0.0847875 0)
(0.403912 -0.138534 0)
(0.562775 -0.204138 0)
(0.746146 -0.281345 0)
(0.953828 -0.368295 0)
(0.0270997 -0.00108588 0)
(0.105694 -0.0163133 0)
(0.208418 -0.0462996 0)
(0.33513 -0.090283 0)
(0.485783 -0.147113 0)
(0.66033 -0.216135 0)
(0.858689 -0.29692 0)
(1.0807 -0.387768 0)
(0.0381883 -0.00115993 0)
(0.137377 -0.0172364 0)
(0.259318 -0.0488167 0)
(0.40405 -0.0949977 0)
(0.57166 -0.154453 0)
(0.762199 -0.226367 0)
(0.97565 -0.31015 0)
(1.21189 -0.404256 0)
(0.0498426 -0.00121986 0)
(0.170595 -0.0180136 0)
(0.312549 -0.0509317 0)
(0.475911 -0.0989494 0)
(0.660897 -0.160586 0)
(0.867658 -0.234884 0)
(1.09625 -0.321109 0)
(1.34659 -0.417859 0)
(0.0619668 -0.00126598 0)
(0.205086 -0.0186485 0)
(0.367704 -0.0526562 0)
(0.550185 -0.102162 0)
(0.75287 -0.165553 0)
(0.97601 -0.241747 0)
(1.21974 -0.329884 0)
(1.48403 -0.428698 0)
(0.0744681 -0.00129882 0)
(0.240595 -0.0191463 0)
(0.424391 -0.0540046 0)
(0.626366 -0.104664 0)
(0.846984 -0.169402 0)
(1.08659 -0.24703 0)
(1.34541 -0.336577 0)
(1.62349 -0.436904 0)
(0.0872571 -0.00131909 0)
(0.276877 -0.0195128 0)
(0.482233 -0.0549941 0)
(0.703972 -0.106489 0)
(0.942672 -0.172187 0)
(1.19878 -0.250812 0)
(1.47261 -0.341299 0)
(1.76427 -0.442623 0)
(0.100249 -0.00132764 0)
(0.3137 -0.0197551 0)
(0.540875 -0.055644 0)
(0.782546 -0.107675 0)
(1.0394 -0.17397 0)
(1.31199 -0.253182 0)
(1.6007 -0.344168 0)
(1.90575 -0.446009 0)
(0.113363 -0.00132542 0)
(0.350846 -0.0198807 0)
(0.599983 -0.0559757 0)
(0.861661 -0.108262 0)
(1.13667 -0.174814 0)
(1.42567 -0.254233 0)
(1.72912 -0.34531 0)
(2.04734 -0.447224 0)
(0.126524 -0.00131347 0)
(0.388111 -0.0198981 0)
(0.659245 -0.0560117 0)
(0.940918 -0.108294 0)
(1.23402 -0.17479 0)
(1.5393 -0.254063 0)
(1.85733 -0.344855 0)
(2.18849 -0.44643 0)
(0.139663 -0.00129282 0)
(0.425306 -0.0198158 0)
(0.718373 -0.0557758 0)
(1.01995 -0.107815 0)
(1.33103 -0.173966 0)
(1.65243 -0.25277 0)
(1.98483 -0.342932 0)
(2.32872 -0.443796 0)
(0.152718 -0.00126455 0)
(0.462258 -0.0196427 0)
(0.777103 -0.0552919 0)
(1.09843 -0.10687 0)
(1.42729 -0.172414 0)
(1.76463 -0.250455 0)
(2.11119 -0.339675 0)
(2.46755 -0.439484 0)
(0.165629 -0.00122965 0)
(0.498812 -0.0193877 0)
(0.835198 -0.0545843 0)
(1.17604 -0.105506 0)
(1.52247 -0.170205 0)
(1.87551 -0.247217 0)
(2.236 -0.335212 0)
(2.60459 -0.433661 0)
(0.178345 -0.00118917 0)
(0.534826 -0.0190596 0)
(0.892442 -0.0536771 0)
(1.25251 -0.103765 0)
(1.61624 -0.167408 0)
(1.98473 -0.243154 0)
(2.35889 -0.32967 0)
(2.73947 -0.426483 0)
(0.190822 -0.00114403 0)
(0.570176 -0.0186673 0)
(0.948645 -0.0525935 0)
(1.3276 -0.101693 0)
(1.70833 -0.164091 0)
(2.09197 -0.238361 0)
(2.47954 -0.323175 0)
(2.87185 -0.418106 0)
(0.203019 -0.00109517 0)
(0.604753 -0.018219 0)
(1.00364 -0.0513564 0)
(1.4011 -0.0993313 0)
(1.79847 -0.160321 0)
(2.19697 -0.232928 0)
(2.59766 -0.315843 0)
(3.00145 -0.408678 0)
(0.214901 -0.00104339 0)
(0.638461 -0.0177228 0)
(1.05728 -0.0499873 0)
(1.47281 -0.0967206 0)
(1.88645 -0.156158 0)
(2.29947 -0.226945 0)
(2.713 -0.307789 0)
(3.12802 -0.39834 0)
(0.22644 -0.000989474 0)
(0.671221 -0.0171864 0)
(1.10944 -0.0485069 0)
(1.54259 -0.0938989 0)
(1.9721 -0.151664 0)
(2.39929 -0.220491 0)
(2.82535 -0.299119 0)
(3.25132 -0.387226 0)
(0.23761 -0.000934083 0)
(0.702964 -0.0166167 0)
(1.16002 -0.0469343 0)
(1.61029 -0.0909022 0)
(2.05524 -0.146893 0)
(2.49624 -0.213647 0)
(2.93452 -0.289935 0)
(3.37118 -0.375461 0)
(0.248392 -0.000877869 0)
(0.733635 -0.0160206 0)
(1.20893 -0.0452875 0)
(1.6758 -0.0877638 0)
(2.13575 -0.141898 0)
(2.59017 -0.206483 0)
(3.04035 -0.28033 0)
(3.48744 -0.363163 0)
(0.258771 -0.000821342 0)
(0.763192 -0.015404 0)
(1.2561 -0.043583 0)
(1.73904 -0.0845148 0)
(2.21352 -0.136726 0)
(2.68098 -0.199067 0)
(3.14273 -0.270391 0)
(3.59996 -0.350441 0)
(0.268735 -0.000765015 0)
(0.7916 -0.0147727 0)
(1.30148 -0.0418361 0)
(1.79993 -0.0811835 0)
(2.28847 -0.131422 0)
(2.76856 -0.191462 0)
(3.24155 -0.2602 0)
(3.70864 -0.337395 0)
(0.278276 -0.000709263 0)
(0.818836 -0.0141316 0)
(1.34503 -0.0400605 0)
(1.85843 -0.0777957 0)
(2.36055 -0.126026 0)
(2.85286 -0.183722 0)
(3.33673 -0.249829 0)
(3.81342 -0.324118 0)
(0.287389 -0.000654473 0)
(0.844886 -0.0134854 0)
(1.38674 -0.0382688 0)
(1.91449 -0.074375 0)
(2.42969 -0.120574 0)
(2.93381 -0.1759 0)
(3.42823 -0.239347 0)
(3.91422 -0.310694 0)
(0.296073 -0.000600905 0)
(0.869743 -0.012838 0)
(1.42657 -0.0364721 0)
(1.96811 -0.0709423 0)
(2.49589 -0.115101 0)
(3.01139 -0.168043 0)
(3.51601 -0.228813 0)
(4.01102 -0.297199 0)
(0.304328 -0.000548838 0)
(0.893407 -0.0121932 0)
(1.46454 -0.0346805 0)
(2.01928 -0.0675166 0)
(2.55914 -0.109634 0)
(3.0856 -0.160191 0)
(3.60005 -0.218283 0)
(4.1038 -0.283703 0)
(0.312157 -0.000498438 0)
(0.915884 -0.0115541 0)
(1.50066 -0.0329026 0)
(2.068 -0.0641146 0)
(2.61944 -0.104202 0)
(3.15643 -0.152383 0)
(3.68037 -0.207805 0)
(4.19256 -0.270268 0)
(0.319565 -0.000449902 0)
(0.937187 -0.0109235 0)
(1.53493 -0.0311464 0)
(2.1143 -0.0607511 0)
(2.67681 -0.0988268 0)
(3.22391 -0.144652 0)
(3.75698 -0.197424 0)
(4.27732 -0.25695 0)
(0.326558 -0.000403323 0)
(0.957331 -0.0103038 0)
(1.56738 -0.0294186 0)
(2.15821 -0.057439 0)
(2.73128 -0.0935293 0)
(3.28806 -0.137026 0)
(3.82991 -0.187179 0)
(4.35811 -0.243797 0)
(0.333145 -0.000358831 0)
(0.976337 -0.00969725 0)
(1.59805 -0.0277251 0)
(2.19975 -0.0541896 0)
(2.7829 -0.0883275 0)
(3.34893 -0.129532 0)
(3.8992 -0.177104 0)
(4.43498 -0.230853 0)
(0.339335 -0.000316465 0)
(0.994231 -0.00910545 0)
(1.62696 -0.0260708 0)
(2.23897 -0.0510125 0)
(2.83172 -0.0832369 0)
(3.40659 -0.122192 0)
(3.96492 -0.167227 0)
(4.50798 -0.218156 0)
(0.345138 -0.000276302 0)
(1.01104 -0.00852998 0)
(1.65416 -0.0244601 0)
(2.27594 -0.0479158 0)
(2.87778 -0.0782706 0)
(3.46108 -0.115025 0)
(4.02713 -0.157576 0)
(4.57718 -0.205739 0)
(0.350565 -0.000238338 0)
(1.02679 -0.00797202 0)
(1.6797 -0.0228964 0)
(2.31069 -0.0449066 0)
(2.92117 -0.0734397 0)