/*--------------------------------*- C++ -*----------------------------------*\
| =========                 |                                                 |
| \\      /  F ield         | OpenFOAM: The Open Source CFD Toolbox           |
|  \\    /   O peration     | Version:  2206                                  |
|   \\  /    A nd           | Website:  www.openfoam.com                      |
|    \\/     M anipulation  |                                                 |
\*---------------------------------------------------------------------------*/
FoamFile
{
    version     2.0;
    format      ascii;
    arch        "LSB;label=32;scalar=64";
    class       volScalarField;
    location    "0.1";
    object      p;
}
// * * * * * * * * * * * * * * * * * * * * * * * * * * * * * * * * * * * * * //

dimensions      [0 2 -2 0 0 0 0];

internalField   nonuniform List<scalar> 
918
(
-0.983473
3.41184
1.04905
-1.2891
0.249244
2.022
-1.68406
-0.736281
-0.203114
-0.364893
-0.442
-0.993255
-0.176601
-0.388479
-0.566517
-0.129244
-0.642142
-1.43211
-1.46894
-0.20915
-4.28085
-0.568742
-1.96066
-2.01613
-0.960455
-1.53251
-0.410114
0.17846
-0.284712
-0.16798
0.875323
0.0255955
-0.00906105
-1.17597
0.892425
4.99069
-1.35408
-0.347135
-1.46522
-1.47079
-1.59057
-1.76238
-0.700435
-0.667622
-1.09881
-0.773285
-0.858584
-1.5257
-1.87584
-0.239252
-2.59895
-2.1129
0.00753656
-0.189234
-0.451357
-0.721029
-0.288443
-0.382567
-0.307875
-0.431344
-0.437844
-0.447823
-0.329492
-1.00725
-1.01532
-1.04617
-0.973611
-0.995807
1.68593
2.29428
4.90454
-0.309894
-0.338518
0.256291
-0.0556519
0.0938974
-0.130887
-0.156517
-0.255677
-0.777291
-1.14688
-0.351499
-0.196067
-0.0907441
-0.146879
-0.157881
-0.677392
-0.67626
-0.623989
-0.626655
-0.0827926
-1.4425
-1.72767
-1.48341
-1.42972
-0.14219
-2.25191
-0.805181
-1.85773
-0.241208
-0.268076
-1.16148
-0.158518
-0.220221
-2.43276
-1.84916
-1.83324
-1.74208
-1.00897
-0.849802
-1.03986
-0.948713
-0.784086
-0.81597
-0.0899235
-0.965763
-0.665058
-0.955576
-0.424467
-0.498368
-0.309149
-0.563851
-0.150703
0.0312217
-0.0953163
-0.0471033
-0.0685589
-1.32792
-1.28019
-1.20641
-1.35322
-1.36002
-0.389791
-0.462742
-0.406196
-0.267321
-1.19212
-1.24917
-1.63546
-1.61373
-1.8013
-0.148647
-0.641196
-0.652385
-1.09249
-1.0226
-1.14591
-1.02928
-1.03285
-1.38913
-1.45155
-1.42428
-1.68034
-1.54284
-1.61166
-1.93761
-2.10282
-0.202323
-0.115829
-0.21983
-0.285048
-0.294702
-1.14495
-1.00283
-1.05315
-0.484338
-0.395205
-0.241695
-0.337021
-0.375609
-0.31711
-0.34914
-0.402108
-0.379523
-0.263681
-0.39374
-1.02138
-1.00485
-0.995828
-1.08854
-1.15164
-1.16655
-1.05814
-1.11028
-0.295368
-0.15636
-0.246335
-0.17414
-1.48062
-3.83577
0.184934
0.0652405
0.0192584
-0.0260123
7.49655e-05
0.143841
-0.0111231
0.00228244
-0.26069
-0.342532
-0.135304
-0.217049
-0.676845
-0.693641
-0.151447
-0.0931511
-0.10042
-0.16928
-1.28823
-1.27871
-1.36621
-1.32098
-0.517711
-0.244572
-0.379775
-0.945136
-1.36925
-1.15415
-0.970468
-0.994472
-0.938249
-0.968746
-0.731996
-0.829334
-0.773973
-0.0654399
-0.395705
-0.279498
-0.226374
-0.715203
-0.391533
1.52335
-0.145659
-0.540933
-1.16202
-1.23112
-1.1754
-1.31074
-1.22647
-1.2665
-1.15003
-1.17495
-1.16161
-0.570802
-0.619443
-0.277176
-0.397326
-0.258595
-0.292825
-0.239395
-0.168001
-0.643838
-0.668724
-0.648349
-0.888604
-1
-0.343212
-0.281241
-0.984202
-0.984327
-0.980924
-0.31523
-0.0237667
-0.224964
-0.188675
-0.36176
-0.410695
-0.75284
-1.76292
-0.930201
-0.0205462
0.0463405
-0.105619
-0.260116
-0.236316
-0.259487
-0.0944796
-0.171254
-0.28116
-0.302421
-0.255367
-0.285114
-0.419847
-0.59949
-0.337847
-0.209643
-0.686531
-0.31725
-0.120483
-0.251297
-0.167218
-0.15451
-0.147608
-0.953705
-1.01533
-1.03636
-0.36463
-0.205134
-0.282641
-0.300562
-0.207656
-0.221693
-1.63652
-1.32153
-0.0417344
-0.116943
-1.71267
-1.30835
-1.01057
-0.365346
-0.150081
-0.569601
-0.664358
-1.42646
-1.68263
-2.26017
-0.43041
-0.137183
-0.64169
-0.358125
-0.433531
-1.06332
-0.983747
-1.01783
0.534593
-0.249228
-0.398465
-1.1905
-1.34855
-1.55312
-1.47475
-1.31533
-1.40088
-0.0610709
0.210218
-0.244819
0.189022
-0.143165
-0.00769249
-1.51633
-1.23525
-1.10862
-1.41006
-1.7042
-1.42813
-1.49167
-1.37527
-1.43177
0.158063
-0.432985
0.0363385
-0.832031
-0.920692
-0.499307
-1.72255
-0.249181
-0.278385
0.137962
-0.369945
-0.994196
-0.738439
-0.846439
-0.690864
-0.760151
-0.528079
-0.736966
-0.528299
-0.690471
-1.02751
-1.2398
-0.958441
-1.25933
-1.6087
-1.83872
-1.45817
-1.51516
-1.30688
-1.96148
-0.172119
-0.112399
-0.904488
-1.02472
-1.14052
-0.38499
-0.204207
-0.263236
-0.301037
-0.213708
-0.306372
-0.915415
-0.604787
-0.971011
-1.08584
0.139577
-0.401291
0.279276
-0.0591137
0.238247
-0.404959
0.924931
-1.3973
-1.08565
-0.887119
-0.930992
-1.59294
-1.17768
-1.36011
-0.603242
-0.999355
-1.43708
-0.620383
-1.02247
-0.208567
0.172239
0.206995
-0.655504
-0.189288
0.031654
0.389768
-0.273065
-0.461084
1.09217
-1.08518
-0.384461
-1.30282
-1.23566
-0.221318
-0.355669
-1.49734
-1.91341
-1.51625
-1.59065
-1.59211
-1.72311
-2.15502
-1.448
-1.76177
-1.45904
-1.24375
-0.972747
-1.0798
-0.566439
-0.961809
-1.39687
-1.01779
-0.731024
-0.755576
-0.473007
-1.38999
-0.900762
-1.12131
0.630204
0.677807
-3.31633
-4.38056
-0.224902
0.0502881
-0.109906
0.191737
-0.0169221
0.0769871
-0.371532
-0.735675
-0.822243
-0.573997
-0.860262
-0.490754
-0.876812
-1.06175
-0.967807
-0.847677
-1.4185
-0.843546
-0.697082
-0.632668
-0.800081
-0.625036
-0.824668
-0.745577
-0.760178
-0.645305
-0.677509
-0.296259
-0.77116
-0.72068
-0.658436
-0.61969
-0.810969
-0.817222
-1.21803
-0.961918
-1.25634
-1.46705
-1.15301
-1.34806
-1.07084
-1.41883
-1.18814
-1.03652
-1.05802
-1.40504
0.014702
-0.258058
-0.218877
-0.322524
-0.333379
-0.816666
-0.133313
-1.10642
0.184107
-0.384657
-0.456659
-1.05353
-0.134711
-1.19881
-0.586211
-0.270254
-0.627494
-0.116709
-0.904644
-0.423427
-0.255088
-0.395862
-0.44175
-1.11898
-0.906431
-0.326323
-0.753759
-1.18586
-0.21818
-0.400195
-0.507965
-0.751069
-0.636541
-0.435747
-0.367685
-0.550385
-0.84656
0.10184
-0.633895
-0.569152
-0.101465
0.212327
-0.858617
0.651726
-1.02946
-1.32823
-1.09754
-0.53493
-0.853713
-0.950041
-1.12216
-0.804087
-1.02563
-1.11919
-1.09492
-0.742749
-1.16137
-1.41441
-1.31203
-1.33942
-1.02156
-0.959648
-0.917179
-1.32058
-1.15618
-0.884958
-0.842483
-0.480441
-1.15632
0.330089
0.521022
0.0644145
0.40852
0.893424
-0.18702
0.286969
-0.624184
0.0540533
-0.247933
-0.112573
-0.37618
-0.268874
-1.12975
-1.24775
-0.760307
-1.1142
-1.1329
-0.586545
-0.480999
-0.387976
-0.498345
-0.292207
0.0502623
-0.184932
-0.201025
-0.0647382
-0.29876
-0.378984
-0.248855
-1.21264
-1.04484
-1.5936
-1.44812
-1.42132
-0.115899
0.1329
-0.716138
-0.393929
-0.29608
-0.307395
-0.256146
0.239896
0.0502229
-0.366112
-0.839986
-0.720681
-0.960375
-0.868755
-0.862891
-1.25159
-1.22128
-1.26947
0.134464
-1.05279
-1.13207
-0.429913
-0.614085
-1.03303
-1.06565
-0.831615
-0.515943
-0.779538
-0.775083
-1.29429
-0.767683
-0.993935
-0.790511
-1.14326
-1.42908
-1.37658
-0.649231
-0.882585
-0.913803
-1.17329
-0.697524
-0.670382
-0.980128
-1.01445
-1.03626
-1.04042
-0.630331
-0.982609
-0.414434
-0.710622
-0.870675
-0.671876
-0.56987
-0.816372
-0.539144
-0.778093
-0.928085
-1.33744
0.19223
-0.848629
-0.479033
-1.12909
-0.834508
-0.693978
-0.794103
-1.09683
-1.07721
-0.599332
-0.659068
-0.628919
-0.512938
-0.6253
-0.613005
-0.689807
-0.36332
-0.783072
-1.50836
-0.705512
-0.906587
-0.817628
-0.642726
-0.382054
-0.330613
-0.785729
-0.325068
-0.294213
-0.532865
-0.648041
-0.852033
-1.07692
-0.946184
-0.795217
-0.646771
-0.113953
-0.276164
-0.493016
-0.449355
-0.712374
-0.798861
-0.823663
-1.37942
-1.4891
-1.8453
-1.20257
-1.56034
-1.47823
-1.4926
-1.41762
-1.08565
-1.6091
-1.01652
-0.993181
-0.808752
-0.270907
-0.412708
-1.04796
-0.916997
0.555713
0.202993
-0.00936109
-0.338462
0.239487
0.461829
-1.12026
0.173341
-0.32522
-0.462186
-0.401348
-0.232293
-0.0449202
0.000250316
-0.0253574
-0.316502
-0.40176
0.159754
-0.142566
-0.274334
-0.899506
-0.733272
0.200904
0.00655819
-0.0124583
-0.924888
-1.0479
-0.116682
0.0124035
-0.295216
-0.641427
-0.508076
0.023072
-0.341994
-0.46483
-1.39538
-1.09405
-0.806194
-0.445036
-1.12162
-0.785216
-1.56266
-0.720744
-0.930458
-0.931241
-1.16553
-0.729228
-1.28721
0.375987
0.630038
0.222044
-0.158541
0.228954
-0.543502
-0.948298
0.0341086
-0.853807
-1.11103
-0.348805
-0.942205
-0.797126
-0.524277
-0.786633
-0.39711
-0.34545
-0.19803
0.00414104
-0.245803
-0.260074
-0.895419
0.0581286
0.0939368
-0.478241
-0.282233
-0.295837
-0.4437
-0.634719
-0.375473
-0.562559
-0.735817
-0.380941
-0.203649
0.143243
-0.599381
0.0591158
-0.592203
-0.30977
-0.449981
-0.882865
-0.420742
-0.423479
-0.652128
-0.263104
-0.366768
-0.647817
-0.151632
0.23606
-0.662422
-0.619919
-0.644175
-0.700149
-0.839472
-0.529263
-1.23008
-0.797448
-0.755955
-0.574252
-0.58773
-0.764109
-0.116633
-0.340337
0.509253
0.103702
-0.173923
-0.544135
-0.653746
-0.33523
-0.501734
-0.515781
-0.406628
-0.302924
-0.676059
-0.853789
-0.764793
-0.839446
-0.525069
-0.818477
-0.23373
-0.647851
-0.911884
-0.433546
-0.802728
-0.538854
-0.560666
-1.36311
-0.796253
-1.36194
-1.15467
-1.68568
-1.51624
-0.7512
-0.969495
-0.0262905
-0.542508
-0.618531
-0.748183
0.701962
0.540503
-0.446271
0.372657
0.554266
-0.679624
-0.93668
-0.216317
-1.27622
-0.262189
-0.603676
-0.648494
-0.509072
-0.671314
-0.506632
-0.906997
0.31248
-0.240025
0.224121
-0.128486
-0.678693
-0.135219
-0.406766
-0.419286
-0.464306
-0.669285
-0.60249
-0.501077
-1.0561
-0.566854
-0.383885
0.178548
-0.677687
-0.869659
0.335946
-0.650829
-0.364282
-0.448167
-0.324779
-0.333823
-0.293349
-0.705618
-0.680085
-0.392677
-0.256568
-0.709757
-0.655996
-0.601296
-0.376195
-0.310146
)
;

boundaryField
{
    wall-4
    {
        type            zeroGradient;
    }
    velocity-inlet-5
    {
        type            zeroGradient;
    }
    velocity-inlet-6
    {
        type            zeroGradient;
    }
    pressure-outlet-7
    {
        type            fixedValue;
        value           uniform 0;
    }
    wall-8
    {
        type            zeroGradient;
    }
    frontAndBackPlanes
    {
        type            empty;
    }
}


// ************************************************************************* //
