/*--------------------------------*- C++ -*----------------------------------*\
| =========                 |                                                 |
| \\      /  F ield         | OpenFOAM: The Open Source CFD Toolbox           |
|  \\    /   O peration     | Version:  2206                                  |
|   \\  /    A nd           | Website:  www.openfoam.com                      |
|    \\/     M anipulation  |                                                 |
\*---------------------------------------------------------------------------*/
FoamFile
{
    version     2.0;
    format      ascii;
    arch        "LSB;label=32;scalar=64";
    class       surfaceScalarField;
    location    "0.1";
    object      phi;
}
// * * * * * * * * * * * * * * * * * * * * * * * * * * * * * * * * * * * * * //

dimensions      [0 3 -1 0 0 0 0];

oriented        oriented;

internalField   nonuniform List<scalar> 
1300
(
3.75095
5.62643
-6.83535
3.75095
-6.33641
5.62643
-6.47382
6.47382
-1.25612
1.25612
1.95377
1.79719
-5.87718
5.87718
-5.64965
5.64965
-3.10627
3.10627
-5.24195
5.24195
-5.13924
5.13924
3.64546
-3.64546
-5.34406
5.34406
-2.08105
2.08105
-6.49274
6.49274
3.25977
-3.25977
-5.6881
5.6881
0.626334
-0.626334
-0.36742
4.11837
3.38353
3.38353
-2.71811
2.71811
-5.7556
5.7556
6.23676
-6.23676
10.0155
-10.0155
-3.18011
-3.25638
1.07986
-7.75884
-5.25655
-5.25655
-8.63767
8.63767
-3.01124
2.61519
3.2295
-3.2295
-2.74274
2.74274
-6.16937
-0.304446
-6.16937
6.66614
-0.192325
6.66614
-1.51239
0.256265
-1.51239
4.86154
-4.86154
0.936879
0.319243
0.936879
3.19884
-3.19884
-1.9044
3.85817
1.84655
-1.79032
5.90869
-1.96064
3.75782
-4.97126
4.97126
-6.00625
0.129069
-6.00625
5.77507
0.102111
5.77507
-5.55391
5.55391
-5.6595
0.0098468
-5.6595
5.63373
0.0159244
5.63373
3.29736
-3.29736
-3.13436
0.0280888
-3.13436
3.05743
0.0488408
3.05743
0.0335608
5.59287
-5.65999
8.27518
-5.59287
0.350921
5.34521
-0.103258
5.34521
-5.27688
0.137641
-5.27688
5.49158
-0.352346
5.49158
3.61082
0.0346369
3.61082
-4.04733
0.401866
-4.04733
-3.27037
-3.22853
-5.43081
0.0867507
-5.43081
-2.15086
0.0698072
-2.15086
2.00352
0.0775326
2.00352
-3.99508
3.99508
-6.73474
0.241999
-6.73474
3.21113
0.0486417
3.21113
1.82683
1.92412
5.57779
-5.57779
2.31801
-5.67388
-0.0142185
-5.67388
-5.76192
-4.25354
5.76192
-0.0738161
-0.0872616
0.713595
-0.0872617
3.26004
0.123496
3.26004
2.94861
0.108825
-2.94861
0.230502
3.71214
-3.71214
2.16723
0.550881
2.16723
-5.44895
5.44895
5.42421
0.0673697
-5.42421
-0.331387
6.23127
0.00548609
6.23127
-6.21858
-0.0181789
-6.21858
3.29202
-6.5484
-3.24398
5.258
0.0860571
-5.258
0.00145133
3.20129
0.0282093
3.20129
-3.18704
3.18704
-3.19987
-0.0296313
-3.19987
-2.71526
-0.027487
-2.71526
2.74592
-0.00317923
2.74592
-5.74635
-0.423021
-5.74635
-6.76007
0.0253247
6.76007
-0.0939281
3.10445
-3.10445
-1.71455
0.202167
-1.71455
-5.27121
-0.475136
5.27121
-0.409673
-4.58568
-0.275855
-4.58568
-3.18572
-0.0141555
3.18572
0.0131207
3.20355
0.0564903
-3.20355
0.00471036
-1.87857
3.80269
-1.87238
3.71893
-4.65164
-0.319619
-4.65164
5.13112
-0.159854
5.13112
6.33747
0.155273
-6.33747
0.331226
5.62536
0.149708
5.62536
-5.45573
-0.0981795
-5.45573
5.52894
0.0249664
5.52894
5.63321
-0.00785656
-5.63321
-0.0262836
5.71679
-0.0830617
5.71679
3.33726
-0.0399085
3.33726
-3.22126
-0.0760966
-3.22126
3.15486
-3.15486
3.1197
0.0351565
-3.1197
-0.0146576
-10.9018
10.8837
0.0401009
-10.9419
5.38531
5.38531
3.01982
0.591004
3.01982
-4.45728
0.409959
-4.45728
3.23249
-6.47647
3.28617
-6.55654
3.40842
-11.1673
3.26413
-6.49266
5.50624
-5.50624
5.42391
0.0823251
-5.42391
-0.00690025
-2.18037
0.0295106
-2.18037
-3.7739
-0.221185
-3.7739
4.27226
-0.27718
4.27226
-3.17967
3.17967
-3.19139
0.0117146
3.19139
0.0197418
5.62061
0.0961757
-5.62061
-0.0532712
0.569938
0.366941
-0.569938
0.482676
3.85877
-0.146632
3.85877
-3.49613
-0.216013
-3.49613
-2.17719
-0.00318342
2.17719
-0.00996031
-5.86166
0.412703
-5.86166
-10.9566
0.0147179
-11.0599
-6.20386
-6.20386
2.43381
10.709
-3.21952
-0.00174028
3.21952
-0.0182252
3.16028
0.019398
-3.16028
-0.0267594
-3.1821
0.0272391
3.1821
0.00493527
-2.74748
0.0322282
-2.74748
-2.81339
2.81339
-2.81604
0.00265037
2.81604
-0.0701182
3.18509
-0.0806457
3.18509
1.88321
0.120309
-1.88321
0.168656
-4.30908
-0.276606
-4.30908
5.26434
-0.133229
5.26434
-3.40573
-0.0904022
3.40573
-0.0684637
-0.0341309
10.9178
-5.35118
0.0742975
5.35118
-10.9233
10.9976
-2.84593
0.0984462
2.84593
0.173887
5.00932
0.439634
-5.00932
0.552034
5.5136
0.0153428
-5.5136
0.00736133
-3.53526
-0.238639
-3.53526
-4.45167
-0.199976
4.45167
-0.179402
-10.7621
-0.39042
11.1525
-11.1144
6.25208
-0.0208011
-6.25208
10.9768
-2.91724
-0.187208
2.91724
-0.103847
3.31776
-0.132665
3.31776
4.08591
-0.227134
-4.08591
-0.223168
-5.46444
0.00870877
5.46444
-0.200091
-3.43965
-0.0956096
3.43965
-0.121894
-4.12771
4.25121
1.78098
-3.31608
-3.23232
-7.56962
1.97047
1.83222
4.28848
-6.89052
-4.27675
-6.88907
6.33505
-5.78302
-6.17026
6.2049
7.66783
-7.94369
-5.65118
5.67092
6.36338
-6.35026
1.88445
1.97371
10.523
-10.3939
-10.0137
9.69406
9.89923
-9.88938
10.4294
-10.5276
-11.8266
11.8419
-5.55233
5.58042
-6.48736
6.41126
-6.53738
6.46891
-3.29777
-3.25877
8.72551
-8.63876
11.4235
-11.4377
-11.2719
11.5139
3.2959
0.955302
3.35239
-1.87644
3.76089
-1.88139
3.66237
3.14693
-6.4447
3.32954
-6.56186
5.78953
5.63399
-5.71571
-1.85391
-5.73443
5.76264
-5.65849
5.66343
11.0467
-11.3512
-1.79543
3.76914
-1.9235
3.75573
-3.32787
-2.32331
3.27922
1.00926
5.38606
3.33946
-5.47211
-1.41695
-7.45427
7.22713
-7.64812
7.43211
0.948329
5.00945
-5.95778
6.70393
-1.99935
7.0088
4.3357
4.74566
5.46543
-5.0258
0.317588
-6.27537
-6.60676
-2.15926
2.36143
1.88361
-1.56437
6.51435
1.15348
6.10467
-5.44265
-2.50104
-5.71926
3.74514
1.92578
3.75685
4.02414
2.33923
4.00999
2.95722
-3.15289
0.195673
-3.05793
6.01514
0.616251
-5.38124
-4.37198
6.73381
3.78917
6.83592
-7.23883
-3.15508
-6.90761
-6.02231
-3.99138
-6.22228
6.36394
3.33013
6.20408
-7.8298
7.62971
6.51453
3.3847
6.53046
-6.56579
-3.3236
-6.59207
10.5562
-2.90448
-7.65175
-6.87011
-4.95645
6.84515
3.58426
7.31368
4.52822
7.32104
3.42665
7.12959
-7.01091
2.05446
-3.70661
-1.84572
-3.72127
3.60596
1.97446
3.6548
-4.11093
-2.37643
-4.11267
-4.16347
-2.37391
4.20337
2.20789
-4.22298
-3.42515
4.31338
2.15553
2.98408
-7.26082
3.50858
-6.76735
-6.11698
-2.52178
-6.12388
4.23464
2.60062
-6.83526
-2.21007
10.6258
-4.99185
8.77193
-7.22723
-4.21051
-7.2805
-8.75785
-2.51407
-8.73253
-5.09549
4.85685
-5.59206
5.31488
10.1852
-5.70674
-4.47846
-3.94241
-2.40785
3.9377
-0.585304
-3.67946
3.87513
0.081435
3.7438
4.6991
4.1138
-3.7498
-1.90869
-3.77656
3.71815
1.94527
3.74539
8.73318
2.31355
8.54085
-7.51538
-3.8358
-7.9384
5.28894
-5.31643
2.84762
-2.8508
5.09473
2.33738
-4.9481
-2.50617
5.77242
-2.96192
-2.8105
-9.82198
6.35155
3.47043
-2.81318
3.89075
3.26442
-4.01099
-2.15927
3.60912
1.13654
7.48809
5.32882
-5.14203
5.55473
6.01045
6.07782
-0.528932
3.53645
-3.43801
6.4919
-1.12121
-5.37068
5.77785
-6.25299
-2.16054
-6.16266
4.00212
-0.148317
0.589123
0.124472
-1.86275
-0.296508
-1.69409
0.791212
1.0924
1.15815
1.06918
1.29224
-2.38121
0.015863
2.36535
-1.31203
-1.54851
-4.23094
-0.0921784
4.32312
5.51566
1.71148
-5.29249
-0.426767
2.50666
-2.42912
-1.74599
-2.48495
1.11316
-2.85914
-3.08405
-2.19184
5.27589
-3.23339
-0.543168
3.21399
0.542863
-3.71799
-2.01644
3.74762
0.262362
-2.91374
5.98974
-3.07601
-4.82243
2.54653
3.46861
4.47231
-4.66276
2.39398
2.26878
-1.19414
5.63663
1.19929
5.78634
-9.08721
5.93214
7.80613
3.7078
-7.9614
1.05379
-8.03342
9.33903
-8.34777
-0.991257
4.91123
4.4278
5.06594
5.11925
-3.62736
8.6933
-1.22033
-7.12745
9.25375
-5.54595
5.56102
-11.107
-10.6803
3.55283
-6.52719
8.42833
-1.90114
-2.59938
-5.23042
9.12657
-0.840438
-8.28613
5.36365
-5.06003
-5.36488
10.4249
-7.96452
8.68847
-2.52136
-6.16711
-6.66051
-3.86708
6.6518
0.977912
-9.74717
11.8016
-2.61758
5.90037
0.630089
5.81731
3.75616
-5.86876
2.11259
4.20835
-6.72971
2.50141
-8.37017
-4.77489
9.50504
-4.73015
-7.29667
-6.58162
-0.715047
2.05255
9.74909
-6.58077
5.30214
1.27863
3.18107
0.564323
-3.21623
-0.505043
0.280876
4.41391
-4.69479
3.93568
4.0445
3.35583
1.05808
3.76209
2.00055
-3.74386
-0.368809
-3.90186
1.52795
-1.69398
-3.40496
4.93291
-3.96285
0.557889
-2.5756
-3.37989
5.95549
-4.42132
2.86838
3.12136
4.81366
-4.67259
1.2927
-2.3643
-2.30829
2.67015
-4.36413
1.83279
3.10013
3.98832
0.563173
4.78909
4.71595
-7.38971
0.622367
8.05541
-6.63846
1.60555
5.71549
-6.90769
0.326068
-5.79781
1.16198
-6.15383
-5.67328
6.17556
-8.68963
-4.93141
8.05208
0.488778
-7.95815
-0.77438
-3.55078
-1.54471
-3.64639
-1.88654
-3.70552
-5.5139
-0.930143
-4.58376
3.92671
-4.10491
-2.11737
4.28431
1.03057
-4.4252
4.23799
-4.29959
4.16692
0.238372
3.63676
4.35217
1.94432
-2.44262
4.38694
-6.72344
9.03699
-10.7838
4.06038
4.68318
-8.51898
-6.10064
3.16301
2.12593
3.15983
5.64783
-6.81442
1.16659
-6.37481
7.63521
-1.2604
-9.6815
3.30669
-4.03367
2.5165
0.331114
2.54601
0.631051
2.35903
-2.99008
-2.21975
-2.22971
-2.30131
-3.38891
5.69021
0.850816
-3.16237
2.31155
-3.35804
4.20885
-0.0915495
-3.07082
4.90557
-2.54653
5.23668
-3.44958
1.7871
3.22589
5.37212
-2.14624
4.09745
-1.76008
1.79762
-3.94385
-1.59129
-2.9849
4.95936
-2.97059
3.52848
-0.264567
3.79304
-3.83791
0.87599
-0.482082
3.56242
3.79292
4.0446
-2.98652
2.70975
-4.46983
-1.2341
-3.90665
-0.806525
-0.912187
-5.10625
6.01844
4.78428
-5.69647
-2.63778
5.37457
-2.73679
4.38552
-2.89509
-1.49043
-2.60116
-2.71527
2.56893
0.967524
5.35305
0.336269
-3.23136
-3.10174
-2.92785
4.94051
1.55138
-1.26203
4.73246
-2.00239
2.59151
0.912339
0.245814
1.02231
-0.109973
-0.852962
1.87527
-0.72849
1.78332
0.723336
-1.90363
0.209536
-1.98316
3.09631
0.382194
-1.47459
1.36462
2.534
-3.65522
5.14517
-1.69865
-3.44652
7.67918
1.86954
-3.56819
4.29312
-4.44143
3.01129
-3.10346
-0.556904
-4.99834
-3.84485
-2.23458
4.54613
-3.45563
5.16711
1.46209
-4.74034
6.20243
-3.58716
1.39532
-2.59548
3.31881
-0.621686
-1.97379
2.43991
2.83597
-2.89591
0.410957
-0.455994
1.94486
-2.40085
-0.914287
-2.22632
-4.60952
4.87188
-2.11665
4.51063
2.27028
-1.91835
6.42899
1.70119
-3.61954
-3.12124
-3.66441
-1.35076
3.12155
-0.895758
-5.69631
-7.06287
5.70417
0.0821667
-9.02395
10.0097
-0.98576
-5.23478
-0.697358
5.60859
-7.46982
0.740112
-4.96841
5.0413
6.24059
6.32276
-8.10595
-0.18018
-4.77583
1.40086
-6.17669
5.82866
-2.74764
6.30047
-6.97623
4.85886
-5.94566
5.30921
-0.867482
5.48448
-3.37189
2.16727
-6.03435
-5.05644
6.90384
-3.51914
7.53393
-4.28819
11.8221
-6.90577
6.7651
5.05702
-1.45906
-5.82144
-6.85714
5.39808
-0.0920389
5.72527
4.99143
-2.99088
4.62262
2.11794
-4.48223
-2.24619
-6.33891
1.85667
-3.21755
-1.71862
3.57529
3.09503
3.65936
1.267
-3.15431
6.65649
-7.37154
-1.92634
-3.74694
6.54425
-1.14617
3.82009
-7.56703
-2.33374
5.15053
-0.591377
-4.55916
0.556203
-5.48761
2.46701
-7.95462
6.22263
-6.99701
1.41299
-5.44666
-3.01221
-3.11606
-1.23964
-3.05994
-4.40409
3.16445
-1.0974
3.14059
-5.75879
5.16742
-1.87642
5.04087
-3.19294
-0.453449
3.31483
0.852087
5.89296
0.0212672
-6.12191
-1.98092
5.69089
-3.70998
2.9596
-5.08499
0.605907
3.68226
3.99692
-7.68437
-0.834607
-6.95651
-2.2629
4.38884
3.11166
7.89594
1.08152
4.84509
-0.456253
5.92661
2.70358
2.63346
-3.91671
5.0833
2.10173
6.16211
-0.82173
2.60883
1.72428
1.79409
0.635033
2.33703
1.45589
3.21302
0.222937
-2.00677
2.60934
-5.53719
-0.622022
-4.94619
1.25871
3.76624
-2.50753
4.62292
-3.07154
0.912946
2.43172
-3.21013
0.778406
-2.93896
-0.618619
1.25666
-0.744995
2.10962
2.35132
-3.36627
0.427309
-0.153938
-3.69092
3.2574
-2.84645
-0.0104723
6.19195
-2.40861
0.00775691
-1.01328
-2.21856
-2.51507
2.30553
6.15696
0.272022
3.08096
5.1439
3.12747
0.13659
4.13504
-6.03618
-4.23513
-6.21636
-0.387702
5.22089
1.7821
7.96698
6.83912
5.69295
-1.87408
-9.24561
7.50669
-2.42339
6.24629
-1.68713
-6.26749
6.32909
2.70791
-6.81786
-0.179143
-6.44663
-8.87002
-0.226603
5.39402
-5.66636
5.21291
3.6682
0.915562
-2.57667
-0.539384
2.57402
0.0594333
5.98604
-1.05368
-5.26062
6.3143
-2.71256
2.09054
3.35987
1.37259
4.13828
1.06674
-4.19389
-6.70141
-1.29023
-2.36499
-4.73675
-0.413634
-1.93768
3.89452
-1.80398
2.40408
4.51032
5.42326
-1.47298
-4.22349
4.20977
-1.80568
3.61758
)
;

boundaryField
{
    wall-4
    {
        type            calculated;
        value           uniform 0;
    }
    velocity-inlet-5
    {
        type            calculated;
        value           uniform -3.75095;
    }
    velocity-inlet-6
    {
        type            calculated;
        value           uniform -5.62643;
    }
    pressure-outlet-7
    {
        type            calculated;
        value           nonuniform List<scalar> 8(6.83535 6.33641 6.43649 6.67898 6.4989 6.53599 6.51866 6.67255);
    }
    wall-8
    {
        type            calculated;
        value           uniform 0;
    }
    frontAndBackPlanes
    {
        type            empty;
        value           nonuniform List<scalar> 0();
    }
}


// ************************************************************************* //
