/*--------------------------------*- C++ -*----------------------------------*\
| =========                 |                                                 |
| \\      /  F ield         | OpenFOAM: The Open Source CFD Toolbox           |
|  \\    /   O peration     | Version:  2206                                  |
|   \\  /    A nd           | Website:  www.openfoam.com                      |
|    \\/     M anipulation  |                                                 |
\*---------------------------------------------------------------------------*/
FoamFile
{
    version     2.0;
    format      ascii;
    arch        "LSB;label=32;scalar=64";
    class       volVectorField;
    location    "0.1";
    object      U;
}
// * * * * * * * * * * * * * * * * * * * * * * * * * * * * * * * * * * * * * //

dimensions      [0 1 -1 0 0 0 0];

internalField   nonuniform List<vector> 
918
(
(0.508791 -0.411465 0)
(0.856985 2.04758 0)
(-0.344641 1.6897 0)
(0.416599 0.319369 0)
(0.469898 1.73854 -4.93242e-20)
(-0.720499 1.55596 -7.43602e-19)
(1.10495 1.83444 3.07151e-19)
(0.426182 0.247482 3.1949e-21)
(0.575257 -0.0137749 0)
(0.00344437 1.80672 0)
(0.00269267 1.73757 0)
(0.955237 0.000455903 0)
(0.202008 2.94974 0)
(0.148565 2.89671 0)
(-0.0790024 2.55662 9.89999e-20)
(-0.00409891 1.72507 2.58264e-20)
(0.676969 0.169073 -1.99624e-19)
(0.126953 2.09619 2.62265e-19)
(0.995558 0.00514071 0)
(0.0019588 1.74922 0)
(-0.348413 -0.276117 8.1693e-19)
(0.32278 -0.139214 0)
(0.942355 0.0703703 0)
(1.06549 0.0185442 0)
(0.852631 0.0123818 0)
(0.0774824 3.18963 0)
(-0.0133673 2.95495 -5.97331e-20)
(-0.573692 1.76649 0)
(-0.0356082 1.71291 0)
(-0.112782 1.7733 0)
(0.100821 1.64485 0)
(-0.20578 1.54327 3.79636e-20)
(-0.00897385 1.76908 0)
(-0.842081 3.08228 2.19917e-23)
(-0.0194595 3.22021 5.91374e-19)
(0.0229588 2.56416 0)
(0.993505 -0.00132505 0)
(0.857977 1.34883 -4.97263e-20)
(1.0865 1.70068 -4.60562e-19)
(1.24943 1.60077 3.85515e-19)
(0.927257 1.89382 -7.2331e-20)
(0.905034 2.01434 3.99903e-19)
(0.445886 0.307196 -3.11307e-21)
(0.499661 0.255261 0)
(1.37924 0.832536 0)
(0.341374 0.31473 -1.59636e-20)
(0.328056 0.214764 1.66047e-20)
(0.984786 -0.00308568 0)
(1.15763 -0.0075882 0)
(0.573277 0.00295215 0)
(1.07969 -0.0637634 0)
(1.10673 -0.0393263 0)
(0.641054 0.0426342 0)
(0.00778355 1.6358 7.55203e-20)
(0.0354934 1.82952 0)
(0.0126091 1.84555 0)
(0.00533734 1.79516 0)
(0.00197332 1.77585 0)
(0.00211228 1.72779 0)
(0.00921635 1.74256 0)
(0.00270656 1.74077 0)
(-0.0399042 1.73708 0)
(-0.00405973 1.73236 0)
(1.01392 0.000520195 0)
(0.961621 0.00929368 0)
(0.964036 0.000969394 0)
(0.9497 0.00101125 0)
(0.939398 -3.7731e-05 0)
(-0.21139 2.60096 8.53868e-20)
(0.32986 2.81584 0)
(0.140725 1.44761 0)
(0.378937 3.14661 -7.96773e-25)
(-0.168505 3.27662 -1.29516e-19)
(-0.0747575 2.94345 0)
(-0.0388828 3.00225 0)
(0.205347 2.96295 -2.06927e-26)
(0.0455348 2.96927 0)
(-0.300682 2.95501 0)
(-0.171069 3.06984 0)
(0.163975 2.61751 0)
(-0.0621121 2.93287 0)
(-0.0362769 2.58171 -8.83166e-20)
(-0.0499464 2.58698 0)
(0.00523676 1.74032 0)
(-0.0141031 1.73026 -2.54675e-20)
(-0.00342785 1.72854 2.65843e-20)
(0.702201 0.171088 7.13115e-20)
(0.713692 0.137124 7.10621e-20)
(0.665703 0.210092 2.06355e-19)
(0.643978 0.201296 1.33596e-19)
(0.149257 1.41901 0)
(0.337608 2.08951 -2.68895e-19)
(0.404699 2.17779 4.45012e-19)
(0.997419 0.0147797 0)
(0.987915 0.000857695 0)
(0.58633 -0.00191257 0)
(1.14407 -0.0287333 0)
(0.892254 0.0769997 1.29745e-18)
(0.977645 0.297091 -1.06985e-18)
(-0.000574136 1.75057 0)
(0.0034631 1.74508 0)
(-0.0881895 1.59384 0)
(-0.0409273 1.76279 0)
(-0.0119028 1.7589 0)
(-0.288354 0.164927 -2.14175e-19)
(0.0283269 0.0371173 0)
(1.0265 -0.0201472 0)
(1.002 -0.00290334 0)
(0.926575 0.0705805 0)
(0.874241 0.210507 0)
(0.897931 -0.0010634 0)
(1.15391 -0.00685414 0)
(0.826911 0.0464604 0)
(0.79088 0.0262667 -4.04248e-19)
(-0.0378587 2.85468 -1.29669e-20)
(0.156178 3.14406 0)
(0.0829531 3.19408 0)
(0.0463409 3.04032 0)
(0.0936922 2.97019 -8.32028e-20)
(-0.00521197 2.97033 0)
(0.00308215 2.96152 2.2448e-19)
(-0.0294407 2.96728 -8.57239e-20)
(0.022136 1.7496 0)
(0.0055031 1.73527 0)
(0.00953602 1.72865 1.79227e-22)
(-0.0301778 1.74833 0)
(-0.000522893 1.7258 0)
(0.991061 -0.0106411 0)
(0.984855 -0.0021186 0)
(0.980192 0.000533171 0)
(0.991383 -0.0220737 0)
(0.983539 0.00265963 0)
(0.864407 1.41534 6.13645e-20)
(0.934653 1.39085 0)
(0.833108 1.3397 -6.92002e-21)
(0.778648 1.30209 0)
(1.18848 1.46628 -1.12829e-19)
(1.32807 1.33217 2.22409e-19)
(0.554242 2.09427 0)
(0.752785 2.02294 0)
(0.66758 2.13349 0)
(0.530432 1.29467 1.81856e-20)
(0.517667 0.299505 0)
(0.555924 0.246663 -3.83707e-20)
(1.2357 1.23262 0)
(1.27471 0.994471 0)
(1.36798 1.07057 -2.07217e-19)
(1.30698 0.765265 0)
(1.38823 0.625178 1.28566e-20)
(0.983116 0.0303573 0)
(0.98332 -0.0108116 0)
(0.979838 -0.00140546 0)
(0.994969 -0.00266019 0)
(0.98716 -0.0520517 0)
(0.984417 0.00133226 0)
(1.13141 0.00981925 0)
(1.0802 0.00309051 0)
(0.575672 0.00287714 0)
(0.0611588 1.6052 -3.01576e-20)
(0.000988712 1.56232 0)
(0.0431049 1.65413 -1.02076e-19)
(0.00665223 1.66023 1.14086e-19)
(0.0615248 2.01121 -2.17459e-19)
(0.0792786 1.9046 0)
(-0.00494552 1.96654 0)
(0.00849619 1.75712 0)
(0.00150572 1.72964 0)
(0.0108153 1.7181 7.67842e-22)
(-0.00777276 1.70631 0)
(-0.00917888 1.72601 5.9384e-20)
(-0.000702263 1.71699 -1.09587e-19)
(0.0137536 1.73409 0)
(0.0313655 1.74029 0)
(8.14458e-05 1.73223 0)
(-0.00558128 1.74919 0)
(-0.000709957 1.75822 0)
(1.02243 0.0130886 0)
(1.02611 -3.58646e-05 0)
(1.00415 0.0153156 0)
(0.990589 -0.00157439 0)
(0.970231 -0.000409294 0)
(0.966733 0.00313854 0)
(0.963741 0.0172368 0)
(0.959337 -0.000216777 0)
(-0.0239113 2.96887 5.46287e-22)
(0.0218332 3.02177 0)
(-0.0331252 3.04429 0)
(-0.0270316 3.03117 0)
(0.425637 2.70831 0)
(1.52459 2.04687 1.67281e-19)
(-0.10335 2.62359 0)
(-0.0604496 2.63709 0)
(-0.00542461 1.72241 0)
(-0.00648647 1.75329 0)
(-0.0118407 1.73812 0)
(0.154709 1.74754 -8.85655e-20)
(0.0166881 1.73243 0)
(-0.0548816 1.79331 0)
(0.00312335 1.72004 9.21732e-21)
(0.0256643 1.71692 -5.20268e-20)
(-0.0210562 1.7223 -2.72014e-20)
(0.00280306 1.70701 0)
(0.732364 0.167018 -1.13161e-19)
(0.7439 0.0978192 1.12149e-19)
(0.216814 1.41891 0)
(0.215603 1.37641 5.88704e-21)
(0.142265 1.47363 2.86033e-20)
(0.0694022 1.48081 -2.98491e-20)
(0.977897 -0.000745958 0)
(0.981293 -0.0141394 0)
(0.986353 0.00742326 0)
(0.98149 0.000377957 0)
(0.0270631 1.74763 0)
(0.0305528 1.74009 0)
(0.00205034 1.72822 0)
(0.215299 0.28465 -1.5772e-19)
(0.0188305 0.244292 2.58175e-19)
(0.206922 0.151894 0)
(1.17951 0.0913033 -1.99897e-20)
(1.25013 0.066073 0)
(1.11115 0.0557618 0)
(1.0745 -0.00105885 0)
(0.767924 0.0963529 0)
(0.797311 0.0620688 6.44047e-19)
(0.771224 0.0578755 -2.32133e-19)
(-0.0791072 2.89878 -5.20142e-20)
(-0.0844765 2.94314 -3.04242e-20)
(0.0189226 2.98192 1.9791e-21)
(-0.0453703 3.15631 -5.0319e-20)
(-0.0851094 3.04119 -3.5597e-21)
(0.0412893 3.01547 9.95299e-24)
(-0.100449 2.62259 -9.00977e-20)
(0.232248 2.96267 6.51011e-20)
(-0.246496 3.04512 5.03197e-20)
(0.993414 -0.0190614 0)
(0.988143 0.0458091 0)
(0.989434 0.00353197 0)
(0.976841 -0.00188209 0)
(0.978092 0.0109962 0)
(0.971797 -0.000442169 0)
(0.976221 -0.0107211 0)
(0.981346 0.00382846 0)
(0.978666 0.000170888 0)
(0.94587 1.47928 1.03914e-19)
(1.04132 1.45883 0)
(0.628654 1.24909 -7.52669e-21)
(0.645573 1.30724 -9.95751e-20)
(0.732511 1.32811 3.15595e-20)
(0.708217 1.29248 -7.41012e-20)
(0.49554 1.31492 -1.0068e-19)
(0.465267 1.29127 -7.42543e-21)
(0.62802 0.239445 -1.4183e-19)
(0.57675 0.275762 -4.10216e-20)
(0.604702 0.227976 -7.08806e-20)
(1.31283 0.558767 1.66738e-19)
(1.36333 0.427476 1.83643e-19)
(0.0145005 1.67405 -5.93927e-20)
(0.00189534 1.67828 0)
(1.06377 0.0204306 0)
(1.03918 0.0159178 0)
(1.04727 0.000359578 0)
(-0.0771172 3.0497 0)
(0.138079 3.01023 -2.88792e-20)
(0.0646867 3.04657 0)
(0.0207825 3.01294 2.8867e-20)
(-0.189344 3.04384 -3.48732e-20)
(-0.121052 2.94381 0)
(1.05127 1.59934 -4.36961e-20)
(1.29212 1.69329 1.52344e-19)
(1.12875 1.54699 -2.48408e-19)
(-0.135963 2.83199 7.40791e-21)
(-0.141229 2.72519 0)
(-0.0532854 2.77437 0)
(-0.0104239 1.71905 4.80504e-21)
(0.0417285 1.71844 8.65211e-20)
(-0.0032233 1.71445 2.08175e-21)
(0.278035 1.36862 -2.8056e-20)
(0.271103 1.32365 1.8073e-20)
(0.00751864 1.55246 -5.60309e-20)
(0.0751689 1.5183 6.20631e-20)
(0.00841826 1.52095 -2.60588e-21)
(0.125951 2.93606 1.66282e-19)
(0.0322764 3.0625 -1.93644e-19)
(0.195392 2.99837 -8.23285e-20)
(-0.216571 3.03455 7.85644e-20)
(0.0694812 3.02789 8.35046e-20)
(-0.181501 2.91138 2.55212e-19)
(-0.245972 3.04125 -2.60677e-19)
(0.562803 1.29298 0)
(0.58209 1.28198 1.25835e-19)
(0.572771 1.25553 -4.34327e-20)
(0.441834 1.32098 -3.75309e-20)
(0.40394 1.30906 6.1855e-20)
(1.24427 0.209869 -7.80731e-20)
(1.2794 0.41287 0)
(1.32821 0.244207 9.43752e-20)
(-0.0652889 1.71982 1.04134e-21)
(0.0278237 1.70422 0)
(0.00562539 1.72195 0)
(0.298409 1.35012 2.84696e-20)
(0.377588 1.33638 3.30627e-20)
(0.344703 1.32327 -6.22201e-20)
(0.958512 -0.0543618 0)
(1.01503 -0.0947252 -2.51528e-19)
(0.145 1.71578 0)
(0.0513526 1.52515 0)
(1.00989 -0.09463 4.33439e-20)
(0.839381 -0.0670035 -3.74536e-19)
(0.198767 1.88802 1.17973e-19)
(0.108126 1.68229 0)
(-0.0782268 2.78696 -4.84383e-20)
(0.238374 2.49752 0)
(1.21004 0.690471 5.18716e-20)
(1.047 -0.00249861 4.90526e-20)
(1.02305 0.0158098 0)
(0.877946 0.00181337 6.96684e-21)
(0.0278984 1.91722 0)
(0.0604044 1.71167 0)
(-0.0123152 1.82567 0)
(0.0388713 1.79245 -1.56354e-19)
(0.0203921 1.79206 -6.15833e-21)
(1.02321 0.00348319 5.37273e-20)
(1.03616 0.0278608 0)
(1.06916 0.0256906 0)
(-0.0539227 1.57844 0)
(0.0161511 1.80881 0)
(-0.0117041 1.8451 0)
(0.290149 2.02223 -2.18811e-19)
(1.02776 -0.171127 0)
(0.962092 -0.0309045 0)
(0.904523 0.147869 -4.42156e-19)
(0.921659 0.104572 3.80686e-19)
(1.07968 -0.0783065 0)
(0.23824 1.6927 0)
(-0.116458 1.70826 0)
(-0.0247712 1.85965 0)
(-0.00234017 1.80701 0)
(-0.279505 1.91234 0)
(0.00589251 1.54105 0)
(1.02905 0.00488141 0)
(1.04114 -0.00456853 5.12459e-20)
(1.00404 1.66005 2.266e-19)
(0.928938 -0.172392 4.33604e-19)
(0.991212 0.0615531 -4.92744e-19)
(1.08691 0.0398603 0)
(1.00198 -0.0107893 -3.54577e-19)
(1.10163 0.186417 3.88488e-19)
(0.907546 0.0131754 0)
(-0.0224641 1.77446 0)
(0.265909 1.8095 -5.75133e-20)
(-0.0180063 1.62143 3.40862e-20)
(1.15398 0.219304 -4.12134e-19)
(1.1096 0.0559658 0)
(-0.986377 2.69304 2.05156e-19)
(-0.316559 3.66693 2.21461e-20)
(-0.503602 2.51713 5.79252e-20)
(0.067376 2.6237 2.20372e-20)
(0.00861614 2.50699 0)
(0.0268175 2.86688 -6.32113e-20)
(-0.545606 2.99634 -2.36825e-19)
(-0.011935 2.79662 1.17303e-19)
(-0.45036 3.04119 0)
(0.59644 0.305196 0)
(0.417699 0.330681 0)
(1.03507 0.872672 -1.69029e-19)
(1.1528 0.890965 2.44052e-19)
(1.17335 0.493462 0)
(1.14962 0.545993 0)
(1.02119 0.0775784 5.43481e-19)
(0.944788 0.0203529 -6.5184e-19)
(1.08263 -0.198085 0)
(0.956706 -0.0285812 0)
(0.802346 0.102008 0)
(1.11673 -0.106703 0)
(1.04424 0.118193 0)
(0.935897 0.016818 0)
(1.00027 -0.170959 0)
(0.909506 -0.0484033 0)
(0.0439538 1.83982 0)
(0.0593215 1.71 0)
(-0.0524755 1.88403 0)
(0.0799167 1.81227 0)
(0.370869 1.77123 0)
(0.0692886 1.56238 4.62123e-20)
(0.0861621 1.63909 0)
(-0.0196731 1.6237 -5.01658e-20)
(0.0533446 1.79465 6.63009e-20)
(0.112091 1.78035 0)
(0.0591704 1.68667 0)
(-0.0748719 1.76462 0)
(-0.0513155 1.68957 0)
(0.0247711 1.79969 4.06575e-20)
(0.0714251 1.81924 -1.43376e-19)
(-0.085511 1.82448 1.28683e-19)
(-0.0119533 1.6206 0)
(-0.124391 1.79322 -9.19954e-20)
(-0.042984 1.67292 -3.31904e-20)
(0.184313 1.95413 -4.52538e-20)
(-0.309339 1.60629 1.82468e-19)
(-0.0769348 1.532 -1.57469e-19)
(1.00012 -0.0658665 -5.69622e-19)
(0.939359 -0.0257964 7.07044e-19)
(0.985937 0.0466203 4.36435e-19)
(0.913605 0.0292141 -5.28445e-19)
(1.09666 0.19352 0)
(0.973157 0.0233661 0)
(1.08458 0.0813483 0)
(1.08893 -0.075217 0)
(0.953429 0.00716059 0)
(1.14387 0.117997 0)
(1.08972 -0.0171181 0)
(0.961905 0.0340652 0)
(-0.300495 1.61722 -1.09552e-20)
(-0.144706 1.66 0)
(0.141822 1.73762 0)
(0.0902831 1.75307 -8.03086e-20)
(0.0604173 1.69705 8.0607e-22)
(-0.0863351 1.68005 4.98736e-20)
(-0.274552 1.63928 -5.00303e-20)
(-0.164782 1.7373 0)
(0.203492 1.76778 0)
(0.153439 1.61873 0)
(-0.120173 1.80576 0)
(-0.0696483 1.71325 0)
(0.311084 1.93834 4.45598e-19)
(0.46652 1.95119 1.39789e-19)
(0.292274 1.45009 7.7769e-21)
(0.178022 1.60613 -3.64344e-20)
(0.388837 1.85983 -6.52753e-20)
(1.05444 0.0753997 0)
(0.999776 0.0913199 0)
(0.965907 0.0597414 0)
(0.917876 -0.0505736 0)
(1.04064 -0.0700214 0)
(0.922707 0.0649661 0)
(0.955181 0.170032 0)
(0.968036 -0.0358405 0)
(1.00875 -0.0552077 -6.21876e-19)
(0.960235 -0.0284911 7.46088e-19)
(1.0129 0.0650922 4.92954e-19)
(0.95 0.0298952 -6.05737e-19)
(0.929531 1.63489 0)
(0.876805 1.73427 2.00052e-19)
(0.86425 1.62942 2.02994e-19)
(1.00106 1.40451 -2.67863e-19)
(0.920058 1.53965 -3.75794e-19)
(0.83819 0.119205 -1.5751e-19)
(1.1287 0.0463894 0)
(1.18428 0.306217 4.01606e-19)
(1.06727 0.101239 1.41582e-20)
(1.02715 0.0753072 0)
(-0.55378 2.23826 1.49263e-19)
(-0.937073 2.3337 2.42781e-19)
(-1.70973 2.9646 -4.32901e-19)
(-1.9163 0.46664 2.19163e-19)
(-0.0317109 2.30792 -2.23214e-20)
(-0.380379 2.54794 0)
(-0.0562524 2.3113 2.83134e-20)
(-0.0433344 2.06141 -2.1618e-19)
(-0.0160175 2.25361 0)
(-0.114535 2.82492 1.26726e-22)
(-0.00525339 3.19993 9.63377e-20)
(-0.0841328 2.89398 -1.46702e-19)
(-0.398503 3.01729 0)
(0.0999937 2.92001 0)
(1.0221 1.69031 0)
(0.376877 1.16577 1.01778e-19)
(1.09899 1.13161 -1.14685e-19)
(0.89184 1.4899 0)
(0.772345 1.0056 8.09354e-20)
(1.00069 1.13 8.18996e-21)
(-0.0731717 0.379702 2.73833e-19)
(0.63097 0.232095 -1.32968e-20)
(0.60732 0.26982 -1.08641e-19)
(0.32262 0.463089 -6.42084e-21)
(0.240585 0.321463 2.99096e-19)
(0.520181 0.448605 0)
(0.512931 0.595649 -1.59763e-19)
(0.553315 0.316517 0)
(0.407479 0.350803 0)
(0.447679 0.319528 0)
(0.613404 0.696853 -1.00089e-19)
(1.21004 0.15956 1.53057e-19)
(1.11337 0.588021 0)
(1.17993 0.291047 0)
(0.729753 0.220139 -1.09837e-19)
(0.600726 0.762382 1.01067e-19)
(0.494011 0.5142 -1.76809e-19)
(0.807841 0.360661 1.33415e-19)
(0.998344 -0.0673769 -3.83842e-19)
(1.01689 0.20657 3.40974e-19)
(0.962914 0.0104445 0)
(1.00348 -0.0369256 0)
(1.00213 -0.0235476 3.75825e-19)
(0.960736 0.0442544 -3.73286e-19)
(0.948979 0.112373 0)
(0.900607 0.0484719 0)
(1.01341 -0.00457278 0)
(0.928745 -0.0835984 0)
(1.10401 0.0142779 0)
(0.948481 -0.0446042 0)
(0.287823 1.80786 0)
(0.0813777 1.73249 0)
(0.456373 1.87587 3.98073e-22)
(0.395737 1.99179 6.32062e-20)
(0.41081 1.8907 1.42522e-19)
(0.251407 1.87569 -2.28651e-19)
(-0.0757018 1.78229 0)
(-0.01916 1.83979 2.36109e-19)
(-0.168557 1.82014 0)
(0.212827 1.6433 9.33891e-20)
(0.142167 1.6159 -1.24105e-19)
(0.386501 1.59678 -2.05923e-19)
(0.104164 1.71529 6.46671e-20)
(0.0375861 1.76497 -5.1967e-20)
(0.139852 1.77696 1.86902e-19)
(0.232296 1.87622 0)
(0.354197 1.65432 -1.18765e-19)
(0.187552 1.59127 4.04513e-20)
(0.296937 1.78734 0)
(0.0102642 1.8332 -8.3699e-20)
(-0.245856 1.60954 0)
(0.0432447 1.68298 5.54841e-20)
(0.0211927 1.59386 0)
(-0.0301691 1.75704 1.92375e-19)
(0.0955471 1.63673 0)
(-0.061767 1.80034 0)
(0.105658 1.65909 -2.14996e-19)
(0.228981 1.85669 -4.94322e-20)
(-0.0186652 1.74926 -6.42428e-20)
(0.0432829 1.65341 -8.87145e-22)
(0.245693 1.75414 -1.72229e-20)
(0.13687 1.53822 -9.51165e-21)
(-0.269722 1.73387 0)
(-0.0446893 1.75374 0)
(0.0193057 1.57903 -1.29736e-19)
(0.00425334 1.61715 -1.80734e-19)
(0.101063 1.8506 2.34331e-19)
(-0.025618 1.83932 0)
(0.15902 1.8827 1.97204e-19)
(-0.113953 1.60078 -1.07788e-19)
(-0.0814627 1.73734 2.12879e-20)
(0.159404 1.91065 2.05886e-20)
(0.259053 1.63199 5.52005e-20)
(0.0124959 1.53101 1.43973e-19)
(0.99232 0.0759017 3.2732e-19)
(1.00505 -0.196649 -3.77513e-19)
(0.954802 0.0198304 0)
(0.935632 -0.0876564 -3.9043e-19)
(0.90294 0.190375 4.18339e-19)
(0.97998 -0.0213927 -4.64917e-19)
(0.946651 -0.0484055 6.3626e-20)
(1.08025 -0.163675 0)
(1.01825 0.0139373 -3.22546e-19)
(0.953215 -0.0415671 3.19493e-19)
(0.955802 -0.125579 1.68709e-20)
(0.941892 0.184473 -1.44697e-19)
(0.97432 0.102083 0)
(0.931205 0.126001 6.49359e-20)
(0.994157 0.0160349 0)
(0.919286 0.102458 0)
(1.07119 0.0651583 0)
(0.897517 -0.0375273 0)
(0.966419 0.106846 -9.9586e-20)
(1.09986 -0.00438719 2.97086e-19)
(1.03755 -0.0386521 1.14078e-19)
(0.996117 -0.0351205 1.17023e-19)
(1.14847 0.0437466 -2.46538e-19)
(0.919627 0.0887691 0)
(0.944841 -0.0522662 0)
(-0.0834113 1.9192 -9.84323e-20)
(0.347611 1.88274 -2.28971e-20)
(0.138267 1.49555 0)
(0.0358945 1.67389 1.00544e-19)
(-0.255733 1.61224 3.28192e-20)
(-0.187216 1.65745 2.02927e-20)
(-0.211888 1.79572 2.47423e-20)
(-0.192494 1.74 7.42687e-21)
(0.214775 1.64932 1.24657e-20)
(0.207421 1.75357 2.0391e-20)
(-0.0558323 1.70906 -3.09445e-20)
(-0.0802139 1.60265 -1.16391e-20)
(0.104845 2.02618 -7.12047e-21)
(0.440797 1.65993 -2.30365e-19)
(0.198521 1.98601 -2.60095e-19)
(0.766057 1.80193 -1.95307e-19)
(0.558516 1.91027 -1.34274e-19)
(0.687174 1.89227 0)
(0.482207 1.44405 -2.38028e-20)
(0.293234 1.35061 -2.88073e-20)
(0.338889 1.56564 1.87346e-20)
(0.188717 1.49989 1.54047e-19)
(0.652506 1.61223 -4.89133e-20)
(0.166492 1.50151 0)
(0.189431 1.39577 3.77751e-20)
(0.120124 1.644 -1.0568e-19)
(-0.102094 1.61752 3.1285e-21)
(0.0476962 1.47208 1.0494e-19)
(0.625909 1.40094 -1.81216e-19)
(0.453547 1.44011 0)
(1.06422 0.240546 -1.11935e-20)
(0.985697 -0.186787 9.45142e-21)
(0.938691 -0.144367 2.25496e-19)
(1.07752 0.0647571 -2.28435e-19)
(0.941669 -0.00745794 0)
(0.64892 1.582 0)
(0.944219 1.60086 0)
(0.811472 1.2662 0)
(0.799163 1.48255 0)
(0.692025 1.63262 4.10707e-20)
(0.671587 1.42066 0)
(0.495722 1.35237 -1.10192e-21)
(0.370415 1.37895 0)
(0.523174 1.64362 3.01169e-20)
(0.693444 1.42947 -1.94473e-20)
(0.780083 0.0764578 0)
(0.772864 0.119793 -3.531e-20)
(0.837636 0.192628 -3.12828e-19)
(0.843871 0.0312753 9.41632e-20)
(0.822502 0.0763437 3.0478e-19)
(1.19738 0.215756 4.46146e-19)
(0.638365 0.487665 -4.44708e-20)
(0.973525 0.0686365 -2.53172e-19)
(0.877663 0.0973001 -9.88445e-20)
(0.842923 0.203491 4.65836e-19)
(0.929143 0.309195 -5.92646e-20)
(0.692651 0.296354 1.66893e-20)
(0.759248 0.309331 0)
(0.914219 0.154852 -2.35426e-19)
(1.05068 0.109755 0)
(0.998166 0.0592373 0)
(0.962371 0.248747 -8.00423e-20)
(0.96785 0.417263 -6.74474e-21)
(0.806929 0.0671764 3.75736e-20)
(0.95781 0.0410917 0)
(0.927821 0.00978593 -1.90779e-19)
(0.87042 -0.144853 -3.38798e-19)
(1.1052 0.0723 1.8608e-19)
(1.0195 0.189176 2.22355e-19)
(0.959228 -0.0979922 2.78249e-19)
(0.84201 0.246969 0)
(0.918412 0.00569395 0)
(0.871332 0.114456 1.65385e-19)
(0.851257 -0.133153 -4.43615e-20)
(1.04516 0.176367 -3.2355e-19)
(1.05852 0.0695614 2.43506e-19)
(0.918127 0.133929 -2.28438e-19)
(0.862095 0.213082 0)
(1.08118 0.210933 0)
(0.848098 0.0930783 1.31122e-19)
(0.930338 0.0459764 2.62291e-19)
(0.482467 1.63973 -5.59113e-20)
(0.624457 1.29963 1.27614e-19)
(0.765338 1.45136 9.78384e-20)
(0.676026 1.55521 -3.47674e-20)
(0.932097 1.54595 4.07027e-19)
(0.944773 1.67114 -1.17153e-19)
(0.807344 1.38003 9.73339e-21)
(0.954786 1.71351 1.52236e-19)
(0.609078 1.59569 -1.90912e-19)
(0.652101 1.83542 -8.14011e-20)
(1.05993 1.67783 8.30741e-20)
(0.979246 1.85586 0)
(0.542823 1.45978 3.10545e-21)
(-0.421903 1.60264 -2.96297e-20)
(-0.583871 0.581531 -1.96003e-19)
(-0.508048 0.690446 -4.76616e-19)
(0.12411 0.480829 -1.64985e-19)
(0.16294 0.405516 2.41187e-19)
(0.0957177 0.72295 -2.0125e-19)
(-0.156393 0.381238 1.28562e-19)
(0.0965943 0.329541 -2.78198e-19)
(0.68346 0.294969 7.22303e-20)
(0.616891 0.337718 0)
(0.630773 0.250942 -2.64296e-21)
(0.547049 0.467472 -6.89686e-20)
(0.260027 0.590184 2.80456e-19)
(0.211116 0.570057 -1.41288e-20)
(0.451739 0.383049 0)
(0.46824 0.924989 -5.41277e-20)
(0.728157 0.83515 -2.57426e-19)
(0.672705 1.33716 2.74391e-19)
(0.70297 0.865804 4.90372e-20)
(0.890557 0.876893 2.98115e-20)
(1.03131 1.21589 -3.05939e-20)
(0.677727 0.719201 1.96673e-19)
(0.774149 1.05843 -4.58384e-20)
(1.06095 0.861217 0)
(0.910751 0.742644 9.95935e-20)
(0.881073 0.226661 -1.00476e-20)
(0.913616 0.454842 -5.68959e-20)
(0.975172 0.305518 -1.76776e-19)
(0.897214 0.445961 9.17359e-20)
(1.03292 0.398012 0)
(1.04136 0.306352 0)
(0.669236 0.471582 -8.32946e-20)
(0.822699 0.187538 0)
(0.597487 0.246866 -9.09368e-20)
(0.799339 0.327526 4.89452e-20)
(0.913351 0.627928 -3.65982e-19)
(0.786755 0.567898 -1.40017e-19)
(0.679815 0.487041 1.2306e-19)
(0.643348 0.451304 -1.32371e-19)
(0.680177 0.631763 -1.00351e-19)
(0.559609 0.395947 9.79692e-20)
(1.07194 0.0759005 -3.2269e-19)
(0.900552 -0.138114 0)
(0.887823 -0.0117332 -2.49097e-19)
(0.818888 0.23052 5.21957e-19)
(1.08654 0.00214676 -2.72892e-19)
(0.886243 0.0328412 5.61967e-19)
(1.06834 -0.0323402 0)
(0.975776 0.0143473 9.50379e-20)
(0.963996 0.0955279 -2.56106e-19)
(0.960836 -0.00432071 1.31095e-19)
(0.905095 -0.179534 -8.9732e-20)
(-0.215189 1.78263 0)
(0.246914 1.67746 0)
(-0.158261 1.74475 0)
(-0.0166454 1.72779 0)
(-0.0170212 1.89206 -2.9206e-19)
(-0.0931099 1.84011 2.07956e-19)
(0.0896497 1.45852 2.38597e-20)
(0.173781 1.45215 4.57797e-20)
(-0.426122 1.91104 5.86155e-20)
(0.112853 1.52556 -3.47543e-20)
(-0.00817647 1.8503 1.73587e-19)
(-0.0370867 1.57055 -1.25915e-19)
(0.153679 1.73455 1.30534e-20)
(0.40761 1.66393 -2.98432e-21)
(-0.0880038 1.72768 8.80139e-20)
(0.128344 1.63319 0)
(-0.128089 1.78507 -9.22485e-21)
(0.135619 1.67284 -3.16823e-20)
(0.10787 1.53122 1.64095e-20)
(-0.0444414 1.83594 0)
(0.32714 1.51594 4.46057e-20)
(0.11603 1.64561 -3.17912e-20)
(0.407547 1.61729 2.98942e-20)
(0.195698 1.51117 -1.24893e-20)
(-0.134747 1.20165 0)
(0.166171 1.49186 7.19266e-20)
(-0.11561 1.46069 3.29627e-19)
(-0.0385414 1.78823 0)
(0.0376876 1.7281 -2.71108e-20)
(-0.0806022 1.96459 -2.00999e-20)
(-0.0757294 1.68267 -1.68214e-20)
(0.152202 1.6294 5.63535e-19)
(-0.14991 1.90201 -2.42324e-19)
(-0.139506 1.2897 -1.1024e-19)
(0.163297 1.98451 0)
(0.0280248 1.86842 0)
(-0.285642 1.81671 -1.25523e-19)
(0.274926 1.70472 4.05412e-20)
(-0.101526 1.7231 0)
(0.169757 1.76936 -6.65791e-20)
(0.0283945 1.71003 1.57962e-19)
(0.923699 0.325986 0)
(1.15942 -0.00339338 2.92345e-20)
(0.891422 0.139311 1.56041e-19)
(0.885383 0.0155624 0)
(0.827903 -0.221536 0)
(1.10533 -0.0271645 -9.31291e-21)
(0.988874 -0.203515 -4.77306e-19)
(0.886794 -0.00639914 -2.97958e-19)
(1.05681 0.0357219 0)
(0.976569 -0.0140967 0)
(0.946986 -0.0773431 -2.62225e-19)
(0.95261 0.0193872 0)
(0.900043 0.186078 0)
(6.32863e-05 1.8352 0)
(-0.0488456 1.4451 4.10386e-20)
(-0.144352 1.50409 -9.82667e-20)
(-0.0717795 1.73549 0)
(0.311876 1.88471 3.96365e-20)
(0.0434576 1.76994 3.96707e-20)
(0.123555 1.56383 0)
(0.235251 1.54406 0)
(0.292954 1.30875 3.52162e-19)
(0.308829 1.43311 0)
(0.537139 1.80205 -2.95805e-19)
(0.524454 1.69183 0)
(0.592318 1.80593 1.21075e-19)
(0.277464 1.26839 4.77899e-21)
(0.886422 1.30734 2.12094e-19)
(0.600485 1.29455 -1.56489e-19)
(0.574914 1.37919 -2.46076e-20)
(0.313801 1.4626 0)
(0.54784 1.34159 0)
(0.431488 1.45977 0)
(0.429373 1.30291 7.70985e-20)
(0.47971 1.37611 3.8995e-20)
(0.215456 1.33074 -3.84691e-21)
(0.63702 1.70167 3.09798e-21)
(0.264472 1.42807 0)
(0.48198 1.36671 0)
(0.343729 1.32822 2.16852e-20)
(0.406925 1.49304 0)
(0.502277 1.38952 0)
(0.789331 1.35329 1.03708e-19)
(0.407386 1.09797 1.32345e-20)
(0.815335 1.38616 0)
(0.701235 1.50589 -1.58482e-19)
(0.787592 1.44369 3.10528e-20)
(1.21758 1.22585 0)
(0.855602 0.886954 -9.99938e-20)
(0.354454 1.64585 0)
(0.310425 1.24491 0)
(0.764338 1.26668 5.47741e-20)
(0.671144 1.54147 8.3695e-20)
(0.858331 1.44815 -1.97573e-19)
(0.677193 1.62707 3.94318e-20)
(0.735677 1.52391 0)
(0.681006 1.36965 -5.22913e-20)
(0.784538 1.38962 4.47647e-20)
(0.721038 1.3803 -4.14285e-23)
(0.635237 1.44943 0)
(0.529628 1.55198 4.91208e-20)
(0.484543 1.30582 0)
(0.811308 0.101766 0)
(0.795258 0.236044 0)
(0.671348 0.187995 0)
(0.749072 0.384813 1.4347e-19)
(0.751337 0.164774 -8.86976e-20)
(1.07996 -0.0478939 9.17249e-20)
(0.823479 -0.0427749 0)
(0.950318 -0.0388883 -4.57439e-20)
(0.865808 0.193271 -1.7012e-19)
(0.681375 0.0664077 1.00217e-19)
(0.923364 2.25754 -6.35342e-20)
(0.717223 1.75632 0)
(0.958594 2.0389 -3.70944e-20)
(0.271077 2.14714 5.16485e-20)
(0.0902852 1.66324 -7.19431e-20)
(0.115567 1.37502 -7.49289e-20)
(0.454032 1.50522 0)
(0.187854 0.93999 1.75283e-20)
(-0.0257915 1.18679 -1.66229e-19)
(-0.223217 1.10668 2.69251e-20)
(0.0884555 0.626582 -1.17721e-20)
(0.22874 0.683353 -8.78273e-20)
(0.514524 0.742951 0)
(0.290654 0.922484 0)
(0.106653 0.960202 0)
(0.809624 0.798258 -5.57987e-20)
(0.861904 0.619562 1.36332e-19)
(0.943073 0.641553 -1.70595e-19)
(0.769445 0.364778 6.99387e-20)
(0.985776 0.751455 0)
(0.888698 0.642095 3.75628e-20)
(0.796961 0.390139 1.69905e-19)
(0.758896 0.18189 3.48708e-19)
(0.589897 0.439843 -1.21058e-19)
(0.579404 0.463895 1.71625e-19)
(0.710785 0.427565 9.38773e-20)
(0.692896 0.277112 -1.15886e-19)
(1.05485 -0.013534 2.00186e-19)
(1.11925 0.0378957 -4.25157e-19)
(1.0717 0.00568302 -3.0699e-19)
(1.09221 -0.117264 3.706e-19)
(0.746437 0.0393851 0)
(0.728428 -0.0309255 7.12096e-19)
(0.154737 1.49034 -3.67044e-20)
(-0.182513 1.7411 0)
(0.189777 1.86837 -1.28279e-19)
(0.1936 1.75986 1.17357e-19)
(-0.00175787 1.91468 -4.39844e-20)
(0.202273 1.74764 0)
(-0.193579 1.77899 0)
(0.228445 1.55921 -4.88107e-21)
(0.0294228 1.65338 4.36959e-21)
(0.356094 1.56756 1.95639e-20)
(-0.340732 1.81851 -5.35317e-20)
(-0.193585 1.75012 -4.50157e-20)
(0.583927 1.57433 2.27049e-19)
(0.768428 1.58839 -2.42562e-19)
(0.417738 1.79442 2.70087e-19)
(0.743577 1.55644 -4.79202e-21)
(0.484612 1.78705 0)
(0.712565 1.75676 1.50856e-19)
(0.613029 1.61374 -1.4626e-19)
(0.462235 1.63597 -2.66231e-19)
(0.555036 1.67655 0)
(0.821026 1.7487 0)
(0.769198 1.35951 -5.9405e-20)
(0.414299 1.55741 -2.31695e-20)
(0.0428571 1.5254 1.59589e-20)
(-0.0390534 1.5971 2.00333e-20)
(0.3195 1.40789 -4.42865e-20)
(0.367401 1.1583 8.54372e-20)
(0.722716 1.31921 9.89667e-20)
(0.5042 1.45954 0)
(0.576657 1.32894 1.17136e-19)
(0.838236 1.42248 0)
(0.533052 1.74247 0)
(0.504635 1.86359 9.6e-20)
(0.648551 1.70565 1.73519e-19)
(0.43075 2.00201 -1.02352e-19)
(-0.349675 1.39976 0)
(0.062972 1.36018 3.25364e-20)
(0.146532 1.49756 5.06858e-20)
(0.425814 1.61235 0)
(0.585782 1.83852 5.17128e-20)
(0.274806 1.86594 0)
(0.633736 1.02496 1.2045e-19)
(0.553657 1.11471 -1.84704e-19)
(0.764018 0.807458 1.90037e-19)
(0.405079 0.82432 1.33045e-20)
(0.363007 0.863249 4.91182e-20)
(0.817943 1.75364 -1.29687e-19)
(0.664122 1.61729 1.73703e-19)
(0.375701 1.71466 -1.13011e-19)
(0.510462 1.50947 6.85497e-20)
(0.60856 1.80945 1.59672e-19)
(0.611259 1.7155 6.35797e-21)
(0.76375 1.39004 -1.55769e-19)
(0.546019 1.71414 -9.66016e-21)
(0.597554 1.36845 -9.06144e-20)
)
;

boundaryField
{
    wall-4
    {
        type            noSlip;
    }
    velocity-inlet-5
    {
        type            fixedValue;
        value           uniform (1 0 0);
    }
    velocity-inlet-6
    {
        type            fixedValue;
        value           uniform (0 3 0);
    }
    pressure-outlet-7
    {
        type            zeroGradient;
    }
    wall-8
    {
        type            noSlip;
    }
    frontAndBackPlanes
    {
        type            empty;
    }
}


// ************************************************************************* //
