/*--------------------------------*- C++ -*----------------------------------*\
| =========                 |                                                 |
| \\      /  F ield         | OpenFOAM: The Open Source CFD Toolbox           |
|  \\    /   O peration     | Version:  2212                                  |
|   \\  /    A nd           | Website:  www.openfoam.com                      |
|    \\/     M anipulation  |                                                 |
\*---------------------------------------------------------------------------*/
FoamFile
{
    version     2.0;
    format      ascii;
    arch        "LSB;label=32;scalar=64";
    class       volScalarField;
    location    "0.07";
    object      epsilon;
}
// * * * * * * * * * * * * * * * * * * * * * * * * * * * * * * * * * * * * * //

dimensions      [0 2 -3 0 0 0 0];

internalField   nonuniform List<scalar> 
3072
(
2063.71
1836.36
2283.84
2279.08
2229.2
1965.39
1822.04
2605.12
13624.5
34139.8
44097
49190
5588.63
5054.27
4030.93
3410.02
4129.84
6559.88
16694.7
23511.2
25198.3
32828.1
35428.3
36677.2
7929.53
6201.03
6225.87
7499.34
14954.6
20406.8
20927.1
22321.9
24835.8
27834.4
28836.2
29986.4
11142
8613.56
10003.4
12501.3
16963.8
18607.3
18901.4
21081.3
23692.5
25155.2
25956.8
26792.6
13155.7
10535.8
12644.5
13825.9
15776.8
16553.2
18657.1
21140.1
23014.7
23975.5
24545.5
25086.7
14514.4
11446.3
12804.3
13431.1
15126.2
16869.6
19273.6
21549.3
22847
23383.9
23693.9
23997
14950.3
11441.3
12394.4
13555.1
15854.9
18230.7
20656.8
22321.8
23135.5
23445.4
23545.2
23649.8
16156.6
11761.3
12992.9
15369.4
18726.1
21359.6
23217
24150.6
24407.1
24361.3
24243.5
24208.4
18126.4
13310.9
16802.6
21630.2
26081.4
28404.5
29141.5
28894.9
28202
27446.1
26813.6
26402.3
22309.6
18390.4
28433.3
37021.5
42314.1
43411.2
42008.8
39468
36822.8
34501.4
32658.6
31317.7
25788.4
34160
55909.4
67992
71067.6
68801.9
63186.2
56904.8
51062.2
46119.4
42189.7
39204
97173.6
97947.5
107950
110227
106217
97077.1
86654
76521.9
67441.2
59767.4
53574.9
48726
53403.4
55543.7
56814.7
57009.8
57080.5
54444.9
50615
44528.2
37011.7
28206.2
17930.1
21724.2
37778.4
38648.7
39444.1
40194.7
41085.8
42446
44981.6
48582.9
53426.2
59065.9
61796.6
72970.9
30943
31647.5
32239.5
32860.2
33928.5
35833.4
39090
44290.3
52335.6
64137.9
81121.5
115772
27463.2
28048.5
28646.5
29378.4
30527.9
32484.2
35830.5
41384.1
50491.3
65640.3
92712.1
146645
25524
25938
26411.1
27068.6
28153.8
30050.8
33355.1
38986.3
48548.7
65485.9
99428.2
172754
24283.5
24616.6
25067.8
25756.1
26898.3
28833.7
32113.3
37668.6
47294.7
64948.9
103227
196381
23823.9
24116
24585.7
25338.4
26551.8
28519.7
31770.7
37246.1
46772.8
64509.1
105565
219627
24305.9
24570.8
25067.8
25888.6
27163.1
29144.6
32314.1
37597.3
46918.8
64668
107005
247154
26269.6
26431.6
26874.7
27682.4
28974.8
30936
33982
39001.9
48000.5
65676.2
109268
280252
30505.9
30244.5
30482.3
31117.4
32253.6
34082.4
36903.6
41503
49968.4
67172.6
111495
315612
37179.5
36075.4
35854.9
36292
37162.2
38660.4
41048.1
44995.7
52498.8
68588.6
113976
358160
45319.3
43302.8
42457.1
42605.6
43236.8
44281.7
45972.5
48864.1
54480.8
68720.8
114800
416032
2063.73
1836.38
2283.86
2279.09
2229.21
1965.4
1822.05
2605.14
13624.7
34140
44097.2
49190.2
5588.69
5054.32
4030.96
3410.04
4129.87
6559.94
16694.9
23511.2
25198.5
32828.2
35428.4
36677.3
7929.62
6201.09
6225.92
7499.41
14954.7
20406.9
20927
22322
24835.9
27834.5
28836.4
29986.5
11142.1
8613.66
10003.5
12501.4
16963.8
18607.3
18901.5
21081.4
23692.6
25155.3
25956.9
26792.8
13155.9
10535.9
12644.6
13825.9
15776.8
16553.2
18657.2
21140.3
23014.8
23975.6
24545.6
25086.8
14514.5
11446.4
12804.4
13431.2
15126.3
16869.7
19273.7
21549.4
22847.1
23384.1
23694
23997.1
14950.4
11441.4
12394.4
13555.2
15855
18230.8
20657
22321.9
23135.6
23445.5
23545.3
23649.9
16156.7
11761.3
12992.9
15369.5
18726.2
21359.8
23217.1
24150.7
24407.3
24361.4
24243.6
24208.5
18126.5
13311
16802.7
21630.3
26081.4
28404.6
29141.6
28895
28202.1
27446.2
26813.8
26402.4
22309.6
18390.4
28433.3
37021.5
42314.1
43411.2
42008.8
39468.1
36822.9
34501.5
32658.7
31317.8
25788.4
34160
55909.4
67992
71067.6
68801.9
63186.2
56904.8
51062.2
46119.5
42189.8
39204
97173.7
97947.7
107951
110228
106217
97077.1
86654
76521.9
67441.3
59767.5
53574.9
48726.1
53403.6
55543.9
56814.9
57010
57080.6
54445.1
50615.1
44528.3
37011.8
28206.2
17930.2
21724.2
37778.6
38648.8
39444.2
40194.8
41085.9
42446.1
44981.7
48583
53426.3
59066
61796.7
72971
30943.1
31647.6
32239.6
32860.3
33928.6
35833.5
39090.1
44290.4
52335.7
64138
81121.7
115772
27463.3
28048.6
28646.6
29378.5
30528
32484.3
35830.6
41384.2
50491.5
65640.4
92712.3
146646
25524.2
25938.1
26411.3
27068.8
28154
30050.9
33355.2
38986.4
48548.8
65486.1
99428.4
172754
24283.6
24616.7
25068
25756.2
26898.4
28833.8
32113.5
37668.7
47294.9
64949.1
103227
196382
23824.1
24116.1
24585.8
25338.5
26551.9
28519.8
31770.8
37246.2
46772.9
64509.2
105566
219627
24306
24570.9
25067.9
25888.7
27163.2
29144.7
32314.2
37597.4
46918.9
64668.2
107006
247154
26269.7
26431.7
26874.8
27682.5
28974.9
30936.1
33982.1
39002
48000.6
65676.3
109268
280253
30506
30244.6
30482.3
31117.5
32253.7
34082.5
36903.7
41503.1
49968.5
67172.7
111495
315612
37179.6
36075.5
35855
36292.1
37162.3
38660.5
41048.2
44995.8
52498.9
68588.7
113976
358161
45319.3
43302.8
42457.1
42605.7
43236.8
44281.7
45972.5
48864.1
54480.9
68720.9
114800
416033
2063.75
1836.4
2283.88
2279.12
2229.24
1965.42
1822.06
2605.16
13624.7
34140
44097.1
49190.2
5588.73
5054.34
4030.99
3410.07
4129.91
6559.97
16694.9
23511.2
25198.4
32828.2
35428.4
36677.3
7929.67
6201.12
6225.97
7499.48
14954.7
20406.8
20927
22322
24835.9
27834.4
28836.3
29986.5
11142.2
8613.7
10003.5
12501.4
16963.8
18607.3
18901.4
21081.4
23692.6
25155.3
25956.9
26792.7
13156
10536
12644.6
13825.9
15776.8
16553.2
18657.2
21140.2
23014.8
23975.6
24545.6
25086.8
14514.6
11446.5
12804.4
13431.2
15126.3
16869.7
19273.7
21549.4
22847.1
23384
23694
23997.1
14950.5
11441.4
12394.5
13555.2
15855
18230.8
20656.9
22321.9
23135.6
23445.5
23545.3
23649.9
16156.8
11761.4
12993
15369.5
18726.2
21359.8
23217.2
24150.7
24407.3
24361.5
24243.6
24208.5
18126.6
13311
16802.7
21630.3
26081.5
28404.7
29141.6
28895.1
28202.2
27446.2
26813.8
26402.5
22309.7
18390.5
28433.4
37021.5
42314.2
43411.3
42008.9
39468.2
36823
34501.6
32658.7
31317.9
25788.5
34160
55909.5
67992.1
71067.7
68802
63186.3
56905
51062.4
46119.6
42189.9
39204.1
97173.9
97947.8
107951
110228
106217
97077.2
86654.1
76522
67441.4
59767.6
53575
48726.2
53403.5
55543.9
56814.8
57009.9
57080.6
54445
50615
44528.2
37011.7
28206.2
17930.1
21724.1
37778.5
38648.7
39444.2
40194.7
41085.8
42446
44981.6
48582.9
53426.2
59065.9
61796.5
72970.8
30943.1
31647.6
32239.6
32860.2
33928.5
35833.5
39090.1
44290.4
52335.6
64137.9
81121.5
115772
27463.3
28048.6
28646.6
29378.5
30528
32484.2
35830.6
41384.2
50491.4
65640.3
92712.1
146645
25524.1
25938.1
26411.2
27068.7
28153.9
30050.9
33355.2
38986.4
48548.7
65486
99428.3
172754
24283.6
24616.7
25068
25756.2
26898.4
28833.8
32113.4
37668.6
47294.8
64949
103227
196381
23824.1
24116.1
24585.8
25338.5
26551.9
28519.8
31770.8
37246.1
46772.9
64509.2
105565
219627
24306
24570.9
25067.9
25888.7
27163.3
29144.7
32314.2
37597.4
46918.9
64668.1
107005
247154
26269.7
26431.8
26874.8
27682.5
28974.9
30936.1
33982.1
39002
48000.6
65676.3
109268
280252
30506.1
30244.7
30482.4
31117.6
32253.8
34082.5
36903.7
41503.1
49968.5
67172.6
111495
315612
37179.7
36075.6
35855.1
36292.1
37162.3
38660.5
41048.2
44995.8
52498.9
68588.7
113976
358160
45319.4
43302.9
42457.2
42605.7
43236.9
44281.8
45972.5
48864.1
54480.9
68720.8
114800
416032
2063.72
1836.37
2283.85
2279.08
2229.2
1965.39
1822.04
2605.12
13624.5
34139.8
44096.9
49190
5588.66
5054.29
4030.94
3410.02
4129.85
6559.88
16694.7
23511.1
25198.3
32828
35428.3
36677.2
7929.57
6201.05
6225.88
7499.36
14954.6
20406.8
20927
22321.9
24835.8
27834.4
28836.2
29986.4
11142.1
8613.6
10003.4
12501.3
16963.7
18607.2
18901.4
21081.3
23692.5
25155.2
25956.8
26792.6
13155.8
10535.9
12644.5
13825.8
15776.7
16553.2
18657.1
21140.1
23014.7
23975.5
24545.5
25086.7
14514.5
11446.4
12804.3
13431.1
15126.2
16869.6
19273.6
21549.3
22847
23384
23693.9
23997
14950.4
11441.3
12394.4
13555.1
15854.9
18230.7
20656.9
22321.8
23135.5
23445.4
23545.2
23649.8
16156.7
11761.3
12992.9
15369.5
18726.1
21359.7
23217.1
24150.6
24407.2
24361.4
24243.5
24208.5
18126.4
13310.9
16802.6
21630.3
26081.4
28404.6
29141.5
28895
28202.1
27446.1
26813.7
26402.4
22309.6
18390.4
28433.3
37021.4
42314.1
43411.2
42008.8
39468.1
36822.9
34501.5
32658.7
31317.8
25788.4
34160
55909.4
67992
71067.6
68801.9
63186.2
56904.9
51062.3
46119.5
42189.9
39204.1
97173.7
97947.6
107950
110228
106217
97077.1
86654
76522
67441.3
59767.5
53575
48726.1
53403.3
55543.7
56814.6
57009.8
57080.4
54444.9
50614.9
44528.1
37011.7
28206.1
17930.1
21724.1
37778.4
38648.6
39444.1
40194.6
41085.8
42445.9
44981.5
48582.9
53426.1
59065.8
61796.5
72970.8
30943
31647.5
32239.5
32860.2
33928.5
35833.4
39090
44290.3
52335.6
64137.9
81121.4
115772
27463.2
28048.5
28646.5
29378.4
30527.9
32484.2
35830.5
41384.1
50491.3
65640.3
92712
146645
25524.1
25938
26411.2
27068.7
28153.9
30050.8
33355.2
38986.3
48548.7
65485.9
99428.2
172754
24283.6
24616.6
25067.9
25756.1
26898.3
28833.7
32113.4
37668.6
47294.8
64949
103227
196381
23824
24116.1
24585.8
25338.5
26551.9
28519.8
31770.7
37246.1
46772.8
64509.1
105565
219627
24305.9
24570.8
25067.9
25888.7
27163.2
29144.7
32314.1
37597.3
46918.8
64668.1
107005
247154
26269.6
26431.7
26874.8
27682.4
28974.8
30936
33982
39002
48000.6
65676.2
109268
280252
30506
30244.6
30482.3
31117.5
32253.7
34082.5
36903.7
41503
49968.4
67172.6
111495
315612
37179.6
36075.5
35855
36292.1
37162.3
38660.5
41048.2
44995.7
52498.8
68588.7
113976
358160
45319.4
43302.9
42457.2
42605.7
43236.8
44281.8
45972.5
48864.1
54480.8
68720.8
114800
416032
155228
144533
133843
125113
116647
107353
97584.5
87728.3
78325.9
69911
62779.9
56934.6
96457.9
97624.1
97346.6
96792
95599.7
93423.2
89989.3
84580.2
78113.6
71930.4
66162.2
61072.8
65687.6
67740.8
69170.1
70513.2
71776.9
72728.4
72682.7
71753.8
70107.9
67572.9
64152
60935.3
51864.2
53417.6
54692.8
55892.9
57140.8
58428.1
59495.6
60247.1
60254.7
59763.5
58821.1
57575
52786.2
50367.5
49183.5
48993.4
49211.3
49593.8
50177.9
51501
54710
63298
87266
172886
57499.7
55568.8
54397.6
53630.8
52830.3
52130.1
51609.6
51741.8
52785.3
56270.7
65945.6
90631.8
58798.2
57615.3
56189
54597.9
52731.9
50909.4
49329.5
48385.1
48355.2
49428.9
53296
61758.9
56322.1
54627.8
52211.8
49635.3
47123.9
45179.6
43841.3
43254.6
43376.5
44074.4
46158.2
49637.2
155228
144534
133843
125113
116647
107353
97584.6
87728.4
78325.9
69911
62780
56934.6
96458.1
97624.8
97347.2
96792.4
95600.1
93423.5
89989.5
84580.3
78113.7
71930.5
66162.3
61072.8
65687.8
67741.2
69170.5
70513.5
71777.2
72728.7
72682.9
71754
70108
67573
64152.1
60935.4
51864.4
53417.9
54693.1
55893.2
57141
58428.3
59495.8
60247.3
60254.8
59763.5
58821.2
57575.1
52786.3
50367.6
49183.6
48993.5
49211.3
49593.8
50178
51501
54710
63298.1
87266.1
172886
57499.7
55568.9
54397.7
53630.8
52830.3
52130.2
51609.6
51741.9
52785.3
56270.8
65945.6
90631.9
58798.3
57615.3
56189
54598
52731.9
50909.5
49329.5
48385.2
48355.3
49429
53296
61759
56322.1
54627.9
52211.9
49635.4
47123.9
45179.7
43841.3
43254.7
43376.5
44074.5
46158.3
49637.3
155228
144534
133843
125113
116647
107353
97584.6
87728.4
78326
69911.1
62780
56934.7
96458.2
97624.9
97347.2
96792.4
95600.1
93423.5
89989.5
84580.3
78113.8
71930.5
66162.3
61072.9
65687.9
67741.3
69170.6
70513.6
71777.2
72728.7
72682.9
71754
70108
67573
64152.1
60935.4
51864.5
53418
54693.1
55893.2
57141
58428.4
59495.8
60247.3
60254.8
59763.5
58821.2
57575
52786.3
50367.6
49183.6
48993.5
49211.4
49593.8
50178
51501
54710
63298.1
87266
172886
57499.8
55568.9
54397.7
53630.8
52830.3
52130.2
51609.6
51741.8
52785.3
56270.7
65945.6
90631.8
58798.3
57615.3
56189
54597.9
52731.9
50909.4
49329.5
48385.1
48355.3
49428.9
53296
61758.9
56322.1
54627.8
52211.8
49635.3
47123.9
45179.7
43841.3
43254.7
43376.5
44074.4
46158.2
49637.2
155228
144534
133843
125113
116647
107353
97584.6
87728.4
78326
69911.1
62780
56934.7
96458.2
97624.8
97347.2
96792.4
95600
93423.4
89989.5
84580.3
78113.7
71930.5
66162.3
61072.9
65687.9
67741.2
69170.5
70513.5
71777.2
72728.6
72682.8
71754
70108
67573
64152.1
60935.4
51864.4
53417.9
54693.1
55893.2
57141
58428.3
59495.8
60247.3
60254.8
59763.5
58821.2
57575
52786.3
50367.6
49183.6
48993.5
49211.4
49593.8
50178
51501
54710
63298
87266
172886
57499.8
55568.9
54397.7
53630.8
52830.3
52130.2
51609.6
51741.8
52785.3
56270.7
65945.6
90631.9
58798.3
57615.3
56189
54597.9
52731.9
50909.4
49329.5
48385.1
48355.2
49428.9
53295.9
61758.9
56322.1
54627.8
52211.8
49635.3
47123.9
45179.6
43841.3
43254.6
43376.5
44074.4
46158.1
49637.2
47270.7
48391
49501.2
50584.1
51529.2
52266.4
52775.7
52831.5
52056.3
50749.3
48940.4
46930.1
44210
45289.8
46325.4
47158.8
47756.6
48106.1
47896.1
46825.5
44992.9
42702.3
40237.4
38192.2
41577.6
42533.1
43298.2
43869.2
44236.4
44219.1
43441.6
42083.3
40310.7
38563.1
37108.9
36092.8
38245.7
38854.2
39373.3
39703.2
39772.3
39387
38603.4
37753.3
37222.7
37733.2
39876.4
42519.5
45177.4
42398.1
40272
39508.6
39005
39177.3
39698.7
40563
41688.9
43043.9
44861.2
46309.7
36894.3
34196.6
33596.3
34304.3
35159.7
36411.4
37707.8
39090.9
40456.7
41752.2
42882.5
43602.9
35263.6
30230.2
29659.3
31191.6
32675.5
34356
35924.8
37408.4
38679.7
39658.4
40379
40953.4
46523.3
28121
26743.1
28482.1
30151.4
31892.3
33447
34818.9
35842.3
36597.2
37168.5
37676.4
47270.9
48391.1
49501.3
50584.2
51529.3
52266.5
52775.8
52831.6
52056.4
50749.4
48940.5
46930.2
44210.1
45289.9
46325.5
47158.9
47756.7
48106.1
47896.1
46825.5
44993
42702.4
40237.4
38192.2
41577.6
42533.2
43298.3
43869.3
44236.5
44219.1
43441.6
42083.4
40310.8
38563.1
37109
36092.8
38245.8
38854.3
39373.4
39703.3
39772.4
39387.1
38603.4
37753.4
37222.8
37733.2
39876.4
42519.5
45177.5
42398.2
40272.1
39508.6
39005.1
39177.3
39698.8
40563.1
41689
43044
44861.2
46309.7
36894.3
34196.7
33596.3
34304.3
35159.7
36411.4
37707.9
39091
40456.7
41752.2
42882.5
43602.9
35263.6
30230.2
29659.3
31191.6
32675.5
34356
35924.8
37408.4
38679.7
39658.4
40379
40953.4
46523.3
28121
26743.1
28482.1
30151.4
31892.3
33447
34818.9
35842.3
36597.2
37168.5
37676.4
47270.9
48391.2
49501.3
50584.2
51529.3
52266.5
52775.7
52831.5
52056.3
50749.3
48940.4
46930.1
44210.1
45289.9
46325.5
47158.8
47756.6
48106.1
47896.1
46825.5
44992.9
42702.3
40237.4
38192.2
41577.6
42533.2
43298.3
43869.2
44236.4
44219.1
43441.6
42083.3
40310.7
38563
37108.9
36092.7
38245.7
38854.2
39373.3
39703.2
39772.3
39387
38603.4
37753.3
37222.7
37733.2
39876.3
42519.5
45177.4
42398.1
40272
39508.6
39005.1
39177.3
39698.8
40563.1
41689
43044
44861.2
46309.7
36894.3
34196.6
33596.3
34304.3
35159.7
36411.4
37707.8
39090.9
40456.7
41752.2
42882.5
43602.9
35263.6
30230.2
29659.2
31191.6
32675.5
34356
35924.8
37408.4
38679.7
39658.4
40379
40953.4
46523.2
28121
26743.1
28482.1
30151.4
31892.3
33447
34818.9
35842.3
36597.2
37168.5
37676.4
47270.9
48391.1
49501.3
50584.2
51529.3
52266.5
52775.7
52831.5
52056.3
50749.3
48940.4
46930.1
44210.1
45289.9
46325.4
47158.8
47756.6
48106.1
47896
46825.4
44992.9
42702.3
40237.3
38192.2
41577.6
42533.1
43298.3
43869.2
44236.4
44219
43441.5
42083.3
40310.7
38563
37108.9
36092.7
38245.7
38854.2
39373.3
39703.2
39772.3
39387
38603.3
37753.3
37222.7
37733.1
39876.3
42519.4
45177.4
42398.1
40272
39508.6
39005
39177.2
39698.7
40563
41688.9
43043.9
44861.1
46309.6
36894.3
34196.6
33596.2
34304.3
35159.6
36411.3
37707.8
39090.9
40456.6
41752.1
42882.4
43602.8
35263.6
30230.2
29659.2
31191.5
32675.5
34356
35924.7
37408.3
38679.6
39658.4
40379
40953.4
46523.2
28121
26743.1
28482.1
30151.4
31892.3
33446.9
34818.9
35842.3
36597.2
37168.5
37676.4
33552.8
33807.8
33881.6
33653.4
33016
31967.2
30589.1
29067.9
27534.5
25815.9
24973
27122.5
27491.5
27148.2
26410.2
25247.1
23499.3
21114.4
17967.5
13908.4
9021.88
4993.59
2798.66
1806.14
20271.9
19170.5
17547.8
15400.2
12588.2
9132.95
5222.82
2096.55
647.819
219.046
150.546
123.523
12667.1
10944.7
8750.23
6155.91
3349.4
1195.74
247.659
30.8854
20.1088
11.012
13.2947
12.4842
5800.2
3946.39
2077.97
716.096
129.89
9.87611
8.61983
4.89798
5.6295
5.51247
5.56306
5.49293
1153.07
376.376
76.0293
3.2234
6.70257
4.88977
5.04906
5.05808
5.08088
5.13482
5.18442
5.23736
44.964
1.26796
5.58111
4.73469
4.77259
4.79973
4.83466
4.87603
4.92092
4.97241
5.02279
5.0694
4.86039
4.44557
4.53599
4.55798
4.5839
4.61949
4.6576
4.70149
4.75236
4.81144
4.86466
4.91678
4.24394
4.27677
4.30738
4.33781
4.36821
4.40065
4.43488
4.47279
4.51531
4.56502
4.6222
4.68303
3.80609
3.83357
3.85874
3.88494
3.91002
3.9385
3.96905
4.0062
4.04722
4.096
4.15105
4.20785
3.16953
3.17246
3.17126
3.17228
3.16983
3.17077
3.17197
3.17797
3.18605
3.19752
3.21216
3.22902
3.46749
3.32716
3.34318
3.23623
3.24836
3.16864
3.1799
3.12942
3.14139
3.12628
3.13911
3.15021
96917.5
26171.5
23841.2
25546.4
27134.6
28721.2
30056.8
31119.9
31916.3
32514.6
32947.7
33267.2
75231.6
21793.9
20563.6
22237.4
23584.4
24795
25769.9
26530.9
27126.2
27495.9
27654
27661
60847.2
17890
17203.3
18541.8
19509.4
20317.7
20973.8
21467.2
21745.3
21784.8
21529.9
21039.7
48848.5
14211.7
13778.7
14636.9
15242.6
15731.3
16064.1
16196.9
16098.3
15673.8
14986.6
13999
38170.2
10740.1
10386.2
10857.4
11157.9
11298
11297.7
11012.6
10520.2
9736.07
8718.52
7402
28221.6
7579.55
7186.15
7411.18
7422.89
7221.26
6878.74
6306.51
5577.69
4611.45
3509.4
2274.95
19801.5
4776.55
4473.27
4404.53
4164.12
3723.57
3220.32
2540.62
1863.54
1116.63
550.257
156.005
12492.7
2451.2
2293.93
1892.88
1682.69
1176.35
851.317
417.81
217.368
35.7968
29.2398
1.53586
6057.01
763.697
771.263
388.676
352.935
99.9925
82.1673
6.29595
10.6183
3.43619
4.39143
4.17552
2233.92
94.3843
105.735
20.3216
24.3021
2.82416
5.16486
3.6571
3.76594
3.7315
3.75234
3.78099
554.766
5.78071
8.30999
3.31977
3.6969
3.35585
3.22917
3.23716
3.19898
3.18273
3.17202
3.17452
950.385
6.20052
5.69673
4.83955
4.71399
4.22381
4.229
3.81617
3.87423
3.59694
3.63521
3.44302
33552.9
33807.9
33881.7
33653.4
33016.1
31967.3
30589.2
29068
27534.6
25815.9
24973
27122.6
27491.5
27148.3
26410.2
25247.1
23499.3
21114.4
17967.6
13908.4
9021.92
4993.61
2798.67
1806.15
20271.9
19170.5
17547.9
15400.3
12588.3
9133.01
5222.86
2096.57
647.825
219.049
150.548
123.525
12667.2
10944.8
8750.28
6155.96
3349.44
1195.76
247.663
30.8863
20.1094
11.0126
13.2953
12.4848
5800.25
3946.42
2077.99
716.107
129.893
9.87652
8.62007
4.89812
5.62966
5.51266
5.56326
5.49317
1153.09
376.38
76.0319
3.22326
6.7026
4.88973
5.04904
5.05807
5.08086
5.13479
5.18439
5.23734
44.9636
1.26772
5.58109
4.73463
4.77253
4.79967
4.8346
4.87596
4.92086
4.97235
5.02273
5.06934
4.86036
4.44552
4.53595
4.55793
4.58386
4.61945
4.65756
4.70145
4.75232
4.8114
4.86462
4.91674
4.24392
4.27675
4.30736
4.33779
4.36819
4.40062
4.43486
4.47277
4.51528
4.565
4.62218
4.683
3.80608
3.83356
3.85873
3.88494
3.91001
3.93849
3.96904
4.00619
4.04721
4.09599
4.15104
4.20784
3.16962
3.17246
3.17125
3.17228
3.16983
3.17077
3.17197
3.17797
3.18605
3.19752
3.21216
3.22902
3.46749
3.32716
3.34318
3.23623
3.24836
3.16864
3.1799
3.12942
3.14139
3.12628
3.13911
3.15022
96917.5
26171.5
23841.2
25546.3
27134.5
28721.2
30056.8
31119.8
31916.3
32514.6
32947.6
33267.1
75231.5
21793.9
20563.6
22237.4
23584.4
24794.9
25769.8
26530.9
27126.2
27495.9
27653.9
27660.9
60847.1
17890
17203.2
18541.8
19509.4
20317.6
20973.8
21467.1
21745.3
21784.7
21529.8
21039.6
48848.3
14211.7
13778.7
14636.9
15242.6
15731.3
16064.1
16196.9
16098.2
15673.7
14986.6
13998.9
38170
10740
10386.1
10857.4
11157.9
11297.9
11297.7
11012.5
10520.1
9736.01
8718.46
7401.94
28221.5
7579.51
7186.11
7411.14
7422.85
7221.21
6878.69
6306.46
5577.64
4611.4
3509.35
2274.92
19801.4
4776.52
4473.23
4404.49
4164.08
3723.52
3220.28
2540.59
1863.51
1116.61
550.243
156
12492.5
2451.17
2293.9
1892.85
1682.66
1176.32
851.296
417.796
217.361
35.795
29.2391
1.53592
6056.93
763.681
771.246
388.664
352.923
99.9875
82.1638
6.2955
10.6179
3.43625
4.39144
4.17554
2233.88
94.3808
105.731
20.3204
24.3009
2.82416
5.16477
3.65713
3.76595
3.73152
3.75236
3.78101
554.755
5.78064
8.3098
3.3198
3.6969
3.35586
3.22918
3.23718
3.199
3.18274
3.17204
3.17454
950.36
6.20054
5.69671
4.83955
4.71399
4.22381
4.229
3.81617
3.87424
3.59694
3.63522
3.44304
33552.8
33807.8
33881.6
33653.3
33016
31967.2
30589.1
29067.9
27534.5
25815.9
24973
27122.5
27491.5
27148.2
26410.2
25247.1
23499.2
21114.4
17967.5
13908.4
9021.88
4993.59
2798.66
1806.14
20271.8
19170.5
17547.8
15400.2
12588.2
9132.94
5222.81
2096.56
647.821
219.048
150.546
123.524
12667.1
10944.7
8750.22
6155.9
3349.39
1195.74
247.659
30.8865
20.1091
11.0127
13.2953
12.4848
5800.19
3946.38
2077.96
716.093
129.89
9.87632
8.62016
4.89815
5.62969
5.5127
5.5633
5.49321
1153.07
376.372
76.03
3.22315
6.70257
4.88977
5.04908
5.0581
5.08089
5.13483
5.18443
5.23738
44.9625
1.26771
5.58108
4.73466
4.77256
4.7997
4.83463
4.87599
4.92089
4.97238
5.02276
5.06937
4.86037
4.44555
4.53597
4.55795
4.58388
4.61948
4.65758
4.70147
4.75234
4.81143
4.86465
4.91677
4.24394
4.27677
4.30738
4.33781
4.36821
4.40065
4.43488
4.47279
4.51531
4.56503
4.6222
4.68303
3.8061
3.83358
3.85875
3.88496
3.91004
3.93852
3.96907
4.00621
4.04724
4.09602
4.15107
4.20787
3.16964
3.17248
3.17127
3.17229
3.16985
3.17079
3.17199
3.17799
3.18607
3.19754
3.21218
3.22904
3.4675
3.32717
3.3432
3.23624
3.24837
3.16866
3.17992
3.12944
3.14141
3.1263
3.13913
3.15023
96917.4
26171.5
23841.2
25546.3
27134.5
28721.2
30056.8
31119.8
31916.3
32514.5
32947.6
33267.1
75231.5
21793.9
20563.6
22237.4
23584.4
24794.9
25769.8
26530.9
27126.2
27495.9
27653.9
27660.9
60847.1
17890
17203.2
18541.8
19509.4
20317.6
20973.8
21467.1
21745.3
21784.7
21529.8
21039.6
48848.4
14211.7
13778.7
14636.9
15242.6
15731.3
16064.1
16196.9
16098.2
15673.7
14986.6
13998.9
38170
10740
10386.1
10857.4
11157.9
11297.9
11297.7
11012.5
10520.1
9736
8718.46
7401.93
28221.5
7579.52
7186.11
7411.14
7422.85
7221.22
6878.69
6306.46
5577.64
4611.4
3509.35
2274.92
19801.4
4776.52
4473.24
4404.49
4164.08
3723.53
3220.28
2540.59
1863.51
1116.61
550.244
156
12492.6
2451.17
2293.9
1892.85
1682.66
1176.32
851.296
417.796
217.362
35.7952
29.2393
1.53594
6056.95
763.681
771.247
388.663
352.923
99.9875
82.1639
6.29556
10.618
3.43626
4.39146
4.17555
2233.89
94.3807
105.731
20.3203
24.3009
2.82417
5.16477
3.65713
3.76596
3.73152
3.75236
3.78101
554.759
5.78065
8.3098
3.3198
3.6969
3.35586
3.22918
3.23718
3.199
3.18274
3.17204
3.17454
950.378
6.20059
5.69671
4.83957
4.714
4.22383
4.22901
3.81618
3.87425
3.59695
3.63522
3.44304
33552.8
33807.8
33881.6
33653.3
33016
31967.2
30589.1
29067.9
27534.5
25815.9
24973
27122.5
27491.5
27148.2
26410.1
25247
23499.2
21114.4
17967.5
13908.4
9021.87
4993.59
2798.66
1806.15
20271.8
19170.5
17547.8
15400.2
12588.2
9132.93
5222.81
2096.56
647.822
219.049
150.548
123.526
12667.1
10944.7
8750.21
6155.9
3349.39
1195.74
247.66
30.8872
20.1095
11.0131
13.2957
12.4852
5800.19
3946.37
2077.96
716.094
129.89
9.87658
8.62026
4.89828
5.62985
5.51286
5.56347
5.4934
1153.07
376.371
76.0304
3.22317
6.70264
4.88982
5.04913
5.05816
5.08095
5.13488
5.18448
5.23744
44.9628
1.2677
5.58112
4.73469
4.77259
4.79973
4.83465
4.87602
4.92092
4.97241
5.02279
5.0694
4.86039
4.44557
4.536
4.55798
4.58391
4.6195
4.6576
4.70149
4.75237
4.81145
4.86467
4.91679
4.24395
4.27678
4.30739
4.33782
4.36823
4.40066
4.4349
4.47281
4.51532
4.56504
4.62221
4.68304
3.8061
3.83358
3.85876
3.88496
3.91004
3.93852
3.96907
4.00621
4.04724
4.09602
4.15107
4.20787
3.16964
3.17248
3.17127
3.17229
3.16985
3.17079
3.17198
3.17798
3.18607
3.19754
3.21218
3.22904
3.46751
3.32717
3.3432
3.23624
3.24837
3.16865
3.17991
3.12943
3.1414
3.12629
3.13912
3.15023
96917.4
26171.5
23841.2
25546.3
27134.5
28721.2
30056.8
31119.8
31916.3
32514.5
32947.6
33267.2
75231.4
21793.9
20563.6
22237.4
23584.4
24794.9
25769.8
26530.9
27126.2
27495.9
27654
27661
60847.1
17890
17203.2
18541.8
19509.4
20317.6
20973.8
21467.1
21745.3
21784.7
21529.8
21039.6
48848.3
14211.6
13778.7
14636.9
15242.6
15731.3
16064.1
16196.9
16098.2
15673.7
14986.6
13998.9
38170
10740
10386.1
10857.4
11157.9
11297.9
11297.7
11012.5
10520.1
9736.02
8718.48
7401.94
28221.5
7579.51
7186.11
7411.14
7422.85
7221.22
6878.7
6306.47
5577.65
4611.42
3509.37
2274.93
19801.4
4776.52
4473.24
4404.5
4164.09
3723.54
3220.29
2540.6
1863.52
1116.62
550.251
156.002
12492.6
2451.17
2293.9
1892.86
1682.67
1176.33
851.308
417.806
217.368
35.7984
29.2412
1.53683
6056.96
763.689
771.254
388.672
352.932
99.9933
82.1685
6.29805
10.6203
3.43808
4.39333
4.17746
2233.91
94.3857
105.736
20.3234
24.3037
2.82586
5.16653
3.6587
3.76759
3.7332
3.75409
3.78281
554.766
5.78208
8.31162
3.32105
3.69822
3.35714
3.23051
3.23845
3.20005
3.18374
3.17278
3.17532
950.383
6.20135
5.69807
4.84044
4.71494
4.2246
4.22985
3.81696
3.87503
3.59769
3.63597
3.44374
)
;

boundaryField
{
    rotor
    {
        type            epsilonWallFunction;
        blending        stepwise;
        value           nonuniform List<scalar> 
192
(
2063.71
1836.36
2283.84
2279.08
2229.2
1965.39
1822.04
2605.12
13624.5
34139.8
44097
49190
53403.4
55543.7
56814.7
57009.8
57080.5
54444.9
50615
44528.2
37011.7
28206.2
17930.1
21724.2
2063.73
1836.38
2283.86
2279.09
2229.21
1965.4
1822.05
2605.14
13624.7
34140
44097.2
49190.2
53403.6
55543.9
56814.9
57010
57080.6
54445.1
50615.1
44528.3
37011.8
28206.2
17930.2
21724.2
2063.75
1836.4
2283.88
2279.12
2229.24
1965.42
1822.06
2605.16
13624.7
34140
44097.1
49190.2
53403.5
55543.9
56814.8
57009.9
57080.6
54445
50615
44528.2
37011.7
28206.2
17930.1
21724.1
2063.72
1836.37
2283.85
2279.08
2229.2
1965.39
1822.04
2605.12
13624.5
34139.8
44096.9
49190
53403.3
55543.7
56814.6
57009.8
57080.4
54444.9
50614.9
44528.1
37011.7
28206.1
17930.1
21724.1
2063.71
5588.63
7929.53
11142
13155.7
14514.4
14950.3
16156.6
18126.4
22309.6
25788.4
97173.6
21724.1
72970.8
115772
146645
172754
196381
219627
247154
280252
315612
358160
416032
2063.73
5588.69
7929.62
11142.1
13155.9
14514.5
14950.4
16156.7
18126.5
22309.6
25788.4
97173.7
21724.2
72970.9
115772
146645
172754
196381
219627
247154
280252
315612
358160
416032
2063.75
5588.73
7929.67
11142.2
13156
14514.6
14950.5
16156.8
18126.6
22309.7
25788.5
97173.9
21724.2
72971
115772
146646
172754
196382
219627
247154
280253
315612
358161
416033
2063.72
5588.66
7929.57
11142.1
13155.8
14514.5
14950.4
16156.7
18126.4
22309.6
25788.4
97173.7
21724.1
72970.8
115772
146645
172754
196381
219627
247154
280252
315612
358160
416032
)
;
    }
    stator
    {
        type            epsilonWallFunction;
        blending        stepwise;
        value           nonuniform List<scalar> 
192
(
3.46749
3.32716
3.34318
3.23623
3.24836
3.16864
3.1799
3.12942
3.14139
3.12628
3.13911
3.15021
950.385
6.20052
5.69673
4.83955
4.71399
4.22381
4.229
3.81617
3.87423
3.59694
3.63521
3.44302
3.46749
3.32716
3.34318
3.23623
3.24836
3.16864
3.1799
3.12942
3.14139
3.12628
3.13911
3.15022
950.36
6.20054
5.69671
4.83955
4.71399
4.22381
4.229
3.81617
3.87424
3.59694
3.63522
3.44304
3.4675
3.32717
3.3432
3.23624
3.24837
3.16866
3.17992
3.12944
3.14141
3.1263
3.13913
3.15023
950.378
6.20059
5.69671
4.83957
4.714
4.22383
4.22901
3.81618
3.87425
3.59695
3.63522
3.44304
3.46751
3.32717
3.3432
3.23624
3.24837
3.16865
3.17991
3.12943
3.1414
3.12629
3.13912
3.15023
950.383
6.20135
5.69807
4.84044
4.71494
4.2246
4.22985
3.81696
3.87503
3.59769
3.63597
3.44374
96917.5
75231.6
60847.2
48848.5
38170.2
28221.6
19801.5
12492.7
6057.01
2233.92
554.766
950.385
27122.5
1806.14
123.523
12.4842
5.49293
5.23736
5.0694
4.91678
4.68303
4.20785
3.22902
3.15021
96917.5
75231.5
60847.1
48848.3
38170
28221.5
19801.4
12492.5
6056.93
2233.88
554.755
950.36
27122.6
1806.15
123.525
12.4848
5.49317
5.23734
5.06934
4.91674
4.683
4.20784
3.22902
3.15022
96917.4
75231.5
60847.1
48848.4
38170
28221.5
19801.4
12492.6
6056.95
2233.89
554.759
950.378
27122.5
1806.14
123.524
12.4848
5.49321
5.23738
5.06937
4.91677
4.68303
4.20787
3.22904
3.15023
96917.4
75231.4
60847.1
48848.3
38170
28221.5
19801.4
12492.6
6056.96
2233.91
554.766
950.383
27122.5
1806.15
123.526
12.4852
5.4934
5.23744
5.0694
4.91679
4.68304
4.20787
3.22904
3.15023
)
;
    }
    front
    {
        type            empty;
    }
    back
    {
        type            empty;
    }
}


// ************************************************************************* //
