/*--------------------------------*- C++ -*----------------------------------*\
| =========                 |                                                 |
| \\      /  F ield         | OpenFOAM: The Open Source CFD Toolbox           |
|  \\    /   O peration     | Version:  2212                                  |
|   \\  /    A nd           | Website:  www.openfoam.com                      |
|    \\/     M anipulation  |                                                 |
\*---------------------------------------------------------------------------*/
FoamFile
{
    version     2.0;
    format      ascii;
    arch        "LSB;label=32;scalar=64";
    class       volScalarField;
    location    "0.09";
    object      k;
}
// * * * * * * * * * * * * * * * * * * * * * * * * * * * * * * * * * * * * * //

dimensions      [0 2 -2 0 0 0 0];

internalField   nonuniform List<scalar> 
3072
(
2.34379
3.2454
3.75216
3.74663
3.69136
3.39352
3.22616
4.09371
12.3295
22.7519
26.9862
29.026
4.90304
7.92761
8.43188
8.20848
8.35959
8.03629
12.1369
19.1807
21.9613
31.739
38.5451
46.3162
6.61634
11.2714
13.1153
14.6983
19.306
21.6929
21.89
26.9468
35.0733
44.9845
52.9342
60.1936
8.81714
16.6536
18.7321
19.5217
22.1488
23.2878
27.0826
36.4101
45.931
54.6157
61.676
67.7444
10.4118
20.0617
22.0847
21.969
23.4564
26.613
34.8303
45.0675
53.8696
61.2452
67.2816
72.4264
11.7003
22.242
23.6851
23.5838
26.4388
33.1749
42.8367
52.0165
59.5504
65.661
70.7417
75.1272
12.5147
23.6598
25.6702
27.0745
32.5006
41.2597
50.1778
57.8563
64.0929
69.1357
73.3882
77.1356
13.7764
26.9335
30.8711
35.7859
44.1039
52.1243
59.176
64.9461
69.623
73.4454
76.7432
79.7599
15.5055
33.3438
42.9521
53.3768
62.8083
69.2846
73.6575
76.656
78.9251
80.8187
82.6119
84.4831
18.5164
42.9797
62.9599
78.4424
88.6202
93.2873
94.6486
94.2786
93.3829
92.5729
92.1791
92.3514
21.1638
56.5645
91.664
111.513
120.522
122.373
120.477
116.453
112.111
108.227
105.184
103.121
53.0794
92.9489
130.66
146.996
150.996
149.792
144.674
138.027
131.115
124.777
119.47
115.363
30.6611
31.476
31.9536
32.0272
32.0536
31.0593
29.5851
27.1632
24.0136
20.0352
14.8121
11.2472
53.1789
58.9428
62.9323
64.9358
65.0204
64.3222
62.961
60.4764
55.787
45.8636
32.8061
27.1627
66.1008
70.4356
73.2665
74.8023
75.5425
75.896
75.9134
75.309
73.1527
67.033
50.3287
39.4954
72.6603
76.502
79.3986
81.506
83.1331
84.5871
86.0931
87.5027
87.8371
85.1109
71.4203
49.1243
76.6747
80.1649
83.034
85.4598
87.7287
90.1639
93.0555
96.3787
99.122
99.3297
89.778
57.9227
78.892
82.1779
85.1249
87.9215
90.8552
94.2821
98.5352
103.689
109.18
112.403
107.766
66.4084
80.5024
83.6289
86.6617
89.7976
93.327
97.6299
103.106
109.962
117.775
124.177
124.113
75.0382
82.6369
85.5057
88.5149
91.8597
95.821
100.795
107.263
115.624
125.687
135.031
138.195
84.8713
86.5346
88.8612
91.606
94.9368
99.0878
104.434
111.516
120.995
133.119
145.52
150.91
96.2131
93.1219
94.5364
96.7297
99.7899
103.86
109.233
116.402
126.315
139.925
155.608
164.708
108.308
102.364
102.963
104.385
106.82
110.55
115.611
122.254
131.61
145.376
164.071
180.295
122.279
112.992
112.915
113.978
115.888
118.921
123.291
128.76
136.476
148.084
168.028
194.483
139.942
2.34381
3.24542
3.75218
3.74665
3.69138
3.39353
3.22617
4.09374
12.3297
22.752
26.9863
29.0261
4.90307
7.92765
8.43191
8.20849
8.3596
8.0363
12.137
19.1808
21.9614
31.7391
38.5453
46.3163
6.61638
11.2714
13.1154
14.6984
19.306
21.6929
21.89
26.947
35.0735
44.9848
52.9344
60.1938
8.81721
16.6537
18.7322
19.5217
22.1488
23.2878
27.0827
36.4103
45.9312
54.616
61.6763
67.7447
10.4118
20.0619
22.0847
21.969
23.4565
26.6132
34.8306
45.0678
53.8699
61.2455
67.2819
72.4267
11.7004
22.2421
23.6852
23.5839
26.439
33.1752
42.837
52.0168
59.5507
65.6613
70.742
75.1275
12.5148
23.6599
25.6703
27.0748
32.5009
41.2601
50.1781
57.8566
64.0932
69.136
73.3885
77.1359
13.7765
26.9336
30.8714
35.7862
44.1043
52.1247
59.1763
64.9465
69.6233
73.4458
76.7435
79.7602
15.5055
33.3438
42.9523
53.3771
62.8085
69.2849
73.6578
76.6563
78.9255
80.8191
82.6123
84.4835
18.5164
42.9797
62.96
78.4425
88.6203
93.2874
94.6488
94.2789
93.3832
92.5732
92.1794
92.3517
21.1638
56.5645
91.6641
111.513
120.522
122.373
120.477
116.453
112.111
108.228
105.184
103.122
53.0794
92.9489
130.66
146.996
150.996
149.792
144.675
138.027
131.115
124.777
119.47
115.363
30.6612
31.4761
31.9537
32.0273
32.0537
31.0593
29.5852
27.1632
24.0136
20.0352
14.8121
11.2472
53.1791
58.943
62.9325
64.936
65.0205
64.3223
62.9611
60.4765
55.7871
45.8637
32.8061
27.1627
66.1011
70.4358
73.2667
74.8025
75.5427
75.8962
75.9136
75.3092
73.1528
67.0331
50.3288
39.4955
72.6606
76.5023
79.3989
81.5062
83.1333
84.5873
86.0934
87.5029
87.8373
85.1111
71.4204
49.1244
76.675
80.1652
83.0343
85.4601
87.729
90.1642
93.0557
96.3789
99.1222
99.3299
89.7781
57.9228
78.8923
82.1782
85.1253
87.9218
90.8555
94.2824
98.5355
103.69
109.18
112.403
107.766
66.4085
80.5028
83.6292
86.662
89.798
93.3273
97.6302
103.106
109.962
117.775
124.177
124.113
75.0383
82.6373
85.506
88.5153
91.8601
95.8213
100.795
107.264
115.624
125.688
135.032
138.196
84.8714
86.5349
88.8615
91.6063
94.9372
99.0881
104.435
111.516
120.995
133.119
145.52
150.91
96.2132
93.1222
94.5367
96.73
99.7902
103.86
109.234
116.403
126.315
139.925
155.608
164.708
108.308
102.364
102.964
104.385
106.82
110.551
115.611
122.255
131.61
145.376
164.071
180.296
122.279
112.993
112.916
113.978
115.888
118.921
123.291
128.76
136.477
148.084
168.028
194.483
139.943
2.34381
3.24543
3.7522
3.74667
3.6914
3.39355
3.22619
4.09376
12.3297
22.752
26.9863
29.026
4.90309
7.92768
8.43197
8.20856
8.35966
8.03634
12.137
19.1808
21.9614
31.7391
38.5453
46.3163
6.61641
11.2715
13.1155
14.6985
19.3061
21.6929
21.89
26.947
35.0735
44.9847
52.9344
60.1938
8.81725
16.6538
18.7322
19.5218
22.1489
23.2878
27.0827
36.4103
45.9312
54.616
61.6762
67.7446
10.4119
20.0619
22.0848
21.9691
23.4565
26.6132
34.8306
45.0678
53.8699
61.2455
67.2819
72.4267
11.7005
22.2422
23.6853
23.5839
26.439
33.1752
42.837
52.0168
59.5507
65.6613
70.742
75.1275
12.5148
23.66
25.6704
27.0748
32.5009
41.2601
50.1782
57.8566
64.0933
69.136
73.3886
77.1359
13.7765
26.9337
30.8714
35.7862
44.1043
52.1248
59.1764
64.9466
69.6234
73.4458
76.7436
79.7602
15.5055
33.3439
42.9524
53.3771
62.8086
69.285
73.6579
76.6564
78.9256
80.8192
82.6124
84.4836
18.5165
42.9798
62.9601
78.4426
88.6204
93.2876
94.649
94.279
93.3833
92.5734
92.1796
92.3518
21.1638
56.5646
91.6642
111.513
120.522
122.373
120.477
116.453
112.111
108.228
105.184
103.122
53.0795
92.949
130.66
146.996
150.996
149.792
144.675
138.027
131.115
124.777
119.47
115.363
30.6611
31.476
31.9537
32.0272
32.0536
31.0593
29.5852
27.1632
24.0136
20.0352
14.8121
11.2471
53.179
58.943
62.9324
64.936
65.0205
64.3223
62.9611
60.4764
55.787
45.8636
32.8061
27.1626
66.101
70.4358
73.2667
74.8025
75.5427
75.8961
75.9135
75.3091
73.1527
67.033
50.3287
39.4954
72.6605
76.5022
79.3989
81.5062
83.1333
84.5872
86.0933
87.5028
87.8372
85.111
71.4203
49.1243
76.675
80.1651
83.0343
85.46
87.7289
90.1641
93.0557
96.3789
99.1221
99.3298
89.778
57.9227
78.8923
82.1782
85.1252
87.9218
90.8555
94.2823
98.5354
103.689
109.18
112.403
107.766
66.4084
80.5028
83.6292
86.662
89.7979
93.3273
97.6302
103.106
109.962
117.775
124.177
124.113
75.0382
82.6373
85.5061
88.5153
91.8601
95.8213
100.795
107.264
115.624
125.688
135.031
138.196
84.8713
86.535
88.8616
91.6064
94.9372
99.0881
104.435
111.516
120.995
133.119
145.52
150.91
96.2131
93.1223
94.5368
96.7301
99.7903
103.86
109.234
116.403
126.315
139.925
155.608
164.708
108.308
102.364
102.964
104.385
106.82
110.551
115.611
122.255
131.61
145.376
164.071
180.295
122.279
112.993
112.916
113.978
115.888
118.921
123.291
128.76
136.477
148.084
168.028
194.483
139.942
2.3438
3.24541
3.75216
3.74664
3.69137
3.39352
3.22616
4.09372
12.3296
22.7519
26.9862
29.026
4.90306
7.92763
8.43189
8.20848
8.35958
8.03627
12.1369
19.1807
21.9614
31.739
38.5451
46.3162
6.61636
11.2714
13.1153
14.6983
19.3059
21.6929
21.8899
26.9469
35.0733
44.9846
52.9342
60.1936
8.81717
16.6537
18.7321
19.5217
22.1488
23.2877
27.0826
36.4101
45.931
54.6158
61.6761
67.7444
10.4118
20.0618
22.0847
21.969
23.4564
26.613
34.8304
45.0676
53.8697
61.2453
67.2817
72.4265
11.7004
22.2421
23.6851
23.5838
26.4389
33.175
42.8368
52.0166
59.5505
65.6611
70.7418
75.1273
12.5148
23.6598
25.6702
27.0746
32.5007
41.2599
50.1779
57.8564
64.093
69.1358
73.3884
77.1357
13.7764
26.9335
30.8713
35.786
44.1041
52.1246
59.1762
64.9463
69.6232
73.4456
76.7434
79.76
15.5055
33.3438
42.9522
53.377
62.8085
69.2848
73.6577
76.6562
78.9254
80.819
82.6122
84.4834
18.5164
42.9797
62.9599
78.4425
88.6202
93.2874
94.6488
94.2788
93.3831
92.5732
92.1794
92.3516
21.1638
56.5645
91.664
111.513
120.522
122.373
120.477
116.453
112.111
108.228
105.184
103.122
53.0794
92.9489
130.66
146.996
150.996
149.792
144.675
138.027
131.115
124.777
119.47
115.363
30.6611
31.476
31.9536
32.0272
32.0536
31.0593
29.5851
27.1632
24.0136
20.0352
14.8121
11.2471
53.1789
58.9428
62.9323
64.9359
65.0204
64.3222
62.961
60.4764
55.7869
45.8636
32.806
27.1626
66.1009
70.4356
73.2665
74.8023
75.5426
75.896
75.9134
75.309
73.1527
67.033
50.3287
39.4954
72.6604
76.5021
79.3987
81.506
83.1331
84.5871
86.0932
87.5028
87.8372
85.1109
71.4202
49.1243
76.6748
80.165
83.0341
85.4599
87.7288
90.164
93.0556
96.3788
99.122
99.3297
89.778
57.9227
78.8921
82.178
85.1251
87.9217
90.8553
94.2822
98.5353
103.689
109.18
112.403
107.766
66.4084
80.5026
83.6291
86.6618
89.7978
93.3272
97.6301
103.106
109.962
117.775
124.177
124.113
75.0381
82.6371
85.5059
88.5151
91.8599
95.8212
100.795
107.263
115.624
125.688
135.031
138.195
84.8713
86.5348
88.8614
91.6062
94.937
99.088
104.435
111.516
120.995
133.119
145.52
150.91
96.2131
93.1221
94.5366
96.7299
99.7902
103.86
109.234
116.403
126.315
139.925
155.608
164.708
108.308
102.364
102.964
104.385
106.82
110.55
115.611
122.255
131.61
145.376
164.071
180.295
122.279
112.993
112.916
113.978
115.888
118.921
123.291
128.76
136.477
148.084
168.028
194.483
139.942
164.566
161.727
162.467
163.806
163.625
161.691
157.068
150.906
143.98
137.208
131.165
126.135
164.833
158.355
155.647
155.442
155.99
155.707
154.231
151.265
146.861
142.069
137.312
133.043
152.838
148.914
145.678
144.14
143.967
144.301
144.455
143.97
142.794
140.765
138.231
135.976
139.988
138.342
136.438
134.879
134.333
134.572
135.221
135.872
136.305
136.302
136.017
135.78
123.158
122.904
123.854
125.461
127.82
130.927
134.435
139.406
147.53
163.434
192.259
183.85
131.074
131.39
132.271
133.362
134.459
135.433
136.805
139.26
143.599
152.492
172.819
172.33
135.958
136.557
136.838
136.616
135.924
134.957
134.45
134.73
136.553
140.83
152.735
155.379
136.688
136.27
134.703
132.651
130.252
128.523
127.692
127.792
129.154
131.54
137.925
140.964
164.566
161.728
162.467
163.806
163.625
161.691
157.068
150.906
143.98
137.208
131.165
126.135
164.833
158.356
155.648
155.442
155.99
155.708
154.231
151.266
146.861
142.069
137.312
133.043
152.838
148.914
145.679
144.14
143.967
144.301
144.455
143.97
142.794
140.765
138.232
135.976
139.988
138.343
136.439
134.879
134.333
134.573
135.221
135.872
136.305
136.302
136.018
135.78
123.158
122.904
123.854
125.461
127.82
130.928
134.435
139.406
147.53
163.434
192.259
183.851
131.074
131.39
132.271
133.362
134.459
135.434
136.806
139.26
143.599
152.492
172.819
172.33
135.958
136.557
136.838
136.616
135.924
134.957
134.45
134.73
136.553
140.83
152.735
155.379
136.688
136.27
134.703
132.651
130.252
128.523
127.692
127.792
129.154
131.54
137.925
140.964
164.566
161.728
162.467
163.806
163.625
161.691
157.068
150.906
143.98
137.208
131.166
126.135
164.833
158.356
155.648
155.442
155.99
155.708
154.231
151.266
146.861
142.069
137.312
133.043
152.839
148.915
145.679
144.141
143.967
144.301
144.455
143.97
142.794
140.765
138.232
135.976
139.988
138.343
136.439
134.88
134.333
134.573
135.221
135.872
136.305
136.302
136.018
135.78
123.158
122.904
123.854
125.461
127.82
130.928
134.435
139.406
147.53
163.434
192.259
183.85
131.075
131.39
132.271
133.362
134.459
135.433
136.806
139.26
143.599
152.492
172.819
172.33
135.958
136.557
136.838
136.616
135.924
134.957
134.45
134.73
136.553
140.83
152.735
155.379
136.688
136.27
134.703
132.651
130.252
128.523
127.692
127.792
129.154
131.54
137.925
140.964
164.566
161.728
162.467
163.806
163.625
161.691
157.068
150.906
143.98
137.208
131.166
126.135
164.833
158.356
155.648
155.442
155.99
155.708
154.231
151.266
146.861
142.069
137.312
133.043
152.839
148.914
145.679
144.14
143.967
144.301
144.455
143.97
142.794
140.765
138.232
135.976
139.988
138.343
136.439
134.88
134.333
134.573
135.221
135.872
136.305
136.302
136.018
135.78
123.158
122.904
123.854
125.461
127.82
130.928
134.435
139.406
147.53
163.434
192.259
183.85
131.075
131.39
132.271
133.362
134.459
135.433
136.805
139.26
143.599
152.492
172.819
172.329
135.958
136.557
136.838
136.616
135.924
134.957
134.45
134.73
136.553
140.83
152.735
155.379
136.688
136.27
134.703
132.651
130.252
128.523
127.692
127.792
129.154
131.54
137.925
140.964
128.936
128.079
127.493
127.49
127.877
128.474
128.969
129.173
128.898
128.164
127.362
126.93
121.601
121.569
121.709
122.069
122.384
122.402
121.607
119.974
117.451
114.499
111.934
111.066
114.956
115.11
115.208
115.218
114.678
113.361
111.023
107.706
103.611
99.5476
96.5441
96.3215
106.637
106.461
105.858
104.844
102.981
100.198
96.438
91.9399
87.1859
83.1672
81.0608
80.9703
127.185
124.885
121.855
121.137
120.669
121.305
122.462
124.088
126.102
128.442
130.348
130.646
112.273
112.401
111.142
112.41
113.895
115.997
118.097
120.194
121.933
123.092
123.74
122.974
100.279
102.869
102.627
105.312
107.831
110.568
112.968
114.8
116.029
116.735
116.771
115.72
87.3345
94.4589
94.912
98.0877
100.955
103.662
105.759
107.27
108.301
108.684
108.281
107.26
128.937
128.079
127.493
127.49
127.878
128.474
128.969
129.173
128.898
128.164
127.362
126.93
121.601
121.569
121.709
122.069
122.385
122.402
121.607
119.974
117.452
114.499
111.934
111.066
114.956
115.11
115.208
115.219
114.678
113.361
111.023
107.706
103.611
99.5477
96.5441
96.3216
106.637
106.461
105.858
104.844
102.981
100.198
96.4381
91.94
87.1859
83.1673
81.0608
80.9703
127.185
124.885
121.855
121.137
120.669
121.305
122.462
124.088
126.102
128.442
130.348
130.646
112.273
112.401
111.142
112.41
113.895
115.997
118.097
120.194
121.933
123.092
123.74
122.974
100.279
102.869
102.627
105.312
107.831
110.568
112.968
114.8
116.029
116.735
116.771
115.72
87.3345
94.4589
94.912
98.0877
100.955
103.662
105.759
107.27
108.301
108.684
108.281
107.26
128.937
128.079
127.493
127.49
127.878
128.474
128.969
129.173
128.898
128.164
127.362
126.93
121.601
121.569
121.709
122.069
122.385
122.402
121.607
119.974
117.451
114.499
111.934
111.066
114.956
115.11
115.208
115.219
114.678
113.361
111.023
107.706
103.611
99.5476
96.5441
96.3215
106.637
106.461
105.858
104.844
102.981
100.198
96.438
91.9399
87.1858
83.1672
81.0608
80.9702
127.185
124.885
121.855
121.137
120.669
121.305
122.462
124.088
126.102
128.442
130.348
130.646
112.273
112.401
111.142
112.41
113.895
115.997
118.097
120.194
121.933
123.092
123.74
122.974
100.279
102.869
102.627
105.312
107.831
110.568
112.968
114.8
116.029
116.734
116.771
115.72
87.3344
94.4588
94.9119
98.0876
100.955
103.661
105.759
107.27
108.301
108.684
108.281
107.26
128.937
128.079
127.493
127.49
127.878
128.474
128.969
129.173
128.898
128.164
127.362
126.93
121.601
121.569
121.709
122.069
122.384
122.402
121.607
119.974
117.451
114.499
111.934
111.066
114.956
115.11
115.208
115.219
114.678
113.361
111.023
107.706
103.611
99.5476
96.544
96.3215
106.637
106.461
105.858
104.844
102.981
100.198
96.438
91.9399
87.1858
83.1672
81.0607
80.9702
127.185
124.885
121.855
121.137
120.669
121.305
122.462
124.088
126.102
128.442
130.348
130.646
112.273
112.401
111.142
112.41
113.895
115.997
118.097
120.194
121.932
123.092
123.74
122.974
100.279
102.869
102.627
105.312
107.831
110.568
112.968
114.8
116.029
116.734
116.771
115.72
87.3344
94.4588
94.9119
98.0876
100.955
103.661
105.759
107.27
108.301
108.684
108.281
107.26
95.3881
94.2826
92.428
89.882
86.2368
81.4848
75.5341
68.4514
60.2416
50.6188
38.9128
29.1838
80.7337
78.2342
74.7011
70.1754
64.2416
56.8166
47.6184
36.4732
23.4507
12.1612
6.18961
4.90572
63.0216
58.8837
53.4979
46.8658
38.6434
28.8502
17.5169
7.44764
2.31634
0.960632
0.820786
0.83795
43.3315
37.6606
30.7484
22.6394
13.4161
5.33411
1.20786
0.259714
0.193436
0.17949
0.182735
0.184624
23.4313
16.8619
9.74549
3.77491
0.815323
0.140986
0.127837
0.108582
0.112383
0.11088
0.110241
0.108455
6.33809
2.33742
0.579799
0.100871
0.120156
0.106927
0.107799
0.107421
0.107393
0.107186
0.107225
0.107214
0.392758
0.103946
0.113408
0.106162
0.106405
0.106482
0.106604
0.106679
0.10671
0.106756
0.106888
0.106987
0.108372
0.104627
0.104862
0.105104
0.105326
0.105552
0.105742
0.105949
0.106149
0.106376
0.106614
0.106831
0.102275
0.10254
0.102815
0.103108
0.103395
0.103687
0.103953
0.104206
0.10445
0.104697
0.104986
0.105323
0.096274
0.0965813
0.0968736
0.0972045
0.097508
0.0978406
0.0981474
0.0984798
0.0987858
0.0991173
0.099457
0.0998147
0.0810909
0.0814434
0.0817877
0.0821352
0.0824819
0.0828388
0.0831976
0.0835708
0.0839559
0.0843519
0.0847503
0.0851012
0.0481312
0.0468114
0.0469629
0.0459452
0.0460599
0.0452914
0.0453975
0.0449031
0.045018
0.0448647
0.0449891
0.0450935
68.2194
84.7299
86.8117
89.8816
92.5325
94.7692
96.4643
97.7542
98.4492
98.4609
97.6087
96.4347
58.9592
74.1014
77.6926
80.2925
82.4041
84.1279
85.4641
86.3075
86.5021
85.832
84.4506
82.7202
52.3312
64.1704
67.4469
69.4849
71.0369
72.2588
73.0001
73.1811
72.5452
71.0543
68.9432
66.2934
46.1854
54.0895
56.4779
58.0288
58.9648
59.4455
59.4521
58.6208
57.0596
54.6966
51.6966
47.9497
40.0063
43.9443
45.4549
46.2922
46.5012
46.0641
45.0618
43.2629
40.8369
37.6196
33.7471
29.0295
33.3783
34.0713
34.6445
34.5698
33.8763
32.4628
30.591
27.9724
24.8843
21.0016
16.5545
11.4423
26.8765
23.9746
24.2938
22.8599
21.6783
19.394
16.9909
13.7554
10.4601
6.70933
3.58569
1.1949
20.1491
14.4031
14.5594
11.8219
10.7178
7.73206
5.78214
3.12286
1.68192
0.417574
0.281151
0.0893353
12.6656
5.64895
5.96184
3.26762
2.9069
0.999856
0.762329
0.154984
0.165372
0.0950192
0.103827
0.101838
6.62968
0.958289
1.09112
0.300561
0.313516
0.0927317
0.11168
0.0934583
0.096024
0.0954461
0.0957965
0.0960476
2.66454
0.0988016
0.130655
0.0751698
0.0826185
0.0779671
0.0794146
0.079617
0.0797862
0.0800775
0.0803847
0.0807334
2.05342
0.0711286
0.0671139
0.0602386
0.0591648
0.0549786
0.0550085
0.0513355
0.05186
0.0493322
0.0496851
0.047902
95.3883
94.2828
92.4281
89.8821
86.2369
81.4849
75.5342
68.4515
60.2416
50.6189
38.9129
29.1839
80.7338
78.2343
74.7012
70.1755
64.2418
56.8168
47.6185
36.4734
23.4507
12.1612
6.18963
4.90574
63.0218
58.8839
53.4981
46.866
38.6435
28.8503
17.517
7.44769
2.31635
0.960643
0.820794
0.837959
43.3316
37.6607
30.7485
22.6396
13.4162
5.33417
1.20788
0.259721
0.193441
0.179496
0.182741
0.184629
23.4315
16.862
9.7456
3.77496
0.81534
0.14099
0.127838
0.108584
0.112385
0.110882
0.110244
0.108458
6.33815
2.33743
0.579821
0.100869
0.120156
0.106927
0.107798
0.10742
0.107393
0.107185
0.107225
0.107214
0.39275
0.103943
0.113408
0.106161
0.106404
0.106481
0.106604
0.106678
0.106709
0.106755
0.106887
0.106986
0.108371
0.104626
0.104861
0.105104
0.105326
0.105552
0.105741
0.105948
0.106149
0.106376
0.106614
0.106831
0.102275
0.10254
0.102815
0.103107
0.103394
0.103686
0.103953
0.104206
0.10445
0.104696
0.104986
0.105322
0.0962738
0.0965811
0.0968735
0.0972044
0.0975078
0.0978405
0.0981473
0.0984796
0.0987856
0.0991171
0.0994568
0.0998146
0.0810908
0.0814434
0.0817877
0.0821352
0.0824819
0.0828388
0.0831976
0.0835708
0.0839558
0.0843519
0.0847503
0.0851012
0.0481312
0.0468114
0.0469629
0.0459452
0.0460599
0.0452914
0.0453976
0.0449031
0.045018
0.0448647
0.0449891
0.0450935
68.2194
84.7298
86.8116
89.8816
92.5324
94.7692
96.4643
97.7541
98.4491
98.4608
97.6086
96.4346
58.9591
74.1013
77.6925
80.2924
82.404
84.1278
85.464
86.3074
86.502
85.8318
84.4505
82.72
52.3311
64.1703
67.4468
69.4848
71.0368
72.2587
72.9999
73.181
72.5451
71.0541
68.9431
66.2932
46.1854
54.0894
56.4778
58.0287
58.9647
59.4453
59.452
58.6206
57.0595
54.6965
51.6964
47.9496
40.0062
43.9441
45.4548
46.292
46.5011
46.064
45.0617
43.2628
40.8367
37.6194
33.7469
29.0294
33.3782
34.0712
34.6443
34.5696
33.8762
32.4626
30.5908
27.9722
24.8841
21.0014
16.5543
11.4422
26.8764
23.9744
24.2936
22.8598
21.6781
19.3938
16.9907
13.7552
10.4599
6.70922
3.58561
1.19488
20.149
14.403
14.5592
11.8217
10.7177
7.73191
5.78202
3.12277
1.68188
0.417558
0.281149
0.0893355
12.6655
5.64884
5.96172
3.26753
2.90682
0.999815
0.762303
0.15498
0.165369
0.0950198
0.103828
0.101838
6.6296
0.958258
1.09108
0.300548
0.313505
0.0927313
0.111679
0.0934587
0.0960242
0.0954465
0.0957968
0.0960479
2.6645
0.0988004
0.130653
0.0751701
0.0826185
0.0779673
0.0794148
0.0796172
0.0797864
0.0800778
0.080385
0.0807337
2.05338
0.0711287
0.0671137
0.0602386
0.0591648
0.0549786
0.0550085
0.0513355
0.0518601
0.0493323
0.0496852
0.0479021
95.3881
94.2826
92.428
89.882
86.2368
81.4848
75.5341
68.4514
60.2415
50.6188
38.9129
29.1839
80.7336
78.2342
74.701
70.1754
64.2416
56.8166
47.6184
36.4732
23.4507
12.1612
6.18962
4.90573
63.0216
58.8837
53.4979
46.8658
38.6434
28.8501
17.5169
7.44765
2.31634
0.96064
0.82079
0.837956
43.3314
37.6605
30.7484
22.6394
13.4161
5.33411
1.20786
0.259722
0.19344
0.179496
0.18274
0.184629
23.4313
16.8618
9.74548
3.77489
0.815323
0.140988
0.12784
0.108584
0.112386
0.110883
0.110244
0.108458
6.33806
2.33738
0.57981
0.100868
0.120156
0.106927
0.107799
0.107421
0.107393
0.107186
0.107225
0.107214
0.392742
0.103943
0.113408
0.106162
0.106405
0.106482
0.106604
0.106678
0.10671
0.106756
0.106888
0.106987
0.108372
0.104627
0.104862
0.105104
0.105326
0.105552
0.105741
0.105949
0.106149
0.106376
0.106614
0.106831
0.102275
0.10254
0.102815
0.103108
0.103395
0.103687
0.103953
0.104206
0.10445
0.104697
0.104986
0.105323
0.0962741
0.0965815
0.0968738
0.0972047
0.0975082
0.0978408
0.0981476
0.09848
0.098786
0.0991175
0.0994572
0.099815
0.0810911
0.0814437
0.081788
0.0821356
0.0824822
0.0828391
0.083198
0.0835711
0.0839562
0.0843523
0.0847507
0.0851016
0.0481313
0.0468115
0.046963
0.0459454
0.0460601
0.0452915
0.0453977
0.0449033
0.0450181
0.0448649
0.0449893
0.0450936
68.2194
84.7298
86.8116
89.8816
92.5324
94.7692
96.4642
97.7541
98.4491
98.4607
97.6086
96.4346
58.9591
74.1013
77.6925
80.2924
82.404
84.1278
85.464
86.3073
86.502
85.8318
84.4505
82.72
52.3311
64.1703
67.4468
69.4848
71.0368
72.2587
72.9999
73.181
72.545
71.0541
68.943
66.2932
46.1854
54.0894
56.4778
58.0286
58.9647
59.4453
59.452
58.6206
57.0594
54.6964
51.6964
47.9495
40.0063
43.9441
45.4548
46.292
46.5011
46.064
45.0617
43.2627
40.8367
37.6194
33.7469
29.0293
33.3782
34.0712
34.6443
34.5696
33.8762
32.4626
30.5908
27.9722
24.8841
21.0014
16.5543
11.4422
26.8764
23.9745
24.2936
22.8598
21.6781
19.3938
16.9907
13.7552
10.4599
6.70922
3.58562
1.19488
20.149
14.403
14.5592
11.8217
10.7177
7.73191
5.78202
3.12277
1.68188
0.417556
0.281152
0.0893359
12.6655
5.64884
5.96172
3.26752
2.90682
0.999816
0.762304
0.15498
0.165369
0.0950201
0.103828
0.101838
6.62963
0.958256
1.09108
0.300548
0.313504
0.0927313
0.111679
0.0934587
0.0960243
0.0954465
0.0957969
0.096048
2.66451
0.0988004
0.130653
0.0751701
0.0826185
0.0779673
0.0794148
0.0796172
0.0797864
0.0800777
0.0803849
0.0807337
2.05341
0.0711291
0.0671137
0.0602387
0.0591649
0.0549787
0.0550086
0.0513356
0.0518602
0.0493323
0.0496853
0.0479021
95.3881
94.2826
92.4279
89.8819
86.2367
81.4847
75.534
68.4513
60.2415
50.6188
38.9128
29.1838
80.7336
78.2341
74.701
70.1753
64.2416
56.8166
47.6183
36.4732
23.4506
12.1612
6.18962
4.90573
63.0216
58.8837
53.4978
46.8658
38.6433
28.8501
17.5169
7.44764
2.31635
0.960645
0.820796
0.837961
43.3314
37.6605
30.7483
22.6394
13.4161
5.3341
1.20787
0.259726
0.193445
0.1795
0.182745
0.184634
23.4313
16.8618
9.74547
3.77489
0.815326
0.14099
0.127842
0.108586
0.112388
0.110885
0.110247
0.108461
6.33805
2.33738
0.579813
0.100869
0.120157
0.106928
0.107799
0.107421
0.107394
0.107187
0.107226
0.107215
0.392745
0.103943
0.113408
0.106162
0.106405
0.106482
0.106604
0.106679
0.10671
0.106756
0.106888
0.106987
0.108372
0.104627
0.104862
0.105105
0.105326
0.105553
0.105742
0.105949
0.106149
0.106376
0.106614
0.106832
0.102276
0.10254
0.102816
0.103108
0.103395
0.103687
0.103953
0.104207
0.104451
0.104697
0.104987
0.105323
0.0962742
0.0965815
0.0968739
0.0972048
0.0975082
0.0978409
0.0981477
0.09848
0.098786
0.0991175
0.0994572
0.099815
0.0810911
0.0814436
0.0817879
0.0821355
0.0824821
0.082839
0.0831979
0.0835711
0.0839561
0.0843522
0.0847506
0.0851015
0.0481313
0.0468115
0.046963
0.0459453
0.0460601
0.0452915
0.0453977
0.0449032
0.0450181
0.0448648
0.0449892
0.0450936
68.2193
84.7298
86.8115
89.8815
92.5323
94.7691
96.4642
97.754
98.449
98.4607
97.6086
96.4347
58.9591
74.1013
77.6924
80.2924
82.4039
84.1277
85.4639
86.3073
86.502
85.8318
84.4505
82.7201
52.3311
64.1703
67.4467
69.4848
71.0368
72.2587
72.9999
73.181
72.545
71.0541
68.9431
66.2933
46.1854
54.0894
56.4778
58.0286
58.9647
59.4453
59.452
58.6206
57.0595
54.6965
51.6964
47.9495
40.0062
43.9441
45.4548
46.292
46.5011
46.064
45.0617
43.2628
40.8367
37.6194
33.7469
29.0293
33.3782
34.0712
34.6443
34.5696
33.8762
32.4627
30.5909
27.9722
24.8842
21.0015
16.5543
11.4422
26.8764
23.9745
24.2936
22.8598
21.6781
19.3939
16.9907
13.7553
10.46
6.70928
3.58565
1.19489
20.149
14.403
14.5593
11.8218
10.7177
7.73199
5.7821
3.12285
1.68193
0.417597
0.28117
0.0893472
12.6656
5.64891
5.96179
3.2676
2.90689
0.999876
0.762354
0.155014
0.165401
0.0950463
0.103854
0.101864
6.62966
0.958312
1.09114
0.300589
0.313544
0.0927589
0.111707
0.0934845
0.0960505
0.0954725
0.0958228
0.0960738
2.66454
0.0988187
0.130676
0.0751893
0.0826394
0.0779878
0.0794364
0.0796391
0.0798087
0.0801002
0.0804075
0.0807561
2.05342
0.0711349
0.0671242
0.0602459
0.0591727
0.0549854
0.0550158
0.0513426
0.0518671
0.049339
0.049692
0.0479085
)
;

boundaryField
{
    rotor
    {
        type            kqRWallFunction;
        value           nonuniform List<scalar> 
192
(
2.34379
3.2454
3.75216
3.74663
3.69136
3.39352
3.22616
4.09371
12.3295
22.7519
26.9862
29.026
30.6611
31.476
31.9536
32.0272
32.0536
31.0593
29.5851
27.1632
24.0136
20.0352
14.8121
11.2472
2.34381
3.24542
3.75218
3.74665
3.69138
3.39353
3.22617
4.09374
12.3297
22.752
26.9863
29.0261
30.6612
31.4761
31.9537
32.0273
32.0537
31.0593
29.5852
27.1632
24.0136
20.0352
14.8121
11.2472
2.34381
3.24543
3.7522
3.74667
3.6914
3.39355
3.22619
4.09376
12.3297
22.752
26.9863
29.026
30.6611
31.476
31.9537
32.0272
32.0536
31.0593
29.5852
27.1632
24.0136
20.0352
14.8121
11.2471
2.3438
3.24541
3.75216
3.74664
3.69137
3.39352
3.22616
4.09372
12.3296
22.7519
26.9862
29.026
30.6611
31.476
31.9536
32.0272
32.0536
31.0593
29.5851
27.1632
24.0136
20.0352
14.8121
11.2471
2.34379
4.90304
6.61634
8.81714
10.4118
11.7003
12.5147
13.7764
15.5055
18.5164
21.1638
53.0794
11.2471
27.1626
39.4954
49.1243
57.9227
66.4084
75.0381
84.8713
96.2131
108.308
122.279
139.942
2.34381
4.90307
6.61638
8.81721
10.4118
11.7004
12.5148
13.7765
15.5055
18.5164
21.1638
53.0794
11.2472
27.1627
39.4954
49.1243
57.9227
66.4084
75.0382
84.8713
96.2131
108.308
122.279
139.942
2.34381
4.90309
6.61641
8.81725
10.4119
11.7005
12.5148
13.7765
15.5055
18.5165
21.1638
53.0795
11.2472
27.1627
39.4955
49.1244
57.9228
66.4085
75.0383
84.8714
96.2132
108.308
122.279
139.943
2.3438
4.90306
6.61636
8.81717
10.4118
11.7004
12.5148
13.7764
15.5055
18.5164
21.1638
53.0794
11.2471
27.1626
39.4954
49.1243
57.9227
66.4084
75.0382
84.8713
96.2131
108.308
122.279
139.942
)
;
    }
    stator
    {
        type            kqRWallFunction;
        value           nonuniform List<scalar> 
192
(
0.0481312
0.0468114
0.0469629
0.0459452
0.0460599
0.0452914
0.0453975
0.0449031
0.045018
0.0448647
0.0449891
0.0450935
2.05342
0.0711286
0.0671139
0.0602386
0.0591648
0.0549786
0.0550085
0.0513355
0.05186
0.0493322
0.0496851
0.047902
0.0481312
0.0468114
0.0469629
0.0459452
0.0460599
0.0452914
0.0453976
0.0449031
0.045018
0.0448647
0.0449891
0.0450935
2.05338
0.0711287
0.0671137
0.0602386
0.0591648
0.0549786
0.0550085
0.0513355
0.0518601
0.0493323
0.0496852
0.0479021
0.0481313
0.0468115
0.046963
0.0459454
0.0460601
0.0452915
0.0453977
0.0449033
0.0450181
0.0448649
0.0449893
0.0450936
2.05341
0.0711291
0.0671137
0.0602387
0.0591649
0.0549787
0.0550086
0.0513356
0.0518602
0.0493323
0.0496853
0.0479021
0.0481313
0.0468115
0.046963
0.0459453
0.0460601
0.0452915
0.0453977
0.0449032
0.0450181
0.0448648
0.0449892
0.0450936
2.05342
0.0711349
0.0671242
0.0602459
0.0591727
0.0549854
0.0550158
0.0513426
0.0518671
0.049339
0.049692
0.0479085
68.2194
58.9592
52.3312
46.1854
40.0063
33.3783
26.8765
20.1491
12.6656
6.62968
2.66454
2.05342
29.1838
4.90572
0.83795
0.184624
0.108455
0.107214
0.106987
0.106831
0.105323
0.0998147
0.0851012
0.0450935
68.2194
58.9591
52.3311
46.1854
40.0062
33.3782
26.8764
20.149
12.6655
6.6296
2.6645
2.05338
29.1839
4.90574
0.837959
0.184629
0.108458
0.107214
0.106986
0.106831
0.105322
0.0998146
0.0851012
0.0450935
68.2194
58.9591
52.3311
46.1854
40.0063
33.3782
26.8764
20.149
12.6655
6.62963
2.66451
2.05341
29.1839
4.90573
0.837956
0.184629
0.108458
0.107214
0.106987
0.106831
0.105323
0.099815
0.0851016
0.0450936
68.2193
58.9591
52.3311
46.1854
40.0062
33.3782
26.8764
20.149
12.6656
6.62966
2.66454
2.05342
29.1838
4.90573
0.837961
0.184634
0.108461
0.107215
0.106987
0.106832
0.105323
0.099815
0.0851015
0.0450936
)
;
    }
    front
    {
        type            empty;
    }
    back
    {
        type            empty;
    }
}


// ************************************************************************* //
