/*--------------------------------*- C++ -*----------------------------------*\
| =========                 |                                                 |
| \\      /  F ield         | OpenFOAM: The Open Source CFD Toolbox           |
|  \\    /   O peration     | Version:  2212                                  |
|   \\  /    A nd           | Website:  www.openfoam.com                      |
|    \\/     M anipulation  |                                                 |
\*---------------------------------------------------------------------------*/
FoamFile
{
    version     2.0;
    format      ascii;
    arch        "LSB;label=32;scalar=64";
    class       surfaceScalarField;
    location    "0.09";
    object      phi;
}
// * * * * * * * * * * * * * * * * * * * * * * * * * * * * * * * * * * * * * //

dimensions      [1 0 -1 0 0 0 0];

oriented        oriented;

internalField   nonuniform List<scalar> 
5952
(
5.04214e-05
-5.04173e-05
9.95034e-05
-4.9078e-05
0.000132157
-3.2649e-05
0.000146956
-1.47951e-05
0.000152547
-5.58709e-06
0.000148298
4.253e-06
0.000114601
3.37009e-05
4.19473e-05
7.26579e-05
-9.68872e-05
0.000138839
-0.000290485
0.000193602
-0.000437894
0.000147413
0.000109211
-0.000547103
4.4663e-05
-9.50757e-05
7.56021e-05
-8.00126e-05
8.10411e-05
-3.80834e-05
6.57327e-05
5.1781e-07
2.5088e-05
3.50622e-05
-5.18506e-05
8.11962e-05
-0.000174924
0.000156779
-0.000324626
0.000222365
-0.000428449
0.000242665
-0.000464795
0.000229953
-0.000501524
0.000184147
0.000144735
-0.000537044
3.30273e-05
-0.000128098
4.7394e-05
-9.43743e-05
3.63087e-05
-2.69931e-05
-3.37274e-06
4.02043e-05
-8.4257e-05
0.000115951
-0.000203634
0.000200578
-0.000315079
0.000268229
-0.000380479
0.00028777
-0.000411464
0.000273656
-0.000421196
0.000239689
-0.000431974
0.00019493
0.000154829
-0.000442062
-3.17159e-06
-0.000124921
-1.72858e-05
-8.02546e-05
-5.01094e-05
5.83604e-06
-0.0001081
9.82002e-05
-0.00018924
0.000197098
-0.000266369
0.000277711
-0.000312513
0.000314379
-0.000331124
0.000306387
-0.000336931
0.000279468
-0.00033857
0.000241334
-0.00034139
0.000197756
0.000156435
-0.000342991
-2.87043e-05
-9.62106e-05
-6.68641e-05
-4.20887e-05
-0.000114543
5.35204e-05
-0.000170608
0.000154272
-0.000223826
0.000250321
-0.00025472
0.000308612
-0.000260815
0.00032048
-0.00025638
0.000301958
-0.000248088
0.000271181
-0.000240369
0.000233621
-0.000235514
0.000192907
0.000152656
-0.00023173
-5.16255e-05
-4.45786e-05
-0.000101085
7.3776e-06
-0.000148235
0.000100676
-0.000184714
0.000190757
-0.000202821
0.000268434
-0.000198994
0.000304792
-0.000184299
0.000305791
-0.000167408
0.000285073
-0.00015185
0.00025563
-0.000139239
0.000221016
-0.000130021
0.000183695
0.000145733
-0.000123092
-6.58593e-05
2.12876e-05
-0.000120551
6.20759e-05
-0.000155442
0.000135575
-0.000165794
0.000201116
-0.000153167
0.000255815
-0.000127712
0.000279343
-9.9982e-05
0.000278068
-7.53942e-05
0.000260492
-5.48212e-05
0.000235064
-3.85438e-05
0.000204745
-2.62491e-05
0.000171407
0.000136468
-1.69772e-05
-7.52483e-05
9.65434e-05
-0.000122722
0.000109557
-0.000138995
0.000151855
-0.000125925
0.000188053
-9.28058e-05
0.000222703
-5.38023e-05
0.000240347
-1.69641e-05
0.000241237
1.41224e-05
0.000229413
3.93021e-05
0.000209892
5.90959e-05
0.000184959
7.43312e-05
0.00015618
0.000124753
8.60534e-05
-7.05854e-05
0.000167137
-0.000107019
0.000145999
-0.000103061
0.000147904
-7.36394e-05
0.00015864
-2.87245e-05
0.000177796
1.92105e-05
0.00019242
6.31468e-05
0.000197309
0.000100049
0.000192519
0.000129844
0.000180105
0.000153414
0.000161397
0.000171939
0.000137662
0.000110075
0.000186625
-7.04064e-05
0.000237552
-7.15283e-05
0.000147129
-4.18887e-05
0.000118273
1.26791e-06
0.000115491
5.28311e-05
0.000126241
0.00010456
0.0001407
0.000151301
0.000150575
0.000190845
0.000152983
0.000223205
0.000147753
0.000249342
0.000135268
0.00027053
0.000116483
9.25615e-05
0.000288052
-3.2737e-08
0.000237593
3.12539e-05
0.000115851
8.03468e-05
6.91892e-05
0.000130167
6.56806e-05
0.000179064
7.73527e-05
0.000224876
9.48966e-05
0.000265839
0.000109622
0.000301076
0.000117755
0.000330766
0.000118072
0.000355709
0.000110334
0.000376973
9.52278e-05
7.37595e-05
0.000395784
0.000193134
4.44683e-05
0.000266413
4.25825e-05
0.000312334
2.32774e-05
0.000344611
3.34131e-05
0.000370982
5.09911e-05
0.000395764
7.01232e-05
0.000419393
8.60024e-05
0.000441411
9.57467e-05
0.00046154
9.79515e-05
0.000480069
9.18146e-05
0.000497531
7.77754e-05
0.000515052
5.62474e-05
-0.000626477
7.93718e-05
-0.000675577
4.91175e-05
-0.000700884
2.53051e-05
-0.000701603
7.22502e-07
-0.000681566
-2.0033e-05
-0.00063955
-4.20118e-05
-0.000574546
-6.49998e-05
-0.000484924
-8.96182e-05
-0.000369257
-0.000115664
-0.000228601
-0.000140652
-8.53815e-05
-0.000143215
-8.53775e-05
-0.000562398
0.00010473
-0.000580132
6.68581e-05
-0.00058755
3.27259e-05
-0.000586445
-3.77421e-07
-0.000574702
-3.17714e-05
-0.000551067
-6.56431e-05
-0.000513822
-0.00010224
-0.00046086
-0.000142576
-0.000389409
-0.00018711
-0.000297508
-0.000232548
-0.000174983
-0.000265736
-0.000260356
-0.000451353
0.000114025
-0.000458638
7.41485e-05
-0.000461597
3.56899e-05
-0.000459189
-2.78078e-06
-0.000448728
-4.22272e-05
-0.000430104
-8.42621e-05
-0.000402131
-0.000130208
-0.000363795
-0.000180907
-0.000313424
-0.000237476
-0.000246026
-0.000299941
-0.000150791
-0.000360966
-0.000411142
-0.000343926
0.000114966
-0.000343701
7.39287e-05
-0.00034139
3.33845e-05
-0.000336299
-7.86622e-06
-0.000327454
-5.10673e-05
-0.000314135
-9.75751e-05
-0.000295198
-0.00014914
-0.000269535
-0.000206564
-0.000235252
-0.000271754
-0.000186799
-0.000348389
-0.000113655
-0.000434105
-0.000524792
-0.000228899
0.000112142
-0.000226501
7.15361e-05
-0.000223683
3.05722e-05
-0.000219808
-1.17349e-05
-0.000214314
-5.65556e-05
-0.000206662
-0.000105221
-0.000196121
-0.000159675
-0.000181761
-0.000220919
-0.000161576
-0.000291932
-0.000133469
-0.00037649
-8.62318e-05
-0.000481335
-0.000611018
-0.000118022
0.000107079
-0.000114268
6.77887e-05
-0.000111216
2.75259e-05
-0.000108443
-1.45014e-05
-0.000105654
-5.93374e-05
-0.000102599
-0.000108269
-9.93546e-05
-0.000162913
-9.52623e-05
-0.000225005
-8.94796e-05
-0.000297709
-7.99386e-05
-0.000386025
-5.72216e-05
-0.000504046
-0.000668233
-1.00959e-05
0.000100204
-5.07346e-06
6.27731e-05
-1.47472e-06
2.3934e-05
8.84632e-07
-1.68539e-05
1.96705e-06
-6.04129e-05
1.54413e-06
-0.000107839
-8.27379e-07
-0.000160535
-5.44536e-06
-0.00022038
-1.23639e-05
-0.000290783
-2.05024e-05
-0.00037788
-2.50466e-05
-0.000499495
-0.000693273
9.50778e-05
9.11873e-05
0.000101942
5.59159e-05
0.000106985
1.88989e-05
0.000110175
-2.00365e-05
0.000111137
-6.13677e-05
0.000109153
-0.000105848
0.000103113
-0.000154487
9.16521e-05
-0.000208912
7.32576e-05
-0.000272381
4.72485e-05
-0.000351863
1.63968e-05
-0.000468636
-0.000676869
0.000198514
7.93067e-05
0.000208173
4.62647e-05
0.000215924
1.11553e-05
0.000221551
-2.5655e-05
0.000224354
-6.41628e-05
0.000223113
-0.0001046
0.000215929
-0.000147295
0.000200261
-0.000193237
0.000172663
-0.000244776
0.000129482
-0.000308674
6.91486e-05
-0.000408295
-0.000607712
0.00030318
6.41874e-05
0.000316382
3.30704e-05
0.000327993
-4.47541e-07
0.000337602
-3.52549e-05
0.000344193
-7.07454e-05
0.000346054
-0.000106453
0.000340522
-0.000141754
0.000323992
-0.000176699
0.000291045
-0.000211819
0.000235112
-0.000252733
0.000145603
-0.000318778
-0.000462101
0.000413644
4.63365e-05
0.000430549
1.6174e-05
0.000446732
-1.66224e-05
0.000461461
-4.99751e-05
0.000473348
-8.2623e-05
0.000480189
-0.000113285
0.000478752
-0.000140309
0.000464825
-0.000162764
0.000431518
-0.000178504
0.000370479
-0.000191685
0.000256495
-0.000204785
-0.000205597
0.000534538
2.68601e-05
0.000554916
-4.19491e-06
0.000576016
-3.77127e-05
0.000596439
-7.03889e-05
0.000614319
-0.000100494
0.000626927
-0.000125883
0.000630861
-0.000144233
0.000622176
-0.00015407
0.00059438
-0.000150699
0.000536501
-0.000133796
0.000406776
-7.50514e-05
0.000201188
5.04215e-05
-5.04174e-05
9.95037e-05
-4.90781e-05
0.000132157
-3.2649e-05
0.000146956
-1.4795e-05
0.000152547
-5.58708e-06
0.000148298
4.25318e-06
0.000114601
3.37014e-05
4.19465e-05
7.26582e-05
-9.6889e-05
0.00013884
-0.000290487
0.000193602
-0.000437896
0.000147413
0.000109211
-0.000547104
4.4663e-05
-9.50759e-05
7.56021e-05
-8.00127e-05
8.1041e-05
-3.80833e-05
6.57324e-05
5.18031e-07
2.50874e-05
3.50625e-05
-5.18518e-05
8.11969e-05
-0.000174926
0.00015678
-0.000324628
0.000222365
-0.000428449
0.000242665
-0.000464796
0.000229953
-0.000501525
0.000184146
0.000144735
-0.000537044
3.30272e-05
-0.000128098
4.73937e-05
-9.43742e-05
3.63081e-05
-2.69927e-05
-3.37372e-06
4.02049e-05
-8.42586e-05
0.000115952
-0.000203636
0.000200579
-0.00031508
0.00026823
-0.00038048
0.000287769
-0.000411465
0.000273656
-0.000421196
0.000239689
-0.000431974
0.00019493
0.000154828
-0.000442062
-3.17199e-06
-0.000124921
-1.72866e-05
-8.02541e-05
-5.01106e-05
5.83683e-06
-0.000108101
9.82013e-05
-0.000189242
0.000197099
-0.00026637
0.000277712
-0.000312513
0.000314379
-0.000331125
0.000306386
-0.000336931
0.000279467
-0.00033857
0.000241333
-0.00034139
0.000197755
0.000156434
-0.000342991
-2.87048e-05
-9.62098e-05
-6.68651e-05
-4.20878e-05
-0.000114544
5.35215e-05
-0.000170609
0.000154273
-0.000223827
0.000250322
-0.000254721
0.000308612
-0.000260815
0.000320479
-0.00025638
0.000301957
-0.000248088
0.000271181
-0.000240369
0.00023362
-0.000235514
0.000192907
0.000152655
-0.00023173
-5.16258e-05
-4.45775e-05
-0.000101086
7.3788e-06
-0.000148235
0.000100677
-0.000184714
0.000190758
-0.00020282
0.000268435
-0.000198994
0.000304792
-0.000184299
0.00030579
-0.000167408
0.000285073
-0.00015185
0.00025563
-0.000139239
0.000221016
-0.000130021
0.000183695
0.000145733
-0.000123092
-6.58593e-05
2.12888e-05
-0.000120551
6.20771e-05
-0.000155442
0.000135576
-0.000165794
0.000201117
-0.000153167
0.000255815
-0.000127711
0.000279343
-9.99816e-05
0.000278067
-7.53938e-05
0.000260492
-5.48209e-05
0.000235064
-3.85436e-05
0.000204745
-2.6249e-05
0.000171407
0.000136468
-1.69772e-05
-7.52481e-05
9.65443e-05
-0.000122722
0.000109558
-0.000138994
0.000151856
-0.000125924
0.000188053
-9.2805e-05
0.000222703
-5.38017e-05
0.000240347
-1.69637e-05
0.000241237
1.41227e-05
0.000229413
3.93023e-05
0.000209892
5.90961e-05
0.000184959
7.43312e-05
0.000156179
0.000124753
8.60534e-05
-7.0585e-05
0.000167137
-0.000107018
0.000145999
-0.00010306
0.000147905
-7.36384e-05
0.00015864
-2.87237e-05
0.000177796
1.92111e-05
0.00019242
6.31472e-05
0.000197309
0.000100049
0.000192519
0.000129844
0.000180105
0.000153414
0.000161396
0.000171939
0.000137662
0.000110075
0.000186625
-7.04061e-05
0.000237552
-7.15277e-05
0.000147129
-4.18879e-05
0.000118274
1.26871e-06
0.000115492
5.28318e-05
0.000126242
0.00010456
0.0001407
0.000151301
0.000150576
0.000190846
0.000152983
0.000223205
0.000147753
0.000249342
0.000135268
0.00027053
0.000116483
9.25614e-05
0.000288052
-3.2542e-08
0.000237593
3.12543e-05
0.000115852
8.03473e-05
6.91896e-05
0.000130167
6.56811e-05
0.000179064
7.73532e-05
0.000224877
9.48969e-05
0.000265839
0.000109622
0.000301076
0.000117755
0.000330766
0.000118072
0.000355709
0.000110334
0.000376973
9.52278e-05
7.37596e-05
0.000395784
0.000193135
4.44681e-05
0.000266413
4.25826e-05
0.000312334
2.32776e-05
0.000344611
3.34135e-05
0.000370982
5.09915e-05
0.000395765
7.01236e-05
0.000419394
8.60027e-05
0.000441411
9.57469e-05
0.000461541
9.79517e-05
0.000480069
9.18148e-05
0.000497531
7.77755e-05
0.000515052
5.62475e-05
-0.000626478
7.93715e-05
-0.000675577
4.91174e-05
-0.000700885
2.5305e-05
-0.000701603
7.22401e-07
-0.000681566
-2.00331e-05
-0.00063955
-4.20119e-05
-0.000574547
-6.49998e-05
-0.000484924
-8.96182e-05
-0.000369257
-0.000115664
-0.000228601
-0.000140652
-8.53816e-05
-0.000143215
-8.53776e-05
-0.000562398
0.00010473
-0.000580133
6.68579e-05
-0.00058755
3.27258e-05
-0.000586446
-3.77552e-07
-0.000574703
-3.17715e-05
-0.000551067
-6.56431e-05
-0.000513822
-0.00010224
-0.00046086
-0.000142576
-0.000389409
-0.00018711
-0.000297508
-0.000232548
-0.000174983
-0.000265736
-0.000260356
-0.000451353
0.000114025
-0.000458638
7.41482e-05
-0.000461597
3.56897e-05
-0.000459189
-2.78092e-06
-0.000448728
-4.22273e-05
-0.000430104
-8.42622e-05
-0.000402131
-0.000130208
-0.000363795
-0.000180907
-0.000313424
-0.000237476
-0.000246026
-0.000299942
-0.000150791
-0.000360966
-0.000411142
-0.000343926
0.000114966
-0.000343701
7.39285e-05
-0.00034139
3.33843e-05
-0.000336299
-7.86634e-06
-0.000327454
-5.10674e-05
-0.000314135
-9.75752e-05
-0.000295198
-0.00014914
-0.000269535
-0.000206564
-0.000235252
-0.000271754
-0.000186799
-0.000348389
-0.000113655
-0.000434105
-0.000524792
-0.000228899
0.000112141
-0.000226501
7.15359e-05
-0.000223683
3.05721e-05
-0.000219808
-1.1735e-05
-0.000214314
-5.65557e-05
-0.000206662
-0.000105221
-0.000196121
-0.000159675
-0.000181761
-0.000220919
-0.000161576
-0.000291932
-0.000133469
-0.000376491
-8.62318e-05
-0.000481336
-0.000611018
-0.000118022
0.000107078
-0.000114268
6.77885e-05
-0.000111216
2.75257e-05
-0.000108443
-1.45015e-05
-0.000105655
-5.93375e-05
-0.000102599
-0.000108269
-9.93547e-05
-0.000162913
-9.52623e-05
-0.000225005
-8.94797e-05
-0.000297709
-7.99386e-05
-0.000386025
-5.72216e-05
-0.000504046
-0.000668233
-1.00959e-05
0.000100204
-5.0735e-06
6.2773e-05
-1.47479e-06
2.39339e-05
8.84552e-07
-1.6854e-05
1.96697e-06
-6.0413e-05
1.54405e-06
-0.00010784
-8.27457e-07
-0.000160535
-5.44543e-06
-0.00022038
-1.2364e-05
-0.000290783
-2.05025e-05
-0.00037788
-2.50466e-05
-0.000499495
-0.000693273
9.50778e-05
9.11872e-05
0.000101942
5.59158e-05
0.000106985
1.88988e-05
0.000110175
-2.00365e-05
0.000111137
-6.13678e-05
0.000109153
-0.000105849
0.000103113
-0.000154487
9.1652e-05
-0.000208912
7.32575e-05
-0.000272382
4.72485e-05
-0.000351863
1.63968e-05
-0.000468636
-0.000676869
0.000198514
7.93066e-05
0.000208173
4.62646e-05
0.000215924
1.11552e-05
0.000221551
-2.5655e-05
0.000224354
-6.41629e-05
0.000223113
-0.0001046
0.000215928
-0.000147295
0.000200261
-0.000193237
0.000172663
-0.000244776
0.000129482
-0.000308674
6.91486e-05
-0.000408295
-0.000607713
0.000303179
6.41874e-05
0.000316382
3.30704e-05
0.000327993
-4.47575e-07
0.000337602
-3.52549e-05
0.000344192
-7.07454e-05
0.000346054
-0.000106453
0.000340522
-0.000141754
0.000323992
-0.000176699
0.000291044
-0.00021182
0.000235111
-0.000252733
0.000145603
-0.000318779
-0.000462101
0.000413643
4.63365e-05
0.000430549
1.6174e-05
0.000446732
-1.66224e-05
0.000461461
-4.99751e-05
0.000473348
-8.26231e-05
0.000480188
-0.000113285
0.000478752
-0.000140309
0.000464825
-0.000162764
0.000431518
-0.000178504
0.000370479
-0.000191685
0.000256495
-0.000204785
-0.000205598
0.000534538
2.68602e-05
0.000554916
-4.19486e-06
0.000576015
-3.77126e-05
0.000596439
-7.03889e-05
0.000614319
-0.000100494
0.000626927
-0.000125883
0.000630861
-0.000144233
0.000622176
-0.00015407
0.00059438
-0.000150699
0.000536501
-0.000133796
0.000406776
-7.50517e-05
0.000201188
5.04216e-05
-5.04175e-05
9.95038e-05
-4.90782e-05
0.000132157
-3.2649e-05
0.000146956
-1.4795e-05
0.000152547
-5.587e-06
0.000148298
4.25326e-06
0.000114601
3.37014e-05
4.19465e-05
7.26582e-05
-9.68889e-05
0.000138839
-0.000290486
0.000193602
-0.000437895
0.000147413
0.000109211
-0.000547103
4.46631e-05
-9.5076e-05
7.56021e-05
-8.00127e-05
8.1041e-05
-3.80833e-05
6.57324e-05
5.18084e-07
2.50873e-05
3.50627e-05
-5.18519e-05
8.1197e-05
-0.000174926
0.00015678
-0.000324628
0.000222365
-0.000428449
0.000242665
-0.000464796
0.000229952
-0.000501524
0.000184146
0.000144735
-0.000537044
3.30271e-05
-0.000128098
4.73935e-05
-9.4374e-05
3.63078e-05
-2.69925e-05
-3.37413e-06
4.0205e-05
-8.42589e-05
0.000115953
-0.000203636
0.000200579
-0.000315081
0.00026823
-0.000380479
0.000287769
-0.000411465
0.000273655
-0.000421196
0.000239688
-0.000431974
0.000194929
0.000154828
-0.000442062
-3.17217e-06
-0.00012492
-1.72869e-05
-8.02538e-05
-5.01109e-05
5.83702e-06
-0.000108102
9.82014e-05
-0.000189242
0.000197099
-0.00026637
0.000277712
-0.000312513
0.000314378
-0.000331124
0.000306386
-0.000336931
0.000279467
-0.00033857
0.000241333
-0.00034139
0.000197755
0.000156434
-0.00034299
-2.87049e-05
-9.62094e-05
-6.68654e-05
-4.20875e-05
-0.000114544
5.35217e-05
-0.00017061
0.000154273
-0.000223827
0.000250322
-0.000254721
0.000308612
-0.000260815
0.000320479
-0.00025638
0.000301957
-0.000248088
0.000271181
-0.000240369
0.00023362
-0.000235514
0.000192907
0.000152655
-0.000231729
-5.16259e-05
-4.45771e-05
-0.000101086
7.37917e-06
-0.000148235
0.000100677
-0.000184714
0.000190758
-0.000202821
0.000268435
-0.000198994
0.000304791
-0.000184299
0.00030579
-0.000167408
0.000285072
-0.00015185
0.000255629
-0.000139239
0.000221015
-0.000130021
0.000183695
0.000145733
-0.000123092
-6.58594e-05
2.12892e-05
-0.000120551
6.20774e-05
-0.000155442
0.000135576
-0.000165794
0.000201117
-0.000153167
0.000255814
-0.000127711
0.000279343
-9.99816e-05
0.000278067
-7.53939e-05
0.000260491
-5.4821e-05
0.000235063
-3.85437e-05
0.000204745
-2.62491e-05
0.000171407
0.000136468
-1.69772e-05
-7.52481e-05
9.65447e-05
-0.000122722
0.000109559
-0.000138994
0.000151856
-0.000125924
0.000188053
-9.28049e-05
0.000222703
-5.38017e-05
0.000240347
-1.69637e-05
0.000241236
1.41226e-05
0.000229412
3.93023e-05
0.000209891
5.9096e-05
0.000184958
7.43312e-05
0.000156179
0.000124753
8.60534e-05
-7.0585e-05
0.000167138
-0.000107018
0.000146
-0.00010306
0.000147905
-7.36383e-05
0.00015864
-2.87236e-05
0.000177796
1.92112e-05
0.00019242
6.31472e-05
0.000197308
0.000100049
0.000192519
0.000129844
0.000180104
0.000153414
0.000161396
0.000171939
0.000137662
0.000110075
0.000186625
-7.04059e-05
0.000237552
-7.15275e-05
0.00014713
-4.18877e-05
0.000118274
1.26892e-06
0.000115492
5.2832e-05
0.000126242
0.00010456
0.0001407
0.000151302
0.000150575
0.000190846
0.000152983
0.000223206
0.000147753
0.000249342
0.000135268
0.00027053
0.000116483
9.2561e-05
0.000288052
-3.24061e-08
0.000237593
3.12546e-05
0.000115852
8.03476e-05
6.91895e-05
0.000130167
6.5681e-05
0.000179065
7.7353e-05
0.000224877
9.48967e-05
0.000265839
0.000109622
0.000301076
0.000117755
0.000330766
0.000118071
0.000355709
0.000110334
0.000376973
9.52274e-05
7.37592e-05
0.000395784
0.000193135
4.4468e-05
0.000266413
4.25825e-05
0.000312334
2.32776e-05
0.000344611
3.34134e-05
0.000370982
5.09914e-05
0.000395765
7.01233e-05
0.000419394
8.60024e-05
0.000441411
9.57465e-05
0.000461541
9.79513e-05
0.00048007
9.18143e-05
0.000497531
7.77751e-05
0.000515053
5.62471e-05
-0.000626477
7.93714e-05
-0.000675577
4.91173e-05
-0.000700884
2.53049e-05
-0.000701603
7.22366e-07
-0.000681566
-2.00331e-05
-0.00063955
-4.20119e-05
-0.000574546
-6.49998e-05
-0.000484924
-8.96182e-05
-0.000369256
-0.000115664
-0.000228601
-0.000140652
-8.53813e-05
-0.000143215
-8.53773e-05
-0.000562398
0.000104729
-0.000580132
6.68578e-05
-0.000587549
3.27257e-05
-0.000586445
-3.77615e-07
-0.000574702
-3.17716e-05
-0.000551066
-6.56431e-05
-0.000513822
-0.00010224
-0.00046086
-0.000142576
-0.000389409
-0.00018711
-0.000297508
-0.000232548
-0.000174983
-0.000265735
-0.000260356
-0.000451352
0.000114024
-0.000458638
7.41481e-05
-0.000461597
3.56896e-05
-0.000459189
-2.781e-06
-0.000448728
-4.22273e-05
-0.000430104
-8.42622e-05
-0.000402131
-0.000130208
-0.000363795
-0.000180907
-0.000313424
-0.000237476
-0.000246026
-0.000299941
-0.000150791
-0.000360966
-0.000411142
-0.000343926
0.000114965
-0.000343701
7.39283e-05
-0.00034139
3.33842e-05
-0.000336299
-7.86643e-06
-0.000327454
-5.10675e-05
-0.000314135
-9.75752e-05
-0.000295198
-0.00014914
-0.000269535
-0.000206564
-0.000235252
-0.000271754
-0.000186799
-0.000348389
-0.000113655
-0.000434104
-0.000524791
-0.000228899
0.000112141
-0.000226501
7.15357e-05
-0.000223683
3.0572e-05
-0.000219808
-1.17351e-05
-0.000214314
-5.65557e-05
-0.000206662
-0.000105221
-0.000196121
-0.000159675
-0.000181761
-0.000220919
-0.000161576
-0.000291932
-0.000133469
-0.00037649
-8.62318e-05
-0.000481335
-0.000611017
-0.000118022
0.000107078
-0.000114268
6.77883e-05
-0.000111216
2.75256e-05
-0.000108443
-1.45016e-05
-0.000105654
-5.93375e-05
-0.000102599
-0.000108269
-9.93546e-05
-0.000162913
-9.52622e-05
-0.000225005
-8.94796e-05
-0.000297709
-7.99386e-05
-0.000386025
-5.72216e-05
-0.000504046
-0.000668233
-1.00959e-05
0.000100204
-5.07345e-06
6.27728e-05
-1.47473e-06
2.39338e-05
8.84628e-07
-1.68541e-05
1.96705e-06
-6.04131e-05
1.54413e-06
-0.00010784
-8.27382e-07
-0.000160535
-5.44537e-06
-0.00022038
-1.23639e-05
-0.000290783
-2.05025e-05
-0.00037788
-2.50466e-05
-0.000499495
-0.000693272
9.50778e-05
9.11869e-05
0.000101942
5.59156e-05
0.000106985
1.88987e-05
0.000110175
-2.00367e-05
0.000111137
-6.13678e-05
0.000109153
-0.000105849
0.000103113
-0.000154487
9.16521e-05
-0.000208912
7.32576e-05
-0.000272381
4.72485e-05
-0.000351863
1.63968e-05
-0.000468636
-0.000676868
0.000198514
7.93063e-05
0.000208173
4.62644e-05
0.000215924
1.11551e-05
0.000221551
-2.56551e-05
0.000224354
-6.4163e-05
0.000223113
-0.0001046
0.000215929
-0.000147295
0.000200261
-0.000193237
0.000172663
-0.000244775
0.000129482
-0.000308674
6.91486e-05
-0.000408295
-0.000607712
0.00030318
6.41871e-05
0.000316382
3.30701e-05
0.000327993
-4.47754e-07
0.000337602
-3.5255e-05
0.000344193
-7.07455e-05
0.000346054
-0.000106453
0.000340522
-0.000141754
0.000323992
-0.000176699
0.000291044
-0.000211819
0.000235111
-0.000252732
0.000145603
-0.000318778
-0.000462101
0.000413644
4.63361e-05
0.000430549
1.61738e-05
0.000446733
-1.66226e-05
0.000461461
-4.99752e-05
0.000473348
-8.26231e-05
0.000480189
-0.000113285
0.000478752
-0.000140309
0.000464825
-0.000162764
0.000431518
-0.000178504
0.000370479
-0.000191684
0.000256495
-0.000204785
-0.000205597
0.000534538
2.68598e-05
0.000554916
-4.19509e-06
0.000576016
-3.77128e-05
0.000596439
-7.03889e-05
0.000614319
-0.000100494
0.000626927
-0.000125883
0.000630861
-0.000144233
0.000622176
-0.000154069
0.00059438
-0.000150698
0.000536501
-0.000133795
0.000406776
-7.50513e-05
0.000201188
5.04215e-05
-5.04174e-05
9.95036e-05
-4.90781e-05
0.000132157
-3.2649e-05
0.000146956
-1.47951e-05
0.000152547
-5.58707e-06
0.000148298
4.25309e-06
0.000114601
3.37011e-05
4.19471e-05
7.26579e-05
-9.68876e-05
0.000138839
-0.000290485
0.000193602
-0.000437894
0.000147413
0.000109211
-0.000547103
4.4663e-05
-9.50759e-05
7.56021e-05
-8.00127e-05
8.1041e-05
-3.80834e-05
6.57326e-05
5.17903e-07
2.50878e-05
3.50623e-05
-5.1851e-05
8.11964e-05
-0.000174925
0.000156779
-0.000324627
0.000222365
-0.000428449
0.000242665
-0.000464795
0.000229953
-0.000501524
0.000184147
0.000144735
-0.000537044
3.30272e-05
-0.000128098
4.73938e-05
-9.43743e-05
3.63083e-05
-2.69929e-05
-3.37327e-06
4.02046e-05
-8.42577e-05
0.000115952
-0.000203634
0.000200578
-0.00031508
0.000268229
-0.000380479
0.000287769
-0.000411464
0.000273655
-0.000421195
0.000239689
-0.000431974
0.00019493
0.000154828
-0.000442062
-3.17186e-06
-0.000124921
-1.72863e-05
-8.02543e-05
-5.01101e-05
5.83645e-06
-0.000108101
9.82007e-05
-0.000189241
0.000197098
-0.000266369
0.000277711
-0.000312513
0.000314378
-0.000331124
0.000306386
-0.000336931
0.000279467
-0.00033857
0.000241333
-0.00034139
0.000197755
0.000156434
-0.00034299
-2.87046e-05
-9.621e-05
-6.68648e-05
-4.20882e-05
-0.000114543
5.3521e-05
-0.000170609
0.000154272
-0.000223826
0.000250321
-0.00025472
0.000308611
-0.000260815
0.000320479
-0.00025638
0.000301957
-0.000248088
0.000271181
-0.000240369
0.00023362
-0.000235514
0.000192907
0.000152655
-0.000231729
-5.16258e-05
-4.45778e-05
-0.000101086
7.37839e-06
-0.000148235
0.000100677
-0.000184714
0.000190758
-0.000202821
0.000268434
-0.000198994
0.000304791
-0.000184299
0.00030579
-0.000167408
0.000285072
-0.00015185
0.00025563
-0.000139239
0.000221015
-0.000130021
0.000183695
0.000145733
-0.000123092
-6.58594e-05
2.12885e-05
-0.000120551
6.20767e-05
-0.000155442
0.000135575
-0.000165794
0.000201116
-0.000153167
0.000255814
-0.000127712
0.000279343
-9.99817e-05
0.000278067
-7.5394e-05
0.000260492
-5.4821e-05
0.000235064
-3.85436e-05
0.000204745
-2.6249e-05
0.000171407
0.000136468
-1.69771e-05
-7.52482e-05
9.65441e-05
-0.000122722
0.000109558
-0.000138995
0.000151855
-0.000125924
0.000188053
-9.28053e-05
0.000222703
-5.3802e-05
0.000240347
-1.6964e-05
0.000241236
1.41225e-05
0.000229413
3.93022e-05
0.000209891
5.9096e-05
0.000184959
7.43312e-05
0.000156179
0.000124753
8.60535e-05
-7.05851e-05
0.000167137
-0.000107018
0.000145999
-0.00010306
0.000147905
-7.36388e-05
0.00015864
-2.87241e-05
0.000177796
1.92108e-05
0.00019242
6.31469e-05
0.000197308
0.000100049
0.000192519
0.000129844
0.000180104
0.000153414
0.000161396
0.000171939
0.000137662
0.000110075
0.000186625
-7.04061e-05
0.000237552
-7.15278e-05
0.000147129
-4.18881e-05
0.000118273
1.26846e-06
0.000115492
5.28315e-05
0.000126241
0.00010456
0.0001407
0.000151301
0.000150575
0.000190845
0.000152983
0.000223205
0.000147753
0.000249342
0.000135268
0.00027053
0.000116483
9.25612e-05
0.000288052
-3.25275e-08
0.000237593
3.12543e-05
0.000115851
8.03473e-05
6.91894e-05
0.000130167
6.56808e-05
0.000179064
7.73528e-05
0.000224877
9.48965e-05
0.000265839
0.000109622
0.000301076
0.000117755
0.000330766
0.000118071
0.000355709
0.000110334
0.000376973
9.52275e-05
7.37593e-05
0.000395784
0.000193135
4.44681e-05
0.000266413
4.25825e-05
0.000312334
2.32775e-05
0.000344611
3.34133e-05
0.000370982
5.09912e-05
0.000395765
7.01232e-05
0.000419394
8.60022e-05
0.000441411
9.57464e-05
0.000461541
9.79512e-05
0.000480069
9.18143e-05
0.000497531
7.77751e-05
0.000515052
5.62472e-05
-0.000626477
7.93716e-05
-0.000675576
4.91175e-05
-0.000700884
2.5305e-05
-0.000701602
7.22483e-07
-0.000681565
-2.0033e-05
-0.00063955
-4.20118e-05
-0.000574546
-6.49997e-05
-0.000484924
-8.96182e-05
-0.000369256
-0.000115664
-0.000228601
-0.000140652
-8.53814e-05
-0.000143215
-8.53774e-05
-0.000562398
0.00010473
-0.000580132
6.6858e-05
-0.000587549
3.27259e-05
-0.000586445
-3.77449e-07
-0.000574702
-3.17714e-05
-0.000551066
-6.5643e-05
-0.000513822
-0.00010224
-0.00046086
-0.000142576
-0.000389409
-0.00018711
-0.000297508
-0.000232548
-0.000174983
-0.000265735
-0.000260356
-0.000451352
0.000114025
-0.000458638
7.41483e-05
-0.000461597
3.56898e-05
-0.000459188
-2.7808e-06
-0.000448728
-4.22272e-05
-0.000430104
-8.42621e-05
-0.00040213
-0.000130208
-0.000363795
-0.000180907
-0.000313424
-0.000237476
-0.000246026
-0.000299941
-0.000150791
-0.000360966
-0.000411142
-0.000343926
0.000114966
-0.000343701
7.39286e-05
-0.00034139
3.33844e-05
-0.000336299
-7.86623e-06
-0.000327453
-5.10673e-05
-0.000314135
-9.7575e-05
-0.000295198
-0.00014914
-0.000269535
-0.000206564
-0.000235252
-0.000271753
-0.000186799
-0.000348388
-0.000113655
-0.000434104
-0.000524791
-0.000228899
0.000112141
-0.000226501
7.1536e-05
-0.000223682
3.05722e-05
-0.000219808
-1.17349e-05
-0.000214314
-5.65555e-05
-0.000206662
-0.000105221
-0.000196121
-0.000159675
-0.000181761
-0.000220919
-0.000161576
-0.000291932
-0.000133468
-0.00037649
-8.62318e-05
-0.000481335
-0.000611017
-0.000118022
0.000107078
-0.000114268
6.77885e-05
-0.000111215
2.75258e-05
-0.000108442
-1.45014e-05
-0.000105654
-5.93373e-05
-0.000102599
-0.000108269
-9.93545e-05
-0.000162913
-9.52622e-05
-0.000225005
-8.94795e-05
-0.000297708
-7.99385e-05
-0.000386025
-5.72215e-05
-0.000504046
-0.000668233
-1.00958e-05
0.000100204
-5.07335e-06
6.2773e-05
-1.47462e-06
2.3934e-05
8.84735e-07
-1.68539e-05
1.96715e-06
-6.04129e-05
1.54422e-06
-0.000107839
-8.27299e-07
-0.000160535
-5.44529e-06
-0.00022038
-1.23639e-05
-0.000290783
-2.05024e-05
-0.000377879
-2.50466e-05
-0.000499495
-0.000693272
9.50778e-05
9.11871e-05
0.000101942
5.59158e-05
0.000106985
1.88989e-05
0.000110175
-2.00365e-05
0.000111137
-6.13676e-05
0.000109153
-0.000105848
0.000103113
-0.000154487
9.16521e-05
-0.000208912
7.32576e-05
-0.000272381
4.72485e-05
-0.000351863
1.63968e-05
-0.000468636
-0.000676868
0.000198514
7.93065e-05
0.000208173
4.62645e-05
0.000215924
1.11552e-05
0.000221551
-2.5655e-05
0.000224354
-6.41628e-05
0.000223113
-0.000104599
0.000215929
-0.000147295
0.000200261
-0.000193237
0.000172663
-0.000244775
0.000129482
-0.000308674
6.91486e-05
-0.000408295
-0.000607712
0.00030318
6.41872e-05
0.000316382
3.30703e-05
0.000327993
-4.4759e-07
0.000337602
-3.52549e-05
0.000344193
-7.07453e-05
0.000346054
-0.000106453
0.000340522
-0.000141754
0.000323992
-0.000176699
0.000291044
-0.000211819
0.000235111
-0.000252732
0.000145603
-0.000318778
-0.0004621
0.000413644
4.63363e-05
0.000430549
1.61739e-05
0.000446733
-1.66224e-05
0.000461461
-4.9975e-05
0.000473348
-8.26229e-05
0.000480189
-0.000113284
0.000478752
-0.000140309
0.000464825
-0.000162763
0.000431518
-0.000178503
0.000370479
-0.000191684
0.000256495
-0.000204785
-0.000205597
0.000534538
2.68599e-05
0.000554916
-4.195e-06
0.000576016
-3.77127e-05
0.000596439
-7.03888e-05
0.000614319
-0.000100494
0.000626927
-0.000125883
0.000630861
-0.000144233
0.000622176
-0.000154069
0.00059438
-0.000150698
0.000536501
-0.000133795
0.000406776
-7.50511e-05
0.000201188
0.00072158
9.67448e-05
-0.000773847
0.000692952
7.12209e-05
0.00065531
6.09291e-05
0.000628875
5.98575e-05
0.000613152
6.67235e-05
0.000606148
7.71372e-05
0.000605416
8.67442e-05
0.000608797
9.23759e-05
0.00061487
9.18879e-05
0.000623285
8.34097e-05
0.000634015
6.70549e-05
4.17823e-05
0.00064849
0.000931518
0.000100549
-0.000935312
0.000911088
9.16612e-05
0.000883856
8.81707e-05
0.000855674
8.80501e-05
0.000830623
9.17841e-05
0.000810376
9.73948e-05
0.000795203
0.000101928
0.000784856
0.000102733
0.000779106
9.7648e-05
0.000778415
8.41112e-05
0.000783082
6.2398e-05
2.89743e-05
0.0007959
0.00106019
9.99026e-05
-0.00105953
0.00105224
9.9625e-05
0.00103882
0.000101599
0.00102146
0.000105422
0.00100226
0.000110993
0.000983174
0.000116492
0.000965733
0.000119379
0.000951312
0.000117164
0.00094133
0.000107641
0.000937679
8.77728e-05
0.000941881
5.82062e-05
1.20332e-05
0.000958833
0.00116878
-0.00116768
9.88147e-05
0.00116674
0.000101679
0.00116073
0.00010762
0.00115116
0.000115006
0.00113911
0.00012305
0.00112624
0.000129371
0.00111423
0.000131404
0.00110497
0.000126435
0.00110066