/*--------------------------------*- C++ -*----------------------------------*\
| =========                 |                                                 |
| \\      /  F ield         | OpenFOAM: The Open Source CFD Toolbox           |
|  \\    /   O peration     | Version:  2212                                  |
|   \\  /    A nd           | Website:  www.openfoam.com                      |
|    \\/     M anipulation  |                                                 |
\*---------------------------------------------------------------------------*/
FoamFile
{
    version     2.0;
    format      ascii;
    arch        "LSB;label=32;scalar=64";
    class       volScalarField;
    location    "0.1";
    object      alphat;
}
// * * * * * * * * * * * * * * * * * * * * * * * * * * * * * * * * * * * * * //

dimensions      [1 -1 -1 0 0 0 0];

internalField   nonuniform List<scalar> 
3072
(
0.00027662
0.000595939
0.000640696
0.000640177
0.000635435
0.00060927
0.000594138
0.000669658
0.00116271
0.00157905
0.00171975
0.00178379
0.000447653
0.00129431
0.00183573
0.00205737
0.00176282
0.00102618
0.000919746
0.00163183
0.00199727
0.00320422
0.00438137
0.00611285
0.000575165
0.00213438
0.00287937
0.00300409
0.00260004
0.0024058
0.00238984
0.00339771
0.00517586
0.00760089
0.010163
0.0126416
0.000728134
0.0033597
0.00366141
0.00318313
0.00302065
0.00304572
0.00405724
0.00657884
0.0093199
0.0124168
0.0153505
0.0179467
0.000861085
0.00399183
0.00403246
0.0036509
0.00364862
0.00447811
0.00680965
0.0100679
0.0132184
0.0164069
0.0193455
0.0219377
0.00098731
0.00452417
0.00458821
0.00433847
0.00484292
0.00684053
0.00998746
0.0131772
0.0162951
0.0193609
0.0221834
0.0247066
0.00109832
0.0051311
0.00557802
0.00567655
0.00699566
0.00980781
0.0128065
0.015761
0.018666
0.0214353
0.0240538
0.0264581
0.00123363
0.00647992
0.00770935
0.00876124
0.0109252
0.0133813
0.0158706
0.0183807
0.020904
0.0233083
0.0255741
0.0276658
0.00139535
0.00878954
0.0115575
0.0138695
0.0159297
0.0178016
0.0196132
0.0214257
0.0232728
0.0250766
0.0268211
0.028488
0.00161935
0.0105852
0.0146935
0.0175222
0.0195701
0.0211398
0.0224888
0.0237506
0.0249764
0.0261976
0.0274419
0.0287246
0.00183229
0.00988296
0.0158573
0.019302
0.0215737
0.0229751
0.0242481
0.0251564
0.0259835
0.0268102
0.0276829
0.0286347
0.0030592
0.00931649
0.0167052
0.0207108
0.0226801
0.024421
0.0255203
0.0263037
0.0269304
0.0275212
0.0281463
0.0288561
0.00183333
0.00185779
0.00187223
0.00187492
0.00187639
0.00184766
0.00180396
0.001729
0.00162587
0.00148488
0.0012764
0.000607158
0.00782529
0.00939825
0.0104986
0.0109699
0.0107611
0.0101948
0.00921787
0.00787421
0.00609245
0.00372378
0.00182014
0.00105548
0.0147763
0.0164065
0.0174279
0.017825
0.0176092
0.016831
0.0154366
0.0134076
0.0107045
0.00733305
0.00326669
0.00140728
0.0201454
0.0218689
0.0230671
0.0237041
0.0237325
0.0230906
0.0216854
0.0193929
0.0160133
0.0115618
0.00576142
0.0017201
0.0241688
0.0260001
0.0273966
0.0283169
0.0286905
0.0283919
0.0272446
0.0250011
0.0212313
0.0158015
0.00849869
0.00203258
0.0269262
0.0288226
0.0303715
0.0315348
0.0322446
0.0323916
0.031765
0.0299848
0.0264736
0.0204275
0.0118106
0.00235406
0.0286095
0.0305023
0.0321298
0.0334729
0.0345037
0.0351531
0.0351947
0.0341452
0.0311894
0.025136
0.0153424
0.00269274
0.0295797
0.0313284
0.0329071
0.0343177
0.0355895
0.0367036
0.03749
0.0374425
0.0354561
0.029693
0.0187981
0.00306785
0.0300401
0.0314832
0.0329065
0.0343118
0.0357112
0.0371556
0.038571
0.0395679
0.038924
0.0340047
0.0219914
0.00348563
0.0299835
0.0311683
0.0323761
0.0337532
0.0352748
0.0369276
0.0387325
0.0405638
0.0413573
0.0380658
0.0257169
0.00393181
0.0297515
0.0310214
0.0320791
0.0331874
0.0347129
0.0364944
0.0384401
0.0406503
0.0425277
0.0414875
0.030187
0.00442613
0.0297626
0.0311041
0.0323217
0.0332954
0.0345478
0.0362579
0.0380962
0.0402761
0.0425468
0.0434574
0.0348981
0.00499893
0.000276621
0.000595941
0.000640697
0.000640178
0.000635436
0.000609271
0.000594139
0.00066966
0.00116271
0.00157905
0.00171975
0.00178379
0.000447654
0.00129431
0.00183573
0.00205737
0.00176281
0.00102617
0.000919751
0.00163184
0.00199728
0.00320424
0.00438139
0.00611288
0.000575167
0.00213438
0.00287937
0.00300408
0.00260002
0.00240579
0.00238984
0.00339774
0.00517589
0.00760094
0.0101631
0.0126417
0.000728136
0.0033597
0.0036614
0.00318312
0.00302066
0.00304573
0.00405729
0.0065789
0.00931996
0.0124169
0.0153506
0.0179468
0.000861089
0.00399184
0.00403246
0.00365091
0.00364863
0.00447814
0.00680972
0.010068
0.0132185
0.016407
0.0193456
0.0219378
0.000987313
0.00452417
0.00458822
0.00433849
0.00484295
0.00684061
0.00998755
0.0131773
0.0162952
0.019361
0.0221835
0.0247067
0.00109832
0.00513112
0.00557805
0.0056766
0.00699576
0.00980792
0.0128066
0.0157611
0.0186661
0.0214354
0.0240539
0.0264582
0.00123363
0.00647995
0.0077094
0.00876132
0.0109253
0.0133814
0.0158707
0.0183808
0.0209041
0.0233084
0.0255742
0.0276659
0.00139535
0.00878956
0.0115575
0.0138696
0.0159298
0.0178017
0.0196133
0.0214258
0.0232729
0.0250767
0.0268212
0.0284881
0.00161935
0.0105852
0.0146935
0.0175222
0.0195702
0.0211398
0.0224888
0.0237507
0.0249765
0.0261977
0.027442
0.0287247
0.00183229
0.00988297
0.0158573
0.019302
0.0215737
0.0229751
0.0242482
0.0251565
0.0259836
0.0268103
0.0276829
0.0286348
0.0030592
0.00931648
0.0167052
0.0207108
0.0226801
0.0244211
0.0255203
0.0263037
0.0269305
0.0275212
0.0281463
0.0288561
0.00183334
0.00185779
0.00187224
0.00187492
0.00187639
0.00184766
0.00180396
0.001729
0.00162587
0.00148488
0.0012764
0.000607158
0.00782533
0.00939829
0.0104986
0.0109699
0.0107612
0.0101948
0.00921789
0.00787423
0.00609246
0.00372378
0.00182015
0.00105549
0.0147763
0.0164066
0.0174279
0.017825
0.0176092
0.0168311
0.0154366
0.0134076
0.0107045
0.00733307
0.0032667
0.00140728
0.0201454
0.021869
0.0230672
0.0237041
0.0237326
0.0230906
0.0216854
0.019393
0.0160133
0.0115618
0.00576142
0.0017201
0.0241689
0.0260001
0.0273967
0.028317
0.0286906
0.0283919
0.0272446
0.0250011
0.0212313
0.0158016
0.0084987
0.00203258
0.0269263
0.0288227
0.0303716
0.0315349
0.0322447
0.0323917
0.0317651
0.0299849
0.0264736
0.0204275
0.0118107
0.00235406
0.0286096
0.0305024
0.0321299
0.033473
0.0345038
0.0351532
0.0351948
0.0341453
0.0311895
0.0251361
0.0153424
0.00269275
0.0295798
0.0313285
0.0329072
0.0343178
0.0355896
0.0367037
0.0374901
0.0374425
0.0354562
0.029693
0.0187981
0.00306785
0.0300402
0.0314833
0.0329066
0.0343119
0.0357113
0.0371557
0.0385711
0.039568
0.0389241
0.0340047
0.0219914
0.00348563
0.0299836
0.0311684
0.0323762
0.0337533
0.0352749
0.0369277
0.0387326
0.0405639
0.0413573
0.0380658
0.025717
0.00393181
0.0297515
0.0310215
0.0320792
0.0331874
0.0347129
0.0364945
0.0384402
0.0406504
0.0425278
0.0414876
0.030187
0.00442614
0.0297626
0.0311042
0.0323218
0.0332954
0.0345478
0.0362579
0.0380962
0.0402761
0.0425469
0.0434575
0.0348982
0.00499893
0.000276621
0.000595942
0.000640699
0.00064018
0.000635438
0.000609273
0.000594141
0.000669662
0.00116271
0.00157905
0.00171975
0.00178379
0.000447655
0.00129431
0.00183574
0.00205738
0.00176282
0.00102618
0.000919753
0.00163184
0.00199728
0.00320424
0.00438139
0.00611288
0.000575168
0.00213439
0.00287939
0.00300409
0.00260004
0.0024058
0.00238984
0.00339774
0.0051759
0.00760094
0.0101631
0.0126417
0.000728138
0.00335971
0.00366142
0.00318314
0.00302067
0.00304573
0.00405729
0.00657891
0.00931997
0.0124169
0.0153506
0.0179468
0.00086109
0.00399185
0.00403248
0.00365093
0.00364864
0.00447814
0.00680974
0.010068
0.0132185
0.016407
0.0193456
0.0219378
0.000987315
0.00452419
0.00458824
0.00433851
0.00484296
0.00684063
0.00998757
0.0131773
0.0162952
0.019361
0.0221835
0.0247067
0.00109832
0.00513113
0.00557807
0.00567662
0.00699577
0.00980794
0.0128066
0.0157611
0.0186661
0.0214354
0.024054
0.0264582
0.00123363
0.00647996
0.00770942
0.00876134
0.0109253
0.0133814
0.0158707
0.0183809
0.0209041
0.0233085
0.0255742
0.0276659
0.00139535
0.00878956
0.0115575
0.0138696
0.0159298
0.0178018
0.0196134
0.0214259
0.0232729
0.0250767
0.0268212
0.0284881
0.00161935
0.0105852
0.0146935
0.0175222
0.0195702
0.0211399
0.0224889
0.0237507
0.0249765
0.0261977
0.027442
0.0287248
0.00183229
0.00988297
0.0158573
0.019302
0.0215738
0.0229752
0.0242482
0.0251565
0.0259836
0.0268103
0.027683
0.0286348
0.00305921
0.00931649
0.0167052
0.0207108
0.0226801
0.0244211
0.0255203
0.0263038
0.0269305
0.0275212
0.0281463
0.0288562
0.00183334
0.00185779
0.00187223
0.00187492
0.00187639
0.00184766
0.00180396
0.001729
0.00162587
0.00148488
0.0012764
0.000607158
0.00782533
0.00939829
0.0104986
0.0109699
0.0107612
0.0101948
0.00921789
0.00787422
0.00609246
0.00372378
0.00182014
0.00105548
0.0147763
0.0164066
0.0174279
0.017825
0.0176092
0.0168311
0.0154366
0.0134076
0.0107045
0.00733306
0.00326669
0.00140728
0.0201454
0.021869
0.0230672
0.0237041
0.0237326
0.0230906
0.0216854
0.019393
0.0160133
0.0115618
0.00576142
0.0017201
0.0241689
0.0260001
0.0273967
0.028317
0.0286906
0.0283919
0.0272446
0.0250011
0.0212313
0.0158016
0.0084987
0.00203258
0.0269263
0.0288227
0.0303716
0.0315349
0.0322447
0.0323916
0.0317651
0.0299849
0.0264736
0.0204275
0.0118106
0.00235406
0.0286096
0.0305024
0.0321299
0.033473
0.0345037
0.0351531
0.0351948
0.0341452
0.0311895
0.0251361
0.0153424
0.00269274
0.0295798
0.0313285
0.0329072
0.0343178
0.0355896
0.0367037
0.03749
0.0374425
0.0354561
0.029693
0.0187981
0.00306785
0.0300402
0.0314833
0.0329066
0.0343119
0.0357113
0.0371557
0.0385711
0.0395679
0.0389241
0.0340047
0.0219914
0.00348563
0.0299836
0.0311684
0.0323762
0.0337533
0.0352749
0.0369277
0.0387326
0.0405639
0.0413573
0.0380658
0.0257169
0.00393181
0.0297516
0.0310215
0.0320792
0.0331875
0.0347129
0.0364945
0.0384402
0.0406504
0.0425277
0.0414876
0.030187
0.00442613
0.0297626
0.0311042
0.0323218
0.0332954
0.0345478
0.0362579
0.0380962
0.0402761
0.0425469
0.0434575
0.0348981
0.00499893
0.00027662
0.00059594
0.000640696
0.000640177
0.000635435
0.00060927
0.000594138
0.000669658
0.00116271
0.00157905
0.00171975
0.00178379
0.000447653
0.00129431
0.00183573
0.00205737
0.00176282
0.00102617
0.000919746
0.00163184
0.00199728
0.00320423
0.00438137
0.00611286
0.000575166
0.00213438
0.00287937
0.00300408
0.00260003
0.0024058
0.00238984
0.00339772
0.00517587
0.00760091
0.0101631
0.0126417
0.000728135
0.0033597
0.0036614
0.00318312
0.00302065
0.00304572
0.00405726
0.00657887
0.00931993
0.0124169
0.0153506
0.0179468
0.000861087
0.00399183
0.00403246
0.00365091
0.00364863
0.00447812
0.00680969
0.0100679
0.0132184
0.016407
0.0193456
0.0219378
0.000987312
0.00452417
0.00458821
0.00433848
0.00484294
0.00684058
0.00998751
0.0131773
0.0162951
0.0193609
0.0221835
0.0247067
0.00109832
0.00513111
0.00557804
0.00567659
0.00699572
0.00980788
0.0128066
0.0157611
0.0186661
0.0214354
0.0240539
0.0264582
0.00123363
0.00647994
0.00770939
0.0087613
0.0109253
0.0133814
0.0158707
0.0183808
0.0209041
0.0233084
0.0255741
0.0276659
0.00139535
0.00878955
0.0115575
0.0138695
0.0159297
0.0178017
0.0196133
0.0214258
0.0232729
0.0250767
0.0268212
0.028488
0.00161935
0.0105852
0.0146935
0.0175222
0.0195702
0.0211398
0.0224888
0.0237507
0.0249765
0.0261977
0.0274419
0.0287247
0.00183229
0.00988296
0.0158573
0.019302
0.0215737
0.0229751
0.0242482
0.0251565
0.0259836
0.0268103
0.0276829
0.0286347
0.0030592
0.00931648
0.0167052
0.0207108
0.0226801
0.0244211
0.0255203
0.0263037
0.0269305
0.0275212
0.0281463
0.0288561
0.00183333
0.00185779
0.00187223
0.00187492
0.00187639
0.00184766
0.00180396
0.001729
0.00162587
0.00148488
0.0012764
0.000607158
0.00782531
0.00939826
0.0104986
0.0109699
0.0107612
0.0101948
0.00921788
0.00787422
0.00609245
0.00372378
0.00182014
0.00105548
0.0147763
0.0164066
0.0174279
0.017825
0.0176092
0.016831
0.0154366
0.0134076
0.0107045
0.00733306
0.00326669
0.00140728
0.0201454
0.021869
0.0230672
0.0237041
0.0237325
0.0230906
0.0216854
0.019393
0.0160133
0.0115618
0.00576142
0.0017201
0.0241688
0.0260001
0.0273966
0.0283169
0.0286906
0.0283919
0.0272446
0.0250011
0.0212313
0.0158016
0.0084987
0.00203258
0.0269262
0.0288227
0.0303716
0.0315349
0.0322446
0.0323916
0.0317651
0.0299848
0.0264736
0.0204275
0.0118106
0.00235406
0.0286095
0.0305024
0.0321299
0.0334729
0.0345037
0.0351531
0.0351947
0.0341452
0.0311894
0.0251361
0.0153424
0.00269274
0.0295797
0.0313285
0.0329072
0.0343178
0.0355896
0.0367036
0.03749
0.0374425
0.0354561
0.029693
0.0187981
0.00306785
0.0300402
0.0314833
0.0329065
0.0343119
0.0357112
0.0371557
0.038571
0.0395679
0.038924
0.0340047
0.0219914
0.00348562
0.0299836
0.0311684
0.0323761
0.0337533
0.0352749
0.0369276
0.0387326
0.0405639
0.0413573
0.0380658
0.0257169
0.00393181
0.0297515
0.0310215
0.0320792
0.0331874
0.0347129
0.0364944
0.0384401
0.0406503
0.0425277
0.0414875
0.030187
0.00442613
0.0297626
0.0311042
0.0323218
0.0332954
0.0345478
0.0362579
0.0380962
0.0402761
0.0425468
0.0434574
0.0348981
0.00499893
0.0184491
0.0191392
0.0208577
0.0226826
0.0242744
0.0257549
0.0267339
0.0274479
0.0279843
0.0284721
0.0289747
0.0295451
0.0297954
0.0271679
0.0263259
0.0264109
0.0269321
0.0274613
0.0279713
0.0286252
0.0292156
0.0296899
0.0301527
0.0306652
0.0376226
0.0346315
0.0324623
0.0311797
0.0305619
0.0303059
0.0303927
0.0305816
0.0307922
0.0310468
0.0315361
0.032126
0.0399795
0.0379109
0.0360177
0.0344476
0.033428
0.0328134
0.0325412
0.0324506
0.0326586
0.0329302
0.0333221
0.0339273
0.030379
0.0317034
0.0329674
0.033956
0.0350866
0.0365284
0.0380657
0.0398886
0.0420662
0.0446428
0.044832
0.0207109
0.0316113
0.0328623
0.0340172
0.0350693
0.0361842
0.0372005
0.0383403
0.0396312
0.041315
0.0437207
0.0479258
0.0346862
0.0332819
0.0342577
0.0352656
0.0361679
0.0370619
0.0378378
0.0387527
0.0396736
0.0407837
0.0424475
0.0463129
0.0413707
0.0351444
0.0360007
0.0367972
0.0375251
0.0380975
0.0386778
0.0393358
0.0399265
0.0406667
0.0415221
0.0435974
0.0423587
0.0184491
0.0191392
0.0208577
0.0226826
0.0242744
0.025755
0.0267339
0.0274479
0.0279843
0.0284722
0.0289747
0.0295452
0.0297954
0.0271679
0.0263259
0.0264109
0.0269322
0.0274613
0.0279713
0.0286253
0.0292157
0.0296899
0.0301527
0.0306652
0.0376227
0.0346316
0.0324623
0.0311797
0.0305619
0.0303059
0.0303927
0.0305817
0.0307922
0.0310468
0.0315362
0.032126
0.0399796
0.037911
0.0360178
0.0344477
0.0334281
0.0328134
0.0325412
0.0324506
0.0326586
0.0329302
0.0333221
0.0339273
0.0303791
0.0317035
0.0329674
0.033956
0.0350866
0.0365284
0.0380658
0.0398887
0.0420663
0.0446429
0.0448321
0.0207109
0.0316113
0.0328623
0.0340172
0.0350694
0.0361842
0.0372005
0.0383403
0.0396312
0.0413151
0.0437208
0.0479258
0.0346862
0.033282
0.0342577
0.0352656
0.0361679
0.0370619
0.0378378
0.0387527
0.0396736
0.0407838
0.0424476
0.0463129
0.0413708
0.0351444
0.0360007
0.0367972
0.0375251
0.0380976
0.0386778
0.0393358
0.0399266
0.0406668
0.0415221
0.0435975
0.0423587
0.0184491
0.0191392
0.0208577
0.0226826
0.0242744
0.025755
0.026734
0.027448
0.0279843
0.0284722
0.0289747
0.0295452
0.0297954
0.0271679
0.0263259
0.026411
0.0269322
0.0274613
0.0279713
0.0286253
0.0292157
0.02969
0.0301527
0.0306652
0.0376227
0.0346316
0.0324624
0.0311798
0.0305619
0.0303059
0.0303927
0.0305817
0.0307922
0.0310469
0.0315362
0.0321261
0.0399796
0.037911
0.0360178
0.0344477
0.0334281
0.0328134
0.0325412
0.0324506
0.0326586
0.0329302
0.0333221
0.0339273
0.0303791
0.0317035
0.0329674
0.0339561
0.0350866
0.0365284
0.0380658
0.0398887
0.0420663
0.0446429
0.044832
0.0207109
0.0316114
0.0328623
0.0340172
0.0350694
0.0361842
0.0372005
0.0383403
0.0396312
0.041315
0.0437207
0.0479258
0.0346862
0.033282
0.0342577
0.0352656
0.0361679
0.0370619
0.0378378
0.0387527
0.0396736
0.0407837
0.0424476
0.0463129
0.0413707
0.0351444
0.0360007
0.0367972
0.0375251
0.0380975
0.0386778
0.0393358
0.0399265
0.0406667
0.0415221
0.0435974
0.0423587
0.0184491
0.0191392
0.0208577
0.0226826
0.0242744
0.025755
0.0267339
0.0274479
0.0279843
0.0284722
0.0289747
0.0295452
0.0297954
0.0271679
0.0263259
0.0264109
0.0269322
0.0274613
0.0279713
0.0286253
0.0292157
0.0296899
0.0301527
0.0306652
0.0376227
0.0346316
0.0324623
0.0311797
0.0305619
0.0303059
0.0303927
0.0305817
0.0307922
0.0310468
0.0315362
0.032126
0.0399796
0.037911
0.0360178
0.0344477
0.0334281
0.0328134
0.0325412
0.0324506
0.0326586
0.0329302
0.0333221
0.0339273
0.0303791
0.0317035
0.0329674
0.033956
0.0350866
0.0365284
0.0380657
0.0398887
0.0420662
0.0446428
0.044832
0.0207109
0.0316113
0.0328623
0.0340172
0.0350694
0.0361842
0.0372005
0.0383403
0.0396312
0.041315
0.0437207
0.0479257
0.0346861
0.0332819
0.0342577
0.0352656
0.0361679
0.0370619
0.0378378
0.0387527
0.0396736
0.0407837
0.0424475
0.0463129
0.0413706
0.0351444
0.0360007
0.0367972
0.0375251
0.0380975
0.0386778
0.0393358
0.0399265
0.0406667
0.0415221
0.0435974
0.0423586
0.0372184
0.0358779
0.0347557
0.0340137
0.0335968
0.0334369
0.0333747
0.0334499
0.0338091
0.0342914
0.0351199
0.036381
0.0354039
0.0345441
0.033853
0.0334544
0.0332091
0.03298
0.032699
0.0325572
0.0324758
0.0325213
0.0329865
0.0342194
0.03365
0.0329845
0.0324589
0.032044
0.0314819
0.0307774
0.0300505
0.0291954
0.0282064
0.0272179
0.0266038
0.0272277
0.0314834
0.0308895
0.0301385
0.0293195
0.0282383
0.0269952
0.025515
0.0237125
0.021627
0.0194131
0.0174504
0.0163246
0.037946
0.0389709
0.0390529
0.039327
0.0395166
0.0397473
0.0399672
0.0401542
0.0403452
0.0405419
0.0400656
0.0389996
0.036207
0.0391381
0.0389455
0.0390074
0.0390632
0.0391178
0.0391466
0.0391098
0.0388888
0.0384032
0.0377879
0.0367099
0.0302264
0.037083
0.0376181
0.0376587
0.0376833
0.0376768
0.0376082
0.0372945
0.0368437
0.0363734
0.0357476
0.0346173
0.0173861
0.0336122
0.0356861
0.0357807
0.035801
0.0356813
0.0354101
0.0349914
0.0346479
0.0341737
0.0333997
0.0323326
0.0372185
0.035878
0.0347558
0.0340138
0.0335969
0.033437
0.0333747
0.0334499
0.0338091
0.0342914
0.0351199
0.036381
0.035404
0.0345442
0.0338531
0.0334545
0.0332091
0.03298
0.032699
0.0325572
0.0324758
0.0325213
0.0329866
0.0342194
0.03365
0.0329846
0.032459
0.0320441
0.031482
0.0307774
0.0300505
0.0291954
0.0282064
0.0272179
0.0266038
0.0272277
0.0314834
0.0308896
0.0301386
0.0293196
0.0282383
0.0269952
0.025515
0.0237126
0.0216271
0.0194132
0.0174504
0.0163246
0.037946
0.038971
0.0390529
0.039327
0.0395166
0.0397473
0.0399673
0.0401542
0.0403453
0.0405419
0.0400656
0.0389996
0.036207
0.0391382
0.0389455
0.0390074
0.0390632
0.0391179
0.0391466
0.0391098
0.0388889
0.0384032
0.037788
0.03671
0.0302264
0.037083
0.0376181
0.0376587
0.0376833
0.0376768
0.0376082
0.0372945
0.0368437
0.0363734
0.0357476
0.0346173
0.0173861
0.0336122
0.0356861
0.0357807
0.035801
0.0356813
0.0354101
0.0349914
0.0346479
0.0341737
0.0333997
0.0323326
0.0372186
0.035878
0.0347558
0.0340138
0.0335969
0.033437
0.0333747
0.0334499
0.0338091
0.0342914
0.0351199
0.036381
0.035404
0.0345442
0.0338531
0.0334545
0.0332091
0.03298
0.032699
0.0325572
0.0324758
0.0325213
0.0329865
0.0342194
0.03365
0.0329846
0.032459
0.0320441
0.031482
0.0307774
0.0300505
0.0291954
0.0282064
0.0272179
0.0266038
0.0272277
0.0314834
0.0308896
0.0301386
0.0293195
0.0282383
0.0269952
0.025515
0.0237125
0.021627
0.0194131
0.0174504
0.0163246
0.037946
0.0389709
0.0390529
0.039327
0.0395166
0.0397473
0.0399672
0.0401542
0.0403452
0.0405419
0.0400656
0.0389996
0.036207
0.0391381
0.0389455
0.0390074
0.0390632
0.0391178
0.0391466
0.0391098
0.0388888
0.0384032
0.0377879
0.0367099
0.0302264
0.037083
0.0376181
0.0376586
0.0376833
0.0376768
0.0376082
0.0372945
0.0368437
0.0363734
0.0357475
0.0346173
0.0173861
0.0336122
0.0356861
0.0357807
0.0358009
0.0356813
0.0354101
0.0349914
0.0346479
0.0341737
0.0333997
0.0323326
0.0372185
0.035878
0.0347558
0.0340138
0.0335969
0.033437
0.0333747
0.0334499
0.0338091
0.0342914
0.0351199
0.036381
0.035404
0.0345442
0.0338531
0.0334544
0.0332091
0.03298
0.032699
0.0325572
0.0324758
0.0325213
0.0329865
0.0342194
0.03365
0.0329845
0.0324589
0.0320441
0.0314819
0.0307774
0.0300505
0.0291954
0.0282064
0.0272179
0.0266038
0.0272277
0.0314834
0.0308895
0.0301385
0.0293195
0.0282383
0.0269952
0.025515
0.0237125
0.021627
0.0194131
0.0174504
0.0163246
0.037946
0.0389709
0.0390529
0.0393269
0.0395166
0.0397473
0.0399672
0.0401542
0.0403452
0.0405419
0.0400656
0.0389996
0.036207
0.0391381
0.0389455
0.0390074
0.0390632
0.0391178
0.0391465
0.0391097
0.0388888
0.0384032
0.0377879
0.03671
0.0302264
0.037083
0.0376181
0.0376586
0.0376832
0.0376767
0.0376082
0.0372944
0.0368436
0.0363734
0.0357475
0.0346174
0.0173861
0.0336122
0.0356861
0.0357806
0.0358009
0.0356812
0.0354101
0.0349913
0.0346478
0.0341736
0.0333996
0.0323326
0.028717
0.0278443
0.0267016
0.0254227
0.0238544
0.0219966
0.0197523
0.0170702
0.0139566
0.0105093
0.00641984
0.00332301
0.0251075
0.0238751
0.0223756
0.0206562
0.0185978
0.01619
0.0133634
0.0101275
0.00645355
0.00313535
0.00144921
0.00141031
0.0207476
0.0191529
0.017271
0.0151023
0.0125611
0.0096496
0.00622025
0.00280085
0.000876637
0.000445915
0.00047383
0.000602428
0.0156957
0.0137217
0.0114406
0.00881547
0.00568957
0.00251911
0.000623449
0.000231488
0.000196889
0.000311576
0.000267013
0.000291553
0.0100221
0.00762783
0.00483897
0.00210668
0.000541601
0.000216197
0.000200648
0.000257717
0.000239495
0.00023789
0.000233517
0.000230198
0.00368826
0.0015368
0.000467868
0.000349535
0.000230111
0.000250434
0.00024631
0.000243383
0.000241911
0.000239028
0.000237518
0.000235931
0.000362999
0.000936772
0.000247079
0.000256064
0.000254842
0.00025302
0.000251128
0.000248647
0.000246435
0.000244786
0.000243887
0.000242723
0.000259368
0.000265128
0.000261006
0.00026077
0.00025986
0.00025844
0.000256344
0.00025426
0.00025256
0.000251342
0.000250538
0.000249571
0.000264704
0.000264139
0.000263691
0.000263237
0.000262651
0.000261882
0.000260833
0.000259526
0.000258028
0.000256534
0.000255362
0.000254765
0.000261697
0.000261599
0.000261501
0.000261428
0.00026116
0.000260712
0.000259929
0.000258883
0.000257604
0.000256314
0.000255259
0.000254781
0.000223131
0.000224851
0.000226997
0.000228747
0.000230579
0.00023214
0.000233642
0.000235035
0.000236452
0.000237974
0.000239749
0.000241494
7.18294e-05
7.08305e-05
7.09439e-05
7.01642e-05
7.025e-05
6.96537e-05
6.97334e-05
6.9345e-05
6.94322e-05
6.93086e-05
6.94037e-05
6.9482e-05
0.00509674
0.029058
0.0334899
0.0334995
0.0334235
0.0331186
0.032787
0.0325178
0.0321578
0.031573
0.0306207
0.0296021
0.00490306
0.026688
0.0310993
0.0307117
0.0304987
0.0302336
0.0300195
0.029735
0.0292127
0.0283742
0.0273109
0.0261964
0.00477491
0.024381
0.0280155
0.0275846
0.0273995
0.0272205
0.0269109
0.0264216
0.0256311
0.024543
0.0233794
0.0221201
0.00463117
0.021805
0.0245256
0.0243706
0.0241625
0.0237933
0.0233042
0.0224698
0.0214184
0.0202133
0.0188841
0.0173916
0.00444553
0.019044
0.0210746
0.0209073
0.0205278
0.0198927
0.0190355
0.0179992
0.0167868
0.0153925
0.0138317
0.0120547
0.00418421
0.0162214
0.0176929
0.0170804
0.0163754
0.0154562
0.0144075
0.0131386
0.0117557
0.0101272
0.0082679
0.00609304
0.00386549
0.0127452
0.0139753
0.0125669
0.0119528
0.0106977
0.009493
0.00788576
0.00621642
0.00426796
0.00247368
0.000968887
0.00344291
0.00896456
0.00978761
0.00782007
0.00722974
0.00538196
0.00415837
0.00247133
0.00137773
0.000515751
0.000286148
0.00058143
0.00280575
0.00442624
0.00488109
0.00290954
0.00253543
0.00105876
0.000748597
0.000409008
0.000273338
0.000283164
0.000263092
0.000266673
0.00208514
0.00103105
0.00119257
0.000471521
0.00042843
0.000329518
0.000257513
0.000255843
0.00026234
0.000261851
0.000262455
0.000262022
0.00135676
0.000180775
0.000218642
0.000182437
0.000197438
0.00019397
0.000209314
0.000209816
0.000213468
0.000216222
0.000218739
0.000220551
0.000470702
8.75249e-05
8.49157e-05
8.04494e-05
7.97098e-05
7.68272e-05
7.68363e-05
7.42091e-05
7.45852e-05
7.27317e-05
7.29901e-05
7.16591e-05
0.028717
0.0278443
0.0267016
0.0254228
0.0238544
0.0219967
0.0197524
0.0170702
0.0139566
0.0105093
0.00641984
0.00332301
0.0251075
0.0238751
0.0223757
0.0206562
0.0185979
0.01619
0.0133634
0.0101275
0.00645356
0.00313535
0.00144921
0.00141031
0.0207476
0.0191529
0.0172711
0.0151024
0.0125611
0.00964962
0.00622028
0.00280087
0.000876642
0.00044592
0.000473833
0.000602431
0.0156957
0.0137218
0.0114406
0.0088155
0.0056896
0.00251914
0.000623458
0.000231494
0.000196893
0.000311581
0.000267018
0.000291557
0.0100221
0.00762786
0.00483901
0.0021067
0.00054161
0.000216203
0.000200648
0.000257719
0.000239497
0.000237892
0.000233519
0.000230201
0.00368828
0.00153681
0.000467879
0.000349617
0.00023011
0.000250433
0.000246309
0.000243381
0.000241911
0.000239027
0.000237517
0.00023593
0.000362989
0.000936921
0.000247076
0.000256063
0.00025484
0.000253019
0.000251127
0.000248646
0.000246434
0.000244784
0.000243886
0.000242722
0.000259366
0.000265128
0.000261005
0.000260769
0.000259859
0.000258439
0.000256343
0.000254259
0.000252559
0.000251341
0.000250537
0.00024957
0.000264703
0.000264138
0.00026369
0.000263236
0.00026265
0.000261881
0.000260832
0.000259525
0.000258028
0.000256533
0.000255362
0.000254764
0.000261696
0.000261599
0.0002615
0.000261427
0.00026116
0.000260711
0.000259929
0.000258882
0.000257603
0.000256314
0.000255259
0.000254781
0.000223129
0.000224851
0.000226997
0.000228746
0.000230579
0.00023214
0.000233641
0.000235034
0.000236452
0.000237974
0.000239749
0.000241494
7.18293e-05
7.08304e-05
7.09438e-05
7.01641e-05
7.02499e-05
6.96537e-05
6.97333e-05
6.9345e-05
6.94322e-05
6.93085e-05
6.94036e-05
6.9482e-05
0.00509674
0.029058
0.0334899
0.0334995
0.0334235
0.0331186
0.032787
0.0325178
0.0321578
0.031573
0.0306207
0.0296021
0.00490306
0.026688
0.0310993
0.0307117
0.0304987
0.0302336
0.0300195
0.029735
0.0292127
0.0283742
0.0273108
0.0261964
0.00477491
0.024381
0.0280155
0.0275846
0.0273995
0.0272205
0.0269109
0.0264216
0.0256311
0.0245429
0.0233794
0.0221201
0.00463116
0.021805
0.0245256
0.0243705
0.0241625
0.0237933
0.0233042
0.0224698
0.0214184
0.0202133
0.0188841
0.0173916
0.00444553
0.019044
0.0210746
0.0209073
0.0205278
0.0198927
0.0190355
0.0179992
0.0167868
0.0153924
0.0138316
0.0120547
0.0041842
0.0162214
0.0176929
0.0170803
0.0163754
0.0154562
0.0144074
0.0131386
0.0117556
0.0101271
0.00826786
0.006093
0.00386549
0.0127452
0.0139752
0.0125668
0.0119527
0.0106976
0.00949294
0.0078857
0.00621637
0.00426791
0.00247365
0.000968869
0.0034429
0.00896451
0.00978755
0.00782
0.00722967
0.00538189
0.00415831
0.00247128
0.0013777
0.000515735
0.00028615
0.000581412
0.00280573
0.00442617
0.00488101
0.00290948
0.00253537
0.00105873
0.000748577
0.000409011
0.000273337
0.000283163
0.000263093
0.000266673
0.00208512
0.00103102
0.00119254
0.000471509
0.000428419
0.000329515
0.000257513
0.000255843
0.00026234
0.000261852
0.000262456
0.000262023
0.00135675
0.000180772
0.00021864
0.000182437
0.000197438
0.000193971
0.000209315
0.000209817
0.000213469
0.000216223
0.000218739
0.000220552
0.000470698
8.75251e-05
8.49157e-05
8.04495e-05
7.97098e-05
7.68273e-05
7.68364e-05
7.42092e-05
7.45853e-05
7.27318e-05
7.29902e-05
7.16592e-05
0.028717
0.0278443
0.0267016
0.0254228
0.0238544
0.0219966
0.0197523
0.0170702
0.0139565
0.0105093
0.00641984
0.00332301
0.0251075
0.0238751
0.0223756
0.0206562
0.0185978
0.01619
0.0133634
0.0101275
0.00645355
0.00313535
0.00144921
0.00141031
0.0207476
0.0191528
0.017271
0.0151023
0.0125611
0.0096496
0.00622025
0.00280086
0.000876641
0.000445919
0.000473833
0.00060243
0.0156957
0.0137217
0.0114406
0.00881547
0.00568956
0.00251911
0.000623453
0.000231494
0.000196894
0.000311578
0.000267019
0.000291557
0.0100221
0.00762782
0.00483897
0.00210667
0.000541602
0.000216201
0.000200651
0.00025772
0.000239498
0.000237893
0.00023352
0.000230202
0.00368824
0.00153679
0.000467872
0.00034962
0.000230111
0.000250434
0.000246309
0.000243382
0.000241912
0.000239028
0.000237518
0.000235931
0.000362985
0.000936925
0.000247078
0.000256064
0.000254841
0.000253019
0.000251128
0.000248646
0.000246435
0.000244785
0.000243887
0.000242723
0.000259367
0.000265128
0.000261006
0.000260769
0.000259859
0.00025844
0.000256343
0.00025426
0.00025256
0.000251342
0.000250537
0.00024957
0.000264704
0.000264139
0.000263691
0.000263237
0.000262651
0.000261882
0.000260833
0.000259526
0.000258028
0.000256534
0.000255362
0.000254765
0.000261697
0.000261599
0.000261501
0.000261428
0.000261161
0.000260712
0.00025993
0.000258883
0.000257604
0.000256314
0.000255259
0.000254781
0.00022313
0.000224851
0.000226998
0.000228747
0.00023058
0.00023214
0.000233642
0.000235035
0.000236453
0.000237975
0.000239749
0.000241495
7.18294e-05
7.08306e-05
7.0944e-05
7.01643e-05
7.02501e-05
6.96539e-05
6.97335e-05
6.93452e-05
6.94324e-05
6.93087e-05
6.94038e-05
6.94822e-05
0.00509674
0.029058
0.0334899
0.0334994
0.0334235
0.0331186
0.032787
0.0325178
0.0321578
0.031573
0.0306207
0.0296021
0.00490306
0.026688
0.0310993
0.0307117
0.0304987
0.0302336
0.0300195
0.029735
0.0292126
0.0283742
0.0273108
0.0261964
0.00477491
0.024381
0.0280155
0.0275845
0.0273995
0.0272205
0.0269109
0.0264216
0.0256311
0.0245429
0.0233794
0.0221201
0.00463116
0.021805
0.0245256
0.0243705
0.0241624
0.0237933
0.0233042
0.0224698
0.0214184
0.0202133
0.018884
0.0173916
0.00444553
0.019044
0.0210746
0.0209073
0.0205278
0.0198927
0.0190355
0.0179992
0.0167867
0.0153924
0.0138316
0.0120547
0.0041842
0.0162214
0.0176929
0.0170803
0.0163754
0.0154562
0.0144074
0.0131386
0.0117556
0.0101271
0.00826785
0.00609299
0.00386549
0.0127451
0.0139752
0.0125668
0.0119527
0.0106976
0.00949294
0.0078857
0.00621636
0.00426791
0.00247365
0.000968869
0.00344291
0.0089645
0.00978754
0.00781999
0.00722967
0.00538189
0.00415831
0.00247128
0.00137771
0.000515728
0.000286155
0.000581405
0.00280574
0.00442616
0.00488101
0.00290947
0.00253537
0.00105873
0.000748578
0.000409009
0.000273337
0.000283164
0.000263093
0.000266674
0.00208513
0.00103102
0.00119254
0.000471508
0.000428419
0.000329515
0.000257513
0.000255843
0.00026234
0.000261852
0.000262456
0.000262023
0.00135675
0.000180772
0.00021864
0.000182436
0.000197438
0.000193971
0.000209314
0.000209816
0.000213469
0.000216223
0.000218739
0.000220552
0.0004707
8.75253e-05
8.49156e-05
8.04495e-05
7.97099e-05
7.68273e-05
7.68365e-05
7.42093e-05
7.45853e-05
7.27318e-05
7.29902e-05
7.16592e-05
0.028717
0.0278443
0.0267016
0.0254227
0.0238544
0.0219966
0.0197523