/*--------------------------------*- C++ -*----------------------------------*\
| =========                 |                                                 |
| \\      /  F ield         | OpenFOAM: The Open Source CFD Toolbox           |
|  \\    /   O peration     | Version:  2212                                  |
|   \\  /    A nd           | Website:  www.openfoam.com                      |
|    \\/     M anipulation  |                                                 |
\*---------------------------------------------------------------------------*/
FoamFile
{
    version     2.0;
    format      ascii;
    arch        "LSB;label=32;scalar=64";
    class       volScalarField;
    location    "0.1";
    object      alphat;
}
// * * * * * * * * * * * * * * * * * * * * * * * * * * * * * * * * * * * * * //

dimensions      [1 -1 -1 0 0 0 0];

internalField   nonuniform List<scalar> 
3072
(
0.000343018
0.000723956
0.000749802
0.000746308
0.000718284
0.000691127
0.000757815
0.00124527
0.00179488
0.00199477
0.00208184
0.00215094
0.000558456
0.00143832
0.00196154
0.00185646
0.00118584
0.00100363
0.00183731
0.00229138
0.00353855
0.00495614
0.00697531
0.00907831
0.000731359
0.00262528
0.00318299
0.00273891
0.00244906
0.00266083
0.00410046
0.00605185
0.00882321
0.0120348
0.0151086
0.0178955
0.000920154
0.00376968
0.00364668
0.00324783
0.00355157
0.00518161
0.00800119
0.0111868
0.014828
0.0184769
0.0217396
0.0245881
0.00106385
0.00459643
0.00469446
0.00462235
0.00593687
0.0088593
0.0122879
0.0159549
0.0197723
0.0234007
0.0266386
0.0294557
0.00118987
0.00566283
0.0064047
0.00683751
0.00903642
0.0123645
0.0159754
0.0196918
0.0234085
0.0269017
0.0300401
0.0327843
0.00128564
0.0064274
0.00785154
0.00923227
0.0120767
0.0155593
0.0191129
0.0227073
0.0261912
0.0294382
0.032369
0.034956
0.00138901
0.00764012
0.00977361
0.0122817
0.0155117
0.0189104
0.0222782
0.0255678
0.0286636
0.031508
0.0340726
0.0363378
0.00151525
0.00901883
0.0128484
0.0163593
0.0196695
0.0227179
0.0255577
0.0282088
0.0306453
0.0328745
0.0349224
0.0367764
0.00169375
0.0107634
0.0160866
0.0199513
0.0230335
0.0255522
0.0277457
0.0297326
0.0315557
0.0332602
0.0348873
0.036428
0.00194332
0.0105112
0.0176416
0.0217611
0.0245785
0.026865
0.0287772
0.0304283
0.0319342
0.0333366
0.0346723
0.0359729
0.00343462
0.0104269
0.0188078
0.023309
0.0258872
0.0280949
0.0298324
0.0312682
0.0325355
0.033689
0.0347674
0.0357995
0.00218662
0.00220874
0.00221125
0.00221127
0.00219359
0.00215398
0.00209148
0.00200055
0.00187382
0.00171176
0.00148034
0.000717247
0.0111276
0.012812
0.0138271
0.0140683
0.0137078
0.0128702
0.011546
0.00976869
0.00754051
0.00459378
0.00219057
0.00121873
0.0202219
0.0218906
0.02275
0.0228547
0.0223546
0.0211652
0.0192766
0.0166402
0.0132287
0.00903149
0.00402563
0.00160208
0.0269173
0.0286459
0.029703
0.0300976
0.029798
0.0287195
0.026763
0.0237532
0.0195347
0.0139903
0.0069317
0.00195781
0.0317942
0.0336061
0.0348524
0.0354974
0.0354843
0.0347256
0.0330588
0.0301993
0.0256206
0.0190773
0.010191
0.00230772
0.0351009
0.0369644
0.0383552
0.0392464
0.0396065
0.0393442
0.0382307
0.0358397
0.031523
0.0244029
0.0139878
0.00267222
0.0371718
0.0389948
0.0404188
0.0414571
0.042125
0.042368
0.0419718
0.0404206
0.036765
0.0296183
0.0180172
0.00305262
0.0382892
0.039922
0.0412529
0.0423326
0.0432017
0.0438635
0.044183
0.0436666
0.0411349
0.0344466
0.0217373
0.00347807
0.0384224
0.0398552
0.041094
0.0421717
0.0431493
0.0440921
0.0449846
0.0454942
0.0444301
0.0388724
0.0251431
0.00394349
0.0378554
0.0391381
0.0402996
0.0413515
0.0423672
0.043442
0.044654
0.0459357
0.0464009
0.0428344
0.0289985
0.00443883
0.037202
0.0383516
0.0394242
0.0404035
0.0413339
0.0423074
0.0435721
0.0451401
0.0466028
0.0454305
0.0334377
0.00498416
0.0367871
0.0377305
0.0386348
0.0395222
0.0404435
0.041312
0.0422055
0.0436878
0.0456623
0.0466291
0.0381184
0.00561057
0.000322253
0.000682935
0.00071309
0.00070938
0.000689897
0.000654427
0.000689152
0.00101086
0.00163307
0.00187117
0.00196565
0.00203451
0.000524436
0.00135813
0.0018948
0.00188371
0.00129938
0.000817575
0.00160218
0.00200016
0.00295436
0.00432346
0.00610107
0.00803
0.000684522
0.00244774
0.00314222
0.00280452
0.00247463
0.00237804
0.00339771
0.00513042
0.00754405
0.0105518
0.0134572
0.0160898
0.00086143
0.00363253
0.0036036
0.0031406
0.00318764
0.00416791
0.00671612
0.00967873
0.0130119
0.0164827
0.0196001
0.0223259
0.000999748
0.00431711
0.0043175
0.00408964
0.00486835
0.007333
0.010693
0.014069
0.0176554
0.0211091
0.0241997
0.0268998
0.00112252
0.00519667
0.00567909
0.00582665
0.00763543
0.0108044
0.0142126
0.0176976
0.0211215
0.0244282
0.0274141
0.0300374
0.00122291
0.00595409
0.00703093
0.00812491
0.0107301
0.0140262
0.0173661
0.0206772
0.023916
0.0269428
0.0296845
0.032118
0.00133322
0.00721434
0.00909002
0.0114233
0.0143881
0.0175107
0.0205775
0.023554
0.0263941
0.0290077
0.0313647
0.0334579
0.00146465
0.00879085
0.0123383
0.0156061
0.0185916
0.0213142
0.0238328
0.0261798
0.028355
0.0303872
0.0322167
0.0338737
0.0016537
0.0106463
0.0154661
0.0189431
0.0217147
0.0239342
0.0258592
0.0275922
0.0292011
0.0307407
0.0321817
0.0335341
0.00189873
0.010146
0.016731
0.0205212
0.0230726
0.0250916
0.0267552
0.0281878
0.0294932
0.0307322
0.0319225
0.0330741
0.00333864
0.00984848
0.0176983
0.0218563
0.0241018
0.026038
0.0275326
0.0287812
0.0299002
0.0309415
0.0319372
0.0329054
0.00207347
0.00209662
0.00210231
0.0021028
0.00209329
0.00205685
0.00200337
0.00191909
0.00180414
0.00165027
0.00142966
0.000690336
0.00999701
0.0116381
0.0126801
0.0129839
0.0126289
0.0118842
0.0106802
0.00907644
0.00702316
0.00430812
0.00208462
0.00117714
0.0183527
0.0199878
0.0208735
0.0210531
0.0206179
0.0195568
0.0178416
0.015433
0.0123059
0.00843615
0.0037922
0.00155058
0.0245893
0.0262798
0.0273543
0.0277993
0.0275855
0.0266376
0.0248629
0.0221077
0.0182241
0.0131177
0.0065336
0.00189451
0.0291635
0.0309375
0.0321882
0.032877
0.0329451
0.0323082
0.030818
0.0282132
0.0239437
0.017877
0.00959576
0.00223428
0.032271
0.0340898
0.0354738
0.0363931
0.0368074
0.0366332
0.035658
0.0334869
0.0295221
0.0228958
0.013206
0.00258758
0.0342266
0.0359922
0.0374036
0.0384618
0.0391745
0.0394913
0.0392102
0.0378441
0.0344999
0.0278632
0.0170514
0.00295676
0.035287
0.0368569
0.0381701
0.0392585
0.0401609
0.0408799
0.0412891
0.0409197
0.038656
0.0324877
0.0206748
0.0033682
0.035378
0.0367539
0.0379807
0.0390688
0.0400711
0.0410563
0.0420149
0.0426335
0.0417838
0.0367106
0.0239495
0.00382396
0.0348227
0.0360624
0.0372003
0.038259
0.0392907
0.0404045
0.041668
0.0430268
0.0436728
0.0404424
0.0276992
0.00431232
0.034229
0.035347
0.036415
0.0374194
0.0383654
0.0393513
0.040652
0.0423474
0.043922
0.0431842
0.0321684
0.00485917
0.033866
0.0348144
0.0357408
0.0367129
0.0376938
0.0385471
0.0394873
0.0409631
0.0430201
0.0443497
0.0370245
0.00550909
0.000343014
0.000723948
0.000749795
0.000746301
0.000718278
0.00069112
0.000757804
0.00124525
0.00179487
0.00199476
0.00208184
0.00215093
0.000558452
0.00143832
0.00196155
0.00185648
0.00118585
0.00100361
0.00183728
0.00229135
0.00353849
0.00495608
0.00697524
0.00907822
0.000731354
0.00262527
0.00318301
0.00273893
0.0024491
0.00266078
0.00410038
0.00605174
0.00882309
0.0120346
0.0151084
0.0178954
0.000920146
0.00376971
0.00364671
0.00324784
0.00355153
0.00518145
0.00800103
0.0111866
0.0148278
0.0184767
0.0217394
0.024588
0.00106384
0.00459641
0.0046944
0.00462225
0.00593668
0.00885906
0.0122876
0.0159547
0.019772
0.0234005
0.0266384
0.0294555
0.00118985
0.00566274
0.00640454
0.00683727
0.00903615
0.0123642
0.0159751
0.0196916
0.0234082
0.0269015
0.0300398
0.032784
0.00128563
0.00642727
0.0078513
0.00923196
0.0120763
0.015559
0.0191126
0.022707
0.0261909
0.0294379
0.0323688
0.0349558
0.001389
0.00763998
0.00977336
0.0122814
0.0155114
0.0189101
0.0222779
0.0255675
0.0286633
0.0315077
0.0340723
0.0363376
0.00151524
0.00901875
0.0128482
0.0163592
0.0196693
0.0227176
0.0255575
0.0282085
0.030645
0.0328742
0.0349221
0.0367762
0.00169375
0.0107634
0.0160866
0.0199512
0.0230334
0.0255521
0.0277455
0.0297324
0.0315554
0.0332599
0.034887
0.0364277
0.00194332
0.0105112
0.0176415
0.0217611
0.0245784
0.0268649
0.0287771
0.0304282
0.031934
0.0333364
0.0346721
0.0359726
0.00343461
0.0104269
0.0188078
0.023309
0.0258872
0.0280948
0.0298324
0.0312681
0.0325354
0.0336888
0.0347673
0.0357993
0.00218661
0.00220874
0.00221125
0.00221126
0.00219358
0.00215398
0.00209147
0.00200055
0.00187381
0.00171176
0.00148034
0.000717246
0.0111275
0.0128119
0.0138271
0.0140683
0.0137077
0.0128702
0.0115459
0.00976865
0.00754048
0.00459377
0.00219056
0.00121873
0.0202218
0.0218905
0.0227498
0.0228545
0.0223544
0.0211651
0.0192765
0.0166401
0.0132287
0.00903146
0.00402562
0.00160207
0.0269171
0.0286457
0.0297028
0.0300974
0.0297979
0.0287194
0.0267629
0.0237531
0.0195346
0.0139902
0.00693168
0.00195781
0.031794
0.0336059
0.0348522
0.0354972
0.0354841
0.0347254
0.0330586
0.0301991
0.0256205
0.0190772
0.0101909
0.00230772
0.0351007
0.0369642
0.038355
0.0392462
0.0396063
0.039344
0.0382306
0.0358396
0.0315229
0.0244028
0.0139878
0.00267222
0.0371715
0.0389946
0.0404185
0.0414568
0.0421248
0.0423678
0.0419716
0.0404204
0.0367649
0.0296182
0.0180172
0.00305262
0.0382889
0.0399217
0.0412526
0.0423324
0.0432014
0.0438632
0.0441828
0.0436664
0.0411347
0.0344465
0.0217372
0.00347807
0.0384221
0.0398549
0.0410937
0.0421714
0.0431491
0.0440919
0.0449844
0.045494
0.0444299
0.0388723
0.0251431
0.00394348
0.0378552
0.0391378
0.0402994
0.0413513
0.0423669
0.0434417
0.0446538
0.0459355
0.0464007
0.0428343
0.0289985
0.00443882
0.0372018
0.0383514
0.039424
0.0404033
0.0413336
0.0423072
0.0435719
0.0451399
0.0466026
0.0454304
0.0334376
0.00498415
0.0367869
0.0377303
0.0386346
0.039522
0.0404433
0.0413118
0.0422053
0.0436876
0.045662
0.0466289
0.0381183
0.00561056
0.000322253
0.000682936
0.000713091
0.00070938
0.000689897
0.000654428
0.000689152
0.00101086
0.00163307
0.00187117
0.00196566
0.00203452
0.000524436
0.00135813
0.00189479
0.00188371
0.00129938
0.000817572
0.00160218
0.00200016
0.00295436
0.00432346
0.00610107
0.00803
0.000684522
0.00244774
0.00314221
0.00280452
0.00247463
0.00237804
0.00339771
0.00513042
0.00754405
0.0105518
0.0134572
0.0160898
0.00086143
0.00363253
0.00360359
0.0031406
0.00318764
0.00416791
0.00671612
0.00967873
0.0130119
0.0164827
0.0196001
0.0223259
0.000999748
0.0043171
0.0043175
0.00408964
0.00486834
0.007333
0.010693
0.014069
0.0176554
0.0211091
0.0241997
0.0268998
0.00112252
0.00519666
0.00567909
0.00582664
0.00763543
0.0108044
0.0142126
0.0176976
0.0211215
0.0244282
0.0274141
0.0300374
0.00122291
0.0059541
0.00703093
0.00812492
0.0107301
0.0140262
0.0173661
0.0206772
0.023916
0.0269428
0.0296845
0.032118
0.00133322
0.00721435
0.00909003
0.0114233
0.0143881
0.0175107
0.0205775
0.023554
0.0263941
0.0290077
0.0313647
0.0334579
0.00146466
0.00879086
0.0123383
0.0156061
0.0185916
0.0213142
0.0238328
0.0261798
0.028355
0.0303873
0.0322167
0.0338737
0.0016537
0.0106463
0.0154661
0.0189431
0.0217147
0.0239342
0.0258592
0.0275922
0.0292011
0.0307407
0.0321817
0.0335341
0.00189873
0.010146
0.016731
0.0205212
0.0230726
0.0250916
0.0267552
0.0281878
0.0294932
0.0307322
0.0319225
0.0330741
0.00333864
0.00984848
0.0176983
0.0218563
0.0241018
0.026038
0.0275326
0.0287812
0.0299002
0.0309415
0.0319372
0.0329054
0.00207347
0.00209662
0.00210231
0.00210281
0.00209329
0.00205685
0.00200337
0.00191909
0.00180414
0.00165027
0.00142966
0.000690336
0.00999702
0.0116381
0.0126801
0.0129839
0.0126289
0.0118842
0.0106802
0.00907644
0.00702316
0.00430813
0.00208462
0.00117714
0.0183527
0.0199878
0.0208735
0.0210531
0.0206179
0.0195568
0.0178416
0.015433
0.0123059
0.00843616
0.0037922
0.00155058
0.0245893
0.0262798
0.0273543
0.0277993
0.0275855
0.0266377
0.024863
0.0221077
0.0182241
0.0131177
0.0065336
0.00189451
0.0291635
0.0309375
0.0321882
0.032877
0.0329451
0.0323083
0.030818
0.0282132
0.0239438
0.017877
0.00959577
0.00223428
0.032271
0.0340898
0.0354738
0.0363931
0.0368075
0.0366332
0.035658
0.033487
0.0295222
0.0228958
0.013206
0.00258758
0.0342266
0.0359923
0.0374037
0.0384618
0.0391745
0.0394913
0.0392103
0.0378442
0.0344999
0.0278632
0.0170514
0.00295676
0.0352871
0.036857
0.0381701
0.0392586
0.0401609
0.04088
0.0412892
0.0409197
0.038656
0.0324877
0.0206748
0.0033682
0.035378
0.0367539
0.0379807
0.0390688
0.0400712
0.0410564
0.0420149
0.0426335
0.0417838
0.0367107
0.0239496
0.00382396
0.0348227
0.0360624
0.0372003
0.038259
0.0392907
0.0404046
0.0416681
0.0430269
0.0436728
0.0404424
0.0276992
0.00431232
0.034229
0.035347
0.036415
0.0374194
0.0383655
0.0393513
0.040652
0.0423475
0.0439221
0.0431843
0.0321684
0.00485918
0.033866
0.0348144
0.0357409
0.0367129
0.0376938
0.0385471
0.0394873
0.0409632
0.0430202
0.0443498
0.0370246
0.00550909
0.0209775
0.0219824
0.0238887
0.0260237
0.0280374
0.0298653
0.0312805
0.0324516
0.0334962
0.0344088
0.035233
0.0359995
0.0328949
0.0307532
0.0303108
0.0307116
0.0315737
0.0324287
0.0330477
0.0338504
0.0346901
0.0353094
0.0358307
0.0363086
0.040449
0.0383146
0.0368262
0.0359246
0.03558
0.0355202
0.0355946
0.0357204
0.0358518
0.0359822
0.0361101
0.0363114
0.0429899
0.041488
0.0400856
0.0389023
0.0379885
0.0372817
0.036724
0.0364228
0.036155
0.0359007
0.0356857
0.0354437
0.0367186
0.0374035
0.0380625
0.0387116
0.0394154
0.0403042
0.0412203
0.042234
0.0439876
0.0463692
0.0474183
0.0221392
0.0367328
0.0371366
0.0375379
0.0379628
0.0384379
0.0390083
0.0398631
0.0407303
0.0420273
0.0444113
0.0493229
0.0363609
0.0364086
0.0365249
0.036676
0.0369167
0.0372609
0.037728
0.0384002
0.0393447
0.0404964
0.0422731
0.0468139
0.0426911
0.0352635
0.0352214
0.0353427
0.0357304
0.0362573
0.0369191
0.0377347
0.0388478
0.0400943
0.0414222
0.0443348
0.0440686
0.0197573
0.0203778
0.0221119
0.0240028
0.0257548
0.0273125
0.028529
0.0296017
0.0305896
0.0314773
0.0323043
0.0330971
0.0313817
0.028886
0.0280856
0.0281882
0.0287231
0.0293261
0.0299532
0.0307634
0.0316008
0.032264
0.0328873
0.0334682
0.039094
0.0364576
0.0343965
0.0332105
0.0326011
0.0324061
0.0324531
0.0326356
0.032904
0.0331242
0.0333619
0.0336375
0.0418596
0.0397733
0.0379743
0.0364367
0.0352771
0.0345242
0.0340132
0.0336344
0.0334595
0.0333418
0.0332504
0.0331826
0.0338711
0.0346285
0.0353618
0.036093
0.0368644
0.0377775
0.0385511
0.0397012
0.0415883
0.0442696
0.0466419
0.0226561
0.0340323
0.0345733
0.0350788
0.0355738
0.0360804
0.0367675
0.0375188
0.0383172
0.0398365
0.0424983
0.0483157
0.0372214
0.0339717
0.0342628
0.0344799
0.0346915
0.0349529
0.035396
0.0360968
0.0368544
0.038325
0.0402688
0.045307
0.0432609
0.0331234
0.0330382
0.0330108
0.0330687
0.0332753
0.0338461
0.0346274
0.0355811
0.0372183
0.0388805
0.0426402
0.0437991
0.0209775
0.0219824
0.0238886
0.0260236
0.0280374
0.0298653
0.0312804
0.0324515
0.0334961
0.0344087
0.0352328
0.0359993
0.0328948
0.0307531
0.0303107
0.0307115
0.0315737
0.0324286
0.0330477
0.0338503
0.03469
0.0353093
0.0358306
0.0363085
0.0404489
0.0383145
0.0368262
0.0359245
0.03558
0.0355201
0.0355945
0.0357203
0.0358518
0.0359821
0.0361101
0.0363114
0.0429898
0.0414878
0.0400855
0.0389022
0.0379884
0.0372816
0.0367239
0.0364227
0.0361549
0.0359007
0.0356856
0.0354437
0.0367184
0.0374033
0.0380623
0.0387114
0.0394153
0.040304
0.0412201
0.0422338
0.0439874
0.046369
0.0474182
0.0221392
0.0367327
0.0371365
0.0375378
0.0379627
0.0384378
0.0390082
0.039863
0.0407302
0.0420271
0.0444111
0.0493227
0.0363609
0.0364086
0.0365248
0.036676
0.0369166
0.0372608
0.0377278
0.0384
0.0393446
0.0404963
0.0422729
0.0468137
0.042691
0.0352634
0.0352213
0.0353427
0.0357303
0.0362572
0.036919
0.0377346
0.0388476
0.0400941
0.041422
0.0443346
0.0440684
0.0197573
0.0203778
0.0221118
0.0240027
0.0257547
0.0273125
0.028529
0.0296017
0.0305896
0.0314772
0.0323043
0.0330971
0.0313817
0.0288859
0.0280855
0.0281882
0.0287231
0.029326
0.0299532
0.0307634
0.0316008
0.032264
0.0328873
0.0334682
0.0390939
0.0364575
0.0343965
0.0332104
0.0326011
0.032406
0.0324531
0.0326356
0.032904
0.0331242
0.0333619
0.0336375
0.0418594
0.0397732
0.0379742
0.0364366
0.035277
0.0345242
0.0340131
0.0336344
0.0334595
0.0333418
0.0332504
0.0331826
0.0338711
0.0346285
0.0353618
0.0360931
0.0368645
0.0377776
0.0385512
0.0397012
0.0415884
0.0442696
0.046642
0.0226562
0.0340323
0.0345734
0.0350788
0.0355738
0.0360805
0.0367675
0.0375188
0.0383173
0.0398365
0.0424984
0.0483158
0.0372215
0.0339717
0.0342628
0.0344799
0.0346915
0.0349529
0.0353961
0.0360968
0.0368545
0.0383251
0.0402689
0.0453072
0.043261
0.0331234
0.0330382
0.0330109
0.0330688
0.0332754
0.0338463
0.0346275
0.0355812
0.0372185
0.0388806
0.0426403
0.0437992
0.0413169
0.0400385
0.0387813
0.0376953
0.0368189
0.0361008
0.035492
0.0350374
0.03458
0.0340999
0.0336464
0.0333479
0.0391087
0.0380054
0.0368667
0.0358445
0.0349691
0.0342134
0.0335383
0.0329234
0.0322474
0.0314581
0.03059
0.0299589
0.036771
0.0358339
0.0348042
0.0338345
0.0329603
0.032163
0.0314017
0.0306202
0.0296816
0.0284229
0.026667
0.0247597
0.0344906
0.0337049
0.0327816
0.0318621
0.0309892
0.0301503
0.0292997
0.0283513
0.027114
0.0251842
0.0216627
0.0161406
0.0335308
0.0342343
0.0351039
0.0361347
0.0372479
0.0382892
0.0393728
0.0404183
0.0413879
0.0423145
0.0428166
0.042271
0.0305057
0.0323701
0.0341706
0.0358438
0.037412
0.0387348
0.0398677
0.0407776
0.0414395
0.0416987
0.0416404
0.0407439
0.0253806
0.0296172
0.0327699
0.035101
0.0369593
0.0384204
0.039547
0.0403255
0.0406658
0.0406622
0.0403118
0.0390768
0.0161689
0.0257312
0.030925
0.033958
0.0360431
0.037571
0.0386737
0.0392763
0.0394628
0.0393466
0.0387557
0.0373766
0.0402598
0.0383186
0.0366807
0.0353185
0.0342809
0.0335244
0.0329146
0.0323894
0.0319835
0.0316128
0.0312967
0.0310844
0.038728
0.0368415
0.0352122
0.0338334
0.0327064
0.0317768
0.0309511
0.0301786
0.0294505
0.0287146
0.028013
0.0275203
0.0371685
0.0352903
0.0336041
0.0321262
0.0308445
0.0297094
0.0286481
0.0276035
0.0265214
0.0252914
0.0238386
0.0225121
0.0355519
0.0336812
0.0319343
0.0303491
0.028917
0.0275969
0.0263248
0.0250244
0.0235733
0.0216809
0.018682
0.0143428
0.0310156
0.0310372
0.0311411
0.0314339
0.0320182
0.032981
0.034228
0.0357046
0.0375217
0.0394277
0.0414379
0.0419986
0.0275597
0.0280283
0.0284592
0.0290359
0.029917
0.0311511
0.0326563
0.0343499
0.036189
0.0379593
0.0392915
0.0396615
0.0226065
0.0244658
0.025632
0.0266076
0.0277531
0.0291587
0.030772
0.0325105
0.0342778
0.0358569
0.0368863
0.0371897
0.0143355
0.0201982
0.0228273
0.0243512
0.0257398
0.0272376
0.0288606
0.030554
0.0322155
0.0336154
0.0345039
0.0347947
0.0413167
0.0400383
0.0387812
0.0376952
0.0368188
0.0361008
0.0354919
0.0350373
0.0345799
0.0340998
0.0336463
0.0333479
0.0391086
0.0380052
0.0368666
0.0358444
0.034969
0.0342134
0.0335382
0.0329234
0.0322473
0.031458
0.0305899
0.0299589
0.0367708
0.0358337
0.034804
0.0338344
0.0329602
0.0321629
0.0314017
0.0306201
0.0296816
0.0284228
0.0266669
0.0247597
0.0344904
0.0337047
0.0327815
0.031862
0.030989
0.0301502
0.0292996
0.0283512
0.0271139
0.0251841
0.0216627
0.0161406
0.0335307
0.0342343
0.0351038
0.0361346
0.0372478
0.0382891
0.0393726
0.0404182
0.0413878
0.0423143
0.0428164
0.0422709
0.0305056
0.0323701
0.0341705
0.0358437
0.0374119
0.0387347
0.0398676
0.0407775
0.0414394
0.0416985
0.0416403
0.0407438
0.0253805
0.0296171
0.0327698
0.0351009
0.0369591
0.0384203
0.0395469
0.0403254
0.0406656
0.0406621
0.0403117
0.0390767
0.0161688
0.0257311
0.0309249
0.0339579
0.036043
0.0375709
0.0386735
0.0392762
0.0394627
0.0393465
0.0387556
0.0373766
0.0402597
0.0383186
0.0366806
0.0353185
0.0342809
0.0335244
0.0329146
0.0323894
0.0319835
0.0316128
0.0312967
0.0310844
0.0387279
0.0368415
0.0352122
0.0338334
0.0327064
0.0317768
0.0309512
0.0301787
0.0294505
0.0287146
0.028013
0.0275204
0.0371684
0.0352902
0.0336041
0.0321263
0.0308445
0.0297095
0.0286482
0.0276036
0.0265215
0.0252915
0.0238387
0.0225122
0.0355519
0.0336812
0.0319343
0.0303491
0.0289171
0.027597
0.0263249
0.0250246
0.0235735
0.021681
0.0186821
0.0143429
0.0310157
0.0310373
0.0311412
0.0314341
0.0320184
0.0329812
0.0342282
0.0357048
0.0375219
0.0394279
0.041438
0.0419988
0.0275598
0.0280285
0.0284595
0.0290362
0.0299173
0.0311514
0.0326565
0.0343502
0.0361892
0.0379595
0.0392917
0.0396617
0.0226066
0.0244661
0.0256324
0.026608
0.0277536
0.0291592
0.0307724
0.0325108
0.0342781
0.0358571
0.0368865
0.0371899
0.0143356
0.0201985
0.0228278
0.0243518
0.0257404
0.0272381
0.0288611
0.0305544
0.0322158
0.0336157
0.0345041
0.0347949
0.0323395
0.0316862
0.0308602
0.0299897
0.0291214
0.0282464
0.0273132
0.0262122
0.0246956
0.0220289
0.0159544
0.00353339
0.0303327
0.0297901
0.0290509
0.0282284
0.0273694
0.0264666
0.0254649
0.02424
0.0225132
0.0195751
0.0137078
0.00245448
0.0284575
0.0280057
0.0273431
0.0265673
0.0257227
0.0248025
0.0237505
0.0224393
0.0205991
0.0176336
0.012305
0.00200547
0.0266856
0.0263081
0.0257128
0.0249829
0.0241583
0.0232324
0.0221501
0.0207906
0.0189136
0.0160464
0.0112613
0.00178722
0.0249724
0.0246565
0.0241215
0.0234375
0.0226397
0.0217209
0.0206297
0.0192566
0.0173987
0.0146873
0.010371
0.00163144
0.0232474
0.0229851
0.0225062
0.0218708
0.0211086
0.020212
0.019134
0.0177794
0.0159819
0.0134529
0.00954029
0.00149731
0.0213973
0.021185
0.0207621
0.0201815
0.0194678
0.0186121
0.0175725
0.0162688
0.0145676
0.0122411
0.00870528
0.00137348
0.0192355
0.019074
0.0187121
0.0181986
0.0175524
0.0167633
0.0157944
0.0145806
0.0130175
0.0109284
0.00779776
0.00125264
0.0164583
0.0163512
0.0160614
0.0156356
0.0150866
0.0144016
0.0135495
0.0124816
0.0111198
0.00933941
0.0067159
0.00112636
0.0125888
0.012539
0.0123378
0.0120314
0.011624
0.0111001
0.010436
0.00960267
0.00853808
0.00719155
0.00527954
0.000981496
0.00699315
0.00699092
0.00689359
0.00674504
0.00653879
0.00625691
0.00588809
0.00542829
0.0048094
0.00406986
0.00311921
0.000798406
0.000748095
0.000743582
0.000731075
0.00071346
0.000690482
0.000662054
0.000627354
0.00058322
0.000527135
0.000456075
0.000363482
0.000173059
0.00366537
0.0209684
0.0288517
0.0325388
0.0348034
0.0363612
0.0373992
0.0378948
0.0380432
0.0378195
0.0370337
0.0356503
0.00287646
0.0188184
0.0269676
0.0309695
0.0333512
0.0349265
0.0358804
0.0363307
0.0364349
0.0361246
0.0352561
0.0339106
0.00254616
0.0173555
0.0252234
0.0293216
0.0317575
0.0333216
0.0342268
0.0346454
0.0347006
0.0343256
0.0334463
0.0321655
0.00235419
0.0161428
0.0235716
0.0276255
0.0300619
0.0315966
0.0324648
0.032866
0.0328726
0.0324532
0.031605
0.0304066
0.00220578
0.0150165
0.0219564
0.0258775
0.0282702
0.0297597
0.0305995
0.0309722
0.0309374
0.0305044
0.0297068
0.0285982
0.00207238
0.0138909
0.0203167
0.0240411
0.0263463
0.0277749
0.0285797
0.0289165
0.0288473
0.028419
0.0276816
0.0266627
0.00194056
0.0127025
0.0185745
0.0220366
0.024203
0.0255459
0.0262954
0.0265893
0.0264918
0.0260757
0.0253936
0.0244695
0.00180185
0.0113712
0.0166103
0.019716
0.0216724
0.0228829
0.0235477
0.0237871
0.023664
0.0232618
0.022628
0.0218135
0.00165328
0.00976683
0.014206
0.0168104
0.0184496
0.0194577
0.0199957
0.0201645
0.0200223
0.0196385
0.0190613
0.018393
0.00147859
0.00769683
0.0109752
0.0128491
0.0140233
0.014738
0.0151008
0.0151931
0.0150489
0.0147073
0.0142472
0.0137608
0.00125669
0.00467674
0.00624662
0.00713799
0.00770822
0.00805412
0.00821343
0.00825451
0.00814893
0.00795512
0.00769884
0.00742101
0.000297049
0.000516066
0.00065844
0.000746606
0.00080655
0.000847169
0.000871047
0.000880691
0.000876555
0.000864169
0.000845788
0.000822606
0.033904
0.0320629
0.0302851
0.028624
0.0270799
0.0256197
0.024182
0.0226688
0.0208868
0.0183075
0.0130983
0.00295996
0.0322527
0.0304724
0.0287075
0.0270187
0.0254148
0.0238694
0.022322
0.0206608
0.0186617
0.0157828
0.010613
0.00180679
0.0306092
0.0289193
0.0272106
0.0255437
0.0239331
0.0223578
0.0207595
0.0190239
0.0169312
0.0140169
0.00926013
0.00136236
0.0289611
0.0273831
0.025764
0.0241599
0.0225881
0.0210316
0.0194368
0.0176956
0.0156135
0.0128244
0.00859428
0.00119473
0.0272648
0.0258114
0.0243027
0.02279
0.0212909
0.0197919
0.0182452
0.016554
0.0145557
0.0119674
0.00822664
0.00112158
0.0254445
0.0241172
0.0227291
0.0213259
0.0199239
0.0185119
0.017048
0.015448
0.0135781
0.0112125
0.00787303
0.00107074
0.0233752
0.02217
0.0209089
0.0196297
0.0183458
0.0170467
0.0156955
0.0142194
0.0125079
0.0103692
0.00741872
0.00103258
0.020862
0.0197813
0.0186598
0.0175256
0.0163859
0.01523
0.0140248
0.0127072
0.0111869
0.00928951
0.00677779
0.000987163
0.0176111
0.0166837
0.0157335
0.0147819
0.0138273
0.012858
0.0118449
0.0107334
0.00945684
0.00784162
0.00584747
0.000929323
0.0131706
0.0124808
0.0117587
0.0110521
0.010344
0.0096231
0.00886596
0.00802657
0.00707352
0.0058066
0.00441903
0.000846805
0.00710632
0.00677251
0.00641265
0.00604207
0.00566598
0.00528115
0.00487511
0.00441093
0.00391328
0.0031631
0.00247197
0.000727088
0.000794509
0.000762745
0.00072794
0.000691618
0.000654514
0.000616275
0.000576659
0.000533621
0.000487166
0.000424931
0.000363004
0.000225218
0.00319169
0.0153148
0.0201545
0.02231
0.0239148
0.025448
0.027025
0.0286317
0.0301751
0.031439
0.0322505
0.03255
0.00230958
0.012928
0.0179976
0.0205252
0.0222619
0.0237892
0.025294
0.0268014
0.0282321
0.0293907
0.0301539
0.0304679
0.00188321
0.0113502
0.0162687
0.0189443
0.0207398
0.022233
0.0236581
0.0250698
0.0264019
0.0274771
0.0282052
0.0285329
0.00162868
0.0101614
0.0148249
0.0175048
0.0192945
0.0207339
0.0220822
0.0234116
0.0246635
0.0256731
0.0263742
0.0267136
0.00144679
0.00917727
0.0135423
0.0161342
0.0178633
0.0192323
0.0205102
0.0217748
0.0229681
0.0239295
0.0246109
0.0249614
0.00130667
0.00827943
0.0123292
0.014759
0.0163761
0.0176546
0.0188646
0.0200811
0.021238
0.0221686
0.0228381
0.0232025
0.00118683
0.00742239
0.0111069
0.0133014
0.0147518
0.0159109
0.0170446
0.0182203
0.0193583
0.0202728
0.020936
0.0213197
0.00107545
0.00656284
0.00979007
0.0116676
0.0128913
0.0138898
0.0149204
0.016043
0.0171642
0.0180643
0.0187175
0.019125
0.000963685
0.00562462
0.00825706
0.00972617
0.0106609
0.0114477
0.0123244
0.0133481
0.0144198
0.0152791
0.015894
0.0163177
0.000839887
0.00445198
0.00629463
0.00724075
0.00782253
0.00833616
0.00897185
0.00979613
0.0107404
0.0115202
0.0120423
0.0124332
0.000685539
0.00270526
0.00357219
0.00394852
0.00416517
0.00437571
0.00470265
0.00521297
0.005805
0.00630261
0.00665038
0.00688272
0.000148506
0.000313974
0.000387461
0.000429575
0.00046235
0.000500415
0.000549366
0.000606402
0.000656813
0.000695829
0.00072481
0.000742391
0.0323393
0.031686
0.03086
0.0299895
0.0291212
0.0282462
0.0273131
0.0262121
0.0246955
0.0220288
0.0159543
0.00353339
0.0303324
0.0297898
0.0290507
0.0282282
0.0273692
0.0264665
0.0254647
0.0242399
0.0225131
0.019575
0.0137077
0.00245447
0.0284572
0.0280054
0.0273429
0.0265671
0.0257225
0.0248023
0.0237503
0.0224391
0.0205989
0.0176335
0.0123049
0.00200545
0.0266853
0.0263077
0.0257126
0.0249826
0.024158
0.0232321
0.0221499
0.0207903
0.0189134
0.0160462
0.0112612
0.00178719
0.024972
0.0246561
0.0241211
0.0234372
0.0226394
0.0217206
0.0206294
0.0192563
0.0173984
0.014687
0.0103708
0.00163141
0.023247
0.0229847
0.0225059
0.0218705
0.0211083
0.0202117
0.0191337
0.0177791
0.0159815
0.0134526
0.00954008
0.00149726
0.0213969
0.0211847
0.0207618
0.0201812
0.0194675
0.0186118
0.0175722
0.0162685
0.0145672
0.0122408
0.00870508
0.00137341
0.0192352
0.0190737
0.0187118
0.0181983
0.0175522
0.0167631
0.0157941
0.0145803
0.0130173
0.0109282
0.00779763
0.00125256
0.016458
0.0163509
0.0160612
0.0156354
0.0150864
0.0144014
0.0135493
0.0124814
0.0111197
0.00933929
0.00671589
0.00112625
0.0125887
0.0125388
0.0123377
0.0120313
0.0116239
0.0111
0.0104359
0.00960259
0.00853802
0.00719155
0.00527965
0.00098137
0.00699307
0.00699085
0.00689353
0.00674498
0.00653873
0.00625686
0.00588804
0.00542825
0.00480938
0.00406988
0.0031193
0.000798248
0.000748077
0.000743565
0.000731058
0.000713444
0.000690466
0.000662038
0.000627337
0.000583202
0.000527114
0.000456051
0.000363454
0.000172994
0.00366536
0.0209683
0.0288516
0.0325387
0.0348032
0.0363611
0.0373991
0.0378947
0.0380431
0.0378194
0.0370337
0.0356503
0.00287646
0.0188183
0.0269674
0.0309694
0.033351
0.0349263
0.0358803
0.0363306
0.0364347
0.0361245
0.035256
0.0339105
0.00254616
0.0173554
0.0252232
0.0293215
0.0317574
0.0333214
0.0342267
0.0346453
0.0347005
0.0343255
0.0334462
0.0321655
0.00235419
0.0161427
0.0235714
0.0276253
0.0300617
0.0315964
0.0324647
0.0328658
0.0328724
0.0324531
0.0316049
0.0304066
0.00220578
0.0150164
0.0219562
0.0258774
0.02827
0.0297596
0.0305993
0.0309721
0.0309373
0.0305043
0.0297067
0.0285982
0.00207237
0.0138909
0.0203166
0.0240409
0.0263461
0.0277748
0.0285796
0.0289163
0.0288472
0.0284189
0.0276816
0.0266627
0.00194054
0.0127024
0.0185744
0.0220365
0.0242029
0.0255458
0.0262953
0.0265892
0.0264917
0.0260756
0.0253936
0.0244695
0.00180184
0.0113711
0.0166102
0.0197159
0.0216723
0.0228828
0.0235476
0.0237871
0.0236639
0.0232617
0.022628
0.0218135
0.00165326
0.0097668
0.014206
0.0168103
0.0184495
0.0194577
0.0199957
0.0201645
0.0200222
0.0196384
0.0190613
0.018393
0.00147857
0.00769682
0.0109752
0.0128491
0.0140233
0.0147379
0.0151007
0.0151931
0.0150489
0.0147073
0.0142472
0.0137608
0.00125667
0.00467674
0.00624661
0.00713798
0.00770821
0.00805411
0.00821341
0.0082545
0.00814892
0.00795511
0.00769884
0.00742101
0.000297043
0.00051606
0.000658434
0.0007466
0.000806545
0.000847164
0.000871042
0.000880687
0.000876551
0.000864165
0.000845785
0.000822603
0.033904
0.032063
0.0302852
0.0286241
0.02708
0.0256199
0.0241822
0.022669
0.020887
0.0183077
0.0130985
0.00295997
0.0322527
0.0304724
0.0287076
0.0270188
0.025415
0.0238696
0.0223222
0.0206612
0.0186621
0.0157832
0.0106132
0.00180685
0.0306092
0.0289194
0.0272107
0.0255438
0.0239333
0.022358
0.0207599
0.0190243
0.0169316
0.0140173
0.00926051
0.00136247
0.0289611
0.0273831
0.0257641
0.0241601
0.0225883
0.0210319
0.0194372
0.0176961
0.0156141
0.012825
0.0085947
0.00119488
0.0272648
0.0258114
0.0243028
0.0227901
0.0212911
0.0197922
0.0182456
0.0165545
0.0145562
0.011968
0.00822697
0.00112175
0.0254445
0.0241172
0.0227292
0.021326
0.0199241
0.0185122
0.0170484
0.0154485
0.0135786
0.011213
0.00787321
0.00107093
0.0233753
0.0221701
0.0209089
0.0196299
0.018346
0.017047
0.0156959
0.0142198