/*--------------------------------*- C++ -*----------------------------------*\
| =========                 |                                                 |
| \\      /  F ield         | OpenFOAM: The Open Source CFD Toolbox           |
|  \\    /   O peration     | Version:  2212                                  |
|   \\  /    A nd           | Website:  www.openfoam.com                      |
|    \\/     M anipulation  |                                                 |
\*---------------------------------------------------------------------------*/
FoamFile
{
    version     2.0;
    format      ascii;
    arch        "LSB;label=32;scalar=64";
    class       volScalarField;
    location    "0.1";
    object      epsilon;
}
// * * * * * * * * * * * * * * * * * * * * * * * * * * * * * * * * * * * * * //

dimensions      [0 2 -3 0 0 0 0];

internalField   nonuniform List<scalar> 
3072
(
2068.7
1841.01
2288.19
2283.04
2232.56
1967.75
1823.79
2606.43
13619.6
34145.9
44111
49206.3
5600.99
5062.36
4036.81
3412.98
4131.23
6560.81
16693.1
23511.2
25200.3
32834.6
35436.7
36685.9
7943.93
6208.93
6230.48
7499.18
14952.1
20408.5
20928.1
22322.1
24839.6
27840.4
28842.9
29993.3
11158.8
8621.01
10007.2
12501.4
16965.5
18609.7
18904.7
21085.7
23699.1
25162.1
25964
26800.1
13174.7
10544.8
12649.4
13827.3
15780.3
16559.7
18663.9
21146.2
23022.5
23983.4
24553.4
25094.8
14532.6
11456
12810.5
13435.7
15133.8
16878.3
19282.2
21557.9
22856.1
23393
23702.7
24005.7
14967.8
11450.5
12401.9
13562.5
15865.5
18242.6
20668.3
22332.2
23145.7
23455.5
23555.1
23659.3
16171.7
11770
13001.8
15380.5
18739.9
21374.6
23231.4
24164.2
24420
24373.4
24254.6
24218.7
18139.1
13318.9
16812.7
21643.6
26097.3
28422.6
29159.9
28912.8
28218.4
27460.7
26826.4
26413.4
22316.8
18397.9
28444.5
37036.6
42332.9
43432.9
42032
39490.4
36842.8
34518.4
32672.6
31329.2
25796.3
34170.3
55924.5
68011.9
71091.8
68828.8
63214.2
56931.3
51085.5
46138.7
42205.1
39216
97203.7
97969.4
107971
110250
106244
97106.9
86685.2
76552.1
67468.2
59789.8
53592.7
48739.5
53423.1
55564.7
56836.9
57032.4
57102.6
54465.7
50634.3
44545.5
37027.2
28217.4
17936.7
21729.2
37786.6
38656.4
39451.5
40202
41093.2
42453.3
44989.5
48592
53435.9
59078.2
61809.5
72986.3
30950.3
31655.2
32247.7
32868.9
33937.7
35843.4
39100.9
44302.4
52349.1
64153.5
81141.9
115804
27471
28056.6
28655.1
29387.5
30537.6
32494.7
35842
41397
50506.1
65657.6
92735.4
146688
25532.3
25946.5
26420
27077.9
28163.6
30061.3
33366.6
38999.3
48563.8
65504.4
99453.3
172804
24292.3
24625.3
25076.7
25765.2
26907.7
28843.7
32124.3
37680.9
47309.6
64967.4
103253
196437
23833.1
24125
24594.6
25347.3
26560.9
28529.3
31781.1
37257.9
46786.8
64527.2
105591
219685
24315.5
24579.8
25076.4
25897
27171.6
29153.5
32323.7
37608.3
46932
64685.2
107031
247215
26279.3
26440.3
26882.8
27690.1
28982.3
30943.9
33990.6
39011.9
48012.6
65692.1
109292
280316
30515.4
30252.5
30489.4
31124.1
32260.2
34089.2
36911.1
41511.7
49979
67186.6
111518
315678
37188.8
36082.8
35861.1
36297.6
37167.6
38665.9
41054.3
45003
52507.9
68601.2
113997
358229
45329.3
43310.2
42462.7
42610.4
43241.2
44286
45977.3
48870
54488.7
68731.8
114819
416107
2068.72
1841.03
2288.2
2283.05
2232.58
1967.76
1823.8
2606.46
13619.9
34146.1
44111.2
49206.5
5601.05
5062.4
4036.84
3413
4131.26
6560.86
16693.2
23511.3
25200.5
32834.8
35436.9
36686
7944.01
6208.98
6230.54
7499.25
14952.2
20408.5
20928.1
22322.2
24839.7
27840.5
28843
29993.4
11158.9
8621.09
10007.3
12501.5
16965.5
18609.7
18904.8
21085.8
23699.2
25162.2
25964.1
26800.2
13174.8
10544.9
12649.4
13827.3
15780.4
16559.7
18664
21146.3
23022.6
23983.4
24553.5
25094.9
14532.7
11456.1
12810.5
13435.7
15133.9
16878.4
19282.3
21558
22856.2
23393.1
23702.8
24005.8
14967.9
11450.6
12402
13562.6
15865.6
18242.7
20668.4
22332.3
23145.8
23455.6
23555.2
23659.4
16171.8
11770.1
13001.8
15380.6
18740
21374.7
23231.5
24164.3
24420.1
24373.5
24254.7
24218.8
18139.1
13319
16812.8
21643.7
26097.4
28422.6
29160
28912.9
28218.5
27460.8
26826.5
26413.5
22316.8
18397.9
28444.5
37036.6
42332.9
43432.9
42032
39490.4
36842.8
34518.5
32672.7
31329.3
25796.3
34170.3
55924.5
68011.9
71091.8
68828.8
63214.2
56931.3
51085.5
46138.8
42205.2
39216
97203.7
97969.6
107971
110250
106244
97106.9
86685.3
76552.1
67468.2
59789.9
53592.7
48739.6
53423.3
55564.9
56837.1
57032.6
57102.7
54465.8
50634.5
44545.6
37027.3
28217.5
17936.7
21729.2
37786.7
38656.5
39451.6
40202.1
41093.3
42453.4
44989.6
48592.1
53436
59078.3
61809.6
72986.4
30950.4
31655.3
32247.8
32869
33937.8
35843.4
39101
44302.5
52349.2
64153.6
81142
115804
27471.1
28056.7
28655.2
29387.6
30537.7
32494.7
35842.1
41397.1
50506.2
65657.7
92735.5
146688
25532.4
25946.6
26420.1
27078
28163.7
30061.4
33366.7
38999.4
48563.9
65504.5
99453.5
172804
24292.4
24625.4
25076.8
25765.3
26907.8
28843.8
32124.4
37681.1
47309.7
64967.5
103253
196437
23833.3
24125.1
24594.7
25347.4
26561
28529.4
31781.2
37258
46786.9
64527.3
105592
219686
24315.6
24579.9
25076.5
25897.1
27171.7
29153.6
32323.8
37608.4
46932.1
64685.3
107031
247215
26279.4
26440.4
26882.9
27690.1
28982.4
30944
33990.7
39011.9
48012.7
65692.2
109292
280317
30515.5
30252.6
30489.5
31124.2
32260.2
34089.2
36911.2
41511.8
49979.1
67186.7
111518
315678
37188.9
36082.9
35861.1
36297.7
37167.6
38665.9
41054.4
45003
52508
68601.3
113997
358229
45329.3
43310.2
42462.7
42610.4
43241.2
44286.1
45977.3
48870
54488.7
68731.8
114819
416108
2068.73
1841.04
2288.22
2283.07
2232.59
1967.78
1823.81
2606.47
13619.8
34146
44111.2
49206.4
5601.08
5062.42
4036.86
3413.03
4131.29
6560.89
16693.3
23511.3
25200.5
32834.7
35436.8
36685.9
7944.06
6209.01
6230.58
7499.31
14952.2
20408.5
20928.1
22322.2
24839.6
27840.5
28842.9
29993.3
11159
8621.13
10007.3
12501.5
16965.5
18609.7
18904.8
21085.8
23699.2
25162.2
25964
26800.2
13174.9
10545
12649.5
13827.4
15780.4
16559.7
18663.9
21146.3
23022.6
23983.4
24553.5
25094.9
14532.8
11456.1
12810.5
13435.7
15133.9
16878.4
19282.3
21558
22856.1
23393.1
23702.8
24005.8
14968
11450.6
12402
13562.6
15865.6
18242.7
20668.4
22332.3
23145.8
23455.6
23555.2
23659.4
16171.9
11770.1
13001.9
15380.7
18740
21374.7
23231.5
24164.3
24420.1
24373.5
24254.7
24218.8
18139.2
13319
16812.8
21643.7
26097.4
28422.7
29160.1
28913
28218.5
27460.8
26826.5
26413.6
22316.9
18397.9
28444.5
37036.6
42333
43432.9
42032.1
39490.5
36842.9
34518.6
32672.8
31329.4
25796.3
34170.3
55924.5
68011.9
71091.9
68828.9
63214.3
56931.4
51085.6
46138.9
42205.3
39216.1
97204
97969.7
107971
110250
106244
97106.9
86685.3
76552.2
67468.3
59790
53592.8
48739.7
53423.2
55564.9
56837
57032.5
57102.7
54465.8
50634.4
44545.5
37027.2
28217.4
17936.6
21729.1
37786.6
38656.4
39451.5
40202
41093.2
42453.4
44989.5
48592
53435.9
59078.2
61809.4
72986.2
30950.4
31655.2
32247.8
32869
33937.8
35843.4
39101
44302.4
52349.1
64153.5
81141.9
115804
27471.1
28056.7
28655.1
29387.6
30537.7
32494.7
35842.1
41397
50506.1
65657.6
92735.3
146688
25532.4
25946.6
26420
27077.9
28163.7
30061.4
33366.7
38999.3
48563.8
65504.4
99453.3
172804
24292.3
24625.4
25076.8
25765.3
26907.8
28843.8
32124.3
37681
47309.7
64967.5
103253
196437
23833.3
24125.1
24594.7
25347.4
26561
28529.4
31781.2
37258
46786.9
64527.2
105591
219685
24315.6
24579.9
25076.5
25897.1
27171.7
29153.6
32323.8
37608.4
46932.1
64685.2
107031
247215
26279.4
26440.5
26883
27690.2
28982.5
30944
33990.7
39012
48012.7
65692.2
109292
280316
30515.6
30252.6
30489.5
31124.3
32260.3
34089.3
36911.2
41511.8
49979.1
67186.7
111518
315678
37189
36083
35861.2
36297.7
37167.7
38666
41054.4
45003
52508
68601.3
113997
358229
45329.4
43310.3
42462.8
42610.5
43241.3
44286.1
45977.3
48870
54488.7
68731.8
114819
416107
2068.71
1841.02
2288.19
2283.04
2232.57
1967.76
1823.79
2606.43
13619.7
34145.9
44111
49206.3
5601.02
5062.38
4036.82
3412.98
4131.24
6560.81
16693.1
23511.2
25200.3
32834.6
35436.7
36685.9
7943.97
6208.95
6230.5
7499.2
14952.1
20408.4
20928.1
22322.1
24839.6
27840.4
28842.9
29993.3
11158.8
8621.04
10007.2
12501.4
16965.4
18609.6
18904.7
21085.7
23699.1
25162.1
25964
26800.1
13174.7
10544.9
12649.4
13827.3
15780.3
16559.6
18663.9
21146.2
23022.5
23983.4
24553.4
25094.8
14532.6
11456
12810.5
13435.7
15133.8
16878.3
19282.2
21557.9
22856.1
23393
23702.7
24005.7
14967.9
11450.5
12401.9
13562.5
15865.5
18242.6
20668.3
22332.3
23145.8
23455.5
23555.2
23659.3
16171.8
11770
13001.8
15380.6
18739.9
21374.7
23231.4
24164.2
24420
24373.4
24254.7
24218.7
18139.1
13318.9
16812.7
21643.6
26097.4
28422.6
29160
28912.9
28218.4
27460.7
26826.4
26413.5
22316.8
18397.9
28444.5
37036.6
42332.9
43432.9
42032
39490.4
36842.8
34518.5
32672.7
31329.3
25796.2
34170.3
55924.5
68011.9
71091.8
68828.8
63214.2
56931.4
51085.5
46138.8
42205.2
39216.1
97203.7
97969.5
107971
110250
106244
97106.9
86685.3
76552.2
67468.2
59789.9
53592.8
48739.6
53423.1
55564.7
56836.8
57032.4
57102.5
54465.7
50634.3
44545.4
37027.2
28217.4
17936.6
21729.1
37786.6
38656.3
39451.5
40201.9
41093.2
42453.3
44989.5
48592
53435.9
59078.1
61809.4
72986.2
30950.3
31655.2
32247.7
32868.9
33937.7
35843.3
39100.9
44302.4
52349
64153.5
81141.8
115804
27471
28056.7
28655.1
29387.5
30537.7
32494.7
35842
41397
50506.1
65657.5
92735.3
146688
25532.3
25946.5
26420
27077.9
28163.6
30061.3
33366.7
38999.3
48563.8
65504.3
99453.2
172804
24292.3
24625.4
25076.8
25765.2
26907.7
28843.7
32124.3
37681
47309.6
64967.4
103253
196436
23833.2
24125
24594.6
25347.3
26560.9
28529.3
31781.2
37257.9
46786.8
64527.2
105591
219685
24315.5
24579.8
25076.4
25897.1
27171.7
29153.5
32323.7
37608.3
46932
64685.2
107031
247215
26279.3
26440.4
26882.9
27690.1
28982.4
30943.9
33990.7
39011.9
48012.6
65692.1
109292
280316
30515.5
30252.6
30489.5
31124.2
32260.2
34089.2
36911.2
41511.8
49979.1
67186.6
111518
315678
37188.9
36082.9
35861.1
36297.7
37167.6
38665.9
41054.4
45003
52508
68601.3
113997
358229
45329.4
43310.3
42462.8
42610.5
43241.3
44286.1
45977.3
48870
54488.7
68731.8
114819
416107
155256
144554
133859
125129
116666
107376
97610.7
87756.3
78352.6
69934.5
62799.4
56949.7
96476.2
97640.5
97360.9
96804.5
95612.1
93436.4
90005.2
84600.8
78134.9
71950.4
66179.7
61086.9
65699.4
67752.5
69181.1
70523
71785.6
72737.1
72691.6
71764.3
70119
67585.4
64163.6
60945.1
51872.3
53425.8
54700.7
55900
57146.9
58433.6
59500.5
60252.1
60259.2
59767.6
58824.6
57577.5
52797.3
50375.4
49189.1
48997.7
49215.1
49597.5
50182.2
51506.1
54716.6
63306.9
87279.6
172921
57510.2
55576.1
54402.4
53634.2
52833.5
52133.6
51614
51746.7
52791
56277.9
65955.4
90648.4
58805.4
57619.9
56191.7
54600
52734.3
50912.6
49333.5
48390
48360.7
49435.2
53303.5
61769.2
56323.4
54628.3
52211.9
49636.1
47125.8
45182.6
43845
43258.9
43380.9
44079.3
46164.1
49644.5
155256
144554
133860
125129
116666
107376
97610.8
87756.4
78352.7
69934.6
62799.4
56949.7
96476.3
97640.9
97361.3
96804.9
95612.4
93436.7
90005.4
84600.9
78135
71950.4
66179.7
61086.9
65699.5
67752.9
69181.5
70523.3
71785.9
72737.3
72691.8
71764.5
70119.1
67585.5
64163.7
60945.2
51872.5
53426.1
54700.9
55900.2
57147.1
58433.8
59500.7
60252.2
60259.3
59767.7
58824.6
57577.6
52797.3
50375.5
49189.2
48997.7
49215.1
49597.6
50182.2
51506.2
54716.6
63307
87279.7
172921
57510.3
55576.1
54402.4
53634.2
52833.6
52133.7
51614
51746.8
52791.1
56278
65955.4
90648.5
58805.4
57619.9
56191.7
54600.1
52734.4
50912.6
49333.6
48390.1
48360.8
49435.3
53303.6
61769.3
56323.5
54628.4
52212
49636.1
47125.9
45182.6
43845
43258.9
43381
44079.4
46164.1
49644.5
155256
144555
133860
125129
116666
107376
97610.8
87756.4
78352.7
69934.6
62799.5
56949.8
96476.4
97641
97361.4
96804.9
95612.4
93436.7
90005.4
84600.9
78135
71950.4
66179.8
61087
65699.5
67752.9
69181.5
70523.4
71786
72737.3
72691.8
71764.5
70119.1
67585.5
64163.7
60945.2
51872.5
53426.2
54701
55900.3
57147.1
58433.9
59500.7
60252.2
60259.3
59767.7
58824.6
57577.6
52797.4
50375.5
49189.2
48997.8
49215.2
49597.6
50182.2
51506.2
54716.6
63307
87279.6
172921
57510.3
55576.2
54402.4
53634.2
52833.5
52133.7
51614
51746.7
52791.1
56277.9
65955.4
90648.5
58805.4
57619.9
56191.7
54600
52734.3
50912.6
49333.5
48390
48360.8
49435.2
53303.6
61769.3
56323.4
54628.3
52211.9
49636.1
47125.8
45182.6
43845
43258.9
43381
44079.3
46164.1
49644.5
155256
144554
133860
125129
116666
107376
97610.8
87756.4
78352.7
69934.6
62799.5
56949.7
96476.3
97640.9
97361.3
96804.8
95612.3
93436.6
90005.4
84600.9
78135
71950.4
66179.8
61087
65699.5
67752.9
69181.5
70523.3
71785.9
72737.3
72691.8
71764.5
70119.1
67585.5
64163.7
60945.2
51872.5
53426.1
54701
55900.3
57147.1
58433.8
59500.7
60252.2
60259.3
59767.7
58824.6
57577.6
52797.4
50375.5
49189.2
48997.7
49215.2
49597.6
50182.2
51506.2
54716.6
63306.9
87279.6
172921
57510.3
55576.2
54402.4
53634.2
52833.5
52133.7
51614
51746.7
52791.1
56277.9
65955.4
90648.5
58805.4
57619.9
56191.7
54600
52734.3
50912.6
49333.5
48390
48360.7
49435.2
53303.5
61769.2
56323.5
54628.4
52211.9
49636.1
47125.8
45182.6
43844.9
43258.9
43380.9
44079.3
46164
49644.4
47275.7
48395.4
49504.9
50586.4
51530.7
52267.3
52775.6
52830.7
52054.3
50746.8
48937.7
46927.7
44211.3
45290.4
46324.5
47156.9
47754.2
48102.9
47891.7
46820.7
44988
42697.9
40233.8
38189.7
41575.6
42529.7
43293.8
43864.2
44230.7
44212.2
43434.3
42076.1
40304.1
38557.5
37104.6
36089.3
38240.5
38847.9
39366.3
39695.4
39763.7
39377.4
38593.7
37743.8
37214.1
37725.3
39868.9
42513
45175.9
42398.2
40273
39510.4
39007.2
39179.7
39701.5
40566.1
41692.5
43048.1
44866.1
46314.7
36892.8
34196.6
33596.8
34305.4
35160.8
36412.6
37709.2
39092.5
40458.7
41754.6
42884.6
43604.6
35261.1
30229.3
29658.8
31191.5
32675.4
34355.9
35924.7
37408.4
38679.9
39658.1
40378.2
40951.9
46516.9
28119.1
26741.7
28481.1
30150.3
31891.2
33445.7
34817.3
35840.4
36594.7
37165.3
37672.2
47275.9
48395.6
49505.1
50586.6
51530.8
52267.4
52775.7
52830.7
52054.3
50746.8
48937.8
46927.7
44211.5
45290.5
46324.6
47157
47754.2
48102.9
47891.7
46820.7
44988
42697.9
40233.9
38189.7
41575.6
42529.7
43293.8
43864.2
44230.7
44212.2
43434.3
42076.1
40304.2
38557.5
37104.6
36089.3
38240.5
38848
39366.4
39695.4
39763.8
39377.5
38593.7
37743.8
37214.1
37725.4
39868.9
42513
45175.9
42398.2
40273
39510.4
39007.2
39179.7
39701.5
40566.1
41692.5
43048.2
44866.1
46314.8
36892.9
34196.7
33596.8
34305.4
35160.8
36412.6
37709.2
39092.6
40458.7
41754.6
42884.6
43604.6
35261.1
30229.4
29658.8
31191.5
32675.4
34355.9
35924.7
37408.4
38679.9
39658.1
40378.1
40951.9
46516.9
28119
26741.7
28481.1
30150.3
31891.2
33445.7
34817.3
35840.4
36594.7
37165.3
37672.2
47275.9
48395.6
49505.1
50586.6
51530.8
52267.4
52775.7
52830.7
52054.3
50746.8
48937.7
46927.7
44211.5
45290.5
46324.6
47157
47754.2
48102.9
47891.7
46820.6
44988
42697.9
40233.8
38189.7
41575.6
42529.7
43293.8
43864.2
44230.7
44212.2
43434.2
42076
40304.1
38557.5
37104.6
36089.3
38240.5
38847.9
39366.4
39695.4
39763.7
39377.4
38593.6
37743.7
37214
37725.3
39868.9
42513
45175.9
42398.2
40273
39510.4
39007.2
39179.7
39701.5
40566.1
41692.5
43048.1
44866.1
46314.7
36892.8
34196.6
33596.8
34305.4
35160.8
36412.6
37709.2
39092.5
40458.7
41754.6
42884.6
43604.6
35261.1
30229.3
29658.8
31191.5
32675.4
34355.9
35924.7
37408.4
38679.9
39658.1
40378.1
40951.9
46516.8
28119
26741.7
28481.1
30150.3
31891.2
33445.7
34817.3
35840.3
36594.7
37165.3
37672.2
47275.9
48395.6
49505.1
50586.6
51530.8
52267.4
52775.7
52830.7
52054.3
50746.8
48937.7
46927.7
44211.5
45290.5
46324.6
47156.9
47754.2
48102.9
47891.7
46820.6
44988
42697.9
40233.8
38189.6
41575.6
42529.7
43293.8
43864.2
44230.7
44212.2
43434.2
42076
40304.1
38557.5
37104.5
36089.3
38240.5
38847.9
39366.3
39695.4
39763.7
39377.4
38593.6
37743.7
37214
37725.3
39868.9
42512.9
45175.9
42398.2
40272.9
39510.4
39007.2
39179.7
39701.4
40566.1
41692.5
43048.1
44866
46314.5
36892.8
34196.6
33596.8
34305.4
35160.7
36412.5
37709.1
39092.5
40458.7
41754.5
42884.6
43604.5
35261
30229.3
29658.8
31191.5
32675.4
34355.9
35924.7
37408.4
38679.9
39658.1
40378.2
40951.9
46516.8
28119
26741.7
28481.1
30150.3
31891.1
33445.7
34817.3
35840.4
36594.8
37165.4
37672.3
33545.9
33800
33873
33643.5
33005.5
31956.2
30578
29057
27524
25806.1
24963.5
27112.2
27483.8
27139.7
26400.9
25237.2
23489.2
21104.4
17958.1
13900.2
9015.92
4990.37
2797.16
1805.02
20264.8
19163
17540.1
15392.5
12581.1
9126.75
5218.3
2094.21
646.915
218.683
150.217
123.134
12662
10939.6
8745.48
6151.84
3346.3
1193.97
246.977
30.6088
19.9436
10.8448
13.1193
12.2659
5797.48
3944
2076
714.844
129.527
9.56374
8.53545
4.77196
5.50275
5.38968
5.42862
5.32747
1151.97
375.591
75.9301
3.0199
6.55672
4.76567
4.92367
4.9457
4.97259
5.01273
5.04828
5.08031
44.8995
1.20776
5.44022
4.59537
4.63772
4.67599
4.72141
4.77412
4.81915
4.85527
4.88526
4.91761
4.73048
4.31181
4.39848
4.4214
4.45469
4.49776
4.54895
4.60349
4.65197
4.69452
4.73054
4.76814
4.12287
4.15326
4.18264
4.21342
4.24587
4.28177
4.32035
4.3626
4.4079
4.45416
4.49922
4.53857
3.69345
3.71855
3.74244
3.76887
3.79589
3.82785
3.86284
3.90417
3.94748
3.99371
4.03759
4.07422
3.07184
3.07491
3.07154
3.07378
3.07473
3.08004
3.08626
3.09508
3.10456
3.11365
3.11973
3.12279
3.36507
3.22688
3.24261
3.13707
3.14879
3.0695
3.08026
3.02932
3.04101
3.02504
3.03775
3.04823
96905
26168.9
23839.2
25544.6
27132.7
28719.2
30054.3
31116.8
31912.7
32510.5
32942.7
33261.3
75219.7
21791.2
20561.2
22235.2
23582.1
24792.2
25766.6
26527.3
27122
27491
27648.3
27654.5
60836.8
17887.4
17200.9
18539.4
19506.8
20314.6
20970.5
21463.5
21741.1
21779.9
21524.2
21033.3
48839.5
14209.4
13776.6
14634.5
15240
15728.6
16061.1
16193.6
16094.5
15669.6
14982
13994
38162
10738.1
10384.3
10855.4
11155.8
11295.7
11295.4
11010
10517.5
9733.19
8715.53
7399.06
28214.2
7577.94
7184.75
7409.59
7421.3
7219.69
6877.22
6304.97
5576.18
4610.02
3508.02
2273.71
19794.6
4775.31
4472.31
4403.4
4163.14
3722.67
3219.56
2539.92
1862.87
1116.04
549.649
155.632
12486.6
2450.27
2293.27
1892.19
1682.1
1175.81
850.843
417.378
217.029
35.6089
29.1233
1.43202
6051.74
763.036
770.719
388.217
352.503
99.6973
81.9316
6.14001
10.4792
3.32224
4.27525
4.05713
2230.05
94.0385
105.429
20.1391
24.1328
2.71657
5.05652
3.55909
3.66471
3.6276
3.64597
3.67138
553.273
5.64736
8.17541
3.22911
3.60652
3.26797
3.14105
3.14931
3.10838
3.09117
3.07907
3.08039
946.648
6.06224
5.54935
4.72011
4.59263
4.11329
4.11564
3.70847
3.76576
3.49244
3.53021
3.34093
33546
33800
33873.1
33643.6
33005.6
31956.3
30578.1
29057
27524
25806.1
24963.6
27112.2
27483.9
27139.8
26401
25237.3
23489.2
21104.4
17958.2
13900.2
9015.96
4990.39
2797.17
1805.03
20264.9
19163
17540.1
15392.6
12581.1
9126.81
5218.34
2094.23
646.92
218.685
150.218
123.136
12662
10939.7
8745.54
6151.89
3346.33
1193.99
246.981
30.6097
19.9442
10.8454
13.1199
12.2664
5797.5
3944.03
2076.03
714.853
129.531
9.56403
8.53561
4.77208
5.5029
5.38986
5.42881
5.3277
1151.97
375.592
75.9359
3.01903
6.55676
4.76564
4.92365
4.94568
4.97256
5.0127
5.04826
5.0803
44.8981
1.20752
5.44022
4.5953
4.63766
4.67593
4.72135
4.77406
4.81909
4.85521
4.88519
4.91755
4.73046
4.31176
4.39844
4.42136
4.45465
4.49772
4.54891
4.60344
4.65193
4.69448
4.7305
4.7681
4.12285
4.15324
4.18262
4.2134
4.24585
4.28175
4.32032
4.36257
4.40788
4.45413
4.4992
4.53855
3.69345
3.71855
3.74244
3.76886
3.79588
3.82784
3.86283
3.90416
3.94747
3.9937
4.03758
4.07421
3.07186
3.07491
3.07154
3.07378
3.07473
3.08004
3.08626
3.09508
3.10456
3.11365
3.11973
3.12279
3.36507
3.22688
3.24261
3.13707
3.14879
3.0695
3.08026
3.02932
3.04101
3.02504
3.03775
3.04823
96904.9
26168.8
23839.1
25544.6
27132.7
28719.2
30054.3
31116.8
31912.6
32510.4
32942.7
33261.2
75219.6
21791.1
20561.2
22235.1
23582
24792.2
25766.6
26527.2
27122
27491
27648.2
27654.4
60836.7
17887.4
17200.9
18539.3
19506.7
20314.6
20970.5
21463.4
21741
21779.9
21524.1
21033.3
48839.3
14209.3
13776.5
14634.5
15240
15728.6
16061.1
16193.6
16094.5
15669.5
14981.9
13994
38161.8
10738.1
10384.3
10855.3
11155.7
11295.7
11295.3
11010
10517.4
9733.14
8715.48
7399.01
28214.1
7577.9
7184.71
7409.55
7421.25
7219.64
6877.17
6304.92
5576.13
4609.98
3507.98
2273.68
19794.5
4775.27
4472.27
4403.36
4163.1
3722.63
3219.52
2539.89
1862.84
1116.02
549.636
155.627
12486.5
2450.24
2293.24
1892.16
1682.08
1175.79
850.823
417.365
217.023
35.6073
29.1227
1.43207
6051.65
763.018
770.701
388.204
352.492
99.6926
81.9284
6.13962
10.4789
3.3223
4.27526
4.05715
2230.01
94.0346
105.425
20.1379
24.1316
2.71657
5.05644
3.55912
3.66473
3.62762
3.64598
3.67139
553.26
5.64728
8.17519
3.22914
3.60651
3.26798
3.14107
3.14932
3.1084
3.09119
3.07908
3.0804
946.622
6.06226
5.54932
4.72011
4.59263
4.11329
4.11564
3.70848
3.76576
3.49245
3.53022
3.34094
33545.9
33800
33873
33643.5
33005.5
31956.2
30578
29057
27524
25806.1
24963.5
27112.2
27483.8
27139.7
26400.9
25237.2
23489.2
21104.4
17958.1
13900.2
9015.93
4990.37
2797.16
1805.03
20264.8
19163
17540
15392.5
12581
9126.75
5218.3
2094.21
646.916
218.685
150.217
123.136
12662
10939.6
8745.48
6151.83
3346.29
1193.97
246.978
30.6098
19.9438
10.8455
13.1198
12.2664
5797.45
3943.98
2076
714.839
129.528
9.56399
8.53566
4.77211
5.50293
5.38989
5.42884
5.32773
1151.95
375.583
75.9338
3.01896
6.55673
4.76567
4.92368
4.94572
4.9726
5.01273
5.04829
5.08033
44.897
1.2075
5.44021
4.59533
4.63769
4.67596
4.72138
4.77409
4.81912
4.85524
4.88523
4.91758
4.73046
4.31178
4.39846
4.42138
4.45468
4.49774
4.54893
4.60347
4.65196
4.6945
4.73053
4.76812
4.12287
4.15326
4.18264
4.21343
4.24588
4.28177
4.32035
4.3626
4.4079
4.45416
4.49922
4.53857
3.69347
3.71857
3.74246
3.76888
3.7959
3.82786
3.86286
3.90419
3.94749
3.99372
4.03761
4.07423
3.07188
3.07493
3.07156
3.0738
3.07475
3.08006
3.08628
3.0951
3.10458
3.11367
3.11975
3.12281
3.36508
3.22689
3.24262
3.13709
3.14881
3.06951
3.08027
3.02933
3.04103
3.02506
3.03777
3.04825
96904.9
26168.8
23839.1
25544.6
27132.7
28719.2
30054.3
31116.8
31912.6
32510.4
32942.6
33261.2
75219.6
21791.1
20561.2
22235.2
23582
24792.2
25766.6
26527.2
27122
27491
27648.2
27654.4
60836.7
17887.4
17200.9
18539.4
19506.7
20314.6
20970.5
21463.4
21741
21779.9
21524.1
21033.3
48839.4
14209.3
13776.5
14634.5
15240
15728.6
16061.1
16193.6
16094.5
15669.5
14981.9
13994
38161.9
10738.1
10384.3
10855.3
11155.7
11295.7
11295.3
11010
10517.4
9733.13
8715.47
7399
28214.1
7577.91
7184.71
7409.55
7421.25
7219.64
6877.17
6304.92
5576.13
4609.98
3507.97
2273.68
19794.5
4775.28
4472.28
4403.37
4163.11
3722.63
3219.52
2539.89
1862.84
1116.02
549.637
155.627
12486.5
2450.24
2293.24
1892.16
1682.08
1175.79
850.824
417.366
217.024
35.6074
29.1228
1.4321
6051.67
763.019
770.702
388.205
352.492
99.6928
81.9286
6.13969
10.4789
3.32231
4.27528
4.05716
2230.02
94.0346
105.425
20.1379
24.1316
2.71658
5.05645
3.55912
3.66473
3.62762
3.64599
3.6714
553.264
5.6473
8.17519
3.22914
3.60651
3.26798
3.14107
3.14932
3.1084
3.09119
3.07908
3.0804
946.639
6.06232
5.54933
4.72013
4.59265
4.1133
4.11566
3.70849
3.76577
3.49245
3.53022
3.34094
33545.9
33800
33873
33643.5
33005.5
31956.2
30578
29056.9
27523.9
25806
24963.5
27112.2
27483.8
27139.7
26400.9
25237.2
23489.1
21104.4
17958.1
13900.1
9015.92
4990.37
2797.16
1805.03
20264.8
19163
17540
15392.5
12581
9126.73
5218.29
2094.21
646.917
218.685
150.218
123.137
12661.9
10939.6
8745.47
6151.82
3346.29
1193.97
246.978
30.6104
19.9442
10.8459
13.1202
12.2668
5797.45
3943.98
2076
714.838
129.528
9.5642
8.53579
4.77224
5.50308
5.39005
5.429
5.32791
1151.95
375.582
75.9342
3.01894
6.55679
4.76572
4.92373
4.94577
4.97265
5.01278
5.04835
5.08039
44.8974
1.20749
5.44025
4.59536
4.63772
4.67598
4.7214
4.77412
4.81915
4.85527
4.88525
4.91761
4.73049
4.3118
4.39849
4.4214
4.4547
4.49776
4.54896
4.60349
4.65198
4.69453
4.73055
4.76815
4.12288
4.15327
4.18265
4.21344
4.24589
4.28178
4.32036
4.36261
4.40792
4.45417
4.49924
4.53858
3.69347
3.71857
3.74246
3.76888
3.7959
3.82786
3.86286
3.90419
3.9475
3.99372
4.03761
4.07424
3.07187
3.07493
3.07156
3.0738
3.07474
3.08005
3.08627
3.09509
3.10457
3.11367
3.11974
3.12281
3.36508
3.22689
3.24262
3.13708
3.1488
3.06951
3.08027
3.02933
3.04102
3.02505
3.03776
3.04824
96904.8
26168.8
23839.1
25544.6
27132.7
28719.2
30054.3
31116.8
31912.7
32510.5
32942.7
33261.4
75219.5
21791.1
20561.2
22235.1
23582
24792.2
25766.6
26527.2
27122
27491
27648.2
27654.5
60836.7
17887.4
17200.9
18539.3
19506.7
20314.6
20970.5
21463.4
21741
21779.9
21524.1
21033.3
48839.3
14209.3
13776.5
14634.5
15240
15728.6
16061.1
16193.6
16094.5
15669.5
14981.9
13994
38161.8
10738.1
10384.3
10855.3
11155.7
11295.7
11295.3
11010
10517.4
9733.14
8715.48
7398.99
28214.1
7577.91
7184.71
7409.56
7421.26
7219.65
6877.18
6304.94
5576.14
4609.99
3507.98
2273.67
19794.5
4775.28
4472.28
4403.37
4163.11
3722.64
3219.53
2539.9
1862.85
1116.02
549.64
155.626
12486.5
2450.25
2293.25
1892.17
1682.09
1175.8
850.834
417.375
217.029
35.6102
29.1244
1.43296
6051.69
763.028
770.71
388.213
352.501
99.6983
81.9329
6.14206
10.4811
3.3241
4.27711
4.05902
2230.04
94.0399
105.43
20.1409
24.1344
2.71822
5.05814
3.56064
3.66632
3.62925
3.64768
3.67315
553.272
5.64869
8.17699
3.23037
3.6078
3.26915
3.14223
3.15038
3.10924
3.09201
3.07979
3.08117
946.646
6.06303
5.55061
4.72097
4.59355
4.11405
4.11648
3.70922
3.76653
3.49317
3.53093
3.34161
)
;

boundaryField
{
    rotor
    {
        type            epsilonWallFunction;
        blending        stepwise;
        value           nonuniform List<scalar> 
192
(
2068.7
1841.01
2288.19
2283.04
2232.56
1967.75
1823.79
2606.43
13619.6
34145.9
44111
49206.3
53423.1
55564.7
56836.9
57032.4
57102.6
54465.7
50634.3
44545.5
37027.2
28217.4
17936.7
21729.2
2068.72
1841.03
2288.2
2283.05
2232.58
1967.76
1823.8
2606.46
13619.9
34146.1
44111.2
49206.5
53423.3
55564.9
56837.1
57032.6
57102.7
54465.8
50634.5
44545.6
37027.3
28217.5
17936.7
21729.2
2068.73
1841.04
2288.22
2283.07
2232.59
1967.78
1823.81
2606.47
13619.8
34146
44111.2
49206.4
53423.2
55564.9
56837
57032.5
57102.7
54465.8
50634.4
44545.5
37027.2
28217.4
17936.6
21729.1
2068.71
1841.02
2288.19
2283.04
2232.57
1967.76
1823.79
2606.43
13619.7
34145.9
44111
49206.3
53423.1
55564.7
56836.8
57032.4
57102.5
54465.7
50634.3
44545.4
37027.2
28217.4
17936.6
21729.1
2068.7
5600.99
7943.93
11158.8
13174.7
14532.6
14967.8
16171.7
18139.1
22316.8
25796.3
97203.7
21729.1
72986.2
115804
146688
172804
196436
219685
247215
280316
315678
358229
416107
2068.72
5601.05
7944.01
11158.9
13174.8
14532.7
14967.9
16171.8
18139.1
22316.8
25796.3
97203.7
21729.2
72986.3
115804
146688
172804
196437
219685
247215
280316
315678
358229
416107
2068.73
5601.08
7944.06
11159
13174.9
14532.8
14968
16171.9
18139.2
22316.9
25796.3
97204
21729.2
72986.4
115804
146688
172804
196437
219686
247215
280317
315678
358229
416108
2068.71
5601.02
7943.97
11158.8
13174.7
14532.6
14967.9
16171.8
18139.1
22316.8
25796.2
97203.7
21729.1
72986.2
115804
146688
172804
196437
219685
247215
280316
315678
358229
416107
)
;
    }
    stator
    {
        type            epsilonWallFunction;
        blending        stepwise;
        value           nonuniform List<scalar> 
192
(
3.36507
3.22688
3.24261
3.13707
3.14879
3.0695
3.08026
3.02932
3.04101
3.02504
3.03775
3.04823
946.648
6.06224
5.54935
4.72011
4.59263
4.11329
4.11564
3.70847
3.76576
3.49244
3.53021
3.34093
3.36507
3.22688
3.24261
3.13707
3.14879
3.0695
3.08026
3.02932
3.04101
3.02504
3.03775
3.04823
946.622
6.06226
5.54932
4.72011
4.59263
4.11329
4.11564
3.70848
3.76576
3.49245
3.53022
3.34094
3.36508
3.22689
3.24262
3.13709
3.14881
3.06951
3.08027
3.02933
3.04103
3.02506
3.03777
3.04825
946.639
6.06232
5.54933
4.72013
4.59265
4.1133
4.11566
3.70849
3.76577
3.49245
3.53022
3.34094
3.36508
3.22689
3.24262
3.13708
3.1488
3.06951
3.08027
3.02933
3.04102
3.02505
3.03776
3.04824
946.646
6.06303
5.55061
4.72097
4.59355
4.11405
4.11648
3.70922
3.76653
3.49317
3.53093
3.34161
96905
75219.7
60836.8
48839.5
38162
28214.2
19794.6
12486.6
6051.74
2230.05
553.273
946.648
27112.2
1805.02
123.134
12.2659
5.32747
5.08031
4.91761
4.76814
4.53857
4.07422
3.12279
3.04823
96904.9
75219.6
60836.7
48839.3
38161.8
28214.1
19794.5
12486.5
6051.65
2230.01
553.26
946.622
27112.2
1805.03
123.136
12.2664
5.3277
5.0803
4.91755
4.7681
4.53855
4.07421
3.12279
3.04823
96904.9
75219.6
60836.7
48839.4
38161.9
28214.1
19794.5
12486.5
6051.67
2230.02
553.264
946.639
27112.2
1805.03
123.136
12.2664
5.32773
5.08033
4.91758
4.76812
4.53857
4.07423
3.12281
3.04825
96904.8
75219.5
60836.7
48839.3
38161.8
28214.1
19794.5
12486.5
6051.69
2230.04
553.272
946.646
27112.2
1805.03
123.137
12.2668
5.32791
5.08039
4.91761
4.76815
4.53858
4.07424
3.12281
3.04824
)
;
    }
    front
    {
        type            empty;
    }
    back
    {
        type            empty;
    }
}


// ************************************************************************* //
