/*--------------------------------*- C++ -*----------------------------------*\
| =========                 |                                                 |
| \\      /  F ield         | OpenFOAM: The Open Source CFD Toolbox           |
|  \\    /   O peration     | Version:  2212                                  |
|   \\  /    A nd           | Website:  www.openfoam.com                      |
|    \\/     M anipulation  |                                                 |
\*---------------------------------------------------------------------------*/
FoamFile
{
    version     2.0;
    format      ascii;
    arch        "LSB;label=32;scalar=64";
    class       volScalarField;
    location    "0.1";
    object      epsilon;
}
// * * * * * * * * * * * * * * * * * * * * * * * * * * * * * * * * * * * * * //

dimensions      [0 2 -3 0 0 0 0];

internalField   nonuniform List<scalar> 
3072
(
3824.03
3200.44
3556.61
3507.7
3127.07
2784.28
3663.94
16206.1
48574.5
66686.2
75778.1
83590.2
10542.1
8754.3
6799.04
6596.3
9394.96
22872.3
33656.4
36273.9
49080.2
54577
57126.9
58990.8
15831
12056.5
14243.4
20390.2
26537.3
28523.2
32706.9
37577.7
43361.2
45401.1
47680.1
49290.1
21821.1
17636.4
19967.2
21733
25011
27695
32574.8
36997.5
40075.9
41818.9
43544.7
44841.3
24065.5
20386.8
21814.3
21906.5
24749.8
28231.9
32917.5
36548.3
38816.8
40303.7
41652.1
42711.9
24641.7
20643.4
21788.7
22187.1
25351.5
29439.6
33625.8
36579
38342.2
39592.8
40725.7
41720.9
23255.8
18968.1
20763.6
22635.8
26630.7
30898.3
34646
37170.2
38781.9
39976.4
41055.3
42064.4
22366.3
17310.2
20581.2
24337.6
29564.1
34027.3
37411.1
39631.1
41108.2
42238.2
43268.4
44287.3
22505.5
17732.7
23480.9
30388.2
37316
42074.4
45072.7
46803.3
47842.4
48580.7
49231.9
49915.2
24735.1
22474.5
36412.6
48308.5
56883.2
61291.1
62924.9
62990.7
62397.7
61623.9
60899.6
60365.4
29809.9
43378.9
73157.6
90547.4
97646
97779.8
94607.8
90254.8
85818.3
81784.8
78336.2
75506.3
133320
136386
151784
155892
151939
142159
131548
121450
112389
104533
97887.7
92343.3
87785.4
90434.8
90665.9
90553.2
88268
83452.4
76274.8
66673.5
54744.5
41740.3
27012.4
34588.3
60178
61068.7
61407.1
61538.6
61778.7
62951.9
65738.3
70491.8
76834
84490.2
89426.5
108538
50286.1
50866.2
51135.7
51423.2
52172
54102.8
57923.1
64526.9
75195
91308.7
115040
165177
45737
46369.1
46826
47321.2
48276.9
50315.7
54263.1
61259.8
73172.1
93473.6
130799
209146
43521.6
44168.9
44709
45351.1
46464.9
48598.2
52571.3
59608.7
71886.2
94099.4
139927
244560
42588.4
43355.2
44069.6
44906.3
46170.8
48370.8
52316.9
59310.8
71715.8
94678.1
145854
277798
43023.5
43951.7
44889.3
45952.2
47377.1
49616.8
53448.8
60207.3
72411.4
95529.7
149463
309329
45322.4
46381.5
47481
48680.3
50172.2
52350.9
55950.1
62325.1
74151.9
97245.5
152989
347964
50670.6
51505.7
52420.3
53462.3
54772.7
56670.7
59821.8
65572.1
76739.6
99514.9
156808
391829
60061.4
60014.5
60181.1
60582.6
61302.5
62580.1
64989.5
69785.7
79848.4
101641
160161
438203
73253.6
71538.3
70298
69497.9
69257.2
69702.6
71053.2
74495.5
82797.1
103131
163366
493282
87763.1
84059.1
81117.6
78849.8
77224.9
76401.6
76724.6
78494.2
84327.2
102355
164494
567176
3171.48
2687.07
3059.76
3012.71
2771.07
2364.54
2757.76
8672.4
36603.3
55067
63813.6
70763.2
8732.28
7413.46
5749.18
5269.92
7034.26
16256.8
28526.8
30652.4
41009.8
46766.6
49117.9
51101.5
12983.8
9805.7
10872.2
15687.8
23086.9
25237.7
27786
31601.8
36974.7
39104.2
41170
42853.4
17911
14338.2
16482.1
18630.8
21920
23557.7
27244.2
31361.6
34513.2
36170.8
37758.8
39028.9
19982.2
16768.6
18353.5
18618.8
20932.7
23826.8
27782.2
31410.3
33680.5
35056.9
36264.6
37242.1
20699.6
17333.5
18377.9
18742.1
21440.5
24962.5
28906
31779.5
33576.7
34661.3
35594.7
36418.4
20024
16076.8
17578.3
19199.4
22834.4
26773.8
30268.6
32708.5
34172.8
35160
36003.5
36788.6
19786
15116.8
17741.7
21142.9
26063.2
30233.9
33371.5
35402.8
36618.1
37455.9
38184.4
38912.1
20333.7
15853.6
20965.2
27480.4
34080.8
38510.6
41175.6
42577.5
43256.3
43582.4
43881.6
44240.1
23032
20751.8
33756.8
45170.5
53418.9
57469.9
58648.2
58266
57222.7
56005
54896
54034.1
27817.5
40455.6
68999.5
85849.7
92550.4
92294
88644.7
83871.1
79074.6
74744.5
71067.7
68076.9
122498
128731
144379
148132
143747
133400
122368
112024
102889
95097.8
88606.9
83295.1
74883.6
77386.7
77960.4
77928.4
76769.9
72737
67110.8
58929.4
48928.2
37454.6
24367
30882.7
52363.5
53302.6
53853.2
54224.2
54839.4
56104.4
58885.1
63341.6
69361.3
76614.7
81009.6
97926.1
43917.8
44590.3
45008.3
45416.9
46272.3
48209.1
51901.6
58179.5
68173.5
83137.5
104516
149920
39910
40583.9
41094.3
41656
42650.4
44663.8
48491
55176.8
66423.9
85346.9
119611
189705
37970.4
38575.6
39099.3
39732.5
40822.9
42887.2
46704.6
53419.6
65064.8
85983.7
128524
222177
37134.3
37789.2
38422.6
39193.7
40396.8
42506.9
46289
52965.1
64747.4
86427.9
134218
252504
37540.8
38291.9
39080
40018.3
41331.3
43441
47077.3
53493.3
65062.9
86900.1
137605
281427
39676
40491.6
41384.9
42419.7
43769.3
45799
49193.3
55220.4
66397.2
88145.1
140513
316442
44694.3
45242.1
45922.1
46785.7
47957.3
49720.2
52689.6
58122.3
68662.5
90087
143907
357805
53456.7
53156.4
53168
53452.7
54098.8
55293.3
57585.1
62150.4
71695.8
92402.3
147194
402431
65727.2
63944.5
62679.7
61891
61709.8
62220.7
63591.2
66981.5
75079.7
94439.8
151009
457801
78996.9
75563.7
72877
70860.6
69492.4
69026.8
69647.8
71748.4
77686.1
95249
154410
537627
3823.9
3200.34
3556.52
3507.6
3126.99
2784.2
3663.79
16205.2
48573.6
66685.6
75777.3
83589.5
10541.9
8754.11
6798.88
6596.12
9394.69
22871.7
33656.1
36273.5
49079.7
54576.6
57126.4
58990.3
15830.7
12056.3
14243
20389.8
26537.2
28523
32706.5
37577.3
43360.8
45400.7
47679.6
49289.7
21820.5
17636.1
19967
21733
25010.8
27694.6
32574.3
36997.1
40075.5
41818.4
43544.2
44840.9
24064.8
20386.4
21814.1
21906.4
24749.4
28231.5
32917
36547.8
38816.4
40303.2
41651.7
42711.4
24640.9
20643
21788.4
22186.8
25351.1
29439.1
33625.3
36578.5
38341.7
39592.3
40725.2
41720.5
23255.1
18967.7
20763.3
22635.4
26630.2
30897.8
34645.6
37169.8
38781.4
39975.9
41054.8
42063.9
22365.7
17309.9
20580.8
24337.1
29563.6
34026.8
37410.7
39630.6
41107.7
42237.7
43268
44286.9
22505
17732.4
23480.6
30387.9
37315.7
42074.1
45072.3
46802.9
47842
48580.2
49231.4
49914.8
24734.8
22474.4
36412.6
48308.4
56883.1
61291
62924.7
62990.5
62397.4
61623.5
60899.3
60365
29809.8
43379
73157.8
90547.8
97646.3
97780
94607.9
90254.8
85818.2
81784.6
78336
75506.1
133320
136386
151785
155892
151939
142160
131548
121451
112389
104533
97887.6
92343.2
87784.7
90434
90665.2
90552.6
88267.4
83451.9
76274.4
66673.2
54744.2
41740.2
27012.3
34588.2
60177.5
61068.2
61406.7
61538.2
61778.4
62951.6
65738.1
70491.5
76833.7
84489.9
89426.2
108538
50285.6
50865.8
51135.3
51422.8
52171.7
54102.5
57922.8
64526.6
75194.7
91308.3
115040
165176
45736.6
46368.6
46825.6
47320.8
48276.6
50315.4
54262.8
61259.5
73171.8
93473.2
130798
209145
43521.1
44168.5
44708.6
45350.7
46464.5
48597.8
52571
59608.4
71885.8
94099
139926
244559
42588
43354.7
44069.2
44905.8
46170.4
48370.4
52316.5
59310.4
71715.5
94677.6
145854
277797
43023
43951.2
44888.8
45951.8
47376.7
49616.4
53448.4
60207
72411
95529.3
149462
309328
45322
46381
47480.6
48679.9
50171.8
52350.6
55949.8
62324.8
74151.5
97245.1
152989
347963
50670.2
51505.3
52419.9
53461.9
54772.3
56670.4
59821.4
65571.8
76739.3
99514.5
156808
391828
60061.1
60014.1
60180.8
60582.3
61302.2
62579.8
64989.2
69785.4
79848.1
101641
160160
438202
73253.4
71538.1
70297.8
69497.7
69257
69702.4
71053
74495.3
82796.9
103130
163365
493281
87763
84059
81117.5
78849.7
77224.8
76401.5
76724.5
78494
84327
102354
164494
567174
3171.48
2687.07
3059.76
3012.72
2771.07
2364.54
2757.77
8672.4
36603.3
55067.1
63813.7
70763.3
8732.28
7413.46
5749.19
5269.92
7034.26
16256.7
28526.8
30652.4
41009.9
46766.7
49118
51101.6
12983.8
9805.7
10872.1
15687.7
23086.9
25237.8
27786.1
31601.9
36974.8
39104.2
41170.1
42853.5
17911
14338.2
16482.1
18630.8
21920
23557.8
27244.2
31361.6
34513.3
36170.9
37758.9
39029
19982.2
16768.6
18353.5
18618.8
20932.7
23826.9
27782.3
31410.4
33680.6
35057
36264.7
37242.2
20699.6
17333.5
18377.9
18742.1
21440.6
24962.5
28906.1
31779.6
33576.8
34661.3
35594.8
36418.5
20024.1
16076.8
17578.3
19199.4
22834.4
26773.9
30268.6
32708.5
34172.8
35160
36003.6
36788.7
19786
15116.8
17741.7
21142.9
26063.2
30234
33371.5
35402.8
36618.2
37455.9
38184.5
38912.2
20333.8
15853.6
20965.2
27480.5
34080.8
38510.7
41175.7
42577.5
43256.3
43582.4
43881.6
44240.1
23032
20751.9
33756.8
45170.6
53419
57469.9
58648.2
58266
57222.7
56005
54896
54034.1
27817.6
40455.6
68999.5
85849.7
92550.4
92294
88644.7
83871.1
79074.6
74744.5
71067.7
68076.9
122498
128731
144379
148131
143747
133400
122368
112024
102889
95097.7
88606.9
83295.1
74883.8
77386.9
77960.6
77928.6
76770.1
72737.1
67111
58929.6
48928.3
37454.6
24367.1
30882.7
52363.7
53302.7
53853.3
54224.3
54839.5
56104.6
58885.2
63341.7
69361.5
76614.8
81009.8
97926.3
43917.9
44590.4
45008.4
45417
46272.4
48209.2
51901.7
58179.6
68173.7
83137.7
104516
149920
39910
40584
41094.4
41656.1
42650.5
44663.9
48491.1
55177
66424
85347.1
119611
189705
37970.5
38575.7
39099.4
39732.6
40823
42887.2
46704.7
53419.7
65065
85983.9
128524
222177
37134.3
37789.3
38422.7
39193.8
40396.9
42507
46289.1
52965.2
64747.5
86428.1
134218
252504
37540.9
38292
39080
40018.3
41331.4
43441.1
47077.3
53493.4
65063
86900.3
137605
281427
39676.1
40491.7
41385
42419.8
43769.3
45799
49193.4
55220.5
66397.3
88145.3
140514
316442
44694.3
45242.2
45922.2
46785.7
47957.3
49720.2
52689.6
58122.4
68662.6
90087.1
143908
357805
53456.7
53156.4
53168
53452.8
54098.8
55293.3
57585.1
62150.5
71695.9
92402.4
147194
402432
65727.2
63944.5
62679.7
61891.1
61709.8
62220.7
63591.2
66981.5
75079.7
94439.9
151009
457801
78996.9
75563.7
72877
70860.6
69492.4
69026.8
69647.9
71748.5
77686.1
95249.2
154411
537629
215794
207843
195442
184108
172971
161387
150055
139242
129099
119927
111854
104828
139849
144567
146441
146656
145523
142970
139264
133850
127086
120299
113803
107548
99937.3
103997
107358
110222
112506
114057
114082
112954
110814
107980
104357
99799.4
79061.6
81906.7
84321.5
86453.4
88341.6
89925.4
90923.6
90815.1
89960.4
88390.5
86200.8
83596.1
98777.7
93645
89339.4
85776.4
82860.2
80644.3
79458.8
79943
82813.5
93241.2
125326
243977
101718
96442.7
91754
87615.1
83961.2
80886.3
78434.4
77284.4
77778.2
81590.1
94034
127943
95282.1
90854.1
86564.9
82379.7
78383.8
74746.7
71661.1
69403.3
68620.6
69355.7
73855.4
85445.4
80480.5
76916.4
73043.3
68916.6
65061.5
61701.8
59099.8
57313.9
56837
57184.5
59777.9
64761.1
219416
203415
186833
172996
160382
148047
136391
125617
115875
107336
100011
93829.6
135918
136198
134511
132200
129332
126049
121922
116643
110747
105071
99812.8
95066.4
90496.8
92778.7
93998
94874.3
95581.8
96063.3
95904.9
95157.3
93759.9
92017.5
89968
87603.2
67779.6
69674.7
71040.1
72162.8
73231
74332.7
75262.9
75968.7
76069.2
75735.6
75003.8
73822.7
88643.9
84304.4
80683.4
77744.7
75454.5
73905
73570
74552.5
78116.1
89242.9
121577
233479
90722.5
86757.2
83176.9
80043.7
77387.4
75351.4
74139
74335.9
76001.2
81325
95770.2
130822
84834.9
81941.8
79034.8
76236.6
73649.2
71483.8
69862.3
69378.6
70179.6
72697
79935.2
93976.3
72105.3
70046.3
67672.6
65159
62736.2
60666
59248
58850.9
60136.4
62269.6
67426.2
74933
215794
207843
195442
184108
172971
161387
150055
139242
129100
119927
111854
104828
139849
144567
146441
146655
145523
142970
139264
133850
127086
120299
113803
107548
99937.1
103997
107358
110222
112506
114057
114082
112954
110814
107980
104357
99799.5
79061.5
81906.7
84321.4
86453.3
88341.5
89925.3
90923.6
90815
89960.4
88390.5
86200.9
83596.1
98777.7
93645
89339.4
85776.4
82860.2
80644.3
79458.8
79942.9
82813.4
93241
125326
243977
101718
96442.8
91754
87615.1
83961.3
80886.3
78434.4
77284.4
77778.2
81590.1
94033.8
127943
95282.2
90854.1
86564.9
82379.8
78383.9
74746.7
71661.1
69403.3
68620.5
69355.6
73855.3
85445.2
80480.5
76916.5
73043.4
68916.7
65061.5
61701.8
59099.8
57313.9
56837
57184.5
59777.9
64761
219416
203415
186833
172996
160382
148047
136391
125617
115875
107336
100011
93829.6
135918
136197
134511
132200
129332
126049
121922
116643
110746
105071
99812.8
95066.3
90496.6
92778.5
93997.8
94874.2
95581.7
96063.2
95904.8
95157.2
93759.8
92017.4
89967.9
87603.2
67779.5
69674.5
71040
72162.7
73230.9
74332.6
75262.8
75968.6
76069.1
75735.5
75003.8
73822.7
88643.9
84304.4
80683.4
77744.7
75454.6
73905
73570.1
74552.5
78116.2
89243
121577
233480
90722.5
86757.2
83176.9
80043.7
77387.4
75351.4
74139.1
74335.9
76001.3
81325.1
95770.3
130822
84834.9
81941.8
79034.8
76236.7
73649.2
71483.9
69862.4
69378.6
70179.6
72697.1
79935.3
93976.5
72105.2
70046.3
67672.7
65159.1
62736.2
60666.1
59248.1
58850.9
60136.5
62269.7
67426.3
74933.1
65083.3
66296.2
67367.1
68257.1
68959.4
69351.1
69235.7
68354.4
66852.8
64819
62383.9
59641.6
49787.3
50185.9
50491.4
50683.6
50736.4
50519.9
49889.8
48745.6
47154.6
45267.5
43318.5
41396.6
37083.2
37151.6
37098.5
36949.5
36675.7
36180
35367.5
34197.5
32741.6
31236.7
30158
29854.4
27412.4
27367.8
27168.3
26874.5
26465.9
25874.6
25039.4
23946.1
22675.5
21538.2
21464.9
24500.2
56589.3
53395.6
50464.9
48121.4
46509.8
45668.7
45621.6
46289.4
47758.4
49720.7
52645.3
54841.3
39120.5
36734.4
35231.6
34643.5
34778.2
35539.4
36836.9
38549.6
40632.5
42787.5
44572.7
45491.8
28615.9
26090.2
25420.9
25835.5
26896.9
28398.4
30215.2
32212.8
34175.5
35720.8
36715.1
36797
24689
19429.2
18910.6
19748
21155.6
22865.6
24739.4
26606.6
28130.7
29152.1
29577.7
29081.3
55798.7
56413.2
56931.4
57385.3
57848.3
58263.4
58471.7
58354.4
57750
56861.3
55746
54166
45161.5
44723.1
44328.5
43917.6
43505
43006.1
42303.5
41337.2
40117.9
38887.9
37824.1
36673.2
35736.1
34643.8
33608
32584.4
31568
30495.7
29297.5
27966.6
26585.5
25397.1
24781.6
24688.6
27717.9
26315.6
24962.9
23651.1
22375.8
21097.6
19776
18416.9
17098.3
16048.6
15972.3
18212.3
51771.1
48921.6
46414.7
44427.9
43154.6
42851.9
43769.1
46030
49776.2
54160
59624.1
63465.1
34571.1
31643.5
29489.5
28178
27765.1
28413.1
30263.3
33354.1
37568.9
42242.7
46520.5
49016.6
23426.6
20217.5
18455.3
17690.8
17776.9
18780.6
20783.6
23784.9
27592.3
31633.7
34821.9
36604.4
18287.6
13155.7
11639.1
11244
11555.4
12586.2
14391.7
16958.2
20097.8
23319.7
25713.1
27048
65083.3
66296.1
67367
68257
68959.3
69351
69235.7
68354.4
66852.8
64819
62384
59641.6
49787.2
50185.8
50491.3
50683.5
50736.4
50519.8
49889.7
48745.6
47154.6
45267.5
43318.6
41396.6
37083.1
37151.5
37098.4
36949.4
36675.6
36179.9
35367.5
34197.5
32741.6
31236.7
30158
29854.4
27412.3
27367.6
27168.2
26874.4
26465.8
25874.6
25039.3
23946.1
22675.4
21538.2
21464.9
24500.2
56589.3
53395.6
50464.9
48121.4
46509.8
45668.6
45621.6
46289.4
47758.4
49720.7
52645.2
54841.2
39120.5
36734.4
35231.6
34643.5
34778.2
35539.4
36836.9
38549.5
40632.5
42787.4
44572.6
45491.7
28615.9
26090.2
25420.9
25835.5
26896.9
28398.3
30215.2
32212.8
34175.5
35720.7
36715.1
36797
24689
19429.1
18910.6
19748
21155.5
22865.6
24739.3
26606.5
28130.6
29152
29577.7
29081.2
55798.7
56413.1
56931.4
57385.2
57848.3
58263.4
58471.6
58354.4
57749.9
56861.3
55746
54166
45161.4
44723
44328.5
43917.6
43505
43006.1
42303.5
41337.3
40117.9
38888
37824.1
36673.2
35736.1
34643.8
33608
32584.4
31568
30495.7
29297.6
27966.6
26585.6
25397.2
24781.7
24688.7
27717.9
26315.6
24962.9
23651.1
22375.8
21097.6
19776.1
18417
17098.4
16048.7
15972.4
18212.5
51771.1
48921.7
46414.8
44427.9
43154.7
42852
43769.2
46030.1
49776.3
54160.1
59624.2
63465.2
34571.2
31643.7
29489.6
28178.2
27765.2
28413.3
30263.5
33354.3
37569.1
42242.8
46520.7
49016.7
23426.8
20217.7
18455.5
17691
17777.2
18780.8
20783.7
23785.1
27592.4
31633.9
34822
36604.6
18287.8
13155.9
11639.3
11244.3
11555.6
12586.4
14391.9
16958.4
20097.9
23319.8
25713.2
27048.1
20276.6
20206.3
19967
19631.1
19189.5
18596.4
17811.2
16828
15707.4
14750.8
15281
31552.9
15060.2
14996.6
14765.2
14437.5
14013.3
13462.5
12757.3
11891.6
10895.6
9875.85
9074.85
9213.45
11248.4
11199.6
10994.5
10697
10312.7
9822.29
9206.09
8456.71
7581.06
6591.31
5457.61
4398.37
8454.63
8419.5
8244.84
7984.91
7648.12
7222.47
6694.23
6056.33
5306.54
4434.78
3414.06
2736.23
6399.6
6374.23
6228.08
6005.7
5716.36
5353.01
4906.47
4371.59
3745.88
3024.39
2220.64
1836.82
4884.85
4865.31
4743.45
4555.14
4309.35
4002.4
3628.56
3185.26
2672.98
2096.49
1492
1257.97
3770.61
3753.82
3651.47
3492.21
3284.24
3026.05
2714.53
2349.36
1934.2
1480.26
1028.65
863.242
2960.47
2944.21
2856.65
2720.75
2543.83
2325.8
2065.37
1763.78
1426.79
1067.98
724.207
584.187
2393.57
2376.16
2298.58
2179.65
2025.93
1838.34
1616.72
1363.12
1084.2
793.229
520.109
380.096
2051.59
2031.08
1957.53
1847.02
1705.87
1535.96
1337.78
1113.41
870.426
619.718
384.79
225.76
2040.61
2011.41
1929.26
1808.58
1657.08
1478.54
1273.72
1043.5
798.825
548.1
312.474
109.403
3687.09
3619.51
3439.1
3196.01
2896.91
2553.72
2173.04
1746.15
1289.46
835.252
422.931
45.6777
35200.4
15023.4
14322.7
15312.5
16763.1
18409.4
20119.4
21649.8
22749.1
23381.2
23408.2
22607.2
14820.2
10600.3
10875.7
11960
13318.8
14781.4
16224.7
17396.6
18172.7
18511
18278
17390.3
8995.33
7587.86
8307.11
9380.08
10589.2
11832.4
12986.1
13856.1
14385
14516.5
14153.5
13305.2
6249.51
5562.17
6385.98
7376.59
8417.86
9442.8
10339.3
10974.8
11318.2
11316
10917.5
10171.6
4536.56
4153.14
4937.19
5813.21
6691.44
7519.89
8207.29
8670.1
8879.34
8800.44
8423.44
7804.25
3332.83
3136.44
3834.43
4591.12
5323.93
5987.84
6515.68
6851.48
6968.77
6856.46
6531.54
6036.23
2432.8
2380.99
2989.74
3638.78
4250.39
4785.41
5194.66
5439.15
5499.07
5382.39
5117.28
4728.37
1737.27
1808.83
2343.99
2906.63
3424.29
3863.78
4188.55
4371.42
4398.64
4292.25
4081.74
3776.85
1200.92
1371.4
1862.58
2366.5
2819.79
3194.96
3464.36
3608.34
3618.59
3526.83
3358.18
3112.88
771.063
1045.58
1537.95
2023.41
2449.28
2793.79
3035.38
3157.25
3158.43
3078.21
2929.96
2721.03
426.126
855.646
1450.04
2007.16
2479.16
2851.41
3105.69
3218.59
3209.57
3113.11
2953.67
2743.44
230.664
1209.67
2512.7
3663.91
4620.04
5354.8
5821.45
6017.74
5933.85
5686.08
5330.94
4904.4
21195.2
19732.4
18317.8
16968
15682.5
14435.8
13200.7
11973.6
10790.4
9789.07
9747.64
18601.6
16075.3
14709.5
13392.4
12152.4
10991.8
9892.2
8830.49
7790.41
6766.33
5757.89
4760.04
3685.64
12159.5
10970.6
9828.54
8764.15
7780.7
6863.96
5992.8
5144.92
4296.97
3407.68
2401.34
1382.72
9217.69
8230.05
7284.19
6408.08
5605.24
4864.54
4167.86
3493.09
2816.37
2102.48
1346.87
819.585
7033.98
6237.68
5476.36
4772.7
4130.25
3540.85
2990.15
2459.53
1931.01
1382.12
856.178
598.356
5425.04
4794.46
4190.88
3631.98
3121.51
2654.1
2219.3
1802.64
1392.48
974.675
607.885
461.145
4247.88
3752.12
3275.08
2830.87
2423.71
2050.67
1704.73
1375.04
1054.85
732.921
466.342
367.634
3398.41
3006.61
2625.76
2268.06
1938.39
1635.76
1355.87
1090.53
836.427
582.005
377.019
286.511
2809.93
2492.79
2179.94
1883.12
1607.99
1354.96
1121.68
901.598
693.86
485.197
317.473
213.885
2468.27
2196.29
1922.69
1660.56
1416.67
1192.33
986.373
793.009
612.827
431.51
282.032
145.225
2491.73
2218.57
1939.89
1671.66
1422.69
1194.39
986.013
791.339
611.951
430.654
279.626
82.7385
4418.7
3909.53
3398.34
2914.61
2470.32
2062.28
1689.74
1339.11
1019.09
676.45
421.776
100.766
23327.4
8749.06
7436.58
7298.33
7680.85
8598.75
10097.4
12163.9
14639.7
17128.2
18944.7
19971.6
7701.39
5181.23
4791.62
4848.08
5233.19
5998.77
7192.17
8805.35
10713.1
12612.2
13999
14798.6
3654.24
3136.04
3150.76
3305.26
3656.81
4275.08
5205.76
6445.22
7898.21
9340.71
10401.5
11025.7
2077.81
1980.69
2127.92
2313.99
2619.67
3112.07
3831.62
4777.37
5878.21
6971.98
7782.65
8268.47
1285.5
1302.27
1477.27
1662.07
1922.12
2313.58
2869.93
3591.13
4424.33
5253.35
5871.59
6247.47
838.999
884.812
1052.03
1222.7
1442.8
1756.32
2189.7
2742.51
3374.95
4003.87
4474.47
4763.29
558.976
615.834
766.375
919.768
1107.11
1361.95
1704.64
2133.51
2617.39
3096.24
3454.78
3675.48
371.058
436.138
570.446
707.598
869.025
1080.61
1358.17
1698.39
2074.79
2442.98
2718.55
2887.24
238.96
313.716
435.811
559.543
701.068
881.771
1115.03
1395.92
1698.75
1988.43
2206.24
2337.52
142.026
232.093
349.025
465.077
593.648
755.668
965.786
1217.57
1477.9
1714.18
1897.73
2007.91
69.5443
189.246
316.737
436.089
561.173
719.071
932.042
1197.56
1466.13
1697.79
1882.95
2000.42
28.9914
273.672
514.121
700.463
873.123
1106.79
1464.11
1968.56
2500.44
2971.52
3356.64
3604.99
20276.5
20206.2
19966.9
19631
19189.4
18596.3
17811.1
16828
15707.4
14750.8
15281
31552.8
15060.1
14996.4
14765.1
14437.4
14013.2
13462.4
12757.2
11891.5
10895.5
9875.82
9074.81
9213.37
11248.3
11199.5
10994.4
10696.9
10312.6
9822.22
9206.03
8456.66
7581.03
6591.27
5457.56
4398.27
8454.49
8419.36
8244.7
7984.79
7648.02
7222.38
6694.16
6056.27
5306.49
4434.72
3413.99
2736.12
6399.45
6374.09
6227.94
6005.58
5716.25
5352.92
4906.39
4371.53
3745.81
3024.32
2220.56
1836.71
4884.7
4865.17
4743.32
4555.01
4309.24
4002.3
3628.48
3185.18
2672.9
2096.41
1491.91
1257.85
3770.45
3753.67
3651.34
3492.08
3284.12
3025.95
2714.43
2349.27
1934.11
1480.16
1028.55
863.121
2960.31
2944.06
2856.51
2720.62
2543.71
2325.69
2065.26
1763.68
1426.68
1067.87
724.104
584.072
2393.41
2376.01
2298.44
2179.52
2025.81
1838.22
1616.61
1363.02
1084.09
793.121
520.004
379.993
2051.43
2030.92
1957.39
1846.88
1705.75
1535.84
1337.66
1113.3
870.315
619.608
384.689
225.673
2040.44
2011.24
1929.11
1808.44
1656.95
1478.42
1273.6
1043.38
798.711
547.99
312.379
109.338
3686.82
3619.26
3438.86
3195.8
2896.71
2553.53
2172.87
1745.99
1289.31
835.12
422.834
45.6256
35200.3
15023.4
14322.6
15312.4
16763.1
18409.4
20119.3
21649.8
22749
23381.2
23408.1
22607.1
14820.1
10600.3
10875.6
11960
13318.8
14781.3
16224.7
17396.5
18172.7
18511
18278
17390.3
8995.27
7587.83
8307.08
9380.05
10589.1
11832.3
12986
13856
14384.9
14516.5
14153.5
13305.2
6249.45
5562.14
6385.94
7376.56
8417.82
9442.76
10339.2
10974.8
11318.1
11316
10917.5
10171.6
4536.51
4153.1
4937.16
5813.17
6691.4
7519.84
8207.25
8670.05
8879.3
8800.4
8423.42
7804.23
3332.78
3136.4
3834.39
4591.08
5323.89
5987.8
6515.63
6851.44
6968.73
6856.42
6531.51
6036.21
2432.75
2380.95
2989.7
3638.74
4250.34
4785.36
5194.61
5439.1
5499.02
5382.35
5117.25
4728.34
1737.22
1808.79
2343.94
2906.58
3424.23
3863.72
4188.49
4371.37
4398.6
4292.2
4081.7
3776.82
1200.88
1371.36
1862.54
2366.45
2819.74
3194.9
3464.31
3608.28
3618.54
3526.78
3358.15
3112.86
771.035
1045.54
1537.9
2023.36
2449.23
2793.73
3035.32
3157.2
3158.38
3078.16
2929.93
2721.01
426.107
855.612
1449.99
2007.11
2479.1
2851.34
3105.63
3218.53
3209.51
3113.06
2953.63
2743.41
230.651
1209.63
2512.64
3663.83
4619.94
5354.7
5821.35
6017.65
5933.77
5686.01
5330.88
4904.36
21195.2
19732.4
18317.9
16968
15682.6
14435.8
13200.8
11973.7
10790.6
9789.2
9747.8
18602
16075.3
14709.5
13392.4
12152.4
10991.8
9892.29
8830.6
7790.54
6766.46
5758.05
4760.23
3686.02
12159.5
10970.6
9828.58
8764.2
7780.78
6864.05
5992.92
5145.05
4297.13
3407.86
2401.55
1383.06
9217.69
8230.07
7284.22
6408.14
5605.31
4864.64
4167.97
3493.23
2816.54
2102.67
1347.08
819.896
7033.98
6237.7
5476.39
4772.75
4130.32
3540.94
2990.27
2459.67
1931.17
1382.31
856.391
598.629
5425.03
4794.47
4190.9
3632.02
3121.57
2654.18
2219.4
1802.77
1392.64
974.86
608.088
461.388
4247.87
3752.12
3275.1
2830.91
2423.77
2050.75
1704.84
1375.17
1055.01
733.099
466.533
367.846
3398.39
3006.61
2625.77
2268.1
1938.44
1635.83
1355.97
1090.65
836.574
582.174
377.198
286.693
2809.92
2492.79
2179.96
1883.15
1608.04
1355.03
1121.77
901.715
694.001
485.359
317.641
214.035
2468.25
2196.28
1922.71
1660.59
1416.72
1192.4
986.461
793.121
612.962
431.665
282.188
145.34
2491.71
2218.57
1939.91
1671.69
1422.73
1194.46
986.101
791.452
612.085
430.807
279.773
82.8131
4418.68
3909.53
3398.37
2914.65
2470.39
2062.37
1689.86
1339.27
1019.27
676.646
421.929
100.845
23328
8749.35
7436.87
7298.62
7681.13
8598.99
10097.6
12164.1
14639.9
17128.3
18944.9
19971.7
7701.86
5181.54
4791.93
4848.39
5233.48
5999.02
7192.39
8805.53
10713.3
12612.3
13999.2
14798.8
3654.68
3136.35
3151.07
3305.58
3657.11
4275.34
5205.98
6445.42
7898.38
9340.86
10401.6
11025.8
2078.22
1981.01
2128.24
2314.31
2619.97
3112.34
3831.85
4777.57
5878.38
6972.14
7782.8
8268.63
1285.89
1302.59
1477.6
1662.4
1922.43
2313.85
2870.17
3591.33
4424.51
5253.51
5871.74
6247.62
839.365
885.127
1052.36
1223.03
1443.11
1756.59
2189.94
2742.71
3375.13
4004.04
4474.63
4763.45
559.314
616.143
766.7
920.093
1107.42
1362.22
1704.88
2133.71
2617.57
3096.41
3454.94
3675.64
371.364
436.438
570.766
707.919
869.325
1080.88
1358.4
1698.59
2074.97
2443.15
2718.71
2887.4
239.224
314.001
436.123
559.858
701.362
882.031
1115.25
1396.11
1698.93
1988.6
2206.4
2337.68
142.238
232.36
349.329
465.385
593.936
755.922
966.007
1217.76
1478.08
1714.35
1897.89
2008.07
69.6911
189.496
317.038
436.398
561.462
719.327
932.265
1197.76
1466.31
1697.96
1883.12
2000.59
29.0925
273.958
514.503
700.858
873.492
1107.13
1464.42
1968.84
2500.7
2971.78
3356.91
3605.25
)
;

boundaryField
{
    rotor
    {
        type            epsilonWallFunction;
        blending        stepwise;
        value           nonuniform List<scalar> 
192
(
3824.03
3200.44
3556.61
3507.7
3127.07
2784.28
3663.94
16206.1
48574.5
66686.2
75778.1
83590.2
87785.4
90434.8
90665.9
90553.2
88268
83452.4
76274.8
66673.5
54744.5
41740.3
27012.4
34588.3
3171.48
2687.07
3059.76
3012.71
2771.07
2364.54
2757.76
8672.4
36603.3
55067
63813.6
70763.2
74883.6
77386.7
77960.4
77928.4
76769.9
72737
67110.8
58929.4
48928.2
37454.6
24367
30882.7
3823.9
3200.34
3556.52
3507.6
3126.99
2784.2
3663.79
16205.2
48573.6
66685.6
75777.3
83589.5
87784.7
90434
90665.2
90552.6
88267.4
83451.9
76274.4
66673.2
54744.2
41740.2
27012.3
34588.2
3171.48
2687.07
3059.76
3012.72
2771.07
2364.54
2757.77
8672.4
36603.3
55067.1
63813.7
70763.3
74883.8
77386.9
77960.6
77928.6
76770.1
72737.1
67111
58929.6
48928.3
37454.6
24367.1
30882.7
3824.03
10542.1
15831
21821.1
24065.5
24641.7
23255.8
22366.3
22505.5
24735.1
29809.9
133320
30882.7
97926.3
149920
189705
222177
252504
281427
316442
357805
402432
457801
537629
3171.48
8732.28
12983.8
17911
19982.2
20699.6
20024
19786
20333.7
23032
27817.5
122498
34588.3
108538
165177
209146
244560
277798
309329
347964
391829
438203
493282
567176
3823.9
10541.9
15830.7
21820.5
24064.8
24640.9
23255.1
22365.7
22505
24734.8
29809.8
133320
30882.7
97926.1
149920
189705
222177
252504
281427
316442
357805
402431
457801
537627
3171.48
8732.28
12983.8
17911
19982.2
20699.6
20024.1
19786
20333.8
23032
27817.6
122498
34588.2
108538
165176
209145
244559
277797
309328
347963
391828
438202
493281
567174
)
;
    }
    stator
    {
        type            epsilonWallFunction;
        blending        stepwise;
        value           nonuniform List<scalar> 
192
(
3687.09
3619.51
3439.1
3196.01
2896.91
2553.72
2173.04
1746.15
1289.46
835.252
422.931
45.6777
230.664
1209.67
2512.7
3663.91
4620.04
5354.8
5821.45
6017.74
5933.85
5686.08
5330.94
4904.4
4418.7
3909.53
3398.34
2914.61
2470.32
2062.28
1689.74
1339.11
1019.09
676.45
421.776
100.766
28.9914
273.672
514.121
700.463
873.123
1106.79
1464.11
1968.56
2500.44
2971.52
3356.64
3604.99
3686.82
3619.26
3438.86
3195.8
2896.71
2553.53
2172.87
1745.99
1289.31
835.12
422.834
45.6256
230.651
1209.63
2512.64
3663.83
4619.94
5354.7
5821.35
6017.65
5933.77
5686.01
5330.88
4904.36
4418.68
3909.53
3398.37
2914.65
2470.39
2062.37
1689.86
1339.27
1019.27
676.646
421.929
100.845
29.0925
273.958
514.503
700.858
873.492
1107.13
1464.42
1968.84
2500.7
2971.78
3356.91
3605.25
35200.4
14820.2
8995.33
6249.51
4536.56
3332.83
2432.8
1737.27
1200.92
771.063
426.126
230.664
31552.9
9213.45
4398.37
2736.23
1836.82
1257.97
863.242
584.187
380.096
225.76
109.403
45.6777
23327.4
7701.39
3654.24
2077.81
1285.5
838.999
558.976
371.058
238.96
142.026
69.5443
28.9914
18601.6
3685.64
1382.72
819.585
598.356
461.145
367.634
286.511
213.885
145.225
82.7385
100.766
35200.3
14820.1
8995.27
6249.45
4536.51
3332.78
2432.75
1737.22
1200.88
771.035
426.107
230.651
31552.8
9213.37
4398.27
2736.12
1836.71
1257.85
863.121
584.072
379.993
225.673
109.338
45.6256
23328
7701.86
3654.68
2078.22
1285.89
839.365
559.314
371.364
239.224
142.238
69.6911
29.0925
18602
3686.02
1383.06
819.896
598.629
461.388
367.846
286.693
214.035
145.34
82.8131
100.845
)
;
    }
    front
    {
        type            empty;
    }
    back
    {
        type            empty;
    }
}


// ************************************************************************* //
