/*--------------------------------*- C++ -*----------------------------------*\
| =========                 |                                                 |
| \\      /  F ield         | OpenFOAM: The Open Source CFD Toolbox           |
|  \\    /   O peration     | Version:  2212                                  |
|   \\  /    A nd           | Website:  www.openfoam.com                      |
|    \\/     M anipulation  |                                                 |
\*---------------------------------------------------------------------------*/
FoamFile
{
    version     2.0;
    format      ascii;
    arch        "LSB;label=32;scalar=64";
    class       volScalarField;
    location    "0.1";
    object      k;
}
// * * * * * * * * * * * * * * * * * * * * * * * * * * * * * * * * * * * * * //

dimensions      [0 2 -2 0 0 0 0];

internalField   nonuniform List<scalar> 
3072
(
3.53211
4.69478
5.03693
4.99064
4.62274
4.27842
5.13777
13.844
28.7793
35.5494
38.7113
41.3281
7.47783
10.9379
11.2568
10.7859
10.2857
14.763
24.2239
28.0741
40.5619
50.6037
61.407
71.1816
10.4815
17.3345
20.7439
23.0199
24.8287
26.8239
35.6447
46.4021
60.1667
71.886
82.5269
91.309
13.7924
25.1034
26.2676
25.858
29
36.8489
49.6449
62.5422
74.9228
85.4197
94.5355
102.014
15.5632
29.7782
31.1249
30.9435
37.2645
48.6045
61.793
74.1766
85.0835
94.3058
102.278
108.902
16.6421
33.2311
36.3022
37.8412
46.4895
58.5872
71.1568
82.3833
91.9493
100.157
107.334
113.485
16.7928
33.9074
39.2037
44.3762
55.0384
67.2788
78.9478
89.1208
97.7584
105.219
111.807
117.605
17.1051
35.2857
43.5113
53.0297
65.6732
77.7822
88.5146
97.5914
105.235
111.836
117.707
122.979
17.9065
38.7705
53.2464
68.3396
83.0297
94.7434
104.005
111.342
117.332
122.46
127.061
131.293
19.8329
47.6504
74.1464
95.0992
110.873
121.214
127.981
132.556
135.918
138.677
141.195
143.648
23.3077
65.3813
110.003
135.908
149.987
156.916
159.753
160.454
160.293
159.887
159.59
159.598
65.5275
115.411
163.519
184.473
191.925
193.405
191.723
188.611
185.091
181.652
178.585
176.017
42.6996
43.5544
43.6286
43.5924
42.8559
41.2827
38.8802
35.5449
31.1675
26.0123
19.4618
15.3334
79.5889
86.0258
89.6112
90.4798
89.4789
87.5141
84.6975
80.6703
73.9955
60.567
43.0389
35.3898
98.0313
102.576
104.839
105.366
104.954
103.987
102.677
100.687
96.9169
88.2497
66.1473
50.0478
107.788
111.952
114.552
115.912
116.487
116.745
117.035
117.154
116.124
111.086
92.5149
62.233
114.203
118.276
121.178
123.164
124.641
126.098
127.965
130.238
131.746
130.086
115.96
73.0171
118.636
122.831
126.143
128.802
131.197
133.838
137.205
141.447
145.876
147.486
138.609
83.6722
122.647
126.963
130.629
133.849
136.995
140.594
145.232
151.261
158.202
163.098
159.117
94.2717
127.703
131.911
135.669
139.154
142.706
146.875
152.381
159.87
169.232
177.33
176.661
106.599
135.211
138.838
142.223
145.496
148.957
153.15
158.916
167.293
178.816
190.425
192.174
120.286
146.069
148.465
150.858
153.318
156.099
159.689
164.964
173.344
186.307
201.888
208.393
134.781
159.866
160.407
161.217
162.27
163.833
166.265
170.331
177.478
190.052
209.332
225.842
151.352
173.953
172.415
171.389
170.901
171.081
171.967
174.156
179.179
189.807
211.216
241.884
172.044
3.11789
4.17825
4.55617
4.50935
4.26487
3.83683
4.25122
9.12504
23.8317
31.2898
34.521
36.9839
6.59541
9.78101
10.1738
9.71161
9.31708
11.2338
20.8285
24.1158
33.8855
43.7585
53.2604
62.3171
9.18377
15.0956
18.0081
20.4335
23.2808
23.8564
29.9114
39.1861
51.3832
62.4793
72.3855
80.7407
12.0912
22.2207
23.7261
23.5456
25.724
30.4851
41.6032
53.5693
65.1426
75.0439
83.5991
90.7016
13.7488
26.1759
27.3823
26.8368
31.0386
40.6306
52.9655
64.5836
74.9032
83.5476
90.9736
97.1911
14.8162
29.1734
31.3983
32.1102
39.3054
50.4382
62.2371
72.8071
81.7457
89.3119
95.8714
101.503
15.1985
30.0479
34.1381
38.3444
48.0457
59.4702
70.3483
79.7868
87.7004
94.4141
100.279
105.437
15.7628
32.0454
38.9639
47.6733
59.3937
70.5611
80.3542
88.5418
95.3195
101.062
106.103
110.625
16.7351
36.1959
49.3089
63.48
77.1514
87.806
96.004
102.317
107.328
111.527
115.23
118.639
18.9118
45.5421
70.0068
89.6126
104.331
113.607
119.292
122.824
125.221
127.109
128.764
130.409
22.2572
62.0387
104.046
128.519
141.487
147.343
149.114
148.883
147.88
146.77
145.867
145.322
61.9317
108.98
154.716
174.139
180.136
180.372
177.65
173.799
169.782
166.056
162.858
160.285
38.406
39.2572
39.451
39.4402
39.0483
37.6685
35.7002
32.7363
28.9189
24.1998
18.1695
14.2177
70.3784
76.6096
80.3739
81.6061
80.932
79.4041
77.1124
73.7259
67.8654
55.8662
39.9699
33.0437
87.2891
91.7835
94.2276
95.0537
94.94
94.373
93.5232
92.0912
89.0221
81.4022
61.2061
46.9165
96.2487
100.331
102.997
104.534
105.362
105.949
106.654
107.284
106.883
102.803
85.9075
58.3141
102.177
106.069
108.919
110.962
112.588
114.278
116.473
119.189
121.189
120.396
107.859
68.491
106.233
110.141
113.289
115.89
118.321
121.082
124.66
129.225
134.16
136.517
129.218
78.5128
109.947
113.867
117.264
120.328
123.41
127.027
131.761
137.98
145.291
150.904
148.554
88.5137
114.718
118.439
121.851
125.108
128.53
132.641
138.145
145.695
155.264
163.988
165.148
100.059
121.866
124.972
127.99
131.021
134.335
138.443
144.155
152.494
164.056
176.102
179.714
113.218
132.182
134.136
136.249
138.539
141.232
144.779
150.021
158.345
171.299
187.075
195.295
127.342
145.268
145.607
146.32
147.384
149.008
151.518
155.665
163.023
175.722
195.335
213.017
144.005
158.363
157.04
156.262
156.163
156.692
157.908
160.516
165.9
176.855
198.741
231.009
166.015
3.53203
4.69468
5.03684
4.99055
4.62267
4.27834
5.13762
13.8435
28.779
35.5492
38.711
41.3278
7.47771
10.9378
11.2566
10.7858
10.2856
14.7627
24.2236
28.0737
40.5614
50.6031
61.4064
71.181
10.4814
17.3343
20.7437
23.0197
24.8288
26.8235
35.6442
46.4014
60.1659
71.8852
82.5261
91.3082
13.7921
25.1033
26.2676
25.858
28.9998
36.8481
49.644
62.5414
74.922
85.4188
94.5346
102.013
15.5629
29.7778
31.1245
30.9431
37.2636
48.6034
61.792
74.1756
85.0825
94.3048
102.277
108.901
16.6418
33.2305
36.3015
37.8403
46.4884
58.5861
71.1558
82.3823
91.9483
100.156
107.333
113.484
16.7924
33.9067
39.2027
44.375
55.0372
67.2776
78.9466
89.1197
97.7574
105.218
111.806
117.604
17.1048
35.285
43.5104
53.0286
65.672
77.7811
88.5135
97.5903
105.234
111.835
117.706
122.978
17.9062
38.77
53.2457
68.3388
83.0288
94.7425
104.004
111.341
117.331
122.459
127.06
131.292
19.8328
47.6503
74.1462
95.099
110.872
121.214
127.981
132.555
135.918
138.676
141.194
143.647
23.3076
65.3814
110.003
135.908
149.987
156.916
159.752
160.454
160.293
159.887
159.59
159.597
65.5274
115.411
163.519
184.473
191.925
193.405
191.723
188.61
185.091
181.652
178.584
176.016
42.6993
43.5542
43.6284
43.5922
42.8557
41.2825
38.8801
35.5448
31.1674
26.0122
19.4618
15.3334
79.5883
86.0252
89.6106
90.4793
89.4784
87.5136
84.6972
80.67
73.9952
60.5668
43.0388
35.3897
98.0305
102.575
104.838
105.366
104.953
103.987
102.676
100.687
96.9165
88.2494
66.1471
50.0477
107.787
111.951
114.551
115.911
116.486
116.745
117.034
117.153
116.124
111.086
92.5146
62.2329
114.202
118.275
121.177
123.163
124.64
126.097
127.964
130.238
131.746
130.086
115.96
73.017
118.635
122.83
126.142
128.801
131.196
133.837
137.204
141.446
145.876
147.485
138.608
83.672
122.646
126.962
130.628
133.848
136.994
140.593
145.232
151.26
158.201
163.097
159.116
94.2714
127.702
131.91
135.668
139.153
142.705
146.874
152.38
159.869
169.231
177.329
176.66
106.598
135.21
138.837
142.222
145.495
148.957
153.149
158.916
167.293
178.815
190.424
192.174
120.286
146.068
148.464
150.858
153.317
156.098
159.688
164.964
173.343
186.306
201.887
208.393
134.781
159.865
160.406
161.216
162.27
163.832
166.264
170.331
177.477
190.052
209.331
225.842
151.352
173.952
172.414
171.388
170.901
171.081
171.966
174.156
179.178
189.806
211.216
241.883
172.043
3.1179
4.17825
4.55617
4.50935
4.26488
3.83684
4.25122
9.12504
23.8317
31.2898
34.5211
36.984
6.59541
9.78101
10.1738
9.7116
9.31708
11.2338
20.8285
24.1158
33.8855
43.7585
53.2605
62.3172
9.18377
15.0956
18.008
20.4335
23.2808
23.8564
29.9115
39.1862
51.3832
62.4793
72.3855
80.7408
12.0912
22.2207
23.7261
23.5456
25.724
30.4851
41.6032
53.5694
65.1427
75.044
83.5992
90.7017
13.7488
26.1759
27.3823
26.8368
31.0386
40.6307
52.9656
64.5837
74.9033
83.5477
90.9737
97.1912
14.8162
29.1734
31.3983
32.1102
39.3055
50.4382
62.2371
72.8072
81.7458
89.3119
95.8715
101.503
15.1985
30.048
34.1381
38.3445
48.0458
59.4702
70.3483
79.7869
87.7005
94.4142
100.279
105.437
15.7628
32.0455
38.9639
47.6733
59.3938
70.5611
80.3543
88.5418
95.3196
101.062
106.103
110.625
16.7352
36.1959
49.309
63.48
77.1515
87.8061
96.004
102.317
107.328
111.527
115.23
118.639
18.9118
45.5422
70.0069
89.6126
104.331
113.607
119.292
122.824
125.221
127.11
128.764
130.409
22.2573
62.0387
104.046
128.519
141.487
147.343
149.114
148.883
147.88
146.77
145.867
145.322
61.9316
108.98
154.716
174.139
180.135
180.371
177.65
173.799
169.782
166.056
162.858
160.285
38.4061
39.2573
39.451
39.4402
39.0484
37.6686
35.7002
32.7364
28.9189
24.1998
18.1696
14.2177
70.3785
76.6097
80.374
81.6062
80.9321
79.4042
77.1126
73.726
67.8655
55.8663
39.9699
33.0438
87.2893
91.7837
94.2277
95.0539
94.9402
94.3731
93.5233
92.0913
89.0222
81.4023
61.2061
46.9165
96.2489
100.332
102.998
104.534
105.362
105.949
106.654
107.284
106.884
102.803
85.9076
58.3142
102.177
106.069
108.919
110.962
112.588
114.278
116.473
119.189
121.19
120.396
107.859
68.4911
106.234
110.141
113.289
115.89
118.321
121.082
124.66
129.226
134.16
136.517
129.218
78.5129
109.947
113.867
117.264
120.328
123.41
127.027
131.761
137.981
145.291
150.904
148.554
88.5138
114.718
118.439
121.851
125.108
128.53
132.641
138.145
145.695
155.264
163.988
165.148
100.06
121.866
124.972
127.99
131.021
134.335
138.443
144.156
152.494
164.056
176.102
179.715
113.218
132.182
134.136
136.249
138.539
141.232
144.779
150.021
158.345
171.299
187.075
195.295
127.342
145.268
145.607
146.321
147.384
149.008
151.518
155.665
163.023
175.723
195.336
213.017
144.005
158.363
157.04
156.262
156.163
156.692
157.909
160.516
165.9
176.855
198.741
231.009
166.015
205.774
206.722
208.986
211.719
213.021
212.38
209.6
205.669
201.215
196.574
192.115
188.006
207.418
203.926
203.758
205.249
207.307
208.251
207.498
205.894
203.112
199.384
195.366
191.195
194.431
193.046
192.288
192.434
193.483
194.65
194.881
194.266
192.78
190.655
187.772
184.147
178.283
178.266
177.789
177.344
177.152
177.063
176.708
175.881
174.411
172.28
169.629
166.485
184.321
181.14
178.48
176.368
174.905
174.47
175.117
177.761
184.595
201.033
235.615
224.513
187.033
183.123
179.583
176.477
173.832
171.87
171.072
171.623
174.856
184.049
208.189
208.469
180.181
176.233
172.384
168.719
165.341
162.463
160.476
159.84
161.223
165.567
179.773
184.639
162.944
159.208
155.422
151.798
148.578
146.005
144.46
144.335
146.009
148.839
157.418
163.338
201.377
196.914
196.595
197.108
196.602
194.532
190.845
186.58
182.181
177.88
173.958
170.563
199.721
191.835
187.982
186.699
186.409
185.955
184.842
183.238
180.975
178.132
175.3
172.598
181.884
177.858
173.888
171.658
170.71
170.631
170.62
170.44
169.888
168.877
167.596
166.071
162.872
160.971
158.823
156.8
155.424
154.912
154.724
154.586
154.292
153.692
152.747
151.395
167.718
165.385
163.501
162.145
161.43
161.717
162.973
166.455
174.346
192.196
230.185
222.201
170.034
167.6
165.304
163.301
161.704
161.065
161.373
163.272
168.3
179.768
207.967
213.298
164.246
162.118
159.724
157.353
155.24
153.902
153.636
154.685
158.627
165.459
184.009
194.942
149.498
147.165
144.593
142.009
139.779
138.626
138.565
139.982
144.711
150.489
163.976
175.18
205.774
206.722
208.986
211.719
213.021
212.38
209.6
205.669
201.215
196.573
192.115
188.005
207.417
203.926
203.758
205.249
207.307
208.251
207.498
205.894
203.112
199.384
195.366
191.194
194.43
193.045
192.288
192.433
193.482
194.65
194.881
194.266
192.78
190.655
187.772
184.147
178.283
178.266
177.789
177.344
177.151
177.062
176.708
175.88
174.411
172.28
169.628
166.485
184.321
181.139
178.48
176.368
174.905
174.47
175.117
177.761
184.594
201.032
235.614
224.512
187.033
183.123
179.583
176.477
173.831
171.87
171.072
171.623
174.855
184.048
208.189
208.468
180.181
176.233
172.384
168.719
165.341
162.463
160.475
159.84
161.222
165.567
179.772
184.639
162.944
159.208
155.422
151.798
148.578
146.005
144.46
144.335
146.009
148.838
157.418
163.338
201.377
196.913
196.595
197.108
196.601
194.531
190.845
186.58
182.181
177.88
173.958
170.563
199.721
191.835
187.981
186.698
186.409
185.955
184.842
183.238
180.975
178.132
175.3
172.598
181.884
177.858
173.888
171.658
170.71
170.631
170.62
170.44
169.888
168.877
167.596
166.071
162.872
160.971
158.823
156.8
155.424
154.912
154.724
154.586
154.292
153.692
152.747
151.395
167.718
165.385
163.501
162.145
161.43
161.717
162.973
166.455
174.347
192.196
230.185
222.201
170.034
167.6
165.304
163.301
161.704
161.065
161.373
163.272
168.3
179.769
207.968
213.298
164.246
162.118
159.724
157.354
155.24
153.902
153.636
154.685
158.628
165.459
184.01
194.943
149.498
147.165
144.594
142.009
139.78
138.627
138.566
139.982
144.712
150.489
163.977
175.18
158.579
157.551
156.302
155.11
154.082
153.004
151.584
149.65
147.031
143.772
140.108
136.388
134.939
133.55
131.93
130.333
128.797
127.125
125.077
122.497
119.24
115.393
111.315
107.691
112.923
111.574
109.877
108.115
106.312
104.305
101.899
98.9456
95.3224
91.1115
86.7161
83.1367
94.0295
92.873
91.2548
89.4758
87.5667
85.4024
82.819
79.6697
75.8175
71.2146
65.9364
60.8066
133.219
130.761
128.73
127.541
127.307
127.903
129.633
132.297
135.977
140.275
145.187
147.226
105.641
105.453
106.108
107.766
110.313
113.468
117.197
121.249
125.484
129.167
131.74
131.649
82.4072
85.0019
88.258
92.0855
96.4132
101.007
105.704
110.211
113.995
116.538
117.641
115.956
61.0914
68.3679
73.9444
79.1829
84.4348
89.6223
94.5802
98.8461
101.88
103.561
103.531
100.819
144.929
142.17
139.737
137.666
136.177
135.152
134.16
132.956
131.44
129.674
127.759
125.515
127.886
124.128
120.818
117.882
115.36
113.058
110.668
108.027
105.135
102.213
99.5708
97.1831
111.45
106.929
102.774
98.9495
95.4341
92.0601
88.6101
84.9839
81.2217
77.5258
74.3513
72.1206
95.9982
91.0472
86.3487
81.9392
77.7986
73.8015
69.7886
65.6654
61.4112
57.0601
52.8427
49.4435
122.58
119.204
116.305
114.323
113.716
115.006
118.405
124.011
132.193
141.339
152.019
157.884
94.4289
91.1094
88.6279
87.5078
88.1712
91.0135
96.1695
103.541
112.785
122.475
130.754
134.838
70.404
68.0422
66.5408
66.3758
67.9532
71.5901
77.3635
85.0627
94.0695
103.009
109.608
112.833
49.5356
49.8717
49.8687
50.6242
52.7623
56.6433
62.3459
69.6309
77.8317
85.6343
91.0957
93.8172
158.578
157.55
156.302
155.11
154.081
153.004
151.583
149.65
147.031
143.772
140.108
136.388
134.939
133.55
131.93
130.333
128.797
127.125
125.077
122.497
119.24
115.393
111.315
107.691
112.922
111.573
109.877
108.115
106.311
104.305
101.899
98.9454
95.3222
91.1114
86.7161
83.1367
94.029
92.8725
91.2543
89.4754
87.5664
85.4021
82.8188
79.6696
75.8174
71.2145
65.9363
60.8065
133.219
130.761
128.73
127.541
127.307
127.903
129.632
132.297
135.977
140.275
145.186
147.226
105.641
105.453
106.108
107.765
110.312
113.468
117.197
121.249
125.484
129.166
131.739
131.648
82.4071
85.0018
88.2579
92.0853
96.413
101.007
105.704
110.21
113.995
116.538
117.64
115.955
61.0913
68.3677
73.9442
79.1827
84.4345
89.622
94.5799
98.8459
101.88
103.561
103.531
100.819
144.929
142.17
139.737
137.666
136.177
135.152
134.16
132.956
131.44
129.674
127.759
125.515
127.886
124.128
120.818
117.882
115.36
113.058
110.668
108.027
105.135
102.213
99.5709
97.1833
111.45
106.929
102.774
98.9495
95.4343
92.0603
88.6104
84.9842
81.222
77.526
74.3516
72.1209
95.9982
91.0472
86.3488
81.9393
77.7988
73.8018
69.7889
65.6658
61.4116
57.0605
52.843
49.4438
122.58
119.204
116.306
114.324
113.716
115.006
118.405
124.012
132.194
141.339
152.02
157.885
94.4292
91.1099
88.6285
87.5085
88.172
91.0142
96.1702
103.542
112.786
122.476
130.755
134.838
70.4045
68.0429
66.5417
66.3768
67.9542
71.591
77.3643
85.0634
94.0701
103.01
109.609
112.833
49.5361
49.8725
49.8698
50.6255
52.7635
56.6444
62.3468
69.6317
77.8324
85.6349
91.0963
93.8178
78.3076
77.3748
75.9035
74.1913
72.2812
70.0776
67.4399
64.2178
60.2219
55.1191
47.7442
32.2869
65.3596
64.6325
63.3292
61.7279
59.8809
57.7157
55.1102
51.9125
47.8889
42.5145
34.1043
14.5411
54.712
54.1556
53.017
51.5462
49.8
47.7238
45.2122
42.1202
38.2103
32.9651
25.0582
9.08156
45.9329
45.5098
44.5212
43.1863
41.5617
39.6068
37.2323
34.3103
30.6327
25.7943
18.9599
6.76197
38.6584
38.335
37.4782
36.2766
34.7838
32.9699
30.7619
28.0541
24.6847
20.3794
14.6743
5.29335
32.5874
32.3366
31.5935
30.519
29.162
27.5007
25.4772
23.0101
19.9851
16.2389
11.5365
4.19668
27.4677
27.2687
26.6236
25.6693
24.4487
22.9464
21.1177
18.9034
16.2308
13.0162
9.15031
3.32962
23.0764
22.9149
22.3556
21.5154
20.4311
19.0917
17.4636
15.5059
13.1777
10.4464
7.26659
2.61585
19.1933
19.06
18.5787
17.8498
16.9039
15.7325
14.3107
12.6122
10.617
8.32275
5.71501
2.00086
15.5408
15.4314
15.0268
14.4137
13.6153
12.625
11.4246
9.99801
8.33576
6.45532
4.35845
1.43949
11.5518
11.4664
11.1509
10.6793
10.0646
9.29982
8.3735
7.27727
5.99338
4.567
3.01895
0.903824
5.07869
5.01644
4.84832
4.61708
4.32433
3.97567
3.57005
3.08567
2.52096
1.8873
1.19897
0.271914
34.7295
54.2681
62.1555
68.2504
73.8534
79.1084
83.8735
87.5808
89.954
90.9291
90.0344
86.8155
19.9626
43.1836
52.3626
58.8445
64.4411
69.4723
73.7734
76.8704
78.681
79.0737
77.6271
74.2626
14.6322
35.0867
44.2582
50.7068
56.0695
60.7121
64.4623
66.9941
68.3171
68.2592
66.5341
63.2645
11.7274
28.9717
37.5123
43.6467
48.6387
52.8141
56.0195
58.0726
58.9817
58.6008
56.8044
53.7818
9.67172
24.1455
31.8337
37.5007
42.0533
45.7408
48.4564
50.1076
50.6817
50.1033
48.3748
45.6872
8.03527
20.1813
26.9865
32.1226
36.2123
39.4322
41.7263
43.0406
43.3568
42.6867
41.1201
38.7968
6.6432
16.8148
22.7849
27.3797
31.0124
33.8078
35.7378
36.7739
36.909
36.2283
34.8606
32.895
5.40949
13.8667
19.0784
23.1466
26.3409
28.7519
30.3684
31.1824
31.1991
30.5571
29.3901
27.7581
4.3082
11.1901
15.728
19.2855
22.0547
24.1096
25.4509
26.0845
26.0298
25.4506
24.4673
23.1403
3.26466
8.67385
12.562
15.5909
17.9205
19.6216
20.7031
21.1797
21.0832
20.5765
19.7586
18.7133
2.23746
6.11645
9.20237
11.5738
13.3672
14.6542
15.4446
15.7625
15.6397
15.2188
14.5833
13.7988
0.800353
2.41586
3.93299
5.05738
5.90281
6.51315
6.88625
7.04019
6.97461
6.77908
6.49379
6.1426
81.9793
76.9248
72.0344
67.4033
63.0296
58.821
54.649
50.3937
45.9219
40.9509
34.566
22.7004
69.6351
64.7488
59.968
55.4201
51.1203
46.9997
42.9435
38.8065
34.3728
29.1609
21.7427
7.8945
59
54.4742
50.0159
45.7616
41.7373
37.8902
34.1161
30.2612
26.0906
21.1411
14.4251
4.19877
49.9676
45.9118
41.8976
38.0552
34.415
30.937
27.5296
24.048
20.2838
15.8837
10.4074
3.02715
42.3518
38.8059
35.2828
31.8972
28.6808
25.6043
22.5915
19.517
16.2164
12.4404
8.11825
2.50606
35.9309
32.886
29.8489
26.9165
24.1196
21.4384
18.8132
16.1406
13.3001
10.1119
6.69181
2.14956
30.4742
27.8931
25.3079
22.7984
20.394
18.083
15.8207
13.5244
11.1101
8.43234
5.68947
1.88474
25.7503
23.5851
21.407
19.2817
17.2362
15.2652
13.3371
11.3856
9.35608
7.11211
4.88961
1.62682
21.5133
19.7223
17.9104
16.1354
14.4209
12.7655
11.1479
9.51442
7.83477
5.96615
4.16754
1.36377
17.4366
16.0115
14.5413
13.1015
11.7072
10.3594
9.04424
7.71619
6.36791
4.84152
3.41466
1.07268
12.8687
11.8543
10.7863
9.71926
8.68284
7.68091
6.70528
5.71399
4.73297
3.56977
2.54297
0.750244
5.73005
5.28095
4.80995
4.34193
3.88864
3.44768
3.01885
2.58528
2.15495
1.63978
1.19679
0.460792
26.3984
35.4145
37.4557
39.0393
41.4638
45.2547
50.5347
57.0874
64.2899
70.9757
75.5965
77.9727
12.9031
25.0397
28.4117
30.5191
33.0217
36.5462
41.2613
46.993
53.1965
58.8873
62.8364
64.9372
8.02597
18.2534
21.9046
24.2096
26.6435
29.826
33.9498
38.8846
44.171
49.0003
52.3846
54.2423
5.62828
13.7259
17.1841
19.4718
21.7509
24.5748
28.1397
32.3515
36.8304
40.9206
43.8174
45.4508
4.17253
10.5771
13.6846
15.8434
17.9272
20.4073
23.4709
27.0508
30.8351
34.2935
36.7651
38.1901
3.20356
8.28116
11.019
12.997
14.8714
17.0357
19.662
22.7016
25.8971
28.8163
30.9169
32.1503
2.49212
6.54148
8.92652
10.7015
12.3642
14.2416
16.4901
19.0729
21.7736
24.2328
26.0108
27.0715
1.93289
5.17652
7.23054
8.79112
10.2403
11.8527
13.7715
15.9681
18.2542
20.319
21.8167
22.7251
1.46838
4.06447
5.80413
7.13758
8.36426
9.72012
11.3408
13.2049
15.1395
16.8592
18.111
18.8874
1.05687
3.11032
4.53518
5.61462
6.59311
7.67866
9.00538
10.5651
12.1872
13.5923
14.6207
15.2801
0.668197
2.18941
3.25464
4.0149
4.67756
5.42687
6.40489
7.64351
8.924
10.0055
10.8229
11.3476
0.200821
0.896979
1.36565
1.67836
1.94392
2.27688
2.74375
3.34242
3.92018
4.39826
4.77052
5.00301
78.307
77.3743
75.9031
74.1909
72.2808
70.0773
67.4396
64.2176
60.2217
55.1189
47.744
32.2868
65.359
64.632
63.3287
61.7275
59.8805
57.7154
55.1099
51.9122
47.8887
42.5143
34.1042
14.541
54.7113
54.155
53.0164
51.5457
49.7995
47.7235
45.2118
42.1199
38.21
32.9649
25.0579
9.08143
45.9322
45.5091
44.5206
43.1858
41.5612
39.6063
37.2319
34.3099
30.6323
25.794
18.9596
6.76179
38.6576
38.3343
37.4775
36.276
34.7832
32.9694
30.7614
28.0537
24.6843
20.3789
14.6739
5.29312
32.5866
32.3358
31.5928
30.5183
29.1614
27.5002
25.4767
23.0096
19.9846
16.2384
11.536
4.19641
27.4668
27.268
26.6229
25.6686
24.4481
22.9458
21.1171
18.9029
16.2302
13.0156
9.14978
3.32931
23.0756
22.9141
22.3549
21.5147
20.4305
19.0911
17.463
15.5054
13.1771
10.4457
7.26602
2.61551
19.1925
19.0593
18.578
17.8492
16.9032
15.7319
14.3102
12.6116
10.6164
8.32212
5.71443
2.00049
15.5401
15.4307
15.0262
14.4131
13.6148
12.6245
11.4241
9.99747
8.33521
6.45475
4.35792
1.43913
11.5512
11.4658
11.1504
10.6788
10.0642
9.29939
8.37307
7.27684
5.99294
4.56655
3.01853
0.903467
5.07843
5.0162
4.8481
4.61688
4.32413
3.97548
3.56986
3.08548
2.52077
1.8871
1.19879
0.271707
34.7295
54.2679
62.1553
68.2502
73.8532
79.1082
83.8733
87.5806
89.9538
90.9289
90.0342
86.8154
19.9626
43.1835
52.3624
58.8443
64.4409
69.4721
73.7732
76.8702
78.6808
79.0735
77.627
74.2625
14.6322
35.0865
44.258
50.7066
56.0692
60.7118
64.4621
66.9939
68.3169
68.2591
66.534
63.2644
11.7273
28.9716
37.5121
43.6465
48.6384
52.8138
56.0192
58.0724
58.9815
58.6006
56.8043
53.7818
9.67164
24.1453
31.8335
37.5005
42.0531
45.7405
48.4561
50.1074
50.6815
50.1032
48.3747
45.6871
8.03518
20.1812
26.9863
32.1223
36.2121
39.432
41.7261
43.0404
43.3566
42.6865
41.1199
38.7967
6.64311
16.8146
22.7847
27.3795
31.0122
33.8076
35.7375
36.7737
36.9088
36.2282
34.8605
32.8949
5.4094
13.8665
19.0782
23.1464
26.3407
28.7516
30.3682
31.1822
31.1989
30.5569
29.39
27.758
4.30811
11.1899
15.7278
19.2853
22.0545
24.1094
25.4507
26.0842
26.0296
25.4504
24.4672
23.1402
3.26458
8.6737
12.5618
15.5907
17.9203
19.6213
20.7029
21.1795
21.0831
20.5763
19.7585
18.7132
2.2374
6.11632
9.20221
11.5737
13.367
14.654
15.4444
15.7623
15.6395
15.2186
14.5832
13.7987
0.800323
2.41581
3.93292
5.0573
5.90273
6.51307
6.88617
7.04012
6.97454
6.77902
6.49374
6.14257
81.9792
76.9249
72.0345
67.4035
63.0299
58.8214
54.6494
50.3942
45.9224
40.9514
34.5665
22.7007
69.635
64.7489
59.9681
55.4203
51.1206
47.0001
42.944
38.8071
34.3735
29.1616
21.7434
7.89504
59
54.4743
50.016
45.7619
41.7377
37.8907
34.1167
30.2619
26.0914
21.142
14.426
4.19947
49.9676
45.9119
41.8978
38.0555
34.4154
30.9375
27.5303
24.0488
20.2847
15.8848
10.4085
3.02792
42.3518
38.806
35.2829
31.8974
28.6812
25.6048
22.5922
19.5179
16.2174
12.4415
8.11942
2.50683
35.9309
32.886
29.8491
26.9167
24.12
21.4389
18.8139
16.1414
13.3011
10.1131
6.693
2.15032
30.4742
27.8931
25.3081
22.7986
20.3944
18.0835
15.8214
13.5253
11.1112
8.43353
5.69064
1.88546
25.7503
23.5851
21.4072
19.2819
17.2366
15.2657
13.3377
11.3864
9.35705
7.11325
4.89072
1.62751
21.5132
19.7223
17.9105
16.1356
14.4211
12.7659
11.1485
9.51513
7.83565
5.96719
4.16856
1.36441
17.4366
16.0115
14.5413
13.1016
11.7075
10.3598
9.0447
7.7168
6.36867
4.84241
3.41554
1.07325
12.8687
11.8543
10.7863
9.71937
8.68302
7.68116
6.70562
5.71447
4.73354
3.57045
2.54361
0.750694
5.73003
5.28095
4.80997
4.34197
3.88871
3.44779
3.019
2.58548
2.1552
1.6401
1.19708
0.461034
26.3988
35.4155
37.4571
39.0407
41.4653
45.2559
50.5357
57.0883
64.2906
70.9764
75.5971
77.9733
12.9037
25.041
28.4132
30.5208
33.0233
36.5476
41.2624
46.994
53.1974
58.8881
62.8371
64.9379
8.02661
18.2548
21.9063
24.2115
26.6452
29.8275
33.9511
38.8857
44.1719
49.0011
52.3854
54.243
5.62902
13.7275
17.1861
19.4739
21.7529
24.5765
28.1411
32.3527
36.8314
40.9215
43.8182
45.4516
4.17338
10.5789
13.6868
15.8456
17.9292
20.409
23.4724
27.052
30.8361
34.2944
36.766
38.1909
3.20449
8.28306
11.0213
12.9992
14.8735
17.0375
19.6635
22.7028
25.8982
28.8172
30.9178
32.1511
2.49312
6.54346
8.92882
10.7038
12.3663
14.2434
16.4916
19.0741
21.7747
24.2338
26.0117
27.0723
1.93395
5.17851
7.23282
8.79337
10.2423
11.8544
13.773
15.9693
18.2553
20.3199
21.8176
22.7259
1.46946
4.06639
5.8063
7.13969
8.36615
9.72172
11.3421
13.206
15.1405
16.8601
18.1118
18.8881
1.05793
3.11206
4.53712
5.61648
6.59475
7.68004
9.00652
10.566
12.188
13.593
14.6215
15.2809
0.669138
2.1908
3.25618
4.01634
4.67881
5.42791
6.40576
7.64425
8.92464
10.0061
10.8234
11.3482
0.201287
0.897603
1.36632
1.67899
1.94447
2.27734
2.74413
3.34274
3.92045
4.39852
4.77077
5.00325
)
;

boundaryField
{
    rotor
    {
        type            kqRWallFunction;
        value           nonuniform List<scalar> 
192
(
3.53211
4.69478
5.03693
4.99064
4.62274
4.27842
5.13777
13.844
28.7793
35.5494
38.7113
41.3281
42.6996
43.5544
43.6286
43.5924
42.8559
41.2827
38.8802
35.5449
31.1675
26.0123
19.4618
15.3334
3.11789
4.17825
4.55617
4.50935
4.26487
3.83683
4.25122
9.12504
23.8317
31.2898
34.521
36.9839
38.406
39.2572
39.451
39.4402
39.0483
37.6685
35.7002
32.7363
28.9189
24.1998
18.1695
14.2177
3.53203
4.69468
5.03684
4.99055
4.62267
4.27834
5.13762
13.8435
28.779
35.5492
38.711
41.3278
42.6993
43.5542
43.6284
43.5922
42.8557
41.2825
38.8801
35.5448
31.1674
26.0122
19.4618
15.3334
3.1179
4.17825
4.55617
4.50935
4.26488
3.83684
4.25122
9.12504
23.8317
31.2898
34.5211
36.984
38.4061
39.2573
39.451
39.4402
39.0484
37.6686
35.7002
32.7364
28.9189
24.1998
18.1696
14.2177
3.53211
7.47783
10.4815
13.7924
15.5632
16.6421
16.7928
17.1051
17.9065
19.8329
23.3077
65.5275
14.2177
33.0438
46.9165
58.3142
68.4911
78.5129
88.5138
100.06
113.218
127.342
144.005
166.015
3.11789
6.59541
9.18377
12.0912
13.7488
14.8162
15.1985
15.7628
16.7351
18.9118
22.2572
61.9317
15.3334
35.3898
50.0478
62.233
73.0171
83.6722
94.2717
106.599
120.286
134.781
151.352
172.044
3.53203
7.47771
10.4814
13.7921
15.5629
16.6418
16.7924
17.1048
17.9062
19.8328
23.3076
65.5274
14.2177
33.0437
46.9165
58.3141
68.491
78.5128
88.5137
100.059
113.218
127.342
144.005
166.015
3.1179
6.59541
9.18377
12.0912
13.7488
14.8162
15.1985
15.7628
16.7352
18.9118
22.2573
61.9316
15.3334
35.3897
50.0477
62.2329
73.017
83.672
94.2714
106.598
120.286
134.781
151.352
172.043
)
;
    }
    stator
    {
        type            kqRWallFunction;
        value           nonuniform List<scalar> 
192
(
5.07869
5.01644
4.84832
4.61708
4.32433
3.97567
3.57005
3.08567
2.52096
1.8873
1.19897
0.271914
0.800353
2.41586
3.93299
5.05738
5.90281
6.51315
6.88625
7.04019
6.97461
6.77908
6.49379
6.1426
5.73005
5.28095
4.80995
4.34193
3.88864
3.44768
3.01885
2.58528
2.15495
1.63978
1.19679
0.460792
0.200821
0.896979
1.36565
1.67836
1.94392
2.27688
2.74375
3.34242
3.92018
4.39826
4.77052
5.00301
5.07843
5.0162
4.8481
4.61688
4.32413
3.97548
3.56986
3.08548
2.52077
1.8871
1.19879
0.271707
0.800323
2.41581
3.93292
5.0573
5.90273
6.51307
6.88617
7.04012
6.97454
6.77902
6.49374
6.14257
5.73003
5.28095
4.80997
4.34197
3.88871
3.44779
3.019
2.58548
2.1552
1.6401
1.19708
0.461034
0.201287
0.897603
1.36632
1.67899
1.94447
2.27734
2.74413
3.34274
3.92045
4.39852
4.77077
5.00325
34.7295
19.9626
14.6322
11.7274
9.67172
8.03527
6.6432
5.40949
4.3082
3.26466
2.23746
0.800353
32.2869
14.5411
9.08156
6.76197
5.29335
4.19668
3.32962
2.61585
2.00086
1.43949
0.903824
0.271914
26.3984
12.9031
8.02597
5.62828
4.17253
3.20356
2.49212
1.93289
1.46838
1.05687
0.668197
0.200821
22.7004
7.8945
4.19877
3.02715
2.50606
2.14956
1.88474
1.62682
1.36377
1.07268
0.750244
0.460792
34.7295
19.9626
14.6322
11.7273
9.67164
8.03518
6.64311
5.4094
4.30811
3.26458
2.2374
0.800323
32.2868
14.541
9.08143
6.76179
5.29312
4.19641
3.32931
2.61551
2.00049
1.43913
0.903467
0.271707
26.3988
12.9037
8.02661
5.62902
4.17338
3.20449
2.49312
1.93395
1.46946
1.05793
0.669138
0.201287
22.7007
7.89504
4.19947
3.02792
2.50683
2.15032
1.88546
1.62751
1.36441
1.07325
0.750694
0.461034
)
;
    }
    front
    {
        type            empty;
    }
    back
    {
        type            empty;
    }
}


// ************************************************************************* //
