/*--------------------------------*- C++ -*----------------------------------*\
| =========                 |                                                 |
| \\      /  F ield         | OpenFOAM: The Open Source CFD Toolbox           |
|  \\    /   O peration     | Version:  2212                                  |
|   \\  /    A nd           | Website:  www.openfoam.com                      |
|    \\/     M anipulation  |                                                 |
\*---------------------------------------------------------------------------*/
FoamFile
{
    version     2.0;
    format      ascii;
    arch        "LSB;label=32;scalar=64";
    class       volScalarField;
    location    "0.1";
    object      nut;
}
// * * * * * * * * * * * * * * * * * * * * * * * * * * * * * * * * * * * * * //

dimensions      [0 2 -1 0 0 0 0];

internalField   nonuniform List<scalar> 
3072
(
0.000239248
0.000515479
0.00055423
0.000553814
0.000549702
0.000527047
0.000513867
0.000578817
0.00100442
0.00136449
0.00148608
0.00154123
0.000386644
0.00111821
0.00158595
0.00177742
0.00152267
0.000886115
0.000794117
0.00140834
0.0017226
0.00276143
0.00377373
0.00526325
0.000496316
0.00184254
0.0024855
0.00259275
0.00224335
0.00207526
0.00206062
0.00292783
0.00445763
0.00654248
0.0087444
0.0108737
0.000627418
0.00289644
0.00315615
0.00274331
0.00260241
0.00262292
0.00349205
0.00565916
0.00801292
0.0106709
0.0131879
0.0154144
0.000741012
0.00343644
0.00347073
0.00314153
0.00313822
0.00384993
0.00585112
0.00864614
0.0113466
0.0140787
0.0165962
0.0188165
0.000848295
0.00388818
0.00394234
0.00372654
0.00415811
0.00587067
0.00856729
0.0112987
0.0139675
0.0165911
0.0190063
0.0211652
0.000942243
0.00440214
0.00478443
0.00486706
0.00599591
0.00840303
0.0109682
0.0134946
0.0159782
0.0183455
0.020584
0.0226394
0.0010567
0.00554979
0.00660114
0.0074991
0.00934833
0.0114467
0.0135729
0.0157167
0.0178718
0.0199254
0.0218608
0.0236477
0.0011933
0.00751559
0.00988057
0.0118533
0.0136106
0.0152072
0.0167526
0.018299
0.0198753
0.0214148
0.022904
0.0243271
0.00138296
0.00903848
0.012545
0.0149561
0.016701
0.0180384
0.0191882
0.0202642
0.0213096
0.0223514
0.0234131
0.0245078
0.00156295
0.0084285
0.0135237
0.0164576
0.0183918
0.019585
0.0206698
0.0214442
0.0221495
0.0228546
0.023599
0.0244111
0.0026089
0.00793756
0.0142317
0.0176408
0.019316
0.0207981
0.0217347
0.0224027
0.0229374
0.0234413
0.0239745
0.0245802
0.00158405
0.00160494
0.0016171
0.00161895
0.00161961
0.00159429
0.00155599
0.00149094
0.00140184
0.00128046
0.00110096
0.000523959
0.00673642
0.00808959
0.009036
0.00944101
0.00926038
0.00877221
0.00793102
0.00677482
0.00524221
0.00320471
0.0015672
0.00090985
0.0127073
0.0141074
0.0149838
0.0153235
0.0151361
0.0144658
0.0132666
0.0115231
0.00920126
0.00630436
0.00280974
0.00121242
0.0172997
0.0187772
0.0198037
0.0203488
0.0203721
0.0198207
0.018615
0.0166489
0.0137505
0.0099307
0.00495083
0.00148076
0.0207273
0.0222956
0.0234915
0.0242796
0.0245995
0.0243437
0.0233613
0.0214399
0.018211
0.0135577
0.00729458
0.00174755
0.0230642
0.024687
0.0260125
0.0270081
0.0276159
0.0277422
0.0272068
0.0256842
0.0226801
0.0175048
0.0101237
0.00202072
0.0244787
0.0260972
0.027489
0.0286378
0.0295196
0.0300753
0.0301111
0.0292138
0.0266864
0.0215097
0.0131307
0.00230698
0.0252829
0.0267773
0.0281265
0.0293321
0.0304189
0.0313705
0.0320413
0.0319987
0.0302987
0.0253724
0.0160605
0.00262255
0.0256525
0.0268851
0.0281008
0.0293011
0.0304958
0.0317279
0.0329335
0.0337796
0.0332225
0.0290154
0.0187553
0.00297232
0.0255824
0.026594
0.0276253
0.0288009
0.030099
0.0315075
0.0330433
0.0345979
0.0352622
0.0324395
0.0218958
0.00334461
0.0253641
0.0264481
0.0273513
0.0282972
0.0295981
0.0311156
0.03277
0.034645
0.0362295
0.0353202
0.0256657
0.00375676
0.0253538
0.0264989
0.0275385
0.0283701
0.0294382
0.0308946
0.0324572
0.0343057
0.0362247
0.036974
0.02965
0.00423608
0.000239249
0.000515481
0.000554231
0.000553815
0.000549703
0.000527048
0.000513868
0.000578819
0.00100442
0.0013645
0.00148608
0.00154123
0.000386645
0.00111821
0.00158595
0.00177742
0.00152267
0.000886111
0.000794121
0.00140834
0.0017226
0.00276144
0.00377375
0.00526328
0.000496318
0.00184255
0.0024855
0.00259273
0.00224333
0.00207525
0.00206063
0.00292785
0.00445765
0.00654252
0.00874445
0.0108737
0.000627421
0.00289644
0.00315614
0.0027433
0.00260241
0.00262292
0.00349208
0.0056592
0.00801298
0.0106709
0.0131879
0.0154144
0.000741015
0.00343644
0.00347074
0.00314154
0.00313823
0.00384996
0.00585118
0.0086462
0.0113466
0.0140788
0.0165963
0.0188166
0.000848298
0.00388819
0.00394236
0.00372656
0.00415814
0.00587075
0.00856736
0.0112988
0.0139676
0.0165912
0.0190064
0.0211652
0.000942245
0.00440215
0.00478445
0.00486711
0.00599599
0.00840312
0.0109683
0.0134947
0.0159783
0.0183456
0.0205841
0.0226395
0.0010567
0.00554981
0.00660118
0.00749917
0.00934842
0.0114468
0.013573
0.0157168
0.0178719
0.0199255
0.0218609
0.0236478
0.0011933
0.0075156
0.00988062
0.0118534
0.0136107
0.0152073
0.0167526
0.0182991
0.0198753
0.0214149
0.0229041
0.0243272
0.00138296
0.00903848
0.0125451
0.0149562
0.0167011
0.0180384
0.0191883
0.0202642
0.0213097
0.0223515
0.0234131
0.0245079
0.00156295
0.0084285
0.0135237
0.0164576
0.0183918
0.0195851
0.0206698
0.0214442
0.0221496
0.0228547
0.023599
0.0244111
0.0026089
0.00793756
0.0142317
0.0176408
0.019316
0.0207982
0.0217347
0.0224027
0.0229374
0.0234413
0.0239746
0.0245802
0.00158405
0.00160494
0.0016171
0.00161895
0.00161961
0.00159429
0.00155599
0.00149094
0.00140184
0.00128046
0.00110096
0.000523959
0.00673645
0.00808962
0.00903603
0.00944104
0.0092604
0.00877224
0.00793104
0.00677483
0.00524221
0.00320472
0.0015672
0.00090985
0.0127073
0.0141074
0.0149839
0.0153236
0.0151362
0.0144658
0.0132666
0.0115232
0.00920128
0.00630437
0.00280974
0.00121242
0.0172997
0.0187772
0.0198038
0.0203489
0.0203721
0.0198207
0.0186151
0.016649
0.0137505
0.00993072
0.00495084
0.00148076
0.0207274
0.0222957
0.0234916
0.0242796
0.0245996
0.0243438
0.0233613
0.02144
0.018211
0.0135577
0.00729459
0.00174755
0.0230643
0.024687
0.0260125
0.0270082
0.0276159
0.0277422
0.0272069
0.0256843
0.0226801
0.0175048
0.0101237
0.00202073
0.0244788
0.0260973
0.0274891
0.0286379
0.0295197
0.0300753
0.0301112
0.0292139
0.0266864
0.0215097
0.0131307
0.00230698
0.025283
0.0267773
0.0281266
0.0293322
0.030419
0.0313706
0.0320413
0.0319987
0.0302988
0.0253724
0.0160605
0.00262256
0.0256526
0.0268852
0.0281009
0.0293012
0.0304959
0.031728
0.0329336
0.0337797
0.0332225
0.0290154
0.0187554
0.00297232
0.0255825
0.0265941
0.0276254
0.0288009
0.0300991
0.0315076
0.0330434
0.0345979
0.0352622
0.0324395
0.0218958
0.00334462
0.0253641
0.0264482
0.0273513
0.0282973
0.0295982
0.0311157
0.03277
0.0346451
0.0362296
0.0353202
0.0256657
0.00375676
0.0253539
0.026499
0.0275386
0.0283701
0.0294382
0.0308947
0.0324573
0.0343058
0.0362247
0.0369741
0.02965
0.00423609
0.000239249
0.000515482
0.000554232
0.000553816
0.000549704
0.00052705
0.000513869
0.00057882
0.00100442
0.0013645
0.00148608
0.00154123
0.000386646
0.00111821
0.00158596
0.00177743
0.00152268
0.000886115
0.000794122
0.00140835
0.00172261
0.00276144
0.00377375
0.00526328
0.000496319
0.00184255
0.00248551
0.00259275
0.00224335
0.00207526
0.00206063
0.00292786
0.00445766
0.00654253
0.00874445
0.0108737
0.000627422
0.00289645
0.00315616
0.00274332
0.00260242
0.00262293
0.00349209
0.00565921
0.00801299
0.0106709
0.0131879
0.0154144
0.000741016
0.00343646
0.00347075
0.00314155
0.00313824
0.00384997
0.00585119
0.00864621
0.0113467
0.0140788
0.0165963
0.0188166
0.000848299
0.0038882
0.00394237
0.00372658
0.00415814
0.00587076
0.00856738
0.0112988
0.0139676
0.0165912
0.0190064
0.0211652
0.000942246
0.00440216
0.00478447
0.00486712
0.005996
0.00840313
0.0109683
0.0134947
0.0159783
0.0183456
0.0205841
0.0226395
0.0010567
0.00554982
0.0066012
0.00749919
0.00934844
0.0114468
0.013573
0.0157169
0.0178719
0.0199255
0.0218609
0.0236478
0.00119331
0.00751561
0.00988064
0.0118534
0.0136107
0.0152073
0.0167527
0.0182991
0.0198754
0.0214149
0.0229041
0.0243272
0.00138296
0.00903849
0.0125451
0.0149562
0.0167011
0.0180384
0.0191883
0.0202643
0.0213097
0.0223515
0.0234132
0.0245079
0.00156295
0.0084285
0.0135237
0.0164576
0.0183918
0.0195851
0.0206698
0.0214442
0.0221496
0.0228547
0.0235991
0.0244111
0.0026089
0.00793756
0.0142317
0.0176408
0.019316
0.0207982
0.0217347
0.0224028
0.0229374
0.0234413
0.0239746
0.0245803
0.00158405
0.00160494
0.0016171
0.00161895
0.00161961
0.00159429
0.00155599
0.00149094
0.00140184
0.00128046
0.00110096
0.000523958
0.00673645
0.00808962
0.00903603
0.00944104
0.0092604
0.00877223
0.00793104
0.00677483
0.00524221
0.00320471
0.0015672
0.000909849
0.0127073
0.0141074
0.0149839
0.0153235
0.0151361
0.0144658
0.0132666
0.0115231
0.00920127
0.00630437
0.00280974
0.00121242
0.0172997
0.0187772
0.0198038
0.0203489
0.0203721
0.0198207
0.0186151
0.016649
0.0137505
0.00993071
0.00495083
0.00148076
0.0207274
0.0222957
0.0234916
0.0242796
0.0245996
0.0243438
0.0233613
0.02144
0.018211
0.0135577
0.00729458
0.00174755
0.0230643
0.024687
0.0260125
0.0270082
0.0276159
0.0277422
0.0272068
0.0256842
0.0226801
0.0175048
0.0101237
0.00202072
0.0244788
0.0260973
0.0274891
0.0286379
0.0295197
0.0300753
0.0301112
0.0292139
0.0266864
0.0215097
0.0131307
0.00230698
0.025283
0.0267773
0.0281266
0.0293322
0.030419
0.0313706
0.0320413
0.0319987
0.0302988
0.0253724
0.0160605
0.00262255
0.0256526
0.0268852
0.0281009
0.0293012
0.0304959
0.031728
0.0329336
0.0337797
0.0332225
0.0290154
0.0187553
0.00297232
0.0255825
0.0265941
0.0276254
0.0288009
0.0300991
0.0315076
0.0330434
0.0345979
0.0352622
0.0324395
0.0218958
0.00334461
0.0253642
0.0264482
0.0273513
0.0282973
0.0295982
0.0311157
0.03277
0.0346451
0.0362296
0.0353202
0.0256657
0.00375676
0.0253539
0.026499
0.0275386
0.0283701
0.0294382
0.0308947
0.0324572
0.0343058
0.0362247
0.036974
0.02965
0.00423608
0.000239248
0.00051548
0.00055423
0.000553814
0.000549702
0.000527047
0.000513867
0.000578817
0.00100442
0.0013645
0.00148608
0.00154123
0.000386644
0.00111821
0.00158595
0.00177742
0.00152267
0.000886113
0.000794117
0.00140834
0.0017226
0.00276143
0.00377373
0.00526326
0.000496317
0.00184254
0.0024855
0.00259274
0.00224334
0.00207525
0.00206062
0.00292784
0.00445764
0.0065425
0.00874442
0.0108737
0.00062742
0.00289644
0.00315614
0.0027433
0.00260241
0.00262292
0.00349207
0.00565918
0.00801295
0.0106709
0.0131879
0.0154144
0.000741013
0.00343644
0.00347073
0.00314153
0.00313823
0.00384995
0.00585115
0.00864617
0.0113466
0.0140787
0.0165962
0.0188165
0.000848296
0.00388818
0.00394235
0.00372655
0.00415812
0.00587072
0.00856733
0.0112988
0.0139675
0.0165912
0.0190063
0.0211652
0.000942244
0.00440215
0.00478445
0.00486709
0.00599596
0.00840309
0.0109683
0.0134947
0.0159783
0.0183456
0.0205841
0.0226394
0.0010567
0.0055498
0.00660117
0.00749916
0.0093484
0.0114468
0.0135729
0.0157168
0.0178719
0.0199255
0.0218608
0.0236477
0.0011933
0.0075156
0.00988061
0.0118534
0.0136107
0.0152073
0.0167526
0.0182991
0.0198753
0.0214149
0.022904
0.0243272
0.00138296
0.00903848
0.012545
0.0149562
0.0167011
0.0180384
0.0191882
0.0202642
0.0213097
0.0223515
0.0234131
0.0245078
0.00156295
0.00842849
0.0135237
0.0164576
0.0183918
0.0195851
0.0206698
0.0214442
0.0221496
0.0228547
0.023599
0.0244111
0.0026089
0.00793756
0.0142317
0.0176408
0.019316
0.0207982
0.0217347
0.0224027
0.0229374
0.0234413
0.0239746
0.0245802
0.00158405
0.00160494
0.0016171
0.00161895
0.00161961
0.00159429
0.00155599
0.00149094
0.00140184
0.00128046
0.00110096
0.000523958
0.00673643
0.0080896
0.00903601
0.00944102
0.00926039
0.00877222
0.00793103
0.00677483
0.00524221
0.00320471
0.0015672
0.000909849
0.0127073
0.0141074
0.0149838
0.0153235
0.0151361
0.0144658
0.0132666
0.0115231
0.00920126
0.00630437
0.00280974
0.00121242
0.0172997
0.0187772
0.0198037
0.0203488
0.0203721
0.0198207
0.018615
0.016649
0.0137505
0.00993071
0.00495083
0.00148076
0.0207274
0.0222957
0.0234915
0.0242796
0.0245995
0.0243437
0.0233613
0.02144
0.018211
0.0135577
0.00729458
0.00174755
0.0230643
0.024687
0.0260125
0.0270082
0.0276159
0.0277422
0.0272068
0.0256842
0.0226801
0.0175048
0.0101237
0.00202072
0.0244788
0.0260973
0.0274891
0.0286378
0.0295196
0.0300753
0.0301111
0.0292138
0.0266864
0.0215097
0.0131307
0.00230698
0.0252829
0.0267773
0.0281265
0.0293321
0.030419
0.0313705
0.0320413
0.0319987
0.0302987
0.0253724
0.0160605
0.00262255
0.0256526
0.0268851
0.0281008
0.0293012
0.0304958
0.031728
0.0329336
0.0337796
0.0332225
0.0290154
0.0187553
0.00297232
0.0255824
0.026594
0.0276253
0.0288009
0.030099
0.0315075
0.0330434
0.0345979
0.0352622
0.0324395
0.0218958
0.00334461
0.0253641
0.0264482
0.0273513
0.0282972
0.0295982
0.0311156
0.03277
0.034645
0.0362295
0.0353202
0.0256656
0.00375676
0.0253539
0.026499
0.0275386
0.0283701
0.0294382
0.0308947
0.0324572
0.0343058
0.0362247
0.036974
0.02965
0.00423608
0.0156998
0.0162856
0.017748
0.0193009
0.0206553
0.0219155
0.0227495
0.0233583
0.0238158
0.0242319
0.0246606
0.0251475
0.0253479
0.0231158
0.0223961
0.0224655
0.0229065
0.0233551
0.0237882
0.0243442
0.0248465
0.0252501
0.0256443
0.0260816
0.0320024
0.0294594
0.027611
0.0265166
0.0259877
0.0257668
0.025838
0.0259964
0.0261736
0.0263886
0.0268041
0.0273059
0.0340034
0.0322431
0.0306306
0.0292922
0.0284214
0.0278945
0.0276587
0.0275773
0.0277497
0.0279763
0.0283061
0.0288179
0.0258593
0.0269902
0.0280697
0.0289148
0.0298797
0.0311082
0.0324154
0.0339612
0.0358038
0.0379771
0.0381185
0.0175935
0.0268889
0.0279582
0.0289455
0.0298459
0.0307985
0.0316662
0.0326367
0.0337319
0.0351579
0.0371908
0.0407579
0.0294874
0.0282914
0.0291281
0.0299909
0.0307652
0.0315317
0.0321973
0.0329793
0.0337629
0.0347043
0.0361102
0.0393915
0.0351799
0.0298544
0.0305927
0.0312768
0.0319053
0.0324009
0.0329035
0.0334707
0.033978
0.0346088
0.0353308
0.0370906
0.036027
0.0156998
0.0162856
0.017748
0.0193009
0.0206553
0.0219155
0.0227495
0.0233583
0.0238158
0.0242319
0.0246606
0.0251475
0.0253478
0.0231158
0.0223962
0.0224655
0.0229065
0.0233552
0.0237882
0.0243442
0.0248465
0.0252501
0.0256443
0.0260816
0.0320025
0.0294594
0.027611
0.0265166
0.0259877
0.0257668
0.025838
0.0259965
0.0261736
0.0263886
0.0268041
0.0273059
0.0340035
0.0322431
0.0306307
0.0292922
0.0284214
0.0278945
0.0276587
0.0275773
0.0277497
0.0279763
0.0283061
0.0288179
0.0258593
0.0269902
0.0280697
0.0289149
0.0298797
0.0311082
0.0324155
0.0339612
0.0358039
0.0379771
0.0381185
0.0175936
0.026889
0.0279582
0.0289455
0.0298459
0.0307985
0.0316662
0.0326367
0.033732
0.035158
0.0371908
0.0407579
0.0294874
0.0282914
0.0291281
0.0299909
0.0307652
0.0315317
0.0321973
0.0329793
0.0337629
0.0347043
0.0361103
0.0393915
0.0351799
0.0298544
0.0305927
0.0312768
0.0319053
0.0324009
0.0329035
0.0334708
0.033978
0.0346088
0.0353308
0.0370906
0.036027
0.0156998
0.0162856
0.017748
0.0193009
0.0206553
0.0219155
0.0227496
0.0233583
0.0238158
0.024232
0.0246606
0.0251475
0.0253479
0.0231158
0.0223962
0.0224655
0.0229065
0.0233552
0.0237882
0.0243443
0.0248465
0.0252501
0.0256444
0.0260816
0.0320025
0.0294594
0.027611
0.0265166
0.0259877
0.0257669
0.025838
0.0259965
0.0261736
0.0263887
0.0268041
0.0273059
0.0340035
0.0322432
0.0306307
0.0292923
0.0284214
0.0278946
0.0276587
0.0275774
0.0277497
0.0279763
0.0283061
0.0288179
0.0258594
0.0269902
0.0280697
0.0289149
0.0298797
0.0311082
0.0324154
0.0339612
0.0358039
0.0379771
0.0381185
0.0175935
0.026889
0.0279582
0.0289455
0.0298459
0.0307985
0.0316662
0.0326367
0.0337319
0.0351579
0.0371908
0.0407579
0.0294874
0.0282914
0.0291281
0.0299909
0.0307652
0.0315317
0.0321973
0.0329793
0.0337629
0.0347043
0.0361103
0.0393915
0.0351799
0.0298544
0.0305927
0.0312768
0.0319053
0.0324009
0.0329035
0.0334707
0.033978
0.0346088
0.0353308
0.0370906
0.036027
0.0156998
0.0162856
0.017748
0.0193009
0.0206553
0.0219155
0.0227495
0.0233583
0.0238158
0.0242319
0.0246606
0.0251475
0.0253479
0.0231158
0.0223962
0.0224655
0.0229065
0.0233552
0.0237882
0.0243443
0.0248465
0.0252501
0.0256444
0.0260816
0.0320025
0.0294594
0.027611
0.0265166
0.0259877
0.0257668
0.025838
0.0259965
0.0261736
0.0263886
0.0268041
0.0273059
0.0340035
0.0322431
0.0306307
0.0292922
0.0284214
0.0278946
0.0276587
0.0275773
0.0277497
0.0279763
0.0283061
0.0288179
0.0258593
0.0269902
0.0280697
0.0289149
0.0298797
0.0311082
0.0324154
0.0339612
0.0358038
0.037977
0.0381184
0.0175935
0.026889
0.0279582
0.0289455
0.0298459
0.0307985
0.0316662
0.0326367
0.0337319
0.0351579
0.0371908
0.0407579
0.0294873
0.0282914
0.0291281
0.0299909
0.0307652
0.0315317
0.0321973
0.0329792
0.0337629
0.0347042
0.0361102
0.0393915
0.0351798
0.0298544
0.0305927
0.0312768
0.0319053
0.0324009
0.0329034
0.0334707
0.033978
0.0346088
0.0353308
0.0370906
0.0360269
0.0316506
0.0305081
0.0295517
0.0289182
0.0285608
0.0284214
0.0283646
0.0284243
0.0287252
0.0291306
0.0298305
0.0308978
0.0301013
0.0293682
0.0287786
0.0284376
0.0282269
0.0280299
0.0277886
0.0276659
0.0275948
0.0276316
0.0280255
0.0290701
0.0286054
0.0280381
0.0275899
0.0272358
0.0267566
0.0261565
0.0255377
0.0248103
0.0239695
0.023129
0.0226069
0.0231362
0.0267607
0.0262549
0.0256158
0.0249189
0.0239993
0.0229424
0.0216844
0.0201526
0.0183806
0.0164992
0.0148319
0.0138786
0.0322249
0.0331064
0.0331832
0.0334267
0.0335972
0.0338031
0.0339985
0.0341635
0.0343286
0.0344933
0.034085
0.03317
0.0307495
0.0332502
0.0330905
0.0331512
0.033205
0.0332582
0.033288
0.0332606
0.0330742
0.0326599
0.0321352
0.0312142
0.0256659
0.031505
0.0319604
0.0320014
0.0320268
0.0320262
0.0319717
0.0317076
0.0313255
0.0309252
0.0303923
0.0294291
0.0147568
0.0285572
0.0303173
0.0304027
0.0304231
0.0303252
0.0300974
0.0297436
0.0294527
0.0290498
0.0283916
0.0274833
0.0316507
0.0305081
0.0295517
0.0289183
0.0285608
0.0284214
0.0283646
0.0284243
0.0287252
0.0291306
0.0298305
0.0308978
0.0301014
0.0293682
0.0287787
0.0284377
0.0282269
0.0280299
0.0277887
0.0276659
0.0275948
0.0276316
0.0280255
0.0290701
0.0286055
0.0280382
0.0275899
0.0272358
0.0267566
0.0261565
0.0255377
0.0248103
0.0239695
0.023129
0.0226069
0.0231362
0.0267608
0.026255
0.0256158
0.0249189
0.0239994
0.0229425
0.0216844
0.0201526
0.0183807
0.0164992
0.0148319
0.0138786
0.0322249
0.0331064
0.0331832
0.0334267
0.0335972
0.0338032
0.0339985
0.0341636
0.0343286
0.0344933
0.0340851
0.03317
0.0307495
0.0332502
0.0330905
0.0331512
0.033205
0.0332583
0.0332881
0.0332606
0.0330742
0.0326599
0.0321352
0.0312142
0.0256659
0.031505
0.0319604
0.0320015
0.0320268
0.0320262
0.0319717
0.0317076
0.0313255
0.0309252
0.0303923
0.0294291
0.0147568
0.0285572
0.0303173
0.0304027
0.0304231
0.0303252
0.0300974
0.0297436
0.0294527
0.0290498
0.0283916
0.0274833
0.0316507
0.0305081
0.0295518
0.0289183
0.0285608
0.0284214
0.0283646
0.0284243
0.0287252
0.0291306
0.0298305
0.0308978
0.0301014
0.0293682
0.0287787
0.0284377
0.0282269
0.0280299
0.0277886
0.0276659
0.0275948
0.0276316
0.0280255
0.0290701
0.0286055
0.0280382
0.0275899
0.0272358
0.0267566
0.0261565
0.0255377
0.0248103
0.0239695
0.023129
0.0226069
0.0231362
0.0267607
0.0262549
0.0256158
0.0249189
0.0239993
0.0229424
0.0216844
0.0201526
0.0183806
0.0164992
0.0148319
0.0138786
0.0322249
0.0331064
0.0331832
0.0334267
0.0335972
0.0338031
0.0339985
0.0341635
0.0343286
0.0344933
0.034085
0.03317
0.0307495
0.0332502
0.0330904
0.0331512
0.033205
0.0332582
0.033288
0.0332606
0.0330742
0.0326599
0.0321352
0.0312142
0.0256659
0.031505
0.0319604
0.0320014
0.0320268
0.0320262
0.0319716
0.0317076
0.0313255
0.0309252
0.0303923
0.0294291
0.0147568
0.0285572
0.0303173
0.0304027
0.0304231
0.0303252
0.0300974
0.0297436
0.0294527
0.0290498
0.0283916
0.0274833
0.0316507
0.0305081
0.0295517
0.0289183
0.0285608
0.0284214
0.0283646
0.0284243
0.0287252
0.0291306
0.0298305
0.0308977
0.0301014
0.0293682
0.0287787
0.0284377
0.0282269
0.0280299
0.0277886
0.0276659
0.0275948
0.0276316
0.0280255
0.0290701
0.0286054
0.0280381
0.0275899
0.0272358
0.0267566
0.0261565
0.0255377
0.0248103
0.0239695
0.023129
0.0226069
0.0231362
0.0267607
0.0262549
0.0256158
0.0249189
0.0239993
0.0229424
0.0216844
0.0201526
0.0183806
0.0164992
0.0148319
0.0138786
0.0322249
0.0331063
0.0331832
0.0334267
0.0335972
0.0338031
0.0339984
0.0341635
0.0343286
0.0344933
0.034085
0.03317
0.0307495
0.0332502
0.0330904
0.0331512
0.033205
0.0332582
0.033288
0.0332605
0.0330742
0.0326599
0.0321352
0.0312143
0.0256659
0.031505
0.0319604
0.0320014
0.0320267
0.0320262
0.0319716
0.0317076
0.0313254
0.0309252
0.0303923
0.0294292
0.0147568
0.0285572
0.0303172
0.0304027
0.0304231
0.0303251
0.0300974
0.0297436
0.0294527
0.0290497
0.0283916
0.0274834
0.024408
0.0236658
0.0226943
0.0216073
0.0202743
0.0186956
0.0167886
0.0145094
0.0118637
0.00893407
0.00545829
0.00282681
0.02134
0.0202926
0.0190184
0.0175573
0.0158082
0.0137621
0.01136
0.0086099
0.00548705
0.00266601
0.00123237
0.0011996
0.0176351
0.01628
0.014681
0.012838
0.0106783
0.00820378
0.00528871
0.00238155
0.000745443
0.000379203
0.000402966
0.00051243
0.0133421
0.0116646
0.00972598
0.00749472
0.00483748
0.00214195
0.000530126
0.000196842
0.000167427
0.000264966
0.00022708
0.000247981
0.0085201
0.00648502
0.00411422
0.00179123
0.000460515
0.000183833
0.000170615
0.000219149
0.00020366
0.000202304
0.000198594
0.000195788
0.00313579
0.00130665
0.000397809
0.000297201
0.000195662
0.000212946
0.000209444
0.00020696
0.000205715
0.000203271
0.000201995
0.000200658
0.000308631
0.000796484
0.000210082
0.000217725
0.00021669
0.000215145
0.000213542
0.000211438
0.000209564
0.000208168
0.000207411
0.000206431
0.000220521
0.000225424
0.000221923
0.000221726
0.000220957
0.000219755
0.000217977
0.000216211
0.000214772
0.000213743
0.000213065
0.000212251
0.000225057
0.000224582
0.000224206
0.000223824
0.000223331
0.000222681
0.000221795
0.000220689
0.000219422
0.000218157
0.000217168
0.000216665
0.0002225
0.000222422
0.000222343
0.000222285
0.000222063
0.000221686
0.000221026
0.000220142
0.000219061
0.00021797
0.000217079
0.000216678
0.00018971
0.000191177
0.000193006
0.000194497
0.00019606
0.000197391
0.000198673
0.000199862
0.000201074
0.000202373
0.000203888
0.000205377
6.10705e-05
6.02228e-05
6.03205e-05
5.96588e-05
5.9733e-05
5.92274e-05
5.92965e-05
5.89678e-05
5.90436e-05
5.894e-05
5.90224e-05
5.90902e-05
0.00432206
0.0246896
0.0284508
0.0284626
0.0284004
0.0281442
0.0278645
0.0276375
0.0273326
0.026836
0.0260268
0.0251606
0.00415896
0.0226772
0.0264198
0.0260934
0.025914
0.0256911
0.0255109
0.0252706
0.0248278
0.0241159
0.0232126
0.0222654
0.00405101
0.0207173
0.0238003
0.0234367
0.0232805
0.0231303
0.0228687
0.0224543
0.0217836
0.0208596
0.0198713
0.0188013
0.00393046
0.018529
0.0208362
0.0207066
0.0205305
0.0202184
0.0198041
0.0190962
0.0182037
0.0171803
0.0160512
0.0147832
0.00377419
0.0161834
0.0179051
0.0177648
0.017443
0.0169044
0.0161772
0.0152975
0.014268
0.0130836
0.0117576
0.0102476
0.00355344
0.0137851
0.0150328
0.0145137
0.0139153
0.0131351
0.0122448
0.0111672
0.00999244
0.00860875
0.00702869
0.00518009
0.00328376
0.0108309
0.0118748
0.0106789
0.0101576
0.00909167
0.00806852
0.00670295
0.00528439
0.00362829
0.00210305
0.00082375
0.00292559
0.00761761
0.00831689
0.00664544
0.00614426
0.00457423
0.00353457
0.00210075
0.00117121
0.000438461
0.000243277
0.000494334
0.00238475
0.00376095
0.0041478
0.00247254
0.00215481
0.00089988
0.000636308
0.000347678
0.000232365
0.000240729
0.000223674
0.000226725
0.00177244
0.000875951
0.0010134
0.000400696
0.000364112
0.000280069
0.000218885
0.000217479
0.000223014
0.000222608
0.000223132
0.000222771
0.0011535
0.000153567
0.000185791
0.000155031
0.000167795
0.000164861
0.000177915
0.000178353
0.000181468
0.000183817
0.000185965
0.000187511
0.000400156
7.43095e-05
7.21518e-05
6.83624e-05
6.77413e-05
6.52975e-05
6.53099e-05
6.3081e-05
6.34041e-05
6.18315e-05
6.20536e-05
6.09241e-05
0.024408
0.0236658
0.0226944
0.0216073
0.0202744
0.0186957
0.0167886
0.0145094
0.0118637
0.00893407
0.0054583
0.00282682
0.0213401
0.0202927
0.0190184
0.0175573
0.0158082
0.0137621
0.01136
0.00860992
0.00548706
0.00266601
0.00123237
0.0011996
0.0176352
0.0162801
0.014681
0.012838
0.0106784
0.0082038
0.00528873
0.00238157
0.000745448
0.000379208
0.000402969
0.000512433
0.0133422
0.0116647
0.00972601
0.00749475
0.00483751
0.00214198
0.000530134
0.000196848
0.000167431
0.00026497
0.000227085
0.000247985
0.00852013
0.00648505
0.00411426
0.00179125
0.000460524
0.000183838
0.000170616
0.00021915
0.000203662
0.000202307
0.000198596
0.000195791
0.00313581
0.00130666
0.000397819
0.000297271
0.000195661
0.000212945
0.000209443
0.000206959
0.000205716
0.000203271
0.000201994
0.000200658
0.000308623
0.000796612
0.00021008
0.000217725
0.000216689
0.000215144
0.000213541
0.000211437
0.000209563
0.000208167
0.00020741
0.00020643
0.00022052
0.000225423
0.000221922
0.000221726
0.000220956
0.000219754
0.000217976
0.00021621
0.000214771
0.000213742
0.000213065
0.00021225
0.000225057
0.000224581
0.000224206
0.000223823
0.00022333
0.000222681
0.000221794
0.000220688
0.000219422
0.000218157
0.000217167
0.000216665
0.0002225
0.000222422
0.000222343
0.000222285
0.000222063
0.000221686
0.000221026
0.000220142
0.000219061
0.00021797
0.000217079
0.000216677
0.000189709
0.000191177
0.000193006
0.000194497
0.00019606
0.000197391
0.000198673
0.000199862
0.000201074
0.000202373
0.000203888
0.000205377
6.10705e-05
6.02228e-05
6.03205e-05
5.96588e-05
5.9733e-05
5.92274e-05
5.92965e-05
5.89678e-05
5.90436e-05
5.894e-05
5.90224e-05
5.90903e-05
0.00432206
0.0246896
0.0284508
0.0284626
0.0284004
0.0281442
0.0278645
0.0276375
0.0273326
0.026836
0.0260268
0.0251606
0.00415896
0.0226772
0.0264198
0.0260933
0.025914
0.0256911
0.0255109
0.0252706
0.0248278
0.0241159
0.0232126
0.0222654
0.00405101
0.0207173
0.0238003
0.0234367
0.0232805
0.0231303
0.0228687
0.0224543
0.0217835
0.0208595
0.0198712
0.0188013
0.00393045
0.018529
0.0208362
0.0207066
0.0205305
0.0202184
0.0198041
0.0190962
0.0182037
0.0171803
0.0160512
0.0147832
0.00377418
0.0161834
0.0179051
0.0177648
0.0174429
0.0169044
0.0161772
0.0152975
0.014268
0.0130836
0.0117575
0.0102475
0.00355343
0.013785
0.0150327
0.0145136
0.0139153
0.013135
0.0122447
0.0111671
0.0099924
0.00860871
0.00702865
0.00518005
0.00328375
0.0108308
0.0118747
0.0106788
0.0101576
0.00909161
0.00806846
0.0067029
0.00528434
0.00362825
0.00210302
0.000823734
0.00292558
0.00761756
0.00831683
0.00664537
0.00614419
0.00457416
0.00353451
0.0021007
0.00117119
0.000438448
0.000243277
0.000494318
0.00238474
0.00376088
0.00414773
0.00247249
0.00215476
0.000899852
0.000636291
0.000347679
0.000232364
0.000240728
0.000223675
0.000226725
0.00177243
0.000875928
0.00101337
0.000400685
0.000364102
0.000280066
0.000218885
0.000217479
0.000223014
0.000222609
0.000223132
0.000222771
0.00115349
0.000153565
0.000185789
0.000155031
0.000167796
0.000164861
0.000177916
0.000178353
0.000181469
0.000183818
0.000185965
0.000187511
0.000400152
7.43096e-05
7.21517e-05
6.83624e-05
6.77413e-05
6.52975e-05
6.53099e-05
6.3081e-05
6.34041e-05
6.18315e-05
6.20536e-05
6.09241e-05
0.024408
0.0236658
0.0226943
0.0216073
0.0202743
0.0186956
0.0167886
0.0145094
0.0118637
0.00893407
0.00545829
0.00282681
0.02134
0.0202926
0.0190184
0.0175573
0.0158082
0.0137621
0.01136
0.0086099
0.00548705
0.00266601
0.00123237
0.0011996
0.0176351
0.01628
0.014681
0.012838
0.0106783
0.00820377
0.0052887
0.00238156
0.000745446
0.000379207
0.000402969
0.000512432
0.0133421
0.0116646
0.00972598
0.00749471
0.00483747
0.00214195
0.00053013
0.000196848
0.000167432
0.000264968
0.000227085
0.000247985
0.00852009
0.00648501
0.00411422
0.00179122
0.000460516
0.000183836
0.000170618
0.000219151
0.000203663
0.000202307
0.000198597
0.000195792
0.00313577
0.00130664
0.000397813
0.000297273
0.000195662
0.000212946
0.000209443
0.00020696
0.000205716
0.000203271
0.000201995
0.000200658
0.000308619
0.000796615
0.000210081
0.000217725
0.00021669
0.000215145
0.000213541
0.000211437
0.000209563
0.000208168
0.000207411
0.00020643
0.000220521
0.000225424
0.000221923
0.000221726
0.000220957
0.000219754
0.000217977
0.000216211
0.000214771
0.000213743
0.000213065
0.00021225
0.000225057
0.000224582
0.000224206
0.000223824
0.000223331
0.000222681
0.000221795
0.000220689
0.000219422
0.000218157
0.000217168
0.000216665
0.0002225
0.000222422
0.000222343
0.000222286
0.000222063
0.000221686
0.000221026
0.000220142
0.000219061
0.00021797
0.000217079
0.000216678
0.000189709
0.000191177
0.000193007
0.000194498
0.000196061
0.000197392
0.000198674
0.000199863
0.000201074
0.000202374
0.000203889
0.000205377
6.10705e-05
6.02229e-05
6.03206e-05
5.96589e-05
5.97331e-05
5.92275e-05
5.92966e-05
5.89679e-05
5.90437e-05
5.89402e-05
5.90226e-05
5.90904e-05
0.00432206
0.0246895
0.0284507
0.0284626
0.0284004
0.0281442
0.0278645
0.0276375
0.0273326
0.026836
0.0260268
0.0251605
0.00415896
0.0226772
0.0264198
0.0260933
0.025914
0.0256911
0.0255109
0.0252706
0.0248278
0.0241159
0.0232126
0.0222654
0.00405101
0.0207173
0.0238003
0.0234367
0.0232805
0.0231303
0.0228687
0.0224543
0.0217835
0.0208595
0.0198712
0.0188013
0.00393045
0.018529
0.0208361
0.0207066
0.0205305
0.0202184
0.0198041
0.0190962
0.0182037
0.0171803
0.0160512
0.0147832
0.00377419
0.0161834
0.0179051
0.0177648
0.0174429
0.0169044
0.0161772
0.0152975
0.014268
0.0130836
0.0117575
0.0102475
0.00355343
0.013785
0.0150327
0.0145136
0.0139153
0.013135
0.0122447
0.0111671
0.0099924
0.0086087
0.00702865
0.00518005
0.00328375
0.0108308
0.0118747
0.0106788
0.0101576
0.00909161
0.00806846
0.0067029
0.00528434
0.00362825
0.00210302
0.000823734
0.00292559
0.00761756
0.00831683
0.00664537
0.00614419
0.00457416
0.00353452
0.0021007
0.00117119
0.000438442
0.000243282
0.000494312
0.00238474
0.00376088
0.00414773
0.00247249
0.00215476
0.000899853
0.000636292
0.000347679
0.000232364
0.000240729
0.000223675
0.000226725
0.00177243
0.000875925
0.00101337
0.000400684
0.000364102
0.000280066
0.000218885
0.000217479
0.000223014
0.000222609
0.000223132
0.000222771
0.00115349
0.000153564
0.000185788
0.000155031
0.000167795
0.000164861
0.000177916
0.000178353
0.000181469
0.000183817
0.000185965
0.000187511
0.000400155
7.43098e-05
7.21517e-05
6.83625e-05
6.77414e-05
6.52975e-05
6.531e-05
6.3081e-05
6.34042e-05