/*--------------------------------*- C++ -*----------------------------------*\
| =========                 |                                                 |
| \\      /  F ield         | OpenFOAM: The Open Source CFD Toolbox           |
|  \\    /   O peration     | Version:  2212                                  |
|   \\  /    A nd           | Website:  www.openfoam.com                      |
|    \\/     M anipulation  |                                                 |
\*---------------------------------------------------------------------------*/
FoamFile
{
    version     2.0;
    format      ascii;
    arch        "LSB;label=32;scalar=64";
    class       volScalarField;
    location    "0.1";
    object      nut;
}
// * * * * * * * * * * * * * * * * * * * * * * * * * * * * * * * * * * * * * //

dimensions      [0 2 -1 0 0 0 0];

internalField   nonuniform List<scalar> 
3072
(
0.000293623
0.000619816
0.000642005
0.000639048
0.000615042
0.000591694
0.000648399
0.00106435
0.0015346
0.00170558
0.00177981
0.00183898
0.000477381
0.00122995
0.00167734
0.00158728
0.00101347
0.000857597
0.00156914
0.00195551
0.00301698
0.00422276
0.0059407
0.00773026
0.000624572
0.00224306
0.002719
0.00233899
0.00209071
0.00227032
0.00349618
0.00515688
0.00751368
0.0102439
0.0128557
0.0152234
0.000784592
0.00321587
0.00311005
0.00276893
0.00302628
0.00441254
0.00680941
0.00951517
0.0126063
0.0157031
0.0184713
0.0208873
0.000905824
0.00391463
0.00399684
0.00393376
0.00504966
0.00753102
0.0104398
0.0135491
0.0167847
0.0198598
0.0226033
0.0249899
0.00101156
0.00481448
0.00544349
0.0058086
0.00767269
0.0104934
0.013552
0.016699
0.0198455
0.0228028
0.0254594
0.0277821
0.00109132
0.00545517
0.00666181
0.00782972
0.0102375
0.0131845
0.0161908
0.0192312
0.022178
0.0249246
0.0274039
0.0295923
0.00117733
0.00647346
0.00827897
0.0103993
0.0131297
0.016002
0.0188483
0.0216287
0.0242456
0.0266504
0.0288189
0.0307343
0.00128226
0.00762905
0.010867
0.0138319
0.016627
0.0192009
0.0215994
0.023839
0.0258979
0.0277821
0.0295134
0.0310808
0.00143121
0.00909255
0.0135885
0.016849
0.0194495
0.021575
0.0234269
0.0251053
0.0266459
0.0280868
0.0294624
0.0307649
0.00164014
0.00886893
0.0148865
0.0183593
0.0207347
0.0226636
0.024278
0.025673
0.0269459
0.0281318
0.0292613
0.0303609
0.00289864
0.00878949
0.0158545
0.0196465
0.021819
0.023681
0.0251482
0.0263618
0.0274339
0.02841
0.0293226
0.0301958
0.00186925
0.00188787
0.00188947
0.00188869
0.00187267
0.00183797
0.00178369
0.00170547
0.001597
0.00145896
0.00126196
0.000611776
0.00947349
0.0109064
0.0117692
0.0119729
0.0116639
0.0109494
0.00982122
0.00830867
0.00641356
0.00390758
0.00186422
0.00103852
0.0171998
0.0186168
0.0193448
0.0194307
0.019002
0.017988
0.0163809
0.0141401
0.0112422
0.00767639
0.00342309
0.00136478
0.022862
0.0243265
0.0252209
0.0255531
0.0252964
0.0243792
0.0227178
0.0201641
0.016586
0.0118816
0.00588928
0.00166661
0.0269706
0.0285047
0.0295592
0.030104
0.0300911
0.0294468
0.0280334
0.0256101
0.0217307
0.0161852
0.00864889
0.00196204
0.0297428
0.0313195
0.0324959
0.0332489
0.0335522
0.0333286
0.0323847
0.0303597
0.0267053
0.0206772
0.0118551
0.00226817
0.0314665
0.0330082
0.0342119
0.0350888
0.0356518
0.0358548
0.0355166
0.0342015
0.0311071
0.0250611
0.0152455
0.00258573
0.0323842
0.0337643
0.0348886
0.0357996
0.0365313
0.0370865
0.0373509
0.0369075
0.0347604
0.029103
0.0183595
0.00293908
0.0324721
0.0336827
0.0347284
0.0356368
0.0364589
0.0372493
0.0379945
0.0384133
0.0375003
0.0327945
0.0211965
0.00332336
0.0319713
0.0330546
0.0340347
0.0349205
0.0357736
0.0366738
0.037686
0.0387521
0.0391232
0.0360906
0.0244036
0.00373098
0.0313997
0.0323706
0.0332752
0.0340995
0.0348801
0.035694
0.0367492
0.0380542
0.0392621
0.0382406
0.0280991
0.00417951
0.0310308
0.0318278
0.0325906
0.0333374
0.0341106
0.034836
0.0355784
0.0368111
0.0384503
0.0392274
0.0320114
0.0046968
0.000275869
0.000584726
0.000610597
0.000607452
0.000590756
0.000560327
0.000589809
0.000864117
0.00139647
0.00160013
0.00168073
0.00173965
0.00044833
0.00116142
0.00162034
0.00161072
0.00111067
0.000698653
0.00136869
0.00170758
0.0025199
0.00368495
0.0051977
0.00683948
0.00058463
0.00209153
0.00268448
0.00239534
0.00211287
0.00202956
0.00289795
0.00437316
0.00642657
0.00898444
0.0114542
0.0136912
0.000734613
0.00309931
0.00307386
0.00267813
0.00271693
0.00355044
0.00571771
0.00823526
0.0110659
0.0140125
0.0166582
0.0189708
0.000851386
0.00367748
0.00367676
0.0034814
0.00414212
0.00623568
0.00908786
0.0119513
0.0149922
0.0179199
0.0205395
0.0228277
0.000954451
0.00441908
0.0048279
0.00495119
0.00648503
0.0091722
0.0120602
0.0150121
0.0179116
0.0207117
0.0232399
0.025461
0.00103823
0.00505444
0.00596684
0.00689222
0.00909836
0.0118886
0.0147149
0.0175164
0.0202566
0.0228175
0.0251373
0.0271964
0.00113019
0.00611385
0.00770144
0.00967448
0.0121814
0.014821
0.0174134
0.0199297
0.0223311
0.0245412
0.0265346
0.028305
0.00123961
0.00743759
0.0104375
0.0131975
0.0157189
0.0180182
0.0201456
0.0221288
0.0239673
0.0256855
0.0272325
0.0286338
0.00139758
0.00899525
0.0130666
0.0160002
0.0183389
0.0202121
0.0218377
0.023302
0.0246621
0.025964
0.0271827
0.0283265
0.00160275
0.00856227
0.0141203
0.0173156
0.0194669
0.0211703
0.022575
0.0237858
0.0248899
0.0259381
0.0269453
0.0279195
0.00281799
0.00830332
0.0149213
0.0184242
0.0203161
0.0219494
0.0232117
0.0242677
0.0252148
0.0260965
0.0269397
0.0277593
0.00177278
0.00179232
0.00179673
0.00179649
0.00178754
0.00175568
0.00170919
0.0016367
0.00153832
0.00140722
0.00121935
0.000589098
0.00851318
0.00990969
0.0107959
0.0110534
0.0107496
0.0101142
0.00908837
0.00772314
0.00597616
0.0036663
0.00177489
0.00100351
0.0156143
0.0170033
0.0177544
0.0179046
0.0175315
0.0166268
0.015167
0.0131192
0.0104622
0.00717327
0.00322589
0.0013214
0.0208906
0.0223235
0.0232334
0.0236089
0.0234255
0.0226194
0.0211122
0.0187739
0.0154789
0.0111446
0.00555308
0.00161329
0.0247458
0.0262485
0.0273074
0.0278899
0.0279463
0.0274055
0.0261417
0.0239338
0.0203154
0.0151722
0.00814653
0.00190025
0.0273521
0.0288916
0.0300628
0.0308403
0.03119
0.0310414
0.0302148
0.0283758
0.0250186
0.0194071
0.0111963
0.00219713
0.0289806
0.0304743
0.031668
0.0325623
0.0331638
0.0334298
0.0331897
0.0320315
0.0292002
0.0235844
0.0144336
0.00250552
0.0298521
0.0311795
0.0322893
0.0332083
0.0339689
0.0345733
0.0349146
0.0345963
0.0326764
0.0274578
0.0174692
0.0028475
0.0299057
0.0310686
0.0321047
0.0330225
0.0338663
0.0346936
0.035496
0.0360085
0.0352782
0.0309819
0.0201988
0.00322424
0.0294159
0.0304634
0.0314239
0.0323161
0.0331835
0.0341179
0.0351752
0.0363085
0.0368346
0.0340873
0.0233203
0.00362656
0.0288959
0.0298404
0.0307416
0.0315876
0.0323822
0.0332076
0.0342947
0.0357095
0.0370147
0.0363621
0.0270439
0.00407679
0.0285719
0.0293733
0.0301551
0.0309737
0.0317978
0.0325114
0.0332945
0.034524
0.0362354
0.0373214
0.0311045
0.00461378
0.000293619
0.000619809
0.000641999
0.000639042
0.000615037
0.000591688
0.00064839
0.00106433
0.00153459
0.00170557
0.0017798
0.00183898
0.000477377
0.00122995
0.00167734
0.00158729
0.00101348
0.000857578
0.00156912
0.00195548
0.00301693
0.00422271
0.00594064
0.00773019
0.000624568
0.00224305
0.00271902
0.002339
0.00209073
0.00227028
0.00349611
0.00515679
0.00751357
0.0102438
0.0128556
0.0152232
0.000784585
0.0032159
0.00311008
0.00276894
0.00302624
0.00441241
0.00680928
0.00951502
0.0126061
0.015703
0.0184711
0.0208871
0.000905815
0.00391461
0.00399678
0.00393368
0.00504951
0.00753082
0.0104397
0.0135489
0.0167845
0.0198596
0.0226031
0.0249897
0.00101154
0.0048144
0.00544335
0.00580841
0.00767246
0.0104932
0.0135518
0.0166987
0.0198453
0.0228026
0.0254592
0.0277819
0.00109131
0.00545505
0.00666161
0.00782946
0.0102372
0.0131843
0.0161906
0.0192309
0.0221778
0.0249244
0.0274037
0.0295921
0.00117732
0.00647335
0.00827877
0.010399
0.0131294
0.0160018
0.018848
0.0216284
0.0242454
0.0266502
0.0288186
0.0307341
0.00128225
0.00762899
0.0108668
0.0138317
0.0166268
0.0192007
0.0215991
0.0238387
0.0258976
0.0277819
0.0295131
0.0310806
0.0014312
0.00909256
0.0135884
0.0168489
0.0194494
0.0215749
0.0234267
0.0251051
0.0266457
0.0280866
0.0294622
0.0307646
0.00164013
0.00886894
0.0148865
0.0183593
0.0207346
0.0226635
0.0242779
0.0256728
0.0269458
0.0281316
0.0292612
0.0303607
0.00289864
0.0087895
0.0158545
0.0196464
0.021819
0.023681
0.0251482
0.0263617
0.0274338
0.0284098
0.0293225
0.0301956
0.00186924
0.00188786
0.00188947
0.00188869
0.00187266
0.00183797
0.00178369
0.00170547
0.001597
0.00145896
0.00126196
0.000611775
0.00947341
0.0109063
0.0117692
0.0119728
0.0116639
0.0109493
0.00982117
0.00830864
0.00641354
0.00390757
0.00186422
0.00103852
0.0171997
0.0186166
0.0193447
0.0194306
0.0190019
0.0179879
0.0163808
0.01414
0.0112422
0.00767637
0.00342308
0.00136478
0.0228618
0.0243263
0.0252208
0.0255529
0.0252963
0.0243791
0.0227177
0.020164
0.0165859
0.0118816
0.00588926
0.00166661
0.0269704
0.0285045
0.029559
0.0301038
0.030091
0.0294466
0.0280332
0.02561
0.0217306
0.0161852
0.00864886
0.00196203
0.0297426
0.0313193
0.0324957
0.0332488
0.0335521
0.0333285
0.0323846
0.0303596
0.0267052
0.0206772
0.011855
0.00226817
0.0314663
0.033008
0.0342117
0.0350886
0.0356516
0.0358546
0.0355165
0.0342014
0.031107
0.0250611
0.0152455
0.00258573
0.032384
0.0337641
0.0348884
0.0357994
0.0365311
0.0370863
0.0373507
0.0369073
0.0347603
0.0291029
0.0183595
0.00293907
0.0324719
0.0336825
0.0347282
0.0356366
0.0364586
0.0372491
0.0379943
0.0384131
0.0375001
0.0327943
0.0211964
0.00332336
0.0319711
0.0330544
0.0340344
0.0349203
0.0357733
0.0366735
0.0376858
0.0387519
0.0391231
0.0360904
0.0244035
0.00373098
0.0313996
0.0323704
0.033275
0.0340993
0.0348799
0.0356938
0.036749
0.038054
0.0392619
0.0382405
0.028099
0.0041795
0.0310307
0.0318276
0.0325904
0.0333373
0.0341104
0.0348358
0.0355783
0.0368109
0.0384501
0.0392273
0.0320114
0.0046968
0.000275869
0.000584726
0.000610598
0.000607452
0.000590756
0.000560327
0.00058981
0.000864117
0.00139647
0.00160013
0.00168073
0.00173965
0.000448331
0.00116142
0.00162034
0.00161072
0.00111067
0.00069865
0.00136869
0.00170758
0.0025199
0.00368495
0.00519771
0.00683949
0.00058463
0.00209152
0.00268448
0.00239534
0.00211287
0.00202956
0.00289795
0.00437316
0.00642657
0.00898445
0.0114542
0.0136912
0.000734613
0.00309931
0.00307386
0.00267813
0.00271693
0.00355044
0.0057177
0.00823526
0.0110659
0.0140125
0.0166582
0.0189708
0.000851386
0.00367748
0.00367676
0.0034814
0.00414212
0.00623567
0.00908786
0.0119513
0.0149922
0.01792
0.0205395
0.0228277
0.000954451
0.00441908
0.0048279
0.00495119
0.00648503
0.0091722
0.0120601
0.0150121
0.0179116
0.0207117
0.0232399
0.025461
0.00103823
0.00505445
0.00596684
0.00689223
0.00909836
0.0118886
0.0147149
0.0175164
0.0202566
0.0228175
0.0251373
0.0271965
0.00113019
0.00611386
0.00770145
0.00967449
0.0121814
0.014821
0.0174134
0.0199297
0.0223311
0.0245412
0.0265346
0.028305
0.00123961
0.0074376
0.0104375
0.0131975
0.0157189
0.0180182
0.0201456
0.0221288
0.0239673
0.0256855
0.0272325
0.0286338
0.00139758
0.00899526
0.0130666
0.0160002
0.018339
0.0202122
0.0218377
0.023302
0.0246621
0.025964
0.0271828
0.0283265
0.00160275
0.00856227
0.0141203
0.0173156
0.0194669
0.0211703
0.022575
0.0237858
0.0248899
0.0259382
0.0269453
0.0279195
0.00281799
0.00830331
0.0149213
0.0184242
0.0203161
0.0219494
0.0232117
0.0242677
0.0252148
0.0260965
0.0269397
0.0277593
0.00177278
0.00179232
0.00179674
0.00179649
0.00178754
0.00175568
0.00170919
0.0016367
0.00153832
0.00140722
0.00121935
0.000589098
0.00851319
0.0099097
0.010796
0.0110534
0.0107496
0.0101142
0.00908837
0.00772314
0.00597616
0.00366631
0.00177489
0.00100351
0.0156143
0.0170033
0.0177544
0.0179046
0.0175316
0.0166268
0.015167
0.0131192
0.0104622
0.00717328
0.00322589
0.0013214
0.0208906
0.0223235
0.0232334
0.023609
0.0234255
0.0226194
0.0211122
0.0187739
0.0154789
0.0111446
0.00555309
0.00161329
0.0247458
0.0262485
0.0273074
0.0278899
0.0279463
0.0274055
0.0261417
0.0239338
0.0203154
0.0151722
0.00814653
0.00190025
0.0273521
0.0288917
0.0300628
0.0308403
0.0311901
0.0310414
0.0302148
0.0283758
0.0250186
0.0194071
0.0111964
0.00219713
0.0289806
0.0304743
0.031668
0.0325623
0.0331638
0.0334299
0.0331897
0.0320315
0.0292003
0.0235844
0.0144336
0.00250552
0.0298521
0.0311795
0.0322893
0.0332083
0.0339689
0.0345734
0.0349146
0.0345964
0.0326764
0.0274579
0.0174692
0.00284751
0.0299057
0.0310687
0.0321048
0.0330225
0.0338663
0.0346937
0.0354961
0.0360086
0.0352782
0.0309819
0.0201988
0.00322424
0.0294159
0.0304634
0.0314239
0.0323161
0.0331836
0.0341179
0.0351752
0.0363086
0.0368347
0.0340873
0.0233203
0.00362657
0.0288959
0.0298404
0.0307416
0.0315876
0.0323822
0.0332076
0.0342948
0.0357096
0.0370148
0.0363622
0.0270439
0.00407679
0.0285719
0.0293733
0.0301551
0.0309737
0.0317979
0.0325114
0.0332946
0.034524
0.0362355
0.0373214
0.0311045
0.00461378
0.0176598
0.0185047
0.0201123
0.0219124
0.023611
0.0251538
0.0263498
0.0273407
0.0282253
0.0289986
0.029697
0.0303464
0.0276869
0.0258893
0.0255157
0.0258527
0.0265789
0.0273005
0.0278248
0.0285045
0.0292158
0.0297416
0.0301846
0.0305909
0.0340443
0.0322508
0.0309966
0.0302368
0.0299467
0.0298971
0.0299615
0.0300699
0.0301836
0.0302967
0.0304077
0.0305806
0.0361823
0.034919
0.0337377
0.0327411
0.0319718
0.0313772
0.0309086
0.0306564
0.0304327
0.0302208
0.030042
0.0298407
0.0309552
0.0315344
0.0320908
0.0326373
0.0332279
0.0339713
0.0347343
0.0355743
0.0370322
0.0390094
0.0398662
0.018594
0.0309513
0.031294
0.0316336
0.0319919
0.0323908
0.0328676
0.0335811
0.0343006
0.0353789
0.0373655
0.0414834
0.0305709
0.0306654
0.030766
0.0308955
0.0310992
0.031389
0.0317805
0.0323427
0.0331308
0.0340911
0.0355721
0.039383
0.0359088
0.0296913
0.0296587
0.0297636
0.0300921
0.030537
0.0310944
0.03178
0.0327136
0.0337576
0.0348654
0.0373089
0.037077
0.0166339
0.0171558
0.0186181
0.0202123
0.02169
0.0230051
0.0240336
0.0249416
0.0257785
0.026531
0.0272322
0.0279043
0.0264127
0.0243181
0.0236436
0.0237298
0.0241806
0.0246899
0.0252209
0.0259069
0.0266165
0.0271796
0.0277091
0.0282026
0.0329003
0.0306861
0.028951
0.0279527
0.0274402
0.0272772
0.0273188
0.0274752
0.0277047
0.027894
0.0280983
0.0283343
0.035224
0.0334705
0.0319569
0.0306635
0.0296882
0.0290557
0.0286271
0.0283104
0.0281658
0.02807
0.0279966
0.0279432
0.0285597
0.0292003
0.0298193
0.0304352
0.0310832
0.031848
0.0324919
0.0334484
0.0350209
0.0372527
0.0392235
0.0190321
0.0286813
0.0291397
0.029567
0.0299841
0.0304096
0.0309852
0.0316122
0.0322751
0.0335419
0.035764
0.0406445
0.0312993
0.0286192
0.0288669
0.0290514
0.0292302
0.0294499
0.0298212
0.0304078
0.0310394
0.0322692
0.0338926
0.0381227
0.0363945
0.0278964
0.0278268
0.0278052
0.0278548
0.0280292
0.0285094
0.0291661
0.0299664
0.0313407
0.0327322
0.0358902
0.0368585
0.0176597
0.0185046
0.0201122
0.0219124
0.023611
0.0251537
0.0263497
0.0273407
0.0282252
0.0289985
0.0296969
0.0303463
0.0276868
0.0258892
0.0255157
0.0258526
0.0265789
0.0273005
0.0278248
0.0285044
0.0292157
0.0297415
0.0301845
0.0305908
0.0340442
0.0322507
0.0309965
0.0302367
0.0299467
0.0298971
0.0299614
0.0300699
0.0301835
0.0302966
0.0304077
0.0305805
0.0361822
0.0349188
0.0337377
0.0327411
0.0319717
0.0313771
0.0309086
0.0306563
0.0304327
0.0302207
0.030042
0.0298407
0.0309551
0.0315343
0.0320907
0.0326372
0.0332277
0.0339712
0.0347342
0.0355741
0.0370321
0.0390092
0.0398661
0.018594
0.0309512
0.0312939
0.0316335
0.0319918
0.0323907
0.0328674
0.0335809
0.0343005
0.0353788
0.0373653
0.0414833
0.0305708
0.0306654
0.0307659
0.0308954
0.0310992
0.031389
0.0317804
0.0323426
0.0331307
0.0340909
0.035572
0.0393828
0.0359087
0.0296913
0.0296587
0.0297635
0.030092
0.0305369
0.0310943
0.0317799
0.0327135
0.0337575
0.0348653
0.0373088
0.0370769
0.0166339
0.0171558
0.018618
0.0202123
0.02169
0.0230051
0.0240336
0.0249416
0.0257785
0.026531
0.0272322
0.0279043
0.0264127
0.0243181
0.0236436
0.0237298
0.0241806
0.0246899
0.0252209
0.0259069
0.0266165
0.0271796
0.0277091
0.0282026
0.0329002
0.0306861
0.028951
0.0279526
0.0274401
0.0272772
0.0273188
0.0274752
0.0277047
0.027894
0.0280983
0.0283343
0.0352239
0.0334704
0.0319569
0.0306634
0.0296882
0.0290557
0.0286271
0.0283104
0.0281658
0.02807
0.0279966
0.0279432
0.0285598
0.0292003
0.0298193
0.0304352
0.0310832
0.031848
0.0324919
0.0334485
0.035021
0.0372528
0.0392236
0.0190321
0.0286813
0.0291397
0.029567
0.0299841
0.0304097
0.0309852
0.0316123
0.0322751
0.033542
0.0357641
0.0406446
0.0312993
0.0286192
0.0288669
0.0290514
0.0292302
0.0294499
0.0298212
0.0304079
0.0310395
0.0322693
0.0338927
0.0381228
0.0363946
0.0278965
0.0278268
0.0278053
0.0278549
0.0280292
0.0285095
0.0291662
0.0299665
0.0313409
0.0327323
0.0358903
0.0368586
0.0347746
0.0336973
0.032638
0.0317231
0.030985
0.0303807
0.0298687
0.0294869
0.0291031
0.0287003
0.0283201
0.0280703
0.0329156
0.0319851
0.0310252
0.0301637
0.0294263
0.02879
0.028222
0.0277052
0.027137
0.0264738
0.0257441
0.0252139
0.0309477
0.030157
0.0292886
0.0284713
0.0277348
0.0270634
0.0264229
0.0257656
0.0249765
0.0239179
0.0224409
0.0208363
0.0290284
0.028365
0.0275862
0.026811
0.0260755
0.0253693
0.0246535
0.0238558
0.0228152
0.0211919
0.018229
0.0135823
0.0282256
0.0288198
0.0295537
0.0304232
0.0313618
0.0322392
0.0331513
0.0340301
0.0348437
0.0356177
0.036036
0.0355716
0.0256745
0.0272448
0.0287612
0.0301704
0.0314909
0.0326045
0.0335577
0.0343224
0.0348776
0.0350936
0.0350434
0.0342881
0.0213583
0.0249242
0.0275778
0.0295399
0.0311038
0.0323334
0.0332812
0.033936
0.0342218
0.0342185
0.0339243
0.0328862
0.013605
0.0216517
0.0260224
0.0285746
0.0303292
0.0316149
0.0325427
0.0330501
0.0332076
0.0331107
0.0326152
0.0314566
0.033879
0.0322461
0.0308684
0.029723
0.028851
0.0282157
0.0277041
0.0272639
0.0269245
0.0266152
0.026352
0.0261763
0.0325927
0.0310063
0.0296364
0.0284774
0.0275303
0.0267494
0.0260562
0.0254078
0.0247968
0.0241792
0.0235905
0.023178
0.0312823
0.0297033
0.0282857
0.0270433
0.0259659
0.0250119
0.0241201
0.0232422
0.0223327
0.0212985
0.0200766
0.0189612
0.0299232
0.0283506
0.0268818
0.025549
0.0243449
0.0232349
0.0221652
0.0210717
0.0198511
0.0182587
0.0157342
0.0120808
0.0261212
0.026141
0.0262293
0.0264763
0.0269684
0.0277787
0.0288278
0.0300694
0.0315965
0.033196
0.0348834
0.0353496
0.0232134
0.0236093
0.0239727
0.0244583
0.0251998
0.0262383
0.0275043
0.0289281
0.0304732
0.0319587
0.0330757
0.0333829
0.0190427
0.0206097
0.0215923
0.0224137
0.0233779
0.0245606
0.0259176
0.0273791
0.0288637
0.0301887
0.031051
0.0313025
0.012076
0.0170152
0.0192301
0.0205134
0.0216823
0.0229427
0.0243079
0.0257315
0.0271273
0.0283019
0.0290458
0.0292869
0.0347744
0.0336972
0.0326379
0.031723
0.0309849
0.0303806
0.0298687
0.0294868
0.029103
0.0287003
0.02832
0.0280703
0.0329154
0.031985
0.0310251
0.0301636
0.0294262
0.02879
0.0282219
0.0277051
0.027137
0.0264737
0.0257441
0.0252139
0.0309476
0.0301568
0.0292885
0.0284712
0.0277347
0.0270634
0.0264228
0.0257656
0.0249764
0.0239179
0.0224409
0.0208363
0.0290282
0.0283648
0.027586
0.0268109
0.0260754
0.0253692
0.0246534
0.0238557
0.0228152
0.0211919
0.018229
0.0135823
0.0282255
0.0288198
0.0295537
0.0304231
0.0313617
0.0322391
0.0331512
0.03403
0.0348436
0.0356176
0.0360359
0.0355715
0.0256744
0.0272448
0.0287611
0.0301703
0.0314908
0.0326044
0.0335576
0.0343223
0.0348775
0.0350935
0.0350433
0.034288
0.0213582
0.0249242
0.0275777
0.0295398
0.0311037
0.0323333
0.0332811
0.0339359
0.0342217
0.0342184
0.0339242
0.0328861
0.013605
0.0216517
0.0260223
0.0285745
0.0303291
0.0316147
0.0325426
0.03305
0.0332075
0.0331106
0.0326151
0.0314565
0.033879
0.032246
0.0308684
0.029723
0.028851
0.0282157
0.0277041
0.0272639
0.0269245
0.0266152
0.026352
0.0261764
0.0325927
0.0310063
0.0296364
0.0284774
0.0275303
0.0267495
0.0260562
0.0254079
0.0247969
0.0241793
0.0235906
0.023178
0.0312823
0.0297033
0.0282857
0.0270434
0.025966
0.025012
0.0241201
0.0232423
0.0223328
0.0212986
0.0200767
0.0189612
0.0299232
0.0283506
0.0268819
0.0255491
0.0243449
0.023235
0.0221654
0.0210718
0.0198512
0.0182588
0.0157343
0.0120808
0.0261212
0.0261411
0.0262294
0.0264765
0.0269685
0.0277789
0.028828
0.0300696
0.0315966
0.0331962
0.0348836
0.0353497
0.0232135
0.0236095
0.0239729
0.0244585
0.0252001
0.0262385
0.0275045
0.0289283
0.0304734
0.0319588
0.0330759
0.033383
0.0190428
0.02061
0.0215926
0.0224141
0.0233783
0.024561
0.0259179
0.0273794
0.028864
0.0301889
0.0310512
0.0313027
0.012076
0.0170155
0.0192305
0.0205139
0.0216829
0.0229432
0.0243083
0.0257319
0.0271276
0.0283021
0.029046
0.0292871
0.0272179
0.0266658
0.0259689
0.025235
0.0245036
0.0237669
0.0229817
0.0220557
0.02078
0.0185366
0.0134255
0.00297342
0.0255288
0.0250699
0.0244462
0.0237528
0.0230292
0.0222692
0.0214264
0.0203961
0.0189436
0.0164718
0.0115351
0.00206545
0.0239506
0.0235681
0.0230089
0.0223549
0.0216435
0.0208689
0.0199838
0.0188809
0.017333
0.0148382
0.0103547
0.00168761
0.0224593
0.0221394
0.0216369
0.0210215
0.020327
0.0195477
0.0186373
0.0174937
0.0159148
0.0135026
0.00947645
0.00150396
0.0210173
0.0207494
0.0202977
0.0197211
0.0190492
0.018276
0.017358
0.016203
0.0146401
0.0123591
0.00872731
0.00137289
0.0195655
0.0193428
0.0189383
0.0184027
0.0177609
0.0170064
0.0160995
0.0149601
0.013448
0.0113204
0.00802829
0.00126004
0.0180084
0.0178279
0.0174706
0.0169812
0.0163802
0.0156602
0.0147857
0.0136891
0.012258
0.0103008
0.00732569
0.00115585
0.0161889
0.0160513
0.0157455
0.0153126
0.0147686
0.0141046
0.0132895
0.0122686
0.0109538
0.00919626
0.00656208
0.00105418
0.0138515
0.0137599
0.013515
0.013156
0.0126938
0.0121175
0.0114007
0.0105025
0.00935702
0.00785918
0.00565174
0.00094794
0.0105949
0.0105518
0.0103817
0.0101233
0.00978032
0.00933953
0.00878094
0.00808008
0.00718458
0.00605179
0.00444306
0.000826066
0.00588546
0.00588294
0.00580057
0.0056753
0.00550165
0.00526451
0.00495431
0.00456759
0.00404701
0.00342488
0.00262506
0.000672017
0.000629595
0.000625725
0.00061515
0.000600302
0.000580958
0.000557046
0.000527865
0.00049075
0.000443577
0.000383801
0.000305907
0.00014568
0.00308384
0.0176426
0.024276
0.0273784
0.0292839
0.0305948
0.0314686
0.0318865
0.0320125
0.0318259
0.0311668
0.0300048
0.00242006
0.0158329
0.0226897
0.0260569
0.028061
0.0293868
0.0301901
0.0305701
0.0306594
0.0304002
0.0296716
0.0285414
0.00214214
0.0146018
0.0212217
0.02467
0.0267198
0.0280363
0.0287989
0.0291525
0.0292007
0.0288871
0.0281492
0.0270733
0.00198062
0.0135815
0.0198318
0.0232429
0.0252932
0.0265852
0.0273169
0.0276559
0.0276631
0.0273121
0.0266001
0.0255932
0.00185576
0.0126339
0.018473
0.0217724
0.0237861
0.0250403
0.025748
0.0260631
0.0260354
0.0256727
0.025003
0.0240713
0.00174353
0.0116871
0.0170936
0.0202276
0.0221678
0.0233709
0.0240493
0.024334
0.0242773
0.0239182
0.0232989
0.0224424
0.00163264
0.0106873
0.015628
0.0185415
0.020365
0.021496
0.0221279
0.0223765
0.0222956
0.0219465
0.0213734
0.0205964
0.00151596
0.00956732
0.0139756
0.0165893
0.0182362
0.0192558
0.0198163
0.0200189
0.0199163
0.0195786
0.0190459
0.0183608
0.00139098
0.00821759
0.0119529
0.0141448
0.0155249
0.0163741
0.0168278
0.0169707
0.0168517
0.0165293
0.0160439
0.0154817
0.00124403
0.00647603
0.00923466
0.0108119
0.0118006
0.0124027
0.0127087
0.0127871
0.0126662
0.012379
0.011992
0.0115827
0.00105734
0.00393502
0.00525608
0.00600641
0.00648661
0.0067781
0.00691256
0.00694746
0.00685883
0.00669586
0.00648024
0.00624641
0.000249935
0.000434232
0.000554047
0.000628273
0.000678758
0.000712986
0.000733123
0.000741272
0.000737812
0.000727396
0.000711925
0.000692408
0.0285373
0.0269895
0.0254946
0.0240976
0.022799
0.0215709
0.0203615
0.0190885
0.017589
0.015418
0.0110317
0.00249321
0.0271481
0.0256512
0.0241671
0.0227466
0.0213974
0.0200974
0.0187954
0.0173977
0.0157152
0.0132917
0.00893835
0.00152188
0.0257652
0.0243442
0.022907
0.0215048
0.0201499
0.0188245
0.0174796
0.016019
0.0142576
0.0118043
0.00779877
0.0011475
0.024378
0.023051
0.0216891
0.0203396
0.0190171
0.0177075
0.0163656
0.0149002
0.0131477
0.0107998
0.00723776
0.00100628
0.0229501
0.0217277
0.0204586
0.0191859
0.0179246
0.0166633
0.0153618
0.0139385
0.0122565
0.0100777
0.00692792
0.00094464
0.0214178
0.0203013
0.0191335
0.0179529
0.0167733
0.0155852
0.0143533
0.0130068
0.011433
0.00944171
0.00662991
0.000901789
0.0196759
0.018662
0.0176009
0.0165246
0.0154443
0.0143512
0.0132142
0.011972
0.0105315
0.00873135
0.00624714
0.000869617
0.0175603
0.016651
0.0157073
0.0147529
0.0137939
0.0128213
0.0118072
0.0106984
0.00941895
0.00782191
0.00570726
0.000831342
0.0148238
0.0140433
0.0132437
0.0124429
0.0116397
0.010824
0.00997159
0.00903636
0.00796202
0.00660256
0.00492373
0.000782607
0.011086
0.0105055
0.00989777
0.00930309
0.00870727
0.00810065
0.00746356
0.00675726
0.00595523
0.00488894
0.00372084
0.000713093
0.00598153
0.00570057
0.00539768
0.0050858
0.00476933
0.00444552
0.00410387
0.00371329
0.00329452
0.00266315
0.00208136
0.000612265
0.000668752
0.00064201
0.000612711
0.000582139
0.000550914
0.000518739
0.000485407
0.000449199
0.000410114
0.000357749
0.000305629
0.000189643
0.00268863
0.0129016
0.0169787
0.0187941
0.0201452
0.0214355
0.022762
0.0241129
0.0254094
0.0264698
0.0271492
0.0273978
0.00194565
0.010891
0.0151619
0.0172908
0.0187531
0.0200385
0.0213043
0.0225716
0.0237735
0.0247455
0.0253844
0.0256453
0.0015865
0.00956197
0.0137056
0.0159593
0.0174711
0.0187278
0.0199266
0.0211135
0.0222325
0.0231345
0.0237441
0.0240167
0.00137211
0.0085606
0.0124894
0.0147467
0.0162537
0.0174652
0.0185994
0.0197171
0.0207687
0.0216158
0.0222028
0.0224854
0.00121891
0.00773171
0.011409
0.0135922
0.0150482
0.0162005
0.0172755
0.0183388
0.0193413
0.0201479
0.0207185
0.0210107
0.0011009
0.00697548
0.0103873
0.0124339
0.0137955
0.0148717
0.0158896
0.0169124
0.0178845
0.0186654
0.0192262
0.0195301
0.00099997
0.00625361
0.00935763
0.0112061
0.0124274
0.0134029
0.0143568
0.0153454
0.0163018
0.0170693
0.017625
0.0179453
0.000906178
0.0055296
0.00824838
0.0098298
0.0108601
0.0117005
0.0125676
0.0135118
0.0144543
0.0152099
0.0157574
0.016098
0.000812066
0.00473928
0.00695695
0.00819427
0.00898127
0.00964339
0.0103812
0.0112422
0.0121433
0.0128649
0.0133805
0.013735
0.000707818
0.00375139
0.00530363
0.00610041
0.00659013
0.00702236
0.00755728
0.00825076
0.00904486
0.00969999
0.0101379
0.0104654
0.000577817
0.00227965
0.00300988
0.00332672
0.003509
0.00368612
0.00396124
0.00439066
0.00488864
0.00530684
0.0055987
0.00579335
0.000125196
0.000264592
0.000326479
0.000361933
0.000389516
0.000421556
0.000462762
0.000510759
0.000553144
0.000585903
0.000610194
0.000624886
0.0272177
0.0266657
0.0259687
0.0252349
0.0245034
0.0237668
0.0229816
0.0220556
0.02078
0.0185365
0.0134255
0.00297341
0.0255286
0.0250697
0.024446
0.0237526
0.023029
0.0222691
0.0214263
0.020396
0.0189435
0.0164717
0.0115351
0.00206545
0.0239503
0.0235679
0.0230087
0.0223547
0.0216433
0.0208688
0.0199836
0.0188807
0.0173328
0.014838
0.0103546
0.0016876
0.022459
0.0221391
0.0216367
0.0210213
0.0203268
0.0195475
0.0186371
0.0174935
0.0159146
0.0135024
0.00947631
0.00150394
0.021017
0.0207491
0.0202974
0.0197208
0.0190489
0.0182757
0.0173577
0.0162028
0.0146399
0.0123588
0.00872714
0.00137286
0.0195652
0.0193425
0.0189381
0.0184024
0.0177606
0.0170061
0.0160992
0.0149598
0.0134477
0.0113202
0.00802811
0.00126
0.018008
0.0178276
0.0174704
0.016981
0.01638
0.0156599
0.0147854
0.0136888
0.0122578
0.0103005
0.00732553
0.00115579
0.0161886
0.016051
0.0157453
0.0153124
0.0147684
0.0141044
0.0132893
0.0122684
0.0109536
0.00919605
0.00656197
0.00105412
0.0138513
0.0137597
0.0135148
0.0131559
0.0126936
0.0121173
0.0114006
0.0105023
0.00935687
0.00785908
0.00565174
0.000947855
0.0105947
0.0105517
0.0103816
0.0101232
0.00978023
0.00933944
0.00878086
0.00808001
0.00718454
0.0060518
0.00444316
0.000825961
0.0058854
0.00588287
0.00580051
0.00567525
0.0055016
0.00526446
0.00495427
0.00456756
0.00404699
0.00342489
0.00262514
0.000671884
0.000629579
0.00062571
0.000615136
0.000600288
0.000580945
0.000557032
0.000527851
0.000490735
0.00044356
0.000383781
0.000305884
0.000145625
0.00308384
0.0176425
0.0242759
0.0273783
0.0292838
0.0305947
0.0314685
0.0318863
0.0320124
0.0318258
0.0311667
0.0300048
0.00242005
0.0158329
0.0226896
0.0260568
0.0280608
0.0293866
0.03019
0.03057
0.0306593
0.0304001
0.0296715
0.0285414
0.00214213
0.0146018
0.0212216
0.0246699
0.0267196
0.0280362
0.0287988
0.0291524
0.0292006
0.028887
0.0281491
0.0270732
0.00198061
0.0135814
0.0198317
0.0232427
0.0252931
0.0265851
0.0273168
0.0276558
0.027663
0.027312
0.0266
0.0255932
0.00185576
0.0126339
0.0184729
0.0217723
0.023786
0.0250401
0.0257479
0.026063
0.0260353
0.0256726
0.0250029
0.0240713
0.00174352
0.011687
0.0170935
0.0202275
0.0221677
0.0233708
0.0240492
0.0243339
0.0242772
0.0239181
0.0232988
0.0224423
0.00163263
0.0106872
0.0156279
0.0185414
0.0203649
0.0214959
0.0221278
0.0223764
0.0222955
0.0219464
0.0213734
0.0205964
0.00151595
0.00956728
0.0139755
0.0165892
0.0182361
0.0192558
0.0198163
0.0200188
0.0199162
0.0195785
0.0190458
0.0183608
0.00139097
0.00821757
0.0119529
0.0141448
0.0155248
0.0163741
0.0168277
0.0169706
0.0168517
0.0165292
0.0160439
0.0154817
0.00124401
0.00647603
0.00923465
0.0108119
0.0118006
0.0124027
0.0127087
0.012787
0.0126662
0.012379
0.011992
0.0115827
0.00105733
0.00393502
0.00525607
0.0060064
0.0064866
0.00677809
0.00691254
0.00694745
0.00685883
0.00669585
0.00648023
0.00624641
0.00024993
0.000434227
0.000554043
0.000628268
0.000678754
0.000712982
0.000733119
0.000741268
0.000737808
0.000727393
0.000711923
0.000692406
0.0285373
0.0269895
0.0254946
0.0240977
0.0227991
0.021571
0.0203617
0.0190887
0.0175893
0.0154182
0.0110318
0.00249323
0.0271481
0.0256513
0.0241671
0.0227467
0.0213976
0.0200975
0.0187957
0.017398
0.0157155
0.013292
0.00893857
0.00152193
0.0257651
0.0243442
0.0229071
0.0215049
0.02015
0.0188247
0.0174799
0.0160194
0.014258
0.0118047
0.00779909
0.0011476
0.024378
0.023051
0.0216891
0.0203397
0.0190173
0.0177078
0.0163659
0.0149006
0.0131481
0.0108002
0.00723812
0.0010064
0.0229501
0.0217278
0.0204587
0.019186
0.0179248
0.0166636
0.0153621
0.013939
0.012257
0.0100782
0.0069282
0.000944784
0.0214178
0.0203014
0.0191336
0.017953
0.0167734
0.0155854
0.0143536
0.0130072
0.0114335
0.00944216
0.00663007
0.000901948