/*--------------------------------*- C++ -*----------------------------------*\
| =========                 |                                                 |
| \\      /  F ield         | OpenFOAM: The Open Source CFD Toolbox           |
|  \\    /   O peration     | Version:  2212                                  |
|   \\  /    A nd           | Website:  www.openfoam.com                      |
|    \\/     M anipulation  |                                                 |
\*---------------------------------------------------------------------------*/
FoamFile
{
    version     2.0;
    format      ascii;
    arch        "LSB;label=32;scalar=64";
    class       volScalarField;
    location    "0.1";
    object      p;
}
// * * * * * * * * * * * * * * * * * * * * * * * * * * * * * * * * * * * * * //

dimensions      [1 -1 -2 0 0 0 0];

internalField   nonuniform List<scalar> 
3072
(
97142.9
97131.2
97122.8
97114.7
97113
97112.1
97114.2
97113.5
97129.3
97156.4
97151.6
97113.5
97233.1
97200.5
97190.6
97181.5
97183.3
97188
97206.7
97235.8
97288.9
97374.6
97416
97430.5
97292.3
97243.7
97233.5
97228.5
97242.5
97268
97309.5
97362.7
97413.5
97464.5
97500.8
97527.3
97393.1
97338.6
97330.3
97332.6
97362
97411
97471.6
97528.7
97579
97621.3
97652
97676.7
97500.8
97456.2
97453.8
97468.9
97512.3
97572.2
97636.1
97691.7
97738.7
97775.6
97802.7
97823.3
97631.9
97597.4
97604
97631.4
97683.2
97744.5
97802.6
97850.6
97889.1
97919.1
97941.7
97958.7
97759
97746
97761.9
97800.3
97855.8
97913.4
97963.1
98002
98032.5
98055.9
98073.4
98086.4
97892.6
97899.2
97923.3
97968.3
98021.3
98071.2
98111.6
98142.4
98165.8
98183.3
98196.1
98205.3
98021.6
98056.2
98083.6
98130.5
98176.4
98216.9
98248.3
98271.4
98288.4
98300.6
98309.3
98315.2
98151.3
98205.6
98238.2
98285
98322.7
98353
98375
98390.5
98401.3
98408.7
98413.7
98416.7
98290.5
98367.4
98392.7
98431
98458.6
98477.8
98490.5
98498.6
98503.9
98507.3
98509.4
98510
98403.5
98522.7
98538.6
98559.8
98574.5
98583.5
98588.8
98591.7
98593.5
98594.8
98595.2
98594.5
97081
97065.1
97068.5
97091.1
97129.6
97181.7
97243.5
97308.2
97365.6
97407.1
97433.2
97409.9
97439.7
97439
97441.1
97444.7
97454.1
97468.4
97486.9
97506.5
97522.2
97541.2
97552.8
97469.5
97543.2
97552.4
97560.6
97569.5
97580.8
97592.2
97602.5
97608.3
97606.1
97605
97593.1
97468.3
97694.4
97707.2
97717.3
97724.8
97729.8
97732
97730.8
97722.7
97704.7
97682.5
97652.7
97492.8
97838
97848.2
97855
97858.9
97860
97857.6
97850.8
97837.7
97813.9
97780.7
97740.6
97565.2
97970.8
97979
97983.9
97986
97985.2
97981.1
97972.5
97958.3
97935.1
97900
97856.9
97684.6
98095.4
98101.3
98104.5
98105.3
98103.8
98099.9
98092.8
98081.6
98063.7
98035.6
98001.7
97849.4
98211.5
98215.2
98216.9
98216.9
98215.6
98213.1
98209.3
98203.8
98195.4
98181.1
98167.9
98055.8
98318.9
98320.6
98321
98320.4
98319.4
98318.9
98319.1
98320.6
98324.1
98328.7
98346.3
98298.6
98418
98417.9
98416.9
98415.5
98414.5
98415.4
98419.3
98427.5
98442.3
98466.6
98524.5
98562.3
98509.3
98507
98504.4
98501.6
98500
98501.2
98507.1
98520
98542.8
98582.5
98683.4
98817.6
98592.6
98588
98583.3
98578.3
98574.9
98574.7
98580
98594
98618.7
98664.3
98780
99039.3
97142.9
97131.2
97122.8
97114.7
97113
97112.1
97114.2
97113.5
97129.3
97156.4
97151.6
97113.5
97233.1
97200.5
97190.6
97181.5
97183.3
97188
97206.7
97235.8
97288.9
97374.6
97416
97430.5
97292.3
97243.7
97233.5
97228.5
97242.5
97268
97309.5
97362.7
97413.5
97464.5
97500.8
97527.3
97393.1
97338.6
97330.3
97332.6
97362
97411
97471.6
97528.7
97579
97621.3
97652
97676.7
97500.8
97456.2
97453.8
97468.9
97512.3
97572.2
97636.2
97691.7
97738.7
97775.6
97802.7
97823.3
97631.9
97597.4
97604
97631.4
97683.2
97744.5
97802.6
97850.6
97889.1
97919.1
97941.7
97958.7
97759
97746
97761.9
97800.3
97855.8
97913.4
97963.1
98002
98032.5
98055.9
98073.4
98086.4
97892.6
97899.2
97923.3
97968.3
98021.3
98071.2
98111.6
98142.4
98165.8
98183.3
98196.1
98205.3
98021.6
98056.2
98083.6
98130.5
98176.4
98216.9
98248.3
98271.4
98288.4
98300.6
98309.3
98315.2
98151.3
98205.6
98238.2
98285
98322.7
98353
98375
98390.5
98401.3
98408.7
98413.7
98416.7
98290.5
98367.4
98392.7
98431
98458.6
98477.8
98490.5
98498.6
98503.9
98507.3
98509.4
98510
98403.5
98522.7
98538.6
98559.8
98574.5
98583.5
98588.8
98591.7
98593.5
98594.8
98595.2
98594.5
97081
97065.1
97068.5
97091.1
97129.6
97181.7
97243.5
97308.2
97365.6
97407.1
97433.2
97409.9
97439.7
97439
97441.1
97444.7
97454.1
97468.4
97486.9
97506.5
97522.2
97541.2
97552.8
97469.5
97543.2
97552.4
97560.6
97569.5
97580.8
97592.2
97602.5
97608.3
97606.1
97605
97593.1
97468.3
97694.4
97707.2
97717.3
97724.8
97729.8
97732
97730.8
97722.7
97704.7
97682.5
97652.7
97492.8
97838
97848.2
97855
97858.9
97860
97857.6
97850.8
97837.7
97813.9
97780.7
97740.6
97565.2
97970.8
97979
97983.9
97986
97985.2
97981.1
97972.5
97958.3
97935.1
97900
97856.9
97684.6
98095.4
98101.3
98104.5
98105.3
98103.8
98099.9
98092.8
98081.6
98063.7
98035.6
98001.7
97849.4
98211.5
98215.2
98216.9
98216.9
98215.6
98213.1
98209.3
98203.8
98195.4
98181.1
98167.9
98055.8
98318.9
98320.6
98321
98320.4
98319.4
98318.9
98319.1
98320.6
98324.1
98328.7
98346.3
98298.6
98418
98417.9
98416.9
98415.5
98414.5
98415.4
98419.3
98427.5
98442.3
98466.6
98524.5
98562.3
98509.3
98507
98504.4
98501.6
98500
98501.2
98507.1
98520
98542.8
98582.5
98683.4
98817.6
98592.6
98588
98583.3
98578.3
98574.9
98574.7
98580
98594
98618.7
98664.3
98780
99039.3
97142.9
97131.2
97122.8
97114.7
97113
97112.1
97114.2
97113.5
97129.3
97156.4
97151.6
97113.5
97233.1
97200.5
97190.6
97181.5
97183.3
97188
97206.7
97235.8
97288.9
97374.6
97416
97430.5
97292.3
97243.7
97233.5
97228.5
97242.5
97268
97309.5
97362.7
97413.5
97464.5
97500.8
97527.3
97393.1
97338.6
97330.3
97332.6
97362
97411
97471.6
97528.7
97579
97621.3
97652
97676.7
97500.8
97456.2
97453.8
97468.9
97512.3
97572.2
97636.2
97691.7
97738.7
97775.6
97802.7
97823.3
97631.9
97597.4
97604
97631.4
97683.2
97744.5
97802.6
97850.6
97889.1
97919.1
97941.7
97958.7
97759
97746
97761.9
97800.3
97855.8
97913.4
97963.1
98002
98032.5
98055.9
98073.4
98086.4
97892.6
97899.2
97923.3
97968.3
98021.3
98071.2
98111.6
98142.4
98165.8
98183.3
98196.1
98205.3
98021.6
98056.2
98083.6
98130.5
98176.4
98216.9
98248.3
98271.4
98288.4
98300.6
98309.3
98315.2
98151.3
98205.6
98238.2
98285
98322.7
98353
98375
98390.5
98401.3
98408.7
98413.7
98416.7
98290.5
98367.4
98392.7
98431.1
98458.6
98477.8
98490.5
98498.6
98503.9
98507.3
98509.4
98510
98403.5
98522.7
98538.6
98559.8
98574.5
98583.5
98588.8
98591.7
98593.5
98594.8
98595.2
98594.5
97081
97065.1
97068.5
97091.1
97129.6
97181.7
97243.5
97308.2
97365.6
97407.1
97433.2
97409.9
97439.7
97439
97441.1
97444.7
97454.1
97468.4
97486.9
97506.5
97522.2
97541.2
97552.8
97469.5
97543.2
97552.4
97560.6
97569.5
97580.8
97592.2
97602.5
97608.3
97606.1
97605
97593.1
97468.3
97694.4
97707.2
97717.3
97724.8
97729.8
97732
97730.8
97722.7
97704.7
97682.5
97652.7
97492.8
97838
97848.2
97855
97858.9
97860
97857.6
97850.8
97837.7
97813.9
97780.7
97740.6
97565.2
97970.8
97979
97983.9
97986
97985.2
97981.1
97972.5
97958.3
97935.1
97900
97856.9
97684.6
98095.4
98101.3
98104.5
98105.3
98103.8
98099.9
98092.8
98081.6
98063.7
98035.6
98001.7
97849.4
98211.5
98215.2
98216.9
98216.9
98215.6
98213.1
98209.3
98203.8
98195.4
98181.1
98167.9
98055.8
98318.9
98320.6
98321
98320.4
98319.4
98318.9
98319.1
98320.6
98324.1
98328.7
98346.3
98298.6
98418
98417.9
98416.9
98415.5
98414.5
98415.4
98419.3
98427.5
98442.3
98466.6
98524.5
98562.3
98509.3
98507
98504.4
98501.6
98500
98501.2
98507.1
98520
98542.8
98582.5
98683.4
98817.6
98592.6
98588
98583.3
98578.3
98574.9
98574.7
98580
98594
98618.7
98664.3
98780
99039.3
97142.9
97131.2
97122.8
97114.7
97113
97112.1
97114.2
97113.5
97129.3
97156.4
97151.6
97113.5
97233.1
97200.5
97190.6
97181.5
97183.3
97188
97206.7
97235.8
97288.9
97374.6
97416
97430.5
97292.3
97243.7
97233.5
97228.5
97242.5
97268
97309.5
97362.7
97413.5
97464.5
97500.8
97527.3
97393.1
97338.6
97330.3
97332.6
97362
97411
97471.6
97528.7
97579
97621.3
97652
97676.7
97500.8
97456.2
97453.8
97468.9
97512.3
97572.2
97636.2
97691.7
97738.7
97775.6
97802.7
97823.3
97631.9
97597.4
97604
97631.4
97683.2
97744.5
97802.6
97850.6
97889.1
97919.1
97941.7
97958.7
97759
97746
97761.9
97800.3
97855.8
97913.4
97963.1
98002
98032.5
98055.9
98073.4
98086.4
97892.6
97899.2
97923.3
97968.3
98021.3
98071.2
98111.6
98142.4
98165.8
98183.3
98196.1
98205.3
98021.6
98056.2
98083.6
98130.5
98176.4
98216.9
98248.3
98271.4
98288.4
98300.6
98309.3
98315.2
98151.3
98205.6
98238.2
98285
98322.7
98353
98375
98390.5
98401.3
98408.7
98413.7
98416.7
98290.5
98367.4
98392.7
98431
98458.6
98477.8
98490.5
98498.6
98503.9
98507.3
98509.4
98510
98403.5
98522.7
98538.6
98559.8
98574.5
98583.5
98588.8
98591.7
98593.5
98594.8
98595.2
98594.5
97081
97065.1
97068.5
97091.1
97129.6
97181.7
97243.5
97308.2
97365.6
97407.1
97433.2
97409.9
97439.7
97439
97441.1
97444.7
97454.1
97468.4
97486.9
97506.5
97522.2
97541.2
97552.8
97469.5
97543.2
97552.4
97560.6
97569.5
97580.8
97592.2
97602.5
97608.3
97606.1
97605
97593.1
97468.3
97694.4
97707.2
97717.3
97724.8
97729.8
97732
97730.8
97722.7
97704.7
97682.5
97652.7
97492.8
97838
97848.2
97855
97858.9
97860
97857.6
97850.8
97837.7
97813.9
97780.7
97740.6
97565.2
97970.8
97979
97983.9
97986
97985.2
97981.1
97972.5
97958.3
97935.1
97900
97856.9
97684.6
98095.4
98101.3
98104.5
98105.3
98103.8
98099.9
98092.8
98081.6
98063.7
98035.6
98001.7
97849.4
98211.5
98215.2
98216.9
98216.9
98215.6
98213.1
98209.3
98203.8
98195.4
98181.1
98167.9
98055.8
98318.9
98320.6
98321
98320.4
98319.4
98318.9
98319.1
98320.6
98324.1
98328.7
98346.3
98298.6
98418
98417.9
98416.9
98415.5
98414.5
98415.4
98419.3
98427.5
98442.3
98466.6
98524.5
98562.3
98509.3
98507
98504.4
98501.6
98500
98501.2
98507.1
98520
98542.8
98582.5
98683.4
98817.6
98592.6
98588
98583.3
98578.3
98574.9
98574.7
98580
98594
98618.7
98664.3
98780
99039.3
98663.6
98666.3
98659.8
98658.8
98660.9
98663.6
98665.3
98666.6
98668.1
98669.7
98670.6
98670.2
98703.4
98686.3
98693.2
98700.8
98708.1
98714.3
98719.1
98723.6
98728.1
98732.7
98736
98737.7
98720.3
98715.1
98722.6
98730.7
98739.3
98748.4
98757.5
98767
98776.8
98786.7
98794.5
98801
98733.7
98736.6
98742.6
98750.1
98759.6
98771.5
98785.4
98801.1
98818.5
98836.5
98853.4
98869.1
98668
98661
98653.6
98645.2
98638.5
98635
98637
98647.7
98666.7
98698.9
98737.5
98837.3
98736.1
98725.9
98715.4
98702.5
98690.8
98681.8
98677.8
98682.5
98694.4
98717.7
98731.4
98773
98799.8
98783.7
98769.7
98750.6
98732.2
98714.9
98702.5
98698.4
98701.9
98718.1
98725.6
98748.9
98868.1
98839.7
98820.8
98792.8
98765.9
98738
98714
98697.1
98689.7
98698.7
98706.7
98732.5
98663.6
98666.3
98659.8
98658.8
98660.9
98663.6
98665.3
98666.6
98668.1
98669.7
98670.6
98670.2
98703.4
98686.3
98693.2
98700.8
98708.1
98714.3
98719.1
98723.6
98728.1
98732.7
98736
98737.7
98720.3
98715.1
98722.6
98730.7
98739.3
98748.4
98757.5
98767
98776.8
98786.7
98794.5
98801
98733.7
98736.6
98742.6
98750.1
98759.6
98771.5
98785.4
98801.1
98818.5
98836.5
98853.4
98869.1
98668
98661
98653.6
98645.2
98638.5
98635
98637
98647.7
98666.7
98698.9
98737.5
98837.3
98736.1
98725.9
98715.4
98702.5
98690.8
98681.8
98677.8
98682.5
98694.4
98717.7
98731.4
98773
98799.8
98783.7
98769.7
98750.6
98732.2
98714.9
98702.5
98698.4
98701.9
98718.1
98725.6
98748.9
98868.1
98839.7
98820.8
98792.8
98765.9
98738
98714
98697.1
98689.7
98698.7
98706.7
98732.5
98663.6
98666.3
98659.8
98658.8
98660.9
98663.6
98665.3
98666.6
98668.1
98669.7
98670.6
98670.2
98703.4
98686.3
98693.2
98700.8
98708.1
98714.3
98719.1
98723.6
98728.1
98732.7
98736
98737.7
98720.3
98715.1
98722.6
98730.7
98739.3
98748.4
98757.5
98767
98776.8
98786.7
98794.5
98801
98733.7
98736.6
98742.6
98750.1
98759.6
98771.5
98785.4
98801.1
98818.5
98836.5
98853.4
98869.1
98668
98661
98653.6
98645.2
98638.5
98635
98637
98647.7
98666.7
98698.9
98737.5
98837.3
98736.1
98725.9
98715.4
98702.5
98690.8
98681.8
98677.8
98682.5
98694.4
98717.7
98731.4
98773
98799.8
98783.7
98769.7
98750.6
98732.2
98714.9
98702.5
98698.4
98701.9
98718.1
98725.6
98748.9
98868.1
98839.7
98820.8
98792.8
98765.9
98738
98714
98697.1
98689.7
98698.7
98706.7
98732.5
98663.6
98666.3
98659.8
98658.8
98660.9
98663.6
98665.3
98666.6
98668.1
98669.7
98670.6
98670.2
98703.4
98686.3
98693.2
98700.8
98708.1
98714.3
98719.1
98723.6
98728.1
98732.7
98736
98737.7
98720.3
98715.1
98722.6
98730.7
98739.3
98748.4
98757.5
98767
98776.8
98786.7
98794.5
98801
98733.7
98736.6
98742.6
98750.1
98759.6
98771.5
98785.4
98801.1
98818.5
98836.5
98853.4
98869.1
98668
98661
98653.6
98645.2
98638.5
98635
98637
98647.7
98666.7
98698.9
98737.5
98837.3
98736.1
98725.9
98715.4
98702.5
98690.8
98681.8
98677.8
98682.5
98694.4
98717.7
98731.4
98773
98799.8
98783.7
98769.7
98750.6
98732.2
98714.9
98702.5
98698.4
98701.9
98718.1
98725.6
98748.9
98868.1
98839.7
98820.8
98792.8
98765.9
98738
98714
98697.1
98689.7
98698.7
98706.7
98732.5
98750.8
98759.2
98764.9
98771.4
98779.6
98790.2
98802.9
98817.6
98833.7
98850.9
98868
98886.1
98774.5
98781.6
98787.1
98793.2
98799.8
98807.3
98815.4
98824
98832.6
98841.9
98850.4
98864.5
98794
98799.3
98803.7
98808.6
98813.4
98818.4
98823.2
98827.9
98831.6
98836.9
98840.9
98846.3
98808.4
98812.2
98815.2
98818.5
98821.3
98824.2
98826.5
98828.6
98829.3
98832.2
98828.8
98803.4
98899.4
98872.8
98854.1
98823.8
98796.6
98766.8
98740.5
98719.4
98707.2
98709.1
98713.9
98736.7
98899.2
98870.9
98861.1
98836.7
98817.2
98794.9
98776.2
98761
98752.2
98752
98754.3
98766.7
98920.1
98871
98869.8
98848.1
98833.4
98815.5
98801.1
98789.2
98782.3
98781.2
98782.3
98789.3
98964.6
98869.3
98876.7
98857.6
98845.8
98831
98819.4
98809.6
98803.7
98801.7
98801.6
98805.5
98750.8
98759.2
98764.9
98771.4
98779.6
98790.2
98802.9
98817.6
98833.7
98850.9
98868
98886.1
98774.5
98781.6
98787.1
98793.2
98799.8
98807.3
98815.4
98824
98832.6
98841.9
98850.4
98864.5
98794
98799.3
98803.7
98808.6
98813.4
98818.4
98823.2
98827.9
98831.6
98836.9
98840.9
98846.3
98808.4
98812.2
98815.2
98818.5
98821.3
98824.2
98826.5
98828.6
98829.3
98832.2
98828.8
98803.4
98899.4
98872.8
98854.1
98823.8
98796.6
98766.8
98740.5
98719.4
98707.2
98709.1
98713.9
98736.7
98899.2
98870.9
98861.1
98836.7
98817.2
98794.9
98776.2
98761
98752.2
98752
98754.3
98766.7
98920.1
98871
98869.8
98848.1
98833.4
98815.5
98801.1
98789.2
98782.3
98781.2
98782.3
98789.3
98964.6
98869.3
98876.7
98857.6
98845.8
98831
98819.4
98809.6
98803.7
98801.7
98801.6
98805.5
98750.8
98759.2
98764.9
98771.4
98779.6
98790.2
98802.9
98817.6
98833.7
98850.9
98868
98886.1
98774.5
98781.6
98787.1
98793.2
98799.8
98807.3
98815.4
98824
98832.6
98841.9
98850.4
98864.5
98794
98799.3
98803.7
98808.6
98813.4
98818.4
98823.2
98827.9
98831.6
98836.9
98840.9
98846.3
98808.4
98812.2
98815.2
98818.5
98821.3
98824.2
98826.5
98828.6
98829.3
98832.2
98828.8
98803.4
98899.4
98872.8
98854.1
98823.8
98796.6
98766.8
98740.5
98719.4
98707.2
98709.1
98713.9
98736.7
98899.2
98870.9
98861.1
98836.7
98817.2
98794.9
98776.2
98761
98752.2
98752
98754.3
98766.7
98920.1
98871
98869.8
98848.1
98833.4
98815.5
98801.1
98789.2
98782.3
98781.2
98782.3
98789.3
98964.6
98869.3
98876.7
98857.6
98845.8
98831
98819.4
98809.6
98803.7
98801.7
98801.6
98805.5
98750.8
98759.2
98764.9
98771.4
98779.6
98790.2
98802.9
98817.6
98833.7
98850.9
98868
98886.1
98774.5
98781.6
98787.1
98793.2
98799.8
98807.3
98815.4
98824
98832.6
98841.9
98850.4
98864.5
98794
98799.3
98803.7
98808.6
98813.4
98818.4
98823.2
98827.9
98831.6
98836.9
98840.9
98846.3
98808.4
98812.2
98815.2
98818.5
98821.3
98824.2
98826.5
98828.6
98829.3
98832.2
98828.8
98803.4
98899.4
98872.8
98854.1
98823.8
98796.6
98766.8
98740.5
98719.4
98707.2
98709.1
98713.9
98736.7
98899.2
98870.9
98861.1
98836.7
98817.2
98794.9
98776.2
98761
98752.2
98752
98754.3
98766.7
98920.1
98871
98869.8
98848.1
98833.4
98815.5
98801.1
98789.2
98782.3
98781.2
98782.3
98789.3
98964.6
98869.3
98876.7
98857.6
98845.8
98831
98819.4
98809.6
98803.7
98801.7
98801.6
98805.5
98818.4
98820.6
98822.2
98823.8
98824.9
98825.9
98825.9
98825.4
98821.9
98816.8
98805.5
98752.5
98824.6
98825.3
98825.6
98825.9
98825.6
98825.2
98823.4
98820.6
98815.7
98812.7
98808
98783.4
98827.8
98827.5
98826.8
98826.3
98824.9
98823.2
98820.4
98819
98816.5
98811.9
98806.4
98787.9
98829.3
98828.3
98826.8
98825.3
98823.2
98822.5
98821.3
98819.4
98816.4
98812.1
98807.8
98795.7
98829.6
98827.9
98826
98825.4
98824.4
98823.1
98821.1
98818.7
98815.7
98811.7
98807.7
98799.3
98829.6
98828.4
98827.1
98825.9
98824.2
98822.7
98820.9
98818.7
98815.8
98812.3
98808.8
98802.7
98830.6
98829
98827.2
98825.8
98824.2
98822.6
98820.5
98818.2
98815.4
98812.2
98809.2
98804.8
98830.8
98829.1
98827.4
98825.9
98824.2
98822.5
98820.5
98818.3
98815.6
98812.6
98809.8
98806.4
98831.2
98829.4
98827.4
98825.9
98824.1
98822.4
98820.2
98818.1
98815.4
98812.8
98810.1
98807.6
98831.5
98829.4
98827.7
98825.9
98824.2
98822.3
98820.3
98818.1
98815.5
98812.9
98810.5
98808.3
98831.5
98829.6
98827.6
98826
98824.1
98822.3
98820.2
98818
98815.5
98813.1
98810.6
98808.8
98831.8
98829.5
98827.8
98825.9
98824.2
98822.2
98820.3
98817.9
98815.6
98813.1
98810.8
98809
99061.6
98864.1
98880.3
98864.3
98854.7
98842.1
98832.6
98824.4
98819.1
98816.4
98815.2
98816.9
99035.9
98859.5
98881.3
98868
98860.4
98849.8
98841.8
98834.6
98829.5
98826.2
98824.2
98824.4
99017.5
98858.8
98881.8
98869.5
98864
98854.8
98847.7
98841.1
98835.9
98832.2
98829.6
98828.7
98982.4
98855.9
98880.8
98869.7
98865.8
98857.9
98851.1
98844.8
98839.6
98835.7
98832.6
98830.8
98949.5
98853.8
98879.8
98869.6
98866.3
98859.5
98852.7
98846.8
98841.5
98837.5
98834.1
98831.9
98920.7
98854.3
98879
98869.9
98866
98860.2
98853.5
98847.7
98842.4
98838.2
98834.5
98831.8
98893.9
98858.2
98878.1
98870.8
98865.9
98860.2
98853.6
98847.9
98842.6
98838.5
98834.9
98832.7
98872.2
98869
98877.9
98872.2
98865.8
98860.3
98853.6
98848.3
98843.2
98839.3
98835.9
98833.2
98851.7
98879.7
98877.5
98874
98866.3
98861
98854.3
98849.2
98843.8
98839.9
98836.2
98833.7
98847.7
98894.7
98879.8
98876.3
98868.1
98861.5
98855.1
98849.5
98844.5
98840.3
98836.8
98833.8
98802.7
98903.8
98880.5
98878
98869.2
98862.3
98855.6
98850
98844.7
98840.7
98836.9
98834.2
98876.4
98943
98886.7
98880.5
98870.9
98862.4
98856.2
98850
98845.1
98840.7
98837.3
98834.1
98818.4
98820.6
98822.2
98823.8
98824.9
98825.9
98825.9
98825.4
98821.9
98816.8
98805.5
98752.5
98824.6
98825.3
98825.6
98825.9
98825.6
98825.2
98823.4
98820.6
98815.7
98812.7
98808
98783.4
98827.8
98827.5
98826.8
98826.3
98824.9
98823.2
98820.4
98819
98816.5
98811.9
98806.4
98787.9
98829.3
98828.3
98826.8
98825.3
98823.2
98822.5
98821.3
98819.4
98816.4
98812.1
98807.8
98795.7
98829.6
98827.9
98826
98825.4
98824.4
98823.1
98821.1
98818.7
98815.7
98811.7
98807.7
98799.3
98829.6
98828.4
98827.1
98825.9
98824.2
98822.7
98820.9
98818.7
98815.8
98812.3
98808.8
98802.7
98830.6
98829
98827.2
98825.8
98824.2
98822.6
98820.5
98818.2
98815.4
98812.2
98809.2
98804.8
98830.8
98829.1
98827.4
98825.9
98824.2
98822.5
98820.5
98818.3
98815.6
98812.6
98809.8
98806.4
98831.2
98829.4
98827.4
98825.9
98824.1
98822.4
98820.2
98818.1
98815.4
98812.8
98810.1
98807.6
98831.5
98829.4
98827.7
98825.9
98824.2
98822.3
98820.3
98818.1
98815.5
98812.9
98810.5
98808.3
98831.5
98829.6
98827.6
98826
98824.1
98822.3
98820.2
98818
98815.5
98813.1
98810.6
98808.8
98831.8
98829.5
98827.8
98825.9
98824.2
98822.2
98820.3
98817.9
98815.6
98813.1
98810.8
98809
99061.6
98864.1
98880.3
98864.3
98854.7
98842.1
98832.6
98824.4
98819.1
98816.4
98815.2
98816.9
99035.9
98859.5
98881.3
98868
98860.4
98849.8
98841.8
98834.6
98829.5
98826.2
98824.2
98824.4
99017.5
98858.8
98881.8
98869.5
98864
98854.8
98847.7
98841.1
98835.9
98832.2
98829.6
98828.7
98982.4
98855.9
98880.8
98869.7
98865.8
98857.9
98851.1
98844.8
98839.6
98835.7
98832.6
98830.8
98949.5
98853.8
98879.8
98869.6
98866.3
98859.5
98852.7
98846.8
98841.5
98837.5
98834.1
98831.9
98920.7
98854.3
98879
98869.9
98866
98860.2
98853.5
98847.7
98842.4
98838.2
98834.5
98831.8
98893.9
98858.2
98878.1
98870.8
98865.9
98860.2
98853.6
98847.9
98842.6
98838.5
98834.9
98832.7
98872.2
98869
98877.9
98872.2
98865.8
98860.3
98853.6
98848.3
98843.2
98839.3
98835.9
98833.2
98851.7
98879.7
98877.5
98874
98866.3
98861
98854.3
98849.2
98843.8
98839.9
98836.2
98833.7
98847.7
98894.7
98879.8
98876.3
98868.1
98861.5
98855.1
98849.5
98844.5
98840.3
98836.8
98833.8
98802.7
98903.8
98880.5
98878
98869.2
98862.3
98855.6
98850
98844.7
98840.7
98836.9
98834.2
98876.4
98943
98886.7
98880.5
98870.9
98862.4
98856.2
98850
98845.1
98840.7
98837.3
98834.1
98818.4
98820.6
98822.2
98823.8
98824.9
98825.9
98825.9
98825.4
98821.9
98816.8
98805.5
98752.5
98824.6
98825.3
98825.6
98825.9
98825.6
98825.2
98823.4
98820.6
98815.7
98812.7
98808
98783.4
98827.8
98827.5
98826.8
98826.3
98824.9
98823.2
98820.4
98819
98816.5
98811.9
98806.4
98787.9
98829.3
98828.3
98826.8
98825.3
98823.2
98822.5
98821.3
98819.4
98816.4
98812.1
98807.8
98795.7
98829.6
98827.9
98826
98825.4
98824.4
98823.1
98821.1
98818.7
98815.7
98811.7
98807.7
98799.3
98829.6
98828.4
98827.1
98825.9
98824.2
98822.7
98820.9
98818.7
98815.8
98812.3
98808.8
98802.7
98830.6
98829
98827.2
98825.8
98824.2
98822.6
98820.5
98818.2
98815.4
98812.2
98809.2
98804.8
98830.8
98829.1
98827.4
98825.9
98824.2
98822.5
98820.5
98818.3
98815.6
98812.6
98809.8
98806.4
98831.2
98829.4
98827.4
98825.9
98824.1
98822.4
98820.2
98818.1
98815.4
98812.8
98810.1
98807.6
98831.5
98829.4
98827.7
98825.9
98824.2
98822.3
98820.3
98818.1
98815.5
98812.9
98810.5
98808.3
98831.5
98829.6
98827.6
98826
98824.1
98822.3
98820.2
98818
98815.5
98813.1
98810.6
98808.8
98831.8
98829.5
98827.8
98825.9
98824.2
98822.2
98820.3
98817.9
98815.6
98813.1
98810.8
98809
99061.6
98864.1
98880.3
98864.3
98854.7
98842.1
98832.6
98824.4
98819.1
98816.4
98815.2
98816.9
99035.9
98859.5
98881.3
98868
98860.4
98849.8
98841.8
98834.6
98829.5
98826.2
98824.2
98824.4
99017.5
98858.8
98881.8
98869.5
98864
98854.8
98847.7
98841.1
98835.9
98832.2
98829.6
98828.7
98982.4
98855.9
98880.8
98869.7
98865.8
98857.9
98851.1
98844.8
98839.6
98835.7
98832.6
98830.8
98949.5
98853.8
98879.8
98869.6
98866.3
98859.5
98852.7
98846.8
98841.5
98837.5
98834.1
98831.9
98920.7
98854.3
98879
98869.9
98866
98860.2
98853.5
98847.7
98842.4
98838.2
98834.5
98831.8
98893.9
98858.2
98878.1
98870.8
98865.9
98860.2
98853.6
98847.9
98842.6
98838.5
98834.9
98832.7
98872.2
98869
98877.9
98872.2
98865.8
98860.3
98853.6
98848.3
98843.2
98839.3
98835.9
98833.2
98851.7
98879.7
98877.5
98874
98866.3
98861
98854.3
98849.2
98843.8
98839.9
98836.2
98833.7
98847.7
98894.7
98879.8
98876.3
98868.1
98861.5
98855.1
98849.5
98844.5
98840.3
98836.8
98833.8
98802.7
98903.8
98880.5
98878
98869.2
98862.3
98855.6
98850
98844.7
98840.7
98836.9
98834.2
98876.4
98943
98886.7
98880.5
98870.9
98862.4
98856.2
98850
98845.1
98840.7
98837.3
98834.1
98818.4
98820.6
98822.2
98823.8
98824.9
98825.9
98825.9
98825.4
98821.9
98816.8
98805.5
98752.5
98824.6
98825.3
98825.6
98825.9
98825.6
98825.2
98823.4
98820.6
98815.7
98812.7
98808
98783.4
98827.8
98827.5
98826.8
98826.3
98824.9
98823.2
98820.4
98819
98816.5
98811.9
98806.4
98787.9
98829.3
98828.3
98826.8
98825.3
98823.2
98822.5
98821.3
98819.4
98816.4
98812.1
98807.8
98795.7
98829.6
98827.9
98826
98825.4
98824.4
98823.1
98821.1
98818.7
98815.7
98811.7
98807.7
98799.3
98829.6
98828.4
98827.1
98825.9
98824.2
98822.7
98820.9
98818.7
98815.8
98812.3
98808.8
98802.7
98830.6
98829
98827.2
98825.8
98824.2
98822.6
98820.5
98818.2
98815.4
98812.2
98809.2
98804.8
98830.8
98829.1
98827.4
98825.9
98824.2
98822.5
98820.5
98818.3
98815.6
98812.6
98809.8
98806.4
98831.2
98829.4
98827.4
98825.9
98824.1
98822.4
98820.2
98818.1
98815.4
98812.8
98810.1
98807.6
98831.5
98829.4
98827.7
98825.9
98824.2
98822.3
98820.3
98818.1
98815.5
98812.9
98810.5
98808.3
98831.5
98829.6
98827.6
98826
98824.1
98822.3
98820.2
98818
98815.5
98813.1
98810.6
98808.8
98831.8
98829.5
98827.8
98825.9
98824.2
98822.2
98820.3
98817.9
98815.6
98813.1
98810.8
98809
99061.6
98864.1
98880.3
98864.3
98854.7
98842.1
98832.6
98824.4
98819.1
98816.4
98815.2
98816.9
99035.9
98859.5
98881.3
98868
98860.4
98849.8
98841.8
98834.6
98829.5
98826.2
98824.2
98824.4
99017.5
98858.8
98881.8
98869.5
98864
98854.8
98847.7
98841.1
98835.9
98832.2
98829.6
98828.7
98982.4
98855.9
98880.8
98869.7
98865.8
98857.9
98851.1
98844.8
98839.6
98835.7
98832.6
98830.8
98949.5
98853.8
98879.8
98869.6
98866.3
98859.5
98852.7
98846.8
98841.5
98837.5
98834.1
98831.9
98920.7
98854.3
98879
98869.9
98866
98860.2
98853.5
98847.7
98842.4
98838.2
98834.5
98831.8
98893.9
98858.2
98878.1
98870.8
98865.9
98860.2
98853.6
98847.9
98842.6
98838.5
98834.9
98832.7
98872.2
98869
98877.9
98872.2
98865.8
98860.3
98853.6
98848.3
98843.2
98839.3
98835.9
98833.2
98851.7
98879.7
98877.5
98874
98866.3
98861
98854.3
98849.2
98843.8
98839.9
98836.2
98833.7
98847.7
98894.7
98879.8
98876.3
98868.1
98861.5
98855.1
98849.5
98844.5
98840.3
98836.8
98833.8
98802.7
98903.8
98880.5
98878
98869.2
98862.3
98855.6
98850
98844.7
98840.7
98836.9
98834.2
98876.4
98943
98886.7
98880.5
98870.9
98862.4
98856.2
98850
98845.1
98840.7
98837.3
98834.1
)
;

boundaryField
{
    rotor
    {
        type            zeroGradient;
    }
    stator
    {
        type            zeroGradient;
    }
    front
    {
        type            empty;
    }
    back
    {
        type            empty;
    }
}


// ************************************************************************* //
