/*--------------------------------*- C++ -*----------------------------------*\
| =========                 |                                                 |
| \\      /  F ield         | OpenFOAM: The Open Source CFD Toolbox           |
|  \\    /   O peration     | Version:  2212                                  |
|   \\  /    A nd           | Website:  www.openfoam.com                      |
|    \\/     M anipulation  |                                                 |
\*---------------------------------------------------------------------------*/
FoamFile
{
    version     2.0;
    format      ascii;
    arch        "LSB;label=32;scalar=64";
    class       volScalarField;
    location    "0.1";
    object      p;
}
// * * * * * * * * * * * * * * * * * * * * * * * * * * * * * * * * * * * * * //

dimensions      [1 -1 -2 0 0 0 0];

internalField   nonuniform List<scalar> 
3072
(
98332.4
98313.3
98302
98293.8
98291
98292.4
98292.5
98305.4
98335.9
98335.1
98290.7
98244.8
98415.5
98372.6
98361.7
98355.2
98359.7
98381.8
98414.8
98464.6
98564.6
98620.1
98635.7
98643.3
98476.8
98418.2
98411.7
98417.3
98444.3
98489
98548.6
98603.6
98661
98702.7
98730.8
98750.8
98595.9
98540.5
98542
98562.5
98612.8
98673.6
98733
98786
98831.3
98864.3
98890.1
98910.3
98720.3
98687.4
98699.8
98734.7
98791.5
98851.7
98907.4
98956.3
98995.4
99024.2
99045.9
99061.9
98855.8
98840.7
98863.7
98908.5
98967.3
99023.3
99073.4
99113.4
99144.8
99168.4
99186
99199
98980.2
98990.2
99021
99074.1
99132.7
99185
99227.5
99260.2
99284.9
99302.8
99315.8
99324.9
99108.7
99138.9
99176.4
99234
99288.7
99334.8
99369.9
99395.5
99413.6
99425.9
99434.1
99439.5
99236.7
99294.6
99332.2
99389.5
99436.8
99474.5
99501.2
99519.2
99530.6
99537.4
99541
99542.6
99366.1
99441.5
99482.9
99538.3
99576.9
99604.3
99621.7
99631.6
99636.2
99637.4
99636.5
99634.5
99509.3
99605.8
99636.4
99679.6
99706.3
99721.6
99728.9
99730.5
99728.6
99724.6
99719.6
99714.5
99614.9
99764.1
99781.1
99802.1
99813.8
99817.6
99816.1
99811.2
99804.4
99796.7
99788.9
99781.4
98210.1
98201.2
98214.1
98250.6
98305.2
98376.5
98458.5
98544.3
98621.7
98683.5
98723.5
98696.4
98644.3
98645.5
98650.5
98661
98678
98701.4
98730
98759.4
98784.5
98816.7
98835.7
98738.9
98760.3
98768.2
98778
98791.4
98808
98825.7
98842.6
98854.5
98857.4
98860.8
98851.4
98710.7
98925.5
98938
98948.1
98957
98964.5
98970.1
98972.5
98968.2
98952.3
98929.5
98901.1
98722.2
99073.7
99082.8
99089.5
99094.2
99096.9
99096.7
99092.5
99081.9
99060.1
99026
98985.6
98793.3
99208.4
99215.1
99219.7
99222.4
99223.2
99221.4
99215.7
99204.6
99183.9
99150.4
99108
98920.7
99331.4
99335.8
99338.7
99340.5
99341.2
99340.4
99337.3
99330.5
99317
99292.4
99262.9
99102.1
99442.9
99445.3
99447
99448.7
99450.5
99452.5
99454.5
99455.7
99454.7
99447.8
99445
99332.1
99543.2
99543.6
99544.4
99546.2
99549.7
99555.3
99563.5
99574.3
99588.3
99604.6
99639.1
99603.5
99632.4
99630.8
99630.6
99632.5
99637.4
99646.5
99660.6
99680.8
99709.5
99749.6
99832.3
99897.5
99709.9
99706.5
99705.1
99706.7
99712.5
99723.9
99742.3
99769.8
99809.3
99868
100000
100174
99775
99770.2
99767.7
99768.7
99774.2
99786.3
99806.3
99837.1
99880.4
99947.4
100096
100415
98326.3
98309.6
98299.2
98291.4
98289.6
98289.6
98291.5
98298
98320.8
98333.9
98300.6
98256
98412.5
98372.8
98361.9
98354.8
98358.6
98374
98405.2
98442.9
98534.7
98603.4
98621.7
98632.7
98472
98416
98408.2
98410
98434.4
98471.9
98528.7
98582
98637.3
98683.4
98712.3
98734.7
98585.5
98528.7
98527.2
98542
98587.6
98647.3
98707.7
98761.6
98808.4
98843.9
98870.6
98891.6
98705.1
98668.3
98676.2
98705.9
98760.7
98822.3
98880.7
98930.6
98971.6
99002.1
99024.7
99041.5
98840.7
98819.6
98838.4
98878.9
98937.1
98994.8
99046.4
99088
99120.7
99145.4
99163.7
99177.1
98966
98969.6
98996.6
99046.4
99104.7
99157.9
99201.4
99235.2
99260.7
99279.4
99292.8
99302.3
99096.2
99119.8
99153.9
99208.4
99262.5
99308.9
99344.6
99370.9
99389.5
99402.3
99410.8
99416.4
99224.3
99276.4
99311.2
99365.8
99412.2
99449.9
99476.9
99495.3
99507
99513.9
99517.7
99519.4
99353.8
99423.8
99462.9
99516.3
99554.2
99581.5
99598.9
99608.7
99613.3
99614.4
99613.4
99611.4
99496.1
99588.2
99617.2
99659.4
99685.7
99700.8
99707.7
99709
99706.7
99702.3
99697
99691.5
99602.1
99744.9
99762.1
99783
99794.9
99798.4
99796.4
99790.9
99783.4
99775
99766.5
99758.5
98221.2
98209
98218.1
98249.3
98298.3
98363.1
98438.8
98518.6
98590.8
98647.6
98684.8
98658.3
98634.8
98635.7
98638.8
98646.9
98660.5
98680.4
98705.1
98731.3
98753.3
98782
98799.9
98705.7
98745.3
98753.2
98761.5
98773.2
98787.8
98803.2
98817.9
98827.8
98829
98830.8
98821.8
98684.1
98906.7
98919.1
98928.9
98936.8
98943.1
98947.3
98948.3
98942.5
98925.7
98902.4
98874.9
98699.1
99053.2
99062.1
99068.4
99072.6
99074.5
99073.4
99068.2
99056.8
99034.2
98999.9
98960.7
98770
99186.6
99193.3
99197.6
99200
99200.2
99197.7
99191.2
99179.2
99157.7
99123.1
99081.5
98894.5
99308.8
99313.2
99316
99317.5
99317.7
99316.3
99312.4
99304.7
99290.1
99264
99233.5
99070.8
99419.9
99422.2
99423.9
99425.3
99426.7
99428.1
99429.2
99429.1
99426.5
99417.2
99411.4
99294
99520
99520.4
99521.1
99522.7
99525.8
99530.8
99537.9
99547.2
99559.2
99572.3
99601.6
99558.3
99609.2
99607.6
99607.3
99609.1
99613.8
99622.1
99635
99653.6
99680
99716.7
99791.9
99847.3
99686.7
99683.3
99682
99683.7
99689.2
99700.1
99717.4
99743.3
99780.6
99836.1
99960.6
100125
99751.7
99746.9
99744.7
99745.9
99751.5
99763.3
99782.6
99812
99853.8
99918.5
100062
100377
98332.4
98313.3
98302
98293.8
98291
98292.4
98292.5
98305.4
98335.9
98335.1
98290.7
98244.8
98415.5
98372.6
98361.7
98355.2
98359.7
98381.8
98414.8
98464.6
98564.6
98620.1
98635.7
98643.3
98476.8
98418.2
98411.7
98417.3
98444.3
98489
98548.6
98603.6
98661
98702.7
98730.8
98750.8
98595.9
98540.5
98542
98562.5
98612.8
98673.6
98733
98786
98831.3
98864.3
98890.1
98910.3
98720.3
98687.4
98699.8
98734.7
98791.5
98851.7
98907.4
98956.3
98995.4
99024.2
99045.9
99061.9
98855.8
98840.7
98863.7
98908.5
98967.3
99023.3
99073.4
99113.3
99144.8
99168.4
99186
99199
98980.2
98990.2
99021
99074.1
99132.7
99185
99227.5
99260.2
99284.9
99302.8
99315.8
99324.9
99108.7
99138.9
99176.4
99234
99288.7
99334.8
99369.9
99395.5
99413.6
99425.9
99434.1
99439.5
99236.7
99294.6
99332.2
99389.5
99436.8
99474.5
99501.2
99519.2
99530.6
99537.4
99541
99542.6
99366.1
99441.5
99482.9
99538.3
99576.9
99604.3
99621.7
99631.6
99636.2
99637.4
99636.4
99634.5
99509.3
99605.8
99636.4
99679.6
99706.3
99721.6
99728.9
99730.5
99728.6
99724.6
99719.6
99714.5
99614.9
99764.1
99781.1
99802.1
99813.8
99817.6
99816.1
99811.2
99804.4
99796.7
99788.9
99781.4
98210.1
98201.2
98214.1
98250.6
98305.2
98376.5
98458.5
98544.3
98621.7
98683.5
98723.5
98696.4
98644.3
98645.5
98650.5
98661
98678
98701.4
98730
98759.4
98784.5
98816.7
98835.7
98738.9
98760.3
98768.2
98778
98791.4
98808
98825.7
98842.6
98854.5
98857.4
98860.8
98851.4
98710.7
98925.5
98938
98948.1
98957
98964.5
98970.1
98972.5
98968.2
98952.3
98929.5
98901.1
98722.2
99073.7
99082.8
99089.4
99094.2
99096.9
99096.7
99092.5
99081.9
99060.1
99026
98985.6
98793.3
99208.3
99215.1
99219.7
99222.4
99223.2
99221.4
99215.7
99204.6
99183.9
99150.4
99108
98920.7
99331.4
99335.8
99338.7
99340.5
99341.2
99340.4
99337.3
99330.5
99317
99292.4
99262.9
99102.1
99442.9
99445.3
99447
99448.7
99450.5
99452.5
99454.5
99455.7
99454.7
99447.8
99445
99332.1
99543.2
99543.6
99544.4
99546.2
99549.7
99555.3
99563.5
99574.3
99588.3
99604.6
99639.1
99603.5
99632.4
99630.8
99630.6
99632.5
99637.4
99646.5
99660.6
99680.8
99709.5
99749.6
99832.3
99897.5
99709.9
99706.5
99705.1
99706.7
99712.5
99723.9
99742.3
99769.8
99809.3
99868
100000
100174
99775
99770.2
99767.7
99768.7
99774.2
99786.3
99806.3
99837.1
99880.4
99947.4
100096
100415
98326.3
98309.6
98299.2
98291.4
98289.6
98289.6
98291.5
98298
98320.8
98333.9
98300.6
98256
98412.5
98372.8
98361.9
98354.8
98358.6
98374
98405.2
98442.9
98534.7
98603.4
98621.7
98632.7
98472
98416
98408.2
98410
98434.4
98471.9
98528.7
98582
98637.3
98683.4
98712.3
98734.7
98585.5
98528.7
98527.2
98542
98587.6
98647.3
98707.7
98761.6
98808.4
98843.9
98870.6
98891.6
98705.1
98668.3
98676.2
98705.9
98760.7
98822.3
98880.7
98930.6
98971.6
99002.1
99024.7
99041.5
98840.7
98819.6
98838.4
98878.9
98937.1
98994.8
99046.4
99088
99120.7
99145.4
99163.7
99177.1
98966
98969.6
98996.6
99046.4
99104.7
99157.9
99201.4
99235.2
99260.7
99279.4
99292.8
99302.3
99096.2
99119.8
99153.9
99208.4
99262.5
99308.9
99344.6
99370.9
99389.5
99402.3
99410.8
99416.4
99224.3
99276.4
99311.2
99365.8
99412.2
99449.9
99476.9
99495.3
99507
99513.9
99517.7
99519.4
99353.8
99423.8
99462.9
99516.3
99554.2
99581.5
99598.9
99608.7
99613.3
99614.4
99613.4
99611.4
99496.1
99588.2
99617.2
99659.4
99685.7
99700.8
99707.7
99709
99706.7
99702.3
99697
99691.5
99602.1
99744.9
99762.1
99783
99794.9
99798.4
99796.4
99790.9
99783.4
99775
99766.5
99758.5
98221.2
98209
98218.1
98249.3
98298.3
98363.1
98438.8
98518.6
98590.8
98647.6
98684.8
98658.3
98634.8
98635.7
98638.8
98646.9
98660.5
98680.4
98705.1
98731.3
98753.3
98782
98799.9
98705.7
98745.3
98753.2
98761.5
98773.2
98787.8
98803.2
98817.9
98827.8
98829
98830.8
98821.8
98684.1
98906.7
98919.1
98928.9
98936.8
98943.1
98947.3
98948.3
98942.5
98925.7
98902.4
98874.9
98699.1
99053.2
99062.1
99068.4
99072.6
99074.5
99073.4
99068.2
99056.8
99034.2
98999.9
98960.7
98770
99186.6
99193.3
99197.6
99200
99200.2
99197.7
99191.2
99179.2
99157.7
99123.1
99081.5
98894.5
99308.8
99313.2
99316
99317.5
99317.7
99316.3
99312.4
99304.7
99290.1
99264
99233.5
99070.8
99419.9
99422.2
99423.9
99425.3
99426.7
99428.1
99429.2
99429.1
99426.5
99417.2
99411.4
99294
99520
99520.4
99521.1
99522.7
99525.8
99530.8
99537.9
99547.2
99559.2
99572.3
99601.6
99558.3
99609.2
99607.6
99607.3
99609.1
99613.8
99622.1
99635
99653.6
99680
99716.7
99791.9
99847.3
99686.7
99683.3
99682
99683.7
99689.2
99700.1
99717.4
99743.3
99780.6
99836.1
99960.6
100125
99751.7
99746.9
99744.7
99745.9
99751.5
99763.3
99782.6
99812
99853.8
99918.5
100062
100377
99910
99915.7
99903.2
99895.9
99891.2
99886.3
99879.4
99870.9
99861.8
99852.5
99843.5
99835
99944.4
99923.6
99925.6
99927.3
99927.1
99924.1
99918.3
99910.8
99902.3
99893.4
99884.7
99876.2
99951.6
99942.6
99946.1
99947.9
99948.1
99946
99941.9
99936.4
99929.9
99922.6
99915.3
99907.7
99955.1
99954
99956.6
99958.2
99958.7
99957.9
99955.6
99952.3
99948.3
99943.7
99938.7
99933
99827.7
99821.9
99818.4
99818.4
99822.9
99833.8
99852.4
99881.6
99919.3
99969.7
100021
100136
99868.9
99862.6
99858.1
99856.7
99859.4
99867.9
99882.8
99907.2
99937.8
99977.7
100002
100043
99900.8
99894.3
99888.5
99884.9
99884.7
99889.2
99898.9
99916.4
99938.9
99970.5
99987.2
100005
99927.4
99919.6
99911.8
99905.3
99900.9
99899.7
99902.1
99910.7
99923.5
99946.9
99961.2
99982.4
99898.3
99899.8
99887.4
99879.4
99874.2
99868.6
99860.9
99851.7
99841.6
99831.3
99821
99811.6
99940.6
99914.4
99913.7
99913.4
99912.1
99908.2
99901.4
99892.6
99882.7
99872.2
99861.6
99851.7
99955.5
99940.7
99940.6
99939.5
99937.4
99933.6
99927.8
99920.2
99911.3
99901.4
99891.2
99881.4
99968
99962.9
99961.8
99959.8
99957.2
99953.6
99948.7
99942.5
99934.9
99925.9
99916.1
99905.9
99803.7
99798
99795.2
99795.8
99800.7
99811.7
99830.1
99858.5
99895.8
99946
99999.3
100119
99843.3
99837.3
99833.9
99833.8
99837.5
99846.6
99862
99886.5
99917.8
99958.8
99987.2
100032
99872.9
99866.9
99863.2
99862
99863.8
99869.8
99880.5
99898.6
99922
99954.6
99974.5
99993.8
99897.1
99891.5
99887.8
99885.5
99884.7
99886.2
99890.1
99898.9
99911.2
99933
99947.9
99967.4
99910
99915.7
99903.2
99895.9
99891.2
99886.3
99879.4
99870.9
99861.8
99852.5
99843.5
99835
99944.4
99923.6
99925.6
99927.3
99927.1
99924.1
99918.3
99910.8
99902.3
99893.4
99884.7
99876.2
99951.6
99942.6
99946.1
99947.9
99948.1
99946
99941.9
99936.4
99929.9
99922.6
99915.3
99907.7
99955.1
99954
99956.6
99958.2
99958.7
99957.9
99955.6
99952.3
99948.3
99943.7
99938.7
99933
99827.7
99821.9
99818.4
99818.4
99822.9
99833.8
99852.4
99881.6
99919.3
99969.7
100021
100136
99868.9
99862.6
99858.1
99856.7
99859.4
99867.9
99882.8
99907.2
99937.8
99977.7
100002
100043
99900.8
99894.3
99888.5
99884.9
99884.7
99889.2
99898.9
99916.4
99938.9
99970.5
99987.2
100005
99927.4
99919.6
99911.8
99905.3
99900.9
99899.7
99902.1
99910.7
99923.5
99946.9
99961.2
99982.4
99898.3
99899.8
99887.4
99879.4
99874.2
99868.6
99860.9
99851.7
99841.6
99831.3
99821
99811.6
99940.6
99914.4
99913.7
99913.4
99912.1
99908.2
99901.4
99892.6
99882.7
99872.2
99861.6
99851.7
99955.5
99940.7
99940.6
99939.5
99937.4
99933.6
99927.8
99920.2
99911.3
99901.4
99891.2
99881.4
99968
99962.9
99961.8
99959.8
99957.2
99953.6
99948.7
99942.5
99934.9
99925.9
99916.1
99905.9
99803.7
99798
99795.2
99795.8
99800.7
99811.7
99830.1
99858.5
99895.8
99946
99999.3
100119
99843.3
99837.3
99833.9
99833.8
99837.5
99846.6
99862
99886.5
99917.8
99958.8
99987.2
100032
99872.9
99866.9
99863.2
99862
99863.8
99869.8
99880.5
99898.6
99922
99954.6
99974.5
99993.8
99897.1
99891.5
99887.8
99885.5
99884.7
99886.2
99890.1
99898.9
99911.2
99933
99947.9
99967.4
99956
99960.4
99964.3
99967
99968.6
99969
99968.3
99966.6
99964.1
99961.2
99957.8
99954
99958.3
99964.4
99969.7
99973.8
99976.7
99978.2
99978.4
99977.5
99975.8
99973.6
99971.2
99968.8
99959.6
99966.7
99972.9
99977.8
99981.3
99983.4
99984
99983.5
99982.1
99980.4
99978.9
99977.8
99960.2
99968.1
99974.9
99980.2
99984
99986.2
99987
99986.5
99985.3
99983.9
99982.8
99982.6
99950.6
99944.6
99938.6
99933.1
99928.5
99925.4
99924.3
99926.3
99930.4
99942.9
99951.1
99965
99968.1
99964.1
99960.9
99958
99955.7
99954.2
99953.7
99954.6
99956.9
99959.5
99960
99961.7
99980.6
99977.7
99976.1
99974.9
99973.9
99973.1
99972.2
99971.1
99969.9
99967.9
99963.7
99959.2
99990.4
99987.5
99986.3
99985.7
99985.1
99984
99982.1
99979.2
99975.2
99970.1
99963.2
99955.9
99965.4
99964.3
99961.8
99958.4
99954.5
99949.9
99944.7
99939
99932.5
99924
99915.2
99905.7
99957.9
99954
99949.4
99944.4
99939.2
99933.7
99927.8
99921.3
99914.6
99908.2
99901.4
99893.3
99952
99946
99940.1
99934.4
99928.8
99923.2
99917.6
99911.9
99906.1
99900.4
99894.9
99887.6
99947.6
99940.8
99934.4
99928.6
99923.1
99917.8
99912.6
99907.5
99902.5
99897.3
99892.7
99885.4
99897
99891.8
99889.1
99887.9
99887.9
99889.5
99892.8
99899
99907.9
99922.6
99935.3
99951.8
99885.1
99880.7
99879.2
99879.5
99881.4
99884.9
99890.5
99899
99910.3
99925.7
99938.8
99951.8
99878.6
99874.8
99874.1
99875.1
99877.7
99882.2
99888.8
99898.3
99910.5
99925.4
99939.3
99951.8
99875.8
99872.5
99872.1
99873.3
99876
99880.7
99887.7
99897.4
99909.7
99924.2
99938.3
99951.1
99956
99960.4
99964.3
99967
99968.6
99969
99968.3
99966.6
99964.1
99961.2
99957.8
99954
99958.3
99964.4
99969.7
99973.8
99976.7
99978.2
99978.4
99977.5
99975.8
99973.6
99971.2
99968.8
99959.6
99966.7
99972.9
99977.8
99981.3
99983.4
99984
99983.5
99982.1
99980.4
99978.9
99977.8
99960.2
99968.1
99974.9
99980.2
99984
99986.2
99987
99986.5
99985.3
99983.9
99982.8
99982.6
99950.6
99944.6
99938.6
99933.1
99928.5
99925.4
99924.3
99926.3
99930.4
99942.9
99951.1
99965
99968.1
99964.1
99960.9
99958
99955.7
99954.2
99953.7
99954.6
99956.9
99959.5
99960
99961.7
99980.6
99977.7
99976.1
99974.9
99973.9
99973.1
99972.2
99971.1
99969.9
99967.9
99963.7
99959.2
99990.4
99987.5
99986.3
99985.7
99985.1
99984
99982.1
99979.2
99975.2
99970.1
99963.2
99955.9
99965.4
99964.3
99961.8
99958.4
99954.5
99949.9
99944.7
99939
99932.5
99924
99915.2
99905.7
99957.9
99954
99949.4
99944.4
99939.2
99933.7
99927.8
99921.3
99914.6
99908.2
99901.4
99893.3
99952
99946
99940.1
99934.4
99928.8
99923.2
99917.6
99911.9
99906.1
99900.4
99894.9
99887.6
99947.6
99940.8
99934.4
99928.6
99923.1
99917.8
99912.6
99907.5
99902.5
99897.3
99892.7
99885.4
99897
99891.8
99889.1
99887.9
99887.9
99889.5
99892.8
99899
99907.9
99922.6
99935.3
99951.8
99885.1
99880.7
99879.2
99879.5
99881.4
99884.9
99890.5
99899
99910.3
99925.7
99938.8
99951.8
99878.6
99874.8
99874.1
99875.1
99877.7
99882.2
99888.8
99898.3
99910.5
99925.4
99939.3
99951.8
99875.8
99872.5
99872.1
99873.3
99876
99880.7
99887.7
99897.4
99909.7
99924.2
99938.3
99951.1
99960.6
99969.2
99976.3
99981.8
99985.7
99987.9
99988.7
99988.2
99986.8
99985.1
99982.7
99980.5
99960.9
99970
99977.3
99983
99986.9
99989
99989.6
99989
99987.5
99985.5
99982.7
99983.1
99961.1
99970.6
99978.2
99983.9
99987.7
99989.8
99990.2
99989.4
99987.7
99985.7
99983.2
99984
99961.4
99971.2
99979
99984.7
99988.4
99990.3
99990.5
99989.5
99987.8
99985.7
99983.8
99984.5
99961.6
99971.7
99979.6
99985.4
99989
99990.6
99990.7
99989.5
99987.7
99985.7
99984.2
99984.8
99961.9
99972.3
99980.3
99986
99989.4
99990.9
99990.7
99989.4
99987.5
99985.7
99984.5
99985
99962.1
99972.8
99980.9
99986.6
99989.9
99991.1
99990.7
99989.2
99987.3
99985.6
99984.6
99985
99962.4
99973.3
99981.5
99987.1
99990.3
99991.3
99990.7
99989
99987
99985.4
99984.7
99984.9
99962.8
99973.9
99982.2
99987.7
99990.7
99991.5
99990.6
99988.8
99986.8
99985.3
99984.7
99984.9
99963.2
99974.6
99982.9
99988.4
99991.2
99991.7
99990.5
99988.5
99986.5
99985
99984.6
99984.8
99963.8
99975.3
99983.8
99989.1
99991.7
99991.9
99990.5
99988.3
99986.1
99984.8
99984.5
99984.8
99964.6
99976.5
99985
99990.1
99992.3
99992
99990.1
99987.6
99985.4
99984.4
99984.5
99985
100001
99995.3
99993.1
99992.4
99991.5
99989.9
99986.9
99982.6
99976.7
99969.6
99961.2
99952.9
100002
99999.3
99997
99996.1
99994.7
99992.3
99988.4
99982.9
99976
99967.9
99959.1
99950.5
100003
100001
99998.8
99997.5
99995.6
99992.4
99987.7
99981.5
99974
99965.7
99957
99948.9
100003
100001
99999.2
99997.5
99995
99991.1
99985.7
99979.1
99971.4
99963.4
99955.3
99947.9
100003
100000
99998.8
99996.5
99993.3
99988.7
99982.9
99976.1
99968.7
99961.1
99953.9
99947.4
100002
99999.4
99997.7
99994.9
99991
99985.9
99979.8
99973
99965.9
99959.1
99952.8
99947.3
100002
99998.3
99996.3
99992.8
99988.3
99982.8
99976.4
99969.8
99963.3
99957.3
99952
99947.5
100001
99997
99994.7
99990.5
99985.5
99979.5
99973.1
99966.8
99960.8
99955.7
99951.3
99947.8
99999.5
99995.7
99993
99988.2
99982.6
99976.4
99970
99963.9
99958.6
99954.2
99950.8
99948.2
99998.4
99994.4
99991.2
99985.9
99979.9
99973.4
99967.1
99961.3
99956.5
99952.9
99950.3
99948.5
99997.7
99993.5
99989.8
99984
99977.6
99970.9
99964.6
99959.1
99954.9
99951.8
99949.8
99948.6
99996.3
99991.1
99986.8
99980.2
99973.3
99966.4
99960.1
99955
99951.4
99949.3
99948.5
99948.5
99944.5
99937.5
99931.2
99925.5
99920.3
99915.3
99910.6
99906
99901.5
99896.6
99892.2
99882.8
99942.5
99935.7
99929.7
99924.4
99919.6
99915.1
99910.7
99906.5
99902.3
99897.5
99893.9
99885
99941.5
99935.3
99929.8
99924.9
99920.5
99916.3
99912.3
99908.3
99904.3
99899.6
99896.7
99887.7
99941.3
99935.8
99930.9
99926.5
99922.5
99918.6
99914.8
99910.8
99907.1
99902.3
99900.1
99890.6
99941.8
99937
99932.8
99928.9
99925.2
99921.5
99917.8
99913.9
99910.2
99905.3
99903.3
99893.7
99942.7
99938.7
99935.1
99931.7
99928.3
99924.8
99921.1
99917.2
99913.4
99908.5
99906.5
99897
99943.8
99940.5
99937.6
99934.6
99931.5
99928.2
99924.6
99920.6
99916.7
99911.6
99909.4
99900.2
99945
99942.5
99940.1
99937.6
99934.8
99931.6
99928
99923.9
99919.9
99914.7
99912.2
99903.5
99946.1
99944.3
99942.5
99940.4
99937.9
99934.9
99931.4
99927.2
99923.1
99917.7
99914.9
99906.6
99947.2
99946
99944.7
99943.1
99940.9
99938.1
99934.7
99930.5
99926.2
99920.6
99917.4
99909.7
99948
99947.4
99946.6
99945.3
99943.4
99940.7
99937.3
99932.9
99928.5
99922.6
99919
99911.9
99948.8
99949.1
99949.2
99948.6
99947.4
99945.2
99942.2
99938.1
99933.7
99927.4
99923.5
99915.6
99876.5
99872.3
99871.3
99872.3
99875
99879.7
99886.7
99896.5
99908.8
99923.2
99937.4
99950.4
99873.9
99872.5
99871
99871.7
99874.2
99878.8
99885.8
99895.6
99908
99922.3
99936.7
99950
99873.3
99872.4
99870.9
99871.3
99873.6
99878
99885
99894.8
99907.2
99921.5
99936.1
99949.7
99872.6
99872.2
99870.8
99871
99873
99877.2
99884.1
99893.9
99906.4
99920.8
99935.6
99949.5
99872.1
99872
99870.7
99870.7
99872.4
99876.5
99883.2
99893
99905.5
99920
99935.1
99949.4
99871.8
99871.8
99870.6
99870.4
99871.9
99875.7
99882.3
99892
99904.6
99919.3
99934.7
99949.2
99871.7
99871.6
99870.5
99870.2
99871.3
99874.9
99881.3
99890.9
99903.6
99918.5
99934.2
99949.1
99871.6
99871.5
99870.5
99869.9
99870.8
99874
99880.2
99889.8
99902.6
99917.8
99933.8
99949.1
99871.6
99871.5
99870.5
99869.7
99870.2
99873
99879
99888.5
99901.4
99916.9
99933.3
99949.1
99871.7
99871.5
99870.5
99869.5
99869.6
99872
99877.6
99887.1
99900.2
99916
99933
99949.1
99871.7
99871.7
99870.6
99869.3
99869
99871
99876.3
99885.7
99899
99915.4
99932.7
99949.3
99871.7
99871.9
99871.1
99869.5
99868.5
99869.6
99874.1
99883
99896.5
99913.5
99931.9
99949.5
99960.6
99969.2
99976.3
99981.8
99985.7
99987.9
99988.7
99988.2
99986.8
99985.1
99982.7
99980.5
99960.9
99970
99977.3
99983
99986.9
99989
99989.6
99989
99987.5
99985.5
99982.7
99983.1
99961.1
99970.6
99978.2
99983.9
99987.7
99989.8
99990.2
99989.4
99987.7
99985.7
99983.2
99984
99961.4
99971.2
99979
99984.7
99988.4
99990.3
99990.5
99989.5
99987.8
99985.7
99983.8
99984.5
99961.6
99971.7
99979.6
99985.4
99989
99990.6
99990.7
99989.5
99987.7
99985.7
99984.2
99984.8
99961.9
99972.3
99980.3
99986
99989.4
99990.9
99990.7
99989.4
99987.5
99985.7
99984.5
99985
99962.1
99972.8
99980.9
99986.6
99989.9
99991.1
99990.7
99989.2
99987.3
99985.6
99984.6
99985
99962.4
99973.3
99981.5
99987.1
99990.3
99991.3
99990.7
99989
99987
99985.4
99984.7
99984.9
99962.8
99973.9
99982.2
99987.7
99990.7
99991.5
99990.6
99988.8
99986.8
99985.3
99984.7
99984.9
99963.2
99974.6
99982.9
99988.4
99991.2
99991.7
99990.5
99988.5
99986.5
99985
99984.6
99984.8
99963.8
99975.3
99983.8
99989.1
99991.7
99991.9
99990.5
99988.3
99986.1
99984.8
99984.5
99984.8
99964.6
99976.5
99985
99990.1
99992.3
99992
99990.1
99987.6
99985.4
99984.4
99984.5
99985
100001
99995.3
99993.1
99992.4
99991.5
99989.9
99986.9
99982.6
99976.7
99969.6
99961.2
99952.9
100002
99999.3
99997
99996.1
99994.7
99992.3
99988.4
99982.9
99976
99967.9
99959.1
99950.5
100003
100001
99998.8
99997.5
99995.6
99992.4
99987.7
99981.5
99974
99965.7
99957
99948.9
100003
100001
99999.2
99997.5
99995
99991.1
99985.7
99979
99971.4
99963.4
99955.3
99947.9
100003
100000
99998.8
99996.5
99993.3
99988.7
99982.9
99976.1
99968.7
99961.1
99953.9
99947.4
100002
99999.4
99997.7
99994.9
99991
99985.9
99979.8
99973
99965.9
99959.1
99952.8
99947.3
100002
99998.3
99996.3
99992.8
99988.3
99982.8
99976.4
99969.8
99963.3
99957.3
99952
99947.5
100001
99997
99994.7
99990.5
99985.5
99979.5
99973.1
99966.8
99960.8
99955.6
99951.3
99947.8
99999.5
99995.7
99993
99988.2
99982.6
99976.4
99970
99963.9
99958.6
99954.2
99950.8
99948.2
99998.4
99994.4
99991.2
99985.9
99979.9
99973.4
99967.1
99961.3
99956.5
99952.9
99950.3
99948.5
99997.7
99993.5
99989.8
99984
99977.6
99970.9
99964.6
99959.1
99954.9
99951.8
99949.8
99948.6
99996.3
99991.1
99986.8
99980.2
99973.3
99966.4
99960.1
99955
99951.4
99949.3
99948.5
99948.5
99944.5
99937.5
99931.2
99925.5
99920.3
99915.3
99910.6
99906
99901.5
99896.6
99892.2
99882.8
99942.5
99935.7
99929.7
99924.4
99919.6
99915.1
99910.7
99906.5
99902.3
99897.5
99893.8
99885
99941.5
99935.3
99929.8
99924.9
99920.5
99916.3
99912.3
99908.3
99904.3
99899.6
99896.7
99887.7
99941.3
99935.8
99930.9
99926.5
99922.5
99918.6
99914.8
99910.8
99907.1
99902.3
99900.1
99890.6
99941.8
99937
99932.8
99928.9
99925.2
99921.5
99917.8
99913.9
99910.2
99905.3
99903.3
99893.7
99942.7
99938.7
99935.1
99931.7
99928.3
99924.8
99921.1
99917.2
99913.4
99908.5
99906.5
99897
99943.8
99940.5
99937.6
99934.6
99931.5
99928.2
99924.6
99920.6
99916.7
99911.6
99909.4
99900.2
99945
99942.5
99940.1
99937.6
99934.8
99931.6
99928
99923.9
99919.9
99914.7
99912.2
99903.5
99946.1
99944.3
99942.5
99940.4
99937.9
99934.9
99931.4
99927.2
99923.1
99917.7
99914.9
99906.6
99947.2
99946
99944.7
99943.1
99940.9
99938.1
99934.7
99930.5
99926.2
99920.6
99917.4
99909.7
99948
99947.4
99946.6
99945.3
99943.4
99940.7
99937.3
99932.9
99928.5
99922.6
99919
99911.9
99948.8
99949.1
99949.2
99948.6
99947.4
99945.2
99942.2
99938.1
99933.7
99927.4
99923.5
99915.6
99876.5
99872.3
99871.3
99872.3
99875
99879.7
99886.7
99896.5
99908.8
99923.2
99937.4
99950.4
99873.9
99872.5
99871
99871.7
99874.2
99878.8
99885.8
99895.6
99908
99922.3
99936.7
99950
99873.3
99872.4
99870.9
99871.3
99873.6
99878
99885
99894.8
99907.2
99921.5
99936.1
99949.7
99872.6
99872.2
99870.8
99871
99873
99877.2
99884.1
99893.9
99906.4
99920.8
99935.6
99949.5
99872.1
99872
99870.7
99870.7
99872.4
99876.5
99883.2
99893
99905.5
99920
99935.1
99949.4
99871.8
99871.8
99870.6
99870.4
99871.9
99875.7
99882.3
99892
99904.6
99919.3
99934.7
99949.2
99871.7
99871.6
99870.5
99870.2
99871.3
99874.9
99881.3
99890.9
99903.6
99918.5
99934.2
99949.1
99871.6
99871.5
99870.5
99869.9
99870.8
99874
99880.2
99889.8
99902.6
99917.8
99933.8
99949.1
99871.6
99871.5
99870.5
99869.7
99870.2
99873
99879
99888.5
99901.4
99916.9
99933.3
99949.1
99871.7
99871.5
99870.5
99869.5
99869.6
99872
99877.6
99887.1
99900.2
99916
99933
99949.1
99871.7
99871.7
99870.6
99869.3
99869
99871
99876.3
99885.7
99899
99915.4
99932.7
99949.3
99871.7
99871.9
99871.1
99869.5
99868.5
99869.6
99874.1
99883
99896.5
99913.5
99931.9
99949.5
)
;

boundaryField
{
    rotor
    {
        type            zeroGradient;
    }
    stator
    {
        type            zeroGradient;
    }
    front
    {
        type            empty;
    }
    back
    {
        type            empty;
    }
}


// ************************************************************************* //
