/*--------------------------------*- C++ -*----------------------------------*\
| =========                 |                                                 |
| \\      /  F ield         | OpenFOAM: The Open Source CFD Toolbox           |
|  \\    /   O peration     | Version:  2212                                  |
|   \\  /    A nd           | Website:  www.openfoam.com                      |
|    \\/     M anipulation  |                                                 |
\*---------------------------------------------------------------------------*/
FoamFile
{
    version     2.0;
    format      ascii;
    arch        "LSB;label=32;scalar=64";
    class       surfaceScalarField;
    location    "0.1";
    object      phi;
}
// * * * * * * * * * * * * * * * * * * * * * * * * * * * * * * * * * * * * * //

dimensions      [1 0 -1 0 0 0 0];

oriented        oriented;

internalField   nonuniform List<scalar> 
5952
(
5.03716e-05
-5.03676e-05
9.94035e-05
-4.90279e-05
0.000132022
-3.26146e-05
0.000146805
-1.47793e-05
0.000152391
-5.58135e-06
0.000148144
4.25048e-06
0.00011448
3.3668e-05
4.1902e-05
7.2582e-05
-9.67877e-05
0.000138694
-0.000290184
0.000193401
-0.000437442
0.000147262
0.000109098
-0.000546538
4.46165e-05
-9.49797e-05
7.55215e-05
-7.99286e-05
8.09538e-05
-3.80424e-05
6.56608e-05
5.1815e-07
2.50558e-05
3.50281e-05
-5.18067e-05
8.11174e-05
-0.000174755
0.00015662
-0.000324302
0.000222134
-0.000428015
0.000242411
-0.000464322
0.000229712
-0.00050101
0.000183954
0.000144583
-0.000536491
3.29904e-05
-0.000127965
4.73376e-05
-9.4271e-05
3.62599e-05
-2.69598e-05
-3.38555e-06
4.01685e-05
-8.41927e-05
0.00011584
-0.000203447
0.000200377
-0.000314771
0.000267949
-0.000380096
0.000287464
-0.000411046
0.000273366
-0.000420764
0.000239435
-0.000431529
0.000194724
0.000154665
-0.000441606
-3.17708e-06
-0.000124783
-1.72848e-05
-8.01578e-05
-5.00819e-05
5.84266e-06
-0.000108019
9.81114e-05
-0.000189076
0.000196903
-0.000266116
0.000277422
-0.000312203
0.000314041
-0.000330789
0.000306056
-0.000336585
0.000279167
-0.000338219
0.000241075
-0.000341034
0.000197545
0.000156268
-0.000342632
-2.86882e-05
-9.60887e-05
-6.68203e-05
-4.20199e-05
-0.000114457
5.34852e-05
-0.000170465
0.000154126
-0.00022362
0.000250063
-0.00025447
0.000308277
-0.00026055
0.000320127
-0.000256115
0.000301627
-0.000247828
0.000270886
-0.000240115
0.000233368
-0.000235265
0.0001927
0.000152493
-0.000231484
-5.15843e-05
-4.44981e-05
-0.000101003
7.40479e-06
-0.000148106
0.000100595
-0.000184543
0.000190568
-0.00020262
0.000268146
-0.000198789
0.000304453
-0.000184105
0.000305449
-0.000167229
0.000284758
-0.000151687
0.00025535
-0.000139088
0.000220775
-0.000129879
0.000183497
0.000145578
-0.000122957
-6.57968e-05
2.13054e-05
-0.000120433
6.20473e-05
-0.000155286
0.000135455
-0.000165621
0.000200911
-0.000153003
0.000255534
-0.000127573
0.00027903
-9.98722e-05
0.000277755
-7.53098e-05
0.000260202
-5.47579e-05
0.000234805
-3.8497e-05
0.000204521
-2.62146e-05
0.000171222
0.000136322
-1.6952e-05
-7.51673e-05
9.64799e-05
-0.000122587
0.000109474
-0.000138839
0.000151714
-0.000125782
0.000187861
-9.27006e-05
0.00022246
-5.37414e-05
0.000240078
-1.69434e-05
0.000240964
1.41106e-05
0.000229155
3.9265e-05
0.000209657
5.90394e-05
0.000184754
7.42602e-05
0.000156008
0.000124618
8.59715e-05
-7.05045e-05
0.000166992
-0.000106894
0.000145871
-0.000102937
0.000147766
-7.35488e-05
0.00015848
-2.86856e-05
0.000177605
1.91952e-05
0.000192205
6.30832e-05
0.000197084
9.99463e-05
0.0001923
0.000129711
0.0001799
0.000153259
0.000161214
0.000171767
0.000137508
0.000109953
0.00018644
-7.03241e-05
0.000237325
-7.14399e-05
0.000146995
-4.18285e-05
0.000118163
1.283e-06
0.000115377
5.27898e-05
0.000126106
0.000104461
0.000140542
0.000151152
0.000150402
0.000190654
0.000152805
0.000222981
0.000147581
0.000249092
0.000135111
0.000270259
0.000116348
9.24547e-05
0.000287765
-2.48189e-08
0.000237358
3.12365e-05
0.000115742
8.02829e-05
6.91248e-05
0.000130054
6.5615e-05
0.0001789
7.72679e-05
0.000224663
9.4787e-05
0.000265582
0.000109492
0.000300781
0.000117615
0.00033044
0.000117931
0.000355358
0.000110202
0.000376601
9.51138e-05
7.36707e-05
0.000395394
0.000192944
4.44229e-05
0.000266156
4.25398e-05
0.000312037
2.32532e-05
0.000344285
3.33759e-05
0.000370631
5.09312e-05
0.000395388
7.00388e-05
0.000418992
8.58979e-05
0.000440986
9.56299e-05
0.000461094
9.78319e-05
0.000479603
9.17021e-05
0.000497047
7.76791e-05
0.000514551
5.61762e-05
-0.00062583
7.929e-05
-0.00067488
4.90676e-05
-0.000700161
2.52789e-05
-0.00070088
7.22036e-07
-0.000680863
-2.0013e-05
-0.00063889
-4.19691e-05
-0.000573952
-6.49339e-05
-0.000484421
-8.9527e-05
-0.000368871
-0.000115546
-0.000228359
-0.000140508
-8.52886e-05
-0.000143067
-8.52847e-05
-0.000561819
0.000104621
-0.000579534
6.67888e-05
-0.000586943
3.2692e-05
-0.00058584
-3.77008e-07
-0.00057411
-3.17388e-05
-0.000550499
-6.55754e-05
-0.000513294
-0.000102135
-0.000460387
-0.00014243
-0.00038901
-0.000186918
-0.000297203
-0.000232311
-0.000174802
-0.000265463
-0.000260083
-0.000450885
0.000113905
-0.000458163
7.40711e-05
-0.000461119
3.56531e-05
-0.000458714
-2.77718e-06
-0.000448266
-4.21824e-05
-0.000429662
-8.41738e-05
-0.00040172
-0.000130072
-0.000363424
-0.00018072
-0.000313107
-0.000237231
-0.000245779
-0.000299633
-0.000150641
-0.000360597
-0.000410719
-0.000343567
0.000114845
-0.000343342
7.38518e-05
-0.000341034
3.33508e-05
-0.00033595
-7.85642e-06
-0.000327115
-5.10123e-05
-0.000313811
-9.74718e-05
-0.000294895
-0.000148983
-0.00026926
-0.00020635
-0.000235013
-0.000271473
-0.00018661
-0.000348031
-0.00011354
-0.000433661
-0.000524254
-0.000228657
0.000112024
-0.000226261
7.14619e-05
-0.000223447
3.0542e-05
-0.000219577
-1.17203e-05
-0.000214089
-5.6494e-05
-0.000206447
-0.000105108
-0.000195918
-0.000159506
-0.000181574
-0.000220688
-0.000161412
-0.000291629
-0.000133334
-0.000376103
-8.61463e-05
-0.000480843
-0.000610394
-0.000117893
0.000106966
-0.000114143
6.77186e-05
-0.000111094
2.74991e-05
-0.000108325
-1.44834e-05
-0.00010554
-5.92721e-05
-0.000102489
-0.000108153
-9.92493e-05
-0.00016274
-9.51627e-05
-0.000224768
-8.93876e-05
-0.000297398
-7.98578e-05
-0.000385626
-5.71645e-05
-0.00050353
-0.000667553
-1.00776e-05
0.000100098
-5.06021e-06
6.2708e-05
-1.46531e-06
2.3911e-05
8.91283e-07
-1.68333e-05
1.97199e-06
-6.03461e-05
1.54861e-06
-0.000107723
-8.21679e-07
-0.000160363
-5.43649e-06
-0.000220147
-1.23497e-05
-0.000290478
-2.04817e-05
-0.000377488
-2.50223e-05
-0.000498983
-0.000692568
9.49876e-05
9.10893e-05
0.000101846
5.5857e-05
0.000106884
1.88804e-05
0.00011007
-2.00129e-05
0.000111031
-6.12998e-05
0.000109049
-0.000105733
0.000103014
-0.000154321
9.15633e-05
-0.000208689
7.31859e-05
-0.000272094
4.72015e-05
-0.000351496
1.63799e-05
-0.000468154
-0.000676181
0.000198318
7.9219e-05
0.000207968
4.62142e-05
0.000215713
1.11438e-05
0.000221334
-2.56262e-05
0.000224134
-6.40923e-05
0.000222894
-0.000104485
0.000215716
-0.000147135
0.000200064
-0.000193029
0.000172492
-0.000244515
0.000129353
-0.000308349
6.90789e-05
-0.000407873
-0.000607095
0.000302879
6.41134e-05
0.00031607
3.3032e-05
0.00032767
-4.48211e-07
0.000337269
-3.52169e-05
0.000343853
-7.06682e-05
0.000345712
-0.000106337
0.000340185
-0.0001416
0.000323671
-0.000176507
0.000290755
-0.000211591
0.000234877
-0.000252463
0.000145457
-0.000318445
-0.000461629
0.000413236
4.62794e-05
0.000430125
1.61518e-05
0.000446293
-1.66071e-05
0.000461007
-4.99222e-05
0.000472881
-8.25336e-05
0.000479714
-0.000113161
0.000478277
-0.000140155
0.000464364
-0.000162585
0.00043109
-0.000178308
0.000370111
-0.000191476
0.00025624
-0.000204565
-0.00020538
0.000534017
2.68226e-05
0.000554374
-4.19652e-06
0.000575452
-3.76758e-05
0.000595853
-7.03147e-05
0.000613715
-0.000100386
0.000626308
-0.000125746
0.000630237
-0.000144074
0.00062156
-0.000153899
0.000593791
-0.000150531
0.00053597
-0.000133645
0.000406374
-7.49603e-05
0.000201003
5.03718e-05
-5.03678e-05
9.94037e-05
-4.9028e-05
0.000132022
-3.26146e-05
0.000146805
-1.47792e-05
0.000152391
-5.58134e-06
0.000148144
4.25064e-06
0.00011448
3.36684e-05
4.19012e-05
7.25824e-05
-9.67894e-05
0.000138695
-0.000290186
0.000193401
-0.000437443
0.000147261
0.000109098
-0.000546539
4.46166e-05
-9.49799e-05
7.55216e-05
-7.99286e-05
8.09537e-05
-3.80423e-05
6.56606e-05
5.18357e-07
2.50553e-05
3.50284e-05
-5.18078e-05
8.11181e-05
-0.000174756
0.000156621
-0.000324304
0.000222134
-0.000428016
0.000242411
-0.000464323
0.000229712
-0.000501011
0.000183954
0.000144583
-0.000536492
3.29903e-05
-0.000127965
4.73374e-05
-9.42709e-05
3.62594e-05
-2.69594e-05
-3.38646e-06
4.01692e-05
-8.41942e-05
0.000115841
-0.000203449
0.000200378
-0.000314772
0.000267949
-0.000380097
0.000287464
-0.000411046
0.000273365
-0.000420764
0.000239435
-0.000431529
0.000194724
0.000154665
-0.000441606
-3.17744e-06
-0.000124782
-1.72855e-05
-8.01574e-05
-5.0083e-05
5.8434e-06
-0.000108021
9.81124e-05
-0.000189078
0.000196904
-0.000266117
0.000277422
-0.000312203
0.000314041
-0.000330789
0.000306055
-0.000336585
0.000279167
-0.000338219
0.000241074
-0.000341034
0.000197544
0.000156268
-0.000342632
-2.86887e-05
-9.60879e-05
-6.68212e-05
-4.2019e-05
-0.000114458
5.34862e-05
-0.000170467
0.000154127
-0.000223621
0.000250063
-0.00025447
0.000308277
-0.00026055
0.000320126
-0.000256115
0.000301626
-0.000247828
0.000270885
-0.000240115
0.000233367
-0.000235265
0.0001927
0.000152493
-0.000231484
-5.15846e-05
-4.44971e-05
-0.000101003
7.4059e-06
-0.000148107
0.000100596
-0.000184543
0.000190569
-0.00020262
0.000268146
-0.000198789
0.000304452
-0.000184105
0.000305449
-0.000167229
0.000284757
-0.000151687
0.000255349
-0.000139088
0.000220775
-0.000129879
0.000183497
0.000145577
-0.000122957
-6.57968e-05
2.13065e-05
-0.000120433
6.20484e-05
-0.000155285
0.000135456
-0.000165621
0.000200911
-0.000153002
0.000255534
-0.000127572
0.000279029
-9.98718e-05
0.000277755
-7.53095e-05
0.000260202
-5.47577e-05
0.000234804
-3.84969e-05
0.000204521
-2.62146e-05
0.000171221
0.000136321
-1.69519e-05
-7.5167e-05
9.64807e-05
-0.000122586
0.000109475
-0.000138838
0.000151715
-0.000125781
0.000187862
-9.26998e-05
0.00022246
-5.37408e-05
0.000240078
-1.6943e-05
0.000240964
1.41109e-05
0.000229155
3.92652e-05
0.000209657
5.90395e-05
0.000184754
7.42602e-05
0.000156008
0.000124617
8.59715e-05
-7.0504e-05
0.000166993
-0.000106893
0.000145871
-0.000102936
0.000147766
-7.35479e-05
0.000158481
-2.86848e-05
0.000177605
1.91958e-05
0.000192205
6.30837e-05
0.000197084
9.99466e-05
0.0001923
0.000129712
0.0001799
0.000153259
0.000161214
0.000171767
0.000137507
0.000109953
0.00018644
-7.03238e-05
0.000237325
-7.14393e-05
0.000146995
-4.18278e-05
0.000118163
1.28376e-06
0.000115377
5.27905e-05
0.000126106
0.000104462
0.000140542
0.000151152
0.000150402
0.000190654
0.000152806
0.000222981
0.000147581
0.000249092
0.000135111
0.000270259
0.000116348
9.24547e-05
0.000287765
-2.46513e-08
0.000237358
3.12369e-05
0.000115742
8.02834e-05
6.91251e-05
0.000130054
6.56154e-05
0.000178901
7.72683e-05
0.000224664
9.47873e-05
0.000265582
0.000109493
0.000300781
0.000117615
0.000330441
0.000117931
0.000355358
0.000110202
0.000376601
9.51139e-05
7.36708e-05
0.000395394
0.000192944
4.44227e-05
0.000266156
4.25398e-05
0.000312037
2.32534e-05
0.000344285
3.33762e-05
0.000370631
5.09316e-05
0.000395388
7.00391e-05
0.000418992
8.58982e-05
0.000440986
9.56301e-05
0.000461094
9.78321e-05
0.000479603
9.17022e-05
0.000497047
7.76792e-05
0.000514551
5.61763e-05
-0.000625831
7.92898e-05
-0.000674881
4.90674e-05
-0.000700162
2.52788e-05
-0.00070088
7.21942e-07
-0.000680863
-2.00131e-05
-0.00063889
-4.19691e-05
-0.000573952
-6.4934e-05
-0.000484421
-8.95271e-05
-0.000368871
-0.000115546
-0.00022836
-0.000140508
-8.52887e-05
-0.000143067
-8.52847e-05
-0.000561819
0.000104621
-0.000579534
6.67886e-05
-0.000586943
3.26918e-05
-0.00058584
-3.77129e-07
-0.00057411
-3.17389e-05
-0.000550499
-6.55755e-05
-0.000513294
-0.000102135
-0.000460387
-0.00014243
-0.00038901
-0.000186918
-0.000297203
-0.000232311
-0.000174802
-0.000265463
-0.000260083
-0.000450885
0.000113905
-0.000458163
7.40709e-05
-0.000461119
3.56529e-05
-0.000458714
-2.77731e-06
-0.000448266
-4.21825e-05
-0.000429662
-8.41739e-05
-0.00040172
-0.000130073
-0.000363425
-0.00018072
-0.000313107
-0.000237231
-0.000245779
-0.000299634
-0.000150641
-0.000360597
-0.000410719
-0.000343567
0.000114845
-0.000343342
7.38516e-05
-0.000341034
3.33506e-05
-0.00033595
-7.85653e-06
-0.000327115
-5.10124e-05
-0.000313811
-9.74719e-05
-0.000294895
-0.000148984
-0.00026926
-0.00020635
-0.000235013
-0.000271473
-0.00018661
-0.000348031
-0.00011354
-0.000433661
-0.000524254
-0.000228657
0.000112023
-0.000226261
7.14618e-05
-0.000223447
3.05418e-05
-0.000219577
-1.17204e-05
-0.000214089
-5.6494e-05
-0.000206447
-0.000105108
-0.000195918
-0.000159506
-0.000181574
-0.000220688
-0.000161412
-0.00029163
-0.000133334
-0.000376103
-8.61463e-05
-0.000480843
-0.000610395
-0.000117893
0.000106966
-0.000114143
6.77184e-05
-0.000111094
2.7499e-05
-0.000108325
-1.44835e-05
-0.00010554
-5.92722e-05
-0.00010249
-0.000108153
-9.92494e-05
-0.00016274
-9.51628e-05
-0.000224768
-8.93877e-05
-0.000297398
-7.98578e-05
-0.000385627
-5.71645e-05
-0.00050353
-0.000667553
-1.00776e-05
0.000100098
-5.06026e-06
6.27079e-05
-1.46538e-06
2.39109e-05
8.91196e-07
-1.68333e-05
1.9719e-06
-6.03461e-05
1.54852e-06
-0.000107723
-8.21763e-07
-0.000160363
-5.43657e-06
-0.000220147
-1.23498e-05
-0.000290478
-2.04818e-05
-0.000377488
-2.50224e-05
-0.000498983
-0.000692569
9.49875e-05
9.10892e-05
0.000101846
5.58569e-05
0.000106883
1.88804e-05
0.00011007
-2.00129e-05
0.000111031
-6.12998e-05
0.000109049
-0.000105733
0.000103014
-0.000154321
9.15632e-05
-0.000208689
7.31858e-05
-0.000272094
4.72015e-05
-0.000351496
1.63799e-05
-0.000468154
-0.000676182
0.000198318
7.9219e-05
0.000207968
4.62142e-05
0.000215713
1.11437e-05
0.000221334
-2.56262e-05
0.000224134
-6.40923e-05
0.000222894
-0.000104485
0.000215716
-0.000147135
0.000200064
-0.000193029
0.000172492
-0.000244515
0.000129353
-0.000308349
6.90788e-05
-0.000407873
-0.000607095
0.000302879
6.41134e-05
0.00031607
3.3032e-05
0.00032767
-4.48234e-07
0.000337269
-3.52169e-05
0.000343853
-7.06683e-05
0.000345712
-0.000106337
0.000340184
-0.0001416
0.000323671
-0.000176507
0.000290755
-0.000211591
0.000234877
-0.000252463
0.000145457
-0.000318445
-0.000461629
0.000413236
4.62795e-05
0.000430125
1.61519e-05
0.000446293
-1.66071e-05
0.000461006
-4.99222e-05
0.00047288
-8.25336e-05
0.000479713
-0.000113161
0.000478277
-0.000140155
0.000464364
-0.000162585
0.00043109
-0.000178308
0.000370111
-0.000191476
0.00025624
-0.000204565
-0.000205381
0.000534016
2.68227e-05
0.000554374
-4.19646e-06
0.000575452
-3.76758e-05
0.000595853
-7.03147e-05
0.000613714
-0.000100386
0.000626308
-0.000125746
0.000630237
-0.000144074
0.00062156
-0.000153899
0.000593791
-0.000150531
0.00053597
-0.000133646
0.000406374
-7.49605e-05
0.000201003
5.03718e-05
-5.03678e-05
9.94038e-05
-4.90281e-05
0.000132022
-3.26146e-05
0.000146806
-1.47792e-05
0.000152391
-5.58126e-06
0.000148144
4.25073e-06
0.00011448
3.36684e-05
4.19012e-05
7.25823e-05
-9.67892e-05
0.000138694
-0.000290185
0.0001934
-0.000437443
0.000147261
0.000109098
-0.000546538
4.46166e-05
-9.498e-05
7.55216e-05
-7.99287e-05
8.09537e-05
-3.80423e-05
6.56605e-05
5.18414e-07
2.50552e-05
3.50285e-05
-5.18079e-05
8.11182e-05
-0.000174756
0.000156621
-0.000324304
0.000222134
-0.000428016
0.000242411
-0.000464323
0.000229712
-0.000501011
0.000183954
0.000144583
-0.000536491
3.29902e-05
-0.000127965
4.73372e-05
-9.42707e-05
3.62591e-05
-2.69593e-05
-3.38686e-06
4.01693e-05
-8.41946e-05
0.000115841
-0.000203449
0.000200378
-0.000314772
0.000267949
-0.000380097
0.000287464
-0.000411046
0.000273365
-0.000420764
0.000239435
-0.000431529
0.000194723
0.000154665
-0.000441606
-3.17763e-06
-0.000124782
-1.72859e-05
-8.01571e-05
-5.00834e-05
5.84359e-06
-0.000108021
9.81125e-05
-0.000189078
0.000196904
-0.000266117
0.000277422
-0.000312203
0.00031404
-0.000330789
0.000306055
-0.000336585
0.000279166
-0.000338219
0.000241074
-0.000341034
0.000197544
0.000156268
-0.000342632
-2.86889e-05
-9.60876e-05
-6.68215e-05
-4.20187e-05
-0.000114458
5.34864e-05
-0.000170467
0.000154127
-0.000223621
0.000250063
-0.00025447
0.000308277
-0.00026055
0.000320126
-0.000256115
0.000301626
-0.000247828
0.000270885
-0.000240115
0.000233367
-0.000235265
0.000192699
0.000152493
-0.000231484
-5.15847e-05
-4.44967e-05
-0.000101003
7.40628e-06
-0.000148107
0.000100596
-0.000184543
0.000190569
-0.00020262
0.000268146
-0.000198789
0.000304452
-0.000184105
0.000305448
-0.000167229
0.000284757
-0.000151687
0.000255349
-0.000139088
0.000220775
-0.000129879
0.000183496
0.000145577
-0.000122957
-6.57968e-05
2.13069e-05
-0.000120433
6.20487e-05
-0.000155285
0.000135456
-0.000165621
0.000200911
-0.000153002
0.000255534
-0.000127572
0.000279029
-9.98718e-05
0.000277754
-7.53095e-05
0.000260201
-5.47577e-05
0.000234804
-3.84969e-05
0.000204521
-2.62146e-05
0.000171221
0.000136321
-1.69519e-05
-7.5167e-05
9.64811e-05
-0.000122586
0.000109475
-0.000138838
0.000151715
-0.000125781
0.000187862
-9.26998e-05
0.00022246
-5.37408e-05
0.000240077
-1.6943e-05
0.000240964
1.41109e-05
0.000229154
3.92651e-05
0.000209657
5.90395e-05
0.000184753
7.42602e-05
0.000156007
0.000124617
8.59715e-05
-7.0504e-05
0.000166993
-0.000106893
0.000145871
-0.000102936
0.000147766
-7.35477e-05
0.000158481
-2.86847e-05
0.000177605
1.91958e-05
0.000192204
6.30836e-05
0.000197084
9.99466e-05
0.000192299
0.000129712
0.000179899
0.000153259
0.000161214
0.000171767
0.000137507
0.000109952
0.00018644
-7.03237e-05
0.000237325
-7.14392e-05
0.000146995
-4.18276e-05
0.000118163
1.28397e-06
0.000115377
5.27907e-05
0.000126106
0.000104462
0.000140542
0.000151152
0.000150402
0.000190654
0.000152805
0.000222981
0.000147581
0.000249092
0.000135111
0.000270259
0.000116348
9.24543e-05
0.000287766
-2.45217e-08
0.000237358
3.12371e-05
0.000115742
8.02837e-05
6.91251e-05
0.000130054
6.56153e-05
0.000178901
7.72682e-05
0.000224664
9.4787e-05
0.000265582
0.000109492
0.000300782
0.000117614
0.000330441
0.00011793
0.000355358
0.000110202
0.000376601
9.51134e-05
7.36704e-05
0.000395394
0.000192945
4.44226e-05
0.000266156
4.25398e-05
0.000312037
2.32534e-05
0.000344286
3.33761e-05
0.000370632
5.09314e-05
0.000395389
7.00389e-05
0.000418993
8.58979e-05
0.000440986
9.56297e-05
0.000461094
9.78316e-05
0.000479604
9.17018e-05
0.000497047
7.76788e-05
0.000514551
5.61759e-05
-0.00062583
7.92897e-05
-0.00067488
4.90674e-05
-0.000700161
2.52787e-05
-0.00070088
7.21907e-07
-0.000680863
-2.00131e-05
-0.00063889
-4.19691e-05
-0.000573952
-6.4934e-05
-0.000484421
-8.95271e-05
-0.000368871
-0.000115546
-0.000228359
-0.000140508
-8.52884e-05
-0.000143067
-8.52845e-05
-0.000561819
0.000104621
-0.000579533
6.67884e-05
-0.000586943
3.26917e-05
-0.000585839
-3.77191e-07
-0.000574109
-3.17389e-05
-0.000550499
-6.55755e-05
-0.000513294
-0.000102135
-0.000460387
-0.00014243
-0.00038901
-0.000186918
-0.000297203
-0.000232311
-0.000174802
-0.000265463
-0.000260082
-0.000450885
0.000113905
-0.000458163
7.40708e-05
-0.000461119
3.56528e-05
-0.000458714
-2.77738e-06
-0.000448265
-4.21826e-05
-0.000429662
-8.41739e-05
-0.000401719
-0.000130073
-0.000363424
-0.00018072
-0.000313107
-0.000237231
-0.000245779
-0.000299633
-0.000150641
-0.000360596
-0.000410718
-0.000343567
0.000114844
-0.000343342
7.38514e-05
-0.000341034
3.33505e-05
-0.00033595
-7.85662e-06
-0.000327114
-5.10124e-05
-0.000313811
-9.74719e-05
-0.000294895
-0.000148984
-0.00026926
-0.00020635
-0.000235013
-0.000271473
-0.00018661
-0.000348031
-0.00011354
-0.000433661
-0.000524253
-0.000228657
0.000112023
-0.000226261
7.14616e-05
-0.000223446
3.05417e-05
-0.000219577
-1.17205e-05
-0.000214089
-5.64941e-05
-0.000206447
-0.000105108
-0.000195918
-0.000159506
-0.000181574
-0.000220688
-0.000161412
-0.000291629
-0.000133334
-0.000376103
-8.61463e-05
-0.000480843
-0.000610394
-0.000117893
0.000106965
-0.000114143
6.77183e-05
-0.000111094
2.74989e-05
-0.000108325
-1.44836e-05
-0.00010554
-5.92722e-05
-0.000102489
-0.000108153
-9.92493e-05
-0.00016274
-9.51627e-05
-0.000224768
-8.93876e-05
-0.000297398
-7.98578e-05
-0.000385626
-5.71645e-05
-0.00050353
-0.000667552
-1.00776e-05
0.000100098
-5.06022e-06
6.27077e-05
-1.46532e-06
2.39107e-05
8.91269e-07
-1.68334e-05
1.97198e-06
-6.03462e-05
1.5486e-06
-0.000107723
-8.21688e-07
-0.000160363
-5.43651e-06
-0.000220147
-1.23498e-05
-0.000290478
-2.04817e-05
-0.000377488
-2.50224e-05
-0.000498983
-0.000692568
9.49875e-05
9.10889e-05
0.000101846
5.58567e-05
0.000106884
1.88802e-05
0.00011007
-2.0013e-05
0.000111031
-6.12999e-05
0.000109049
-0.000105733
0.000103014
-0.000154321
9.15632e-05
-0.000208689
7.31858e-05
-0.000272094
4.72015e-05
-0.000351496
1.63799e-05
-0.000468154
-0.000676181
0.000198318
7.92187e-05
0.000207968
4.62139e-05
0.000215713
1.11435e-05
0.000221334
-2.56264e-05
0.000224134
-6.40924e-05
0.000222894
-0.000104485
0.000215716
-0.000147135
0.000200064
-0.000193029
0.000172492
-0.000244515
0.000129353
-0.000308349
6.90788e-05
-0.000407872
-0.000607094
0.000302879
6.41131e-05
0.00031607
3.30317e-05
0.00032767
-4.48411e-07
0.000337269
-3.5217e-05
0.000343853
-7.06683e-05
0.000345712
-0.000106337
0.000340185
-0.0001416
0.000323671
-0.000176507
0.000290755
-0.000211591
0.000234877
-0.000252463
0.000145457
-0.000318444
-0.000461629
0.000413236
4.62791e-05
0.000430125
1.61516e-05
0.000446293
-1.66073e-05
0.000461007
-4.99223e-05
0.000472881
-8.25336e-05
0.000479713
-0.000113161
0.000478277
-0.000140155
0.000464364
-0.000162585
0.00043109
-0.000178308
0.000370111
-0.000191476
0.00025624
-0.000204565
-0.00020538
0.000534017
2.68224e-05
0.000554374
-4.19669e-06
0.000575452
-3.76759e-05
0.000595853
-7.03147e-05
0.000613715
-0.000100386
0.000626308
-0.000125746
0.000630237
-0.000144074
0.00062156
-0.000153899
0.000593791
-0.00015053
0.00053597
-0.000133645
0.000406374
-7.49601e-05
0.000201003
5.03717e-05
-5.03677e-05
9.94037e-05
-4.9028e-05
0.000132022
-3.26146e-05
0.000146805
-1.47792e-05
0.000152391
-5.58133e-06
0.000148144
4.25056e-06
0.00011448
3.36681e-05
4.19018e-05
7.25821e-05
-9.6788e-05
0.000138694
-0.000290184
0.0001934
-0.000437442
0.000147262
0.000109098
-0.000546537
4.46165e-05
-9.49799e-05
7.55216e-05
-7.99286e-05
8.09538e-05
-3.80424e-05
6.56607e-05
5.18234e-07
2.50556e-05
3.50282e-05
-5.18071e-05
8.11177e-05
-0.000174755
0.00015662
-0.000324302
0.000222134
-0.000428015
0.000242411
-0.000464322
0.000229712
-0.00050101
0.000183954
0.000144583
-0.000536491
3.29903e-05
-0.000127965
4.73375e-05
-9.42709e-05
3.62596e-05
-2.69596e-05
-3.38605e-06
4.01688e-05
-8.41934e-05
0.00011584
-0.000203448
0.000200377
-0.000314771
0.000267949
-0.000380096
0.000287464
-0.000411046
0.000273365
-0.000420764
0.000239435
-0.000431529
0.000194724
0.000154665
-0.000441605
-3.17734e-06
-0.000124783
-1.72853e-05
-8.01576e-05
-5.00826e-05
5.84304e-06
-0.00010802
9.81118e-05
-0.000189077
0.000196903
-0.000266117
0.000277422
-0.000312203
0.00031404
-0.000330788
0.000306055
-0.000336584
0.000279167
-0.000338219
0.000241074
-0.000341034
0.000197544
0.000156268
-0.000342632
-2.86886e-05
-9.60882e-05
-6.68209e-05
-4.20194e-05
-0.000114458
5.34857e-05
-0.000170466
0.000154126
-0.00022362
0.000250063
-0.00025447
0.000308277
-0.00026055
0.000320126
-0.000256115
0.000301626
-0.000247828
0.000270885
-0.000240115
0.000233367
-0.000235265
0.0001927
0.000152493
-0.000231484
-5.15845e-05
-4.44974e-05
-0.000101003
7.40553e-06
-0.000148107
0.000100596
-0.000184543
0.000190569
-0.00020262
0.000268146
-0.000198789
0.000304452
-0.000184105
0.000305449
-0.000167229
0.000284757
-0.000151687
0.000255349
-0.000139088
0.000220775
-0.000129879
0.000183497
0.000145577
-0.000122957
-6.57968e-05
2.13062e-05
-0.000120433
6.2048e-05
-0.000155286
0.000135455
-0.000165621
0.000200911
-0.000153002
0.000255534
-0.000127573
0.000279029
-9.9872e-05
0.000277755
-7.53096e-05
0.000260201
-5.47577e-05
0.000234804
-3.84969e-05
0.000204521
-2.62145e-05
0.000171221
0.000136321
-1.69519e-05
-7.51671e-05
9.64806e-05
-0.000122586
0.000109474
-0.000138838
0.000151715
-0.000125781
0.000187861
-9.27002e-05
0.00022246
-5.37411e-05
0.000240077
-1.69432e-05
0.000240964
1.41107e-05
0.000229155
3.9265e-05
0.000209657
5.90395e-05
0.000184754
7.42602e-05
0.000156008
0.000124617
8.59715e-05
-7.05041e-05
0.000166992
-0.000106893
0.000145871
-0.000102937
0.000147766
-7.35482e-05
0.00015848
-2.86851e-05
0.000177604
1.91955e-05
0.000192204
6.30834e-05
0.000197084
9.99464e-05
0.000192299
0.000129711
0.0001799
0.000153259
0.000161214
0.000171767
0.000137507
0.000109952
0.00018644
-7.03238e-05
0.000237325
-7.14394e-05
0.000146995
-4.1828e-05
0.000118163
1.28354e-06
0.000115377
5.27903e-05
0.000126106
0.000104461
0.000140541
0.000151152
0.000150402
0.000190654
0.000152805
0.000222981
0.000147581
0.000249092
0.000135111
0.000270259
0.000116348
9.24545e-05
0.000287765
-2.46315e-08
0.000237358
3.12369e-05
0.000115742
8.02833e-05
6.9125e-05
0.000130054
6.56152e-05
0.000178901
7.7268e-05
0.000224664
9.47869e-05
0.000265582
0.000109492
0.000300781
0.000117614
0.00033044
0.000117931
0.000355358
0.000110202
0.000376601
9.51135e-05
7.36705e-05
0.000395394
0.000192945
4.44226e-05
0.000266156
4.25398e-05
0.000312037
2.32533e-05
0.000344285
3.3376e-05
0.000370631
5.09313e-05
0.000395388
7.00387e-05
0.000418992
8.58977e-05
0.000440986
9.56296e-05
0.000461094
9.78316e-05
0.000479603
9.17018e-05
0.000497047
7.76788e-05
0.000514551
5.61759e-05
-0.00062583
7.92899e-05
-0.00067488
4.90675e-05
-0.000700161
2.52788e-05
-0.000700879
7.22022e-07
-0.000680862
-2.0013e-05
-0.00063889
-4.1969e-05
-0.000573952
-6.49339e-05
-0.000484421
-8.9527e-05
-0.000368871
-0.000115546
-0.000228359
-0.000140508
-8.52884e-05
-0.000143067
-8.52845e-05
-0.000561818
0.000104621
-0.000579533
6.67887e-05
-0.000586943
3.26919e-05
-0.000585839
-3.77029e-07
-0.000574109
-3.17388e-05
-0.000550498
-6.55753e-05
-0.000513293
-0.000102135
-0.000460387
-0.00014243
-0.00038901
-0.000186918
-0.000297203
-0.000232311
-0.000174802
-0.000265463
-0.000260082
-0.000450885
0.000113905
-0.000458162
7.4071e-05
-0.000461119
3.5653e-05
-0.000458714
-2.77719e-06
-0.000448265
-4.21824e-05
-0.000429662
-8.41737e-05
-0.000401719
-0.000130072
-0.000363424
-0.00018072
-0.000313107
-0.000237231
-0.000245779
-0.000299633
-0.000150641
-0.000360596
-0.000410718
-0.000343566
0.000114845
-0.000343342
7.38517e-05
-0.000341034
3.33507e-05
-0.000335949
-7.85642e-06
-0.000327114
-5.10123e-05
-0.000313811
-9.74717e-05
-0.000294895
-0.000148983
-0.00026926
-0.000206349
-0.000235013
-0.000271473
-0.00018661
-0.000348031
-0.00011354
-0.00043366
-0.000524253
-0.000228657
0.000112023
-0.000226261
7.14618e-05
-0.000223446
3.05419e-05
-0.000219577
-1.17203e-05
-0.000214089
-5.64939e-05
-0.000206447
-0.000105108
-0.000195918
-0.000159506
-0.000181574
-0.000220688
-0.000161412
-0.000291629
-0.000133334
-0.000376103
-8.61463e-05
-0.000480843
-0.000610394
-0.000117893
0.000106966
-0.000114143
6.77185e-05
-0.000111094
2.74991e-05
-0.000108325
-1.44834e-05
-0.00010554
-5.9272e-05
-0.000102489
-0.000108153
-9.92492e-05
-0.00016274
-9.51626e-05
-0.000224768
-8.93875e-05
-0.000297398
-7.98577e-05
-0.000385626
-5.71644e-05
-0.00050353
-0.000667552
-1.00775e-05
0.000100098
-5.06011e-06
6.27079e-05
-1.4652e-06
2.3911e-05
8.9138e-07
-1.68332e-05
1.97209e-06
-6.0346e-05
1.54869e-06
-0.000107723
-8.21602e-07
-0.000160363
-5.43643e-06
-0.000220147
-1.23497e-05
-0.000290478
-2.04817e-05
-0.000377487
-2.50223e-05
-0.000498983
-0.000692568
9.49876e-05
9.10891e-05
0.000101846
5.58569e-05
0.000106884
1.88804e-05
0.00011007
-2.00128e-05
0.000111031
-6.12997e-05
0.000109049
-0.000105733
0.000103014
-0.00015432
9.15633e-05
-0.000208689
7.31859e-05
-0.000272094
4.72015e-05
-0.000351496
1.63799e-05
-0.000468154
-0.000676181
0.000198318
7.92189e-05
0.000207968
4.62141e-05
0.000215713
1.11437e-05
0.000221334
-2.56262e-05
0.000224134
-6.40922e-05
0.000222894
-0.000104485
0.000215716
-0.000147135
0.000200064
-0.000193029
0.000172492
-0.000244514
0.000129353
-0.000308349
6.90788e-05
-0.000407872
-0.000607094
0.000302879
6.41133e-05
0.00031607
3.30319e-05
0.00032767
-4.48252e-07
0.000337269
-3.52169e-05
0.000343853
-7.06681e-05
0.000345712
-0.000106336
0.000340185
-0.000141599
0.000323671
-0.000176507
0.000290755
-0.000211591
0.000234877
-0.000252463
0.000145457
-0.000318444
-0.000461629
0.000413236
4.62793e-05
0.000430125
1.61517e-05
0.000446293
-1.66072e-05
0.000461007
-4.99221e-05
0.000472881
-8.25334e-05
0.000479714
-0.000113161
0.000478277
-0.000140155
0.000464364
-0.000162585
0.00043109
-0.000178308
0.000370111
-0.000191476
0.00025624
-0.000204564
-0.00020538
0.000534017
2.68224e-05
0.000554374
-4.1966e-06
0.000575452
-3.76758e-05
0.000595853
-7.03146e-05
0.000613715
-0.000100386
0.000626308
-0.000125745
0.000630237
-0.000144074
0.00062156
-0.000153898
0.000593791
-0.00015053
0.00053597
-0.000133645
0.000406374
-7.496e-05
0.000201003
0.000720872
9.665e-05
-0.000773089
0.000692273
7.1148e-05
0.000654672
6.08633e-05
0.000628269
5.97891e-05
0.000612565
6.66444e-05
0.00060557
7.70439e-05
0.000604839
8.66384e-05
0.000608215
9.22628e-05
0.000614282
9.17751e-05
0.000622687
8.33064e-05
0.000633406
6.69699e-05
4.17264e-05
0.000647865
0.000930611
0.00010045
-0.0009344
0.000910202
9.15663e-05
0.000883
8.80751e-05
0.000854849
8.79504e-05
0.000829827
9.16766e-05
0.000809602
9.72785e-05
0.000794446
0.000101805
0.000784109
0.000102609
0.000778365
9.75294e-05
0.000777674
8.40076e-05
0.000782335
6.23184e-05
2.89327e-05
0.000795139
0.00105917
9.98021e-05
-0.00105851
0.00105122
9.95201e-05
0.00103782
0.000101488
0.00102048
0.000105302
0.0010013
0.000110863
0.000982237
0.000116354
0.000964816
0.000119237
0.00095041
0.000117025
0.000940438
0.000107512
0.00093679
8.76658e-05
0.000940987
5.81319e-05
1.20105e-05
0.00095792
0.00116766
-0.00116656
9.87133e-05
0.00116562
0.00010157
0.00115962
0.0001075
0.00115006
0.000114874
0.00113803
0.000122906
0.00112517
0.000129218
0.00111317
0.000131248
0.00110392
0.000126285
0.00109962
0.000111829