/*--------------------------------*- C++ -*----------------------------------*\
| =========                 |                                                 |
| \\      /  F ield         | OpenFOAM: The Open Source CFD Toolbox           |
|  \\    /   O peration     | Version:  2212                                  |
|   \\  /    A nd           | Website:  www.openfoam.com                      |
|    \\/     M anipulation  |                                                 |
\*---------------------------------------------------------------------------*/
FoamFile
{
    version     2.0;
    format      ascii;
    arch        "LSB;label=32;scalar=64";
    class       surfaceScalarField;
    location    "0.1";
    object      phi;
}
// * * * * * * * * * * * * * * * * * * * * * * * * * * * * * * * * * * * * * //

dimensions      [1 0 -1 0 0 0 0];

oriented        oriented;

internalField   nonuniform List<scalar> 
5952
(
6.54796e-05
-6.54796e-05
0.000123395
-5.79154e-05
0.000154573
-3.11781e-05
0.000168005
-1.34318e-05
0.000166554
1.45134e-06
0.000131324
3.52296e-05
5.62354e-05
7.50889e-05
-8.11837e-05
0.000137419
-0.00029385
0.000212666
-0.000468027
0.000174177
-0.000597377
0.000129351
9.81098e-05
-0.000695487
5.21149e-05
-0.000117594
7.88154e-05
-8.46159e-05
7.24307e-05
-2.47933e-05
3.10474e-05
2.79515e-05
-5.39325e-05
8.64314e-05
-0.000187412
0.000168709
-0.000349784
0.000237461
-0.000474107
0.000261743
-0.000517394
0.000255953
-0.000555509
0.000212293
-0.000594576
0.000168417
0.000131127
-0.000627593
2.15164e-05
-0.000139111
1.45794e-05
-7.76787e-05
-2.71178e-05
1.6904e-05
-0.000112508
0.000113342
-0.000237324
0.000211247
-0.000349561
0.000280946
-0.000416419
0.000304319
-0.000452102
0.000297426
-0.000464484
0.000268334
-0.000476672
0.00022448
-0.000490966
0.000182711
0.000142307
-0.000502146
-3.494e-05
-0.000104171
-8.0081e-05
-3.25377e-05
-0.000145091
8.19136e-05
-0.000225427
0.000193679
-0.000297657
0.000283477
-0.000340772
0.000324061
-0.000361446
0.000324992
-0.00036916
0.00030514
-0.000371044
0.000270218
-0.000373705
0.000227142
-0.000375941
0.000184948
0.000143342
-0.000376976
-5.9486e-05
-4.46846e-05
-0.000122112
3.00881e-05
-0.000183417
0.000143219
-0.00023597
0.000246232
-0.000267013
0.00031452
-0.00027643
0.000333478
-0.000275462
0.000324025
-0.000267612
0.00029729
-0.000258917
0.000261524
-0.000253081
0.000221306
-0.000248972
0.000180839
0.000140472
-0.000246102
-6.59884e-05
2.13039e-05
-0.000125408
8.95079e-05
-0.000172081
0.000189892
-0.000197436
0.000271587
-0.000200867
0.000317951
-0.000191642
0.000324253
-0.000176004
0.000308387
-0.000159487
0.000280773
-0.000144971
0.000247008
-0.000133748
0.000210083
-0.000125262
0.000172352
0.000134238
-0.000119028
-6.58965e-05
8.72005e-05
-0.000116869
0.00014048
-0.000144426
0.00021745
-0.000145395
0.000272556
-0.000127657
0.000300213
-0.000102577
0.000299173
-7.66203e-05
0.00028243
-5.28534e-05
0.000257006
-3.27005e-05
0.000226855
-1.65866e-05
0.000193969
-4.01293e-06
0.000159779
0.000124676
5.54896e-06
-6.74886e-05
0.000154689
-0.000104195
0.000177187
-0.000110453
0.000223708
-8.97816e-05
0.000251884
-5.46225e-05
0.000265054
-1.66383e-05
0.000261189
1.90445e-05
0.000246748
5.03243e-05
0.000225727
7.66204e-05
0.000200559
9.80393e-05
0.000172551
0.00011517
0.000142648
0.000111242
0.000128604
-5.70024e-05
0.000211692
-8.26869e-05
0.000202871
-6.76557e-05
0.000208677
-2.91508e-05
0.000213379
2.00353e-05
0.000215868
6.92683e-05
0.000211956
0.000114131
0.000201885
0.000153031
0.000186826
0.000185837
0.000167753
0.000212981
0.000145406
0.000235158
0.000120471
9.33833e-05
0.000253017
-6.04858e-05
0.000272178
-4.97292e-05
0.000192115
-4.77549e-06
0.000163724
5.19717e-05
0.000156632
0.000112799
0.000155041
0.000170447
0.000154308
0.000221957
0.000150375
0.000266495
0.000142288
0.000304319
0.000129929
0.000336077
0.000113648
0.000362527
9.40217e-05
7.15864e-05
0.000384324
7.62158e-06
0.000264556
5.66562e-05
0.00014308
0.000124899
9.54812e-05
0.000192682
8.88489e-05
0.000256122
9.16012e-05
0.000313286
9.71435e-05
0.000363714
9.99478e-05
0.000407597
9.84047e-05
0.000445481
9.20456e-05
0.000477991
8.1138e-05
0.000505761
6.62518e-05
4.80701e-05
0.000529278
0.000219174
4.53819e-05
0.000314266
4.79883e-05
0.000381181
2.85662e-05
0.000433904
3.61261e-05
0.000478162
4.73431e-05
0.00051809
5.72159e-05
0.000554793
6.3245e-05
0.000588426
6.47723e-05
0.000619009
6.14621e-05
0.000646558
5.35895e-05
0.000671189
4.16211e-05
0.00069295
2.63087e-05
-0.000763807
6.83204e-05
-0.000804505
4.06978e-05
-0.000821126
1.6621e-05
-0.000814372
-6.7541e-06
-0.000786285
-2.80874e-05
-0.000735766
-5.05185e-05
-0.000661244
-7.45217e-05
-0.000560901
-0.000100343
-0.00043258
-0.000128321
-0.000276551
-0.000156029
-0.000111968
-0.000164583
-0.000111968
-0.000650559
9.12871e-05
-0.000665077
5.52153e-05
-0.00066975
2.12942e-05
-0.000665335
-1.11695e-05
-0.000649656
-4.37663e-05
-0.000621076
-7.90979e-05
-0.000577699
-0.000117899
-0.000517115
-0.000160927
-0.000436347
-0.00020909
-0.000332633
-0.000259742
-0.000197517
-0.0002997
-0.000309484
-0.000511551
0.000100692
-0.000517435
6.10992e-05
-0.000518755
2.26136e-05
-0.000513778
-1.61459e-05
-0.000500642
-5.69024e-05
-0.000478474
-0.000101266
-0.000445817
-0.000150556
-0.000401281
-0.000205463
-0.000343075
-0.000267295
-0.000266149
-0.000336668
-0.000159844
-0.000406005
-0.000469328
-0.000378191
0.000101907
-0.000378456
6.13642e-05
-0.000376377
2.05346e-05
-0.000370781
-2.17411e-05
-0.000360793
-6.68908e-05
-0.000345631
-0.000116427
-0.000324063
-0.000172125
-0.000295119
-0.000234407
-0.000256501
-0.000305913
-0.000203693
-0.000389476
-0.000124711
-0.000484987
-0.000594039
-0.00024427
0.000100076
-0.000242482
5.95763e-05
-0.000239978
1.80305e-05
-0.000236088
-2.5631e-05
-0.000230278
-7.27006e-05
-0.000221963
-0.000124742
-0.000210583
-0.000183505
-0.000194885
-0.000250106
-0.000172796
-0.000328002
-0.000141532
-0.00042074
-8.95926e-05
-0.000536926
-0.000683631
-0.000114607
9.56551e-05
-0.000111345
5.63145e-05
-0.000108764
1.54496e-05
-0.000106502
-2.78929e-05
-0.000104305
-7.4898e-05
-0.000102043
-0.000127004
-9.96918e-05
-0.000185856
-9.64526e-05
-0.000253345
-9.15544e-05
-0.0003329
-8.2584e-05
-0.00042971
-6.02139e-05
-0.000559296
-0.000743845
1.25723e-05
8.86318e-05
1.75083e-05
5.13786e-05
2.06208e-05
1.23372e-05
2.19964e-05
-2.92684e-05
2.15391e-05
-7.44407e-05
1.89881e-05
-0.000124453
1.39999e-05
-0.000180867
6.44222e-06
-0.000245787
-3.58404e-06
-0.000322874
-1.47328e-05
-0.000418561
-2.21778e-05
-0.000551851
-0.000766023
0.000138826
7.841e-05
0.000146173
4.40313e-05
0.000150748
7.76237e-06
0.000152405
-3.09253e-05
0.000150725
-7.27608e-05
0.000145015
-0.000118742
0.000134295
-0.000170148
0.000117398
-0.00022889
9.29733e-05
-0.000298449
6.03684e-05
-0.000385956
2.2352e-05
-0.000513835
-0.000743671
0.000267061
6.43665e-05
0.000277576
3.35163e-05
0.000284563
7.75062e-07
0.000287713
-3.40746e-05
0.000286343
-7.13908e-05
0.000279365
-0.000111765
0.000265132
-0.000155914
0.000241425
-0.000205183
0.000205076
-0.0002621
0.000152485
-0.000333365
8.13743e-05
-0.000442724
-0.000662297
0.000401968
4.67222e-05
0.000415717
1.97676e-05
0.000425502
-9.00985e-06
0.000430903
-3.94751e-05
0.000431052
-7.15403e-05
0.000424581
-0.000105294
0.000409272
-0.000140605
0.000381985
-0.000177895
0.000337576
-0.000217691
0.000269357
-0.000265146
0.000164787
-0.000338153
-0.00049751
0.000548925
2.70748e-05
0.000564864
3.82895e-06
0.000576929
-2.10751e-05
0.000584607
-4.71528e-05
0.000586899
-7.38317e-05
0.000582289
-0.000100684
0.000568271
-0.000126588
0.000541282
-0.000150905
0.000494556
-0.000170965
0.000419533
-0.000190124
0.000288306
-0.000206925
-0.000209204
0.000711947
8.07772e-06
0.000728121
-1.23447e-05
0.000741127
-3.4081e-05
0.000750322
-5.6348e-05
0.000754636
-7.81451e-05
0.000752536
-9.85837e-05
0.000741539
-0.000115591
0.000718427
-0.000127794
0.000676698
-0.000129235
0.000604143
-0.000117569
0.000452158
-5.49393e-05
0.000242953
6.07542e-05
-6.07541e-05
0.000116478
-5.57235e-05
0.000147964
-3.14858e-05
0.00016043
-1.24668e-05
0.00016207
-1.63964e-06
0.00013841
2.36601e-05
7.42244e-05
6.41857e-05
-3.54581e-05
0.000109683
-0.000235075
0.000199617
-0.000418445
0.000183371
-0.000549954
0.000131509
0.000102929
-0.000652883
5.06072e-05
-0.000111361
7.88646e-05
-8.39809e-05
7.66896e-05
-2.93108e-05
4.50871e-05
1.91358e-05
-2.51505e-05
6.8598e-05
-0.000142353
0.000140863
-0.000297193
0.000219026
-0.000438144
0.000250633
-0.000493143
0.000254616
-0.000527155
0.000217383
-0.000566856
0.00017121
0.00013563
-0.000599558
2.66402e-05
-0.000138001
2.71775e-05
-8.45181e-05
-4.27938e-06
2.14616e-06
-7.52262e-05
9.00827e-05
-0.00019082
0.000184192
-0.000312734
0.000262776
-0.000389764
0.000296056
-0.000431712
0.000292582
-0.000445579
0.000268483
-0.00045557
0.000227374
-0.000469418
0.000185058
0.000146154
-0.000479941
-2.54116e-05
-0.00011259
-6.07013e-05
-4.92284e-05
-0.000116895
5.83394e-05
-0.000193569
0.000166757
-0.000271537
0.00026216
-0.000322112
0.000313352
-0.000345917
0.000319861
-0.000354923
0.000301588
-0.000356571
0.00027013
-0.00035815
0.000228953
-0.000360307
0.000187216
0.000146773
-0.000360927
-5.15009e-05
-6.10888e-05
-0.000108855
8.12566e-06
-0.000168296
0.00011778
-0.000223306
0.000221768
-0.000259165
0.000298018
-0.000269928
0.000324115
-0.000267503
0.000317436
-0.000259411
0.000293496
-0.000249372
0.000260091
-0.000242042
0.000221623
-0.000237043
0.000182217
0.000143085
-0.000233354
-6.32985e-05
2.20974e-06
-0.000121374
6.62011e-05
-0.000169311
0.000165718
-0.000197092
0.000249549
-0.00020149
0.000302416
-0.000190801
0.000313426
-0.000173594
0.000300229
-0.000155444
0.000275347
-0.000139221
0.000243868
-0.000126454
0.000208856
-0.000116911
0.000172674
0.000136143
-0.000109969
-6.70383e-05
6.92481e-05
-0.000119747
0.000118909
-0.000149454
0.000195425
-0.000151664
0.000251759
-0.000133112
0.000283864
-0.000106124
0.000286437
-7.83202e-05
0.000272426
-5.26576e-05
0.000249684
-3.07417e-05
0.000221952
-1.31458e-05
0.00019126
4.56726e-07
0.000159072
0.000125987
1.06135e-05
-7.06428e-05
0.000139891
-0.000110631
0.000158898
-0.000119388
0.000204182
-9.98076e-05
0.000232179
-6.38832e-05
0.00024794
-2.42611e-05
0.000246815
1.32303e-05
0.000234934
4.63635e-05
0.000216551
7.43441e-05
0.000193971
9.71466e-05
0.000168457
0.000115239
0.00014098
0.000112037
0.000129189
-6.12745e-05
0.000201166
-9.09727e-05
0.000188596
-7.88228e-05
0.000192033
-4.19881e-05
0.000195344
7.291e-06
0.000198661
5.76502e-05
0.000196456
0.000104043
0.000188542
0.000144592
0.000176002
0.000178928
0.000159635
0.000207323
0.000140063
0.00023037
0.000117933
9.37239e-05
0.000248683
-6.54216e-05
0.000266587
-5.85142e-05
0.000181689
-1.71424e-05
0.000150661
3.73289e-05
0.000140873
9.75669e-05
0.000138423
0.000155684
0.00013834
0.000208147
0.000136079
0.000253844
0.000130304
0.000292828
0.000120652
0.000325577
0.000107313
0.000352733
9.0777e-05
7.15577e-05
0.0003749
3.21099e-06
0.000263376
4.67218e-05
0.000138178
0.000111656
8.57272e-05
0.000177244
7.52847e-05
0.000239675
7.59921e-05
0.000296504
8.15107e-05
0.000347023
8.55599e-05
0.000391303
8.60239e-05
0.00042977
8.21854e-05
0.000462905
7.41779e-05
0.000491168
6.25144e-05
4.77708e-05
0.000514955
0.000211608
5.17681e-05
0.000302173
4.76133e-05
0.000367339
2.05614e-05
0.00041852
2.41041e-05
0.000461132
3.33798e-05
0.000499689
4.29535e-05
0.000535479
4.97707e-05
0.000568706
5.27964e-05
0.00059932
5.15721e-05
0.000627188
4.63093e-05
0.000652188
3.75144e-05
0.000674224
2.57351e-05
-0.000723966
7.10836e-05
-0.000768262
4.42955e-05
-0.000787749
1.94871e-05
-0.000784118
-3.63119e-06
-0.000758858
-2.52592e-05
-0.000711669
-4.71898e-05
-0.000640304
-7.13646e-05
-0.000543469
-9.68352e-05
-0.00041857
-0.000124899
-0.000266272
-0.000152298
-0.000106038
-0.000160234
-0.000106038
-0.000623573
9.5098e-05
-0.00063873
5.94528e-05
-0.000644655
2.54124e-05
-0.000641443
-6.84371e-06
-0.000627734
-3.89675e-05
-0.000601128
-7.37961e-05
-0.000560287
-0.000112206
-0.000502298
-0.000154824
-0.000424483
-0.000202714
-0.00032394
-0.000252841
-0.000192281
-0.000291893
-0.000298319
-0.000489843
0.000104999
-0.000496215
6.58245e-05
-0.000498493
2.76914e-05
-0.000494862
-1.04752e-05
-0.000483302
-5.0527e-05
-0.000462974
-9.4124e-05
-0.000432383
-0.000142797
-0.000390318
-0.000196889
-0.000334943
-0.00025809
-0.000260899
-0.000326884
-0.000157641
-0.000395152
-0.00045596
-0.000361745
0.000105818
-0.000361948
6.60276e-05
-0.000360365
2.61079e-05
-0.000355689
-1.51507e-05
-0.000346988
-5.92283e-05
-0.000333479
-0.000107632
-0.000313819
-0.000162457
-0.000286952
-0.000223756
-0.000250512
-0.000294529
-0.000199527
-0.000377869
-0.000122233
-0.000472446
-0.000578193
-0.000231237
0.0001037
-0.000229607
6.43973e-05
-0.000227672
2.41732e-05
-0.000224717
-1.81052e-05
-0.000220156
-6.37901e-05
-0.000213313
-0.000114475
-0.000203649
-0.000172121
-0.000189717
-0.000237687
-0.000169358
-0.000314888
-0.000140014
-0.000407213
-8.96092e-05
-0.000522851
-0.000667802
-0.000105353
9.90844e-05
-0.000102334
6.13785e-05
-0.000100375
2.22142e-05
-9.90564e-05
-1.94237e-05
-9.80608e-05
-6.47856e-05
-9.7154e-05
-0.000115382
-9.62967e-05
-0.000172978
-9.44889e-05
-0.000239495
-9.0871e-05
-0.000318506
-8.29283e-05
-0.000415155
-6.0917e-05
-0.000544862
-0.000728719
1.77407e-05
9.19573e-05
2.23537e-05
5.67656e-05
2.47853e-05
1.97825e-05
2.51928e-05
-1.98311e-05
2.35559e-05
-6.31487e-05
1.97045e-05
-0.00011153
1.33875e-05
-0.000166661
4.63973e-06
-0.000230747
-6.26462e-06
-0.000307602
-1.78094e-05
-0.00040361
-2.49699e-05
-0.000537701
-0.000753689
0.000139453
8.1693e-05
0.000146425
4.9794e-05
0.000150281
1.59257e-05
0.000150964
-2.05136e-05
0.000148146
-6.03305e-05
0.000141235
-0.00010462
0.000129378
-0.000154804
0.000111589
-0.000212958
8.67717e-05
-0.000282784
5.45954e-05
-0.000371434
1.80676e-05
-0.000501174
-0.000735621
0.000262734
6.76418e-05
0.000272849
3.96794e-05
0.000279107
9.66722e-06
0.000281305
-2.2711e-05
0.000278871
-5.78973e-05
0.000270836
-9.65839e-05
0.000255688
-0.000139656
0.000231392
-0.000188662
0.000195055
-0.000246448
0.000143398
-0.000319777
7.49261e-05
-0.000432701
-0.000660695
0.000392513
5.00289e-05
0.000405843
2.63496e-05
0.000414904
6.05516e-07
0.000419401
-2.72078e-05
0.000418597
-5.7093e-05
0.000411261
-8.92482e-05
0.000395342
-0.000123737
0.000367884
-0.000161203
0.000323992
-0.000202557
0.000257222
-0.000253007
0.000156305
-0.000331784
-0.00050439
0.000534518
3.04656e-05
0.00055001
1.0858e-05
0.000561363
-1.07468e-05
0.000568206
-3.40516e-05
0.000569689
-5.85751e-05
0.000564468
-8.40279e-05
0.000550261
-0.000109529
0.000523681
-0.000134624
0.000478178
-0.000157053
0.00040531
-0.000180138
0.000278388
-0.000204863
-0.000226002
0.000693153
1.15364e-05
0.000708877
-4.86516e-06
0.000721177
-2.30473e-05
0.000729618
-4.24926e-05
0.00073333
-6.22864e-05
0.000731027
-8.1725e-05
0.000720555
-9.90573e-05
0.00069887
-0.000112938
0.000659603
-0.000117786
0.000590228
-0.000110763
0.000443675
-5.83098e-05
0.000217674
6.54793e-05
-6.54792e-05
0.000123395
-5.79154e-05
0.000154573
-3.11781e-05
0.000168005
-1.34317e-05
0.000166554
1.45093e-06
0.000131326
3.52283e-05
5.62375e-05
7.50881e-05
-8.11793e-05
0.000137417
-0.000293846
0.000212666
-0.000468024
0.000174178
-0.000597375
0.000129351
9.81106e-05
-0.000695486
5.2115e-05
-0.000117594
7.88158e-05
-8.46161e-05
7.24317e-05
-2.4794e-05
3.10496e-05
2.79505e-05
-5.3929e-05
8.64296e-05
-0.000187408
0.000168707
-0.00034978
0.00023746
-0.000474106
0.000261743
-0.000517393
0.000255954
-0.000555509
0.000212294
-0.000594575
0.000168418
0.000131128
-0.000627593
2.15174e-05
-0.000139111
1.45815e-05
-7.76802e-05
-2.71142e-05
1.69018e-05
-0.000112503
0.00011334
-0.000237319
0.000211245
-0.000349558
0.000280946
-0.000416417
0.00030432
-0.000452102
0.000297427
-0.000464484
0.000268336
-0.000476672
0.000224482
-0.000490966
0.000182713
0.000142308
-0.000502146
-3.49383e-05
-0.000104173
-8.00777e-05
-3.25407e-05
-0.000145086
8.19105e-05
-0.000225423
0.000193677
-0.000297655
0.000283477
-0.000340772
0.000324062
-0.000361446
0.000324994
-0.00036916
0.000305142
-0.000371044
0.00027022
-0.000373705
0.000227143
-0.000375941
0.000184949
0.000143343
-0.000376976
-5.94846e-05
-4.46884e-05
-0.000122109
3.00842e-05
-0.000183415
0.000143216
-0.000235969
0.000246231
-0.000267013
0.000314521
-0.00027643
0.00033348
-0.000275463
0.000324027
-0.000267612
0.000297292
-0.000258918
0.000261525
-0.000253082
0.000221307
-0.000248973
0.00018084
0.000140473
-0.000246102
-6.59879e-05
2.12995e-05
-0.000125408
8.9504e-05
-0.000172081
0.00018989
-0.000197437
0.000271587
-0.000200869
0.000317952
-0.000191643
0.000324255
-0.000176005
0.000308389
-0.000159488
0.000280775
-0.000144972
0.000247009
-0.000133749
0.000210084
-0.000125262
0.000172353
0.000134239
-0.000119028
-6.58967e-05
8.71964e-05
-0.00011687
0.000140477
-0.000144428
0.000217448
-0.000145396
0.000272556
-0.000127658
0.000300214
-0.000102578
0.000299174
-7.66213e-05
0.000282432
-5.28542e-05
0.000257008
-3.2701e-05
0.000226856
-1.6587e-05
0.00019397
-4.01326e-06
0.00015978
0.000124677
5.5487e-06
-6.74894e-05
0.000154686
-0.000104196
0.000177184
-0.000110455
0.000223707
-8.97836e-05
0.000251884
-5.4624e-05
0.000265055
-1.66395e-05
0.00026119
1.90437e-05
0.000246749
5.03238e-05
0.000225728
7.662e-05
0.00020056
9.80389e-05
0.000172551
0.00011517
0.000142649
0.000111243
0.000128604
-5.70035e-05
0.000211689
-8.26889e-05
0.000202869
-6.76579e-05
0.000208676
-2.91528e-05
0.000213379
2.00338e-05
0.000215868
6.92671e-05
0.000211957
0.00011413
0.000201886
0.00015303
0.000186827
0.000185836
0.000167754
0.000212981
0.000145407
0.000235158
0.000120472
9.33839e-05
0.000253017
-6.04871e-05
0.000272177
-4.9731e-05
0.000192114
-4.77747e-06
0.000163723
5.19698e-05
0.000156632
0.000112797
0.000155041
0.000170446
0.000154308
0.000221956
0.000150376
0.000266494
0.000142289
0.000304319
0.00012993
0.000336077
0.000113649
0.000362527
9.40223e-05
7.1587e-05
0.000384324
7.6208e-06
0.000264556
5.66549e-05
0.00014308
0.000124897
9.54806e-05
0.000192681
8.88485e-05
0.00025612
9.1601e-05
0.000313285
9.71437e-05
0.000363713
9.99482e-05
0.000407597
9.84051e-05
0.00044548
9.20461e-05
0.000477991
8.11386e-05
0.000505761
6.62523e-05
4.80706e-05
0.000529277
0.000219174
4.53821e-05
0.000314266
4.7988e-05
0.00038118
2.85658e-05
0.000433903
3.61258e-05
0.000478161
4.7343e-05
0.000518089
5.72159e-05
0.000554792
6.32452e-05
0.000588425
6.47726e-05
0.000619009
6.14625e-05
0.000646557
5.35899e-05
0.000671188
4.16215e-05
0.00069295
2.6309e-05
-0.000763807
6.83209e-05
-0.000804505
4.06981e-05
-0.000821126
1.66213e-05
-0.000814372
-6.75393e-06
-0.000786285
-2.80873e-05
-0.000735766
-5.05184e-05
-0.000661245
-7.45217e-05
-0.000560901
-0.000100343
-0.00043258
-0.000128321
-0.000276551
-0.000156029
-0.000111968
-0.000164583
-0.000111968
-0.000650559
9.12878e-05
-0.000665077
5.52158e-05
-0.00066975
2.12946e-05
-0.000665335
-1.11693e-05
-0.000649656
-4.37661e-05
-0.000621076
-7.90978e-05
-0.000577699
-0.000117899
-0.000517115
-0.000160927
-0.000436347
-0.00020909
-0.000332633
-0.000259742
-0.000197517
-0.0002997
-0.000309485
-0.000511552
0.000100693
-0.000517435
6.10997e-05
-0.000518755
2.2614e-05
-0.000513778
-1.61456e-05
-0.000500642
-5.69023e-05
-0.000478475
-0.000101265
-0.000445817
-0.000150556
-0.000401281
-0.000205463
-0.000343075
-0.000267295
-0.000266149
-0.000336668
-0.000159844
-0.000406005
-0.000469328
-0.000378191
0.000101908
-0.000378456
6.13647e-05
-0.000376377
2.05349e-05
-0.000370782
-2.17408e-05
-0.000360793
-6.68906e-05
-0.000345631
-0.000116427
-0.000324063
-0.000172125
-0.000295119
-0.000234408
-0.000256501
-0.000305913
-0.000203693
-0.000389476
-0.000124711
-0.000484987
-0.000594039
-0.000244271
0.000100077
-0.000242483
5.95767e-05
-0.000239979
1.80308e-05
-0.000236088
-2.56308e-05
-0.000230279
-7.27004e-05
-0.000221964
-0.000124742
-0.000210583
-0.000183505
-0.000194885
-0.000250106
-0.000172796
-0.000328002
-0.000141532
-0.00042074
-8.95927e-05
-0.000536926
-0.000683632
-0.000114607
9.56557e-05
-0.000111346
5.6315e-05
-0.000108765
1.54499e-05
-0.000106503
-2.78927e-05
-0.000104305
-7.48979e-05
-0.000102043
-0.000127004
-9.9692e-05
-0.000185856
-9.64528e-05
-0.000253345
-9.15545e-05
-0.0003329
-8.25842e-05
-0.000429711
-6.0214e-05
-0.000559297
-0.000743846
1.25721e-05
8.86324e-05
1.75081e-05
5.1379e-05
2.06206e-05
1.23375e-05
2.19962e-05
-2.92682e-05
2.1539e-05
-7.44406e-05
1.89879e-05
-0.000124453
1.39997e-05
-0.000180868
6.44205e-06
-0.000245787
-3.58419e-06
-0.000322874
-1.47329e-05
-0.000418562
-2.21779e-05
-0.000551851
-0.000766023
0.000138826
7.84105e-05
0.000146173
4.40317e-05
0.000150748
7.76269e-06
0.000152405
-3.09251e-05
0.000150725
-7.27607e-05
0.000145015
-0.000118742
0.000134295
-0.000170148
0.000117398
-0.00022889
9.29731e-05
-0.000298449
6.03683e-05
-0.000385957
2.23519e-05
-0.000513835
-0.000743671
0.000267061
6.4367e-05
0.000277576
3.35167e-05
0.000284563
7.75376e-07
0.000287712
-3.40744e-05
0.000286342
-7.13906e-05
0.000279365
-0.000111765
0.000265132
-0.000155914
0.000241425
-0.000205183
0.000205076
-0.0002621
0.000152485
-0.000333366
8.13742e-05
-0.000442724
-0.000662297
0.000401968
4.67227e-05
0.000415717
1.9768e-05
0.000425502
-9.00956e-06
0.000430903
-3.94749e-05
0.000431052
-7.15402e-05
0.000424581
-0.000105294
0.000409272
-0.000140606
0.000381985
-0.000177895
0.000337576
-0.000217692
0.000269357
-0.000265147
0.000164787
-0.000338153
-0.000497511
0.000548925
2.70752e-05
0.000564864
3.82928e-06
0.000576929
-2.10749e-05
0.000584607
-4.71527e-05
0.000586898
-7.38316e-05
0.000582289
-0.000100684
0.000568271
-0.000126588
0.000541282
-0.000150906
0.000494556
-0.000170966
0.000419533
-0.000190124
0.000288306
-0.000206925
-0.000209205
0.000711947
8.07805e-06
0.000728121
-1.23444e-05
0.000741127
-3.40808e-05
0.000750322
-5.63479e-05
0.000754636
-7.81451e-05
0.000752536
-9.85838e-05
0.000741539
-0.000115592
0.000718428
-0.000127794
0.000676698
-0.000129236
0.000604143
-0.00011757
0.000452158
-5.49397e-05
0.000242953
6.07542e-05
-6.07541e-05
0.000116478
-5.57235e-05
0.000147964
-3.14858e-05
0.00016043
-1.24668e-05
0.00016207
-1.63965e-06
0.00013841
2.366e-05
7.42245e-05
6.41857e-05
-3.5458e-05
0.000109682
-0.000235075
0.000199617
-0.000418445
0.000183371
-0.000549954
0.000131509
0.000102929
-0.000652883
5.06072e-05
-0.000111361
7.88646e-05
-8.39809e-05
7.66897e-05
-2.93108e-05
4.50872e-05
1.91358e-05
-2.51504e-05
6.85979e-05
-0.000142353
0.000140863
-0.000297193
0.000219026
-0.000438144
0.000250633
-0.000493143
0.000254616
-0.000527155
0.000217383
-0.000566856
0.00017121
0.000135631
-0.000599558
2.66402e-05
-0.000138001
2.71776e-05
-8.45182e-05
-4.27925e-06
2.14609e-06
-7.52261e-05
9.00826e-05
-0.00019082
0.000184192
-0.000312734
0.000262776
-0.000389764
0.000296056
-0.000431712
0.000292582
-0.000445579
0.000268483
-0.00045557
0.000227374
-0.000469418
0.000185059
0.000146154
-0.000479941
-2.54116e-05
-0.00011259
-6.07012e-05
-4.92285e-05
-0.000116894
5.83393e-05
-0.000193569
0.000166757
-0.000271537
0.00026216
-0.000322112
0.000313352
-0.000345917
0.000319862
-0.000354923
0.000301588
-0.000356571
0.00027013
-0.00035815
0.000228953
-0.000360307
0.000187216
0.000146773
-0.000360927
-5.15008e-05
-6.10889e-05
-0.000108855
8.12554e-06
-0.000168296
0.00011778
-0.000223306
0.000221768
-0.000259165
0.000298018
-0.000269928
0.000324115
-0.000267503
0.000317436
-0.000259411
0.000293496
-0.000249372
0.000260091
-0.000242042
0.000221623
-0.000237043
0.000182217
0.000143085
-0.000233354
-6.32985e-05
2.20964e-06
-0.000121374
6.62009e-05
-0.000169311
0.000165718
-0.000197092
0.000249549
-0.00020149
0.000302416
-0.000190801
0.000313426
-0.000173594
0.000300229
-0.000155444
0.000275347
-0.000139221
0.000243868
-0.000126454
0.000208856
-0.000116911
0.000172674
0.000136143
-0.000109969
-6.70383e-05
6.9248e-05
-0.000119747
0.000118909
-0.000149454
0.000195425
-0.000151664
0.000251759
-0.000133112
0.000283864
-0.000106124
0.000286437
-7.83202e-05
0.000272426
-5.26575e-05
0.000249684
-3.07416e-05
0.000221952
-1.31457e-05
0.00019126
4.56806e-07
0.000159072
0.000125987
1.06136e-05
-7.06428e-05
0.000139891
-0.000110631
0.000158898
-0.000119388
0.000204182
-9.98076e-05
0.000232179
-6.38832e-05
0.00024794
-2.42611e-05
0.000246815
1.32303e-05
0.000234934
4.63636e-05
0.000216551
7.43441e-05
0.000193971
9.71467e-05
0.000168457
0.000115239
0.00014098
0.000112037
0.000129189
-6.12745e-05
0.000201166
-9.09727e-05
0.000188596
-7.88228e-05
0.000192032
-4.19881e-05
0.000195344
7.29102e-06
0.000198661
5.76502e-05
0.000196456
0.000104043
0.000188542
0.000144592
0.000176002
0.000178928
0.000159635
0.000207323
0.000140063
0.00023037
0.000117933
9.3724e-05
0.000248683
-6.54216e-05
0.000266587
-5.85142e-05
0.000181689
-1.71424e-05
0.000150661
3.73289e-05
0.000140873
9.7567e-05
0.000138423
0.000155684
0.00013834
0.000208147
0.000136079
0.000253844
0.000130304
0.000292828
0.000120652
0.000325577
0.000107313
0.000352733
9.07771e-05
7.15578e-05
0.0003749
3.21105e-06
0.000263376
4.67219e-05
0.000138178
0.000111656
8.57271e-05
0.000177244
7.52845e-05
0.000239675
7.59921e-05
0.000296504
8.15107e-05
0.000347023
8.55598e-05
0.000391303
8.60239e-05
0.00042977
8.21854e-05
0.000462905
7.41779e-05
0.000491168
6.25145e-05
4.77708e-05
0.000514955
0.000211608
5.17679e-05
0.000302173
4.76132e-05
0.000367339
2.05612e-05
0.00041852
2.4104e-05
0.000461132
3.33798e-05
0.000499689
4.29535e-05
0.000535479
4.97707e-05
0.000568706
5.27964e-05
0.00059932
5.15721e-05
0.000627188
4.63093e-05
0.000652188
3.75145e-05
0.000674224
2.57352e-05
-0.000723967
7.10837e-05
-0.000768262
4.42955e-05
-0.000787749
1.94871e-05
-0.000784118
-3.63118e-06
-0.000758859
-2.52592e-05
-0.000711669
-4.71898e-05
-0.000640304
-7.13646e-05
-0.000543469
-9.68352e-05
-0.00041857
-0.000124899
-0.000266272
-0.000152298
-0.000106038
-0.000160234
-0.000106038
-0.000623573
9.50981e-05
-0.00063873
5.94528e-05
-0.000644655
2.54125e-05
-0.000641443
-6.84368e-06
-0.000627734
-3.89675e-05
-0.000601128
-7.37961e-05
-0.000560287
-0.000112206
-0.000502298
-0.000154824
-0.000424483
-0.000202714
-0.00032394
-0.000252841
-0.000192281
-0.000291893
-0.000298319
-0.000489843
0.000104999
-0.000496215
6.58246e-05
-0.000498493
2.76915e-05
-0.000494862
-1.04752e-05
-0.000483302
-5.05269e-05
-0.000462974
-9.4124e-05
-0.000432383
-0.000142797
-0.000390318
-0.000196889
-0.000334943
-0.00025809
-0.000260899
-0.000326884
-0.000157641
-0.000395152
-0.00045596
-0.000361745
0.000105818
-0.000361948
6.60277e-05
-0.000360365
2.61079e-05
-0.000355689
-1.51506e-05
-0.000346988
-5.92283e-05
-0.000333479
-0.000107632
-0.000313819
-0.000162457
-0.000286952
-0.000223756
-0.000250512
-0.000294529
-0.000199527
-0.000377869
-0.000122233
-0.000472446
-0.000578193
-0.000231237
0.0001037
-0.000229607
6.43974e-05
-0.000227672
2.41733e-05
-0.000224717
-1.81052e-05
-0.000220156
-6.37901e-05
-0.000213313
-0.000114475
-0.000203649
-0.000172121
-0.000189717
-0.000237687
-0.000169358
-0.000314888
-0.000140014
-0.000407213
-8.96092e-05
-0.000522851
-0.000667802
-0.000105353
9.90845e-05
-0.000102334
6.13786e-05
-0.000100375
2.22142e-05
-9.90563e-05
-1.94236e-05
-9.80608e-05
-6.47856e-05
-9.7154e-05
-0.000115382
-9.62967e-05
-0.000172978
-9.44889e-05
-0.000239495
-9.0871e-05
-0.000318506
-8.29283e-05
-0.000415155
-6.0917e-05
-0.000544862
-0.000728719
1.77408e-05
9.19573e-05
2.23537e-05
5.67657e-05
2.47854e-05
1.97826e-05
2.51928e-05
-1.9831e-05
2.35559e-05
-6.31486e-05
1.97045e-05
-0.00011153
1.33875e-05
-0.000166661
4.63973e-06
-0.000230747
-6.26464e-06
-0.000307602
-1.78094e-05
-0.000403611
-2.497e-05
-0.000537702
-0.000753689
0.000139453
8.16931e-05
0.000146425
4.97941e-05
0.000150281
1.59258e-05
0.000150964
-2.05135e-05
0.000148146
-6.03304e-05
0.000141235
-0.000104619
0.000129378
-0.000154804
0.000111589
-0.000212958
8.67717e-05
-0.000282784
5.45954e-05
-0.000371434
1.80675e-05
-0.000501174
-0.000735621
0.000262734
6.76419e-05
0.000272849
3.96795e-05
0.000279107
9.66731e-06
0.000281305
-2.27109e-05
0.000278872
-5.78973e-05
0.000270836
-9.65838e-05
0.000255688
-0.000139656
0.000231392
-0.000188662
0.000195055
-0.000246448
0.000143398
-0.000319777
7.4926e-05
-0.000432701
-0.000660695
0.000392513
5.0029e-05
0.000405843
2.63497e-05
0.000414904
6.05618e-07
0.000419401
-2.72077e-05
0.000418597
-5.70929e-05
0.000411261
-8.92481e-05
0.000395342
-0.000123737
0.000367884
-0.000161203
0.000323992
-0.000202557
0.000257222
-0.000253007
0.000156305
-0.000331784
-0.00050439
0.000534518
3.04657e-05
0.00055001
1.08581e-05
0.000561363
-1.07467e-05
0.000568206
-3.40515e-05
0.000569689
-5.85749e-05
0.000564468
-8.40278e-05
0.000550261
-0.000109529
0.000523681
-0.000134624
0.000478178
-0.000157053
0.00040531
-0.000180138
0.000278388
-0.000204863
-0.000226002
0.000693153
1.15365e-05
0.000708877
-4.86507e-06
0.000721177
-2.30472e-05
0.000729618
-4.24925e-05
0.00073333
-6.22863e-05
0.000731027
-8.17249e-05
0.000720555
-9.90572e-05
0.00069887
-0.000112938
0.000659603
-0.000117786
0.000590228
-0.000110763
0.000443675
-5.83099e-05
0.000217673
0.000817956
9.52408e-05
-0.000867815
0.000798638
6.73059e-05
0.000774675
5.25297e-05
0.000764338
4.64628e-05
0.000765233
4.64483e-05
0.000774095
4.83541e-05
0.000787993
4.93474e-05
0.000804717
4.80479e-05
0.000822697
4.34823e-05
0.000840871
3.54152e-05
0.000858674
2.38183e-05
9.38058e-06
0.000875602
0.00108704
9.14964e-05
-0.0010833
0.00107597
7.83791e-05
0.0010598
6.87004e-05
0.00104499
6.12765e-05
0.00103493
5.6504e-05
0.0010303
5.29898e-05
0.00103048
4.91654e-05
0.0010345
4.40287e-05
0.00104138
3.66039e-05
0.00105028
2.65089e-05
0.00106067
1.3428e-05
-1.79093e-06
0.00107184
0.00128381
8.37052e-05
-0.00127602
0.00128372
7.84715e-05
0.00127937
7.30474e-05
0.00127298
6.76685e-05
0.00126661
6.28772e-05
0.00126154
5.80504e-05
0.00125843
5.22823e-05
0.00125748
4.49736e-05
0.00125871
3.53795e-05
0.00126202
2.31958e-05
0.00126735
8.10115e-06
-8.68017e-06
0.00127424
0.00147273
-0.00146836
7.93287e-05
0.00147567
7.55323e-05
0.0014766
7.21218e-05
0.00147579
6.84819e-05
0.00147389
6.47719e-05
0.00147164
6.03053e-05
0.00146966
5.4259e-05
0.0014685
4.61352e-05
0.00146852
3.53547e-05
0.00147005
2.1671e-05