/*--------------------------------*- C++ -*----------------------------------*\
| =========                 |                                                 |
| \\      /  F ield         | OpenFOAM: The Open Source CFD Toolbox           |
|  \\    /   O peration     | Version:  2212                                  |
|   \\  /    A nd           | Website:  www.openfoam.com                      |
|    \\/     M anipulation  |                                                 |
\*---------------------------------------------------------------------------*/
FoamFile
{
    version     2.0;
    format      ascii;
    arch        "LSB;label=32;scalar=64";
    class       volScalarField;
    location    "0.1";
    object      rho;
}
// * * * * * * * * * * * * * * * * * * * * * * * * * * * * * * * * * * * * * //

dimensions      [1 -3 0 0 0 0 0];

internalField   nonuniform List<scalar> 
3072
(
1.16823
1.16802
1.16791
1.16784
1.16786
1.16805
1.16875
1.16998
1.1696
1.16956
1.1697
1.16964
1.16983
1.16941
1.16944
1.16959
1.17007
1.17028
1.1709
1.17176
1.17288
1.17367
1.17416
1.17439
1.17098
1.1704
1.17065
1.17098
1.1714
1.17201
1.17284
1.17355
1.17429
1.17483
1.17524
1.17553
1.17278
1.17221
1.17254
1.17295
1.17358
1.17429
1.17502
1.17568
1.17624
1.17663
1.17694
1.17718
1.17445
1.17417
1.17454
1.17504
1.1757
1.17637
1.17701
1.17757
1.17799
1.1783
1.17853
1.1787
1.17627
1.17621
1.17658
1.17713
1.17774
1.17831
1.17882
1.17923
1.17953
1.17976
1.17992
1.18005
1.17806
1.17822
1.17859
1.17913
1.17965
1.18011
1.18048
1.18075
1.18095
1.18109
1.18118
1.18126
1.1798
1.18022
1.18053
1.18101
1.18142
1.18175
1.18197
1.18212
1.18222
1.18227
1.1823
1.18232
1.1817
1.18217
1.18234
1.18273
1.18299
1.18316
1.18326
1.18331
1.18331
1.1833
1.18327
1.18325
1.18344
1.18376
1.18384
1.18413
1.18427
1.18434
1.18435
1.18432
1.18426
1.18419
1.18413
1.18408
1.18485
1.18517
1.18507
1.18529
1.18538
1.18538
1.18532
1.18523
1.18512
1.18501
1.18492
1.18484
1.18491
1.1863
1.18627
1.18642
1.18645
1.18639
1.18626
1.18611
1.18596
1.18581
1.18569
1.18558
1.16979
1.16997
1.1703
1.17079
1.17137
1.17193
1.17256
1.17302
1.17333
1.17327
1.17305
1.1724
1.17461
1.17473
1.17485
1.17502
1.17523
1.17543
1.17561
1.17572
1.17571
1.17561
1.17505
1.17352
1.1757
1.17586
1.17602
1.17622
1.17643
1.17663
1.17677
1.17681
1.1767
1.17653
1.17602
1.17387
1.17738
1.17756
1.17771
1.17785
1.17796
1.17803
1.17806
1.17799
1.17778
1.17747
1.177
1.17472
1.17885
1.17897
1.17907
1.17916
1.17923
1.17927
1.17927
1.1792
1.17901
1.17868
1.1783
1.17619
1.18015
1.18024
1.18031
1.18038
1.18044
1.18049
1.18052
1.1805
1.1804
1.18018
1.1799
1.17814
1.18131
1.18137
1.18143
1.18149
1.18157
1.18166
1.18175
1.18184
1.18188
1.18184
1.18181
1.18056
1.18234
1.18237
1.18242
1.18249
1.18259
1.18273
1.18292
1.18314
1.18338
1.18361
1.18398
1.18339
1.18324
1.18325
1.18329
1.18338
1.18351
1.1837
1.18398
1.18434
1.18479
1.18534
1.18619
1.1866
1.18405
1.18404
1.18408
1.18416
1.18431
1.18455
1.1849
1.18537
1.18602
1.18686
1.18829
1.18972
1.18479
1.18477
1.18479
1.18487
1.18503
1.18528
1.18566
1.18621
1.18697
1.18802
1.18999
1.19252
1.1855
1.18546
1.18546
1.18552
1.18566
1.1859
1.18627
1.18681
1.18757
1.18868
1.19077
1.19455
1.16814
1.16796
1.16786
1.1678
1.16782
1.16794
1.16843
1.16982
1.16943
1.16938
1.16953
1.1695
1.16975
1.16937
1.16938
1.16948
1.16991
1.17022
1.1706
1.17134
1.17241
1.17327
1.1738
1.17406
1.17086
1.17031
1.17051
1.17082
1.17122
1.1717
1.17246
1.17316
1.17388
1.17445
1.17487
1.17519
1.17263
1.17205
1.17234
1.17268
1.17325
1.17391
1.17462
1.17528
1.17586
1.17628
1.17661
1.17686
1.17426
1.17393
1.17427
1.17471
1.17533
1.17598
1.17663
1.17719
1.17764
1.17797
1.1782
1.17839
1.17609
1.17596
1.17631
1.17682
1.17739
1.17795
1.17847
1.17889
1.17921
1.17944
1.17961
1.17974
1.17788
1.17799
1.17833
1.17885
1.17935
1.1798
1.18017
1.18045
1.18065
1.18079
1.18089
1.18096
1.17964
1.18
1.1803
1.18076
1.18116
1.18148
1.1817
1.18185
1.18195
1.182
1.18203
1.18205
1.18155
1.18195
1.18212
1.1825
1.18276
1.18293
1.18303
1.18307
1.18307
1.18305
1.18302
1.183
1.18326
1.18354
1.18364
1.18393
1.18407
1.18415
1.18415
1.18411
1.18405
1.18397
1.1839
1.18384
1.18467
1.18497
1.18489
1.18512
1.18523
1.18523
1.18517
1.18507
1.18495
1.18483
1.18472
1.18463
1.18476
1.18609
1.1861
1.18628
1.18634
1.18628
1.18615
1.18599
1.18582
1.18566
1.18551
1.18538
1.16961
1.16978
1.17007
1.17051
1.17104
1.17154
1.17211
1.17253
1.1728
1.17272
1.17248
1.17185
1.1743
1.17442
1.17452
1.17466
1.17483
1.175
1.17515
1.17523
1.1752
1.17506
1.17451
1.17302
1.17538
1.17553
1.17568
1.17585
1.17604
1.17622
1.17634
1.17636
1.17623
1.17605
1.17555
1.17344
1.17705
1.17722
1.17737
1.17749
1.17759
1.17765
1.17766
1.17758
1.17736
1.17704
1.17657
1.17432
1.17852
1.17864
1.17874
1.17881
1.17887
1.1789
1.17888
1.1788
1.1786
1.17827
1.1779
1.17578
1.17984
1.17992
1.17999
1.18005
1.1801
1.18014
1.18015
1.18012
1.18001
1.17976
1.17949
1.17771
1.18102
1.18107
1.18112
1.18118
1.18124
1.18132
1.1814
1.18147
1.18149
1.18143
1.18137
1.1801
1.18206
1.18209
1.18213
1.18219
1.18228
1.18241
1.18258
1.18277
1.18299
1.18318
1.1835
1.18286
1.18298
1.18299
1.18302
1.1831
1.18322
1.1834
1.18365
1.18398
1.18441
1.18491
1.18569
1.186
1.1838
1.18379
1.18382
1.1839
1.18404
1.18426
1.18459
1.18503
1.18564
1.18644
1.18777
1.18909
1.18456
1.18453
1.18455
1.18462
1.18477
1.18501
1.18537
1.18589
1.18661
1.18761
1.18949
1.19191
1.18529
1.18524
1.18523
1.18529
1.18542
1.18565
1.186
1.18651
1.18724
1.18832
1.19033
1.19405
1.16823
1.16802
1.16791
1.16784
1.16786
1.16805
1.16875
1.16998
1.1696
1.16956
1.1697
1.16964
1.16983
1.16941
1.16944
1.16959
1.17007
1.17028
1.1709
1.17176
1.17288
1.17367
1.17416
1.17439
1.17098
1.1704
1.17065
1.17098
1.1714
1.17201
1.17284
1.17355
1.17429
1.17483
1.17524
1.17553
1.17278
1.17221
1.17254
1.17295
1.17358
1.17429
1.17502
1.17568
1.17624
1.17663
1.17694
1.17718
1.17445
1.17417
1.17454
1.17504
1.1757
1.17637
1.17701
1.17757
1.17799
1.1783
1.17853
1.1787
1.17627
1.17621
1.17658
1.17713
1.17774
1.17831
1.17882
1.17923
1.17953
1.17976
1.17992
1.18005
1.17806
1.17822
1.17859
1.17913
1.17965
1.18011
1.18048
1.18075
1.18095
1.18109
1.18118
1.18126
1.1798
1.18022
1.18053
1.18101
1.18142
1.18175
1.18197
1.18212
1.18222
1.18227
1.1823
1.18232
1.1817
1.18217
1.18234
1.18273
1.18299
1.18316
1.18326
1.18331
1.18331
1.1833
1.18327
1.18325
1.18344
1.18376
1.18384
1.18413
1.18427
1.18434
1.18435
1.18432
1.18426
1.18419
1.18413
1.18408
1.18485
1.18517
1.18507
1.18529
1.18538
1.18538
1.18532
1.18523
1.18512
1.18501
1.18492
1.18484
1.18491
1.1863
1.18627
1.18642
1.18645
1.18639
1.18626
1.18611
1.18596
1.18581
1.18569
1.18558
1.16979
1.16997
1.1703
1.17079
1.17137
1.17193
1.17256
1.17302
1.17333
1.17327
1.17305
1.1724
1.1746
1.17473
1.17485
1.17502
1.17523
1.17543
1.17561
1.17572
1.17571
1.17561
1.17505
1.17352
1.1757
1.17586
1.17602
1.17622
1.17643
1.17663
1.17677
1.17681
1.1767
1.17653
1.17602
1.17387
1.17738
1.17756
1.17771
1.17785
1.17796
1.17803
1.17806
1.17799
1.17778
1.17747
1.177
1.17472
1.17885
1.17897
1.17907
1.17916
1.17923
1.17927
1.17927
1.1792
1.17901
1.17868
1.1783
1.17619
1.18015
1.18024
1.18031
1.18038
1.18044
1.18049
1.18052
1.1805
1.1804
1.18018
1.1799
1.17814
1.18131
1.18137
1.18143
1.18149
1.18157
1.18166
1.18175
1.18184
1.18188
1.18184
1.18181
1.18056
1.18234
1.18237
1.18242
1.18249
1.18259
1.18273
1.18292
1.18314
1.18338
1.18361
1.18398
1.18339
1.18324
1.18325
1.18329
1.18338
1.18351
1.1837
1.18398
1.18434
1.18479
1.18534
1.18619
1.18659
1.18405
1.18404
1.18408
1.18416
1.18431
1.18455
1.1849
1.18537
1.18602
1.18686
1.18829
1.18972
1.18479
1.18477
1.18479
1.18487
1.18503
1.18528
1.18566
1.18621
1.18697
1.18802
1.18999
1.19252
1.1855
1.18546
1.18546
1.18552
1.18566
1.1859
1.18627
1.18681
1.18757
1.18868
1.19077
1.19455
1.16814
1.16796
1.16786
1.1678
1.16782
1.16794
1.16843
1.16982
1.16943
1.16938
1.16953
1.1695
1.16975
1.16937
1.16938
1.16948
1.16991
1.17022
1.1706
1.17134
1.17241
1.17327
1.1738
1.17406
1.17086
1.17031
1.17051
1.17082
1.17122
1.1717
1.17246
1.17316
1.17388
1.17445
1.17487
1.17519
1.17263
1.17205
1.17234
1.17268
1.17325
1.17391
1.17462
1.17528
1.17586
1.17628
1.17661
1.17686
1.17426
1.17393
1.17427
1.17471
1.17533
1.17598
1.17663
1.17719
1.17764
1.17797
1.1782
1.17839
1.17609
1.17596
1.17631
1.17682
1.17739
1.17795
1.17847
1.17889
1.17921
1.17944
1.17961
1.17974
1.17788
1.17799
1.17833
1.17885
1.17935
1.1798
1.18017
1.18045
1.18065
1.18079
1.18089
1.18096
1.17964
1.18
1.1803
1.18076
1.18116
1.18148
1.1817
1.18185
1.18195
1.182
1.18203
1.18205
1.18155
1.18195
1.18212
1.1825
1.18276
1.18293
1.18303
1.18307
1.18307
1.18305
1.18302
1.183
1.18326
1.18354
1.18364
1.18393
1.18407
1.18415
1.18415
1.18411
1.18405
1.18397
1.1839
1.18384
1.18467
1.18497
1.18489
1.18512
1.18523
1.18523
1.18517
1.18507
1.18495
1.18483
1.18472
1.18463
1.18476
1.18609
1.1861
1.18628
1.18634
1.18628
1.18615
1.18599
1.18582
1.18566
1.18551
1.18538
1.16961
1.16978
1.17007
1.17051
1.17104
1.17154
1.17211
1.17253
1.1728
1.17272
1.17248
1.17185
1.1743
1.17442
1.17452
1.17466
1.17483
1.175
1.17515
1.17523
1.1752
1.17506
1.17451
1.17302
1.17538
1.17553
1.17568
1.17585
1.17604
1.17622
1.17634
1.17636
1.17623
1.17605
1.17555
1.17344
1.17705
1.17722
1.17737
1.17749
1.17759
1.17765
1.17766
1.17758
1.17736
1.17704
1.17657
1.17432
1.17852
1.17864
1.17874
1.17881
1.17887
1.1789
1.17888
1.1788
1.1786
1.17827
1.1779
1.17578
1.17984
1.17992
1.17999
1.18005
1.1801
1.18014
1.18015
1.18012
1.18001
1.17976
1.17949
1.17771
1.18102
1.18107
1.18112
1.18118
1.18124
1.18132
1.1814
1.18147
1.18149
1.18143
1.18137
1.1801
1.18206
1.18209
1.18213
1.18219
1.18228
1.18241
1.18258
1.18277
1.18299
1.18318
1.1835
1.18286
1.18298
1.18299
1.18302
1.1831
1.18322
1.1834
1.18365
1.18398
1.18441
1.18491
1.18569
1.186
1.1838
1.18379
1.18382
1.1839
1.18404
1.18426
1.18459
1.18503
1.18564
1.18644
1.18777
1.18909
1.18456
1.18453
1.18455
1.18462
1.18477
1.18501
1.18537
1.18589
1.18661
1.18761
1.18949
1.19191
1.18529
1.18524
1.18523
1.18529
1.18542
1.18565
1.186
1.18651
1.18724
1.18832
1.19033
1.19405
1.18787
1.18794
1.18777
1.18762
1.18747
1.18731
1.18713
1.18693
1.18674
1.18657
1.18642
1.18628
1.18811
1.18787
1.18793
1.18795
1.18792
1.18784
1.18771
1.18755
1.18738
1.18721
1.18705
1.18691
1.18813
1.18802
1.18807
1.18811
1.18811
1.18808
1.18801
1.18791
1.18779
1.18766
1.18753
1.1874
1.18815
1.18812
1.18815
1.18818
1.18819
1.18818
1.18815
1.1881
1.18803
1.18795
1.18786
1.18776
1.18618
1.18612
1.18609
1.18611
1.18622
1.18642
1.18673
1.18721
1.18782
1.18867
1.18944
1.19066
1.18679
1.1867
1.18665
1.18664
1.18669
1.18683
1.18707
1.18745
1.18792
1.18857
1.18898
1.1894
1.18729
1.18718
1.1871
1.18706
1.18707
1.18714
1.18729
1.18756
1.18789
1.18838
1.18868
1.18888
1.18767
1.18756
1.18745
1.18737
1.18732
1.18732
1.18737
1.18751
1.18771
1.18806
1.18832
1.18857
1.18777
1.18781
1.18766
1.18753
1.1874
1.18724
1.18705
1.18684
1.18663
1.18643
1.18625
1.1861
1.18813
1.18784
1.18787
1.18788
1.18786
1.18778
1.18763
1.18746
1.18727
1.18707
1.18688
1.18671
1.18826
1.18808
1.18809
1.1881
1.18808
1.18803
1.18794
1.18782
1.18767
1.1875
1.18733
1.18717
1.18838
1.18831
1.1883
1.18828
1.18825
1.18821
1.18814
1.18806
1.18795
1.18781
1.18766
1.1875
1.18597
1.1859
1.18587
1.1859
1.18599
1.18618
1.18648
1.18694
1.18753
1.18836
1.18913
1.19042
1.18657
1.18647
1.18642
1.18642
1.18648
1.18661
1.18684
1.18721
1.18766
1.1883
1.18874
1.18921
1.18703
1.18692
1.18686
1.18684
1.18686
1.18694
1.18709
1.18734
1.18766
1.18813
1.18845
1.18867
1.18737
1.18728
1.18722
1.18718
1.18717
1.18719
1.18725
1.18737
1.18754
1.18784
1.18807
1.18831
1.18787
1.18794
1.18777
1.18762
1.18747
1.18731
1.18713
1.18693
1.18674
1.18657
1.18642
1.18628
1.18811
1.18787
1.18793
1.18794
1.18792
1.18784
1.18771
1.18755
1.18738
1.18721
1.18705
1.18691
1.18813
1.18802
1.18807
1.18811
1.18811
1.18808
1.18801
1.18791
1.18779
1.18766
1.18753
1.1874
1.18815
1.18812
1.18815
1.18818
1.18819
1.18818
1.18815
1.1881
1.18803
1.18795
1.18786
1.18776
1.18618
1.18612
1.18609
1.18611
1.18622
1.18642
1.18673
1.18721
1.18782
1.18867
1.18944
1.19066
1.18679
1.1867
1.18665
1.18664
1.18669
1.18683
1.18707
1.18745
1.18792
1.18857
1.18898
1.1894
1.18729
1.18718
1.1871
1.18706
1.18707
1.18714
1.18729
1.18756
1.18789
1.18838
1.18868
1.18888
1.18767
1.18756
1.18745
1.18737
1.18732
1.18732
1.18737
1.18751
1.18771
1.18806
1.18832
1.18857
1.18777
1.18781
1.18766
1.18753
1.1874
1.18724
1.18705
1.18684
1.18663
1.18643
1.18625
1.1861
1.18813
1.18784
1.18787
1.18788
1.18786
1.18778
1.18763
1.18746
1.18727
1.18707
1.18688
1.18671
1.18826
1.18808
1.18809
1.1881
1.18808
1.18803
1.18794
1.18782
1.18767
1.1875
1.18733
1.18717
1.18838
1.18831
1.1883
1.18828
1.18825
1.18821
1.18814
1.18806
1.18795
1.18781
1.18766
1.1875
1.18597
1.1859
1.18587
1.1859
1.18599
1.18618
1.18648
1.18694
1.18753
1.18836
1.18913
1.19042
1.18657
1.18647
1.18642
1.18642
1.18648
1.18661
1.18684
1.18721
1.18766
1.1883
1.18874
1.18921
1.18703
1.18692
1.18686
1.18684
1.18686
1.18694
1.18709
1.18734
1.18766
1.18813
1.18845
1.18867
1.18737
1.18728
1.18722
1.18718
1.18717
1.18719
1.18725
1.18737
1.18754
1.18784
1.18807
1.18831
1.18814
1.18818
1.18823
1.18826
1.18828
1.18828
1.18827
1.18824
1.18819
1.18814
1.18808
1.18801
1.18815
1.18822
1.18828
1.18833
1.18836
1.18838
1.18837
1.18835
1.18832
1.18827
1.18823
1.18819
1.18816
1.18824
1.18832
1.18837
1.18841
1.18843
1.18843
1.18841
1.18838
1.18835
1.18832
1.1883
1.18817
1.18826
1.18834
1.1884
1.18844
1.18846
1.18846
1.18844
1.18842
1.18839
1.18836
1.18835
1.18796
1.18788
1.1878
1.18773
1.18769
1.18766
1.18767
1.18772
1.18781
1.18802
1.18816
1.18834
1.18817
1.18812
1.18808
1.18805
1.18803
1.18802
1.18803
1.18808
1.18814
1.18821
1.18825
1.18828
1.18833
1.18829
1.18827
1.18826
1.18826
1.18826
1.18827
1.18828
1.1883
1.18831
1.18829
1.18824
1.18845
1.18841
1.1884
1.1884
1.1884
1.1884
1.1884
1.18839
1.18837
1.18833
1.18827
1.1882
1.18834
1.18832
1.18829
1.18825
1.18821
1.18815
1.18808
1.188
1.1879
1.18777
1.18764
1.1875
1.18824
1.18819
1.18814
1.18808
1.18802
1.18794
1.18786
1.18777
1.18767
1.18757
1.18747
1.18735
1.18816
1.18809
1.18802
1.18795
1.18788
1.18781
1.18773
1.18765
1.18756
1.18747
1.18738
1.18727
1.1881
1.18802
1.18795
1.18788
1.18781
1.18774
1.18766
1.18759
1.18751
1.18743
1.18735
1.18724
1.18738
1.1873
1.18726
1.18725
1.18725
1.18728
1.18732
1.18741
1.18753
1.18772
1.1879
1.18809
1.18723
1.18717
1.18715
1.18716
1.18719
1.18724
1.18731
1.18742
1.18757
1.18776
1.18793
1.18808
1.18715
1.1871
1.18709
1.18711
1.18715
1.18721
1.1873
1.18742
1.18757
1.18776
1.18793
1.18807
1.18711
1.18706
1.18706
1.18709
1.18713
1.1872
1.18729
1.18741
1.18757
1.18774
1.18791
1.18806
1.18814
1.18818
1.18823
1.18826
1.18828
1.18828
1.18827
1.18824
1.18819
1.18814
1.18808
1.18801
1.18815
1.18822
1.18828
1.18833
1.18836
1.18838
1.18837
1.18835
1.18832
1.18827
1.18823
1.18819
1.18816
1.18824
1.18832
1.18837
1.18841
1.18843
1.18843
1.18841
1.18838
1.18835
1.18832
1.1883
1.18817
1.18826
1.18834
1.1884
1.18844
1.18846
1.18846
1.18844
1.18842
1.18839
1.18836
1.18835
1.18796
1.18788
1.1878
1.18773
1.18768
1.18766
1.18767
1.18772
1.18781
1.18802
1.18816
1.18834
1.18817
1.18812
1.18808
1.18805
1.18803
1.18802
1.18803
1.18808
1.18814
1.18821
1.18825
1.18828
1.18833
1.18829
1.18827
1.18826
1.18826
1.18826
1.18827
1.18828
1.1883
1.18831
1.18829
1.18824
1.18845
1.18841
1.1884
1.1884
1.1884
1.1884
1.1884
1.18839
1.18837
1.18833
1.18827
1.1882
1.18834
1.18832
1.18829
1.18825
1.18821
1.18815
1.18808
1.188
1.1879
1.18777
1.18764
1.1875
1.18824
1.18819
1.18814
1.18808
1.18802
1.18794
1.18786
1.18777
1.18767
1.18757
1.18747
1.18735
1.18816
1.18809
1.18802
1.18795
1.18788
1.18781
1.18773
1.18765
1.18756
1.18747
1.18738
1.18727
1.1881
1.18802
1.18795
1.18788
1.18781
1.18773
1.18766
1.18759
1.18751
1.18743
1.18735
1.18724
1.18738
1.1873
1.18726
1.18725
1.18725
1.18728
1.18732
1.18741
1.18753
1.18772
1.1879
1.18809
1.18723
1.18717
1.18715
1.18716
1.18719
1.18724
1.18731
1.18742
1.18757
1.18776
1.18793
1.18808
1.18715
1.1871
1.18709
1.18711
1.18715
1.18721
1.1873
1.18742
1.18757
1.18776
1.18793
1.18807
1.18711
1.18706
1.18706
1.18709
1.18713
1.1872
1.18729
1.18741
1.18757
1.18774
1.18791
1.18806
1.18817
1.18827
1.18835
1.18841
1.18845
1.18847
1.18847
1.18846
1.18843
1.1884
1.18836
1.18833
1.18817
1.18828
1.18836
1.18843
1.18847
1.18848
1.18848
1.18846
1.18843
1.1884
1.18835
1.18835
1.18818
1.18829
1.18837
1.18843
1.18847
1.18849
1.18849
1.18847
1.18843
1.1884
1.18835
1.18835
1.18818
1.18829
1.18838
1.18844
1.18848
1.18849
1.18849
1.18846
1.18843
1.18839
1.18835
1.18834
1.18818
1.1883
1.18839
1.18845
1.18849
1.1885
1.18849
1.18846
1.18842
1.18838
1.18834
1.18833
1.18818
1.1883
1.18839
1.18846
1.18849
1.1885
1.18849
1.18846
1.18842
1.18837
1.18833
1.18831
1.18819
1.18831
1.1884
1.18846
1.18849
1.1885
1.18848
1.18845
1.18841
1.18836
1.18832
1.18829
1.18819
1.18831
1.18841
1.18847
1.1885
1.1885
1.18848
1.18845
1.1884
1.18835
1.18831
1.18826
1.18819
1.18832
1.18842
1.18847
1.1885
1.1885
1.18848
1.18844
1.1884
1.18834
1.18829
1.18821
1.1882
1.18833
1.18842
1.18848
1.18851
1.1885
1.18848
1.18844
1.18839
1.18833
1.18827
1.18816
1.18821
1.18834
1.18843
1.18849
1.18851
1.18851
1.18848
1.18844
1.18838
1.18832
1.18824
1.18807
1.18822
1.18835
1.18845
1.1885
1.18852
1.18851
1.18847
1.18843
1.18837
1.18831
1.18821
1.18794
1.18857
1.18851
1.18849
1.18848
1.18848
1.18848
1.18846
1.18843
1.18839
1.18832
1.18824
1.18815
1.18859
1.18856
1.18854
1.18853
1.18853
1.18851
1.18848
1.18844
1.18838
1.1883
1.18821
1.18812
1.18861
1.18858
1.18856
1.18855
1.18854
1.18852
1.18848
1.18842
1.18835
1.18827
1.18818
1.18809
1.18861
1.18859
1.18857
1.18856
1.18854
1.1885
1.18845
1.18839
1.18832
1.18824
1.18815
1.18807
1.18861
1.18858
1.18857
1.18855
1.18852
1.18847
1.18842
1.18835
1.18828
1.1882
1.18813
1.18806
1.18861
1.18857
1.18856
1.18853
1.18849
1.18844
1.18838
1.18831
1.18824
1.18817
1.18811
1.18805
1.1886
1.18856
1.18854
1.1885
1.18846
1.1884
1.18834
1.18827
1.18821
1.18815
1.1881
1.18805
1.18859
1.18854
1.18852
1.18848
1.18842
1.18836
1.1883
1.18823
1.18817
1.18812
1.18808
1.18805
1.18857
1.18853
1.1885
1.18845
1.18839
1.18832
1.18826
1.1882
1.18814
1.1881
1.18807
1.18805
1.18855
1.18851
1.18848
1.18842
1.18836
1.18829
1.18822
1.18816
1.18812
1.18808
1.18806
1.18805
1.18854
1.18849
1.18846
1.18839
1.18833
1.18826
1.18819
1.18813
1.18809
1.18807
1.18805
1.18804
1.18851
1.18846
1.18842
1.18835
1.18827
1.1882
1.18813
1.18808
1.18805
1.18803
1.18803
1.18804
1.18806
1.18798
1.1879
1.18783
1.18777
1.1877
1.18763
1.18756
1.18749
1.18741
1.18734
1.1872
1.18803
1.18795
1.18788
1.18781
1.18775
1.18769
1.18763
1.18756
1.18749
1.18742
1.18735
1.18721
1.18801
1.18794
1.18787
1.18781
1.18776
1.1877
1.18764
1.18758
1.18752
1.18744
1.18738
1.18724
1.188
1.18794
1.18788
1.18783
1.18778
1.18772
1.18767
1.18761
1.18755
1.18747
1.18742
1.18727
1.188
1.18795
1.1879
1.18785
1.1878
1.18775
1.1877
1.18764
1.18759
1.18751
1.18746
1.18731
1.188
1.18796
1.18792
1.18788
1.18784
1.18779
1.18774
1.18768
1.18762
1.18755
1.1875
1.18735
1.18801
1.18798
1.18794
1.18791
1.18787
1.18783
1.18778
1.18772
1.18766
1.18759
1.18754
1.18739
1.18802
1.188
1.18797
1.18794
1.18791
1.18787
1.18782
1.18776
1.1877
1.18763
1.18757
1.18743
1.18803
1.18801
1.188
1.18797
1.18794
1.18791
1.18786
1.1878
1.18774
1.18766
1.18761
1.18747
1.18804
1.18803
1.18802
1.188
1.18798
1.18794
1.1879
1.18784
1.18778
1.1877
1.18764
1.18751
1.18804
1.18804
1.18804
1.18803
1.188
1.18797
1.18793
1.18787
1.18781
1.18773
1.18767
1.18754
1.18805
1.18806
1.18806
1.18806
1.18805
1.18803
1.18799
1.18794
1.18788
1.18779
1.18773
1.18759
1.1871
1.18705
1.18704
1.18707
1.18712
1.18719
1.18728
1.1874
1.18756
1.18773
1.1879
1.18805
1.18705
1.18704
1.18703
1.18706
1.1871
1.18718
1.18727
1.1874
1.18755
1.18772
1.18789
1.18805
1.18702
1.18702
1.18701
1.18704
1.18709
1.18717
1.18726
1.18739
1.18754
1.18771
1.18788
1.18804
1.18699
1.18699
1.187
1.18703
1.18708
1.18715
1.18725
1.18738
1.18753
1.1877
1.18788
1.18804
1.18696
1.18696
1.18698
1.18701
1.18707
1.18714
1.18724
1.18737
1.18752
1.18769
1.18787
1.18804
1.18691
1.18693
1.18696
1.187
1.18706
1.18713
1.18723
1.18735
1.18751
1.18768
1.18787
1.18804
1.18686
1.1869
1.18693
1.18698
1.18704
1.18712
1.18722
1.18734
1.1875
1.18767
1.18786
1.18804
1.1868
1.18686
1.18691
1.18696
1.18703
1.18711
1.18721
1.18733
1.18749
1.18767
1.18786
1.18803
1.18671
1.18681
1.18688
1.18695
1.18702
1.1871
1.18719
1.18732
1.18747
1.18766
1.18785
1.18803
1.18659
1.18676
1.18685
1.18693
1.18701
1.18709
1.18718
1.1873
1.18746
1.18765
1.18785
1.18804
1.18643
1.1867
1.18682
1.18691
1.187
1.18708
1.18717
1.18729
1.18745
1.18764
1.18784
1.18804
1.18619
1.18663
1.18679
1.18689
1.18699
1.18707
1.18714
1.18726
1.18742
1.18762
1.18784
1.18804
1.18817
1.18827
1.18835
1.18841
1.18845
1.18847
1.18847
1.18846
1.18843
1.1884
1.18836
1.18833
1.18817
1.18828
1.18836
1.18843
1.18847
1.18848
1.18848
1.18846
1.18843
1.1884
1.18835
1.18835
1.18818
1.18829
1.18837
1.18843
1.18847
1.18849
1.18849
1.18847
1.18843
1.1884
1.18835
1.18835
1.18818
1.18829
1.18838
1.18844
1.18848
1.18849
1.18849
1.18846
1.18843
1.18839
1.18835
1.18834
1.18818
1.1883
1.18839
1.18845
1.18849
1.1885
1.18849
1.18846
1.18842
1.18838
1.18834
1.18833
1.18818
1.1883
1.18839
1.18846
1.18849
1.1885
1.18849
1.18846
1.18842
1.18837
1.18833
1.18831
1.18819
1.18831
1.1884
1.18846
1.18849
1.1885
1.18848
1.18845
1.18841
1.18836
1.18832
1.18829
1.18819
1.18831
1.18841
1.18847
1.1885
1.1885
1.18848
1.18845
1.1884
1.18835
1.18831
1.18826
1.18819
1.18832
1.18842
1.18847
1.1885
1.1885
1.18848
1.18844
1.1884
1.18834
1.18829
1.18821
1.1882
1.18833
1.18842
1.18848
1.18851
1.1885
1.18848
1.18844
1.18839
1.18833
1.18827
1.18816
1.18821
1.18834
1.18843
1.18849
1.18851
1.18851
1.18848
1.18844
1.18838
1.18832
1.18824
1.18807
1.18822
1.18835
1.18845
1.1885
1.18852
1.18851
1.18847
1.18843
1.18837
1.18831
1.18821
1.18794
1.18857
1.18851
1.18849
1.18848
1.18848
1.18848
1.18846
1.18843
1.18838
1.18832
1.18824
1.18815
1.18859
1.18856
1.18854
1.18853
1.18853
1.18851
1.18848
1.18844
1.18838
1.1883
1.18821
1.18812
1.18861
1.18858
1.18856
1.18855
1.18854
1.18852
1.18848
1.18842
1.18835
1.18827
1.18818
1.18809
1.18861
1.18859
1.18857
1.18856
1.18854
1.1885
1.18845
1.18839
1.18832
1.18824
1.18815
1.18807
1.18861
1.18858
1.18857
1.18855
1.18852
1.18847
1.18842
1.18835
1.18828
1.1882
1.18813
1.18806
1.18861
1.18857
1.18856
1.18853
1.18849
1.18844
1.18838
1.18831
1.18824
1.18817
1.18811
1.18805
1.1886
1.18856
1.18854
1.1885
1.18846
1.1884
1.18834
1.18827
1.18821
1.18815
1.1881
1.18805
1.18859
1.18854
1.18852
1.18848
1.18842
1.18836
1.1883
1.18823
1.18817
1.18812
1.18808
1.18805
1.18857
1.18853
1.1885
1.18845
1.18839
1.18832
1.18826
1.1882
1.18814
1.1881
1.18807
1.18805
1.18855
1.18851
1.18848
1.18842
1.18836
1.18829
1.18822
1.18816
1.18812
1.18808
1.18806
1.18805
1.18854
1.18849
1.18846
1.18839
1.18833
1.18826
1.18819
1.18813
1.18809
1.18807
1.18805
1.18804
1.18851
1.18846
1.18842
1.18835
1.18827
1.1882
1.18813
1.18808
1.18805
1.18803
1.18803
1.18804
1.18806
1.18798
1.1879
1.18783
1.18777
1.1877
1.18763
1.18756
1.18749
1.18741
1.18734
1.1872
1.18803
1.18795
1.18788
1.18781
1.18775
1.18769
1.18763
1.18756
1.18749
1.18742
1.18735
1.18721
1.18801
1.18794
1.18787
1.18781
1.18776
1.1877
1.18764
1.18758
1.18752
1.18744
1.18738
1.18724
1.188
1.18794
1.18788
1.18783
1.18778
1.18772
1.18767
1.18761
1.18755
1.18747
1.18742
1.18727
1.188
1.18795
1.1879
1.18785
1.1878
1.18775
1.1877
1.18764
1.18759
1.18751
1.18746
1.18731
1.188
1.18796
1.18792
1.18788
1.18784
1.18779
1.18774
1.18768
1.18762
1.18755
1.1875
1.18735
1.18801
1.18798
1.18794
1.18791
1.18787
1.18783
1.18778
1.18772
1.18766
1.18759
1.18754
1.18739
1.18802
1.188
1.18797
1.18794
1.18791
1.18787
1.18782
1.18776
1.1877
1.18763
1.18757
1.18743
1.18803
1.18801
1.188
1.18797
1.18794
1.18791
1.18786
1.1878
1.18774
1.18766
1.18761
1.18747
1.18804
1.18803
1.18802
1.188
1.18798
1.18794
1.1879
1.18784
1.18778
1.1877
1.18764
1.18751
1.18804
1.18804
1.18804
1.18803
1.188
1.18797
1.18793
1.18787
1.18781
1.18773
1.18767
1.18754
1.18805
1.18806
1.18806
1.18806
1.18805
1.18803
1.18799
1.18794
1.18788
1.18779
1.18773
1.18759
1.1871
1.18705
1.18704
1.18707
1.18712
1.18719
1.18728
1.18741
1.18756
1.18773
1.1879
1.18805
1.18705
1.18704
1.18703
1.18706
1.1871
1.18718
1.18727
1.1874
1.18755
1.18772
1.18789
1.18805
1.18702
1.18702
1.18701
1.18704
1.18709
1.18717
1.18726
1.18739
1.18754
1.18771
1.18788
1.18804
1.18699
1.18699
1.187
1.18703
1.18708
1.18715
1.18725
1.18738
1.18753
1.1877
1.18788
1.18804
1.18696
1.18697
1.18698
1.18701
1.18707
1.18714
1.18724
1.18737
1.18752
1.18769
1.18787
1.18804
1.18692
1.18693
1.18696
1.187
1.18706
1.18713
1.18723
1.18735
1.18751
1.18768
1.18787
1.18804
1.18686
1.1869
1.18693
1.18698
1.18704
1.18712
1.18722
1.18734
1.1875
1.18768
1.18786
1.18804
1.1868
1.18686
1.18691
1.18697
1.18703
1.18711
1.18721
1.18733
1.18749
1.18767
1.18786
1.18803
1.18671
1.18681
1.18688
1.18695
1.18702
1.1871
1.18719
1.18732
1.18747
1.18766
1.18785
1.18803
1.18659
1.18676
1.18685
1.18693
1.18701
1.18709
1.18718
1.1873
1.18746
1.18765
1.18785
1.18804
1.18643
1.1867
1.18682
1.18691
1.187
1.18708
1.18717
1.18729
1.18745
1.18764
1.18784
1.18804
1.18619
1.18663
1.18679
1.18689
1.18699
1.18707
1.18714
1.18726
1.18742
1.18762
1.18784
1.18804
)
;

boundaryField
{
    rotor
    {
        type            calculated;
        value           nonuniform List<scalar> 
192
(
1.16823
1.16802
1.16791
1.16784
1.16786
1.16805
1.16875
1.16998
1.1696
1.16956
1.1697
1.16964
1.16979
1.16997
1.1703
1.17079
1.17137
1.17193
1.17256
1.17302
1.17333
1.17327
1.17305
1.1724
1.16814
1.16796
1.16786
1.1678
1.16782
1.16794
1.16843
1.16982
1.16943
1.16938
1.16953
1.1695
1.16961
1.16978
1.17007
1.17051
1.17104
1.17154
1.17211
1.17253
1.1728
1.17272
1.17248
1.17185
1.16823
1.16802
1.16791
1.16784
1.16786
1.16805
1.16875
1.16998
1.1696
1.16956
1.1697
1.16964
1.16979
1.16997
1.1703
1.17079
1.17137
1.17193
1.17256
1.17302
1.17333
1.17327
1.17305
1.1724
1.16814
1.16796
1.16786
1.1678
1.16782
1.16794
1.16843
1.16982
1.16943
1.16938
1.16953
1.1695
1.16961
1.16978
1.17007
1.17051
1.17104
1.17154
1.17211
1.17253
1.1728
1.17272
1.17248
1.17185
1.16823
1.16983
1.17098
1.17278
1.17445
1.17627
1.17806
1.1798
1.1817
1.18344
1.18485
1.18491
1.17185
1.17302
1.17344
1.17432
1.17578
1.17771
1.1801
1.18286
1.186
1.18909
1.19191
1.19405
1.16814
1.16975
1.17086
1.17263
1.17426
1.17609
1.17788
1.17964
1.18155
1.18326
1.18467
1.18476
1.1724
1.17352
1.17387
1.17472
1.17619
1.17814
1.18056
1.18339
1.1866
1.18972
1.19252
1.19455
1.16823
1.16983
1.17098
1.17278
1.17445
1.17627
1.17806
1.1798
1.1817
1.18344
1.18485
1.18491
1.17185
1.17302
1.17344
1.17432
1.17578
1.17771
1.1801
1.18286
1.186
1.18909
1.19191
1.19405
1.16814
1.16975
1.17086
1.17263
1.17426
1.17609
1.17788
1.17964
1.18155
1.18326
1.18467
1.18476
1.1724
1.17352
1.17387
1.17472
1.17619
1.17814
1.18056
1.18339
1.18659
1.18972
1.19252
1.19455
)
;
    }
    stator
    {
        type            calculated;
        value           nonuniform List<scalar> 
192
(
1.18822
1.18835
1.18845
1.1885
1.18852
1.18851
1.18847
1.18843
1.18837
1.18831
1.18821
1.18794
1.18851
1.18846
1.18842
1.18835
1.18827
1.1882
1.18813
1.18808
1.18805
1.18803
1.18803
1.18804
1.18805
1.18806
1.18806
1.18806
1.18805
1.18803
1.18799
1.18794
1.18788
1.18779
1.18773
1.18759
1.18619
1.18663
1.18679
1.18689
1.18699
1.18707
1.18714
1.18726
1.18742
1.18762
1.18784
1.18804
1.18822
1.18835
1.18845
1.1885
1.18852
1.18851
1.18847
1.18843
1.18837
1.18831
1.18821
1.18794
1.18851
1.18846
1.18842
1.18835
1.18827
1.1882
1.18813
1.18808
1.18805
1.18803
1.18803
1.18804
1.18805
1.18806
1.18806
1.18806
1.18805
1.18803
1.18799
1.18794
1.18788
1.18779
1.18773
1.18759
1.18619
1.18663
1.18679
1.18689
1.18699
1.18707
1.18714
1.18726
1.18742
1.18762
1.18784
1.18804
1.18857
1.18859
1.18861
1.18861
1.18861
1.18861
1.1886
1.18859
1.18857
1.18855
1.18854
1.18851
1.18833
1.18835
1.18835
1.18834
1.18833
1.18831
1.18829
1.18826
1.18821
1.18816
1.18807
1.18794
1.1871
1.18705
1.18702
1.18699
1.18696
1.18691
1.18686
1.1868
1.18671
1.18659
1.18643
1.18619
1.1872
1.18721
1.18724
1.18727
1.18731
1.18735
1.18739
1.18743
1.18747
1.18751
1.18754
1.18759
1.18857
1.18859
1.18861
1.18861
1.18861
1.18861
1.1886
1.18859
1.18857
1.18855
1.18854
1.18851
1.18833
1.18835
1.18835
1.18834
1.18833
1.18831
1.18829
1.18826
1.18821
1.18816
1.18807
1.18794
1.1871
1.18705
1.18702
1.18699
1.18696
1.18692
1.18686
1.1868
1.18671
1.18659
1.18643
1.18619
1.1872
1.18721
1.18724
1.18727
1.18731
1.18735
1.18739
1.18743
1.18747
1.18751
1.18754
1.18759
)
;
    }
    front
    {
        type            empty;
    }
    back
    {
        type            empty;
    }
}


// ************************************************************************* //
