/*--------------------------------*- C++ -*----------------------------------*\
| =========                 |                                                 |
| \\      /  F ield         | OpenFOAM: The Open Source CFD Toolbox           |
|  \\    /   O peration     | Version:  2212                                  |
|   \\  /    A nd           | Website:  www.openfoam.com                      |
|    \\/     M anipulation  |                                                 |
\*---------------------------------------------------------------------------*/
FoamFile
{
    version     2.0;
    format      ascii;
    arch        "LSB;label=32;scalar=64";
    class       volScalarField;
    location    "0.1";
    object      tracer0;
}
// * * * * * * * * * * * * * * * * * * * * * * * * * * * * * * * * * * * * * //

dimensions      [0 0 0 0 0 0 0];

internalField   nonuniform List<scalar> 
3072
(
3.25931e-05
3.25828e-05
3.25543e-05
3.24992e-05
3.24435e-05
3.24054e-05
3.25033e-05
3.3583e-05
3.45069e-05
3.45816e-05
3.45986e-05
3.46114e-05
3.27996e-05
3.27644e-05
3.26468e-05
3.2507e-05
3.25837e-05
3.30813e-05
3.39202e-05
3.42851e-05
3.4414e-05
3.43107e-05
3.40849e-05
3.3835e-05
3.28889e-05
3.28372e-05
3.26428e-05
3.27702e-05
3.33865e-05
3.39263e-05
3.41094e-05
3.41589e-05
3.39329e-05
3.32729e-05
3.2364e-05
3.12629e-05
3.29811e-05
3.30283e-05
3.30245e-05
3.34113e-05
3.38007e-05
3.39292e-05
3.39537e-05
3.355e-05
3.23555e-05
3.03815e-05
2.85907e-05
2.70841e-05
3.30354e-05
3.32787e-05
3.33896e-05
3.36791e-05
3.37933e-05
3.38171e-05
3.3459e-05
3.21229e-05
2.99147e-05
2.76777e-05
2.58209e-05
2.43104e-05
3.30633e-05
3.33812e-05
3.35295e-05
3.36827e-05
3.37277e-05
3.35357e-05
3.25204e-05
3.04057e-05
2.78662e-05
2.56611e-05
2.39199e-05
2.2616e-05
3.30693e-05
3.34028e-05
3.35612e-05
3.36374e-05
3.35676e-05
3.30039e-05
3.14866e-05
2.93534e-05
2.70975e-05
2.51818e-05
2.3647e-05
2.2472e-05
3.31263e-05
3.34333e-05
3.35224e-05
3.35606e-05
3.33664e-05
3.26815e-05
3.13953e-05
2.94623e-05
2.73601e-05
2.55441e-05
2.40742e-05
2.29311e-05
3.5262e-05
3.52045e-05
3.35408e-05
3.34015e-05
3.32314e-05
3.2718e-05
3.16324e-05
3.00408e-05
2.82605e-05
2.66447e-05
2.53172e-05
2.4238e-05
3.86316e-05
3.73262e-05
3.53687e-05
3.34912e-05
3.32764e-05
3.29279e-05
3.22091e-05
3.12618e-05
3.01998e-05
2.90046e-05
2.80736e-05
2.71167e-05
4.06499e-05
4.19136e-05
4.11263e-05
3.63699e-05
3.46629e-05
3.39622e-05
3.34748e-05
3.28689e-05
3.22319e-05
3.14946e-05
3.08421e-05
3.03053e-05
4.44053e-05
4.517e-05
4.68854e-05
4.58537e-05
4.37471e-05
4.18748e-05
4.04301e-05
3.92958e-05
3.84076e-05
3.7728e-05
3.71277e-05
3.67079e-05
3.46262e-05
3.46422e-05
3.466e-05
3.46877e-05
3.47211e-05
3.4768e-05
3.4828e-05
3.48891e-05
3.49436e-05
3.49756e-05
3.49915e-05
3.49847e-05
3.35659e-05
3.33691e-05
3.32633e-05
3.32814e-05
3.34155e-05
3.36573e-05
3.39921e-05
3.43758e-05
3.47298e-05
3.49402e-05
3.50486e-05
3.5092e-05
3.03493e-05
2.97174e-05
2.93843e-05
2.93815e-05
2.96741e-05
3.02855e-05
3.11994e-05
3.23897e-05
3.36655e-05
3.45501e-05
3.49718e-05
3.51295e-05
2.59513e-05
2.51765e-05
2.47854e-05
2.47634e-05
2.50934e-05
2.58871e-05
2.71717e-05
2.90476e-05
3.14901e-05
3.37318e-05
3.47765e-05
3.51574e-05
2.32726e-05
2.26165e-05
2.23617e-05
2.23458e-05
2.27655e-05
2.35211e-05
2.47589e-05
2.65484e-05
2.91729e-05
3.25741e-05
3.45318e-05
3.51886e-05
2.1795e-05
2.13357e-05
2.11696e-05
2.11756e-05
2.16159e-05
2.23952e-05
2.36377e-05
2.54013e-05
2.80674e-05
3.17273e-05
3.43626e-05
3.52188e-05
2.16777e-05
2.11523e-05
2.07899e-05
2.08508e-05
2.12352e-05
2.201e-05
2.32465e-05
2.49833e-05
2.76316e-05
3.13609e-05
3.42497e-05
3.52505e-05
2.21435e-05
2.16273e-05
2.13737e-05
2.15003e-05
2.18272e-05
2.24516e-05
2.35926e-05
2.51828e-05
2.76598e-05
3.13332e-05
3.42453e-05
3.52822e-05
2.35295e-05
2.29851e-05
2.29224e-05
2.31484e-05
2.35751e-05
2.43038e-05
2.55023e-05
2.7128e-05
2.96796e-05
3.2745e-05
3.4754e-05
3.53465e-05
2.66057e-05
2.6092e-05
2.61077e-05
2.63942e-05
2.68465e-05
2.75527e-05
2.85687e-05
3.0067e-05
3.2194e-05
3.40826e-05
3.51049e-05
3.54107e-05
2.98883e-05
2.97747e-05
3.00109e-05
3.04757e-05
3.11122e-05
3.19509e-05
3.30314e-05
3.42034e-05
3.49879e-05
3.53964e-05
3.55097e-05
3.54654e-05
3.63799e-05
3.62058e-05
3.61671e-05
3.61864e-05
3.62029e-05
3.61969e-05
3.61264e-05
3.60209e-05
3.59157e-05
3.57455e-05
3.55966e-05
3.5475e-05
2.48559e-05
2.48491e-05
2.48336e-05
2.47964e-05
2.47597e-05
2.47272e-05
2.47738e-05
2.53283e-05
2.63459e-05
2.64423e-05
2.64582e-05
2.64708e-05
2.50039e-05
2.49868e-05
2.49151e-05
2.48068e-05
2.48158e-05
2.5099e-05
2.58063e-05
2.61274e-05
2.62623e-05
2.61652e-05
2.58881e-05
2.55866e-05
2.50679e-05
2.50465e-05
2.49081e-05
2.49481e-05
2.53375e-05
2.58052e-05
2.59592e-05
2.60001e-05
2.57567e-05
2.50066e-05
2.38596e-05
2.31139e-05
2.51288e-05
2.51681e-05
2.5153e-05
2.53712e-05
2.56927e-05
2.57969e-05
2.58095e-05
2.53995e-05
2.41809e-05
2.2635e-05
2.16972e-05
2.08007e-05
2.51644e-05
2.53309e-05
2.54006e-05
2.55963e-05
2.56784e-05
2.56871e-05
2.53305e-05
2.4121e-05
2.25347e-05
2.12001e-05
2.02953e-05
1.94048e-05
2.51832e-05
2.54022e-05
2.55009e-05
2.55894e-05
2.56137e-05
2.54215e-05
2.45395e-05
2.29509e-05
2.13685e-05
2.01918e-05
1.93175e-05
1.85574e-05
2.51893e-05
2.54075e-05
2.5502e-05
2.55467e-05
2.54653e-05
2.49754e-05
2.37757e-05
2.22657e-05
2.09504e-05
1.99612e-05
1.91936e-05
1.85254e-05
2.51957e-05
2.54007e-05
2.54674e-05
2.546e-05
2.52706e-05
2.46725e-05
2.36644e-05
2.23294e-05
2.10948e-05
2.01452e-05
1.94145e-05
1.87747e-05
2.51907e-05
2.53672e-05
2.53967e-05
2.53589e-05
2.51412e-05
2.46926e-05
2.38304e-05
2.26999e-05
2.16134e-05
2.07251e-05
2.00547e-05
1.94747e-05
2.51835e-05
2.5315e-05
2.53249e-05
2.52734e-05
2.51443e-05
2.48619e-05
2.43438e-05
2.36378e-05
2.28647e-05
2.21011e-05
2.15024e-05
2.09816e-05
2.51388e-05
2.52133e-05
2.52246e-05
2.52189e-05
2.51851e-05
2.50685e-05
2.4891e-05
2.45648e-05
2.42603e-05
2.38384e-05
2.35263e-05
2.31666e-05
2.54305e-05
2.55285e-05
2.56329e-05
2.56919e-05
2.57194e-05
2.56993e-05
2.56929e-05
2.55916e-05
2.54803e-05
2.53214e-05
2.51733e-05
2.5051e-05
2.64849e-05
2.65021e-05
2.65244e-05
2.65624e-05
2.66398e-05
2.6767e-05
2.70158e-05
2.7033e-05
2.71496e-05
2.72162e-05
2.72499e-05
2.72582e-05
2.52282e-05
2.49593e-05
2.47968e-05
2.47927e-05
2.49108e-05
2.51793e-05
2.56761e-05
2.60474e-05
2.65403e-05
2.70194e-05
2.7265e-05
2.73523e-05
2.23075e-05
2.20005e-05
2.17013e-05
2.16864e-05
2.1803e-05
2.22024e-05
2.29163e-05
2.37195e-05
2.47581e-05
2.60393e-05
2.70314e-05
2.7389e-05
2.01775e-05
1.98008e-05
1.95663e-05
1.95426e-05
1.96573e-05
2.00392e-05
2.06283e-05
2.17195e-05
2.29468e-05
2.45336e-05
2.65447e-05
2.74255e-05
1.89071e-05
1.85257e-05
1.83812e-05
1.83607e-05
1.8523e-05
1.88932e-05
1.95021e-05
2.0411e-05
2.19508e-05
2.35524e-05
2.58573e-05
2.74552e-05
1.81766e-05
1.78967e-05
1.77963e-05
1.77856e-05
1.79638e-05
1.83242e-05
1.89231e-05
1.97678e-05
2.1167e-05
2.29868e-05
2.53295e-05
2.74533e-05
1.81406e-05
1.78531e-05
1.76562e-05
1.76398e-05
1.77867e-05
1.81347e-05
1.87299e-05
1.95465e-05
2.09564e-05
2.25911e-05
2.49169e-05
2.73085e-05
1.83721e-05
1.81023e-05
1.79285e-05
1.7972e-05
1.81042e-05
1.83808e-05
1.89107e-05
1.96255e-05
2.09762e-05
2.25763e-05
2.48614e-05
2.74058e-05
1.90713e-05
1.88016e-05
1.86953e-05
1.87872e-05
1.89687e-05
1.92982e-05
1.9856e-05
2.06331e-05
2.19697e-05
2.3273e-05
2.5223e-05
2.75033e-05
2.06484e-05
2.0364e-05
2.03224e-05
2.04464e-05
2.06656e-05
2.10027e-05
2.14903e-05
2.21791e-05
2.31824e-05
2.41504e-05
2.58723e-05
2.77411e-05
2.29765e-05
2.27689e-05
2.27707e-05
2.28912e-05
2.31161e-05
2.34229e-05
2.38419e-05
2.43877e-05
2.51095e-05
2.59883e-05
2.72605e-05
2.81222e-05
2.49624e-05
2.49991e-05
2.51618e-05
2.54439e-05
2.57851e-05
2.62037e-05
2.66848e-05
2.7198e-05
2.7822e-05
2.82076e-05
2.85625e-05
2.85155e-05
2.13024e-05
2.12947e-05
2.12853e-05
2.1263e-05
2.12334e-05
2.12189e-05
2.11008e-05
2.17103e-05
2.225e-05
2.22938e-05
2.23045e-05
2.23149e-05
2.14082e-05
2.1404e-05
2.13617e-05
2.1289e-05
2.13427e-05
2.16665e-05
2.18606e-05
2.20504e-05
2.21157e-05
2.19246e-05
2.16325e-05
2.12818e-05
2.14543e-05
2.146e-05
2.13773e-05
2.14459e-05
2.17925e-05
2.19436e-05
2.18492e-05
2.18343e-05
2.14003e-05
2.04588e-05
1.93743e-05
1.85362e-05
2.14878e-05
2.15755e-05
2.15891e-05
2.17654e-05
2.1863e-05
2.17604e-05
2.15955e-05
2.10083e-05
1.94594e-05
1.80509e-05
1.70561e-05
1.61601e-05
2.15024e-05
2.16561e-05
2.17226e-05
2.17878e-05
2.16733e-05
2.15123e-05
2.08707e-05
1.94378e-05
1.77816e-05
1.65376e-05
1.55083e-05
1.46535e-05
2.15092e-05
2.16723e-05
2.17256e-05
2.1604e-05
2.15137e-05
2.1071e-05
1.99497e-05
1.81738e-05
1.65971e-05
1.54345e-05
1.44436e-05
1.37263e-05
2.13078e-05
2.14732e-05
2.15336e-05
2.15025e-05
2.12608e-05
2.05033e-05
1.91058e-05
1.74975e-05
1.6176e-05
1.51688e-05
1.42947e-05
1.36461e-05
2.13051e-05
2.14337e-05
2.14535e-05
2.13657e-05
2.10008e-05
2.02294e-05
1.90627e-05
1.75833e-05
1.63291e-05
1.53654e-05
1.45356e-05
1.39002e-05
2.12879e-05
2.13773e-05
2.1379e-05
2.12467e-05
2.09237e-05
2.02851e-05
1.92768e-05
1.80085e-05
1.68718e-05
1.59787e-05
1.52338e-05
1.46285e-05
2.12715e-05
2.13275e-05
2.13061e-05
2.11951e-05
2.09707e-05
2.05413e-05
1.99051e-05
1.90651e-05
1.8181e-05
1.73647e-05
1.67514e-05
1.61887e-05
2.12273e-05
2.1254e-05
2.12513e-05
2.12126e-05
2.11204e-05
2.08993e-05
2.06461e-05
2.02631e-05
1.98635e-05
1.93952e-05
1.90171e-05
1.86564e-05
2.14723e-05
2.1531e-05
2.15928e-05
2.16139e-05
2.1624e-05
2.15755e-05
2.1502e-05
2.13425e-05
2.11719e-05
2.09565e-05
2.07725e-05
2.06143e-05
2.23261e-05
2.23394e-05
2.23555e-05
2.238e-05
2.2422e-05
2.24803e-05
2.25668e-05
2.26646e-05
2.27754e-05
2.28634e-05
2.2909e-05
2.29261e-05
2.09134e-05
2.06273e-05
2.04907e-05
2.04836e-05
2.05997e-05
2.08182e-05
2.11537e-05
2.15924e-05
2.21052e-05
2.26221e-05
2.29018e-05
2.30038e-05
1.78332e-05
1.74921e-05
1.72364e-05
1.72383e-05
1.73777e-05
1.77633e-05
1.83328e-05
1.91794e-05
2.02508e-05
2.15483e-05
2.26261e-05
2.3031e-05
1.55702e-05
1.51633e-05
1.49628e-05
1.49543e-05
1.51379e-05
1.55503e-05
1.6216e-05
1.71568e-05
1.84516e-05
2.00312e-05
2.20898e-05
2.30655e-05
1.41158e-05
1.37296e-05
1.35939e-05
1.35848e-05
1.38209e-05
1.42482e-05
1.49523e-05
1.5985e-05
1.74477e-05
1.91261e-05
2.13379e-05
2.31051e-05
1.3281e-05
1.30131e-05
1.29197e-05
1.29227e-05
1.31703e-05
1.36095e-05
1.4315e-05
1.52851e-05
1.68219e-05
1.8604e-05
2.08892e-05
2.31554e-05
1.32122e-05
1.2912e-05
1.27059e-05
1.27396e-05
1.29552e-05
1.33905e-05
1.40964e-05
1.50462e-05
1.65916e-05
1.83912e-05
2.06416e-05
2.31997e-05
1.34689e-05
1.31791e-05
1.30352e-05
1.31054e-05
1.32874e-05
1.36367e-05
1.42921e-05
1.51484e-05
1.66319e-05
1.83768e-05
2.05828e-05
2.32499e-05
1.42345e-05
1.39319e-05
1.38956e-05
1.40209e-05
1.42601e-05
1.46716e-05
1.53642e-05
1.62603e-05
1.77061e-05
1.91372e-05
2.09656e-05
2.33734e-05
1.58717e-05
1.56055e-05
1.56359e-05
1.58178e-05
1.60948e-05
1.65108e-05
1.71165e-05
1.78794e-05
1.89948e-05
2.00041e-05
2.16043e-05
2.36257e-05
1.84298e-05
1.82702e-05
1.8314e-05
1.84875e-05
1.8745e-05
1.90975e-05
1.9565e-05
2.01592e-05
2.09964e-05
2.17902e-05
2.30207e-05
2.40669e-05
2.05322e-05
2.05805e-05
2.07284e-05
2.09946e-05
2.13294e-05
2.17542e-05
2.22695e-05
2.28511e-05
2.35792e-05
2.40837e-05
2.47385e-05
2.46362e-05
3.38971e-05
3.38875e-05
3.38645e-05
3.38098e-05
3.3757e-05
3.37086e-05
3.37737e-05
3.4558e-05
3.59926e-05
3.6124e-05
3.61442e-05
3.61603e-05
3.41101e-05
3.40844e-05
3.39794e-05
3.38225e-05
3.38344e-05
3.42358e-05
3.52332e-05
3.56847e-05
3.58737e-05
3.57318e-05
3.53399e-05
3.49124e-05
3.4202e-05
3.41684e-05
3.39664e-05
3.40219e-05
3.45742e-05
3.5233e-05
3.54485e-05
3.5505e-05
3.51577e-05
3.40945e-05
3.24759e-05
3.1127e-05
3.42889e-05
3.43397e-05
3.43154e-05
3.46241e-05
3.50752e-05
3.52189e-05
3.52332e-05
3.46377e-05
3.28708e-05
3.0373e-05
2.85422e-05
2.69797e-05
3.43409e-05
3.45727e-05
3.46687e-05
3.4941e-05
3.50531e-05
3.50616e-05
3.45483e-05
3.27327e-05
3.01314e-05
2.77171e-05
2.59203e-05
2.43058e-05
3.4368e-05
3.46743e-05
3.48109e-05
3.49299e-05
3.49605e-05
3.46806e-05
3.33327e-05
3.07894e-05
2.80153e-05
2.57663e-05
2.40447e-05
2.26225e-05
3.43779e-05
3.4681e-05
3.48094e-05
3.48688e-05
3.47444e-05
3.39846e-05
3.21018e-05
2.96179e-05
2.72471e-05
2.53332e-05
2.38219e-05
2.25582e-05
3.43866e-05
3.4671e-05
3.47618e-05
3.47488e-05
3.44436e-05
3.35252e-05
3.19345e-05
2.97282e-05
2.75156e-05
2.5695e-05
2.42555e-05
2.30452e-05
3.43811e-05
3.46227e-05
3.46577e-05
3.45838e-05
3.42622e-05
3.35626e-05
3.22056e-05
3.03619e-05
2.84585e-05
2.68063e-05
2.54974e-05
2.43983e-05
3.4368e-05
3.4545e-05
3.45671e-05
3.44936e-05
3.42874e-05
3.38518e-05
3.30356e-05
3.19003e-05
3.06178e-05
2.92867e-05
2.82036e-05
2.7231e-05
3.432e-05
3.44324e-05
3.44143e-05
3.43662e-05
3.42817e-05
3.41416e-05
3.39373e-05
3.35443e-05
3.31336e-05
3.25448e-05
3.20233e-05
3.14676e-05
3.3902e-05
3.38442e-05
3.37122e-05
3.36255e-05
3.35868e-05
3.35572e-05
3.35083e-05
3.3399e-05
3.32512e-05
3.30973e-05
3.29504e-05
3.28077e-05
3.61771e-05
3.61965e-05
3.62194e-05
3.62526e-05
3.63064e-05
3.6383e-05
3.64926e-05
3.66171e-05
3.6743e-05
3.68331e-05
3.68773e-05
3.68895e-05
3.4407e-05
3.40292e-05
3.37761e-05
3.37657e-05
3.39178e-05
3.4245e-05
3.47222e-05
3.536e-05
3.60407e-05
3.66248e-05
3.69026e-05
3.70045e-05
2.98648e-05
2.91968e-05
2.87275e-05
2.87054e-05
2.89033e-05
2.95458e-05
3.04702e-05
3.18831e-05
3.35773e-05
3.55765e-05
3.66458e-05
3.70451e-05
2.57647e-05
2.50313e-05
2.45847e-05
2.45387e-05
2.47627e-05
2.54981e-05
2.65859e-05
2.82444e-05
3.04251e-05
3.34223e-05
3.61184e-05
3.70863e-05
2.32441e-05
2.25415e-05
2.22333e-05
2.21921e-05
2.25192e-05
2.32737e-05
2.45151e-05
2.63002e-05
2.84872e-05
3.15199e-05
3.54144e-05
3.7134e-05
2.17905e-05
2.12618e-05
2.10581e-05
2.10361e-05
2.13904e-05
2.21027e-05
2.32664e-05
2.51959e-05
2.75254e-05
3.05679e-05
3.48094e-05
3.71888e-05
2.17437e-05
2.11773e-05
2.07817e-05
2.07473e-05
2.10405e-05
2.17319e-05
2.28454e-05
2.47857e-05
2.71466e-05
3.01594e-05
3.44813e-05
3.72452e-05
2.22197e-05
2.16805e-05
2.13314e-05
2.14179e-05
2.16805e-05
2.22268e-05
2.31756e-05
2.50184e-05
2.71685e-05
3.01181e-05
3.43796e-05
3.73023e-05
2.36065e-05
2.30742e-05
2.28594e-05
2.30394e-05
2.33964e-05
2.4048e-05
2.50999e-05
2.70671e-05
2.88697e-05
3.13953e-05
3.47139e-05
3.73668e-05
2.66117e-05
2.6079e-05
2.60012e-05
2.62737e-05
2.67233e-05
2.74205e-05
2.83657e-05
2.98131e-05
3.03284e-05
3.22051e-05
3.34111e-05
3.6096e-05
3.10787e-05
3.0745e-05
3.0622e-05
3.06902e-05
3.08264e-05
3.09634e-05
3.10408e-05
3.10525e-05
3.09202e-05
3.17588e-05
3.28261e-05
3.55258e-05
3.26632e-05
3.25291e-05
3.23815e-05
3.22048e-05
3.19879e-05
3.17401e-05
3.14479e-05
3.11297e-05
3.05798e-05
3.10693e-05
3.16991e-05
3.43834e-05
3.24199e-05
3.37908e-05
3.64626e-05
3.7099e-05
3.76913e-05
3.81685e-05
3.85036e-05
3.8497e-05
3.83795e-05
3.82373e-05
3.80897e-05
3.79476e-05
2.8103e-05
2.85793e-05
3.04713e-05
3.06886e-05
3.10585e-05
3.12714e-05
3.16643e-05
3.19956e-05
3.2413e-05
3.26537e-05
3.28923e-05
3.28996e-05
2.32641e-05
2.48488e-05
2.51564e-05
2.54e-05
2.56577e-05
2.58733e-05
2.60989e-05
2.62863e-05
2.64677e-05
2.6593e-05
2.66798e-05
2.66471e-05
1.9682e-05
1.9875e-05
2.00539e-05
2.02523e-05
2.04301e-05
2.06323e-05
2.08064e-05
2.09945e-05
2.11255e-05
2.1234e-05
2.11994e-05
2.1049e-05
3.77962e-05
3.76162e-05
3.73966e-05
3.71276e-05
3.68066e-05
3.6435e-05
3.60186e-05
3.55604e-05
3.50819e-05
3.46324e-05
3.42888e-05
3.46256e-05
3.27876e-05
3.25776e-05
3.22697e-05
3.18694e-05
3.13884e-05
3.08465e-05
3.02884e-05
2.9729e-05
2.92276e-05
2.89054e-05
2.86217e-05
2.94006e-05
2.65243e-05
2.63056e-05
2.59955e-05
2.5609e-05
2.51704e-05
2.47094e-05
2.42522e-05
2.38212e-05
2.34934e-05
2.3357e-05
2.31832e-05
2.36315e-05
2.07602e-05
2.03669e-05
1.99307e-05
1.95096e-05
1.91661e-05
1.8875e-05
1.86545e-05
1.85299e-05
1.84622e-05
1.85008e-05
1.84637e-05
1.87288e-05
3.4316e-05
3.34364e-05
3.30611e-05
3.2706e-05
3.23034e-05
3.18548e-05
3.13926e-05
3.09697e-05
3.05817e-05
3.02573e-05
2.9991e-05
2.97888e-05
3.02839e-05
3.07335e-05
3.09659e-05
3.10832e-05
3.11303e-05
3.11106e-05
3.10546e-05
3.0972e-05
3.08816e-05
3.0789e-05
3.06967e-05
3.05976e-05
2.41463e-05
2.45933e-05
2.49958e-05
2.53533e-05
2.56455e-05
2.59174e-05
2.61341e-05
2.63343e-05
2.64644e-05
2.6552e-05
2.6526e-05
2.64351e-05
1.9012e-05
1.93501e-05
1.96102e-05
1.99107e-05
2.01122e-05
2.03489e-05
2.04737e-05
2.062e-05
2.06223e-05
2.05433e-05
2.03696e-05
2.01119e-05
2.96529e-05
2.95725e-05
2.95447e-05
2.95031e-05
2.94955e-05
2.94285e-05
2.93788e-05
2.92901e-05
2.92258e-05
2.91208e-05
2.90672e-05
2.8994e-05
3.04777e-05
3.03319e-05
3.01578e-05
2.99608e-05
2.97358e-05
2.94807e-05
2.9193e-05
2.88821e-05
2.85689e-05
2.8314e-05
2.81159e-05
2.82834e-05
2.62901e-05
2.60864e-05
2.58203e-05
2.54931e-05
2.51135e-05
2.46431e-05
2.41131e-05
2.35994e-05
2.31799e-05
2.29591e-05
2.27132e-05
2.31797e-05
1.98053e-05
1.94723e-05
1.91339e-05
1.88152e-05
1.85317e-05
1.83448e-05
1.82557e-05
1.82304e-05
1.82144e-05
1.82701e-05
1.82313e-05
1.83913e-05
2.8744e-05
2.80814e-05
2.77641e-05
2.74074e-05
2.70128e-05
2.65647e-05
2.61392e-05
2.57242e-05
2.5381e-05
2.50807e-05
2.48708e-05
2.47071e-05
2.83022e-05
2.8225e-05
2.81449e-05
2.80603e-05
2.79685e-05
2.78832e-05
2.77978e-05
2.76951e-05
2.75718e-05
2.74578e-05
2.73464e-05
2.72587e-05
2.36396e-05
2.40658e-05
2.44131e-05
2.47056e-05
2.49467e-05
2.51606e-05
2.53307e-05
2.54579e-05
2.55438e-05
2.55826e-05
2.55563e-05
2.54789e-05
1.85677e-05
1.87795e-05
1.89616e-05
1.91768e-05
1.93578e-05
1.95735e-05
1.97505e-05
1.9965e-05
2.01027e-05
2.02385e-05
2.02133e-05
2.00749e-05
2.46422e-05
2.47035e-05
2.48478e-05
2.50396e-05
2.52399e-05
2.54176e-05
2.55492e-05
2.56258e-05
2.56589e-05
2.56406e-05
2.56462e-05
2.54426e-05
2.71777e-05
2.70831e-05
2.69699e-05
2.684e-05
2.66884e-05
2.65189e-05
2.63333e-05
2.6124e-05
2.59491e-05
2.57769e-05
2.57054e-05
2.56315e-05
2.53454e-05
2.51508e-05
2.48959e-05
2.45881e-05
2.42418e-05
2.38758e-05
2.34849e-05
2.31103e-05
2.28191e-05
2.26918e-05
2.2511e-05
2.29321e-05
1.98077e-05
1.94451e-05
1.90429e-05
1.86559e-05
1.83351e-05
1.80602e-05
1.787e-05
1.77656e-05
1.77065e-05
1.77521e-05
1.77312e-05
1.79627e-05
2.56593e-05
2.64117e-05
2.66831e-05
2.69653e-05
2.72623e-05
2.7658e-05
2.80473e-05
2.84817e-05
2.88417e-05
2.91822e-05
2.93741e-05
2.9545e-05
2.55785e-05
2.56286e-05
2.56987e-05
2.57516e-05
2.58028e-05
2.58522e-05
2.59161e-05
2.59786e-05
2.60545e-05
2.61117e-05
2.61678e-05
2.61812e-05
2.33522e-05
2.35798e-05
2.37304e-05
2.38454e-05
2.39314e-05
2.40004e-05
2.40516e-05
2.40908e-05
2.41096e-05
2.40939e-05
2.40488e-05
2.39692e-05
1.82741e-05
1.8603e-05
1.88829e-05
1.91519e-05
1.93569e-05
1.95498e-05
1.96721e-05
1.97515e-05
1.97295e-05
1.96447e-05
1.94834e-05
1.92627e-05
2.95547e-05
2.948e-05
2.93453e-05
2.91497e-05
2.88952e-05
2.85998e-05
2.82741e-05
2.79167e-05
2.74676e-05
2.78841e-05
2.82928e-05
2.9892e-05
2.61518e-05
2.60823e-05
2.59693e-05
2.58117e-05
2.56117e-05
2.53724e-05
2.5105e-05
2.48283e-05
2.45666e-05
2.47573e-05
2.56546e-05
2.62503e-05
2.38541e-05
2.36995e-05
2.35026e-05
2.32646e-05
2.29841e-05
2.26171e-05
2.22295e-05
2.18536e-05
2.15257e-05
2.12835e-05
2.14991e-05
2.28229e-05
1.90226e-05
1.87644e-05
1.85069e-05
1.82717e-05
1.80901e-05
1.80212e-05
1.80045e-05
1.80557e-05
1.80781e-05
1.81419e-05
1.80922e-05
1.84483e-05
1.91873e-05
1.89897e-05
1.86331e-05
1.80873e-05
1.73535e-05
1.64095e-05
1.52716e-05
1.40171e-05
1.27389e-05
1.16211e-05
1.08172e-05
1.05443e-05
1.78146e-05
1.70736e-05
1.61871e-05
1.50758e-05
1.37765e-05
1.23157e-05
1.08098e-05
9.39063e-06
8.20604e-06
7.38788e-06
6.9985e-06
7.05664e-06
1.60526e-05
1.51301e-05
1.39121e-05
1.25533e-05
1.10482e-05
9.49172e-06
8.0075e-06
6.71263e-06
5.7065e-06
5.05226e-06
4.83854e-06
4.97453e-06
1.44985e-05
1.34391e-05
1.2069e-05
1.06442e-05
9.11024e-06
7.60218e-06
6.20471e-06
4.99893e-06
4.02853e-06
3.3267e-06
3.08942e-06
3.235e-06
1.05958e-05
1.11037e-05
1.1921e-05
1.28922e-05
1.40463e-05
1.51671e-05
1.5971e-05
1.65245e-05
1.68823e-05
1.70684e-05
1.7033e-05
1.67583e-05
7.53654e-06
8.40635e-06
9.34761e-06
1.04181e-05
1.13979e-05
1.21841e-05
1.28102e-05
1.32749e-05
1.35463e-05
1.34498e-05
1.26154e-05
1.14494e-05
5.64879e-06
6.36721e-06
7.13027e-06
7.84168e-06
8.406e-06
8.84421e-06
9.18482e-06
9.31648e-06
9.05477e-06
8.34064e-06
7.26117e-06
6.00151e-06
4.52334e-06
5.21801e-06
5.71786e-06
6.0696e-06
6.31507e-06
6.45629e-06
6.41233e-06
6.0202e-06
5.44251e-06
4.58985e-06
3.63329e-06
2.68475e-06
1.59951e-05
1.50223e-05
1.40092e-05
1.29054e-05
1.18387e-05
1.07485e-05
9.72672e-06
8.80176e-06
8.04869e-06
7.65399e-06
7.6687e-06
7.87498e-06
9.60158e-06
8.44127e-06
6.93842e-06
5.92611e-06
4.78153e-06
4.01727e-06
3.22773e-06
2.78721e-06
2.4526e-06
2.48904e-06
2.72589e-06
3.32109e-06
4.56194e-06
3.68405e-06
2.62373e-06
2.11666e-06
1.42857e-06
1.17984e-06
7.90223e-07
7.47182e-07
6.10301e-07
6.61747e-07
8.06689e-07
1.22177e-06
1.83736e-06
1.35092e-06
8.39449e-07
6.68928e-07
4.02267e-07
3.51305e-07
2.46826e-07
2.34613e-07
1.81799e-07
1.83364e-07
2.12715e-07
3.7475e-07
8.56295e-06
9.61008e-06
1.09935e-05
1.28258e-05
1.45876e-05
1.59807e-05
1.69035e-05
1.74799e-05
1.7818e-05
1.80022e-05
1.80993e-05
1.81581e-05
4.16599e-06
5.29401e-06
7.05368e-06
9.18713e-06
1.1669e-05
1.38899e-05
1.55128e-05
1.64871e-05
1.70714e-05
1.73826e-05
1.75225e-05
1.74493e-05
1.93231e-06
2.62452e-06
3.98919e-06
5.97169e-06
8.61651e-06
1.14089e-05
1.37244e-05
1.51109e-05
1.59143e-05
1.63161e-05
1.64703e-05
1.61568e-05
9.53802e-07
1.41403e-06
2.50842e-06
4.1779e-06
6.50831e-06
9.28662e-06
1.19278e-05
1.36819e-05
1.46591e-05
1.51397e-05
1.5309e-05
1.48302e-05
1.81588e-05
1.80171e-05
1.77147e-05
1.7225e-05
1.65659e-05
1.57053e-05
1.46633e-05
1.35111e-05
1.23278e-05
1.12991e-05
1.05552e-05
1.03168e-05
1.69551e-05
1.62823e-05
1.54512e-05
1.44478e-05
1.32408e-05
1.18926e-05
1.04882e-05
9.16431e-06
8.0522e-06
7.288e-06
6.92779e-06
7.00148e-06
1.5343e-05
1.44507e-05
1.33417e-05
1.20846e-05
1.06778e-05
9.22575e-06
7.82312e-06
6.59677e-06
5.63194e-06
5.0039e-06
4.8024e-06
4.94307e-06
1.38765e-05
1.28608e-05
1.16148e-05
1.02771e-05
8.83901e-06
7.41719e-06
6.08218e-06
4.92374e-06
3.97722e-06
3.29028e-06
3.05963e-06
3.20832e-06
1.03756e-05
1.08947e-05
1.16785e-05
1.26207e-05
1.37273e-05
1.4747e-05
1.54842e-05
1.59905e-05
1.63166e-05
1.64901e-05
1.64759e-05
1.62415e-05
7.48065e-06
8.33204e-06
9.24972e-06
1.02839e-05
1.12308e-05
1.19878e-05
1.25869e-05
1.30289e-05
1.32927e-05
1.32235e-05
1.2446e-05
1.13612e-05
5.62028e-06
6.33355e-06
7.087e-06
7.78798e-06
8.34224e-06
8.77193e-06
9.10464e-06
9.23668e-06
8.99453e-06
8.30778e-06
7.2675e-06
6.04094e-06
4.50243e-06
5.20202e-06
5.70185e-06
6.05256e-06
6.29636e-06
6.43856e-06
6.40151e-06
6.0193e-06
5.45756e-06
4.61943e-06
3.6769e-06
2.73181e-06
1.55987e-05
1.474e-05
1.37918e-05
1.27986e-05
1.18119e-05
1.08314e-05
9.90855e-06
9.00447e-06
8.30196e-06
7.96491e-06
8.02686e-06
8.41457e-06
9.59494e-06
8.43241e-06
7.03608e-06
6.02738e-06
4.94542e-06
4.18042e-06
3.42254e-06
2.97235e-06
2.6707e-06
2.71468e-06
3.01231e-06
3.6747e-06
4.62627e-06
3.75332e-06
2.71913e-06
2.18778e-06
1.51683e-06
1.2388e-06
8.57375e-07
7.97293e-07
6.7199e-07
7.43357e-07
9.18606e-07
1.41923e-06
1.88309e-06
1.3881e-06
8.71836e-07
6.83944e-07
4.07672e-07
3.53183e-07
2.40808e-07
2.28083e-07
1.77107e-07
1.85173e-07
2.29006e-07
4.38706e-07
9.33453e-06
1.05249e-05
1.21824e-05
1.3953e-05
1.57534e-05
1.69773e-05
1.77542e-05
1.81929e-05
1.84385e-05
1.86121e-05
1.87314e-05
1.89978e-05
4.54292e-06
5.61392e-06
7.48088e-06
9.66821e-06
1.23024e-05
1.46854e-05
1.63605e-05
1.73535e-05
1.79299e-05
1.82324e-05
1.83717e-05
1.83992e-05
2.24284e-06
2.93692e-06
4.40648e-06
6.49533e-06
9.18377e-06
1.20774e-05
1.45015e-05
1.59517e-05
1.6793e-05
1.72158e-05
1.73817e-05
1.70269e-05
1.19478e-06
1.6765e-06
2.84683e-06
4.57422e-06
6.99608e-06
9.86251e-06
1.26014e-05
1.44299e-05
1.54498e-05
1.59484e-05
1.61205e-05
1.55635e-05
1.3132e-05
1.19994e-05
1.05967e-05
9.19243e-06
7.70836e-06
6.28991e-06
4.98128e-06
3.83599e-06
2.86274e-06
2.0657e-06
1.46309e-06
1.03107e-06
1.18933e-05
1.07467e-05
9.3804e-06
8.04066e-06
6.64358e-06
5.32917e-06
4.11493e-06
3.04395e-06
2.12078e-06
1.35665e-06
7.66631e-07
3.75169e-07
1.07284e-05
9.61629e-06
8.3267e-06
7.07687e-06
5.78623e-06
4.58288e-06
3.47019e-06
2.4896e-06
1.65139e-06
9.75596e-07
4.81851e-07
2.02003e-07
9.59846e-06
8.56026e-06
7.37151e-06
6.22835e-06
5.05511e-06
3.96635e-06
2.95894e-06
2.07444e-06
1.32875e-06
7.46781e-07
3.44984e-07
1.40563e-07
8.4789e-06
7.54618e-06
6.47282e-06
5.44842e-06
4.39874e-06
3.42566e-06
2.52348e-06
1.73339e-06
1.0758e-06
5.78327e-07
2.55001e-07
1.0507e-07
7.35475e-06
6.55155e-06
5.60198e-06
4.70556e-06
3.7828e-06
2.92553e-06
2.12755e-06
1.4297e-06
8.57102e-07
4.39405e-07
1.85426e-07
7.71022e-08
6.21783e-06
5.5586e-06
4.7383e-06
3.9772e-06
3.18411e-06
2.4442e-06
1.75214e-06
1.14862e-06
6.63167e-07
3.23934e-07
1.3119e-07
5.49608e-08
5.06933e-06
4.55576e-06
3.87081e-06
3.25076e-06
2.59162e-06
1.97413e-06
1.39442e-06
8.91652e-07
4.9667e-07
2.32205e-07
9.0602e-08
3.80287e-08
3.93332e-06
3.55366e-06
3.01086e-06
2.53423e-06
2.01416e-06
1.52571e-06
1.06559e-06
6.68801e-07
3.62694e-07
1.63789e-07
6.1681e-08
2.56226e-08
2.87854e-06
2.61245e-06
2.21138e-06
1.87148e-06
1.48902e-06
1.1294e-06
7.87892e-07
4.92428e-07
2.64105e-07
1.16423e-07
4.21495e-08
1.70062e-08
2.0367e-06
1.85329e-06
1.5735e-06
1.3457e-06
1.08018e-06
8.29958e-07
5.8751e-07
3.72338e-07
2.0076e-07
8.69443e-08
2.99573e-08
1.1603e-08
1.56475e-06
1.42502e-06
1.21692e-06
1.0535e-06
8.56836e-07
6.70594e-07
4.85302e-07
3.1356e-07
1.71159e-07
7.31224e-08
2.38423e-08
9.00161e-09
3.72205e-06
4.40639e-06
4.72503e-06
4.88691e-06
4.93135e-06
4.74736e-06
4.36279e-06
3.79663e-06
3.13428e-06
2.38612e-06
1.69733e-06
1.12396e-06
3.39933e-06
3.88298e-06
4.06261e-06
4.10713e-06
3.93107e-06
3.55294e-06
3.04173e-06
2.44267e-06
1.8371e-06
1.26719e-06
8.27128e-07
5.22509e-07
3.1482e-06
3.50558e-06
3.61041e-06
3.54581e-06
3.23105e-06
2.77488e-06
2.2348e-06
1.67497e-06
1.16874e-06
7.55037e-07
4.82182e-07
3.31322e-07
2.93288e-06
3.211e-06
3.27504e-06
3.13744e-06
2.76477e-06
2.29223e-06
1.77258e-06
1.27532e-06
8.61542e-07
5.57459e-07
3.84866e-07
3.07426e-07
2.73537e-06
2.96175e-06
3.00893e-06
2.84781e-06
2.47051e-06
2.01865e-06
1.54427e-06
1.1187e-06
7.88975e-07
5.53982e-07
4.10842e-07
3.52782e-07
2.54443e-06
2.73361e-06
2.78289e-06
2.64206e-06
2.30029e-06
1.8954e-06
1.49137e-06
1.12971e-06
8.34331e-07
6.28239e-07
5.16045e-07
4.71979e-07
2.35104e-06
2.50321e-06
2.56786e-06
2.47598e-06
2.21093e-06
1.86986e-06
1.52289e-06
1.207e-06
9.65429e-07
7.97736e-07
6.98805e-07
6.46611e-07
2.14743e-06
2.24701e-06
2.32634e-06
2.28827e-06
2.13756e-06
1.87082e-06
1.60057e-06
1.35142e-06
1.14965e-06
1.0003e-06
8.97731e-07
8.28751e-07
1.92241e-06
1.9501e-06
2.03051e-06
2.03986e-06
1.9748e-06
1.83231e-06
1.62907e-06
1.44399e-06
1.28308e-06
1.1503e-06
1.04501e-06
9.6012e-07
1.66263e-06
1.62642e-06
1.67685e-06
1.71594e-06
1.69609e-06
1.64623e-06
1.55655e-06
1.42257e-06
1.29929e-06
1.19012e-06
1.09393e-06
1.00711e-06
1.3831e-06
1.32314e-06
1.33369e-06
1.36916e-06
1.37503e-06
1.35729e-06
1.32258e-06
1.27549e-06
1.21242e-06
1.13432e-06
1.05931e-06
9.87123e-07
1.17649e-06
1.13175e-06
1.11844e-06
1.13259e-06
1.14995e-06
1.15012e-06
1.13889e-06
1.12088e-06
1.0956e-06
1.05845e-06
1.00798e-06
9.52193e-07
7.17466e-07
5.06683e-07
3.31532e-07
2.85188e-07
2.23443e-07
2.09556e-07
1.72815e-07
1.5768e-07
1.24295e-07
1.02939e-07
8.58666e-08
9.09641e-08
3.55034e-07
2.81948e-07
2.45094e-07
2.37788e-07
2.27913e-07
2.22289e-07
2.06139e-07
1.82835e-07
1.49076e-07
1.07938e-07
7.37173e-08
6.02304e-08
2.74334e-07
2.59896e-07
2.59837e-07
2.72924e-07
2.79829e-07
2.78785e-07
2.64251e-07
2.35868e-07
1.94148e-07
1.43254e-07
8.85802e-08
6.15508e-08
2.85117e-07
2.93168e-07
3.09878e-07
3.28116e-07
3.38343e-07
3.35958e-07
3.17226e-07
2.82258e-07
2.31635e-07
1.71294e-07
1.05592e-07
7.12048e-08
3.52065e-07
3.66305e-07
3.82789e-07
3.97201e-07
4.02214e-07
3.92404e-07
3.66006e-07
3.23431e-07
2.64921e-07
1.96825e-07
1.21266e-07
7.83645e-08
4.68733e-07
4.75117e-07
4.8064e-07
4.8185e-07
4.72031e-07
4.48719e-07
4.11109e-07
3.5971e-07
2.9406e-07
2.20365e-07
1.37641e-07
8.70908e-08
6.22817e-07
6.08176e-07
5.92432e-07
5.70974e-07
5.409e-07
5.00989e-07
4.50619e-07
3.90357e-07
3.18857e-07
2.41607e-07
1.53938e-07
9.59118e-08
7.79082e-07
7.36316e-07
6.9375e-07
6.48262e-07
5.98228e-07
5.42844e-07
4.81342e-07
4.13995e-07
3.38815e-07
2.60135e-07
1.70166e-07
1.04757e-07
8.87671e-07
8.21679e-07
7.58461e-07
6.95919e-07
6.32628e-07
5.6764e-07
4.99912e-07
4.29531e-07
3.53623e-07
2.75633e-07
1.86228e-07
1.13781e-07
9.27811e-07
8.53749e-07
7.82985e-07
7.14079e-07
6.4586e-07
5.77431e-07
5.0798e-07
4.37532e-07
3.63739e-07
2.88142e-07
2.02095e-07
1.22957e-07
9.16957e-07
8.48059e-07
7.79904e-07
7.12195e-07
6.44731e-07
5.77153e-07
5.09261e-07
4.40767e-07
3.70564e-07
2.98452e-07
2.18313e-07
1.32461e-07
8.92624e-07
8.30355e-07
7.66496e-07
7.01876e-07
6.37123e-07
5.72216e-07
5.07537e-07
4.42225e-07
3.76674e-07
3.08084e-07
2.36135e-07
1.40239e-07
5.27169e-07
8.14327e-07
1.59755e-06
2.94636e-06
4.96877e-06
7.53723e-06
1.02281e-05
1.2254e-05
1.33713e-05
1.39283e-05
1.41223e-05
1.35731e-05
3.63154e-07
5.08102e-07
1.06879e-06
2.13429e-06
3.82361e-06
6.10476e-06
8.67188e-06
1.08538e-05
1.20738e-05
1.27001e-05
1.29263e-05
1.23839e-05
2.59952e-07
3.33004e-07
7.26353e-07
1.55669e-06
2.95231e-06
4.92207e-06
7.26614e-06
9.48351e-06
1.07743e-05
1.14563e-05
1.17174e-05
1.12357e-05
1.85273e-07
2.22704e-07
4.9951e-07
1.14009e-06
2.27765e-06
3.9465e-06
6.02574e-06
8.1301e-06
9.47671e-06
1.01963e-05
1.04898e-05
1.01029e-05
1.28832e-07
1.48988e-07
3.4274e-07
8.33527e-07
1.75327e-06
3.14039e-06
4.92388e-06
6.84319e-06
8.18716e-06
8.92089e-06
9.2405e-06
8.96603e-06
8.61169e-08
9.84362e-08
2.3304e-07
6.06863e-07
1.34805e-06
2.48676e-06
3.96692e-06
5.63602e-06
6.91409e-06
7.6332e-06
7.96863e-06
7.81012e-06
5.46557e-08
6.35593e-08
1.55899e-07
4.39045e-07
1.03735e-06
1.96749e-06
3.15875e-06
4.53366e-06
5.67445e-06
6.34257e-06
6.67766e-06
6.62226e-06
3.26844e-08
3.99087e-08
1.01864e-07
3.15106e-07
8.01597e-07
1.56602e-06
2.50167e-06
3.56592e-06
4.49949e-06
5.07359e-06
5.38491e-06