/*--------------------------------*- C++ -*----------------------------------*\
| =========                 |                                                 |
| \\      /  F ield         | OpenFOAM: The Open Source CFD Toolbox           |
|  \\    /   O peration     | Version:  2212                                  |
|   \\  /    A nd           | Website:  www.openfoam.com                      |
|    \\/     M anipulation  |                                                 |
\*---------------------------------------------------------------------------*/
FoamFile
{
    version     2.0;
    format      ascii;
    arch        "LSB;label=32;scalar=64";
    class       volScalarField;
    location    "0.1";
    object      tracer0;
}
// * * * * * * * * * * * * * * * * * * * * * * * * * * * * * * * * * * * * * //

dimensions      [0 0 0 0 0 0 0];

internalField   nonuniform List<scalar> 
3072
(
3.08352e-05
3.0831e-05
3.08023e-05
3.07338e-05
3.06791e-05
3.05953e-05
3.05934e-05
3.08066e-05
3.26323e-05
3.37143e-05
3.3795e-05
3.38148e-05
3.11142e-05
3.1058e-05
3.09123e-05
3.07491e-05
3.0648e-05
3.08578e-05
3.1693e-05
3.29081e-05
3.34373e-05
3.35956e-05
3.34608e-05
3.32081e-05
3.12377e-05
3.11275e-05
3.08828e-05
3.07313e-05
3.09862e-05
3.20232e-05
3.2917e-05
3.32102e-05
3.32836e-05
3.30048e-05
3.22163e-05
3.12136e-05
3.13502e-05
3.11748e-05
3.09451e-05
3.1097e-05
3.19296e-05
3.27348e-05
3.29849e-05
3.30304e-05
3.25539e-05
3.11153e-05
2.88948e-05
2.71245e-05
3.14771e-05
3.15092e-05
3.14509e-05
3.18488e-05
3.25322e-05
3.28007e-05
3.28562e-05
3.24365e-05
3.0804e-05
2.82482e-05
2.59524e-05
2.41915e-05
3.15742e-05
3.17768e-05
3.18918e-05
3.23517e-05
3.26465e-05
3.27305e-05
3.25236e-05
3.13099e-05
2.88354e-05
2.60777e-05
2.39401e-05
2.23007e-05
3.16856e-05
3.20207e-05
3.22198e-05
3.24995e-05
3.2602e-05
3.25526e-05
3.18778e-05
3.00536e-05
2.7564e-05
2.51486e-05
2.32847e-05
2.18143e-05
3.19015e-05
3.2144e-05
3.22948e-05
3.24739e-05
3.25145e-05
3.23028e-05
3.14819e-05
2.99171e-05
2.7664e-05
2.53813e-05
2.35814e-05
2.21582e-05
3.54052e-05
3.43376e-05
3.23984e-05
3.23573e-05
3.23393e-05
3.21451e-05
3.15272e-05
3.01932e-05
2.82722e-05
2.62428e-05
2.45594e-05
2.32185e-05
3.90411e-05
3.69354e-05
3.46305e-05
3.24922e-05
3.23383e-05
3.2176e-05
3.17641e-05
3.08964e-05
2.96899e-05
2.82288e-05
2.68532e-05
2.56366e-05
4.14683e-05
4.29107e-05
4.20447e-05
3.60104e-05
3.38854e-05
3.3057e-05
3.25891e-05
3.20289e-05
3.12597e-05
3.02429e-05
2.92521e-05
2.82875e-05
4.55373e-05
4.6385e-05
4.85719e-05
4.7373e-05
4.47792e-05
4.21226e-05
3.99275e-05
3.81102e-05
3.66174e-05
3.53808e-05
3.43477e-05
3.35854e-05
3.38296e-05
3.38479e-05
3.38678e-05
3.38961e-05
3.39274e-05
3.39752e-05
3.40386e-05
3.41063e-05
3.41655e-05
3.42045e-05
3.42221e-05
3.42046e-05
3.29351e-05
3.26826e-05
3.25356e-05
3.2508e-05
3.26075e-05
3.28409e-05
3.3167e-05
3.35754e-05
3.39336e-05
3.4178e-05
3.42949e-05
3.43414e-05
3.00365e-05
2.92877e-05
2.875e-05
2.86724e-05
2.88362e-05
2.94404e-05
3.02862e-05
3.15277e-05
3.27859e-05
3.37606e-05
3.42188e-05
3.43893e-05
2.57114e-05
2.47057e-05
2.41089e-05
2.39904e-05
2.41381e-05
2.4959e-05
2.61477e-05
2.80705e-05
3.04974e-05
3.28411e-05
3.3993e-05
3.4421e-05
2.27857e-05
2.19159e-05
2.14766e-05
2.13919e-05
2.16113e-05
2.23703e-05
2.3563e-05
2.5395e-05
2.80634e-05
3.15343e-05
3.36972e-05
3.44595e-05
2.11053e-05
2.04119e-05
2.00955e-05
2.00329e-05
2.04004e-05
2.11326e-05
2.234e-05
2.41374e-05
2.6851e-05
3.05822e-05
3.34797e-05
3.44954e-05
2.07177e-05
1.9999e-05
1.95706e-05
1.95132e-05
1.99585e-05
2.06899e-05
2.18889e-05
2.36496e-05
2.63284e-05
3.01509e-05
3.33397e-05
3.45346e-05
2.10876e-05
2.03847e-05
1.99509e-05
2.00251e-05
2.02955e-05
2.08784e-05
2.19926e-05
2.36528e-05
2.62932e-05
3.00784e-05
3.33031e-05
3.45721e-05
2.22146e-05
2.1543e-05
2.12383e-05
2.14209e-05
2.18202e-05
2.25529e-05
2.38113e-05
2.55542e-05
2.8136e-05
3.13699e-05
3.38087e-05
3.46438e-05
2.48038e-05
2.41274e-05
2.39749e-05
2.4232e-05
2.46871e-05
2.54413e-05
2.66163e-05
2.8166e-05
3.05372e-05
3.28805e-05
3.42993e-05
3.47356e-05
2.76815e-05
2.72789e-05
2.74116e-05
2.78361e-05
2.84782e-05
2.9446e-05
3.07711e-05
3.25603e-05
3.38893e-05
3.45724e-05
3.48249e-05
3.48123e-05
3.29712e-05
3.27813e-05
3.3082e-05
3.35647e-05
3.41261e-05
3.46752e-05
3.50928e-05
3.52227e-05
3.51878e-05
3.50941e-05
3.4962e-05
3.48368e-05
2.37082e-05
2.37052e-05
2.36898e-05
2.36489e-05
2.36142e-05
2.35623e-05
2.35656e-05
2.3714e-05
2.49724e-05
2.57197e-05
2.5777e-05
2.57922e-05
2.38913e-05
2.38636e-05
2.37811e-05
2.36736e-05
2.36142e-05
2.37686e-05
2.43933e-05
2.51438e-05
2.54715e-05
2.55728e-05
2.53759e-05
2.50845e-05
2.39726e-05
2.39216e-05
2.37778e-05
2.36797e-05
2.38526e-05
2.45744e-05
2.5071e-05
2.52208e-05
2.52521e-05
2.48102e-05
2.38255e-05
2.28139e-05
2.40452e-05
2.39802e-05
2.38307e-05
2.39294e-05
2.44948e-05
2.49276e-05
2.50382e-05
2.5002e-05
2.44033e-05
2.27817e-05
2.13783e-05
2.04341e-05
2.41224e-05
2.41914e-05
2.41747e-05
2.44368e-05
2.47881e-05
2.48969e-05
2.4864e-05
2.43031e-05
2.27036e-05
2.09948e-05
1.98043e-05
1.88471e-05
2.41645e-05
2.435e-05
2.44324e-05
2.46717e-05
2.47795e-05
2.48015e-05
2.44833e-05
2.32806e-05
2.13698e-05
1.9826e-05
1.875e-05
1.78581e-05
2.42078e-05
2.4446e-05
2.45571e-05
2.4684e-05
2.4727e-05
2.45899e-05
2.38657e-05
2.23413e-05
2.06193e-05
1.9349e-05
1.84085e-05
1.76158e-05
2.42352e-05
2.44778e-05
2.45843e-05
2.46437e-05
2.46149e-05
2.43302e-05
2.35492e-05
2.22629e-05
2.06927e-05
1.94728e-05
1.85622e-05
1.77994e-05
2.42392e-05
2.44683e-05
2.45462e-05
2.45609e-05
2.44988e-05
2.42243e-05
2.36039e-05
2.24839e-05
2.10947e-05
1.99442e-05
1.90741e-05
1.83582e-05
2.42394e-05
2.44271e-05
2.44638e-05
2.44685e-05
2.44159e-05
2.42512e-05
2.3873e-05
2.31756e-05
2.21318e-05
2.10894e-05
2.02263e-05
1.95188e-05
2.4198e-05
2.43232e-05
2.43395e-05
2.43484e-05
2.43497e-05
2.4306e-05
2.41515e-05
2.38218e-05
2.34056e-05
2.27631e-05
2.22437e-05
2.16488e-05
2.45487e-05
2.4687e-05
2.48149e-05
2.48718e-05
2.48875e-05
2.48081e-05
2.47553e-05
2.45738e-05
2.43518e-05
2.40054e-05
2.36392e-05
2.33389e-05
2.5808e-05
2.58273e-05
2.58528e-05
2.58953e-05
2.59822e-05
2.6121e-05
2.6394e-05
2.63917e-05
2.65104e-05
2.65635e-05
2.65891e-05
2.65929e-05
2.47496e-05
2.44423e-05
2.42515e-05
2.42155e-05
2.43275e-05
2.46005e-05
2.51258e-05
2.54791e-05
2.59696e-05
2.6412e-05
2.6629e-05
2.6705e-05
2.20136e-05
2.1448e-05
2.11757e-05
2.10836e-05
2.1187e-05
2.15928e-05
2.23533e-05
2.31787e-05
2.42385e-05
2.55346e-05
2.64334e-05
2.67498e-05
1.95825e-05
1.911e-05
1.87912e-05
1.8732e-05
1.88087e-05
1.92203e-05
1.98303e-05
2.10287e-05
2.23013e-05
2.39937e-05
2.59778e-05
2.67878e-05
1.81067e-05
1.76987e-05
1.74622e-05
1.742e-05
1.75376e-05
1.79443e-05
1.85945e-05
1.95909e-05
2.1218e-05
2.28943e-05
2.53433e-05
2.68179e-05
1.72655e-05
1.69165e-05
1.67479e-05
1.67152e-05
1.69024e-05
1.72773e-05
1.78996e-05
1.88574e-05
2.03409e-05
2.22712e-05
2.47676e-05
2.68046e-05
1.70706e-05
1.67059e-05
1.64826e-05
1.64518e-05
1.66775e-05
1.70499e-05
1.76619e-05
1.85903e-05
2.00985e-05
2.1813e-05
2.43205e-05
2.66349e-05
1.72586e-05
1.69032e-05
1.66795e-05
1.67168e-05
1.68538e-05
1.7152e-05
1.77194e-05
1.85927e-05
2.00855e-05
2.17878e-05
2.42577e-05
2.67456e-05
1.78366e-05
1.74918e-05
1.73325e-05
1.74236e-05
1.76285e-05
1.80121e-05
1.86633e-05
1.96333e-05
2.10521e-05
2.24643e-05
2.46299e-05
2.68428e-05
1.90681e-05
1.86962e-05
1.86685e-05
1.88326e-05
1.91108e-05
1.95497e-05
2.01955e-05
2.10933e-05
2.22145e-05
2.34085e-05
2.53098e-05
2.70788e-05
2.13259e-05
2.10028e-05
2.10177e-05
2.12088e-05
2.14957e-05
2.19208e-05
2.2506e-05
2.33046e-05
2.42505e-05
2.5366e-05
2.66923e-05
2.74486e-05
2.3051e-05
2.30506e-05
2.32248e-05
2.35256e-05
2.39446e-05
2.45245e-05
2.52985e-05
2.6113e-05
2.69976e-05
2.74711e-05
2.7826e-05
2.77649e-05
2.06807e-05
2.06795e-05
2.06771e-05
2.06688e-05
2.06561e-05
2.06395e-05
2.04492e-05
2.04979e-05
2.11838e-05
2.16004e-05
2.16372e-05
2.16489e-05
2.07537e-05
2.07603e-05
2.07493e-05
2.07184e-05
2.06882e-05
2.07617e-05
2.08826e-05
2.12308e-05
2.13888e-05
2.14369e-05
2.12007e-05
2.08918e-05
2.0788e-05
2.08091e-05
2.07837e-05
2.07392e-05
2.08221e-05
2.11757e-05
2.11213e-05
2.11861e-05
2.11182e-05
2.05987e-05
1.95366e-05
1.84934e-05
2.08151e-05
2.08699e-05
2.08349e-05
2.08803e-05
2.11109e-05
2.1037e-05
2.10583e-05
2.08789e-05
2.01617e-05
1.84488e-05
1.7014e-05
1.59985e-05
2.08342e-05
2.09384e-05
2.09712e-05
2.10535e-05
2.09438e-05
2.09685e-05
2.07948e-05
2.00165e-05
1.83723e-05
1.65999e-05
1.53338e-05
1.42848e-05
2.08393e-05
2.09733e-05
2.10271e-05
2.08663e-05
2.08969e-05
2.08073e-05
2.02682e-05
1.89418e-05
1.69932e-05
1.53509e-05
1.41782e-05
1.31878e-05
2.06058e-05
2.07422e-05
2.08111e-05
2.08327e-05
2.08017e-05
2.04949e-05
1.95763e-05
1.79692e-05
1.62069e-05
1.48319e-05
1.37978e-05
1.29139e-05
2.06177e-05
2.07307e-05
2.07686e-05
2.07623e-05
2.06228e-05
2.01573e-05
1.92439e-05
1.78938e-05
1.62834e-05
1.49664e-05
1.39666e-05
1.3118e-05
2.06145e-05
2.06972e-05
2.07088e-05
2.06471e-05
2.04555e-05
2.00708e-05
1.93099e-05
1.81254e-05
1.67039e-05
1.54748e-05
1.45267e-05
1.37363e-05
2.0597e-05
2.0622e-05
2.05894e-05
2.0521e-05
2.04071e-05
2.01401e-05
1.95989e-05
1.88166e-05
1.7745e-05
1.66653e-05
1.5759e-05
1.49995e-05
2.05604e-05
2.05653e-05
2.05515e-05
2.05232e-05
2.04587e-05
2.03252e-05
2.00729e-05
1.96503e-05
1.91773e-05
1.84769e-05
1.79228e-05
1.72898e-05
2.08312e-05
2.0898e-05
2.09773e-05
2.10044e-05
2.09964e-05
2.09029e-05
2.07924e-05
2.05402e-05
2.02466e-05
1.98556e-05
1.9422e-05
1.91205e-05
2.16611e-05
2.16749e-05
2.16917e-05
2.17145e-05
2.17516e-05
2.18057e-05
2.18912e-05
2.1988e-05
2.20986e-05
2.2183e-05
2.22253e-05
2.22379e-05
2.05228e-05
2.01892e-05
1.99735e-05
1.99247e-05
2.00093e-05
2.02119e-05
2.05373e-05
2.09752e-05
2.14808e-05
2.19782e-05
2.22375e-05
2.23305e-05
1.76314e-05
1.70599e-05
1.67607e-05
1.66633e-05
1.67556e-05
1.71215e-05
1.76856e-05
1.8565e-05
1.96464e-05
2.09879e-05
2.19926e-05
2.23634e-05
1.51049e-05
1.45951e-05
1.42523e-05
1.41895e-05
1.42731e-05
1.47183e-05
1.5345e-05
1.63691e-05
1.7695e-05
1.93804e-05
2.14742e-05
2.23989e-05
1.34797e-05
1.30097e-05
1.27434e-05
1.26944e-05
1.28235e-05
1.32795e-05
1.39997e-05
1.50861e-05
1.66125e-05
1.83343e-05
2.07603e-05
2.2443e-05
1.25253e-05
1.21181e-05
1.1927e-05
1.18892e-05
1.21028e-05
1.25303e-05
1.32372e-05
1.42755e-05
1.59082e-05
1.7738e-05
2.02193e-05
2.24954e-05
1.22986e-05
1.18764e-05
1.16199e-05
1.15841e-05
1.18437e-05
1.22692e-05
1.29727e-05
1.39802e-05
1.56338e-05
1.748e-05
1.9946e-05
2.25474e-05
1.25099e-05
1.21018e-05
1.18444e-05
1.18862e-05
1.20405e-05
1.23763e-05
1.30326e-05
1.39793e-05
1.56168e-05
1.74419e-05
1.98622e-05
2.26004e-05
1.31554e-05
1.27662e-05
1.25844e-05
1.26862e-05
1.29148e-05
1.33422e-05
1.40931e-05
1.51066e-05
1.66539e-05
1.81368e-05
2.02154e-05
2.27177e-05
1.45144e-05
1.41075e-05
1.40759e-05
1.42551e-05
1.45584e-05
1.5035e-05
1.57658e-05
1.66407e-05
1.78842e-05
1.90621e-05
2.09069e-05
2.29762e-05
1.69414e-05
1.65992e-05
1.66178e-05
1.68227e-05
1.71266e-05
1.75689e-05
1.81712e-05
1.89213e-05
1.99972e-05
2.09601e-05
2.23302e-05
2.3404e-05
1.88389e-05
1.88145e-05
1.89751e-05
1.92681e-05
1.96641e-05
2.01977e-05
2.08836e-05
2.17402e-05
2.26686e-05
2.32895e-05
2.40179e-05
2.39592e-05
3.24625e-05
3.24583e-05
3.24347e-05
3.23739e-05
3.23232e-05
3.22456e-05
3.22485e-05
3.24586e-05
3.42534e-05
3.53118e-05
3.53888e-05
3.54073e-05
3.27265e-05
3.26838e-05
3.25607e-05
3.24037e-05
3.23152e-05
3.25391e-05
3.3437e-05
3.44921e-05
3.49516e-05
3.50924e-05
3.47901e-05
3.43548e-05
3.28429e-05
3.27629e-05
3.25497e-05
3.24064e-05
3.26558e-05
3.36897e-05
3.4382e-05
3.45882e-05
3.46296e-05
3.39743e-05
3.25354e-05
3.08448e-05
3.2946e-05
3.28378e-05
3.26201e-05
3.27632e-05
3.35728e-05
3.41765e-05
3.43286e-05
3.42502e-05
3.33297e-05
3.08236e-05
2.83665e-05
2.67665e-05
3.3058e-05
3.3145e-05
3.31121e-05
3.34857e-05
3.39773e-05
3.41274e-05
3.40537e-05
3.31709e-05
3.06533e-05
2.77479e-05
2.55973e-05
2.39203e-05
3.31188e-05
3.33763e-05
3.34901e-05
3.38169e-05
3.39578e-05
3.39777e-05
3.34593e-05
3.154e-05
2.8402e-05
2.56541e-05
2.36845e-05
2.20668e-05
3.31739e-05
3.35038e-05
3.36556e-05
3.38204e-05
3.38748e-05
3.36449e-05
3.24578e-05
2.99863e-05
2.7088e-05
2.47783e-05
2.30476e-05
2.15911e-05
3.32071e-05
3.35395e-05
3.36837e-05
3.37617e-05
3.37051e-05
3.32208e-05
3.19564e-05
2.98609e-05
2.72118e-05
2.5002e-05
2.33268e-05
2.1929e-05
3.32162e-05
3.35234e-05
3.36196e-05
3.36289e-05
3.35023e-05
3.30709e-05
3.20521e-05
3.02275e-05
2.79019e-05
2.58496e-05
2.425e-05
2.29724e-05
3.32153e-05
3.34654e-05
3.35142e-05
3.35226e-05
3.34255e-05
3.3149e-05
3.2515e-05
3.13412e-05
2.95737e-05
2.77814e-05
2.62207e-05
2.49601e-05
3.31672e-05
3.33315e-05
3.33147e-05
3.33088e-05
3.32701e-05
3.31807e-05
3.30103e-05
3.26278e-05
3.20911e-05
3.10431e-05
3.0171e-05
2.9072e-05
3.27178e-05
3.26614e-05
3.25255e-05
3.24646e-05
3.24474e-05
3.25465e-05
3.25995e-05
3.2512e-05
3.23724e-05
3.22029e-05
3.19394e-05
3.16082e-05
3.54264e-05
3.54473e-05
3.54723e-05
3.55064e-05
3.55587e-05
3.56346e-05
3.5751e-05
3.58796e-05
3.60173e-05
3.6109e-05
3.61536e-05
3.61615e-05
3.3852e-05
3.33917e-05
3.31035e-05
3.30286e-05
3.31594e-05
3.34721e-05
3.39587e-05
3.46051e-05
3.53139e-05
3.59127e-05
3.61969e-05
3.6301e-05
2.95726e-05
2.85629e-05
2.81086e-05
2.79458e-05
2.81016e-05
2.87111e-05
2.96346e-05
3.10627e-05
3.27895e-05
3.48459e-05
3.59413e-05
3.63505e-05
2.52415e-05
2.43788e-05
2.38026e-05
2.36945e-05
2.38338e-05
2.45739e-05
2.5622e-05
2.7304e-05
2.94826e-05
3.25844e-05
3.53733e-05
3.63958e-05
2.25189e-05
2.17713e-05
2.13179e-05
2.12383e-05
2.14688e-05
2.22625e-05
2.35083e-05
2.53171e-05
2.74789e-05
3.05925e-05
3.46218e-05
3.64518e-05
2.09023e-05
2.02464e-05
1.98999e-05
1.98321e-05
2.01881e-05
2.09051e-05
2.21043e-05
2.41363e-05
2.64197e-05
2.95582e-05
3.39287e-05
3.65134e-05
2.05216e-05
1.98259e-05
1.93808e-05
1.93167e-05
1.97509e-05
2.04604e-05
2.1608e-05
2.36812e-05
2.59868e-05
2.91029e-05
3.35645e-05
3.65805e-05
2.0881e-05
2.02015e-05
1.97618e-05
1.98307e-05
2.00879e-05
2.06491e-05
2.16577e-05
2.37177e-05
2.59617e-05
2.90344e-05
3.34439e-05
3.66451e-05
2.19722e-05
2.13263e-05
2.1011e-05
2.11763e-05
2.15548e-05
2.22789e-05
2.34862e-05
2.5752e-05
2.7516e-05
3.0226e-05
3.37724e-05
3.67178e-05
2.41605e-05
2.34761e-05
2.34407e-05
2.37506e-05
2.42933e-05
2.51882e-05
2.65127e-05
2.83163e-05
2.89592e-05
3.10824e-05
3.23606e-05
3.53733e-05
2.84924e-05
2.78759e-05
2.79164e-05
2.82424e-05
2.86614e-05
2.9131e-05
2.95122e-05
2.9692e-05
2.96071e-05
3.05219e-05
3.17282e-05
3.47783e-05
3.1314e-05
3.11115e-05
3.09572e-05
3.0821e-05
3.06273e-05
3.04448e-05
3.01778e-05
2.99271e-05
2.94055e-05
2.99906e-05
3.07565e-05
3.36815e-05
3.25316e-05
3.41801e-05
3.71592e-05
3.80474e-05
3.87774e-05
3.96623e-05
3.95987e-05
3.93756e-05
3.91262e-05
3.87491e-05
3.82973e-05
3.79399e-05
2.81169e-05
2.87641e-05
3.0945e-05
3.13771e-05
3.18866e-05
3.2454e-05
3.33793e-05
3.43487e-05
3.52077e-05
3.58762e-05
3.62705e-05
3.635e-05
2.4448e-05
2.62054e-05
2.65776e-05
2.6897e-05
2.73103e-05
2.76942e-05
2.81947e-05
2.8686e-05
2.92649e-05
2.97399e-05
3.02237e-05
3.0532e-05
2.27346e-05
2.29455e-05
2.31797e-05
2.3454e-05
2.37749e-05
2.41621e-05
2.46169e-05
2.51327e-05
2.56738e-05
2.60476e-05
2.63345e-05
2.614e-05
3.76024e-05
3.74451e-05
3.7233e-05
3.69996e-05
3.66958e-05
3.63622e-05
3.59475e-05
3.55283e-05
3.50453e-05
3.46274e-05
3.41663e-05
3.43198e-05
3.61878e-05
3.5855e-05
3.54192e-05
3.48678e-05
3.4195e-05
3.34446e-05
3.25831e-05
3.17758e-05
3.09471e-05
3.03561e-05
2.98936e-05
3.03314e-05
3.03425e-05
2.99232e-05
2.9328e-05
2.86385e-05
2.78637e-05
2.70643e-05
2.62026e-05
2.54697e-05
2.47605e-05
2.43747e-05
2.41337e-05
2.45177e-05
2.54221e-05
2.46634e-05
2.39053e-05
2.31996e-05
2.25808e-05
2.20084e-05
2.1657e-05
2.13758e-05
2.13005e-05
2.12857e-05
2.12654e-05
2.13611e-05
3.39992e-05
3.30643e-05
3.26439e-05
3.21592e-05
3.15683e-05
3.08192e-05
2.99564e-05
2.9128e-05
2.83136e-05
2.76886e-05
2.71296e-05
2.67793e-05
3.11296e-05
3.1392e-05
3.15565e-05
3.15784e-05
3.15038e-05
3.1384e-05
3.12625e-05
3.11135e-05
3.08888e-05
3.06123e-05
3.03839e-05
3.01404e-05
2.49575e-05
2.54999e-05
2.6057e-05
2.66284e-05
2.72147e-05
2.78316e-05
2.83893e-05
2.89134e-05
2.92817e-05
2.94849e-05
2.95642e-05
2.95179e-05
2.15913e-05
2.1769e-05
2.20609e-05
2.23119e-05
2.27125e-05
2.30923e-05
2.36508e-05
2.41604e-05
2.48345e-05
2.53673e-05
2.5764e-05
2.55946e-05
2.65622e-05
2.66814e-05
2.69857e-05
2.73474e-05
2.77355e-05
2.80806e-05
2.83188e-05
2.83972e-05
2.83692e-05
2.83019e-05
2.82631e-05
2.82031e-05
3.00215e-05
2.99124e-05
2.97826e-05
2.96199e-05
2.94241e-05
2.91848e-05
2.89206e-05
2.86225e-05
2.83401e-05
2.80903e-05
2.78924e-05
2.79078e-05
2.93214e-05
2.90242e-05
2.864e-05
2.81653e-05
2.76281e-05
2.69942e-05
2.63612e-05
2.56625e-05
2.51041e-05
2.47172e-05
2.4505e-05
2.47808e-05
2.49399e-05
2.42512e-05
2.35713e-05
2.29271e-05
2.23225e-05
2.18564e-05
2.14525e-05
2.12942e-05
2.12332e-05
2.12284e-05
2.11861e-05
2.13391e-05
2.79262e-05
2.7238e-05
2.6918e-05
2.65464e-05
2.6069e-05
2.5457e-05
2.47711e-05
2.40949e-05
2.3446e-05
2.29066e-05
2.24775e-05
2.21317e-05
2.78658e-05
2.77845e-05
2.77151e-05
2.76416e-05
2.75504e-05
2.73929e-05
2.72313e-05
2.69763e-05
2.67406e-05
2.64248e-05
2.61875e-05
2.59197e-05
2.52099e-05
2.55462e-05
2.58748e-05
2.61237e-05
2.63484e-05
2.65012e-05
2.66283e-05
2.66692e-05
2.66423e-05
2.65849e-05
2.65227e-05
2.64587e-05
2.15346e-05
2.17738e-05
2.20005e-05
2.23039e-05
2.26427e-05
2.30846e-05
2.3546e-05
2.40949e-05
2.44757e-05
2.47624e-05
2.48311e-05
2.46407e-05
2.1973e-05
2.21151e-05
2.24477e-05
2.28687e-05
2.33605e-05
2.38955e-05
2.43324e-05
2.46191e-05
2.47672e-05
2.48364e-05
2.48531e-05
2.46739e-05
2.58177e-05
2.57659e-05
2.57613e-05
2.57079e-05
2.56408e-05
2.55615e-05
2.5456e-05
2.53396e-05
2.52073e-05
2.50961e-05
2.50128e-05
2.49475e-05
2.63557e-05
2.61997e-05
2.59807e-05
2.57215e-05
2.53825e-05
2.50651e-05
2.46348e-05
2.42692e-05
2.39024e-05
2.36564e-05
2.35058e-05
2.36554e-05
2.40818e-05
2.35134e-05
2.29577e-05
2.24274e-05
2.19585e-05
2.15089e-05
2.12109e-05
2.09715e-05
2.09047e-05
2.08928e-05
2.08759e-05
2.0956e-05
2.48824e-05
2.5586e-05
2.5885e-05
2.62457e-05
2.67049e-05
2.73381e-05
2.80808e-05
2.88854e-05
2.96027e-05
3.02077e-05
3.05598e-05
3.06667e-05
2.48979e-05
2.49357e-05
2.49603e-05
2.50559e-05
2.5106e-05
2.52678e-05
2.54104e-05
2.57001e-05
2.59577e-05
2.63265e-05
2.6572e-05
2.69376e-05
2.38596e-05
2.39693e-05
2.40504e-05
2.41502e-05
2.42412e-05
2.43491e-05
2.44814e-05
2.46112e-05
2.47631e-05
2.48804e-05
2.50073e-05
2.50504e-05
2.11515e-05
2.13256e-05
2.15374e-05
2.1728e-05
2.19738e-05
2.22117e-05
2.25101e-05
2.27937e-05
2.30088e-05
2.31877e-05
2.32414e-05
2.31111e-05
3.0607e-05
3.04373e-05
3.02031e-05
2.99004e-05
2.95253e-05
2.90822e-05
2.8582e-05
2.80597e-05
2.72821e-05
2.76965e-05
2.81596e-05
2.96437e-05
2.69478e-05
2.68172e-05
2.65677e-05
2.62661e-05
2.59131e-05
2.55185e-05
2.51067e-05
2.46938e-05
2.42188e-05
2.44383e-05
2.53909e-05
2.6109e-05
2.49525e-05
2.4761e-05
2.45102e-05
2.42154e-05
2.38883e-05
2.35266e-05
2.31603e-05
2.27471e-05
2.2485e-05
2.22459e-05
2.25642e-05
2.38573e-05
2.27489e-05
2.23552e-05
2.19733e-05
2.16207e-05
2.13167e-05
2.10729e-05
2.09467e-05
2.09211e-05
2.09274e-05
2.09456e-05
2.09208e-05
2.13489e-05
2.1381e-05
2.11107e-05
2.09118e-05
2.0456e-05
2.00463e-05
1.93964e-05
1.87684e-05
1.7935e-05
1.71809e-05
1.6241e-05
1.56844e-05
1.53695e-05
1.71215e-05
1.66599e-05
1.6055e-05
1.54817e-05
1.48048e-05
1.4116e-05
1.34072e-05
1.27386e-05
1.21874e-05
1.17885e-05
1.16931e-05
1.18501e-05
1.21371e-05
1.16642e-05
1.10816e-05
1.05148e-05
9.86118e-06
9.25135e-06
8.61452e-06
8.07681e-06
7.60539e-06
7.31647e-06
7.23269e-06
7.45608e-06
7.87316e-06
7.47056e-06
6.94252e-06
6.46473e-06
5.90083e-06
5.4144e-06
4.89854e-06
4.5025e-06
4.14847e-06
3.96748e-06
3.9206e-06
4.19722e-06
1.5595e-05
1.62084e-05
1.69648e-05
1.78074e-05
1.86123e-05
1.92818e-05
1.97956e-05
2.01634e-05
2.04196e-05
2.05834e-05
2.06436e-05
2.06598e-05
1.24504e-05
1.32121e-05
1.39156e-05
1.4668e-05
1.54025e-05
1.6089e-05
1.66828e-05
1.71739e-05
1.75602e-05
1.77635e-05
1.7779e-05
1.74284e-05
8.05706e-06
8.92479e-06
9.5808e-06
1.02796e-05
1.09508e-05
1.15755e-05
1.21246e-05
1.26112e-05
1.29274e-05
1.3052e-05
1.29028e-05
1.25546e-05
4.74347e-06
5.62917e-06
6.11092e-06
6.64231e-06
7.15954e-06
7.65252e-06
8.1099e-06
8.47356e-06
8.69819e-06
8.7645e-06
8.57349e-06
8.2932e-06
2.05882e-05
2.04767e-05
2.02951e-05
1.99901e-05
1.95652e-05
1.90621e-05
1.84397e-05
1.77383e-05
1.6998e-05
1.62906e-05
1.57264e-05
1.5489e-05
1.69992e-05
1.65129e-05
1.59444e-05
1.53642e-05
1.47612e-05
1.4081e-05
1.34206e-05
1.27657e-05
1.22368e-05
1.18484e-05
1.17434e-05
1.1913e-05
1.21083e-05
1.16356e-05
1.10722e-05
1.05047e-05
9.87194e-06
9.25123e-06
8.63185e-06
8.07664e-06
7.61784e-06
7.31085e-06
7.23868e-06
7.44941e-06
7.87299e-06
7.47009e-06
6.94631e-06
6.46652e-06
5.90675e-06
5.41493e-06
4.9045e-06
4.50057e-06
4.15413e-06
3.96453e-06
3.92627e-06
4.19493e-06
1.57034e-05
1.6369e-05
1.71346e-05
1.79855e-05
1.87558e-05
1.93998e-05
1.98878e-05
2.02376e-05
2.04809e-05
2.06383e-05
2.06984e-05
2.07237e-05
1.25125e-05
1.32899e-05
1.40073e-05
1.4775e-05
1.55241e-05
1.62216e-05
1.68226e-05
1.73177e-05
1.77074e-05
1.79135e-05
1.79321e-05
1.75809e-05
8.06645e-06
8.93273e-06
9.59433e-06
1.03002e-05
1.09791e-05
1.16117e-05
1.21685e-05
1.26616e-05
1.29818e-05
1.31075e-05
1.29543e-05
1.26001e-05
4.74779e-06
5.63244e-06
6.11476e-06
6.64711e-06
7.16562e-06
7.66021e-06
8.11952e-06
8.48469e-06
8.7101e-06
8.77617e-06
8.58239e-06
8.30034e-06
2.06757e-05
2.05868e-05
2.04196e-05
2.01688e-05
1.97588e-05
1.92702e-05
1.86542e-05
1.79813e-05
1.7133e-05
1.62701e-05
1.55867e-05
1.53726e-05
1.71515e-05
1.66458e-05
1.60722e-05
1.54464e-05
1.4816e-05
1.41338e-05
1.34425e-05
1.2781e-05
1.22184e-05
1.1841e-05
1.17263e-05
1.19117e-05
1.21443e-05
1.16626e-05
1.10898e-05
1.05116e-05
9.87526e-06
9.24794e-06
8.62452e-06
8.06821e-06
7.6068e-06
7.30369e-06
7.22758e-06
7.44145e-06
7.87646e-06
7.47205e-06
6.94541e-06
6.46507e-06
5.90427e-06
5.41238e-06
4.90227e-06
4.49901e-06
4.1531e-06
3.96434e-06
3.92584e-06
4.19484e-06
1.56119e-05
1.62555e-05
1.70017e-05
1.78115e-05
1.85459e-05
1.91568e-05
1.96256e-05
1.99596e-05
2.01903e-05
2.03391e-05
2.03964e-05
2.04195e-05
1.24928e-05
1.3271e-05
1.39801e-05
1.47368e-05
1.54723e-05
1.61544e-05
1.67404e-05
1.72217e-05
1.76012e-05
1.78031e-05
1.78244e-05
1.74985e-05
8.05454e-06
8.91954e-06
9.57941e-06
1.02829e-05
1.0959e-05
1.15882e-05
1.21412e-05
1.26305e-05
1.29482e-05
1.30733e-05
1.29236e-05
1.25734e-05
4.74677e-06
5.63035e-06
6.11184e-06
6.64319e-06
7.16064e-06
7.6541e-06
8.11219e-06
8.4764e-06
8.70129e-06
8.76746e-06
8.5752e-06
8.29407e-06
2.03881e-05
2.03077e-05
2.01835e-05
1.99686e-05
1.96647e-05
1.91961e-05
1.86896e-05
1.80734e-05
1.73594e-05
1.66848e-05
1.61852e-05
1.60872e-05
1.70805e-05
1.65981e-05
1.60256e-05
1.5399e-05
1.47223e-05
1.4058e-05
1.33564e-05
1.26918e-05
1.21099e-05
1.17087e-05
1.15586e-05
1.17265e-05
1.21217e-05
1.16438e-05
1.10728e-05
1.04989e-05
9.86544e-06
9.25177e-06
8.6296e-06
8.0885e-06
7.62942e-06
7.34181e-06
7.26691e-06
7.48863e-06
7.87215e-06
7.46869e-06
6.9438e-06
6.46455e-06
5.90493e-06
5.41383e-06
4.90232e-06
4.49949e-06
4.1497e-06
3.96118e-06
3.91868e-06
4.19015e-06
1.6492e-05
1.72193e-05
1.79878e-05
1.87619e-05
1.94523e-05
2.00251e-05
2.04626e-05
2.07779e-05
2.0998e-05
2.11527e-05
2.12262e-05
2.13105e-05
1.23176e-05
1.31435e-05
1.39167e-05
1.47496e-05
1.55595e-05
1.63095e-05
1.69524e-05
1.74804e-05
1.78916e-05
1.81061e-05
1.81185e-05
1.76712e-05
8.08757e-06
8.94746e-06
9.60028e-06
1.03003e-05
1.09777e-05
1.16127e-05
1.21746e-05
1.26733e-05
1.29972e-05
1.31227e-05
1.29598e-05
1.25977e-05
4.74298e-06
5.62929e-06
6.11245e-06
6.64518e-06
7.16372e-06
7.65827e-06
8.11767e-06
8.483e-06
8.70849e-06
8.77431e-06
8.57932e-06
8.29756e-06
3.78953e-06
3.47695e-06
2.99733e-06
2.64309e-06
2.15865e-06
1.82132e-06
1.39501e-06
1.13325e-06
8.19972e-07
6.78768e-07
5.42734e-07
5.65506e-07
1.27524e-06
1.08773e-06
8.46922e-07
6.81806e-07
4.67755e-07
3.59539e-07
2.02695e-07
1.66005e-07
8.22037e-08
9.28551e-08
7.17258e-08
7.74453e-08
2.93847e-07
2.22116e-07
1.55229e-07
1.07865e-07
6.08434e-08
4.45355e-08
2.0043e-08
2.17651e-08
1.41731e-08
1.6058e-08
1.45768e-08
1.53798e-08
4.41499e-08
3.02146e-08
1.81659e-08
1.18268e-08
6.28446e-09
6.21315e-09
4.10133e-09
4.52556e-09
3.95629e-09
4.22176e-09
4.21684e-09
4.29046e-09
4.91585e-09
3.34076e-09
2.22688e-09
1.92611e-09
1.53482e-09
1.60361e-09
1.4239e-09
1.49683e-09
1.4757e-09
1.50666e-09
1.52566e-09
1.54349e-09
8.44765e-10
7.15897e-10
6.79624e-10
6.5005e-10
6.36549e-10
6.39128e-10
6.28566e-10
6.37205e-10
6.41292e-10
6.4943e-10
6.57972e-10
6.63931e-10
3.18136e-10
3.05677e-10
3.08745e-10
3.05994e-10
3.06655e-10
3.06918e-10
3.07573e-10
3.09549e-10
3.12143e-10
3.15581e-10
3.1915e-10
3.21306e-10
1.59242e-10
1.59638e-10
1.60267e-10
1.60527e-10
1.60899e-10
1.61324e-10
1.61966e-10
1.62908e-10
1.64149e-10
1.65623e-10
1.67095e-10
1.67893e-10
8.85737e-11
8.90341e-11
8.94001e-11
8.96393e-11
8.98838e-11
9.01396e-11
9.04794e-11
9.09089e-11
9.14458e-11
9.20407e-11
9.26239e-11
9.28985e-11
5.27273e-11
5.29316e-11
5.31054e-11
5.32202e-11
5.33418e-11
5.34589e-11
5.36088e-11
5.3785e-11
5.40006e-11
5.4227e-11
5.44479e-11
5.45401e-11
3.47114e-11
3.47839e-11
3.48506e-11
3.48947e-11
3.49427e-11
3.4986e-11
3.50395e-11
3.50968e-11
3.51651e-11
3.52324e-11
3.52969e-11
3.53179e-11
2.72363e-11
2.72577e-11
2.72767e-11
2.72936e-11
2.73094e-11
2.73237e-11
2.73368e-11
2.73481e-11
2.73574e-11
2.7364e-11
2.7368e-11
2.73694e-11
2.2287e-06
2.68746e-06
2.95534e-06
3.29385e-06
3.64011e-06
3.99328e-06
4.29779e-06
4.52626e-06
4.64872e-06
4.64974e-06
4.41135e-06
4.1972e-06
1.1434e-06
1.07071e-06
1.15929e-06
1.29134e-06
1.43554e-06
1.58664e-06
1.71696e-06
1.81085e-06
1.84862e-06
1.7892e-06
1.6557e-06
1.49492e-06
5.30313e-07
3.45529e-07
3.75463e-07
4.09899e-07
4.48254e-07
4.88079e-07
5.18997e-07
5.36244e-07
5.336e-07
4.91601e-07
4.40831e-07
3.66663e-07
2.27345e-07
8.83283e-08
9.58944e-08
1.01188e-07
1.07296e-07
1.13215e-07
1.16351e-07
1.15512e-07
1.07193e-07
9.70953e-08
7.95554e-08
6.23799e-08
9.47276e-08
1.7831e-08
1.95329e-08
1.97859e-08
2.01463e-08
2.02624e-08
1.93284e-08
1.77898e-08
1.55824e-08
1.3132e-08
1.026e-08
7.36488e-09
4.04466e-08
3.12755e-09
3.44309e-09
3.30346e-09
3.28291e-09
3.01897e-09
2.7712e-09
2.37156e-09
2.0296e-09
1.60904e-09
1.29894e-09
9.96428e-10
1.79359e-08
5.89981e-10
6.23165e-10
5.90657e-10
5.84962e-10
5.24007e-10
4.98555e-10
4.3512e-10
4.11048e-10
3.5952e-10
3.48849e-10
3.17903e-10
8.34435e-09
1.62304e-10
1.59867e-10
1.63024e-10
1.65204e-10
1.61282e-10
1.61789e-10
1.58059e-10
1.59287e-10
1.58189e-10
1.59526e-10
1.59886e-10
3.89789e-09
7.47137e-11
6.91007e-11
7.47754e-11
7.81997e-11
8.01132e-11
8.22296e-11
8.39213e-11
8.574e-11
8.71674e-11
8.84978e-11
8.94072e-11
1.84333e-09
4.49682e-11
4.31623e-11
4.57897e-11
4.78419e-11
4.90516e-11
5.02805e-11
5.12249e-11
5.21219e-11
5.27976e-11
5.34004e-11
5.38025e-11
7.55237e-10
3.23544e-11
3.18125e-11
3.29428e-11
3.37729e-11
3.42269e-11
3.4678e-11
3.50062e-11
3.53182e-11
3.55448e-11
3.57516e-11
3.58866e-11
5.00129e-10
3.00261e-11
2.75922e-11
2.78535e-11
2.8e-11
2.81092e-11
2.81995e-11
2.82716e-11
2.83309e-11
2.8378e-11
2.84164e-11
2.8447e-11
3.79146e-06
3.47802e-06
2.99909e-06
2.6437e-06
2.16014e-06
1.82099e-06
1.39635e-06
1.13196e-06
8.21477e-07
6.76825e-07
5.44218e-07
5.65261e-07
1.27586e-06
1.08804e-06
8.47285e-07
6.81853e-07
4.6801e-07
3.5934e-07
2.02984e-07
1.65618e-07
8.21341e-08
9.27925e-08
7.1809e-08
7.74171e-08
2.93963e-07
2.22154e-07
1.55273e-07
1.07847e-07
6.0876e-08
4.44811e-08
2.0024e-08
2.17458e-08
1.41721e-08
1.60562e-08
1.45791e-08
1.53768e-08
4.41633e-08
3.02158e-08
1.81697e-08
1.18222e-08
6.28946e-09
6.20545e-09
4.10233e-09
4.52625e-09
3.9583e-09
4.22321e-09
4.21825e-09
4.29167e-09
4.9185e-09
3.34227e-09
2.22896e-09
1.92735e-09
1.53722e-09
1.60531e-09
1.42629e-09
1.49895e-09
1.47787e-09
1.50878e-09
1.52776e-09
1.54559e-09
8.46969e-10
7.18001e-10
6.81786e-10
6.52155e-10
6.38768e-10
6.41287e-10
6.30759e-10
6.39374e-10
6.43461e-10
6.51599e-10
6.60142e-10
6.66102e-10
3.20126e-10
3.07672e-10
3.10742e-10
3.07992e-10
3.08656e-10
3.08917e-10
3.09574e-10
3.1155e-10
3.14148e-10
3.17589e-10
3.21162e-10
3.23319e-10
1.61019e-10
1.61418e-10
1.62048e-10
1.62309e-10
1.62682e-10
1.63107e-10
1.6375e-10
1.64695e-10
1.65939e-10
1.67416e-10
1.68892e-10
1.69692e-10
9.0163e-11
9.06251e-11
9.09923e-11
9.12324e-11
9.14778e-11
9.17345e-11
9.20754e-11
9.25064e-11
9.30448e-11
9.36415e-11
9.42264e-11
9.45018e-11
5.4141e-11
5.43464e-11
5.45211e-11
5.46364e-11
5.47586e-11
5.48763e-11
5.50269e-11
5.52041e-11
5.54209e-11
5.56485e-11
5.58708e-11
5.59635e-11
3.60067e-11
3.60796e-11
3.61468e-11
3.61913e-11
3.62395e-11
3.62832e-11
3.63369e-11
3.63947e-11
3.64635e-11
3.65313e-11
3.65963e-11
3.66174e-11
2.84728e-11
2.84943e-11
2.85135e-11
2.85305e-11
2.85464e-11
2.85608e-11
2.8574e-11
2.85854e-11
2.85947e-11
2.86015e-11
2.86055e-11
2.86068e-11
2.22882e-06
2.68747e-06
2.95541e-06
3.29411e-06
3.6406e-06
3.9941e-06
4.2989e-06
4.52759e-06
4.6501e-06
4.65093e-06
4.41172e-06
4.1974e-06
1.14343e-06
1.07072e-06
1.15931e-06
1.29137e-06
1.43556e-06
1.58666e-06
1.71697e-06
1.81083e-06
1.84855e-06
1.78904e-06
1.6555e-06
1.49467e-06
5.30307e-07
3.45512e-07
3.75446e-07
4.09876e-07
4.48224e-07
4.8804e-07
5.18949e-07
5.36188e-07
5.33528e-07
4.91532e-07
4.40757e-07
3.666e-07
2.27339e-07
8.83227e-08
9.58881e-08
1.01181e-07
1.07287e-07
1.13205e-07
1.16339e-07
1.15498e-07
1.07181e-07
9.7083e-08
7.95453e-08
6.23728e-08
9.47252e-08
1.78307e-08
1.95325e-08
1.97853e-08
2.01456e-08
2.02616e-08
1.93275e-08
1.77891e-08
1.5582e-08
1.31318e-08
1.02602e-08
7.36551e-09
4.04462e-08
3.12826e-09
3.44377e-09
3.30416e-09
3.28362e-09
3.01972e-09
2.77197e-09
2.37238e-09
2.03046e-09
1.60995e-09
1.29988e-09
9.97397e-10
1.79362e-08
5.90727e-10
6.23919e-10
5.91428e-10
5.85744e-10
5.24805e-10
4.9936e-10
4.35938e-10
4.11869e-10
3.6035e-10
3.49678e-10
3.18738e-10
8.34488e-09
1.62969e-10
1.60552e-10
1.63709e-10
1.65898e-10
1.61989e-10
1.62497e-10
1.58777e-10
1.60006e-10
1.58914e-10
1.60251e-10
1.60612e-10