/*--------------------------------*- C++ -*----------------------------------*\
| =========                 |                                                 |
| \\      /  F ield         | OpenFOAM: The Open Source CFD Toolbox           |
|  \\    /   O peration     | Version:  2212                                  |
|   \\  /    A nd           | Website:  www.openfoam.com                      |
|    \\/     M anipulation  |                                                 |
\*---------------------------------------------------------------------------*/
FoamFile
{
    version     2.0;
    format      ascii;
    arch        "LSB;label=32;scalar=64";
    class       volVectorField;
    location    "0.1";
    object      U;
}
// * * * * * * * * * * * * * * * * * * * * * * * * * * * * * * * * * * * * * //

dimensions      [0 1 -1 0 0 0 0];

internalField   nonuniform List<vector> 
3072
(
(1.34475 21.9121 0)
(1.79823 19.2409 0)
(3.14867 18.0065 5.98131e-19)
(4.55084 16.6307 -8.78785e-15)
(5.77558 16.0633 1.40816e-14)
(6.97383 15.5138 -7.04742e-15)
(7.75849 15.3597 -3.27058e-15)
(9.64507 17.1874 -1.55123e-14)
(17.1972 15.2939 2.5715e-14)
(28.6463 14.8525 -9.6855e-15)
(32.5286 19.5712 6.57727e-15)
(35.0911 21.3725 3.05424e-15)
(-4.70193 25.5617 -3.83643e-16)
(-2.67492 22.4768 -2.93218e-15)
(0.446555 22.4098 1.48453e-15)
(3.45776 21.975 0)
(5.90994 22.1996 5.99374e-15)
(8.99918 23.6238 -9.14855e-15)
(15.2598 23.9961 0)
(24.2183 25.6567 0)
(29.9577 26.4358 0)
(32.0866 26.3402 7.5901e-18)
(32.6847 27.2778 -1.35819e-14)
(33.3217 27.2336 4.40767e-18)
(-4.25737 28.7859 3.50346e-16)
(-1.7291 25.5657 0)
(2.80616 26.019 0)
(7.0804 25.6957 -7.81015e-15)
(12.0763 26.2412 5.25337e-15)
(18.9795 27.4909 -7.93042e-15)
(26.3087 28.3979 1.04858e-14)
(31.1094 28.5955 0)
(33.3532 27.9339 0)
(34.2023 26.9197 -3.78869e-15)
(34.3442 26.3514 -3.45729e-15)
(34.7714 25.6589 9.95789e-15)
(-5.7619 32.2648 -1.29328e-15)
(-1.60046 30.0021 -2.40679e-15)
(4.26628 31.1638 2.35215e-15)
(10.365 31.0384 -2.37296e-15)
(17.3682 31.5011 9.54249e-15)
(24.2647 31.6217 -9.45965e-15)
(29.3426 31.0037 -4.53469e-15)
(31.7479 29.9286 -1.23985e-14)
(32.8981 28.5391 -3.30039e-18)
(33.3793 27.3933 6.5084e-15)
(33.5666 26.4924 6.14133e-15)
(33.882 25.6055 -5.83468e-15)
(-3.16175 34.7173 0)
(0.885338 33.9661 1.09567e-15)
(7.27402 35.3535 -2.15667e-15)
(14.0474 35.2957 4.3442e-15)
(21.02 35.0878 4.70318e-18)
(26.512 34.0016 4.17895e-15)
(29.5919 32.4015 3.83047e-15)
(31.009 30.6491 3.52426e-15)
(31.6776 29.028 -6.54186e-15)
(32.0118 27.5966 6.07113e-15)
(32.2513 26.3941 -8.51687e-15)
(32.5608 25.2946 1.07443e-14)
(-2.00352 37.5349 -1.10521e-15)
(2.93436 37.5684 1.00852e-15)
(9.56733 38.8842 3.96096e-15)
(16.1628 38.4905 0)
(22.2627 37.368 -7.7705e-15)
(26.3188 35.3508 7.34712e-15)
(28.5225 33.1426 0)
(29.5955 31.0937 -6.26696e-15)
(30.2392 29.2302 5.82641e-15)
(30.65 27.611 0)
(30.9825 26.2239 2.97645e-18)
(31.3348 24.9844 4.91225e-15)
(1.11523 39.6141 0)
(5.43176 40.9593 -1.85788e-15)
(11.4416 41.6725 1.81158e-15)
(17.09 40.8757 0)
(21.9306 38.8896 -3.44463e-15)
(25.0548 36.322 5.37263e-18)
(26.9112 33.7628 6.01809e-15)
(27.9958 31.455 5.63862e-15)
(28.7271 29.4237 -5.30686e-15)
(29.265 27.6524 5.02863e-15)
(29.7186 26.114 -4.78571e-15)
(30.1549 24.7488 -1.3756e-14)
(3.17086 42.012 0)
(7.31931 43.8796 1.68829e-15)
(12.3309 43.8811 -3.22347e-15)
(16.8299 42.6557 3.13039e-15)
(20.685 40.1359 0)
(23.4158 37.2469 -5.65953e-15)
(25.2247 34.4239 5.37727e-15)
(26.4229 31.8999 1.413e-18)
(27.2958 29.6901 -9.75967e-15)
(27.9744 27.7627 -4.67319e-15)
(28.5465 26.0795 -3.04796e-18)
(29.0661 24.5887 8.67699e-15)
(5.94153 43.6963 0)
(8.876 46.396 -1.52472e-15)
(12.5202 45.4841 -2.83389e-15)
(15.976 43.9649 -2.69738e-15)
(19.1503 41.2345 5.17945e-15)
(21.6831 38.1806 0)
(23.5484 35.177 0)
(24.9112 32.4559 0)
(25.9525 30.0577 0)
(26.7764 27.9612 4.37072e-15)
(27.4573 26.1259 -4.2494e-15)
(28.0466 24.5022 4.13695e-15)
(7.23749 46.6259 0)
(9.30646 48.3527 1.3383e-15)
(11.8148 46.4283 -3.91176e-18)
(14.6343 44.5041 2.39678e-15)
(17.3909 41.6897 2.32962e-15)
(19.8218 38.6282 -4.5189e-15)
(21.7909 35.6018 0)
(23.3462 32.8084 -2.11117e-18)
(24.5773 30.3065 -1.26774e-14)
(25.5574 28.0951 0)
(26.3489 26.143 8.12126e-15)
(27.0024 24.4088 -3.979e-15)
(9.96299 46.9281 0)
(8.87273 48.0613 1.25548e-15)
(10.3285 45.3383 4.60392e-15)
(12.703 43.1193 -4.43277e-15)
(15.2214 40.5052 -6.46965e-15)
(17.6563 37.75 1.05133e-14)
(19.7894 35.0095 -1.86882e-18)
(21.565 32.4132 -4.06492e-15)
(23.01 30.0209 4.0005e-15)
(24.1662 27.8547 -7.90777e-15)
(25.0825 25.9037 -1.16924e-14)
(25.8072 24.1443 1.15299e-14)
(4.62173 43.8993 -6.58349e-16)
(6.48262 43.1384 -4.73979e-15)
(7.74926 40.279 1.08825e-15)
(10.0955 38.5208 0)
(12.6998 36.7866 0)
(15.2639 34.8837 3.74064e-18)
(17.5781 32.873 1.16829e-14)
(19.5619 30.8284 7.68904e-15)
(21.2095 28.8349 0)
(22.5373 26.9431 7.54426e-15)
(23.5791 25.1709 0)
(24.3733 23.5275 6.01358e-18)
(38.4126 21.7414 -2.15182e-14)
(40.4437 21.5159 9.32101e-15)
(42.1749 20.5375 -9.42359e-15)
(42.8414 19.316 -3.19011e-15)
(42.9274 17.8515 -3.14976e-15)
(42.2563 16.1624 0)
(40.8591 14.3985 0)
(38.625 12.5885 6.16943e-15)
(35.6362 10.7869 -6.2253e-15)
(31.7872 8.79099 0)
(26.6269 5.24328 0)
(24.6832 -0.586168 -4.20525e-16)
(34.3731 27.621 8.3817e-15)
(35.2851 27.2671 0)
(36.3983 26.5553 -1.0323e-17)
(37.3487 25.4183 4.07019e-15)
(38.1965 23.8546 2.02235e-15)
(38.5737 22.2659 8.22825e-15)
(38.4457 20.6884 -1.26512e-14)
(37.7599 19.2918 2.19818e-15)
(36.5683 18.2077 0)
(34.2607 17.2617 0)
(31.0385 15.871 0)
(31.5643 11.4758 -4.67621e-23)
(35.3055 25.0306 3.22139e-15)
(35.8692 24.3072 -9.54411e-15)
(36.4891 23.4954 3.16699e-15)
(36.9807 22.6173 6.34909e-15)
(37.3015 21.7301 -6.3628e-15)
(37.3481 20.8691 0)
(37.1113 20.1484 0)
(36.5711 19.6509 -1.95958e-18)
(35.8055 19.4796 1.84218e-15)
(34.3407 19.4686 0)
(32.0141 19.3023 0)
(33.6582 18.8952 0)
(34.2005 24.7791 3.69888e-18)
(34.5452 23.9698 8.23714e-15)
(34.9243 23.1474 5.4131e-15)
(35.2775 22.3286 -5.35283e-15)
(35.553 21.5517 0)
(35.6961 20.8874 2.71097e-15)
(35.6728 20.4055 0)
(35.4994 20.1822 4.31603e-15)
(35.1742 20.3109 -1.41462e-15)
(34.4455 20.9485 0)
(32.4726 21.8436 -9.27367e-16)
(35.7807 22.8602 -1.19265e-15)
(32.8899 24.2874 -5.1274e-15)
(33.257 23.3519 0)
(33.6473 22.468 0)
(34.0209 21.653 0)
(34.3487 20.9427 0)
(34.6115 20.3864 -4.61375e-15)
(34.7846 20.0803 -1.53734e-18)
(34.8786 20.0471 -2.41464e-15)
(34.9403 20.422 0)
(34.7917 21.3453 -1.38159e-15)
(33.5646 22.8805 8.5281e-16)
(37.7861 25.4385 1.09932e-15)
(31.7024 23.8653 -2.76336e-18)
(32.0973 22.8472 -9.10873e-15)
(32.5107 21.9165 4.43367e-15)
(32.9237 21.085 2.73136e-20)
(33.3236 20.3822 2.553e-18)
(33.7045 19.852 6.43489e-15)
(34.0768 19.555 -1.71203e-18)
(34.4583 19.5564 -6.71845e-15)
(34.8654 19.9689 -2.39089e-15)
(35.3371 20.9465 1.34384e-15)
(34.7687 22.8985 -1.60338e-15)
(39.4963 26.3207 -5.10066e-16)
(30.5871 23.5228 1.32597e-14)
(31.0283 22.4137 4.2847e-15)
(31.4784 21.4108 0)
(31.9345 20.5211 0)
(32.4 19.7679 2.38125e-18)
(32.8871 19.188 -3.98694e-15)
(33.4222 18.8316 5.98437e-15)
(34.0439 18.7586 -1.40675e-18)
(34.7879 19.0741 2.13047e-15)
(35.7465 19.9681 0)
(35.9615 21.9051 -2.2699e-18)
(40.944 26.2001 4.74874e-16)
(29.5547 23.2524 -4.20594e-15)
(30.0296 22.044 -4.09006e-15)
(30.4991 20.9514 3.99679e-15)
(30.9736 19.9752 -3.91082e-15)
(31.471 19.1319 7.44925e-20)
(32.0207 18.4491 7.56047e-15)
(32.6692 17.964 -3.73868e-15)
(33.481 17.7276 1.87649e-15)
(34.5202 17.8307 0)
(35.9497 18.4737 1.06073e-15)
(36.9637 20.1856 6.42506e-16)
(41.9323 24.7084 -1.77458e-15)
(28.5701 23.0483 4.0373e-15)
(29.0521 21.7299 -3.94822e-15)
(29.5082 20.5334 -3.86352e-15)
(29.9595 19.4504 -7.57558e-15)
(30.4386 18.4883 7.42247e-15)
(30.9912 17.6636 -7.27348e-15)
(31.6858 16.9977 0)
(32.6166 16.5231 -1.7644e-15)
(33.8862 16.3018 0)
(35.7294 16.5199 0)
(37.5887 17.7661 0)
(42.4772 21.985 1.64574e-15)
(27.5426 22.8517 3.90279e-15)
(28.004 21.4285 -7.66592e-15)
(28.4109 20.1287 7.52906e-15)
(28.7944 18.9336 7.3838e-15)
(29.1997 17.8422 3.61386e-15)
(29.6891 16.8574 0)
(30.3549 15.9792 0)
(31.3158 15.2146 3.37737e-15)
(32.7181 14.5791 0)
(34.8761 14.2131 -8.82659e-16)
(37.3855 14.6063 5.26553e-16)
(42.3001 17.697 -2.3068e-15)
(26.3537 22.544 -7.56304e-15)
(26.7711 21.0522 7.42222e-15)
(27.093 19.6772 -7.30328e-15)
(27.3656 18.3874 -1.7969e-14)
(27.6484 17.1779 -2.60258e-18)
(28.0177 16.0392 1.29292e-18)
(28.5887 14.948 -3.35448e-15)
(29.4897 13.8782 -3.26261e-15)
(30.9072 12.7802 0)
(33.2155 11.74 2.45928e-15)
(36.0324 10.8384 4.80378e-16)
(41.1356 11.4589 -4.47696e-19)
(24.9025 21.9913 -5.87571e-18)
(25.246 20.4949 0)
(25.4446 19.0943 0)
(25.5648 17.7505 3.47059e-15)
(25.6878 16.4588 1.02365e-14)
(25.9057 15.1976 -3.33784e-15)
(26.348 13.9266 -2.15118e-18)
(27.1242 12.5885 -1.58809e-15)
(28.442 11.0565 -1.54741e-15)
(30.5675 9.31854 -1.54516e-15)
(33.84 6.83603 0)
(38.2724 -0.678491 6.30529e-16)
(21.9121 -1.34474 -4.4246e-16)
(19.2409 -1.79822 0)
(18.0065 -3.14867 -5.98131e-19)
(16.6307 -4.55084 0)
(16.0633 -5.77558 7.04076e-15)
(15.5138 -6.97383 -7.04742e-15)
(15.3597 -7.75848 0)
(17.1874 -9.6451 -1.24101e-14)
(15.2939 -17.1973 2.25007e-14)
(14.8526 -28.6463 -1.61556e-14)
(19.5713 -32.5286 -3.29302e-15)
(21.3725 -35.0911 -3.05423e-15)
(25.5617 4.70194 -1.9175e-15)
(22.4768 2.67493 -1.46577e-15)
(22.4098 -0.446557 4.45119e-15)
(21.975 -3.45777 0)
(22.1996 -5.90994 -5.99374e-15)
(23.6239 -8.9992 6.09816e-15)
(23.9961 -15.2598 0)
(25.6568 -24.2183 5.60173e-15)
(26.4358 -29.9577 -1.51966e-14)
(26.3403 -32.0866 9.51333e-15)
(27.2779 -32.6847 9.05079e-15)
(27.2336 -33.3217 -1.29782e-14)
(28.7859 4.25738 3.50346e-16)
(25.5657 1.7291 0)
(26.019 -2.80617 -2.61447e-15)
(25.6957 -7.08042 0)
(26.2412 -12.0763 0)
(27.4909 -18.9796 -5.28314e-15)
(28.3979 -26.3088 2.09767e-14)
(28.5955 -31.1094 -1.49676e-14)
(27.9339 -33.3532 4.01811e-15)
(26.9198 -34.2023 0)
(26.3514 -34.3442 6.91908e-15)
(25.6589 -34.7714 -3.32266e-15)
(32.2648 5.76189 -1.29434e-15)
(30.0021 1.60044 1.20398e-15)
(31.1638 -4.26631 2.35086e-15)
(31.0384 -10.365 4.74263e-15)
(31.5011 -17.3683 -4.77029e-15)
(31.6217 -24.2648 -4.72496e-15)
(31.0037 -29.3426 0)
(29.9286 -31.7479 0)
(28.5391 -32.8981 3.47938e-15)
(27.3933 -33.3793 0)
(26.4924 -33.5666 4.74446e-18)
(25.6055 -33.8819 2.91544e-15)
(34.7173 3.16172 1.79267e-15)
(33.9661 -0.885371 -1.09513e-15)
(35.3535 -7.27406 -2.15667e-15)
(35.2958 -14.0474 0)
(35.0878 -21.0201 0)
(34.0017 -26.512 4.18609e-15)
(32.4015 -29.5919 0)
(30.6491 -31.009 -7.05616e-15)
(29.028 -31.6776 -3.27041e-15)
(27.5966 -32.0118 6.07112e-15)
(26.3941 -32.2513 -8.51685e-15)
(25.2946 -32.5608 5.37001e-15)
(37.5349 2.00348 -7.31393e-19)
(37.5684 -2.93441 -1.0076e-15)
(38.8842 -9.56737 1.97892e-15)
(38.4905 -16.1629 2.33781e-18)
(37.368 -22.2627 3.88532e-15)
(35.3508 -26.3188 -7.34497e-15)
(33.1426 -28.5224 6.68884e-15)
(31.0937 -29.5954 6.32649e-18)
(29.2302 -30.2391 0)
(27.611 -30.65 0)
(26.2239 -30.9825 1.03073e-14)
(24.9844 -31.3348 7.28918e-19)
(39.6141 -1.11527 -1.02782e-15)
(40.9593 -5.4318 -9.29599e-16)
(41.6725 -11.4416 0)
(40.8756 -17.09 -3.57117e-15)
(38.8895 -21.9306 3.44649e-15)
(36.322 -25.0548 9.68827e-15)
(33.7628 -26.9112 6.02411e-15)
(31.455 -27.9958 8.39937e-18)
(29.4237 -28.7271 -1.06195e-14)
(27.6524 -29.2649 5.02479e-15)
(26.114 -29.7186 4.79284e-15)
(24.7488 -30.1549 3.05174e-18)
(42.012 -3.17089 -6.41711e-19)
(43.8796 -7.31934 1.68829e-15)
(43.8811 -12.331 0)
(42.6557 -16.8299 -3.13039e-15)
(40.1358 -20.685 -2.98511e-15)
(37.2469 -23.4158 5.77535e-18)
(34.4239 -25.2247 -1.07476e-14)
(31.8999 -26.4229 4.31034e-18)
(29.6901 -27.2957 -2.76817e-18)
(27.7627 -27.9744 4.67583e-15)
(26.0795 -28.5464 -4.48807e-15)
(24.5887 -29.0661 2.45283e-18)
(43.6963 -5.94154 -4.46166e-16)
(46.3959 -8.87602 7.60715e-16)
(45.484 -12.5202 -4.24953e-15)
(43.9648 -15.976 2.69738e-15)
(41.2345 -19.1503 0)
(38.1806 -21.6831 0)
(35.177 -23.5484 4.81845e-15)
(32.4559 -24.9112 9.31879e-15)
(30.0577 -25.9525 -4.50911e-15)
(27.9612 -26.7763 -4.37072e-15)
(26.1259 -27.4573 -4.2468e-15)
(24.5022 -28.0466 0)
(46.6259 -7.23749 -8.27552e-16)
(48.3527 -9.30647 2.00777e-15)
(46.4283 -11.8148 4.97152e-15)
(44.5041 -14.6343 0)
(41.6897 -17.3909 4.64996e-15)
(38.6282 -19.8218 0)
(35.6018 -21.7909 3.21257e-18)
(32.8084 -23.3462 -4.30948e-15)
(30.3065 -24.5773 4.22901e-15)
(28.0951 -25.5573 0)
(26.143 -26.3488 0)
(24.4088 -27.0024 -7.96167e-15)
(46.9281 -9.96299 2.19535e-23)
(48.0613 -8.87273 1.25548e-15)
(45.3382 -10.3285 3.51669e-18)
(43.1193 -12.703 -4.43896e-15)
(40.5052 -15.2214 -2.15426e-15)
(37.75 -17.6563 -2.10259e-15)
(35.0095 -19.7894 -4.12432e-15)
(32.4132 -21.565 -1.21813e-14)
(30.0209 -23.01 -4.00049e-15)
(27.8547 -24.1662 -7.90776e-15)
(25.9037 -25.0825 7.80085e-15)
(24.1443 -25.8072 7.68075e-15)
(43.8993 -4.62173 -1.31623e-15)
(43.1384 -6.48262 -5.91782e-16)
(40.279 -7.74926 2.94561e-18)
(38.5208 -10.0955 4.19736e-15)
(36.7866 -12.6998 0)
(34.8836 -15.2639 -3.96484e-15)
(32.8729 -17.5781 3.89201e-15)
(30.8284 -19.5619 3.83982e-15)
(28.8348 -21.2095 -1.14287e-14)
(26.9431 -22.5373 7.54426e-15)
(25.1709 -23.5791 -7.47265e-15)
(23.5275 -24.3733 0)
(21.7414 -38.4126 9.21675e-15)
(21.5159 -40.4438 -2.48546e-14)
(20.5375 -42.175 6.26248e-15)
(19.316 -42.8415 1.58962e-14)
(17.8515 -42.9274 -1.57257e-14)
(16.1624 -42.2563 3.1137e-15)
(14.3985 -40.8591 -1.73996e-18)
(12.5885 -38.625 -3.08302e-15)
(10.7869 -35.6362 -6.2253e-15)
(8.79099 -31.7872 0)
(5.24328 -26.6269 0)
(-0.586167 -24.6832 -6.30914e-16)
(27.621 -34.3731 -3.64772e-19)
(27.2671 -35.2852 8.19357e-15)
(26.5553 -36.3983 -1.0323e-17)
(25.4183 -37.3487 0)
(23.8546 -38.1965 6.07649e-15)
(22.2659 -38.5737 0)
(20.6884 -38.4457 4.21573e-15)
(19.2918 -37.7599 6.59733e-15)
(18.2077 -36.5683 -4.70989e-15)
(17.2617 -34.2607 0)
(15.871 -31.0385 0)
(11.4758 -31.5643 -1.19773e-19)
(25.0306 -35.3055 3.21719e-15)
(24.3073 -35.8692 -3.17785e-15)
(23.4954 -36.4891 3.16699e-15)
(22.6173 -36.9807 0)
(21.7301 -37.3015 -3.17948e-15)
(20.8691 -37.3481 6.51733e-15)
(20.1484 -37.1113 -8.46356e-15)
(19.6509 -36.5711 -8.8455e-15)
(19.4796 -35.8055 5.52473e-15)
(19.4686 -34.3407 0)
(19.3023 -32.0141 1.0371e-15)
(18.8952 -33.6582 -3.82333e-20)
(24.7791 -34.2005 2.80448e-15)
(23.9698 -34.5452 -5.49288e-15)
(23.1474 -34.9243 5.4131e-15)
(22.3286 -35.2775 -5.35282e-15)
(21.5517 -35.553 0)
(20.8874 -35.6961 2.71097e-15)
(20.4055 -35.6728 2.75246e-15)
(20.1822 -35.4994 1.43716e-15)
(20.3109 -35.1742 -2.82945e-15)
(20.9485 -34.4455 0)
(21.8436 -32.4726 -9.25498e-16)
(22.8602 -35.7807 1.4912e-15)
(24.2874 -32.8899 5.13148e-15)
(23.3519 -33.257 -2.47675e-15)
(22.468 -33.6473 0)
(21.653 -34.0209 0)
(20.9427 -34.3487 2.35698e-15)
(20.3864 -34.6115 -2.3054e-15)
(20.0803 -34.7846 -2.78847e-18)
(20.0471 -34.8786 0)
(20.422 -34.9403 -1.2753e-15)
(21.3453 -34.7917 1.38159e-15)
(22.8805 -33.5646 -1.70651e-15)
(25.4385 -37.7861 0)
(23.8653 -31.7024 -9.41784e-15)
(22.8472 -32.0973 4.55286e-15)
(21.9165 -32.5107 8.86998e-15)
(21.085 -32.9237 2.73143e-20)
(20.3822 -33.3236 -1.07489e-14)
(19.852 -33.7045 -4.29353e-15)
(19.555 -34.0768 -2.68143e-18)
(19.5564 -34.4583 0)
(19.9689 -34.8654 0)
(20.9465 -35.3371 -1.34384e-15)
(22.8985 -34.7687 -8.02757e-16)
(26.3207 -39.4963 5.10066e-16)
(23.5228 -30.5871 4.42099e-15)
(22.4137 -31.0283 -8.57194e-15)
(21.4108 -31.4784 -4.17198e-15)
(20.5211 -31.9345 -2.33061e-18)
(19.7679 -32.4 4.02183e-15)
(19.188 -32.8871 3.98419e-15)
(18.8316 -33.4222 1.99501e-15)
(18.7586 -34.0439 2.02917e-15)
(19.0741 -34.7879 -2.13207e-15)
(19.9681 -35.7465 0)
(21.9051 -35.9615 1.42998e-15)
(26.2001 -40.944 -9.50649e-16)
(23.2525 -29.5547 0)
(22.044 -30.0296 4.09006e-15)
(20.9514 -30.4991 0)
(19.9752 -30.9736 -2.22025e-18)
(19.1319 -31.471 7.44912e-20)
(18.4491 -32.0207 7.56046e-15)
(17.964 -32.6692 -1.86827e-15)
(17.7276 -33.481 -3.75192e-15)
(17.8307 -34.5202 -1.93726e-15)
(18.4737 -35.9497 1.06073e-15)
(20.1856 -36.9637 -1.93191e-15)
(24.7084 -41.9323 8.85987e-16)
(23.0483 -28.5701 4.03729e-15)
(21.7299 -29.0522 -3.94821e-15)
(20.5334 -29.5082 -3.86745e-15)
(19.4504 -29.9595 3.7887e-15)
(18.4883 -30.4386 3.71122e-15)
(17.6636 -30.9912 -1.0913e-14)
(16.9977 -31.6858 0)
(16.5231 -32.6166 1.7644e-15)
(16.3018 -33.8862 1.78709e-15)
(16.5199 -35.7294 0)
(17.7661 -37.5887 1.74554e-15)
(21.985 -42.4772 -4.12133e-16)
(22.8518 -27.5426 0)
(21.4285 -28.004 -7.6659e-15)
(20.1287 -28.4109 -3.76803e-15)
(18.9336 -28.7944 -7.38055e-15)
(17.8422 -29.1997 3.61385e-15)
(16.8574 -29.6892 3.53107e-15)
(15.9792 -30.3549 0)
(15.2146 -31.3158 0)
(14.5791 -32.7181 0)
(14.2131 -34.8761 0)
(14.6063 -37.3855 -5.2654e-16)
(17.697 -42.3001 -7.68852e-16)
(22.544 -26.3537 3.77989e-15)
(21.0522 -26.7711 3.70937e-15)
(19.6772 -27.093 1.46127e-14)
(18.3874 -27.3656 3.59669e-15)
(17.1779 -27.6484 1.40893e-14)
(16.0392 -28.0177 -3.43944e-15)
(14.948 -28.5887 -3.35448e-15)
(13.8782 -29.4897 0)
(12.7802 -30.9073 -3.20375e-15)
(11.74 -33.2155 -1.63947e-15)
(10.8384 -36.0324 -9.61147e-16)
(11.4589 -41.1356 0)
(21.9913 -24.9025 0)
(20.4949 -25.246 0)
(19.0943 -25.4446 -1.40937e-14)
(17.7505 -25.5648 -1.0417e-14)
(16.4588 -25.6878 -3.41035e-15)
(15.1976 -25.9057 0)
(13.9266 -26.348 3.25948e-15)
(12.5885 -27.1242 0)
(11.0565 -28.4421 -1.94883e-18)
(9.31855 -30.5675 1.54516e-15)
(6.83604 -33.84 4.27282e-16)
(-0.678482 -38.2724 -1.88106e-19)
(-1.34474 -21.9121 -2.2123e-16)
(-1.79822 -19.2409 -3.45476e-15)
(-3.14867 -18.0065 3.49477e-15)
(-4.55083 -16.6307 -3.51635e-15)
(-5.77558 -16.0633 0)
(-6.97384 -15.5138 3.52504e-15)
(-7.75849 -15.3597 0)
(-9.6451 -17.1874 3.10418e-15)
(-17.1973 -15.2939 -9.63946e-15)
(-28.6463 -14.8526 9.69262e-15)
(-32.5286 -19.5713 1.97117e-14)
(-35.0911 -21.3725 -6.0816e-15)
(4.70195 -25.5617 0)
(2.67493 -22.4768 -2.93218e-15)
(-0.446557 -22.4098 2.96786e-15)
(-3.45777 -21.975 2.95837e-15)
(-5.90995 -22.1996 -5.99374e-15)
(-8.99921 -23.6239 -1.67797e-19)
(-15.2599 -23.9961 -6.03667e-15)
(-24.2183 -25.6568 -1.39966e-14)
(-29.9577 -26.4358 1.51949e-14)
(-32.0866 -26.3403 -4.75241e-15)
(-32.6847 -27.2779 8.19844e-18)
(-33.3217 -27.2336 5.46227e-18)
(4.25738 -28.7859 0)
(1.7291 -25.5657 0)
(-2.80617 -26.019 0)
(-7.08043 -25.6957 -2.60417e-15)
(-12.0763 -26.2413 0)
(-18.9796 -27.4909 -2.64728e-15)
(-26.3088 -28.398 5.2412e-15)
(-31.1094 -28.5955 9.98502e-15)
(-33.3532 -27.9339 -4.01989e-15)
(-34.2023 -26.9198 -7.57417e-15)
(-34.3441 -26.3514 -1.03764e-14)
(-34.7714 -25.6589 9.95788e-15)
(5.76189 -32.2648 0)
(1.60043 -30.0021 -1.20397e-15)
(-4.26632 -31.1639 2.35352e-15)
(-10.365 -31.0384 2.36967e-15)
(-17.3683 -31.5012 0)
(-24.2648 -31.6217 -9.4673e-15)
(-29.3426 -31.0038 9.059e-15)
(-31.7479 -29.9286 0)
(-32.898 -28.5391 6.94887e-15)
(-33.3793 -27.3933 -9.76063e-15)
(-33.5666 -26.4924 6.13657e-15)
(-33.8819 -25.6055 5.05705e-18)
(3.16171 -34.7173 -7.12877e-23)
(-0.885384 -33.9661 2.19278e-15)
(-7.27407 -35.3535 3.02483e-18)
(-14.0474 -35.2958 0)
(-21.0201 -35.0879 -4.32498e-15)
(-26.512 -34.0017 8.3601e-15)
(-29.5918 -32.4015 0)
(-31.009 -30.6491 -3.53006e-15)
(-31.6776 -29.028 -3.27425e-15)
(-32.0118 -27.5966 6.07112e-15)
(-32.2513 -26.3941 0)
(-32.5608 -25.2946 -5.3665e-15)
(2.00347 -37.5349 5.52154e-16)
(-2.93442 -37.5684 2.07766e-18)
(-9.56738 -38.8842 -1.97892e-15)
(-16.1629 -38.4905 -7.93744e-15)
(-22.2627 -37.368 -2.25083e-18)
(-26.3188 -35.3508 7.3471e-15)
(-28.5224 -33.1426 0)
(-29.5954 -31.0937 9.40078e-15)
(-30.2391 -29.2302 -5.82843e-15)
(-30.65 -27.611 5.45551e-15)
(-30.9825 -26.2239 2.97644e-18)
(-31.3348 -24.9844 -7.28916e-19)
(-1.11529 -39.6141 -1.54177e-15)
(-5.43181 -40.9593 -9.26732e-16)
(-11.4416 -41.6725 0)
(-17.09 -40.8756 7.14647e-15)
(-21.9306 -38.8895 -1.03337e-14)
(-25.0548 -36.322 -1.63736e-18)
(-26.9112 -33.7628 -1.20422e-14)
(-27.9958 -31.455 5.28357e-18)
(-28.7271 -29.4237 -5.30684e-15)
(-29.2649 -27.6524 -5.02861e-15)
(-29.7186 -26.114 4.79283e-15)
(-30.1549 -24.7488 -4.58607e-15)
(-3.1709 -42.0119 1.43357e-15)
(-7.31935 -43.8796 -8.44782e-16)
(-12.331 -43.8811 0)
(-16.8299 -42.6557 3.13039e-15)
(-20.685 -40.1358 2.98353e-15)
(-23.4158 -37.2469 2.82817e-15)
(-25.2247 -34.4239 -4.95808e-18)
(-26.4229 -31.8999 -1.41299e-18)
(-27.2957 -29.6901 -4.88393e-15)
(-27.9744 -27.7627 -6.5486e-18)
(-28.5464 -26.0795 2.54476e-18)
(-29.0661 -24.5887 0)
(-5.94156 -43.6963 4.45416e-16)
(-8.87602 -46.3959 0)
(-12.5202 -45.484 0)
(-15.976 -43.9648 -2.69737e-15)
(-19.1503 -41.2345 2.58575e-15)
(-21.6831 -38.1806 -4.9886e-15)
(-23.5484 -35.177 0)
(-24.9112 -32.4559 4.6582e-15)
(-25.9525 -30.0577 -2.45226e-18)
(-26.7763 -27.9612 4.37072e-15)
(-27.4573 -26.126 -4.2515e-15)
(-28.0466 -24.5022 8.27836e-15)
(-7.2375 -46.6259 -3.52605e-19)
(-9.30647 -48.3527 -6.69477e-16)
(-11.8148 -46.4283 -2.48772e-15)
(-14.6343 -44.5041 -4.79095e-15)
(-17.3909 -41.6897 0)
(-19.8218 -38.6282 4.5129e-15)
(-21.7909 -35.6018 -8.81764e-15)
(-23.3462 -32.8084 4.31024e-15)
(-24.5773 -30.3065 4.229e-15)
(-25.5573 -28.0951 0)
(-26.3488 -26.143 -4.06475e-15)
(-27.0024 -24.4088 -7.95379e-15)
(-9.96299 -46.9281 -7.37871e-16)
(-8.87273 -48.0613 6.27004e-16)
(-10.3285 -45.3382 2.3002e-15)
(-12.703 -43.1193 2.21441e-15)
(-15.2214 -40.5052 -5.1206e-19)
(-17.6563 -37.75 -6.3111e-15)
(-19.7894 -35.0095 8.24186e-15)
(-21.565 -32.4132 1.62382e-14)
(-23.01 -30.0209 -1.20095e-14)
(-24.1662 -27.8547 -7.90776e-15)
(-25.0825 -25.9037 7.79366e-15)
(-25.8072 -24.1443 0)
(-4.62173 -43.8993 1.31499e-15)
(-6.48262 -43.1383 5.94341e-16)
(-7.74926 -40.279 1.08531e-15)
(-10.0955 -38.5208 4.20222e-15)
(-12.6998 -36.7866 0)
(-15.2639 -34.8836 3.9611e-15)
(-17.5781 -32.8729 -7.79092e-15)
(-19.5619 -30.8284 -3.84265e-15)
(-21.2095 -28.8348 -3.8086e-15)
(-22.5373 -26.9431 7.54426e-15)
(-23.579 -25.1709 3.74081e-15)
(-24.3733 -23.5275 1.10972e-14)
(-38.4126 -21.7414 -3.07259e-15)
(-40.4437 -21.5159 3.11841e-15)
(-42.1749 -20.5375 -9.41323e-15)
(-42.8414 -19.316 2.86098e-14)
(-42.9274 -17.8515 -1.25759e-14)
(-42.2563 -16.1624 0)
(-40.859 -14.3985 -6.18091e-15)
(-38.6249 -12.5885 4.62365e-15)
(-35.6362 -10.7869 0)
(-31.7872 -8.79098 1.07438e-18)
(-26.6269 -5.24328 0)
(-24.6832 0.586171 4.20525e-16)
(-34.3731 -27.621 -1.67743e-14)
(-35.2851 -27.2671 8.20392e-15)
(-36.3983 -26.5553 8.09468e-15)
(-37.3487 -25.4183 -4.075e-15)
(-38.1965 -23.8546 0)
(-38.5737 -22.2659 0)
(-38.4456 -20.6884 4.2176e-15)
(-37.7598 -19.2918 -4.39906e-15)
(-36.5683 -18.2076 0)
(-34.2607 -17.2617 1.22197e-15)
(-31.0385 -15.871 -1.41302e-19)
(-31.5643 -11.4757 -1.56975e-15)
(-35.3054 -25.0306 3.2218e-15)
(-35.8692 -24.3072 -6.36188e-15)
(-36.4891 -23.4954 0)
(-36.9807 -22.6173 -6.34914e-15)
(-37.3015 -21.7301 -6.36353e-15)
(-37.3481 -20.8691 1.30339e-14)
(-37.1113 -20.1484 -1.01572e-14)
(-36.5711 -19.6509 0)
(-35.8055 -19.4796 0)
(-34.3407 -19.4686 0)
(-32.0141 -19.3022 -1.03657e-15)
(-33.6582 -18.8952 0)
(-34.2005 -24.7791 -2.80448e-15)
(-34.5452 -23.9698 -4.16214e-18)
(-34.9243 -23.1474 0)
(-35.2775 -22.3286 -3.96973e-18)
(-35.553 -21.5517 0)
(-35.6961 -20.8874 0)
(-35.6728 -20.4055 2.75424e-15)
(-35.4994 -20.1822 -2.87654e-15)
(-35.1742 -20.3109 2.83096e-15)
(-34.4455 -20.9485 0)
(-32.4726 -21.8436 -9.27367e-16)
(-35.7807 -22.8602 1.19265e-15)
(-32.8899 -24.2874 1.02661e-14)
(-33.257 -23.3519 -2.47675e-15)
(-33.6473 -22.468 4.8215e-15)
(-34.0209 -21.653 2.36898e-15)
(-34.3487 -20.9427 -7.06795e-15)
(-34.6115 -20.3864 0)
(-34.7846 -20.0803 -2.25789e-15)
(-34.8786 -20.0471 0)
(-34.9403 -20.422 0)
(-34.7917 -21.3453 1.38159e-15)
(-33.5646 -22.8805 3.76525e-19)
(-37.7861 -25.4385 1.4019e-18)
(-31.7024 -23.8653 -4.70622e-15)
(-32.0973 -22.8472 -2.99863e-18)
(-32.5107 -21.9165 0)
(-32.9237 -21.085 0)
(-33.3236 -20.3822 -6.45249e-15)
(-33.7045 -19.852 4.29105e-15)
(-34.0768 -19.555 4.33965e-15)
(-34.4583 -19.5564 2.23916e-15)
(-34.8654 -19.9689 -4.78052e-15)
(-35.3371 -20.9465 -1.34384e-15)
(-34.7687 -22.8985 0)
(-39.4962 -26.3206 5.10066e-16)
(-30.5871 -23.5228 -8.84444e-15)
(-31.0283 -22.4137 4.27952e-15)
(-31.4784 -21.4108 4.17459e-15)
(-31.9345 -20.5211 2.31586e-18)
(-32.4 -19.7679 -4.72905e-18)
(-32.8871 -19.188 -3.98913e-15)
(-33.4222 -18.8316 -5.98324e-15)
(-34.0439 -18.7586 -2.0306e-15)
(-34.7879 -19.0741 2.13047e-15)
(-35.7465 -19.968 0)
(-35.9615 -21.9051 2.14722e-15)
(-40.944 -26.2001 -1.42617e-15)
(-29.5547 -23.2525 8.40969e-15)
(-30.0296 -22.044 -4.09695e-15)
(-30.4991 -20.9514 -3.99679e-15)
(-30.9736 -19.9752 -7.81941e-15)
(-31.471 -19.1319 7.67553e-15)
(-32.0207 -18.4491 -2.13043e-18)
(-32.6692 -17.964 1.12227e-14)
(-33.481 -17.7276 1.8742e-15)
(-34.5202 -17.8307 1.93726e-15)
(-35.9497 -18.4737 0)
(-36.9637 -20.1856 -1.28702e-15)
(-41.9323 -24.7084 4.43791e-16)
(-28.5701 -23.0483 0)
(-29.0521 -21.7299 3.9461e-15)
(-29.5082 -20.5334 3.86351e-15)
(-29.9595 -19.4504 -3.78687e-15)
(-30.4386 -18.4883 -1.75919e-18)
(-30.9912 -17.6636 -3.63949e-15)
(-31.6858 -16.9977 -3.56897e-15)
(-32.6166 -16.5231 0)
(-33.8862 -16.3018 -1.78709e-15)
(-35.7294 -16.5199 -9.6249e-16)
(-37.5887 -17.7661 2.90853e-15)
(-42.4772 -21.985 -4.10013e-16)
(-27.5426 -22.8518 0)
(-28.004 -21.4285 0)
(-28.4109 -20.1287 0)
(-28.7944 -18.9336 -1.10767e-14)
(-29.1997 -17.8422 7.22747e-15)
(-29.6891 -16.8574 7.06388e-15)
(-30.3549 -15.9792 0)
(-31.3158 -15.2146 -3.37736e-15)
(-32.7181 -14.5791 0)
(-34.8761 -14.2131 -1.76583e-15)
(-37.3855 -14.6063 -5.2654e-16)
(-42.3001 -17.697 -7.66826e-16)
(-26.3536 -22.544 0)
(-26.7711 -21.0522 0)
(-27.093 -19.6772 7.30944e-15)
(-27.3656 -18.3874 1.07785e-14)
(-27.6484 -17.1779 4.16552e-18)
(-28.0177 -16.0392 3.44073e-15)
(-28.5887 -14.948 -1.67673e-15)
(-29.4897 -13.8782 4.89457e-15)
(-30.9073 -12.7802 3.20375e-15)
(-33.2155 -11.74 1.63782e-15)
(-36.0324 -10.8384 -9.61148e-16)
(-41.1356 -11.4589 -1.43367e-15)
(-24.9025 -21.9913 0)
(-25.246 -20.4949 0)
(-25.4446 -19.0943 -7.0442e-15)
(-25.5648 -17.7505 3.47565e-15)
(-25.6878 -16.4588 -3.41035e-15)
(-25.9057 -15.1976 -3.33784e-15)
(-26.348 -13.9266 3.26163e-15)
(-27.1242 -12.5885 0)
(-28.4421 -11.0565 -3.094e-15)
(-30.5675 -9.31854 -1.54607e-15)
(-33.84 -6.83603 1.28494e-15)
(-38.2724 0.678493 1.13778e-19)
(-21.9121 1.34475 -2.0172e-19)
(-19.2409 1.79822 0)
(-18.0065 3.14867 0)
(-16.6307 4.55084 -7.03027e-15)
(-16.0633 5.77558 1.05625e-14)
(-15.5138 6.97383 0)
(-15.3597 7.75849 0)
(-17.1874 9.64508 3.10418e-15)
(-15.2939 17.1972 3.21947e-15)
(-14.8525 28.6463 9.70155e-15)
(-19.5712 32.5286 1.64187e-14)
(-21.3725 35.0911 -3.03712e-15)
(-25.5617 -4.70194 -2.96004e-19)
(-22.4768 -2.67493 0)
(-22.4098 0.446555 0)
(-21.975 3.45776 -2.96011e-15)
(-22.1996 5.90994 5.99574e-15)
(-23.6238 8.99919 -1.8296e-14)
(-23.9961 15.2598 1.20659e-14)
(-25.6568 24.2183 2.80446e-15)
(-26.4358 29.9577 -5.05875e-15)
(-26.3403 32.0866 7.5901e-18)
(-27.2778 32.6847 0)
(-27.2336 33.3217 -8.64249e-15)
(-28.7859 -4.25737 3.50346e-16)
(-25.5657 -1.7291 0)
(-26.019 2.80616 0)
(-25.6957 7.08041 -2.0126e-18)
(-26.2412 12.0763 2.40208e-18)
(-27.4909 18.9796 -5.28853e-15)
(-28.3979 26.3087 0)
(-28.5955 31.1094 -1.49729e-14)
(-27.9339 33.3532 1.20634e-14)
(-26.9198 34.2023 -3.78869e-15)
(-26.3514 34.3441 -6.91892e-15)
(-25.6589 34.7714 9.95789e-15)
(-32.2648 -5.7619 1.29434e-15)
(-30.0021 -1.60045 1.20398e-15)
(-31.1638 4.2663 0)
(-31.0384 10.365 2.36967e-15)
(-31.5011 17.3682 -2.38402e-15)
(-31.6217 24.2647 4.72496e-15)
(-31.0037 29.3426 0)
(-29.9286 31.7479 -4.1344e-15)
(-28.5391 32.898 -1.04283e-14)
(-27.3933 33.3793 6.5084e-15)
(-26.4924 33.5666 6.13658e-15)
(-25.6055 33.8819 -1.16744e-14)
(-34.7173 -3.16173 -5.96938e-16)
(-33.9661 0.885359 -1.09567e-15)
(-35.3535 7.27404 2.15667e-15)
(-35.2958 14.0474 0)
(-35.0878 21.02 -8.65238e-15)
(-34.0017 26.512 8.36726e-15)
(-32.4015 29.5918 3.83697e-15)
(-30.6491 31.009 3.52425e-15)
(-29.028 31.6776 0)
(-27.5966 32.0118 0)
(-26.3941 32.2513 0)
(-25.2946 32.5608 -7.74996e-18)
(-37.5349 -2.0035 7.31393e-19)
(-37.5684 2.93439 0)
(-38.8842 9.56735 -1.97892e-15)
(-38.4905 16.1628 3.96989e-15)
(-37.368 22.2627 3.88509e-15)
(-35.3508 26.3188 -7.34518e-15)
(-33.1426 28.5224 3.3445e-15)
(-31.0937 29.5954 -1.25375e-14)
(-29.2302 30.2391 -2.03814e-18)
(-27.611 30.65 -4.60233e-18)
(-26.2239 30.9825 2.97645e-18)
(-24.9844 31.3348 1.47175e-14)
(-39.6141 1.11526 5.14635e-16)
(-40.9593 5.43179 1.85788e-15)
(-41.6725 11.4416 -3.61725e-15)
(-40.8756 17.09 -3.57117e-15)
(-38.8896 21.9306 -6.88516e-15)
(-36.322 25.0548 -3.23474e-15)
(-33.7628 26.9112 -6.0208e-15)
(-31.455 27.9958 1.12699e-14)
(-29.4237 28.7271 0)
(-27.6524 29.2649 1.00505e-14)
(-26.114 29.7186 -1.4359e-14)
(-24.7488 30.1549 4.58931e-15)
(-42.012 3.17088 -9.55089e-16)
(-43.8796 7.31933 -2.53333e-15)
(-43.8811 12.3309 4.83635e-15)
(-42.6557 16.8299 0)
(-40.1358 20.685 -2.99e-15)
(-37.2469 23.4158 5.65952e-15)
(-34.4239 25.2247 -2.86188e-18)
(-31.8999 26.4229 1.413e-18)
(-29.6901 27.2957 -4.87932e-15)
(-27.7627 27.9744 -9.34583e-15)
(-26.0795 28.5464 4.49043e-15)
(-24.5887 29.0661 -4.33866e-15)
(-43.6963 5.94154 -8.90833e-16)
(-46.396 8.87601 0)
(-45.484 12.5202 0)
(-43.9649 15.976 0)
(-41.2345 19.1503 2.58575e-15)
(-38.1806 21.6831 0)
(-35.177 23.5484 -3.95188e-18)
(-32.4559 24.9112 9.31545e-15)
(-30.0577 25.9525 2.95245e-18)
(-27.9612 26.7763 4.37072e-15)
(-26.1259 27.4573 -4.2494e-15)
(-24.5022 28.0466 1.24153e-14)
(-46.6259 7.23749 -1.65546e-15)
(-48.3527 9.30647 3.34944e-15)
(-46.4283 11.8148 -1.24268e-15)
(-44.5041 14.6343 0)
(-41.6897 17.3909 0)
(-38.6282 19.8218 0)
(-35.6018 21.7909 0)
(-32.8084 23.3462 4.31293e-15)
(-30.3065 24.5773 -1.68993e-14)
(-28.0951 25.5573 -8.28477e-15)
(-26.143 26.3488 8.12125e-15)
(-24.4088 27.0024 3.98688e-15)
(-46.9281 9.96298 -7.37871e-16)
(-48.0613 8.87273 -1.88111e-15)
(-45.3382 10.3285 -1.15285e-15)
(-43.1193 12.703 0)
(-40.5052 15.2214 0)
(-37.75 17.6563 4.20783e-15)
(-35.0095 19.7894 -8.24678e-15)
(-32.4132 21.565 1.62403e-14)
(-30.0209 23.01 1.20133e-14)
(-27.8547 24.1662 7.90029e-15)
(-25.9037 25.0825 -7.79366e-15)
(-24.1443 25.8072 6.94025e-18)
(-43.8993 4.62173 -1.24244e-18)
(-43.1384 6.48262 0)
(-40.279 7.74926 2.16917e-15)
(-38.5208 10.0955 -6.30245e-15)
(-36.7866 12.6997 6.09944e-15)
(-34.8836 15.2639 3.74064e-18)
(-32.873 17.5781 3.89201e-15)
(-30.8284 19.5619 -3.84265e-15)
(-28.8348 21.2095 -1.90425e-14)
(-26.9431 22.5373 0)