/*--------------------------------*- C++ -*----------------------------------*\
| =========                 |                                                 |
| \\      /  F ield         | OpenFOAM: The Open Source CFD Toolbox           |
|  \\    /   O peration     | Version:  2212                                  |
|   \\  /    A nd           | Website:  www.openfoam.com                      |
|    \\/     M anipulation  |                                                 |
\*---------------------------------------------------------------------------*/
FoamFile
{
    version     2.0;
    format      ascii;
    arch        "LSB;label=32;scalar=64";
    class       volVectorField;
    location    "0.1";
    object      U;
}
// * * * * * * * * * * * * * * * * * * * * * * * * * * * * * * * * * * * * * //

dimensions      [0 1 -1 0 0 0 0];

internalField   nonuniform List<vector> 
3072
(
(0.35048 21.7238 0)
(0.950174 18.6827 0)
(2.65469 17.1407 4.5273e-19)
(4.06005 16.1418 -7.60206e-15)
(5.3976 15.4679 1.21914e-14)
(6.24527 15.4553 -5.69696e-15)
(7.74281 17.3976 -2.70734e-15)
(14.7575 16.9267 -1.39322e-14)
(27.5697 15.696 2.27035e-14)
(32.7577 21.5166 -8.48271e-15)
(35.1084 23.5909 5.5946e-15)
(38.7245 25.4282 2.65537e-15)
(-5.71106 25.6493 -3.3214e-16)
(-3.18818 22.139 -2.54517e-15)
(0.740984 22.5784 1.30183e-15)
(3.76739 22.2789 0)
(7.23706 24.1682 5.29825e-15)
(13.9887 24.9696 -7.85114e-15)
(23.2076 27.4033 0)
(29.5544 29.0548 0)
(32.1669 28.9619 0)
(32.9099 29.9 7.62452e-18)
(33.3678 30.0674 -1.17224e-14)
(34.7903 30.2253 5.20733e-18)
(-5.46504 29.1692 3.06672e-16)
(-1.58255 26.1783 0)
(4.25385 27.4715 0)
(10.335 27.6829 -6.88103e-15)
(18.1114 29.5398 4.60994e-15)
(25.5048 30.7973 -6.82348e-15)
(30.3213 31.1802 8.63713e-15)
(32.9266 30.6482 0)
(34.1347 29.5129 0)
(34.4475 28.8519 -2.98147e-15)
(34.9183 28.1795 -2.84328e-15)
(35.6115 27.5205 8.32467e-15)
(-5.33174 32.7672 -1.12392e-15)
(0.303191 31.4635 -2.08836e-15)
(7.85458 33.3269 2.05828e-15)
(15.5009 33.63 -2.07294e-15)
(22.779 34.1699 8.15316e-15)
(27.8336 33.5352 -7.74728e-15)
(30.612 32.4976 -3.375e-15)
(32.2964 31.0317 -8.93966e-15)
(33.0612 29.7224 -2.21689e-18)
(33.3587 28.7003 5.24805e-15)
(33.7155 27.7622 4.97084e-15)
(34.0876 26.852 -4.81593e-15)
(-1.52469 34.8681 0)
(3.65183 35.3856 9.45424e-16)
(11.1524 36.86 -1.85682e-15)
(18.403 36.7277 3.68849e-15)
(24.3304 36.0344 4.13649e-18)
(27.778 34.5017 3.19437e-15)
(29.8514 32.7866 2.87784e-15)
(30.857 31.0972 2.77169e-15)
(31.3578 29.5395 -5.18492e-15)
(31.6757 28.2261 4.83533e-15)
(32.0248 27.0561 -6.83964e-15)
(32.4054 25.9778 8.6942e-15)
(0.496331 37.2045 -9.51482e-16)
(6.14046 38.151 8.61423e-16)
(13.1225 39.0715 3.33345e-15)
(19.4207 38.3883 0)
(24.1014 36.8795 -6.20321e-15)
(26.797 34.8655 5.60689e-15)
(28.2979 32.8695 0)
(29.159 30.9327 -4.97314e-15)
(29.6877 29.2063 4.64744e-15)
(30.0725 27.7105 0)
(30.4467 26.3851 2.41705e-18)
(30.8353 25.1897 3.99405e-15)
(3.49762 39.1215 0)
(8.32141 40.7495 -1.58628e-15)
(14.3367 40.8497 1.51756e-15)
(19.4441 39.708 0)
(23.0895 37.6182 -2.75329e-15)
(25.2456 35.2632 4.17929e-18)
(26.5718 32.9733 4.80835e-15)
(27.4117 30.8536 4.51719e-15)
(27.9972 28.9622 -4.26426e-15)
(28.4586 27.2972 4.05644e-15)
(28.883 25.8209 -3.88018e-15)
(29.3005 24.5001 -1.12167e-14)
(5.24029 41.4836 0)
(9.67422 43.2729 1.45712e-15)
(14.6604 42.5812 -2.74174e-15)
(18.6857 41.0088 2.60759e-15)
(21.6176 38.4673 0)
(23.5256 35.8027 -4.61738e-15)
(24.7994 33.249 4.36813e-15)
(25.687 30.9151 9.10502e-19)
(26.3497 28.8287 -7.91363e-15)
(26.8826 26.9813 -3.79709e-15)
(27.3514 25.3431 -2.30324e-18)
(27.7889 23.8841 7.10544e-15)
(7.57267 43.0476 0)
(10.7191 45.6437 -1.34054e-15)
(14.3521 44.0794 -2.47115e-15)
(17.4278 42.1738 -2.31768e-15)
(19.856 39.3168 4.39028e-15)
(21.6513 36.3875 0)
(22.96 33.5843 0)
(23.9338 31.023 0)
(24.6814 28.7282 0)
(25.2776 26.6904 3.59715e-15)
(25.7789 24.8835 -3.50101e-15)
(26.2222 23.279 3.41648e-15)
(8.1694 46.1924 0)
(10.69 47.7824 1.17877e-15)
(13.1789 45.1446 -3.369e-18)
(15.6594 42.7065 2.09493e-15)
(17.7753 39.5877 2.00807e-15)
(19.5203 36.4716 -3.85642e-15)
(20.8979 33.5126 0)
(21.9747 30.802 -1.69933e-18)
(22.815 28.3628 -1.06071e-14)
(23.477 26.1876 0)
(24.0118 24.2542 6.7641e-15)
(24.4598 22.537 -3.31453e-15)
(10.9421 46.8177 0)
(9.8847 47.4526 1.09121e-15)
(11.1146 44.0215 4.05065e-15)
(13.1586 41.1695 -3.89086e-15)
(15.1176 38.0931 -5.63092e-15)
(16.8938 35.0923 9.0834e-15)
(18.3867 32.2624 -1.50508e-18)
(19.5961 29.6457 -3.46326e-15)
(20.5525 27.2608 3.38695e-15)
(21.3009 25.1081 -6.65998e-15)
(21.8883 23.1748 -9.81464e-15)
(22.3583 21.4441 9.66253e-15)
(4.77851 43.2859 -5.72934e-16)
(6.67444 41.9765 -4.13843e-15)
(7.80529 38.3798 9.51223e-16)
(9.80719 35.9405 0)
(11.8719 33.6646 0)
(13.7858 31.4087 2.84271e-18)
(15.424 29.1953 1.0089e-14)
(16.7716 27.0555 6.59845e-15)
(17.8467 25.0274 0)
(18.6887 23.1372 6.39875e-15)
(19.3407 21.3959 0)
(19.8487 19.8046 3.77013e-18)
(41.3281 25.0055 -1.86559e-14)
(43.7467 24.6363 8.05625e-15)
(45.0498 23.141 -8.14097e-15)
(45.9015 21.7266 -2.7333e-15)
(45.7232 19.7889 -2.70247e-15)
(45.0869 17.8701 0)
(43.394 15.766 0)
(41.0427 13.7524 5.35277e-15)
(37.6739 11.7957 -5.40062e-15)
(33.407 9.69793 0)
(27.7871 6.354 0)
(25.3103 -0.101087 -3.70552e-16)
(35.7845 30.0911 6.96678e-15)
(37.0393 29.5512 0)
(38.1786 28.5514 -9.75766e-18)
(39.2588 27.1799 3.3792e-15)
(40.0579 25.4982 1.69579e-15)
(40.393 23.769 6.91167e-15)
(40.1541 22.0918 -1.0692e-14)
(39.3324 20.6166 1.87224e-15)
(37.9472 19.4792 0)
(35.2636 18.5665 0)
(31.8655 17.4509 0)
(31.8721 14.2484 -4.03558e-23)
(36.2256 26.8032 2.72218e-15)
(36.9219 25.9917 -7.94678e-15)
(37.5865 25.0637 2.61847e-15)
(38.1326 24.0779 5.24858e-15)
(38.4479 23.0916 -5.30822e-15)
(38.4657 22.1843 0)
(38.1467 21.4421 0)
(37.4877 20.9653 -1.59799e-18)
(36.5235 20.8889 1.60212e-15)
(34.8491 21.1021 0)
(32.2695 21.1648 0)
(33.5782 21.0268 0)
(34.4692 25.9921 3.17077e-18)
(34.9526 25.1441 6.82136e-15)
(35.4348 24.2774 4.4651e-15)
(35.855 23.4246 -4.43548e-15)
(36.1498 22.6434 0)
(36.277 22.0098 2.25454e-15)
(36.2103 21.6135 0)
(35.9494 21.5021 3.7498e-15)
(35.5628 21.7949 -1.32735e-15)
(34.7618 22.6376 0)
(32.7208 23.8892 -7.75672e-16)
(35.7468 25.8094 -1.03251e-15)
(32.821 24.9852 -4.17912e-15)
(33.2743 24.0532 0)
(33.7192 23.1811 0)
(34.1243 22.3942 0)
(34.4616 21.7362 0)
(34.7147 21.2745 -3.81641e-15)
(34.8647 21.0922 -1.31317e-18)
(34.9498 21.2226 -2.15163e-15)
(34.9546 21.8232 0)
(34.8496 23.0056 -1.17507e-15)
(33.5225 24.9074 7.31567e-16)
(37.5254 28.0046 9.52554e-16)
(31.2488 24.107 -2.22976e-18)
(31.6852 23.1204 -7.50615e-15)
(32.1243 22.2339 3.6799e-15)
(32.5526 21.4685 6.44187e-20)
(32.9606 20.8608 2.13981e-18)
(33.3505 20.4622 5.45012e-15)
(33.7396 20.333 -1.37088e-18)
(34.1485 20.5416 -5.74113e-15)
(34.596 21.2063 -2.04755e-15)
(35.1284 22.5035 1.15181e-15)
(34.6769 24.8799 -1.38166e-15)
(39.2778 29.049 -4.41443e-16)
(29.7255 23.3151 1.0879e-14)
(30.1625 22.2532 3.53931e-15)
(30.6092 21.3164 0)
(31.0675 20.5202 0)
(31.5459 19.8928 2.02887e-18)
(32.0628 19.4751 -3.39091e-15)
(32.6496 19.3172 5.11947e-15)
(33.3459 19.4806 -1.17812e-18)
(34.1873 20.0733 1.83465e-15)
(35.2761 21.2879 0)
(35.6593 23.6143 -2.09834e-18)
(40.5879 28.539 4.11173e-16)
(28.2152 22.583 -3.46229e-15)
(28.6437 21.4263 -3.38809e-15)
(29.0855 20.4119 3.33461e-15)
(29.5564 19.5485 -3.28847e-15)
(30.0796 18.8548 -6.32964e-20)
(30.6897 18.3595 6.45997e-15)
(31.4354 18.0993 -3.21802e-15)
(32.3814 18.1253 1.62419e-15)
(33.5902 18.5281 0)
(35.2347 19.5112 9.2063e-16)
(36.5081 21.6365 5.57341e-16)
(41.5948 26.8619 -1.5356e-15)
(26.6343 21.8541 3.34483e-15)
(27.0378 20.5921 -3.28487e-15)
(27.4547 19.485 -3.23325e-15)
(27.9122 18.5334 -6.38669e-15)
(28.4462 17.7445 6.31104e-15)
(29.1046 17.133 -6.2408e-15)
(29.954 16.7175 0)
(31.0847 16.5295 -1.53875e-15)
(32.5939 16.6266 0)
(34.7254 17.1888 0)
(36.9079 18.8137 0)
(42.0388 23.6482 1.42786e-15)
(24.8543 21.0136 3.25592e-15)
(25.2256 19.6644 -6.41181e-15)
(25.6051 18.4757 6.32219e-15)
(26.0288 17.4398 6.24167e-15)
(26.5426 16.5527 3.08344e-15)
(27.204 15.8137 0)
(28.0946 15.2181 0)
(29.3251 14.7699 2.9689e-15)
(31.0332 14.4781 0)
(33.5501 14.472 -7.78946e-16)
(36.448 15.2111 4.62981e-16)
(41.7734 18.87 -2.00684e-15)
(22.7489 19.9 -6.34625e-15)
(23.096 18.5242 6.25486e-15)
(23.4386 17.3013 -6.17623e-15)
(23.8188 16.2178 -1.52684e-14)
(24.29 15.2596 -1.76682e-18)
(24.9148 14.4117 1.09571e-18)
(25.7857 13.6462 -2.94604e-15)
(27.0145 12.9333 -2.89571e-15)
(28.7778 12.2089 0)
(31.4857 11.5443 2.19647e-15)
(34.7134 10.9379 4.25319e-16)
(40.3323 12.0493 -3.27499e-19)
(20.2516 18.3624 -3.64207e-18)
(20.5881 17.0585 0)
(20.9023 15.8803 0)
(21.2396 14.8139 2.98323e-15)
(21.6585 13.8412 8.86321e-15)
(22.2173 12.9363 -2.92414e-15)
(23.0176 12.0479 -1.59748e-18)
(24.1495 11.1172 -1.42385e-15)
(25.8144 9.99479 -1.39676e-15)
(28.3168 8.64271 -1.3959e-15)
(32.0498 6.35827 0)
(37.2679 -1.48083 5.50974e-16)
(21.7775 -0.641912 -3.8265e-16)
(18.8651 -1.1576 0)
(17.4052 -2.78047 -4.76469e-19)
(16.2892 -4.25902 0)
(15.7274 -5.52405 6.10795e-15)
(15.4237 -6.62954 -5.75214e-15)
(16.6944 -7.46939 0)
(17.7393 -12.2249 -1.11759e-14)
(14.645 -24.8834 1.99461e-14)
(19.649 -31.9773 -1.41786e-14)
(22.5028 -34.0218 -2.8393e-15)
(24.2127 -37.703 -2.66964e-15)
(25.591 5.38538 -1.66363e-15)
(22.1892 3.03744 -1.27717e-15)
(22.543 -0.693361 3.91235e-15)
(22.0338 -3.74885 0)
(23.4949 -6.68008 -5.29344e-15)
(24.5839 -11.9746 5.29775e-15)
(25.9928 -21.0459 0)
(28.3436 -28.3137 4.58936e-15)
(28.0641 -31.6357 -1.28938e-14)
(28.9256 -32.7122 7.9865e-15)
(29.2321 -32.9316 8.06731e-15)
(29.311 -34.3387 -1.1136e-14)
(28.9727 5.15286 3.06637e-16)
(25.9344 1.68627 0)
(26.9465 -3.72699 -2.28624e-15)
(26.9949 -9.15248 0)
(28.3753 -16.1172 0)
(29.941 -23.9172 -4.60781e-15)
(30.3507 -29.3168 1.77091e-14)
(30.2189 -32.3794 -1.09556e-14)
(28.9281 -33.7808 3.43774e-15)
(28.1967 -34.214 0)
(27.5326 -34.5694 5.90703e-15)
(26.832 -35.2405 -2.84151e-15)
(32.6343 5.59599 -1.12726e-15)
(31.0085 0.396729 1.04923e-15)
(32.6816 -6.68397 2.06422e-15)
(32.8886 -13.9942 4.16516e-15)
(33.4625 -21.4078 -4.13827e-15)
(33.08 -27.0725 -3.98492e-15)
(32.0401 -30.2161 0)
(30.7079 -31.918 0)
(29.3008 -32.8138 2.91782e-15)
(28.2263 -33.1558 0)
(27.2729 -33.4678 4.09552e-18)
(26.3445 -33.8614 2.47674e-15)
(34.7846 2.04072 1.54959e-15)
(35.0501 -2.78999 -9.52609e-16)
(36.5446 -10.0534 -1.87836e-15)
(36.4767 -17.2696 0)
(35.91 -23.5605 0)
(34.439 -27.3857 3.33729e-15)
(32.6544 -29.519 0)
(30.9256 -30.632 -5.74862e-15)
(29.2994 -31.1802 -2.70624e-15)
(27.9172 -31.5093 5.05161e-15)
(26.7047 -31.8367 -7.14683e-15)
(25.5904 -32.2089 4.5402e-15)
(37.306 0.27286 -6.30673e-19)
(38.0508 -5.21543 -8.70705e-16)
(39.1313 -12.1562 1.69623e-15)
(38.5324 -18.5685 1.81783e-18)
(37.0724 -23.5628 3.20331e-15)
(35.002 -26.4504 -5.82995e-15)
(32.9304 -28.0278 5.54712e-15)
(30.9222 -28.9602 4.87749e-18)
(29.1109 -29.5296 0)
(27.5387 -29.9307 0)
(26.1566 -30.3043 8.68829e-15)
(24.9135 -30.6962 4.79744e-19)
(39.2642 -2.85427 -8.8811e-16)
(40.8552 -7.52299 -8.02773e-16)
(41.1366 -13.5587 0)
(40.0779 -18.7634 -2.98693e-15)
(37.9846 -22.6152 2.83331e-15)
(35.5566 -24.9085 7.9511e-15)
(33.1875 -26.3161 4.97247e-15)
(30.985 -27.2252 6.6749e-18)
(29.0066 -27.8557 -8.85944e-15)
(27.2625 -28.3466 4.21538e-15)
(25.7198 -28.7909 4.04538e-15)
(24.3411 -29.2299 2.39924e-18)
(41.6472 -4.66946 -5.397e-19)
(43.4784 -9.02156 1.47007e-15)
(42.9706 -14.0219 0)
(41.4917 -18.1004 -2.65438e-15)
(38.9542 -21.1748 -2.50557e-15)
(36.2349 -23.1994 4.4943e-18)
(33.6089 -24.5603 -8.98616e-15)
(31.192 -25.5214 3.35801e-18)
(29.0189 -26.2412 -2.29925e-18)
(27.0893 -26.8196 3.94084e-15)
(25.3766 -27.3274 -3.80204e-15)
(23.8493 -27.8045 2.04092e-18)
(43.2016 -7.18451 -3.87431e-16)
(45.8984 -10.2324 6.72289e-16)
(44.5071 -13.8494 -3.74402e-15)
(42.7196 -16.9479 2.3514e-15)
(39.8978 -19.4673 0)
(36.9441 -21.3579 0)
(34.0841 -22.7517 4.1096e-15)
(31.4481 -23.804 7.92755e-15)
(29.0695 -24.621 -3.83629e-15)
(26.9473 -25.2789 -3.72421e-15)
(25.0594 -25.8375 -3.62954e-15)
(23.3765 -26.338 0)
(46.3753 -7.93354 -7.20266e-16)
(48.0259 -10.3569 1.77784e-15)
(45.5798 -12.8013 4.44539e-15)
(43.2789 -15.2778 0)
(40.2256 -17.446 4.09079e-15)
(37.1155 -19.2641 0)
(34.1241 -20.7242 2.56035e-18)
(31.3568 -21.8866 -3.73386e-15)
(28.8448 -22.8102 3.65404e-15)
(26.5887 -23.5511 0)
(24.5712 -24.1609 0)
(22.768 -24.6825 -6.88346e-15)
(46.8872 -10.8541 1.9125e-23)
(47.7381 -9.68251 1.10383e-15)
(44.4606 -10.8839 3.08549e-18)
(41.7403 -12.8867 -3.965e-15)
(38.742 -14.8483 -1.91726e-15)
(35.7769 -16.678 -1.86334e-15)
(32.9463 -18.2529 -3.64052e-15)
(30.3003 -19.556 -1.07011e-14)
(27.8626 -20.6087 -3.49893e-15)
(25.6388 -21.451 -6.89051e-15)
(23.6224 -22.1288 6.7826e-15)
(21.8007 -22.6864 6.67661e-15)
(43.5121 -4.80919 -1.15056e-15)
(42.3184 -6.63427 -5.20526e-16)
(38.8583 -7.63043 2.60792e-18)
(36.4918 -9.57601 3.7496e-15)
(34.3039 -11.6456 0)
(32.1132 -13.6189 -3.54087e-15)
(29.933 -15.3462 3.4666e-15)
(27.7931 -16.7952 3.40509e-15)
(25.7332 -17.9749 -1.00808e-14)
(23.7834 -18.9189 6.62561e-15)
(21.9607 -19.6707 -6.5412e-15)
(20.2735 -20.274 0)
(24.0962 -40.3321 8.04503e-15)
(23.7092 -42.7843 -2.16235e-14)
(22.4128 -44.1565 5.44429e-15)
(21.0187 -45.0443 1.37453e-14)
(19.2581 -44.918 -1.36131e-14)
(17.3841 -44.3393 2.70196e-15)
(15.4174 -42.7248 -1.3883e-18)
(13.4473 -40.4506 -2.68855e-15)
(11.5718 -37.1856 -5.42552e-15)
(9.50965 -33.0444 0)
(6.17477 -27.5168 0)
(-0.178443 -25.1422 -5.54923e-16)
(29.326 -35.2431 -1.09167e-19)
(28.8253 -36.4611 7.02537e-15)
(27.9132 -37.5674 -9.69725e-18)
(26.6127 -38.633 0)
(24.9691 -39.4643 5.25973e-15)
(23.28 -39.8388 0)
(21.6404 -39.653 3.65876e-15)
(20.2016 -38.8881 5.74542e-15)
(19.1057 -37.5712 -4.0985e-15)
(18.2188 -34.9991 0)
(17.0726 -31.6449 0)
(13.5994 -31.7503 -4.64462e-20)
(26.1329 -35.8361 2.81387e-15)
(25.3414 -36.5178 -2.75493e-15)
(24.4436 -37.1662 2.7239e-15)
(23.488 -37.7179 0)
(22.536 -38.0503 -2.7548e-15)
(21.6586 -38.0954 5.64821e-15)
(20.9473 -37.8125 -7.35052e-15)
(20.4925 -37.1974 -7.77433e-15)
(20.4353 -36.3008 4.89055e-15)
(20.6439 -34.7134 0)
(20.6771 -32.1681 8.99565e-16)
(20.4909 -33.5688 1.02332e-20)
(25.4734 -34.1992 2.43682e-15)
(24.624 -34.6525 -4.74982e-15)
(23.7632 -35.1242 4.6574e-15)
(22.9156 -35.5509 -4.62073e-15)
(22.1373 -35.8658 0)
(21.5034 -36.0239 2.32541e-15)
(21.1151 -35.9945 2.40012e-15)
(20.9939 -35.782 1.28642e-15)
(21.283 -35.4377 -2.69289e-15)
(22.1361 -34.6862 0)
(23.3482 -32.6315 -7.95126e-16)
(25.0882 -35.7431 1.29653e-15)
(24.5726 -32.6059 4.36812e-15)
(23.6219 -33.0584 -2.12222e-15)
(22.7337 -33.5138 0)
(21.9322 -33.9387 0)
(21.2601 -34.3032 2.04889e-15)
(20.7813 -34.5908 -1.98442e-15)
(20.589 -34.7722 -2.5025e-18)
(20.7065 -34.894 0)
(21.2996 -34.9341 -1.19323e-15)
(22.4865 -34.8502 1.20053e-15)
(24.359 -33.5348 -1.49289e-15)
(27.3811 -37.604 0)
(23.7942 -31.1132 -8.04213e-15)
(22.7764 -31.5649 3.91274e-15)
(21.8603 -32.0278 7.67187e-15)
(21.0661 -32.486 4.90438e-20)
(20.4299 -32.9279 -9.41086e-15)
(20.003 -33.352 -3.7777e-15)
(19.8484 -33.7733 -2.35999e-18)
(20.0335 -34.21 0)
(20.6814 -34.6742 0)
(21.966 -35.2284 -1.18242e-15)
(24.3307 -34.7174 -7.03297e-16)
(28.434 -39.3829 4.4327e-16)
(23.1067 -29.6791 3.77995e-15)
(22 -30.1478 -7.37736e-15)
(21.0203 -30.6313 -3.61513e-15)
(20.1823 -31.1292 -1.91076e-18)
(19.5141 -31.6474 3.53142e-15)
(19.0571 -32.2012 3.51848e-15)
(18.8648 -32.8188 1.76962e-15)
(19.0003 -33.5363 1.80428e-15)
(19.5766 -34.3829 -1.89497e-15)
(20.7887 -35.4698 0)
(23.1215 -35.7831 1.25749e-15)
(28.0684 -40.756 -8.26385e-16)
(22.4859 -28.273 0)
(21.2709 -28.7478 3.52656e-15)
(20.2008 -29.238 0)
(19.2833 -29.7569 -1.89853e-18)
(18.5372 -30.3249 -4.77219e-20)
(17.9927 -30.9732 6.70357e-15)
(17.6901 -31.7468 -1.66653e-15)
(17.6847 -32.7064 -3.35987e-15)
(18.0731 -33.9065 -1.73535e-15)
(19.0621 -35.5263 9.45796e-16)
(21.2048 -36.7051 -1.7067e-15)
(26.5263 -41.794 7.70446e-16)
(21.8761 -26.8087 3.47856e-15)
(20.5419 -27.2718 -3.4164e-15)
(19.3659 -27.7478 -3.36447e-15)
(18.348 -28.2606 3.31844e-15)
(17.496 -28.843 3.27599e-15)
(16.826 -29.5394 -9.71128e-15)
(16.3612 -30.4123 0)
(16.1396 -31.5483 1.59148e-15)
(16.2273 -33.0352 1.61407e-15)
(16.8121 -35.1211 0)
(18.4937 -37.2065 1.55178e-15)
(23.5157 -42.2721 -3.59256e-16)
(21.1574 -25.1504 0)
(19.723 -25.5941 -6.66162e-15)
(18.4527 -26.0425 -3.28584e-15)
(17.3388 -26.5277 -6.47669e-15)
(16.3782 -27.0921 3.19845e-15)
(15.5725 -27.7897 3.1554e-15)
(14.922 -28.6972 0)
(14.4379 -29.9214 0)
(14.1417 -31.5904 0)
(14.1693 -34.0394 0)
(15.0129 -36.8406 -4.71043e-16)
(18.9677 -42.0258 -6.71299e-16)
(20.1595 -23.1635 3.2913e-15)
(18.6874 -23.5949 3.24321e-15)
(17.3716 -24.0151 1.28136e-14)
(16.2002 -24.4614 3.1661e-15)
(15.1599 -24.9838 1.25109e-14)
(14.2386 -25.6412 -3.08953e-15)
(13.4139 -26.519 -3.04561e-15)
(12.6649 -27.7251 0)
(11.941 -29.4267 -2.94778e-15)
(11.3227 -32.0424 -1.50152e-15)
(10.8631 -35.1539 -8.64429e-16)
(12.402 -40.5926 0)
(18.7241 -20.7725 0)
(17.3129 -21.2021 0)
(16.0325 -21.6011 -1.24824e-14)
(14.8707 -22.0082 -9.25514e-15)
(13.8102 -22.4768 -3.04982e-15)
(12.8277 -23.0591 0)
(11.8809 -23.8482 2.9831e-15)
(10.917 -24.928 0)
(9.79993 -26.4914 -1.66222e-18)
(8.5023 -28.8646 1.42937e-15)
(6.41652 -32.4591 3.86568e-16)
(-0.911476 -37.3873 -1.637e-19)
(-0.350508 -21.7238 -1.90876e-16)
(-0.950185 -18.6827 -2.98205e-15)
(-2.65469 -17.1407 3.04029e-15)
(-4.06006 -16.1418 -3.04179e-15)
(-5.39761 -15.4679 0)
(-6.24529 -15.4553 2.84977e-15)
(-7.74276 -17.3975 0)
(-14.7573 -16.9268 2.78831e-15)
(-27.5695 -15.6959 -8.50795e-15)
(-32.7577 -21.5164 8.49076e-15)
(-35.1083 -23.5908 1.6762e-14)
(-38.7245 -25.4282 -5.28164e-15)
(5.71103 -25.6493 0)
(3.18818 -22.139 -2.54517e-15)
(-0.740977 -22.5784 2.60272e-15)
(-3.76739 -22.2789 2.60833e-15)
(-7.23699 -24.1682 -5.29824e-15)
(-13.9885 -24.9695 -7.79265e-19)
(-23.2074 -27.4031 -4.91567e-15)
(-29.5544 -29.0547 -1.11166e-14)
(-32.1669 -28.9618 1.29747e-14)
(-32.9099 -29.8999 -4.04316e-15)
(-33.3678 -30.0673 8.8175e-18)
(-34.7904 -30.2252 5.52207e-18)
(5.46504 -29.1692 0)
(1.58259 -26.1782 0)
(-4.25377 -27.4714 0)
(-10.3349 -27.6828 -2.29458e-15)
(-18.1112 -29.5397 0)
(-25.5047 -30.7972 -2.27862e-15)
(-30.3213 -31.1801 4.3169e-15)
(-32.9266 -30.6482 7.05556e-15)
(-34.1347 -29.5129 -3.30481e-15)
(-34.4476 -28.8519 -5.96055e-15)
(-34.9183 -28.1795 -8.53411e-15)
(-35.6115 -27.5205 8.32469e-15)
(5.33183 -32.7671 0)
(-0.303065 -31.4634 -1.0447e-15)
(-7.85441 -33.3268 2.05992e-15)
(-15.5008 -33.6299 2.06879e-15)
(-22.7789 -34.1698 0)
(-27.8337 -33.5352 -7.75451e-15)
(-30.612 -32.4975 6.74213e-15)
(-32.2965 -31.0316 0)
(-33.0612 -29.7224 5.59668e-15)
(-33.3588 -28.7003 -7.87036e-15)
(-33.7156 -27.7621 4.9669e-15)
(-34.0877 -26.852 4.13304e-18)
(1.52482 -34.8681 -6.1452e-23)
(-3.65168 -35.3855 1.89229e-15)
(-11.1523 -36.86 3.02422e-18)
(-18.4029 -36.7277 0)
(-24.3304 -36.0343 -3.54936e-15)
(-27.7781 -34.5017 6.39072e-15)
(-29.8515 -32.7866 0)
(-30.8571 -31.0972 -2.77629e-15)
(-31.3579 -29.5395 -2.59503e-15)
(-31.6758 -28.2261 4.83535e-15)
(-32.0248 -27.0561 0)
(-32.4055 -25.9778 -4.34244e-15)
(-0.49616 -37.2046 4.75409e-16)
(-6.1403 -38.1509 1.8983e-18)
(-13.1224 -39.0715 -1.66538e-15)
(-19.4207 -38.3883 -6.53615e-15)
(-24.1015 -36.8796 -1.7989e-18)
(-26.7971 -34.8656 5.60692e-15)
(-28.298 -32.8695 0)
(-29.1591 -30.9327 7.46021e-15)
(-29.6877 -29.2063 -4.64875e-15)
(-30.0725 -27.7105 4.37855e-15)
(-30.4468 -26.3851 2.41706e-18)
(-30.8353 -25.1897 -4.48429e-19)
(-3.49747 -39.1215 -1.32824e-15)
(-8.32128 -40.7495 -7.91384e-16)
(-14.3367 -40.8498 0)
(-19.4441 -39.708 5.83579e-15)
(-23.0896 -37.6182 -8.25981e-15)
(-25.2457 -35.2633 -1.29446e-18)
(-26.5718 -32.9733 -9.62119e-15)
(-27.4118 -30.8536 3.94182e-18)
(-27.9973 -28.9622 -4.26428e-15)
(-28.4586 -27.2972 -4.05646e-15)
(-28.883 -25.8209 3.88568e-15)
(-29.3005 -24.5001 -3.73956e-15)
(-5.24016 -41.4837 1.23808e-15)
(-9.67412 -43.2729 -7.29006e-16)
(-14.6604 -42.5812 0)
(-18.6857 -41.0089 2.6076e-15)
(-21.6176 -38.4674 2.45071e-15)
(-23.5257 -35.8028 2.30748e-15)
(-24.7994 -33.249 -3.72656e-18)
(-25.687 -30.9151 -9.10509e-19)
(-26.3497 -28.8287 -3.9598e-15)
(-26.8827 -26.9813 -4.87495e-18)
(-27.3514 -25.3431 2.0528e-18)
(-27.7889 -23.884 0)
(-7.57258 -43.0477 3.86168e-16)
(-10.719 -45.6438 0)
(-14.3521 -44.0795 0)
(-17.4279 -42.1738 -2.31769e-15)
(-19.8561 -39.3168 2.19197e-15)
(-21.6514 -36.3875 -4.17969e-15)
(-22.96 -33.5843 0)
(-23.9338 -31.023 3.84485e-15)
(-24.6814 -28.7282 -1.99332e-18)
(-25.2777 -26.6904 3.59717e-15)
(-25.7789 -24.8835 -3.50266e-15)
(-26.2222 -23.279 6.83617e-15)
(-8.16936 -46.1924 -2.40575e-19)
(-10.6899 -47.7824 -5.896e-16)
(-13.1789 -45.1447 -2.20526e-15)
(-15.6594 -42.7066 -4.18773e-15)
(-17.7753 -39.5877 0)
(-19.5203 -36.4716 3.85164e-15)
(-20.898 -33.5127 -7.4636e-15)
(-21.9747 -30.802 3.62398e-15)
(-22.815 -28.3628 3.538e-15)
(-23.4771 -26.1876 0)
(-24.0118 -24.2542 -3.3851e-15)
(-24.4598 -22.537 -6.62606e-15)
(-10.9421 -46.8177 -6.40978e-16)
(-9.88468 -47.4526 5.44911e-16)
(-11.1146 -44.0216 2.02381e-15)
(-13.1586 -41.1695 1.94378e-15)
(-15.1176 -38.0931 -3.9552e-19)
(-16.8938 -35.0924 -5.45239e-15)
(-18.3868 -32.2624 7.07354e-15)
(-19.5961 -29.6458 1.3836e-14)
(-20.5526 -27.2609 -1.01674e-14)
(-21.3009 -25.1081 -6.66e-15)
(-21.8883 -23.1748 6.54225e-15)
(-22.3583 -21.4441 0)
(-4.77852 -43.2859 1.14431e-15)
(-6.67443 -41.9765 5.1906e-16)
(-7.80528 -38.3798 9.48684e-16)
(-9.80719 -35.9405 3.67271e-15)
(-11.8719 -33.6646 0)
(-13.7859 -31.4088 3.43905e-15)
(-15.424 -29.1953 -6.72772e-15)
(-16.7716 -27.0556 -3.298e-15)
(-17.8467 -25.0275 -3.24751e-15)
(-18.6887 -23.1372 6.39876e-15)
(-19.3407 -21.3959 3.15984e-15)
(-19.8487 -19.8046 9.35713e-15)
(-41.3281 -25.0055 -2.66355e-15)
(-43.7467 -24.6363 2.69718e-15)
(-45.0498 -23.1409 -8.13117e-15)
(-45.9015 -21.7266 2.45003e-14)
(-45.7232 -19.7889 -1.07868e-14)
(-45.0869 -17.8701 0)
(-43.394 -15.766 -5.33431e-15)
(-41.0427 -13.7524 4.01067e-15)
(-37.6739 -11.7957 0)
(-33.407 -9.69793 9.14365e-19)
(-27.7871 -6.354 0)
(-25.3103 0.101088 3.70552e-16)
(-35.7845 -30.0911 -1.39452e-14)
(-37.0393 -29.5512 6.81934e-15)
(-38.1787 -28.5514 6.75732e-15)
(-39.2588 -27.1799 -3.38382e-15)
(-40.0579 -25.4982 0)
(-40.393 -23.769 0)
(-40.1541 -22.0918 3.5647e-15)
(-39.3324 -20.6166 -3.74683e-15)
(-37.9472 -19.4792 0)
(-35.2636 -18.5665 1.03401e-15)
(-31.8656 -17.4509 -2.47823e-19)
(-31.8721 -14.2484 -1.35478e-15)
(-36.2257 -26.8032 2.72259e-15)
(-36.9219 -25.9917 -5.29708e-15)
(-37.5865 -25.0637 0)
(-38.1326 -24.0779 -5.24856e-15)
(-38.4479 -23.0916 -5.30916e-15)
(-38.4657 -22.1843 1.08954e-14)
(-38.1467 -21.4421 -8.5306e-15)
(-37.4877 -20.9653 0)
(-36.5235 -20.8889 0)
(-34.8491 -21.1021 0)
(-32.2695 -21.1648 -8.85701e-16)
(-33.5782 -21.0269 0)
(-34.4692 -25.9921 -2.34484e-15)
(-34.9527 -25.1441 -3.62173e-18)
(-35.4348 -24.2774 0)
(-35.855 -23.4246 -3.39981e-18)
(-36.1498 -22.6434 0)
(-36.277 -22.0098 0)
(-36.2103 -21.6135 2.33399e-15)
(-35.9494 -21.5021 -2.49921e-15)
(-35.5628 -21.7949 2.65621e-15)
(-34.7618 -22.6376 0)
(-32.7208 -23.8893 -7.75673e-16)
(-35.7468 -25.8094 1.03251e-15)
(-32.821 -24.9852 8.36761e-15)
(-33.2744 -24.0532 -2.03335e-15)
(-33.7192 -23.1811 3.9871e-15)
(-34.1243 -22.3942 1.9732e-15)
(-34.4616 -21.7362 -5.89568e-15)
(-34.7147 -21.2745 0)
(-34.8647 -21.0922 -1.96923e-15)
(-34.9498 -21.2226 0)
(-34.9546 -21.8232 0)
(-34.8496 -23.0056 1.17507e-15)
(-33.5225 -24.9074 3.94238e-19)
(-37.5254 -28.0046 1.27482e-18)
(-31.2488 -24.107 -3.85162e-15)
(-31.6852 -23.1204 -2.38262e-18)
(-32.1244 -22.2338 0)
(-32.5526 -21.4685 0)
(-32.9607 -20.8608 -5.43163e-15)
(-33.3505 -20.4622 3.63429e-15)
(-33.7396 -20.333 3.69427e-15)
(-34.1486 -20.5416 1.91348e-15)
(-34.596 -21.2063 -4.09397e-15)
(-35.1284 -22.5035 -1.15181e-15)
(-34.6769 -24.8799 0)
(-39.2778 -29.049 4.41443e-16)
(-29.7255 -23.3151 -7.25631e-15)
(-30.1625 -22.2532 3.5353e-15)
(-30.6092 -21.3164 3.47399e-15)
(-31.0675 -20.5202 1.8757e-18)
(-31.5459 -19.8928 -3.89202e-18)
(-32.0628 -19.4751 -3.3928e-15)
(-32.6496 -19.3172 -5.11849e-15)
(-33.3459 -19.4806 -1.74454e-15)
(-34.1873 -20.0733 1.83465e-15)
(-35.2761 -21.2879 0)
(-35.6593 -23.6143 1.85611e-15)
(-40.5879 -28.539 -1.23495e-15)
(-28.2152 -22.5829 6.92281e-15)
(-28.6437 -21.4263 -3.3935e-15)
(-29.0855 -20.4119 -3.33462e-15)
(-29.5564 -19.5485 -6.57512e-15)
(-30.0796 -18.8548 6.50602e-15)
(-30.6897 -18.3595 -1.87355e-18)
(-31.4355 -18.0993 9.65962e-15)
(-32.3814 -18.1253 1.62221e-15)
(-33.5902 -18.5282 1.6815e-15)
(-35.2347 -19.5112 0)
(-36.5081 -21.6365 -1.11638e-15)
(-41.5948 -26.8619 3.8405e-16)
(-26.6343 -21.8541 0)
(-27.0378 -20.5921 3.28325e-15)
(-27.4547 -19.485 3.23326e-15)
(-27.9122 -18.5333 -3.1927e-15)
(-28.4462 -17.7445 -1.43251e-18)
(-29.1046 -17.133 -3.12268e-15)
(-29.954 -16.7175 -3.0897e-15)
(-31.0848 -16.5295 0)
(-32.5939 -16.6266 -1.56426e-15)
(-34.7254 -17.1888 -8.41699e-16)
(-36.9079 -18.8137 2.53909e-15)
(-42.0388 -23.6482 -3.55543e-16)
(-24.8543 -21.0136 0)
(-25.2256 -19.6644 0)
(-25.6051 -18.4757 0)
(-26.0288 -17.4398 -9.36363e-15)
(-26.5426 -16.5526 6.16661e-15)
(-27.204 -15.8137 6.09055e-15)
(-28.0946 -15.2181 0)
(-29.3251 -14.7699 -2.9689e-15)
(-31.0332 -14.4781 0)
(-33.5501 -14.472 -1.55817e-15)
(-36.448 -15.2111 -4.62929e-16)
(-41.7734 -18.8701 -6.66913e-16)
(-22.7489 -19.9 0)
(-23.096 -18.5242 0)
(-23.4386 -17.3013 6.1805e-15)
(-23.8188 -16.2178 9.15903e-15)
(-24.29 -15.2596 3.08717e-18)
(-24.9148 -14.4117 2.98654e-15)
(-25.7857 -13.6462 -1.47276e-15)
(-27.0145 -12.9333 4.34402e-15)
(-28.7777 -12.2089 2.86208e-15)
(-31.4857 -11.5444 1.46273e-15)
(-34.7134 -10.9379 -8.5062e-16)
(-40.3323 -12.0494 -1.24723e-15)
(-20.2516 -18.3624 0)
(-20.5881 -17.0585 0)
(-20.9023 -15.8803 -6.02926e-15)
(-21.2396 -14.8139 2.98658e-15)
(-21.6585 -13.8412 -2.95329e-15)
(-22.2173 -12.9363 -2.92415e-15)
(-23.0176 -12.0479 2.89275e-15)
(-24.1495 -11.1172 0)
(-25.8144 -9.99479 -2.79312e-15)
(-28.3168 -8.64272 -1.39661e-15)
(-32.0498 -6.35828 1.14739e-15)
(-37.2679 1.48082 2.08467e-19)
(-21.7775 0.641913 -1.64612e-19)
(-18.8651 1.1576 0)
(-17.4052 2.78047 0)
(-16.2892 4.25902 -6.09114e-15)
(-15.7274 5.52405 9.16303e-15)
(-15.4237 6.62954 0)
(-16.6944 7.46939 0)
(-17.7393 12.2249 2.79568e-15)
(-14.645 24.8834 2.8556e-15)
(-19.6489 31.9773 8.51522e-15)
(-22.5028 34.0218 1.41486e-14)
(-24.2127 37.703 -2.65205e-15)
(-25.591 -5.38538 -2.47392e-19)
(-22.1892 -3.03744 0)
(-22.543 0.693361 0)
(-22.0338 3.74885 -2.61108e-15)
(-23.4949 6.68008 5.29539e-15)
(-24.5839 11.9746 -1.58958e-14)
(-25.9928 21.0459 1.00614e-14)
(-28.3436 28.3136 2.29799e-15)
(-28.0641 31.6357 -4.29144e-15)
(-28.9256 32.7122 7.15444e-18)
(-29.2321 32.9316 0)
(-29.311 34.3387 -7.41409e-15)
(-28.9727 -5.15286 3.06637e-16)
(-25.9344 -1.68627 0)
(-26.9465 3.72698 0)
(-26.9949 9.15247 -2.16891e-18)
(-28.3753 16.1172 2.67297e-18)
(-29.941 23.9172 -4.61323e-15)
(-30.3507 29.3168 0)
(-30.2189 32.3794 -1.09596e-14)
(-28.9281 33.7808 1.03197e-14)
(-28.1967 34.214 -3.08413e-15)
(-27.5326 34.5694 -5.90675e-15)
(-26.832 35.2405 8.51572e-15)
(-32.6343 -5.59599 1.12726e-15)
(-31.0085 -0.396734 1.04923e-15)
(-32.6816 6.68396 0)
(-32.8886 13.9942 2.08068e-15)
(-33.4625 21.4078 -2.06798e-15)
(-33.08 27.0725 3.98492e-15)
(-32.0401 30.2161 0)
(-30.7079 31.918 -3.0775e-15)
(-29.3008 32.8138 -8.74481e-15)
(-28.2263 33.1558 5.46898e-15)
(-27.2729 33.4678 5.18081e-15)
(-26.3445 33.8614 -9.91812e-15)
(-34.7846 -2.04072 -5.15936e-16)
(-35.0501 2.78998 -9.53153e-16)
(-36.5446 10.0533 1.87836e-15)
(-36.4767 17.2696 0)
(-35.91 23.5605 -7.30864e-15)
(-34.439 27.3857 6.67067e-15)
(-32.6544 29.519 3.13478e-15)
(-30.9256 30.632 2.87123e-15)
(-29.2994 31.1802 0)
(-27.9172 31.5093 0)
(-26.7047 31.8367 0)
(-25.5904 32.2089 -6.55232e-18)
(-37.306 -0.272864 6.30673e-19)
(-38.0508 5.21542 0)
(-39.1313 12.1562 -1.69623e-15)
(-38.5324 18.5685 3.35241e-15)
(-37.0724 23.5628 3.2031e-15)
(-35.002 26.4504 -5.82994e-15)
(-32.9304 28.0278 2.77388e-15)
(-30.9222 28.9602 -1.03431e-14)
(-29.1109 29.5296 -1.40199e-18)
(-27.5387 29.9307 -3.61919e-18)
(-26.1566 30.3043 2.49957e-18)
(-24.9135 30.6962 1.24878e-14)
(-39.2642 2.85427 4.44622e-16)
(-40.8552 7.52298 1.60431e-15)
(-41.1366 13.5587 -3.08673e-15)
(-40.0779 18.7634 -2.98693e-15)
(-37.9846 22.6152 -5.66051e-15)
(-35.5566 24.9085 -2.65447e-15)
(-33.1875 26.3161 -4.96977e-15)
(-30.985 27.2252 9.35384e-15)
(-29.0066 27.8557 0)
(-27.2625 28.3466 8.43126e-15)
(-25.7198 28.7909 -1.21204e-14)
(-24.3411 29.2299 3.8987e-15)
(-41.6472 4.66946 -8.26851e-16)
(-43.4784 9.02156 -2.206e-15)
(-42.9706 14.0219 4.17193e-15)
(-41.4917 18.1004 0)
(-38.9542 21.1748 -2.50945e-15)
(-36.2349 23.1994 4.73541e-15)
(-33.6089 24.5603 -2.36764e-18)
(-31.192 25.5214 9.68092e-19)
(-29.0189 26.2412 -4.09606e-15)
(-27.0893 26.8196 -7.87702e-15)
(-25.3766 27.3274 3.80395e-15)
(-23.8493 27.8045 -3.69573e-15)
(-43.2016 7.18451 -7.73447e-16)
(-45.8984 10.2324 0)
(-44.5071 13.8494 0)
(-42.7196 16.9479 0)
(-39.8978 19.4673 2.23359e-15)
(-36.9441 21.3579 0)
(-34.0841 22.7517 -3.13871e-18)
(-31.4481 23.804 7.92495e-15)
(-29.0695 24.621 2.25639e-18)
(-26.9473 25.2789 3.72421e-15)
(-25.0594 25.8375 -3.63154e-15)
(-23.3765 26.338 1.06523e-14)
(-46.3753 7.93353 -1.44079e-15)
(-48.0259 10.3568 2.96589e-15)
(-45.5798 12.8013 -1.11113e-15)
(-43.2789 15.2778 0)
(-40.2256 17.446 0)
(-37.1155 19.2641 0)
(-34.1241 20.7242 0)
(-31.3568 21.8866 3.73637e-15)
(-28.8448 22.8102 -1.46036e-14)
(-26.5887 23.5511 -7.14898e-15)
(-24.5712 24.1609 7.00942e-15)
(-22.768 24.6825 3.44627e-15)
(-46.8872 10.8541 -6.42829e-16)
(-47.7381 9.6825 -1.65394e-15)
(-44.4606 10.8839 -1.02869e-15)
(-41.7403 12.8867 0)
(-38.742 14.8483 0)
(-35.7769 16.678 3.72878e-15)
(-32.9463 18.2529 -7.27946e-15)
(-30.3003 19.556 1.42672e-14)
(-27.8626 20.6087 1.05061e-14)
(-25.6388 21.451 6.88496e-15)
(-23.6224 22.1288 -6.77739e-15)
(-21.8007 22.6864 4.9333e-18)
(-43.5121 4.80918 -1.1556e-18)
(-42.3184 6.63426 0)
(-38.8583 7.63043 1.92309e-15)
(-36.4918 9.576 -5.62983e-15)
(-34.3039 11.6456 5.45176e-15)
(-32.1132 13.6189 2.98172e-18)
(-29.933 15.3462 3.4666e-15)
(-27.7931 16.7952 -3.40741e-15)
(-25.7332 17.9749 -1.67974e-14)
(-23.7834 18.9189 0)