/*--------------------------------*- C++ -*----------------------------------*\
| =========                 |                                                 |
| \\      /  F ield         | OpenFOAM: The Open Source CFD Toolbox           |
|  \\    /   O peration     | Version:  2212                                  |
|   \\  /    A nd           | Website:  www.openfoam.com                      |
|    \\/     M anipulation  |                                                 |
\*---------------------------------------------------------------------------*/
FoamFile
{
    version     2.0;
    format      ascii;
    arch        "LSB;label=32;scalar=64";
    class       volScalarField;
    location    "990";
    object      p;
}
// * * * * * * * * * * * * * * * * * * * * * * * * * * * * * * * * * * * * * //

dimensions      [0 2 -2 0 0 0 0];

internalField   nonuniform List<scalar> 
50904
(
144318
148603
-261963
-253967
136648
141270
-258559
-249931
127413
132488
-254652
-245220
116115
121743
-249874
-239506
101936
108239
-243832
-232366
84215.4
91319.7
-236266
-223530
62473.5
70520.1
-227068
-212923
36192.9
45273.3
-216231
-200641
5203.84
15363.6
-204049
-187220
-28390.7
-17197.3
-191831
-174245
-63446.2
-51587.9
-180431
-162743
-96641.2
-84626.9
-171106
-154118
-122564
-111097
-165125
-149652
-137835
-127818
-161750
-148417
-139615
-131908
-159702
-148979
-130257
-125279
-158268
-149991
-119100
-116596
-157426
-151164
-108921
-108448
-157552
-152875
-100432
-101336
-158742
-155182
-95529.7
-96965.9
-161807
-158856
-93027.3
-94502.1
-165239
-162686
-91633.1
-93028.8
-168818
-166581
-89024.8
-90382.7
-171906
-169873
-87601.4
-88950.5
-173713
-171712
-87808.6
-89144.8
-174375
-172287
-89107.6
-90438.8
-174269
-172043
-90974.8
-92294.4
-173708
-171347
-92985.8
-94292.8
-172997
-170521
-94900.9
-96199.1
-172284
-169719
-96605.8
-97907.8
-171618
-168987
-98073.4
-99380.6
-171034
-168357
-99314.2
-100628
-170540
-167831
-100344
-101663
-170128
-167397
-101185
-102512
-169792
-167045
-101882
-103214
-169518
-166757
-102412
-103753
-169301
-166532
-104276
-94543.1
-158975
-161741
-155662
-167682
-162381
-177743
-165615
-182580
-168280
-185926
-170486
-188403
-104459
-93683.7
-157283
-158133
-154280
-163984
-160618
-173621
-163873
-178563
-166435
-182006
-168602
-184578
-104599
-92463.4
-155219
-153587
-152505
-159336
-158471
-168667
-161755
-173866
-164268
-177569
-166439
-180351
-105053
-91342
-152897
-148268
-150672
-154241
-156141
-163413
-159451
-169086
-161912
-173154
-164072
-176146
-106027
-90491.8
-150252
-141966
-148840
-148656
-153669
-157804
-156951
-164051
-159358
-168530
-161496
-171709
-107729
-90136.1
-147304
-134664
-147041
-142620
-151184
-151887
-154367
-158690
-156728
-163586
-158851
-166934
-110375
-90598.1
-144240
-126823
-145363
-136554
-148896
-146093
-151860
-153282
-154107
-158456
-156160
-161851
-114192
-92334.6
-141435
-119362
-144037
-131147
-147316
-141297
-150174
-148939
-152376
-154428
-154386
-157857
-119221
-95686.1
-139165
-113117
-142871
-126160
-145944
-136394
-148555
-143913
-150595
-149348
-152478
-152605
-125050
-100630
-138285
-110040
-142826
-123796
-146085
-134318
-148671
-141861
-150645
-147294
-152349
-150300
-131280
-107073
-138849
-110405
-143534
-123414
-146794
-133356
-149240
-140375
-151089
-145485
-152557
-148071
-137343
-114606
-141252
-114782
-145835
-126563
-149138
-135789
-151524
-142269
-153299
-147024
-154442
-149086
-142552
-122355
-145104
-122091
-149350
-132179
-152460
-140163
-154676
-145789
-156332
-149985
-156964
-151322
-146733
-129959
-149628
-131119
-153690
-139690
-156606
-146446
-158628
-151140
-160179
-154654
-161374
-156374
-149613
-136598
-153750
-140115
-157754
-147561
-160399
-153097
-162206
-156826
-163613
-159559
-164375
-160830
-150938
-141026
-156442
-146596
-160401
-153280
-162770
-157867
-164285
-160786
-165345
-162746
-165545
-163478
-151670
-144090
-158167
-150998
-162152
-157187
-164367
-161145
-165707
-163530
-166554
-164978
-166373
-165358
-152439
-146625
-159380
-154143
-163315
-159875
-165400
-163349
-166589
-165333
-167245
-166392
-166881
-166559
-153528
-149050
-160537
-156729
-164277
-161934
-166165
-164917
-167056
-166450
-167294
-167040
-167396
-167497
-154856
-151377
-161713
-158948
-165187
-163638
-166898
-166223
-167698
-167524
-167884
-167977
-167796
-168234
-155891
-153230
-162618
-160689
-165842
-164922
-167379
-167161
-168095
-168270
-168264
-168641
-168160
-168848
-156135
-154173
-163112
-161878
-166110
-165765
-167547
-167788
-168449
-168977
-168967
-169603
-167723
-168827
-155085
-153592
-163364
-162576
-166022
-166065
-167237
-167811
-168027
-168867
-168545
-169485
-167762
-169031
-153817
-152506
-163577
-163002
-165716
-165970
-166731
-167498
-167423
-168455
-167906
-169049
-167529
-168892
-152904
-151570
-163818
-163303
-165338
-165678
-166243
-167093
-166886
-168009
-167345
-168592
-167195
-168603
-152459
-150996
-164036
-163495
-164941
-165295
-165823
-166695
-166439
-167594
-166870
-168165
-166823
-168248
-152398
-150769
-164172
-163565
-164597
-164921
-165521
-166375
-166113
-167262
-166521
-167822
-166523
-167944
-152558
-150765
-164239
-163559
-164340
-164621
-165331
-166160
-165886
-167020
-166267
-167564
-166273
-167685
-152821
-150893
-164260
-163510
-164173
-164413
-165231
-166033
-165731
-166847
-166088
-167377
-166083
-167490
-153118
-151084
-164247
-163447
-164085
-164297
-165190
-165975
-165620
-166727
-165956
-167242
-165945
-167350
-153404
-151292
-164219
-163384
-164055
-164250
-165183
-165961
-165538
-166639
-165853
-167136
-165835
-167241
-153657
-151488
-164190
-163333
-164062
-164248
-165198
-165974
-165484
-166582
-165772
-167049
-165742
-167147
-153871
-151660
-164164
-163292
-164088
-164271
-165223
-166001
-165458
-166557
-165705
-166973
-165639
-167037
-154050
-151807
-164145
-163263
-164121
-164305
-165254
-166038
-165470
-166573
-165677
-166933
-165539
-166920
-154197
-151928
-164132
-163244
-164157
-164344
-165290
-166083
-165525
-166637
-165729
-166975
-165479
-166836
-154300
-152012
-164119
-163229
-164177
-164370
-165315
-166121
-165582
-166710
-165808
-167055
-165509
-166869
-172556
-190504
-174369
-192452
-175863
-193816
-177658
-195215
-180827
-197554
-188701
-204010
-170688
-186673
-172523
-188678
-174046
-190144
-175929
-191764
-179258
-194496
-187425
-201800
-168578
-182574
-170500
-184767
-172032
-186264
-173907
-187871
-177306
-190737
-185781
-198894
-166253
-178520
-168247
-180908
-169771
-182408
-171625
-183944
-175069
-186787
-183781
-195487
-163709
-174253
-165765
-176857
-167254
-178355
-169057
-179823
-172511
-182628
-181351
-191526
-161092
-169655
-163204
-172497
-164622
-173979
-166314
-175380
-169686
-178160
-178481
-187007
-158404
-164698
-160547
-167749
-161851
-169184
-163403
-170537
-166671
-173389
-175307
-182190
-156648
-160818
-158802
-164035
-159934
-165368
-161242
-166567
-164196
-169272
-172275
-177680
-154702
-155545
-156794
-158795
-157704
-159986
-158759
-161083
-161460
-163905
-169054
-172564
-154488
-153107
-156575
-156400
-157244
-157424
-157975
-158306
-160241
-160919
-166934
-169167
-154485
-150522
-156494
-153685
-156906
-154507
-157329
-155185
-159224
-157672
-165132
-165704
-156080
-151085
-158008
-154033
-158175
-154637
-158288
-155060
-159757
-157191
-164721
-164403
-158203
-152765
-160107
-155492
-160078
-155887
-159926
-156056
-161019
-157796
-165124
-164060
-162039
-157444
-162468
-158791
-162274
-158893
-162221
-158993
-163181
-160411
-166372
-165421
-164470
-161609
-164624
-162644
-164341
-162485
-164202
-162311
-164940
-163274
-167398
-167101
-165571
-164287
-165975
-165417
-165542
-165001
-165171
-164502
-165614
-165031
-167557
-167981
-166250
-166116
-166655
-167137
-166128
-166530
-165650
-165841
-165932
-166108
-167507
-168466
-166664
-167289
-166918
-168133
-166326
-167370
-165812
-166553
-165990
-166628
-167262
-168542
-167566
-168598
-167301
-169078
-166543
-168029
-165974
-166978
-165978
-166744
-166919
-168300
-167711
-169136
-167356
-169533
-166703
-168477
-166252
-167413
-166304
-167113
-167115
-168482
-167849
-169533
-167301
-169728
-166826
-168780
-166586
-167855
-166747
-167599
-167454
-168796
-166138
-168234
-165988
-168559
-166249
-168326
-166685
-168151
-167315
-168401
-167961
-169430
-166229
-168254
-165702
-168104
-166116
-168140
-166732
-168329
-167436
-168795
-168027
-169699
-166139
-168041
-165361
-167543
-165889
-167814
-166633
-168308
-167380
-168954
-167903
-169742
-165910
-167679
-165036
-166987
-165670
-167478
-166517
-168230
-167304
-169035
-167766
-169731
-165613
-167253
-164749
-166484
-165468
-167156
-166380
-168102
-167192
-169032
-167612
-169663
-165352
-166888
-164527
-166083
-165310
-166894
-166264
-167982
-167094
-169010
-167486
-169599
-165155
-166605
-164367
-165786
-165190
-166696
-166166
-167882
-167011
-168987
-167396
-169558
-165013
-166396
-164254
-165569
-165104
-166548
-166089
-167799
-166948
-168968
-167352
-169552
-164899
-166239
-164165
-165417
-165033
-166444
-166019
-167732
-166895
-168958
-167345
-169586
-164791
-166107
-164075
-165291
-164962
-166358
-165952
-167674
-166858
-168962
-167371
-169648
-164676
-165975
-163962
-165156
-164872
-166261
-165881
-167614
-166850
-169000
-167425
-169735
-164508
-165787
-163779
-164952
-164730
-166110
-165791
-167531
-166885
-169093
-167496
-169839
-164268
-165508
-163482
-164617
-164505
-165858
-165681
-167415
-166978
-169270
-167588
-169967
-163871
-165026
-162909
-163933
-164107
-165367
-165560
-167257
-167143
-169549
-167709
-170135
-163393
-164454
-162139
-162997
-163663
-164780
-165461
-167108
-167314
-169846
-167816
-170292
-199075
-211033
-205305
-216758
-207627
-219504
-208903
-221180
-209953
-222809
-211234
-225228
-198292
-210039
-204879
-216407
-207347
-219248
-208689
-220919
-209807
-222551
-211240
-225135
-197250
-208608
-204286
-215765
-206959
-218826
-208390
-220565
-209587
-222245
-211208
-225061
-195840
-206692
-203314
-214545
-206170
-217765
-207674
-219542
-208955
-221291
-210806
-224437
-193926
-204206
-201809
-212704
-204839
-216112
-206407
-217942
-207766
-219763
-209861
-223254
-191397
-201060
-199608
-210205
-202786
-213846
-204399
-215750
-205819
-217642
-208159
-221487
-188271
-197318
-196574
-206955
-199780
-210727
-201372
-212639
-202818
-214564
-205417
-218750
-184865
-193354
-193125
-203533
-196324
-207470
-197844
-209352
-199242
-211221
-201995
-215567
-180911
-188414
-188655
-198639
-191641
-202545
-193002
-204348
-194292
-206139
-197091
-210520
-177706
-184498
-184864
-194614
-187606
-198423
-188751
-200065
-189844
-201661
-192507
-205796
-174645
-180017
-180880
-189291
-183246
-192752
-184142
-194190
-184985
-195548
-187245
-199132
-172848
-177116
-178127
-185274
-180093
-188265
-180727
-189433
-181273
-190470
-182884
-193223
-171829
-174817
-176082
-181513
-177618
-183904
-178001
-184768
-178229
-185438
-178987
-187158
-171433
-173869
-174655
-179023
-175800
-180739
-175929
-181127
-175893
-181394
-176140
-182680
-171153
-173527
-173482
-177264
-174237
-178321
-174082
-178224
-173766
-178071
-173634
-178951
-170602
-173087
-172392
-175893
-172788
-176440
-172333
-175948
-171827
-175509
-172065
-176515
-170020
-172628
-171488
-174858
-171670
-175080
-171039
-174325
-170449
-173703
-171049
-174841
-169545
-172197
-170875
-174114
-170817
-174042
-170003
-173042
-169300
-172253
-170153
-173562
-169775
-172304
-171286
-174199
-170494
-173460
-169077
-171861
-167667
-170426
-167597
-171005
-169678
-172156
-171114
-173873
-170349
-173100
-168932
-171415
-167646
-170031
-167980
-170946
-169723
-172149
-171144
-173802
-170440
-173001
-169125
-171287
-167990
-169979
-168349
-170946
-168849
-171435
-169898
-172781
-170426
-172960
-170868
-172701
-171419
-172763
-172926
-174709
-168618
-171210
-169515
-172434
-170220
-172831
-170999
-172988
-171651
-173181
-171853
-173907
-168319
-170908
-169094
-172034
-169865
-172575
-170819
-173041
-171456
-173292
-170569
-172906
-167994
-170583
-168669
-171636
-169504
-172319
-170607
-173067
-171303
-173447
-169897
-172446
-167664
-170236
-168267
-171237
-169142
-172031
-170335
-172995
-171112
-173531
-169617
-172329
-167361
-169915
-167923
-170901
-168828
-171783
-170081
-172910
-170952
-173607
-169563
-172421
-167073
-169611
-167617
-170605
-168543
-171551
-169831
-172794
-170775
-173613
-169480
-172441
-166815
-169334
-167385
-170385
-168329
-171382
-169633
-172705
-170624
-173617
-169420
-172497
-166579
-169079
-167200
-170210
-168161
-171238
-169469
-172605
-170493
-173582
-169364
-172505
-166369
-168848
-167054
-170084
-168044
-171142
-169359
-172540
-170414
-173567
-169343
-172526
-166182
-168645
-166909
-169969
-167963
-171072
-169303
-172502
-170394
-173574
-169352
-172548
-166011
-168464
-166736
-169831
-167937
-171045
-169343
-172541
-170487
-173669
-169451
-172645
-165837
-168282
-166512
-169631
-167975
-171074
-169520
-172702
-170751
-173912
-169667
-172848
-165639
-168073
-166223
-169351
-168102
-171212
-169992
-173175
-171414
-174562
-170109
-173288
-165447
-167868
-165931
-169060
-168241
-171381
-170599
-173831
-172344
-175515
-170602
-173811
-212459
-227877
-213530
-229923
-214618
-231921
-215875
-234277
-217375
-237084
-219269
-240612
-213750
-226208
-212592
-228046
-213793
-230458
-215003
-232830
-216407
-235613
-218085
-238864
-220241
-242928
-214909
-228763
-212706
-228275
-214045
-230987
-215402
-233698
-216996
-237029
-218933
-241033
-221478
-246011
-216432
-232175
-212468
-228016
-213948
-231001
-215475
-234000
-217303
-237923
-219598
-243033
-222692
-249460
-218166
-236232
-211698
-227237
-213324
-230483
-215037
-233710
-217134
-238175
-219879
-244567
-223699
-253023
-220078
-241024
-210168
-225883
-211934
-229366
-213844
-232776
-216240
-237701
-219505
-245335
-224203
-256154
-222036
-246495
-207570
-223506
-209421
-227129
-211537
-230691
-214278
-236034
-218130
-244780
-223802
-257883
-223804
-252289
-204207
-220534
-206038
-224108
-208257
-227629
-211215
-233118
-215523
-242505
-222077
-257190
-224901
-257421
-199310
-215631
-201133
-219224
-203492
-222803
-206725
-228506
-211533
-238357
-218956
-253916
-224878
-260641
-194573
-210748
-196246
-214129
-198567
-217513
-201791
-223006
-206702
-232594
-214579
-248021
-223221
-260382
-189089
-203780
-190773
-207171
-193100
-210501
-196312
-215891
-201270
-225234
-209388
-240236
-219754
-255919
-184332
-197208
-186076
-200554
-188353
-203724
-191384
-208755
-196088
-217430
-203927
-231334
-214610
-247592
-179966
-190367
-181876
-193731
-184112
-196741
-186885
-201330
-191153
-209169
-198304
-221615
-208174
-236614
-176500
-184985
-177933
-187493
-179994
-190184
-182646
-194455
-186591
-201537
-193003
-212421
-201406
-224974
-173505
-180506
-174541
-182324
-176498
-184727
-178853
-188411
-182214
-194348
-187601
-203302
-194285
-213121
-171982
-177828
-172301
-178842
-173794
-180696
-175695
-183698
-178498
-188615
-183013
-196005
-188356
-203715
-170799
-175846
-170376
-176143
-171570
-177623
-173205
-180158
-175663
-184363
-179642
-190720
-184167
-197107
-169941
-174434
-169093
-174260
-169927
-175355
-171307
-177485
-173522
-181159
-177188
-186836
-181430
-192589
-168941
-172993
-169603
-173947
-169496
-174228
-170236
-175649
-172097
-178691
-175385
-183678
-179778
-189435
-169059
-172622
-169109
-173016
-168892
-173150
-169478
-174301
-171067
-176875
-173970
-181270
-178456
-187060
-169302
-172469
-169218
-172698
-168902
-172697
-169287
-173550
-170558
-175623
-173013
-179369
-177413
-185121
-170352
-173259
-166862
-170578
-167572
-171353
-168785
-172799
-170211
-174851
-172548
-178301
-176683
-183772
-169478
-172469
-167312
-170843
-168077
-171658
-169080
-172884
-170293
-174655
-172436
-177808
-176656
-183322
-168738
-171793
-167896
-171297
-168550
-172032
-169319
-173047
-170358
-174629
-172305
-177558
-176936
-183468
-168413
-171526
-168250
-171623
-168816
-172296
-169461
-173207
-170405
-174696
-172139
-177429
-177225
-183860
-168355
-171485
-168405
-171755
-168895
-172388
-169478
-173266
-170387
-174739
-171901
-177301
-177304
-184166
-168339
-171495
-168416
-171775
-168857
-172390
-169405
-173256
-170306
-174746
-171649
-177196
-177088
-184219
-168226
-171422
-168328
-171707
-168745
-172323
-169264
-173186
-170164
-174709
-171421
-177141
-176739
-184178
-168183
-171443
-168244
-171643
-168630
-172249
-169104
-173091
-169986
-174630
-171191
-177076
-176353
-184072
-168124
-171396
-168141
-171539
-168502
-172142
-168923
-172954
-169782
-174502
-170969
-176993
-175973
-183912
-168075
-171354
-168057
-171451
-168391
-172042
-168748
-172807
-169583
-174358
-170775
-176909
-175621
-183729
-168036
-171305
-167994
-171372
-168288
-171943
-168586
-172661
-169401
-174215
-170604
-176818
-175301
-183534
-168038
-171289
-167946
-171304
-168185
-171840
-168438
-172521
-169242
-174083
-170461
-176737
-175038
-183371
-168062
-171292
-167878
-171211
-168067
-171718
-168302
-172388
-169102
-173961
-170336
-176658
-174818
-183229
-168054
-171269
-167738
-171044
-167925
-171570
-168180
-172265
-168982
-173852
-170226
-176584
-174638
-183110
-167885
-171104
-167566
-170848
-167788
-171429
-168078
-172163
-168885
-173764
-170138
-176525
-174501
-183026
-199136
-211372
-195401
-204273
-142198
-150338
-195758
-204973
-200017
-213226
-195973
-205381
-142214
-150603
-196937
-206235
-201181
-215714
-196748
-206895
-142214
-150943
-198475
-207887
-202527
-218661
-197689
-208746
-142192
-151332
-200411
-209961
-204059
-222134
-198813
-211001
-142129
-151770
-202800
-212528
-205724
-226136
-200122
-213714
-142012
-152269
-205873
-215821
-207452
-230596
-201601
-216899
-141805
-152802
-209734
-219959
-209011
-235102
-203133
-220415
-141469
-153331
-214577
-225147
-210118
-238929
-204511
-223911
-140973
-153791
-220406
-231400
-210318
-240966
-205414
-226801
-140354
-154144
-227308
-238795
-209270
-240163
-205283
-228038
-139586
-154194
-234919
-246960
-206895
-236307
-203579
-226742
-138930
-154119
-243414
-256010
-202988
-229469
-199702
-222033
-139034
-154370
-252104
-265119
-197991
-220641
-194153
-214420
-141082
-155923
-258004
-271076
-192051
-210573
-187777
-205109
-144703
-158453
-259754
-272338
-186863
-202126
-183223
-197852
-147681
-160296
-262485
-273888
-183294
-196161
-180589
-193050
-150805
-162469
-263416
-273182
-181374
-192468
-179731
-190527
-153722
-164604
-263086
-271000
-181147
-190847
-181136
-190624
-155478
-165715
-264643
-270665
-180842
-189592
-183288
-191817
-155176
-165008
-268533
-272909
-180416
-188422
-186255
-193982
-154030
-163601
-273531
-276642
-179142
-186709
-189339
-196548
-151928
-161354
-279075
-281456
-177712
-185035
-192842
-199833
-147475
-156926
-289448
-291454
-176406
-183718
-195441
-202562
-143463
-153138
-297934
-299894
-175480
-182946
-196614
-204128
-141368
-151301
-302384
-304594
-174785
-182513
-196823
-204854
-140687
-150854
-304175
-306762
-174527
-182547
-196232
-204716
-141469
-151827
-303412
-306328
-174601
-182876
-195033
-203896
-143338
-153816
-300497
-303761
-174616
-183129
-193670
-202916
-145479
-155992
-296877
-300563
-174639
-183394
-192393
-201937
-147622
-158154
-293172
-297189
-174712
-183667
-191246
-201004
-149623
-160169
-289573
-293826
-174817
-183926
-190242
-200156
-151478
-162022
-286119
-290568
-174936
-184161
-189398
-199428
-153117
-163640
-282976
-287604
-175036
-184349
-188699
-198816
-154509
-165009
-280227
-285003
-175113
-184499
-188115
-198301
-155699
-166174
-277807
-282715
-175177
-184623
-187669
-197911
-156672
-167123
-275838
-280852
-770484
-795774
1.19933e+06
1.25962e+06
-2.51851e+06
-2.62425e+06
-763747
-788889
1.19104e+06
1.25154e+06
-2.51697e+06
-2.62349e+06
-755584
-780527
1.18127e+06
1.24201e+06
-2.51411e+06
-2.62158e+06
-745343
-769992
1.16949e+06
1.23046e+06
-2.51051e+06
-2.6191e+06
-732068
-756270
1.15431e+06
1.21548e+06
-2.50578e+06
-2.61567e+06
-714613
-738154
1.13397e+06
1.19522e+06
-2.49856e+06
-2.60995e+06
-691735
-714351
1.10708e+06
1.16821e+06
-2.48631e+06
-2.59934e+06
-661913
-683258
1.07153e+06
1.13226e+06
-2.46823e+06
-2.58305e+06
-623738
-643311
1.02465e+06
1.08438e+06
-2.4427e+06
-2.55925e+06
-577155
-594397
962523
1.02046e+06
-2.40178e+06
-2.51955e+06
-519998
-534490
880517
935720
-2.3363e+06
-2.45478e+06
-453692
-465156
776437
827928
-2.23513e+06
-2.35304e+06
-384131
-392395
653083
699886
-2.08662e+06
-2.20199e+06
-316076
-321394
518441
560160
-1.88227e+06
-1.99286e+06
-262294
-265406
394221
431892
-1.6489e+06
-1.75273e+06
-235604
-237626
316483
352917
-1.45785e+06
-1.55592e+06
-221813
-223192
264240
300265
-1.29569e+06
-1.38723e+06
-215939
-217052
223107
258519
-1.1596e+06
-1.24401e+06
-216679
-218000
192127
226628
-1.04725e+06
-1.12533e+06
-220944
-222814
165161
197894
-955522
-1.02789e+06
-226472
-228852
142202
172930
-882613
-950020
-233366
-236143
126634
155669
-830795
-894638
-244737
-247881
128439
156763
-817151
-879895
-253806
-257093
134637
162721
-820381
-883457
-258738
-261953
139105
167071
-827335
-891318
-260019
-262979
140950
168774
-834157
-899117
-258503
-261097
140280
167912
-839306
-905101
-255352
-257508
138102
165474
-843494
-909922
-251433
-253116
135174
162228
-846973
-913778
-247244
-248458
131795
158508
-849424
-916443
-243162
-243946
128316
154712
-850955
-918110
-239390
-239793
124962
151058
-851895
-919091
-236034
-236111
121896
147720
-852470
-919633
-233129
-232933
119202
144788
-852829
-919929
-230582
-230150
116748
142121
-852840
-919849
-228521
-227899
114660
139848
-852288
-919175
-23478.5
31433.3
61547.4
87918.7
111316
125192
-207027
-207405
-224012
-241652
-254860
-264619
-26987.6
26821.8
55905.6
81364
104142
117701
-206400
-206013
-222351
-239647
-252467
-261802
-31273.6
21223.5
49065.5
73427.6
95465.8
108650
-205741
-204459
-220502
-237413
-249786
-258615
-36499.6
14373.8
40724.3
63754.9
84878.5
97599.3
-204851
-202540
-218208
-234634
-246449
-254654
-43003.4
5798.11
30319.5
51692.9
71650.6
83775.7
-203594
-200084
-215250
-231038
-242135
-249547
-51077
-4917.91
17381.4
36709.5
55193.3
66562.7
-201833
-196961
-211459
-226421
-236606
-243024
-60979.3
-18153.5
1513.49
18381.7
35053.1
45505.4
-199393
-193070
-206707
-220633
-229703
-234928
-72935.2
-34257.4
-17650.1
-3685.26
10786.9
20134.1
-196125
-188340
-200891
-213559
-221315
-225166
-86979.7
-53382.5
-40242.6
-29612.1
-17747.3
-9710.01
-191940
-182833
-194052
-205253
-211535
-213887
-102664
-74919.2
-65325.9
-58095.1
-48922.9
-42122.4
-186920
-176961
-186689
-196374
-201218
-202165
-118839
-97721.6
-91674.5
-87818.8
-81416
-75854
-181312
-171341
-179444
-187614
-191122
-190835
-133360
-119306
-116538
-115751
-112001
-107634
-175647
-166843
-173284
-180033
-182399
-181134
-142882
-135542
-135310
-136846
-135301
-132031
-170380
-164097
-169063
-174620
-176154
-174264
-144599
-142830
-144140
-147188
-147444
-145424
-164814
-162058
-165826
-170515
-171663
-169650
-139346
-141238
-142461
-145466
-146412
-145260
-158837
-160217
-163132
-167024
-167943
-166097
-129988
-133159
-132929
-134556
-135048
-134208
-153307
-157959
-160450
-163748
-164580
-163146
-120466
-124016
-122338
-122446
-122265
-121627
-148594
-155578
-158036
-161008
-161897
-160986
-111829
-115557
-112871
-111699
-110863
-110352
-144781
-153447
-156214
-159165
-160298
-159985
-104436
-108383
-105335
-103324
-101879
-101272
-142074
-151972
-155320
-158541
-160060
-160313
-97959.2
-102498
-99940.2
-97926.2
-96404.6
-95979.7
-140270
-151256
-155562
-159495
-161681
-162625
-93029.4
-98312.8
-96654.2
-95052.7
-93655.2
-93398.2
-138892
-150679
-156039
-160870
-163816
-165463
-89513.1
-95394.4
-94470.7
-93327.8
-92085.2
-92050.4
-137632
-150114
-156401
-162207
-165986
-168456
-85789.5
-91841.1
-91272.9
-90565.7
-89429.8
-89651.3
-136694
-149775
-156620
-163321
-167856
-171135
-83324.3
-89572.7
-89256
-88932.9
-87863.3
-88346.9
-135836
-149282
-156343
-163682
-168762
-172669
-82367.3
-88898.9
-88841.7
-88859.9
-87849.7
-88556.5
-134903
-148510
-155594
-163330
-168765
-173125
-82541.4
-89365.4
-89556.7
-89844.8
-88892.4
-89761.4
-133947
-147600
-154623
-162567
-168208
-172864
-83410.3
-90486.7
-90902.7
-91386.3
-90496.6
-91481.4
-133039
-146688
-153627
-161647
-167384
-172202
-84627.9
-91897.9
-92499
-93109.3
-92273
-93334.1
-132223
-145856
-152721
-160745
-166520
-171421
-85953.8
-93363.5
-94108.9
-94790.2
-93991.5
-95095.5
-131514
-145133
-151942
-159936
-165721
-170658
-87240
-94746.1
-95600
-96312.1
-95536.7
-96664.1
-130913
-144526
-151298
-159244
-165021
-169967
-88410.2
-95982.4
-96919.9
-97640.4
-96880.7
-98022.7
-130413
-144026
-150775
-158670
-164432
-169372
-89432.8
-97051.4
-98054.5
-98771.2
-98021.8
-99173.3
-130002
-143620
-150357
-158202
-163946
-168876
-90302.3
-97954.6
-99009.3
-99716.2
-98973.6
-100132
-129666
-143291
-150022
-157822
-163549
-168466
-91032.6
-98708.6
-99803.6
-100497
-99758.3
-100920
-129393
-143027
-149758
-157518
-163231
-168134
-91655.9
-99346.8
-100473
-101151
-100413
-101576
-129168
-142812
-149545
-157272
-162972
-167863
-92156
-99847.8
-100993
-101655
-100913
-102076
-128994
-142641
-149376
-157077
-162766
-167648
-133765
-128655
-128297
-128802
-124934
-122830
-152662
-154275
-158757
-166363
-170493
-176085
-151123
-148856
-151385
-158322
-162416
-168735
-150611
-150570
-153218
-160541
-165183
-172168
-154327
-150497
-152964
-160414
-165372
-172811
-171694
-150526
-153037
-160581
-165753
-173492
-137833
-150404
-153038
-160680
-166039
-174018
-134477
-129187
-128977
-129556
-125679
-123456
-152602
-154152
-158665
-166203
-170169
-175466
-151276
-148953
-151570
-158522
-162544
-168623
-150522
-150552
-153235
-160529
-165058
-171766
-154510
-150554
-153045
-160477
-165329
-172495
-175868
-150656
-153109
-160620
-165673
-173133
-151038
-150512
-153119
-160722
-165957
-173653
-135365
-129836
-129805
-130472
-126575
-124182
-152566
-154033
-158592
-166054
-169823
-174746
-151510
-149075
-151790
-158749
-162661
-168412
-150564
-150553
-153283
-160547
-164932
-171285
-155020
-150639
-153155
-160562
-165277
-172094
-178138
-150842
-153215
-160688
-165593
-172705
-158233
-150662
-153225
-160785
-165874
-173227
-136500
-130703
-130901
-131695
-127801
-125213
-152510
-153867
-158464
-165828
-169361
-173819
-151808
-149251
-152080
-159047
-162827
-168183
-150722
-150557
-153334
-160554
-164762
-170691
-156217
-150757
-153292
-160662
-165202
-171601
-178559
-151070
-153354
-160775
-165498
-172195
-160435
-150825
-153351
-160859
-165770
-172718
-137985
-131893
-132391
-133366
-129515
-126700
-152419
-153618
-158236
-165461
-168697
-172557
-152157
-149510
-152474
-159445
-163066
-167933
-150980
-150574
-153398
-160561
-164554
-169976
-157650
-150913
-153454
-160765
-165080
-170971
-178445
-151355
-153535
-160885
-165375
-171565
-160987
-151021
-153513
-160953
-165638
-172095
-139903
-133507
-134392
-135615
-131861
-128778
-152291
-153264
-157875
-164902
-167763
-170860
-152531
-149866
-152979
-159939
-163349
-167598
-151372
-150632
-153509
-160605
-164343
-169158
-158868
-151112
-153643
-160870
-164905
-170183
-178109
-151715
-153765
-161012
-165210
-170791
-160979
-151269
-153720
-161068
-165472
-171347
-142300
-135645
-137008
-138553
-134965
-131570
-152123
-152805
-157371
-164138
-166549
-168718
-152881
-150313
-153568
-160473
-163595
-167080
-151892
-150773
-153710
-160722
-164155
-168250
-159693
-151371
-153879
-160991
-164683
-169221
-177569
-152174
-154058
-161163
-164991
-169813
-160748
-151587
-153980
-161197
-165243
-170385
-145208
-138377
-140309
-142253
-138920
-135182
-151969
-152286
-156770
-163224
-165132
-166269
-153188
-150819
-154176
-160951
-163698
-166322
-152503
-151033
-154017
-160910
-163991
-167348
-160187
-151721
-154178
-161140
-164454
-168284
-176856
-152758
-154422
-161337
-164760
-168876
-160409
-151994
-154294
-161340
-165001
-169487
-148561
-141695
-144263
-146669
-143682
-139579
-151924
-151822
-156199
-162301
-163679
-163684
-153436
-151345
-154749
-161301
-163567
-165150
-153108
-151430
-154440
-161146
-163775
-166169
-160431
-152205
-154589
-161334
-164164
-167023
-176011
-153517
-154916
-161561
-164458
-167572
-160017
-152542
-154726
-161530
-164684
-168209
-152066
-145371
-148534
-151379
-148779
-144316
-152076
-151598
-155863
-161620
-162527
-161520
-153618
-151872
-155252
-161507
-163283
-163936
-153604
-151947
-154925
-161377
-163556
-165155
-160419
-152820
-155076
-161547
-163918
-166030
-174930
-154448
-155504
-161811
-164210
-166576
-159644
-153200
-155185
-161682
-164361
-167188
-155211
-149090
-152737
-155967
-153797
-149048
-152425
-151803
-155955
-161393
-161919
-160044
-153695
-152452
-155768
-161685
-162989
-162741
-153923
-152618
-155529
-161656
-163350
-164073
-160177
-153651
-155751
-161855
-163705
-164934
-173604
-155668
-156342
-162192
-164010
-165464
-159464
-154165
-155880
-161957
-164075
-166022
-157459
-152461
-156348
-159828
-158089
-153217
-152863
-152548
-156569
-161718
-162025
-159628
-153583
-153137
-156358
-161969
-162994
-162215
-153831
-153318
-156139
-161985
-163413
-163642
-159344
-154474
-156425
-162226
-163797
-164540
-171523
-156900
-157212
-162663
-164149
-165099
-158861
-155127
-156522
-162237
-164040
-165494
-158420
-155159
-158910
-162397
-160998
-156193
-153242
-153853
-157675
-162501
-162676
-160082
-153481
-154282
-157394
-162611
-163375
-162300
-153906
-154598
-157295
-162684
-163771
-163639
-158868
-155998
-157761
-163023
-164188
-164522
-169947
-158943
-158854
-163627
-164622
-165113
-159334
-156974
-157831
-162878
-164173
-165131
-157074
-156333
-159626
-163099
-162214
-157919
-152535
-154753
-158204
-162925
-163401
-161123
-152088
-154799
-157785
-162989
-164093
-163251
-152143
-154882
-157588
-163026
-164497
-164556
-155702
-155923
-157884
-163260
-164865
-165399
-163980
-158430
-158818
-163794
-165308
-166035
-155281
-157120
-158439
-163762
-165602
-166766
-153763
-156260
-159009
-162297
-161855
-158349
-150619
-155234
-158269
-162805
-163574
-162000
-149940
-155246
-158065
-163130
-164489
-164276
-149923
-155343
-157993
-163293
-164978
-165584
-152474
-156266
-158366
-163627
-165439
-166469
-158200
-158419
-159337
-164273
-166020
-167213
-150508
-156771
-158638
-163965
-166022
-167603
-149582
-154722
-157107
-160267
-160250
-157624
-147971
-154696
-157450
-161919
-163035
-162207
-147421