/*--------------------------------*- C++ -*----------------------------------*\
| =========                 |                                                 |
| \\      /  F ield         | OpenFOAM: The Open Source CFD Toolbox           |
|  \\    /   O peration     | Version:  2212                                  |
|   \\  /    A nd           | Website:  www.openfoam.com                      |
|    \\/     M anipulation  |                                                 |
\*---------------------------------------------------------------------------*/
FoamFile
{
    version     2.0;
    format      ascii;
    arch        "LSB;label=32;scalar=64";
    class       surfaceScalarField;
    location    "990";
    object      phi;
}
// * * * * * * * * * * * * * * * * * * * * * * * * * * * * * * * * * * * * * //

dimensions      [0 3 -1 0 0 0 0];

oriented        oriented;

internalField   nonuniform List<scalar> 
146294
(
-4.53001e-06
1.08363e-05
-2.40769e-08
-1.2033e-05
5.75084e-06
9.51071e-06
-3.18552e-08
-1.08266e-05
-3.17663e-06
-3.11895e-06
-6.57015e-09
9.92041e-06
4.04137e-06
2.81089e-07
8.58936e-06
-2.18166e-06
-5.67521e-06
1.35655e-05
-5.95483e-08
-1.50457e-05
7.19091e-06
1.18861e-05
-7.33822e-08
-1.35196e-05
-4.00023e-06
-3.97926e-06
-2.38016e-08
1.24417e-05
5.12028e-06
2.68563e-07
1.07465e-05
-2.82707e-06
-7.10243e-06
1.69429e-05
-1.03359e-07
-1.87735e-05
8.97689e-06
1.48137e-05
-1.09015e-07
-1.68414e-05
-5.03906e-06
-5.08432e-06
-6.20718e-08
1.55764e-05
6.48902e-06
2.60851e-07
1.34133e-05
-3.67622e-06
-8.87895e-06
2.11024e-05
-1.6381e-07
-2.3349e-05
1.11861e-05
1.84005e-05
-1.33731e-07
-2.09031e-05
-6.35164e-06
-6.50384e-06
-1.31486e-07
1.94522e-05
8.22341e-06
2.66145e-07
1.66864e-05
-4.79496e-06
-1.10877e-05
2.61896e-05
-2.63005e-07
-2.8914e-05
1.39113e-05
2.27586e-05
-1.48342e-07
-2.58185e-05
-8.0131e-06
-8.32546e-06
-2.43328e-07
2.42107e-05
1.04162e-05
2.99538e-07
2.06678e-05
-6.26814e-06
-1.38294e-05
3.23545e-05
-4.55849e-07
-3.55948e-05
1.72626e-05
2.79967e-05
-1.73642e-07
-3.1682e-05
-1.01188e-05
-1.06564e-05
-4.07774e-07
2.99969e-05
1.31784e-05
3.874e-07
2.54538e-05
-8.20132e-06
-1.74031e-05
4.01287e-05
-7.34287e-07
-4.40466e-05
2.15995e-05
3.4533e-05
-1.81051e-07
-3.90164e-05
-1.29123e-05
-1.37349e-05
-5.48399e-07
3.72309e-05
1.67733e-05
6.29796e-07
3.13635e-05
-1.08079e-05
-2.17477e-05
4.92858e-05
-1.39028e-06
-5.37066e-05
2.68244e-05
4.20953e-05
-3.59244e-07
-4.72791e-05
-1.63856e-05
-1.75951e-05
-7.12953e-07
4.58181e-05
2.12274e-05
1.05474e-06
3.82128e-05
-1.41376e-05
-2.68827e-05
5.95092e-05
-2.84503e-06
-6.4048e-05
3.28762e-05
5.04678e-05
-1.04862e-06
-5.60391e-05
-2.06221e-05
-2.22816e-05
-9.00108e-07
5.5478e-05
2.64999e-05
1.69265e-06
4.58301e-05
-1.82818e-05
-3.24021e-05
7.00467e-05
-6.13115e-06
-7.38841e-05
3.95255e-05
5.84949e-05
-2.93013e-06
-6.38549e-05
-2.51606e-05
-2.75468e-05
-1.71251e-06
6.58212e-05
3.25847e-05
2.1509e-06
5.33317e-05
-2.28418e-05
-3.9256e-05
8.17975e-05
-1.15487e-05
-8.46204e-05
4.74962e-05
6.76576e-05
-6.40401e-06
-7.24427e-05
-3.09972e-05
-3.39335e-05
-2.83047e-06
7.72073e-05
3.96416e-05
2.57776e-06
6.18373e-05
-2.854e-05
-4.81922e-05
9.57042e-05
-1.99777e-05
-9.69665e-05
5.78833e-05
7.83222e-05
-1.22362e-05
-8.20516e-05
-3.86307e-05
-4.2062e-05
-4.56868e-06
9.0903e-05
4.86014e-05
2.63724e-06
7.19489e-05
-3.57483e-05
-5.74458e-05
0.000107535
-3.20304e-05
-0.000106823
6.87865e-05
8.66846e-05
-2.06232e-05
-8.92545e-05
-4.6489e-05
-5.01842e-05
-8.08758e-06
0.000103379
5.78597e-05
1.48623e-06
8.03345e-05
-4.26831e-05
-7.18978e-05
0.000124009
-4.63407e-05
-0.000123059
8.52575e-05
9.91201e-05
-3.16419e-05
-0.00010177
-5.82292e-05
-6.1696e-05
-1.23152e-05
0.00011977
7.01627e-05
-1.15877e-06
9.22175e-05
-5.21483e-05
-9.00451e-05
0.00014258
-6.02688e-05
-0.000145622
0.000107016
0.000113154
-4.25768e-05
-0.000119823
-7.24414e-05
-7.43161e-05
-1.68806e-05
0.000136828
8.4633e-05
-4.48778e-06
0.000104588
-6.24213e-05
-9.1434e-05
0.00013634
-6.77511e-05
-0.000146741
0.000109318
0.000108651
-4.86394e-05
-0.000121439
-7.25834e-05
-7.27122e-05
-1.94021e-05
0.000128661
8.29121e-05
-6.58549e-06
9.88195e-05
-6.07825e-05
-9.2657e-05
0.000133752
-6.95288e-05
-0.000151403
0.000112086
0.000107353
-5.02714e-05
-0.000126341
-7.20364e-05
-7.14824e-05
-1.93531e-05
0.000123262
8.19233e-05
-6.80488e-06
9.53525e-05
-5.92621e-05
-9.22112e-05
0.0001308
-6.80396e-05
-0.000153393
0.000113315
0.000105733
-4.94089e-05
-0.00012906
-6.97462e-05
-6.94421e-05
-1.70815e-05
0.000117898
8.0073e-05
-5.41695e-06
9.20981e-05
-5.71947e-05
-9.15278e-05
0.000125763
-6.61963e-05
-0.000150557
0.000114479
0.000101647
-4.82201e-05
-0.00012779
-6.65727e-05
-6.43254e-05
-1.22887e-05
0.000110896
7.43999e-05
-2.5338e-06
8.79563e-05
-5.35183e-05
-8.90183e-05
0.000115246
-6.25399e-05
-0.000143113
0.00011323
9.35697e-05
-4.64011e-05
-0.00012259
-6.18168e-05
-5.70193e-05
-7.59178e-06
0.000101938
6.56297e-05
2.1935e-07
8.245e-05
-4.86528e-05
-8.18774e-05
0.000101805
-5.76464e-05
-0.00013101
0.00010619
8.30319e-05
-4.42448e-05
-0.000112922
-5.41423e-05
-4.93298e-05
-3.37185e-06
9.06393e-05
5.62751e-05
2.53982e-06
7.48034e-05
-4.34219e-05
-6.89989e-05
8.56824e-05
-5.07294e-05
-0.000115384
9.17846e-05
7.07802e-05
-4.10738e-05
-9.97071e-05
-4.32424e-05
-4.25383e-05
-2.83531e-07
7.72587e-05
4.78736e-05
4.15261e-06
6.5312e-05
-3.86829e-05
-4.26519e-05
5.54018e-05
-4.16126e-05
-8.03809e-05
5.85151e-05
4.61728e-05
-3.50405e-05
-6.98023e-05
-2.50551e-05
-2.93413e-05
1.11158e-06
5.08616e-05
3.24864e-05
4.30883e-06
4.4058e-05
-2.73828e-05
-2.55993e-05
3.52547e-05
-3.16676e-05
-5.58905e-05
3.62906e-05
2.94847e-05
-2.74256e-05
-4.8793e-05
-1.39056e-05
-1.98493e-05
1.46504e-06
3.31268e-05
2.16237e-05
3.63236e-06
2.92929e-05
-1.89811e-05
-1.51102e-05
2.22021e-05
-2.2654e-05
-3.82491e-05
2.21441e-05
1.85549e-05
-2.00049e-05
-3.36132e-05
-7.47233e-06
-1.31381e-05
1.27011e-06
2.14095e-05
1.41256e-05
2.67215e-06
1.92195e-05
-1.28425e-05
-8.76318e-06
1.36902e-05
-1.53931e-05
-2.54543e-05
1.32667e-05
1.1414e-05
-1.38151e-05
-2.24822e-05
-3.88451e-06
-8.39729e-06
9.39516e-07
1.34927e-05
8.92543e-06
1.80562e-06
1.22665e-05
-8.38328e-06
-5.19596e-06
8.62235e-06
-9.94465e-06
-1.69926e-05
8.11806e-06
7.16544e-06
-9.06009e-06
-1.50822e-05
-2.03405e-06
-5.40675e-06
6.31433e-07
8.63877e-06
5.69843e-06
1.14026e-06
7.92255e-06
-5.49849e-06
-3.02188e-06
5.33709e-06
-6.17641e-06
-1.09542e-05
4.87094e-06
4.41699e-06
-5.69568e-06
-9.77771e-06
-1.02545e-06
-3.38787e-06
3.68812e-07
5.4326e-06
3.55498e-06
6.61924e-07
5.00444e-06
-3.49697e-06
-1.70319e-06
3.19613e-06
-3.68598e-06
-6.8248e-06
2.84155e-06
2.63948e-06
-3.44746e-06
-6.10722e-06
-4.83585e-07
-2.0316e-06
1.97436e-07
3.27712e-06
2.122e-06
3.59613e-07
3.03887e-06
-2.12865e-06
-9.37673e-07
1.88689e-06
-2.10835e-06
-4.1537e-06
1.62694e-06
1.55672e-06
-2.00548e-06
-3.72627e-06
-2.10043e-07
-1.18917e-06
9.44721e-08
1.94023e-06
1.2388e-06
1.80734e-07
1.80863e-06
-1.26219e-06
-5.00691e-07
1.10281e-06
-1.14285e-06
-2.48233e-06
9.14776e-07
9.0992e-07
-1.11176e-06
-2.22974e-06
-7.45522e-08
-6.82182e-07
3.59652e-08
1.13329e-06
7.10231e-07
7.90729e-08
1.06151e-06
-7.32104e-07
-2.4714e-07
6.22065e-07
-5.77167e-07
-1.42937e-06
4.88807e-07
5.14452e-07
-5.7961e-07
-1.28529e-06
-8.41389e-09
-3.72063e-07
6.99117e-09
6.35194e-07
3.87916e-07
2.66504e-08
5.98136e-07
-4.03318e-07
-1.05547e-07
3.37804e-07
-2.61605e-07
-7.9091e-07
2.43125e-07
2.80754e-07
-2.76156e-07
-7.10749e-07
2.1016e-08
-1.90453e-07
-4.84503e-09
3.40479e-07
1.99623e-07
2.63932e-09
3.22832e-07
-2.08513e-07
-2.80721e-08
1.7157e-07
-9.76292e-08
-4.10525e-07
1.03076e-07
1.44091e-07
-1.12176e-07
-3.68455e-07
3.23299e-08
-8.60744e-08
-7.31519e-09
1.68562e-07
9.156e-08
-5.40605e-09
1.61478e-07
-9.541e-08
1.2493e-08
7.4951e-08
-2.35286e-08
-1.86751e-07
2.52236e-08
6.45618e-08
-3.20555e-08
-1.66888e-07
3.47115e-08
-2.70486e-08
-4.7475e-09
6.90699e-08
3.03669e-08
-4.76395e-09
6.77727e-08
-3.08976e-08
3.16734e-08
2.05954e-08
-6.01965e-08
-1.5601e-08
1.96418e-08
-5.292e-08
3.28961e-08
4.64912e-09
1.38128e-08
-2.61397e-09
1.54905e-08
4.03653e-09
-3.33044e-06
8.91279e-06
-1.34746e-08
4.35153e-06
7.45055e-06
1.07177e-08
-2.2154e-06
-8.62287e-07
8.64723e-06
-3.35683e-09
1.13121e-06
7.20673e-06
-4.04239e-08
-6.28909e-07
-4.06072e-07
8.51461e-06
-1.92622e-09
5.40612e-07
7.08116e-06
-2.59792e-08
-2.86492e-07
-2.22441e-07
8.43988e-06
-9.73033e-10
2.98149e-07
7.00765e-06
-1.57878e-08
-1.52784e-07
-1.3953e-07
8.39284e-06
-6.39611e-10
1.8721e-07
6.95898e-06
-1.04651e-08
-9.35009e-08
-9.94794e-08
8.35974e-06
-4.39206e-10
1.33021e-07
6.92239e-06
-7.63097e-09
-6.49825e-08
-8.03007e-08
-3.27255e-10
8.33374e-06
1.06629e-07
-6.23623e-09
6.89122e-06
-5.09791e-08
-4.26632e-06
1.1176e-05
7.18721e-09
5.51134e-06
9.30979e-06
1.00586e-07
-2.91953e-06
-1.11547e-06
1.08501e-05
2.50509e-09
1.43551e-06
9.01637e-06
-5.1834e-09
-8.57283e-07
-5.25529e-07
1.06875e-05
1.00024e-09
6.85223e-07
8.86494e-06
-5.59248e-09
-3.94492e-07
-2.87333e-07
1.05957e-05
6.82762e-10
3.77422e-07
8.77551e-06
-3.35113e-09
-2.10339e-07
-1.79757e-07
1.05379e-05
3.71365e-10
2.36633e-07
8.71573e-06
-2.27466e-09
-1.28161e-07
-1.27788e-07
1.04971e-05
2.78081e-10
1.67864e-07
8.67043e-06
-1.58918e-09
-8.85382e-08
-1.02834e-07
2.56979e-10
1.0465e-05
1.34321e-07
-1.24323e-09
8.63161e-06
-6.90007e-08
-5.48323e-06
1.39903e-05
8.80467e-08
6.98854e-06
1.16016e-05
3.01856e-07
-3.87281e-06
-1.44916e-06
1.35931e-05
2.45807e-08
1.82428e-06
1.12528e-05
7.12385e-08
-1.17675e-06
-6.83042e-07
1.33947e-05
1.27486e-08
8.69707e-07
1.10724e-05
3.81227e-08
-5.46388e-07
-3.7263e-07
1.32826e-05
7.06156e-09
4.78279e-07
1.09648e-05
2.2465e-08
-2.90878e-07
-2.32415e-07
1.32118e-05
4.3189e-09
2.99319e-07
1.08921e-05
1.43186e-08
-1.76269e-07
-1.64672e-07
1.31618e-05
3.04007e-09
2.11902e-07
1.08365e-05
1.03208e-08
-1.20963e-07
-1.32049e-07
2.45207e-09
1.31225e-05
1.69187e-07
8.3641e-09
1.07885e-05
-9.36202e-08
-7.07254e-06
1.74758e-05
2.62196e-07
8.87489e-06
1.4408e-05
6.77312e-07
-5.16964e-06
-1.89052e-06
1.69947e-05
7.36519e-08
2.32246e-06
1.39989e-05
2.13497e-07
-1.62363e-06
-8.91327e-07
1.67544e-05
3.86019e-08
1.10578e-06
1.37876e-05
1.17356e-07
-7.59289e-07
-4.85028e-07
1.66184e-05
2.11838e-08
6.06932e-07
1.36599e-05
6.81077e-08
-4.02952e-07
-3.015e-07
1.65322e-05
1.30202e-08
3.78983e-07
1.35723e-05
4.30395e-08
-2.42619e-07
-2.12812e-07
1.64713e-05
9.10977e-09
2.67624e-07
1.35045e-05
3.05821e-08
-1.65327e-07
-1.69961e-07
7.23015e-09
1.64234e-05
2.13088e-07
2.44569e-08
1.34455e-05
-1.27069e-07
-9.15649e-06
2.17684e-05
5.70956e-07
1.129e-05
1.7815e-05
1.31079e-06
-6.93713e-06
-2.47554e-06
2.11894e-05
1.65524e-07
2.96267e-06
1.73422e-05
4.55806e-07
-2.24508e-06
-1.16713e-06
2.09005e-05
8.58864e-08
1.40872e-06
1.70994e-05
2.47666e-07
-1.05462e-06
-6.33284e-07
2.07364e-05
4.71718e-08
7.71422e-07
1.69498e-05
1.41446e-07
-5.57018e-07
-3.9216e-07
2.06322e-05
2.89972e-08
4.80377e-07
1.68453e-05
8.83868e-08
-3.33017e-07
-2.75604e-07
2.05586e-05
2.01912e-08
3.38167e-07
1.67635e-05
6.21187e-08
-2.25309e-07
-2.19082e-07
1.59001e-08
2.05007e-05
2.68327e-07
4.91887e-08
1.66917e-05
-1.71976e-07
-1.1896e-05
2.70168e-05
1.05733e-06
1.43897e-05
2.19068e-05
2.30213e-06
-9.34027e-06
-3.25087e-06
2.63243e-05
3.21231e-07
3.78774e-06
2.13699e-05
8.40709e-07
-3.09885e-06
-1.53194e-06
2.59794e-05
1.6414e-07
1.79857e-06
2.10962e-05
4.46755e-07
-1.45734e-06
-8.28505e-07
2.57827e-05
9.01398e-08
9.82223e-07
2.09232e-05
2.50916e-07
-7.64964e-07
-5.10823e-07
2.56576e-05
5.53344e-08
6.09616e-07
2.07997e-05
1.55043e-07
-4.53982e-07
-3.57202e-07
2.55691e-05
3.83635e-08
4.27493e-07
2.07017e-05
1.07885e-07
-3.04964e-07
-2.82401e-07
3.00158e-08
2.54997e-05
3.37742e-07
8.46514e-08
2.0615e-05
-2.31159e-07
-1.55749e-05
3.34975e-05
1.90307e-06
1.84625e-05
2.6866e-05
3.86863e-06
-1.26439e-05
-4.28379e-06
3.26322e-05
6.07469e-07
4.86289e-06
2.62343e-05
1.44553e-06
-4.25695e-06
-2.01419e-06
3.22016e-05
3.05343e-07
2.30363e-06
2.59139e-05
7.469e-07
-1.9939e-06
-1.0845e-06
3.19555e-05
1.67363e-07
1.25338e-06
2.57061e-05
4.12321e-07
-1.03808e-06
-6.6506e-07
3.17988e-05
1.02554e-07
7.74554e-07
2.55552e-05
2.51982e-07
-6.11138e-07
-4.62242e-07
3.16881e-05
7.08033e-08
5.40467e-07
2.54346e-05
1.73636e-07
-4.07419e-07
-3.63044e-07
5.50718e-08
3.16015e-05
4.24628e-07
1.34966e-07
2.53277e-05
-3.06489e-07
-2.03393e-05
4.13086e-05
3.10425e-06
2.36476e-05
3.26749e-05
6.05542e-06
-1.69881e-05
-5.6163e-06
4.02558e-05
1.04417e-06
6.23243e-06
3.19678e-05
2.2913e-06
-5.75502e-06
-2.63189e-06
3.97292e-05
5.19183e-07
2.94464e-06
3.16048e-05
1.15254e-06
-2.6745e-06
-1.40944e-06
3.94274e-05
2.8347e-07
1.5952e-06
3.13612e-05
6.26139e-07
-1.37966e-06
-8.58825e-07
3.92349e-05
1.73174e-07
9.80648e-07
3.1181e-05
3.78764e-07
-8.05411e-07
-5.92641e-07
3.90993e-05
1.18971e-07
6.80093e-07
3.1036e-05
2.58532e-07
-5.32526e-07
-4.61789e-07
9.19084e-08
3.89937e-05
5.30604e-07
1.98983e-07
3.09074e-05
-3.97202e-07
-2.63563e-05
5.03758e-05
4.52726e-06
3.00355e-05
3.92508e-05
8.81977e-06
-2.25414e-05
-7.29117e-06
4.91642e-05
1.61429e-06
7.93272e-06
3.8511e-05
3.36012e-06
-7.6202e-06
-3.40286e-06
4.8548e-05
7.98695e-07
3.73952e-06
3.81138e-05
1.65344e-06
-3.50654e-06
-1.81096e-06
4.81926e-05
4.33566e-07
2.01627e-06
3.78361e-05
8.85192e-07
-1.7923e-06
-1.09535e-06
4.7966e-05
2.63202e-07
1.23194e-06
3.76272e-05
5.29635e-07
-1.03737e-06
-7.49472e-07
4.7807e-05
1.79388e-07
8.48012e-07
3.74584e-05
3.57637e-07
-6.7979e-07
-5.78416e-07
1.37249e-07
4.76843e-05
6.5585e-07
2.72117e-07
3.7309e-05
-5.02116e-07
-3.3459e-05
6.04976e-05
5.54375e-06
3.77661e-05
4.61038e-05
1.14528e-05
-2.88642e-05
-9.25129e-06
5.92224e-05
2.15165e-06
9.98918e-06
4.54923e-05
4.40272e-06
-9.68235e-06
-4.29655e-06
5.85528e-05
1.06819e-06
4.69658e-06
4.51266e-05
2.13087e-06
-4.40825e-06
-2.27026e-06
5.81608e-05
5.77486e-07
2.51843e-06
4.48475e-05
1.12628e-06
-2.23225e-06
-1.36148e-06
5.79098e-05
3.48193e-07
1.52747e-06
4.46292e-05
6.66472e-07
-1.28009e-06
-9.22214e-07
5.77346e-05
2.3505e-07
1.04176e-06
4.44501e-05
4.4474e-07
-8.3023e-07
-7.03422e-07
1.77659e-07
5.76008e-05
7.96811e-07
3.33918e-07
4.42909e-05
-6.06015e-07
-4.20577e-05
7.18169e-05
6.14409e-06
4.68477e-05
5.37705e-05
1.39992e-05
-3.65373e-05
-1.15211e-05
7.04864e-05
2.63393e-06
1.23694e-05
5.3267e-05
5.39113e-06
-1.2006e-05
-5.30763e-06
6.97544e-05
1.31495e-06
5.79293e-06
5.2906e-05
2.57516e-06
-5.39092e-06
-2.77837e-06
6.93177e-05
7.0721e-07
3.0853e-06
5.26087e-05
1.34462e-06
-2.69936e-06
-1.64853e-06
6.90375e-05
4.22593e-07
1.85431e-06
5.23711e-05
7.8608e-07
-1.53057e-06
-1.10266e-06
6.88434e-05
2.81783e-07
1.25006e-06
5.21758e-05
5.17459e-07
-9.80061e-07
-8.28577e-07
2.09679e-07
6.86974e-05
9.42589e-07
3.82406e-07
5.20034e-05
-7.04701e-07
-5.27349e-05
8.52822e-05
6.40734e-06
5.80924e-05
6.28965e-05
1.62051e-05
-4.58884e-05
-1.4169e-05
8.38385e-05
3.07495e-06
1.51717e-05
6.25375e-05
6.22356e-06
-1.46425e-05
-6.45014e-06
8.30023e-05
1.54916e-06
7.05205e-06
6.21868e-05
2.94478e-06
-6.46902e-06
-3.33576e-06
8.24943e-05
8.30616e-07
3.7204e-06
6.18699e-05
1.52184e-06
-3.19606e-06
-1.95293e-06
8.21681e-05
4.92096e-07
2.2096e-06
6.16113e-05
8.7897e-07
-1.78724e-06
-1.28564e-06
8.19445e-05
3.23732e-07
1.46732e-06
6.13993e-05
5.69981e-07
-1.12618e-06
-9.47594e-07
2.36478e-07
8.17795e-05
1.08582e-06
4.13408e-07
6.12149e-05
-7.94207e-07
-6.32163e-05
9.90017e-05
4.36245e-06
6.9638e-05
7.15024e-05
1.62939e-05
-5.44729e-05
-1.66409e-05
9.78764e-05
2.85294e-06
1.79882e-05
7.1652e-05
6.345e-06
-1.6912e-05
-7.47896e-06
9.71457e-05
1.46703e-06
8.29178e-06
7.14958e-05
2.97836e-06
-7.35634e-06
-3.81542e-06
9.66815e-05
7.83434e-07
4.32681e-06
7.12642e-05
1.51998e-06
-3.58196e-06
-2.19888e-06
9.63807e-05
4.58415e-07
2.53337e-06
7.1051e-05
8.64247e-07
-1.97095e-06
-1.41963e-06
9.6177e-05
2.96038e-07
1.65103e-06
7.08693e-05
5.50064e-07
-1.21798e-06
-1.02084e-06
2.1086e-07
9.60312e-05
1.19223e-06
3.89821e-07
7.07101e-05
-8.38059e-07
-7.51849e-05
0.000115789
1.6828e-06
8.1846e-05
8.34421e-05
1.38799e-05
-6.39957e-05
-1.96903e-05
0.000114726
2.46948e-06
2.11368e-05
8.37033e-05
5.92984e-06
-1.95362e-05
-8.66695e-06
0.00011398
1.30715e-06
9.57224e-06
8.3571e-05
2.76424e-06
-8.32051e-06
-4.33474e-06
0.000113496
6.92453e-07
4.90935e-06
8.33425e-05
1.38759e-06
-3.9739e-06
-2.44793e-06
0.000113183
3.97527e-07
2.82208e-06
8.31297e-05
7.73066e-07
-2.14391e-06
-1.54513e-06
0.000112973
2.50459e-07
1.80069e-06
8.29506e-05
4.80474e-07
-1.29643e-06
-1.0821e-06
1.73349e-07
0.000112825
1.26767e-06
3.31589e-07
8.27964e-05
-8.69727e-07
-8.39035e-05
0.000133134
-2.54729e-06
9.18278e-05
9.6187e-05
9.6004e-06
-7.1223e-05
-2.27481e-05
0.000132482
1.31696e-06
2.45527e-05
9.65828e-05
4.8029e-06
-2.2017e-05
-9.74978e-06
0.000131923
7.71836e-07
1.08446e-05
9.65226e-05
2.22293e-06
-9.14822e-06
-4.7524e-06
0.00013153
4.03944e-07
5.43359e-06
9.63337e-05
1.09033e-06
-4.26628e-06
-2.61715e-06
0.000131267
2.23899e-07
3.05369e-06
9.61475e-05
5.90768e-07
-2.24868e-06
-1.61026e-06
0.000131089
1.3528e-07
1.9039e-06
9.59902e-05
3.55986e-07
-1.32838e-06
-1.09816e-06
8.95657e-08
0.000130962
1.30813e-06
2.37659e-07
9.5856e-05
-8.70084e-07
-7.38974e-05
0.000124199
-5.06049e-06
8.08733e-05
9.12623e-05
6.46933e-06
-6.32093e-05
-2.09804e-05
0.000123653
2.70607e-07
2.25728e-05
9.13564e-05
3.7448e-06
-2.00165e-05
-8.74352e-06
0.000123211
2.69742e-07
9.68698e-06
9.12369e-05
1.7164e-06
-8.11758e-06
-4.14477e-06
0.000122898
1.37555e-07
4.72417e-06
9.10548e-05
8.21462e-07
-3.69376e-06
-2.21974e-06
0.000122687
6.92332e-08
2.58563e-06
9.08927e-05
4.32629e-07
-1.89958e-06
-1.32671e-06
0.000122543
3.74885e-08
1.56822e-06
9.07636e-05
2.5266e-07
-1.09427e-06
-8.77231e-07
2.23119e-08
0.000122442
1.04605e-06
1.62998e-07
9.06593e-05
-6.98246e-07
-6.47591e-05
0.000117749
-5.68648e-06
7.08985e-05
8.82812e-05
4.60832e-06
-5.58269e-05
-1.94169e-05
0.00011703
-3.98945e-07
2.08048e-05
8.79914e-05
2.91218e-06
-1.82945e-05
-7.91386e-06
0.000116575
-6.82415e-08
8.70704e-06
8.77706e-05
1.3128e-06
-7.28955e-06
-3.66224e-06
0.000116274
-4.04491e-08
4.14114e-06
8.75701e-05
6.11622e-07
-3.25187e-06
-1.9109e-06
0.000116078
-3.11566e-08
2.20762e-06
8.74157e-05
3.12842e-07
-1.63678e-06
-1.1092e-06
0.000115948
-2.32553e-08
1.30005e-06
8.73031e-05
1.76891e-07
-9.20821e-07
-7.09056e-07
-1.71211e-08
0.000115858
8.38084e-07
1.09997e-07
8.72192e-05
-5.72235e-07
-5.64098e-05
0.000111802
-4.99745e-06
6.1816e-05
8.56561e-05
3.6109e-06
-4.89705e-05
-1.79681e-05
0.000110812
-6.50044e-07
1.92091e-05
8.50155e-05
2.27444e-06
-1.66899e-05
-7.23504e-06
0.000110282
-2.19332e-07
7.91599e-06
8.46844e-05
9.99206e-07
-6.59043e-06
-3.2966e-06
0.00010996
-1.20639e-07
3.69904e-06
8.44522e-05
4.5288e-07
-2.90565e-06
-1.68664e-06
0.00010976
-7.47692e-08
1.9301e-06
8.4294e-05
2.25522e-07
-1.44113e-06
-9.54502e-07
0.000109633
-4.80448e-08
1.10597e-06
8.41883e-05
1.23865e-07
-7.95748e-07
-5.903e-07
-3.18797e-08
0.00010955
6.8816e-07
7.44112e-08
8.41165e-05
-4.82996e-07
-4.92767e-05
0.000104889
-3.74278e-06
5.40285e-05
8.18667e-05
3.3197e-06
-4.2896e-05
-1.62956e-05
0.000103638
-5.62618e-07
1.74587e-05
8.09467e-05
1.80814e-06
-1.49094e-05
-6.60257e-06
0.000103
-2.13114e-07
7.23456e-06
8.04782e-05
7.73781e-07
-5.90868e-06
-3.02335e-06
0.000102629
-1.18681e-07
3.39202e-06
8.01788e-05
3.47399e-07
-2.61858e-06
-1.54939e-06
0.000102408
-7.26602e-08
1.7692e-06
7.99861e-05
1.72631e-07
-1.30376e-06
-8.74593e-07
0.000102271
-4.62436e-08
1.00887e-06
7.9861e-05
9.50932e-08
-7.20706e-07
-5.36738e-07
-3.06151e-08
0.000102186
6.21338e-07
5.74872e-08
7.97776e-05
-4.36508e-07
-4.32751e-05
9.6594e-05
-2.47959e-06
4.7356e-05
7.69892e-05
3.17803e-06
-3.76728e-05
-1.45619e-05
9.53164e-05
-3.94787e-07
1.56715e-05
7.59169e-05
1.49625e-06
-1.31779e-05
-6.02653e-06
9.46451e-05
-1.58902e-07
6.64343e-06
7.53355e-05
6.3136e-07
-5.30286e-06
-2.81725e-06
9.42562e-05
-8.98291e-08
3.17728e-06
7.49747e-05
2.85877e-07
-2.39488e-06
-1.47011e-06
9.40241e-05
-5.49844e-08
1.68448e-06
7.47475e-05
1.44184e-07
-1.21459e-06
-8.43116e-07
9.38818e-05
-3.49484e-08
9.74128e-07
7.46017e-05
8.07189e-08
-6.8294e-07
-5.25121e-07
-2.31346e-08
9.37915e-05
6.0788e-07
4.96049e-08
7.45048e-05
-4.20322e-07
-3.75001e-05
8.65963e-05
-1.79651e-06
4.08599e-05
7.06735e-05
2.54959e-06
-3.27419e-05
-1.29344e-05
8.55139e-05
-3.1054e-07
1.39324e-05
6.97214e-05
1.12891e-06
-1.16152e-05
-5.4835e-06
8.49137e-05
-1.28245e-07
6.05296e-06
6.91612e-05
4.73183e-07
-4.76522e-06
-2.61875e-06
8.45606e-05
-7.08765e-08
2.95284e-06
6.88095e-05
2.15823e-07
-2.197e-06
-1.39073e-06
8.43489e-05
-4.24804e-08
1.58988e-06
6.8588e-05
1.10199e-07
-1.13538e-06
-8.09385e-07
8.42188e-05
-2.67313e-08
9.3119e-07
6.84459e-05
6.25076e-08
-6.49001e-07
-5.10742e-07
-1.76063e-08
8.41363e-05
5.8777e-07
3.89532e-08
6.83512e-05
-4.05413e-07
-3.18555e-05
7.46466e-05
-1.76524e-06
3.44361e-05
6.27363e-05
1.42551e-06
-2.81558e-05
-1.1154e-05
7.38493e-05
-3.10578e-07
1.19511e-05
6.20675e-05
7.44803e-07
-1.01011e-05
-4.79068e-06
7.3381e-05
-1.30178e-07
5.26082e-06
6.16284e-05
3.12283e-07
-4.19077e-06
-2.30994e-06
7.30985e-05
-6.76935e-08
2.58925e-06
6.13428e-05
1.42156e-07
-1.95072e-06
-1.23438e-06
7.29269e-05
-3.8218e-08
1.40163e-06
6.11613e-05
7.23227e-08
-1.01508e-06
-7.20959e-07
7.28207e-05
-2.29223e-08
8.23385e-07
6.10449e-05
4.06994e-08
-5.82764e-07
-4.55957e-07
-1.44628e-08
7.27527e-05
5.20766e-07
2.50903e-08
6.09678e-05
-3.65033e-07
-2.12543e-05
4.95349e-05
-1.82713e-06
2.26428e-05
4.28655e-05
4.83213e-07
-1.91195e-05
-7.45226e-06
4.91286e-05
-3.18496e-07
7.86635e-06
4.25866e-05
4.50371e-07
-6.87906e-06
-3.19833e-06
4.8878e-05
-1.41277e-07
3.45996e-06
4.23689e-05
1.84542e-07
-2.85296e-06
-1.53662e-06
4.87209e-05
-7.11924e-08
1.69723e-06
4.22144e-05
8.32207e-08
-1.32318e-06
-8.16238e-07
4.86236e-05
-3.8563e-08
9.13759e-07
4.21124e-05
4.21672e-08
-6.8417e-07
-4.72862e-07
4.8563e-05
-2.22743e-08
5.32859e-07
4.2046e-05
2.36052e-08
-3.89342e-07
-2.96051e-07
-1.36246e-08
4.85242e-05
3.33985e-07
1.4424e-08
4.20018e-05
-2.41215e-07
-1.40989e-05
3.23906e-05
-1.68463e-06
1.46927e-05
2.87778e-05
-8.77705e-08
-1.30129e-05
-4.92377e-06
3.22015e-05
-2.73332e-07
5.06762e-06
2.87298e-05
2.61891e-07
-4.68736e-06
-2.09903e-06
3.20792e-05
-1.33095e-07
2.21311e-06
2.86525e-05
9.6814e-08
-1.93402e-06
-9.99999e-07
3.19975e-05
-6.64962e-08
1.07694e-06
2.85827e-05
4.26401e-08
-8.89577e-07
-5.26025e-07
3.19456e-05
-3.52109e-08
5.74592e-07
2.85325e-05
2.15939e-08
-4.55267e-07
-3.01319e-07
3.19129e-05
-1.98574e-08
3.31626e-07
2.84986e-05
1.21343e-08
-2.55968e-07
-1.86211e-07
-1.18819e-08
3.1892e-05
2.05391e-07
7.4264e-09
2.84757e-05
-1.56376e-07
-9.27892e-06
2.09702e-05
-1.41215e-06
9.44574e-06
1.90122e-05
-3.48374e-07
-8.81097e-06
-3.22052e-06
2.09097e-05
-2.1515e-07
3.22288e-06
1.90842e-05
1.4502e-07
-3.17573e-06
-1.35995e-06
2.08623e-05
-1.19465e-07
1.39367e-06
1.90833e-05
3.81969e-08
-1.3004e-06
-6.40976e-07
2.0825e-05
-5.95623e-08
6.71361e-07
1.9061e-05
1.57106e-08
-5.91839e-07
-3.33398e-07
2.07998e-05
-3.11133e-08
3.54497e-07
1.90405e-05
8.06428e-09
-2.99319e-07
-1.88687e-07
2.07835e-05
-1.72726e-08
2.02336e-07
1.90254e-05
4.68944e-09
-1.66128e-07
-1.15054e-07
-1.01773e-08
2.07731e-05
1.23774e-07
2.96445e-09
1.90148e-05
-1.00043e-07
-5.95193e-06
1.32216e-05
-1.09365e-06
5.90446e-06
1.22263e-05
-4.24764e-07
-5.83532e-06
-2.0551e-06
1.32336e-05
-1.61445e-07
1.98944e-06
1.23627e-05
6.52998e-08
-2.1118e-06
-8.59179e-07
1.32252e-05
-1.02474e-07
8.50622e-07
1.24021e-05
-1.94028e-09
-8.58476e-07
-4.00289e-07
1.32118e-05
-5.10716e-08
4.05154e-07
1.24068e-05
-2.8972e-09
-3.86431e-07
-2.05797e-07
1.32014e-05
-2.65289e-08
2.11603e-07
1.24037e-05
-1.45451e-09
-1.93082e-07
-1.15088e-07
1.31944e-05
-1.45985e-08
1.19438e-07
1.23997e-05
-5.96479e-10
-1.05809e-07
-6.92769e-08
-8.51694e-09
1.31898e-05
7.21883e-08
-2.00165e-10
1.23964e-05
-6.28492e-08
-3.8602e-06
8.42786e-06
-7.66321e-07
3.74379e-06
7.89844e-06
-3.62601e-07
-3.89824e-06
-1.32152e-06
8.45052e-06
-1.04981e-07
1.2424e-06
8.02034e-06
3.29701e-08
-1.41109e-06
-5.4594e-07
8.44766e-06
-7.80694e-08
5.24389e-07
8.05677e-06
-1.60134e-08
-5.68311e-07
-2.51146e-07
8.43977e-06
-3.87386e-08
2.467e-07
8.06428e-06
-8.7821e-09
-2.5277e-07
-1.27586e-07
8.43346e-06
-2.00418e-08
1.27405e-07
8.06437e-06
-4.3767e-09
-1.24759e-07
-7.05252e-08
8.42918e-06
-1.0925e-08
7.11337e-08
8.06296e-06
-2.17361e-09
-6.75351e-08
-4.19386e-08
-6.30354e-09
8.4264e-06
4.25034e-08
-1.12329e-09
8.06154e-06
-3.96026e-08
-2.45013e-06
5.27837e-06
-4.96158e-07
2.33422e-06
4.9863e-06
-2.57496e-07
-2.53709e-06
-8.33146e-07
5.30349e-06
-6.12774e-08
7.64325e-07
5.08407e-06
2.20191e-08
-9.19964e-07
-3.40394e-07
5.30197e-06
-5.47128e-08
3.1855e-07
5.11172e-06
-1.65415e-08
-3.67524e-07
-1.54714e-07
5.29694e-06
-2.70458e-08
1.48052e-07
5.11829e-06
-8.38286e-09
-1.61683e-07
-7.77227e-08
5.29304e-06
-1.4064e-08
7.56401e-08
5.11928e-06
-4.17932e-09
-7.89165e-08
-4.25036e-08
5.29043e-06
-7.60865e-09
4.18008e-08
5.11891e-06
-2.0471e-09
-4.22502e-08
-2.49968e-08
-4.34069e-09
5.28875e-06
2.47128e-08
-1.04189e-09
5.11832e-06
-2.44937e-08
-1.49459e-06
3.18546e-06
-3.04584e-07
1.39467e-06
3.04944e-06
-1.71864e-07
-1.59079e-06
-5.08284e-07
3.21396e-06
-3.39306e-08
4.52439e-07
3.13321e-06
1.34396e-08
-5.8347e-07
-2.06068e-07
3.21526e-06
-3.64212e-08
1.86477e-07
3.15762e-06
-1.45767e-08
-2.3245e-07
-9.27677e-08
3.21349e-06
-1.82348e-08
8.5729e-08
3.16549e-06
-7.50025e-09
-1.01523e-07
-4.61742e-08
3.212e-06
-9.7907e-09
4.33833e-08
3.16831e-06
-4.03665e-09
-4.91388e-08
-2.50215e-08
3.21098e-06
-5.31947e-09
2.3756e-08
3.16937e-06
-2.05331e-09
-2.6077e-08
-1.45756e-08
-3.01704e-09
3.21032e-06
1.39119e-08
-1.07176e-09
3.16981e-06
-1.49758e-08
-8.91131e-07
1.88681e-06
-1.777e-07
8.17674e-07
1.82291e-06
-1.0691e-07
-9.70366e-07
-3.03276e-07
1.91042e-06
-1.77631e-08
2.63493e-07
1.88398e-06
8.45229e-09
-3.59369e-07
-1.22125e-07
1.91149e-06
-2.28783e-08
1.0751e-07
1.90096e-06
-1.08371e-08
-1.42843e-07
-5.4527e-08
1.91068e-06
-1.18527e-08
4.89522e-08
1.9069e-06
-5.96579e-09
-6.20026e-08
-2.69298e-08
1.91009e-06
-6.8375e-09
2.45719e-08
1.90939e-06
-3.65407e-09
-2.97989e-08
-1.44795e-08
1.90972e-06
-3.82291e-09
1.3349e-08
1.91054e-06
-1.98999e-09
-1.56954e-08
-8.36544e-09
-2.18514e-09
1.9095e-06
7.7528e-09
-1.07974e-09
1.91112e-06
-8.9414e-09
-5.21941e-07
1.10132e-06
-9.60783e-08
4.72278e-07
1.07237e-06
-6.04913e-08
-5.79218e-07
-1.77857e-07
1.11778e-06
-7.83077e-09
1.51463e-07
1.11314e-06
6.26706e-09
-2.16445e-07
-7.11735e-08
1.1179e-06
-1.30463e-08
6.1226e-08
1.12362e-06
-6.64357e-09
-8.585e-08
-3.15544e-08
1.11709e-06
-7.1347e-09
2.7646e-08
1.12724e-06
-4.07254e-09
-3.70705e-08
-1.54851e-08
1.11659e-06
-4.63775e-09
1.37851e-08
1.12882e-06
-3.00387e-09
-1.77124e-08
-8.27327e-09
1.11639e-06
-2.79328e-09
7.44104e-09
1.12967e-06
-1.84682e-09
-9.27186e-09
-4.74719e-09
-1.65809e-09
1.11632e-06
4.29191e-09
-1.07549e-09
1.13017e-06
-5.24655e-09
-2.92671e-07
6.18661e-07
-4.80636e-08
2.61188e-07
6.07701e-07
-3.24326e-08
-3.30295e-07
-1.00386e-07
6.3007e-07
-2.6763e-09
8.38186e-08
6.34518e-07
4.28998e-09
-1.25231e-07
-4.00535e-08
6.30168e-07
-6.76167e-09
3.36698e-08
6.41235e-07
-3.67186e-09
-4.97442e-08
-1.76763e-08
6.29566e-07
-3.96434e-09
1.51086e-08
6.43478e-07
-2.56437e-09
-2.14278e-08
-8.63706e-09
6.29076e-07
-3.00802e-09
7.497e-09
6.44364e-07
-2.32532e-09
-1.02017e-08
-4.59536e-09
6.28928e-07
-2.0798e-09
4.02943e-09
6.44953e-07
-1.71239e-09
-5.31924e-09
-2.62379e-09
-1.35256e-09
6.28934e-07
2.31259e-09
-1.12423e-09
6.45373e-07
-2.99539e-09
-1.55909e-07
3.32083e-07
-2.10333e-08
1.37273e-07
3.28631e-07
-1.57116e-08
-1.78432e-07
-5.39811e-08
3.39255e-07
-1.7522e-10
4.43025e-08
3.44755e-07
2.88951e-09
-6.87167e-08
-2.15177e-08
3.39267e-07
-2.98615e-09
1.77283e-08
3.48608e-07
-1.67209e-09
-2.73726e-08
-9.46761e-09
3.38746e-07
-1.8938e-09
7.91785e-09
3.49708e-07
-1.35336e-09
-1.17791e-08
-4.61113e-09
3.38131e-07
-1.6956e-09
3.91277e-09
3.49871e-07
-1.50496e-09
-5.59493e-09
-2.44795e-09
3.3784e-07
-1.43898e-09
2.09805e-09
3.50018e-07
-1.39625e-09
-2.91123e-09
-1.39411e-09
-1.10615e-09
3.37786e-07
1.20138e-09
-1.09484e-09
3.50229e-07
-1.63481e-09
-7.5722e-08
1.64515e-07
-7.08152e-09
6.58147e-08
1.63781e-07
-6.21803e-09
-8.75208e-08
-2.66615e-08
1.68663e-07
7.42633e-10
2.15903e-08
1.72533e-07
1.88449e-09
-3.44197e-08
-1.06594e-08
1.68646e-07
-9.59907e-10
8.64868e-09
1.74479e-07
-4.9081e-10
-1.37882e-08
-4.68759e-09
1.68254e-07
-6.70289e-10
3.85503e-09
1.7488e-07
-5.03842e-10
-5.93889e-09
-2.27772e-09
1.67635e-07
-6.97369e-10
1.89806e-09
1.74605e-07
-6.91155e-10
-2.8172e-09
-1.20816e-09
1.67171e-07
-7.83164e-10
1.01637e-09
1.74325e-07
-8.59741e-10
-1.46502e-09
-6.88495e-10
-7.9652e-10
1.66967e-07
5.82863e-10
-8.80619e-10
1.74245e-07
-8.2259e-10
-2.933e-08
6.75977e-08
-1.21992e-09
2.49389e-08
6.79947e-08
-1.61967e-09
-3.41518e-08
-1.08292e-08
6.98563e-08
6.68579e-10
8.64101e-09
7.22051e-08
9.57027e-10
-1.41196e-08
-4.40053e-09
6.99011e-08
-1.23322e-10
3.51806e-09
7.30791e-08
-1.17948e-11
-5.755e-09
-1.94824e-09
6.97085e-08
-1.07162e-10
1.57735e-09
7.31994e-08
-7.60473e-11
-2.49664e-09
-9.47554e-10
6.93055e-08
-1.23316e-10
7.76083e-10
7.28926e-08
-1.46042e-10
-1.1863e-09
-5.02619e-10
6.88251e-08
-2.15416e-10
4.15035e-10
7.24233e-08
-2.76067e-10
-6.17234e-10
-2.87414e-10
-3.70218e-10
6.84469e-08
2.39156e-10
-4.40201e-10
7.20425e-08
-3.47291e-10
-3.64272e-09
1.36931e-08
2.54251e-09
1.44806e-08
-4.25259e-09
-2.02097e-09
1.48459e-08
1.53675e-09
1.60457e-08
-2.62903e-09
-9.2875e-10
1.49315e-08
7.19834e-10
1.63091e-08
-1.20394e-09
-4.35378e-10
1.49166e-08
3.4303e-10
1.63481e-08
-5.50397e-10
-2.17256e-10
1.48376e-08
1.72899e-10
1.62525e-08
-2.67736e-10
-1.15925e-10
1.46454e-08
9.26421e-11
1.60005e-08
-1.40061e-10
-6.68591e-11
1.42881e-08
5.39677e-11
1.55726e-08
-7.9169e-11
-7.18146e-08
8.31037e-06
3.4863e-10
9.48333e-08
6.86571e-06
-5.28709e-09
-4.83104e-08
-5.01048e-08
8.29189e-06
2.35655e-10
6.83453e-08
6.84712e-06
-3.8472e-09
-3.28725e-08
-4.91365e-08
8.27241e-06
2.18045e-10
6.84076e-08
6.82847e-06
-3.9094e-09
-3.17465e-08
-6.72159e-08
8.24495e-06
2.62014e-10
9.4405e-08
6.80279e-06
-5.55834e-09
-4.31802e-08
-1.26474e-07
8.19386e-06
3.99123e-10
1.77171e-07
6.75509e-06
-1.10347e-08
-8.16138e-08