/*--------------------------------*- C++ -*----------------------------------*\
| =========                 |                                                 |
| \\      /  F ield         | OpenFOAM: The Open Source CFD Toolbox           |
|  \\    /   O peration     | Version:  2212                                  |
|   \\  /    A nd           | Website:  www.openfoam.com                      |
|    \\/     M anipulation  |                                                 |
\*---------------------------------------------------------------------------*/
FoamFile
{
    version     2.0;
    format      ascii;
    arch        "LSB;label=32;scalar=64";
    class       volVectorField;
    location    "990";
    object      U;
}
// * * * * * * * * * * * * * * * * * * * * * * * * * * * * * * * * * * * * * //

dimensions      [0 1 -1 0 0 0 0];

internalField   nonuniform List<vector> 
50904
(
(-0.410965 2.84857 0.0398772)
(-0.295556 3.2201 0.0393075)
(0.387306 0.951516 -0.0182908)
(0.83645 1.48898 -0.0246585)
(-1.2913 9.05723 0.0428397)
(-0.919586 10.2499 0.0353518)
(1.18207 3.29261 -0.00332508)
(2.57191 5.0325 -0.037373)
(-2.33518 16.5513 0.0715542)
(-1.64874 18.7509 0.0440191)
(2.06629 6.51123 0.0232793)
(4.53506 9.74284 -0.072727)
(-3.56468 25.5157 0.117714)
(-2.49822 28.9391 0.047227)
(3.01052 10.9252 0.0847689)
(6.68369 15.9883 -0.128323)
(-5.00825 36.1313 0.192853)
(-3.49443 41.0234 0.0425711)
(3.95885 16.9384 0.198152)
(8.92871 24.216 -0.216327)
(-6.70902 48.5653 0.332492)
(-4.68825 55.1905 0.0459258)
(4.81829 25.0378 0.377417)
(11.1165 34.9335 -0.363003)
(-8.74675 63.0587 0.596212)
(-6.17681 71.6932 0.0889335)
(5.45572 35.8038 0.639663)
(13.034 48.714 -0.603805)
(-11.2204 79.7667 1.14131)
(-8.09649 90.6592 0.292668)
(5.67414 49.8254 0.9819)
(14.3674 66.0583 -1.00206)
(-14.2634 98.6173 2.23216)
(-10.6588 111.929 0.887625)
(5.18735 67.5177 1.40517)
(14.6725 87.1684 -1.5879)
(-17.9909 119.31 4.10695)
(-14.0599 134.946 2.09065)
(3.70565 88.7692 2.00833)
(13.5304 111.503 -2.23668)
(-22.4553 141.441 7.25268)
(-18.4132 159.112 4.36975)
(0.949287 113.202 2.90773)
(10.604 138.328 -2.74288)
(-27.6258 164.553 12.0803)
(-23.7518 183.775 8.15791)
(-3.31943 140.17 4.41954)
(5.63725 166.723 -2.65284)
(-33.0566 186.946 18.5241)
(-29.6539 206.906 13.4508)
(-9.00997 167.683 6.86355)
(-1.16648 194.303 -1.43588)
(-38.2494 207.004 25.6729)
(-35.6072 226.769 19.4476)
(-15.7141 193.622 10.2236)
(-9.24037 218.946 1.06339)
(-42.9648 223.11 31.7907)
(-41.4052 241.785 24.6347)
(-22.9191 215.576 13.6023)
(-17.8959 238.509 4.09904)
(-47.4865 234.181 34.0854)
(-47.138 251.133 26.6022)
(-29.6246 230.792 15.0503)
(-25.8451 250.892 5.84236)
(-52.5389 242.969 32.6578)
(-53.2644 257.881 25.4235)
(-35.8406 241.782 14.264)
(-32.9636 259.026 5.75672)
(-58.8622 252.84 29.3628)
(-60.4607 265.357 22.7825)
(-42.1447 251.899 12.0435)
(-39.8315 266.181 4.46571)
(-66.5922 265.968 25.5238)
(-68.837 275.695 19.8234)
(-48.6778 263.178 9.18011)
(-46.6003 274.33 2.63225)
(-75.3897 282.195 21.4614)
(-78.0502 288.94 16.838)
(-55.5661 276.325 5.95273)
(-53.4415 284.181 0.566485)
(-84.9933 300.58 17.8012)
(-87.8213 304.327 14.293)
(-62.8377 291.101 3.12603)
(-60.4561 295.614 -1.09794)
(-95.2018 319.711 14.3466)
(-97.9133 320.595 11.958)
(-70.696 307.079 0.642522)
(-67.9588 308.309 -2.38813)
(-104.867 336.804 11.4443)
(-107.127 335.232 9.92406)
(-78.4315 322.201 -0.544048)
(-75.3685 320.633 -2.59226)
(-112.703 349.64 8.63222)
(-114.316 346.173 7.69196)
(-85.265 334.815 -0.85732)
(-81.9987 331.143 -2.18603)
(-118.949 358.938 6.12647)
(-119.824 353.965 5.56253)
(-91.328 345.264 -0.777511)
(-87.9654 339.999 -1.60275)
(-123.893 365.526 4.13858)
(-124.014 359.337 3.81044)
(-96.6404 353.815 -0.576968)
(-93.2522 347.334 -1.07164)
(-127.825 370.226 2.68264)
(-127.23 363.036 2.50062)
(-101.243 360.806 -0.384624)
(-97.8705 353.379 -0.671697)
(-130.983 373.662 1.66978)
(-129.731 365.627 1.57482)
(-105.225 366.579 -0.236907)
(-101.882 358.389 -0.397425)
(-133.519 376.167 1.00062)
(-131.68 367.436 0.956054)
(-108.592 371.272 -0.135407)
(-105.278 362.468 -0.222338)
(-135.533 378.008 0.578987)
(-133.192 368.707 0.561314)
(-111.369 375.024 -0.0713516)
(-108.083 365.734 -0.116911)
(-137.134 379.393 0.320184)
(-134.368 369.628 0.316314)
(-113.639 378.025 -0.0329143)
(-110.376 368.348 -0.0557699)
(-138.411 380.448 0.167028)
(-135.294 370.306 0.169364)
(-115.483 380.423 -0.0121968)
(-112.239 370.436 -0.0228706)
(-139.429 381.256 0.0801363)
(-136.021 370.811 0.0844957)
(-116.973 382.329 -0.00206979)
(-113.742 372.095 -0.00645797)
(-140.236 381.887 0.0334279)
(-136.592 371.196 0.0374984)
(-118.171 383.849 0.00187139)
(-114.95 373.419 0.000503981)
(-140.878 382.384 0.0109587)
(-137.043 371.495 0.0136865)
(-119.132 385.065 0.00217299)
(-115.92 374.477 0.00201772)
(-141.39 382.777 0.00256589)
(-137.398 371.728 0.0036282)
(-119.901 386.037 0.000345647)
(-116.695 375.322 0.000471269)
(0.333304 1.71527 0.00495946)
(1.03421 2.44508 -0.00789566)
(0.348654 1.24169 -0.00580236)
(1.51445 2.00253 -0.0307122)
(0.23892 1.16363 -0.00195427)
(1.48807 1.90575 -0.0310491)
(0.170742 1.07545 -0.00489115)
(1.35154 1.80269 -0.0339331)
(0.119188 1.03792 -0.0037524)
(1.19981 1.7503 -0.0317854)
(0.0815067 1.01161 -0.00386632)
(1.06004 1.71106 -0.0298765)
(0.0504934 0.993793 -0.00383224)
(0.928599 1.68034 -0.027267)
(1.08514 5.53084 -0.0352268)
(3.26611 7.89156 -0.102747)
(1.12927 4.11311 -0.042266)
(4.71813 6.60298 -0.156283)
(0.795971 3.84223 -0.038458)
(4.61748 6.26688 -0.179914)
(0.576532 3.58408 -0.0405021)
(4.1875 5.95161 -0.19373)
(0.414464 3.46077 -0.0382145)
(3.72559 5.77608 -0.19543)
(0.294735 3.37954 -0.0368155)
(3.30768 5.65133 -0.191843)
(0.19699 3.32309 -0.035896)
(2.92478 5.55473 -0.183951)
(2.02446 10.2593 -0.139337)
(5.91784 14.6416 -0.322826)
(2.09867 7.82189 -0.143464)
(8.43329 12.4884 -0.439792)
(1.51412 7.29615 -0.143527)
(8.21664 11.8324 -0.513886)
(1.11084 6.85361 -0.143852)
(7.43861 11.27 -0.548845)
(0.81675 6.6263 -0.139397)
(6.62848 10.9401 -0.555819)
(0.5986 6.4797 -0.135896)
(5.9078 10.7115 -0.548215)
(0.421211 6.37678 -0.132895)
(5.25885 10.5365 -0.531413)
(3.18176 16.108 -0.348633)
(9.00076 22.9696 -0.746356)
(3.2878 12.6077 -0.34785)
(12.6241 19.9777 -0.971878)
(2.42323 11.7611 -0.359606)
(12.225 18.9094 -1.13111)
(1.80074 11.1174 -0.355172)
(11.0375 18.0596 -1.19238)
(1.35017 10.7691 -0.345747)
(9.84325 17.5463 -1.20002)
(1.01556 10.5461 -0.33738)
(8.8011 17.1977 -1.18079)
(0.744417 10.3886 -0.329576)
(7.87777 16.9336 -1.14733)
(4.57653 23.3294 -0.705559)
(12.4766 33.1845 -1.46375)
(4.71779 18.7659 -0.70811)
(17.1731 29.4257 -1.87229)
(3.54308 17.5359 -0.73672)
(16.4936 27.8499 -2.14323)
(2.66442 16.6737 -0.725686)
(14.8336 26.6735 -2.22544)
(2.03134 16.1891 -0.707295)
(13.2279 25.9543 -2.21971)
(1.56149 15.8791 -0.690422)
(11.8557 25.4738 -2.17612)
(1.18218 15.6593 -0.674471)
(10.6588 25.1124 -2.11555)
(6.20037 32.2295 -1.25346)
(16.225 45.6148 -2.57918)
(6.38279 26.6496 -1.29497)
(21.8442 41.1959 -3.29163)
(4.86718 24.9852 -1.33868)
(20.7548 39.0278 -3.67612)
(3.69593 23.8905 -1.3192)
(18.5656 37.498 -3.75727)
(2.85481 23.2577 -1.28699)
(16.5356 36.5609 -3.71491)
(2.23194 22.852 -1.25671)
(14.8381 35.9425 -3.62895)
(1.73127 22.5639 -1.22818)
(13.3804 35.48 -3.52746)
(7.99099 43.1962 -2.02702)
(20.0168 60.614 -4.19399)
(8.2128 36.6655 -2.18691)
(26.2486 55.6084 -5.37326)
(6.32302 34.5276 -2.23661)
(24.5868 52.7774 -5.82681)
(4.82533 33.1925 -2.2034)
(21.8219 50.8865 -5.8609)
(3.75361 32.4066 -2.1518)
(19.3696 49.735 -5.75017)
(2.96331 31.9007 -2.10281)
(17.3662 48.982 -5.60053)
(2.33183 31.5409 -2.0571)
(15.6747 48.4203 -5.44307)
(9.78378 56.6392 -3.01838)
(23.4591 78.4292 -6.35209)
(10.005 49.2145 -3.43867)
(29.7952 72.8141 -8.17884)
(7.70388 46.5717 -3.47641)
(27.3839 69.2651 -8.58979)
(5.8522 44.9912 -3.41274)
(24.0175 67.0196 -8.49458)
(4.53362 44.0541 -3.33003)
(21.1654 65.6696 -8.26807)
(3.56728 43.4507 -3.25371)
(18.892 64.7964 -8.02642)
(2.80119 43.0222 -3.18424)
(17.008 64.1476 -7.79476)
(11.2805 72.8983 -4.14444)
(25.9657 99.0737 -8.96559)
(11.4333 64.6578 -5.05112)
(31.7777 92.7898 -11.6171)
(8.70502 61.5042 -5.06795)
(28.503 88.5317 -11.8611)
(6.49406 59.6877 -4.9533)
(24.5666 85.9661 -11.5549)
(4.92934 58.61 -4.82572)
(21.3768 84.4412 -11.1702)
(3.79183 57.9158 -4.7135)
(18.8981 83.4602 -10.8137)
(2.89892 57.4233 -4.61478)
(16.8851 82.7324 -10.4951)
(12.012 92.0623 -5.23633)
(26.845 122.032 -11.7401)
(11.9763 83.0862 -6.85258)
(31.4713 114.968 -15.2184)
(8.82747 79.4455 -6.86593)
(27.308 110.054 -15.1939)
(6.27963 77.413 -6.6894)
(22.8862 107.214 -14.6246)
(4.49011 76.2195 -6.50724)
(19.4484 105.558 -14.0596)
(3.20191 75.4558 -6.35257)
(16.8445 104.505 -13.5798)
(2.20352 74.9153 -6.22095)
(14.7757 103.727 -13.173)
(11.4318 113.97 -6.00367)
(25.4836 146.599 -14.1841)
(11.0206 104.332 -8.50666)
(28.3733 138.627 -18.3187)
(7.49127 100.267 -8.53935)
(23.4092 133.176 -17.9704)
(4.66854 98.0495 -8.29862)
(18.6501 130.119 -17.1243)
(2.70625 96.762 -8.06023)
(15.0892 128.36 -16.3831)
(1.31061 95.945 -7.86393)
(12.4601 127.254 -15.7912)
(0.245593 95.369 -7.7021)
(10.4207 126.44 -15.3108)
(8.97851 138.312 -6.0746)
(21.4176 172.079 -15.6625)
(8.01666 128.02 -9.53192)
(22.3353 163.058 -20.1501)
(4.1818 123.598 -9.63371)
(16.7882 157.193 -19.5276)
(1.17402 121.229 -9.35664)
(11.8873 153.977 -18.4735)
(-0.889974 119.874 -9.07948)
(8.34219 152.155 -17.6092)
(-2.33677 119.025 -8.85442)
(5.78931 151.025 -16.9462)
(-3.41944 118.427 -8.67406)
(3.85983 150.199 -16.4271)
(4.25902 163.805 -5.06681)
(14.5917 196.821 -15.517)
(2.59329 153.039 -9.33722)
(13.6437 186.905 -19.9747)
(-1.43628 148.429 -9.53134)
(7.8054 180.88 -19.1613)
(-4.5092 145.992 -9.25185)
(2.97864 177.625 -18.0029)
(-6.58282 144.616 -8.96402)
(-0.407173 175.801 -17.0953)
(-8.01099 143.766 -8.73269)
(-2.78533 174.687 -16.4219)
(-9.05343 143.167 -8.55375)
(-4.53129 173.875 -15.9136)
(-2.73651 189.056 -2.78702)
(5.36499 219.524 -13.4023)
(-5.01811 178.493 -7.58965)
(3.07607 209.382 -17.5684)
(-9.10653 173.846 -7.90372)
(-2.71491 203.433 -16.7221)
(-12.1471 171.414 -7.66678)
(-7.29186 200.249 -15.5916)
(-14.1612 170.056 -7.40452)
(-10.4223 198.483 -14.7308)
(-15.5188 169.23 -7.19539)
(-12.5689 197.419 -14.1112)
(-16.4886 168.679 -7.03482)
(-14.1081 196.682 -13.655)
(-11.5817 212.271 0.525538)
(-5.43846 238.882 -9.6284)
(-14.1672 202.751 -4.46166)
(-8.30094 229.388 -13.3811)
(-18.1846 198.354 -4.92709)
(-13.8005 223.849 -12.6387)
(-21.1047 196.077 -4.7705)
(-18.0188 220.911 -11.6367)
(-22.9996 194.826 -4.56225)
(-20.841 219.301 -10.8877)
(-24.2457 194.083 -4.39503)
(-22.7301 218.349 -10.3642)
(-25.1071 193.593 -4.27211)
(-24.0474 217.707 -9.99272)
(-20.433 230.181 3.2001)
(-15.6398 252.699 -6.05017)
(-22.9922 222.383 -1.45792)
(-18.4518 244.622 -9.22153)
(-26.7665 218.587 -2.01652)
(-23.4702 239.818 -8.62498)
(-29.462 216.634 -1.9439)
(-27.2561 237.281 -7.79727)
(-31.1807 215.575 -1.79774)
(-29.7473 235.903 -7.18535)
(-32.2859 214.961 -1.67697)
(-31.3806 235.103 -6.76762)
(-33.0264 214.558 -1.59204)
(-32.4902 234.574 -6.48139)
(-28.4108 243.78 4.29348)
(-24.4462 262.539 -3.89845)
(-30.6833 237.815 0.376284)
(-26.8926 256.084 -6.3043)
(-34.0769 234.754 -0.159603)
(-31.3376 252.125 -5.7775)
(-36.4776 233.188 -0.127447)
(-34.668 250.038 -5.08421)
(-37.9883 232.35 -0.0209536)
(-36.8339 248.916 -4.5815)
(-38.942 231.874 0.0686433)
(-38.2296 248.273 -4.24649)
(-39.5633 231.561 0.128862)
(-39.1559 247.856 -4.02451)
(-35.8681 255.738 4.08898)
(-32.3497 270.925 -2.98638)
(-37.6103 251.29 1.08468)
(-34.2327 265.881 -4.57933)
(-40.4918 248.927 0.657888)
(-38.0239 262.726 -4.05789)
(-42.5334 247.725 0.686849)
(-40.8702 261.069 -3.45918)
(-43.8092 247.09 0.773308)
(-42.7089 260.184 -3.03861)
(-44.6043 246.736 0.844043)
(-43.8788 259.683 -2.76566)
(-45.1116 246.503 0.889341)
(-44.6416 259.364 -2.59036)
(-43.0905 267.79 3.15119)
(-39.7212 279.446 -2.79703)
(-44.1287 264.224 1.03856)
(-40.9369 275.288 -3.66598)
(-46.3685 262.417 0.757352)
(-43.9893 272.816 -3.14318)
(-47.979 261.511 0.797816)
(-46.3023 271.533 -2.62944)
(-48.9888 261.034 0.870709)
(-47.7985 270.849 -2.28076)
(-49.6178 260.764 0.924956)
(-48.7494 270.458 -2.05968)
(-50.0247 260.61 0.959076)
(-49.3736 270.228 -1.91869)
(-50.232 280.806 2.08675)
(-46.791 288.929 -2.76307)
(-50.4476 277.587 0.724002)
(-47.265 285.174 -3.08499)
(-51.9821 276.124 0.571052)
(-49.5422 283.18 -2.58617)
(-53.1363 275.407 0.616854)
(-51.3131 282.169 -2.16061)
(-53.8725 275.032 0.674512)
(-52.4708 281.633 -1.88178)
(-54.3368 274.821 0.714376)
(-53.2133 281.326 -1.70763)
(-54.6403 274.698 0.737467)
(-53.7053 281.144 -1.59782)
(-57.4111 295.054 1.38393)
(-53.7488 299.654 -2.44108)
(-56.6589 291.818 0.510927)
(-53.3449 295.951 -2.49778)
(-57.4907 290.526 0.420357)
(-54.8617 294.246 -2.08117)
(-58.209 289.907 0.452277)
(-56.1243 293.404 -1.75358)
(-58.6867 289.584 0.488177)
(-56.9686 292.961 -1.54472)
(-58.995 289.402 0.511162)
(-57.518 292.706 -1.4161)
(-59.2005 289.296 0.522733)
(-57.8873 292.555 -1.33582)
(-64.7483 310.535 1.18578)
(-60.798 311.679 -1.65716)
(-62.934 307.163 0.491375)
(-59.3993 307.872 -1.75885)
(-63.0983 305.986 0.409203)
(-60.1952 306.354 -1.46924)
(-63.4125 305.429 0.412022)
(-60.9917 305.621 -1.24938)
(-63.6505 305.145 0.42266)
(-61.5477 305.243 -1.11269)
(-63.813 304.995 0.430086)
(-61.9157 305.036 -1.02951)
(-63.914 304.869 0.429993)
(-62.1564 304.883 -0.980581)
(-71.661 325.522 1.25442)
(-67.4714 323.688 -0.729194)
(-68.7929 322.128 0.523248)
(-65.0242 319.829 -1.06158)
(-68.3648 321.122 0.447434)
(-65.172 318.5 -0.88415)
(-68.3267 320.635 0.42811)
(-65.5633 317.853 -0.753272)
(-68.3574 320.385 0.418305)
(-65.8714 317.52 -0.675899)
(-68.3932 320.253 0.411036)
(-66.0829 317.341 -0.631302)
(-68.4156 320.152 0.402445)
(-66.2215 317.215 -0.607048)
(-77.5847 338.138 1.2244)
(-73.2699 334.08 -0.0970848)
(-73.7848 334.963 0.481612)
(-69.848 330.384 -0.588705)
(-72.8511 334.177 0.444326)
(-69.4336 329.267 -0.463857)
(-72.5154 333.772 0.420133)
(-69.482 328.703 -0.389358)
(-72.3747 333.563 0.401784)
(-69.5864 328.414 -0.350249)
(-72.3086 333.453 0.388028)
(-69.6731 328.26 -0.330035)
(-72.2702 333.376 0.376283)
(-69.7335 328.159 -0.320662)
(-82.7349 348.615 1.05158)
(-78.4054 342.913 0.21563)
(-78.101 345.852 0.382289)
(-74.0861 339.587 -0.304854)
(-76.7098 345.302 0.397607)
(-73.1567 338.702 -0.192061)
(-76.1076 344.988 0.376623)
(-72.8971 338.227 -0.151765)
(-75.8166 344.829 0.356667)
(-72.8228 337.986 -0.135978)
(-75.6631 344.747 0.341348)
(-72.803 337.86 -0.130287)
(-75.5732 344.693 0.32931)
(-72.7979 337.782 -0.129456)
(-87.1901 357.166 0.809364)
(-82.9357 350.263 0.304951)
(-81.8146 354.928 0.274639)
(-77.816 347.459 -0.145485)
(-80.0045 354.612 0.330125)
(-76.4113 346.816 -0.0341509)
(-79.1615 354.396 0.313246)
(-75.8706 346.442 -0.0151098)
(-78.7365 354.291 0.295159)
(-75.6361 346.259 -0.0124513)
(-78.5061 354.24 0.280987)
(-75.5221 346.166 -0.0145804)
(-78.3712 354.207 0.270196)
(-75.46 346.11 -0.018107)
(-91.0265 364.103 0.573364)
(-86.9129 356.319 0.282073)
(-84.9912 362.42 0.183582)
(-81.0881 354.108 -0.0617716)
(-82.7989 362.319 0.256756)
(-79.245 353.704 0.0424832)
(-81.7391 362.2 0.242965)
(-78.4478 353.44 0.0485972)
(-81.1944 362.152 0.228404)
(-78.0679 353.319 0.0452357)
(-80.8958 362.132 0.216606)
(-77.8694 353.26 0.039827)
(-80.7213 362.119 0.207688)
(-77.7567 353.226 0.0347041)
(-94.3349 369.765 0.378724)
(-90.3922 361.31 0.218538)
(-87.7112 368.617 0.114821)
(-83.9495 359.695 -0.0215064)
(-85.1701 368.701 0.187166)
(-81.7035 359.511 0.0677264)
(-83.9153 368.675 0.176612)
(-80.6723 359.356 0.0676077)
(-83.2632 368.678 0.166719)
(-80.1604 359.295 0.0631053)
(-82.9037 368.686 0.157816)
(-79.8854 359.269 0.0570997)
(-82.6937 368.689 0.150912)
(-79.7272 359.254 0.0518451)
(-97.1175 374.308 0.235611)
(-93.351 365.341 0.151456)
(-89.9897 373.652 0.0676316)
(-86.3948 364.296 -0.00501457)
(-87.1415 373.891 0.127886)
(-83.7925 364.311 0.0645751)
(-85.7164 373.948 0.121348)
(-82.5547 364.259 0.0634415)
(-84.9705 373.997 0.116782)
(-81.9258 364.253 0.06114)
(-84.558 374.029 0.110861)
(-81.5833 364.257 0.0562365)
(-84.3173 374.046 0.105824)
(-81.3852 364.258 0.0517149)
(-99.408 377.897 0.139123)
(-95.8147 368.548 0.0968855)
(-91.861 377.683 0.0374096)
(-88.4441 368.03 -4.68082e-05)
(-88.7506 378.048 0.0816531)
(-85.537 368.219 0.0496417)
(-87.1814 378.18 0.0791991)
(-84.1221 368.265 0.0502031)
(-86.3558 378.268 0.0798795)
(-83.3924 368.31 0.0516985)
(-85.8983 378.321 0.0769144)
(-82.9918 368.34 0.0487197)
(-85.6319 378.349 0.07356)
(-82.7596 368.357 0.0451479)
(-101.279 380.732 0.0775057)
(-97.8435 371.093 0.0576139)
(-93.386 380.904 0.0190023)
(-90.1405 371.046 0.000312301)
(-90.0545 381.368 0.0483345)
(-86.9764 371.382 0.032913)
(-88.3647 381.562 0.048859)
(-85.4117 371.513 0.0354015)
(-87.4725 381.684 0.0537878)
(-84.5967 371.603 0.0408317)
(-86.9776 381.754 0.0540774)
(-84.147 371.656 0.0408049)
(-86.6898 381.792 0.0526445)
(-83.886 371.686 0.0387975)
(-102.793 382.972 0.0403602)
(-99.4956 373.11 0.0319186)
(-94.621 383.471 0.00810639)
(-91.5327 373.47 -0.000862029)
(-91.1056 384.01 0.0259607)
(-88.1549 373.926 0.0189384)
(-89.3157 384.255 0.0277809)
(-86.4652 374.129 0.0221943)
(-88.3685 384.404 0.0348802)
(-85.5789 374.257 0.030072)
(-87.843 384.489 0.0386205)
(-85.0884 374.331 0.0338426)
(-87.5377 384.535 0.0397025)
(-84.8036 374.373 0.0343816)
(-104.016 384.736 0.0190435)
(-100.836 374.704 0.0161685)
(-95.6165 385.512 0.00229097)
(-92.668 375.411 -0.00178735)
(-91.9489 386.108 0.0122043)
(-89.114 375.963 0.00919276)
(-90.0765 386.394 0.0139604)
(-87.3208 376.226 0.0119482)
(-89.0839 386.564 0.0205893)
(-86.3753 376.386 0.0196383)
(-88.5337 386.663 0.0269863)
(-85.8515 376.479 0.0268076)
(-88.2145 386.718 0.0313237)
(-85.5474 376.532 0.0310813)
(-105 386.132 0.00762299)
(-101.921 375.966 0.00717337)
(-96.4174 387.138 -0.000323098)
(-93.5894 376.966 -0.00201233)
(-92.6251 387.777 0.00458192)
(-89.8911 377.595 0.00339809)
(-90.6853 388.095 0.00563678)
(-88.0129 377.905 0.00503261)
(-89.6551 388.28 0.00981971)
(-87.0183 378.089 0.0101957)
(-89.0847 388.39 0.0165202)
(-86.4672 378.198 0.0182281)
(-88.7548 388.454 0.0239738)
(-86.148 378.264 0.0264183)
(-105.789 387.239 0.00230748)
(-102.793 376.969 0.0026107)
(-97.0601 388.434 -0.0010072)
(-94.3334 378.21 -0.00158246)
(-93.1663 389.105 0.0010489)
(-90.5178 378.897 0.000662608)
(-91.1718 389.447 0.00141992)
(-88.5704 379.247 0.00128331)
(-90.1105 389.64 0.00293396)
(-87.535 379.445 0.00338374)
(-89.523 389.756 0.00715628)
(-86.9609 379.565 0.00877855)
(-89.1848 389.828 0.0148792)
(-86.6298 379.641 0.0176559)
(-106.421 388.118 0.000357871)
(-103.492 377.765 0.000579078)
(-97.5746 389.466 -0.000706344)
(-94.9319 379.204 -0.000779618)
(-93.5985 390.159 -0.000175045)
(-91.0214 379.937 -0.000192372)
(-91.5602 390.521 -0.000143987)
(-89.0182 380.316 -0.000100723)
(-90.4732 390.719 -0.0002405)
(-87.949 380.524 -3.7972e-05)
(-89.8705 390.833 0.000116438)
(-87.3548 380.645 0.000612879)
(-89.5239 390.905 0.00400737)
(-87.0123 380.723 0.00520908)
(0.0198936 0.979239 -0.00382465)
(0.792668 1.65268 -0.0247484)
(-0.00900214 0.967734 -0.00365494)
(0.666467 1.63131 -0.0215671)
(-0.0335005 0.959272 -0.00350342)
(0.56241 1.61691 -0.0188223)
(-0.0632816 0.950196 -0.00355316)
(0.439702 1.60109 -0.0164097)
(-0.116473 0.936877 -0.00374008)
(0.23014 1.5748 -0.0130269)
(-0.253608 0.91838 -0.00339444)
(-0.277628 1.52838 -0.00372252)
(0.10078 3.27571 -0.0347533)
(2.53706 5.46939 -0.173708)
(0.00957971 3.23674 -0.0329569)
(2.17277 5.39788 -0.16043)
(-0.0682523 3.20725 -0.0311901)
(1.86566 5.34521 -0.148148)
(-0.163042 3.17581 -0.0292463)
(1.49643 5.28813 -0.133816)
(-0.332322 3.1302 -0.0261775)
(0.855163 5.19913 -0.110572)
(-0.768846 3.06133 -0.0172337)
(-0.718295 5.03815 -0.0557234)
(0.247111 6.28905 -0.128821)
(4.61069 10.3849 -0.510454)
(0.0817487 6.21571 -0.123058)
(4.00037 10.2546 -0.481752)
(-0.0598388 6.15972 -0.117362)
(3.4809 10.156 -0.454468)
(-0.232367 6.09916 -0.110382)
(2.84978 10.047 -0.420789)
(-0.540362 6.00947 -0.0982605)
(1.73881 9.87475 -0.361803)
(-1.33557 5.86521 -0.0660142)
(-1.03475 9.55354 -0.215399)
(0.479304 10.2527 -0.319429)
(6.96632 16.7085 -1.10851)
(0.227471 10.1374 -0.306215)
(6.10961 16.5117 -1.05695)
(0.0114536 10.0484 -0.293738)
(5.37694 16.3609 -1.00891)
(-0.25192 9.95111 -0.278452)
(4.48096 16.1921 -0.949532)
(-0.722088 9.80398 -0.250945)
(2.88769 15.9195 -0.841825)
(-1.9372 9.55258 -0.175415)
(-1.16151 15.3856 -0.552646)
(0.813092 15.4681 -0.654477)
(9.4899 24.8086 -2.04962)
(0.462961 15.3033 -0.629606)
(8.39554 24.5395 -1.9665)
(0.162307 15.175 -0.606601)
(7.45791 24.3319 -1.89072)
(-0.204396 15.0331 -0.578432)
(6.30715 24.0981 -1.79782)
(-0.858992 14.8144 -0.527173)
(4.24721 23.7145 -1.62788)
(-2.55116 14.4192 -0.38443)
(-1.06332 22.923 -1.15055)
(1.24707 22.3119 -1.19361)
(11.972 35.0958 -3.42254)
(0.788924 22.0918 -1.152)
(10.6608 34.7518 -3.29746)
(0.39524 21.9191 -1.11405)
(9.53725 34.4854 -3.18558)
(-0.0850392 21.726 -1.06775)
(8.15635 34.1847 -3.04973)
(-0.942081 21.423 -0.983489)
(5.67565 33.6868 -2.8021)
(-3.15583 20.847 -0.748206)
(-0.777802 32.6138 -2.09941)
(1.72587 31.2259 -2.00329)
(14.0591 47.9599 -5.28682)
(1.1547 30.9469 -1.93984)
(12.5652 47.543 -5.10979)
(0.663706 30.7264 -1.88247)
(11.2868 47.2193 -4.95376)
(0.0646129 30.4777 -1.81266)
(9.71578 46.8535 -4.76536)
(-1.00401 30.0816 -1.68552)
(6.89027 46.2456 -4.42366)
(-3.7597 29.297 -1.33121)
(-0.490879 44.8964 -3.46246)
(2.0731 42.6488 -3.10536)
(15.2306 63.6244 -7.57299)
(1.39061 42.3148 -3.01462)
(13.6007 63.1471 -7.33444)
(0.804023 42.0494 -2.93339)
(12.2091 62.7763 -7.12698)
(0.0884086 41.7481 -2.83496)
(10.5012 62.3565 -6.87786)
(-1.18657 41.2605 -2.65683)
(7.43262 61.6551 -6.43009)
(-4.46347 40.2569 -2.16595)
(-0.582246 60.0605 -5.19446)
(2.05994 56.9972 -4.50685)
(15.0105 82.1544 -10.1992)
(1.2788 56.6125 -4.38569)
(13.3069 81.6243 -9.89499)
(0.607654 56.3053 -4.27843)
(11.8565 81.2112 -9.63342)
(-0.211107 55.9545 -4.14943)
(10.0794 80.7429 -9.3206)
(-1.66843 55.3809 -3.91745)
(6.89215 79.9599 -8.76214)
(-5.39992 54.1711 -3.28319)
(-1.41452 78.1702 -7.24477)
(1.27699 74.4562 -6.08276)
(12.8743 103.123 -12.8041)
(0.420777 74.0345 -5.93025)
(11.1621 102.562 -12.4376)
(-0.314638 73.6976 -5.79616)
(9.70849 102.125 -12.1247)
(-1.2116 73.3109 -5.63566)
(7.9315 101.629 -11.7508)
(-2.80543 72.6717 -5.34909)
(4.75352 100.795 -11.087)
(-6.86371 71.2895 -4.57743)
(-3.48935 98.8713 -9.31362)
(-0.730746 94.8879 -7.53774)
(8.56941 125.818 -14.8834)
(-1.62587 94.4387 -7.35945)
(6.91705 125.235 -14.4708)
(-2.39442 94.0795 -7.20385)
(5.51809 124.781 -14.1205)
(-3.33167 93.6656 -7.0187)
(3.81154 124.264 -13.7027)
(-4.99444 92.9766 -6.69044)
(0.768544 123.393 -12.9642)
(-9.20192 91.466 -5.81739)
(-7.07972 121.389 -11.0167)
(-4.40101 117.942 -8.49514)
(2.12739 149.58 -15.9717)
(-5.29351 117.48 -8.30302)
(0.59351 148.997 -15.5405)
(-6.05948 117.112 -8.1361)
(-0.701936 148.541 -15.176)
(-6.99333 116.686 -7.93837)
(-2.27901 148.021 -14.7412)
(-8.64663 115.971 -7.58968)
(-5.08227 147.142 -13.9748)
(-12.7975 114.387 -6.67318)
(-12.2633 145.119 -11.9773)
(-9.9921 142.699 -8.37805)
(-6.08709 173.282 -15.4715)
(-10.8383 142.241 -8.19029)
(-7.45502 172.714 -15.0584)
(-11.5647 141.877 -8.0276)
(-8.6082 172.272 -14.7099)
(-12.4499 141.456 -7.83598)
(-10.0096 171.765 -14.2946)
(-14.0135 140.746 -7.49981)
(-12.4932 170.907 -13.5648)
(-17.9039 139.164 -6.62488)
(-18.8105 168.936 -11.6806)
(-17.3333 168.217 -6.88111)
(-15.4415 196.115 -13.2653)
(-18.1035 167.805 -6.71617)
(-16.623 195.603 -12.9016)
(-18.7628 167.463 -6.57581)
(-17.6164 195.194 -12.5968)
(-19.5662 167.064 -6.41122)
(-18.8216 194.722 -12.2341)
(-20.9821 166.393 -6.12248)
(-20.9514 193.923 -11.5981)
(-24.4467 164.894 -5.38108)
(-26.2998 192.093 -9.97912)
(-25.8402 193.202 -4.15706)
(-25.1651 217.223 -9.68012)
(-26.5051 192.848 -4.02854)
(-26.1482 216.782 -9.38659)
(-27.078 192.552 -3.91995)
(-26.9778 216.428 -9.14078)
(-27.7778 192.204 -3.79503)
(-27.985 216.018 -8.85021)
(-29.0084 191.619 -3.57877)
(-29.76 215.323 -8.34453)
(-31.9454 190.329 -3.03843)
(-34.1335 213.751 -7.08778)
(-33.6487 214.259 -1.5118)
(-33.4196 234.191 -6.24095)
(-34.206 213.971 -1.41913)
(-34.2284 233.826 -6.01505)
(-34.6917 213.734 -1.3417)
(-34.9159 233.537 -5.82606)
(-35.2881 213.455 -1.25604)
(-35.753 233.201 -5.60523)
(-36.3353 212.983 -1.11196)
(-37.2259 232.63 -5.22547)
(-38.7743 211.969 -0.76162)
(-40.7871 231.362 -4.30501)
(-40.0829 231.347 0.184702)
(-39.9267 247.563 -3.8388)
(-40.5469 231.125 0.250726)
(-40.5969 247.273 -3.66383)
(-40.9559 230.945 0.304308)
(-41.171 247.045 -3.51828)
(-41.4608 230.734 0.360158)
(-41.8724 246.782 -3.35067)
(-42.3474 230.378 0.450084)
(-43.1059 246.332 -3.06629)
(-44.3673 229.629 0.663517)
(-46.037 245.352 -2.39372)
(-45.5347 246.354 0.928138)
(-45.2744 259.147 -2.4458)
(-45.9154 246.19 0.975198)
(-45.8284 258.921 -2.30847)
(-46.2545 246.06 1.01134)
(-46.3065 258.746 -2.19547)
(-46.6756 245.907 1.04542)
(-46.8929 258.545 -2.0679)
(-47.416 245.65 1.09595)
(-47.9244 258.2 -1.85531)
(-49.0712 245.118 1.21255)
(-50.3405 257.461 -1.36596)
(-50.3527 260.489 0.9876)
(-49.8817 270.057 -1.80438)
(-50.6575 260.373 1.02271)
(-50.3338 269.884 -1.6938)
(-50.9301 260.278 1.04684)
(-50.7246 269.75 -1.60497)
(-51.2703 260.168 1.06557)
(-51.2049 269.598 -1.50777)
(-51.8695 259.982 1.08798)
(-52.0505 269.333 -1.35025)
(-53.1933 259.592 1.13618)
(-54.0246 268.773 -0.997427)
(-54.8887 274.604 0.755183)
(-54.1112 281.012 -1.50952)
(-55.122 274.514 0.778064)
(-54.4728 280.873 -1.42336)
(-55.3314 274.441 0.791206)
(-54.7847 280.769 -1.35608)
(-55.5934 274.355 0.796799)
(-55.1674 280.65 -1.2854)
(-56.0564 274.213 0.796575)
(-55.8414 280.444 -1.17454)
(-57.0742 273.915 0.794288)
(-57.4221 280.012 -0.931654)
(-59.3706 289.211 0.529958)
(-58.1953 292.444 -1.27214)
(-59.5355 289.137 0.540685)
(-58.4729 292.329 -1.20959)
(-59.6836 289.074 0.543081)
(-58.7113 292.243 -1.16276)
(-59.8692 289 0.5364)
(-59.0032 292.145 -1.11638)
(-60.199 288.88 0.51599)
(-59.5178 291.977 -1.04697)
(-60.9232 288.625 0.471054)
(-60.7325 291.622 -0.898636)
(-64.0163 304.814 0.423968)
(-62.3756 304.803 -0.943181)
(-64.1136 304.743 0.41974)
(-62.5725 304.702 -0.906813)
(-64.2027 304.687 0.41042)
(-62.7432 304.629 -0.881139)
(-64.3139 304.618 0.391796)
(-62.9514 304.544 -0.858328)
(-64.5142 304.511 0.353972)
(-63.3196 304.401 -0.826907)
(-64.9524 304.283 0.276403)
(-64.184 304.096 -0.762146)
(-68.4462 320.093 0.390712)
(-66.3496 317.138 -0.58998)
(-68.4839 320.039 0.379356)
(-66.474 317.059 -0.572877)
(-68.5177 319.988 0.364082)
(-66.5826 316.994 -0.562925)
(-68.5601 319.925 0.339393)
(-66.7159 316.918 -0.557364)
(-68.6407 319.83 0.292261)
(-66.9546 316.794 -0.553809)
(-68.8229 319.629 0.196663)
(-67.5108 316.528 -0.549865)
(-72.245 333.318 0.363121)
(-69.791 328.084 -0.315768)
(-72.2341 333.281 0.349549)
(-69.8562 328.025 -0.31058)
(-72.2216 333.239 0.332939)
(-69.9127 327.97 -0.310127)
(-72.205 333.185 0.307837)
(-69.9825 327.904 -0.314535)
(-72.1826 333.107 0.261171)
(-70.1106 327.799 -0.326461)
(-72.1521 332.941 0.168214)
(-70.4127 327.568 -0.354331)
(-75.5033 344.642 0.316895)
(-72.7983 337.715 -0.131178)
(-75.4515 344.622 0.303824)
(-72.8136 337.674 -0.13267)
(-75.3993 344.59 0.288523)
(-72.8253 337.631 -0.1372)
(-75.3316 344.55 0.266157)
(-72.8396 337.577 -0.146373)
(-75.2195 344.496 0.225212)
(-72.8712 337.495 -0.165151)
(-75.009 344.375 0.1451)
(-72.9573 337.307 -0.205923)
(-78.2644 354.169 0.259603)
(-75.4127 346.055 -0.0228388)
(-78.1776 354.164 0.248408)
(-75.3848 346.031 -0.0274406)
(-78.0912 354.145 0.235653)
(-75.3574 346 -0.033925)
(-77.9792 354.12 0.217356)
(-75.3229 345.96 -0.0444794)
(-77.7889 354.092 0.184183)
(-75.2693 345.904 -0.0646636)
(-77.4248 354.021 0.120463)
(-75.1689 345.764 -0.106927)
(-80.5833 362.093 0.199223)
(-77.6684 353.184 0.0291591)
(-80.4665 362.102 0.190325)
(-77.6029 353.177 0.023589)
(-80.3507 362.094 0.180396)
(-77.5414 353.158 0.0168964)
(-80.2001 362.084 0.166322)
(-77.4639 353.132 0.00689837)
(-79.9419 362.081 0.140975)
(-77.3351 353.103 -0.0115462)
(-79.4468 362.059 0.0932592)
(-77.0731 353.014 -0.0488544)
(-82.5294 368.677 0.144499)
(-79.6035 359.226 0.0466228)
(-82.3875 368.699 0.137848)
(-79.5059 359.235 0.0413621)
(-82.2466 368.703 0.130517)
(-79.4146 359.228 0.0354425)
(-82.0632 368.708 0.120127)
(-79.2996 359.218 0.0268859)
(-81.747 368.733 0.101351)
(-79.1052 359.216 0.01127)
(-81.1417 368.762 0.0666783)
(-78.7043 359.181 -0.0193725)
(-84.1309 374.045 0.101137)
(-81.2313 364.244 0.0472659)
(-83.9679 374.078 0.0963)
(-81.106 364.266 0.0425956)
(-83.8061 374.094 0.0909818)
(-80.9893 364.271 0.0375298)
(-83.595 374.113 0.0833442)
(-80.842 364.275 0.0304069)
(-83.2301 374.161 0.0692644)
(-80.5911 364.298 0.0174768)
(-82.5335 374.239 0.0435661)
(-80.0723 364.313 -0.00714545)
(-85.4269 378.357 0.0703379)
(-82.5802 368.353 0.0415974)
(-85.2464 378.399 0.0670006)
(-82.4314 368.387 0.0378206)
(-85.067 378.423 0.0631464)
(-82.293 368.401 0.0336631)
(-84.8327 378.452 0.0571981)
(-82.1182 368.416 0.0275625)
(-84.427 378.52 0.0455181)
(-81.8192 368.459 0.0159711)
(-83.6552 378.637 0.0246997)
(-81.2015 368.519 -0.00528487)
(-86.4695 381.807 0.050838)
(-83.6851 371.692 0.0363097)
(-86.2744 381.855 0.0485645)
(-83.5166 371.734 0.0331168)
(-86.0804 381.885 0.0454639)
(-83.3598 371.755 0.0292865)
(-85.8269 381.922 0.0400621)
(-83.1618 371.779 0.0233159)
(-85.3875 382.004 0.0285029)
(-82.8224 371.839 0.0113611)
(-84.5543 382.152 0.010132)
(-82.1226 371.937 -0.00798787)
(-87.305 384.556 0.03973)
(-84.5851 374.386 0.0335752)
(-87.0978 384.609 0.0385948)
(-84.4 374.434 0.0310657)
(-86.8919 384.643 0.0358463)
(-84.2279 374.461 0.0271562)
(-86.6225 384.685 0.0298762)
(-84.0106 374.491 0.0202702)
(-86.1557 384.778 0.0160001)
(-83.6378 374.565 0.00559682)
(-85.2727 384.95 -0.00077255)
(-82.8703 374.693 -0.0122767)
(-87.9719 386.744 0.0340793)
(-85.3145 376.553 0.0332301)
(-87.755 386.8 0.034462)
(-85.1158 376.605 0.0319953)
(-87.5392 386.837 0.0316987)
(-84.931 376.636 0.0277479)
(-87.2572 386.884 0.0240683)