/*--------------------------------*- C++ -*----------------------------------*\
| =========                 |                                                 |
| \\      /  F ield         | OpenFOAM: The Open Source CFD Toolbox           |
|  \\    /   O peration     | Version:  2212                                  |
|   \\  /    A nd           | Website:  www.openfoam.com                      |
|    \\/     M anipulation  |                                                 |
\*---------------------------------------------------------------------------*/
FoamFile
{
    version     2.0;
    format      ascii;
    arch        "LSB;label=32;scalar=64";
    class       volVectorField;
    location    "990";
    object      Urel;
}
// * * * * * * * * * * * * * * * * * * * * * * * * * * * * * * * * * * * * * //

dimensions      [0 1 -1 0 0 0 0];

internalField   nonuniform List<vector> 
50904
(
(96.4784 -373.228 0.0398772)
(94.4664 -365.869 0.0393075)
(89.2438 -374.107 -0.0182908)
(87.9469 -367.232 -0.0246585)
(95.8133 -367.022 0.0428397)
(94.0508 -358.829 0.0353518)
(90.2169 -371.771 -0.00332508)
(89.8556 -363.683 -0.037373)
(95.0409 -359.531 0.0715542)
(93.5844 -350.315 0.0440191)
(91.326 -368.559 0.0232793)
(92.0373 -358.965 -0.072727)
(94.1539 -350.57 0.117714)
(93.0664 -340.111 0.047227)
(92.5539 -364.153 0.0847689)
(94.4615 -352.711 -0.128323)
(93.1422 -339.959 0.192853)
(92.4883 -328.007 0.0425711)
(93.8601 -358.151 0.198152)
(97.0541 -344.471 -0.216327)
(91.9862 -327.531 0.332492)
(91.8218 -313.814 0.0459258)
(95.1709 -350.065 0.377417)
(99.6804 -333.739 -0.363003)
(90.6305 -313.046 0.596212)
(90.9925 -297.28 0.0889335)
(96.3713 -339.318 0.639663)
(102.144 -319.943 -0.603805)
(88.9993 -296.349 1.14131)
(89.8879 -278.275 0.292668)
(97.2835 -325.327 0.9819)
(104.151 -302.582 -1.00206)
(87.0086 -277.513 2.23216)
(88.3433 -256.955 0.887625)
(97.6623 -307.676 1.40517)
(105.296 -281.454 -1.5879)
(84.5539 -256.844 4.10695)
(86.1722 -233.882 2.09065)
(97.2283 -286.49 2.00833)
(105.168 -257.109 -2.23668)
(81.6251 -234.744 7.25268)
(83.2976 -209.647 4.36975)
(95.7285 -262.15 2.90773)
(103.454 -230.279 -2.74288)
(78.3296 -211.68 12.0803)
(79.763 -184.906 8.15791)
(92.9846 -235.316 4.41954)
(99.9563 -201.894 -2.65284)
(75.135 -189.366 18.5241)
(76.0119 -161.696 13.4508)
(89.0953 -208.007 6.86355)
(94.8832 -174.359 -1.43588)
(72.5784 -169.441 25.6729)
(72.5853 -141.772 19.4476)
(84.4742 -182.371 10.2236)
(88.8035 -149.823 1.06339)
(70.9224 -153.582 31.7907)
(69.709 -126.748 24.6347)
(79.6184 -160.888 13.6023)
(82.3852 -130.47 4.09904)
(69.5053 -142.879 34.0854)
(66.928 -117.482 26.6022)
(75.1951 -146.287 15.0503)
(76.5994 -118.409 5.84236)
(67.2733 -134.591 32.6578)
(63.4726 -110.941 25.4235)
(70.9176 -136.021 14.264)
(71.3089 -110.707 5.75672)
(63.4697 -125.376 29.3628)
(58.651 -103.821 22.7825)
(66.1754 -126.738 12.0435)
(65.9027 -104.099 4.46571)
(57.7975 -113.076 25.5238)
(52.2293 -94.0149 19.8234)
(60.6433 -116.404 9.18011)
(60.0788 -96.6152 2.63225)
(50.6856 -97.7975 21.4614)
(44.6377 -81.4338 16.838)
(54.3246 -104.3 5.95273)
(53.7865 -87.5354 0.566485)
(42.7058 -80.3904 17.8012)
(36.4246 -66.7436 14.293)
(47.5384 -90.6112 3.12603)
(47.2345 -76.9222 -1.09794)
(34.3818 -62.1595 14.3466)
(28.1173 -51.0983 11.958)
(40.4732 -75.7214 0.642522)
(40.4723 -65.0387 -2.38813)
(26.7296 -45.7477 11.4443)
(20.7954 -36.901 9.92406)
(33.8457 -61.5323 -0.544048)
(34.0949 -53.3939 -2.59226)
(20.6559 -33.3322 8.63222)
(15.2704 -26.2012 7.69196)
(28.1244 -49.6239 -0.85732)
(28.5092 -43.3811 -2.18603)
(15.9245 -24.2662 6.12647)
(11.2057 -18.5083 5.56253)
(23.1279 -39.7035 -0.777511)
(23.5508 -34.8816 -1.60275)
(12.2803 -17.7805 4.13858)
(8.2579 -13.1412 3.81044)
(18.8038 -31.5414 -0.576968)
(19.2019 -27.7948 -1.07164)
(9.4469 -13.1035 2.68264)
(6.09853 -9.39295 2.50062)
(15.0884 -24.8383 -0.384624)
(15.4289 -21.9226 -0.671697)
(7.20234 -9.6487 1.66978)
(4.48623 -6.72699 1.57482)
(11.8881 -19.2844 -0.236907)
(12.1643 -17.0363 -0.397425)
(5.43921 -7.10113 1.00062)
(3.28377 -4.83309 0.956054)
(9.19411 -14.7537 -0.135407)
(9.40999 -13.042 -0.222338)
(4.05768 -5.20583 0.578987)
(2.38533 -3.47586 0.561314)
(6.9816 -11.1211 -0.0713516)
(7.14449 -9.83334 -0.116911)
(2.96509 -3.76733 0.320184)
(1.70309 -2.47736 0.316314)
(5.17528 -8.20973 -0.0329143)
(5.29477 -7.25961 -0.0557699)
(2.10135 -2.66242 0.167028)
(1.17904 -1.73075 0.169364)
(3.70938 -5.8794 -0.0121968)
(3.79384 -5.19988 -0.0228706)
(1.41662 -1.80822 0.0801363)
(0.775531 -1.1657 0.0844957)
(2.52923 -4.02369 -0.00206979)
(2.58739 -3.55989 -0.00645797)
(0.872062 -1.13881 0.0334279)
(0.461327 -0.731125 0.0374984)
(1.57967 -2.5428 0.00187139)
(1.61753 -2.25011 0.000503981)
(0.43814 -0.611354 0.0109587)
(0.213934 -0.392804 0.0136865)
(0.815643 -1.3578 0.00217299)
(0.836345 -1.20337 0.00201772)
(0.0911031 -0.19421 0.00256589)
(0.0203518 -0.128626 0.0036282)
(0.202819 -0.410365 0.000345647)
(0.211044 -0.367294 0.000471269)
(81.9823 -372.421 0.00495946)
(81.3781 -365.969 -0.00789566)
(76.7602 -372.334 -0.00580236)
(76.838 -366.222 -0.0307122)
(74.8192 -372.281 -0.00195427)
(74.9566 -366.328 -0.0310491)
(73.7844 -372.31 -0.00489115)
(73.8431 -366.449 -0.0339331)
(73.1561 -372.314 -0.0037524)
(73.1105 -366.517 -0.0317854)
(72.7293 -372.317 -0.00386632)
(72.5811 -366.571 -0.0298765)
(72.4015 -372.316 -0.00383224)
(72.1548 -366.617 -0.027267)
(82.8751 -368.613 -0.0352268)
(83.748 -360.52 -0.102747)
(77.652 -369.47 -0.042266)
(80.1508 -361.62 -0.156283)
(75.477 -369.611 -0.038458)
(78.1843 -361.967 -0.179914)
(74.2856 -369.81 -0.0405021)
(76.7718 -362.3 -0.19373)
(73.544 -369.9 -0.0382145)
(75.7263 -362.492 -0.19543)
(73.0338 -369.958 -0.0368155)
(74.9173 -362.632 -0.191843)
(72.6388 -369.995 -0.035896)
(74.239 -362.743 -0.183951)
(83.9922 -363.893 -0.139337)
(86.5737 -353.766 -0.322826)
(78.7617 -365.77 -0.143464)
(84.0035 -355.733 -0.439792)
(76.3222 -366.167 -0.143527)
(81.9075 -356.401 -0.513886)
(74.9403 -366.551 -0.143852)
(80.14 -356.982 -0.548845)
(74.0632 -366.745 -0.139397)
(78.7427 -357.328 -0.555819)
(73.4528 -366.868 -0.135896)
(77.6292 -357.572 -0.548215)
(72.9774 -366.952 -0.132895)
(76.6841 -357.762 -0.531413)
(85.3738 -358.054 -0.348633)
(89.876 -345.433 -0.746356)
(80.1277 -360.996 -0.34785)
(88.3678 -348.242 -0.971878)
(77.3916 -361.714 -0.359606)
(86.0722 -349.323 -1.13111)
(75.782 -362.3 -0.355172)
(83.8865 -350.192 -1.19238)
(74.744 -362.615 -0.345747)
(82.1006 -350.722 -1.20002)
(74.015 -362.815 -0.33738)
(80.6634 -351.087 -1.18079)
(73.445 -362.954 -0.329576)
(79.4431 -351.366 -1.14733)
(87.0514 -350.846 -0.705559)
(93.6286 -335.212 -1.46375)
(81.7808 -354.853 -0.70811)
(93.1357 -338.791 -1.87229)
(78.7136 -355.955 -0.73672)
(90.538 -340.382 -2.14323)
(76.8371 -356.76 -0.725686)
(87.8689 -341.578 -2.22544)
(75.6111 -357.212 -0.707295)
(85.6658 -342.315 -2.21971)
(74.7441 -357.499 -0.690422)
(83.8958 -342.812 -2.17612)
(74.0648 -357.7 -0.674471)
(82.4008 -343.188 -2.11555)
(89.032 -341.963 -1.25346)
(97.7261 -322.774 -2.57918)
(83.7272 -346.988 -1.29497)
(98.0828 -327.018 -3.29163)
(80.2926 -348.526 -1.33868)
(95.048 -329.203 -3.67612)
(78.11 -349.563 -1.3192)
(91.8357 -330.754 -3.75727)
(76.669 -350.164 -1.28699)
(89.2012 -331.709 -3.71491)
(75.6455 -350.547 -1.25671)
(87.1024 -332.344 -3.62895)
(74.8435 -350.817 -1.22818)
(85.3451 -332.822 -3.52746)
(91.2694 -331.022 -2.02702)
(101.954 -307.768 -4.19399)
(85.9083 -337.001 -2.18691)
(102.831 -312.605 -5.37326)
(82.0667 -339.013 -2.23661)
(99.19 -315.456 -5.82681)
(79.5408 -340.292 -2.2034)
(95.3848 -317.37 -5.8609)
(77.8606 -341.046 -2.1518)
(92.3191 -318.541 -5.75017)
(76.6655 -341.531 -2.10281)
(89.9101 -319.311 -5.60053)
(75.731 -341.872 -2.0571)
(87.9174 -319.889 -5.44307)
(93.6104 -317.623 -3.01838)
(105.932 -289.954 -6.35209)
(88.132 -324.504 -3.43867)
(106.801 -295.413 -8.17884)
(83.8385 -327.025 -3.47641)
(102.368 -298.987 -8.58979)
(80.938 -328.552 -3.41274)
(97.9405 -301.258 -8.49458)
(79.0004 -329.458 -3.33003)
(94.4642 -302.629 -8.26807)
(77.6241 -330.041 -3.25371)
(91.7799 -303.52 -8.02642)
(76.553 -330.452 -3.18424)
(89.5928 -304.186 -7.79476)
(95.7877 -301.426 -4.14444)
(109.105 -269.316 -8.96559)
(90.0969 -309.138 -5.05112)
(109.31 -275.461 -11.6171)
(85.3257 -312.176 -5.06795)
(103.962 -279.752 -11.8611)
(82.0401 -313.942 -4.9533)
(98.9378 -282.348 -11.5549)
(79.8431 -314.992 -4.82572)
(95.1103 -283.896 -11.1702)
(78.2892 -315.667 -4.7135)
(92.2143 -284.896 -10.8137)
(77.0888 -316.143 -4.61478)
(89.8958 -285.642 -10.4951)
(97.3435 -282.359 -5.23633)
(110.785 -246.382 -11.7401)
(91.2949 -290.831 -6.85258)
(109.643 -253.333 -15.2184)
(86.0429 -294.366 -6.86593)
(103.346 -258.29 -15.1939)
(82.3897 -296.353 -6.6894)
(97.8047 -261.166 -14.6246)
(79.9523 -297.521 -6.50724)
(93.7134 -262.849 -14.0596)
(78.2402 -298.267 -6.35257)
(90.6847 -263.924 -13.5798)
(76.9319 -298.793 -6.22095)
(88.3079 -264.721 -13.173)
(97.7521 -260.595 -6.00367)
(110.385 -221.863 -14.1841)
(91.1282 -269.768 -8.50666)
(107.314 -229.761 -18.3187)
(85.4252 -273.742 -8.53935)
(100.143 -235.273 -17.9704)
(81.4611 -275.922 -8.29862)
(94.2283 -238.374 -17.1243)
(78.8329 -277.189 -8.06023)
(89.9957 -240.165 -16.3831)
(77.0051 -277.992 -7.86393)
(86.9334 -241.296 -15.7912)
(75.6276 -278.556 -7.7021)
(84.5837 -242.132 -15.3108)
(96.4987 -236.462 -6.0746)
(107.482 -196.468 -15.6625)
(89.0799 -246.349 -9.53192)
(102.205 -205.472 -20.1501)
(82.9862 -250.702 -9.63371)
(94.3655 -211.42 -19.5276)
(78.7938 -253.046 -9.35664)
(88.2648 -214.694 -18.4735)
(76.0423 -254.388 -9.07948)
(84.0262 -216.555 -17.6092)
(74.1536 -255.228 -8.85442)
(81.0304 -217.714 -16.9462)
(72.7557 -255.817 -8.67406)
(78.788 -218.565 -16.4271)
(93.183 -211.289 -5.06681)
(102.012 -171.877 -15.517)
(84.788 -221.743 -9.33722)
(94.6106 -181.859 -19.9747)
(78.402 -226.319 -9.53134)
(86.3816 -188.001 -19.1613)
(74.0949 -228.749 -9.25185)
(80.3052 -191.331 -18.0029)
(71.3094 -230.123 -8.96402)
(76.2015 -193.204 -17.0953)
(69.4286 -230.971 -8.73269)
(73.37 -194.354 -16.4219)
(68.0686 -231.566 -8.55375)
(71.3092 -195.195 -15.9136)
(87.8714 -186.498 -2.78702)
(94.3976 -149.422 -13.4023)
(78.5989 -196.884 -7.58965)
(85.4034 -159.747 -17.5684)
(71.9976 -201.551 -7.90372)
(77.0745 -165.863 -16.7221)
(67.6435 -204.005 -7.66678)
(71.1734 -169.148 -15.5916)
(64.8779 -205.377 -7.40452)
(67.2879 -170.978 -14.7308)
(63.0493 -206.21 -7.19539)
(64.6709 -172.085 -14.1112)
(61.7558 -206.763 -7.03482)
(62.8113 -172.856 -13.655)
(80.9908 -163.959 0.525538)
(85.4516 -130.446 -9.6284)
(71.1936 -173.477 -4.46166)
(75.6649 -140.278 -13.3811)
(64.4349 -177.969 -4.92709)
(67.4207 -146.052 -12.6387)
(60.0862 -180.309 -4.7705)
(61.7739 -149.128 -11.6367)
(57.3826 -181.596 -4.56225)
(58.1444 -150.82 -10.8877)
(55.6384 -182.359 -4.39503)
(55.7598 -151.825 -10.3642)
(54.4426 -182.858 -4.27211)
(54.1118 -152.504 -9.99272)
(74.0626 -146.88 3.2001)
(77.0522 -117.128 -6.05017)
(64.1253 -154.855 -1.45792)
(67.1497 -125.697 -9.22153)
(57.38 -158.827 -2.01652)
(59.1819 -130.808 -8.62498)
(53.141 -160.886 -1.9439)
(53.8649 -133.52 -7.79727)
(50.558 -162.006 -1.79774)
(50.5166 -134.999 -7.18535)
(48.9304 -162.654 -1.67697)
(48.3655 -135.862 -6.76762)
(47.8481 -163.075 -1.59204)
(46.9179 -136.433 -6.48139)
(67.7071 -134.182 4.29348)
(69.7496 -107.865 -3.89845)
(57.9859 -140.462 0.376284)
(60.1402 -114.925 -6.3043)
(51.4311 -143.763 -0.159603)
(52.5799 -119.247 -5.7775)
(47.3923 -145.47 -0.127447)
(47.6358 -121.538 -5.08421)
(44.9731 -146.389 -0.0209536)
(44.5739 -122.777 -4.5815)
(43.4794 -146.911 0.0686433)
(42.6448 -123.489 -4.24649)
(42.5133 -147.248 0.128862)
(41.3775 -123.95 -4.02451)
(61.5624 -123.173 4.08898)
(63.0449 -100.12 -2.98638)
(52.3934 -128.007 1.08468)
(54.0187 -105.829 -4.57933)
(46.2161 -130.644 0.657888)
(46.9996 -109.376 -4.05789)
(42.4701 -132.007 0.686849)
(42.484 -111.252 -3.45918)
(40.2563 -132.734 0.773308)
(39.7249 -112.262 -3.03861)
(38.9116 -133.14 0.844043)
(38.0137 -112.835 -2.76566)
(38.0608 -133.402 0.889341)
(36.9111 -113.198 -2.59036)
(55.3052 -112.109 3.15119)
(56.5434 -92.3059 -2.79703)
(46.9239 -116.057 1.03856)
(48.2669 -97.1241 -3.66598)
(41.3628 -118.129 0.757352)
(41.9715 -99.9792 -3.14318)
(38.0358 -119.19 0.797816)
(37.9823 -101.476 -2.62944)
(36.0838 -119.756 0.870709)
(35.5637 -102.28 -2.28076)
(34.9057 -120.077 0.924956)
(34.0728 -102.742 -2.05968)
(34.159 -120.261 0.959076)
(33.1122 -103.014 -1.91869)
(48.8586 -100.114 2.08675)
(50.0842 -83.5866 -2.76307)
(41.4286 -103.657 0.724002)
(42.6737 -87.9457 -3.08499)
(36.6306 -105.341 0.571052)
(37.2114 -90.2816 -2.58617)
(33.7882 -106.186 0.616854)
(33.7926 -91.4813 -2.16061)
(32.1229 -106.634 0.674512)
(31.7256 -92.1234 -1.88178)
(31.1147 -106.886 0.714376)
(30.4483 -92.4919 -1.70763)
(30.4724 -107.032 0.737467)
(29.6209 -92.7105 -1.59782)
(42.2885 -86.9216 1.38393)
(43.645 -73.6685 -2.44108)
(35.9637 -90.402 0.510927)
(37.2445 -77.9015 -2.49778)
(31.9302 -91.8594 0.420357)
(32.6038 -79.8988 -2.08117)
(29.5541 -92.5738 0.452277)
(29.7232 -80.9002 -1.75358)
(28.1615 -92.9503 0.488177)
(27.9836 -81.4324 -1.54472)
(27.3151 -93.162 0.511162)
(26.9051 -81.7387 -1.4161)
(26.7723 -93.2836 0.522733)
(26.2017 -81.9199 -1.33582)
(35.6034 -72.541 1.18578)
(37.1519 -62.489 -1.65716)
(30.4087 -76.1017 0.491375)
(31.8101 -66.7762 -1.75885)
(27.0753 -77.4099 0.409203)
(27.9202 -68.5562 -1.46924)
(25.1208 -78.0417 0.412022)
(25.5218 -69.4303 -1.24938)
(23.979 -78.366 0.42266)
(24.081 -69.8857 -1.11269)
(23.2862 -78.5363 0.430086)
(23.1915 -70.1357 -1.02951)
(22.8535 -78.6706 0.429993)
(22.6225 -70.3123 -0.980581)
(29.4065 -58.5841 1.25442)
(31.1059 -51.2697 -0.729194)
(25.2216 -62.1733 0.523248)
(26.7652 -55.6163 -1.06158)
(22.4638 -63.3151 0.447434)
(23.5022 -57.2116 -0.88415)
(20.8567 -63.8794 0.42811)
(21.5017 -58.0016 -0.753272)
(19.9262 -64.1706 0.418305)
(20.3116 -58.4122 -0.675899)
(19.3688 -64.3228 0.411036)
(19.5868 -58.6335 -0.631302)
(19.0254 -64.4315 0.402445)
(19.1305 -58.7821 -0.607048)
(24.2145 -46.8239 1.2244)
(25.9646 -41.5231 -0.0970848)
(20.8284 -50.2647 0.481612)
(22.4648 -45.7683 -0.588705)
(18.5187 -51.2209 0.444326)
(19.7029 -47.1813 -0.463857)
(17.1824 -51.7215 0.420133)
(18.0166 -47.9037 -0.389358)
(16.414 -51.9815 0.401784)
(17.0199 -48.2784 -0.350249)
(15.9584 -52.1173 0.388028)
(16.4194 -48.479 -0.330035)
(15.6802 -52.2054 0.376283)
(16.0456 -48.605 -0.320662)
(19.791 -37.0578 1.05158)
(21.4934 -33.2162 0.21563)
(17.052 -40.2012 0.382289)
(18.7045 -37.1895 -0.304854)
(15.1166 -40.9754 0.397607)
(16.3718 -38.4168 -0.192061)
(14.0062 -41.4132 0.376623)
(14.9515 -39.0742 -0.151765)
(13.3701 -41.6386 0.356667)
(14.1147 -39.4137 -0.135978)
(12.9955 -41.7552 0.341348)
(13.6139 -39.5935 -0.130287)
(12.7684 -41.8256 0.32931)
(13.3051 -39.7007 -0.129456)
(16.0226 -29.0892 0.809364)
(17.5963 -26.2905 0.304951)
(13.8153 -31.8443 0.274639)
(15.4006 -29.8599 -0.145485)
(12.2045 -32.448 0.330125)
(13.4472 -30.9006 -0.0341509)
(11.2879 -32.8208 0.313246)
(12.2599 -31.4856 -0.0151098)
(10.7635 -33.0102 0.295159)
(11.5604 -31.7825 -0.0124513)
(10.4562 -33.1061 0.280987)
(11.1438 -31.9381 -0.0145804)
(10.271 -33.1618 0.270196)
(10.8887 -32.0285 -0.018107)
(12.8172 -22.6299 0.573364)
(14.2078 -20.5768 0.282073)
(11.0558 -24.9723 0.183582)
(12.5051 -23.6761 -0.0617716)
(9.73153 -25.4269 0.256756)
(10.8928 -24.5352 0.0424832)
(8.98386 -25.7369 0.242965)
(9.9133 -25.0398 0.0485972)
(8.55574 -25.8878 0.228404)
(9.33532 -25.2906 0.0452357)
(8.30581 -25.9632 0.216606)
(8.99214 -25.4211 0.039827)
(8.15588 -26.0052 0.207688)
(8.78316 -25.4948 0.0347041)
(10.0749 -17.3642 0.378724)
(11.259 -15.8656 0.218538)
(8.69832 -19.3086 0.114821)
(9.97254 -18.4857 -0.0215064)
(7.63157 -19.6412 0.187166)
(8.67081 -19.1792 0.0677264)
(7.03304 -19.8909 0.176612)
(7.87894 -19.6028 0.0676077)
(6.68957 -20.0085 0.166719)
(7.40989 -19.8086 0.0631053)
(6.48965 -20.0658 0.157816)
(7.13212 -19.9145 0.0570997)
(6.37047 -20.0977 0.150912)
(6.96378 -19.9742 0.0518451)
(7.77594 -13.1395 0.235611)
(8.7513 -12.0556 0.151456)
(6.72371 -14.7133 0.0676316)
(7.80322 -14.2074 -0.00501457)
(5.88235 -14.947 0.127886)
(6.77591 -14.7494 0.0645751)
(5.41281 -15.1427 0.121348)
(6.14914 -15.0945 0.0634415)
(5.14247 -15.2298 0.116782)
(5.77625 -15.2584 0.06114)
(4.98546 -15.2719 0.110861)
(5.55576 -15.3416 0.0562365)
(4.89239 -15.295 0.105824)
(5.42264 -15.3896 0.0517149)
(5.89352 -9.80613 0.139123)
(6.67053 -9.0244 0.0968855)
(5.10467 -11.046 0.0374096)
(5.98441 -10.74 -4.68082e-05)
(4.45456 -11.2034 0.0816531)
(5.19079 -11.1503 0.0496417)
(4.09319 -11.3498 0.0791991)
(4.70503 -11.4192 0.0502031)
(3.88446 -11.4118 0.0798795)
(4.41474 -11.5438 0.0516985)
(3.76353 -11.4406 0.0769144)
(4.24334 -11.6075 0.0487197)
(3.69201 -11.4572 0.07356)
(4.14011 -11.6432 0.0451479)
(4.36123 -7.17546 0.0775057)
(4.96029 -6.62026 0.0576139)
(3.78586 -8.12216 0.0190023)
(4.47684 -7.94485 0.000312301)
(3.29689 -8.22315 0.0483345)
(3.88007 -8.24531 0.032913)
(3.02578 -8.32955 0.048859)
(3.51366 -8.44835 0.0354015)
(2.86837 -8.36933 0.0537878)
(3.29327 -8.53816 0.0408317)
(2.77727 -8.38775 0.0540774)
(3.16331 -8.58455 0.0408049)
(2.72358 -8.39823 0.0526445)
(3.08526 -8.61062 0.0387975)
(3.12061 -5.09753 0.0403602)
(3.56421 -4.71421 0.0319186)
(2.71682 -5.79273 0.00810639)
(3.23672 -5.69589 -0.000862029)
(2.36247 -5.8535 0.0259607)
(2.80449 -5.90636 0.0189384)
(2.16642 -5.92687 0.0277809)
(2.53801 -6.05287 0.0221943)
(2.05135 -5.94928 0.0348802)
(2.3762 -6.11294 0.030072)
(1.98454 -5.95807 0.0386205)
(2.28068 -6.14291 0.0338426)
(1.94536 -5.96368 0.0397025)
(2.22339 -6.15962 0.0343816)
(2.12318 -3.46231 0.0190435)
(2.43591 -3.20691 0.0161685)
(1.85677 -3.94388 0.00229097)
(2.22616 -3.89442 -0.00178735)
(1.61342 -3.9768 0.0122043)
(1.92903 -4.03358 0.00919276)
(1.47895 -4.02425 0.0139604)
(1.74511 -4.13283 0.0119482)
(1.39867 -4.03372 0.0205893)
(1.63187 -4.16768 0.0196383)
(1.35127 -4.033 0.0269863)
(1.56431 -4.1824 0.0268076)
(1.32345 -4.03221 0.0313237)
(1.52376 -4.19028 0.0310813)
(1.32265 -2.16926 0.00762299)
(1.52427 -2.01383 0.00717337)
(1.16522 -2.4731 -0.000323098)
(1.40575 -2.45175 -0.00201233)
(1.01302 -2.487 0.00458192)
(1.2194 -2.5341 0.00339809)
(0.928976 -2.51481 0.00563678)
(1.1035 -2.59671 0.00503261)
(0.877711 -2.51589 0.00981971)
(1.03075 -2.61309 0.0101957)
(0.846214 -2.50783 0.0165202)
(0.986172 -2.61486 0.0182281)
(0.827038 -2.50017 0.0239738)
(0.958644 -2.61148 0.0264183)
(0.679124 -1.14392 0.00230748)
(0.789721 -1.0655 0.0026107)
(0.609205 -1.30022 -0.0010072)
(0.741822 -1.29684 -0.00158246)
(0.531911 -1.30113 0.0010489)
(0.646188 -1.3372 0.000662608)
(0.489101 -1.31474 0.00141992)
(0.586013 -1.36804 0.00128331)
(0.46213 -1.31306 0.00293396)
(0.547233 -1.3748 0.00338374)
(0.444336 -1.30191 0.00715628)
(0.522242 -1.36798 0.00877855)
(0.431836 -1.28791 0.0148792)
(0.504975 -1.35598 0.0176559)
(0.16247 -0.329678 0.000357871)
(0.199712 -0.312852 0.000579078)
(0.163435 -0.36586 -0.000706344)
(0.206805 -0.37351 -0.000779618)
(0.147347 -0.359859 -0.000175045)
(0.184988 -0.380567 -0.000192372)
(0.137662 -0.361246 -0.000143987)
(0.169931 -0.388934 -0.000100723)
(0.130996 -0.358715 -0.0002405)
(0.159541 -0.389157 -3.7972e-05)
(0.125713 -0.351856 0.000116438)
(0.151944 -0.383245 0.000612879)
(0.120331 -0.339188 0.00400737)
(0.144782 -0.37034 0.00520908)
(72.1059 -372.323 -0.00382465)
(71.7537 -366.655 -0.0247484)
(71.8512 -372.345 -0.00365494)
(71.4034 -366.696 -0.0215671)
(71.6353 -372.36 -0.00350342)
(71.1145 -366.724 -0.0188223)
(71.3726 -372.37 -0.00355316)
(70.7702 -366.753 -0.0164097)
(70.9148 -372.38 -0.00374008)
(70.1771 -366.798 -0.0130269)
(69.8069 -372.394 -0.00339444)
(68.7305 -366.891 -0.00372252)
(72.2774 -370.036 -0.0347533)
(73.5861 -362.839 -0.173708)
(71.9604 -370.085 -0.0329569)
(72.9977 -362.93 -0.16043)
(71.6913 -370.12 -0.0311901)
(72.5058 -362.996 -0.148148)
(71.3636 -370.153 -0.0292463)
(71.915 -363.066 -0.133816)
(70.7898 -370.196 -0.0261775)
(70.8903 -363.174 -0.110572)
(69.3829 -370.26 -0.0172337)
(68.3783 -363.382 -0.0557234)
(72.5381 -367.033 -0.128821)
(75.7706 -357.925 -0.510454)
(72.147 -367.117 -0.123058)
(74.9363 -358.074 -0.481752)
(71.8141 -367.179 -0.117362)
(74.232 -358.187 -0.454468)
(71.4087 -367.241 -0.110382)
(73.3794 -358.308 -0.420789)
(70.6963 -367.327 -0.0982605)
(71.8851 -358.499 -0.361803)
(68.9313 -367.467 -0.0660142)
(68.1734 -358.867 -0.215399)
(72.9144 -363.083 -0.319429)
(78.2662 -351.602 -1.10851)
(72.437 -363.209 -0.306215)
(77.1855 -351.818 -1.05695)
(72.0298 -363.304 -0.293738)
(76.2681 -351.983 -1.00891)
(71.5336 -363.403 -0.278452)
(75.1507 -352.164 -0.949532)
(70.6591 -363.547 -0.250945)
(73.1741 -352.456 -0.841825)
(68.4748 -363.794 -0.175415)
(68.1873 -353.036 -0.552646)
(73.4301 -357.885 -0.654477)
(80.9662 -343.503 -2.04962)
(72.8544 -358.06 -0.629606)
(79.648 -343.791 -1.9665)
(72.3626 -358.195 -0.606601)
(78.5257 -344.013 -1.89072)
(71.7632 -358.338 -0.578432)
(77.1536 -344.26 -1.79782)
(70.7045 -358.554 -0.527173)
(74.7105 -344.662 -1.62788)
(68.0439 -358.945 -0.38443)
(68.463 -345.5 -1.15055)
(74.0934 -351.062 -1.19361)
(83.6708 -333.217 -3.42254)
(73.4099 -351.293 -1.152)
(82.1359 -333.58 -3.29746)
(72.8252 -351.473 -1.11405)
(80.8277 -333.861 -3.18558)
(72.1123 -351.668 -1.06775)
(79.2256 -334.175 -3.04973)
(70.8512 -351.968 -0.983489)
(76.3619 -334.692 -2.8021)
(67.6702 -352.54 -0.748206)
(68.9724 -335.811 -2.09941)
(74.8589 -342.181 -2.00329)
(86.0356 -320.36 -5.28682)
(74.0625 -342.471 -1.93984)
(84.3182 -320.796 -5.10979)
(73.3806 -342.698 -1.88247)
(82.8553 -321.134 -4.95376)
(72.549 -342.949 -1.81266)
(81.0631 -321.514 -4.76536)
(71.0766 -343.343 -1.68552)
(77.8548 -322.14 -4.42366)
(67.3548 -344.123 -1.33121)
(69.5386 -323.536 -3.46246)
(75.5585 -330.819 -3.10536)
(87.549 -304.72 -7.57299)
(74.651 -331.165 -3.01462)
(85.6956 -305.217 -7.33444)
(73.8736 -331.438 -2.93339)
(84.1197 -305.603 -7.12698)
(72.9256 -331.742 -2.83496)
(82.1908 -306.036 -6.87786)
(71.247 -332.227 -2.65683)
(78.7396 -306.757 -6.43009)
(67.0055 -333.228 -2.16595)
(69.7908 -308.399 -5.19446)
(75.9831 -316.564 -4.50685)
(87.7544 -286.232 -10.1992)
(74.9771 -316.961 -4.38569)
(85.8275 -286.782 -9.89499)
(74.1153 -317.277 -4.27843)
(84.1929 -287.211 -9.63342)
(73.0642 -317.63 -4.14943)
(82.1949 -287.693 -9.3206)
(71.2035 -318.203 -3.91745)
(78.6253 -288.496 -8.76214)
(66.509 -319.412 -3.28319)
(69.386 -290.334 -7.24477)
(75.7385 -299.248 -6.08276)
(86.1398 -265.338 -12.8041)
(74.6576 -299.684 -5.93025)
(84.2044 -265.92 -12.4376)
(73.7316 -300.03 -5.79616)
(82.5666 -266.373 -12.1247)
(72.6025 -300.421 -5.63566)
(80.5689 -266.884 -11.7508)
(70.6053 -301.061 -5.34909)
(77.0088 -267.739 -11.087)
(65.5859 -302.445 -4.57743)
(67.8348 -269.714 -9.31362)
(74.3846 -279.035 -7.53774)
(82.4659 -242.768 -14.8834)
(73.2649 -279.5 -7.35945)
(80.5904 -243.374 -14.4708)
(72.3058 -279.87 -7.20385)
(79.0074 -243.845 -14.1205)
(71.1364 -280.29 -7.0187)
(77.0802 -244.378 -13.7027)
(69.0702 -280.982 -6.69044)
(73.6552 -245.272 -12.9642)
(63.9034 -282.5 -5.81739)
(64.8772 -247.331 -11.0167)
(71.508 -256.303 -8.49514)
(76.7897 -219.201 -15.9717)
(70.3908 -256.784 -8.30302)
(75.0328 -219.809 -15.5405)
(69.4343 -257.165 -8.1361)
(73.5533 -220.283 -15.176)
(68.2681 -257.6 -7.93837)
(71.7556 -220.821 -14.7412)
(66.2111 -258.323 -7.58968)
(68.5703 -221.727 -13.9748)
(61.1027 -259.921 -6.67318)
(60.4611 -223.81 -11.9773)
(66.865 -232.04 -8.37805)
(69.4889 -195.809 -15.4715)
(65.794 -232.521 -8.19029)
(67.8979 -196.405 -15.0584)
(64.8768 -232.902 -8.0276)
(66.5607 -196.868 -14.7099)
(63.759 -233.335 -7.83598)
(64.9386 -197.396 -14.2946)
(61.791 -234.059 -7.49981)
(62.0727 -198.285 -13.5648)
(56.9443 -235.668 -6.62488)
(54.8287 -200.325 -11.6806)
(60.6431 -207.235 -6.88111)
(61.2107 -173.446 -13.2653)
(59.6488 -207.677 -6.71617)
(59.8067 -173.991 -12.9016)
(58.7984 -208.041 -6.57581)
(58.6291 -174.426 -12.5968)
(57.761 -208.458 -6.41122)
(57.2024 -174.923 -12.2341)
(55.9377 -209.152 -6.12248)
(54.6884 -175.759 -11.5981)
(51.5169 -210.695 -5.38108)
(48.4139 -177.671 -9.97912)
(53.4397 -183.265 -4.15706)
(52.7252 -153.016 -9.68012)
(52.5513 -183.658 -4.02854)
(51.5201 -153.498 -9.38659)
(51.786 -183.983 -3.91995)
(50.5054 -153.883 -9.14078)
(50.8489 -184.358 -3.79503)
(49.2745 -154.323 -8.85021)
(49.2044 -184.977 -3.57877)
(47.111 -155.065 -8.34453)
(45.3115 -186.332 -3.03843)
(41.8126 -156.734 -7.08778)
(46.957 -163.398 -1.5118)
(45.7203 -136.85 -6.24095)
(46.1759 -163.734 -1.41913)
(44.6895 -137.262 -6.01505)
(45.4955 -164.008 -1.3417)
(43.8155 -137.588 -5.82606)
(44.6576 -164.321 -1.25604)
(42.7519 -137.961 -5.60523)
(43.1887 -164.841 -1.11196)
(40.8853 -138.587 -5.22547)
(39.7945 -165.942 -0.76162)
(36.4013 -139.967 -4.30501)
(41.7271 -147.492 0.184702)
(40.3407 -124.282 -3.8388)
(41.039 -147.77 0.250726)
(39.4486 -124.626 -3.66383)
(40.433 -147.993 0.304308)
(38.6868 -124.896 -3.51828)
(39.6822 -148.245 0.360158)
(37.7563 -125.2 -3.35067)
(38.3658 -148.658 0.450084)
(36.1241 -125.712 -3.06629)
(35.391 -149.511 0.663517)
(32.2725 -126.813 -2.39372)
(37.3741 -133.584 0.928138)
(36.0154 -113.456 -2.4458)
(36.769 -133.809 0.975198)
(35.24 -113.741 -2.30847)
(36.2306 -133.986 1.01134)
(34.5732 -113.961 -2.19547)
(35.5595 -134.183 1.04542)
(33.7555 -114.206 -2.0679)
(34.3817 -134.501 1.09595)
(32.3212 -114.616 -1.85531)
(31.772 -135.143 1.21255)
(28.9881 -115.477 -1.36596)
(33.5668 -120.412 0.9876)
(32.3409 -103.223 -1.80438)
(33.0372 -120.591 1.02271)
(31.6678 -103.459 -1.6938)
(32.5638 -120.734 1.04684)
(31.0884 -103.64 -1.60497)
(31.9705 -120.888 1.06557)
(30.3766 -103.837 -1.50777)
(30.9284 -121.134 1.08798)
(29.1274 -104.164 -1.35025)
(28.6508 -121.626 1.13618)
(26.24 -104.836 -0.997427)
(29.9598 -107.152 0.755183)
(28.9518 -92.8774 -1.50952)
(29.5022 -107.305 0.778064)
(28.371 -93.0828 -1.42336)
(29.0913 -107.426 0.791206)
(27.8721 -93.2361 -1.35608)
(28.5744 -107.553 0.796799)
(27.2594 -93.3982 -1.2854)
(27.6645 -107.748 0.796575)
(26.1834 -93.6611 -1.17454)
(25.6916 -108.13 0.794288)
(23.6905 -94.1797 -0.931654)
(26.3376 -93.3892 0.529958)
(25.6301 -82.0613 -1.27214)
(25.9488 -93.5263 0.540685)
(25.1351 -82.2461 -1.20959)
(25.5984 -93.6358 0.543081)
(24.7114 -82.3828 -1.16276)
(25.1559 -93.7471 0.5364)
(24.1907 -82.5218 -1.11638)
(24.3747 -93.9113 0.51599)
(23.2755 -82.7392 -1.04697)
(22.6931 -94.2256 0.471054)
(21.1485 -83.1514 -0.898636)
(22.4931 -78.7452 0.423968)
(22.146 -70.4217 -0.943181)
(22.1738 -78.8803 0.41974)
(21.7351 -70.5966 -0.906813)
(21.8815 -78.9829 0.41042)
(21.3802 -70.7226 -0.881139)
(21.5092 -79.0868 0.391796)
(20.9423 -70.8478 -0.858328)
(20.8487 -79.231 0.353972)
(20.1698 -71.0345 -0.826907)
(19.4475 -79.4942 0.276403)
(18.3904 -71.3702 -0.762146)
(18.742 -64.5071 0.390712)
(18.7509 -58.8857 -0.58998)
(18.483 -64.6256 0.379356)
(18.4144 -59.0413 -0.572877)
(18.2429 -64.7235 0.364082)
(18.1201 -59.1611 -0.562925)
(17.9329 -64.8212 0.339393)
(17.7529 -59.2779 -0.557364)
(17.3798 -64.9514 0.292261)
(17.1017 -59.4443 -0.553809)
(16.2294 -65.1757 0.196663)
(15.6283 -59.7284 -0.549865)
(15.4553 -52.2799 0.363121)
(15.7395 -48.7065 -0.315768)
(15.2451 -52.3838 0.349549)
(15.4631 -48.8457 -0.31058)
(15.0483 -52.4749 0.332939)
(15.2191 -48.9583 -0.310127)
(14.7912 -52.5655 0.307837)
(14.9111 -49.0672 -0.314535)
(14.3298 -52.681 0.261171)
(14.3624 -49.2164 -0.326461)
(13.3853 -52.869 0.168214)
(13.1387 -49.4621 -0.354331)
(12.589 -41.8956 0.316895)
(13.0568 -39.7962 -0.131178)
(12.4194 -41.9868 0.303824)
(12.8306 -39.9221 -0.13267)
(12.2595 -42.0715 0.288523)
(12.6295 -40.0264 -0.1372)
(12.0481 -42.1521 0.266157)
(12.373 -40.1267 -0.146373)
(11.6663 -42.2495 0.225212)
(11.9133 -40.2571 -0.165151)
(10.8942 -42.3994 0.1451)
(10.8996 -40.463 -0.205923)
(10.1278 -33.2226 0.259603)
(10.6875 -32.1149 -0.0228388)
(9.9927 -33.3037 0.248408)
(10.5043 -32.2289 -0.0274406)
(9.86449 -33.3798 0.235653)
(10.3403 -32.3253 -0.033925)
(9.69268 -33.4503 0.217356)
(10.129 -32.4156 -0.0444794)
(9.38034 -33.5294 0.184183)
(9.74765 -32.5256 -0.0646636)
(8.75407 -33.6406 0.120463)
(8.91372 -32.6904 -0.106927)
(8.0427 -26.0581 0.199223)
(8.62157 -25.5716 0.0291591)
(7.93688 -26.1304 0.190325)
(8.47545 -25.6736 0.023589)
(7.83581 -26.2 0.180396)
(8.34385 -25.762 0.0168964)
(7.69848 -26.2607 0.166322)
(8.17229 -25.8424 0.00689837)
(7.44642 -26.3231 0.140975)
(7.85999 -25.9314 -0.0115462)
(6.94372 -26.3981 0.0932592)
(7.18091 -26.0537 -0.0488544)
(6.28213 -20.1411 0.144499)
(6.83598 -20.0404 0.0466228)
(6.2008 -20.2057 0.137848)
(6.72147 -20.1314 0.0413621)
(6.12293 -20.2681 0.130517)
(6.61815 -20.2119 0.0354425)
(6.01495 -20.3195 0.120127)
(6.48133 -20.2807 0.0268859)
(5.81445 -20.3631 0.101351)
(6.22944 -20.3492 0.01127)
(5.41537 -20.4019 0.0666783)
(5.68322 -20.4275 -0.0193725)
(4.82464 -15.3313 0.101137)
(5.3234 -15.4449 0.0472659)
(4.76381 -15.3897 0.0963)
(5.23608 -15.5272 0.0425956)
(4.7052 -15.4445 0.0909818)
(5.15682 -15.5992 0.0375298)
(4.62202 -15.4869 0.0833442)
(5.04995 -15.6577 0.0304069)
(4.46485 -15.5158 0.0692644)
(4.85017 -15.7068 0.0174768)
(4.15145 -15.5189 0.0435661)
(4.4165 -15.7435 -0.00714545)
(3.64143 -11.488 0.0703379)
(4.06484 -11.6912 0.0415974)
(3.59754 -11.5415 0.0670006)
(4.00052 -11.7652 0.0378206)
(3.55515 -11.5921 0.0631464)
(3.94181 -11.8314 0.0336631)
(3.49275 -11.629 0.0571981)
(3.86046 -11.8822 0.0275625)
(3.37193 -11.6453 0.0455181)
(3.70511 -11.9163 0.0159711)
(3.12892 -11.6214 0.0246997)
(3.36576 -11.9158 -0.00528487)
(2.687 -8.42483 0.050838)
(3.03008 -8.65084 0.0363097)
(2.6572 -8.47587 0.0485645)
(2.98495 -8.72001 0.0331168)
(2.62825 -8.52361 0.0454639)
(2.94365 -8.78187 0.0292865)
(2.58305 -8.55635 0.0400621)
(2.88381 -8.82647 0.0233159)
(2.49224 -8.56486 0.0285029)
(2.76573 -8.84802 0.0113611)
(2.3065 -8.52023 0.010132)
(2.50441 -8.8166 -0.00798787)
(1.92007 -5.98653 0.03973)
(2.18462 -6.19464 0.0335752)
(1.90193 -6.03541 0.0385948)
(2.15568 -6.26035 0.0310657)
(1.88393 -6.08172 0.0358463)
(2.12885 -6.31834 0.0271562)
(1.85301 -6.11255 0.0298762)
(2.08695 -6.35923 0.0202702)
(1.78662 -6.11512 0.0160001)
(1.99975 -6.37029 0.00559682)