/*--------------------------------*- C++ -*----------------------------------*\
| =========                 |                                                 |
| \\      /  F ield         | OpenFOAM: The Open Source CFD Toolbox           |
|  \\    /   O peration     | Version:  2206                                  |
|   \\  /    A nd           | Website:  www.openfoam.com                      |
|    \\/     M anipulation  |                                                 |
\*---------------------------------------------------------------------------*/
FoamFile
{
    version     2.0;
    format      ascii;
    arch        "LSB;label=32;scalar=64";
    class       volScalarField;
    location    "0.8";
    object      p;
}
// * * * * * * * * * * * * * * * * * * * * * * * * * * * * * * * * * * * * * //

dimensions      [0 2 -2 0 0 0 0];

internalField   nonuniform List<scalar> 
918
(
2.17176
1.16947
0.321749
2.18899
0.0591575
1.06088
-0.0587422
1.56027
2.24169
0.425809
0.323471
1.84433
0.756157
0.619218
0.115498
0.169722
1.81776
-0.196304
1.94546
0.219109
0.0321238
2.33739
2.07817
1.95053
1.80918
0.260821
0.7605
0.156641
-0.100134
-0.015912
0.121033
0.161319
0.102435
0.693623
0.968719
1.16811
1.89009
1.24665
0.205853
0.14736
0.0464131
-0.186335
1.59878
1.63174
0.865191
1.50563
1.42969
1.96235
2.15879
2.24933
2.09336
2.16221
2.30869
0.723901
0.435125
0.383123
0.450761
0.431986
0.452695
0.346883
0.345987
0.349287
0.347555
1.7656
1.84749
1.85195
1.85149
1.83717
1.11813
1.09275
1.2128
0.598897
0.799658
0.764348
0.833202
0.640683
0.664187
0.650148
0.559819
0.0371665
-0.362217
0.410493
0.443394
-0.0156437
0.19484
0.202256
1.81388
1.82203
1.78869
1.77674
1.20682
-0.00309009
-0.243414
1.96049
1.98771
2.27946
2.11593
2.14024
2.05208
0.233858
0.227522
0.193077
0.238235
0.253095
0.505404
0.789045
1.96489
2.0029
1.82782
1.86125
1.84937
1.53762
1.88063
1.85616
0.588943
0.657491
0.394169
0.530403
0.728345
0.696605
0.790159
0.747935
-0.0695034
0.0110344
0.183419
0.117786
0.17291
1.89
1.86459
1.9124
1.89899
1.9217
1.14191
1.09174
1.31816
1.38274
0.451348
0.416032
-0.0863247
-0.0680353
-0.26348
1.44697
1.67497
1.70228
0.668964
0.876178
0.655294
0.973557
0.968461
1.91645
1.96768
1.93737
1.99955
1.99307
2.00984
2.15804
2.15186
2.26947
0.778321
0.843456
0.687137
0.649225
0.139886
0.266781
0.148524
0.39392
0.429808
0.483325
0.478085
0.444884
0.407835
0.407948
0.375545
0.397181
0.305248
0.279361
1.74703
1.73351
1.7934
1.80827
1.87726
1.86823
1.86978
1.87841
0.793519
0.857961
0.804673
0.730681
-0.821707
-2.8728
0.49103
0.522781
0.0268443
-0.0220777
0.00712146
0.0480856
0.017805
0.0111158
0.295281
0.256793
0.228954
0.281159
1.83047
1.85461
1.19453
1.26214
1.11487
1.10517
1.95345
1.97236
1.99183
1.97937
0.272701
0.268302
0.282161
1.35181
1.09316
1.21636
1.48321
1.39305
1.6027
1.63486
1.84856
1.83638
1.8635
0.56438
0.600263
0.981948
0.786559
0.896842
0.851073
0.888147
0.823044
0.669921
1.81841
1.83866
1.84254
1.93109
1.92971
1.94239
1.88323
1.90021
1.88732
0.941346
0.759198
1.47761
1.41441
1.36423
1.42368
1.43532
1.45508
1.75176
1.71256
1.74044
1.15687
1.11823
0.580694
0.560052
1.67179
1.71747
1.69343
0.775763
0.669496
0.795249
0.770221
0.728002
0.779223
0.630075
0.284088
0.415356
0.600116
0.581241
0.576793
0.378489
0.346536
0.35262
1.27004
1.3284
0.892413
1.01007
0.993199
0.40984
0.573217
0.658848
0.479443
0.605913
0.712885
0.67151
1.43079
1.4414
1.47347
1.39234
1.42057
1.36003
1.19964
1.21601
0.492656
0.536646
0.512366
1.30848
1.36195
1.3583
1.9893
2.07893
-0.0549449
0.0952346
2.1496
2.18631
-0.0447336
0.0539951
0.63188
0.580353
1.22518
2.00311
1.98686
2.09292
0.418037
0.6919
0.336168
0.431483
0.372365
1.82689
1.7845
1.71402
0.00596901
0.208887
0.230175
0.307225
2.06914
2.01458
2.13726
2.13781
2.14438
0.0646192
0.00945594
0.0354248
0.197124
0.18846
0.229559
1.92804
1.89291
0.508911
2.12413
2.12964
2.13018
2.04976
2.06817
1.99583
0.175084
0.125251
0.185297
1.51785
1.6309
0.686955
0.227928
0.806919
0.577235
0.41321
0.609274
0.621978
0.641676
0.526804
1.66693
1.5351
1.33624
1.11682
1.34096
1.32682
2.00678
1.98748
2.00487
1.94248
2.03462
1.92917
2.09229
2.02406
2.06431
2.09616
0.454356
0.492978
0.469594
0.318151
0.731552
0.833161
0.645468
0.679325
0.4726
0.307031
0.334476
0.325027
0.390472
0.369512
0.37941
0.4189
0.427727
0.394274
0.353853
0.325979
0.466741
0.388116
1.7882
1.85449
1.82275
1.86045
1.77126
1.8328
1.73111
1.7609
1.75258
1.64312
1.71779
1.68091
0.0250269
0.105959
0.132917
0.195296
0.220303
0.102529
0.164478
0.137824
0.144535
0.138705
0.178737
0.227721
0.349288
0.169351
1.20439
1.02735
0.592995
1.93632
2.02937
1.98685
2.04707
2.06593
2.08716
2.08914
2.00968
1.90021
1.93599
1.88775
1.88796
0.539562
0.377477
0.533044
0.655761
1.23079
1.82637
1.6576
1.54622
1.53609
1.70625
1.33461
1.10962
0.034853
-0.604395
0.592002
0.272876
0.479605
0.662593
0.99632
0.569988
0.582887
0.662129
0.590545
0.613074
0.761654
1.5701
0.914109
0.850159
1.18897
1.11983
0.91769
1.68397
1.70528
1.49196
1.40542
1.62628
1.59379
1.60948
1.60586
1.61075
1.64012
1.51713
1.40473
1.35599
1.76932
1.62893
1.64763
1.66275
1.96214
2.01278
1.94288
1.93012
1.99055
1.90709
1.90313
1.88991
1.97477
2.00049
1.97148
1.94023
0.500631
0.422667
0.552112
0.424062
0.501476
0.350815
0.549393
0.648466
0.557098
0.727149
0.888149
0.586526
0.499976
0.544238
0.547154
0.757575
0.702083
0.622824
0.493329
0.567586
0.589993
0.599337
0.562145
0.383514
0.412418
0.492858
0.333252
0.456072
0.442361
0.515447
0.324947
0.383559
0.317894
0.307572
0.380476
0.472132
0.398662
0.488317
0.160685
0.162779
0.0873937
0.203811
0.360679
0.416675
1.88272
1.84374
1.85872
1.83992
1.87522
1.83629
1.70347
1.93588
1.91774
1.87104
1.77224
1.74238
1.76479
1.74779
1.80511
1.78687
1.90814
1.89917
1.81716
1.79186
1.70443
1.77319
1.73316
1.74191
1.72173
0.101535
0.191021
0.144449
0.144553
0.155962
0.184288
0.317664
0.220251
0.30321
0.266973
0.235064
0.191698
0.205974
0.516309
0.621971
0.457744
0.288289
0.218299
1.19892
1.24939
1.08051
0.970656
1.03031
1.15225
1.17302
0.918872
0.981664
1.03426
1.39441
1.31312
2.00718
1.98348
1.96537
2.03386
1.9819
0.729878
0.969449
0.895569
1.2318
1.25524
1.29382
1.1266
1.10996
1.14223
1.20272
1.80026
1.83561
1.79322
1.83425
1.81775
1.57137
1.69486
1.66087
1.87485
1.7508
1.73969
1.81098
1.77571
1.7039
1.68165
1.73332
1.71566
1.68816
1.6934
1.66603
1.80768
1.74995
1.79543
1.74347
1.78036
1.70885
1.82919
1.86761
1.85292
1.67727
1.68673
1.71957
1.73998
1.69846
1.71082
1.7042
1.15284
1.21554
1.16266
1.16556
1.17988
0.995179
1.01829
1.12931
1.14356
0.920344
0.717127
0.417435
1.47168
1.09929
0.827726
0.450981
1.35918
1.47023
1.38052
1.21445
1.19696
1.74435
1.71916
1.74305
1.63228
1.5827
1.53509
1.52953
1.78085
1.4702
1.37756
1.45111
1.24958
1.33372
1.55352
1.4717
1.42659
1.45178
1.73217
1.51643
1.5477
1.65497
1.4916
1.49824
1.62725
1.69471
1.75875
1.72011
1.57458
1.61645
1.6034
1.62996
1.64909
1.63983
1.93717
1.93801
1.93615
1.9565
1.91887
1.92521
1.87073
1.92563
1.96217
1.94474
1.99554
0.302675
0.408399
0.442991
0.362322
0.456857
0.442141
0.610576
0.533455
0.487145
0.565793
0.524991
0.525088
0.519986
0.479093
0.570209
0.575722
0.524598
0.490846
0.856262
0.893531
0.892524
0.881159
0.845803
0.793963
0.855912
0.392402
0.482923
0.442737
0.378829
0.427699
0.291749
0.32055
0.257252
0.377949
0.375766
0.149771
0.259487
0.278285
0.222318
0.290547
0.280777
1.82718
1.83659
1.81616
1.81844
1.78906
1.84111
1.85657
1.91927
1.90166
1.88497
1.86801
1.87766
1.86066
0.256219
0.384947
0.372609
0.235345
0.238486
0.127362
0.112771
1.0756
0.78824
0.813777
0.733133
0.515587
0.613266
1.28487
1.37468
1.38455
1.32953
1.25473
1.21729
1.3414
1.39259
1.04774
1.1868
1.13742
1.22612
1.2574
1.29324
1.21756
1.05506
1.32238
1.48001
1.06158
1.13659
1.32103
1.25603
1.33323
1.30334
1.44728
1.23955
1.19784
1.16854
1.17729
1.2825
1.25805
1.32951
1.35993
1.00026
1.08266
1.03747
1.7642
1.80192
1.80493
1.77555
1.78766
1.80311
1.73559
1.80994
1.83067
1.85228
0.560713
0.689923
0.298431
0.904763
1.18668
1.77337
1.4486
1.67819
1.70107
1.35052
1.58826
1.58152
1.56992
1.66271
1.56072
1.43604
1.50778
1.46706
1.51395
1.43799
1.40971
1.67546
1.6186
1.6881
1.66838
1.65575
1.70509
1.87436
1.95801
1.86641
1.93633
1.88975
1.91776
0.572237
0.490114
0.558771
0.530793
0.496729
0.433467
0.159716
0.22383
0.372057
0.34079
0.310653
0.307192
0.947811
0.976151
0.733447
0.897583
0.734815
0.576296
0.638875
0.707936
0.835022
0.862817
1.15688
1.15679
1.2133
1.20085
1.033
1.21585
1.39083
1.38588
1.4087
1.28584
1.29826
1.32117
0.849704
1.08677
1.80151
2.02473
1.61947
1.46875
1.32229
1.47195
1.67928
1.56937
1.5906
1.68403
1.62451
1.2187
1.20846
1.31113
1.32673
1.25409
1.18512
1.16869
1.27772
1.32719
)
;

boundaryField
{
    wall-4
    {
        type            zeroGradient;
    }
    velocity-inlet-5
    {
        type            zeroGradient;
    }
    velocity-inlet-6
    {
        type            zeroGradient;
    }
    pressure-outlet-7
    {
        type            fixedValue;
        value           uniform 0;
    }
    wall-8
    {
        type            zeroGradient;
    }
    frontAndBackPlanes
    {
        type            empty;
    }
}


// ************************************************************************* //
