/*--------------------------------*- C++ -*----------------------------------*\
| =========                 |                                                 |
| \\      /  F ield         | OpenFOAM: The Open Source CFD Toolbox           |
|  \\    /   O peration     | Version:  2206                                  |
|   \\  /    A nd           | Website:  www.openfoam.com                      |
|    \\/     M anipulation  |                                                 |
\*---------------------------------------------------------------------------*/
FoamFile
{
    version     2.0;
    format      ascii;
    arch        "LSB;label=32;scalar=64";
    class       surfaceScalarField;
    location    "0.8";
    object      phi;
}
// * * * * * * * * * * * * * * * * * * * * * * * * * * * * * * * * * * * * * //

dimensions      [0 3 -1 0 0 0 0];

oriented        oriented;

internalField   nonuniform List<scalar> 
1300
(
3.75095
5.62643
-7.04348
3.75095
-6.47039
5.62643
-6.44965
6.44965
-1.40505
1.40505
1.90379
1.84717
-5.85882
5.85882
-5.68324
5.68324
-3.08941
3.08941
-5.34992
5.34992
-5.27595
5.27595
3.87799
-3.87799
-5.35366
5.35366
-2.11685
2.11685
-6.48033
6.48033
3.20568
-3.20568
-5.66235
5.66235
-1.61012
1.61012
-0.528776
4.27973
3.22218
3.22218
-2.7547
2.7547
-5.51095
5.51095
6.22487
-6.22487
9.91477
-9.91477
-2.87129
-3.25047
1.31829
-7.96808
-5.1521
-5.1521
-8.47908
8.47908
-2.85265
2.77378
3.21422
-3.21422
-2.67653
2.67653
-6.17613
-0.273519
-6.17613
6.60521
-0.155566
6.60521
-1.63027
0.225211
-1.63027
4.78319
-4.78319
1.19085
0.214202
1.19085
3.20047
-3.20047
-1.88184
3.78563
1.86911
-1.78956
6.06928
-1.9614
3.80857
-4.98065
4.98065
-5.98619
0.127366
-5.98619
5.87384
-0.0150133
5.87384
-5.56707
5.56707
-5.69441
0.011168
-5.69441
5.58383
0.0994098
5.58383
3.3243
-3.3243
-3.13235
0.0429432
-3.13235
3.08331
0.00610076
3.08331
0.326834
5.2996
-5.95326
8.72704
-5.2996
-0.0503287
5.30315
0.0467734
5.30315
-5.25227
-0.0236821
-5.25227
5.23465
0.0413008
5.23465
3.61671
0.261286
3.61671
-4.2156
0.337607
-4.2156
-3.17343
-3.27904
-5.42013
0.0664637
-5.42013
-2.18949
0.0726387
-2.18949
2.07193
0.0449163
2.07193
-3.96256
3.96256
-6.66518
0.184846
-6.66518
3.16899
0.036691
3.16899
1.82609
1.92487
5.57704
-5.57704
2.37136
-5.6671
0.00474552
-5.6671
-5.7034
-4.21136
5.7034
-0.0410541
-0.994701
-0.615419
-0.994701
3.25731
-0.0351362
3.25731
2.94077
0.14254
-2.94077
0.186073
3.72221
-3.72221
2.22196
0.532742
2.22196
-5.54113
5.54113
5.32307
-0.0884171
-5.32307
-0.187886
6.20972
0.0151526
6.20972
-6.15746
-0.0674043
-6.15746
3.29314
-6.54361
-3.32132
5.23845
0.115211
-5.23845
0.0863565
3.22944
-0.0152114
3.22944
-3.18488
3.18488
-3.19515
-0.0190751
-3.19515
-2.61057
-0.0659597
-2.61057
2.73711
-0.0605739
2.73711
-5.72124
-0.454892
-5.72124
-6.7017
0.03652
6.7017
-0.0964836
3.1001
-3.1001
-1.76479
0.134524
-1.76479
-5.21755
-0.50369
5.21755
-0.434361
-4.60875
-0.174434
-4.60875
-3.22274
0.0275901
3.22274
-0.0222651
3.17308
0.0842326
-3.17308
-0.0273933
-1.87682
3.80169
-1.87413
3.74324
-4.67799
-0.302662
-4.67799
5.1862
-0.205557
5.1862
6.36104
0.11929
-6.36104
0.374853
5.70763
0.166204
5.70763
-5.47094
-0.0961224
-5.47094
5.56622
0.000850217
5.56622
5.64949
0.058144
-5.64949
-0.04492
5.74906
-0.165227
5.74906
3.32524
-0.000942595
3.32524
-3.20491
-0.119386
-3.20491
3.17475
-3.17475
3.08206
0.0926823
-3.08206
-0.0502906
-11.1357
11.0683
-0.0906313
-11.0451
5.21252
5.21252
3.0249
0.591806
3.0249
-4.68256
0.466958
-4.68256
3.3194
-6.64072
3.2182
-6.39163
3.21395
-11.182
3.40945
-6.68849
5.58161
-5.58161
5.40766
0.173945
-5.40766
-0.012465
-2.19116
0.00167756
-2.19116
-3.77864
-0.183923
-3.77864
4.33193
-0.369366
4.33193
-3.22388
3.22388
-3.18334
-0.040548
3.18334
-0.0143434
5.6112
0.137852
-5.6112
-0.0558915
1.0131
0.177754
-1.0131
0.0183977
3.85454
-0.13234
3.85454
-3.49212
-0.230089
-3.49212
-2.17059
-0.0205767
2.17059
0.0513675
-5.9102
0.369064
-5.9102
-11.1498
0.10472
-11.1031
-6.05274
-6.05274
2.42634
11.1534
-3.22613
0.0212183
3.22613
0.00330781
3.13691
0.0869775
-3.13691
-0.0479773
-3.1917
0.0169563
3.1917
-0.00681928
-2.48748
-0.123093
-2.48748
-2.86982
2.86982
-2.84399
-0.0258225
2.84399
-0.106888
3.2184
-0.118297
3.2184
1.94963
0.122306
-1.94963
0.184836
-4.19733
-0.411427
-4.19733
5.24444
-0.0582332
5.24444
-3.40971
-0.0824107
3.40971
-0.084467
0.0280193
11.0403
-5.24054
-0.0117288
5.24054
-11.0555
11.0437
-2.53727
0.0497911
2.53727
0.48763
5.12195
0.419182
-5.12195
0.439392
5.54662
0.0195938
-5.54662
-0.0349855
-3.53017
-0.248468
-3.53017
-4.51391
-0.164073
4.51391
-0.181983
-11.1878
-0.173035
11.3609
-11.1465
6.08323
0.126486
-6.08323
11.1702
-2.9025
-0.197598
2.9025
-0.0326871
3.33428
-0.115878
3.33428
4.13205
-0.277501
-4.13205
-0.0652798
-5.44095
-0.0299978
5.44095
-0.196508
-3.50718
-0.0229968
3.50718
-0.172898
-4.202
4.16686
1.86729
-3.35832
-3.18529
-7.56969
1.86567
1.93602
4.23703
-7.08035
-4.10169
-6.99399
6.75334
-6.31395
-6.4673
6.72858
7.64691
-7.82134
-5.76891
5.75457
6.3066
-6.32887
1.85772
1.92791
10.721
-10.5936
-10.1724
9.86973
10.0886
-10.0774
10.4092
-10.5053
-11.9681
11.9877
-5.57669
5.61964
-6.5845
6.46511
-6.64008
6.55561
-3.20431
-3.18732
8.78941
-8.72294
11.5026
-11.4979
-11.2153
11.4001
3.28288
0.883978
3.36712
-1.95601
3.81373
-1.85255
3.71984
3.32455
-6.52886
3.31617
-6.50146
5.90155
5.60106
-5.86049
-1.70919
-5.80955
5.79434
-5.7283
5.72148
11.0356
-11.3092
-1.85207
3.77997
-1.89118
3.82719
-3.36354
-2.40537
3.32685
0.910179
5.46514
3.32426
-5.58035
-1.41363
-7.56883
7.29133
-7.69579
7.4657
0.103965
5.4549
-5.55887
5.61492
-1.83768
7.29258
4.91567
5.38262
5.61892
-5.19974
0.695026
-6.25389
-6.44178
-2.32004
2.45457
2.07324
-1.85904
6.58051
1.06639
6.14615
-5.27845
-2.54289
-5.68987
3.80061
1.95396
3.76006
4.02302
2.28358
4.05061
2.97209
-3.07517
0.103084
-3.03681
6.0089
0.704802
-5.44217
-4.53199
6.88809
3.83287
6.87308
-7.384
-3.20959
-7.00915
-6.15522
-4.01717
-6.31929
6.50998
3.35975
6.30442
-7.77626
7.57975
6.611
3.47759
6.71041
-6.63071
-3.44671
-6.67563
10.2752
-2.85213
-7.42307
-6.9346
-5.03348
6.93375
3.47541
7.3631
4.62458
7.32811
3.56712
6.70809
-7.04252
2.00904
-3.73288
-1.84381
-3.78317
3.56607
2.05357
3.57217
-4.20635
-2.37814
-4.18513
-4.20142
-2.43865
4.20237
2.26274
-4.25034
-3.44545
4.33275
2.22286
3.1586
-7.26028
3.52989
-6.71721
-6.17929
-2.54366
-6.19175
4.05309
2.6306
-6.68369
-2.47577
10.6864
-5.08537
8.97723
-7.21528
-4.28258
-7.27117
-8.81235
-2.40291
-8.77583
-5.1824
4.93393
-5.64752
5.27815
10.4963
-5.8598
-4.63647
-3.99696
-2.33191
4.02435
-0.657236
-3.63974
3.74282
0.173995
3.89384
4.77781
4.12058
-3.78833
-1.93998
-3.8363
3.74046
1.98102
3.75741
8.55134
2.4843
8.39577
-7.62556
-3.6836
-8.08046
5.43726
-5.50322
2.9139
-2.93448
5.07442
2.39128
-4.94208
-2.62675
5.84645
-3.05832
-2.78812
-11.817
7.3597
4.45729
-4.52441
1.0905
2.70062
-4.55235
-1.91495
4.21475
1.16788
8.52758
6.61263
-5.19087
5.55994
6.17
6.08159
-0.360192
3.75016
-3.70037
6.12249
-0.925617
-5.19687
5.76862
-6.27231
-2.31184
-6.02236
3.71052
-0.126152
-0.0216914
-0.593728
-1.93173
-0.388317
-1.74689
1.12645
0.946792
1.3042
1.03453
1.42004
-2.49079
0.213786
2.277
-1.45626
-1.64525
-4.01382
-0.198623
4.21244
5.48534
1.806
-5.42006
-0.269816
2.61388
-2.56897
-1.58735
-2.42647
1.19191
-2.77927
-3.06263
-2.19942
5.26205
-3.30983
-0.52647
3.22286
0.537204
-3.78542
-2.02414
3.80449
0.24612
-2.95455
5.97537
-3.02082
-4.89452
2.55489
3.454
4.50885
-4.61218
2.32588
2.2863
-1.15818
5.79965
1.07343
5.96585
-8.97331
5.76371
7.82073
3.57938
-7.94002
0.930871
-8.04243
9.33281
-8.34177
-0.991034
4.85368
4.47912
5.31408
5.1822
-3.37016
8.68424
-1.26295
-7.07882
9.30539
-5.72601
5.43038
-11.1564
-10.6126
3.53376
-6.69111
8.34546
-1.65435
-2.44172
-5.33454
9.13283
-0.911652
-8.22118
5.39277
-5.0983
-5.39179
10.4901
-7.95043
8.83849
-2.5671
-6.27139
-6.54574
-3.95955
6.57573
1.00402
-9.70219
11.7112
-2.9941
5.78947
0.92094
5.62424
3.90352
-5.93666
2.03314
4.04691
-6.61401
2.38626
-8.32292
-4.76504
9.43626
-4.67123
-7.30869
-6.65579
-0.652902
2.07563
9.6356
-6.70021
5.34549
1.35473
3.19821
0.5592
-3.2909
-0.492278
0.334355
4.40214
-4.7365
3.90653
4.04907
3.44348
0.958661
3.77828
2.01606
-3.78158
-0.403552
-3.85243
1.41378
-1.58969
-3.47811
4.89189
-3.92958
0.451474
-2.60034
-3.38956
5.9899
-4.44415
2.86869
3.10668
4.84971
-4.7344
1.34484
-2.35053
-2.38386
2.58474
-4.17444
1.83626
3.05564
4.05912
0.61367
4.61636
4.8199
-7.24696
0.52975
8.14417
-6.73053
1.55963
5.76848
-6.90512
0.24933
-5.94242
1.11508
-6.20044
-5.56862
6.42202
-8.82493
-4.73437
8.11617
0.279608
-8.01968
-0.756151
-3.69223
-1.49017
-3.71522
-1.9099
-3.73762
-5.28006
-1.01239
-4.26767
3.92154
-4.2126
-2.10669
4.39458
0.883566
-4.4475
4.2499
-4.42305
4.30717
0.147756
3.59506
4.26833
1.93643
-2.43688
4.37331
-6.6072
9.0915
-10.7215
4.11427
4.46706
-8.15066
-6.25441
3.34586
2.0914
3.28529
5.53238
-6.8715
1.33912
-6.24857
7.29076
-1.0422
-9.74999
3.50142
-4.21761
2.57948
0.334418
2.58116
0.668821
2.26992
-2.93875
-2.26566
-2.21429
-2.21834
-3.28731
5.50565
0.969676
-3.21552
2.24585
-3.28396
4.25364
-0.181725
-3.0338
4.93974
-2.66981
5.27415
-3.46568
1.80847
3.17663
5.25213
-2.0755
4.1253
-1.73403
1.78876
-3.86426
-1.49855
-2.92217
4.97573
-3.06773
3.5192
-0.239239
3.75844
-3.95521
0.896887
-0.511732
3.53733
3.72341
3.96986
-3.01119
2.68253
-4.41655
-1.18173
-3.80288
-0.747248
-0.837738
-5.02974
5.86748
4.85066
-5.6884
-2.74638
5.47466
-2.72827
4.62253
-3.21648
-1.40605
-2.71984
-2.78338
2.84293
0.907228
5.52976
0.312489
-3.52897
-3.38788
-2.90025
4.75223
1.37026
-0.913079
5.37037
-1.78754
1.76585
0.569285
0.734918
1.09219
-0.522901
-0.159588
1.25177
-0.753315
1.86982
0.744064
-1.99213
0.245236
-1.77813
2.97004
0.498869
-1.44566
0.92276
2.35544
-3.28106
4.84733
-1.54997
-3.29736
7.20277
1.86265
-3.41262
4.1597
-4.28585
2.83089
-3.02952
-0.581729
-4.86758
-3.80119
-2.15196
4.39781
-3.35369
5.15968
1.33518
-4.88987
6.22504
-3.46359
1.26417
-2.68335
3.42741
-0.790043
-1.8933
2.49685
2.76521
-2.80982
0.383352
-0.312973
1.98095
-2.29393
-0.798313
-2.25457
-4.47327
4.71939
-2.18362
4.5095
2.18969
-1.91137
6.42087
1.783
-3.69437
-3.11152
-3.63799
-1.40806
3.10079
-0.741358
-5.93428
-7.01275
5.87613
0.0897165
-9.02349
10.0774
-1.05387
-5.19062
-0.573095
5.42678
-7.24784
0.633837
-4.86159
5.21576
6.2892
6.37891
-8.06503
-0.156151
-4.70528
1.28139
-5.98667
5.76051
-2.78957
6.32333
-6.77824
4.67155
-5.89467
5.33229
-0.654375
5.28341
-3.25027
2.13967
-6.09921
-5.09519
6.98399
-3.5064
7.90493
-3.98958
11.8945
-6.98368
7.05432
4.84019
-1.30416
-5.96701
-6.84941
5.54525
0.204916
5.82916
4.87471
-2.85865
4.47116
2.08142
-4.43195
-2.09302
-6.34333
1.91138
-3.23666
-1.71097
3.62235
3.13874
3.69794
1.23849
-3.20566
6.62975
-7.28265
-1.95853
-3.61009
6.7485
-1.20325
3.73452
-7.34461
-2.46592
5.08831
-0.525474
-4.56284
0.77149
-5.50586
2.53274
-8.0386
6.29219
-7.04834
1.2378
-5.45541
-3.2097
-3.24239
-1.27847
-3.14457
-4.48845
3.20997
-0.987027
3.26287
-5.41958
4.8941
-1.87119
5.08116
-3.30373
-0.411494
3.47663
0.830541
5.9117
-0.37521
-5.8792
-1.63566
5.70911
-4.07345
3.11657
-5.40495
0.304161
3.56449
3.63828
-7.27501
-0.875649
-6.75485
-2.36939
4.46078
3.10527
7.95593
1.08444
4.98003
-0.519242
6.06446
2.76604
2.65915
-3.80701
5.14614
2.06046
6.17473
-0.805677
2.61415
1.77548
1.84812
0.720844
2.21571
1.50769
3.1126
0.173855
-2.04043
2.97843
-5.87868
-0.550538
-5.28688
1.44171
3.95772
-2.51602
4.7076
-3.33734
0.634145
2.73556
-2.08315
-0.652413
-2.46131
-0.317293
0.934481
-1.00575
1.92851
1.96429
-2.86299
0.40168
-0.0917512
-3.70944
3.12127
-2.73792
0.027291
6.25233
-2.33379
0.039863
-1.06962
-2.21471
-2.60303
2.35779
6.01093
0.409934
2.99012
5.12932
3.10519
0.24654
4.21967
-5.87402
-4.10325
-6.03017
-0.269664
5.15711
1.74125
7.89435
6.58144
5.37819
-1.96643
-9.24908
7.35747
-2.21133
6.31527
-1.75243
-6.28617
6.5195
2.57201
-6.7991
-0.249239
-6.53541
-8.74674
-0.297538
5.19164
-5.61417
5.20267
3.7125
0.555168
-2.73876
-0.503624
2.76459
-0.105431
5.95903
-1.08335
-5.47723
6.56058
-2.87438
2.32384
4.8404
0.52997
4.18799
0.850647
-4.62659
-7.1426
-1.14191
-2.13914
-4.43927
-0.22683
-1.73746
3.91289
-1.58905
2.50684
4.97153
5.60568
-1.57771
-4.11069
4.30599
-1.79915
3.80653
)
;

boundaryField
{
    wall-4
    {
        type            calculated;
        value           uniform 0;
    }
    velocity-inlet-5
    {
        type            calculated;
        value           uniform -3.75095;
    }
    velocity-inlet-6
    {
        type            calculated;
        value           uniform -5.62643;
    }
    pressure-outlet-7
    {
        type            calculated;
        value           nonuniform List<scalar> 8(7.04348 6.47039 6.12175 6.64979 6.45247 6.61446 6.5376 6.6234);
    }
    wall-8
    {
        type            calculated;
        value           uniform 0;
    }
    frontAndBackPlanes
    {
        type            empty;
        value           nonuniform List<scalar> 0();
    }
}


// ************************************************************************* //
