/*--------------------------------*- C++ -*----------------------------------*\
| =========                 |                                                 |
| \\      /  F ield         | OpenFOAM: The Open Source CFD Toolbox           |
|  \\    /   O peration     | Version:  2206                                  |
|   \\  /    A nd           | Website:  www.openfoam.com                      |
|    \\/     M anipulation  |                                                 |
\*---------------------------------------------------------------------------*/
FoamFile
{
    version     2.0;
    format      ascii;
    arch        "LSB;label=32;scalar=64";
    class       volVectorField;
    location    "0.8";
    object      U;
}
// * * * * * * * * * * * * * * * * * * * * * * * * * * * * * * * * * * * * * //

dimensions      [0 1 -1 0 0 0 0];

internalField   nonuniform List<vector> 
918
(
(0.803088 -0.246927 0)
(0.0360096 2.96703 0)
(-0.154525 1.81153 0)
(0.676335 0.246039 0)
(0.0800606 1.73339 -3.34922e-20)
(-0.119412 2.81067 -4.99728e-19)
(1.11479 1.79343 1.08257e-20)
(0.465772 0.278313 -7.06503e-21)
(0.903851 0.00388498 0)
(0.0279342 1.79271 0)
(0.0113961 1.7442 0)
(0.946847 0.00775063 0)
(-0.0529113 3.01273 0)
(0.0313369 2.95519 0)
(-0.084126 2.68026 -5.47011e-20)
(-0.0153945 1.72213 -3.39688e-20)
(0.682209 0.162439 5.66365e-19)
(0.217164 2.06594 1.02398e-20)
(1.0054 -0.00469811 0)
(0.025461 1.73685 0)
(0.689085 0.0942737 1.67843e-20)
(0.700558 -0.0888566 0)
(0.887014 0.0203105 0)
(1.03175 0.0520965 0)
(0.859798 0.0438989 0)
(0.0364113 3.03862 0)
(-0.0258512 2.91005 1.62613e-19)
(-0.195867 1.7274 0)
(-0.0369748 1.66457 0)
(-0.201798 1.71219 0)
(0.0530622 1.73809 0)
(-0.0490265 1.68338 2.57668e-20)
(-0.0298174 1.73052 0)
(-0.057994 3.04344 -1.32558e-23)
(-0.0414787 2.95834 4.08575e-19)
(0.0242771 3.02665 0)
(0.984756 -0.00574497 0)
(0.816496 1.30091 1.60809e-19)
(1.14766 1.68072 1.05431e-19)
(1.25857 1.57414 -5.35956e-20)
(0.974903 1.88225 -3.20185e-21)
(0.916555 1.95737 3.79248e-20)
(0.515587 0.301771 6.85817e-21)
(0.534409 0.2795 0)
(1.37195 0.787166 0)
(0.447021 0.313043 2.88662e-20)
(0.406667 0.279373 -2.99794e-20)
(0.983032 -0.0140544 0)
(1.06469 -0.00429092 0)
(0.904829 -0.0100603 0)
(0.988083 -0.0944936 0)
(1.03298 -0.0244687 0)
(0.949539 0.00709173 0)
(0.0212315 1.62677 -2.84048e-19)
(0.0341843 1.82479 0)
(0.0435294 1.82339 0)
(-0.0218645 1.80481 0)
(-0.0106517 1.80212 0)
(0.00696874 1.72322 0)
(0.0201134 1.75866 0)
(0.0116551 1.74662 0)
(-0.00490824 1.74496 0)
(-0.00970012 1.70536 0)
(1.01642 0.00398842 0)
(0.964267 0.0188353 0)
(0.960058 0.0022494 0)
(0.952684 -0.00339261 0)
(0.942956 -0.0011581 0)
(0.0193512 2.94735 1.68831e-19)
(0.0656227 2.92748 0)
(-0.0140573 2.92832 0)
(-0.0692022 3.06016 1.32492e-24)
(-0.0770547 2.93233 -2.62029e-19)
(-0.00100386 3.03888 0)
(0.0629182 2.94628 0)
(0.0248496 2.99324 3.46618e-25)
(0.0372245 2.93112 0)
(0.0665449 2.99285 0)
(0.0451097 2.92894 0)
(0.106497 2.78889 0)
(-0.162545 2.7931 0)
(-0.00473006 2.7342 5.03143e-20)
(-0.107435 2.65268 0)
(-0.00427711 1.73273 0)
(-0.012627 1.73976 3.34985e-20)
(-0.00145992 1.71731 -3.90706e-20)
(0.719295 0.162601 -1.96924e-19)
(0.726234 0.145982 -1.91453e-19)
(0.688915 0.214256 -5.85481e-19)
(0.662072 0.203532 -3.72281e-19)
(0.180369 1.39217 0)
(0.343929 2.11784 -2.14352e-20)
(0.455096 2.10578 4.49711e-20)
(0.993793 -0.0092676 0)
(0.967282 0.00205574 0)
(0.91294 0.00715557 0)
(1.03257 0.0184674 0)
(0.918362 0.0682903 -2.15758e-18)
(0.970252 0.109597 1.63536e-18)
(0.0146662 1.75658 0)
(0.0101827 1.73669 0)
(0.0150304 1.69207 0)
(-0.0242771 1.74527 0)
(-0.0107967 1.7656 0)
(0.807306 0.141425 1.63928e-20)
(0.353594 0.303515 0)
(1.0155 0.0245414 0)
(0.991364 -0.00344823 0)
(0.939472 0.0364053 0)
(0.88769 0.103111 0)
(0.886096 0.00824466 0)
(1.14574 -0.00660185 0)
(0.836447 0.0220032 0)
(0.81677 0.0223361 9.07255e-19)
(-0.057384 2.87345 1.46448e-19)
(-0.0512811 3.01211 0)
(-0.0609641 3.11729 0)
(-0.0160098 2.95518 0)
(0.00790731 2.97469 1.51439e-19)
(0.0377296 2.93306 0)
(0.0124517 2.96686 -4.68387e-19)
(-0.0387597 2.94139 1.54287e-19)
(0.0370374 1.74578 0)
(-0.00818894 1.75104 0)
(-0.00144078 1.73218 -1.10284e-21)
(-0.0448505 1.74642 0)
(0.0276671 1.7057 0)
(0.998165 -0.00202871 0)
(0.991722 -0.0129169 0)
(0.974546 -2.16033e-05 0)
(0.996992 -0.0106324 0)
(0.974197 0.0180273 0)
(0.895718 1.37326 -2.00196e-19)
(0.900708 1.28919 0)
(0.821612 1.34813 2.42652e-20)
(0.780347 1.25963 0)
(1.2056 1.44609 2.50221e-20)
(1.35331 1.28046 -7.46384e-20)
(0.573024 2.11501 0)
(0.791311 2.02231 0)
(0.691326 2.07127 0)
(0.548068 1.2785 -1.34032e-19)
(0.556388 0.30046 0)
(0.565277 0.250324 9.98493e-20)
(1.23615 1.22059 0)
(1.26155 0.970833 0)
(1.37507 1.02983 1.19053e-19)
(1.32958 0.74708 0)
(1.38252 0.628876 1.69176e-20)
(0.988747 0.0221346 0)
(0.991923 -0.00806867 0)
(0.989621 -0.00904705 0)
(0.996434 0.00451946 0)
(0.992707 -0.0290706 0)
(0.964968 0.0120497 0)
(1.03844 0.00861301 0)
(1.00052 -7.55292e-05 0)
(0.915089 0.00561318 0)
(0.0199608 1.61539 1.49514e-19)
(-0.0163773 1.5534 0)
(0.0293838 1.67434 2.66117e-19)
(0.0271248 1.66985 -2.40585e-19)
(0.110107 2.03063 -5.58974e-21)
(0.0274133 1.92826 0)
(0.0285902 1.95633 0)
(-0.00535331 1.80095 0)
(0.00103625 1.74348 0)
(-0.00833449 1.72204 -1.26563e-21)
(-0.0278336 1.706 0)
(-0.00832098 1.7451 -7.37261e-20)
(-0.0049748 1.723 1.4143e-19)
(0.0273266 1.75462 0)
(0.0186021 1.75733 0)
(-0.000158834 1.72666 0)
(-0.00306294 1.74929 0)
(-0.00969458 1.76059 0)
(1.03196 0.00858939 0)
(1.0168 0.000737169 0)
(1.0071 0.0128006 0)
(0.979148 -0.0116335 0)
(0.971452 -0.00515727 0)
(0.973771 0.00356595 0)
(0.96323 0.012326 0)
(0.938544 -0.00097585 0)
(0.0141824 3.05955 -1.42465e-21)
(0.010904 3.05382 0)
(0.0595003 2.99355 0)
(-0.0143254 2.92586 0)
(0.6862 3.00408 0)
(1.02962 2.36246 7.84148e-20)
(-0.0676125 2.78674 0)
(-0.0609103 2.75112 0)
(-0.00255998 1.78485 0)
(-0.0199165 1.69139 0)
(0.00381686 1.7405 0)
(0.0426069 1.72258 -8.89885e-22)
(0.0272869 1.78912 0)
(0.021757 1.77003 0)
(0.0232307 1.73456 7.83805e-21)
(0.01035 1.74948 4.83105e-20)
(-0.00849449 1.72671 3.99115e-20)
(0.0104535 1.68407 0)
(0.748779 0.151515 3.08067e-19)
(0.743939 0.086263 -3.03465e-19)
(0.204588 1.42627 0)
(0.242772 1.3625 -8.00046e-20)
(0.143344 1.48693 -2.47971e-19)
(0.0981642 1.48767 2.4776e-19)
(0.987054 -0.00729589 0)
(0.989013 -0.0167824 0)
(0.984518 0.00191447 0)
(0.972726 0.00648972 0)
(0.0123852 1.77067 0)
(0.0226878 1.74306 0)
(0.00954556 1.71377 0)
(0.404418 0.288243 2.49148e-19)
(0.43379 0.249984 -2.42841e-19)
(0.359633 0.274295 0)
(1.19201 0.0947195 3.18733e-20)
(1.24165 0.0394683 0)
(1.11807 0.0563195 0)
(1.06585 -0.00684406 0)
(0.772575 0.0957303 0)
(0.814436 0.063846 -1.44803e-18)
(0.758637 0.055152 5.42005e-19)
(-0.0502891 2.97397 1.28849e-19)
(0.0204476 2.9451 -9.10863e-21)
(0.0457893 3.01087 -3.32257e-21)
(0.0742584 3.03414 9.54731e-20)
(-0.0378508 2.95799 5.92793e-21)
(-0.109799 2.89815 -2.23117e-23)
(-0.0719696 3.04185 -9.555e-20)
(0.0957558 3.06575 6.89701e-20)
(0.0859622 3.08806 -9.87749e-20)
(1.00531 -0.00438401 0)
(0.992034 0.0338479 0)
(0.98199 0.0241365 0)
(0.990173 -0.00630038 0)
(0.979316 0.00097208 0)
(0.955887 -0.000584162 0)
(0.98245 -0.0103577 0)
(0.988305 0.00789813 0)
(0.978517 0.0057426 0)
(0.983209 1.34853 -1.85261e-19)
(0.934454 1.32341 0)
(0.649564 1.24224 4.15562e-20)
(0.690009 1.33391 3.24239e-19)
(0.766021 1.33835 -1.93764e-19)
(0.723252 1.28033 3.74444e-19)
(0.511274 1.32965 6.58392e-19)
(0.490063 1.28144 1.23741e-19)
(0.658494 0.241085 3.92238e-19)
(0.606272 0.27423 1.00022e-19)
(0.620234 0.234936 1.89797e-19)
(1.28544 0.561822 -1.84269e-19)
(1.33764 0.37781 -2.06345e-19)
(-0.00266704 1.69348 1.13643e-19)
(-0.00282081 1.66206 0)
(1.07343 0.0186716 0)
(1.04394 0.0155259 0)
(1.04057 0.000909727 0)
(0.00575866 3.05554 0)
(0.00360977 3.00216 2.02446e-19)
(-0.0257593 2.97295 0)
(-0.0278781 2.92788 -2.05818e-19)
(-0.0198486 3.03925 4.7785e-20)
(0.0119922 3.04567 0)
(0.999165 1.39079 2.75444e-20)
(0.966589 1.63146 -1.57038e-19)
(0.852125 1.41784 4.78852e-20)
(-0.0431975 2.9167 -1.35036e-19)
(-0.0365088 2.83838 0)
(-0.0683507 2.80743 0)
(-0.0066688 1.73976 -4.53485e-21)
(0.0236464 1.73438 -1.17022e-19)
(-0.0241112 1.71508 -2.77518e-21)
(0.259884 1.37045 2.59905e-19)
(0.2629 1.31032 -1.76243e-19)
(0.0120412 1.59442 1.9706e-19)
(0.0714863 1.54645 -2.22288e-19)
(0.0487478 1.52675 1.31951e-20)
(-0.0814419 3.06937 -2.26591e-19)
(-0.0865669 3.06973 2.66804e-19)
(-0.00142173 2.98596 1.30133e-19)
(0.0531606 3.00547 -1.16361e-19)
(0.112873 2.93436 -1.3261e-19)
(-0.0109964 3.03206 -3.61545e-19)
(-0.0825962 3.02625 3.74568e-19)
(0.546041 1.29837 0)
(0.584551 1.31901 -6.79401e-19)
(0.560437 1.23108 3.01286e-19)
(0.429002 1.35066 3.55564e-19)
(0.425787 1.29707 -5.54768e-19)
(1.24814 0.202205 1.20663e-19)
(1.30375 0.364931 0)
(1.33025 0.255721 -1.10727e-19)
(-0.0127302 1.73539 -1.38718e-21)
(0.00110746 1.70088 0)
(0.0245071 1.70374 0)
(0.293956 1.38603 -9.26784e-20)
(0.36333 1.36035 -2.11166e-19)
(0.381361 1.33611 3.94593e-19)
(0.974014 -0.00891779 0)
(0.9965 -0.0514716 4.04857e-19)
(0.050003 1.74732 0)
(-0.0388896 1.7332 0)
(1.02911 -0.0265694 6.76576e-21)
(0.899471 -0.00586316 8.21096e-19)
(0.023637 1.7976 1.19585e-21)
(0.0757368 1.80434 0)
(-0.0849604 2.91211 1.35125e-19)
(-0.0668453 2.50048 0)
(1.1842 0.649678 -1.12212e-19)
(1.01547 -0.0149897 -4.60445e-21)
(0.974716 0.0340808 0)
(0.955549 0.00103459 -1.41367e-21)
(0.0264595 1.87556 0)
(0.143029 1.70592 0)
(-0.0280905 1.77733 0)
(0.0745746 1.75872 8.34257e-20)
(0.00528544 1.746 6.21178e-20)
(0.980768 -0.00274725 3.62931e-21)
(1.01691 0.0719105 0)
(1.04575 0.0387756 0)
(-0.0216268 1.69239 0)
(0.0271518 1.74402 0)
(-0.0261015 1.75458 0)
(0.235415 1.94327 5.76328e-20)
(0.98744 -0.0657488 0)
(0.99634 -0.0501001 0)
(0.952969 0.0420223 5.1372e-19)
(0.997845 0.0368245 -6.12043e-19)
(1.04047 -0.0623086 0)
(0.0182385 1.73891 0)
(0.00319667 1.73529 0)
(-0.00621365 1.78208 0)
(-0.00769874 1.78228 0)
(-0.0678606 1.77764 0)
(0.00461559 1.72245 0)
(0.989635 0.0142441 0)
(1.00836 -0.0194665 -1.31231e-21)
(0.870648 1.64396 -5.17359e-20)
(0.952743 -0.0634859 -5.12025e-19)
(1.03761 0.0241291 6.16917e-19)
(1.03905 0.0230502 0)
(0.983219 -0.000643807 4.90378e-19)
(1.02856 0.0748285 -6.09393e-19)
(0.992547 0.0288883 0)
(0.0247465 1.76203 0)
(0.064061 1.77285 3.85936e-20)
(-0.0148671 1.7406 -2.80011e-20)
(1.12404 0.268221 6.78185e-19)
(1.07173 0.076053 0)
(-0.361246 2.93569 -2.08903e-19)
(-0.0866357 3.21207 -8.90909e-21)
(-0.138612 2.89658 4.20435e-19)
(-0.0368925 2.90049 -6.35987e-20)
(-0.0396881 2.89168 0)
(-0.0590007 2.96152 6.29856e-20)
(-0.0999208 3.04994 1.96511e-19)
(-0.0920231 2.98986 -1.17524e-19)
(-0.119364 3.05624 0)
(0.621907 0.279884 0)
(0.468621 0.335449 0)
(1.07148 0.830602 3.32399e-19)
(1.15309 0.944318 -4.18339e-19)
(1.11845 0.578581 0)
(1.12448 0.599719 0)
(1.01927 0.0146055 -9.22515e-19)
(0.974447 -0.00514991 1.1625e-18)
(1.02822 -0.0691449 0)
(1.01081 -0.0441106 0)
(0.931473 0.0602045 0)
(1.02961 -0.0303008 0)
(1.02307 0.0170054 0)
(1.00482 -0.0290231 0)
(0.996644 -0.0879825 0)
(0.963698 -0.000468623 0)
(0.0403919 1.87033 0)
(0.0179713 1.79489 0)
(0.0987037 1.86452 0)
(0.175791 1.90753 0)
(0.128844 1.66955 0)
(0.0261621 1.68598 -1.4356e-19)
(0.121895 1.7087 0)
(0.0303403 1.67432 9.62136e-20)
(0.0939493 1.74807 -1.16635e-19)
(-0.00323777 1.78745 0)
(0.0646013 1.74717 0)
(-0.0304814 1.767 0)
(-0.0443189 1.74977 0)
(-0.00425873 1.72935 -5.75774e-20)
(-0.0500873 1.77851 8.78816e-20)
(0.0559028 1.77688 8.97334e-20)
(0.00361694 1.76011 0)
(0.00733695 1.74741 -1.58229e-19)
(0.00838721 1.72576 -8.80047e-20)
(0.0224794 1.7839 4.30425e-20)
(-0.126253 1.6962 -1.10785e-19)
(0.0465845 1.71375 -1.10751e-19)
(0.989472 -0.0103726 8.3745e-19)
(0.982037 -0.0420243 -1.06676e-18)
(0.979713 0.029278 -8.52523e-19)
(0.919406 0.00757567 1.08532e-18)
(1.05223 0.0690972 0)
(1.04549 -0.00828014 0)
(1.05337 0.0306003 0)
(1.05668 -4.84958e-05 0)
(1.03841 -0.0101848 0)
(1.09122 0.0661863 0)
(1.06366 0.0337503 0)
(1.05815 0.0267017 0)
(-0.154339 1.72822 -2.98075e-21)
(0.0299145 1.75482 0)
(-0.00787218 1.73283 0)
(0.0250536 1.74771 2.36883e-20)
(0.0513362 1.77533 -1.13631e-21)
(-0.00799202 1.79585 3.15283e-20)
(-0.0546004 1.71817 -3.14798e-20)
(-0.0425324 1.7568 0)
(-0.0136021 1.74918 0)
(0.0655401 1.69992 0)
(-0.0279417 1.76116 0)
(-0.065151 1.78768 0)
(0.40429 1.91541 -1.38896e-19)
(0.457425 1.9943 -2.70531e-20)
(0.321828 1.44496 -6.4341e-20)
(0.234316 1.58173 1.81e-19)
(0.324227 1.73115 5.21174e-20)
(1.03253 0.0194424 0)
(0.995808 0.0229611 0)
(1.02508 0.0517838 0)
(0.955564 -0.0373958 0)
(1.0202 0.0106504 0)
(0.961865 0.0286871 0)
(0.984268 0.0858417 0)
(0.987781 0.0636458 0)
(0.998012 -0.0216678 8.84891e-19)
(1.00368 -0.0276761 -1.1288e-18)
(1.00626 0.0180532 -8.71118e-19)
(0.979411 0.0224088 1.10113e-18)
(0.875567 1.66889 0)
(0.809507 1.7329 -9.7427e-20)
(0.901559 1.57535 -1.04298e-19)
(1.01103 1.48699 1.38615e-19)
(0.848815 1.5308 6.45782e-19)
(0.845096 0.108116 3.52751e-19)
(1.09908 0.0873153 0)
(1.1556 0.233154 -5.5038e-19)
(1.13657 0.0954806 -2.28286e-20)
(0.963064 0.11249 0)
(-0.732606 2.69897 2.19104e-19)
(-0.588605 2.64761 -3.17401e-19)
(-0.577381 3.17543 1.02148e-19)
(-0.607134 1.49617 1.75853e-20)
(-0.156917 2.59955 7.4148e-20)
(-0.0162997 2.84311 0)
(0.0174993 2.73903 -9.72468e-20)
(-0.607373 2.69085 -5.58711e-19)
(-0.532248 2.49172 0)
(-0.0579433 2.99782 8.90187e-21)
(-0.0841951 3.05276 -1.05389e-19)
(-0.0400639 3.05548 1.58417e-19)
(-0.0414729 3.07447 0)
(-0.0775466 2.98956 0)
(1.02576 1.77654 0)
(0.263919 1.07028 -2.84594e-19)
(1.11238 1.16665 1.35368e-19)
(0.932847 1.41035 0)
(0.801927 1.1496 -1.30711e-19)
(1.04 1.10434 1.26003e-20)
(0.19845 -0.121286 -2.27081e-19)
(0.636308 0.282526 -4.30308e-21)
(0.633684 0.309194 2.14991e-19)
(0.433325 0.392067 1.28163e-20)
(0.382622 0.320942 -4.91083e-19)
(0.567422 0.401347 0)
(0.575129 0.47226 3.49009e-19)
(0.568642 0.372533 0)
(0.467699 0.379733 0)
(0.510445 0.35213 0)
(0.59638 0.719442 2.84593e-19)
(1.18176 0.236793 -5.49427e-19)
(1.16186 0.45461 0)
(1.21971 0.28787 0)
(0.745697 0.205285 3.39891e-19)
(0.627234 0.671731 -2.16309e-19)
(0.547496 0.526026 4.06004e-19)
(0.832101 0.38074 -4.8287e-19)
(0.996413 -0.00622311 6.09003e-19)
(1.00084 0.0900571 -6.22613e-19)
(1.00725 0.0518245 0)
(1.03651 -0.0154427 0)
(1.01235 -0.0303512 -5.82962e-19)
(1.01123 0.0243015 5.78423e-19)
(0.977488 0.032427 0)
(0.956936 0.00448774 0)
(1.00505 -0.00293444 0)
(1.00074 -0.0206119 0)
(1.01758 0.00506833 0)
(0.963064 -0.0241752 0)
(0.0835665 1.7978 0)
(0.0967821 1.79835 0)
(0.11948 1.80988 -1.16955e-19)
(0.237459 1.95143 -4.09799e-20)
(0.21892 1.92071 -1.03634e-19)
(0.1616 1.9337 1.60063e-19)
(0.0469451 1.76768 0)
(0.206938 1.72193 -1.35311e-19)
(0.0509553 1.77184 0)
(0.298033 1.69202 -7.45561e-20)
(0.239007 1.59698 2.40776e-19)
(0.243725 1.73926 1.1866e-19)
(0.188625 1.83652 -5.53197e-20)
(0.157477 1.78881 4.44222e-20)
(0.199603 1.80199 -1.62501e-19)
(0.213053 1.73439 0)
(0.24505 1.68244 1.22611e-19)
(0.0367682 1.67872 -5.20834e-20)
(0.062436 1.72015 0)
(0.00961658 1.7309 1.27529e-19)
(-0.0237918 1.70773 0)
(0.0149677 1.69906 -1.07727e-19)
(-0.0093276 1.68813 0)
(0.0288667 1.73596 -7.36468e-20)
(0.0726642 1.74287 0)
(0.0449638 1.74337 0)
(0.0258782 1.78924 8.37469e-20)
(0.0344507 1.74556 6.3127e-21)
(0.0628064 1.75631 1.40161e-19)
(0.00313708 1.71585 1.17518e-21)
(0.116099 1.67529 3.88888e-20)
(0.0564088 1.66544 2.6001e-20)
(-0.00556508 1.7467 0)
(-0.086129 1.74371 0)
(-0.013004 1.7493 1.11545e-19)
(-0.0508109 1.75868 1.24323e-19)
(0.0268805 1.78969 -1.51261e-19)
(0.00237712 1.75797 0)
(0.0521656 1.75646 -1.02845e-19)
(-0.058627 1.70637 2.92699e-20)
(-0.0151892 1.78668 -7.70639e-21)
(0.11493 1.7875 -4.64668e-20)
(0.0515046 1.70565 -2.39928e-20)
(-0.0141055 1.72335 1.17336e-19)
(0.986937 0.0404315 -5.9172e-19)
(0.992219 -0.0652197 5.74252e-19)
(0.995215 0.0472225 0)
(0.95605 -0.0362046 7.82811e-19)
(0.915987 0.107294 -8.63636e-19)
(0.952931 0.0396499 9.43005e-19)
(0.967722 0.0038649 -1.00251e-19)
(1.04344 -0.0714159 0)
(1.02611 -0.0101207 5.65722e-19)
(1.01986 -0.0405105 -5.62588e-19)
(0.984387 -0.00323948 -3.21021e-20)
(0.990268 0.0484588 2.67394e-19)
(0.959881 0.068461 0)
(0.978237 0.0882542 -9.55627e-20)
(0.979154 0.0213236 0)
(0.983776 0.0560584 0)
(1.02981 0.0784278 0)
(0.967064 0.00971349 0)
(1.00079 0.0483155 1.98467e-19)
(1.03291 0.0139415 -4.39287e-19)
(1.00036 -0.00712795 -2.09107e-19)
(1.01512 0.015767 -2.33666e-19)
(1.04862 0.0411059 4.56987e-19)
(1.0131 0.0503242 0)
(1.01372 0.0224998 0)
(0.0373256 1.79788 -3.3218e-20)
(0.121414 1.70654 -5.6566e-21)
(0.0342206 1.67025 0)
(0.0336108 1.79272 3.37907e-20)
(-0.109073 1.69235 8.36643e-21)
(0.0120841 1.73073 -9.34784e-21)
(-0.0657743 1.76215 7.82996e-20)
(0.00211625 1.76722 -4.32251e-21)
(0.10515 1.72776 2.23836e-20)
(-0.021432 1.76815 -3.57109e-20)
(-0.0783884 1.77962 4.32589e-20)
(0.00625828 1.71195 -3.31142e-21)
(-0.0242631 1.78208 6.42369e-20)
(0.470149 1.80331 8.05807e-20)
(0.35981 1.78067 1.77937e-19)
(0.755062 1.78848 9.40949e-20)
(0.594151 1.91953 2.59922e-20)
(0.64822 1.94724 0)
(0.286703 1.46459 7.61671e-20)
(0.255879 1.42091 9.42853e-20)
(0.224068 1.51277 1.18619e-20)
(0.34907 1.52884 -2.83942e-19)
(0.36074 1.48764 2.36993e-19)
(0.267222 1.47908 0)
(0.176442 1.47972 -1.54305e-19)
(0.0839303 1.62796 3.69074e-19)
(0.138859 1.60969 1.32595e-21)
(0.0364246 1.57057 -4.77957e-19)
(0.639031 1.37896 4.14377e-19)
(0.464654 1.43953 0)
(1.01419 0.0896106 1.96474e-20)
(0.990944 -0.0803586 -1.66561e-20)
(0.985937 -0.0921797 -2.98474e-19)
(1.03693 0.0184583 3.01462e-19)
(0.996141 0.0364624 0)
(0.791603 1.59722 0)
(0.784934 1.56963 0)
(0.907167 1.3506 0)
(0.645465 1.41351 0)
(0.846315 1.51901 8.16752e-22)
(0.81449 1.5058 0)
(0.562107 1.47403 3.64747e-21)
(0.462261 1.47521 0)
(0.581038 1.4857 -3.1319e-19)
(0.566895 1.45688 2.02705e-19)
(0.814012 0.120406 0)
(0.76886 0.120795 9.2842e-20)
(0.878652 0.116451 5.79007e-19)
(0.834972 0.0910585 -2.09677e-19)
(0.847308 0.119028 -6.5493e-19)
(1.05491 0.191564 -6.88677e-19)
(0.835678 0.352032 -1.08122e-20)
(0.892778 0.215608 5.17193e-19)
(0.92591 0.169558 5.07414e-19)
(0.860698 0.170551 -7.86248e-19)
(0.873502 0.261081 9.51649e-20)
(0.763768 0.274418 -2.32447e-19)
(0.794001 0.253997 0)
(0.948643 0.12299 3.90705e-19)
(0.992736 0.16975 0)
(0.93562 0.186668 0)
(1.03671 0.166949 2.26031e-19)
(0.971805 0.27141 -1.63556e-21)
(0.917978 0.15336 -1.27164e-19)
(1.01107 0.146313 0)
(1.00443 0.0486704 4.40605e-19)
(0.964269 -0.0261589 5.44242e-19)
(1.02477 0.0543134 -4.27693e-19)
(0.996979 0.0929795 -3.65803e-19)
(0.948466 0.00344257 -5.54508e-19)
(0.926721 0.184163 0)
(0.960286 0.0326977 0)
(0.902671 0.0733544 -3.31753e-19)
(0.878144 -0.0224208 1.23703e-19)
(1.00891 0.108419 4.89812e-19)
(1.02394 0.108381 -6.30683e-19)
(0.948901 0.114992 5.53461e-19)
(0.906775 0.161547 0)
(1.00017 0.136002 0)
(0.939846 0.0695185 -2.55617e-19)
(0.972655 0.0633623 -4.04853e-19)
(0.626082 1.51003 1.54907e-19)
(0.62022 1.55242 -1.64282e-19)
(0.739261 1.54757 -2.33879e-19)
(0.729056 1.72291 6.04393e-20)
(0.863004 1.5891 -6.14433e-19)
(1.03542 1.70807 1.85206e-19)
(1.03256 1.57415 -5.19128e-21)
(0.854429 1.66936 -2.54599e-19)
(0.811643 1.64319 3.77514e-19)
(0.861569 1.97403 8.06093e-20)
(0.997377 1.99419 -8.08963e-20)
(0.986792 2.02502 0)
(0.380132 1.34274 -3.08085e-20)
(-0.803389 1.77919 1.51338e-19)
(-0.456003 0.256511 1.69076e-19)
(-0.440629 0.507719 1.41095e-20)
(0.324761 0.376802 2.79452e-19)
(0.275182 0.358021 -5.06195e-19)
(0.23004 0.389575 4.06246e-19)
(0.184026 0.290498 -1.11144e-19)
(0.316494 0.218113 2.62115e-19)
(0.716431 0.290309 -1.99098e-19)
(0.649601 0.318551 0)
(0.678127 0.2706 4.37112e-22)
(0.502251 0.480575 1.88696e-19)
(0.380999 0.522844 -6.81632e-19)
(0.334746 0.434574 -8.88364e-21)
(0.42122 0.393276 0)
(0.456421 1.02169 2.5778e-19)
(0.743963 0.9616 2.96971e-19)
(0.608504 1.12553 -3.42464e-19)
(0.721069 0.958872 -1.30924e-19)
(0.921932 0.940206 -4.47388e-20)
(0.913794 1.08279 4.59623e-20)
(0.703172 0.671723 -4.75172e-19)
(0.777748 0.932823 1.22438e-19)
(0.956602 0.850273 0)
(0.870272 0.762597 -1.74025e-19)
(0.847538 0.264159 1.68756e-19)
(1.01758 0.384936 2.92253e-19)
(0.987715 0.255328 2.72542e-19)
(0.898587 0.417441 -3.22591e-19)
(1.03179 0.378138 0)
(1.03967 0.373 0)
(0.746091 0.450285 -1.11872e-20)
(0.769878 0.238713 0)
(0.697159 0.250557 2.36875e-19)
(0.832241 0.283834 -2.82748e-21)
(0.866624 0.483879 1.33909e-18)
(0.755026 0.556697 3.52976e-19)
(0.768516 0.479925 -3.41932e-19)
(0.706914 0.414037 3.65955e-19)
(0.672704 0.528472 2.03944e-19)
(0.61936 0.416452 -1.97635e-19)
(1.0051 0.0759327 4.84516e-19)
(0.95748 -0.0611764 0)
(0.98332 -0.0118889 3.22321e-19)
(0.899094 0.0834319 -7.24928e-19)
(1.02561 -0.0201769 3.47787e-19)
(0.971445 0.0366384 -7.35009e-19)
(1.03368 -0.013937 0)
(0.993135 -0.0200064 -1.52971e-19)
(1.0166 0.0443795 3.81636e-19)
(0.979521 0.00748221 -1.95337e-19)
(0.946318 -0.066613 1.43884e-19)
(-0.0403319 1.79837 0)
(0.166106 1.72178 0)
(0.0234939 1.78477 0)
(0.000918928 1.83186 0)
(0.0360334 1.79575 2.06378e-19)
(0.0557651 1.81473 -5.58786e-20)
(0.0745786 1.67481 -6.1367e-20)
(0.130917 1.69441 6.89472e-20)
(-0.0535188 1.74498 -1.60342e-19)
(0.0604476 1.69181 1.20577e-19)
(0.0256071 1.78879 7.72201e-21)
(0.0166868 1.77197 -1.42935e-19)
(-0.0140331 1.77887 -2.04936e-20)
(0.123895 1.764 -1.79733e-20)
(0.0252015 1.68951 -1.37575e-19)
(0.0619419 1.68533 0)
(0.0831852 1.71506 7.29894e-20)
(0.0385167 1.76154 5.09036e-20)
(0.140467 1.64331 -6.45593e-20)
(0.133732 1.62557 0)
(0.157286 1.57132 -2.73777e-19)
(0.150779 1.59494 1.95222e-19)
(0.181673 1.64573 -1.74486e-19)
(0.186585 1.64712 1.11474e-19)
(0.0363261 1.52308 0)
(0.0467844 1.66732 -1.24434e-19)
(-0.0171005 1.6969 -1.70001e-19)
(-0.00453507 1.68376 0)
(0.0281084 1.80427 1.73771e-21)
(0.0252203 1.75638 6.21751e-20)
(0.00737581 1.79312 1.12316e-20)
(0.0457725 1.76885 -1.77708e-19)
(-0.0180363 1.77282 4.76362e-20)
(-0.0210392 1.64319 6.42764e-20)
(0.0490537 1.78887 0)
(-0.0580767 1.80811 0)
(-0.00747517 1.77495 6.08281e-20)
(0.0467803 1.76457 -1.89676e-20)
(-0.0644297 1.78207 0)
(-0.0206491 1.76125 4.7127e-20)
(0.0647489 1.7616 -9.22838e-20)
(0.950278 0.134417 0)
(1.05197 0.0743875 -5.19932e-20)
(0.960611 0.0406213 -3.58801e-19)
(0.92795 0.0186382 0)
(0.939204 -0.0664572 0)
(1.02269 -0.0611371 -1.12485e-20)
(0.970447 -0.0827051 5.87026e-19)
(0.971053 -0.0149384 7.22819e-19)
(0.986226 0.0023907 0)
(1.02291 -0.00526078 0)
(0.981262 -0.0140513 3.53113e-19)
(0.971086 0.0278274 0)
(0.961807 0.0663319 0)
(-0.0865747 1.79332 0)
(-0.0266711 1.66123 1.22445e-20)
(-0.033216 1.69335 1.60615e-20)
(0.00925886 1.7884 0)
(0.126852 1.74778 3.86099e-20)
(0.0637471 1.77819 -1.36411e-20)
(0.0301049 1.74687 0)
(0.429418 1.62069 0)
(0.376867 1.56175 -3.22512e-19)
(0.370625 1.56606 0)
(0.463011 1.7554 3.73652e-19)
(0.549415 1.76812 0)
(0.510261 1.80571 -1.53297e-19)
(0.550905 1.49866 -9.36169e-21)
(0.581072 1.41712 -4.93649e-19)
(0.594811 1.41682 6.08136e-19)
(0.468428 1.41599 1.12824e-19)
(0.493453 1.45493 0)
(0.56844 1.47064 0)
(0.62015 1.40718 0)
(0.47869 1.38606 -4.10791e-19)
(0.405873 1.51265 -2.62149e-19)
(0.372067 1.47391 -6.03917e-20)
(0.464393 1.53515 4.86891e-20)
(0.350463 1.46399 0)
(0.46443 1.43938 0)
(0.4251 1.41052 -1.12319e-19)
(0.404404 1.42581 0)
(0.504706 1.49809 0)
(0.561221 1.43073 -3.42568e-19)
(0.445845 1.28447 -2.25931e-20)
(0.70513 1.50702 0)
(0.636842 1.56653 5.35876e-19)
(0.673618 1.27552 -1.1745e-19)
(0.917895 1.20616 0)
(0.743216 1.0922 2.00695e-19)
(0.437809 1.46448 0)
(0.472828 1.2499 0)
(0.735143 1.48619 -2.30589e-19)
(0.70477 1.53192 -1.65525e-19)
(0.701302 1.50263 2.88421e-19)
(0.71154 1.51368 -8.93752e-20)
(0.720645 1.46562 0)
(0.693051 1.48372 1.17335e-19)
(0.737106 1.48442 -1.94396e-19)
(0.751939 1.43092 -2.5408e-21)
(0.592777 1.53102 0)
(0.597632 1.55446 -1.35368e-19)
(0.632718 1.53103 0)
(0.808639 0.167347 0)
(0.793955 0.185265 0)
(0.734671 0.208725 0)
(0.786392 0.26323 -3.73832e-19)
(0.754635 0.207264 2.09155e-19)
(0.951151 -0.0230009 -2.56047e-19)
(0.898049 0.071716 0)
(0.867112 0.0482805 1.08548e-19)
(0.854316 0.132059 4.34207e-19)
(0.829821 0.0253196 -2.77463e-19)
(0.872277 2.26857 7.47786e-20)
(0.851609 2.09633 0)
(0.77546 2.32945 1.55997e-19)
(0.159071 2.43184 -1.35611e-19)
(0.350466 2.0169 -2.09335e-19)
(0.233621 1.46064 3.72487e-19)
(0.30055 1.54872 0)
(-0.152941 0.89407 -6.23668e-20)
(0.00937884 1.06974 4.65772e-19)
(-0.27756 0.60846 -9.3882e-20)
(0.089477 0.508842 1.01891e-19)
(0.384729 0.561691 2.42273e-19)
(0.535596 0.542434 0)
(0.236853 0.786034 0)
(0.141626 0.757465 0)
(0.876504 0.755171 1.36992e-19)
(0.802117 0.575473 -3.3815e-19)
(0.860902 0.64035 2.92726e-19)
(0.832568 0.493075 -2.68826e-19)
(0.985465 0.613351 0)
(0.939859 0.639465 -8.79359e-20)
(0.733299 0.364114 -4.83324e-19)
(0.716172 0.322176 -5.96854e-19)
(0.623596 0.426908 3.74977e-19)
(0.660468 0.374076 -3.51963e-19)
(0.737494 0.349417 -2.86805e-19)
(0.719411 0.341007 3.552e-19)
(1.00274 0.00408476 -3.72591e-19)
(1.0375 0.021959 7.77226e-19)
(1.01757 0.0601854 4.6585e-19)
(1.06102 -0.0650459 -5.63521e-19)
(0.880078 -0.00839185 0)
(0.869391 0.00577912 -9.32292e-19)
(0.0895215 1.68918 3.54602e-20)
(-0.00731852 1.71477 0)
(0.111412 1.76046 2.32499e-19)
(0.0611166 1.72852 -2.0882e-19)
(0.0680906 1.74735 1.14341e-19)
(0.0945748 1.80061 0)
(0.0542495 1.80069 0)
(0.0491182 1.68622 -1.94715e-20)
(0.0024656 1.62059 1.74614e-20)
(0.0692196 1.61714 4.67872e-21)
(-0.155624 1.7548 -3.76799e-20)
(0.0352037 1.75187 1.94629e-20)
(0.545137 1.58591 -3.88257e-19)
(0.586572 1.59054 4.10188e-19)
(0.46401 1.71219 -2.02518e-19)
(0.577899 1.61937 1.84802e-20)
(0.634746 1.72451 0)
(0.613072 1.76891 -1.5794e-19)
(0.563701 1.74562 1.5425e-19)
(0.560655 1.70052 1.95969e-19)
(0.611794 1.70306 0)
(0.650004 1.65189 0)
(0.528106 1.43893 3.98989e-19)
(0.293557 1.51631 5.42461e-19)
(0.286301 1.47798 -3.68895e-19)
(0.236447 1.53786 -6.43674e-20)
(0.345958 1.51407 1.31577e-19)
(0.245624 1.4173 -3.12446e-19)
(0.602733 1.43273 -3.47198e-19)
(0.70054 1.43883 0)
(0.610945 1.41323 -3.88248e-19)
(0.694161 1.45769 0)
(0.696546 1.50435 0)
(0.458405 1.82602 -2.41727e-19)
(0.522588 1.9923 -1.96405e-19)
(0.411158 2.03882 2.28393e-19)
(-0.510583 1.53382 0)
(-0.324387 1.4721 -1.72953e-19)
(0.130743 1.59763 -2.33885e-19)
(0.338936 1.76198 0)
(0.114722 2.05888 1.49472e-19)
(-0.201611 2.09808 0)
(0.47021 0.92618 -5.4363e-19)
(0.607133 0.958835 7.28187e-19)
(0.662937 0.730281 -7.13935e-19)
(0.335038 0.760012 -6.4863e-20)
(0.421556 0.723693 -2.60672e-19)
(0.60158 1.74798 1.47962e-19)
(0.65289 1.68888 -3.1199e-19)
(0.486817 1.80053 4.23866e-19)
(0.491514 1.69092 -2.76132e-19)
(0.625139 1.59648 -3.91222e-19)
(0.654197 1.68788 -2.80931e-20)
(0.659254 1.6406 3.11026e-19)
(0.541139 1.66725 2.25083e-20)
(0.559492 1.56144 1.68211e-19)
)
;

boundaryField
{
    wall-4
    {
        type            noSlip;
    }
    velocity-inlet-5
    {
        type            fixedValue;
        value           uniform (1 0 0);
    }
    velocity-inlet-6
    {
        type            fixedValue;
        value           uniform (0 3 0);
    }
    pressure-outlet-7
    {
        type            zeroGradient;
    }
    wall-8
    {
        type            noSlip;
    }
    frontAndBackPlanes
    {
        type            empty;
    }
}


// ************************************************************************* //
