/*--------------------------------*- C++ -*----------------------------------*\
| =========                 |                                                 |
| \\      /  F ield         | OpenFOAM: The Open Source CFD Toolbox           |
|  \\    /   O peration     | Version:  2212                                  |
|   \\  /    A nd           | Website:  www.openfoam.com                      |
|    \\/     M anipulation  |                                                 |
\*---------------------------------------------------------------------------*/
FoamFile
{
    version     2.0;
    format      ascii;
    arch        "LSB;label=32;scalar=64";
    class       volScalarField;
    location    "20";
    object      p;
}
// * * * * * * * * * * * * * * * * * * * * * * * * * * * * * * * * * * * * * //

dimensions      [0 2 -2 0 0 0 0];

internalField   nonuniform List<scalar> 
2000
(
-43.9752
-46.4183
-47.8084
-48.4815
-48.8625
-49.0914
-49.2249
-49.291
-49.306
-49.2796
-49.218
-49.1256
-49.0055
-48.8602
-48.6914
-48.5007
-48.2893
-48.0582
-47.8084
-47.5407
-47.2558
-46.9543
-46.6369
-46.3043
-45.9568
-45.5951
-45.2196
-44.8309
-44.4295
-44.0157
-43.5901
-43.153
-42.705
-42.2463
-41.7774
-41.2987
-40.8105
-40.3133
-39.8073
-39.2929
-38.7705
-38.2403
-37.7026
-37.1578
-36.6061
-36.0478
-35.4832
-34.9125
-34.336
-33.754
-33.1665
-32.5739
-31.9764
-31.3742
-30.7674
-30.1563
-29.5411
-28.9219
-28.2988
-27.6721
-27.0419
-26.4083
-25.7715
-25.1317
-24.4889
-23.8433
-23.1949
-22.544
-21.8906
-21.2349
-20.5768
-19.9166
-19.2544
-18.5902
-17.924
-17.2561
-16.5865
-15.9153
-15.2425
-14.5683
-13.8928
-13.216
-12.5381
-11.8592
-11.1796
-10.4993
-9.81861
-9.1379
-8.45755
-7.77811
-7.10033
-6.42525
-5.75438
-5.08995
-4.43503
-3.79281
-3.16698
-2.45174
-1.78013
-0.746663
-45.9118
-46.9155
-47.7133
-48.2185
-48.5472
-48.7634
-48.9017
-48.979
-49.0066
-48.9928
-48.9435
-48.8627
-48.7537
-48.6189
-48.4601
-48.2789
-48.0765
-47.8541
-47.6125
-47.3527
-47.0753
-46.781
-46.4706
-46.1445
-45.8034
-45.4478
-45.0783
-44.6952
-44.2992
-43.8907
-43.4701
-43.0379
-42.5945
-42.1404
-41.6758
-41.2012
-40.7171
-40.2237
-39.7214
-39.2105
-38.6915
-38.1646
-37.63
-37.0882
-36.5394
-35.984
-35.422
-34.8539
-34.2799
-33.7001
-33.115
-32.5245
-31.9291
-31.3289
-30.724
-30.1148
-29.5013
-28.8837
-28.2623
-27.6371
-27.0084
-26.3763
-25.7409
-25.1023
-24.4608
-23.8163
-23.1692
-22.5194
-21.867
-21.2123
-20.5552
-19.896
-19.2346
-18.5712
-17.9059
-17.2388
-16.5699
-15.8994
-15.2273
-14.5537
-13.8788
-13.2025
-12.5251
-11.8466
-11.1673
-10.4872
-9.80651
-9.12558
-8.44469
-7.76427
-7.08488
-6.40729
-5.73261
-5.06257
-4.39943
-3.74389
-3.0924
-2.30329
-1.33167
-0.430507
-46.9388
-47.3034
-47.753
-48.1168
-48.3735
-48.5529
-48.6764
-48.7506
-48.7811
-48.773
-48.7309
-48.658
-48.5571
-48.4303
-48.2793
-48.1058
-47.9108
-47.6954
-47.4607
-47.2073
-46.9361
-46.6478
-46.3431
-46.0225
-45.6866
-45.336
-44.9712
-44.5927
-44.2011
-43.7967
-43.3801
-42.9517
-42.512
-42.0613
-41.6001
-41.1288
-40.6477
-40.1572
-39.6577
-39.1496
-38.6331
-38.1087
-37.5765
-37.037
-36.4904
-35.9369
-35.377
-34.8108
-34.2386
-33.6606
-33.0771
-32.4883
-31.8944
-31.2957
-30.6922
-30.0843
-29.4721
-28.8558
-28.2356
-27.6116
-26.9839
-26.3528
-25.7184
-25.0808
-24.4402
-23.7967
-23.1503
-22.5013
-21.8498
-21.1958
-20.5394
-19.8808
-19.2201
-18.5574
-17.8927
-17.2261
-16.5578
-15.8877
-15.2161
-14.543
-13.8684
-13.1925
-12.5153
-11.8371
-11.1578
-10.4776
-9.79674
-9.11534
-8.43365
-7.75197
-7.07067
-6.39029
-5.71158
-5.03575
-4.36429
-3.69528
-3.01713
-2.17621
-1.05915
-0.247949
-47.3464
-47.5127
-47.8004
-48.0657
-48.2585
-48.3981
-48.4998
-48.5639
-48.5916
-48.585
-48.5469
-48.4795
-48.3849
-48.2648
-48.1208
-47.9541
-47.7658
-47.5571
-47.3286
-47.0814
-46.8161
-46.5334
-46.234
-45.9185
-45.5875
-45.2416
-44.8812
-44.5069
-44.1192
-43.7187
-43.3057
-42.8807
-42.4442
-41.9966
-41.5383
-41.0698
-40.5913
-40.1034
-39.6063
-39.1005
-38.5862
-38.0638
-37.5336
-36.996
-36.4512
-35.8995
-35.3412
-34.7766
-34.2058
-33.6293
-33.0471
-32.4596
-31.867
-31.2694
-30.6671
-30.0603
-29.4492
-28.8338
-28.2145
-27.5914
-26.9647
-26.3344
-25.7008
-25.064
-24.4241
-23.7812
-23.1355
-22.4872
-21.8362
-21.1828
-20.527
-19.869
-19.2088
-18.5465
-17.8823
-17.2161
-16.5482
-15.8785
-15.2073
-14.5344
-13.8601
-13.1844
-12.5074
-11.8292
-11.1499
-10.4695
-9.78824
-9.1062
-8.42351
-7.74038
-7.057
-6.37371
-5.69097
-5.00967
-4.33071
-3.65085
-2.9548
-2.0853
-0.940204
-0.178539
-47.4862
-47.6042
-47.8163
-48.0185
-48.1645
-48.2714
-48.3527
-48.4057
-48.4287
-48.4217
-48.3858
-48.3224
-48.2329
-48.1184
-47.9804
-47.8198
-47.6376
-47.4348
-47.2122
-46.9706
-46.7107
-46.4332
-46.1387
-45.828
-45.5014
-45.1597
-44.8034
-44.4329
-44.0489
-43.6518
-43.242
-42.8201
-42.3866
-41.9417
-41.4861
-41.02
-40.5439
-40.0582
-39.5633
-39.0594
-38.547
-38.0264
-37.498
-36.962
-36.4187
-35.8685
-35.3116
-34.7483
-34.1788
-33.6035
-33.0225
-32.4361
-31.8445
-31.2479
-30.6465
-30.0406
-29.4303
-28.8158
-28.1973
-27.575
-26.9489
-26.3193
-25.6864
-25.0502
-24.4109
-23.7686
-23.1235
-22.4756
-21.8252
-21.1722
-20.5169
-19.8593
-19.1995
-18.5376
-17.8737
-17.208
-16.5404
-15.871
-15.2
-14.5274
-13.8533
-13.1777
-12.5007
-11.8225
-11.143
-10.4624
-9.78066
-9.09789
-8.41415
-7.72952
-7.04411
-6.35809
-5.67179
-4.98594
-4.30126
-3.614
-2.90793
-2.02637
-0.87695
-0.144969
-47.5046
-47.6276
-47.8085
-47.9742
-48.0886
-48.1709
-48.2352
-48.2777
-48.2953
-48.2867
-48.2518
-48.191
-48.1051
-47.995
-47.8617
-47.7061
-47.5289
-47.3311
-47.1134
-46.8765
-46.6212
-46.3481
-46.0579
-45.7512
-45.4285
-45.0904
-44.7376
-44.3704
-43.9895
-43.5954
-43.1885
-42.7692
-42.3382
-41.8957
-41.4423
-40.9784
-40.5043
-40.0205
-39.5273
-39.0252
-38.5144
-37.9954
-37.4684
-36.9337
-36.3918
-35.8428
-35.2871
-34.7249
-34.1565
-33.5821
-33.0021
-32.4166
-31.8259
-31.2301
-30.6296
-30.0244
-29.4148
-28.801
-28.1832
-27.5614
-26.936
-26.307
-25.6745
-25.0389
-24.4
-23.7582
-23.1136
-22.4661
-21.8161
-21.1636
-20.5086
-19.8514
-19.1919
-18.5303
-17.8668
-17.2013
-16.5339
-15.8648
-15.194
-14.5215
-13.8475
-13.1721
-12.4951
-11.8168
-11.1372
-10.4562
-9.77402
-9.09053
-8.40578
-7.71978
-7.03257
-6.34425
-5.65511
-4.9659
-4.27735
-3.58568
-2.87473
-1.98948
-0.843456
-0.129152
-47.47
-47.6147
-47.7871
-47.9335
-48.0281
-48.093
-48.144
-48.1777
-48.1902
-48.1795
-48.1447
-48.0854
-48.0021
-47.8953
-47.7657
-47.6139
-47.4407
-47.2469
-47.0331
-46.8001
-46.5485
-46.2791
-45.9923
-45.6889
-45.3694
-45.0343
-44.6843
-44.3199
-43.9416
-43.5498
-43.1452
-42.7282
-42.2992
-41.8587
-41.4071
-40.9449
-40.4725
-39.9902
-39.4986
-38.9978
-38.4884
-37.9705
-37.4447
-36.9112
-36.3703
-35.8223
-35.2675
-34.7063
-34.1387
-33.5652
-32.9859
-32.4012
-31.8111
-31.2161
-30.6161
-30.0116
-29.4026
-28.7893
-28.172
-27.5507
-26.9257
-26.2972
-25.6652
-25.0299
-24.3915
-23.75
-23.1057
-22.4587
-21.809
-21.1567
-20.5021
-19.8451
-19.1859
-18.5246
-17.8612
-17.1959
-16.5288
-15.8599
-15.1892
-14.5169
-13.843
-13.1675
-12.4906
-11.8122
-11.1324
-10.4512
-9.76847
-9.08434
-8.39872
-7.71158
-7.02291
-6.3328
-5.64159
-4.95007
-4.25907
-3.56494
-2.85188
-1.96617
-0.824643
-0.121279
-47.4215
-47.5886
-47.762
-47.8994
-47.9823
-48.0358
-48.0774
-48.1042
-48.1125
-48.0998
-48.0645
-48.0062
-47.9246
-47.8201
-47.693
-47.5441
-47.3738
-47.183
-46.9722
-46.7421
-46.4934
-46.2267
-45.9426
-45.6417
-45.3246
-44.9918
-44.644
-44.2817
-43.9053
-43.5154
-43.1126
-42.6972
-42.2698
-41.8308
-41.3806
-40.9197
-40.4486
-39.9675
-39.477
-38.9773
-38.4688
-37.952
-37.427
-36.8944
-36.3543
-35.807
-35.253
-34.6924
-34.1255
-33.5526
-32.9739
-32.3897
-31.8002
-31.2056
-30.6061
-30.002
-29.3934
-28.7806
-28.1636
-27.5428
-26.9181
-26.2899
-25.6582
-25.0233
-24.3851
-23.744
-23.0999
-22.4531
-21.8036
-21.1516
-20.4972
-19.8404
-19.1814
-18.5203
-17.8571
-17.192
-16.525
-15.8562
-15.1856
-14.5134
-13.8396
-13.1641
-12.4872
-11.8087
-11.1287
-10.4472
-9.76418
-9.07953
-8.39323
-7.70521
-7.01545
-6.32408
-5.63145
-4.93843
-4.24597
-3.55054
-2.83669
-1.95162
-0.813849
-0.117279
-47.3802
-47.5642
-47.7409
-47.8746
-47.9514
-47.9981
-48.0337
-48.056
-48.0613
-48.047
-48.0113
-47.9533
-47.8728
-47.7697
-47.6443
-47.4972
-47.329
-47.1401
-46.9313
-46.7032
-46.4564
-46.1915
-45.9092
-45.61
-45.2945
-44.9633
-44.617
-44.256
-43.881
-43.4924
-43.0907
-42.6765
-42.2501
-41.8121
-41.3629
-40.9029
-40.4326
-39.9524
-39.4625
-38.9636
-38.4558
-37.9396
-37.4152
-36.8831
-36.3436
-35.7968
-35.2433
-34.6831
-34.1167
-33.5442
-32.9659
-32.382
-31.7929
-31.1986
-30.5995
-29.9957
-29.3874
-28.7748
-28.1581
-27.5375
-26.9131
-26.2851
-25.6536
-25.0188
-24.3809
-23.7399
-23.0961
-22.4494
-21.8001
-21.1483
-20.494
-19.8373
-19.1785
-18.5175
-17.8544
-17.1894
-16.5225
-15.8537
-15.1833
-14.5111
-13.8373
-13.1619
-12.4849
-11.8063
-11.1262
-10.4446
-9.76125
-9.07625
-8.38947
-7.70086
-7.0104
-6.31822
-5.62472
-4.93082
-4.23755
-3.54148
-2.82742
-1.94311
-0.807918
-0.11531
-47.3573
-47.55
-47.7291
-47.8616
-47.9357
-47.9794
-48.0121
-48.0322
-48.0359
-48.0208
-47.9848
-47.927
-47.8468
-47.7444
-47.6199
-47.4737
-47.3064
-47.1186
-46.9108
-46.6836
-46.4378
-46.1738
-45.8924
-45.5941
-45.2794
-44.949
-44.6034
-44.2432
-43.8688
-43.4808
-43.0798
-42.6661
-42.2403
-41.8028
-41.354
-40.8945
-40.4246
-39.9448
-39.4553
-38.9567
-38.4493
-37.9334
-37.4093
-36.8775
-36.3382
-35.7918
-35.2384
-34.6785
-34.1123
-33.54
-32.9619
-32.3782
-31.7892
-31.1952
-30.5962
-29.9925
-29.3844
-28.7719
-28.1553
-27.5348
-26.9106
-26.2827
-25.6513
-25.0166
-24.3788
-23.7379
-23.0942
-22.4476
-21.7984
-21.1466
-20.4924
-19.8358
-19.177
-18.516
-17.853
-17.1881
-16.5212
-15.8525
-15.1821
-14.5099
-13.8361
-13.1607
-12.4837
-11.8051
-11.125
-10.4432
-9.75976
-9.07457
-8.38756
-7.69865
-7.00785
-6.31528
-5.62136
-4.92706
-4.23342
-3.5371
-2.82302
-1.93918
-0.805278
-0.114499
-47.3573
-47.55
-47.7291
-47.8616
-47.9357
-47.9794
-48.0121
-48.0322
-48.0359
-48.0208
-47.9848
-47.927
-47.8468
-47.7444
-47.6199
-47.4737
-47.3064
-47.1186
-46.9108
-46.6836
-46.4378
-46.1738
-45.8924
-45.5941
-45.2794
-44.949
-44.6034
-44.2432
-43.8688
-43.4808
-43.0798
-42.6661
-42.2403
-41.8028
-41.354
-40.8945
-40.4246
-39.9448
-39.4553
-38.9567
-38.4493
-37.9334
-37.4093
-36.8775
-36.3382
-35.7918
-35.2384
-34.6785
-34.1123
-33.54
-32.9619
-32.3782
-31.7892
-31.1951
-30.5962
-29.9925
-29.3843
-28.7719
-28.1553
-27.5348
-26.9106
-26.2827
-25.6513
-25.0166
-24.3788
-23.7379
-23.0941
-22.4476
-21.7984
-21.1466
-20.4923
-19.8358
-19.177
-18.516
-17.853
-17.1881
-16.5212
-15.8525
-15.1821
-14.5099
-13.8361
-13.1607
-12.4837
-11.8051
-11.125
-10.4432
-9.75974
-9.07455
-8.38754
-7.69864
-7.00783
-6.31526
-5.62134
-4.92705
-4.23341
-3.53708
-2.82301
-1.93917
-0.80527
-0.114491
-47.3803
-47.5642
-47.7409
-47.8746
-47.9514
-47.9981
-48.0337
-48.056
-48.0613
-48.047
-48.0113
-47.9533
-47.8728
-47.7696
-47.6443
-47.4972
-47.329
-47.1401
-46.9313
-46.7032
-46.4564
-46.1915
-45.9092
-45.61
-45.2945
-44.9633
-44.617
-44.256
-43.881
-43.4924
-43.0907
-42.6765
-42.2501
-41.8121
-41.3629
-40.9029
-40.4326
-39.9524
-39.4625
-38.9636
-38.4558
-37.9396
-37.4152
-36.8831
-36.3435
-35.7968
-35.2433
-34.6831
-34.1166
-33.5441
-32.9658
-32.382
-31.7929
-31.1986
-30.5995
-29.9956
-29.3874
-28.7748
-28.1581
-27.5374
-26.913
-26.285
-25.6536
-25.0188
-24.3809
-23.7399
-23.096
-22.4494
-21.8001
-21.1482
-20.4939
-19.8373
-19.1784
-18.5174
-17.8544
-17.1893
-16.5224
-15.8537
-15.1832
-14.511
-13.8372
-13.1618
-12.4848
-11.8063
-11.1262
-10.4445
-9.7612
-9.07619
-8.38942
-7.70081
-7.01035
-6.31817
-5.62467
-4.93078
-4.2375
-3.54143
-2.82738
-1.94308
-0.80789
-0.115291
-47.4215
-47.5886
-47.762
-47.8994
-47.9823
-48.0358
-48.0774
-48.1042
-48.1125
-48.0998
-48.0645
-48.0062
-47.9246
-47.82
-47.693
-47.5441
-47.3738
-47.183
-46.9722
-46.7421
-46.4934
-46.2267
-45.9426
-45.6417
-45.3246
-44.9918
-44.644
-44.2817
-43.9053
-43.5155
-43.1126
-42.6972
-42.2698
-41.8308
-41.3806
-40.9198
-40.4486
-39.9675
-39.477
-38.9773
-38.4688
-37.9519
-37.427
-36.8943
-36.3542
-35.807
-35.2529
-34.6923
-34.1254
-33.5525
-32.9738
-32.3896
-31.8001
-31.2055
-30.6061
-30.002
-29.3934
-28.7805
-28.1636
-27.5427
-26.9181
-26.2898
-25.6582
-25.0232
-24.3851
-23.7439
-23.0999
-22.4531
-21.8036
-21.1516
-20.4971
-19.8404
-19.1814
-18.5202
-17.8571
-17.1919
-16.5249
-15.8561
-15.1855
-14.5133
-13.8395
-13.1641
-12.4871
-11.8086
-11.1287
-10.4471
-9.7641
-9.07945
-8.39314
-7.70512
-7.01537
-6.32399
-5.63136
-4.93835
-4.24589
-3.55047
-2.83662
-1.95156
-0.813802
-0.117247
-47.47
-47.6147
-47.7872
-47.9336
-48.0281
-48.093
-48.144
-48.1777
-48.1903
-48.1795
-48.1447
-48.0854
-48.0021
-47.8953
-47.7657
-47.6139
-47.4407
-47.2469
-47.0331
-46.8001
-46.5485
-46.2791
-45.9923
-45.6889
-45.3694
-45.0343
-44.6843
-44.3199
-43.9416
-43.5499
-43.1452
-42.7282
-42.2992
-41.8587
-41.4071
-40.9449
-40.4725
-39.9903
-39.4986
-38.9978
-38.4883
-37.9705
-37.4447
-36.9112
-36.3703
-35.8223
-35.2675
-34.7062
-34.1387
-33.5651
-32.9859
-32.4011
-31.8111
-31.216
-30.6161
-30.0115
-29.4025
-28.7892
-28.1719
-27.5506
-26.9257
-26.2971
-25.6651
-25.0298
-24.3914
-23.75
-23.1057
-22.4586
-21.8089
-21.1566
-20.502
-19.845
-19.1858
-18.5245
-17.8611
-17.1958
-16.5287
-15.8597
-15.1891
-14.5168
-13.8429
-13.1674
-12.4905
-11.8121
-11.1323
-10.451
-9.76835
-9.08422
-8.3986
-7.71145
-7.02278
-6.33268
-5.64147
-4.94995
-4.25896
-3.56483
-2.85178
-1.96609
-0.824578
-0.121235
-47.5046
-47.6276
-47.8086
-47.9742
-48.0886
-48.1709
-48.2352
-48.2777
-48.2953
-48.2867
-48.2518
-48.191
-48.1051
-47.995
-47.8617
-47.706
-47.5289
-47.3311
-47.1133
-46.8765
-46.6212
-46.3481
-46.0579
-45.7512
-45.4285
-45.0905
-44.7376
-44.3705
-43.9896
-43.5954
-43.1885
-42.7693
-42.3382
-41.8957
-41.4423
-40.9784
-40.5043
-40.0205
-39.5273
-39.0252
-38.5144
-37.9954
-37.4683
-36.9337
-36.3917
-35.8427
-35.287
-34.7248
-34.1564
-33.5821
-33.002
-32.4165
-31.8258
-31.2301
-30.6295
-30.0243
-29.4148
-28.8009
-28.1831
-27.5613
-26.9359
-26.3069
-25.6744
-25.0388
-24.3999
-23.7581
-23.1135
-22.4661
-21.816
-21.1635
-20.5085
-19.8512
-19.1918
-18.5302
-17.8666
-17.2011
-16.5338
-15.8646
-15.1938
-14.5214
-13.8474
-13.1719
-12.495
-11.8167
-11.137
-10.4561
-9.77386
-9.09037
-8.40562
-7.71962
-7.03241
-6.34409
-5.65496
-4.96575
-4.27721
-3.58554
-2.87461
-1.98937
-0.843372
-0.129098
-47.4862
-47.6042
-47.8163
-48.0185
-48.1645
-48.2714
-48.3527
-48.4058
-48.4287
-48.4217
-48.3858
-48.3224
-48.2328
-48.1184
-47.9804
-47.8197
-47.6376
-47.4348
-47.2122
-46.9706
-46.7107
-46.4332
-46.1387
-45.828
-45.5014
-45.1597
-44.8034
-44.4329
-44.0489
-43.6518
-43.2421
-42.8202
-42.3866
-41.9418
-41.4861
-41.02
-40.5439
-40.0582
-39.5633
-39.0594
-38.547
-38.0264
-37.498
-36.9619
-36.4187
-35.8684
-35.3115
-34.7482
-34.1787
-33.6034
-33.0224
-32.436
-31.8444
-31.2478
-30.6465
-30.0405
-29.4302
-28.8157
-28.1972
-27.5749
-26.9488
-26.3192
-25.6863
-25.0501
-24.4108
-23.7685
-23.1234
-22.4755
-21.8251
-21.1721
-20.5168
-19.8592
-19.1994
-18.5375
-17.8736
-17.2078
-16.5402
-15.8708
-15.1998
-14.5272
-13.8531
-13.1775
-12.5006
-11.8223
-11.1429
-10.4622
-9.78048
-9.0977
-8.41396
-7.72933
-7.04392
-6.35789
-5.6716
-4.98575
-4.30108
-3.61384
-2.90778
-2.02624
-0.876846
-0.144903
-47.3464
-47.5127
-47.8004
-48.0657
-48.2586
-48.3981
-48.4998
-48.564
-48.5916
-48.585
-48.5469
-48.4795
-48.3848
-48.2648
-48.1207
-47.954
-47.7658
-47.557
-47.3286
-47.0814
-46.8161
-46.5334
-46.234
-45.9185
-45.5875
-45.2416
-44.8812
-44.5069
-44.1192
-43.7187
-43.3057
-42.8807
-42.4442
-41.9966
-41.5384
-41.0698
-40.5914
-40.1034
-39.6063
-39.1005
-38.5862
-38.0638
-37.5336
-36.996
-36.4511
-35.8994
-35.3411
-34.7765
-34.2058
-33.6292
-33.0471
-32.4596
-31.8669
-31.2693
-30.667
-30.0602
-29.4491
-28.8337
-28.2144
-27.5913
-26.9645
-26.3343
-25.7007
-25.0638
-24.4239
-23.7811
-23.1354
-22.487
-21.8361
-21.1827
-20.5269
-19.8688
-19.2086
-18.5463
-17.8821
-17.2159
-16.548
-15.8783
-15.207
-14.5342
-13.8599
-13.1842
-12.5072
-11.829
-11.1497
-10.4693
-9.78802
-9.10597
-8.42328
-7.74014
-7.05677
-6.37348
-5.69074
-5.00944
-4.3305
-3.65065
-2.95461
-2.08513
-0.940077
-0.178462
-46.9388
-47.3034
-47.753
-48.1169
-48.3735
-48.5529
-48.6765
-48.7506
-48.7811
-48.7731
-48.7309
-48.658
-48.557
-48.4302
-48.2793
-48.1057
-47.9108
-47.6954
-47.4606
-47.2073
-46.9361
-46.6478
-46.3431
-46.0225
-45.6866
-45.336
-44.9712
-44.5927
-44.2011
-43.7967
-43.3802
-42.9518
-42.512
-42.0613
-41.6001
-41.1288
-40.6477
-40.1572
-39.6577
-39.1496
-38.6331
-38.1086
-37.5765
-37.0369
-36.4903
-35.9369
-35.3769
-34.8107
-34.2385
-33.6605
-33.077
-32.4882
-31.8943
-31.2956
-30.6921
-30.0842
-29.472
-28.8557
-28.2355
-27.6114
-26.9838
-26.3527
-25.7183
-25.0807
-24.4401
-23.7965
-23.1502
-22.5012
-21.8496
-21.1956
-20.5393
-19.8807
-19.2199
-18.5572
-17.8925
-17.2259
-16.5575
-15.8875
-15.2159
-14.5427
-13.8682
-13.1922
-12.5151
-11.8368
-11.1575
-10.4774
-9.79649
-9.11508
-8.43339
-7.7517
-7.0704
-6.39002
-5.71132
-5.03549
-4.36403
-3.69504
-3.0169
-2.17601
-1.059
-0.247859
-45.9118
-46.9156
-47.7133
-48.2186
-48.5472
-48.7634
-48.9018
-48.979
-49.0066
-48.9928
-48.9435
-48.8627
-48.7537
-48.6189
-48.4601
-48.2789
-48.0765
-47.8541
-47.6125
-47.3526
-47.0752
-46.781
-46.4705
-46.1445
-45.8034
-45.4478
-45.0783
-44.6953
-44.2993
-43.8908
-43.4702
-43.038
-42.5946
-42.1404
-41.6758
-41.2013
-40.7171
-40.2237
-39.7214
-39.2105
-38.6915
-38.1645
-37.63
-37.0882
-36.5394
-35.9839
-35.4219
-34.8538
-34.2798
-33.7
-33.1149
-32.5244
-31.929
-31.3288
-30.7239
-30.1147
-29.5012
-28.8836
-28.2622
-27.637
-27.0083
-26.3761
-25.7407
-25.1022
-24.4606
-23.8162
-23.169
-22.5192
-21.8668
-21.2121
-20.555
-19.8958
-19.2344
-18.571
-17.9057
-17.2386
-16.5697
-15.8991
-15.227
-14.5535
-13.8785
-13.2023
-12.5248
-11.8464
-11.167
-10.4869
-9.80623
-9.12529
-8.4444
-7.76397
-7.08458
-6.40698
-5.73231
-5.06227
-4.39914
-3.74361
-3.09213
-2.30305
-1.33147
-0.430397
-43.9752
-46.4183
-47.8084
-48.4816
-48.8626
-49.0914
-49.2249
-49.2911
-49.306
-49.2796
-49.218
-49.1256
-49.0055
-48.8602
-48.6914
-48.5007
-48.2892
-48.0582
-47.8084
-47.5407
-47.2557
-46.9543
-46.6369
-46.3042
-45.9568
-45.5951
-45.2196
-44.831
-44.4295
-44.0158
-43.5901
-43.1531
-42.705
-42.2463
-41.7775
-41.2987
-40.8106
-40.3133
-39.8073
-39.2929
-38.7705
-38.2402
-37.7026
-37.1577
-36.606
-36.0478
-35.4831
-34.9125
-34.336
-33.7539
-33.1664
-32.5738
-31.9763
-31.3741
-30.7673
-30.1562
-29.541
-28.9217
-28.2987
-27.672
-27.0418
-26.4082
-25.7714
-25.1315
-24.4887
-23.8431
-23.1947
-22.5438
-21.8904
-21.2347
-20.5766
-19.9164
-19.2542
-18.5899
-17.9238
-17.2559
-16.5862
-15.915
-15.2422
-14.568
-13.8925
-13.2157
-12.5378
-11.8589
-11.1793
-10.499
-9.81829
-9.13757
-8.45722
-7.77777
-7.09999
-6.42491
-5.75403
-5.08961
-4.43469
-3.79247
-3.16665
-2.45143
-1.77985
-0.746506
)
;

boundaryField
{
    inlet
    {
        type            zeroGradient;
    }
    outlet
    {
        type            fixedValue;
        value           uniform 0;
    }
    frontAndBack
    {
        type            empty;
    }
    walls
    {
        type            zeroGradient;
    }
}


// ************************************************************************* //
