/*--------------------------------*- C++ -*----------------------------------*\
| =========                 |                                                 |
| \\      /  F ield         | OpenFOAM: The Open Source CFD Toolbox           |
|  \\    /   O peration     | Version:  2212                                  |
|   \\  /    A nd           | Website:  www.openfoam.com                      |
|    \\/     M anipulation  |                                                 |
\*---------------------------------------------------------------------------*/
FoamFile
{
    version     2.0;
    format      ascii;
    arch        "LSB;label=32;scalar=64";
    class       surfaceScalarField;
    location    "20";
    object      phi;
}
// * * * * * * * * * * * * * * * * * * * * * * * * * * * * * * * * * * * * * //

dimensions      [0 3 -1 0 0 0 0];

oriented        oriented;

internalField   nonuniform List<scalar> 
3880
(
3.86811e-05
1.13189e-05
2.9115e-05
9.56612e-06
2.23879e-05
6.72707e-06
1.72492e-05
5.13871e-06
1.30821e-05
4.16709e-06
9.53542e-06
3.54666e-06
6.3856e-06
3.14982e-06
3.50283e-06
2.88279e-06
8.13655e-07
2.68919e-06
-1.72535e-06
2.53898e-06
-4.14127e-06
2.41592e-06
-6.45207e-06
2.31083e-06
-8.67035e-06
2.21827e-06
-1.08052e-05
2.13487e-06
-1.28636e-05
2.05836e-06
-1.48507e-05
1.98712e-06
-1.67707e-05
1.92003e-06
-1.86269e-05
1.85621e-06
-2.0422e-05
1.79503e-06
-2.2158e-05
1.736e-06
-2.38368e-05
1.6788e-06
-2.54599e-05
1.62317e-06
-2.70289e-05
1.56892e-06
-2.85448e-05
1.51594e-06
-3.0009e-05
1.46417e-06
-3.14225e-05
1.41355e-06
-3.27866e-05
1.36407e-06
-3.41023e-05
1.31572e-06
-3.53708e-05
1.26852e-06
-3.65933e-05
1.22247e-06
-3.77709e-05
1.17758e-06
-3.89048e-05
1.13388e-06
-3.99961e-05
1.09137e-06
-4.10462e-05
1.05006e-06
-4.20561e-05
1.00995e-06
-4.30272e-05
9.71048e-07
-4.39605e-05
9.3335e-07
-4.48574e-05
8.9685e-07
-4.57189e-05
8.6154e-07
-4.65463e-05
8.27409e-07
-4.73407e-05
7.9444e-07
-4.81034e-05
7.62615e-07
-4.88353e-05
7.31911e-07
-4.95376e-05
7.02306e-07
-5.02114e-05
6.73776e-07
-5.08577e-05
6.46297e-07
-5.14775e-05
6.19844e-07
-5.20719e-05
5.94387e-07
-5.26418e-05
5.69898e-07
-5.31881e-05
5.46346e-07
-5.37119e-05
5.23705e-07
-5.42138e-05
5.01946e-07
-5.46949e-05
4.81043e-07
-5.51558e-05
4.60968e-07
-5.55975e-05
4.4169e-07
-5.60207e-05
4.23179e-07
-5.64261e-05
4.05408e-07
-5.68145e-05
3.88351e-07
-5.71864e-05
3.71983e-07
-5.75427e-05
3.5628e-07
-5.78839e-05
3.41216e-07
-5.82107e-05
3.26764e-07
-5.85236e-05
3.129e-07
-5.88232e-05
2.99602e-07
-5.91101e-05
2.86846e-07
-5.93847e-05
2.74611e-07
-5.96476e-05
2.62873e-07
-5.98992e-05
2.51614e-07
-6.014e-05
2.40811e-07
-6.03704e-05
2.30448e-07
-6.05909e-05
2.20504e-07
-6.08019e-05
2.10961e-07
-6.10037e-05
2.01801e-07
-6.11967e-05
1.93007e-07
-6.13813e-05
1.84565e-07
-6.15577e-05
1.76461e-07
-6.17264e-05
1.68682e-07
-6.18876e-05
1.61214e-07
-6.20417e-05
1.54045e-07
-6.21888e-05
1.47167e-07
-6.23294e-05
1.40575e-07
-6.24637e-05
1.34278e-07
-6.2592e-05
1.28292e-07
-6.27147e-05
1.22655e-07
-6.28321e-05
1.17428e-07
-6.29448e-05
1.1271e-07
-6.30534e-05
1.08658e-07
-6.31589e-05
1.05518e-07
-6.32626e-05
1.03665e-07
-6.33663e-05
1.03652e-07
-6.34725e-05
1.06253e-07
-6.3585e-05
1.1245e-07
-6.37082e-05
1.23255e-07
-6.38474e-05
1.39121e-07
-6.40045e-05
1.57146e-07
-6.41653e-05
1.60747e-07
-6.42741e-05
1.08851e-07
-6.40781e-05
-1.95964e-07
-6.23833e-05
-1.69487e-06
-1.2043e-06
5.29228e-05
8.39612e-06
5.08842e-05
1.16048e-05
4.59328e-05
1.16784e-05
4.01788e-05
1.08927e-05
3.45015e-05
9.84439e-06
2.91752e-05
8.8729e-06
2.42458e-05
8.07928e-06
1.96802e-05
7.44835e-06
1.54282e-05
6.94123e-06
1.14421e-05
6.52507e-06
7.68222e-06
6.17578e-06
4.11671e-06
5.87632e-06
7.20391e-07
5.61459e-06
-2.52652e-06
5.3818e-06
-5.63961e-06
5.17144e-06
-8.63112e-06
4.97863e-06
-1.15107e-05
4.7996e-06
-1.4286e-05
4.63152e-06
-1.69632e-05
4.47217e-06
-1.95471e-05
4.3199e-06
-2.20417e-05
4.17348e-06
-2.44505e-05
4.03197e-06
-2.67764e-05
3.89472e-06
-2.90217e-05
3.76127e-06
-3.11888e-05
3.63127e-06
-3.32798e-05
3.50454e-06
-3.52966e-05
3.38094e-06
-3.72413e-05
3.26038e-06
-3.91156e-05
3.14284e-06
-4.09215e-05
3.02832e-06
-4.26607e-05
2.9168e-06
-4.43351e-05
2.8083e-06
-4.59465e-05
2.70283e-06
-4.74968e-05
2.60038e-06
-4.89878e-05
2.50096e-06
-5.04214e-05
2.40457e-06
-5.17992e-05
2.31118e-06
-5.31231e-05
2.22079e-06
-5.4395e-05
2.13336e-06
-5.56164e-05
2.04886e-06
-5.67892e-05
1.96724e-06
-5.79151e-05
1.88845e-06
-5.89956e-05
1.81245e-06
-6.00325e-05
1.73917e-06
-6.10273e-05
1.66856e-06
-6.19815e-05
1.60055e-06
-6.28968e-05
1.53507e-06
-6.37744e-05
1.47206e-06
-6.4616e-05
1.41144e-06
-6.54228e-05
1.35314e-06
-6.61962e-05
1.2971e-06
-6.69375e-05
1.24324e-06
-6.7648e-05
1.1915e-06
-6.83288e-05
1.1418e-06
-6.89812e-05
1.09407e-06
-6.96062e-05
1.04824e-06
-7.02051e-05
1.00424e-06
-7.07788e-05
9.62011e-07
-7.13283e-05
9.21488e-07
-7.18546e-05
8.82603e-07
-7.23587e-05
8.45296e-07
-7.28414e-05
8.09506e-07
-7.33037e-05
7.75174e-07
-7.37464e-05
7.42243e-07
-7.41702e-05
7.10655e-07
-7.45759e-05
6.80354e-07
-7.49644e-05
6.51287e-07
-7.53361e-05
6.23404e-07
-7.5692e-05
5.96655e-07
-7.60325e-05
5.70995e-07
-7.63584e-05
5.46374e-07
-7.66702e-05
5.22748e-07
-7.69685e-05
5.00075e-07
-7.72538e-05
4.78316e-07
-7.75267e-05
4.57437e-07
-7.77876e-05
4.37406e-07
-7.80371e-05
4.18191e-07
-7.82757e-05
3.99767e-07
-7.85037e-05
3.82112e-07
-7.87218e-05
3.6522e-07
-7.89303e-05
3.49101e-07
-7.91299e-05
3.33793e-07
-7.93209e-05
3.19366e-07
-7.95042e-05
3.05943e-07
-7.96805e-05
2.93723e-07
-7.98508e-05
2.83013e-07
-8.00164e-05
2.74283e-07
-8.01791e-05
2.6823e-07
-8.03413e-05
2.65875e-07
-8.05063e-05
2.68656e-07
-8.06786e-05
2.78516e-07
-8.08641e-05
2.97884e-07
-8.10701e-05
3.2933e-07
-8.13054e-05
3.74355e-07
-8.1578e-05
4.29762e-07
-8.18927e-05
4.75519e-07
-8.22473e-05
4.63418e-07
-8.27862e-05
3.42991e-07
-8.42119e-05
-2.69203e-07
2.77867e-07
5.39266e-05
4.46945e-06
5.61447e-05
9.38669e-06
5.51942e-05
1.2629e-05
5.24051e-05
1.36818e-05
4.88095e-05
1.344e-05
4.49786e-05
1.27038e-05
4.12042e-05
1.18536e-05
3.76127e-05
1.10399e-05
3.42434e-05
1.03105e-05
3.10959e-05
9.67258e-06
2.8153e-05
9.11862e-06
2.53927e-05
8.63666e-06
2.27927e-05
8.21451e-06
2.03334e-05
7.84111e-06
1.79978e-05
7.50705e-06
1.57719e-05
7.20451e-06
1.36444e-05
6.92715e-06
1.1606e-05
6.6699e-06
9.64939e-06
6.42876e-06
7.76867e-06
6.20063e-06
5.95904e-06
5.98311e-06
4.21659e-06
5.77442e-06
2.53808e-06
5.57324e-06
9.20763e-07
5.37859e-06
-6.37729e-07
5.18978e-06
-2.1395e-06
5.00632e-06
-3.58645e-06
4.82788e-06
-4.98032e-06
4.65426e-06
-6.32277e-06
4.4853e-06
-7.61537e-06
4.32093e-06
-8.85964e-06
4.16107e-06
-1.0057e-05
4.00571e-06
-1.1209e-05
3.8548e-06
-1.2317e-05
3.70835e-06
-1.33823e-05
3.56631e-06
-1.44064e-05
3.42866e-06
-1.53906e-05
3.29537e-06
-1.63362e-05
3.16639e-06
-1.72445e-05
3.04168e-06
-1.81168e-05
2.92116e-06
-1.89543e-05
2.80478e-06
-1.97584e-05
2.69245e-06
-2.053e-05
2.58411e-06
-2.12705e-05
2.47966e-06
-2.1981e-05
2.37901e-06
-2.26625e-05
2.28208e-06
-2.33162e-05
2.18876e-06
-2.39431e-05
2.09895e-06
-2.45442e-05
2.01256e-06
-2.51206e-05
1.92948e-06
-2.56731e-05
1.84961e-06
-2.62027e-05
1.77286e-06
-2.67103e-05
1.69911e-06
-2.71968e-05
1.62827e-06
-2.76629e-05
1.56023e-06
-2.81096e-05
1.4949e-06
-2.85376e-05
1.43219e-06
-2.89476e-05
1.372e-06
-2.93403e-05
1.31423e-06
-2.97165e-05
1.2588e-06
-3.00768e-05
1.20562e-06
-3.04219e-05
1.15459e-06
-3.07524e-05
1.10564e-06
-3.10689e-05
1.05869e-06
-3.13719e-05
1.01366e-06
-3.1662e-05
9.70453e-07
-3.19397e-05
9.29012e-07
-3.22055e-05
8.89258e-07
-3.246e-05
8.51124e-07
-3.27036e-05
8.1454e-07
-3.29366e-05
7.79441e-07
-3.31597e-05
7.45762e-07
-3.3373e-05
7.13446e-07
-3.35772e-05
6.82442e-07
-3.37724e-05
6.527e-07
-3.39592e-05
6.24176e-07
-3.41378e-05
5.9683e-07
-3.43087e-05
5.7063e-07
-3.44721e-05
5.45559e-07
-3.46285e-05
5.2162e-07
-3.47783e-05
4.98845e-07
-3.49218e-05
4.77308e-07
-3.50596e-05
4.57138e-07
-3.51922e-05
4.38542e-07
-3.53203e-05
4.21846e-07
-3.54448e-05
4.07539e-07
-3.55668e-05
3.96338e-07
-3.56879e-05
3.89277e-07
-3.58098e-05
3.87813e-07
-3.59351e-05
3.9391e-07
-3.60667e-05
4.10113e-07
-3.62083e-05
4.3948e-07
-3.63641e-05
4.8513e-07
-3.65388e-05
5.49055e-07
-3.67383e-05
6.29255e-07
-3.69769e-05
7.14107e-07
-3.72966e-05
7.83124e-07
-3.77996e-05
8.45996e-07
-3.90624e-05
9.93576e-07
1.49042e-06
5.2924e-05
1.54541e-06
5.61379e-05
6.17284e-06
5.75812e-05
1.11856e-05
5.74457e-05
1.38174e-05
5.62865e-05
1.45992e-05
5.45655e-05
1.44248e-05
5.26033e-05
1.38158e-05
5.05932e-05
1.305e-05
4.86382e-05
1.22655e-05
4.67857e-05
1.15251e-05
4.50518e-05
1.08526e-05
4.34359e-05
1.02526e-05
4.19297e-05
9.72068e-06
4.05222e-05
9.24861e-06
3.9202e-05
8.82729e-06
3.79585e-05
8.44801e-06
3.67826e-05
8.10304e-06
3.56666e-05
7.78587e-06
3.46042e-05
7.49115e-06
3.35902e-05
7.2146e-06
3.26205e-05
6.95289e-06
3.16914e-05
6.70343e-06
3.08004e-05
6.46428e-06
2.9945e-05
6.234e-06
2.91232e-05
6.01152e-06
2.83335e-05
5.79606e-06
2.75743e-05
5.5871e-06
2.68443e-05
5.38424e-06
2.61424e-05
5.18722e-06
2.54675e-05
4.99585e-06
2.48186e-05
4.81e-06
2.41947e-05
4.62957e-06
2.3595e-05
4.45451e-06
2.30186e-05
4.28474e-06
2.24647e-05
4.12021e-06
2.19325e-05
3.96085e-06
2.14213e-05
3.80662e-06
2.09302e-05
3.65744e-06
2.04586e-05
3.51324e-06
2.00059e-05
3.37394e-06
1.95712e-05
3.23944e-06
1.9154e-05
3.10966e-06
1.87536e-05
2.98451e-06
1.83694e-05
2.86386e-06
1.80008e-05
2.74763e-06
1.76471e-05
2.63569e-06
1.7308e-05
2.52793e-06
1.69827e-05
2.42423e-06
1.66708e-05
2.32447e-06
1.63717e-05
2.22855e-06
1.60849e-05
2.13634e-06
1.58101e-05
2.04772e-06
1.55466e-05
1.96257e-06
1.52941e-05
1.88077e-06
1.50521e-05
1.80221e-06
1.48202e-05
1.72679e-06
1.4598e-05
1.65438e-06
1.43852e-05
1.58488e-06
1.41812e-05
1.51817e-06
1.39859e-05
1.45417e-06
1.37987e-05
1.39275e-06
1.36194e-05
1.33384e-06
1.34478e-05
1.27731e-06
1.32834e-05
1.22309e-06
1.31259e-05
1.17108e-06
1.29752e-05
1.12119e-06
1.28309e-05
1.07334e-06
1.26927e-05
1.02743e-06
1.25604e-05
9.83397e-07
1.24338e-05
9.41153e-07
1.23126e-05
9.00624e-07
1.21966e-05
8.6174e-07
1.20856e-05
8.24435e-07
1.19794e-05
7.88651e-07
1.18778e-05
7.54332e-07
1.17806e-05
7.21429e-07
1.16875e-05
6.899e-07
1.15984e-05
6.59715e-07
1.15131e-05
6.30865e-07
1.14313e-05
6.03366e-07
1.13529e-05
5.77271e-07
1.12775e-05
5.52685e-07
1.12049e-05
5.29779e-07
1.11346e-05
5.08827e-07
1.10662e-05
4.90236e-07
1.09992e-05
4.74605e-07
1.09327e-05
4.6279e-07
1.0866e-05
4.55985e-07
1.0798e-05
4.55815e-07
1.07275e-05
4.644e-07
1.06532e-05
4.8438e-07
1.05739e-05
5.18791e-07
1.04884e-05
5.70623e-07
1.03956e-05
6.4186e-07
1.02931e-05
7.3175e-07
1.01722e-05
8.3508e-07
1.00082e-05
9.47082e-07
9.76215e-06
1.09208e-06
9.4018e-06
1.35392e-06
1.72684e-06
5.1793e-05
-2.47599e-07
5.46127e-05
3.35321e-06
5.69663e-05
8.83202e-06
5.84689e-05
1.23147e-05
5.91946e-05
1.38735e-05
5.93513e-05
1.42681e-05
5.91496e-05
1.40175e-05
5.87524e-05
1.34472e-05
5.82692e-05
1.27487e-05
5.77664e-05
1.20278e-05
5.72806e-05
1.13384e-05
5.68292e-05
1.0704e-05
5.64185e-05
1.01314e-05
5.60485e-05
9.6186e-06
5.57162e-05
9.1596e-06
5.54173e-05
8.74687e-06
5.51475e-05
8.3729e-06
5.49025e-05
8.03089e-06
5.46786e-05
7.71496e-06
5.44729e-05
7.4203e-06
5.42828e-05
7.14304e-06
5.4106e-05
6.88016e-06
5.3941e-05
6.62933e-06
5.37862e-05
6.38876e-06
5.36406e-05
6.15715e-06
5.35031e-05
5.93353e-06
5.3373e-05
5.71719e-06
5.32497e-05
5.50762e-06
5.31324e-05
5.30445e-06
5.30209e-05
5.1074e-06
5.29146e-05
4.91629e-06
5.28132e-05
4.73097e-06
5.27164e-05
4.55133e-06
5.26238e-05
4.37727e-06
5.25354e-05
4.20869e-06
5.24507e-05
4.04551e-06
5.23697e-05
3.88766e-06
5.22921e-05
3.73506e-06
5.22177e-05
3.5876e-06
5.21464e-05
3.44519e-06
5.20782e-05
3.30773e-06
5.20127e-05
3.17513e-06
5.19499e-05
3.04727e-06
5.18897e-05
2.92405e-06
5.1832e-05
2.80535e-06
5.17767e-05
2.69104e-06
5.17236e-05
2.581e-06
5.16727e-05
2.47513e-06
5.16239e-05
2.37329e-06
5.1577e-05
2.27537e-06
5.15321e-05
2.18124e-06
5.14891e-05
2.09077e-06
5.14478e-05
2.00385e-06
5.14082e-05
1.92035e-06
5.13703e-05
1.84016e-06
5.13339e-05
1.76317e-06
5.1299e-05
1.68926e-06
5.12655e-05
1.61832e-06
5.12335e-05
1.55023e-06
5.12028e-05
1.4849e-06
5.11733e-05
1.42221e-06
5.1145e-05
1.36207e-06
5.1118e-05
1.30437e-06
5.1092e-05
1.24903e-06
5.10672e-05
1.19594e-06
5.10434e-05
1.14501e-06
5.10205e-05
1.09616e-06
5.09987e-05
1.04931e-06
5.09777e-05
1.00436e-06
5.09576e-05
9.61245e-07
5.09384e-05
9.19882e-07
5.09199e-05
8.80201e-07
5.09022e-05
8.42137e-07
5.08852e-05
8.05631e-07
5.08689e-05
7.70626e-07
5.08533e-05
7.37074e-07
5.08383e-05
7.04937e-07
5.08238e-05
6.74191e-07
5.08098e-05
6.44835e-07
5.07963e-05
6.16897e-07
5.07831e-05
5.90444e-07
5.07702e-05
5.65598e-07
5.07574e-05
5.42555e-07
5.07446e-05
5.21616e-07
5.07317e-05
5.03221e-07
5.07183e-05
4.87999e-07
5.07042e-05
4.76835e-07
5.06893e-05
4.70925e-07
5.06732e-05
4.71853e-07
5.0656e-05
4.81633e-07
5.06377e-05
5.02673e-07
5.06188e-05
5.37639e-07
5.06004e-05
5.89065e-07
5.05836e-05
6.58624e-07
5.05691e-05
7.46219e-07
5.05544e-05
8.49819e-07
5.05316e-05
9.6989e-07
5.04997e-05
1.12394e-06
5.04988e-05
1.3549e-06
1.60958e-06
5.08803e-05
-1.12795e-06
5.28673e-05
1.36628e-06
5.52845e-05
6.4148e-06
5.75852e-05
1.0014e-05
5.95369e-05
1.19218e-05
6.11138e-05
1.26912e-05
6.23766e-05
1.27547e-05
6.34062e-05
1.24176e-05
6.42747e-05
1.18801e-05
6.50371e-05
1.12655e-05
6.57309e-05
1.06445e-05
6.63809e-05
1.0054e-05
6.70019e-05
9.51036e-06
6.76026e-05
9.01788e-06
6.81877e-05
8.57449e-06
6.87595e-05
8.1751e-06
6.93188e-05
7.81357e-06
6.98659e-05
7.48381e-06
7.04005e-05
7.18034e-06
7.09223e-05
6.89848e-06
7.1431e-05
6.63438e-06
7.19262e-05
6.38496e-06
7.24077e-05
6.14783e-06
7.28753e-05
5.92114e-06
7.33289e-05
5.70352e-06
7.37686e-05
5.49392e-06
7.41942e-05
5.29157e-06
7.46059e-05
5.0959e-06
7.50039e-05
4.9065e-06
7.53882e-05
4.72306e-06
7.57591e-05
4.54536e-06
7.61169e-05
4.37322e-06
7.64617e-05
4.20649e-06
7.67939e-05
4.04506e-06
7.71138e-05
3.88882e-06
7.74216e-05
3.73767e-06
7.77178e-05
3.59153e-06
7.80025e-05
3.45029e-06
7.82763e-05
3.31387e-06
7.85393e-05
3.18217e-06
7.87919e-05
3.05508e-06
7.90346e-05
2.9325e-06
7.92675e-05
2.81434e-06
7.94911e-05
2.70048e-06
7.97056e-05
2.59081e-06
7.99115e-05
2.4852e-06
8.01089e-05
2.38356e-06
8.02982e-05
2.28577e-06
8.04798e-05
2.19172e-06
8.06539e-05
2.10129e-06
8.08208e-05
2.01436e-06
8.09807e-05
1.93082e-06
8.1134e-05
1.85056e-06
8.12809e-05
1.77346e-06
8.14216e-05
1.69943e-06
8.15564e-05
1.62834e-06
8.16856e-05
1.5601e-06
8.18093e-05
1.4946e-06
8.19278e-05
1.43173e-06
8.20413e-05
1.37141e-06
8.21499e-05
1.31354e-06
8.2254e-05
1.25802e-06
8.23536e-05
1.20475e-06
8.2449e-05
1.15366e-06
8.25403e-05
1.10464e-06
8.26277e-05
1.05763e-06
8.27113e-05
1.01254e-06
8.27913e-05
9.69284e-07
8.28679e-05
9.27795e-07
8.29412e-05
8.87996e-07
8.30112e-05
8.49818e-07
8.30782e-05
8.13197e-07
8.31423e-05
7.78074e-07
8.32035e-05
7.44391e-07
8.32621e-05
7.12099e-07
8.3318e-05
6.81155e-07
8.33714e-05
6.51526e-07
8.34224e-05
6.23195e-07
8.34711e-05
5.96168e-07
8.35175e-05
5.7048e-07
8.35617e-05
5.46204e-07
8.36038e-05
5.23463e-07
8.36439e-05
5.02451e-07
8.36821e-05
4.8346e-07
8.37184e-05
4.6691e-07
8.37531e-05
4.53391e-07
8.37862e-05
4.43721e-07
8.38181e-05
4.38978e-07
8.38494e-05
4.40554e-07
8.38808e-05
4.5018e-07
8.39137e-05
4.69848e-07
8.39496e-05
5.01689e-07
8.3991e-05
5.47638e-07
8.40408e-05
6.08911e-07
8.41015e-05
6.85506e-07
8.41748e-05
7.76465e-07
8.42621e-05
8.82592e-07
8.43737e-05
1.0124e-06
8.45467e-05
1.18194e-06
1.34553e-06
5.02216e-05
-1.34951e-06
5.13661e-05
2.21725e-07
5.34729e-05
4.30801e-06
5.60391e-05
7.44782e-06
5.8684e-05
9.27695e-06
6.12199e-05
1.01553e-05
6.35757e-05
1.0399e-05
6.57409e-05
1.02524e-05
6.77317e-05
9.88932e-06
6.95727e-05
9.42451e-06
7.12884e-05
8.92887e-06
7.28996e-05
8.44273e-06
7.44234e-05
7.98656e-06
7.58728e-05
7.56852e-06
7.72576e-05
7.1897e-06
7.85853e-05
6.84742e-06
7.98614e-05
6.53741e-06
8.10903e-05
6.25495e-06
8.22751e-05
5.99556e-06
8.34183e-05
5.75527e-06
8.45219e-05
5.53076e-06
8.55875e-05
5.31932e-06
8.66165e-05
5.11885e-06
8.761e-05
4.92768e-06
8.85689e-05
4.74454e-06
8.94944e-05
4.56849e-06
9.03871e-05
4.39881e-06
9.12481e-05
4.23497e-06
9.2078e-05
4.07657e-06
9.28777e-05
3.92333e-06
9.36481e-05
3.77503e-06
9.43898e-05
3.63147e-06
9.51038e-05
3.49253e-06
9.57907e-05
3.35809e-06
9.64515e-05
3.22804e-06
9.70869e-05
3.10229e-06
9.76977e-05
2.98076e-06
9.82846e-05
2.86335e-06
9.88485e-05
2.74997e-06
9.93901e-05
2.64054e-06
9.99102e-05
2.53497e-06
0.00010041
2.43319e-06
0.000100889
2.33508e-06
0.000101349
2.24055e-06
0.00010179
2.14951e-06
0.000102213
2.06185e-06
0.000102619
1.9775e-06
0.000103009
1.89636e-06
0.000103382
1.81832e-06
0.00010374
1.74329e-06
0.000104083
1.67116e-06
0.000104412
1.60185e-06
0.000104728
1.53527e-06
0.00010503
1.47132e-06
0.000105319
1.4099e-06
0.000105597
1.35094e-06
0.000105862
1.29434e-06
0.000106117
1.24001e-06
0.000106361
1.18787e-06
0.000106594
1.13784e-06
0.000106818
1.08985e-06
0.000107032
1.0438e-06
0.000107238
9.99632e-07
0.000107434
9.57262e-07
0.000107622
9.1662e-07
0.000107802
8.77638e-07
0.000107974
8.40249e-07
0.000108139
8.04388e-07
0.000108297
7.69991e-07
0.000108448
7.36997e-07
0.000108592
7.0535e-07
0.000108731
6.74998e-07
0.000108863
6.45889e-07
0.000108989
6.17977e-07
0.00010911
5.91221e-07
0.000109226
5.65586e-07
0.000109336
5.41046e-07
0.000109442
5.17592e-07
0.000109543
4.95235e-07
0.000109639
4.74008e-07
0.000109731
4.53977e-07
0.00010982
4.35253e-07
0.000109904
4.18004e-07
0.000109985
4.02477e-07
0.000110063
3.89029e-07
0.000110138
3.78158e-07
0.000110211
3.70534e-07
0.000110283
3.67033e-07
0.000110355
3.68756e-07
0.000110428
3.77041e-07
0.000110505
3.93398e-07
0.000110587
4.1937e-07
0.000110678
4.56299e-07
0.000110782
5.04943e-07
0.000110903
5.65194e-07
0.000111043
6.36336e-07
0.000111207
7.1837e-07
0.000111405
8.13868e-07
0.000111661
9.2634e-07
1.02525e-06
4.97764e-05
-1.12589e-06
5.02383e-05
-2.40199e-07
5.19496e-05
2.59676e-06
5.45137e-05
4.88367e-06
5.74981e-05
6.29266e-06
6.06218e-05
7.03149e-06
6.37199e-05
7.30087e-06
6.67053e-05
7.26698e-06
6.954e-05
7.05462e-06
7.22141e-05
6.75049e-06
7.47324e-05
6.41059e-06
7.71066e-05
6.06852e-06
7.93507e-05
5.74248e-06
8.14784e-05
5.44077e-06
8.35024e-05
5.16576e-06
8.54332e-05
4.91652e-06
8.72801e-05
4.69054e-06
8.90504e-05
4.48469e-06
9.07501e-05
4.29585e-06
9.23842e-05
4.12118e-06
9.39566e-05
3.95827e-06
9.54708e-05
3.80515e-06
9.69294e-05
3.66023e-06
9.83349e-05
3.52225e-06
9.96891e-05
3.39028e-06
0.000100994
3.26357e-06
0.000102251
3.1416e-06
0.000103462
3.02395e-06
0.000104629
2.91031e-06
0.000105751
2.80046e-06
0.000106832
2.69422e-06
0.000107872
2.59144e-06
0.000108873
2.49202e-06
0.000109835
2.39585e-06
0.00011076
2.30287e-06
0.000111649
2.213e-06
0.000112504
2.12617e-06
0.000113325
2.0423e-06
0.000114114
1.96133e-06
0.000114871
1.8832e-06
0.000115598
1.80785e-06
0.000116296
1.7352e-06
0.000116966
1.66519e-06
0.000117609
1.59773e-06
0.000118226
1.53277e-06
0.000118817
1.47024e-06
0.000119385
1.41008e-06
0.000119929
1.3522e-06
0.000120451
1.29654e-06
0.000120951
1.24303e-06
0.00012143
1.19159e-06
0.00012189
1.14217e-06
0.000122331
1.0947e-06
0.000122753
1.0491e-06
0.000123157
1.00532e-06
0.000123545
9.6329e-07
0.000123916
9.2294e-07
0.000124272
8.84213e-07
0.000124613
8.47053e-07
0.000124939
8.114e-07
0.000125252
7.77198e-07
0.000125552
7.44389e-07
0.000125838
7.12918e-07
0.000126113
6.82731e-07
0.000126376
6.53779e-07
0.000126627
6.26012e-07
0.000126868
5.99382e-07
0.000127099
5.73842e-07
0.000127319
5.49347e-07
0.00012753
5.25854e-07
0.000127733
5.03323e-07
0.000127926
4.81715e-07
0.000128111
4.60995e-07
0.000128288
4.41129e-07
0.000128457
4.22086e-07
0.000128618
4.03842e-07
0.000128773
3.86379e-07
0.000128921
3.69696e-07
0.000129062
3.53803e-07
0.000129198
3.38728e-07
0.000129327
3.24518e-07
0.000129451
3.11255e-07
0.00012957
2.99065e-07
0.000129684
2.88124e-07
0.000129795
2.78694e-07
0.000129902
2.7113e-07
0.000130006
2.65902e-07
0.00013011
2.63628e-07
0.000130214
2.65061e-07
0.000130319
2.71106e-07
0.00013043
2.82774e-07
0.000130548
3.01038e-07
0.000130678
3.26708e-07
0.000130823
3.602e-07
0.000130987
4.01351e-07
0.000131173
4.49565e-07
0.000131387
5.04355e-07
0.000131636
5.65601e-07
0.00013193
6.32377e-07
6.87189e-07
4.95023e-05
-6.28239e-07
4.9499e-05
-2.3684e-07
5.08859e-05
1.20978e-06
5.33618e-05
2.40776e-06
5.6486e-05
3.16848e-06
5.99321e-05
3.58537e-06
6.34784e-05
3.75462e-06
6.6986e-05
3.75939e-06
7.03763e-05
3.66431e-06
7.36111e-05
3.5156e-06
7.66778e-05
3.34392e-06
7.95782e-05
3.16814e-06
8.23219e-05
2.99885e-06
8.49215e-05
2.84116e-06
8.73903e-05
2.69688e-06
8.9741e-05
2.56585e-06
9.19846e-05
2.44693e-06
9.41308e-05
2.33858e-06
9.61874e-05
2.23922e-06
9.81611e-05
2.1474e-06
0.000100058
2.06186e-06
0.000101881
1.98153e-06
0.000103636
1.90558e-06
0.000105325
1.83334e-06
0.000106951
1.7643e-06
0.000108516
1.69808e-06
0.000110023
1.63436e-06
0.000111474
1.57295e-06
0.000112871
1.51366e-06
0.000114215
1.45638e-06
0.000115508
1.401e-06
0.000116752
1.34744e-06
0.000117949
1.29564e-06
0.000119099
1.24556e-06
0.000120205
1.19715e-06
0.000121267
1.15037e-06
0.000122288
1.10517e-06
0.000123269
1.06152e-06
0.000124211
1.01939e-06
0.000125115
9.78742e-07
0.000125984
9.39546e-07
0.000126817
9.01759e-07
0.000127617
8.6534e-07
0.000128385
8.30256e-07
0.000129121
7.96475e-07
0.000129827
7.63964e-07
0.000130504
7.32686e-07
0.000131154
7.026e-07
0.000131777
6.73665e-07
0.000132374
6.45846e-07
0.000132947
6.19112e-07
0.000133495
5.93432e-07
0.000134021
5.6877e-07
0.000134525
5.4509e-07
0.000135008
5.22354e-07
0.000135471
5.00526e-07
0.000135914
4.79576e-07
0.000136339
4.59472e-07
0.000136746
4.40186e-07
0.000137136
4.21688e-07
0.000137509
4.03946e-07
0.000137866
3.86931e-07
0.000138209
3.70614e-07
0.000138536
3.54967e-07
0.00013885
3.39964e-07
0.000139151
3.2558e-07
0.000139438
3.11788e-07
0.000139714
2.98564e-07
0.000139977
2.85884e-07
0.000140229
2.73725e-07
0.00014047
2.62067e-07
0.000140701
2.5089e-07
0.000140922
2.40174e-07
0.000141133
2.299e-07
0.000141335
2.2005e-07
0.000141529
2.10612e-07
0.000141713
2.01578e-07
0.00014189
1.9295e-07
0.000142059
1.84737e-07
0.000142221
1.76951e-07
0.000142376
1.69619e-07
0.000142524
1.62785e-07
0.000142667
1.56514e-07
0.000142804
1.50901e-07
0.000142937
1.46081e-07
0.000143066
1.42236e-07
0.000143192
1.39609e-07
0.000143317
1.38524e-07
0.000143443
1.39367e-07
0.000143571
1.4259e-07
0.000143705
1.48697e-07
0.000143848
1.58161e-07
0.000144004
1.7135e-07
0.000144175
1.8844e-07
0.000144367
2.09326e-07
0.000144583
2.33653e-07
0.000144827
2.60997e-07
0.000145101
2.90775e-07
0.000145412
3.21716e-07
3.45999e-07
4.93718e-05
2.18193e-11
4.91349e-05
6.81528e-12
5.03447e-05
-9.42114e-12
5.27525e-05
-2.59354e-11
5.5921e-05
-3.08768e-11
5.95064e-05
-2.91746e-11
6.32611e-05
-4.27767e-11
6.70205e-05
-6.50792e-11
7.06849e-05
-7.11745e-11
7.42006e-05
-6.4494e-11
7.75446e-05
-6.17721e-11
8.07128e-05
-7.13525e-11
8.37117e-05
-7.97326e-11
8.65529e-05
-7.76774e-11
8.92499e-05
-6.77194e-11
9.18158e-05
-6.20146e-11
9.42628e-05
-6.26332e-11
9.66014e-05
-5.92486e-11
9.88407e-05
-4.96632e-11
0.000100988
-4.02105e-11
0.00010305
-3.48051e-11
0.000105032
-3.2302e-11
0.000106937
-3.00349e-11
0.000108771
-2.76305e-11
0.000110535
-2.74915e-11
0.000112233
-3.11368e-11
0.000113868
-3.65672e-11
0.000115441
-4.12162e-11
0.000116954
-4.64949e-11
0.000118411
-5.69143e-11
0.000119812
-7.43323e-11
0.000121159
-9.48494e-11
0.000122455
-1.12729e-10
0.000123701
-1.26986e-10
0.000124898
-1.42912e-10
0.000126049
-1.66489e-10
0.000127154
-1.97704e-10
0.000128216
-2.30086e-10
0.000129235
-2.56979e-10
0.000130214
-2.77833e-10
0.000131154
-2.97962e-10
0.000132056
-3.2238e-10
0.000132922
-3.50335e-10
0.000133753
-3.75932e-10
0.00013455
-3.93717e-10
0.000135314
-4.03401e-10
0.000136047
-4.09399e-10
0.00013675
-4.16177e-10
0.000137424
-4.23998e-10
0.00013807
-4.2864e-10
0.00013869
-4.24773e-10
0.000139284
-4.09771e-10
0.000139853
-3.84983e-10
0.000140398
-3.53983e-10
0.000140921
-3.19663e-10
0.000141422
-2.82477e-10
0.000141902
-2.40807e-10
0.000142361
-1.92664e-10
0.000142802
-1.37156e-10
0.000143223
-7.47402e-11
0.000143627
-6.42424e-12
0.000144014
6.7172e-11
0.000144385
1.46152e-10
0.000144739
2.3094e-10
0.000145079
3.21509e-10
0.000145404
4.16845e-10
0.000145716
5.15186e-10
0.000146014
6.15038e-10
0.000146299
7.16043e-10
0.000146572
8.18657e-10
0.000146833
9.22837e-10
0.000147083
1.02723e-09
0.000147322
1.12952e-09
0.00014755
1.22718e-09
0.000147769
1.31817e-09
0.000147978
1.40228e-09
0.000148178
1.48181e-09
0.00014837
1.55969e-09
0.000148553
1.63731e-09
0.000148728
1.71498e-09
0.000148896
1.79298e-09
0.000149057
1.87166e-09
0.000149211
1.95057e-09
0.00014936
2.02808e-09
0.000149504
2.10331e-09
0.000149644
2.17581e-09
0.000149782
2.25049e-09
0.000149918
2.33879e-09
0.000150055
2.44431e-09
0.000150195
2.55285e-09
0.000150341
2.6697e-09
0.000150496
2.81604e-09
0.000150665
2.99278e-09
0.00015085
3.20196e-09
0.000151056
3.44077e-09
0.000151286
3.71651e-09
0.000151543
4.05121e-09
0.000151829
4.46039e-09
0.000152146
4.92076e-09
5.25364e-09
4.93718e-05
6.28257e-07
4.91349e-05
2.36851e-07
5.03447e-05
-1.20981e-06
5.27525e-05
-2.4078e-06
5.5921e-05
-3.16854e-06
5.95064e-05
-3.58547e-06
6.32611e-05
-3.75473e-06
6.70205e-05
-3.7595e-06
7.06849e-05
-3.66443e-06
7.42006e-05
-3.51574e-06
7.75446e-05
-3.34406e-06
8.07128e-05
-3.16828e-06
8.37117e-05
-2.99898e-06
8.65529e-05
-2.84131e-06
8.92499e-05
-2.69703e-06
9.18158e-05
-2.566e-06
9.42628e-05
-2.44706e-06
9.66014e-05
-2.3387e-06
9.88407e-05
-2.23934e-06
0.000100988
-2.14752e-06
0.00010305
-2.06197e-06
0.000105032
-1.98163e-06
0.000106937
-1.90567e-06
0.000108771
-1.83343e-06
0.000110535
-1.7644e-06
0.000112233
-1.69817e-06
0.000113868
-1.63447e-06
0.000115441
-1.57306e-06
0.000116954
-1.51379e-06
0.000118411
-1.45652e-06
0.000119812
-1.40117e-06
0.000121159
-1.34764e-06
0.000122455
-1.29588e-06
0.000123701
-1.24583e-06
0.000124898
-1.19745e-06
0.000126049
-1.15072e-06
0.000127154
-1.10557e-06
0.000128216
-1.06198e-06
0.000129235
-1.0199e-06
0.000130214
-9.79296e-07
0.000131154
-9.40142e-07
0.000132056
-9.02402e-07
0.000132922
-8.66034e-07
0.000133753
-8.30996e-07
0.000134549
-7.9725e-07
0.000135314
-7.6476e-07
0.000136047
-7.33496e-07
0.00013675
-7.03422e-07
0.000137424
-6.745e-07
0.00013807
-6.46687e-07
0.00013869
-6.19944e-07
0.000139284
-5.94234e-07
0.000139853
-5.69525e-07
0.000140398
-5.45786e-07
0.000140921
-5.22982e-07
0.000141422
-5.0108e-07
0.000141901
-4.80047e-07
0.000142361
-4.59848e-07
0.000142801
-4.40453e-07
0.000143223
-4.21833e-07
0.000143627
-4.03957e-07
0.000144014
-3.86798e-07
0.000144385
-3.70324e-07
0.000144739
-3.54509e-07
0.000145079
-3.39328e-07
0.000145404
-3.24756e-07
0.000145715
-3.10771e-07
0.000146013
-2.9735e-07
0.000146299
-2.84471e-07
0.000146572
-2.7211e-07
0.000146833
-2.60248e-07
0.000147083
-2.48867e-07
0.000147322
-2.3795e-07
0.00014755
-2.27484e-07
0.000147769
-2.17455e-07
0.000147978
-2.07851e-07
0.000148179
-1.98661e-07
0.00014837
-1.89881e-07
0.000148553
-1.81516e-07
0.000148728
-1.73578e-07
0.000148896
-1.6609e-07
0.000149057
-1.59101e-07
0.000149212
-1.5268e-07
0.000149361
-1.4692e-07
0.000149505
-1.41957e-07
0.000149645
-1.37966e-07
0.000149783
-1.35185e-07
0.000149919
-1.33936e-07
0.000150056
-1.34588e-07
0.000150196
-1.37594e-07
0.000150342
-1.43446e-07
0.000150497
-1.5261e-07
0.000150666
-1.65456e-07
0.000150851
-1.82154e-07
0.000151057
-2.0257e-07
0.000151287
-2.26331e-07
0.000151544
-2.53007e-07
0.000151831
-2.81994e-07
0.000152148
-3.12023e-07
-3.3561e-07
4.95023e-05
1.12591e-06
4.9499e-05
2.40213e-07
5.08859e-05
-2.59676e-06
5.33618e-05
-4.88372e-06
5.6486e-05
-6.29273e-06
5.99321e-05
-7.03159e-06
6.34784e-05
-7.30098e-06
6.6986e-05
-7.26709e-06
7.03763e-05
-7.05474e-06
7.36111e-05
-6.75062e-06
7.66778e-05
-6.41074e-06
7.95782e-05
-6.06868e-06
8.23219e-05
-5.74263e-06
8.49215e-05
-5.44092e-06
8.73903e-05
-5.16591e-06
8.9741e-05
-4.91667e-06
9.19846e-05
-4.69068e-06
9.41307e-05
-4.48481e-06
9.61873e-05
-4.29596e-06
9.81611e-05
-4.12128e-06
0.000100058
-3.95837e-06
0.000101881
-3.80524e-06
0.000103636
-3.6603e-06
0.000105325
-3.52232e-06
0.000106951
-3.39034e-06
0.000108516
-3.26364e-06
0.000110023
-3.14167e-06
0.000111474
-3.02403e-06
0.000112871
-2.91041e-06
0.000114215
-2.80059e-06
0.000115508
-2.69437e-06
0.000116752
-2.59161e-06
0.000117949
-2.49222e-06
0.000119099
-2.39609e-06
0.000120204
-2.30316e-06
0.000121267
-2.21334e-06
0.000122288
-2.12655e-06
0.000123269
-2.04273e-06
0.000124211
-1.96181e-06
0.000125115
-1.88373e-06
0.000125983
-1.80843e-06
0.000126817
-1.73583e-06
0.000127617
-1.66586e-06
0.000128384
-1.59844e-06
0.00012912
-1.53352e-06
0.000129827
-1.47101e-06
0.000130504
-1.41086e-06
0.000131154
-1.353e-06
0.000131776
-1.29735e-06
0.000132374
-1.24383e-06
0.000132946
-1.19238e-06
0.000133495
-1.14293e-06
0.000134021
-1.09542e-06
0.000134525
-1.04977e-06
0.000135008
-1.00593e-06
0.00013547
-9.63825e-07
0.000135914
-9.23394e-07
0.000136338
-8.84576e-07
0.000136745
-8.47313e-07
0.000137135
-8.11546e-07
0.000137508
-7.77217e-07
0.000137866
-7.44269e-07
0.000138208
-7.12647e-07
0.000138536
-6.82299e-07
0.00013885
-6.53176e-07
0.00013915
-6.2523e-07
0.000139438
-5.98415e-07
0.000139713
-5.72688e-07
0.000139977
-5.48003e-07
0.000140229
-5.24317e-07
0.00014047
-5.01593e-07
0.000140701
-4.79793e-07
0.000140922
-4.58885e-07
0.000141133
-4.38837e-07
0.000141336
-4.19621e-07
0.000141529
-4.01215e-07
0.000141714
-3.836e-07
0.000141891
-3.66771e-07
0.00014206
-3.50736e-07
0.000142222
-3.35515e-07
0.000142377
-3.21158e-07
0.000142526
-3.07753e-07
0.000142668
-2.95427e-07
0.000142806
-2.84351e-07
0.000142939
-2.74786e-07
0.000143068
-2.67079e-07
0.000143194
-2.61705e-07
0.00014332
-2.5928e-07
0.000143446
-2.60541e-07
0.000143574
-2.66377e-07
0.000143709
-2.77792e-07
0.000143852
-2.95786e-07
0.000144008
-3.21144e-07
0.00014418
-3.5425e-07
0.000144372
-3.94939e-07
0.000144588
-4.4261e-07
0.000144832
-4.96752e-07
0.000145107
-5.57213e-07
0.000145418
-6.23091e-07
-6.77234e-07
4.97764e-05
1.34953e-06
5.02383e-05
-2.21729e-07
5.19496e-05
-4.30804e-06
5.45137e-05
-7.44787e-06
5.74981e-05
-9.27703e-06
6.06219e-05
-1.01554e-05
6.37199e-05
-1.0399e-05