/*--------------------------------*- C++ -*----------------------------------*\
| =========                 |                                                 |
| \\      /  F ield         | OpenFOAM: The Open Source CFD Toolbox           |
|  \\    /   O peration     | Version:  2212                                  |
|   \\  /    A nd           | Website:  www.openfoam.com                      |
|    \\/     M anipulation  |                                                 |
\*---------------------------------------------------------------------------*/
FoamFile
{
    version     2.0;
    format      ascii;
    arch        "LSB;label=32;scalar=64";
    class       volVectorField;
    location    "20";
    object      U;
}
// * * * * * * * * * * * * * * * * * * * * * * * * * * * * * * * * * * * * * //

dimensions      [0 1 -1 0 0 0 0];

internalField   nonuniform List<vector> 
2000
(
(0.736691 0.118868 0)
(0.660181 0.112893 0)
(0.521222 0.0799871 0)
(0.395526 0.0587284 0)
(0.301444 0.0464582 0)
(0.224674 0.0392379 0)
(0.15815 0.0349338 0)
(0.0980798 0.0321844 0)
(0.0425198 0.0302365 0)
(-0.00965901 0.028715 0)
(-0.0591381 0.027435 0)
(-0.106355 0.0263029 0)
(-0.151609 0.0252701 0)
(-0.195112 0.0243099 0)
(-0.237022 0.0234064 0)
(-0.277459 0.0225493 0)
(-0.316517 0.0217317 0)
(-0.354267 0.0209482 0)
(-0.39077 0.0201949 0)
(-0.426072 0.0194685 0)
(-0.460213 0.0187669 0)
(-0.493227 0.0180879 0)
(-0.525142 0.01743 0)
(-0.555985 0.0167922 0)
(-0.585781 0.0161735 0)
(-0.614552 0.0155733 0)
(-0.642323 0.014991 0)
(-0.669116 0.0144263 0)
(-0.694953 0.0138787 0)
(-0.719857 0.013348 0)
(-0.743852 0.0128339 0)
(-0.766961 0.0123363 0)
(-0.789208 0.0118548 0)
(-0.810617 0.0113892 0)
(-0.831211 0.0109393 0)
(-0.851015 0.0105047 0)
(-0.870053 0.0100852 0)
(-0.888349 0.00968049 0)
(-0.905928 0.00929024 0)
(-0.922812 0.00891414 0)
(-0.939025 0.00855186 0)
(-0.95459 0.00820302 0)
(-0.96953 0.00786725 0)
(-0.983867 0.00754418 0)
(-0.997623 0.00723346 0)
(-1.01082 0.00693471 0)
(-1.02348 0.00664757 0)
(-1.03561 0.00637165 0)
(-1.04725 0.00610659 0)
(-1.05841 0.005852 0)
(-1.06911 0.00560752 0)
(-1.07936 0.00537283 0)
(-1.08918 0.00514758 0)
(-1.0986 0.00493144 0)
(-1.10762 0.00472405 0)
(-1.11627 0.00452507 0)
(-1.12455 0.00433416 0)
(-1.13248 0.00415104 0)
(-1.14009 0.00397541 0)
(-1.14736 0.00380699 0)
(-1.15434 0.0036455 0)
(-1.16101 0.00349064 0)
(-1.16741 0.00334216 0)
(-1.17353 0.00319979 0)
(-1.17939 0.00306327 0)
(-1.185 0.00293235 0)
(-1.19038 0.00280679 0)
(-1.19552 0.00268637 0)
(-1.20044 0.00257087 0)
(-1.20515 0.00246008 0)
(-1.20966 0.00235379 0)
(-1.21397 0.00225181 0)
(-1.2181 0.00215395 0)
(-1.22205 0.00206001 0)
(-1.22582 0.00196986 0)
(-1.22943 0.00188335 0)
(-1.23288 0.00180033 0)
(-1.23617 0.00172066 0)
(-1.23933 0.00164422 0)
(-1.24234 0.00157094 0)
(-1.24521 0.0015008 0)
(-1.24796 0.00143389 0)
(-1.25058 0.00137045 0)
(-1.25309 0.00131092 0)
(-1.25549 0.00125608 0)
(-1.25778 0.00120713 0)
(-1.25999 0.00116607 0)
(-1.26213 0.00113603 0)
(-1.26421 0.00112191 0)
(-1.26626 0.00113118 0)
(-1.26834 0.001175 0)
(-1.27049 0.00126901 0)
(-1.2728 0.00143305 0)
(-1.27538 0.0016862 0)
(-1.27836 0.0020154 0)
(-1.28164 0.00227169 0)
(-1.29026 0.0020625 0)
(-1.27405 -0.000499013 0)
(-1.30935 -0.0135116 0)
(-1.19574 -0.00835555 0)
(1.00654 0.213114 0)
(1.04971 0.238051 0)
(0.980249 0.202264 0)
(0.864314 0.170052 0)
(0.746848 0.14485 0)
(0.635371 0.126375 0)
(0.532686 0.11333 0)
(0.437865 0.103963 0)
(0.349856 0.0969229 0)
(0.267634 0.0913703 0)
(0.190312 0.0868006 0)
(0.117172 0.0829061 0)
(0.0476461 0.0794933 0)
(-0.0187121 0.076436 0)
(-0.082253 0.0736467 0)
(-0.143252 0.0710635 0)
(-0.201925 0.0686411 0)
(-0.258444 0.0663455 0)
(-0.312944 0.0641512 0)
(-0.365535 0.0620394 0)
(-0.416304 0.0599961 0)
(-0.465325 0.0580112 0)
(-0.512659 0.0560774 0)
(-0.558359 0.0541901 0)
(-0.602474 0.0523462 0)
(-0.645045 0.0505436 0)
(-0.686114 0.0487817 0)
(-0.72572 0.0470599 0)
(-0.763901 0.0453785 0)
(-0.800694 0.0437377 0)
(-0.836136 0.0421381 0)
(-0.870264 0.0405802 0)
(-0.903113 0.0390642 0)
(-0.934722 0.0375906 0)
(-0.965127 0.0361594 0)
(-0.994363 0.0347709 0)
(-1.02247 0.033425 0)
(-1.04948 0.0321215 0)
(-1.07543 0.0308602 0)
(-1.10035 0.0296406 0)
(-1.12429 0.0284623 0)
(-1.14726 0.0273245 0)
(-1.16932 0.0262265 0)
(-1.19049 0.0251677 0)
(-1.2108 0.0241471 0)
(-1.23028 0.0231639 0)
(-1.24897 0.0222172 0)
(-1.26689 0.021306 0)
(-1.28407 0.0204293 0)
(-1.30055 0.0195861 0)
(-1.31635 0.0187754 0)
(-1.33149 0.0179962 0)
(-1.346 0.0172475 0)
(-1.35991 0.0165284 0)
(-1.37323 0.0158377 0)
(-1.386 0.0151744 0)
(-1.39824 0.0145376 0)
(-1.40996 0.0139264 0)
(-1.42118 0.0133399 0)
(-1.43194 0.012777 0)
(-1.44224 0.012237 0)
(-1.4521 0.0117189 0)
(-1.46155 0.011222 0)
(-1.47059 0.0107452 0)
(-1.47925 0.010288 0)
(-1.48755 0.00984928 0)
(-1.49548 0.00942847 0)
(-1.50308 0.00902476 0)
(-1.51036 0.00863747 0)
(-1.51732 0.0082659 0)
(-1.52398 0.00790938 0)
(-1.53035 0.00756724 0)
(-1.53645 0.00723884 0)
(-1.54228 0.00692363 0)
(-1.54786 0.00662109 0)
(-1.5532 0.00633074 0)
(-1.5583 0.00605211 0)
(-1.56318 0.00578475 0)
(-1.56784 0.0055283 0)
(-1.5723 0.00528255 0)
(-1.57656 0.00504751 0)
(-1.58064 0.00482355 0)
(-1.58454 0.00461152 0)
(-1.58828 0.0044129 0)
(-1.59187 0.00423023 0)
(-1.59533 0.00406754 0)
(-1.59868 0.00393114 0)
(-1.60195 0.00383069 0)
(-1.60518 0.00378073 0)
(-1.60843 0.00380243 0)
(-1.61177 0.00392535 0)
(-1.6153 0.00418778 0)
(-1.61915 0.00463178 0)
(-1.62351 0.00528371 0)
(-1.62866 0.0060794 0)
(-1.63468 0.00662339 0)
(-1.64988 0.005977 0)
(-1.64282 0.00141745 0)
(-1.65282 -0.0208658 0)
(-1.71697 -0.0104004 0)
(1.03366 0.13655 0)
(1.11135 0.221813 0)
(1.12378 0.256944 0)
(1.08264 0.258731 0)
(1.01543 0.243735 0)
(0.938289 0.224674 0)
(0.861259 0.206767 0)
(0.787264 0.191342 0)
(0.717571 0.178357 0)
(0.652436 0.167427 0)
(0.591614 0.158142 0)
(0.534677 0.150152 0)
(0.481165 0.143176 0)
(0.430654 0.136996 0)
(0.382774 0.131442 0)
(0.337216 0.12638 0)
(0.293728 0.121707 0)
(0.252106 0.117343 0)
(0.212186 0.113226 0)
(0.173837 0.109307 0)
(0.136953 0.105552 0)
(0.101449 0.101934 0)
(0.067253 0.0984332 0)
(0.0343065 0.0950357 0)
(0.0025587 0.0917318 0)
(-0.0280347 0.088515 0)
(-0.0575134 0.0853809 0)
(-0.0859136 0.082327 0)
(-0.113269 0.0793517 0)
(-0.139613 0.0764544 0)
(-0.164974 0.0736346 0)
(-0.189384 0.0708921 0)
(-0.212871 0.068227 0)
(-0.235464 0.0656391 0)
(-0.25719 0.0631283 0)
(-0.278078 0.0606944 0)
(-0.298155 0.0583368 0)
(-0.317447 0.056055 0)
(-0.33598 0.0538482 0)
(-0.35378 0.0517154 0)
(-0.370872 0.0496555 0)
(-0.387282 0.0476672 0)
(-0.403033 0.0457492 0)
(-0.418149 0.0439 0)
(-0.432653 0.042118 0)
(-0.446568 0.0404018 0)
(-0.459915 0.0387494 0)
(-0.472716 0.0371593 0)
(-0.484992 0.0356295 0)
(-0.496762 0.0341584 0)
(-0.508046 0.0327441 0)
(-0.518863 0.031385 0)
(-0.529231 0.0300791 0)
(-0.539168 0.0288247 0)
(-0.54869 0.02762 0)
(-0.557815 0.0264633 0)
(-0.566558 0.0253528 0)
(-0.574934 0.024287 0)
(-0.582958 0.0232642 0)
(-0.590644 0.0222827 0)
(-0.598006 0.021341 0)
(-0.605057 0.0204376 0)
(-0.61181 0.019571 0)
(-0.618277 0.0187398 0)
(-0.624469 0.0179424 0)
(-0.630398 0.0171775 0)
(-0.636073 0.0164438 0)
(-0.641507 0.0157399 0)
(-0.646708 0.0150647 0)
(-0.651686 0.014417 0)
(-0.65645 0.0137955 0)
(-0.661009 0.0131992 0)
(-0.665371 0.012627 0)
(-0.669544 0.0120779 0)
(-0.673536 0.0115511 0)
(-0.677355 0.0110458 0)
(-0.681007 0.0105612 0)
(-0.6845 0.0100968 0)
(-0.687841 0.00965204 0)
(-0.691038 0.00922699 0)
(-0.694098 0.00882203 0)
(-0.697028 0.0084383 0)
(-0.699838 0.00807787 0)
(-0.702538 0.00774415 0)
(-0.70514 0.00744256 0)
(-0.707661 0.00718148 0)
(-0.710119 0.00697338 0)
(-0.71254 0.00683658 0)
(-0.714957 0.00679748 0)
(-0.717412 0.00689269 0)
(-0.719959 0.00717092 0)
(-0.722662 0.00769257 0)
(-0.725594 0.0085215 0)
(-0.728878 0.00969976 0)
(-0.732792 0.0111804 0)
(-0.737466 0.0126396 0)
(-0.75121 0.013412 0)
(-0.74774 0.0132283 0)
(-0.727875 0.00869944 0)
(-0.829617 0.0198963 0)
(1.02328 0.0589712 0)
(1.09336 0.157461 0)
(1.14317 0.245755 0)
(1.15696 0.285631 0)
(1.14206 0.291508 0)
(1.11036 0.281754 0)
(1.07227 0.266181 0)
(1.03193 0.249428 0)
(0.991951 0.233474 0)
(0.953737 0.219037 0)
(0.917839 0.206254 0)
(0.884361 0.195019 0)
(0.853184 0.185138 0)
(0.824099 0.176396 0)
(0.796871 0.168592 0)
(0.771278 0.16155 0)
(0.747123 0.155124 0)
(0.724236 0.149191 0)
(0.702479 0.143655 0)
(0.681737 0.13844 0)
(0.661916 0.133488 0)
(0.642943 0.128752 0)
(0.624754 0.124201 0)
(0.607299 0.119808 0)
(0.590536 0.115557 0)
(0.574428 0.111434 0)
(0.558945 0.10743 0)
(0.544058 0.10354 0)
(0.529745 0.0997589 0)
(0.515981 0.096084 0)
(0.502747 0.0925134 0)
(0.490023 0.0890457 0)
(0.477791 0.0856799 0)
(0.466034 0.0824151 0)
(0.454735 0.0792504 0)
(0.443877 0.076185 0)
(0.433446 0.0732176 0)
(0.423427 0.0703473 0)
(0.413804 0.0675726 0)
(0.404563 0.064892 0)
(0.395692 0.062304 0)
(0.387176 0.0598066 0)
(0.379002 0.0573982 0)
(0.371159 0.0550767 0)
(0.363634 0.0528401 0)
(0.356414 0.0506861 0)
(0.349488 0.0486126 0)
(0.342846 0.0466174 0)
(0.336476 0.0446981 0)
(0.330369 0.0428526 0)
(0.324513 0.0410785 0)
(0.318899 0.0393737 0)
(0.313518 0.0377356 0)
(0.30836 0.0361622 0)
(0.303417 0.0346511 0)
(0.29868 0.0332002 0)
(0.294141 0.0318074 0)
(0.289792 0.0304707 0)
(0.285625 0.0291878 0)
(0.281634 0.0279568 0)
(0.27781 0.0267757 0)
(0.274147 0.0256426 0)
(0.270639 0.0245556 0)
(0.26728 0.0235129 0)
(0.264063 0.0225128 0)
(0.260982 0.0215534 0)
(0.258033 0.0206331 0)
(0.255209 0.0197504 0)
(0.252506 0.0189036 0)
(0.249918 0.0180912 0)
(0.247441 0.0173119 0)
(0.24507 0.0165641 0)
(0.242801 0.0158467 0)
(0.24063 0.0151584 0)
(0.238553 0.0144983 0)
(0.236565 0.0138654 0)
(0.234663 0.0132587 0)
(0.232842 0.0126778 0)
(0.231099 0.0121222 0)
(0.22943 0.0115923 0)
(0.227829 0.011089 0)
(0.226292 0.010614 0)
(0.224814 0.0101705 0)
(0.223387 0.00976363 0)
(0.222004 0.00940091 0)
(0.220653 0.00909377 0)
(0.219322 0.00885864 0)
(0.217996 0.0087189 0)
(0.216656 0.00870684 0)
(0.215279 0.00886536 0)
(0.213841 0.00924892 0)
(0.212319 0.00992138 0)
(0.210693 0.0109464 0)
(0.208902 0.0123648 0)
(0.206719 0.0141492 0)
(0.204051 0.0161367 0)
(0.19301 0.0180705 0)
(0.200935 0.0203493 0)
(0.230736 0.0249268 0)
(0.152341 0.0338088 0)
(1.01089 0.00981265 0)
(1.0611 0.0925526 0)
(1.11691 0.202169 0)
(1.15884 0.266998 0)
(1.18097 0.292284 0)
(1.18766 0.295119 0)
(1.18622 0.286449 0)
(1.17965 0.272681 0)
(1.17046 0.257329 0)
(1.16037 0.242194 0)
(1.15037 0.2281 0)
(1.14094 0.215342 0)
(1.13231 0.203941 0)
(1.12451 0.193787 0)
(1.1175 0.184719 0)
(1.11121 0.176568 0)
(1.10554 0.169173 0)
(1.10041 0.162396 0)
(1.09574 0.15612 0)
(1.09145 0.15025 0)
(1.08751 0.144713 0)
(1.08385 0.13945 0)
(1.08043 0.134418 0)
(1.07724 0.129582 0)
(1.07424 0.124918 0)
(1.07141 0.120409 0)
(1.06874 0.116041 0)
(1.06621 0.111806 0)
(1.06381 0.107697 0)
(1.06152 0.103709 0)
(1.05934 0.0998381 0)
(1.05727 0.0960828 0)
(1.05529 0.092441 0)
(1.05339 0.0889108 0)
(1.05158 0.0854908 0)
(1.04985 0.0821796 0)
(1.0482 0.0789757 0)
(1.04661 0.0758775 0)
(1.04509 0.0728834 0)
(1.04364 0.0699914 0)
(1.04224 0.0671997 0)
(1.0409 0.0645063 0)
(1.03962 0.061909 0)
(1.03839 0.0594058 0)
(1.03721 0.0569941 0)
(1.03608 0.0546717 0)
(1.035 0.0524361 0)
(1.03396 0.0502849 0)
(1.03296 0.0482157 0)
(1.03201 0.046226 0)
(1.03109 0.0443134 0)
(1.03021 0.0424752 0)
(1.02937 0.040709 0)
(1.02856 0.0390124 0)
(1.02778 0.0373831 0)
(1.02704 0.0358186 0)
(1.02633 0.0343168 0)
(1.02564 0.0328753 0)
(1.02499 0.0314919 0)
(1.02436 0.0301644 0)
(1.02376 0.0288907 0)
(1.02318 0.0276687 0)
(1.02263 0.0264964 0)
(1.0221 0.0253719 0)
(1.02159 0.0242931 0)
(1.0211 0.0232584 0)
(1.02064 0.0222659 0)
(1.02019 0.0213138 0)
(1.01976 0.0204006 0)
(1.01935 0.0195245 0)
(1.01896 0.018684 0)
(1.01858 0.0178776 0)
(1.01822 0.0171041 0)
(1.01787 0.0163622 0)
(1.01754 0.0156508 0)
(1.01722 0.0149688 0)
(1.01692 0.0143155 0)
(1.01662 0.0136903 0)
(1.01634 0.0130931 0)
(1.01606 0.0125244 0)
(1.01579 0.0119856 0)
(1.01553 0.0114788 0)
(1.01528 0.011008 0)
(1.01502 0.0105792 0)
(1.01477 0.0102011 0)
(1.0145 0.00988652 0)
(1.01423 0.00965345 0)
(1.01394 0.00952667 0)
(1.01363 0.00953927 0)
(1.0133 0.00973378 0)
(1.01295 0.0101618 0)
(1.01258 0.0108811 0)
(1.01222 0.0119465 0)
(1.01184 0.0133928 0)
(1.01127 0.0152094 0)
(1.01048 0.0173254 0)
(1.0019 0.0197003 0)
(1.01359 0.0227116 0)
(1.04923 0.0276093 0)
(0.978477 0.0338807 0)
(1.00159 -0.016453 0)
(1.03139 0.0435657 0)
(1.07872 0.151729 0)
(1.13043 0.22564 0)
(1.17416 0.262485 0)
(1.2082 0.275379 0)
(1.23613 0.274057 0)
(1.25873 0.265072 0)
(1.27744 0.252538 0)
(1.29354 0.238882 0)
(1.30797 0.225431 0)
(1.32132 0.212837 0)
(1.33397 0.20135 0)
(1.34616 0.191005 0)
(1.358 0.18172 0)
(1.36956 0.173366 0)
(1.38087 0.165804 0)
(1.39193 0.158901 0)
(1.40275 0.152538 0)
(1.41331 0.146619 0)
(1.42362 0.141063 0)
(1.43366 0.135808 0)
(1.44343 0.130803 0)
(1.45292 0.126013 0)
(1.46213 0.121408 0)
(1.47106 0.116968 0)
(1.47971 0.112678 0)
(1.48809 0.108527 0)
(1.49618 0.104505 0)
(1.504 0.100609 0)
(1.51155 0.0968316 0)
(1.51884 0.0931713 0)
(1.52586 0.0896247 0)
(1.53263 0.0861897 0)
(1.53915 0.0828643 0)
(1.54543 0.0796465 0)
(1.55146 0.0765347 0)
(1.55727 0.0735269 0)
(1.56285 0.0706212 0)
(1.56822 0.0678155 0)
(1.57337 0.0651079 0)
(1.57832 0.0624963 0)
(1.58308 0.0599785 0)
(1.58764 0.0575522 0)
(1.59202 0.055215 0)
(1.59622 0.0529645 0)
(1.60025 0.0507983 0)
(1.60412 0.0487142 0)
(1.60783 0.0467096 0)
(1.61138 0.0447822 0)
(1.61479 0.0429295 0)
(1.61806 0.041149 0)
(1.62119 0.0394382 0)
(1.62419 0.0377949 0)
(1.62706 0.0362168 0)
(1.62981 0.0347016 0)
(1.63245 0.033247 0)
(1.63498 0.0318509 0)
(1.6374 0.030511 0)
(1.63972 0.0292253 0)
(1.64194 0.0279917 0)
(1.64407 0.0268082 0)
(1.6461 0.0256728 0)
(1.64805 0.0245837 0)
(1.64992 0.023539 0)
(1.6517 0.0225369 0)
(1.65341 0.0215757 0)
(1.65505 0.0206537 0)
(1.65661 0.0197692 0)
(1.65811 0.0189208 0)
(1.65954 0.018107 0)
(1.66091 0.0173263 0)
(1.66222 0.0165775 0)
(1.66347 0.0158594 0)
(1.66467 0.0151709 0)
(1.66582 0.014511 0)
(1.66691 0.0138792 0)
(1.66795 0.013275 0)
(1.66895 0.0126984 0)
(1.6699 0.0121501 0)
(1.6708 0.0116316 0)
(1.67167 0.0111454 0)
(1.67249 0.0106957 0)
(1.67327 0.0102885 0)
(1.67402 0.00993278 0)
(1.67472 0.00964106 0)
(1.6754 0.00943084 0)
(1.67605 0.00932545 0)
(1.67668 0.0093552 0)
(1.6773 0.00955803 0)
(1.67794 0.00997813 0)
(1.67863 0.010663 0)
(1.6794 0.0116561 0)
(1.68028 0.0129842 0)
(1.68111 0.014645 0)
(1.68194 0.016609 0)
(1.67536 0.0188876 0)
(1.68972 0.0217192 0)
(1.72851 0.0256442 0)
(1.6613 0.0297517 0)
(0.995322 -0.0268093 0)
(1.00839 0.0125299 0)
(1.0429 0.105486 0)
(1.09441 0.175094 0)
(1.14854 0.214344 0)
(1.1998 0.232147 0)
(1.24878 0.236008 0)
(1.29401 0.23154 0)
(1.3355 0.222612 0)
(1.37371 0.211716 0)
(1.40918 0.200352 0)
(1.44237 0.189346 0)
(1.47365 0.179099 0)
(1.50333 0.169754 0)
(1.53163 0.161309 0)
(1.55872 0.15369 0)
(1.58474 0.146791 0)
(1.60977 0.140504 0)
(1.63389 0.134726 0)
(1.65716 0.129368 0)
(1.67962 0.124357 0)
(1.7013 0.119633 0)
(1.72224 0.115149 0)
(1.74246 0.110869 0)
(1.76198 0.106765 0)
(1.78082 0.102818 0)
(1.79899 0.0990108 0)
(1.81653 0.0953326 0)
(1.83343 0.0917751 0)
(1.84972 0.0883319 0)
(1.86542 0.0849983 0)
(1.88053 0.0817706 0)
(1.89509 0.0786458 0)
(1.90909 0.0756215 0)
(1.92256 0.0726953 0)
(1.93552 0.0698655 0)
(1.94798 0.0671301 0)
(1.95995 0.0644872 0)
(1.97146 0.0619349 0)
(1.98251 0.0594711 0)
(1.99312 0.0570942 0)
(2.00331 0.0548021 0)
(2.01309 0.0525927 0)
(2.02248 0.0504639 0)
(2.03149 0.0484136 0)
(2.04013 0.0464395 0)
(2.04842 0.0445397 0)
(2.05637 0.042712 0)
(2.064 0.0409543 0)
(2.07131 0.0392643 0)
(2.07832 0.0376398 0)
(2.08504 0.0360786 0)
(2.09147 0.0345788 0)
(2.09765 0.0331382 0)
(2.10356 0.0317548 0)
(2.10923 0.0304265 0)
(2.11465 0.0291515 0)
(2.11986 0.0279276 0)
(2.12484 0.0267531 0)
(2.12961 0.0256262 0)
(2.13418 0.0245449 0)
(2.13856 0.0235076 0)
(2.14275 0.0225125 0)
(2.14676 0.0215579 0)
(2.1506 0.0206423 0)
(2.15428 0.019764 0)
(2.1578 0.0189217 0)
(2.16117 0.0181137 0)
(2.1644 0.0173386 0)
(2.16749 0.0165952 0)
(2.17044 0.0158821 0)
(2.17326 0.0151982 0)
(2.17597 0.0145422 0)
(2.17855 0.0139132 0)
(2.18102 0.0133103 0)
(2.18339 0.0127325 0)
(2.18565 0.0121795 0)
(2.18781 0.0116509 0)
(2.18987 0.0111468 0)
(2.19184 0.0106681 0)
(2.19373 0.0102162 0)
(2.19553 0.00979353 0)
(2.19725 0.00940382 0)
(2.19891 0.00905267 0)
(2.20049 0.00874805 0)
(2.20202 0.00850113 0)
(2.2035 0.00832712 0)
(2.20495 0.00824586 0)
(2.20638 0.00828254 0)
(2.20782 0.00846791 0)
(2.20931 0.00883672 0)
(2.21089 0.00942491 0)
(2.21263 0.010264 0)
(2.21455 0.0113721 0)
(2.21651 0.0127471 0)
(2.2186 0.0143715 0)
(2.2135 0.0162493 0)
(2.22958 0.0184742 0)
(2.27001 0.021217 0)
(2.20434 0.0237577 0)
(0.991316 -0.0261574 0)
(0.992173 -0.00273508 0)
(1.01472 0.0673212 0)
(1.06211 0.123003 0)
(1.12001 0.156744 0)
(1.18101 0.173994 0)
(1.2437 0.179859 0)
(1.30486 0.178479 0)
(1.3632 0.172908 0)
(1.41831 0.165236 0)
(1.47021 0.156796 0)
(1.51908 0.148373 0)
(1.5652 0.140385 0)
(1.60886 0.133017 0)
(1.65032 0.126314 0)
(1.68982 0.120245 0)
(1.72755 0.114744 0)
(1.76369 0.109733 0)
(1.79836 0.105134 0)
(1.83168 0.100878 0)
(1.86373 0.0969067 0)
(1.89458 0.0931715 0)
(1.92429 0.0896342 0)
(1.95292 0.0862649 0)
(1.98051 0.0830405 0)
(2.00709 0.0799436 0)
(2.0327 0.0769612 0)
(2.05738 0.0740835 0)
(2.08114 0.0713032 0)
(2.10403 0.0686149 0)
(2.12606 0.0660144 0)
(2.14726 0.0634982 0)
(2.16766 0.0610638 0)
(2.18728 0.0587089 0)
(2.20615 0.0564316 0)
(2.22429 0.0542303 0)
(2.24172 0.0521032 0)
(2.25847 0.0500486 0)
(2.27456 0.048065 0)
(2.29001 0.0461508 0)
(2.30485 0.0443044 0)
(2.3191 0.0425243 0)
(2.33277 0.0408087 0)
(2.34589 0.0391558 0)
(2.35848 0.0375641 0)
(2.37056 0.0360318 0)
(2.38215 0.0345573 0)
(2.39326 0.0331389 0)
(2.40391 0.0317748 0)
(2.41413 0.0304634 0)
(2.42392 0.0292028 0)
(2.43331 0.0279916 0)
(2.44231 0.026828 0)
(2.45093 0.0257104 0)
(2.45919 0.0246373 0)
(2.46711 0.023607 0)
(2.4747 0.022618 0)
(2.48197 0.0216687 0)
(2.48893 0.0207577 0)
(2.4956 0.0198837 0)
(2.50199 0.0190452 0)
(2.50811 0.0182408 0)
(2.51396 0.0174691 0)
(2.51957 0.016729 0)
(2.52495 0.0160191 0)
(2.53009 0.0153382 0)
(2.53501 0.0146851 0)
(2.53972 0.0140587 0)
(2.54423 0.013458 0)
(2.54855 0.0128818 0)
(2.55268 0.0123291 0)
(2.55663 0.0117991 0)
(2.56041 0.0112908 0)
(2.56402 0.0108035 0)
(2.56748 0.0103364 0)
(2.57079 0.00988887 0)
(2.57395 0.00946055 0)
(2.57698 0.00905132 0)
(2.57987 0.0086614 0)
(2.58263 0.00829145 0)
(2.58528 0.00794266 0)
(2.58781 0.00761703 0)
(2.59024 0.00731759 0)
(2.59257 0.00704873 0)
(2.59481 0.00681676 0)
(2.59698 0.0066304 0)
(2.59909 0.00650128 0)
(2.60116 0.00644443 0)
(2.60323 0.0064785 0)
(2.60531 0.00662579 0)
(2.60747 0.00691114 0)
(2.60975 0.00735898 0)
(2.61224 0.00798984 0)
(2.61494 0.00881439 0)
(2.61775 0.009829 0)
(2.62075 0.0110191 0)
(2.61663 0.0123755 0)
(2.63377 0.0139113 0)
(2.67502 0.0156394 0)
(2.60997 0.0171113 0)
(0.988941 -0.0183572 0)
(0.981948 -0.0063339 0)
(0.995768 0.0368738 0)
(1.0388 0.0724903 0)
(1.09737 0.0949902 0)
(1.16325 0.10723 0)
(1.23391 0.112117 0)
(1.305 0.112143 0)
(1.37428 0.109232 0)
(1.44067 0.104755 0)
(1.50372 0.0996151 0)
(1.56337 0.0943681 0)
(1.61976 0.0893235 0)
(1.67313 0.0846298 0)
(1.72376 0.0803372 0)
(1.77189 0.0764396 0)
(1.81779 0.0729025 0)
(1.86164 0.0696798 0)
(1.90363 0.0667242 0)
(1.9439 0.0639921 0)
(1.98258 0.0614461 0)
(2.01976 0.0590549 0)
(2.05552 0.0567936 0)
(2.08994 0.0546424 0)
(2.12308 0.0525863 0)
(2.15498 0.0506136 0)
(2.1857 0.0487156 0)
(2.21527 0.0468857 0)
(2.24374 0.0451192 0)
(2.27114 0.0434123 0)
(2.2975 0.0417619 0)
(2.32286 0.0401659 0)
(2.34726 0.0386223 0)
(2.37072 0.0371297 0)
(2.39327 0.0356869 0)
(2.41494 0.0342926 0)
(2.43577 0.0329456 0)
(2.45578 0.0316447 0)
(2.475 0.030389 0)
(2.49346 0.0291775 0)
(2.51118 0.0280093 0)
(2.52819 0.026883 0)
(2.54452 0.0257976 0)
(2.56018 0.024752 0)
(2.57522 0.0237452 0)
(2.58963 0.0227761 0)
(2.60347 0.0218438 0)
(2.61673 0.0209469 0)
(2.62945 0.0200844 0)
(2.64164 0.0192552 0)
(2.65334 0.0184583 0)
(2.66454 0.0176926 0)
(2.67528 0.0169572 0)
(2.68558 0.016251 0)
(2.69544 0.0155729 0)
(2.7049 0.0149219 0)
(2.71395 0.0142969 0)
(2.72263 0.0136972 0)
(2.73094 0.0131218 0)
(2.73891 0.0125697 0)
(2.74653 0.0120402 0)
(2.75384 0.0115323 0)
(2.76083 0.0110451 0)
(2.76753 0.0105779 0)
(2.77394 0.0101298 0)
(2.78008 0.0097001 0)
(2.78596 0.00928803 0)
(2.79158 0.00889286 0)
(2.79697 0.00851389 0)
(2.80212 0.00815045 0)
(2.80705 0.00780194 0)
(2.81177 0.00746775 0)
(2.81629 0.00714731 0)
(2.82061 0.00684009 0)
(2.82474 0.0065456 0)
(2.82869 0.00626347 0)
(2.83246 0.00599346 0)
(2.83608 0.00573557 0)
(2.83953 0.00549001 0)
(2.84284 0.00525721 0)
(2.846 0.00503794 0)
(2.84904 0.00483351 0)
(2.85194 0.00464589 0)
(2.85474 0.00447787 0)
(2.85743 0.00433351 0)
(2.86004 0.00421828 0)
(2.86258 0.0041394 0)
(2.86509 0.00410636 0)
(2.86759 0.00413054 0)
(2.87012 0.00422538 0)
(2.87274 0.00440574 0)
(2.8755 0.00468562 0)
(2.87849 0.00507617 0)
(2.88172 0.00558269 0)
(2.88508 0.00620179 0)
(2.88867 0.00692276 0)
(2.88515 0.00773347 0)
(2.90288 0.00862075 0)
(2.94452 0.0095574 0)
(2.87969 0.0103094 0)
(0.987835 -0.00654953 0)
(0.977019 -0.00289272 0)
(0.986311 0.011678 0)
(1.02674 0.0238991 0)
(1.08511 0.0317699 0)
(1.15294 0.0361709 0)
(1.22721 0.038039 0)
(1.30301 0.0382022 0)
(1.37764 0.037315 0)
(1.44964 0.035852 0)
(1.51832 0.0341322 0)
(1.58344 0.0323546 0)
(1.64507 0.0306328 0)
(1.70341 0.0290234 0)
(1.75873 0.0275475 0)
(1.8113 0.0262053 0)
(1.86137 0.0249862 0)
(1.90918 0.0238752 0)
(1.95492 0.0228566 0)
(1.99875 0.0219156 0)
(2.04081 0.0210391 0)
(2.08123 0.0202165 0)
(2.12008 0.019439 0)
(2.15745 0.0186999 0)
(2.19341 0.0179939 0)
(2.22802 0.0173168 0)
(2.26134 0.0166656 0)
(2.2934 0.0160381 0)
(2.32426 0.0154325 0)
(2.35395 0.0148475 0)
(2.38251 0.014282 0)
(2.40999 0.0137351 0)
(2.43641 0.0132063 0)
(2.46182 0.0126952 0)
(2.48624 0.0122012 0)
(2.50971 0.0117238 0)
(2.53226 0.0112625 0)
(2.55393 0.010817 0)
(2.57473 0.010387 0)
(2.59471 0.00997237 0)
(2.61389 0.00957252 0)
(2.6323 0.00918703 0)
(2.64997 0.00881548 0)
(2.66693 0.00845757 0)
(2.6832 0.00811304 0)
(2.6988 0.00778155 0)
(2.71377 0.00746267 0)
(2.72813 0.00715593 0)
(2.74189 0.00686094 0)
(2.75509 0.00657736 0)
(2.76774 0.00630494 0)
(2.77987 0.00604336 0)
(2.7915 0.00579227 0)
(2.80264 0.00555125 0)
(2.81331 0.00531988 0)
(2.82354 0.00509781 0)
(2.83334 0.00488472 0)
(2.84273 0.00468033 0)
(2.85173 0.00448434 0)
(2.86035 0.00429644 0)
(2.8686 0.00411632 0)
(2.87651 0.00394367 0)
(2.88407 0.00377818 0)
(2.89132 0.00361957 0)
(2.89826 0.00346758 0)
(2.90491 0.00332194 0)
(2.91127 0.00318237 0)
(2.91736 0.0030486 0)
(2.92319 0.0029204 0)
(2.92877 0.00279753 0)
(2.9341 0.00267978 0)
(2.93921 0.00256694 0)
(2.9441 0.00245877 0)
(2.94877 0.00235506 0)
(2.95325 0.00225561 0)
(2.95752 0.0021603 0)
(2.96161 0.00206906 0)
(2.96553 0.00198197 0)
(2.96927 0.00189911 0)
(2.97285 0.00182064 0)
(2.97628 0.00174682 0)
(2.97956 0.00167812 0)
(2.98271 0.00161521 0)
(2.98574 0.00155904 0)
(2.98867 0.001511 0)
(2.9915 0.00147292 0)
(2.99427 0.00144729 0)
(2.997 0.00143752 0)
(2.99972 0.00144746 0)
(3.00248 0.00148147 0)
(3.00533 0.00154452 0)
(3.00833 0.00164139 0)
(3.01157 0.00177555 0)
(3.01507 0.0019486 0)
(3.01871 0.00215916 0)
(3.02258 0.00240333 0)
(3.01935 0.00267602 0)
(3.03734 0.00296968 0)
(3.07914 0.00327004 0)
(3.01436 0.00350345 0)
(0.987835 0.00655016 0)
(0.977019 0.00289296 0)
(0.986311 -0.0116784 0)
(1.02674 -0.0239 0)
(1.08511 -0.0317711 0)
(1.15294 -0.0361724 0)
(1.22721 -0.038041 0)
(1.30301 -0.0382047 0)
(1.37764 -0.0373177 0)
(1.44964 -0.0358547 0)
(1.51832 -0.0341349 0)
(1.58344 -0.0323575 0)
(1.64507 -0.0306358 0)
(1.70341 -0.0290264 0)
(1.75873 -0.0275504 0)
(1.8113 -0.026208 0)
(1.86137 -0.0249888 0)
(1.90918 -0.0238777 0)
(1.95492 -0.0228588 0)
(1.99875 -0.0219175 0)
(2.04081 -0.0210409 0)
(2.08123 -0.0202181 0)
(2.12008 -0.0194406 0)
(2.15745 -0.0187014 0)
(2.19341 -0.0179954 0)
(2.22802 -0.0173184 0)
(2.26134 -0.0166674 0)
(2.2934 -0.0160401 0)
(2.32425 -0.0154348 0)
(2.35395 -0.0148502 0)
(2.38251 -0.0142852 0)
(2.40999 -0.0137391 0)
(2.43641 -0.013211 0)
(2.46182 -0.0127005 0)
(2.48624 -0.0122071 0)
(2.50971 -0.0117306 0)
(2.53226 -0.0112705 0)
(2.55392 -0.0108262 0)
(2.57473 -0.0103973 0)
(2.59471 -0.00998353 0)
(2.61389 -0.00958451 0)
(2.6323 -0.00919997 0)
(2.64997 -0.00882948 0)
(2.66693 -0.00847255 0)
(2.6832 -0.00812873 0)
(2.6988 -0.00779766 0)
(2.71377 -0.00747905 0)
(2.72812 -0.00717258 0)
(2.74189 -0.00687787 0)
(2.75509 -0.00659444 0)
(2.76774 -0.00632184 0)
(2.77987 -0.00605967 0)
(2.79149 -0.0058076 0)
(2.80263 -0.00556535 0)
(2.81331 -0.00533261 0)
(2.82354 -0.00510904 0)
(2.83334 -0.00489427 0)
(2.84273 -0.00468795 0)
(2.85173 -0.00448975 0)
(2.86034 -0.00429938 0)
(2.8686 -0.00411653 0)
(2.8765 -0.00394093 0)
(2.88407 -0.00377226 0)
(2.89132 -0.00361027 0)
(2.89826 -0.00345467 0)
(2.90491 -0.00330523 0)
(2.91127 -0.00316174 0)
(2.91736 -0.00302398 0)
(2.92319 -0.00289173 0)
(2.92876 -0.00276474 0)
(2.9341 -0.00264282 0)
(2.93921 -0.00252581 0)
(2.9441 -0.00241355 0)
(2.94877 -0.00230594 0)
(2.95325 -0.00220286 0)
(2.95753 -0.00210418 0)
(2.96162 -0.00200977 0)
(2.96553 -0.00191957 0)
(2.96927 -0.00183362 0)
(2.97286 -0.00175204 0)
(2.97628 -0.00167508 0)
(2.97957 -0.00160323 0)
(2.98272 -0.0015372 0)
(2.98575 -0.00147798 0)
(2.98868 -0.00142696 0)
(2.99152 -0.00138593 0)
(2.99428 -0.00135725 0)
(2.99701 -0.00134403 0)
(2.99974 -0.00134993 0)
(3.0025 -0.00137955 0)
(3.00535 -0.00143766 0)
(3.00836 -0.00152855 0)
(3.0116 -0.00165571 0)
(3.0151 -0.00182059 0)
(3.01874 -0.00202162 0)
(3.02261 -0.00225455 0)
(3.01938 -0.00251381 0)
(3.03738 -0.00279132 0)
(3.07918 -0.00307332 0)
(3.01441 -0.00329306 0)
(0.988941 0.0183576 0)
(0.981948 0.00633415 0)
(0.995768 -0.0368741 0)
(1.0388 -0.0724911 0)
(1.09737 -0.0949915 0)
(1.16325 -0.107232 0)
(1.23391 -0.112119 0)
(1.305 -0.112145 0)
(1.37428 -0.109235 0)
(1.44067 -0.104758 0)
(1.50372 -0.0996181 0)
(1.56337 -0.0943711 0)
(1.61976 -0.0893263 0)
(1.67313 -0.0846327 0)
(1.72376 -0.0803402 0)
(1.77189 -0.0764426 0)
(1.81778 -0.0729052 0)
(1.86164 -0.0696822 0)
(1.90363 -0.0667265 0)
(1.9439 -0.0639943 0)
(1.98258 -0.0614481 0)
(2.01976 -0.0590568 0)
(2.05552 -0.0567953 0)
(2.08994 -0.054644 0)
(2.12308 -0.0525879 0)
(2.15498 -0.0506152 0)
(2.1857 -0.0487173 0)
(2.21527 -0.0468877 0)
(2.24374 -0.0451216 0)
(2.27113 -0.043415 0)
(2.2975 -0.0417652 0)
(2.32286 -0.0401696 0)
(2.34726 -0.0386267 0)
(2.37071 -0.0371348 0)
(2.39327 -0.0356929 0)
(2.41494 -0.0342995 0)
(2.43577 -0.0329535 0)
(2.45578 -0.0316537 0)
(2.475 -0.030399 0)
(2.49345 -0.0291885 0)
(2.51118 -0.0280211 0)
(2.52819 -0.0268958 0)
(2.54451 -0.0258113 0)
(2.56018 -0.0247666 0)
(2.57521 -0.0237604 0)
(2.58963 -0.0227919 0)
(2.60346 -0.0218598 0)
(2.61672 -0.0209632 0)
(2.62944 -0.0201009 0)
(2.64163 -0.0192717 0)
(2.65333 -0.0184746 0)
(2.66453 -0.0177084 0)
(2.67527 -0.0169721 0)
(2.68557 -0.0162647 0)
(2.69543 -0.0155853 0)
(2.70488 -0.0149328 0)
(2.71394 -0.0143062 0)
(2.72262 -0.0137046 0)
(2.73093 -0.013127 0)
(2.73889 -0.0125726 0)
(2.74652 -0.0120405 0)
(2.75382 -0.0115297 0)
(2.76082 -0.0110394 0)
(2.76751 -0.0105689 0)
(2.77393 -0.0101173 0)
(2.78007 -0.00968391 0)
(2.78595 -0.00926804 0)
(2.79157 -0.00886899 0)
(2.79696 -0.0084861 0)
(2.80211 -0.00811869 0)
(2.80705 -0.00776616 0)
(2.81177 -0.00742797 0)
(2.81628 -0.00710361 0)
(2.82061 -0.00679262 0)
(2.82474 -0.00649459 0)
(2.82869 -0.00620916 0)
(2.83247 -0.00593603 0)
(2.83609 -0.00567513 0)
(2.83955 -0.00542661 0)
(2.84286 -0.00519081 0)
(2.84603 -0.00496849 0)
(2.84906 -0.00476106 0)
(2.85197 -0.00457054 0)
(2.85477 -0.00439968 0)
(2.85747 -0.0042525 0)
(2.86008 -0.00413435 0)
(2.86263 -0.00405245 0)
(2.86514 -0.00401622 0)
(2.86764 -0.00403674 0)
(2.87018 -0.00412728 0)
(2.8728 -0.00430253 0)
(2.87557 -0.00457664 0)
(2.87856 -0.0049606 0)
(2.8818 -0.00545927 0)
(2.88517 -0.00606901 0)
(2.88876 -0.00677883 0)
(2.88526 -0.00757631 0)
(2.90299 -0.00844777 0)
(2.94464 -0.00936627 0)
(2.87982 -0.0101046 0)
(0.991316 0.0261577 0)
(0.992173 0.00273517 0)
(1.01472 -0.0673215 0)
(1.06211 -0.123004 0)
(1.12001 -0.156746 0)
(1.18101 -0.173995 0)
(1.2437 -0.179861 0)
(1.30486 -0.178481 0)
(1.3632 -0.17291 0)
(1.41831 -0.165239 0)
(1.47021 -0.156799 0)
(1.51908 -0.148376 0)
(1.5652 -0.140388 0)
(1.60886 -0.13302 0)
(1.65032 -0.126317 0)
(1.68982 -0.120248 0)
(1.72755 -0.114746 0)
(1.76369 -0.109735 0)
(1.79836 -0.105136 0)
(1.83168 -0.10088 0)
(1.86373 -0.0969085 0)
(1.89458 -0.0931732 0)
(1.92429 -0.0896358 0)
(1.95292 -0.0862663 0)
(1.98051 -0.0830417 0)
(2.00709 -0.0799447 0)
(2.0327 -0.0769624 0)
(2.05738 -0.074085 0)
(2.08114 -0.0713052 0)
(2.10402 -0.0686173 0)
(2.12605 -0.0660172 0)
(2.14726 -0.0635015 0)
(2.16765 -0.0610677 0)
(2.18727 -0.0587136 0)
(2.20614 -0.0564373 0)
(2.22428 -0.0542369 0)
(2.24171 -0.0521107 0)
(2.25846 -0.0500571 0)
(2.27455 -0.0480744 0)
(2.29 -0.0461612 0)
(2.30484 -0.0443159 0)
(2.31909 -0.0425366 0)
(2.33276 -0.0408218 0)
(2.34588 -0.0391697 0)
(2.35847 -0.0375785 0)
(2.37055 -0.0360467 0)
(2.38213 -0.0345726 0)
(2.39324 -0.0331545 0)
(2.4039 -0.0317905 0)
(2.41411 -0.030479 0)
(2.4239 -0.0292181 0)
(2.43329 -0.0280063 0)
(2.44229 -0.026842 0)
(2.45091 -0.0257235 0)
(2.45917 -0.0246491 0)
(2.46709 -0.0236174 0)
(2.47468 -0.0226268 0)
(2.48195 -0.0216757 0)
(2.48891 -0.0207628 0)
(2.49558 -0.0198866 0)
(2.50197 -0.0190456 0)
(2.50808 -0.0182385 0)
(2.51394 -0.017464 0)
(2.51955 -0.0167207 0)
(2.52493 -0.0160074 0)
(2.53007 -0.015323 0)
(2.53499 -0.0146664 0)
(2.53971 -0.0140364 0)
(2.54422 -0.0134319 0)
(2.54854 -0.012852 0)
(2.55267 -0.0122957 0)
(2.55662 -0.011762 0)
(2.56041 -0.0112501 0)
(2.56403 -0.0107593 0)
(2.56749 -0.0102888 0)
(2.5708 -0.0098381 0)
(2.57397 -0.00940679 0)
(2.57699 -0.00899469 0)
(2.57989 -0.00860199 0)
(2.58266 -0.00822927 0)
(2.58531 -0.00787772 0)
(2.58785 -0.00754944 0)
(2.59028 -0.00724744 0)
(2.59262 -0.00697598 0)
(2.59487 -0.00674144 0)
(2.59704 -0.00655246 0)
(2.59916 -0.00642051 0)
(2.60124 -0.00636062 0)
(2.60332 -0.0063913 0)