/*--------------------------------*- C++ -*----------------------------------*\
| =========                 |                                                 |
| \\      /  F ield         | OpenFOAM: The Open Source CFD Toolbox           |
|  \\    /   O peration     | Version:  2206                                  |
|   \\  /    A nd           | Website:  www.openfoam.com                      |
|    \\/     M anipulation  |                                                 |
\*---------------------------------------------------------------------------*/
FoamFile
{
    version     2.0;
    format      ascii;
    arch        "LSB;label=32;scalar=64";
    class       volScalarField;
    location    "120";
    object      epsilon;
}
// * * * * * * * * * * * * * * * * * * * * * * * * * * * * * * * * * * * * * //

dimensions      [0 2 -3 0 0 0 0];

internalField   nonuniform List<scalar> 
184166
(
5.83892
3.03324
2.69842
5.93387
4.14061
3.94747
2.25451
3.47931
5.96724
5.02936
5.77496
3.01217
3.07271
4.06296
4.3673
4.91662
5.25501
4.36148
2.89373
4.76476
2.81893
2.83284
3.67512
4.79852
4.57169
4.54659
4.2694
4.84029
4.46059
2.93711
4.79304
2.16881
7.75018
5.19324
5.08577
3.15329
2.90654
4.84708
3.51104
2.50526
4.51511
3.11314
4.48515
4.93302
5.11594
4.40108
2.39181
4.37575
4.57284
4.44586
2.25589
2.16398
2.42668
4.53238
4.93026
3.98042
4.68889
4.9485
5.65373
3.55731
2.8716
3.58778
5.37816
5.69528
6.3681
2.13357
2.57108
4.86931
2.20315
4.91462
2.67547
4.99696
5.00592
5.15264
3.15959
4.42328
3.73721
5.08511
3.33521
2.3473
2.29006
3.10063
5.02086
5.43969
4.71084
5.96433
3.32071
2.71902
4.02811
2.9101
2.09753
4.09385
4.81865
6.73117
4.06196
2.97603
4.95159
2.15374
2.77982
4.85042
2.9971
2.94981
4.88763
4.51816
2.12451
3.66115
4.84703
4.00902
2.15087
3.02
2.50339
5.15138
2.08197
2.6835
4.71281
4.34423
3.5157
2.68915
2.24514
2.70363
5.28392
2.95309
4.59094
4.39778
4.32084
4.06727
4.65364
4.50218
4.91148
4.73542
2.82743
4.47239
3.86276
3.98126
3.18506
3.07332
3.11736
3.79555
4.08057
2.5799
3.82162
2.24721
2.28074
2.94517
3.66169
4.82223
2.7118
4.41927
5.62062
6.57493
5.07438
5.64349
4.79104
5.11672
5.23486
6.28828
4.73732
5.52866
5.95251
2.47396
2.12454
2.37374
4.31953
3.38946
3.40636
4.62706
4.58508
4.71933
2.13791
4.64091
4.58202
3.433
3.55313
5.53678
4.43923
2.34074
2.53699
5.79743
4.96503
3.86707
2.11762
4.49598
3.99261
4.55608
4.92253
3.42075
4.61311
5.8184
2.1618
4.91649
4.21037
4.96647
3.75338
2.13681
6.34912
4.75164
4.39152
5.71724
5.92688
4.57911
5.01967
4.46367
2.16303
4.30424
2.36394
5.10537
3.10249
2.91921
3.4971
4.33564
6.61407
4.62089
3.20579
4.39285
2.91749
3.62538
4.57402
4.48589
2.2161
2.17401
2.97745
3.38777
3.6829
4.55821
2.2846
2.97802
3.0371
4.88626
4.51916
6.39218
6.61328
2.71089
3.68676
4.84531
5.03291
3.8481
5.21389
5.06935
4.93624
2.15353
2.08271
4.91333
2.93475
4.76326
2.42166
4.3748
4.41219
3.08043
5.5025
5.39991
3.99226
6.27161
4.93273
2.94442
3.90154
5.06985
4.08797
4.49141
4.56454
3.82061
4.04521
2.60139
4.8499
3.2003
4.8651
4.43766
4.72717
2.72784
4.57574
4.09459
4.43774
2.29756
3.81244
4.81886
2.97872
4.12382
2.10184
3.91621
3.37593
3.92497
2.843
8.64743
3.90683
4.54123
2.54029
3.05851
6.98963
5.60853
4.21289
5.22605
4.4845
4.25953
4.429
5.04241
5.96016
4.44167
3.96071
6.40387
4.53328
5.60649
4.41826
3.75957
2.30384
4.51976
6.21649
3.79617
4.32645
5.39989
2.59705
2.10008
4.48021
5.00057
4.76815
4.79381
5.13833
3.9816
3.89336
4.31113
4.18054
4.24126
2.91191
3.13163
3.45702
4.67093
4.34233
2.10389
4.50246
3.86786
2.79498
4.46313
5.00386
2.50293
2.43495
4.76682
2.22751
4.52245
3.96105
3.50449
4.71926
3.66439
4.17101
6.50949
6.53983
5.47691
4.90137
5.23948
2.67074
2.20257
3.42335
2.26284
2.25928
4.58356
5.5453
2.60746
2.92996
4.87819
4.75371
3.79687
4.78843
4.92212
3.38587
2.13493
4.81779
2.73136
4.74045
4.65372
2.12547
2.78074
2.69116
2.071
2.11837
5.86752
6.85495
5.12905
5.51898
5.3245
4.94018
4.41834
2.86699
4.1084
4.2803
4.34145
4.63491
4.76883
4.18548
5.07836
4.90452
3.26007
3.50801
3.58747
4.10054
4.53157
4.56569
2.12431
3.63595
2.11317
5.36318
3.77508
3.35453
4.25985
5.49375
4.21911
6.61087
5.11687
2.44099
4.1244
4.95876
4.92088
4.12372
2.95342
4.10777
3.38542
3.44107
3.20041
3.17883
2.98575
4.6874
2.58643
2.50968
2.41212
7.0324
3.72827
3.75592
3.74423
3.53738
2.12377
2.19271
2.23091
2.77498
2.70922
2.79391
2.279
7.44188
6.18181
6.97019
6.87102
5.94099
6.69683
4.64874
4.61212
4.77445
4.75482
5.40628
5.13287
5.27628
4.95159
6.78342
7.29002
4.52316
4.64867
4.36128
4.37525
4.4206
4.54401
4.1419
4.60621
4.41093
4.37087
4.44476
5.42029
5.30212
2.23733
2.16196
2.1468
2.13107
2.34443
2.09571
2.2253
4.63736
4.8473
4.9258
5.09632
5.69465
5.07136
3.74826
3.23534
3.56451
6.30461
4.9133
4.502
4.71867
4.51125
2.11302
2.06266
3.05839
3.14713
3.04975
2.93292
2.8725
2.9255
4.25468
4.21796
4.00485
4.15712
3.93077
5.16683
4.95833
4.94045
5.07035
5.27083
5.10677
5.08627
5.31776
4.69138
4.71278
4.58475
5.26775
4.71995
2.88656
4.88212
5.59678
2.07147
2.12306
2.07319
4.81492
5.34243
5.08633
4.68097
4.86801
4.75734
4.92295
4.99799
5.42186
4.37398
4.55928
4.65578
4.61891
5.1954
5.24714
5.70377
5.58127
7.20617
6.20112
7.28644
5.78402
5.2847
5.44493
5.40147
6.73916
8.13369
7.59006
6.26187
6.91981
4.8599
4.73813
4.78788
4.60218
2.35091
3.73199
3.40412
3.1898
3.68034
3.39326
3.6225
3.64967
3.25262
3.48732
3.03138
2.81038
5.13068
5.00765
5.15556
5.09406
4.93236
5.02551
4.98284
4.98298
4.67898
4.39254
3.92537
3.83584
3.9536
4.12679
4.807
7.89638
2.24968
2.54166
2.13224
2.12171
2.15388
2.12871
5.18241
5.21631
5.39209
5.41207
5.6606
5.55172
5.17916
5.68051
4.69531
4.80477
5.00245
5.43897
5.19531
2.09929
3.98935
3.76548
3.70698
5.48206
5.04418
5.00981
4.96519
5.55676
5.06145
5.0799
5.02133
5.72999
5.29836
5.87002
2.89384
3.18324
4.00356
3.41137
4.95332
5.08127
5.08617
5.00705
5.36316
5.048
5.35564
5.1883
4.15261
4.58449
4.37243
4.59304
4.93622
5.11829
5.29112
4.24491
4.0737
4.04152
3.95198
3.87409
5.37074
5.34172
4.61282
4.62473
4.92524
6.68258
5.24091
3.58823
4.85137
5.1578
6.20883
5.12232
4.97039
5.21058
6.26521
5.25483
5.10125
2.24944
2.49477
4.82463
5.89712
6.52644
5.74911
3.99468
6.34709
5.63174
6.136
6.03077
5.51335
5.98649
2.11935
5.53902
5.72821
5.53303
5.56423
3.2867
6.29705
6.81432
5.91936
7.45158
6.24361
7.2884
2.42454
2.08852
2.10976
2.28299
2.28615
2.11273
3.75241
2.61265
2.83745
7.0465
5.92928
6.48139
3.46212
3.17915
3.45696
3.29481
3.18042
3.30688
4.86875
5.75793
4.86923
4.71649
5.70255
6.56267
3.50563
3.45278
5.11172
4.40511
3.94312
4.02622
2.67928
3.80296
4.731
4.70821
3.77877
3.93287
3.81707
3.19228
3.04501
3.19089
3.04881
3.2322
4.03801
4.79259
4.66042
4.70428
4.00291
4.34326
3.91582
3.9986
4.15086
3.2984
3.68553
3.84551
4.47224
4.66502
4.81351
4.74537
3.7422
3.79316
2.96357
3.17246
3.22755
5.11957
4.45321
5.08361
5.30801
3.07311
4.08487
2.14288
2.14033
2.12862
4.70422
3.25549
3.4539
3.13181
4.87491
4.13788
4.43016
4.17327
3.81178
3.85476
3.88478
3.84209
4.4153
3.79308
4.45543
3.99493
2.97344
2.87681
2.97944
2.91899
2.87366
2.89568
2.83881
2.81588
2.79509
3.91884
3.50542
2.92233
2.96336
2.87122
4.2445
4.01034
4.25635
4.15266
4.58328
4.70967
4.64743
5.29609
4.12339
4.06917
3.82668
2.84724
2.99994
2.12639
2.13249
2.14311
2.13413
3.62828
3.04312
3.02295
2.98724
3.12416
3.17977
4.2265
4.35102
4.89685
4.59001
4.71561
4.96475
3.8768
3.91957
4.06637
2.96685
2.86882
2.84751
2.85501
2.85042
2.13405
2.16813
5.02855
4.86644
2.16683
2.24079
2.16218
2.14683
4.89145
2.28753
2.67411
2.31019
2.45629
3.02065
3.21341
3.22979
3.07179
6.29095
4.28212
4.3829
4.17433
4.02607
4.25156
4.47787
4.79873
3.51425
3.31922
3.74702
3.40525
3.47261
2.91295
6.82734
7.31338
7.78222
7.06074
6.00612
5.96672
4.21392
3.73673
3.86777
4.21308
2.04996
2.00621
5.89005
4.40763
3.68393
4.31032
3.72649
4.1334
2.03008
2.00936
6.94223
7.08562
5.08887
5.2603
5.2451
2.7167
4.54028
3.21424
4.24042
2.15368
2.17879
4.75514
4.89299
4.55736
4.73584
4.59832
4.63362
2.21073
2.45874
3.13056
2.97047
4.4581
5.09919
4.3121
4.6757
2.35751
2.3489
5.08533
4.9537
4.32658
4.39314
4.36053
4.12706
4.2811
4.38924
4.94011
4.78317
4.85017
2.61335
3.25717
2.81527
3.94229
3.96081
4.34179
4.17575
6.00864
5.42431
4.83925
4.97202
5.30387
5.31671
5.0751
5.08893
4.95982
5.24575
5.04328
4.84612
4.91001
4.79126
5.50518
4.28219
3.99538
3.44685
3.57132
3.21558
2.99833
2.97358
3.05707
2.90675
3.02731
3.74529
5.48398
4.74188
4.50748
4.57953
4.15636
5.35941
5.34315
4.70669
4.13415
4.44727
3.43544
4.44175
4.5273
4.41733
4.39003
2.42036
2.33296
2.51151
2.43711
2.33005
4.44422
4.72911
4.61042
7.29517
7.41152
4.95203
5.04703
5.69337
5.6865
5.45515
7.17184
5.70851
4.75277
4.71405
3.40217
3.56237
3.20009
4.13055
3.8751
4.19015
4.36137
4.38962
5.11085
4.92546
4.79548
4.85471
5.02437
6.05981
6.65213
5.8135
8.25053
4.03365
3.92846
3.82468
3.2191
3.47816
3.49382
3.6488
3.20048
4.58044
4.62715
4.70945
4.64664
2.48424
2.68887
2.48161
2.42479
3.60926
3.51097
5.53313
6.26297
5.1184
4.84758
7.85182
7.23668
4.96242
4.66551
5.11536
5.25696
2.28528
2.13225
2.10862
2.0443
4.47653
4.57079
4.47792
4.46696
4.0182
3.97719
4.05198
5.81724
5.71307
5.68086
5.53943
5.52702
5.64521
3.35851
3.01847
3.20847
2.86029
3.5532
3.7612
3.76408
3.82644
5.60723
5.31883
5.43625
4.93983
5.33423
4.07115
3.84634
5.16464
4.31565
3.54987
3.71224
3.16083
3.21504
3.59375
4.61736
4.58061
8.0122
4.99706
5.07604
5.26763
5.17682
2.24911
2.07558
2.07673
2.87716
2.85391
3.62358
3.50276
3.64793
3.59368
3.95459
3.79161
2.62887
2.22542
3.04795
3.76195
3.97583
4.79001
4.78042
5.95355
4.95468
4.999
2.14776
2.15471
2.15715
7.69968
7.65481
6.03473
6.00789
2.15017
2.12418
4.30919
4.38529
3.8669
2.99686
3.1039
7.67621
6.77833
4.79633
5.03255
4.74412
2.13059
2.13339
2.13171
2.11194
2.12028
3.97572
5.30767
4.28074
4.1684
3.94872
3.99287
6.65582
4.26932
4.26884
4.6191
4.4352
3.33323
4.81247
4.81651
4.55161
4.59648
2.73264
2.77454
2.72819
2.72103
6.84304
6.39406
5.05047
5.25178
4.95846
5.05767
3.61904
3.57697
3.43976
4.53327
4.68
4.14071
3.07653
2.42637
2.47471
2.75206
2.37217
3.30287
2.65436
2.46079
2.95923
7.29995
7.56891
5.7869
3.84777
4.24622
3.80352
4.00897
4.48592
4.58943
4.48592
2.16156
2.1361
2.14936
2.18056
4.8128
4.2163
2.58137
2.34854
2.30599
1.99922
1.99735
3.37225
3.57822
3.59995
3.29927
3.42097
5.1308
2.99999
2.65676
2.13435
2.1016
2.14497
2.08936
2.10051
3.27936
3.17385
4.00019
3.9619
4.2452
4.08348
4.54211
4.62692
4.14977
4.31481
4.01561
2.19473
2.38794
3.12238
3.31581
2.51638
2.50948
2.50579
4.7465
4.5312
4.58688
5.03247
5.52201
5.21036
5.07006
5.38887
5.55659
2.16519
2.4591
2.26033
2.60923
2.56207
2.91465
2.95513
2.34432
2.34733
4.35862
4.73412
4.66402
4.92856
2.1953
2.16464
2.19417
2.22956
4.22376
4.27628
3.90061
4.1485
3.40289
3.96827
3.48261
3.82175
7.39229
7.50294
4.72063
4.31828
2.74753
3.66051
3.40465
3.4567
3.22219
2.33514
2.9115
2.73904
3.46621
3.02095
3.15766
2.82079
4.23749
4.19153
3.74845
3.98917
3.94056
4.04422
2.49411
2.62803
4.05183
4.40617
3.89744
4.1801
3.88357
4.1722
3.77737
4.09292
4.45741
4.07285
4.04124
3.7918
5.38232
5.28331
5.62068
5.39627
5.05769
5.20247
3.53439
3.71031
2.15943
2.18412
2.16101
2.21406
2.20516
2.15001
2.17131
2.12947
2.78895
2.76638
2.8406
2.93131
2.9261
4.40085
4.6258
4.62153
4.37581
4.49212
4.94632
4.9685
5.28369
4.9989
3.12669
3.07361
2.12544
2.12091
2.12474
2.13654
2.13141
7.73105
6.92884
3.66827
3.73978
3.81974
6.39616
5.63752
7.17314
5.29772
5.15221
3.71263
4.85566
4.99665
5.6971
5.24834
4.889
5.30265
5.20921
4.90329
4.80759
5.08793
4.89632
4.87574
4.76255
4.99733
4.94324
3.93748
3.71704
3.41836
4.74039
4.72868
4.92871
5.20373
7.25965
2.01244
4.17522
4.32932
4.36839
4.25871
4.48714
4.59572
4.61377
4.70228
4.76373
2.04078
2.00542
2.01846
2.11033
2.12888
2.13087
2.11567
7.84621
6.46616
6.5612
5.20508
4.8165
4.48844
3.19641
6.22444
6.19565
2.59553
3.02487
2.62528
3.01615
3.03451
3.26717
3.2832
3.02363
3.30507
3.99393
3.95744
6.0127
2.15513
4.54313
3.94491
3.52303
2.42275
2.42772
2.44887
3.45383
3.54786
3.32153
3.39599
3.17308
4.18994
3.97985
2.91021
2.84333
2.77794
2.77899
2.91138
2.78339
5.11464
5.49904
5.48984
3.93369
4.09828
4.38001
3.78666
3.58031
5.18574
4.68237
4.78528
4.17637
2.00139
1.97884
5.93356
7.09731
4.10528
4.20921
4.22047
4.58443
4.1689
4.35966
2.12062
2.15629
2.14531
2.15349
2.13396
7.4851
6.77406
1.99001
4.15725
2.84333
2.84647
3.67254
3.06216
3.68034
3.31989
2.97077
6.07057
5.0905
5.71208
7.32519
8.15613
6.0863
3.64226
3.61485
2.13244
2.13446
2.13994
2.14299
2.14474
2.14871
4.54776
2.32317
2.13765
1.98171
2.06273
2.01429
4.86385
4.85223
4.3683
3.88837
3.24116
2.94052
3.29291
2.71907
2.3168
2.8811
2.69495
4.7141
4.62891
4.84975
4.75649
4.64097
4.58776
4.41905
2.18485
2.27929
4.12891
4.12289
3.91492
4.0342
3.68349
4.26333
4.22784
4.29461
3.67219
3.89853
3.0413
3.38017
3.40921
2.98948
3.1801
3.45098
3.19649
3.25538
3.15722
3.38692
3.49974
4.75896
4.68986
4.67649
4.80124
4.7119
2.48429
2.39871
2.9858
2.64005
3.13426
2.8354
4.58768
4.75248
4.73776
4.82555
3.11747
3.40714
3.24939
3.44776
3.22356
2.95208
3.09129
2.14895
2.15016
7.95268
8.61418
4.36559
4.27751
4.31554
4.03494
2.08708
2.04779
1.98484
2.08848
2.04468
4.86997
4.85941
4.29484
4.19749
4.13875
3.75078
3.86008
3.54695
2.70671
2.79432
2.66268
2.69776
2.12188
2.11881
2.12047
2.11973
3.90775
4.39024
4.42544
4.31455
3.6267
3.7459
3.35543
5.61502
6.24692
7.65053
5.7642
7.02412
7.20221
2.28339
2.59597
2.20543
2.32573
4.21684
4.30727
4.34155
4.30938
4.17531
2.14722
2.13926
2.14271
8.37539
8.22587
3.86894
3.65301
3.57811
2.55047
3.02237
3.09161
2.60295
5.12555
5.18905
5.17645
5.32137
5.23538
5.22724
4.12125
4.27603
4.34836
4.05949
7.8997
9.0043
3.01493
3.24628
2.63292
8.16297
4.45213
4.32003
3.79102
2.9447
7.71229
4.37505
4.43352
2.01411
2.55592
2.42939
2.48633
2.54093
2.43418
2.43809
2.14348
2.12956
2.33041
2.19462
2.54051
2.64654
2.5395
2.58918
2.54134
2.65056
2.53798
2.60326
3.33882
3.05309
4.11517
7.81019
8.73518
3.45927
2.14747
2.11618
2.12498
2.12378
5.46897
4.58538
4.60282
6.96187
5.91107
3.87834
2.99874
4.9784
4.86419
5.28554
2.64464
2.60402
2.33331
2.31133
3.78643
3.94455
4.42544
4.46471
4.68076
5.26559
4.31108
4.36422
6.76173
6.57194
7.65324
3.57357
4.22705
4.12365
3.43253
3.85911
5.2599
5.0997
4.98204
5.6268
6.93471
2.05742
1.97806
4.29055
4.42863
4.51895
4.52252
4.2987
4.37335
4.28048
4.40304
4.22208
4.27119
4.407
4.4481
4.28112
4.4026
4.31608
4.39045
5.18639
5.04977
5.1956
5.12821
1.95745
1.92513
2.02463
2.09087
3.97095
3.94478
5.29119
5.41184
5.15446
3.78487
3.80006
3.83063
4.96651
4.76174
4.8199
4.85483
4.98571
3.70286
3.98823
3.38168
3.49501
3.24241
3.25555
2.82618
2.8
2.82714
3.06538
3.78978
4.01314
4.4215
4.41582
8.59111
8.64195
2.1573
2.15232
4.70916
4.73067
2.91846
2.83514
2.81658
2.74566
2.83023
2.83185
2.38808
2.27557
2.4257
2.16229
2.19303
2.32893
2.14209
3.82811
3.70619
3.75906
3.58248
4.11775
4.06121
3.86172
3.99445
3.86725
3.93283
5.02115
5.1199
5.22341
5.0402
5.21313
4.43628
4.61356
3.36384
3.12317
3.12543
3.60591
4.16264
4.24847
4.25786
3.54631
3.35678
1.98716
1.91612
2.80239
2.96456
3.61819
2.17275
2.11026
2.1143
2.32843
2.22223
4.67393
4.76174
4.69993
4.54202
4.63071
4.87828
5.26295
2.20449
2.3265
2.22155
2.24728
2.38595
2.12012
2.45888
2.67629
2.76801
2.50907
2.1395
2.12598
2.03037
5.65238
5.57811
5.63899
5.29396
5.75119
4.00597
3.81421
3.11959
4.13356
4.20519
4.05961
4.04
2.44662
3.02054
2.68665
2.72495
2.46444
2.48093
2.28614
2.72521
2.6262
2.2386
2.29875
8.46914
7.84145
5.1228
5.11533
5.04629
4.11159
3.16234
3.74055
6.56962
8.10297
7.01515
4.60478
4.46081
4.54128
3.17869
2.96208
2.40229
2.29922
2.8764
2.39491
3.8291
4.00811
3.77545
4.13175
3.64893
3.71093
3.53344
3.35228
3.33925
2.42012
2.26415
2.35712
3.34223
4.48774
3.35601
3.92527
4.60615
4.38701
3.87136
4.39442
3.96979
5.57925
6.65142
5.01899
3.57378
3.66985
3.90786
4.00717
2.09699
2.14929
2.22021
2.20905
4.644
4.48106
2.10622
2.10484
4.68094
4.12649
4.39885
7.44181
1.92705
1.9511
2.01563
2.23269
2.09719
2.12015
3.03472
2.85595
4.27613
4.23917
4.05835
3.98488
2.75374
2.86127
3.30313
1.95363
3.06016
2.91314
2.76278
3.01018
2.81452
2.76101
3.08843
2.92842
3.05344
2.82894
2.95213
2.94694
3.30818
5.03012
4.92042
2.16449
2.24337
2.08586
4.21459
4.11589
4.14973
3.89198
3.84491
3.76567
6.57003
5.37896
3.8444
4.15528
3.99271
4.596
3.30712
3.69566
3.55115
3.43247
3.63912
2.84056
2.8338
2.85774
2.89079
2.88242
3.65844
3.45808
3.43113
3.65633
3.5606
3.61332
3.50448
3.69481
3.66879
3.66832
3.59793
4.29967
4.2098
4.34552
4.29135
4.21321
5.24949
5.05613
5.13507
5.133
5.18939
3.34706
3.51496
3.32771
3.58316
3.49919
5.0762
4.82399
2.03667
2.61106
2.8216
2.92015
3.91969
3.747
2.41951
2.2915
2.29461
6.49563
5.73804
6.79026
8.48612
5.02657
4.86482
5.77761
5.81736
5.14282
5.61998
5.70035
5.41378
3.1509
3.39478
4.53395
4.50861
4.51358
4.57035
2.99917
2.77731
2.46236
3.42952
2.35137
2.85942
2.95954
2.60378
5.86824
7.06622
6.34009
9.46285
2.42861
2.68809
2.77557
3.42961
3.46405
3.07157
3.03458
3.83731
3.7699
13.8064
6.57482
5.77449
5.03371
5.12345
3.56417
3.9214
3.3517
2.87925
4.00064
4.11015
4.07485
4.12502
4.58593
4.62523
4.52533
4.51677
4.53537
4.69983
4.60635
4.52715
4.62547
2.9036
2.812
3.8619
2.37585
2.38624
2.85943
2.71656
3.91929
3.68212
3.84824
3.94571
3.73884
3.58188
3.90522
4.02824
4.17668
3.86225
4.29798
5.2849
7.42495
8.94816
3.52212
3.53604
3.78277
3.66072
3.79004
3.70742
4.79875
4.72909
4.62058
4.59856
4.69783
4.61639
7.00155
5.57869
8.38875
7.06637
5.0358
4.76014
4.61995
4.688
4.6148
5.0881
5.29494
3.95356
4.05001
4.0373
2.94022
2.34164
3.68205
3.85105
4.15341
4.17044
4.02804
3.93686
3.99893
2.90108
2.79357
2.81441
2.97167
2.91954
3.47813
3.30698
3.32905
3.56959
3.48632
2.19665
2.15404
2.20657
2.24167
2.15748
2.14629
2.64164
2.18147
2.19873
2.31097
2.32547
2.2308
10.7354
4.31165
4.32256
4.396
4.39279
4.40101
1.92388
4.68444
4.74454
4.77352
4.6944
4.71107
3.66359
3.81023
3.75553
3.79188
3.7107
3.61332
3.32867
3.81739
3.56601
3.6061
2.79335
3.09661
3.76929
3.47906
2.08328
2.10467
2.20668
2.29796
2.10263
2.1749
2.87444
2.74853
2.61433
2.41906
2.50923
2.3817
4.72856
4.59091
2.06509
1.99868
2.00723
2.10742
2.12033
5.37996
5.11796
5.25988
5.17791
5.08739
4.72062
4.97693
4.81729
4.80873
4.9874
5.16787
5.06466
4.09191
4.01186
3.96295
3.48795
3.61564
3.6618
2.27499
2.19717
7.7691
8.4117
9.80569
5.04309
5.37224
1.96343
1.92704
2.83075
2.56031
2.45649
2.80448
2.29776
2.3049
4.17121
4.13285
4.19909
4.26242
4.25878
3.7402
3.81827
4.21362
4.06831
4.09453
4.33069
4.25637
6.55116
5.59278
5.00341
5.1826
6.1111
10.4923
15.3647
2.82396
2.76819
2.63656
2.67321
2.58859
4.80822
5.89513
5.07372
8.04126
9.2345
9.52411
2.6885
2.85151
2.88006
3.09233
3.04651
2.89666
2.80397
2.92778
3.1731
3.013
2.8616
2.85115
2.89296
2.82572
2.81293
2.8871
2.84044
3.57488
3.60418
3.57619
3.51141
3.52285
3.51528
3.54408
3.49516
3.78887
3.98203
4.30835
4.97964
6.35517
7.20892
6.10535
4.77301
5.08239
4.10562
4.13779
4.4038
4.29647
3.81012
3.92798
3.72029
3.36863
3.33357
3.29982
3.57834
3.71711
3.65276
4.74659
4.8406
4.78643
4.8953
4.77497
4.81328
4.52109
4.63575
4.27568
4.53013
4.22204
5.07414
4.85529
5.48697
5.52346
4.99311
2.10381
2.07901
2.03828
4.12661
4.07109
4.29606
4.22065
4.27706
4.56217
4.06404
4.07857
2.03651
2.08369
4.56361
4.48637
4.44308
4.45295
2.0073
2.04862
1.93522
3.87233
3.94921
4.49263
4.55092
4.57404
8.23347
7.5363
4.49022
4.58617
4.57897
4.57283
4.51648
2.54796
2.28982
2.96122
2.50236
2.64852
3.2158
2.81444
3.52533
3.38348
3.46753
3.97296
3.58823
4.52752
5.96622
7.3995
2.30516
2.33508
2.23279
2.58592
2.58732
2.83249
2.82937
3.25572
2.89914
2.83585
2.88563
2.83885
2.81974
8.08971
9.1721
11.712
4.98836
5.16087
6.99335
3.54631
3.51539
3.45408
3.40518
3.5737
3.60085
2.11432
2.13034
2.14474
2.12085
2.11666
2.12024
3.25344
2.94456
3.06823
3.3116
2.73033
2.66643
3.88871
3.86574
3.70433
3.7534
3.74714
3.82814
6.4192
7.81194
6.97579
4.13986
3.92081
3.06231
2.08517
2.14256
2.08371
2.1088
2.11261
2.15019
3.87842
3.81895
4.35495
4.67728
4.72198
4.01827
3.97326
2.20114
2.23812
2.42013
2.323
2.50917
2.5199
2.30053
2.78761
3.5097
3.07604
2.54862
2.23717
2.20148
2.49719
2.29632
1.93589
1.94601
3.00001
2.94758
2.71292
2.66305
2.59257
4.14594
4.25627
4.18432
4.2738
4.40431
4.55411
4.62732
4.66026
4.97838
4.5342
4.65616
4.98004
5.10273
5.14725
4.98661
5.13639
4.01153
3.92224
3.50868
3.6081
3.88836
3.61811
2.86581
2.86932
3.64685
3.6541
3.77554
3.70733
4.68274
4.67293
4.73438
4.93971
4.72884
2.68071
2.79661
2.54462
2.53229
2.61277
2.74282
4.42278
4.13126
4.3185
4.16709
3.77662
3.98929
3.93113
3.81217
4.39637
4.58096
3.07198
3.34324
3.40289
2.56955
2.48742
2.78263
2.89748
2.78567
3.66101
3.5216
2.90264
3.49939
2.78435
3.02677
3.20343
4.70354
4.66763
4.64327
4.52356
4.72784
4.8106
2.87574
2.46969
2.64496
4.6798
4.15378
4.39506
4.66011
4.84836
4.79741
4.78741
4.69784
5.2713
5.22382
5.11635
5.24648
5.11715
5.06462
4.93692
4.87151
4.81703
4.92354
2.48622
2.25674
2.13853
2.22093
2.1424
3.76867
3.94479
4.05671
5.00958
4.96383
4.89796
3.05783
3.10634
4.45931
4.19717
4.11137
4.32973
4.52986
2.01871
2.038
2.09242
2.03853
2.09573
2.12611
2.12117
3.23521
3.31703
3.4561
3.34958
3.45822
4.60741
4.63361
5.20239
5.06425
5.02961
5.25279
5.26371
8.01569
3.83296
3.74831
3.69825
3.80163
3.62012
3.61
3.2017
3.12895
3.59887
3.44098
4.74041
5.0099
5.17814
5.65612
3.69807
3.73588
3.66538
3.82326
3.62778
3.99827
3.93153
3.89571
3.74821
3.15124
2.99658
3.13521
3.15785
3.42295
3.01326
2.92428
2.81531
3.60517
3.49331
3.38368
3.70401
3.45956
5.25679
5.60613
6.60531
6.20062
5.41799
8.55453
10.0385
3.33439
3.45001
3.30972
4.98273
5.04456
4.95668
3.06624
2.81474
3.22196
3.50868
3.04398
2.86062
2.99276
2.66868
2.72473
2.65255
2.58676
2.71993
2.58326
2.69312
2.61741
2.68781
2.61785
2.67629
2.72747
3.4056
3.66198
3.44922
3.59046
3.62937
3.50353
5.03953
5.10016
5.00149
5.03343
4.99684
4.97292
4.94037
9.80154
11.6333
5.54569
6.16086
7.08786
5.56242
6.59505
2.68991
2.58573
2.65526
2.56981
2.62863
2.80966
2.88187
3.04085
2.86698
3.12723
3.07336
3.42158
3.39478
3.68105
3.68728
4.04027
3.76017
3.96909
3.97889
3.79492
3.90778
4.04864
3.98845
2.87097
2.94372
2.70712
2.67383
2.59276
2.57214
2.63306
3.49724
3.23379
3.41425
2.73565
2.70231
2.82047
3.02593
2.98528
2.87987
2.86435
2.96958
2.71348
2.639
2.69114
6.17005
4.8296
6.00552
5.14446
9.19281
9.96056
3.34172
3.23505
3.11725
3.32618
3.1965
3.71833
3.53999
3.7578
3.55987
3.68171
3.85151
3.76201
3.85339
3.7664
3.68537
3.70283
4.06252
3.5694
3.84338
3.61548
3.48885
6.13897
6.79365
3.70257
3.71199
2.32989
2.28198
2.20564
2.18577
4.22425
4.25475
2.93586
3.01676
3.75997
3.34836
3.23153
3.76286
6.22356
5.78309
4.37695
4.45761
5.32095
5.13923
5.24153
5.1513
5.12126
5.01567
4.94244
5.05353
5.03121
5.01921
4.30497
4.11227
3.99678
5.22222
5.87931
9.56695
10.0065
4.17552
4.05273
4.23013
2.509
2.12429
2.25283
2.24579
2.07472
2.10398
6.85079
5.81069
4.78491
7.32359
4.63993
5.8425
2.53227
2.43864
2.83688
3.82012
4.02639
3.84837
3.95793
4.00015
3.91872
4.45371
4.18906
4.34107
2.932
3.14844
3.55647
3.82929
3.78527
3.49651
3.63291
3.94219
3.99038
3.73674
3.69813
3.84306
3.23749
3.13468
3.38458
5.47586
4.83726
5.39681
4.58386
4.40589
2.20881
2.10129
2.12107
2.10917
2.17037
2.16619
2.16598
2.07932
2.00189
2.11223
2.06908
2.10503
4.82201
4.94213
4.90371
5.33294
4.20138
4.25147
3.89013
2.6157
2.60974
2.66574
3.18039
3.26296
3.4287
5.04657
5.23171
5.15091
5.02265
4.98208
4.99194
4.95064
6.10306
5.59921
2.07644
7.98201
6.29062
7.67264
2.2259
2.12595
2.44778
2.34462
2.25968
4.89513
5.04738
4.17971
4.365
4.13696
2.14398
2.15656
2.84441
2.36675
2.23506
2.18502
4.57002
4.4444
4.48999
4.47727
2.41946
2.42525
3.40775
3.29539
3.21612
4.02595
3.68765
3.59609
4.6829
4.41183
3.22163
3.08808
3.44105
3.30041
4.99066
4.79815
4.92894
7.34392
11.7027
18.3624
9.63214
10.253
2.98922
4.29519
1.63157
2.9246
2.88471
12.2472
18.3474
4.33041
18.4541
3.45003
16.6148
14.9623
10.6162
11.2178
15.1104
11.6021
11.8077
12.1653
13.6074
17.9901
9.88163
8.99447
10.2548
9.43112
11.0211
12.1732
16.0716
13.3525
2.03941
11.2201
12.7002
8.9333
11.3425
14.0301
12.4802
13.4594
14.123
10.7555
11.5109
1.64039
1.74224
9.34387
12.9708
8.61172
1.97994
12.8066
8.25845
13.1552
15.9354
14.9444
6.28075
12.2291
12.2083
13.5445
11.5287
10.3458
11.7383
11.3305
12.9969
11.5408
4.74898
4.47595
1.89575
1.77828
2.13331
10.7036
12.1778
8.36169
15.5063
11.3415
11.1019
12.4503
5.56057
7.68482
3.99714
4.11838
2.86817
2.88343
10.546
9.23001
10.4466
9.29901
6.08294
9.28803
6.16563
18.5179
12.8327
15.8482
14.8725
11.3411
11.5027
12.614
11.082
11.8495
10.4073
13.2727
13.5644
11.9011
11.2779
12.1363
12.5039
12.3559
10.618
5.21319
6.06088
10.1839
10.8345
9.57832
3.4349
6.36481
9.60241
6.02378
3.23142
2.8762
3.1766
1.62227
1.87235
1.58206
13.7026
12.8629
15.3894
14.1337
11.5367
13.0487
12.7334
3.04862
20.9073
15.7433
9.3741
9.01425
8.59843
9.5989
9.72627
9.94608
8.82127
9.27871
9.1312
3.18202
3.30604
10.7018
10.3496
9.07011
13.4565
10.6496
13.1603
14.3399
14.1041
1.56694
1.81434
11.5285
12.1555
10.5741
10.6143
6.33717
1.4799
2.24864
3.07448
2.92199
2.98471
6.10345
9.42969
5.61017
1.60574
2.04208
2.34615
2.48174
1.72296
2.14115
10.0617
10.9553
12.8966
11.0748
13.861
10.7219
12.6641
12.8949
14.3645
16.2586
6.53938
1.56442
1.80064
1.55653
1.83447
11.6541
10.5993
10.7808
13.6975
11.2594
20.6986
16.0419
17.7992
13.5278
1.53722
1.70996
2.01105
1.90305
2.29615
2.53858
2.04892
2.30307
14.5681
12.1234
2.0221
2.02502
1.58806
1.88757
15.2999
12.9457
2.35759
13.5206
10.0386
11.1523
13.6396
1.83096
1.52666
1.80073
12.367
3.19867
3.0869
3.33382
16.3993
12.1306
14.1111
6.6372
7.21997
1.61913
1.9196
19.2473
15.4621
26.0727
17.0019
17.6711
14.2297
14.1209
17.3194
1.57611
1.86071
1.79643
1.54882
1.82341
1.51187
13.5647
11.3249
15.7889
2.60376
2.78249
4.18304
4.04217
3.56935
3.72455
3.83781
1.51652
1.7698
9.03071
9.48629
9.1572
8.33275
21.7286
12.3497
28.6097
16.6274
13.771
11.6072
1.72674
1.5452
1.80961
15.5371
18.6708
16.7363
16.3103
1.76766
1.54315
1.79514
2.64347
3.17276
2.85486
2.51907
3.24382
2.63164
1.52392
2.74373
3.34761
2.85173
2.05635
2.42356
2.5483
20.4691
13.8932
2.98828
3.07493
11.3459
12.8094
11.507
14.5252
13.6418
17.2968
3.76101
3.61081
3.90559
20.4946
15.5032
16.5196
14.3446
13.5305
1.84136
2.27319
6.53069
10.7218
6.26846
8.01495
15.3536
12.4968
11.121
12.6301
1.5047
19.8006
13.4075
3.32608
3.22409
3.41777
4.88494
4.55306
5.36827
1.55697
8.98736
11.1449
10.6985
1.54346
1.76002
13.5607
15.4169
14.4939
1.5002
1.72565
15.8469
7.39249
8.3211
14.5064
11.3938
13.5356
12.6922
9.72075
11.2347
1.50663
1.72132
1.71795
18.0304
1.53627
11.9195
12.1013
13.3652
18.0442
15.8373
31.8478
22.0235
1.89368
2.24478
14.5206
12.0746
13.6912
17.8241
2.03813
1.69899
22.8539
16.5409
1.46121
1.71386
1.55753
1.78375
1.79915
19.972
13.4001
15.6111
1.76454
1.47659
1.69686
32.4784
26.5098
19.9834
14.8923
15.0458
3.36495
3.39301
1.51935
1.77685
1.7435
15.9118
12.9857
10.1489
26.3543
17.6752
22.6622
14.4112
12.9329
1.7326
1.45766
1.7286
7.22613
5.64661
1.52638
1.82127
1.80224
7.66443
12.6535
11.1565
14.2997
19.0445
10.9485
16.1099
17.6969
17.3606
19.8028
12.0688
15.1167
1.60531
1.87261
1.82774
20.1227
13.5219
15.0321
1.78063
2.1083
14.0008
18.3626
6.538
14.9086
8.85026
1.98281
13.203
11.3948
15.8797
13.4571
14.1935
11.2051
13.3384
11.817
10.1125
12.2536
1.71276
1.89541
14.3632
6.64552
6.7794
1.63161
1.80745
1.64184
1.79974
5.50889
2.97605
3.0744
2.28011
2.06273
2.21657
4.66465
5.15269
4.62793
4.63621
2.23348
4.48635
4.29374
5.22782
2.94471
2.80945
4.47928
4.76614
5.31256
2.61863
3.875
4.90767
3.99618
3.95097
4.06889
2.74949
3.59146
5.29102
5.10557
4.85855
3.12623
4.53099
4.4572
4.54283
4.14995
3.96048
3.97134
2.13833
5.31439
4.60842
3.13666
2.08156
2.1441
3.72625
4.81569
4.72094
4.7433
4.62529
4.33829
4.39916
4.78821
4.86738
5.52997
2.93534
3.94402
2.12375
5.04902
6.0309
7.79773
2.9426
5.62007
3.19533
3.68129
3.9583
3.49059
3.74098
2.19803
5.89231
2.6502
3.84404
3.09606
5.82504
3.54337
3.32392
2.60972
3.14047
3.35252
3.19215
2.49898
2.57796
3.57111
2.97161
2.09648
2.11121
3.37934
2.32071
2.69865
4.36698
2.9974
3.82787
4.54947
3.90544
3.79515
3.83111
3.0779
4.20351
4.7587
4.604
4.4582
3.00071
2.67648
3.87351
3.85421
5.66844
4.20401
4.56951
4.91282
4.80369
4.96122
2.29837
2.36276
4.30248
3.05916
2.10315
4.52543
4.3618
3.78431
4.67365
4.57391
3.27873
3.39244
4.95973
4.84154
5.05476
4.48295
3.66569
5.47956
4.56507
4.70716
3.04668
4.70212
3.84974
3.16592
2.15024
4.12059
4.82738
3.83978
4.93325
4.79984
4.06667
3.99383
5.66962
2.90795
2.82921
2.92046
7.33556
4.88733
2.1712
6.89135
2.11879
3.71902
3.41142
2.4734
5.00825
5.02385
5.23063
4.1471
5.56635
5.34235
5.16756
5.21844
6.34021
4.53338
5.97637
2.23199
2.25614
3.63146
3.70591
3.46907
3.3365
5.59021
5.41481
4.825
4.90697
5.24445
5.33495
4.28394
3.46411
2.7745
4.43224
3.63693
5.12744
5.68196
4.37737
5.41007
5.33687
7.70391
4.24521
4.18197
4.76865
2.2535
2.88291
4.72308
4.81086
4.99605
4.87231
4.60163
4.70356
2.20248
5.39205
5.50595
5.47863
3.77539
4.08372
4.24867
3.78371
4.12318
4.29861
4.48958
3.64833
7.17762
8.04615
4.05589
6.9035
2.70229
2.838
2.71498
3.50574
2.15488
6.69122
5.95629
5.15871
2.94426
2.97869
3.1134
3.15251
3.07179
6.71021
7.92352
3.14382
5.28185
4.20188
4.08702
3.84263
4.18119
4.02202
4.06265
2.93472
2.5678
2.56278
2.62675
2.58204
3.55806
3.998
4.26734
2.53495
2.96725
4.05965
3.23782
3.4561
5.81437
4.88343
4.6203
4.76379
2.95177
3.93523
4.03715
6.24248
4.4642
4.60616
4.72202
4.69895
3.07661
3.20844
2.16782
2.2522
2.28944
3.45672
4.73565
4.94406
4.7664
4.83785
4.56377
4.53074
4.59523
3.33542
3.30943
3.48448
7.36326
5.99929
6.93151
5.88893
3.82941
3.75014
4.18471
4.69254
4.32373
4.44773
3.94714
5.16915
4.67373
7.33894
6.88429
8.54955
2.07154
4.26101
3.91007
4.14046
3.80576
4.0154
2.79599
2.84466
4.62234
4.81699
4.76887
4.94699
4.72806
5.18453
4.78746
4.67574
4.66067
4.85295
3.94066
3.56029
3.7303
3.56094
3.96408
3.87382
4.46029
5.29307
5.1513
5.26542
2.03645
4.80857
3.39274
2.86528
4.67673
4.76324
3.09781
2.73472
6.1041
5.83275
2.26931
4.77125
4.20219
3.92354
3.50599
5.17325
4.13412
4.06022
3.87675
4.38933
2.98246
3.5183
4.06397
4.55107
4.52364
4.91833
3.46805
3.63815
3.67414
2.10463
3.35724
3.38723
4.54409
4.88585
4.69458
4.83352
4.68641
4.54218
3.2777
3.12741
3.34252
2.96203
4.26032
5.11437
5.93105
4.79402
4.89132
5.04505
3.51696
4.19151
3.99901