/*--------------------------------*- C++ -*----------------------------------*\
| =========                 |                                                 |
| \\      /  F ield         | OpenFOAM: The Open Source CFD Toolbox           |
|  \\    /   O peration     | Version:  2206                                  |
|   \\  /    A nd           | Website:  www.openfoam.com                      |
|    \\/     M anipulation  |                                                 |
\*---------------------------------------------------------------------------*/
FoamFile
{
    version     2.0;
    format      ascii;
    arch        "LSB;label=32;scalar=64";
    class       volScalarField;
    location    "120";
    object      k;
}
// * * * * * * * * * * * * * * * * * * * * * * * * * * * * * * * * * * * * * //

dimensions      [0 2 -2 0 0 0 0];

internalField   nonuniform List<scalar> 
184166
(
3.28051
2.51565
2.39957
3.26567
2.91807
2.96596
2.11463
2.77473
3.29864
3.19719
3.22348
2.55569
2.58447
2.83738
3.0182
3.2153
3.34056
3.13399
2.49831
3.20805
2.47283
2.46718
2.85439
3.01224
3.17763
3.08137
2.97699
3.25005
3.10244
2.52037
3.24647
2.07758
3.66787
3.45385
3.3327
2.62341
2.50722
3.21091
2.67619
2.3034
3.17127
2.60422
3.10326
3.36295
3.31039
3.12671
2.24633
3.00003
3.23158
3.09552
2.17702
2.0836
2.26448
3.17805
3.34322
2.98752
3.1456
3.36412
3.36855
2.70426
2.48867
2.70759
3.23508
3.31015
3.30881
2.04767
2.34362
3.15721
2.10065
3.30552
2.3865
3.34966
3.26189
3.23708
2.63085
3.06834
2.89241
3.23365
2.71881
2.22347
2.18407
2.60995
3.2065
3.29415
3.17179
3.24192
2.69793
2.41999
2.86698
2.518
2.03767
2.90325
3.13278
3.08109
2.90339
2.46968
3.36757
2.07512
2.45079
3.27904
2.55103
2.52711
3.134
3.10639
2.09741
2.86019
3.2777
2.86333
2.07524
2.56045
2.30375
3.2613
2.0305
2.39567
3.22333
3.08705
2.6811
2.39828
2.109
2.39531
3.22491
2.52947
3.14687
3.12394
3.09753
2.90461
3.14753
3.15383
3.14944
3.12233
2.46766
3.14419
2.84585
2.93823
2.65428
2.58625
2.62114
2.82161
2.86716
2.35618
2.87271
2.10895
2.12453
2.52435
2.72787
3.23389
2.40647
3.09291
3.32287
3.33306
3.28834
3.18777
3.24642
3.15059
3.23913
3.33007
3.21013
3.15134
3.2924
2.29042
2.05412
2.16602
3.03522
2.74812
2.74206
3.14683
3.16621
3.13866
2.05955
3.17807
3.15165
2.63097
2.80362
3.53803
3.13788
2.17362
2.23838
3.25228
3.1459
2.86306
2.04927
3.07408
2.84183
3.11277
3.23087
2.63875
3.16942
2.99253
2.0946
3.24881
3.057
3.28262
2.89175
2.07441
3.43268
3.16172
3.03606
3.21325
3.35331
3.10485
3.2624
3.105
2.06828
3.11158
2.23389
3.1477
2.59945
2.51336
2.67614
3.14178
3.38474
3.07209
2.64533
2.82981
2.50635
2.84457
3.18728
3.03301
2.1584
2.13722
2.5432
2.73232
2.86347
3.07977
2.19159
2.54125
2.5817
3.32167
3.16497
3.41308
3.37783
2.35651
2.8728
3.11716
3.35328
2.92187
3.37046
3.15592
3.12867
2.07925
2.02975
3.26124
2.42182
3.11655
2.26149
3.01694
3.08359
2.58958
3.57111
3.44288
2.90756
3.18928
3.26546
2.52422
2.85401
3.35168
2.89839
3.09465
3.2049
2.90589
2.75211
2.34829
3.32217
2.54161
3.26728
3.17554
3.2037
2.34071
3.23547
2.91801
3.07103
2.19746
2.75974
3.22928
2.54159
2.87082
2.03884
2.82659
2.73092
2.83235
2.47514
3.85539
2.82254
3.16686
2.31802
2.58121
3.50936
3.19823
3.08589
3.27689
3.07908
2.97496
3.09312
3.38773
3.28924
3.05482
2.97887
3.25751
3.175
3.19091
3.13128
2.89511
2.16534
3.11588
3.22549
2.83259
3.10275
3.17839
2.34168
2.08035
3.15098
3.31322
3.167
3.24762
3.24977
2.85539
2.93584
2.93272
3.05181
3.00127
2.50881
2.61116
2.65727
3.02056
3.13712
2.09014
3.20231
2.92944
2.45138
3.14034
3.30563
2.31437
2.27703
3.22185
2.10413
3.18327
2.96517
2.78659
3.21635
2.74097
3.03396
3.35703
3.35539
3.4824
3.35304
3.44136
2.39791
2.08845
2.68988
2.18143
2.17853
3.15018
3.3676
2.35514
2.52972
3.29557
3.22994
2.81142
3.25672
3.14588
2.72418
2.05526
3.24295
2.36535
3.14926
3.2106
2.08801
2.44761
2.39851
2.02194
2.0479
3.25662
3.42826
3.4181
3.57327
3.50288
3.24389
3.06973
2.4871
2.90831
2.97847
3.00636
3.17622
3.16371
2.94544
3.40501
3.32527
2.67196
2.75716
2.74704
2.93365
3.10717
3.13286
2.0544
2.84146
2.06579
3.4486
2.84319
2.71601
2.9016
3.35594
3.01937
3.44204
3.21221
2.27478
2.97678
3.28838
3.2618
2.9062
2.48219
3.04232
2.7379
2.76402
2.65271
2.64184
2.51745
3.25259
2.26606
2.23018
2.18667
3.55852
2.80106
2.78555
2.79237
2.6976
2.07595
2.10783
2.13877
2.44019
2.40663
2.44898
2.12367
3.54432
3.32057
3.46982
3.44007
3.27873
3.39972
3.15601
3.16272
3.22524
3.22914
3.30119
3.27308
3.28768
3.26827
3.46677
3.54245
3.0901
3.15581
3.02343
3.02396
3.06143
3.12046
2.92058
3.14679
3.12321
3.11487
3.13418
3.53321
3.17564
2.11
2.06977
2.06357
2.05407
2.20321
2.0923
2.16664
3.20509
3.23787
3.21697
3.26132
3.21663
3.15272
2.88109
2.66112
2.80935
3.31405
3.15213
3.11884
3.12741
3.11221
2.04688
2.01786
2.58036
2.62094
2.57572
2.51781
2.48851
2.51408
2.85838
3.02408
2.96512
3.00958
2.76123
3.42071
3.36863
3.3536
3.39268
3.47793
3.42232
3.41582
3.1783
3.15058
3.15201
3.14228
3.18729
3.14878
2.49532
3.11995
3.18238
2.02282
2.05155
2.02481
3.31338
3.48222
3.37622
3.16061
3.23831
3.17629
3.24253
3.3415
3.51107
3.1239
3.15253
3.18505
3.19842
3.45631
3.47695
3.63455
3.59548
3.52834
3.36076
3.54169
3.63272
3.4531
3.5159
3.2131
3.39362
3.62916
3.53909
3.3239
3.4377
3.30218
3.24497
3.3169
3.24882
2.22238
2.82961
2.68227
2.60667
2.82477
2.68857
2.79155
2.82482
2.643
2.74761
2.53034
2.43028
3.39767
3.30385
3.42079
3.38881
3.27844
3.36615
3.3636
3.35453
3.22296
3.11278
2.83232
2.79891
2.84352
2.91335
3.14946
3.33764
2.11708
2.26176
2.06305
2.06103
2.0787
2.06835
3.39643
3.41534
3.5136
3.5301
3.62005
3.58296
3.42113
3.62123
3.16603
3.14432
3.18766
3.22902
3.18687
2.03617
2.96265
2.87827
2.8557
3.23352
3.28013
3.26915
3.29152
3.2608
3.26916
3.28715
3.30197
3.25362
3.18737
3.27161
2.50074
2.54667
2.77641
2.60118
3.24271
3.36838
3.38043
3.33411
3.48604
3.28823
3.49384
3.41368
3.03996
3.17939
3.11364
3.17673
3.26511
3.3268
3.108
3.01842
2.98062
2.96899
2.91882
2.87354
3.51457
3.49772
3.14142
3.11023
3.13591
3.31232
3.16343
2.709
3.05935
3.26609
3.36017
3.25091
3.25516
3.29028
3.34505
3.30204
3.31513
2.1732
2.30174
3.09327
3.21233
3.33194
3.21182
2.95766
3.3559
3.26322
3.33621
3.31981
3.25396
3.29651
2.10512
3.55891
3.63936
3.55972
3.57617
2.68399
3.37484
3.42366
3.30034
3.5621
3.36278
3.54253
2.27652
2.08758
2.09915
2.19803
2.20061
2.10307
2.76517
2.35113
2.45084
3.34519
3.19382
3.30138
2.76203
2.63627
2.75929
2.6884
2.637
2.69404
3.15889
3.24063
3.15558
3.15062
3.22672
3.36906
2.78402
2.76063
3.36779
3.10891
2.92204
2.94527
2.4012
2.91922
3.24391
3.22808
2.77806
2.83241
2.78858
2.63843
2.57114
2.63624
2.57233
2.65517
2.99171
3.23242
3.17725
3.18974
2.81674
2.91497
2.93116
2.9614
3.00152
2.59574
2.8703
2.94269
3.08642
3.10569
3.24938
3.16166
2.75724
2.74405
2.53104
2.62463
2.65105
3.34906
3.11855
3.35404
3.43062
2.58717
2.8465
2.06396
2.06125
2.0556
3.17846
2.57289
2.75226
2.55618
3.25413
2.97519
3.05441
2.93887
2.80153
2.8403
2.87923
2.85329
3.16145
2.90845
3.18269
2.99777
2.53985
2.49222
2.54277
2.51309
2.49069
2.50196
2.47348
2.46164
2.4519
2.82964
2.76192
2.51449
2.53469
2.48939
2.96707
2.86758
2.97491
2.92914
3.14998
3.19192
3.1646
3.45263
3.03049
3.00905
2.9134
2.48992
2.56563
2.05795
2.05913
2.0659
2.06237
2.81953
2.56184
2.54124
2.53046
2.53792
2.54612
3.06418
3.10672
3.24284
3.10556
3.15935
3.26152
2.88484
2.89924
2.96454
2.4479
2.48702
2.47636
2.48116
2.47898
2.05484
2.07417
3.19373
3.20482
2.0765
2.1129
2.07768
2.06924
3.30536
2.19341
2.39282
2.2055
2.28271
2.56114
2.65257
2.66173
2.58692
3.29399
3.07263
3.11279
3.02239
2.95605
3.07071
3.1144
3.29245
2.7798
2.69398
2.87893
2.73404
2.66335
2.41835
3.35477
3.435
3.49728
3.1554
3.36669
3.26618
3.07189
2.8799
2.93865
3.07679
2.00917
1.98318
2.99261
2.83662
2.73217
2.97716
2.7481
2.90861
1.99975
1.98743
3.36096
3.3887
3.37783
3.43347
3.43143
2.39785
3.19422
2.62449
3.06156
2.0705
2.08686
3.14814
3.15409
3.13056
3.13792
3.15907
3.16527
2.14499
2.27389
2.57963
2.51585
3.06406
3.30032
3.01845
3.16417
2.16704
2.16521
3.3821
3.30974
3.00592
3.0418
3.10378
3.03487
3.08671
3.11511
3.29529
3.22935
3.27471
2.28785
2.58002
2.38473
2.96752
2.97264
3.1114
3.05168
3.26506
3.23612
3.31085
3.35521
3.4837
3.4785
3.3582
3.39595
3.32355
3.4044
3.33372
3.24443
3.28015
3.13465
3.11574
3.087
2.97588
2.74967
2.80345
2.64962
2.54985
2.53718
2.57771
2.50566
2.56361
2.75686
3.18524
3.09151
3.0638
3.07488
3.01203
3.47251
3.45537
3.24823
3.01505
3.15568
2.74628
3.04938
3.06815
3.02317
3.01718
2.26349
2.21613
2.3158
2.27571
2.21512
3.11875
3.14354
3.13655
3.45065
3.4625
3.35184
3.39835
3.60809
3.60205
3.25994
3.37377
3.26968
3.23831
3.21883
2.73404
2.80173
2.63996
3.00535
2.92444
3.04242
3.07542
3.09228
3.32587
3.25941
3.19679
3.21753
3.13122
3.22489
3.30699
3.18257
3.60328
2.78198
2.85401
2.82598
2.65213
2.76938
2.77551
2.84247
2.6435
3.18843
3.18055
3.22891
3.18383
2.28877
2.39608
2.28809
2.2715
2.71771
2.6839
3.21196
3.31976
3.36426
3.26723
3.47775
3.37851
3.17934
3.15514
3.16941
3.19524
2.1223
2.05829
2.04564
2.00577
3.1136
3.14717
3.09459
3.10575
2.87081
2.85364
2.88527
3.64201
3.59965
3.5684
3.53059
3.51674
3.56981
2.62138
2.47131
2.54853
2.39126
2.79392
2.87478
2.87772
2.90109
3.59919
3.50646
3.54097
3.35927
3.50551
3.02889
2.93495
3.44057
3.12753
2.6822
2.74821
2.51913
2.54332
2.70348
3.10676
3.09075
3.6079
3.30603
3.34046
3.3945
3.37156
2.11872
2.07582
2.06772
2.48698
2.47488
2.72838
2.69542
2.73143
2.71397
2.94806
2.88911
2.33205
2.13023
2.48338
2.88661
2.96717
3.2457
3.21906
3.27958
3.18707
3.17323
2.07212
2.07238
2.07529
3.68524
3.64719
3.42633
3.42562
2.05591
2.03923
3.09571
3.13432
2.92728
2.54206
2.59787
3.59847
3.42748
3.11711
3.14782
3.12412
2.05871
2.06017
2.05908
2.04694
2.05221
2.98093
3.28186
3.07752
3.02568
2.93968
2.9513
3.36743
3.03189
3.03558
3.05612
3.03686
2.61053
3.21045
3.19458
3.09778
3.10633
2.41698
2.43852
2.41577
2.41295
3.41873
3.33939
3.31334
3.39456
3.29075
3.34249
2.715
2.70345
2.64487
3.21782
3.27371
3.06011
2.4783
2.19043
2.21193
2.33644
2.21285
2.6637
2.35226
2.26891
2.51552
3.56509
3.63422
3.21119
2.93081
3.0831
2.91041
2.99297
3.20338
3.24373
3.20095
2.07363
2.05849
2.06791
2.08237
3.12977
3.0648
2.2579
2.14833
2.1305
1.97974
1.9788
2.72147
2.81009
2.81887
2.68839
2.74257
2.93399
2.54653
2.38074
2.08376
2.07572
2.09964
2.0622
2.06245
2.57228
2.52654
2.98401
2.96995
3.06977
3.01576
3.10418
3.12886
3.01064
3.04319
2.97162
2.09571
2.19745
2.60952
2.69614
2.30324
2.2999
2.2994
3.14246
3.13568
3.15752
3.35715
3.53729
3.42773
3.36682
3.47283
3.54278
2.07672
2.29152
2.18253
2.28265
2.26655
2.427
2.44195
2.15827
2.16377
3.03402
3.06601
3.0672
3.09331
2.14514
2.13035
2.14375
2.16514
3.06511
3.08592
2.94213
3.03829
2.73194
2.96771
2.76762
2.90824
3.52138
3.52172
2.98941
2.87553
2.33827
2.73735
2.63173
2.64811
2.55033
2.14495
2.41508
2.33437
2.65563
2.46142
2.52757
2.37296
3.04519
3.02179
2.76447
2.93088
2.91141
2.96098
2.29625
2.3703
2.88145
3.02034
2.79341
2.80734
2.776
2.75752
2.7841
2.87407
2.95323
3.00929
3.00065
2.90156
3.50022
3.46632
3.59757
3.51537
3.17775
3.19475
2.78666
2.85786
2.07198
2.0878
2.0745
2.08193
2.07641
2.07881
2.096
2.07528
2.44759
2.43662
2.47344
2.51715
2.51572
3.13564
3.1814
3.21667
3.11792
3.13699
3.31321
3.31369
3.27522
3.24829
2.61267
2.58746
2.05528
2.05425
2.05538
2.06256
2.06244
3.46655
3.33253
2.73622
2.76138
2.79146
3.2365
3.15512
3.33306
3.12576
3.11913
2.75315
3.13572
3.13807
3.17285
3.09975
3.05337
3.1058
3.45536
3.34596
3.30837
3.40676
3.33603
3.28439
3.17545
3.34751
3.3149
2.84794
2.76407
2.635
3.16081
3.16544
3.13391
3.14436
3.12289
1.98677
3.03245
3.06332
3.08637
3.06507
3.06941
3.12398
3.11993
3.17277
3.18841
2.00002
1.97803
1.99212
2.06233
2.06843
2.06792
2.06437
3.63324
3.25813
3.28157
3.46162
3.31305
3.19205
2.64206
3.22649
3.2186
2.26829
2.45611
2.27991
2.50434
2.51956
2.61581
2.60569
2.4898
2.59877
3.00357
2.98674
3.21331
2.07507
3.1797
2.95486
2.78255
2.26067
2.26456
2.27596
2.72774
2.77783
2.67415
2.64634
2.55084
3.03009
2.96641
2.50729
2.47482
2.44218
2.4434
2.5068
2.44438
3.16084
3.2086
3.21804
2.8341
2.89955
3.0089
2.89394
2.81153
3.38535
3.20846
3.22116
2.99187
1.97979
1.96682
3.27047
3.14183
2.90757
2.95312
2.95655
3.19524
3.0569
3.1217
2.05293
2.0729
2.06677
2.07165
2.06041
3.50092
3.38773
1.97269
3.05802
2.48074
2.38069
2.84148
2.57845
2.84691
2.69379
2.5355
3.24601
3.14644
3.208
3.39216
3.42284
3.12904
2.71969
2.71078
2.06592
2.06681
2.06702
2.06649
2.06661
2.0716
3.13295
2.14184
2.05188
1.97025
2.01939
1.99086
3.33484
3.31849
3.11783
2.93464
2.5787
2.52186
2.683
2.41364
2.19359
2.45449
2.37479
3.25253
3.21003
3.3014
3.24569
3.19173
3.13909
3.11168
2.13675
2.1861
2.96172
2.97897
2.86495
2.93846
2.85051
3.08078
3.0674
3.09135
2.8469
2.93861
2.5682
2.72126
2.73424
2.54214
2.6307
2.75423
2.64267
2.66842
2.62369
2.72702
2.77644
3.12969
3.16865
3.1794
3.13545
3.16521
2.21686
2.17317
2.44416
2.28757
2.51186
2.37951
3.20675
3.28405
3.26611
3.30675
2.60817
2.74074
2.6685
2.67344
2.57667
2.43657
2.50553
2.0674
2.0689
3.46482
3.55161
3.11699
3.08468
3.09927
2.99249
2.03091
2.00778
1.96983
2.03128
2.00567
3.27863
3.27772
2.97703
2.93491
2.91349
2.76392
2.8055
2.70519
2.39166
2.42828
2.37064
2.38292
2.05786
2.0595
2.0567
2.05758
2.93868
3.12544
3.13772
3.09684
2.82265
2.87115
2.64165
3.28682
3.31091
3.43986
3.27339
3.35681
3.39216
2.14233
2.28764
2.11067
2.17067
2.96816
3.06265
3.04224
3.06351
2.98533
2.06792
2.06237
2.06433
3.69535
3.6695
2.92401
2.84104
2.72658
2.27701
2.49433
2.50913
2.29274
3.40079
3.43129
3.4168
3.46703
3.44379
3.4466
2.93333
2.98361
3.01632
2.90005
3.46896
3.64336
2.49257
2.58467
2.30886
3.63965
2.95598
2.90025
2.82553
2.46033
3.51299
3.15783
3.1816
1.98792
2.32896
2.26369
2.29088
2.32082
2.26473
2.26723
2.05174
2.04432
2.14483
2.0797
2.31467
2.37071
2.31477
2.34123
2.31514
2.37287
2.31424
2.34831
2.59399
2.4714
2.99803
3.44278
3.57339
2.68863
2.06135
2.04543
2.05217
2.05218
3.04172
2.93617
2.90868
3.21184
3.02282
2.94741
2.55495
3.16089
3.14127
3.16773
2.38716
2.36627
2.22328
2.21238
2.90731
2.96498
3.16229
3.17312
3.1064
3.16444
2.99105
3.01171
3.3988
3.36349
3.52845
2.71849
2.98508
2.93919
2.66446
2.8471
3.39755
3.35193
3.30563
3.21599
3.4227
2.01244
1.96501
2.9935
3.05683
3.10754
3.11028
2.99638
3.03475
3.08188
3.11246
3.06277
3.07758
3.11242
3.11855
2.99316
3.06622
3.00897
3.05088
3.34524
3.30475
3.35969
3.34102
1.95195
1.9329
1.99336
2.02898
2.8482
2.8375
3.42092
3.47376
3.38105
2.77901
2.78551
2.79526
3.30619
3.22533
3.25333
3.26825
3.31662
2.74888
2.95523
2.70326
2.76264
2.65475
2.65556
2.46196
2.44453
2.45306
2.56323
2.89462
2.99224
3.14623
3.1486
3.55767
3.5436
2.06943
2.06668
3.18294
3.14078
2.46061
2.43041
2.43189
2.39954
2.42534
2.43487
2.24112
2.1853
2.26412
2.12653
2.1432
2.21694
2.11719
2.85599
2.78879
2.79769
2.73436
2.91493
2.89021
2.81539
2.86869
2.81505
2.83874
3.3466
3.37613
3.41536
3.35451
3.41911
3.05272
3.0813
2.68146
2.57352
2.56326
2.7136
2.92702
2.96365
2.96693
2.79956
2.71497
1.96985
1.92605
2.38572
2.46962
2.7551
2.13253
2.09585
2.09892
2.21678
2.15841
3.19143
3.15746
3.17209
3.11152
3.15261
3.01782
3.06658
2.09764
2.16165
2.10893
2.11892
2.18911
2.10137
2.21055
2.31509
2.35192
2.23134
2.05489
2.04862
1.99525
3.59855
3.58749
3.6004
3.47769
3.6331
3.00322
2.92273
2.61738
2.91927
2.95364
2.88544
2.8773
2.21814
2.48599
2.3343
2.34602
2.22354
2.21841
2.1304
2.32915
2.28717
2.10902
2.13736
3.5802
3.49269
3.38153
3.36659
3.35517
2.9091
2.5196
2.76207
3.36808
3.60766
3.44116
3.12893
3.06133
3.09055
2.64437
2.54332
2.26296
2.20447
2.49843
2.25541
2.79764
2.83261
2.77753
2.84107
2.84304
2.87
2.79386
2.71334
2.70745
2.1906
2.1179
2.16293
2.61895
3.09202
2.6306
2.87689
3.11957
3.03034
2.83184
3.04728
2.87762
3.20394
3.3595
3.12232
2.69547
2.73837
2.83296
2.86862
2.03302
2.05943
2.09394
2.08966
3.09277
3.06796
2.07333
2.07143
2.76238
2.72289
2.76515
3.5803
1.93383
1.94881
1.98817
2.14437
2.06768
2.07666
2.56577
2.47985
3.0296
3.02375
2.97895
2.95688
2.3403
2.38709
2.57914
1.95215
2.57685
2.50453
2.43024
2.55357
2.45791
2.42913
2.58853
2.51183
2.57097
2.46382
2.52675
2.52461
2.68883
3.1627
3.14417
2.06574
2.10566
2.0251
3.06447
3.02664
3.03998
2.93843
2.91998
2.88593
2.99143
2.85257
2.73574
2.7588
2.75504
2.78271
2.58461
2.74518
2.68897
2.63689
2.72107
2.47195
2.46878
2.48038
2.49668
2.49253
2.79814
2.70312
2.70108
2.78819
2.73856
2.71706
2.6767
2.74615
2.73652
2.7371
2.71413
2.99422
2.94962
3.01041
2.98006
2.94688
3.37308
3.30932
3.32156
3.34522
3.36109
2.70694
2.77816
2.69856
2.80691
2.77163
3.22805
3.20648
1.99818
2.35789
2.45604
2.51428
2.95207
2.88461
2.2611
2.19382
2.19555
3.31908
3.20813
3.34215
3.7646
3.39427
3.33771
3.6379
3.65879
3.42727
3.59305
3.62483
3.53483
2.62534
2.73553
3.12808
3.10664
3.09999
3.12718
2.44662
2.34754
2.20486
2.62984
2.16428
2.39614
2.4363
2.27814
3.23923
3.39274
3.27194
3.97772
2.1894
2.30808
2.34698
2.65107
2.65819
2.49027
2.4764
2.81794
2.78621
4.48827
3.29399
3.19251
3.27066
3.31289
2.69329
2.83752
2.5993
2.39588
2.85896
2.90452
2.8891
2.91039
3.1601
3.1687
3.13159
3.12621
3.13531
3.14774
3.15463
3.12803
3.13347
2.40931
2.37099
2.80537
2.23963
2.24725
2.4864
2.41637
2.93728
2.84971
2.9134
2.94713
2.87318
2.81109
2.93358
2.97834
3.04016
2.91945
3.0944
3.21862
3.4042
3.58657
2.78291
2.78792
2.88671
2.83996
2.88887
2.85715
3.13739
3.14009
3.15615
3.16009
3.12533
3.14701
3.43799
3.23288
3.67147
3.45054
3.16412
3.1558
3.15356
3.12699
3.1487
3.17081
3.19568
2.83936
2.87761
2.87442
2.52308
2.14643
2.73924
2.80273
3.00628
3.00861
2.97143
2.94063
2.9623
2.49774
2.44634
2.45713
2.53269
2.50806
2.75964
2.6872
2.69792
2.79899
2.76502
2.09097
2.07025
2.09215
2.11019
2.06819
2.06405
2.29639
2.09552
2.10109
2.16088
2.17469
2.12605
3.8086
3.01005
3.01737
3.06069
3.05302
3.0679
1.93354
3.18106
3.22657
3.23849
3.16374
3.19263
2.73215
2.78665
2.7668
2.779
2.7486
2.82233
2.69959
2.91146
2.80415
2.82415
2.40124
2.56036
2.84652
2.71012
2.07126
2.08921
2.14954
2.19439
2.07765
2.12048
2.48933
2.42844
2.36258
2.262
2.30815
2.24201
3.14343
3.13654
2.01759
1.97749
1.9845
2.04374
2.05105
3.44926
3.35389
3.41179
3.35894
3.32842
3.1495
3.14252
3.21918
3.16866
3.32133
3.42615
3.37137
2.9012
2.86782
2.84753
2.66239
2.71608
2.73196
2.14334
2.10106
3.43879
3.52457
3.74621
3.08221
3.11571
1.95601
1.93509
2.37215
2.24874
2.20013
2.35974
2.12625
2.12745
2.93417
2.91822
2.95069
2.97864
2.97984
2.86881
2.89892
3.03868
2.97131
2.97696
3.08565
3.06183
3.34922
3.2031
3.11927
3.14705
3.27609
3.95415
4.69874
2.46192
2.43343
2.36646
2.38722
2.34221
3.12354
3.20592
3.13883
3.47787
3.64399
3.70196
2.39335
2.47493
2.49059
2.59146
2.57072
2.49786
2.45189
2.51366
2.62974
2.55654
2.48289
2.47809
2.49856
2.466
2.45916
2.49547
2.47238
2.70813
2.71472
2.71094
2.69693
2.70342
2.7083
2.70763
2.69581
2.91408
2.99781
3.13114
3.09137
3.25277
3.39613
3.22706
3.06273
3.09496
2.98341
2.99147
3.03376
3.02208
2.89201
2.93223
2.85567
2.64399
2.61453
2.62948
2.81047
2.86972
2.84133
3.25294
3.28111
3.26847
3.30677
3.25996
3.26987
3.17232
3.21325
3.08274
3.17575
3.06014
3.14118
3.13196
3.17231
3.17051
3.13728
2.0381
2.02589
1.99996
3.0441
3.02031
3.10496
2.83594
2.90562
2.90203
2.88595
2.90176
2.00051
2.02848
3.15793
3.11926
3.1033
3.10408
1.97901
2.00316
1.93795
2.8086
2.83934
3.15807
3.17254
3.17127
3.50666
3.41445
3.15764
3.18962
3.17613
3.17664
3.16477
2.31138
2.18032
2.50004
2.30189
2.37345
2.63557
2.45629
2.77524
2.71514
2.62911
2.78004
2.68244
2.81178
2.9983
3.20669
2.1643
2.18924
2.13104
2.31347
2.3071
2.46858
2.46672
2.6668
2.50243
2.47031
2.49507
2.4729
2.46255
3.55889
3.73848
4.12254
3.0924
3.10448
3.3906
2.69647
2.69551
2.66775
2.65785
2.70649
2.71344
2.06552
2.06783
2.08101
2.07264
2.06093
2.06129
2.55991
2.42456
2.47875
2.58518
2.32623
2.29633
2.8184
2.81047
2.74831
2.76737
2.76368
2.79415
3.40017
3.62436
3.50558
3.05558
2.96748
2.5867
2.02711
2.05678
2.02561
2.03909
2.04122
2.06069
2.95434
2.92497
3.10969
3.22744
3.24688
2.97306
2.95873
2.1013
2.12272
2.20547
2.15413
2.24111
2.32025
2.2029
2.45662
2.79165
2.5952
2.33768
2.17276
2.1496
2.30954
2.20137
1.94229
1.94748
2.55455
2.52919
2.4107
2.38836
2.34921
3.0339
3.06838
3.04769
3.0798
3.12423
3.15718
3.17598
3.16251
3.22431
3.14422
3.17862
3.22968
3.36709
3.38062
3.32414
3.38698
2.98353
2.94707
2.77671
2.81985
2.93414
2.82426
2.48673
2.4888
2.72764
2.72978
2.77182
2.74836
3.20936
3.20077
3.17939
3.18178
3.20221
2.39263
2.45124
2.32047
2.31301
2.35501
2.4221
3.03213
2.98961
3.02069
2.99672
2.87655
2.95081
2.93298
2.89069
3.13999
3.19188
2.58255
2.70583
2.7348
2.33875
2.29752
2.44667
2.50153
2.44501
2.84983
2.79023
2.51066
2.77881
2.44799
2.57777
2.65711
3.20391
3.18625
3.17943
3.21213
3.28749
3.31989
2.50279
2.30033
2.38783
3.27596
3.06674
3.16535
3.18561
3.25948
3.23929
3.23872
3.19407
3.4743
3.4481
3.37288
3.45627
3.38506
3.16596
3.21388
3.23716
3.19592
3.15459
2.25642
2.14479
2.09133
2.09788
2.0589
2.85113
2.92242
2.97413
3.27042
3.31439
3.2599
2.57674
2.6002
3.04147
2.94302
2.90477
2.9876
3.06725
1.98365
1.99088
2.03512
2.00372
2.03758
2.05525
2.05225
2.65826
2.69421
2.75514
2.7103
2.7571
3.16047
3.15041
3.4509
3.40363
3.38481
3.4616
3.46494
3.61742
2.85021
2.78566
2.7732
2.84781
2.76406
2.74353
2.64047
2.60685
2.83208
2.75983
3.28726
3.3086
3.2842
3.35816
2.74665
2.7592
2.73633
2.79468
2.71863
2.86102
2.83343
2.82265
2.76653
2.62251
2.54812
2.6142
2.61678
2.73489
2.55006
2.50834
2.45603
2.81014
2.76502
2.71813
2.84931
2.74933
3.20529
3.21892
3.31118
3.25815
3.20899
3.57789
3.75229
2.70162
2.75532
2.69225
3.28505
3.24243
3.30763
2.57632
2.45511
2.64732
2.77439
2.56432
2.47756
2.54021
2.38372
2.41138
2.37448
2.33876
2.40823
2.33697
2.39434
2.35536
2.39123
2.35522
2.38596
2.41239
2.72759
2.83251
2.74638
2.80383
2.81938
2.76884
3.34313
3.26056
3.31094
3.26955
3.37294
3.34445
3.36198
3.7172
3.93051
3.27251
3.31415
3.38774
3.24236
3.31187
2.3925
2.33821
2.37424
2.32982
2.36074
2.45276
2.48966
2.56483
2.48155
2.60689
2.581
2.74017
2.72608
2.8518
2.85006
2.98871
2.88287
2.96559
2.96336
2.89254
2.94694
3.00213
2.97797
2.48453
2.52172
2.40114
2.3838
2.34184
2.33107
2.36301
2.76831
2.65205
2.73167
2.41788
2.40057
2.45781
2.55598
2.53646
2.4864
2.4795
2.52919
2.40511
2.3672
2.39379
3.239
3.10608
3.22672
3.14236
3.6734
3.75096
2.69875
2.65214
2.59788
2.69175
2.63434
2.85804
2.78367
2.87216
2.79167
2.8409
2.8005
2.76675
2.80104
2.76799
2.73934
2.74561
2.80774
2.674
2.77231
2.71109
2.6833
3.38242
3.49503
2.8597
2.86409
2.16108
2.13904
2.09871
2.08635
2.95409
2.96333
2.42121
2.4567
2.76728
2.59837
2.54864
2.7683
3.32681
3.24661
3.13339
3.15687
3.31379
3.37349
3.35751
3.30545
3.35394
3.38466
3.36663
3.37823
3.37723
3.38934
3.04494
3.00098
2.96666
3.23224
3.32141
3.90696
3.92784
3.02067
2.98548
3.04188
2.22561
2.1058
2.17925
2.16967
2.07515
2.08856
3.06619
2.9453
2.76453
3.05893
2.91744
3.05724
2.24467
2.20557
2.37953
2.89315
2.96282
2.90355
2.94082
2.95349
2.93009
3.03006
3.00095
3.02085
2.51692
2.61871
2.79959
2.9128
2.89559
2.77241
2.83098
2.95846
2.97766
2.87475
2.85909
2.92061
2.66081
2.61435
2.72527
3.14036
3.09303
3.13775
3.06318
3.05645
2.14752
2.09127
2.10246
2.09456
2.12748
2.07949
2.0778
2.02672
1.97995
2.04556
2.02096
2.04116
3.25967
3.30491
3.22996
3.28199
3.07136
2.95544
2.8142
2.35448
2.35136
2.38024
2.62721
2.6654
2.73853
3.34909
3.38091
3.37193
3.34096
3.32664
3.33455
3.12941
3.22947
3.16621
2.02061
3.61651
3.35111
3.55075
2.14319
2.09166
2.24649
2.15597
2.1159
3.29199
3.35828
3.00285
3.02142
2.99392
2.06313
2.06976
2.43721
2.21082
2.11114
2.08511
3.22556
3.09781
3.12355
3.09982
2.18124
2.18444
2.73547
2.68659
2.64884
2.97019
2.8317
2.78588
3.12845
3.02187
2.65251
2.59147
2.74704
2.68722
3.1143
3.11786
3.11753
3.19789
3.98981
4.47387
3.89062
3.93702
2.54737
3.04514
1.73706
2.5161
2.49665
4.22966
5.20549
3.04844
4.62496
2.75584
4.97661
4.54692
4.03803
4.10321
4.63819
4.12231
4.10162
4.06115
4.22893
4.65091
3.7865
3.71007
3.88238
3.67951
3.96248
4.22461
4.74612
4.45908
1.99455
3.98278
4.16627
3.7829
4.08958
4.51893
4.23016
4.12186
4.66218
4.06221
3.97658
1.74757
1.82049
3.81673
4.36073
3.723
1.95587
4.23527
3.64574
3.96713
4.16856
4.08708
3.40158
4.18739
4.15214
4.21889
4.18863
4.02693
4.26774
4.11494
4.23895
4.13466
3.10634
3.07313
1.9137
1.84067
2.04238
4.11889
4.38976
3.69673
4.86856
4.18689
4.11703
4.24072
3.262
3.57463
2.96872
3.00477
2.48811
2.49594
4.08296
3.90725
3.95316
3.79324
3.3705
3.8226
3.41347
5.47556
4.51805
5.02611
4.88859
4.16374
4.1749
4.24347
4.00439
3.97653
3.85617
4.57102
4.52755
4.33402
4.16139
4.33031
4.22639
4.31285
4.0362
3.16185
3.27671
3.95277
4.02435
3.86742
2.75064
3.4054
3.87342
3.33104
2.65856
2.48578
2.5784
1.7315
1.90045
1.70207
4.45541
4.48534
4.74619
4.60953
4.21292
4.34522
4.38729
2.5566
5.17264
4.45687
3.88549
3.65271
3.73891
3.90187
3.72396
3.9407
3.72783
3.68296
3.81918
2.63822
2.69401
4.08322
3.89268
3.81307
4.25663
3.85798
4.55122
4.56808
4.68074
1.68978
1.86367
4.05224
4.12146
3.98555
4.03206
3.42305
1.64125
2.13417
2.58803
2.5148
2.54548
3.3638
3.84775
3.26904
1.73193
2.00651
2.15215
2.23123
1.81042
2.04365
3.88355
3.99658
4.28465
4.04954
4.42593
4.01446
4.23607
4.0879
4.13386
4.32428
3.32416
1.69035
1.85506
1.68532
1.87904
4.05082
3.94828
4.05424
4.44223
4.05629
5.58122
4.90291
5.00538
4.2904
1.67596
1.79984
1.97833
1.91897
2.15331
2.25703
2.0077
2.13271
4.54685
4.32451
2.00722
1.98614
1.72607
1.90831
4.80233
4.49916
2.2028
4.60134
3.9624
4.23494
4.68807
1.87614
1.66429
1.85588
4.22891
2.64443
2.59276
2.70492
4.89404
4.21966
4.38978
3.45447
3.53966
1.74499
1.92633
4.85028
4.34114
5.08656
4.18668
5.02869
3.87578
4.18424
4.45525
1.70234
1.89482
1.85363
1.69404
1.87166
1.6535
4.62393
4.15767
4.71232
2.3344
2.39107
3.0246
2.98308
2.80699
2.8704
2.91363
1.65734
1.83518
3.85291
3.79077
3.79083
3.62672
5.03196
3.85045
5.31661
4.07692
4.5295
4.15415
1.80886
1.6823
1.86124
4.75412
5.08877
4.75529
4.8029
1.83515
1.67694
1.85401
2.34855
2.58018
2.42104
2.27291
2.58966
2.30504
1.67482
2.41619
2.65068
2.43207
2.02508
2.19441
2.27199
5.41069
4.24629
2.53892
2.54169
4.08491
4.15114
4.06649
4.76202
4.6434
5.11498
2.88377
2.8231
2.93791
5.45568
4.58794
4.97338
4.6408
4.51628
1.88095
2.1127
3.48663
4.0522
3.41968
3.54454
4.75127
4.21179
4.067
4.23942
1.65574
5.33172
4.23546
2.661
2.64189
2.68509
3.11746
3.08081
3.17119
1.68711
3.80056
4.11152
4.03095
1.68269
1.83113
4.30452
4.42957
4.31895
1.64753
1.80507
4.59689
3.60401
3.73393
4.39903
4.03701
4.35734
4.3493
4.01456
4.19387
1.65386
1.80396
1.80041
5.17502
1.68653
4.17183
4.16518
4.20733
5.34167
5.03513
6.86778
5.66399
1.92156
2.10752
4.53176
4.15725
4.3785
4.713
1.99157
1.79579
5.36332
4.55038
1.61787
1.79755
1.68986
1.84512
1.85602
5.3975
4.21997
4.55491
1.8346
1.64049
1.79079
7.1419
6.19924
5.34252
4.39413
4.47064
2.68218
2.67982
1.67648
1.84321
1.82175
4.70535
4.19362
3.8064
6.26952
5.02745
5.66545
4.58616
4.49759
1.81203
1.6183
1.81012
3.49419
3.30933
1.68231
1.87047
1.8566
3.52468
4.43076
4.03209
4.58815
5.09
3.98128
4.539
4.65042
4.60355
5.35018
4.13303
4.39724
1.72705
1.90449
1.87464
5.66109
4.57996
4.62704
1.84783
2.03141
4.0356
4.72959
3.41401
4.4957
3.73424
1.96526
4.33163
4.15204
4.90934
4.57331
4.70751
3.80763
4.17741
4.02217
3.794
4.0967
1.80044
1.91518
4.19888
3.27943
3.29156
1.74688
1.86028
1.7425
1.85464
3.49087
2.54016
2.58678
2.12858
2.01961
2.10604
3.16347
3.4024
3.1708
3.20798
2.11705
3.14651
3.04064
3.2805
2.52416
2.41255
3.1531
3.29234
3.38467
2.37593
2.8571
3.22828
2.98453
2.96703
2.86875
2.34009
2.8256
3.30995
3.37914
2.92643
2.607
3.17779
3.14489
3.16995
2.92641
2.86008
2.78989
2.05738
3.25414
3.2027
2.51531
2.07049
2.06236
2.88017
3.17764
3.15616
3.15077
3.15113
3.03617
3.03409
3.06041
3.26
3.50695
2.51941
2.95884
2.05357
3.31441
3.28078
3.48234
2.51697
3.40359
2.56836
2.85692
2.97801
2.78018
2.88702
2.08594
3.34926
2.32713
2.92064
2.59659
3.27454
2.80461
2.71113
2.36602
2.61759
2.71826
2.64556
2.30579
2.34556
2.7096
2.45482
2.08744
2.09132
2.71798
2.21147
2.4043
3.013
2.55101
2.76988
3.13055
2.88358
2.83484
2.83771
2.51884
3.06955
3.26431
3.21026
3.16232
2.55014
2.38734
2.81271
2.8035
3.22517
3.03815
3.07392
3.18547
3.18368
3.17739
2.19035
2.23235
3.04191
2.58135
2.03983
3.08825
3.04721
2.87214
3.23334
3.18439
2.67607
2.61516
3.30793
3.26668
3.34115
3.08785
2.84753
3.2093
3.08889
3.11294
2.47821
3.0905
2.81088
2.58789
2.07352
3.04784
3.30149
2.85375
3.22288
3.20743
2.89947
2.85919
3.30722
2.50769
2.46845
2.51381
3.5353
3.25028
2.13537
3.57125
2.04899
2.80869
2.69035
2.28863
3.29636
3.26467
3.40417
3.00292
3.38326
3.36144
3.39312
3.3949
3.40523
3.04292
3.2824
2.10489
2.11415
2.75035
2.73879
2.69719
2.62223
3.31883
3.29177
3.24627
3.24785
3.41243
3.37053
2.97965
2.65809
2.36217
3.06657
2.79649
3.20566
3.1707
3.02748
3.376
3.29003
3.32648
2.96523
2.93801
3.16748
2.1752
2.491
3.24576
3.23394
3.26619
3.24953
3.20009
3.2022
2.1212
3.45149
3.51485
3.49333
2.87377
2.99554
3.06521
2.88413
3.02913
2.99012
3.05816
2.84756
3.60737
3.78235
2.88448
3.49467
2.40191
2.47001
2.40842
2.67853
2.06972
3.51338
3.2316
3.16922
2.52364
2.54131
2.60417
2.6229
2.58539
3.51069
3.75204
2.63198
3.39966
2.94464
2.99277
2.80322
2.93642
2.87729
2.88721
2.42292
2.33043
2.33363
2.3594
2.34107
2.80536
2.88118
2.92037
2.2382
2.45879
2.80576
2.56741
2.6191
3.2433
3.12234
3.09057
3.115
2.52851
2.86046
2.80756
3.41824
3.16653
3.20877
3.25507
3.23509
2.58619
2.64664
2.07061
2.11189
2.12923
2.76168
3.27604
3.3432
3.27411
3.29737
3.18945
3.18019
3.19642
2.71068
2.69634
2.77543
3.44792
3.36293
3.45714
3.36358
2.82176
2.75157
2.88771
3.1503
3.00471
3.04965
2.97265
3.40862
3.20513
3.62093
3.51963
3.80604
2.02118
2.88897
2.78484
2.78111
2.89978
2.97307
2.45169
2.4756
3.09995
3.18017
3.23432
3.24753
3.25788
3.43371
3.26385
3.22137
3.19717
3.28167
2.92308
2.77473
2.82816
2.76416
2.84704
2.81204
3.04907
3.45153
3.33474
3.397
2.00172
3.29362
2.67658
2.48595
3.19428
3.22275
2.57532
2.41031
3.15874
3.11062
2.119
3.16149
2.94763
2.9569
2.76503
3.18028
2.88944
2.84605
2.81957
3.04146
2.54577
2.71836
2.92122
3.12889
3.10641
3.30749
2.76928
2.84181
2.85902
2.05807
2.71688
2.73162
3.09504
3.24536
3.16903
3.23375
3.15185
3.08894
2.65627
2.58134
2.69323
2.52203
3.03476
3.21048
3.29315
3.28943
3.3235
3.38745
2.77999
3.05895
2.9979
2.71901
3.42655
2.74054
3.25685
2.94078
2.48857
2.55675