/*--------------------------------*- C++ -*----------------------------------*\
| =========                 |                                                 |
| \\      /  F ield         | OpenFOAM: The Open Source CFD Toolbox           |
|  \\    /   O peration     | Version:  2206                                  |
|   \\  /    A nd           | Website:  www.openfoam.com                      |
|    \\/     M anipulation  |                                                 |
\*---------------------------------------------------------------------------*/
FoamFile
{
    version     2.0;
    format      ascii;
    arch        "LSB;label=32;scalar=64";
    class       volScalarField;
    location    "120";
    object      p;
}
// * * * * * * * * * * * * * * * * * * * * * * * * * * * * * * * * * * * * * //

dimensions      [0 2 -2 0 0 0 0];

internalField   nonuniform List<scalar> 
184166
(
41.816
123.595
9.45661
32.0398
59.4804
15.674
13.1514
10.4315
40.9571
62.5196
22.4374
4.50314
6.53062
72.9714
55.4573
42.0393
27.9682
91.8554
18.3565
60.3317
19.3746
10.9023
16.2208
64.5146
32.3063
53.6871
62.6694
12.419
51.9086
6.72551
41.3841
128.46
48.7221
74.6323
27.133
1.99984
6.35665
23.64
67.5676
126.789
78.6547
2.572
50.9286
85.7965
26.1091
79.6422
127.576
64.74
26.0678
53.1478
14.9997
129.335
14.8636
35.7603
27.5756
11.1439
24.8258
28.4175
50.282
63.8697
3.49655
62.3923
40.0861
14.2724
56.8517
11.1657
122.956
57.4561
13.1418
59.775
10.321
66.4776
50.4445
39.01
19.5823
20.3846
102.401
40.126
105.121
121.795
123.166
108.72
61.4803
12.7765
43.0219
34.0219
18.7625
17.7475
87.0713
19.9061
12.1049
57.8207
41.9217
65.7636
40.5573
128.028
35.1797
129.792
17.9659
40.76
6.57904
3.46416
40.9878
51.7015
13.5348
23.5036
41.626
59.2316
12.5359
3.99058
125.758
49.8616
130.398
16.9556
57.6445
70.7455
53.6408
17.4131
124.897
125.03
41.171
2.84607
25.7458
25.1653
22.1318
40.0383
26.3911
29.0968
48.4416
49.544
6.80724
27.5153
79.6409
89.8314
23.716
1.4332
22.8151
70.5893
86.8598
18.4036
32.6662
13.6687
13.2523
2.95045
69.9154
58.8953
10.0324
53.6449
11.9175
57.8335
62.9255
58.5957
42.3348
35.5861
49.0681
51.1283
43.3789
40.0726
38.277
16.558
130.344
15.2518
9.97915
25.2968
106.383
27.9861
55.938
54.6318
12.2032
56.1636
28.9267
42.4524
13.3675
69.9117
28.2174
124.587
21.4572
45.1701
49.592
70.9526
12.0928
1.81587
76.2986
58.6571
61.5248
34.3446
54.0632
65.346
128.703
13.0442
90.1368
50.3625
9.46114
129.863
6.84517
57.3568
54.6959
35.6074
13.3206
62.0427
24.3246
50.8537
12.0758
93.0207
126.979
34.5005
5.52923
7.031
82.7211
31.1406
49.8487
9.79847
7.52138
66.5591
117.109
25.412
73.5612
16.9022
15.6822
126.519
107.617
11.4672
11.5889
3.73309
127.664
5.85174
21.7671
25.6736
31.4161
10.0837
53.1622
111.463
25.8574
2.14859
42.5265
4.36481
52.6031
50.6795
3.07917
129.319
130.503
41.1759
34.315
50.6488
15.2057
61.788
53.8483
5.93506
73.4809
64.3279
68.6061
61.6526
50.7631
6.13118
68.2623
46.8412
55.54
54.8135
84.5231
2.15403
67.7754
126.409
26.6486
81.7567
48.3007
32.969
42.1321
22.4407
33.7007
66.5723
53.9765
16.585
69.6638
51.0839
2.4248
95.5176
129.173
55.6064
108.397
58.4681
6.36493
49.8703
53.5147
30.6273
127.388
7.93538
9.23086
56.4264
95.2324
8.44933
65.1246
66.0676
51.8951
29.4893
47.6218
66.6098
12.012
40.1573
71.5093
57.5716
26.6969
10.3596
16.0766
54.6007
63.2128
77.613
29.4327
4.64667
20.7385
12.5489
29.796
52.1311
50.4044
59.2854
56.6766
58.0363
99.0173
66.0237
23.3732
67.2985
20.0919
21.885
73.5132
64.4391
93.7543
13.3876
90.838
99.9336
6.49132
25.9661
25.3727
17.2498
16.7748
49.7991
12.6748
83.5428
6.15822
9.73331
57.6738
63.6158
89.4816
44.4969
55.5576
66.5263
85.7538
63.5028
119.269
12.5831
30.3843
14.748
127.587
27.3139
51.4779
124.471
20.9615
60.8652
46.9704
85.5315
59.3024
53.4284
108.06
11.9364
49.3667
109.848
40.9753
68.4794
12.9375
119.54
122.466
12.2266
129.005
52.5959
51.7815
67.3845
71.3749
71.4539
7.75545
54.0438
0.91429
61.0403
60.7366
60.0533
49.4717
49.7722
43.1324
73.6024
69.3675
111.432
30.758
32.1155
38.2881
42.9654
41.1706
130.125
12.1487
12.1563
69.6747
91.0217
11.9512
84.2126
53.4589
6.8345
48.4329
15.8762
15.0808
83.3584
72.4685
70.2518
54.2121
106.176
97.69
23.0411
23.3743
20.8035
20.8879
121.189
24.658
21.4809
19.5827
16.474
49.7593
73.4418
76.7656
73.287
69.2985
12.528
13.5602
14.9739
8.23495
9.04612
9.46725
123.211
48.8923
48.8221
47.8869
46.8321
46.4536
45.6075
31.0836
32.0088
9.76495
10.4695
10.2938
9.4801
11.1595
11.343
11.7155
10.8393
60.4438
59.8791
59.0882
60.2135
58.3137
58.4822
56.9028
24.2209
22.9881
23.7184
24.5129
78.0821
1.67167
126.539
128.176
128.705
128.443
123.038
128.64
125.516
14.0652
13.7777
15.3917
14.6125
23.6722
24.5464
3.68463
6.92614
8.61855
9.47327
47.1478
49.3887
48.3283
49.3089
12.1342
12.1737
2.19445
3.31995
2.83144
4.9862
4.06952
4.41548
64.6955
5.28434
6.05298
6.01286
128.311
39.6672
35.4225
33.7622
36.7697
38.1701
36.58
36.7205
22.915
21.9595
23.411
22.7847
20.3264
20.5158
23.3404
36.9515
36.4566
12.3542
12.238
129.648
86.4718
76.4244
76.4203
52.7978
51.2985
52.5432
52.0378
59.6094
63.6851
15.7325
16.6137
15.8185
15.3524
82.2939
80.6498
71.5686
76.9277
56.164
55.7817
55.0678
66.2819
61.8865
63.7749
44.3194
43.8383
43.815
42.8814
42.9172
41.9662
39.6013
39.1518
29.866
28.4586
17.5955
96.3159
109.835
115.042
101.609
109.49
102.233
104.934
113.696
106.185
120.932
124.571
38.7608
36.4329
38.2248
37.3338
33.6562
35.9011
35.2755
34.6436
40.4074
37.8889
53.9691
54.8793
55.193
63.3355
40.1569
64.4663
125.398
115.136
12.1574
12.071
12.6412
12.2485
46.0715
43.2077
66.9572
74.0883
70.7743
74.9582
63.1082
67.9499
35.7049
34.5267
48.6588
47.5204
47.204
127.711
17.9013
16.9517
17.3248
33.0267
35.2819
33.9474
35.1345
35.6666
37.8676
36.5574
37.7947
20.9273
21.6802
22.3107
2.45971
128.229
128.528
128.381
57.7935
61.2379
61.3953
59.7287
64.4653
60.3718
64.8087
62.6384
7.77683
8.87901
7.4247
8.18265
68.0409
64.5932
15.4781
10.7825
11.0018
11.7083
85.0547
76.8747
71.5281
66.7752
3.33413
1.86618
26.1485
25.0965
25.3585
56.3293
15.0899
59.1413
56.8973
57.9178
59.0795
61.6457
59.2058
60.4013
61.8295
15.7474
18.6052
10.3897
11.5767
10.8368
10.2942
10.3316
37.2479
36.9604
36.0783
34.8053
34.4211
33.4168
128.629
66.0096
72.2398
65.6612
68.5963
3.22998
14.6682
15.8951
15.6311
58.3354
58.0253
57.3106
119.362
129.015
128.339
122.302
123.583
128.274
59.6889
126.968
124.6
37.6522
37.5714
36.6814
1.64873
2.07715
2.33163
2.51916
1.42187
1.25425
56.2096
54.0096
54.927
56.0783
55.208
54.4425
20.2933
20.4578
43.9014
38.5844
34.8207
36.0821
20.4751
28.4181
38.0041
37.5037
61.1656
59.8937
59.8775
8.05878
7.58967
9.35254
8.23837
25.5474
32.5255
57.601
56.2275
57.3621
100.473
94.5325
16.2058
17.1562
17.2535
48.8125
22.6505
24.139
66.571
64.3847
66.4516
64.5105
68.5269
68.0296
9.13176
11.4322
11.3141
45.8981
38.354
42.8875
45.6193
1.12237
111.078
129.807
129.193
129.569
44.2545
30.6914
21.1258
28.1809
43.1643
36.735
58.4007
57.7722
86.5465
80.7658
85.2641
81.0649
24.3521
21.9597
24.8057
23.3044
1.84953
1.07332
1.27308
1.05224
1.66313
1.86624
5.83431
5.83916
5.88679
57.5663
30.4076
1.05294
1.39953
1.08367
59.6417
58.7384
58.7595
58.5988
51.3751
50.8983
51.7269
61.8021
21.8975
22.2547
21.3911
113.241
110.598
12.0417
12.0987
12.0953
12.1192
105.522
115.153
117.382
119.023
123.215
126.108
20.703
21.5893
61.4107
61.9327
63.1559
63.0666
86.4786
79.7783
78.2199
37.1926
2.86765
3.27909
2.46481
2.57026
127.249
128.175
42.7041
43.0028
12.4832
13.495
12.8245
12.3449
41.2377
15.4283
20.3161
16.0114
17.9006
9.32904
10.2956
9.66149
8.62116
32.9982
83.6498
78.7529
83.8159
79.9608
21.905
22.0353
38.088
21.1052
19.2365
21.3683
19.2711
83.7389
98.7098
12.0907
23.5198
24.2502
62.7807
4.8718
1.60947
22.9102
20.8452
21.9254
23.3816
12.1213
12.0752
63.6919
64.6001
43.0262
52.4788
46.2749
52.1037
129.96
130.353
21.4587
22.068
42.622
45.1548
43.963
112.591
85.9631
101.855
87.9312
129.69
128.817
45.986
46.0005
48.0304
47.0502
48.3262
47.0424
14.9375
18.7836
26.909
25.4955
43.3156
49.3644
40.1715
43.3273
121.814
122.469
40.3808
41.4142
55.7135
55.7954
17.8254
16.8612
16.4648
17.2012
60.7237
59.7785
59.552
110.58
90.4033
103.641
9.54061
8.74861
9.26946
8.64768
23.3945
23.9013
79.4542
72.0917
70.5727
66.7998
64.9836
69.7023
66.7917
46.8402
44.6488
44.0784
42.9852
63.4238
61.768
33.5462
31.852
26.8638
28.2164
4.59928
3.3809
3.78303
4.3711
4.44535
4.83905
100.934
8.8813
8.99802
8.31134
7.53447
86.023
71.7451
71.9518
82.0915
89.6814
86.7034
100.174
54.3092
53.0868
53.6253
54.594
15.1947
14.2827
16.6641
16.1459
14.7945
18.3703
19.062
19.7763
35.0104
34.1753
81.1783
82.5581
71.7829
69.0459
25.6123
24.5285
24.8498
39.0618
37.9661
3.83511
3.796
19.5755
4.62539
3.62273
3.35569
2.16808
2.83823
65.7963
62.1779
62.7179
64.7493
41.9008
41.944
41.2649
41.0934
61.8781
68.1671
71.0878
73.0927
13.758
15.7804
16.4634
18.0411
15.0548
35.8601
35.0491
36.7619
35.8556
13.6097
16.007
13.4747
120.135
58.3243
56.2897
18.0422
16.6948
46.2322
44.4722
25.4766
26.2019
16.6828
17.1062
17.7839
17.0539
120.886
129.404
129.838
129.221
50.4237
50.6549
52.6612
51.7542
60.3668
59.4298
59.7932
70.2869
66.4577
66.2721
71.0813
64.0362
64.4942
49.8691
37.5076
43.1015
30.9761
9.09915
10.8696
9.56245
10.3114
73.8693
81.525
74.4141
85.7914
79.857
94.6741
97.9773
81.8226
90.9916
46.5793
51.0935
39.0763
40.9287
49.1335
21.731
20.8666
40.3536
48.7456
47.7953
47.849
47.5421
14.0918
129.716
130.072
15.208
14.9113
61.901
65.0994
60.4029
59.5726
6.7136
7.76194
113.934
126.776
85.9739
2.93356
2.65214
46.042
43.9341
2.3206
3.03087
2.53751
130.056
129.942
129.737
50.8491
51.9912
52.5024
51.7006
126.378
126.141
35.1533
35.4822
30.8581
24.1672
25.414
47.4444
47.1053
51.7216
51.9961
53.1909
12.0507
12.067
12.0445
12.0606
12.0931
97.4299
5.37384
84.9558
84.6847
94.8725
90.0604
27.8145
18.1747
18.973
18.4847
17.8083
73.1286
51.9721
52.7193
53.7059
53.1579
8.90076
8.16405
8.69283
8.00982
2.53139
1.87667
61.2176
62.3685
59.5649
59.1517
52.0378
54.3084
48.5856
31.0947
31.2251
28.2327
32.1876
16.5439
18.1928
25.9598
121.258
101.759
113.722
118.733
107.498
5.21983
5.90315
61.9216
13.2697
14.9363
13.9141
15.0363
27.5614
27.4404
26.0981
12.3422
12.2556
12.2715
12.3452
29.1371
26.1587
20.7267
14.9594
13.9312
12.0986
12.1637
1.60965
1.75867
2.54869
2.09998
2.61335
67.7
24.4946
21.0063
129.011
129.814
128.511
130.545
130.355
82.0029
84.6058
18.6503
17.7883
18.3052
17.503
69.445
64.6877
3.94408
3.4392
3.46364
127.847
121.645
1.00866
1.20563
13.1043
13.0405
13.4934
47.845
49.9446
49.2523
61.4103
65.3841
63.3635
61.4005
64.1119
65.6814
129.091
17.545
15.1237
111.278
114.628
101.529
99.7854
121.322
122.757
11.4083
12.5032
11.1457
11.7344
14.6402
14.4856
15.1474
15.2118
28.2376
27.8942
25.5407
26.5383
23.2748
27.152
23.3807
25.576
3.56087
2.76191
107.275
113.672
100.548
72.3954
81.1228
77.42
83.9443
118.964
95.4267
101.206
49.7268
37.1076
42.9921
30.1574
75.6236
75.8778
52.8811
73.6391
77.0094
80.7981
14.1521
16.1948
54.176
53.9732
66.8837
65.2194
67.0052
65.5243
77.5332
79.4813
77.3097
21.3739
21.837
20.6758
65.4852
64.7466
70.4504
67.0571
44.2729
43.5445
6.9607
7.16885
129.063
128.797
129.353
12.5471
12.4652
129.396
128.554
129.61
7.80011
7.32952
7.35063
8.56193
8.03259
23.4076
23.3913
24.2264
22.7236
22.7908
57.8272
58.3241
55.4398
56.5674
18.5481
18.544
12.1324
12.1478
12.2445
12.3295
12.3243
14.3011
15.0369
57.8275
57.7866
57.5206
38.3005
39.3527
38.8216
38.6042
39.4287
68.0012
30.6402
29.673
29.3751
16.0852
16.72
17.2729
77.2655
86.4062
84.9658
76.0032
80.2975
60.7749
58.7784
62.5238
62.1367
68.5281
74.6903
81.4874
44.0933
45.1615
42.9166
42.7531
65.829
128.927
20.5081
20.6141
21.4042
21.2978
60.1425
59.2972
60.9297
59.6279
60.8275
11.5482
11.0996
130.458
130.565
130.403
130.264
130.433
12.4198
29.9067
29.3196
80.172
84.4368
90.726
12.9985
16.2357
16.8764
20.9842
30.5258
21.9013
125.418
121.656
116.091
116.06
125.835
122.313
28.5274
28.173
28.4928
130.185
37.3596
32.3642
25.9857
14.4899
14.5678
14.3827
108.954
104.747
111.688
54.3607
45.2068
1.56751
1.88617
7.65359
6.91089
7.3329
6.61955
8.21962
7.67574
19.2103
18.6164
19.7101
51.1014
51.0006
52.4872
1.65486
1.28607
70.7601
78.9907
73.5534
80.3742
12.2151
12.1462
5.34325
67.6144
57.1852
56.9279
56.3494
10.6784
10.3477
10.0346
130.293
129.879
130.424
130.208
129.919
16.9217
17.583
12.2662
91.071
111.447
29.6926
29.9761
24.937
30.1505
26.5796
23.2108
31.6497
32.8336
32.7221
63.1599
63.9438
64.1786
48.6394
49.2166
130.518
130.508
130.381
130.489
130.603
130.497
54.5376
13.8347
11.8715
130.324
130.097
129.926
36.0263
37.6067
32.2637
28.9208
46.5096
20.5966
24.3492
18.9691
16.6213
24.1213
21.8879
74.9551
73.0709
71.4837
68.719
68.7464
21.3149
21.1231
15.0612
16.5414
70.5007
73.1638
71.2275
73.7337
28.6734
31.9553
32.812
33.0756
28.0137
29.583
19.4383
22.0602
22.0383
18.3996
19.8
4.16232
3.04724
4.11528
3.58767
3.16542
3.65162
36.9591
37.7982
37.4293
36.0944
36.3584
114.339
115.697
94.1247
105.037
88.7282
101.852
80.2032
83.3687
76.3112
77.2312
7.22847
8.3722
7.47219
66.9491
75.401
89.8439
83.2838
130.572
130.546
19.6804
18.7762
30.9892
29.7524
31.2098
29.7016
12.061
12.0667
12.0566
12.0824
12.0854
44.4772
45.8982
54.9854
55.3215
55.8493
98.1736
106.066
108.391
126.532
125.293
127.477
127.404
12.0392
12.0413
12.1135
12.1584
32.6421
36.249
37.1943
36.3329
30.3527
31.4252
53.3506
27.1242
27.2365
26.7437
26.1797
25.8796
42.0679
14.6606
21.0696
13.261
16.3151
67.6184
71.3097
68.1173
72.5996
70.2105
130.366
130.409
130.588
49.8434
50.4684
1.51053
1.33762
33.1211
19.5592
26.7277
27.6727
21.0515
41.4246
41.0075
42.5108
43.3355
41.6823
40.9515
70.2373
64.6413
65.6252
66.7456
15.8984
15.3183
26.5165
28.7376
21.1653
45.9209
79.2178
83.7049
85.6555
104.094
1.47867
31.7218
31.3462
12.2572
15.3905
14.1426
13.9875
14.7909
13.683
14.0626
12.1204
10.8363
14.713
11.1591
12.471
13.6562
12.8929
13.3847
12.4638
13.8087
12.9473
13.6698
41.2069
35.7836
80.7376
27.8984
28.1321
57.8779
12.3336
12.3983
12.2636
12.3466
62.4002
63.4235
63.7442
62.0963
62.9701
101.217
112.344
44.8567
44.4204
43.3988
20.1339
19.0438
16.7208
16.0334
28.8999
31.3051
33.7718
34.6521
1.3294
1.21727
62.9869
62.0577
19.277
18.644
17.9698
83.5849
72.6379
72.8334
89.748
82.3878
47.9584
47.8589
48.4695
61.5465
60.6502
128.653
128.445
57.368
57.5606
55.9145
56.3744
56.8791
56.261
20.1064
20.2932
19.4169
18.9055
19.0171
19.6665
56.8193
55.2524
56.1161
55.3152
48.4236
50.441
48.5782
49.4893
11.9803
12.2612
12.2238
12.1806
58.8588
57.5285
61.9148
62.7235
59.9025
56.6263
55.9475
56.4435
46.9363
45.2172
46.298
45.3073
46.1578
39.0785
34.1757
28.3177
29.6817
112.066
111.029
120.2
123.125
121.747
116.582
100.741
95.9765
86.9949
88.2895
25.1176
25.6686
128.388
128.32
39.9552
39.6411
127.957
126.585
126.703
127.975
127.614
127.233
17.9799
16.7223
18.5243
128.203
128.071
125.223
128.05
89.794
89.4206
95.9127
102.085
62.8665
61.8378
66.8616
65.2465
64.5614
62.6391
58.2617
59.7026
61.0342
58.9296
60.8118
6.79849
6.08344
111.064
118.103
119.392
58.9855
60.1103
60.4073
61.1433
8.01469
7.09604
12.3442
12.2448
108.694
104.143
90.7506
15.1331
14.1793
14.0227
17.1548
16.1064
46.4988
45.1734
45.3766
52.8324
51.8264
71.7317
69.7701
127.472
122.486
127.514
126.628
121.149
13.7979
116.159
107.172
103.169
111.629
127.987
127.728
128.633
68.0817
77.0116
71.3301
77.235
69.7448
95.7789
99.0781
108.264
57.2333
57.5031
58.2356
57.818
120.278
99.5811
111.436
109.474
118.271
18.5876
13.9741
23.5163
22.5958
13.4669
14.3638
24.0814
23.387
57.3634
56.0465
57.555
46.6662
31.9374
40.1852
39.4341
39.5304
38.4195
53.3188
54.5813
54.3973
108.198
111.698
120.962
124.244
114.264
122.355
74.186
73.5233
71.9493
71.429
15.3755
15.2298
13.7398
13.6108
12.967
17.536
12.9441
15.6522
92.0617
73.877
93.0382
83.2608
65.9759
66.4997
76.4987
72.4054
77.6033
8.22051
7.8785
7.53976
74.3454
72.1247
67.7703
64.7251
12.0417
11.6316
12.3188
12.1904
4.59458
5.28721
12.2448
12.2927
65.5701
66.4599
65.3949
13.3585
12.3821
12.377
12.3938
126.007
130.361
129.711
11.6957
10.5662
8.50312
9.4139
9.53993
8.92847
25.2188
28.582
39.5243
130.567
17.1038
15.6315
14.674
17.2438
15.6689
14.83
17.7881
15.9797
18.0455
16.2018
22.1865
21.7654
24.8349
22.5897
22.0199
11.7955
12.432
11.7359
24.8486
23.7152
25.1714
23.9769
22.5261
22.5111
66.8621
66.8474
69.5916
67.9314
69.248
67.5405
44.301
53.7975
51.6891
47.8104
51.5496
3.81309
3.39676
3.25747
3.59891
3.98485
99.8184
108.874
107.782
97.143
102.372
54.6243
52.9121
56.811
55.4157
57.0345
56.4139
55.9556
56.3034
55.2948
55.2963
55.9116
48.1286
50.0425
49.295
49.2503
48.4456
7.08042
8.47621
7.6385
8.07383
7.28567
62.2337
63.6548
127.362
116.164
110.813
109.54
94.6338
95.6873
16.2787
14.5835
14.9926
58.9446
59.6719
59.6266
52.2118
79.5124
84.6685
69.4539
68.9364
81.6384
75.0169
72.9915
79.1783
7.97752
9.06889
52.3185
54.0265
54.163
53.1803
32.8907
26.7475
16.8878
36.8326
16.434
25.4562
27.2845
21.4198
43.9819
43.3297
42.86
50.8275
16.9855
24.3292
27.2915
84.4607
79.0208
92.1125
94.6151
74.2858
73.0955
58.5024
60.7242
60.6834
49.8915
49.8217
36.1908
41.7147
34.5643
26.8519
60.4927
61.9169
60.6512
61.249
52.2631
51.1262
51.8598
52.9042
50.8839
49.0045
50.3595
49.7363
48.6908
91.2139
95.5141
44.007
126.194
124.228
115.468
117.909
5.39173
4.45906
4.26571
4.88742
2.80072
2.94618
100.127
94.5275
89.3324
98.414
90.5452
30.3726
29.7372
30.2903
5.3737
5.90869
5.63394
5.11758
6.26095
6.5438
33.2522
33.865
34.2899
33.6263
32.6512
32.7622
44.7518
46.2659
44.7157
45.7722
45.2965
45.8772
46.9905
47.2639
47.7469
46.1483
45.5122
56.34
56.2978
56.6919
1.99675
117.589
60.9569
59.5537
7.35498
8.03347
8.33747
7.76761
7.17021
10.0328
8.96674
8.69747
10.1327
9.32559
10.6014
9.58094
9.05005
10.4158
9.37596
12.9475
12.5187
12.7785
13.5323
12.4318
12.3699
109.076
128.488
127.716
123.115
123.942
126.063
26.545
57.5528
56.8834
55.8871
57.5157
56.336
130.559
38.4087
39.2497
40.0443
38.6193
39.3999
59.3676
58.5337
58.4503
59.2545
59.7171
6.16798
5.28278
8.17821
7.25404
7.7491
108.319
103.618
90.3398
93.8414
130.219
128.973
126.175
123.449
129.597
127.205
21.8873
20.4738
19.238
16.9468
17.656
16.2246
18.3247
17.9014
129.099
128.922
129.452
12.193
12.2
65.7912
62.303
63.5244
64.6789
62.9975
53.1128
58.354
60.3034
58.888
62.434
65.4112
63.3245
56.3404
57.2777
56.4774
72.1718
65.6204
67.3824
125.666
128.443
16.8039
17.3215
16.1725
18.3426
17.7492
12.0233
12.1529
29.7252
21.6974
17.2082
28.755
13.8042
14.145
58.9143
58.4598
58.0827
58.8276
58.1015
8.33943
8.99789
77.3965
74.039
71.169
72.6573
76.8423
6.5266
5.91087
6.3386
6.98308
7.10736
59.476
58.2331
16.8705
15.916
14.3964
15.5021
14.2746
27.789
26.9229
26.9167
26.9625
26.9957
26.0553
10.8508
12.8692
11.7294
13.9926
13.0343
12.7303
11.6152
13.9973
15.5184
9.7455
9.51491
8.95945
5.62505
5.38915
4.98466
5.04927
4.72389
58.887
59.7639
60.6998
58.9289
61.8578
62.3833
60.4394
58.9079
25.2806
26.0717
27.6056
13.0293
13.9968
13.2582
12.8013
13.7692
14.2523
13.1555
12.375
12.7346
12.1545
11.55
11.9677
11.9173
114.07
118.648
114.379
18.2816
19.6705
19.8015
39.0314
40.5052
39.4909
40.6138
38.9474
39.524
36.107
37.2697
34.5937
36.9835
34.8356
32.0597
31.9461
31.6064
30.8603
31.1462
12.3394
12.3297
12.3614
12.7512
13.4532
14.2864
66.627
66.3048
65.2867
68.8339
68.735
128.45
128.565
56.8246
56.599
54.4163
55.8412
128.279
127.694
128.31
56.9234
57.0359
33.1371
32.9528
33.6864
29.7176
30.7409
34.3723
35.2762
34.9312
34.2978
33.9676
20.2606
16.1158
25.7494
19.2316
21.4151
26.9164
22.8916
29.9347
28.4438
125.482
122.104
117.368
64.6087
63.9449
63.2478
125.052
122.969
127.172
115.14
115.084
4.23346
4.15268
6.48095
5.40546
4.55587
4.77786
5.34585
5.01714
60.8342
60.6991
59.4719
63.2039
63.2895
62.1373
56.3681
58.1866
54.6285
53.4785
58.4642
57.9198
12.0742
12.3104
12.5313
12.2289
12.052
12.1318
41.9875
34.1775
37.0145
43.9082
27.1168
24.5431
60.8174
61.8489
63.2022
63.2903
61.3796
60.5598
54.6651
53.7886
53.4764
93.1687
95.6285
105.942
12.3842
12.2948
12.3812
12.392
12.1805
12.0589
23.3236
22.6925
36.8049
39.7434
40.2176
35.0302
34.0063
13.5137
14.498
17.8833
15.6382
19.5514
121.004
125.57
116.363
104.335
111.006
119.602
125.467
127.14
120.781
124.875
129.905
129.564
19.0739
18.3815
16.0712
16.1885
15.162
4.62014
3.8975
6.02483
5.35449
6.76478
5.41704
6.19994
3.86031
4.18831
4.19727
5.01553
4.99886
44.4993
45.5293
44.6928
43.6016
28.5069
28.2702
24.9309
25.9614
27.0613
25.4898
1.60183
1.90854
56.8288
58.0347
57.4304
56.8483
57.6504
57.9133
44.5291
43.5286
44.7936
15.4554
16.2823
13.9323
13.4984
14.1003
15.3589
14.0536
14.432
13.493
13.7514
13.3578
13.3205
12.8082
12.8057
12.2317
11.9216
114.381
107.172
107.734
123.81
124.378
118.031
115.286
119.23
101.937
103.362
22.8631
27.2133
21.7392
22.9439
24.0295
48.9572
49.9439
47.5431
31.1947
33.4863
33.6155
111.088
117.088
115.53
30.1814
28.0413
28.9115
47.1489
48.3601
48.5705
46.6875
46.1426
67.4881
66.1967
63.8299
65.7299
63.8077
59.3834
60.5393
61.0929
60.1361
59.1935
19.2105
15.123
13.0308
126.405
127.674
97.9415
90.4327
89.0804
39.0568
40.1276
42.3039
5.57439
6.09427
49.8112
46.4161
46.6504
50.4648
52.0878
11.333
10.4695
130.568
130.599
130.532
130.554
130.567
5.7201
5.61242
6.16665
6.62025
6.67275
30.3883
29.5124
38.6267
37.7227
38.5821
39.7962
40.2174
1.46685
89.5718
96.9614
90.7285
95.8432
102.009
102.345
9.9746
10.0183
100.208
101.819
87.8027
56.2434
55.2148
54.0444
55.6634
54.9626
67.3579
62.9564
71.0028
62.5569
61.781
65.0205
67.59
10.9778
10.7473
11.4342
13.3258
14.8093
11.4951
10.4357
9.99774
11.9047
11.0869
11.0714
14.5817
13.6737
31.764
31.788
30.7181
30.2264
30.6628
31.074
30.4086
17.772
19.1618
18.4568
32.9947
32.2403
32.642
14.8094
12.5163
15.8213
17.5392
13.7295
12.492
13.833
9.63048
10.5676
10.164
11.6799
12.8174
11.663
12.4991
10.9544
12.1046
11.474
11.1139
12.0256
12.1848
13.2413
11.9066
12.4933
13.7657
13.2912
30.9245
30.6653
31.6603
31.5564
33.3477
32.746
32.2563
27.5724
27.1467
29.0542
28.3555
28.701
29.6245
29.5536
13.3114
12.021
12.564
12.3528
13.1037
13.531
14.7235
14.9884
13.5795
16.1492
16.2305
17.904
17.2278
19.5575
18.4637
19.9991
19.4822
20.4035
19.196
18.3864
18.9788
20.3366
20.6942
14.0169
15.3094
13.5067
12.7424
12.1016
12.3716
13.1367
16.3248
14.34
15.3103
9.48303
9.80061
11.1694
12.5551
12.7451
12.0714
10.9611
11.6848
11.5642
10.4759
10.8816
20.0398
20.5619
20.9652
21.1735
20.715
19.8831
13.2267
12.214
11.9422
13.7708
13.0975
16.2313
15.15
15.876
14.6223
15.017
58.0673
58.9326
58.5751
57.9666
58.9573
58.0558
124.944
121.413
114.167
109.424
109.913
8.33526
7.53399
23.5992
23.3078
123.759
124.76
128.248
128.304
55.4414
54.6091
29.6441
32.1704
45.0797
39.7734
34.6354
43.6363
3.97799
3.27281
12.8599
13.7197
29.1196
29.1696
28.4854
30.1115
30.2231
29.9777
30.3324
31.0702
31.7915
31.6258
2.38746
2.02546
2.53336
3.68499
3.90645
4.68698
4.00551
19.3686
18.7722
20.1322
109.455
127.931
123.924
124.229
129.898
129.039
64.4761
64.4856
66.1872
65.0692
68.3539
67.0106
19.9464
17.6143
24.712
14.7092
14.6198
14.0683
14.0617
15.3896
15.553
15.4106
15.0161
14.8073
19.0537
21.2517
4.70975
5.58801
4.86769
5.23178
5.70932
6.75667
7.42182
6.67943
7.13615
7.62558
4.64604
3.98964
4.66196
18.9359
19.8469
19.55
19.3317
19.6078
15.201
13.3696
13.6407
13.8343
14.8464
129.152
129.25
12.2878
12.325
12.3168
12.2703
12.277
53.279
54.9609
6.76981
6.38349
11.0781
50.3674
45.4433
10.8759
11.2766
11.7299
14.5906
15.5261
16.4723
56.6738
54.5251
54.0422
55.0065
43.6682
43.2982
28.3888
27.5228
28.1857
128.045
59.0626
59.7235
59.7996
14.5491
13.1317
18.0473
122.19
123.29
43.6721
43.9394
16.3226
16.2047
15.7742
12.2867
12.29
23.8319
17.3801
127.203
128.199
92.4984
53.1479
54.5285
53.2168
16.3694
17.3645
18.6768
16.8145
17.0389
93.8432
99.9537
102.53
50.9975
49.9554
5.30051
5.07485
6.17452
5.98735
38.0283
37.8373
38.6245
63.6268
36.7009
62.4136
133.885
8.27688
0.3179
0.526136
12.2252
0.485856
0.268956
15.1907
59.0744
0.390165
59.2126
0.332417
41.5858
23.5632
140.194
135.499
24.0253
10.7922
31.1181
37.9444
53.6121
61.7295
20.8979
18.6476
30.5153
31.6777
34.1648
37.7721
52.6846
47.6696
117.734
40.9374
52.0035
86.2686
33.0122
50.9586
49.2585
55.6418
45.2505
45.1624
40.1354
128.225
125.746
4.30734
43.4872
101.436
11.9305
50.8071
101.234
65.0767
61.9282
65.3905
121.448
60.3779
61.4264
54.3884
9.31682
8.74242
8.05443
57.4308
51.7552
56.2974
0.406055
0.899186
10.9366
10.4022
11.6074
7.43536
6.63436
85.7456
45.8555
51.551
52.9803
48.5699
71.9193
80.2832
0.590383
1.05448
0.423103
0.26503
3.23575
3.88915
6.81014
7.85677
76.822
93.3189
84.6953
47.3614
46.9177
46.2082
47.6152
54.2307
55.2701
49.9046
40.8418
37.2419
39.8191
48.0545
44.413
47.4477
46.2598
46.9851
42.1812
10.7382
10.2633
0.823923
0.419031
10.5558
9.55547
9.21192
0.316192
128.2
139.528
126.666
66.3514
86.2926
76.0441
12.3244
12.2687
12.0625
50.1027
56.1549
40.4329
42.3078
41.5936
39.1148
41.9215
47.0139
60.7382
63.0783
22.5592
19.7656
21.1308
36.6216
32.9551
37.3923
33.4957
30.986
35.319
0.291528
0.621016
15.6203
14.1263
13.951
35.2417
37.8364
57.2532
51.7558
58.072
12.0614
12.0634
36.5122
34.0858
35.951
113.71
94.1327
12.3863
17.6762
0.540193
0.426558
0.289771
119.665
124.341
108.642
11.4467
12.1731
18.2934
25.0072
9.35278
13.8499
31.963
30.4654
12.0854
11.8376
22.3005
22.922
23.2982
61.4712
61.2737
57.2926
0.36568
12.096
12.0843
130.305
130.412
21.2964
22.2213
34.1836
32.1677
32.5662
59.1123
60.0641
25.9048
24.0027
129.47
10.8155
9.7732
11.01
19.2058
26.298
12.7468
16.9521
36.5002
40.1001
118.509
125.363
128.236
127.444
43.9528
46.0145
105.057
1.70323
2.41424
5.75583
5.37479
12.1827
12.1122
12.0952
80.559
0.1913
0.573109
0.56668
3.05102
2.59083
126.833
116.58
106.288
10.8187
9.69446
60.8171
61.5314
65.1623
63.3914
14.9479
64.974
75.5326
64.6447
128.857
128.327
129.066
12.1307
11.7844
130.463
12.5769
11.7776
29.023
30.4334
36.8112
0.838761
0.375584
0.653406
0.249475
0.839648
12.1681
12.1391
5.20591
5.37292
6.44448
67.217
68.9837
75.298
65.2697
66.1472
16.8799
16.3501
12.3917
12.3204
12.3938
61.63
59.6467
62.2853
18.9497
130.304
130.139
129.941
30.7678
49.3239
38.0744
100.504
78.7293
97.8328
128.36
88.7872
69.9019
85.4375
118.437
107.772
99.9753
20.7842
17.5862
45.8582
47.4897
43.5873
38.9477
41.9113
48.4196
49.9433
46.7177
0.256503
0.731532
0.687604
16.6548
14.795
42.7537
42.9712
44.2242
125.079
114.281
84.887
94.0755
77.4319
0.855175
1.00647
0.757477
2.22016
1.30191
12.4124
28.765
26.52
56.4362
66.0384
65.2557
0.26362
0.822568
0.567276
129.746
19.1733
17.6493
17.3041
128.803
128.554
24.5068
24.6066
25.6793
12.2725
12.2341
85.6263
72.2922
69.0208
22.2398
22.5687
23.6876
38.4837
13.6905
12.9854
12.3938
12.4368
12.3561
57.4345
127.823
58.3661
59.3119
52.875
48.303
48.8963
56.6572
55.4619
121.507
113.602
13.4529
12.9911
13.9316
28.9695
123.915
127.845
27.1483
25.7048
130.611
130.522
129.31
128.99
129.494
18.242
16.4055
15.5315
11.9737
12.2929
12.4032
58.9393
55.5256
27.565
25.1045
24.6639
63.0836
58.3309
128.108
127.946
128.194
30.236
28.0466
29.8345
59.958
57.6476
56.3658
49.3859
55.0509
129.531
129.959
130.09
110.836
95.5387
11.7804
11.4397
10.9376
0.871237
1.63046
0.473987
1.27096
30.9363
30.7596
29.2607
27.5337
26.3144
22.14
20.2312
18.5035
127.709
127.985
128.1
4.67509
4.47765
3.86346
124.556
119.906
62.7142
61.3499
68.1509
81.3246
65.8065
127.591
35.6875
37.9959
48.7732
53.225
50.6009
27.0436
28.6567
29.3526
28.2651
27.3617
126.987
126.328
61.5974
17.8968
18.6011
12.1483
11.966
130.544
130.584
63.6367
5.82506
5.90537
123.582
129.376
13.5466
27.6415
58.9523
50.3591
32.1315
126.698
26.044
53.7266
8.46289
6.14998
108.987
74.627
84.3834
39.3039
18.8921
70.9793
23.7188
32.557
15.6891
85.5638
100.476
102.841
56.6548
58.5828
63.1622
113.922
28.8542
26.89
27.8609
58.0966
90.3359
122.092
12.2477
41.4317
29.7115
83.9156
12.6252
12.3213
9.39558
28.3788
26.6114
24.8778
25.86
52.1761
52.2542
51.3022
49.3191
67.0922
6.7309
6.16369
130.425
60.6566
41.1617
40.2328
120.149
50.7002
121.466
16.2259
11.1408
9.68947
10.3116
12.4077
13.2817
112.731
4.37673
5.51968
43.4868
26.953
25.4772
120.742
114.907
109.208
111.837
124.648
123.457
81.6383
98.8933
13.6973
13.1865
28.1848
17.0531
21.431
62.9326
6.56101
68.9493
58.8096
84.4019
96.7002
90.8114
123.306
31.4889
31.4921
30.6735
30.3855
18.9384
10.3448
55.2815
52.7587
39.7544
78.3136
62.6258
41.6813
40.7773
40.6608
123.154
121.58
53.8288
7.9485
12.0626
5.07823
9.96752
32.6534
38.7679
38.1838
18.6497
42.3739
55.3409
53.1332
52.0994
20.3469
27.1857
5.96983
6.7555
5.84866
88.3573
9.78147
70.8955
117.135
12.3866
94.9655
38.9771
74.4854
24.4072
27.5038
40.0384
58.883
14.2514
6.36553
6.81952
7.02082
45.4909
50.5735
126.533
49.9427
12.141
96.9332
110.522
15.4414
50.4855
50.8105
70.1661
85.89
52.2402
51.779
54.3023
52.9322
10.0853
16.9409
22.3801
12.7723
13.1047
104.007
116.178
111.143
117.689
11.8983
12.751
12.4208
13.0377
54.6691
53.4662
62.0449
35.6616
23.7626
58.57
31.1312
62.263
62.352
56.7565
39.7433
40.9603
63.2011
57.0281
57.7268
50.2097
127.832
18.4027
25.4063
26.8626
26.0852
25.1141
28.6826
28.5368
127.113
66.4387
69.303
66.0591
98.452
89.8242
83.2905
100.317
94.3664
55.7598
54.3455
102.256
51.4889
50.0158
58.4236
9.23714
9.48055
10.8929
10.0364
53.7269
128.376
32.5592
35.5799
34.3921
2.97622
2.42664
2.56099
1.98967
1.42356
48.6324
48.863
108.565
64.4304
56.849
2.34806
65.7683
62.9133
64.6756
55.8593
34.468
127.282
125.754
126.966
125.531
13.3629
40.5385
85.1271
21.1532
128.259
129.255
126.734
126.432
8.87765
8.99525
8.25036
7.492
2.83076
68.6612
66.4072
6.87035
26.2412
28.0065
26.5488
27.1777
6.51041
7.53858
12.1013
13.932
13.5423
24.8699
35.7309
37.4342
35.7111
36.8115
31.148
29.3789
30.3809
24.7812
23.8956
25.7434
39.4867
40.0247
38.3512
39.0616
70.4481
70.1103
75.6412
61.9056
65.404
62.503
11.9557
63.6449
59.2914
52.9941
54.4608
53.7591
12.1468
72.7779
69.7147
68.0584
2.01896
1.83326
6.52407
6.30178
4.21363
44.7199
46.4353
7.71208
73.6145
70.5789
66.0453
67.7775
65.2969
62.4785
90.6006
104.898
97.5598
104.349
58.3055
58.442
61.9218
42.1599
41.5875
41.2128
128.231
38.5621
30.2714
0.915661
49.2336
49.5669
116.176
125.476
60.3376
60.8894
122.778
50.0264
43.2219
99.7378
29.7649
44.0523
96.3318
109.095
103.35
51.0765
108.774
32.12
38.7604
41.092
42.7197
41.3668
10.4286
12.1381
11.5015
12.1779
11.9374
11.4668
59.0778
59.956
58.2001
58.4728
60.6973
60.1286
111.634
117.85
112.361
119.365
6.80462
15.866
5.23899
75.2181
71.6837
73.6437