/*--------------------------------*- C++ -*----------------------------------*\
| =========                 |                                                 |
| \\      /  F ield         | OpenFOAM: The Open Source CFD Toolbox           |
|  \\    /   O peration     | Version:  2206                                  |
|   \\  /    A nd           | Website:  www.openfoam.com                      |
|    \\/     M anipulation  |                                                 |
\*---------------------------------------------------------------------------*/
FoamFile
{
    version     2.0;
    format      ascii;
    arch        "LSB;label=32;scalar=64";
    class       volScalarField;
    location    "160";
    object      epsilon;
}
// * * * * * * * * * * * * * * * * * * * * * * * * * * * * * * * * * * * * * //

dimensions      [0 2 -3 0 0 0 0];

internalField   nonuniform List<scalar> 
184166
(
7.58441
3.27903
2.84531
7.79605
5.09031
4.65099
2.33059
3.96471
7.78985
6.09622
7.61092
3.28539
3.3782
4.88151
5.39422
6.12396
6.61485
5.23099
3.15772
5.92716
3.06755
3.03927
4.26008
5.76713
5.56512
5.66271
5.28871
6.03197
5.4049
3.17946
5.85974
2.16342
10.2429
6.37717
6.3328
3.49329
3.1347
6.03456
4.05307
2.59742
5.43734
3.43213
5.43919
6.05156
6.41031
5.2695
2.45674
5.1943
5.51124
5.41372
2.29783
2.16157
2.51845
5.48295
6.04687
4.69325
5.84239
6.03955
7.14425
4.10926
3.07976
4.18587
6.87864
7.52882
7.94089
2.16931
2.7093
5.92072
2.25397
6.05073
2.81869
6.06358
6.30369
6.51011
3.53859
5.43084
4.37483
6.39328
3.83622
2.47215
2.36561
3.50001
6.0762
7.09299
5.77755
7.892
3.74938
2.92047
4.77238
3.2003
2.04716
5.01363
5.97532
8.48489
4.98332
3.21047
6.02515
2.13154
3.0115
5.93453
3.26705
3.19165
6.08242
5.48364
2.14589
4.23556
5.93531
4.89205
2.15651
3.29827
2.60349
6.42894
2.0301
2.86743
5.74866
5.17282
4.04997
2.87034
2.32065
2.8566
6.72331
3.19743
5.66058
5.31804
5.21018
4.96437
5.77606
5.47593
6.07205
5.80514
3.02344
5.43726
4.48227
4.64524
3.60858
3.37331
3.49012
4.37108
4.86988
2.75778
4.54592
2.30816
2.36595
3.18503
4.21133
6.00563
2.87149
5.36055
7.39526
8.20824
6.17413
6.92437
5.86171
6.51168
6.5963
7.95435
5.79817
7.05336
7.77705
2.59078
2.07988
2.50876
5.32028
3.8843
3.91226
5.72494
5.57107
5.73875
2.12455
5.63791
5.63129
3.99029
4.08003
6.97856
5.37585
2.46664
2.7177
7.41155
6.14043
4.47781
2.07274
5.6278
4.73807
5.65573
5.9589
4.05021
5.65695
7.17799
2.17094
6.18688
5.01918
6.17836
4.37174
2.12137
8.58316
5.77138
5.41455
7.46053
7.90738
5.72084
6.29117
5.40503
2.1746
5.17418
2.42309
6.51808
3.42166
3.15245
4.10264
5.15725
8.45258
5.85102
3.57527
5.19171
3.1814
4.18691
5.50279
5.60059
2.28104
2.19974
3.33752
3.83862
4.26105
5.74209
2.32531
3.23966
3.3873
5.98119
5.48255
8.63218
8.34861
2.99479
4.28141
6.25089
6.17928
4.5303
6.44298
6.27635
6.4069
2.14376
2.03132
6.07484
3.23411
5.83517
2.50135
5.45156
5.36496
3.38977
6.78486
6.83643
4.65978
7.81035
6.12746
3.19135
4.5217
6.26868
4.99175
5.53174
5.52961
4.49085
4.81628
2.71801
5.91108
3.60753
5.99668
5.32334
5.78073
3.04929
5.51303
4.80364
5.44676
2.37762
4.44916
5.92657
3.23579
4.9662
2.064
4.71341
3.84462
4.76284
3.04436
11.4497
4.70171
5.52722
2.63641
3.3555
9.55689
6.90176
5.0518
6.74178
5.35701
5.25407
5.37811
6.18365
7.58829
5.29599
4.65906
8.33732
5.4462
6.89357
5.34512
4.37656
2.42173
5.56036
7.7187
4.391
5.20423
7.20619
2.83353
2.10416
5.43188
6.14911
5.98753
5.84501
6.32896
4.84259
4.56674
5.094
4.9921
5.01568
3.19136
3.51097
3.9415
5.5965
5.22585
2.11271
5.46086
4.53984
2.97275
5.42533
6.21648
2.64356
2.54245
5.86406
2.27888
5.45171
4.69799
4.00643
5.74692
4.28064
4.95487
8.46092
8.19674
6.93711
6.01867
6.48072
2.87317
2.2454
4.01512
2.31071
2.2926
5.64068
6.95642
2.74472
3.22974
5.96992
5.83458
4.41493
5.85068
6.0298
3.85066
2.13714
5.94481
3.00335
5.84401
5.59538
2.14142
2.99772
2.8553
2.02229
2.09049
7.32905
8.72558
6.2588
6.82491
6.54193
6.24949
5.406
3.06805
5.05585
5.30983
5.39279
5.66331
5.97576
5.14796
6.20444
5.94497
3.6639
4.09674
4.26211
4.99534
5.62612
5.62275
2.07931
4.19335
2.09562
6.77477
4.5007
3.79262
5.18602
6.85115
5.15064
8.62212
6.59441
2.53919
5.00948
6.20405
6.17247
5.03641
3.33181
4.8867
3.84962
3.93509
3.60173
3.55855
3.23162
5.69761
2.82927
2.70442
2.57485
9.17503
4.2885
4.36148
4.31047
4.04823
2.12674
2.25097
2.31024
2.95068
2.86335
2.98415
2.37394
9.6534
7.87549
9.02226
8.90846
7.58449
8.7082
5.74322
5.66404
5.95789
5.91017
7.03824
6.56723
6.81373
6.23406
9.25276
10.0257
5.62635
5.77139
5.388
5.42378
5.44913
5.60837
5.08101
5.69372
5.35362
5.27936
5.40136
6.75081
7.04882
2.29125
2.17708
2.13707
2.11867
2.46864
2.10265
2.27008
5.69405
6.0627
6.22973
6.49564
7.51839
6.50529
4.37264
3.61498
4.09593
8.64002
6.08733
5.4637
5.78903
5.47934
2.06965
2.01047
3.35192
3.48414
3.3391
3.17286
3.0803
3.16072
5.01736
5.14278
4.7883
5.03532
4.68369
6.352
6.04559
6.03777
6.21903
6.45737
6.24355
6.20847
6.91712
5.8576
5.88746
5.66366
6.85575
5.92085
3.1817
6.11852
7.24928
2.03463
2.08407
2.02403
5.89357
6.69474
6.33417
5.80694
6.0632
5.94307
6.16692
6.14373
6.73399
5.28318
5.61428
5.75852
5.65489
6.41941
6.4864
7.10118
6.94375
9.17575
7.79303
9.31877
7.26633
6.55653
6.79122
6.92484
8.91924
10.9335
10.1704
8.22674
9.19832
5.94204
5.79775
5.79348
5.53068
2.46835
4.31124
3.82435
3.52434
4.23557
3.81351
4.14389
4.18856
3.61576
3.97233
3.2837
2.99388
6.31186
6.21112
6.33232
6.26212
6.11856
6.17243
6.10438
6.11267
5.72303
5.30866
4.73657
4.58401
4.78107
5.06358
5.94775
10.0766
2.30532
2.76044
2.10583
2.09276
2.17515
2.1149
6.43137
6.45592
6.64778
6.68939
7.02183
6.88534
6.3804
7.05992
5.78431
6.00546
6.25471
6.93586
6.57575
2.09175
4.73383
4.4089
4.31585
7.0785
6.30211
6.25839
6.15401
7.1704
6.32691
6.35143
6.23239
7.5948
6.89057
7.79848
3.10771
3.49497
4.80758
3.88072
6.06096
6.23513
6.26157
6.14143
6.58781
6.16842
6.60569
6.37337
4.98389
5.64953
5.31977
5.67332
6.19905
6.4711
6.9756
5.19062
4.89982
4.8497
4.61133
4.48364
6.66964
6.59545
5.77008
5.8327
6.26893
9.04687
6.79327
4.17174
6.23991
6.33033
7.77785
6.29306
6.07627
6.36018
7.82324
6.43805
6.22327
2.31275
2.64067
6.20451
7.98175
8.99051
7.74627
4.77075
8.37374
7.28768
8.05095
7.90391
7.11055
7.8528
2.12216
6.9118
7.15686
6.87492
6.94259
3.68888
8.52564
9.35512
7.93186
9.47674
7.80754
9.26399
2.57833
2.08387
2.12055
2.36358
2.36193
2.12469
4.47457
2.73067
3.01355
9.35453
7.72296
8.58005
3.94794
3.52949
3.94144
3.70239
3.53223
3.7189
5.93357
7.14467
5.94314
5.73031
7.05041
8.2471
4.01798
3.94366
6.31992
5.36184
4.71106
4.85783
2.90035
4.44429
5.76633
5.74555
4.49145
4.77276
4.57858
3.5574
3.34064
3.55551
3.34535
3.66106
4.78941
5.94288
5.75734
5.82721
4.78929
5.32263
4.63358
4.76293
5.00516
3.68122
4.25716
4.49102
5.35189
5.60443
5.8279
5.71937
4.3025
4.37952
3.22849
3.53227
3.61698
6.40397
5.43072
6.30225
6.62215
3.37309
4.89983
2.10498
2.1145
2.09081
5.76205
3.82979
3.95376
3.62621
6.04907
5.03017
5.48655
5.13044
4.45182
4.47424
4.51044
4.4536
5.31013
4.43122
5.33212
4.71432
3.22614
3.08376
3.23512
3.14517
3.07805
3.11172
3.03388
3.00078
2.9739
4.74429
4.08532
3.14831
3.21209
3.07588
5.24817
4.89939
5.26026
5.10462
5.62133
5.81261
5.73249
6.59721
4.91043
4.82817
4.48333
3.13397
3.36236
2.08536
2.08922
2.10773
2.09782
4.16493
3.36378
3.3142
3.24512
3.41953
3.50136
5.06936
5.26005
6.1561
5.7509
5.92845
6.26325
4.50662
4.55692
4.76071
3.25033
3.07491
3.04317
3.05196
3.04736
2.1281
2.17619
6.33054
6.04574
2.17977
2.33401
2.19065
2.14567
5.99036
2.34745
2.88159
2.37516
2.58463
3.30849
3.58516
3.60973
3.37618
8.40728
5.10014
5.23906
4.93288
4.73875
5.10234
5.48027
5.84778
4.03631
3.75937
4.36424
3.88711
4.05562
3.26223
9.45683
10.0118
10.7099
8.98366
8.07487
8.09492
5.03724
4.34771
4.54267
5.02125
1.99119
1.94303
7.3199
5.22909
4.36831
5.31955
4.44123
5.04985
1.97429
1.94878
9.45491
9.64053
6.2618
6.51514
6.49474
2.99079
5.55089
3.71081
5.15735
2.12511
2.18272
5.85526
6.06981
5.54723
5.82238
5.60186
5.65166
2.2763
2.61666
3.581
3.3486
5.53034
6.42184
5.29953
5.82834
2.48827
2.46329
6.24704
6.09899
5.33364
5.41685
5.28926
4.9111
5.15625
5.33108
6.13834
5.92628
5.97919
2.84296
3.76755
3.13614
4.65264
4.68287
5.2617
5.00861
7.9466
6.99679
5.89974
6.08514
6.52557
6.51938
6.19457
6.22916
6.03398
6.53012
6.26815
6.03092
6.07069
5.76703
6.72705
5.13317
4.73114
3.9546
4.13166
3.58722
3.26735
3.22908
3.35457
3.13386
3.30781
4.37253
7.31633
6.0654
5.65272
5.78159
5.05998
6.74243
6.71138
5.79697
4.97347
5.42305
3.98851
5.49882
5.64611
5.48379
5.43942
2.50433
2.39239
2.64619
2.53629
2.3867
5.4363
5.94566
5.73067
9.85143
10.0596
6.14781
6.22977
7.1456
7.15297
7.01392
9.68084
7.43619
5.80831
5.75633
3.8622
4.10012
3.59458
4.98721
4.57491
5.05629
5.36374
5.39409
6.44841
6.17683
6.01458
6.10692
6.29702
7.85276
8.7084
7.48255
10.5492
4.70347
4.56082
4.42399
3.59834
3.97477
3.99151
4.22458
3.58132
5.56309
5.6554
5.74229
5.68771
2.57253
2.86225
2.57238
2.55953
4.20777
4.03288
7.32749
8.50622
6.34567
5.94414
10.8027
9.8864
6.34207
5.81605
6.62729
6.86528
2.38101
2.09678
2.06511
1.99057
5.4437
5.58635
5.48697
5.44002
4.92044
4.85289
4.97314
7.33335
7.20518
7.18894
6.99498
6.97348
7.09581
3.7735
3.32031
3.57947
3.12976
4.09571
4.40391
4.40667
4.50787
6.98765
6.58112
6.76244
6.07859
6.62022
4.88746
4.55764
6.39127
5.21755
4.14129
4.38068
3.57923
3.64513
4.17986
5.73757
5.69393
10.7767
6.19631
6.29473
6.59463
6.45943
2.33127
2.07025
2.06629
3.11944
3.08536
4.21863
3.99323
4.28315
4.19343
4.70375
4.45407
2.86283
2.28344
3.35816
4.40067
4.72501
5.87864
5.88963
8.06151
6.3706
6.46948
2.12577
2.12415
2.1375
10.0721
9.94484
7.64904
7.62694
2.19592
2.16937
5.1829
5.27752
4.55757
3.36308
3.52171
10.1865
8.91199
5.8688
6.19796
5.78309
2.08699
2.08786
2.08665
2.06436
2.0729
4.71151
6.89687
5.09801
4.92691
4.61695
4.68523
8.83931
5.19445
5.1873
5.80894
5.49951
3.74735
5.98327
6.02504
5.63996
5.72623
2.89617
2.94856
2.8827
2.8786
9.56091
8.87346
6.34244
6.61753
6.1887
6.29704
4.224
4.14847
3.94055
5.44897
5.66397
4.90114
3.52432
2.59274
2.651
3.04402
2.49748
3.81035
2.91897
2.62608
3.34468
10.1225
10.4888
7.12461
4.49932
5.08417
4.43844
4.73606
5.37202
5.53357
5.36752
2.15426
2.1057
2.12187
2.18666
6.07031
5.04631
2.78574
2.47451
2.41064
1.93589
1.93412
3.8195
4.1222
4.15794
3.71089
3.89077
6.47133
3.35455
2.88234
2.13126
2.09013
2.1631
2.06922
2.07718
3.73249
3.59133
4.73585
4.66954
5.10304
4.86137
5.67075
5.78662
5.02145
5.31154
4.79915
2.21139
2.53649
3.44701
3.72952
2.61197
2.60359
2.60344
5.8804
5.53638
5.6131
6.209
6.91456
6.47118
6.28382
6.75672
6.97895
2.14497
2.59433
2.3197
2.8461
2.79249
3.28867
3.34094
2.47234
2.47747
5.39169
6.04227
5.92619
6.38113
2.23227
2.20677
2.22675
2.27719
5.05248
5.13152
4.58978
4.94596
3.88823
4.6901
3.99989
4.47791
10.3112
10.5076
5.93803
5.31784
3.01263
4.30091
3.94635
4.00848
3.62901
2.45753
3.25202
2.99688
3.9854
3.34841
3.50661
3.0748
5.0377
4.94981
4.44651
4.64817
4.58711
4.73307
2.5929
2.78551
4.93362
5.46925
4.51779
4.90819
4.49383
4.89507
4.40491
4.88581
5.48441
4.84264
4.79067
4.43766
6.68962
6.53084
7.01292
6.6906
6.3879
6.61739
4.06591
4.32604
2.14723
2.19209
2.14695
2.28151
2.27315
2.14621
2.19082
2.12353
2.97209
2.93967
3.0401
3.17203
3.1696
5.30672
5.67675
5.62224
5.28335
5.48457
6.06874
6.09318
6.54584
6.13557
3.4949
3.40527
2.0838
2.08513
2.09923
2.12685
2.11974
10.8469
9.60317
4.32046
4.45319
4.58155
8.37367
7.22871
9.4684
6.73811
6.49847
4.38501
6.13634
6.38352
7.52611
6.89654
6.29745
6.96848
6.41835
5.97256
5.90267
6.2492
6.00136
5.94684
5.77974
6.12265
6.0321
4.75373
4.39836
3.97142
5.82613
5.80732
6.14138
6.56661
9.56015
1.95831
5.00449
5.26361
5.30431
5.12587
5.59477
5.72358
5.77649
5.86915
5.96945
2.01357
1.97955
1.95842
2.08066
2.09724
2.10582
2.09171
10.8816
8.7231
8.87112
6.39131
5.88569
5.42619
3.56579
8.47063
8.40818
2.8547
3.4559
2.89482
3.24647
3.29472
3.61874
3.66082
3.28684
3.68708
4.71084
4.64822
8.0262
2.11994
5.50668
4.66375
4.06839
2.49912
2.50745
2.5429
3.90157
4.06585
3.72937
3.82616
3.50056
5.07689
4.7368
3.14612
3.04243
2.94958
2.95383
3.14254
2.96416
6.61764
7.25845
7.2314
4.75624
4.99204
5.41717
4.43186
4.12793
6.51379
5.80663
5.97237
5.07396
1.94195
1.91346
8.07345
9.37834
5.03086
5.17535
5.18903
5.6113
4.98216
5.27797
2.07629
2.12181
2.10347
2.1165
2.09393
10.394
9.30749
1.94123
5.00075
3.15533
3.10952
4.26887
3.44661
4.29645
3.78048
3.29875
8.09827
6.51986
7.518
9.28397
10.4264
7.53953
4.29934
4.2466
2.09882
2.09764
2.10707
2.10495
2.10447
2.11006
5.51568
2.42951
2.14943
1.91835
2.00893
1.95602
5.87534
5.89819
5.25778
4.57049
3.61106
3.23592
3.73661
2.93509
2.42782
3.23246
2.982
5.73161
5.59732
5.90294
5.76083
5.59121
5.67786
5.39587
2.22922
2.35803
4.85401
4.84983
4.55421
4.71834
4.29935
5.09783
5.05097
5.16242
4.26721
4.60043
3.37259
3.83842
3.89419
3.29376
3.5653
3.934
3.5587
3.64702
3.49858
3.83858
4.00957
5.90942
5.76163
5.73113
5.99144
5.81
2.65587
2.5366
3.33519
2.8526
3.54295
3.1447
5.53751
5.78316
5.74043
5.88288
3.4437
3.86491
3.63473
3.88743
3.58438
3.23679
3.40061
2.1064
2.10576
11.0155
12.0154
5.25881
5.12773
5.17814
4.78713
2.03556
1.9899
1.9197
2.03732
1.98641
5.98451
5.97406
5.30796
5.16124
5.07714
4.38696
4.51734
4.05934
2.84466
2.964
2.78405
2.83264
2.08201
2.08274
2.08385
2.0919
4.62795
5.28108
5.35589
5.18327
4.21827
4.39368
3.75168
7.24781
8.24503
10.3365
7.50216
9.43553
9.50979
2.38225
2.83152
2.26423
2.44533
4.97965
5.14048
5.16251
5.11976
4.93023
2.10931
2.09704
2.09896
10.8885
10.6559
4.56317
4.24022
4.25444
2.80117
3.47392
3.58596
2.89004
6.30953
6.37364
6.37886
6.57533
6.44207
6.4282
5.0376
5.28477
5.39015
4.93765
11.0782
12.7504
3.46256
3.77805
2.92284
10.9283
5.48826
5.31527
4.52527
3.33228
10.8035
5.25676
5.29628
1.97062
2.67805
2.51279
2.57743
2.66012
2.51405
2.51571
2.16613
2.15862
2.43115
2.23862
2.64228
2.79798
2.64336
2.71717
2.64328
2.80237
2.64144
2.73323
3.86007
3.44278
4.85097
10.7351
12.0784
3.89036
2.14605
2.09096
2.09315
2.10199
6.72327
5.4878
5.51235
8.83765
7.3558
4.54237
3.36152
6.20197
6.03427
6.68238
2.87731
2.79402
2.43554
2.40716
4.44527
4.66474
5.3082
5.36658
5.94141
6.93999
5.33291
5.42494
9.22871
8.96381
10.6295
4.23277
5.18858
5.02288
4.01918
4.64063
6.57954
6.34095
6.17568
6.90522
8.71063
2.01968
1.93151
5.29033
5.47563
5.57077
5.58133
5.29962
5.39284
5.15649
5.36058
5.06367
5.14918
5.36908
5.44559
5.25945
5.38306
5.30532
5.38561
6.51084
6.30546
6.52044
6.40517
1.91382
1.87109
1.98482
2.07787
4.83323
4.78899
6.64561
6.79322
6.42622
4.52206
4.53613
4.60322
6.12896
5.83266
5.9101
5.95977
6.14957
4.44744
4.76533
3.91373
4.07165
3.62344
3.65886
3.04879
2.98002
3.03316
3.37199
4.4228
4.7593
5.32053
5.3224
11.7355
11.7777
2.14204
2.13922
5.76972
5.82985
3.10775
3.01317
2.97541
2.8886
3.00474
2.99394
2.51126
2.35528
2.58418
2.17554
2.21964
2.39647
2.15804
4.4281
4.27856
4.35131
4.10158
5.05906
4.97849
4.63785
4.85713
4.64652
4.76968
6.20417
6.3638
6.51527
6.21712
6.4756
5.52901
5.84075
3.76979
3.4239
3.42077
4.22793
5.12713
5.25716
5.26932
4.06791
3.79498
1.9259
1.8487
3.14909
3.36353
4.29988
2.21492
2.13507
2.13817
2.44169
2.29216
5.72902
5.90642
5.79143
5.59677
5.70453
6.20157
6.82079
2.2281
2.43129
2.26271
2.31686
2.51559
2.14501
2.6287
2.93367
3.0565
2.70239
2.16384
2.13417
2.00131
7.07476
6.95326
7.0568
6.62259
7.21048
4.7799
4.49803
3.54556
5.06877
5.16706
4.96675
4.93623
2.61909
3.4125
2.97529
3.01213
2.64281
2.68318
2.38571
3.04676
2.87818
2.31047
2.41995
11.594
10.7122
6.32998
6.28837
6.22082
5.01317
3.66801
4.49773
8.70095
10.9297
9.36751
5.70372
5.5188
5.63589
3.61475
3.29946
2.53492
2.3701
3.17086
2.51456
4.46738
4.76825
4.36873
4.97479
4.21051
4.31242
4.05142
3.79359
3.76967
2.58051
2.35454
2.50681
3.90781
5.53849
3.91703
4.72114
5.74513
5.42463
4.67154
5.425
4.79001
7.47959
9.19409
6.54586
4.18049
4.32532
4.70318
4.86062
2.07641
2.15845
2.26859
2.24741
5.89396
5.60661
2.10203
2.09665
5.65702
4.8473
5.22041
10.2692
1.86261
1.89434
1.96269
2.2798
2.08409
2.1249
3.32809
3.07963
5.2486
5.17646
4.8752
4.75432
3.05003
3.19306
3.8015
1.88541
3.38858
3.17233
2.96589
3.31659
3.0418
2.96563
3.43214
3.19499
3.37872
3.06602
3.26815
3.25467
3.75825
6.40158
6.23274
2.19425
2.31302
2.07374
5.04216
4.89471
4.93924
4.57539
4.51255
4.3978
8.39438
6.62267
4.47279
4.8872
4.72048
5.6151
3.76568
4.35249
4.11262
3.94854
4.2752
3.03351
3.02571
3.05885
3.10972
3.09463
4.1927
3.89762
3.87658
4.19657
4.06066
4.1993
4.02122
4.36796
4.32086
4.31105
4.17081
5.29353
5.17886
5.36233
5.29722
5.18608
6.59034
6.32723
6.47881
6.41687
6.51824
3.78556
4.03101
3.76117
4.13947
4.01163
6.15475
5.82207
2.02567
2.83503
3.16104
3.27425
4.6546
4.43522
2.51306
2.34181
2.34293
8.08154
7.04438
8.46262
11.0878
6.20529
5.97416
7.26656
7.29399
6.37244
7.044
7.14112
6.72706
3.49588
3.8388
5.56052
5.54477
5.56408
5.63515
3.36821
3.07173
2.63325
4.04507
2.50585
3.25847
3.40377
2.88362
7.53788
9.27852
8.24817
12.5193
2.58895
2.94025
3.05785
3.99652
4.04036
3.48256
3.43257
4.59882
4.51217
18.0315
8.17136
7.07945
6.33513
6.45898
4.2427
4.74198
3.93755
3.26837
4.87411
5.0376
4.99905
5.07403
5.60883
5.65945
5.53261
5.52925
5.5362
5.79757
5.63681
5.52947
5.68965
3.18942
3.07024
4.65928
2.45082
2.48868
3.15067
2.94316
4.64874
4.28225
4.53477
4.69166
4.36839
4.13182
4.55433
4.73981
4.96612
4.53899
5.12272
6.77793
10.0176
12.2205
4.04209
4.06566
4.43847
4.2519
4.45437
4.32381
6.02457
5.89009
5.67823
5.63459
5.8565
5.68759
9.29041
7.1736
11.2806
9.36535
6.3508
5.90537
5.66706
5.79901
5.66434
6.42751
6.75031
4.79314
4.94993
4.93232
3.17562
2.47093
4.35839
4.65489
5.0328
5.06332
4.82415
4.67961
4.77853
3.13745
2.98207
3.01031
3.24423
3.16173
3.98232
3.73243
3.75969
4.1213
3.99485
2.24387
2.16294
2.25828
2.31982
2.16946
2.14419
2.87772
2.20468
2.23682
2.40579
2.44361
2.288
14.6492
5.30193
5.30808
5.38418
5.39928
5.38701
1.85455
5.7403
5.79887
5.84258
5.76717
5.77095
4.33096
4.58336
4.48066
4.55598
4.41488
4.17671
3.75687
4.47308
4.10823
4.16906
3.13517
3.54183
4.49482
4.11198
2.07366
2.10871
2.26787
2.38948
2.10155
2.21871
3.15156
2.98049
2.80026
2.5218
2.6426
2.4708
5.94348
5.69588
2.01971
1.94613
1.95124
2.06013
2.07892
6.79323
6.40788
6.61396
6.54169
6.39277
5.90549
6.05086
5.85078
5.82821
6.07714
6.35243
6.19337
4.99906
4.88659
4.81254
4.0274
4.2147
4.31417
2.34895
2.21932
10.8357
11.7619
13.8782
6.52632
7.06986
1.9153
1.87628
3.13164
2.74952
2.6251
3.0891
2.3901
2.40113
5.13249
5.07484
5.16164
5.25265
5.24322
4.37319
4.49557
4.97713
4.77244
4.81052
5.14112
5.06736
9.05441
7.51902
6.53081
6.82701
8.34644
13.5604
20.0849
3.05494
2.97546
2.78412
2.84188
2.71814
6.07382
7.84051
6.52108
11.0726
12.7982
13.2115
2.84262
3.07593
3.11444
3.4135
3.35862
3.14281
3.00869
3.19265
3.53475
3.29269
3.07878
3.06471
3.11147
3.01547
2.99787
3.10466
3.03477
4.15831
4.21682
4.14882
4.01634
4.02895
3.99977
4.07453
3.98008
4.42493
4.66932
5.13098
6.46052
8.70719
10.0482
8.31319
6.10688
6.62986
4.95313
5.01161
5.46998
5.28209
4.48165
4.67082
4.35212
3.77884
3.73399
3.67727
4.11917
4.32571
4.23441
5.78219
5.92311
5.82722
5.99074
5.82719
5.88183
5.47255
5.62643
5.12818
5.48012
5.06657
6.50199
6.12987
7.18273
7.24606
6.36577
2.06984
2.03553
1.98873
4.9018
4.82605
5.14828
4.95081
5.03671
5.43268
4.74757
4.77848
1.99493
2.04523
5.56946
5.48281
5.3977
5.43433
2.00249
2.04362
1.89686
4.67298
4.79575
5.43626
5.53485
5.57542
11.3424
10.3062
5.42964
5.56966
5.57753
5.56553
5.47545
2.76184
2.39792
3.36293
2.67705
2.88666
3.6588
3.10198
4.08939
3.88637
3.96212
4.76128
4.14744
5.39904
7.43438
9.45598
2.4136
2.45233
2.30339
2.82578
2.79809
3.02436
3.01839
3.65
3.12296
3.02875
3.10027
3.03492
3.00656
10.2707
11.7619
15.1855
6.03324
6.27584
8.78716
4.09374
4.02365
3.91937
3.8324
4.15459
4.20104
2.08743
2.12061
2.14804
2.1041
2.08425
2.09351
3.69634
3.25601
3.45504
3.79031
2.99464
2.90395
4.71632
4.66624
4.38896
4.47122
4.46666
4.61518
8.12829
10.0983
8.94435
4.95833
4.65928
3.48158
2.04648
2.13451
2.04376
2.08028
2.09104
2.1489
4.54601
4.45007
5.25149
5.68733
5.76093
4.79776
4.72105
2.27018
2.32789
2.61641
2.46853
2.74594
2.66954
2.36904
3.02725
4.0751
3.4544
2.71073
2.30565
2.2389
2.65114
2.36884
1.87024
1.87934
3.30447
3.2416
2.90453
2.8442
2.73523
4.97023
5.15276
5.03042
5.16658
5.36435
5.62251
5.73788
5.82905
6.35368
5.59728
5.79443
6.34725
6.32123
6.36876
6.14192
6.33396
4.75479
4.62572
4.02722
4.17926
4.57386
4.19017
3.06617
3.07277
4.28966
4.30415
4.51711
4.39415
5.73094
5.73462
5.84403
6.1908
5.81433
2.85487
3.02038
2.65629
2.63971
2.75444
2.93778
5.50021
4.99229
5.31812
5.0574
4.43401
4.76551
4.67
4.48826
5.31826
5.61364
3.39665
3.81972
3.87893
2.70388
2.60741
3.01251
3.19605
3.01989
4.28484
4.08935
3.23569
4.05403
3.05506
3.38452
3.62231
5.7719
5.7332
5.687
5.43516
5.73182
5.83398
3.21634
2.63932
2.84334
5.63981
4.9208
5.25402
5.68815
5.96237
5.8897
5.86496
5.74469
6.4765
6.38132
6.23033
6.43278
6.24319
6.15651
5.98337
5.91475
5.8433
5.97302
2.69608
2.35124
2.15585
2.2822
2.15626
4.35122
4.5998
4.76739
6.23837
6.11089
6.05188
3.35095
3.42863
5.56693
5.15927
5.0411
5.35489
5.64251
2.00957
2.04232
2.04185
1.98283
2.0435
2.07904
2.07511
3.62172
3.74085
3.94557
3.78391
3.94837
5.66311
5.72964
6.37994
6.17865
6.15156
6.4476
6.46172
11.3949
4.44021
4.33951
4.27566
4.3875
4.13835
4.13429
3.5785
3.46886
4.21269
3.99594
5.79719
6.15269
6.39154
7.0779
4.36477
4.42721
4.28613
4.55541
4.23093
4.84978
4.7534
4.68495
4.43387
3.49727
3.2783
3.47719
3.51676
3.9077
3.3054
3.17106
3.02069
4.17865
4.00902
3.84608
4.32437
3.95943
6.73099
7.29711
8.83865
8.22501
7.00352
11.622
13.7351
3.77781
3.945
3.73958
6.20417
6.35395
6.13058
3.39314
3.02395
3.61625
4.02885
3.35613
3.09472
3.28195
2.80826
2.89103
2.78592
2.70165
2.89322
2.69656
2.85558
2.7432
2.84364
2.74485
2.82255
2.90121
3.87797
4.2617
3.94472
4.15393
4.21159
4.02228
6.2429
6.43351
6.21008
6.30784
6.11693
6.11785
6.00939
13.3019
15.807
7.15675
8.11144
9.52324
7.21417
8.79491
2.85582
2.70314
2.80179
2.68218
2.76926
3.02127
3.13519
3.34827
3.10282
3.47758
3.40484
3.90775
3.86012
4.27292
4.28567
4.80158
4.3934
4.69152
4.71102
4.4433
4.59855
4.80371
4.71311
3.10608
3.22217
2.87834
2.82756
2.71251
2.68541
2.77456
4.01395
3.63001
3.88808
2.90116
2.85442
3.02742
3.32667
3.26788
3.1146
3.08885
3.24252
2.87835
2.76987
2.84243
8.30662
6.12621
8.01865
6.64237
12.7728
13.9052
3.78621
3.62311
3.46077
3.76202
3.57462
4.33277
4.0812
4.40251
4.10625
4.28831
4.64487
4.49859
4.6498
4.50711
4.36738
4.3951
4.88889
4.10816
4.50837
4.16875
3.9611
8.24204
9.26191
4.30494
4.31946
2.43303
2.36059
2.23582
2.19719
5.19895
5.23876
3.32212
3.42814
4.4957
3.89197
3.75768
4.51033
8.54493
7.84657
5.28281
5.40687
6.74673
6.38428
6.58097
6.47317
6.37292
6.14286
6.02218
6.2149
6.17431
6.12676
5.28785
4.95848
4.76884
6.81094
7.90248
13.5274
14.2059
5.02467
4.83033
5.10035
2.68143
2.13738
2.33771
2.29783
2.07135
2.10918
8.74954
7.2376
5.84632
9.55436
5.81365
7.66604
2.76193
2.62629
3.21717
4.49823
4.81887
4.54266
4.71265
4.78187
4.64748
5.5534
5.09195
5.35473
3.20974
3.52191
4.09348
4.49535
4.4278
4.00508
4.20737
4.66063
4.7373
4.3609
4.30246
4.51485
3.62091
3.46564
3.83695
7.22387
6.15766
7.08816
5.73329
5.41629
2.25374
2.1225
2.15745
2.13226
2.21176
2.15298
2.14276
2.03644
1.94508
2.07599
2.02021
2.06466
5.92613
6.08871
6.20559
6.93974
5.01969
5.22845
4.7061
2.73824
2.73267
2.81197
3.55208
3.67335
3.91388
6.23967
6.44962
6.34402
6.18976
6.11808
6.14712
6.31788
8.16901
7.3802
2.07961
10.1959
7.83166
9.72807
2.30334
2.1477
2.63219
2.46691
2.32024
6.01319
6.21861
5.06609
5.39191
4.99192
2.11683
2.14352
3.17805
2.51728
2.28971
2.20031
5.51965
5.37693
5.44115
5.42316
2.55861
2.57293
3.87814
3.7174
3.60513
4.72875
4.27078
4.12845
5.86299
5.47505
3.5951
3.4007
3.92686
3.71674
6.27504
5.96701
6.16786
9.39783
15.6139
24.1114
12.3507
14.5109
3.24948
5.26518
1.58172
3.15321
3.09402
17.1355
23.872
5.33437
23.8644
3.93484
22.2636
20.4015
13.5779
14.5626
20.8341
16.447
16.2105
16.2415
17.2514
23.2178
13.6871
12.4727
13.9075
12.6942
14.8866
16.4338
20.8895
17.3496
2.15175
14.9106
16.1816
11.3432
15.4906
18.1352
16.0793
17.4134
18.8451
14.3417
15.3072
1.60342
1.76487
13.2653
17.0916
10.8652
2.06313
16.44
10.3862
17.1372
20.7601
20.0272
8.10378
15.6281
15.7918
17.3209
16.0378
14.4235
16.2968
14.476
16.6267
14.8137
6.0795
5.59081
1.96894
1.8124
2.19399
14.913
16.9719
10.6249
20.3942
14.7243
14.3319
16.1049
7.00392
9.67984
4.76358
4.96367
3.07014
3.09216
15.0203
13.1351
14.764
13.1716
7.78076
11.7941
7.88346
24.4673
17.1974
21.0933
19.8722
14.6074
14.8043
16.228
14.8355
15.7748
13.8803
17.5804
17.9322
15.7709
15.0129
16.0775
16.5491
17.1895
14.8229
6.89911
8.31633
14.4608
15.3379
13.5712
3.90857
8.17657
12.264
7.70865
3.53738
3.16851
3.54399
1.57455
1.80055
1.53269
17.7342
16.6856
20.6747
19.1186
15.6406
17.5911
17.2646
3.34257
26.9536
20.5065
12.9847
12.4706
11.8964
12.9501
13.0851
13.4675
11.9315
12.5227
12.3218
3.53233
3.71672
15.0349
14.5191
12.7155
17.9795
14.2773
17.0483
18.5474
18.3381
1.51861
1.73789
15.5892
16.4423
14.4207
13.6397
8.14659
1.45038
2.3968
3.37427
3.14919
3.24194
7.84516
12.0943
7.08021
1.58605
2.14463
2.45329
2.61299
1.74954
2.20207
13.8863
15.1253
18.2707
15.7477
19.0618
14.8869
17.5785
16.8592
18.8139
20.9994
8.96586
1.51541
1.7245
1.51101
1.76174
16.1443
14.7091
14.7943
18.6583
15.5013
26.7875
20.929
24.3432
18.7383
1.49879
1.71177
2.02622
1.87902
2.46703
2.68966
2.1646
2.40315
19.5241
16.4342
2.16468
2.05966
1.57933
1.87552
20.4764
17.3952
2.52787
19.2396
14.3557
15.6543
19.1207
1.75737
1.48514
1.72461
16.106
3.55803
3.39398
3.75957
23.0825
17.2719
18.4192
8.65287
9.52859
1.61553
1.91802
24.9257
20.2632
33.6838
22.6279
24.8245
19.1385
18.6645
23.3486
1.53592
1.79507
1.72509
1.52151
1.77171
1.47021
18.8438
15.8377
21.6862
2.81089
2.96864
5.07209
4.83854
4.10973
4.3404
4.51671
1.47235
1.69447
12.7982
13.4347
12.9669
11.2004
29.3427
16.0716
37.5631
22.247
19.1406
16.2817
1.65889
1.50739
1.7399
20.3353
24.3062
21.8767
22.7037
1.69268
1.50037
1.72179
2.87363
3.4706
3.07361
2.75607
3.5906
2.83049
1.49314
2.98797
3.7143
3.06955
2.18531
2.56044
2.70382
28.0245
19.3682
3.25458
3.33623
15.1598
17.0774
15.4258
19.1288
17.8415
22.5478
4.39731
4.174
4.62024
28.5008
21.8799
22.1069
19.3703
18.2496
1.89733
2.38078
8.48547
13.8122
8.10332
11.23
21.466
17.6102
15.8421
17.8159
1.46927
26.9175
18.5331
3.66119
3.53972
3.82308
6.29241
5.7219
7.10895
1.51391
12.515
15.5074
14.9825
1.50262
1.6939
18.5601
20.8812
19.7401
1.45768
1.65065
20.7767
9.79481
11.2495
19.7906
15.7409
18.5794
17.2072
13.6507
15.708
1.46614
1.65014
1.6443
23.5311
1.52598
15.2125
15.4023
16.9591
23.6871
21.009
40.6526
28.612
1.98142
2.35695
20.548
17.1864
19.4453
23.8181
2.07634
1.71148
30.1025
22.3203
1.42485
1.63876
1.51592
1.71346
1.72753
27.639
18.8025
21.9072
1.7042
1.45502
1.63393
41.6208
34.2729
27.1382
20.4876
20.7228
3.73517
3.76813
1.50054
1.73773
1.68668
21.6704
17.9339
14.0291
33.7541
22.9211
29.2873
18.7636
16.8279
1.65938
1.4304
1.65615
9.06943
7.09945
1.50817
1.77493
1.76922
10.8691
18.105
16.0343
20.3587
25.3732
14.9038
21.7402
23.3557
23.1205
26.9469
16.7587
20.885
1.57926
1.8177
1.78024
27.9032
19.0607
21.1627
1.83393
2.17366
18.5265
23.9623
8.52387
19.5893
12.0578
1.98955
17.8068
15.4821
20.8388
17.6482
18.7486
15.2689
18.1564
16.1614
13.7859
16.5948
1.71657
1.87052
18.8775
9.08437
9.27257
1.60571
1.75428
1.58913
1.72634
6.97832
3.2366
3.38108
2.36846
2.01598
2.26619
5.76937
6.36695
5.66785
5.6547
2.28963
5.45961
5.19309
6.74109
3.19182
3.14175
5.37352
5.838
6.60748
2.80203
4.49116
6.12811
4.74796
4.65513
4.86257
3.00931
4.17641
6.53151
6.28565
5.90915
3.48493
5.49577
5.39985
5.53717
5.09647
4.65604
4.73109
2.13739
6.691
5.61576
3.51716
2.08833
2.1308
4.33321
6.0287
5.88554
5.93079
5.71607
5.2473
5.33455
5.89257
6.0042
7.01616
3.17767
4.67244
2.07931
6.34968
7.78168
10.3162
3.1901
7.07141
3.52191
4.26894
4.66164
3.98644
4.34959
2.23488
7.84768
2.90845
4.52298
3.41231
7.54904
4.09497
3.78362
2.78824
3.4836
3.81472
3.58929
2.60498
2.72556
4.20515
3.3534
2.10802
2.13599
3.90242
2.44923
2.96128
5.42204
3.26673
4.41359
5.61365
4.53544
4.38645
4.45542
3.35748
4.99863
5.81244
5.59343
5.37369
3.31407
2.81997
4.64639
4.61989
7.36587
4.98466
5.52413
6.14153
5.96166
6.23459
2.37899
2.49533
5.21439
3.35596
2.05189
5.66761
5.38537
4.4867
5.69638
5.57202
3.69385
3.92561
6.13173
5.96412
6.22645
5.52546
4.264
7.3106
5.73519
5.98868
3.38055
5.97975
4.61971
3.48025
2.15521
4.92976
5.87915
4.43838
6.19091
5.96305
4.97181
4.86851
7.48603
3.1366
3.02569
3.15412
9.7202
6.07185
2.19755
8.92386
2.07447
4.27684
3.83132
2.565
6.23151
6.33244
6.5597
5.05683
6.98789
6.65571
6.37653
6.44521
8.54359
5.68024
7.89731
2.28483
2.33039
4.17658
4.29153
3.91508
3.73799
7.33991
7.04766
6.0052
6.168
6.4695
6.61871
5.30425
4.10674
3.11435
5.47484
4.29428
6.23104
6.97735
5.41763
6.75389
6.7006
9.93783
5.24139
5.15126
5.98278
2.28704
3.1441
5.77772
5.94989
6.23625
6.04789
5.60552
5.79017
2.23529
6.81984
6.94538
6.91378
4.39124
4.81237
5.05264
4.40087
4.87732
5.29761
5.577
4.24822
9.27055
10.5447
4.95715
9.41916
2.85039
3.04605
2.8758
4.02646
2.15651
8.84026
7.83857
6.60665
3.18362
3.23591
3.43258
3.49233
3.37131
8.71192
10.4052
3.55297
6.67309
5.17388
4.92362
4.61151
5.145
4.87449
4.95536
3.22789
2.67908
2.66849
2.74009
2.71253
4.08599
4.88502
5.16443
2.7109
3.20494
4.84159
3.57411
3.94622
7.85369
6.29438
5.83474
6.08529
3.19574
4.57423
4.71238
8.41827
5.37855
5.59416
5.74395
5.74339
3.38313
3.5784
2.1792
2.31416
2.37613
3.96367
5.74857
6.0374
5.8046
5.91128
5.54325
5.49479
5.59679
3.80082
3.75348
4.00408
9.69548
7.67536
9.07852
7.51959
4.41959
4.34665
5.04758
5.89466
5.34741
5.54048
4.63893
6.39073
5.70231
9.42308
8.73306
11.033
2.02274
5.19611
4.60635
4.97076
4.47281
4.80028
2.97446
3.04734
5.84902
5.94907
5.83682
6.25872
5.75178
6.38254
5.83569
5.67365
5.64862
5.93382
4.59086
4.05894
4.2968
4.05394
4.81018
4.66022
5.56897
6.51261
6.37287
6.50592
2.01187
5.86786
3.97108
3.06578
5.73359
5.86449
3.4126
2.89066
7.66056
7.2801
2.35103
5.98327
5.17524
4.62727
4.09051
6.51304
4.95567
4.85408
4.54147
5.32249
3.33228
4.17143
4.93464
5.59831
5.60677
6.0439
3.94892
4.19472
4.24862
2.08459
3.7958
3.83714
5.67143
6.13028
5.85278
6.03722
5.87801
5.67858
3.66522
3.42608
3.74856
3.22612
5.21327
6.58806
8.05521
5.85529
5.98262
6.20034
4.05312
5.00347
4.74534