/*--------------------------------*- C++ -*----------------------------------*\
| =========                 |                                                 |
| \\      /  F ield         | OpenFOAM: The Open Source CFD Toolbox           |
|  \\    /   O peration     | Version:  2206                                  |
|   \\  /    A nd           | Website:  www.openfoam.com                      |
|    \\/     M anipulation  |                                                 |
\*---------------------------------------------------------------------------*/
FoamFile
{
    version     2.0;
    format      ascii;
    arch        "LSB;label=32;scalar=64";
    class       volScalarField;
    location    "160";
    object      k;
}
// * * * * * * * * * * * * * * * * * * * * * * * * * * * * * * * * * * * * * //

dimensions      [0 2 -2 0 0 0 0];

internalField   nonuniform List<scalar> 
184166
(
3.72904
2.61604
2.51171
3.73028
3.2583
3.30635
2.13196
3.03757
3.75692
3.53431
3.68401
2.7274
2.76973
3.05206
3.3927
3.63306
3.80884
3.51315
2.66444
3.65648
2.63592
2.60809
3.15298
3.26493
3.59001
3.47718
3.34413
3.70311
3.47197
2.67764
3.66725
2.06888
4.1959
3.93224
3.79653
2.82489
2.65935
3.63947
2.86337
2.37825
3.54682
2.79634
3.4686
3.83589
3.77023
3.48392
2.3105
3.27924
3.65608
3.48057
2.23611
2.08421
2.34947
3.58748
3.80547
3.33331
3.56008
3.82684
3.79997
2.90008
2.63096
2.91591
3.6675
3.82353
3.63493
2.04437
2.44753
3.50231
2.11506
3.75953
2.4966
3.76748
3.71438
3.66792
2.85159
3.45362
3.20855
3.66089
2.98794
2.31626
2.24644
2.83645
3.54842
3.79342
3.56566
3.70248
2.93594
2.56101
3.08728
2.70061
2.00094
3.23504
3.51247
3.32178
3.23076
2.55008
3.82902
2.06316
2.60653
3.71498
2.72234
2.68489
3.51255
3.46878
2.12156
3.16109
3.71469
3.1751
2.07084
2.73466
2.38531
3.67091
1.99285
2.52521
3.63639
3.41963
2.86943
2.52603
2.12924
2.48959
3.65152
2.68865
3.55767
3.52055
3.48659
3.21933
3.56071
3.56122
3.5131
3.47947
2.60483
3.54942
3.0599
3.20454
2.89473
2.77041
2.83834
3.03169
3.08443
2.48601
3.18118
2.12019
2.1445
2.68128
2.9021
3.69234
2.52511
3.47108
3.83797
3.6626
3.67144
3.49091
3.66934
3.55573
3.64648
3.69672
3.61976
3.53119
3.75533
2.38772
2.02269
2.20251
3.41972
3.01577
3.00395
3.55743
3.55853
3.49269
2.0398
3.56591
3.56108
2.8122
3.0824
4.09104
3.53942
2.23342
2.28742
3.65463
3.50152
3.09513
2.01664
3.48247
3.0541
3.53187
3.59921
2.86128
3.58414
3.20461
2.10986
3.70927
3.40094
3.73821
3.20353
2.07169
4.00832
3.52346
3.41723
3.6451
3.88938
3.52415
3.70907
3.47447
2.06104
3.49747
2.29781
3.55809
2.792
2.66792
2.90048
3.5246
3.77851
3.4827
2.85751
3.01589
2.65843
3.13674
3.56043
3.41432
2.22525
2.188
2.74641
2.9817
3.16231
3.49352
2.24759
2.70862
2.79052
3.77401
3.5734
3.97738
3.73953
2.48929
3.17951
3.55908
3.81078
3.25209
3.81086
3.5062
3.57884
2.07704
1.99245
3.69061
2.5154
3.46548
2.34028
3.40739
3.46482
2.77805
4.08215
3.97305
3.1607
3.47505
3.71303
2.68384
3.08002
3.81826
3.21567
3.49603
3.6096
3.22833
2.92423
2.43044
3.77347
2.67725
3.70924
3.57863
3.60827
2.45682
3.65815
3.17127
3.45952
2.26874
2.93988
3.63949
2.70666
3.1
2.00959
3.09852
2.97976
3.12897
2.6139
4.41994
3.09061
3.57727
2.39101
2.765
4.11526
3.50868
3.47221
3.76406
3.3959
3.33105
3.47241
3.85922
3.68172
3.35827
3.32001
3.66991
3.54526
3.49913
3.52981
3.20691
2.21835
3.52347
3.51083
3.05197
3.49284
3.66588
2.47221
2.09225
3.55619
3.74521
3.58994
3.65938
3.62987
3.1608
3.24031
3.17558
3.42248
3.29111
2.68173
2.82713
2.82157
3.28727
3.53848
2.1118
3.62944
3.23991
2.57949
3.54391
3.76081
2.42633
2.37168
3.64954
2.11299
3.56831
3.31243
3.05609
3.61874
2.95474
3.36193
3.79414
3.69562
4.02487
3.82847
3.93365
2.53542
2.09194
2.94059
2.24417
2.23218
3.56055
3.79839
2.45104
2.71561
3.7317
3.65619
3.02132
3.68094
3.49049
2.95981
2.04211
3.68124
2.48953
3.53744
3.58351
2.10175
2.58567
2.50819
1.98474
2.02358
3.59837
3.8111
3.86972
4.09195
3.99045
3.70772
3.45482
2.62667
3.24688
3.35096
3.39162
3.58255
3.57481
3.27714
3.85847
3.74118
2.88787
3.03007
3.01895
3.2584
3.50804
3.52517
2.02212
3.13218
2.05458
3.97733
3.15525
2.95991
3.13814
3.77611
3.39733
3.90829
3.67585
2.36481
3.33664
3.75861
3.72771
3.21414
2.66163
3.4076
2.99298
3.03282
2.88402
2.86269
2.63934
3.68528
2.34253
2.28818
2.23512
4.04609
3.0076
2.98449
2.98757
2.87443
2.07662
2.13249
2.18083
2.56733
2.52284
2.58287
2.1498
3.98871
3.70923
3.90664
3.88164
3.67807
3.84277
3.56631
3.57291
3.67532
3.67776
3.80179
3.75225
3.77867
3.73487
4.05925
4.16551
3.503
3.58609
3.40823
3.41255
3.4573
3.53411
3.25864
3.55993
3.52211
3.50835
3.53641
4.06866
3.66061
2.12545
2.06553
2.04902
2.03652
2.28427
2.12918
2.22662
3.63638
3.69071
3.66961
3.73085
3.6838
3.58138
3.1913
2.87965
3.08865
3.86317
3.52317
3.49459
3.49161
3.48154
2.0146
1.97827
2.76192
2.82086
2.75515
2.67458
2.63051
2.66879
3.07428
3.40299
3.31655
3.38013
2.93297
3.89778
3.83338
3.8166
3.86421
3.96705
3.90048
3.89071
3.62593
3.57114
3.57151
3.55476
3.64431
3.57307
2.66851
3.50592
3.59638
1.9905
2.02234
1.98723
3.77185
4.01567
3.86633
3.58342
3.68625
3.60732
3.69224
3.79364
4.02533
3.52357
3.57138
3.61562
3.62393
3.96014
3.98365
4.18194
4.13719
3.93382
3.73506
3.96107
4.19772
3.95293
4.04216
3.63205
3.87539
4.1847
4.07382
3.78822
3.94389
3.74301
3.67379
3.76397
3.67382
2.30322
3.06411
2.85147
2.75998
3.06552
2.86759
3.01137
3.07224
2.81511
2.96902
2.64642
2.52208
3.86691
3.75262
3.89806
3.85747
3.7258
3.83059
3.83016
3.81697
3.64997
3.49292
3.10976
3.05603
3.12899
3.24293
3.53485
3.64953
2.13468
2.35503
2.04293
2.041
2.08143
2.05636
3.88025
3.89405
4.00742
4.03891
4.15374
4.11136
3.89485
4.159
3.56979
3.54726
3.58118
3.63893
3.58487
2.01785
3.3031
3.1895
3.15602
3.68018
3.72477
3.71274
3.73829
3.71251
3.70568
3.73204
3.74893
3.74226
3.64067
3.76464
2.64585
2.64303
2.95444
2.72183
3.63096
3.81555
3.84427
3.77264
3.95762
3.68493
3.98382
3.87216
3.41531
3.60895
3.51677
3.60717
3.73246
3.82527
3.5437
3.39364
3.33686
3.32101
3.17824
3.10414
4.03648
3.99904
3.57361
3.537
3.55569
3.82475
3.6013
2.91566
3.46547
3.64465
3.72629
3.62818
3.64575
3.6638
3.69691
3.68362
3.71514
2.23813
2.4079
3.5185
3.71121
3.88948
3.70961
3.30374
3.84259
3.71563
3.81614
3.79672
3.70479
3.76898
2.14267
4.09644
4.19787
4.0851
4.11876
2.91072
3.9299
4.00749
3.82183
3.96166
3.72299
3.94423
2.39289
2.11836
2.13717
2.2756
2.2782
2.14482
3.01682
2.43066
2.54584
3.80445
3.60504
3.75821
3.02223
2.84221
3.01857
2.9178
2.84385
2.92561
3.5071
3.57182
3.50448
3.51045
3.54877
3.71979
3.05728
3.02588
3.83133
3.50014
3.24491
3.28508
2.5448
3.23641
3.67442
3.65357
3.02372
3.12563
3.05263
2.84854
2.75189
2.84546
2.75316
2.88713
3.33953
3.68351
3.60714
3.62672
3.01925
3.15096
3.26188
3.30487
3.36051
2.73033
3.16897
3.27141
3.41155
3.4213
3.63665
3.50325
2.94244
2.91796
2.69803
2.83098
2.87004
3.82833
3.50541
3.82043
3.92297
2.77183
3.05716
2.03669
2.03958
2.02698
3.57599
2.7838
3.0159
2.7676
3.68728
3.32631
3.45175
3.28851
3.00612
3.0526
3.11625
3.07886
3.56849
3.22992
3.58588
3.35078
2.70322
2.63459
2.7077
2.66444
2.63161
2.64837
2.60982
2.59278
2.58053
3.12099
3.03587
2.66547
2.6962
2.63067
3.33288
3.18495
3.34442
3.27515
3.55869
3.61853
3.58444
3.96268
3.39404
3.36405
3.23562
2.6715
2.7806
2.03041
2.02862
2.03995
2.03705
3.06976
2.73326
2.68946
2.66949
2.64295
2.64797
3.44165
3.50012
3.71569
3.52977
3.60346
3.73948
3.13113
3.14494
3.23454
2.5439
2.62851
2.61281
2.61831
2.61619
2.03937
2.06839
3.60668
3.61822
2.07234
2.14218
2.08175
2.05996
3.75298
2.26073
2.53005
2.27444
2.38229
2.741
2.86904
2.88193
2.77403
3.77821
3.40611
3.45995
3.32826
3.24359
3.44846
3.51209
3.7347
3.05236
2.93483
3.18656
2.99243
2.87462
2.54239
3.92247
4.00181
4.08464
3.44032
3.92127
3.79394
3.45077
3.18792
3.27224
3.45356
1.96536
1.93502
3.22515
3.03394
2.954
3.3152
2.98169
3.21318
1.95758
1.94159
3.88989
3.92642
3.84277
3.92217
3.92117
2.55288
3.62535
2.86802
3.457
2.05006
2.08656
3.52811
3.53199
3.50834
3.51071
3.551
3.55553
2.19388
2.36928
2.79041
2.7043
3.44419
3.76011
3.37809
3.58742
2.21329
2.20663
3.84665
3.75442
3.37773
3.42841
3.50111
3.39948
3.4759
3.51637
3.76497
3.67882
3.72613
2.3727
2.77586
2.50942
3.31012
3.31784
3.512
3.42855
3.7376
3.68725
3.74522
3.80475
3.96865
3.94912
3.7852
3.85019
3.74142
3.88919
3.80171
3.68816
3.71872
3.45318
3.39022
3.46808
3.31936
3.01275
3.08587
2.86389
2.72019
2.70121
2.76058
2.65697
2.73875
2.94363
3.66879
3.5156
3.4679
3.48657
3.39483
4.00627
3.97556
3.69936
3.37825
3.57531
3.02223
3.4355
3.45619
3.39097
3.38693
2.34606
2.28528
2.42478
2.36628
2.28285
3.52464
3.56843
3.55351
3.98359
4.00615
3.84469
3.88729
4.1653
4.16643
3.71568
3.88694
3.73265
3.66452
3.63689
2.98332
3.07972
2.8621
3.37294
3.25497
3.42176
3.47669
3.49821
3.81702
3.73059
3.64672
3.67479
3.50677
3.62826
3.73464
3.57086
3.99648
2.96387
3.0719
3.03624
2.86965
3.03427
3.03989
3.1367
2.86146
3.60372
3.59146
3.65198
3.59631
2.37116
2.52013
2.37231
2.3747
2.93095
2.87321
3.69275
3.85919
3.83773
3.69916
4.05427
3.91686
3.62694
3.58056
3.62193
3.66201
2.14398
2.03188
2.01378
1.96466
3.49938
3.54883
3.48713
3.49284
3.19142
3.16458
3.21525
4.21347
4.16734
4.12989
4.08359
4.06582
4.12115
2.76687
2.57323
2.6719
2.47579
3.07203
3.18503
3.1884
3.22365
4.14471
4.02103
4.07323
3.83893
4.02744
3.41227
3.28075
3.94544
3.53703
2.87654
2.97066
2.65426
2.68409
2.89904
3.50783
3.48695
4.17775
3.76469
3.80682
3.87933
3.85402
2.14379
2.10222
2.08519
2.64308
2.62643
2.93844
2.87374
2.95472
2.92823
3.29065
3.20721
2.45405
2.17167
2.58435
3.20153
3.31486
3.67355
3.63731
3.81232
3.65121
3.63683
2.06026
2.05231
2.06286
4.19426
4.12737
3.86117
3.86313
2.05826
2.03896
3.47382
3.52367
3.25003
2.7362
2.81877
4.11959
3.8984
3.45993
3.48975
3.47119
2.02904
2.02879
2.02769
2.01289
2.01841
3.32252
3.77775
3.416
3.3368
3.2229
3.23757
3.86112
3.40295
3.4083
3.44596
3.41648
2.75358
3.64601
3.62635
3.49787
3.51163
2.53712
2.56406
2.53176
2.53106
4.03513
3.92302
3.80323
3.90981
3.76704
3.82641
2.92024
2.90226
2.81597
3.63579
3.71416
3.42603
2.62266
2.23898
2.26276
2.42625
2.29162
2.90883
2.49401
2.37276
2.71951
4.21988
4.3059
3.51479
3.25587
3.46607
3.22895
3.34217
3.61468
3.67309
3.60849
2.06027
2.03421
2.04552
2.07355
3.54093
3.44142
2.31603
2.17852
2.15359
1.93114
1.93025
2.96674
3.09153
3.10541
2.91927
2.99668
3.15664
2.74303
2.52015
2.0954
2.08924
2.12824
2.06674
2.0615
2.72464
2.66662
3.33286
3.3098
3.45182
3.37828
3.52455
3.55184
3.38114
3.43307
3.3234
2.10334
2.27052
2.80467
2.92771
2.38902
2.38481
2.38631
3.52929
3.53297
3.56103
3.82695
4.07678
3.92841
3.84858
3.99843
4.08717
2.06059
2.39986
2.25128
2.36952
2.35968
2.57424
2.58882
2.20359
2.21311
3.41896
3.47415
3.47609
3.52055
2.19968
2.18668
2.19451
2.22685
3.44106
3.46963
3.27444
3.40516
2.99022
3.31077
3.03849
3.2287
4.16753
4.1723
3.23666
3.0919
2.4216
2.95932
2.82149
2.83622
2.68362
2.17692
2.53069
2.41574
2.83348
2.56583
2.64356
2.45186
3.36778
3.32333
3.00059
3.18959
3.16464
3.23407
2.38526
2.48978
3.18234
3.38842
2.99178
2.9979
2.96187
2.92511
2.98351
3.09525
3.19843
3.36709
3.3544
3.22165
4.01727
3.96317
4.14462
4.03064
3.58359
3.60882
3.06169
3.16145
2.059
2.08788
2.06202
2.08807
2.08131
2.08129
2.11445
2.08235
2.57863
2.56287
2.61221
2.67512
2.67534
3.5344
3.59989
3.6404
3.51212
3.54214
3.75241
3.74617
3.66446
3.63982
2.82814
2.78648
2.02608
2.02872
2.03452
2.04942
2.04954
4.08311
3.88782
2.96649
3.01181
3.05859
3.65346
3.53761
3.77856
3.50613
3.49384
2.98322
3.54824
3.55559
3.61807
3.5287
3.4567
3.53379
3.94448
3.792
3.77091
3.87714
3.79119
3.70507
3.54151
3.79614
3.74261
3.13849
3.00727
2.8295
3.54798
3.55641
3.51098
3.5227
3.41011
1.94392
3.39887
3.44457
3.47253
3.44289
3.48094
3.55037
3.55113
3.61835
3.64134
1.96843
1.94481
1.94681
2.05432
2.05615
2.05888
2.0591
4.29926
3.74276
3.77285
3.94413
3.76204
3.60332
2.85597
3.72389
3.70894
2.35093
2.59518
2.36479
2.59503
2.62885
2.75339
2.74011
2.58045
2.72084
3.35421
3.32612
3.67688
2.05466
3.59219
3.29004
3.06278
2.33804
2.34444
2.36336
2.92926
3.01619
2.86677
2.80494
2.66983
3.40819
3.31507
2.66167
2.61234
2.56699
2.56996
2.6586
2.57339
3.6081
3.68428
3.69362
3.11075
3.19773
3.35884
3.2089
3.09442
3.88625
3.65645
3.67227
3.34843
1.93408
1.91639
3.80339
3.43017
3.24105
3.30555
3.30761
3.62232
3.43218
3.52416
2.02191
2.05005
2.03924
2.04812
2.03242
4.12181
3.95926
1.93083
3.44297
2.66589
2.45965
3.13237
2.79128
3.148
2.93705
2.72501
3.71758
3.56541
3.65735
3.72179
3.75719
3.38362
2.93808
2.92236
2.04979
2.04876
2.04916
2.04389
2.04253
2.05001
3.50555
2.16833
2.04016
1.92146
1.97903
1.94583
3.77255
3.76209
3.5113
3.26269
2.71179
2.70135
2.92357
2.55736
2.25947
2.61582
2.51695
3.66781
3.59991
3.72511
3.64007
3.56162
3.55229
3.51359
2.18896
2.25334
3.23399
3.26054
3.09828
3.20023
3.15495
3.45749
3.44001
3.47925
3.14365
3.27416
2.76394
2.96795
2.99237
2.72589
2.84881
3.01329
2.85347
2.89133
2.82534
2.97385
3.0461
3.51968
3.56979
3.58534
3.53151
3.56785
2.26811
2.20838
2.56018
2.3515
2.65151
2.48474
3.59681
3.71419
3.67384
3.74036
2.80455
2.99168
2.88973
2.83255
2.70647
2.52728
2.60789
2.04047
2.03994
4.04716
4.17135
3.51169
3.46701
3.48524
3.34487
1.99345
1.96465
1.91992
1.99404
1.96217
3.71495
3.71879
3.3334
3.26723
3.24202
2.96008
3.0024
2.87879
2.47414
2.51857
2.44645
2.46017
2.03159
2.03627
2.03177
2.03777
3.27422
3.51397
3.53982
3.47638
3.10969
3.17717
2.79123
3.7514
3.7886
3.96898
3.73554
3.85924
3.84902
2.17806
2.375
2.13323
2.22002
3.24193
3.39372
3.34863
3.38283
3.27253
2.04365
2.03417
2.03542
4.15926
4.12194
3.25383
3.13777
2.98438
2.38264
2.67978
2.69764
2.40712
3.87717
3.91037
3.89693
3.96062
3.92675
3.93282
3.27098
3.34739
3.3955
3.21429
4.08127
4.33141
2.67714
2.78986
2.42405
4.18295
3.20534
3.13767
3.12036
2.62853
4.15497
3.56602
3.58011
1.94943
2.42851
2.34449
2.37496
2.41888
2.34388
2.34546
2.04149
2.0357
2.16754
2.08089
2.40329
2.48474
2.4047
2.44367
2.40376
2.48646
2.40371
2.45097
2.7647
2.5962
3.29629
4.00202
4.18334
2.8512
2.04904
2.02267
2.0267
2.03244
3.29604
3.17699
3.1336
3.51019
3.26711
3.26985
2.76536
3.5432
3.51977
3.55377
2.53933
2.50013
2.31258
2.29953
3.22994
3.30264
3.55891
3.57274
3.5346
3.63504
3.35501
3.39476
3.96472
3.91753
4.15834
2.97296
3.34805
3.2741
2.89768
3.15417
3.88543
3.82693
3.76491
3.52876
3.77661
1.97922
1.9242
3.3662
3.45255
3.51397
3.52067
3.36924
3.42112
3.46778
3.51284
3.44057
3.46456
3.51392
3.52432
3.3619
3.45161
3.38263
3.43517
3.81263
3.76702
3.84132
3.81448
1.91004
1.88517
1.95674
2.00676
3.15301
3.13588
3.93845
4.00133
3.8761
3.03725
3.04088
3.06551
3.75864
3.64347
3.68165
3.70277
3.77079
3.0038
3.29003
2.95366
3.03681
2.85191
2.85716
2.59458
2.55301
2.56826
2.71985
3.18991
3.33249
3.52656
3.53759
4.12886
4.10923
2.05336
2.05061
3.58404
3.52551
2.53591
2.509
2.51093
2.47394
2.5004
2.51201
2.32284
2.25205
2.36714
2.17039
2.19381
2.28978
2.16249
3.08373
2.99547
2.99974
2.92126
3.25064
3.21564
3.08732
3.17506
3.08609
3.13163
3.81576
3.86508
3.92002
3.82002
3.91473
3.45043
3.49742
2.86056
2.71089
2.68866
2.93469
3.27254
3.32941
3.33046
3.07461
2.95731
1.92229
1.87297
2.53448
2.64513
3.03756
2.18575
2.13688
2.14099
2.30428
2.22273
3.60193
3.5544
3.57498
3.51441
3.56503
3.2743
3.33271
2.10443
2.21039
2.12729
2.14653
2.24549
2.13484
2.26671
2.40802
2.45093
2.29414
2.0521
2.03894
1.96498
4.15174
4.13164
4.15575
4.01281
4.19601
3.37007
3.2585
2.85799
3.25832
3.30871
3.21011
3.19757
2.29117
2.64602
2.45886
2.46144
2.29546
2.28202
2.15827
2.43571
2.3693
2.12745
2.17565
4.16787
4.05725
3.85554
3.8137
3.81876
3.2099
2.68909
3.01803
3.85884
4.17999
3.95908
3.54205
3.45266
3.49093
2.88723
2.74505
2.37048
2.28016
2.68038
2.35585
2.9947
3.03916
2.96689
3.04546
3.13285
3.17573
3.06866
2.95741
2.9473
2.23881
2.14213
2.21056
2.84238
3.48766
2.8572
3.19124
3.53375
3.40458
3.12961
3.43134
3.18613
3.69751
3.93488
3.57052
2.90409
2.96649
3.11231
3.16669
2.0082
2.04827
2.09924
2.09158
3.51532
3.47462
2.07408
2.06949
2.92329
2.88025
2.92919
4.22548
1.88215
1.90179
1.94537
2.18735
2.077
2.09325
2.74666
2.62959
3.41255
3.40099
3.33509
3.30304
2.43373
2.49204
2.74099
1.89981
2.77296
2.66921
2.56933
2.74045
2.60904
2.56794
2.78964
2.67894
2.76354
2.6179
2.71409
2.70888
2.931
3.58833
3.56103
2.06098
2.11833
2.00159
3.44003
3.38757
3.40407
3.2688
3.24587
3.19892
3.22802
3.03391
2.9052
2.92689
2.92895
2.96085
2.73725
2.96916
2.87975
2.80875
2.93671
2.60715
2.60361
2.61953
2.64419
2.63674
3.01619
2.87819
2.88785
3.00047
2.92963
2.92014
2.85898
2.98234
2.96389
2.96363
2.91737
3.36193
3.30052
3.38377
3.34023
3.29395
3.84929
3.77895
3.79942
3.8222
3.84761
2.94687
3.04655
2.93644
3.09036
3.03946
3.57529
3.56395
1.97428
2.49806
2.64506
2.71567
3.29339
3.21525
2.3465
2.25756
2.25799
3.64399
3.5151
3.66666
4.26947
3.88365
3.80841
4.20968
4.22713
3.92998
4.148
4.18775
4.06309
2.83041
2.98073
3.53289
3.50924
3.50208
3.53675
2.5622
2.43788
2.25283
2.83414
2.21713
2.5409
2.59288
2.37522
3.64261
3.84531
3.68935
4.55962
2.23389
2.38402
2.43304
2.86172
2.86379
2.63732
2.62169
3.09666
3.05501
5.10221
3.60243
3.4876
3.71626
3.78268
2.92588
3.11415
2.79571
2.52582
3.16328
3.22936
3.21528
3.24612
3.56616
3.5683
3.53154
3.52822
3.52831
3.53618
3.54763
3.51753
3.52057
2.49996
2.45217
3.06949
2.31392
2.33723
2.66411
2.56608
3.2755
3.14925
3.23983
3.28986
3.18253
3.0941
3.22207
3.28361
3.37513
3.22582
3.44553
3.66332
3.92354
4.17261
3.05401
3.06246
3.20363
3.13631
3.20849
3.16155
3.54456
3.54421
3.56243
3.56739
3.52766
3.55232
3.92834
3.64996
4.2328
3.93724
3.56184
3.5526
3.54946
3.51131
3.54458
3.56835
3.60272
3.12925
3.19245
3.19146
2.67817
2.17906
2.97393
3.08471
3.37625
3.37996
3.32438
3.28077
3.3122
2.65132
2.57828
2.59276
2.70275
2.6646
3.02294
2.92109
2.93399
3.07977
3.03059
2.10116
2.06463
2.10227
2.13143
2.06243
2.05274
2.37915
2.11161
2.12266
2.21115
2.24069
2.16286
4.44753
3.38794
3.39489
3.44731
3.44251
3.45695
1.87946
3.58634
3.64583
3.663
3.56107
3.59919
2.96691
3.0583
3.02076
3.0465
2.99395
3.1116
2.93715
3.23401
3.08638
3.11495
2.56297
2.77666
3.16126
2.98562
2.08952
2.11872
2.21154
2.26909
2.09788
2.16613
2.65828
2.57853
2.49085
2.35091
2.41269
2.32472
3.56812
3.55426
1.98141
1.93468
1.94047
2.00894
2.02068
3.97783
3.84892
3.9299
3.8672
3.82085
3.56624
3.46943
3.60285
3.52224
3.74153
3.90053
3.81656
3.22277
3.17819
3.14709
2.84472
2.92062
2.95537
2.1817
2.11291
4.02918
4.14593
4.46499
3.49383
3.54677
1.91215
1.88987
2.4652
2.301
2.24664
2.44594
2.14333
2.14385
3.28393
3.26038
3.3062
3.34645
3.34869
3.17723
3.22089
3.34688
3.25349
3.26228
3.41161
3.39458
3.92175
3.7021
3.56851
3.61012
3.8111
4.4378
5.36276
2.61288
2.57346
2.47795
2.50905
2.44482
3.53508
3.66907
3.56276
4.05226
4.27679
4.35839
2.50891
2.62358
2.64473
2.78343
2.7596
2.65699
2.59189
2.68097
2.83872
2.73227
2.62982
2.62352
2.64518
2.5995
2.59059
2.64189
2.60809
2.91749
2.93215
2.91488
2.88297
2.88916
2.88804
2.90187
2.87626
3.23799
3.34021
3.52164
3.51598
3.77144
3.9824
3.73329
3.46904
3.52184
3.34095
3.35406
3.41871
3.4
3.21055
3.26969
3.16195
2.79145
2.747
2.77793
3.09074
3.17551
3.13713
3.68474
3.72221
3.70025
3.75404
3.69513
3.70621
3.58246
3.6331
3.46311
3.58418
3.43805
3.55873
3.54032
3.61043
3.60961
3.55064
2.01018
1.99197
1.96118
3.41034
3.38009
3.49289
3.0328
3.13385
3.11396
3.11644
3.14551
1.96491
1.99662
3.56309
3.51965
3.48639
3.4976
1.95747
1.98333
1.90003
3.08831
3.13791
3.5638
3.58537
3.5822
4.08778
3.96042
3.56223
3.60427
3.58873
3.58944
3.57404
2.42674
2.2449
2.68964
2.41468
2.5121
2.85739
2.6208
3.04687
2.96555
2.76151
2.96524
2.83957
2.99329
3.22864
3.50628
2.22467
2.26158
2.17664
2.44089
2.41506
2.6032
2.60007
2.88926
2.65238
2.60561
2.64054
2.6098
2.59497
3.9373
4.16558
4.64864
3.37783
3.38465
3.72444
2.89314
2.88224
2.83691
2.81673
2.91547
2.92759
2.0497
2.05817
2.07901
2.06307
2.04065
2.04327
2.70493
2.52164
2.60288
2.74247
2.40663
2.36729
3.10853
3.08925
2.9841
3.01481
3.01251
3.06885
3.79379
4.07922
3.93633
3.43319
3.32097
2.81836
1.99443
2.04061
1.99317
2.01358
2.01744
2.04676
3.29112
3.24599
3.49694
3.64378
3.6766
3.31823
3.29514
2.12525
2.15732
2.28201
2.2062
2.32853
2.43424
2.27598
2.61399
3.08354
2.8136
2.4602
2.24733
2.20725
2.42766
2.27772
1.89079
1.89547
2.7425
2.71286
2.54626
2.51971
2.4609
3.40528
3.45726
3.42504
3.46954
3.52978
3.58343
3.6087
3.59999
3.69119
3.56613
3.61565
3.69746
3.84099
3.85374
3.77885
3.85557
3.33348
3.28326
3.04619
3.10981
3.26438
3.11466
2.62577
2.62922
2.95441
2.95955
3.03129
2.98843
3.63134
3.62649
3.58389
3.58929
3.61506
2.51916
2.60128
2.41532
2.40534
2.4647
2.55793
3.41526
3.3487
3.39702
3.36045
3.19004
3.29501
3.26885
3.20998
3.54626
3.62049
2.76405
2.94998
2.98117
2.43931
2.39338
2.59489
2.67838
2.59074
3.15623
3.07856
2.70329
3.05943
2.6084
2.78792
2.88997
3.6241
3.60472
3.58743
3.62732
3.73109
3.76828
2.70609
2.425
2.52357
3.70925
3.43661
3.56741
3.58737
3.69486
3.66671
3.66137
3.59803
3.95629
3.9044
3.79832
3.92705
3.82285
3.49582
3.57255
3.62196
3.5647
3.49012
2.35118
2.18862
2.10304
2.11317
2.05158
3.09188
3.18604
3.26274
3.70759
3.75969
3.68994
2.7567
2.79306
3.41989
3.26776
3.21664
3.33137
3.44538
1.9574
1.9695
1.99903
1.96216
2.00046
2.02282
2.02028
2.8791
2.93025
3.01692
2.95069
3.01946
3.57162
3.56132
3.93866
3.87302
3.85431
3.94831
3.95246
4.32682
3.07415
2.98054
2.97186
3.07259
2.95989
2.92863
2.85474
2.80542
3.14157
3.0459
3.74227
3.73508
3.68418
3.76936
2.97798
2.99668
2.94774
3.04518
2.92288
3.15546
3.11712
3.09537
3.00141
2.82775
2.72453
2.81743
2.82262
2.99042
2.72803
2.66639
2.5953
3.0975
3.03236
2.96531
3.15162
3.01016
3.64378
3.66419
3.80041
3.72638
3.65205
4.16095
4.38817
2.94431
3.01968
2.9306
3.73536
3.68671
3.76389
2.76986
2.5958
2.86869
3.04484
2.75096
2.63007
2.71694
2.49207
2.53214
2.47955
2.43393
2.53241
2.43132
2.51317
2.45646
2.50699
2.45676
2.4973
2.53717
2.9784
3.12823
3.00619
3.08749
3.10911
3.03671
3.81094
3.71068
3.76977
3.71942
3.84156
3.80998
3.82106
4.32502
4.59303
3.73393
3.79216
3.89768
3.69683
3.79647
2.51318
2.43472
2.48527
2.42382
2.46909
2.59483
2.65181
2.74966
2.63476
2.81108
2.77741
2.99969
2.97604
3.15047
3.14882
3.33928
3.19535
3.30673
3.30368
3.20716
3.28063
3.35619
3.32219
2.63762
2.69503
2.52404
2.49829
2.43948
2.42542
2.47147
3.03633
2.8734
2.98293
2.53867
2.51471
2.59749
2.73757
2.71014
2.6389
2.62738
2.69862
2.52499
2.47082
2.50712
3.72288
3.51464
3.69941
3.57084
4.32657
4.43457
2.93882
2.86988
2.7976
2.92825
2.84822
3.1587
3.05955
3.18246
3.06916
3.13878
3.07941
3.02418
3.08067
3.02797
2.97927
2.98895
2.99731
2.82214
2.94898
2.8789
2.84311
3.93397
4.09667
3.16139
3.16804
2.20352
2.17276
2.10903
2.08537
3.29956
3.30559
2.54696
2.59068
3.01172
2.77745
2.72375
3.01722
3.89072
3.77275
3.53592
3.56818
3.77792
3.84855
3.83165
3.76583
3.82415
3.85798
3.83189
3.84986
3.84811
3.85864
3.43327
3.3662
3.3161
3.72045
3.86221
4.70633
4.74013
3.38552
3.3357
3.41352
2.27366
2.14459
2.2567
2.22698
2.10243
2.11822
3.32615
3.15925
2.93221
3.32632
3.14824
3.32228
2.3214
2.26983
2.50941
3.21252
3.31
3.22759
3.27995
3.29823
3.26355
3.41201
3.36565
3.39639
2.68897
2.83197
3.07925
3.23737
3.21245
3.04111
3.12431
3.30012
3.32839
3.18576
3.16338
3.24828
2.87958
2.81134
2.97119
3.57981
3.49911
3.57468
3.45292
3.43835
2.194
2.12552
2.14664
2.13324
2.17478
2.07082
2.06159
1.99183
1.93528
2.01614
1.98338
2.00994
3.69439
3.75411
3.69141
3.77989
3.4491
3.2802
3.08413
2.45384
2.45074
2.49103
2.83866
2.893
2.99519
3.81744
3.82215
3.81971
3.79841
3.77588
3.79487
3.54576
3.70189
3.6095
2.00264
4.02841
3.69796
3.93433
2.1896
2.11065
2.33645
2.19303
2.1267
3.73122
3.82207
3.36529
3.39578
3.35182
2.03942
2.05209
2.59071
2.28876
2.12926
2.08468
3.64166
3.46394
3.5007
3.46199
2.21466
2.22117
2.98865
2.92093
2.86897
3.26472
3.08855
3.01785
3.53159
3.38007
2.86678
2.78042
3.00523
2.91888
3.49266
3.49979
3.49611
3.49203
4.59451
5.1061
4.07472
4.72201
2.71403
3.43172
1.69277
2.66841
2.63995
5.0831
5.96547
3.44109
5.28322
3.01541
5.84986
5.38572
4.17195
4.25483
5.55435
4.96825
4.84021
4.68404
4.72624
5.27118
4.47679
4.37903
4.52847
4.26269
4.62653
4.95354
5.40667
5.05443
2.02368
4.5816
4.65399
3.95763
4.79825
5.12132
4.75072
4.63762
5.43186
4.68487
4.57628
1.71135
1.81063
4.58072
5.0157
3.89585
1.97028
4.74031
3.81886
4.4522
4.70676
4.63576
3.68501
4.68275
4.6611
4.72974
5.01041
4.81289
5.11071
4.5915
4.74117
4.62083
3.53912
3.47979
1.92621
1.83454
2.04324
4.93501
5.2812
3.90169
5.60331
4.72364
4.62319
4.77456
3.53788
3.77067
3.31667
3.37012
2.62815
2.6391
4.93523
4.70307
4.73544
4.53658
3.65752
3.98865
3.71291
6.38184
5.26567
5.86399
5.70786
4.6687
4.67304
4.7562
4.61876
4.57526
4.4314
5.26739
5.21609
4.9898
4.79913
4.99253
4.86754
5.176
4.82914
3.63812
3.8238
4.75028
4.83726
4.6353
3.00636
3.67005
4.04058
3.59514
2.7743
2.59889
2.71617
1.68828
1.84272
1.65788
5.05087
5.08723
5.57916
5.42451
4.94208
5.09315
5.15461
2.6713
5.90444
5.05911
4.59632
4.29987
4.40971
4.54101
4.32054
4.59901
4.33483
4.26887
4.43972
2.84443
2.92515
4.89679
4.65037
4.55108
4.93581
4.4458
5.15977
5.17842
5.31818
1.64642
1.80153
4.7126
4.80618
4.65901
4.18114
3.71433
1.60856
2.18655
2.77266
2.66669
2.71112
3.64413
4.03541
3.54171
1.70238
2.0337
2.17357
2.2688
1.80155
2.04377
4.57663
4.71346
5.18127
4.88111
5.27542
4.76674
5.05874
4.60826
4.69088
4.89981
3.87324
1.64626
1.79286
1.64444
1.82024
4.79477
4.67077
4.77252
5.24691
4.78823
6.40735
5.61686
6.00024
5.12753
1.63944
1.77961
1.95966
1.88275
2.21309
2.30094
2.0408
2.15208
5.3394
5.08591
2.0546
1.97731
1.70454
1.87868
5.61341
5.25244
2.26398
5.61788
4.79395
5.11061
5.69157
1.81605
1.6256
1.7936
4.33168
2.85398
2.78015
2.94171
5.97773
5.12993
4.42624
3.73507
3.82109
1.72302
1.89958
5.55249
4.95419
5.81382
4.77271
6.13342
4.36956
4.24787
4.95317
1.6645
1.84046
1.79494
1.66247
1.82211
1.61513
5.57495
4.99947
5.62032
2.41479
2.45743
3.4013
3.3392
3.08726
3.17622
3.23908
1.61653
1.77307
4.61654
4.53406
4.53004
3.92764
5.66228
3.89809
6.11754
4.64569
5.4474
4.9899
1.75037
1.6452
1.80338
5.43409
5.82554
5.42839
5.78771
1.77329
1.63771
1.79364
2.43679
2.69336
2.49799
2.35844
2.71082
2.36769
1.64205
2.51073
2.78727
2.51086
2.06541
2.22838
2.32003
6.51035
5.09094
2.64331
2.6424
4.71163
4.78928
4.69483
5.46784
5.29481
5.85453
3.1958
3.11098
3.27358
6.64722
5.58381
5.83032
5.45172
5.28722
1.88552
2.13336
3.79931
4.21906
3.72085
4.19203
5.75005
5.07876
4.91729
5.11617
1.6205
6.37913
5.04971
2.79135
2.76382
2.83927
3.5557
3.49414
3.64562
1.64757
4.50673
4.90359
4.82523
1.64339
1.77481
5.08251
5.2113
5.08793
1.60762
1.74276
4.58875
3.90456
4.03982
5.20197
4.77614
5.16308
5.11987
4.81362
5.03978
1.61532
1.74411
1.73896
5.9246
1.66536
4.66128
4.64901
4.69906
6.18682
5.85815
7.87406
6.51334
1.94201
2.13348
5.50531
5.02864
5.32032
5.5326
1.98365
1.78141
6.29258
5.36237
1.58292
1.73502
1.65085
1.78677
1.79694
6.54185
5.07847
5.52384
1.78073
1.61493
1.73586
8.23581
7.14764
6.39983
5.24738
5.34848
2.82558
2.82395
1.65123
1.80138
1.7707
5.58187
4.98288
4.48384
7.20516
5.76518
6.52297
5.23034
5.11536
1.75111
1.59037
1.74957
3.70638
3.60033
1.6542
1.82419
1.81538
4.19743
5.41394
4.89782
5.6023
5.99603
4.67028
5.35197
5.41894
5.39496
6.4002
4.92122
5.26637
1.69686
1.85571
1.82857
6.92082
5.58515
5.65044
1.85241
2.03614
4.58323
5.40851
3.69515
4.52257
4.03881
1.94528
5.08818
4.87352
5.64882
5.23936
5.4354
4.43516
4.91477
4.71629
4.42226
4.78998
1.78301
1.87945
4.78122
3.79118
3.80719
1.71552
1.81056
1.69699
1.79482
4.03605
2.70702
2.77414
2.15546
1.98334
2.11946
3.57858
3.88142
3.5746
3.63167
2.14324
3.55124
3.40151
3.76815
2.68388
2.57163
3.51666
3.74947
3.84475
2.50732
3.08563
3.66652
3.3292
3.30733
3.09531
2.42472
3.1212
3.70709
3.83862
3.16192
2.79986
3.58887
3.54657
3.58226
3.26809
3.08038
2.97479
2.04272
3.67212
3.62373
2.64291
2.08476
2.04253
3.18784
3.60107
3.57281
3.56766
3.56334
3.38258
3.37192
3.38569
3.6994
4.06089
2.67677
3.30347
2.02355
3.80726
3.70769
3.97306
2.658
3.84756
2.6836
3.15636
3.32036
3.04717
3.19563
2.08691
3.88195
2.44763
3.24995
2.78799
3.712
3.09072
2.96222
2.49167
2.80758
2.96109
2.86478
2.39377
2.4511
2.94533
2.60053
2.11185
2.11819
2.97578
2.30006
2.55683
3.38766
2.72205
2.95016
3.54932
3.11687
3.05308
3.05884
2.61881
3.4377
3.70169
3.63261
3.56727
2.73934
2.49757
3.07865
3.06335
3.66236
3.35588
3.40313
3.59549
3.59325
3.58689
2.25603
2.32931
3.40812
2.76499
2.0026
3.50118
3.4362
3.18119
3.65617
3.59317
2.90678
2.78937
3.76676
3.70925
3.78679
3.48367
3.14809
3.70476
3.50221
3.54254
2.58845
3.5089
3.07999
2.72432
2.0687
3.42447
3.73854
3.07766
3.66544
3.63767
3.2143
3.16948
3.81832
2.66008
2.60583
2.66855
4.04447
3.69627
2.1863
4.05717
2.01667
3.01995
2.86224
2.37285
3.75322
3.71732
3.90487
3.38558
3.81999
3.79805
3.85814
3.8502
3.96415
3.43001
3.76559
2.11375
2.13017
2.9417
2.90857
2.86372
2.75974
3.83014
3.78823
3.69686
3.70679
3.87331
3.8046
3.34274
2.88725
2.48633
3.46745
3.08115
3.53965
3.45952
3.41564
3.82746
3.71859
3.66783
3.32879
3.28948
3.58887
2.22885
2.65503
3.68226
3.67081
3.71183
3.69245
3.62313
3.62675
2.15077
3.98496
4.0622
4.03429
3.14475
3.29979
3.3983
3.16248
3.3583
3.35354
3.44234
3.14842
4.08598
4.31908
3.20377
4.09296
2.51464
2.61164
2.52762
2.86318
2.0648
4.05467
3.68199
3.59455
2.68031
2.70641
2.79635
2.8243
2.76931
3.99201
4.29314
2.86416
3.91665
3.29506
3.35683
3.06851
3.27471
3.17283
3.19994
2.51538
2.4097
2.41577
2.43804
2.43149
3.08432
3.19984
3.15338
2.28626
2.53535
2.98168
2.67056
2.74731
3.7572
3.56059
3.50661
3.54627
2.68743
3.08838
3.00501
3.98721
3.57484
3.63154
3.68827
3.66945
2.77187
2.85908
2.06319
2.12354
2.14969
3.02985
3.71416
3.79929
3.71361
3.74494
3.6074
3.59582
3.61716
2.96309
2.93935
3.04851
3.92747
3.80989
3.9433
3.81432
3.02946
2.93331
3.11039
3.58911
3.37383
3.44269
3.3112
3.89178
3.61483
4.0825
3.93918
4.29649
1.98396
3.11664
2.97285
2.96349
3.22122
3.32602
2.58016
2.61501
3.52388
3.57398
3.65305
3.71252
3.67626
3.91309
3.68317
3.6221
3.58419
3.71018
3.18513
2.99378
3.05522
2.97111
3.14351
3.08545
3.44791
3.92744
3.77562
3.85362
1.97287
3.73682
2.92332
2.62513
3.61121
3.65311
2.73145
2.50666
3.45662
3.39025
2.13787
3.57121
3.27992
3.28466
3.04077
3.57279
3.12035
3.057
3.0246
3.38523
2.74457
2.98502
3.2399
3.5201
3.50498
3.7548
3.0302
3.13189
3.15622
2.04529
2.96083
2.98048
3.51572
3.71575
3.61004
3.69601
3.59306
3.50729
2.83873
2.72123
2.89021
2.66541
3.41866
3.67221
3.83298
3.727
3.76791
3.85823
3.05737
3.4326