/*--------------------------------*- C++ -*----------------------------------*\
| =========                 |                                                 |
| \\      /  F ield         | OpenFOAM: The Open Source CFD Toolbox           |
|  \\    /   O peration     | Version:  2206                                  |
|   \\  /    A nd           | Website:  www.openfoam.com                      |
|    \\/     M anipulation  |                                                 |
\*---------------------------------------------------------------------------*/
FoamFile
{
    version     2.0;
    format      ascii;
    arch        "LSB;label=32;scalar=64";
    class       volScalarField;
    location    "160";
    object      nut;
}
// * * * * * * * * * * * * * * * * * * * * * * * * * * * * * * * * * * * * * //

dimensions      [0 2 -1 0 0 0 0];

internalField   nonuniform List<scalar> 
184166
(
0.165012
0.187838
0.199551
0.160639
0.187707
0.211541
0.175523
0.209451
0.163071
0.184412
0.160489
0.203776
0.204377
0.171741
0.192046
0.193979
0.197383
0.21235
0.202339
0.203012
0.203853
0.201428
0.210022
0.166353
0.20843
0.192164
0.190309
0.204605
0.200727
0.202953
0.206559
0.178063
0.154693
0.21822
0.204843
0.205595
0.203047
0.197548
0.18206
0.195982
0.208225
0.205049
0.199075
0.21883
0.199572
0.207305
0.195567
0.186321
0.218285
0.201395
0.195844
0.180867
0.197265
0.211255
0.21554
0.213069
0.195241
0.218232
0.181905
0.184203
0.202281
0.182812
0.175987
0.174761
0.149749
0.173396
0.198994
0.186456
0.178623
0.210233
0.199018
0.210676
0.196979
0.185992
0.206818
0.197663
0.211787
0.188665
0.209451
0.195317
0.191994
0.206882
0.186501
0.18259
0.198052
0.156329
0.206908
0.202121
0.179746
0.205105
0.176019
0.187867
0.185826
0.117041
0.18851
0.182299
0.219002
0.179728
0.203042
0.209299
0.20416
0.203274
0.182562
0.197481
0.188776
0.212327
0.20924
0.185467
0.178971
0.204062
0.196687
0.188647
0.176066
0.200144
0.207023
0.203457
0.182971
0.200072
0.175826
0.195275
0.178488
0.203475
0.201239
0.209755
0.209986
0.187893
0.197553
0.20844
0.182931
0.187696
0.201976
0.208535
0.188001
0.19896
0.208988
0.204774
0.207745
0.189245
0.175822
0.201692
0.200353
0.175278
0.17494
0.203149
0.17999
0.204309
0.199847
0.202284
0.179264
0.147086
0.196489
0.158395
0.206726
0.174746
0.181422
0.154622
0.203381
0.159107
0.163201
0.198052
0.177037
0.174028
0.197829
0.21073
0.207588
0.19895
0.204572
0.191314
0.176259
0.202985
0.202674
0.178373
0.209583
0.215846
0.209729
0.182002
0.173274
0.162189
0.179704
0.192547
0.176586
0.193945
0.177177
0.198501
0.195655
0.181922
0.204376
0.128763
0.184546
0.200147
0.207399
0.203561
0.211273
0.182086
0.168469
0.193598
0.194101
0.160285
0.172176
0.195386
0.196807
0.201011
0.175806
0.21277
0.19611
0.174807
0.205039
0.203208
0.184552
0.216793
0.152018
0.18657
0.205546
0.157675
0.199928
0.211497
0.207331
0.187335
0.195374
0.195868
0.203399
0.208447
0.21122
0.191293
0.195522
0.203816
0.206899
0.214319
0.209616
0.164936
0.150752
0.186221
0.212509
0.182379
0.211511
0.210106
0.202862
0.176282
0.17992
0.181116
0.17589
0.201792
0.176077
0.185232
0.197063
0.191675
0.201389
0.204905
0.221044
0.207808
0.19295
0.139154
0.202497
0.203133
0.18882
0.209313
0.186438
0.198852
0.212064
0.208866
0.159791
0.195596
0.216799
0.178818
0.206491
0.216516
0.202702
0.178152
0.218462
0.188425
0.197758
0.194836
0.174834
0.20115
0.203765
0.174157
0.176095
0.183322
0.20785
0.185003
0.201988
0.153561
0.182842
0.208372
0.19516
0.205058
0.159485
0.160535
0.214788
0.189139
0.193744
0.190068
0.201778
0.216769
0.160769
0.191658
0.212923
0.145387
0.207704
0.159852
0.209791
0.211486
0.182885
0.200947
0.14372
0.190915
0.210981
0.16784
0.194127
0.187237
0.209538
0.205297
0.193717
0.206192
0.187366
0.185677
0.206923
0.178167
0.211175
0.194356
0.202813
0.204884
0.181787
0.173778
0.215635
0.18998
0.2171
0.208098
0.201443
0.208344
0.204767
0.200425
0.199115
0.204418
0.176326
0.210201
0.210196
0.209805
0.205079
0.183557
0.2053
0.153127
0.14996
0.210169
0.219176
0.214887
0.201363
0.175408
0.193826
0.196159
0.195601
0.202276
0.186662
0.19699
0.205498
0.209936
0.206201
0.186085
0.208426
0.18185
0.204755
0.175618
0.20516
0.185726
0.192712
0.206552
0.185652
0.200723
0.198294
0.175309
0.176292
0.159003
0.149813
0.215333
0.220803
0.219068
0.197976
0.198709
0.202391
0.187664
0.190327
0.191974
0.203965
0.192467
0.187758
0.215959
0.21189
0.204858
0.201702
0.192456
0.191287
0.196863
0.198909
0.176984
0.210559
0.18129
0.210151
0.199081
0.207903
0.170904
0.187313
0.201677
0.159441
0.184409
0.198216
0.200018
0.204937
0.202613
0.184608
0.191363
0.213858
0.209427
0.210369
0.20784
0.207261
0.194005
0.214531
0.174558
0.174241
0.17462
0.160585
0.189835
0.183801
0.18636
0.183688
0.182492
0.181822
0.18528
0.201041
0.200054
0.2012
0.175214
0.148329
0.157229
0.152242
0.152219
0.16053
0.152617
0.199308
0.202843
0.204052
0.205973
0.184822
0.192949
0.188597
0.201383
0.160274
0.155763
0.196289
0.200542
0.194032
0.193241
0.197419
0.200431
0.18809
0.200323
0.208546
0.20983
0.208384
0.220694
0.171093
0.177449
0.176372
0.176814
0.176179
0.190231
0.194044
0.196559
0.209007
0.202207
0.194542
0.192858
0.162446
0.177451
0.20962
0.20645
0.209618
0.155459
0.183519
0.201163
0.189534
0.199094
0.176491
0.175192
0.204819
0.205547
0.204599
0.20291
0.202175
0.202808
0.169533
0.202659
0.206745
0.204213
0.165299
0.215261
0.21876
0.217129
0.216093
0.219343
0.219304
0.21944
0.171063
0.195946
0.194992
0.200801
0.174348
0.194062
0.201428
0.180801
0.160575
0.17526
0.176618
0.175599
0.217257
0.216783
0.212398
0.199017
0.201702
0.197061
0.198954
0.210825
0.216557
0.211502
0.204466
0.204313
0.209015
0.219871
0.220191
0.22165
0.22185
0.151785
0.161113
0.151534
0.21825
0.214489
0.216531
0.17145
0.151546
0.144149
0.146861
0.156995
0.152189
0.212202
0.209514
0.220088
0.219634
0.193421
0.195997
0.191347
0.194525
0.199682
0.194067
0.196954
0.20281
0.197258
0.199721
0.191954
0.191216
0.213213
0.204052
0.215962
0.213859
0.204189
0.213952
0.216289
0.21451
0.209505
0.20684
0.183752
0.183363
0.1843
0.186922
0.189074
0.118961
0.177901
0.180825
0.178371
0.179147
0.179257
0.17995
0.210697
0.211391
0.217418
0.219474
0.221142
0.220947
0.213982
0.220506
0.198279
0.188574
0.184539
0.171827
0.175891
0.175191
0.20743
0.207662
0.20771
0.172202
0.198133
0.19823
0.204376
0.172995
0.195338
0.197362
0.202956
0.165957
0.173121
0.163561
0.202736
0.179889
0.163406
0.171812
0.195769
0.210142
0.212416
0.208576
0.213979
0.198119
0.216234
0.211729
0.210637
0.207488
0.209236
0.206414
0.202259
0.203511
0.162023
0.199689
0.204521
0.204677
0.197147
0.193417
0.21986
0.218228
0.199194
0.193038
0.181508
0.145529
0.171823
0.1834
0.173216
0.188855
0.160671
0.18826
0.19687
0.189949
0.15723
0.189687
0.199607
0.194933
0.197609
0.179577
0.155301
0.15144
0.159885
0.205905
0.158698
0.170498
0.162796
0.164141
0.173727
0.162804
0.194703
0.218507
0.221605
0.218465
0.219914
0.206704
0.163034
0.154504
0.165733
0.149052
0.159776
0.151137
0.19987
0.193807
0.193853
0.19718
0.19777
0.194863
0.183059
0.194725
0.193564
0.139253
0.151453
0.148154
0.208222
0.205989
0.20806
0.206953
0.206066
0.207139
0.186561
0.160709
0.185983
0.193549
0.160763
0.151001
0.209365
0.208952
0.20904
0.205636
0.201154
0.199937
0.200955
0.212113
0.210727
0.209096
0.183206
0.184224
0.183172
0.205284
0.204021
0.204948
0.203921
0.204912
0.209571
0.20548
0.203398
0.203147
0.171305
0.167881
0.206662
0.206385
0.203065
0.182256
0.212305
0.21447
0.195722
0.187972
0.204237
0.193124
0.181108
0.174975
0.202926
0.204203
0.204962
0.205974
0.203639
0.208435
0.209157
0.204998
0.171671
0.177356
0.177058
0.176859
0.199736
0.182114
0.207046
0.190106
0.202286
0.197964
0.195444
0.189709
0.182692
0.18744
0.19377
0.191563
0.215827
0.211886
0.217038
0.214347
0.203855
0.202575
0.203965
0.203146
0.202493
0.202861
0.202053
0.201623
0.201527
0.184781
0.203041
0.203101
0.203685
0.202492
0.19049
0.18634
0.191371
0.189121
0.202761
0.202738
0.201717
0.21422
0.211134
0.210952
0.210163
0.204954
0.206955
0.177921
0.177281
0.177692
0.178024
0.203631
0.199883
0.196424
0.197638
0.183846
0.180231
0.210292
0.209613
0.201844
0.194985
0.197124
0.20094
0.195791
0.195342
0.197786
0.179191
0.202222
0.201897
0.202164
0.202143
0.175891
0.176933
0.184934
0.194888
0.177319
0.176951
0.178044
0.177991
0.211613
0.19595
0.199926
0.19602
0.197621
0.204377
0.206637
0.207078
0.205134
0.152813
0.204728
0.20565
0.202104
0.199816
0.209761
0.202568
0.214666
0.207744
0.206203
0.209401
0.207331
0.183378
0.178326
0.146425
0.14396
0.140205
0.118573
0.17138
0.160034
0.212756
0.210377
0.21214
0.213779
0.174587
0.173435
0.12789
0.158428
0.179783
0.185947
0.180162
0.184006
0.174691
0.174098
0.144032
0.143924
0.212242
0.212506
0.213065
0.196119
0.213098
0.199497
0.208552
0.177989
0.179517
0.191328
0.184972
0.199696
0.190516
0.202587
0.201315
0.190299
0.193076
0.195692
0.196558
0.193049
0.198146
0.193797
0.19873
0.177183
0.177903
0.213174
0.208004
0.192517
0.195291
0.208573
0.211782
0.210883
0.208744
0.207834
0.205531
0.208985
0.17822
0.184068
0.180716
0.211948
0.211564
0.210973
0.211225
0.158215
0.174883
0.213975
0.214104
0.217225
0.215297
0.208165
0.214179
0.208791
0.208468
0.20752
0.202992
0.205018
0.186092
0.153771
0.21088
0.209597
0.20657
0.20743
0.205777
0.203819
0.203367
0.204459
0.202739
0.204082
0.178351
0.165575
0.183393
0.191477
0.18923
0.204989
0.214243
0.211947
0.212469
0.206522
0.212142
0.206105
0.193176
0.19041
0.188717
0.189802
0.197802
0.196467
0.19997
0.19869
0.196516
0.205669
0.192751
0.198313
0.144974
0.143587
0.216394
0.218305
0.218523
0.218416
0.177157
0.140458
0.168627
0.208078
0.206803
0.2074
0.208195
0.205099
0.205306
0.208427
0.208407
0.202818
0.204181
0.203347
0.202783
0.198995
0.199015
0.17576
0.150875
0.144145
0.15337
0.136263
0.16809
0.186215
0.187543
0.205966
0.208468
0.208362
0.209606
0.205766
0.210101
0.205269
0.209033
0.204654
0.1967
0.199702
0.196903
0.19829
0.183741
0.184231
0.16749
0.157579
0.208889
0.207186
0.136941
0.139663
0.186677
0.198388
0.17815
0.175802
0.173749
0.177209
0.176736
0.174519
0.202456
0.202902
0.199456
0.201837
0.186297
0.185726
0.187086
0.217882
0.216928
0.213528
0.214556
0.213349
0.215416
0.18259
0.179483
0.179499
0.176262
0.207379
0.207316
0.207624
0.207476
0.221258
0.221114
0.220809
0.218202
0.22051
0.21441
0.212544
0.219203
0.215801
0.179823
0.181303
0.177149
0.177878
0.180963
0.193016
0.192186
0.145761
0.205858
0.2072
0.205384
0.206955
0.177425
0.192122
0.189384
0.201551
0.20122
0.184206
0.186128
0.183447
0.184027
0.207186
0.207846
0.189327
0.185884
0.178995
0.209623
0.2093
0.206603
0.202169
0.162258
0.188337
0.184
0.17971
0.178461
0.179174
0.157194
0.154167
0.175418
0.176105
0.17363
0.172475
0.209549
0.21174
0.208585
0.200356
0.203053
0.149942
0.153476
0.183581
0.176841
0.187517
0.177542
0.177425
0.177337
0.176644
0.176882
0.210872
0.186233
0.206005
0.203389
0.202479
0.201349
0.151793
0.200638
0.201547
0.183978
0.191019
0.182102
0.199958
0.196436
0.195242
0.193817
0.200033
0.200673
0.20012
0.200294
0.15327
0.156095
0.205254
0.207902
0.206368
0.209261
0.181701
0.182738
0.18111
0.218335
0.219201
0.215539
0.175651
0.174014
0.173824
0.174046
0.189245
0.199855
0.191782
0.192949
0.199007
0.158327
0.159092
0.156056
0.212046
0.212666
0.211414
0.212267
0.218899
0.219433
0.218334
0.177334
0.176863
0.177473
0.176966
0.185894
0.211225
0.173297
0.172615
0.173156
0.173375
0.173376
0.207394
0.20867
0.208738
0.206687
0.207724
0.13858
0.201869
0.198312
0.185414
0.187951
0.188454
0.185783
0.184134
0.179003
0.1782
0.211095
0.21114
0.21014
0.211288
0.197156
0.196212
0.204899
0.199705
0.207131
0.180051
0.182919
0.205382
0.206846
0.196659
0.196598
0.196856
0.190639
0.202907
0.203324
0.212288
0.216328
0.214631
0.212139
0.212954
0.215425
0.178158
0.199797
0.196639
0.177547
0.179456
0.181351
0.180541
0.176764
0.177927
0.195121
0.179779
0.183505
0.174809
0.19508
0.195011
0.194647
0.195985
0.210922
0.211136
0.210245
0.210992
0.206965
0.210339
0.207735
0.209518
0.151597
0.149104
0.15878
0.161793
0.175187
0.18326
0.181553
0.18061
0.178606
0.173552
0.177243
0.175257
0.181306
0.176953
0.179363
0.175961
0.202627
0.200817
0.182237
0.196984
0.196496
0.198884
0.197482
0.200291
0.184744
0.188934
0.17831
0.164799
0.175694
0.157314
0.18187
0.176481
0.167875
0.210703
0.211386
0.210497
0.217121
0.216451
0.220452
0.218537
0.180934
0.177128
0.207495
0.207933
0.177695
0.178976
0.17824
0.171993
0.171509
0.18165
0.183666
0.183777
0.201353
0.201093
0.20201
0.203045
0.203234
0.21186
0.205458
0.212144
0.210122
0.205888
0.208817
0.207288
0.184628
0.194333
0.205973
0.205212
0.177296
0.177645
0.177462
0.177734
0.17835
0.13833
0.141657
0.183315
0.183327
0.18377
0.143462
0.155812
0.135712
0.164196
0.169058
0.18266
0.184654
0.17824
0.156541
0.162495
0.170766
0.161282
0.218172
0.21668
0.216813
0.216491
0.215548
0.207754
0.195305
0.21183
0.208989
0.186487
0.185053
0.181432
0.194458
0.196016
0.180648
0.17008
0.109475
0.173666
0.207756
0.202876
0.204601
0.208123
0.194918
0.198209
0.196477
0.200765
0.199909
0.173188
0.17196
0.174173
0.182548
0.181428
0.181168
0.18243
0.152874
0.144529
0.144412
0.219056
0.216417
0.215355
0.20587
0.14734
0.147245
0.174246
0.175395
0.173863
0.186688
0.18878
0.188548
0.184586
0.182329
0.180703
0.214944
0.214207
0.151598
0.179225
0.210897
0.208886
0.207516
0.196861
0.197284
0.197684
0.197933
0.201376
0.198332
0.185066
0.183262
0.205917
0.208806
0.202664
0.201874
0.201062
0.201237
0.202427
0.201072
0.17705
0.168307
0.169795
0.183109
0.184352
0.187434
0.209107
0.208771
0.208675
0.207223
0.203219
0.198874
0.173362
0.172739
0.16126
0.112914
0.187919
0.190015
0.189751
0.210452
0.212796
0.211781
0.177206
0.178264
0.177926
0.178376
0.177545
0.147108
0.151579
0.172845
0.213341
0.202713
0.175104
0.206859
0.20345
0.207587
0.205361
0.202596
0.153593
0.175479
0.16013
0.13428
0.121852
0.136666
0.180704
0.180995
0.180172
0.180091
0.179356
0.178615
0.178417
0.17925
0.200519
0.174171
0.17428
0.173212
0.175462
0.174212
0.218012
0.215965
0.211046
0.209619
0.183282
0.202958
0.20587
0.200541
0.189252
0.190512
0.191199
0.211241
0.208375
0.211569
0.207003
0.204189
0.200021
0.205912
0.193448
0.193797
0.193918
0.197285
0.189702
0.195351
0.208366
0.211046
0.210857
0.211039
0.208433
0.209722
0.203862
0.206539
0.206945
0.203033
0.204867
0.207726
0.20592
0.2063
0.205348
0.207354
0.208273
0.188671
0.19906
0.201866
0.187341
0.197188
0.174327
0.173036
0.176873
0.174459
0.178592
0.176696
0.210263
0.214687
0.211611
0.214032
0.205562
0.208417
0.206769
0.185753
0.183923
0.177597
0.179996
0.177895
0.177856
0.133826
0.130334
0.211051
0.210973
0.211122
0.210341
0.175699
0.174576
0.172813
0.17565
0.17444
0.207548
0.208342
0.188404
0.186143
0.186317
0.179757
0.179596
0.183741
0.19367
0.192608
0.193481
0.192301
0.178415
0.179176
0.178289
0.178653
0.208482
0.210434
0.210559
0.209842
0.20632
0.206773
0.186899
0.174752
0.156678
0.13716
0.167403
0.142062
0.140208
0.179223
0.179289
0.180882
0.181392
0.189955
0.201647
0.195486
0.201165
0.195498
0.178203
0.177586
0.177642
0.14299
0.143502
0.208817
0.208976
0.188412
0.182398
0.186047
0.182643
0.180441
0.214425
0.215919
0.214262
0.214709
0.215419
0.216552
0.191151
0.190822
0.192508
0.188318
0.135321
0.132427
0.186289
0.185414
0.180934
0.144097
0.168483
0.166699
0.193645
0.186607
0.143819
0.217717
0.217803
0.173563
0.1982
0.196872
0.196956
0.197957
0.196671
0.196805
0.173163
0.17278
0.173926
0.174084
0.196733
0.198591
0.196883
0.197793
0.196736
0.198555
0.196863
0.197807
0.178214
0.176202
0.201588
0.134275
0.130401
0.188065
0.176078
0.176094
0.176612
0.176866
0.145428
0.16553
0.160322
0.125478
0.130599
0.211844
0.204744
0.182181
0.184776
0.170095
0.201694
0.201344
0.197624
0.197704
0.211219
0.210444
0.214749
0.214067
0.189249
0.171357
0.189962
0.19119
0.153294
0.15409
0.146409
0.18793
0.194436
0.192076
0.188021
0.192946
0.206502
0.207869
0.20657
0.162297
0.147366
0.174561
0.172522
0.19277
0.195925
0.199491
0.199874
0.19278
0.195326
0.20989
0.207179
0.210396
0.209797
0.206979
0.205281
0.193407
0.199185
0.194106
0.197198
0.200935
0.202545
0.20367
0.204448
0.171565
0.170943
0.173616
0.174427
0.185121
0.184806
0.210067
0.212117
0.210415
0.183597
0.183465
0.183733
0.207451
0.204837
0.206411
0.207046
0.208095
0.182589
0.204432
0.200619
0.203849
0.20202
0.200802
0.198723
0.196847
0.195715
0.197445
0.207062
0.210009
0.210373
0.211616
0.130738
0.129033
0.177152
0.176911
0.20037
0.19188
0.186236
0.188028
0.190707
0.190693
0.187264
0.189689
0.193371
0.193801
0.19515
0.194873
0.195145
0.196905
0.195026
0.193275
0.188744
0.186119
0.187255
0.18798
0.186931
0.184965
0.186796
0.184472
0.185052
0.211214
0.211272
0.212269
0.211245
0.212993
0.193794
0.188482
0.195356
0.193172
0.190192
0.183332
0.187992
0.189769
0.189451
0.209147
0.207408
0.172681
0.17078
0.183584
0.187215
0.193124
0.194127
0.192483
0.192943
0.195715
0.193985
0.203813
0.192509
0.198611
0.198615
0.200516
0.155588
0.146556
0.178887
0.180861
0.179998
0.178985
0.180396
0.191225
0.175911
0.17789
0.176881
0.175281
0.175152
0.175316
0.173638
0.219276
0.220953
0.220259
0.218833
0.219761
0.213846
0.21245
0.207338
0.188507
0.190685
0.186728
0.186418
0.180388
0.184653
0.182886
0.181028
0.179438
0.174675
0.175726
0.175249
0.175536
0.176303
0.176042
0.134846
0.138302
0.211354
0.20816
0.210979
0.184975
0.177429
0.182262
0.154024
0.143874
0.150594
0.197968
0.194405
0.194609
0.207552
0.205542
0.199504
0.197426
0.203918
0.198644
0.180674
0.174337
0.181338
0.167793
0.209792
0.210479
0.209186
0.207499
0.20739
0.174811
0.1754
0.175439
0.186068
0.19766
0.187571
0.194139
0.19562
0.192309
0.188696
0.195331
0.190736
0.164507
0.151565
0.175283
0.181566
0.183109
0.18536
0.185679
0.174801
0.174935
0.174828
0.17519
0.188697
0.193801
0.184184
0.183841
0.135956
0.154029
0.147922
0.15648
0.17117
0.171834
0.173538
0.188878
0.186295
0.185587
0.204014
0.202079
0.19969
0.201104
0.205335
0.206529
0.174776
0.175044
0.17787
0.17229
0.204227
0.202129
0.200322
0.203796
0.201405
0.200122
0.204068
0.202161
0.203433
0.201176
0.202856
0.202915
0.205726
0.181026
0.183111
0.174222
0.174602
0.173875
0.211227
0.211005
0.211145
0.210179
0.210128
0.209418
0.111719
0.125087
0.16983
0.157759
0.163561
0.140513
0.179072
0.182294
0.181482
0.179818
0.181555
0.201665
0.201636
0.201898
0.202351
0.202194
0.195284
0.191286
0.193617
0.193076
0.190226
0.182756
0.18294
0.183264
0.182977
0.183361
0.183656
0.192165
0.18931
0.192172
0.18956
0.188295
0.202347
0.203129
0.200531
0.204902
0.204406
0.206459
0.207227
0.20633
0.207643
0.207259
0.186919
0.196349
0.173177
0.198104
0.199198
0.202714
0.209724
0.209777
0.197189
0.19587
0.195851
0.147877
0.157861
0.142981
0.14796
0.218756
0.218501
0.219488
0.22048
0.218131
0.219837
0.221023
0.220866
0.206246
0.208301
0.202017
0.199887
0.198381
0.199777
0.175416
0.174134
0.173462
0.178714
0.17655
0.178321
0.177766
0.176081
0.158423
0.143426
0.14852
0.149458
0.173477
0.173972
0.174231
0.184422
0.182685
0.179751
0.180213
0.187665
0.186159
0.129936
0.142935
0.154631
0.1962
0.199378
0.181599
0.184061
0.178649
0.175678
0.184766
0.186317
0.18612
0.186904
0.204066
0.202484
0.202881
0.202623
0.202378
0.194118
0.200949
0.201389
0.196057
0.176358
0.176267
0.181994
0.196621
0.197549
0.202742
0.201358
0.207713
0.208441
0.208321
0.207621
0.208673
0.208531
0.205158
0.204732
0.206446
0.206331
0.208571
0.178195
0.138304
0.128224
0.207672
0.207612
0.20811
0.208208
0.207998
0.208053
0.18769
0.191938
0.201151
0.203273
0.19124
0.199681
0.149495
0.167141
0.142944
0.148971
0.179789
0.192348
0.200083
0.19135
0.199629
0.178293
0.173053
0.183866
0.185307
0.185853
0.203279
0.17295
0.182633
0.183977
0.203846
0.203062
0.206178
0.207007
0.206625
0.201646
0.200625
0.200982
0.202648
0.202107
0.206521
0.205751
0.206067
0.20713
0.206917
0.177077
0.177372
0.176133
0.176251
0.176461
0.176867
0.177027
0.182022
0.181289
0.182903
0.184916
0.184011
0.121525
0.19484
0.195415
0.198648
0.197541
0.199655
0.171423
0.201656
0.206296
0.206687
0.197897
0.202025
0.182923
0.183661
0.183288
0.183343
0.182732
0.20863
0.206665
0.210435
0.208683
0.209463
0.188568
0.195911
0.200101
0.195101
0.189495
0.19159
0.194094
0.193929
0.188479
0.190333
0.201799
0.20077
0.199406
0.197244
0.198251
0.196856
0.192788
0.199609
0.174945
0.173097
0.173678
0.176313
0.176766
0.209632
0.208068
0.210157
0.205753
0.20553
0.193825
0.179036
0.199674
0.191578
0.20732
0.215551
0.21167
0.186987
0.186036
0.185219
0.180841
0.182149
0.182209
0.182373
0.181043
0.13484
0.131525
0.129286
0.168336
0.160139
0.17181
0.171319
0.174652
0.173309
0.173047
0.174302
0.172983
0.172272
0.189105
0.18852
0.190596
0.191882
0.192483
0.20775
0.207687
0.202555
0.199619
0.19911
0.203753
0.20466
0.152877
0.164051
0.175489
0.171813
0.156618
0.130709
0.12887
0.20113
0.20032
0.198489
0.199368
0.197908
0.185173
0.154529
0.175185
0.133471
0.128626
0.129403
0.199294
0.201398
0.202127
0.20427
0.204067
0.202164
0.200956
0.202617
0.205177
0.204051
0.20217
0.202126
0.202389
0.201683
0.201478
0.20233
0.201726
0.184224
0.183497
0.184315
0.186249
0.186463
0.187678
0.186004
0.187071
0.213249
0.215049
0.217537
0.172214
0.147021
0.142051
0.150889
0.177354
0.168375
0.202816
0.202026
0.192301
0.196967
0.206997
0.205997
0.206753
0.185585
0.181881
0.188869
0.208717
0.209803
0.209177
0.211332
0.210521
0.211468
0.211719
0.210884
0.21018
0.211065
0.211138
0.210481
0.210976
0.209968
0.175302
0.184024
0.163332
0.161831
0.17824
0.175701
0.175441
0.174061
0.213541
0.213063
0.21328
0.167206
0.17549
0.160641
0.184115
0.186352
0.174182
0.175425
0.205155
0.203347
0.202668
0.202599
0.172212
0.173235
0.171289
0.183692
0.184785
0.210266
0.209028
0.20714
0.132591
0.13697
0.210337
0.209918
0.207817
0.208348
0.209962
0.191907
0.189148
0.193603
0.196021
0.196753
0.200837
0.199284
0.204311
0.203662
0.173224
0.166203
0.174971
0.149356
0.126194
0.117012
0.184548
0.187711
0.185118
0.189758
0.187602
0.201662
0.201575
0.205837
0.202745
0.201743
0.202409
0.20198
0.201576
0.135843
0.132774
0.128075
0.170203
0.164286
0.142074
0.184018
0.185815
0.184806
0.186321
0.184133
0.183615
0.181138
0.17978
0.181097
0.182055
0.179817
0.179481
0.178149
0.175762
0.17648
0.178588
0.174067
0.173682
0.184396
0.184069
0.182602
0.182952
0.182859
0.183656
0.159364
0.148302
0.155911
0.213945
0.213036
0.205333
0.174934
0.175577
0.174945
0.175412
0.175179
0.175453
0.214437
0.213093
0.209573
0.210106
0.211175
0.206547
0.206991
0.179062
0.179933
0.179131
0.177457
0.177711
0.199771
0.196791
0.203144
0.209992
0.206251
0.200954
0.197145
0.195844
0.200072
0.197109
0.172042
0.172057
0.204849
0.204332
0.200897
0.200901
0.199268
0.209977
0.20877
0.209879
0.209693
0.209036
0.205546
0.204264
0.2001
0.192997
0.204484
0.20305
0.193849
0.210052
0.209871
0.209246
0.211225
0.210333
0.209736
0.207373
0.208262
0.209682
0.208368
0.202377
0.202472
0.18313
0.18315
0.183079
0.182917
0.207086
0.206401
0.197806
0.18729
0.202289
0.200063
0.201629
0.197659
0.197259
0.198489
0.200448
0.190859
0.202159
0.19529
0.20096
0.206556
0.205043
0.205928
0.206619
0.21282
0.210152
0.202434
0.205045
0.206207
0.198056
0.197723
0.201165
0.20201
0.200032
0.209241
0.208585
0.203264
0.207796
0.200433
0.206684
0.207513
0.204797
0.20398
0.203669
0.217873
0.218585
0.219061
0.204911
0.200527
0.201578
0.219558
0.216007
0.218
0.203622
0.206072
0.205448
0.205714
0.202817
0.217509
0.215001
0.208408
0.215762
0.210674
0.178652
0.191978
0.199615
0.195718
0.18354
0.184536
0.183351
0.184637
0.1761
0.175679
0.197732
0.198612
0.200968
0.198314
0.208181
0.202484
0.204104
0.204778
0.189083
0.186275
0.184723
0.186525
0.189341
0.171592
0.170934
0.176139
0.174754
0.17625
0.177131
0.177021
0.205987
0.206576
0.207615
0.207085
0.207818
0.20273
0.199222
0.218838
0.218498
0.217345
0.217604
0.217585
0.147866
0.191553
0.184243
0.185907
0.193657
0.190531
0.186711
0.204963
0.204198
0.210852
0.208957
0.217418
0.204069
0.191126
0.180665
0.182863
0.182555
0.182455
0.183207
0.181731
0.184776
0.183969
0.184062
0.182857
0.205776
0.203788
0.205456
0.203894
0.205961
0.202636
0.201783
0.200683
0.206647
0.206426
0.205761
0.206723
0.205963
0.177528
0.165595
0.147067
0.151943
0.171396
0.134075
0.126176
0.206524
0.208026
0.206696
0.202406
0.192521
0.207977
0.203496
0.200545
0.204811
0.207105
0.202941
0.201167
0.202429
0.199033
0.199602
0.198618
0.197346
0.199494
0.197296
0.199063
0.197972
0.198917
0.197902
0.198857
0.199693
0.205875
0.20666
0.206187
0.206535
0.20657
0.206337
0.209372
0.19262
0.205957
0.197384
0.217133
0.213545
0.218666
0.126562
0.120114
0.175331
0.159558
0.143572
0.170496
0.147493
0.199048
0.197365
0.198407
0.197132
0.198131
0.200572
0.201866
0.203225
0.201358
0.204508
0.203904
0.207238
0.206499
0.209059
0.208219
0.209009
0.20916
0.209762
0.208509
0.208343
0.210637
0.211037
0.210758
0.201583
0.202872
0.199202
0.198662
0.197454
0.197154
0.198134
0.206713
0.204705
0.205965
0.199932
0.199389
0.200575
0.202751
0.202283
0.201228
0.201136
0.202135
0.199351
0.198365
0.199024
0.150168
0.181473
0.153605
0.172767
0.131899
0.127282
0.205297
0.204592
0.203536
0.205135
0.204249
0.207249
0.206428
0.207047
0.20646
0.206766
0.18374
0.18297
0.183696
0.183082
0.182912
0.182941
0.165385
0.174483
0.173607
0.178933
0.183659
0.168993
0.163081
0.208944
0.209119
0.179609
0.179988
0.179049
0.178132
0.188469
0.187721
0.17574
0.176203
0.181583
0.178388
0.177688
0.181656
0.159438
0.16326
0.213001
0.211928
0.190394
0.208797
0.200781
0.197172
0.206526
0.218068
0.21944
0.214634
0.215849
0.218716
0.200622
0.205672
0.207532
0.182905
0.169883
0.147365
0.142349
0.205298
0.207319
0.205612
0.173511
0.193665
0.196065
0.194248
0.192057
0.191457
0.1138
0.124113
0.132357
0.104225
0.153437
0.129582
0.175603
0.176558
0.176162
0.206487
0.204622
0.20639
0.205453
0.204742
0.206255
0.18867
0.200215
0.193883
0.202743
0.204947
0.208468
0.209828
0.209762
0.207824
0.208804
0.210309
0.210465
0.209456
0.209329
0.210333
0.206103
0.205252
0.20707
0.159659
0.178955
0.162249
0.18716
0.196445
0.192227
0.191568
0.19223
0.19208
0.192458
0.179261
0.178515
0.175337
0.173297
0.176222
0.175251
0.176101
0.207279
0.208321
0.197626
0.185292
0.213294
0.185213
0.181906
0.197909
0.197811
0.198606
0.204168
0.205059
0.206292
0.210196
0.203856
0.206985
0.209784
0.209732
0.210846
0.179098
0.150981
0.15888
0.173567
0.143247
0.15715
0.143205
0.187333
0.186681
0.186654
0.17546
0.175437
0.208373
0.211421
0.201194
0.192477
0.202552
0.176837
0.17681
0.190072
0.187288
0.178205
0.177761
0.216237
0.20084
0.202703
0.198903
0.172526
0.172575
0.207286
0.206559
0.205482
0.202856
0.201022
0.198542
0.191454
0.187805
0.205741
0.204596
0.206992
0.206307
0.17496
0.184743
0.178352
0.11678
0.121677
0.0973193
0.120989
0.138294
0.204013
0.201305
0.163046
0.203234
0.202727
0.135707
0.134166
0.19978
0.105266
0.207973
0.138337
0.127958
0.115369
0.111884
0.133271
0.135071
0.13007
0.121579
0.116533
0.107706
0.131784
0.138368
0.132708
0.128826
0.129407
0.13438
0.125943
0.132525
0.17129
0.126702
0.120469
0.124273
0.133764
0.130162
0.126327
0.11116
0.140909
0.137732
0.123132
0.164389
0.167182
0.142362
0.132472
0.125721
0.169345
0.123014
0.126373
0.1041
0.0960409
0.0965752
0.150811
0.126282
0.123819
0.116238
0.140878
0.144539
0.144246
0.13107
0.121676
0.129724
0.185424
0.194928
0.169597
0.167126
0.171256
0.146979
0.147903
0.128951
0.138556
0.136383
0.134222
0.127395
0.160837
0.132194
0.207832
0.205935
0.202481
0.202718
0.145941
0.151556
0.136697
0.140624
0.154737
0.121402
0.157382
0.149812
0.145107
0.146718
0.147551
0.134295
0.132756
0.125457
0.129417
0.119429
0.127328
0.142038
0.136552
0.142086
0.138071
0.13953
0.12885
0.140271
0.141595
0.172665
0.158234
0.140439
0.137301
0.142488
0.208117
0.148257
0.119811
0.150902
0.195825
0.191851
0.187354
0.162921
0.169728
0.161397
0.129468
0.139593
0.135501
0.138518
0.140543
0.132716
0.138509
0.192136
0.116408
0.112331
0.14643
0.133434
0.147112
0.143309
0.128393
0.141347
0.14174
0.13097
0.143973
0.206144
0.207195
0.143538
0.134054
0.146601
0.12195
0.124594
0.140548
0.130123
0.138808
0.160648
0.168075
0.128215
0.126438
0.13547
0.115352
0.152415
0.16056
0.179527
0.205049
0.20323
0.20405
0.152345
0.121181
0.159449
0.164452
0.173566
0.173318
0.177295
0.16696
0.170717
0.135752
0.132196
0.132239
0.136164
0.1314
0.137366
0.131022
0.113365
0.105262
0.102895
0.150591
0.160957
0.167755
0.16107
0.169261
0.128162
0.133485
0.138562
0.132794
0.133114
0.137933
0.135669
0.133107
0.126278
0.161396
0.166512
0.170575
0.169783
0.178676
0.177155
0.173168
0.173452
0.131418
0.141654
0.175511
0.170843
0.16557
0.169367
0.138498
0.142737
0.182488
0.147636
0.144081
0.15016
0.152476
0.168902
0.16014
0.167882
0.10485
0.206032
0.20496
0.20716
0.139326
0.137128
0.0957286
0.145104
0.137908
0.165389
0.16932
0.111319
0.109013
0.0903116
0.0906001
0.136385
0.0897866
0.0870102
0.0945689
0.162346
0.16983
0.168086
0.163485
0.168655
0.159691
0.148442
0.142035
0.131093
0.186706
0.183083
0.20528
0.207402
0.208725
0.209187
0.209057
0.159735
0.166979
0.149874
0.137718
0.142432
0.123957
0.098339
0.0850918
0.0896674
0.0873118
0.139529
0.137634
0.16622
0.161604
0.168226
0.130691
0.12566
0.121228
0.132788
0.167196
0.160885
0.168164
0.185973
0.188116
0.182716
0.181636
0.184195
0.17825
0.162523
0.189875
0.188245
0.184847
0.175687
0.174545
0.179165
0.136118
0.120434
0.193217
0.188358
0.131792
0.120882
0.128599
0.140665
0.141421
0.136811
0.209033
0.208682
0.208749
0.139529
0.12825
0.138388
0.138093
0.137862
0.16864
0.172049
0.153101
0.115987
0.153768
0.140835
0.138623
0.131824
0.137367
0.132229
0.160856
0.13606
0.12383
0.191535
0.194219
0.189777
0.180832
0.192037
0.16826
0.161372
0.146061
0.139551
0.13986
0.161762
0.167362
0.125262
0.117052
0.118026
0.159569
0.165601
0.0912122
0.140085
0.130566
0.123061
0.130427
0.12913
0.137104
0.152767
0.145528
0.160171
0.165909
0.165516
0.134251
0.163573
0.128544
0.126293
0.117182
0.145433
0.147014
0.137262
0.133445
0.171304
0.173807
0.132751
0.132421
0.13101
0.115663
0.170558
0.166877
0.118385
0.115946
0.158267
0.165325
0.161801
0.167689
0.168223
0.139355
0.123451
0.125354
0.167462
0.161317
0.165974
0.146671
0.134158
0.135831
0.120959
0.124238
0.192375
0.190471
0.163536
0.168063
0.167302
0.1294
0.124603
0.128977
0.138422
0.130506
0.130754
0.131216
0.139947
0.166312
0.159141
0.166343
0.136321
0.164325
0.163294
0.168733
0.167646
0.145887
0.145704