/*--------------------------------*- C++ -*----------------------------------*\
| =========                 |                                                 |
| \\      /  F ield         | OpenFOAM: The Open Source CFD Toolbox           |
|  \\    /   O peration     | Version:  2206                                  |
|   \\  /    A nd           | Website:  www.openfoam.com                      |
|    \\/     M anipulation  |                                                 |
\*---------------------------------------------------------------------------*/
FoamFile
{
    version     2.0;
    format      ascii;
    arch        "LSB;label=32;scalar=64";
    class       volScalarField;
    location    "160";
    object      p;
}
// * * * * * * * * * * * * * * * * * * * * * * * * * * * * * * * * * * * * * //

dimensions      [0 2 -2 0 0 0 0];

internalField   nonuniform List<scalar> 
184166
(
43.6619
127.434
9.98062
33.4558
62.2189
16.3819
14.035
10.9201
42.7844
65.3139
23.4502
4.72773
6.84542
75.8706
58.0135
43.9383
29.1915
95.6132
19.272
63.1865
20.3363
11.4792
16.9627
67.2906
33.7805
56.1155
65.4441
13.0166
54.3386
7.06976
43.3086
132.655
50.8609
78.0394
28.314
2.09841
6.69707
24.6565
69.8936
130.658
82.1822
2.69835
53.2989
89.352
27.2468
83.1615
131.463
67.5764
27.1875
55.6468
15.8542
133.443
15.6906
37.3573
28.7629
11.6406
26.0061
29.6493
52.5385
66.1714
3.68882
64.681
41.8863
14.9856
59.3309
12.0013
126.818
60.0513
14.0291
62.5981
10.8903
69.5259
52.697
40.7667
20.5037
21.26
106.13
41.9312
108.822
125.711
127.097
112.452
64.2255
13.4153
45.033
35.6206
19.6194
18.6475
90.6769
20.877
12.9268
60.4706
43.8788
68.4589
42.3991
131.814
36.7338
133.857
18.8675
42.6358
6.91653
3.64329
42.9003
54.0993
14.4101
24.5646
43.5537
61.8876
13.3937
4.18939
129.643
52.117
134.436
17.8355
60.3446
73.9158
55.8488
18.3129
129.406
128.903
43.0118
2.99688
26.9392
26.3073
23.1445
41.8889
27.6325
30.4224
50.6688
51.8302
7.18343
28.772
83.0251
93.5214
24.8388
1.50492
23.9135
73.5793
90.4283
19.3599
34.1634
14.559
14.1409
3.10341
72.7776
61.6854
10.5855
56.1643
12.5231
60.3242
65.7744
61.1518
44.3171
37.2609
51.2695
53.4305
45.4139
41.9395
39.9661
17.451
134.413
16.2602
10.4149
26.4824
110.183
29.292
58.5556
57.1347
13.0243
58.7813
30.2614
44.4544
13.9814
73.0528
29.4936
128.835
22.8132
47.2392
51.8619
73.9948
12.9092
1.90181
79.4802
61.4157
64.3087
36.0282
56.5947
68.0739
132.746
13.6624
93.8973
52.6718
9.88699
133.908
7.21486
59.9757
57.244
37.2977
14.0052
64.9078
25.3834
53.2376
12.8906
96.7683
130.864
36.1312
5.80331
7.40117
85.5246
32.5236
52.0844
10.2405
7.86458
69.3675
120.993
26.5736
76.9323
17.634
16.5885
130.443
111.281
12.0054
12.116
3.90531
131.566
6.15632
22.8098
26.7637
32.8351
10.6001
55.5169
115.232
27.0207
2.25064
44.4563
4.55513
55.0087
52.9828
3.21762
133.383
134.543
43.044
36.0389
52.9802
16.0422
64.6021
56.3901
6.23321
76.8644
67.3183
71.5778
64.2539
53.1126
6.44633
71.1945
48.9893
58.0559
57.3779
88.1956
2.24761
70.4797
130.281
27.7953
84.4493
50.5299
34.4355
44.1032
23.6691
35.1929
69.454
56.5102
17.521
72.5087
53.4259
2.55144
99.2204
133.285
58.018
112.181
61.0693
6.71063
52.0575
55.863
32.0236
131.255
8.33446
9.71993
58.9205
98.9289
8.8711
67.9988
68.7757
54.3432
30.7752
49.783
69.5923
12.5576
42.0339
74.7431
60.0929
27.9067
10.8344
17.0599
57.1614
65.8961
80.9408
30.7511
4.8672
21.8454
13.3967
31.1437
54.5472
52.6552
62.0439
59.2385
60.6565
102.854
68.8883
24.4244
70.2523
21.0815
22.9317
75.9923
67.2464
97.3563
14.2539
94.438
103.767
6.84918
27.155
26.4623
18.1625
17.6762
52.1316
13.5351
87.2046
6.42729
10.1867
60.3595
65.9207
93.2302
46.5312
57.9918
69.5478
89.2461
66.5152
123.112
13.4335
31.8434
15.5947
131.484
28.5761
53.7989
128.354
21.9858
63.7234
49.1437
89.0874
62.0867
55.852
111.891
12.7451
51.6543
113.609
42.8941
71.588
13.8037
123.393
126.324
13.0469
133.237
54.956
54.0824
70.5079
74.6838
74.7635
8.12788
56.5874
0.963278
63.7844
63.5323
62.8466
51.7961
51.9772
45.0899
76.9683
72.5425
115.257
32.1837
33.6256
40.0584
44.8839
43.0056
134.206
12.7084
13.0018
72.7147
94.2658
12.5188
87.6388
55.8788
7.13522
50.5721
16.6669
15.9073
86.4439
75.4379
73.1739
56.5983
109.773
101.368
24.1086
24.4421
21.779
21.8751
125.064
25.7165
22.7177
20.7642
17.527
51.9517
76.5462
79.9614
76.3624
71.6519
13.3881
14.4675
15.923
8.68681
9.55069
9.98082
127.694
51.0956
51.0293
50.0533
48.9581
48.5725
47.6854
32.529
33.4807
10.219
10.9579
10.8122
9.94272
11.7119
11.8783
12.3164
11.4157
63.2829
62.7029
61.8605
63.0197
61.0602
61.2472
59.5201
25.3529
24.0406
24.7975
25.6354
81.5136
1.74098
130.987
132.671
133.042
132.807
127.069
132.618
129.425
14.7042
14.4375
16.139
15.3279
24.8185
25.7206
3.84918
7.2585
9.01643
9.91947
49.3231
51.7003
50.5639
51.6078
12.9564
13
2.30374
3.47731
2.97231
5.2457
4.28814
4.64677
67.4429
5.513
6.30674
6.26895
132.013
41.4482
36.9754
35.2577
38.4119
39.8644
38.1967
38.344
24.0241
23.0004
24.5217
23.858
21.3334
21.4953
24.4836
38.6815
38.1679
13.1831
13.0659
133.779
90.1011
79.6615
79.5306
55.244
53.6575
54.9423
54.3973
62.4256
66.7289
16.4345
17.396
16.553
16.0655
85.8303
84.1901
74.9094
80.3672
58.6156
58.2513
57.479
69.4198
64.8394
66.8246
46.2873
45.7664
45.7397
44.7746
44.8063
43.8267
41.3395
40.8858
31.163
29.6987
18.5952
100.092
113.675
118.893
105.439
113.338
106.056
108.772
117.549
110.034
124.77
128.407
40.5082
38.0665
39.936
39.0073
35.1628
37.5064
36.84
36.1813
42.2077
39.5711
56.3527
57.2617
57.6163
65.9934
42.0284
67.1208
129.683
119.077
12.9965
12.909
13.5087
13.0988
48.1552
45.104
70.1117
77.5213
74.1042
78.401
66.1004
71.1783
37.3642
36.1455
50.8553
49.6379
49.319
132.076
18.6478
17.6693
18.058
34.4998
36.858
35.455
36.708
37.2497
39.5728
38.1953
39.495
21.9641
22.7412
23.4052
2.59075
131.982
132.198
132.163
60.4443
64.1187
64.305
62.5289
67.4983
63.1466
67.8805
65.5844
8.11678
9.29031
7.76574
8.54675
70.9523
67.5404
16.1796
11.2503
11.4682
12.2054
88.6364
80.16
74.8482
69.9321
3.48674
1.95796
27.3935
26.3126
26.5704
58.5905
15.7554
61.8147
59.4106
60.5366
61.7937
64.4276
61.8059
63.13
64.6637
16.6576
19.5979
10.86
12.1024
11.3401
10.7654
10.77
38.9044
38.5956
37.6797
36.3485
35.9508
34.8965
132.58
69.1555
75.5642
68.795
71.8402
3.37884
15.4308
16.7247
16.4175
60.861
60.5821
59.8019
123.234
132.993
132.322
126.215
127.491
132.242
62.1494
130.826
128.437
39.4318
39.3312
38.4204
1.71636
2.17635
2.43645
2.633
1.48962
1.31247
58.7549
56.4207
57.4187
58.6479
57.6585
56.8419
21.1994
21.3849
45.8339
40.304
36.401
37.7128
21.525
29.7155
39.715
39.2225
63.5329
62.513
62.3806
8.43127
7.95859
9.77996
8.63649
26.7519
33.9842
60.3331
58.8762
60.07
104.286
98.1498
16.8882
17.8729
17.985
50.8669
23.6656
25.2121
69.5774
67.2587
69.5107
67.4179
71.3918
70.8166
9.58012
11.9558
11.8253
47.9344
40.0489
44.7786
47.6387
1.17747
114.89
133.926
133.398
133.717
46.3312
32.2004
22.1054
29.5658
45.0666
38.3887
61.1398
60.4558
90.0709
84.1497
88.8279
84.4828
25.3876
22.9215
25.8696
24.3219
1.94408
1.13541
1.34069
1.10642
1.75247
1.97144
6.15199
6.15936
6.21864
60.1301
31.817
1.10762
1.47288
1.14681
62.4035
61.4175
61.5027
61.3012
53.7605
53.2618
54.1392
64.7604
22.8798
23.2558
22.354
116.994
114.325
12.8701
12.9213
12.9212
12.9504
109.399
119.044
121.275
122.905
127.04
129.895
21.6418
22.5653
64.3076
64.796
66.0388
65.9951
90.1204
83.2227
81.6204
38.9849
3.02534
3.45806
2.59966
2.71539
131.584
132.536
44.6188
44.9551
13.3335
14.4023
13.6965
13.1932
43.0991
16.3068
21.3571
16.9094
18.8661
9.80622
10.7968
10.1287
9.05309
34.5707
87.2859
82.2747
87.4364
83.4721
22.8288
22.9622
39.7737
22.074
20.1414
22.3369
20.1695
86.6298
102.003
12.648
24.6833
25.4297
65.3695
5.10269
1.70529
23.8801
21.7493
22.8768
24.3803
12.94
12.8941
66.3167
67.3036
45.0424
54.8136
48.3904
54.4341
134.022
134.392
22.4334
23.0348
44.5588
47.1948
45.932
116.384
89.2671
105.392
91.2571
133.814
133.014
48.1175
48.1276
50.2749
49.2277
50.592
49.245
15.8664
19.8151
28.2161
26.7562
45.2506
51.5474
41.9882
45.248
126.175
126.809
42.2209
43.3044
58.2988
58.3976
18.6423
17.6132
17.2097
17.9798
63.6019
62.6102
62.3773
114.452
93.507
107.217
9.97288
9.13851
9.6834
9.04466
24.4229
24.9547
83.029
75.4459
73.8785
69.9489
67.9937
72.9618
69.8876
48.9486
46.6371
46.0316
44.8725
66.2017
64.3995
35.0469
33.2735
28.1039
29.5123
4.82041
3.55678
3.97977
4.59137
4.68431
5.0851
104.703
9.2867
9.40133
8.68244
7.8714
89.2386
74.8743
75.0325
85.3169
92.9366
90.0046
103.694
56.8122
55.4701
56.0452
57.0783
16.0244
15.0951
17.5475
17.0166
15.625
19.2162
19.9719
20.7183
36.6518
35.8081
84.4775
85.8853
74.9761
72.2274
26.7411
25.6302
25.9484
40.8629
39.7282
4.00257
3.96217
20.5081
4.82968
3.76905
3.49699
2.25717
2.96877
68.7485
65.0983
65.6291
67.6375
43.859
43.8803
43.1815
43.0039
64.4691
71.0382
74.1338
76.2074
14.4238
16.5086
17.2299
18.86
15.7807
37.4904
36.658
38.4349
37.5187
14.3612
16.8428
14.2208
124.016
60.6
58.5104
18.9677
17.534
48.3569
46.5496
26.7212
27.4571
17.5044
17.9191
18.6656
17.9149
125.258
133.506
133.912
133.335
52.7966
53.0317
55.1385
54.1881
63.0585
62.0924
62.5168
73.4344
69.5768
69.3376
74.2026
67.0705
67.5563
51.9323
39.3059
45.0397
32.6325
9.48976
11.3255
9.96617
10.7453
77.2127
85.0192
77.7942
89.2989
83.2763
98.2624
101.579
85.2395
94.4952
48.6922
53.3341
40.9544
42.8624
51.2895
22.6757
21.7651
42.1101
51.0057
49.999
49.9799
49.7044
15.0102
133.724
134.088
15.9789
15.6521
64.1607
67.3975
62.7132
61.8459
7.00053
8.08777
117.736
130.856
88.8291
3.05519
2.7746
48.1629
45.9344
2.4164
3.16504
2.65707
134.128
134.036
133.84
53.0821
54.2882
54.8441
54.0227
130.986
130.769
36.7269
37.0531
32.2641
25.3579
26.6386
49.5206
49.1883
54.0898
54.3595
55.6232
12.8735
12.8934
12.866
12.8783
12.9104
101.187
5.6341
88.5899
88.2999
98.6464
93.7684
29.0514
18.9416
19.7773
19.2902
18.5756
75.6098
54.3726
55.1037
56.1872
55.5768
9.38783
8.60684
9.17275
8.46334
2.63802
1.98071
64.1157
65.3228
62.3987
61.96
54.267
56.5357
50.6931
32.4447
32.5873
29.4847
33.8352
17.6057
19.3097
27.4091
125.197
105.284
117.513
122.616
111.149
5.50503
6.19996
64.5882
13.8631
15.6098
14.5475
15.7025
28.7526
28.6311
27.2228
13.1808
13.0824
13.1068
13.1804
30.5088
27.3347
21.9943
16.0299
14.91
12.9187
12.987
1.68207
1.8325
2.66578
2.19975
2.73219
70.4395
25.6829
22.0906
133.045
133.822
132.536
134.556
134.367
84.6939
87.3605
19.4903
18.5844
19.132
18.2908
72.3146
67.5449
4.10324
3.59785
3.62001
131.994
125.746
1.05971
1.2616
13.8227
13.7605
14.2378
50.0203
52.2631
51.5185
64.318
68.4827
66.3755
64.3141
67.1331
68.7621
133.226
18.4806
15.9892
115.111
118.602
104.951
103.215
125.61
127.057
11.9055
13.0624
11.6418
12.2651
15.5024
15.3501
16.0258
16.0818
29.5018
29.1455
26.6862
27.7279
24.3574
28.3695
24.4613
26.7337
3.7208
2.926
111.007
117.435
103.964
74.8996
83.9131
80.004
86.7662
123.259
98.6165
104.705
51.8857
38.9197
44.9234
31.7687
79.016
79.2608
55.1864
76.84
80.3244
84.2713
14.922
17.0354
56.5568
56.3889
69.7072
67.9399
69.7959
68.2296
80.8091
82.8415
80.4374
22.2759
22.7633
21.5661
68.5843
67.8163
73.7197
70.2153
46.253
45.4886
7.25996
7.47638
133.291
133.015
133.525
13.5153
13.4727
133.496
132.646
133.665
8.23334
7.73962
7.74878
9.00942
8.45692
24.4018
24.4013
25.2427
23.6817
23.7581
60.5453
61.0521
57.9415
59.1545
19.4218
19.4215
12.9578
12.9791
13.0777
13.1711
13.1653
14.9594
15.6999
60.1708
60.2298
60.0205
40.0946
41.199
40.6317
40.4249
41.276
70.4372
32.0758
31.0737
30.7715
16.7957
17.451
18.0472
80.7755
90.0709
88.6006
79.4959
83.8854
63.6102
61.453
65.4558
65.0325
71.0903
77.2793
84.2104
46.1557
47.2754
44.9139
44.7448
68.4052
133.063
21.3655
21.4777
22.3171
22.1934
62.9596
62.0876
63.7801
62.4443
63.6874
12.3397
11.8952
134.508
134.579
134.419
134.308
134.461
13.0783
31.3203
30.7375
83.7056
88.0507
94.41
13.6281
16.9769
17.6244
22.2158
32.129
23.1512
129.218
125.483
119.926
119.888
129.627
126.097
29.7944
29.4484
29.8598
134.216
39.0283
33.8199
27.1791
15.2915
15.3686
15.1771
112.841
108.623
115.588
56.5153
47.1721
1.64697
1.96112
8.04736
7.2793
7.73519
6.99178
8.63918
8.09696
20.1695
19.5413
20.6864
53.38
53.2605
54.8126
1.72582
1.34402
73.7539
82.1244
76.535
83.3404
13.0374
12.9716
5.60492
70.2346
59.8136
59.5555
58.9522
11.1664
10.8071
10.4905
134.336
133.941
134.454
134.257
133.985
17.7999
18.4752
13.0929
94.519
115.197
31.2646
31.3438
26.1372
31.5138
27.8254
24.3484
33.1587
34.3698
34.2806
65.8098
66.6099
66.8659
50.8266
51.4228
134.542
134.527
134.427
134.527
134.629
134.525
57.0724
14.7847
12.689
134.381
134.182
134.024
37.6141
39.2573
33.7125
30.2181
48.4981
21.6077
25.4846
19.9412
17.5985
25.3531
23.0544
78.4083
76.4165
74.8067
71.8886
71.9049
22.3285
22.1071
15.9597
17.4868
73.6281
76.4016
74.3188
76.9701
29.9792
33.3766
34.2679
34.5559
29.2828
30.9164
20.3867
23.0906
23.0599
19.3074
20.7472
4.35312
3.19519
4.30886
3.76316
3.31338
3.81427
38.7017
39.5562
39.1686
37.7785
38.0612
118.35
119.811
97.2884
108.638
91.6775
105.357
83.7377
86.9798
79.7499
80.7036
7.58819
8.76256
7.8321
69.2659
77.9948
92.8693
86.1166
134.605
134.581
20.565
19.6426
32.377
31.0812
32.602
31.0348
12.8789
12.882
12.879
12.8985
12.9005
46.5251
48.0108
57.4831
57.8057
58.3662
101.993
109.932
112.256
130.388
129.15
131.324
131.245
12.8689
12.8791
12.9493
12.9952
34.1156
37.8598
38.8529
37.9421
31.7364
32.8541
55.4828
28.3145
28.4616
27.9287
27.3458
27.0404
44.0063
15.603
22.2591
14.1526
17.3076
70.6235
74.5531
71.1627
75.8777
73.3353
134.423
134.461
134.625
52.0814
52.7092
1.58356
1.39935
34.6819
20.6819
28.0761
29.0892
22.2234
43.2676
42.8143
44.4392
45.2666
43.5556
42.7873
72.958
67.3935
68.3955
69.3804
16.6084
16.0206
27.8713
30.161
22.3565
47.9259
82.4418
87.1027
88.7081
107.678
1.53602
33.1314
32.7298
13.0806
16.2145
14.9342
14.7553
15.5924
14.4493
14.8381
12.9882
11.6812
15.6906
11.9964
13.1576
14.3755
13.5979
14.1038
13.1527
14.5464
13.66
14.408
43.1684
37.5712
84.2344
29.2444
29.4738
60.0856
13.1553
13.2273
13.0855
13.1804
65.0221
66.1391
66.4369
64.6802
65.5882
104.966
116.165
46.9377
46.4868
45.4009
21.1744
20.027
17.644
16.9373
30.2194
32.7185
35.2656
36.1911
1.38001
1.27132
65.7371
64.8683
20.235
19.592
18.8835
86.5326
75.4471
75.6222
92.8538
85.3626
50.1005
50.0388
50.7007
64.2316
63.2557
132.969
132.785
60.0422
60.2597
58.5347
59.0271
59.5304
58.8901
21.0196
21.2265
20.2944
19.7611
19.8963
20.5814
59.4755
57.8561
58.7399
57.9138
50.5652
52.7528
50.768
51.7582
12.8078
13.0953
13.0449
13.0065
61.5158
60.1086
64.8584
65.7013
62.7565
59.0757
58.3518
58.9135
49.1232
47.3381
48.4693
47.4266
48.3039
40.9318
35.7141
29.6574
31.0574
115.909
114.882
124.057
126.975
125.605
120.443
104.545
99.7367
90.6701
91.9785
26.2529
26.8048
132.605
132.542
41.8315
41.4989
131.755
130.411
130.537
131.807
131.423
131.047
18.9825
17.673
19.5479
132.129
131.999
129.121
131.994
93.4809
93.1026
99.6923
105.93
65.5736
64.5238
69.4001
67.8466
67.0644
65.2229
61.0207
62.5455
63.9533
61.7266
63.7044
7.09665
6.37111
114.955
121.984
123.261
61.2876
62.8579
63.2016
63.9301
8.37768
7.43073
13.1692
13.0728
112.422
107.681
93.9281
16.0227
15.0509
14.8862
18.1146
17.0413
48.6355
47.2189
47.447
55.3013
54.2487
74.5684
72.4327
131.683
126.607
131.727
130.955
125.277
14.6729
120.308
110.913
106.708
115.584
132.571
132.209
133.07
71.2737
80.3479
74.6026
80.552
72.9555
99.4201
102.721
111.999
59.8694
60.178
60.8971
60.4636
124.456
102.98
115.292
113.261
122.434
19.7185
14.8954
24.8248
23.8622
14.3682
15.3078
25.1614
24.4585
60.0798
58.6472
60.2658
48.772
33.5887
42.0789
41.1659
41.2768
40.1245
55.793
57.1092
56.9016
111.958
115.481
124.846
128.149
118.088
126.248
77.2848
76.5934
74.9827
74.354
16.0768
15.9188
14.378
14.2571
13.5819
18.597
13.8235
16.647
95.2591
76.7191
96.1959
86.2488
68.7861
69.2472
79.2891
75.2333
80.3879
8.60768
8.24219
7.88758
76.8797
74.6065
70.3111
67.2774
12.8464
12.4308
13.1611
13.0148
4.80261
5.51815
13.0899
13.1399
68.2133
69.1718
68.0768
14.0398
13.2192
13.2045
13.2253
130.022
134.391
133.77
12.2837
11.1268
8.86575
9.8294
9.94661
9.31105
26.6451
30.1301
41.4251
134.601
17.9139
16.398
15.4246
18.0686
16.4532
15.6048
18.6474
16.7795
18.9246
17.026
23.2722
22.8317
25.9992
23.5729
22.9825
12.6272
13.3043
12.5358
25.9661
24.781
26.3007
25.0586
23.5427
23.5307
69.5574
69.607
72.469
70.7591
72.0859
70.2636
46.3273
56.1177
53.8986
49.9449
53.8054
4.02437
3.58683
3.43501
3.79506
4.19965
103.657
112.751
111.664
100.953
106.22
56.8944
55.0998
59.1707
57.737
59.3608
58.6733
58.5534
58.9063
57.8641
57.844
58.468
50.2444
52.3142
51.4938
51.486
50.6131
7.3947
8.84027
7.9808
8.41809
7.60249
64.9887
66.5031
131.813
120
114.57
113.272
98.099
99.1919
17.1659
15.4174
15.8396
61.4773
62.2508
62.1614
54.493
83.0242
88.2426
72.6654
72.1637
84.9994
78.2704
76.3007
82.5381
8.37289
9.49418
54.7607
56.5521
56.6885
55.6601
34.5807
28.2153
18.0191
38.622
17.4557
26.8176
28.7004
22.6586
46.0098
45.3095
44.8413
53.0453
18.0945
25.7145
28.7894
87.3689
81.7117
95.2396
97.8113
76.9766
75.762
60.9851
63.298
63.2944
52.101
52.0575
37.9351
43.6407
36.2965
28.2837
63.121
64.5863
63.3657
63.9622
54.6951
53.4955
54.2735
55.3784
53.2496
51.2434
52.6683
52.0322
50.904
94.2721
98.724
46.0479
130.091
128.13
119.326
121.764
5.62039
4.64475
4.45106
5.08895
2.92009
3.06884
103.938
98.2982
93.0462
102.212
94.2678
31.7166
31.0605
31.6387
5.60311
6.16465
5.86947
5.33793
6.52572
6.81489
34.7935
35.4559
35.8878
35.1785
34.1879
34.2905
46.7184
48.3234
46.6745
47.7889
47.3305
47.9506
49.1352
49.4108
49.9428
48.2092
47.5434
58.8316
58.8163
59.2689
2.10052
121.789
63.3184
62.1534
7.66494
8.39262
8.68778
8.09812
7.47429
10.5339
9.44307
9.15572
10.6253
9.79337
11.0547
10.0076
9.44859
10.8589
9.78177
13.8186
13.3683
13.6366
14.4297
13.2684
13.2022
112.897
132.6
131.866
127.184
128.038
130.137
27.736
60.2548
59.5542
58.5212
60.2233
58.9961
134.592
40.1979
41.0771
41.8962
40.4207
41.2357
61.7381
61.0866
60.9209
61.7874
62.1577
6.44679
5.52709
8.54795
7.58199
8.10221
112.025
107.219
93.5888
97.1972
134.24
132.976
130.174
127.406
133.621
131.247
22.9703
21.5093
20.2416
17.8686
18.5939
17.1206
19.2147
18.7549
133.308
133.159
133.605
13.0128
13.0263
68.8209
65.2445
66.5234
67.6549
65.9558
55.501
60.959
63.06
61.5607
65.3183
68.4915
66.277
58.8863
59.8704
59.0026
74.5878
67.9417
69.7863
129.831
132.625
17.5728
18.0934
16.9079
19.1441
18.5289
12.8314
12.9767
31.3206
23.0462
18.3628
30.2952
14.8256
15.2218
61.6419
61.1657
60.7813
61.5693
60.8227
8.69498
9.37623
80.794
77.2821
74.3114
75.8951
80.2505
6.84365
6.17523
6.63881
7.30593
7.43808
62.0044
60.6728
17.7263
16.7348
15.1631
16.3172
15.0435
29.1011
28.2227
28.1993
28.2623
28.2983
27.3192
11.4468
13.5369
12.3388
14.6815
13.686
13.3867
12.2317
14.708
16.2703
10.2431
10.021
9.44225
5.91995
5.68809
5.26275
5.31814
4.98197
61.1733
62.067
62.9494
61.1293
64.1376
64.6598
62.649
61.1253
26.4124
27.2187
28.8094
13.6137
14.6206
13.8675
13.377
14.3804
14.893
13.7162
12.9031
13.2941
12.6832
12.0395
12.4644
12.4183
117.942
122.49
118.259
19.1224
20.5629
20.7064
40.7747
42.3567
41.2641
42.4409
40.7124
41.3282
37.7199
38.9442
36.1315
38.6259
36.3912
33.5741
33.4302
33.1089
32.3312
32.6268
13.1594
13.1494
13.1938
13.3175
14.0546
14.9152
69.468
69.1716
68.056
71.8103
71.7363
132.658
132.751
59.5014
59.2819
56.9821
58.4631
132.913
132.233
132.764
59.4141
59.6028
34.6286
34.4436
35.2363
31.1455
32.1949
35.9242
36.8701
36.5366
35.857
35.5014
21.3505
17.0862
27.0332
20.2715
22.5236
28.1962
24.0363
31.3139
29.7698
129.288
125.878
121.234
67.2785
66.5544
65.8362
129.218
126.995
131.312
119.013
118.944
4.4692
4.38206
6.77685
5.6917
4.8082
5.03584
5.64168
5.29409
63.4274
63.2489
61.9707
65.9677
66.0206
64.7823
58.5882
60.3695
56.7793
55.6019
60.7293
60.1828
12.917
13.1561
13.391
13.0736
12.8894
12.9746
43.9506
35.9086
38.83
45.9383
28.6309
25.9716
63.4303
64.3703
65.5787
65.715
63.8247
63.1097
57.0902
56.1414
55.8486
96.6532
99.1639
109.581
13.207
13.1086
13.2048
13.2153
12.988
12.8659
24.3567
23.692
38.446
41.5041
42.0021
36.6064
35.5342
14.4205
15.4358
18.957
16.6351
20.6814
124.859
129.465
120.158
108.067
114.768
123.422
129.378
131.057
124.627
128.76
133.966
133.643
19.9912
19.2727
16.8912
17.0269
15.962
4.81895
4.07204
6.29015
5.59348
7.05886
5.65646
6.49582
4.03507
4.37815
4.38788
5.23547
5.24305
46.5015
47.6088
46.7644
45.5446
29.7857
29.5422
26.0765
27.1477
28.2807
26.6506
1.69058
2.01476
59.1582
60.3989
59.8945
59.2341
60.3704
60.6538
46.5491
45.4872
46.8501
16.2527
17.0985
14.6827
14.234
14.8472
16.1404
14.6645
15.0463
14.0785
14.3377
13.9194
13.882
13.3518
13.3429
12.7746
12.4658
118.253
111.029
111.568
127.69
128.272
121.89
119.157
123.11
105.736
107.153
23.996
28.4844
22.8383
24.0539
25.1828
51.2276
52.2683
49.7458
32.5734
34.9615
35.0792
114.825
120.9
119.298
31.4931
29.2698
30.1759
49.3661
50.6227
50.8476
48.8863
48.3
70.6558
69.2587
66.7642
68.8066
66.7663
62.0204
63.2487
63.888
62.8669
61.8415
20.2904
16.0842
13.9018
130.894
132.149
101.773
94.1717
92.801
40.8157
41.9432
44.2325
5.84343
6.3846
52.049
48.5096
48.7707
52.7208
54.4165
12.1637
11.3063
134.61
134.624
134.576
134.589
134.601
5.99665
5.87548
6.44601
6.92874
6.9794
31.7898
30.8835
40.3362
39.379
40.2887
41.5816
42.0012
1.52915
93.2206
100.723
94.3897
99.5957
105.816
106.147
10.4301
10.4849
103.813
105.45
91.2909
58.8487
57.7277
56.4698
58.0068
57.2897
69.6912
65.3705
73.4559
65.1088
64.295
67.4755
69.9919
11.517
11.2959
11.9982
13.9384
15.4549
12.0387
10.951
10.5192
12.4062
11.5636
11.5561
15.1957
14.2677
33.1828
33.2126
32.0721
31.5654
32.0259
32.4421
31.7533
18.5732
20.0157
19.2927
34.4473
33.6556
34.0998
15.5086
13.1496
16.5442
18.3035
14.3766
13.1178
14.4949
10.1649
11.1295
10.7262
12.326
13.5005
12.3052
13.1563
11.5644
12.7588
12.1084
11.7225
12.67
12.7184
13.7991
12.4235
13.0253
14.3502
13.8635
32.2767
32.0166
33.0542
32.9451
34.8053
34.178
33.6761
28.7994
28.36
30.3341
29.6056
29.9918
30.9328
30.871
14.0071
12.6794
13.2317
13.0283
13.8015
14.214
15.4536
15.7031
14.2554
16.9047
17.0002
18.6991
17.9923
20.4016
19.2522
20.8408
20.315
21.2607
19.9962
19.166
19.8327
21.2508
21.6277
14.7353
16.0781
14.2225
13.4283
12.7682
13.0529
13.8469
17.0336
14.9896
15.9827
9.99485
10.3329
11.7404
13.1503
13.3577
12.6725
11.5132
12.2497
12.1734
11.0535
11.4646
20.9464
21.4516
21.8948
22.0922
21.648
20.791
13.8077
12.7648
12.4979
14.3808
13.6931
16.9168
15.8027
16.5449
15.2488
15.6538
60.634
61.4319
61.1382
60.4603
61.3749
60.4778
128.648
125.22
117.989
113.237
113.742
8.76574
7.92461
24.6749
24.3612
128.041
129.016
132.55
132.614
57.9528
57.0603
31.2223
33.8249
47.1617
41.6979
36.3667
45.6655
4.15857
3.44715
13.4395
14.3503
30.4209
30.422
29.7219
31.4287
31.5406
31.275
31.6449
32.4338
33.1779
33.0022
2.48494
2.11619
2.63113
3.87329
4.10756
4.92007
4.22417
20.1721
19.5618
20.9802
113.264
131.889
127.856
128.147
133.9
133.031
67.049
67.1003
68.8101
67.6489
70.9703
69.516
21.0925
18.6911
26.0918
15.3269
15.2397
14.6577
14.6563
16.04
16.1987
16.0757
15.6517
15.4505
19.9982
22.2684
4.91654
5.83742
5.07841
5.4679
5.95949
7.05474
7.75796
6.97215
7.45554
7.96102
4.85833
4.17972
4.86953
19.7771
20.7086
20.4065
20.1679
20.4477
16.1104
14.2265
14.5025
14.6964
15.7461
133.258
133.362
13.1137
13.1694
13.1486
13.0993
13.1057
55.7708
57.5418
7.08102
6.68845
11.5808
52.6305
47.5374
11.4771
11.8956
12.3576
15.2591
16.227
17.1971
59.3466
57.0416
56.5443
57.5925
45.6883
45.2756
29.734
28.8408
29.5359
132.61
61.6174
62.3239
62.3853
15.4699
14.0016
19.0949
126.564
127.713
45.6726
45.9493
17.0157
16.9086
16.4491
13.1135
13.1159
25.0631
18.3939
131.624
132.542
96.1681
55.6335
57.0797
55.6929
17.5461
18.632
19.5482
17.6096
17.8545
97.6573
103.814
106.4
53.267
52.1864
5.54578
5.31852
6.44564
6.25575
39.8146
39.6177
40.4298
66.2005
38.4228
64.8815
136.822
8.66386
0.333761
0.555167
13.0604
0.514833
0.281816
15.9826
61.5074
0.411267
61.6048
0.349378
43.4057
24.6324
142.864
138.211
25.1957
11.2912
32.6137
39.7037
55.8377
64.2297
21.9427
19.6001
31.8821
33.0948
35.6792
39.4301
54.9025
49.7756
121.86
42.8036
54.199
88.548
34.5785
53.1335
51.4073
57.9217
47.2262
47.2064
41.9762
132.422
130.305
4.51961
45.4542
104.248
13.059
52.9877
104.138
67.7002
64.4476
68.0174
125.372
62.8785
63.9499
56.6343
9.82629
9.21302
8.50335
59.8692
53.9598
58.709
0.423293
0.937427
12.019
11.3387
12.701
7.84214
6.99757
88.0893
47.9057
53.8142
55.297
50.7029
74.9821
82.4355
0.623102
1.09358
0.449943
0.277639
3.4055
4.077
7.13081
8.22409
80.1994
95.8345
88.3756
49.4138
48.9411
48.2166
49.6639
56.5871
57.6561
52.0638
42.7265
38.9857
41.6676
50.1954
46.4105
49.5721
48.3457
49.0963
44.0945
11.3181
10.8165
0.870431
0.423848
11.0373
9.99986
9.63272
0.331991
132.149
142.366
130.6
68.8231
89.2462
78.6672
13.1685
13.0977
12.8888
52.256
58.5511
42.2098
44.14
43.4002
40.8356
43.7427
49.0192
63.2042
65.6212
23.6816
20.7775
22.1911
38.2353
34.4242
39.0331
34.9781
32.3787
36.8804
0.305875
0.647117
16.4334
14.883
14.6578
36.9073
39.6039
59.6833
53.9564
60.5209
12.8815
12.8873
38.2279
35.7015
37.6458
116.452
98.0026
13.2348
19.0986
0.567961
0.451774
0.304047
123.664
127.352
112.628
12.2549
13.4142
19.6066
26.5047
10.2594
14.9743
33.482
31.9381
12.6392
12.3772
23.3961
24.0469
24.4315
63.9717
63.7479
59.611
0.375184
12.9235
12.9102
134.334
134.443
22.2958
23.247
35.7976
33.7172
34.1104
61.5611
62.5136
27.1708
25.1632
133.539
11.6529
10.6898
11.8567
20.6436
27.8234
13.9974
18.2501
38.1187
41.842
122.535
129.898
132.842
132.093
45.8763
47.9954
108.573
1.78157
2.52703
6.05651
5.66424
13.0118
12.9444
12.9213
82.0105
0.201027
0.60138
0.591915
3.19251
2.72179
129.099
120.538
110.325
11.6639
10.5991
63.272
63.9995
67.6923
65.8817
15.6273
67.4459
76.8735
67.2225
132.981
132.505
133.172
12.9594
12.612
134.501
13.2471
12.4124
30.4303
32.0991
38.5564
0.865627
0.400912
0.679774
0.263906
0.870349
12.9976
12.9687
5.45591
5.62809
6.75233
70.0713
71.7541
76.9275
67.7993
68.792
17.7593
17.1972
13.2281
13.1606
13.2333
64.1423
62.0856
64.8113
19.8275
134.356
134.204
134.022
32.4318
51.3341
39.8455
103.879
81.4272
101.145
132.682
91.8551
72.4425
88.3873
122.436
111.465
103.35
21.7474
18.3951
47.8627
49.4692
45.5728
40.744
43.8313
50.5646
52.1427
48.7999
0.271477
0.761801
0.709674
17.4207
15.4692
44.6218
44.8249
46.1278
129.636
118.298
88.5593
96.3918
80.8405
0.91761
1.06471
0.815261
2.34988
1.37447
13.2551
30.176
27.7805
58.6375
68.5114
67.5949
0.276762
0.871908
0.599769
133.85
20.1465
18.5648
18.1893
133.035
132.846
25.5958
25.7238
26.8333
13.1055
13.0678
86.7184
75.4794
72.0183
23.2626
23.5793
24.7569
40.1573
14.4221
13.6877
13.2376
13.286
13.1943
59.8562
132.216
60.8199
61.7858
55.0861
50.3948
50.999
59.0313
57.751
125.806
117.505
14.0685
13.5843
14.5653
30.2826
128.414
132.54
28.3829
26.8481
134.624
134.554
133.471
133.192
133.624
19.1007
17.1436
16.2368
12.7956
13.1333
13.2457
61.3941
57.8056
28.9105
26.3068
25.8521
65.4408
60.5151
132.555
132.497
132.61
31.713
29.3836
31.2537
62.4577
60.0003
58.6713
51.5142
57.4087
133.602
134.004
134.134
114.134
99.4153
12.615
12.2364
11.7896
0.931934
1.72265
0.496227
1.3529
32.353
32.1179
30.5695
28.8174
27.4934
23.1965
21.1391
19.3473
131.983
132.267
132.516
4.93135
4.69526
4.07672
129.062
124.146
65.2062
63.8097
71.0302
82.3008
68.6363
132.211
37.2643
39.6571
50.8812
55.5089
52.7755
28.2735
29.9178
30.6804
29.526
28.5939
131.511
130.792
64.0641
18.7171
19.426
12.9889
12.7848
134.573
134.611
66.6318
6.12843
6.20268
128.007
133.516
14.4536
28.9316
61.7512
52.6941
33.5439
130.936
27.2367
56.2483
8.88655
6.46535
112.666
78.03
87.9289
41.1402
19.8689
74.0123
24.7316
34.0306
16.397
89.0812
103.921
106.574
59.2156
61.323
65.8533
117.771
30.1626
28.1112
29.1341
60.7725
94.0273
125.852
13.057
43.3665
31.0727
86.6723
13.4743
13.1415
9.81873
29.7075
27.8661
26.062
27.0609
54.6131
54.6756
53.6501
51.6271
70.1134
7.07423
6.43349
134.466
63.531
43.0849
42.092
124.002
52.9793
125.27
16.9676
11.6386
10.1407
10.7836
13.2355
13.9606
116.534
4.56742
5.79366
45.423
28.1803
26.6541
124.595
118.746
113.018
115.644
128.515
127.327
84.4597
102.282
14.5685
14.0503
29.5077
18.0351
22.531
65.7066
6.89793
71.8509
61.5888
87.9757
100.504
94.5146
127.135
32.8957
32.9317
32.0604
31.745
19.8382
10.9153
57.6698
55.0755
41.5147
81.7915
65.4462
43.5601
42.6244
42.4888
127.084
125.493
56.3675
8.34781
12.8823
5.30942
10.4008
34.1456
40.4834
39.8851
19.5024
44.3696
57.9419
55.6218
54.5122
21.2215
28.4284
6.25039
7.06008
6.11431
91.3087
10.2202
73.467
120.974
13.2434
98.6533
40.6884
77.7015
25.4655
28.6997
41.9001
61.5235
14.9629
6.70645
7.1963
7.39063
47.4918
52.8963
130.457
52.1503
12.9567
100.701
114.37
16.2742
52.8127
53.0792
73.1278
89.134
54.5908
54.1321
56.8284
55.3755
10.6007
17.6753
23.3905
13.6264
13.9738
107.861
120.039
115.021
121.54
12.4999
13.3861
13.0186
13.6544
57.2149
55.8962
64.7671
37.3831
25.0405
61.3308
32.5824
65.0405
65.0515
59.3996
41.6155
42.8679
65.769
59.6689
60.3897
52.4404
131.735
19.3197
26.492
28.0145
27.2177
26.1904
29.9255
29.7749
131.174
69.4745
72.4228
69.1279
102.29
93.572
86.9337
104.177
98.1682
58.3389
56.8163
106.023
53.7655
52.2117
61.09
9.72596
10.0052
11.469
10.5893
55.9354
132.584
34.0931
37.1622
35.9161
3.13052
2.55348
2.68676
2.08768
1.49495
50.7829
51.0059
112.293
67.4259
59.455
2.45225
68.2372
65.586
67.2171
58.3842
36.1925
131.156
129.614
130.818
129.4
13.9759
42.3784
88.6348
22.5042
132.033
132.924
130.507
130.232
9.28339
9.40635
8.6181
7.83366
2.98006
71.5998
69.193
7.24096
27.3638
29.2112
27.6823
28.34
6.82543
7.88345
12.9245
14.8368
14.4425
25.9984
37.3077
39.0932
37.292
38.446
32.506
30.6493
31.7052
25.9276
24.9991
26.9147
41.3432
41.8862
40.1283
40.895
73.4292
72.976
78.7891
64.7611
68.1225
65.3033
12.4971
66.6585
62.0745
55.3345
56.8731
56.1024
12.9686
75.65
72.5625
70.7722
2.10187
1.91596
6.88347
6.64462
4.39645
46.8025
48.6115
8.08226
76.9854
73.8644
69.1265
70.9146
68.3184
65.407
94.3054
108.742
101.348
108.182
60.8927
60.9635
64.742
44.1229
43.5411
43.1254
132.655
40.2771
31.7149
0.964663
51.5099
51.8648
120.067
129.342
62.9148
63.5003
127.233
52.2543
45.1971
103.514
31.1476
46.0911
100.069
112.92
107.203
53.4471
112.439
33.6215
40.535
42.9102
44.617
43.2455
10.9175
12.6976
12.0236
13.0222
12.5042
12.0049
61.851
62.7837
60.9422
61.2432
63.5351
62.9302
115.489
121.699
116.22
123.224
7.1031
16.6556
5.49621
78.6473