/*--------------------------------*- C++ -*----------------------------------*\
| =========                 |                                                 |
| \\      /  F ield         | OpenFOAM: The Open Source CFD Toolbox           |
|  \\    /   O peration     | Version:  2206                                  |
|   \\  /    A nd           | Website:  www.openfoam.com                      |
|    \\/     M anipulation  |                                                 |
\*---------------------------------------------------------------------------*/
FoamFile
{
    version     2.0;
    format      ascii;
    arch        "LSB;label=32;scalar=64";
    class       volScalarField;
    location    "400";
    object      k;
}
// * * * * * * * * * * * * * * * * * * * * * * * * * * * * * * * * * * * * * //

dimensions      [0 2 -2 0 0 0 0];

internalField   nonuniform List<scalar> 
50904
(
0.0740228
0.0728177
0.265031
0.217164
1.68591
1.67577
5.46492
4.72852
8.05624
7.87408
19.8195
17.8247
14.2992
13.882
31.9988
29.1539
19.1391
18.5154
41.7025
38.1711
23.03
22.2383
49.7916
45.6829
26.1972
25.2772
56.6037
52.0152
28.6595
27.6533
62.132
57.1582
30.2145
29.184
65.9258
60.7145
30.6549
29.6631
67.4834
62.2128
29.7827
28.9102
66.2149
61.1521
27.3888
26.7132
61.3113
56.8122
23.6178
23.1642
52.4902
48.9233
19.2003
18.9035
40.4006
38.0031
15.4466
15.0718
27.4788
26.257
13.7964
13.1731
18.8416
18.0755
13.534
12.7457
15.0543
14.2715
13.7417
12.9022
13.7568
12.9026
13.9999
13.1721
13.4136
12.5257
14.1255
13.3403
13.2643
12.3751
14.0341
13.3089
13.0192
12.1445
13.6496
13.0039
12.5262
11.6824
12.9409
12.3994
11.7566
10.9655
12.0402
11.6081
10.8426
10.116
11.0096
10.6881
9.84115
9.18616
9.89824
9.68684
8.79513
8.21579
8.751
8.63025
7.72988
7.22548
7.57856
7.52489
6.64721
6.21426
6.40347
6.39565
5.56867
5.19869
5.23164
5.25486
4.50943
4.19037
4.04794
4.08881
3.46121
3.1787
2.852
2.87452
2.41243
2.15058
1.65545
1.60585
1.34449
1.11699
0.512631
0.47453
0.386367
0.296496
0.0619705
0.0556691
0.0456292
0.0339352
0.0374804
0.0266697
0.0277893
0.0169336
1.01511
0.763102
2.88343
2.07009
4.43666
3.18994
5.48693
3.95225
6.16971
4.4485
6.61717
4.77433
6.91434
4.98869
17.5735
14.287
37.8385
29.9032
51.048
40.4811
59.0306
46.9336
63.9181
50.8945
66.998
53.3902
68.9875
54.9948
45.6267
38.7664
83.3841
68.6606
106.211
87.4323
119.781
98.6941
128.007
105.546
133.165
109.848
136.499
112.624
67.6767
58.1597
119.487
99.4424
150.043
124.834
168.3
140.152
179.398
149.511
186.394
155.426
190.957
159.286
85.9682
74.223
150.816
126.077
188.506
157.651
211.258
176.905
225.181
188.761
234.018
196.314
239.835
201.296
101.953
88.2558
179.654
150.563
224.392
188.322
251.734
211.649
268.6
226.141
279.378
235.445
286.526
241.634
116.096
100.695
206.814
173.649
258.775
217.828
290.94
245.494
310.939
262.828
323.794
274.029
332.369
281.528
128.37
111.506
232.337
195.374
291.848
246.334
329.146
278.673
352.492
299.083
367.559
312.328
377.641
321.227
137.913
119.917
254.859
214.513
322.075
272.398
364.727
309.615
391.597
333.264
408.993
348.663
420.654
359.032
143.587
124.934
271.991
228.98
346.427
293.292
394.232
335.145
424.526
361.895
444.183
379.351
457.366
391.112
143.887
125.214
280.351
235.836
360.324
304.948
412.226
350.395
445.283
379.565
466.763
398.614
481.158
411.432
136.659
118.958
275.047
230.701
356.881
301.257
410.137
348.027
444.169
378.134
466.429
397.784
481.404
410.978
120.672
104.967
251.606
209.871
329.684
276.902
380.222
321.51
412.401
350.254
433.411
368.981
447.734
381.508
94.9464
82.9308
204.843
170.845
274.049
229.064
319.511
268.116
348.446
293.347
367.225
309.77
379.921
320.707
63.8668
56.4392
143.598
119.87
200.329
165.921
238.658
197.497
263.13
218.019
278.875
231.393
289.375
240.3
38.7165
34.8259
90.8276
76.054
135.46
111.05
167.4
136.232
188.068
152.818
201.218
163.585
209.763
170.713
24.0993
22.0951
55.4848
47.1909
89.8556
74.0874
116.913
95.1008
134.997
109.255
146.484
118.413
153.746
124.373
17.2778
16.0516
34.3828
30.2595
59.3829
50.6069
81.9868
68.6306
98.0045
81.27
108.345
89.4398
114.8
94.6302
14.6082
13.6062
23.4288
21.434
40.1365
36.0153
57.9104
50.9948
71.6026
62.2084
80.7874
69.6129
86.5971
74.2693
13.4957
12.5336
18.1481
16.934
28.6329
26.8162
41.653
38.5437
52.7493
48.098
60.6581
54.7033
65.8773
58.9703
12.788
11.8275
15.3644
14.3048
21.8617
20.7367
30.9245
29.4203
39.4017
37.1988
45.8215
42.905
50.2356
46.743
12.0372
11.0794
13.5119
12.4345
17.6374
16.5424
23.8632
22.6895
30.1272
28.6871
35.1062
33.3286
38.625
36.5505
11.0967
10.1628
11.9029
10.8226
14.595
13.4544
18.8493
17.7173
23.3416
22.1561
27.0117
25.7135
29.6166
28.203
10.075
9.18375
10.4102
9.3755
12.1239
11.039
14.9746
13.9628
18.1127
17.2009
20.7442
19.8895
22.6229
21.7905
9.01949
8.18492
9.0238
8.05514
10.025
9.01366
11.8942
10.9713
14.0024
13.2501
15.8249
15.2229
17.1414
16.6427
7.96622
7.19552
7.78157
6.88294
8.24424
7.3181
9.39008
8.54239
10.7963
10.0962
12.0295
11.487
12.935
12.512
6.93043
6.22756
6.65503
5.82784
6.79486
5.922
7.34395
6.53802
8.14731
7.49658
8.93626
8.42604
9.5439
9.11944
5.90409
5.27238
5.60124
4.85141
5.57567
4.76907
5.7835
4.98805
6.15925
5.43625
6.58362
5.95434
6.94485
6.39286
4.89751
4.33589
4.60289
3.93282
4.50881
3.78125
4.55207
3.80623
4.6914
3.96134
4.87981
4.18455
5.06095
4.40332
3.92346
3.42674
3.65556
3.06333
3.54233
2.89866
3.52051
2.85091
3.55501
2.87717
3.6234
2.94773
3.70023
3.03187
2.97412
2.53649
2.74458
2.22899
2.63577
2.0788
2.59401
2.01413
2.58992
1.99729
2.60808
2.00828
2.63575
2.03206
2.03628
1.6541
1.85273
1.41687
1.76039
1.29692
1.71831
1.23937
1.70326
1.21471
1.70371
1.20855
1.71189
1.21174
1.08865
0.798037
0.95897
0.650244
0.893131
0.576671
0.861372
0.540718
0.847554
0.523838
0.843787
0.51738
0.845357
0.516283
0.293835
0.195282
0.248945
0.152342
0.22703
0.132154
0.216509
0.122407
0.211761
0.117781
0.210188
0.115918
0.210369
0.115521
0.0342187
0.0221092
0.0286819
0.0172083
0.0259633
0.0149817
0.0246374
0.013906
0.024027
0.0133861
0.0238073
0.0131721
0.0238113
0.0131305
0.0209962
0.0118294
0.0169415
0.00987408
0.0146086
0.00931903
0.0132635
0.00904587
0.0125505
0.00884696
0.0121398
0.00869715
0.0119028
0.00862414
7.12655
5.1344
7.25517
5.21824
7.30715
5.24369
7.29125
5.21461
7.19773
5.11569
7.07725
4.95878
70.365
56.0605
71.1382
56.6303
71.3996
56.7611
71.2156
56.4785
70.4762
55.6182
69.4113
54.1506
138.832
114.49
140.2
115.547
140.678
115.821
140.45
115.424
139.365
114.113
137.764
111.825
194.205
161.934
196.189
163.512
196.956
164.004
196.806
163.619
195.574
162.068
193.645
159.225
244.035
204.775
246.681
206.925
247.795
207.695
247.81
207.406
246.582
205.762
244.566
202.608
291.748
246.023
295.118
248.811
296.64
249.92
296.901
249.805
295.818
248.2
294.002
245.008
338.696
286.915
342.864
290.417
344.86
291.929
345.451
292.069
344.659
290.642
343.379
287.734
385.131
327.683
390.149
331.959
392.671
333.931
393.665
334.4
393.309
333.298
392.955
331.054
429.363
366.612
435.293
371.724
438.411
374.226
439.911
375.129
440.191
374.547
441.223
373.421
467.265
399.769
474.113
405.707
477.88
408.778
480.002
410.217
481.165
410.387
484.142
410.906
492.008
420.908
499.657
427.531
504.062
431.142
506.895
433.183
509.203
434.324
514.725
437.015
492.741
420.752
500.931
427.742
505.896
431.76
509.518
434.405
513.27
436.684
521.979
441.944
458.782
390.763
467.079
397.584
472.392
401.714
476.731
404.789
482.002
408.108
494.059
415.781
389.844
328.885
397.361
334.95
402.417
338.819
406.922
342.015
412.977
345.996
426.882
355.274
297.486
246.924
303.746
251.909
308.143
255.233
312.298
258.184
318.22
262.177
331.794
271.507
216.163
175.985
221.29
180.084
225.009
182.875
228.6
185.418
233.821
188.957
245.681
197.173
159.004
128.794
163.331
132.349
166.574
134.798
169.754
137.041
174.43
140.182
184.961
147.443
119.403
98.4675
123.144
101.661
126.031
103.918
128.991
106.004
133.427
108.955
143.385
115.762
90.8941
77.7363
94.3025
80.6182
96.9453
82.7253
99.7699
84.7391
104.177
87.6376
114.092
94.3277
69.8566
62.1677
73.1006
64.7558
75.611
66.679
78.2725
68.6228
82.5278
71.5269
92.1138
78.3401
53.707
49.7013
56.6095
52.1008
58.9257
53.8346
61.4408
55.5895
65.5066
58.3738
74.7297
64.9463
41.4043
39.0577
43.8124
41.1619
45.7891
42.714
47.9977
44.2753
51.6633
46.7055
60.0803
52.5439
31.7114
30.1815
33.5732
31.8849
35.1394
33.1751
36.9233
34.4963
39.9375
36.5723
46.8838
41.5645
24.1486
23.3206
25.5234
24.6575
26.7007
25.6897
28.0597
26.7629
30.3894
28.4758
35.7969
32.6321
18.2162
17.7963
19.1926
18.8145
20.0401
19.6148
21.0279
20.461
22.7423
21.8385
26.7547
25.2218
13.6777
13.3528
14.3584
14.1036
14.9578
14.7072
15.6652
15.3629
16.9095
16.4613
19.832
19.1909
10.0516
9.69623
10.5268
10.2291
10.9587
10.6801
11.4798
11.1897
12.4127
12.0664
14.5975
14.2764
7.26491
6.78184
7.57582
7.15037
7.86758
7.47133
8.22813
7.8439
8.88975
8.50507
10.469
10.2125
5.23285
4.61546
5.40903
4.83048
5.58258
5.03128
5.80541
5.27814
6.23473
5.74106
7.30693
6.98709
3.77794
3.12161
3.86198
3.22057
3.94787
3.32013
4.06115
3.45049
4.2958
3.71878
4.9479
4.52814
2.66489
2.05997
2.69854
2.09496
2.73299
2.13197
2.77724
2.18194
2.87663
2.29857
3.2102
2.73366
1.72044
1.21656
1.73184
1.22574
1.74287
1.23555
1.75467
1.24766
1.78342
1.28134
1.91999
1.46147
0.846863
0.515739
0.850061
0.517437
0.852717
0.519204
0.853835
0.520358
0.857453
0.525401
0.899449
0.577819
0.21055
0.11526
0.21126
0.115588
0.21177
0.115884
0.211691
0.115888
0.211757
0.116238
0.220119
0.125375
0.0238195
0.0131037
0.0238876
0.0131396
0.0239253
0.0131656
0.0238888
0.0131518
0.0238763
0.0131638
0.0248028
0.0140537
0.0116674
0.00853701
0.0114723
0.00846386
0.0113494
0.0084281
0.0112247
0.00841744
0.011104
0.00846793
0.010985
0.00862468
7.4159
5.15996
7.86199
5.47302
8.09774
5.64143
8.19872
5.71634
8.20295
5.72402
8.09969
5.65881
71.3271
55.1773
73.9591
57.2089
75.2555
58.2789
75.7068
58.6992
75.5668
58.6437
74.7508
58.0335
141.101
113.89
145.727
117.661
147.809
119.44
148.439
120.014
148.127
119.793
146.758
118.683
198.231
162.246
204.815
167.726
207.669
170.167
208.537
170.934
208.162
170.64
206.417
169.176
250.489
206.632
259.21
213.971
262.931
217.165
264.114
218.196
263.753
217.897
261.735
216.164
301.525
250.259
312.664
259.691
317.391
263.75
318.976
265.115
318.702
264.87
316.493
262.933
352.896
294.567
366.772
306.359
372.659
311.403
374.737
313.172
374.623
313.034
372.3
310.948
404.985
339.946
421.909
354.358
429.075
360.481
431.709
362.702
431.798
362.705
429.411
360.508
456.27
384.82
476.464
402.013
485.005
409.279
488.256
411.997
488.609
412.191
486.237
409.953
502.583
425.127
525.992
444.971
535.888
453.319
539.771
456.529
540.44
456.952
538.191
454.77
536.707
454.119
562.798
476.017
573.801
485.17
578.229
488.769
579.224
489.422
577.208
487.404
547.246
461.504
574.88
484.297
586.494
493.756
591.282
497.559
592.596
498.435
590.983
496.746
521.654
436.694
549.087
458.747
560.563
467.83
565.408
471.568
566.981
472.62
565.931
471.419
454.282
375.83
479.394
395.576
489.918
403.675
494.482
407.093
496.203
408.233
495.785
407.573
356.423
289.951
377.886
306.558
386.995
313.389
391.051
316.341
392.764
317.461
392.835
317.226
266.812
213.018
285.131
227.112
293.036
232.957
296.599
235.512
298.166
236.532
298.381
236.458
203.703
161.604
220.017
174.388
227.238
179.757
230.534
182.112
232.011
183.058
232.271
183.002
160.965
129.178
176.105
141.596
182.952
146.853
186.193
149.177
187.71
150.123
188.086
150.097
131.336
107.824
146.768
120.52
153.41
125.735
156.651
128.08
158.257
129.061
158.776
129.093
109.728
92.2298
126.453
105.283
133.183
110.318
136.508
112.661
138.254
113.72
138.998
113.895
92.913
78.7155
111.068
92.3421
118.034
97.1582
121.377
99.459
123.18
100.583
124.112
100.909
77.5432
65.6807
95.726
79.2671
102.808
83.9998
106.273
86.3047
108.257
87.539
109.508
88.1054
61.764
53.2952
77.874
66.0947
84.5103
70.7895
87.8405
73.0473
89.8858
74.3097
91.3895
75.0351
47.7178
42.6699
61.1141
54.048
66.9518
58.4154
69.9677
60.5513
71.8838
61.7931
73.3905
62.5955
35.8297
33.5403
46.3611
43.2083
51.2098
47.0716
53.7931
49.0323
55.4795
50.2085
56.8585
51.0096
26.5375
25.9441
34.4883
33.9243
38.3459
37.2437
40.4723
38.9903
41.9017
40.062
43.1097
40.8153
19.5552
19.7189
25.4653
26.2132
28.485
29.0406
30.2182
30.5634
31.4156
31.5121
32.4527
32.2018
14.0713
14.4672
18.4091
19.665
20.8369
22.0944
22.2784
23.4049
23.2804
24.2288
24.1643
24.8605
9.81217
10.1512
12.772
14.0347
14.6279
16.0249
15.7969
17.1445
16.649
17.8831
17.4444
18.4995
6.58097
6.72442
8.4006
9.39356
9.71443
10.9566
10.6274
11.9004
11.3449
12.5687
12.0636
13.1813
4.16699
4.0913
5.1112
5.67285
5.89724
6.79345
6.53064
7.55574
7.08999
8.15045
7.70483
8.75138
2.40248
2.15768
2.80264
2.87666
3.15378
3.50066
3.48307
4.01777
3.82466
4.48885
4.25492
5.02675
1.09272
0.836749
1.23283
1.06363
1.35027
1.27817
1.46647
1.49373
1.60239
1.73737
1.80094
2.07468
0.265568
0.177621
0.297317
0.22007
0.323264
0.260599
0.349419
0.304404
0.381393
0.35995
0.430798
0.449017
0.0298109
0.0192016
0.0333575
0.0233324
0.0362581
0.027362
0.0391778
0.0317737
0.0426297
0.037382
0.0477756
0.046484
0.0107791
0.00845622
0.0105317
0.00814114
0.010526
0.00821741
0.0106207
0.0084233
0.0107695
0.00870811
0.0108786
0.00913084
7.8859
5.51782
7.60636
5.33407
7.20644
5.06884
6.61664
4.67516
5.73995
4.08756
4.47019
3.23771
2.64954
2.01584
73.311
56.9025
71.3421
55.3757
68.5411
53.1908
64.3878
49.9364
57.992
44.9701
47.9146
37.4217
31.859
25.5853
144.389
116.763
141.174
114.212
136.592
110.576
129.745
105.139
119.063
96.6783
102.032
83.3533
73.6542
61.5892
203.359
166.637
199.202
163.282
193.228
158.474
184.207
151.231
169.958
139.839
146.971
121.649
108.279
91.5384
258.122
213.111
253.162
209.05
245.947
203.168
234.937
194.226
217.345
180.022
188.624
157.079
139.998
118.867
312.424
259.439
306.749
254.731
298.363
247.81
285.417
237.179
264.512
220.129
229.996
192.3
171.269
145.752
367.852
307.068
361.531
301.753
352.015
293.804
337.139
281.448
312.87
261.447
272.382
228.491
203.202
173.174
424.649
356.286
417.726
350.39
407.095
341.401
390.269
327.267
362.571
304.197
315.968
265.881
236.083
201.407
481.269
405.49
473.831
399.09
462.15
389.12
443.419
373.245
412.319
347.113
359.621
303.413
269.191
229.805
533.167
450.207
525.373
443.455
512.835
432.691
492.452
415.323
458.322
386.496
400.142
337.994
300.43
256.363
572.327
482.93
564.418
476.059
551.381
464.85
529.901
446.535
493.656
415.905
431.586
364.13
325.655
277.291
586.515
492.623
578.908
486.034
566.05
475.032
544.571
456.822
508.049
426.143
445.247
374.073
338.724
287.19
562.154
467.906
555.374
462.085
543.631
452.145
523.751
435.492
489.715
407.265
431.029
359.263
332.342
279.833
492.977
404.963
487.497
400.316
477.715
392.159
460.915
378.326
431.993
354.801
382.226
314.988
301.026
251.248
390.973
315.499
386.843
312.067
379.279
305.897
366.126
295.33
343.528
277.457
305.375
247.931
247.108
204.041
297.163
235.331
293.92
232.702
287.763
227.801
276.955
219.325
258.719
205.265
229.45
183.336
189.481
154.614
231.394
182.1
228.576
179.736
223.017
175.176
213.205
167.24
196.919
154.363
172.077
135.559
142.791
114.832
187.457
149.294
185.048
147.088
179.986
142.618
170.904
134.702
155.783
121.897
133.168
103.764
108.801
85.8572
158.231
128.282
156.332
126.337
151.955
122.181
143.897
114.678
130.292
102.384
109.621
84.6896
86.6327
66.6235
138.792
113.299
137.276
111.595
133.592
107.923
126.688
101.261
114.888
90.206
96.4256
73.7272
73.7767
55.0187
124.198
100.539
123.091
99.1572
120.107
96.0741
114.346
90.4313
104.331
80.9591
88.2125
66.3454
66.3069
47.8389
110.105
88.1485
109.363
87.066
106.995
84.4903
102.217
79.6976
93.7022
71.5552
79.7921
58.7693
60.2816
42.0461
92.2399
75.2457
91.954
74.4812
90.3072
72.3706
86.5894
68.2659
79.7478
61.1369
68.3917
49.9737
52.8717
35.9999
74.265
62.8835
74.2716
62.3656
73.2317
60.6661
70.5611
57.17
65.3637
51.0312
56.7077
41.5438
45.2443
30.2179
57.6851
51.3237
57.8911
50.9822
57.3627
49.6481
55.6798
46.7782
52.1995
41.6589
46.2372
33.8919
38.2795
24.9956
43.8876
41.1416
44.2491
40.9413
44.1673
39.9419
43.3803
37.7043
41.4511
33.6711
37.8029
27.5715
32.54
20.6894
33.1857
32.5433
33.6652
32.4762
33.9476
31.8055
33.9045
30.1937
33.2487
27.1989
31.401
22.564
28.0351
17.2624
24.8528
25.2202
25.4226
25.2855
25.9956
24.9375
26.547
23.9254
26.8789
21.8685
26.3259
18.4312
24.2004
14.3153
18.1294
18.9158
18.8079
19.1422
19.6568
19.1373
20.7128
18.7053
21.7936
17.4591
22.0943
14.9511
20.7134
11.717
12.7429
13.6589
13.5141
14.0446
14.5905
14.3569
16.0432
14.4233
17.6511
13.8158
18.448
11.997
17.4589
9.41748
8.33879
9.27334
9.15565
9.79419
10.3815
10.3648
12.1024
10.8125
14.0306
10.66
15.0674
9.34669
14.2877
7.28098
4.74792
5.53837
5.49566
6.13748
6.72558
6.87428
8.55977
7.56872
10.5959
7.71385
11.6463
6.78152
10.9905
5.15801
2.05903
2.44095
2.55704
2.9648
3.55199
3.69238
5.22203
4.45514
7.06033
4.74598
7.93589
4.13188
7.36398
2.9558
0.502045
0.561163
0.66839
0.759527
1.10037
1.10476
2.04225
1.55227
3.18096
1.7733
3.67327
1.48615
3.24522
0.932427
0.0557176
0.0585993
0.074726
0.0811148
0.131569
0.124202
0.281791
0.186782
0.482113
0.22055
0.553316
0.180106
0.455821
0.106479
0.0110769
0.00967131
0.0118462
0.0107391
0.0144319
0.0130726
0.0230606
0.0172806
0.0384914
0.0197805
0.048319
0.0166482
0.0431692
0.00884525
1.7475
1.39297
0.964058
0.815078
0.423414
0.377956
0.140796
0.131307
22.6156
18.72
13.521
11.6022
6.10691
5.3544
2.07314
1.83361
56.1702
48.2494
38.1904
33.8753
21.5176
19.4942
10.1628
9.28026
83.9383
72.7698
59.0366
52.799
35.3747
32.3528
18.6559
17.2645
108.942
94.7751
77.7121
69.6883
47.7166
43.7869
26.2416
24.405
133.202
116.069
95.7491
85.9426
59.604
54.763
33.5009
31.2216
157.605
137.443
113.86
102.216
71.5752
65.7876
40.8256
38.0765
182.458
159.165
132.355
118.774
83.9462
77.1427
48.4769
45.2139
207.341
180.854
151.08
135.456
96.7896
88.8768
56.6036
52.7652
230.911
201.188
169.202
151.418
109.728
100.583
65.053
60.5628
250.377
217.582
185.006
165.047
121.898
111.441
73.4516
68.243
261.69
226.469
196.074
174.162
132.296
120.492
81.6319
75.6207
259.718
223.36
198.758
175.478
138.759
125.691
88.5952
81.698
240.857
205.487
190.222
166.62
138.73
124.745
92.6867
84.9415
204.576
172.829
168.311
145.962
129.521
115.296
91.8282
83.3815
161.779
135.27
138.278
118.656
112.343
98.7815
85.0555
76.3064
124.53
102.702
109.648
92.7823
93.2541
80.8109
75.1435
66.3661
95.6074
77.1659
85.8954
71.0844
75.8467
64.3117
64.507
55.7653
75.3356
58.7704
68.1625
54.3255
61.9582
50.6016
54.8569
46.0384
62.4947
46.5489
55.899
42.1319
51.5214
39.825
46.9342
37.6881
54.9225
38.7945
48.0165
33.9097
44.2639
31.8985
40.9763
31.0004
49.3337
33.0896
42.6722
28.1858
39.3071
26.3759
36.5339
26.0561
43.7886
28.1912
38.3296
24.005
35.507
22.6423
33.0042
22.6184
38.4576
23.9527
34.3956
20.78
32.1046
19.9054
29.8168
20.0124
33.5865
20.2929
30.6961
18.0706
28.793
17.5656
26.7154
17.7458
29.3476
17.2102
27.2435
15.7069
25.574
15.4395
23.706
15.6707
25.7667
14.671
24.0953
13.6444
22.5355
13.494
20.8472
13.7392
22.53
12.4209
21.1068
11.7321
19.6046
11.6261
18.09
11.8648
19.4042
10.3248
18.1508
9.88498
16.719
9.7842
15.4121
10.0174
16.3511
8.38362
15.2425
8.11588
13.9187
8.0013
12.8342
8.20857
13.3306
6.52192
12.3576
6.36778
11.172
6.23678
10.2931
6.38573
10.1743
4.61455
9.35432
4.53341
8.35003
4.40728
7.66252
4.47105
6.71299
2.59796
6.08593
2.54822
5.31928
2.46951
4.79249
2.43636
2.85579
0.781553
2.50202
0.757805
2.10202
0.741402
1.78034
0.697369
0.387838
0.0874948
0.327753
0.0839981
0.2692
0.0826298
0.215865
0.0761161
0.037737
0.00655947
0.0299292
0.00463654
0.0288808
0.00723824
0.0102079
0.00627696
0.0133013
0.0165518
0.0901098
0.0907396
0.00458071
0.00354261
0.213381
0.223315
0.275957
0.296116
0.030089
0.0293154
1.65594
1.7608
1.75961
1.82844
0.242618
0.232255
4.60626
4.88254
3.92811
3.9896
0.787778
0.735379
7.50166
7.90137
5.61089
5.62799
1.53895
1.42646
9.97464
10.4246
6.84434
6.80586
2.37738
2.20585
12.0542
12.496
7.76644
7.67499
3.26299
3.0431
13.7291
14.1057
8.45581
8.32925
4.19214
3.94436
14.9055
15.1912
8.95283
8.81541
5.18399
4.93552
15.5166
15.7137
9.28836
9.1796
6.26003
6.05895
15.5632
15.6836
9.54819
9.49114
7.46384
7.33405
15.0724
15.1333
9.83374
9.83649
8.90058
8.82756
14.1962
14.2291
10.2805
10.3956
10.6603
10.624
13.2752
13.3512
11.0845
11.3366
12.67
12.6186
12.7337
13.0829
12.3181
12.6225
14.6925
14.7282
12.9557
13.5649
13.6007
14.0619
16.2048
16.6128
13.5459
14.2909
14.7901
15.4347
17.5594
18.1648
14.2088
15.0001
15.8699
16.6539
18.7701
19.5083
14.7761
15.5961
16.6626
17.5518
19.6866
20.5826
15.196
16.0255
17.1189
18.0846
20.2516
21.2706
15.3908
16.1795
17.2145
18.1806
20.4352
21.4938
15.2674
15.9506
16.8766
17.7616
20.1952
21.2042
14.7793
15.2907
16.2083
16.9721
19.5738
20.4406
14.0477
14.3534
15.3977
16.0372
18.769
19.4408
13.1304
13.247
14.4857
14.9555
17.8462
18.2326
12.0736
12.0394
13.4779
13.7355
16.7721
16.7527
10.9049
10.76
12.3708
12.3968
15.4959
15.0166
9.65622
9.42401
11.1682
10.9281
14.043
13.1031
8.35787
8.06174
9.86331
9.39421
12.427
10.9945
7.0242
6.69214
8.47404
7.87541
10.5794
8.62673
5.63924
5.31493
7.01415
6.4594
8.41785
6.18599
4.16387
3.9091
5.45903
5.17937
5.8976
4.04025
2.5473
2.41532
3.75778
3.74485
3.17652
2.28424
0.872493
0.889405
1.53141
1.56823
1.13888
0.736427
0.111204
0.119046
0.218986
0.230002
0.152147
0.097437
0.0604116
0.0672692
0.050149
0.0501608
0.103404
0.0813657
0.100109
0.0909175
0.136834
0.104772
0.0910946
0.0796235
0.320108
0.416825
0.436716
0.346583
0.311335
0.288405
0.87386
1.76985
1.95809
1.86847
1.71212
1.69656
4.58114
7.34624
6.7935
6.25408
5.78248
5.74119
5.16347
8.48299
9.27276
8.83531
8.25541
8.11633
17.3447
24.2006
23.2916
21.7756
20.6293
20.4999
10.0376
15.1311
16.4667
15.6912
14.7588
14.4547
28.999
38.3151
37.518
35.007
33.3159
32.9681
13.7671
20.3902
22.2065
21.1271
19.8643
19.3881
38.4959
49.9461
49.3101
45.8643
43.5801
42.9546
16.5676
24.6714
26.9423
25.5889
24.0044
23.3582
46.4326
60.0206
59.5564
55.2104
52.2832
51.3281
18.5556
28.1331
30.8731
29.2802
27.3855
26.5789
52.9754
68.8654
68.5747
63.3612
59.7491
58.4181
19.6863
30.7612
33.9793
32.1944
30.0111
29.066
57.9667
76.3759
76.3019
70.2705
65.9474
64.2093
19.8134
32.3567
36.0388
34.1053
31.6643
30.6086
61.0255
82.0548
82.2507
75.4497
70.3941
68.2222
18.7276
32.6622
36.7734
34.7529
32.1124
30.9968
61.6619
85.2123
85.7499
78.2765
72.5102
69.9203
16.2673
31.4062
35.867
33.849
31.1071
30.0126
58.9515
84.9509
85.9111
77.9285
71.5492
68.6317
12.5098
28.3885
33.035
31.1205
28.4184
27.4505
51.8323
80.2063
81.5884
73.3257
66.5229
63.4627
8.37635
23.869
28.4201
26.6912
24.2249
23.4895
40.2879
70.4795
72.0338
63.8004
56.9415
54.0602
5.56501
19.0894
23.1644
21.5806
19.4789
18.9827
27.607
58.1881
58.7703
50.4581
43.7908
41.2593
4.45272
15.2219
18.453
17.1328
15.6658
15.3957
17.0543
44.9382
43.0343
35.0031
29.443
27.7121
4.35001
13.0923
15.6408
14.9432
14.1865
14.031
11.3006
32.1115
28.9884
23.2775
19.9098
19.0171
4.72501
12.648
14.7356
14.4599
14.0888
13.942
9.31744
22.9657
20.6605
17.6043
15.9721
15.4363
5.31677
13.0568
14.7049
14.5659
14.3671
14.2088
8.75544
18.6667
17.029
15.4342
14.6486
14.2751
5.81112
13.546
14.8676
14.7513
14.6322
14.469
8.82556
17.5886
15.9444
14.7205
14.2542
13.9724
6.07404
13.7146
14.9391
14.8229
14.7261
14.5601
9.147
18.0361
15.9202
14.5104
14.0623
13.8119
6.12124
13.3421
14.7925
14.6991
14.5659
14.3979
9.37453
18.9552
16.416
14.4498
13.8119
13.5346
5.90443
12.3337
14.2858
14.3264
14.1252
13.9319
9.32049
18.9182
16.7707
14.2797
13.3561
13.0017
5.67297
10.8002
13.3357
13.6514
13.4404
13.1833
8.88028
16.9122
16.0691
13.6772
12.6263
12.1941
5.6046
9.22456
12.1517
12.7759
12.616
12.2777
8.49201
14.304
14.6182
12.6996
11.7215
11.242
5.63546
7.75689
10.873
11.777
11.7047
11.2697
8.2751
11.7202
12.8205
11.5005
10.7228
10.221
5.69332
6.4957
9.58526
10.7138
10.7429
10.2073
8.22035
9.50398
10.9945
10.2379
9.69641
9.17361
5.67667
5.45684
8.32555
9.61373
9.74134
9.11125
8.22677
7.78357
9.26433
8.99285
8.66836
8.12118
5.48668
4.59118
7.1104
8.48056
8.69674
7.99152
8.12977
6.50348
7.69312
7.78279
7.63218
7.06025
5.0802
3.81189
5.94533
7.32006
7.61439
6.85965
7.75734
5.46488
6.26673
6.60596
6.58581
6.0002
4.49466
3.06785
4.81715
6.12515
6.4854
5.71354
7.08339
4.4775
4.94917
5.44589
5.52053
4.94449
3.73627
2.31656
3.6895
4.86647
5.2776
4.53309
6.13955
3.48721
3.69138
4.2696
4.40582
3.87965
2.77274
1.51962
2.51041
3.4961
3.9368
3.30401
4.88948
2.44322
2.44032
3.0276
3.20131
2.78016
1.58824
0.703375
1.27185
1.9762
2.39815
2.00669
3.21358
1.32499
1.19979
1.68678
1.91546
1.62235
0.462618
0.162722
0.326246
0.587814
0.808194
0.667884
1.21548
0.368594
0.299778
0.486728
0.607479
0.499257
0.0514281
0.017146
0.0348275
0.0656942
0.0962595
0.081187
0.151884
0.0394925
0.0322639
0.0550963
0.0719695
0.0598761
0.0102419
0.0016974
0.00237356
0.00896358
0.0249585
0.0385693
0.0462904
0.00231833
0.00942952
0.0179846
0.0323928
0.0352326
1.22344
1.60338
1.42945
1.21547
1.15615
1.12605
2.77565
4.13243
3.70045
3.36372
3.27675
3.26956
4.11965
6.51823
5.86812
5.36189
5.16992
5.08256
4.71881
7.98673
7.31176
6.76483
6.49349
6.32138
4.89924
8.75747
8.17572
7.6691
7.3562
7.12856
4.85631
9.11591
8.66508
8.23676
7.91224
7.65537
4.74066
9.26601
8.93306
8.5897
8.27265
8.00314
16.8703
22.7124
20.2787
19.1734
18.7355
18.8416
32.2395
46.8926
42.7563
41.2793
40.879
41.2092
43.4836
64.8979
59.7966
57.352
56.3157
55.9555
48.2323
74.9266
69.9622
67.339
65.8725
64.9234
49.6504
80.0266
75.6645
73.3309
71.6989
70.4073
49.5788
82.4493
78.8044
76.9247
75.2986
73.8428
48.9839
83.4788
80.481
79.0758
77.5565
76.0452
44.8493
55.7498
51.7047
49.1458
48.2635
48.2712
73.9567
99.0307
92.8176
89.6978
89.0889
89.416
93.4424
129.507
121.804
117.299
115.591
114.66
101.64
146.268
138.829
134.081
131.656
129.748
104.434
154.901
148.372
144.023
141.332
138.877
104.883
159.182
153.676
149.946
147.271
144.566
104.455
161.16
156.562
153.486
150.985
148.209
67.4509
81.9117
77.0846
73.0877
71.6712
71.4285
107.138
140.306
132.936
128.26
127.451
127.645
133.189
181.004
171.615
165.248
162.912
161.337
144.557
203.527
194.41
187.719
184.421
181.55
148.902
215.379
207.329
201.05
197.386
193.804
150.206
221.493
214.624
209.023
205.369
201.47
150.278
224.495
218.677
213.82
210.389
206.416
86.4514
104.113
98.7569
93.3959
91.343
90.7267
135.71
176.236
168.076
161.975
160.928
160.894
168.022
226.512
215.838
207.678
204.679
202.374
182.716
254.674
244.229
235.593
231.385
227.484
188.899
269.837
260.528
252.248
247.562
242.793
191.309
277.903
269.866
262.27
257.572
252.428
192.062
282.032
275.139
268.339
263.905
258.688
103.205
124.006
118.304
111.595
108.788
107.676
161.795
209.431
200.723
193.276
191.938
191.569
200.596
269.323
257.597
247.639
243.89
240.729
219.023
303.41
291.801
281.13
275.895
270.824
227.42
322.144
311.69
301.255
295.406
289.304
231.188
332.366
323.22
313.436
307.541
301.003
232.778
337.749
329.808
320.852
315.254
308.651
118.05
142.087
136.24
128.17
124.479
122.744
186.126
240.858
231.807
223.056
221.351
220.513
231.993
310.815
298.176
286.357
281.725
277.532
254.755
351.308
338.63
325.764
319.317
312.858
265.81
374.029
362.431
349.619
342.387
334.708
271.209
386.653
376.355
364.13
356.799
348.611
273.795
393.434
384.381
373
365.992
357.742
130.704
158.286
152.505
143.06
138.359
135.891
208.639
270.638
261.44
251.4
249.221
247.764
262.426
351.302
337.919
324.139
318.444
312.994
290.293
398.949
385.212
369.948
362.032
353.886
304.521
426.138
413.318
397.867
388.947
379.34
311.853
441.439
429.866
414.909
405.812
395.591
315.606
449.767
439.458
425.346
416.584
406.287
140.335
171.944
166.3
155.423
149.545
146.222
228.566
297.851
288.659
277.202
274.292
271.96
291.316
390.092
375.893
359.866
352.728
345.625
325.19
445.75
430.672
412.605
402.734
392.377
343.175
477.96
463.528
444.97
433.808
421.66
352.781
496.255
482.97
464.784
453.326
440.405
357.895
506.307
494.282
476.93
465.797
452.756
145.573
181.828
176.357
163.972
156.75
152.488
244.292
320.772
311.519
298.3
294.181
290.601
317.016
425.317
409.816
390.943
381.693
372.328
357.823
489.762
472.566
450.924
438.249
424.853
380.165
527.518
510.535
488.006
473.629
457.955
392.392
549.114
533.094
510.768
495.901
479.19
399.062
561.057
546.25
524.722
510.124
493.179
144.691
186.088
180.845
166.901
158.223
153.048
253.091
336.57
326.816
311.256
305.247
300.049
336.329
453.47
435.603
412.924
400.577
388.258
384.813
527.141
506.306
479.845
463.094
445.647
412.018
570.795
549.476
521.554
502.481
482.029
427.155
595.899
575.211
547.222
527.326
505.404
435.539
609.841
590.235
562.946
543.171
520.785
135.328
182.168
177.026
161.518
151.348
145.437
250.674
340.693
329.356
310.551
301.8
294.8
343.783
468.525
446.22
418.276
401.621
385.851
400.059
551.049
523.679
490.447
467.957
445.532
432.345
600.543
571.467
535.858
510.065
483.562
450.535
629.15
600.073
563.916
536.759
508.133
460.702
645.078
616.786
581.1
553.79
524.327
115.258
167.814
162.437
145.597
134.21
128.088
231.051
327.562
313.044
290.22
278.179
269.755
330.699
462.043
432.401
397.729
376.081
357.534
393.288
551.143
512.603
470.241
441.326
414.897
430.036
605.375
562.449
516.05
482.805
451.383
451.048
636.996
592.654
544.6
509.219
474.99
462.916
654.673
610.515
562.443
526.401
490.813
89.1668
146.742
138.825
119.613
106.555
100.369
196.268
301.524
277.47
246.255
228.75
219.24
295.729
435.597
390.613
344.9
317.141
297.638
359.433
525.224
467.559
412.661
377.217
349.627
396.848
579.895
515.375
455.432
415.305
382.479
418.156
612.053
544.23
481.885
439.294
403.438
430.576
630.52
561.553
498.354
454.713
417.277
61.1296
121.268
106.736
84.9645
71.3709
66.4426
151.763
264.422
220.91
179.491
158.272
151.19
241.831
392.105
318.606
259.427
229.168
215.015
302.507
479.318
387.03
316.68
279.733
259.164
338.57
532.588
429.944
353.485
312.419
287.426
359.118
563.704
455.688
376.219
332.97
305.32
370.794
581.655
470.852
390.094
345.9
316.834
37.1001
93.4679
71.9855
51.8352
41.5953
39.2303
104.686
219.52
153.689
109.865
93.0381
92.3158
180.894
339.064
229.294
165.271
143.859
141.138
237.395
424.708
285.452
208.062
183.59
177.655
272.688
478.159
321.96
236.855
210.487
201.783
293.35
509.429
344.282
255.137
227.756
217.152
305.072
526.935
357.46
266.489
238.693
226.922
24.8833
70.1349
45.6225
31.0119
25.0653