/*--------------------------------*- C++ -*----------------------------------*\
| =========                 |                                                 |
| \\      /  F ield         | OpenFOAM: The Open Source CFD Toolbox           |
|  \\    /   O peration     | Version:  2206                                  |
|   \\  /    A nd           | Website:  www.openfoam.com                      |
|    \\/     M anipulation  |                                                 |
\*---------------------------------------------------------------------------*/
FoamFile
{
    version     2.0;
    format      ascii;
    arch        "LSB;label=32;scalar=64";
    class       volScalarField;
    location    "400";
    object      nut;
}
// * * * * * * * * * * * * * * * * * * * * * * * * * * * * * * * * * * * * * //

dimensions      [0 2 -1 0 0 0 0];

internalField   nonuniform List<scalar> 
50904
(
1.48139e-08
1.48688e-08
5.34415e-08
4.49562e-08
2.30427e-06
2.34229e-06
7.36836e-06
6.54593e-06
3.90024e-05
3.91224e-05
8.48072e-05
7.89175e-05
0.000150875
0.000150521
0.000271344
0.000257529
0.00033781
0.000335731
0.000562121
0.000537246
0.000596856
0.000591293
0.000956955
0.000917364
0.000928302
0.000917119
0.0014568
0.00139873
0.00132536
0.00130665
0.00204987
0.00196986
0.00176035
0.00173486
0.00269216
0.00259044
0.00217965
0.00215086
0.00329951
0.00318035
0.00251574
0.00249447
0.00375482
0.0036364
0.00268779
0.00269173
0.00389781
0.00381463
0.00263627
0.00268124
0.00355287
0.00354557
0.00242042
0.00250861
0.00281357
0.00289773
0.0022752
0.00237625
0.00223051
0.00233274
0.00232611
0.00241227
0.00199777
0.00208271
0.00249291
0.00254777
0.00212104
0.00220097
0.0026812
0.00269518
0.00243563
0.00246311
0.00283594
0.00281848
0.00265298
0.00263481
0.00292996
0.00288998
0.00276825
0.00270744
0.00291669
0.00286397
0.00274782
0.00265205
0.00274578
0.00269285
0.00256721
0.0024555
0.00240616
0.00236894
0.00223596
0.0021279
0.00200501
0.00198521
0.00185301
0.00175926
0.0016021
0.00159622
0.00147446
0.00139815
0.001234
0.00123705
0.00113203
0.00107232
0.000916098
0.000923378
0.000837653
0.000792323
0.000648424
0.000656306
0.000589292
0.000556214
0.000432776
0.000439139
0.000388491
0.00036557
0.000266432
0.000270782
0.000234436
0.000219668
0.00014387
0.000146602
0.000122915
0.000114463
6.17909e-05
6.31837e-05
5.08966e-05
4.66449e-05
1.78316e-05
1.78405e-05
1.40625e-05
1.21793e-05
2.2351e-06
2.11598e-06
1.66869e-06
1.32008e-06
7.89834e-08
7.13023e-08
5.78284e-08
4.33789e-08
7.26629e-09
5.17437e-09
5.34233e-09
3.268e-09
2.06625e-07
1.60564e-07
5.90339e-07
4.39525e-07
9.08645e-07
6.78215e-07
1.12329e-06
8.40355e-07
1.26235e-06
9.4555e-07
1.35311e-06
1.01427e-06
1.41306e-06
1.05914e-06
2.30491e-05
1.95873e-05
4.67307e-05
3.90617e-05
6.07855e-05
5.11781e-05
6.8835e-05
5.81932e-05
7.35954e-05
6.23524e-05
7.6506e-05
6.48958e-05
7.83214e-05
6.64688e-05
0.000167193
0.000151094
0.000264983
0.000235035
0.00031415
0.000279215
0.000340609
0.00030315
0.0003555
0.000316628
0.000364155
0.000324439
0.000369236
0.000328966
0.000452147
0.000416414
0.000664299
0.000598769
0.000762395
0.000687216
0.000813513
0.000733428
0.000841261
0.000758445
0.000856777
0.000772322
0.000865452
0.00077992
0.000871899
0.000808468
0.00124187
0.00112397
0.00140248
0.0012675
0.00148415
0.00134022
0.00152738
0.00137841
0.00155101
0.00139898
0.00156385
0.00140981
0.00143037
0.00132964
0.00200397
0.00181268
0.00224012
0.00201994
0.00235815
0.00212226
0.00241985
0.00217492
0.00245333
0.00220287
0.00247134
0.00221727
0.00212939
0.00198101
0.00294858
0.00265949
0.00327017
0.00293425
0.00342931
0.003067
0.00351226
0.00313449
0.0035574
0.00317005
0.00358181
0.00318816
0.0029534
0.0027476
0.00404874
0.00363689
0.00446032
0.00397646
0.00466297
0.00413752
0.00476881
0.00421872
0.00482677
0.00426128
0.00485844
0.00428277
0.00384386
0.00357722
0.00522631
0.00467554
0.00572551
0.00507053
0.00597081
0.00525481
0.00609943
0.00534712
0.00617046
0.00539536
0.00620988
0.00541963
0.00468463
0.00436739
0.00633454
0.00565594
0.00691088
0.00609271
0.00719387
0.00629317
0.00734274
0.00639303
0.0074258
0.00644529
0.00747301
0.00647185
0.00530139
0.00497646
0.00715665
0.00642925
0.00779217
0.00689454
0.00810763
0.00710443
0.00827402
0.0072084
0.00836785
0.00726324
0.00842304
0.00729203
0.00543856
0.00519789
0.00736812
0.0068086
0.00802251
0.00729799
0.00839015
0.00751669
0.00859579
0.0076246
0.00871262
0.00768246
0.00878214
0.00771478
0.00480864
0.00474832
0.00665132
0.00659708
0.00736385
0.00713161
0.00781304
0.00737268
0.00808501
0.00749224
0.00825308
0.00755805
0.00835845
0.00759782
0.00382707
0.00398784
0.00557234
0.00583001
0.00633749
0.00640777
0.00680632
0.00667492
0.00709153
0.00680848
0.00727139
0.00688232
0.00738923
0.00692862
0.00286963
0.00304861
0.00427669
0.00454944
0.00500072
0.00513516
0.00546078
0.00544084
0.00574755
0.005606
0.00593191
0.00570031
0.00605632
0.00575844
0.00214732
0.0022691
0.00313851
0.00322944
0.00378632
0.00378531
0.00422837
0.00413488
0.00451151
0.0043447
0.00469435
0.00447233
0.00481723
0.00455171
0.00177783
0.00186451
0.00232242
0.00232142
0.0028617
0.00278479
0.00327502
0.00314174
0.00354996
0.00337745
0.00372788
0.0035276
0.00384545
0.00362372
0.00175064
0.00181411
0.00181494
0.00180841
0.00218704
0.00213489
0.00254252
0.00246226
0.00279629
0.00269824
0.00296306
0.00285353
0.00307169
0.00295404
0.00195413
0.00200088
0.00159103
0.00158497
0.00174229
0.00173204
0.00200215
0.00199246
0.00221535
0.00220453
0.00236234
0.00234998
0.0024587
0.00244503
0.00223387
0.00221327
0.00156842
0.00153084
0.00149645
0.00148977
0.00163839
0.00165559
0.00179588
0.00182461
0.00191624
0.00194996
0.00199883
0.002035
0.00234562
0.00223986
0.00163596
0.00154528
0.00140306
0.00135042
0.00143582
0.00141455
0.00153565
0.00153005
0.00162672
0.00162791
0.00169375
0.00169818
0.00226595
0.0021257
0.00169599
0.00156325
0.0013907
0.00128397
0.00134121
0.00126495
0.00139011
0.0013307
0.00145266
0.00140091
0.00150316
0.00145505
0.00203615
0.00188288
0.00170565
0.00152946
0.00139173
0.00124017
0.001301
0.00117385
0.00131355
0.00120304
0.00135227
0.00125043
0.00138714
0.00128982
0.00170665
0.00156773
0.00154793
0.00138168
0.00133716
0.00116391
0.00124743
0.00108759
0.00124108
0.0010959
0.00126327
0.00112803
0.00128638
0.00115734
0.00135766
0.00123975
0.0012928
0.00114573
0.00122259
0.00105258
0.00114988
0.000979773
0.00114112
0.000980343
0.00115465
0.00100314
0.00117024
0.00102573
0.00103676
0.000941433
0.000995529
0.000877766
0.00099283
0.00085412
0.000994402
0.000838417
0.000994511
0.000843601
0.00101026
0.000865132
0.00102508
0.000885524
0.0007621
0.000687902
0.000727657
0.000637064
0.000728061
0.000627684
0.00075748
0.000651345
0.000799746
0.00068458
0.000835878
0.000712886
0.000860067
0.000736328
0.000532154
0.000477245
0.000503846
0.000437437
0.000497284
0.000424955
0.000508658
0.00043452
0.000531425
0.000458292
0.00055587
0.000484867
0.000575203
0.00050581
0.000347115
0.000309003
0.000325742
0.000280193
0.000317342
0.000268163
0.000318098
0.000267506
0.000324866
0.000274438
0.000334213
0.000284838
0.000342878
0.000294833
0.000206332
0.000181898
0.000191674
0.000162848
0.000184766
0.0001539
0.000182647
0.00015086
0.000183411
0.000151307
0.000185754
0.000153685
0.000188453
0.000156683
0.000106042
9.21305e-05
9.73677e-05
8.12038e-05
9.30011e-05
7.58147e-05
9.11011e-05
7.34445e-05
9.05766e-05
7.26881e-05
9.08356e-05
7.28212e-05
9.14204e-05
7.33739e-05
4.28492e-05
3.60373e-05
3.88384e-05
3.11037e-05
3.67827e-05
2.8598e-05
3.57987e-05
2.73958e-05
3.53905e-05
2.68691e-05
3.5311e-05
2.67144e-05
3.53944e-05
2.67502e-05
1.14144e-05
8.78876e-06
1.01154e-05
7.28231e-06
9.44526e-06
6.51803e-06
9.11733e-06
6.13705e-06
8.96879e-06
5.95505e-06
8.92161e-06
5.88444e-06
8.92979e-06
5.87314e-06
1.28391e-06
8.83503e-07
1.10211e-06
7.02265e-07
1.01095e-06
6.14417e-07
9.67037e-07
5.7078e-07
9.46951e-07
5.49585e-07
9.40036e-07
5.41052e-07
9.40822e-07
5.39529e-07
4.3581e-08
2.85086e-08
3.68818e-08
2.25053e-08
3.35248e-08
1.972e-08
3.18869e-08
1.83532e-08
3.11314e-08
1.76847e-08
3.08571e-08
1.74111e-08
3.08767e-08
1.73727e-08
4.04299e-09
2.29637e-09
3.28954e-09
1.94221e-09
2.84734e-09
1.84421e-09
2.59035e-09
1.79585e-09
2.45393e-09
1.7595e-09
2.37546e-09
1.73165e-09
2.33052e-09
1.71853e-09
1.45587e-06
1.08963e-06
1.48201e-06
1.10732e-06
1.49266e-06
1.11273e-06
1.48969e-06
1.10674e-06
1.47126e-06
1.08619e-06
1.44785e-06
1.05374e-06
7.95198e-05
6.74592e-05
8.01501e-05
6.79465e-05
8.02985e-05
6.79874e-05
8.00325e-05
6.76104e-05
7.92714e-05
6.66644e-05
7.82645e-05
6.51369e-05
0.000372321
0.000331525
0.000373713
0.000332554
0.000373594
0.000332143
0.000372157
0.000330361
0.000369125
0.000326673
0.000365552
0.000321261
0.000870332
0.000783743
0.000872137
0.000784843
0.000871128
0.000783284
0.000867376
0.000778887
0.000859842
0.000770089
0.000850314
0.000756768
0.00157071
0.00141472
0.00157285
0.00141558
0.00157054
0.00141231
0.00156352
0.0014042
0.00154921
0.0013878
0.00152845
0.00136052
0.00248087
0.00222327
0.00248372
0.00222383
0.00248007
0.0022185
0.00246925
0.00220579
0.00244649
0.00217959
0.00240904
0.00213171
0.0035951
0.00319533
0.00359949
0.00319568
0.00359497
0.00318814
0.00358051
0.0031703
0.00354892
0.00313281
0.00349156
0.00305895
0.00487645
0.00429081
0.00488341
0.00429102
0.00487893
0.00428135
0.00486191
0.00425839
0.00482305
0.00420936
0.00474753
0.00410759
0.00623344
0.00542825
0.00624429
0.00542861
0.00624142
0.00541739
0.00622423
0.00539031
0.00618249
0.00533166
0.00609752
0.00520535
0.00750323
0.00648143
0.0075196
0.00648274
0.00752082
0.00647141
0.00750768
0.00644282
0.00747138
0.00637976
0.00739509
0.00624036
0.00846089
0.00730334
0.0084851
0.00730715
0.00849413
0.00729822
0.00849156
0.00727256
0.00847388
0.00721415
0.00843593
0.00708253
0.00883276
0.00773008
0.00887044
0.00773917
0.00889402
0.00773644
0.00891257
0.00772015
0.0089337
0.00767927
0.00897853
0.00758526
0.00843369
0.00762091
0.00849282
0.00763903
0.00853806
0.00764675
0.00858704
0.0076465
0.00866373
0.00763627
0.00882888
0.00761101
0.00747902
0.00696095
0.00754934
0.00698788
0.0076072
0.00700652
0.00767545
0.00702375
0.00778949
0.00704791
0.00804057
0.00710271
0.00615272
0.00580071
0.00622832
0.00583699
0.00629189
0.00586598
0.00636871
0.00589878
0.00649933
0.00595306
0.00678686
0.00607782
0.00491217
0.00460743
0.00498923
0.0046541
0.00505358
0.00469131
0.00513036
0.00473346
0.00525996
0.00480304
0.0055414
0.00495939
0.00393523
0.00369295
0.00401088
0.00374916
0.00407409
0.00379266
0.00414862
0.00384064
0.0042731
0.00391824
0.00453877
0.0040892
0.00315396
0.00302933
0.00322447
0.00309172
0.00328426
0.00313908
0.00335516
0.00319027
0.00347234
0.00327189
0.00371656
0.00344943
0.00253398
0.00251918
0.00259785
0.00258216
0.00265184
0.00263044
0.00271547
0.00268222
0.00282042
0.00276397
0.00303343
0.00293965
0.00206417
0.00210223
0.00212014
0.00215987
0.00216684
0.00220484
0.00222072
0.0022529
0.00230958
0.00232795
0.00249389
0.00248543
0.00174834
0.00175522
0.00179607
0.00180472
0.00183591
0.00184322
0.00188149
0.00188474
0.00195669
0.00194946
0.00211755
0.00208531
0.00154487
0.00149908
0.00158307
0.00153864
0.00161525
0.00156936
0.00165218
0.00160213
0.00171403
0.00165419
0.00185131
0.00177111
0.00141708
0.00132295
0.00144599
0.00135407
0.00147064
0.00137832
0.00149899
0.00140382
0.00154764
0.00144438
0.00166161
0.00153857
0.00130677
0.00118273
0.00132734
0.00120769
0.00134483
0.00122725
0.00136471
0.0012476
0.00139983
0.00128013
0.00148926
0.00135882
0.00118408
0.00104583
0.00119846
0.00106643
0.00121045
0.00108277
0.00122364
0.00109974
0.00124755
0.00112712
0.00131479
0.00119566
0.00103772
0.00090375
0.00105056
0.000922684
0.0010612
0.000938089
0.00107258
0.000954323
0.00109242
0.00098035
0.00114754
0.00104466
0.000878644
0.000756826
0.000895488
0.000777015
0.000909056
0.000793263
0.000923312
0.000810383
0.000945673
0.000838129
0.000995746
0.000902794
0.000591491
0.000523442
0.000607143
0.000540357
0.000621752
0.000555037
0.000640044
0.000572479
0.000673587
0.00060428
0.000749578
0.000684721
0.000350955
0.000304444
0.000359377
0.000314476
0.000367972
0.000324144
0.000379687
0.000336741
0.000403271
0.000361578
0.000461519
0.000428334
0.000191177
0.000159995
0.000194247
0.000163844
0.000197586
0.000167958
0.000202449
0.000173857
0.000213453
0.000186953
0.000244859
0.000227259
9.20283e-05
7.40907e-05
9.28069e-05
7.50766e-05
9.3683e-05
7.62236e-05
9.50071e-05
7.79997e-05
9.85058e-05
8.25851e-05
0.000110834
9.98952e-05
3.5469e-05
2.68241e-05
3.56101e-05
2.69954e-05
3.57686e-05
2.72059e-05
3.59959e-05
2.75293e-05
3.67375e-05
2.85089e-05
4.01468e-05
3.32784e-05
8.93272e-06
5.8672e-06
8.95619e-06
5.88712e-06
8.98123e-06
5.91195e-06
9.00762e-06
5.94082e-06
9.10822e-06
6.04057e-06
9.69515e-06
6.72741e-06
9.41216e-07
5.38505e-07
9.44297e-07
5.4022e-07
9.47331e-07
5.42094e-07
9.4933e-07
5.43149e-07
9.54767e-07
5.46322e-07
9.97545e-07
5.88914e-07
3.08956e-08
1.73486e-08
3.09777e-08
1.73959e-08
3.10236e-08
1.74337e-08
3.0977e-08
1.74207e-08
3.09494e-08
1.74273e-08
3.208e-08
1.85561e-08
2.28544e-09
1.70231e-09
2.2447e-09
1.6864e-09
2.21851e-09
1.67822e-09
2.19178e-09
1.67508e-09
2.16459e-09
1.68367e-09
2.13597e-09
1.71289e-09
1.51852e-06
1.09707e-06
1.61068e-06
1.16398e-06
1.65908e-06
1.20015e-06
1.67991e-06
1.21633e-06
1.68113e-06
1.21829e-06
1.66068e-06
1.20496e-06
8.01873e-05
6.60341e-05
8.27852e-05
6.81512e-05
8.399e-05
6.92716e-05
8.43393e-05
6.96998e-05
8.41174e-05
6.96274e-05
8.3272e-05
6.89848e-05
0.000372138
0.000324886
0.000380919
0.000332519
0.000384063
0.000335603
0.000384368
0.00033612
0.000382934
0.00033502
0.000379479
0.000332069
0.000862529
0.000763981
0.000879401
0.000778745
0.000884344
0.000783287
0.000884092
0.000783206
0.000880617
0.000780161
0.00087302
0.000773312
0.00154453
0.00136854
0.00156972
0.00139028
0.00157629
0.00139612
0.00157522
0.00139519
0.00156919
0.0013897
0.00155644
0.00137798
0.0024242
0.00213429
0.0024567
0.00216144
0.00246484
0.00216849
0.00246292
0.0021667
0.0024541
0.00215859
0.00243562
0.00214152
0.00349974
0.00304799
0.00353785
0.00307826
0.00354765
0.0030865
0.00354501
0.00308395
0.00353343
0.00307323
0.00350911
0.00305074
0.00474545
0.00407699
0.00478788
0.00410836
0.00479941
0.00411772
0.00479627
0.00411456
0.00478219
0.00410142
0.00475243
0.00407381
0.00608895
0.00515441
0.0061363
0.0051863
0.0061502
0.00519705
0.00614727
0.00519373
0.00613161
0.00517878
0.00609793
0.00514716
0.00739375
0.00617677
0.00744958
0.00621069
0.00746729
0.00622351
0.00746595
0.00622084
0.00745065
0.00620536
0.00741625
0.00617194
0.00846819
0.00702413
0.00853929
0.00706359
0.00856287
0.00707924
0.00856508
0.0070782
0.00855291
0.00706386
0.0085225
0.00703165
0.00908488
0.00755895
0.00918321
0.00761027
0.00921641
0.00763029
0.00922512
0.00763243
0.00921995
0.00762164
0.00919977
0.00759485
0.00904809
0.00764762
0.00918829
0.00771979
0.00923625
0.00774678
0.00925494
0.00775417
0.00926064
0.00774973
0.00925648
0.00773289
0.00834855
0.0072161
0.00852584
0.00731483
0.00858842
0.00735097
0.00861718
0.0073651
0.0086338
0.00736866
0.00864566
0.00736428
0.0071353
0.00626255
0.00733294
0.00638869
0.00740521
0.00643487
0.00744056
0.00645603
0.0074641
0.00646752
0.00748585
0.00647524
0.00588861
0.00518045
0.00609287
0.00532793
0.0061698
0.00538264
0.00620761
0.00540849
0.00623278
0.0054238
0.00625596
0.00543611
0.00487097
0.00433082
0.00507689
0.00449421
0.00515644
0.00455494
0.00519461
0.00458295
0.00521901
0.00459859
0.00523999
0.00460957
0.00402069
0.00370352
0.00423045
0.00388005
0.00431694
0.00394501
0.00435743
0.00397403
0.00438233
0.00398892
0.00440259
0.00399705
0.00331071
0.00319587
0.00353691
0.00339024
0.00362929
0.00345922
0.00367372
0.0034887
0.00370014
0.00350298
0.00372072
0.00350926
0.00277599
0.00272603
0.00301691
0.00294266
0.00311049
0.00301928
0.00315656
0.00305291
0.00318435
0.00306995
0.00320633
0.00307948
0.00239536
0.00233259
0.00265213
0.002569
0.00274609
0.00264907
0.00279317
0.00268609
0.00282241
0.00270598
0.00284646
0.00271927
0.00211872
0.00200979
0.00238618
0.00224951
0.00248468
0.00233055
0.00253512
0.00236993
0.00256737
0.00239289
0.00259475
0.00241056
0.00191169
0.00175446
0.00218663
0.00199173
0.0022945
0.00207535
0.00235117
0.00211704
0.00238819
0.00214238
0.00242002
0.00216275
0.00171148
0.00155933
0.00197834
0.00179651
0.00208971
0.00188373
0.00214959
0.00192785
0.00218939
0.00195494
0.00222364
0.00197647
0.001503
0.00138371
0.00174642
0.00161638
0.00185406
0.00170525
0.00191335
0.00175074
0.00195335
0.00177842
0.00198784
0.00179965
0.00130696
0.00122216
0.0015212
0.00144466
0.00162119
0.00153231
0.00167761
0.00157733
0.00171604
0.00160394
0.00174899
0.0016234
0.00113236
0.00106986
0.00131564
0.00127458
0.00140512
0.00135625
0.00145638
0.0013973
0.00149058
0.0014201
0.001519
0.00143536
0.000908196
0.000868412
0.00108278
0.00106001
0.001163
0.00113119
0.00120556
0.00116482
0.00123232
0.00118293
0.00125406
0.00119377
0.000588238
0.000582766
0.000723563
0.000742645
0.000795861
0.000808624
0.000836344
0.000840922
0.000863634
0.000859911
0.000887649
0.000873483
0.000320476
0.000328494
0.00039885
0.000436297
0.000450346
0.000490367
0.000483512
0.000519649
0.000508389
0.000538882
0.000532608
0.000555222
0.000145174
0.000149957
0.000177514
0.000203571
0.000203253
0.000238446
0.000223255
0.000260569
0.000240578
0.00027703
0.000259443
0.000292971
5.13579e-05
4.99482e-05
6.03924e-05
6.65112e-05
6.8155e-05
8.04537e-05
7.53409e-05
9.16939e-05
8.27823e-05
0.000101726
9.2187e-05
0.000112955
1.19656e-05
9.76577e-06
1.3573e-05
1.24241e-05
1.49107e-05
1.49439e-05
1.62299e-05
1.74751e-05
1.77794e-05
2.03384e-05
2.00683e-05
2.4309e-05
1.20364e-06
8.25471e-07
1.34396e-06
1.0182e-06
1.45822e-06
1.20415e-06
1.57509e-06
1.40626e-06
1.72007e-06
1.66366e-06
1.94702e-06
2.07794e-06
3.8402e-08
2.51962e-08
4.27944e-08
3.05243e-08
4.63915e-08
3.57645e-08
5.00598e-08
4.15212e-08
5.44602e-08
4.88522e-08
6.10611e-08
6.07591e-08
2.08793e-09
1.67583e-09
2.03296e-09
1.61005e-09
2.02956e-09
1.62415e-09
2.04684e-09
1.6645e-09
2.07522e-09
1.72084e-09
2.09639e-09
1.80473e-09
1.61522e-06
1.17346e-06
1.55899e-06
1.13498e-06
1.47798e-06
1.07907e-06
1.35772e-06
9.95548e-07
1.17794e-06
8.70221e-07
9.16252e-07
6.8806e-07
5.3963e-07
4.2484e-07
8.17537e-05
6.76591e-05
7.97717e-05
6.59497e-05
7.70169e-05
6.3555e-05
7.29562e-05
6.0006e-05
6.66185e-05
5.45933e-05
5.61389e-05
4.62855e-05
3.87639e-05
3.27245e-05
0.000373929
0.000327169
0.000366984
0.000321084
0.000357611
0.000312836
0.000344116
0.00030092
0.000323318
0.000282634
0.00028894
0.000253352
0.000227092
0.00020268
0.000861206
0.000762696
0.000846837
0.000750079
0.000827607
0.000733229
0.000800052
0.000709111
0.000757956
0.000672486
0.000689453
0.000614285
0.000565534
0.000512404
0.00153687
0.0013603
0.0015132
0.00133959
0.0014813
0.00131188
0.00143519
0.00127199
0.00136434
0.00121123
0.00124987
0.00111518
0.00104449
0.000948416
0.00240759
0.0021163
0.00237359
0.00208693
0.00232711
0.00204709
0.00225885
0.00198899
0.00215243
0.00189945
0.00197951
0.00175731
0.00167181
0.00151302
0.00347247
0.00301815
0.00342801
0.00298051
0.00336616
0.00292849
0.00327374
0.00285144
0.00312702
0.002731
0.002885
0.00253775
0.00245515
0.00220759
0.00470822
0.00403491
0.00465427
0.00399017
0.00457775
0.00392706
0.0044615
0.0038322
0.00427372
0.00368217
0.00395808
0.00343899
0.00339384
0.0030244
0.00604885
0.00510422
0.00598803
0.00505467
0.00589986
0.00498311
0.00576361
0.00487402
0.00553989
0.00470007
0.00515663
0.00441666
0.0044629
0.00393518
0.00736673
0.00612804
0.00730397
0.00607711
0.00721053
0.0060015
0.00706333
0.00588459
0.00681753
0.00569716
0.00638818
0.00539215
0.00559798
0.00487946
0.00847885
0.00699065
0.00842096
0.00694225
0.00833187
0.00686816
0.00818826
0.00675199
0.00794369
0.00656534
0.007507
0.00626412
0.00668604
0.00576869
0.00916901
0.00756105
0.00912479
0.00752039
0.00905308
0.0074556
0.00893335
0.00735229
0.00872318
0.00718625
0.00833509
0.00692257
0.00757923
0.00650389
0.00924431
0.00771029
0.0092219
0.00768269
0.00918057
0.00763574
0.00910583
0.00755906
0.00896585
0.00743629
0.00868894
0.00724802
0.00810745
0.00696827
0.00865196
0.00735617
0.00865222
0.00734524
0.00864454
0.00732289
0.00862275
0.00728474
0.00857023
0.0072257
0.0084419
0.00714687
0.00811708
0.00705483
0.00750341
0.00648222
0.00751754
0.00648845
0.00753298
0.00649343
0.00755061
0.0064999
0.00756801
0.00651604
0.00757062
0.00656606
0.00751332
0.00668125
0.00627663
0.00545013
0.00629309
0.0054633
0.00631316
0.00548022
0.00633962
0.00550844
0.0063779
0.00556745
0.006438
0.00570508
0.00651947
0.00596188
0.00525898
0.00462171
0.0052704
0.00462943
0.00528116
0.00463739
0.00528913
0.00465177
0.00530183
0.00469336
0.00535155
0.00482409
0.00547765
0.00512171
0.00442062
0.00400447
0.00442967
0.00400396
0.00443265
0.00399638
0.00442092
0.00398276
0.00439969
0.00397615
0.00440667
0.00403392
0.00451407
0.00426846
0.00373539
0.00351124
0.00374702
0.00350811
0.0037491
0.00349249
0.00373026
0.00346085
0.00368848
0.0034152
0.00364723
0.00338932
0.00368475
0.00349
0.00322306
0.00308483
0.00323383
0.00308294
0.00323484
0.00306814
0.00321567
0.00303422
0.00316851
0.00297399
0.00310015
0.00289587
0.00306546
0.00285944
0.00286509
0.00272818
0.00287637
0.00272934
0.00287801
0.00271826
0.00286153
0.00268664
0.00281719
0.00262217
0.00274275
0.00252167
0.00266969
0.00240136
0.00261735
0.00242533
0.0026283
0.00242763
0.0026297
0.0024181
0.00261449
0.00238672
0.00257455
0.00232114
0.00250676
0.00221669
0.00244835
0.0020856
0.00244493
0.00217812
0.00245924
0.00218243
0.00246715
0.00217444
0.00246261
0.00214324
0.00243568
0.0020787
0.00239264
0.00197908
0.0023728
0.0018718
0.00224943
0.00199146
0.00226558
0.0019962
0.00227669
0.00198972
0.00228088
0.00196331
0.00227486
0.00190772
0.0022578
0.00182861
0.00225621
0.0017595
0.00201336
0.00181348
0.00203107
0.0018176
0.00204594
0.00181046
0.00205753
0.00178622
0.00206474
0.00173803
0.00206708
0.00166489
0.00208038
0.00159275
0.00177357
0.00163504
0.00179223
0.00163725
0.00180993
0.00162717
0.0018266
0.00159845
0.0018406
0.00154438
0.00184778
0.00146325
0.00185092
0.00137352
0.00154046
0.00144283
0.00155732
0.00144092
0.00157357
0.001425
0.00158859
0.00138826
0.00159941
0.00132473
0.00159762
0.00123321
0.00157739
0.00113049
0.00127046
0.00119718
0.0012834
0.00119189
0.0012958
0.00117251
0.00130762
0.00113314
0.00131553
0.00106932
0.00130563
0.000978125
0.001268
0.000875339
0.000907469
0.000880121
0.000926526
0.000879963
0.00094911
0.000869426
0.000974166
0.00084275
0.000992903
0.000793654
0.000983274
0.00071503
0.000936615
0.000621641
0.000554745
0.000566112
0.000579426
0.000572913
0.000612109
0.000574318
0.000650591
0.000564781
0.00068062
0.000535749
0.00067622
0.000477433
0.000631817
0.000402683
0.000278387
0.000305554
0.000302416
0.000316883
0.00033666
0.000327124
0.000378508
0.000331469
0.000412958
0.000319997
0.000416155
0.000283103
0.000383357
0.000230664
0.000102807
0.000123074
0.000118767
0.000134347
0.000144041
0.000147309
0.000178516
0.000158287
0.00020919
0.000157614
0.000215887
0.000138094
0.000196519
0.000106603
2.30358e-05
2.85604e-05
2.881e-05
3.46017e-05
4.0377e-05
4.30308e-05
5.93697e-05
5.1807e-05
7.79383e-05
5.4361e-05
8.34482e-05
4.66106e-05
7.45037e-05
3.2772e-05
2.27369e-06
2.5976e-06
3.04212e-06
3.52152e-06
5.05666e-06
5.17425e-06
9.47476e-06
7.35551e-06
1.46167e-05
8.33161e-06
1.63413e-05
6.80221e-06
1.38077e-05
4.09272e-06
7.1109e-08
7.64404e-08
9.5142e-08
1.05597e-07
1.67852e-07
1.6186e-07
3.59592e-07
2.43226e-07
6.08925e-07
2.83972e-07
6.80957e-07
2.25759e-07
5.35589e-07
1.27466e-07
2.12848e-09
1.90623e-09
2.27084e-09
2.11129e-09
2.75653e-09
2.56019e-09
4.37726e-09
3.36191e-09
7.22194e-09
3.80102e-09
8.86245e-09
3.12276e-09
7.5824e-09
1.58482e-09
3.52972e-07
2.8998e-07
1.9196e-07
1.664e-07
8.23618e-08
7.48013e-08
2.64783e-08
2.49778e-08
2.81502e-05
2.43032e-05
1.71629e-05
1.52082e-05
7.78565e-06
6.95658e-06
2.59434e-06
2.31587e-06
0.000184027
0.000167335
0.000135549
0.000125727
8.35557e-05
7.79187e-05
4.22362e-05
3.91018e-05
0.000475658
0.000438493
0.000374757
0.00035234
0.000260009
0.000246334
0.000159046
0.000150389
0.000892694
0.00082517
0.000726636
0.000685242
0.000532718
0.000507278
0.000355889
0.000339389
0.00144168
0.00133004
0.0011964
0.00112699
0.000905992
0.000863356
0.000635668
0.000607859
0.00213046
0.00195684
0.00179272
0.00168383
0.0013896
0.00132264
0.00100783
0.000963847
0.00296193
0.00270357
0.00252244
0.00235928
0.0019944
0.00189377
0.00148489
0.00141813
0.00392113
0.00355267
0.00338036
0.00314584
0.00272551
0.00257969
0.00207872
0.00198069
0.00495975
0.00445612
0.00432898
0.00400493
0.00355503
0.00335171
0.00276777
0.0026301
0.00598979
0.00533838
0.00530365
0.00487658
0.00444261
0.00417135
0.00353202
0.00334694
0.00689279
0.00611292
0.00621487
0.00568853
0.00533525
0.0049929
0.0043549
0.00411698
0.00751491
0.00666481
0.00692147
0.00632506
0.00611362
0.00571074
0.0051466
0.00485878
0.00770641
0.00688429
0.00728139
0.00667599
0.00664375
0.00621369
0.005795
0.005475
0.00733589
0.00666826
0.00713615
0.00661608
0.0067555
0.0063589
0.00614632
0.00582949
0.00651149
0.00607049
0.00648741
0.0061357
0.00636846
0.0060659
0.00605802
0.00578471
0.00554649
0.00529919
0.0056214
0.00542423
0.00569865
0.00546967
0.00566118
0.00543315
0.00462153
0.00446586
0.00475462
0.00462154
0.00492725
0.00475139
0.0051061
0.00488774
0.0038033
0.00365316
0.00397122
0.00381892
0.004225
0.00402052
0.00454645
0.0043073
0.00314661
0.00293866
0.00332829
0.00309401
0.00368372
0.00337763
0.00408486
0.00380794
0.00271246
0.00240401
0.00290824
0.0025347
0.00331488
0.00290389
0.00373385
0.00339999
0.00251076
0.00206328
0.00272891
0.00221859
0.00310588
0.00261909
0.00346602
0.00306898
0.00243614
0.0019005
0.00263391
0.00208599
0.00293696
0.00240579
0.00319322
0.00274775
0.00232181
0.00178446
0.00249002
0.00192961
0.00270028
0.0021508
0.00285487
0.0023965
0.00213852
0.00160031
0.00225985
0.0017058
0.00237302
0.0018417
0.00244704
0.00201349
0.00188067
0.00136119
0.00194532
0.0014323
0.00197984
0.00150416
0.00200436
0.00162489
0.00157451
0.00110526
0.00159143
0.0011491
0.00157647
0.00117869
0.00157307
0.00126056
0.00124502
0.000847791
0.001231
0.00087265
0.00119116
0.000876519
0.0011723
0.000927819
0.000905469
0.000596463
0.000880353
0.000610936
0.000838506
0.000604615
0.000818614
0.000636382
0.000602048
0.000383197
0.000579505
0.000391773
0.000546989
0.000384161
0.000531853
0.00040175
0.000360962
0.000217581
0.000344607
0.000222001
0.000322707
0.00021657
0.000311837
0.000223704
0.000182442
9.87894e-05
0.000172603
0.000100517
0.000159935
9.81941e-05
0.000152997
9.97443e-05
6.76428e-05
2.92205e-05
6.28864e-05
2.93492e-05
5.68509e-05
2.89367e-05
5.28708e-05
2.85921e-05
1.19958e-05
3.40176e-06
1.07296e-05
3.3573e-06
9.25558e-06
3.36335e-06
8.05878e-06
3.20113e-06
4.48427e-07
1.02851e-07
3.87013e-07
1.00491e-07
3.2653e-07
1.01228e-07
2.69204e-07
9.5019e-08
6.52311e-09
1.15266e-09
5.29448e-09
8.30411e-10
5.24908e-09
1.32566e-09
1.90869e-09
1.17685e-09
2.69896e-09
3.31237e-09
1.8414e-08
1.83835e-08
9.48728e-10
7.3073e-10
2.83553e-07
2.90917e-07
3.76578e-07
4.02146e-07
4.0075e-08
3.87146e-08
7.76738e-06
8.03628e-06
9.358e-06
9.71826e-06
1.05413e-06
9.90921e-07
5.13783e-05
5.33642e-05
5.6626e-05
5.7552e-05
7.51549e-06
6.83469e-06
0.000151155
0.000157756
0.000159297
0.000160121
2.54167e-05
2.28289e-05
0.00031
0.000324295
0.000313111
0.000312289
5.8774e-05
5.2853e-05
0.000530919
0.000555553
0.000507922
0.000502422
0.000109302
9.85624e-05
0.000813413
0.000845638
0.000727077
0.000711452
0.000178821
0.00016204
0.00113822
0.00117137
0.000947962
0.000914536
0.000269661
0.000246251
0.0014682
0.0014918
0.00114726
0.00108913
0.000385091
0.000355274
0.00176304
0.00176042
0.00131497
0.00122756
0.000530811
0.000493573
0.00198223
0.00193483
0.00145452
0.00133821
0.000716778
0.000669339
0.00210307
0.00196658
0.00157895
0.00144224
0.000951006
0.000895933
0.0020058
0.00196848
0.00170864
0.00156425
0.00125464
0.00119456
0.00216722
0.00203571
0.00187142
0.00176777
0.00162719
0.00157987
0.00231417
0.00221659
0.00209807
0.00204486
0.00198828
0.00197386
0.00247535
0.00243368
0.00236705
0.00235914
0.00234732
0.00236147
0.0026709
0.00266667
0.00265293
0.00267996
0.00269648
0.00274195
0.00285889
0.00288339
0.00291264
0.00296817
0.00301365
0.00309402
0.00300285
0.00304472
0.00311141
0.0031821
0.00327466
0.00337624
0.00305286
0.0030914
0.00319768
0.00325253
0.00344157
0.00352729
0.00294566
0.00295684
0.00309355
0.00309963
0.00346916
0.00348914
0.00265521
0.0026274
0.00278542
0.00273695
0.0033324
0.00324805
0.00226971
0.00221062
0.00238019
0.00229598
0.00281618
0.00281218
0.00185391
0.00177789
0.00194684
0.00184679
0.00226813
0.00217815
0.00145443
0.00137519
0.00152961
0.00142897
0.0017867
0.00167596
0.0010968
0.00102415
0.00115481
0.00106258
0.00141759
0.00131471
0.0007894
0.000728699
0.000834342
0.000752389
0.00114585
0.00098686
0.000537997
0.000491089
0.000572177
0.000500453
0.000826071
0.000625356
0.000341329
0.000308208
0.000365832
0.000306486
0.000503991
0.000339068
0.000193856
0.000173993
0.000210584
0.0001688
0.000261575
0.000150501
9.08055e-05
8.23234e-05
0.000101788
8.27597e-05
0.000103504
5.38035e-05
2.94199e-05
2.75102e-05
3.80664e-05
3.42928e-05
2.74108e-05
1.56567e-05
4.07702e-06
4.10026e-06
7.08336e-06
7.10989e-06
4.07263e-06
2.53042e-06
1.44497e-07
1.5461e-07
2.94457e-07
3.08858e-07
1.86846e-07
1.19847e-07
1.18438e-08
1.31939e-08
9.95944e-09
9.94612e-09
2.0813e-08
1.63169e-08
2.03186e-08
1.83491e-08
2.74871e-08
2.09672e-08
1.8174e-08
1.58466e-08
6.49668e-08
8.41951e-08
8.78928e-08
6.9569e-08
6.23673e-08
5.76914e-08
1.18512e-06
2.42286e-06
2.65274e-06
2.53482e-06
2.32014e-06
2.30134e-06
6.04224e-06
9.8234e-06
8.94505e-06
8.35677e-06
7.72632e-06
7.69087e-06
2.52479e-05
4.04589e-05
4.33766e-05
4.16835e-05
3.92853e-05
3.88885e-05
7.09953e-05
9.76177e-05
9.33674e-05
9.02324e-05
8.67142e-05
8.68107e-05
0.000114146
0.000155737
0.000164753
0.000159122
0.000152599
0.000151043
0.000231089
0.00029315
0.000289069
0.00028163
0.000275335
0.000275592
0.00027771
0.000349737
0.000367953
0.000355692
0.000343537
0.000339549
0.000480742
0.000589657
0.00059177