/*--------------------------------*- C++ -*----------------------------------*\
| =========                 |                                                 |
| \\      /  F ield         | OpenFOAM: The Open Source CFD Toolbox           |
|  \\    /   O peration     | Version:  2206                                  |
|   \\  /    A nd           | Website:  www.openfoam.com                      |
|    \\/     M anipulation  |                                                 |
\*---------------------------------------------------------------------------*/
FoamFile
{
    version     2.0;
    format      ascii;
    arch        "LSB;label=32;scalar=64";
    class       volScalarField;
    location    "400";
    object      omega;
}
// * * * * * * * * * * * * * * * * * * * * * * * * * * * * * * * * * * * * * //

dimensions      [0 0 -1 0 0 0 0];

internalField   nonuniform List<scalar> 
50904
(
4.99685e+06
4.89734e+06
4.95927e+06
4.83056e+06
731647
715442
741674
722359
206558
201268
233701
225865
94775.1
92226.7
117927
113206
56656.6
55149.5
74187.8
71049.7
38585.5
37609.6
52031.3
49798
28220.6
27561.5
38854.8
37187.6
21623.9
21163.6
30310.2
29016.4
17163.9
16822.1
24488
23437.9
14064.2
13791.2
20452.6
19561.6
11838.6
11589.7
17634.6
16816.7
10190.1
9924.17
15729.7
14893.3
8958.81
8639.36
14774
13798.5
7932.65
7535.45
14359.2
13114.8
6789.1
6342.71
12319.5
11255.9
5931.11
5460.88
9431.3
8678.83
5429.01
5002.69
7097.59
6484.2
5125.22
4787.15
5648.14
5238.34
4936.59
4673.5
5056.04
4753.92
4821.06
4616.04
4791.58
4570.77
4811.66
4647.03
4738
4579.28
4971.12
4829.06
4879.32
4757.65
5378.24
5234.16
5257.94
5153.21
6005.04
5847.27
5851.33
5750.12
6871.99
6695.88
6674.4
6570.22
8021.29
7830.62
7769.34
7661.67
9552.47
9346.4
9228.02
9119.36
11687.7
11465.5
11280
11172.4
14796.3
14564.1
14334.1
14220.8
19635.9
19406.3
19235.2
19075.9
28136.1
27890.5
28159.4
27770.5
46155.7
45494.6
47398.6
46105.3
92838
90011.1
95607.9
91712.7
229355
224261
231540
224605
784601
780748
789045
782296
5.15811e+06
5.15418e+06
5.20172e+06
5.18162e+06
4.91283e+06
4.75264e+06
4.88435e+06
4.70984e+06
4.88272e+06
4.70344e+06
4.88471e+06
4.70308e+06
4.88746e+06
4.70467e+06
4.89035e+06
4.70715e+06
4.89316e+06
4.71013e+06
762441
729400
809715
765537
839806
790983
857567
806514
868507
816239
875722
822707
880826
827378
272898
256570
314678
292129
338091
313136
351667
325562
360075
333344
365682
338578
369680
342358
149679
139668
179870
166078
196805
181652
206880
191092
213249
197128
217552
201245
220644
204234
98598.9
91807
121443
112171
134409
124380
142343
131998
147429
136941
150881
140327
153362
142782
71277.3
66375.7
89649.1
83061
100170
93231.7
106751
99728.4
110999
103976
113877
106881
115940
108978
54520.6
50830
70140.4
65294.1
79132
74236.3
84839.4
80043.7
88529.5
83850.3
91019.9
86443.3
92793.8
88304.2
43465.1
40583.1
57384.9
53719.9
65432.2
61948.1
70587.1
67352.5
73916.1
70894.2
76150
73294.5
77728.8
75004.6
35878.8
33522.4
48764.7
45879.8
56252.6
53721.9
61085
58920.3
64202.3
62325.9
66282.4
64622.7
67739.4
66246.6
30650.6
28606.1
42937.7
40484.9
50127.7
48138.1
54801.1
53255.4
57815.7
56607.7
59816.1
58857
61202.4
60432.7
27141.5
25161.3
39173.5
36681.7
46241.8
44230.3
50844.2
49320.6
53817
52656
55780.5
54881
57124
56422.1
25127.7
22885.8
37329.3
33883.7
44485
41279.5
48883.2
46300.5
51672.9
49593.9
53534.9
51778.2
54816.2
53271.5
25094.9
22106
37827.9
31812.7
44770.6
38827.4
48665.1
43608.3
51008.1
46748.9
52515
48819.6
53566.6
50212.9
24809.2
20795.9
36760.7
29304.3
43242.5
35747.8
46943.3
40167.6
49135.5
43085.6
50502.8
45009.5
51415.5
46287.3
22256.1
18513.1
33577
26348.4
40060.1
32310.7
43704
36299
45781.3
38890.3
47012.6
40593
47780.6
41730
18030.1
15347.9
28939.7
23550.2
35776.1
29337.1
39589.8
32947.1
41686.3
35173.5
42863.8
36577
43544.2
37505.2
13555.4
11850.3
23891
20328.5
31399.3
26604.3
35698.3
30270.1
38027.8
32348.4
39294.1
33567.5
39981.3
34321.8
9869.45
8848.21
18944.3
16732.6
27152.2
23704.7
32246.2
27873
35048.1
30119.6
36565.4
31343.6
37373.5
32034.1
7475.54
6800.13
14725.6
13523.3
23036.7
20793.5
28924.1
25593.9
32321.1
28218.5
34198.1
29622.8
35220.7
30375.6
6041.41
5662.93
11570.9
11061.9
19133.8
18000.2
25423.1
23281
29372.3
26360.7
31654.8
28053.5
32958
28978.1
5451.89
5280.46
9391.69
9257.13
15581.4
15355.8
21537.9
20798.3
25658
24312.2
28168
26355.8
29659.4
27525.4
5312.22
5212.14
7966.98
7954.26
12682.4
12883.8
17792.2
17937.1
21672.6
21557.9
24166.9
23790.6
25695.8
25119.7
5449.83
5397.5
6978.54
7076.1
10487
10848.8
14488.4
15093.3
17769.8
18416.7
19975.1
20563.7
21350.8
21865.8
5903.38
5857.98
6725.23
6785.57
9066.92
9484.35
12004.3
12838.3
14594.3
15695.7
16421.1
17632.1
17586.5
18828.2
6643.38
6602.07
6980.02
7030.55
8199.83
8563.38
10343.8
11197.8
12270.8
13515.7
13705.5
15175.2
14647.7
16225.2
7683.76
7643.17
7816.52
7841.43
8303.79
8568
9442.94
10188.7
10855.8
11968
11907.4
13277.8
12618.4
14129.5
9093.86
9052.97
9145.83
9147.97
9332.82
9434.68
9695.24
10037.7
10187.4
10950.6
10690.9
11819.6
11096.7
12385
11094.7
11047.5
11117
11090.5
11212.3
11222.5
11370.1
11479.4
11590.1
11862
11843.8
12280.4
12073.7
12638.9
14109.2
14031.9
14130.5
14036.1
14208.1
14100.6
14310.3
14228.6
14441
14434.4
14600.9
14691
14760.2
14935
19015.2
18838.9
19071.7
18811
19172
18834.6
19275
18897.8
19382.7
19015.5
19506.4
19180.3
19634.7
19350.3
28046.6
27531.5
28187.8
27449.4
28341.3
27419.5
28473.9
27423.8
28593.6
27477.5
28712.1
27578.3
28831.2
27694.5
47522.1
45899.6
47703.5
45553.1
47859.2
45350.1
47999.1
45239.4
48127.6
45208.5
48248.8
45239.5
48366
45298.3
95375.3
90802
94803.5
89290.8
94558.6
88473.1
94476.4
88107.2
94500.4
87965.4
94577.9
87923.4
94667.1
87905.8
228859
221032
225880
216929
224572
215088
223889
214456
223624
214308
223595
214245
223601
214115
785174
775526
777671
764636
774452
759721
772649
757685
771791
756935
771532
756535
771174
755811
5.19325e+06
5.15136e+06
5.15012e+06
5.08395e+06
5.13062e+06
5.05312e+06
5.12036e+06
5.0371e+06
5.11443e+06
5.02811e+06
5.11048e+06
5.02246e+06
5.10734e+06
5.01832e+06
4.89504e+06
4.71207e+06
4.8955e+06
4.71251e+06
4.89538e+06
4.71245e+06
4.89446e+06
4.71168e+06
4.89221e+06
4.70975e+06
4.88812e+06
4.7059e+06
884874
831028
887561
833454
889178
834877
889833
835352
889049
834301
886881
831334
372884
345344
375153
347453
376554
348707
377396
349388
377556
349319
376865
348081
223140
206616
224953
208337
226093
209380
226898
210067
227454
210453
227734
210402
155366
144746
156837
146177
157776
147060
158495
147704
159166
148264
160009
148919
117599
110658
118821
111884
119609
112653
120240
113250
120915
113875
122041
114935
94210.4
89792.1
95253.5
90878
95928.5
91567.3
96480.9
92126.5
97116.8
92773.8
98345.5
94063.3
78977.8
76368.5
79892.6
77361.2
80483
77996.7
80969
78527.4
81547.9
79180.1
82770.4
80595.7
68880.6
67537.8
69710.5
68474.9
70242.3
69078.7
70677.2
69593.2
71199.6
70249.7
72361.1
71737.9
62275.1
61679.1
63050.3
62582.6
63541
63166.8
63934.8
63670.5
64401.1
64326.4
65468.1
65846.5
58150.8
57632.3
58886.4
58508.6
59342.4
59074.9
59694
59564
60090.9
60204.5
61015.8
61703.2
55785.6
54430.5
56471.9
55269.8
56880.5
55808.7
57168.5
56269
57453.3
56865.3
58136.4
58263.5
54398.7
51275.2
54997
52046.4
55327.8
52534
55517.5
52937.8
55634.4
53443.4
55959.4
54628.9
52125
47247.2
52635.1
47933
52899.5
48357.7
53016.1
48694.1
53017.3
49092
53091
50019.5
48350.3
42568
48768.5
43157.4
48974.7
43510.7
49036.3
43769
48962
44040.8
48887.6
44671.7
44005.5
38195.9
44353.5
38693.5
44524.8
38981.7
44558.2
39171.8
44452.9
39341.1
44335.6
39757.5
40405.3
34875.5
40722.1
35300.9
40886.2
35541.8
40918.2
35681.8
40820.5
35776.7
40751.4
36056.8
37858
32504.7
38190.5
32881.6
38374.3
33104.5
38445.6
33227.2
38425.7
33300.2
38580
33559.6
35870
30857.8
36300.2
31221.2
36557.8
31449.2
36741.3
31592.9
36936.9
31707.1
37611.7
32088.1
33842.5
29572.2
34479.2
29981.3
34894.7
30242.1
35246.5
30459.8
35732.8
30725.3
36935.8
31519.8
30718.9
28316.2
31518.6
28869.2
32096.2
29206.8
32655.4
29494.6
33478.3
29943.6
35290.6
31144.7
26801.1
26054.4
27675.5
26752.1
28347.9
27217.4
29051.2
27635.3
30141.3
28234.7
32452.9
29667.2
22377.9
22813.8
23218.1
23547.5
23894
24069.3
24632.2
24573.1
25805.4
25320.4
28215.9
27015.1
18479.6
19717.6
19228.9
20417.1
19854.3
20932.7
20560.9
21451.6
21709.4
22244.4
24036.7
24015
15384.2
17016.5
16014.3
17642.6
16555.9
18115.3
17184.7
18605.3
18229.5
19375.5
20349
21094.5
13180.5
14774.9
13667.3
15285.4
14095.2
15677.8
14605.1
16098.2
15478.9
16791.3
17282.2
18370.5
11439.9
12811.7
11755.4
13164.6
12055
13463.4
12433.3
13807.9
13125.8
14396.9
14659.8
15813.5
12282.4
12956.2
12477.8
13232.7
12653.9
13461
12855.6
13701.6
13197.6
14074.7
13966.5
14914.8
14910.3
15160.3
15051.1
15360.4
15171.2
15521.7
15290
15674.2
15460.4
15877.8
15832.3
16312.2
19761.5
19510.7
19881.8
19656.3
19980.5
19767.6
20060.1
19846.7
20125.3
19891.5
20207.1
19925
28957.2
27803.3
29076.9
27904.3
29172.8
27969.9
29231.9
27973.7
29202.6
27832.7
28964.1
27365.2
48505.4
45353.1
48633.4
45405.5
48726.3
45414.9
48746.3
45321.2
48544.9
44945.2
47824.3
43916.4
94804.6
87902.2
94913.3
87893
94944.3
87822.9
94790.3
87590.2
94140.6
86978.7
92773.1
85890.3
223700
214037
223722
213964
223544
213770
222990
213362
221789
212765
220661
212892
770967
755318
771123
755329
771196
755181
771179
754950
771463
755355
773155
757363
5.1051e+06
5.01497e+06
5.11083e+06
5.0189e+06
5.11579e+06
5.02203e+06
5.12128e+06
5.0251e+06
5.12986e+06
5.02945e+06
5.14285e+06
5.03517e+06
4.88365e+06
4.70341e+06
4.88117e+06
4.702e+06
4.88087e+06
4.70061e+06
4.88044e+06
4.69966e+06
4.87944e+06
4.69841e+06
4.87734e+06
4.69626e+06
889506
835588
893385
839442
896006
841310
897645
842172
898350
842251
897671
841250
379163
350553
382566
353848
384856
355898
386191
357058
386822
357571
386736
357406
229825
212369
232903
215379
234829
217247
235877
218249
236382
218724
236441
218768
162178
150986
165131
153905
166804
155549
167668
156392
168082
156794
168163
156871
124381
117256
127270
120147
128767
121628
129511
122359
129865
122705
129944
122779
100835
96643.1
103671
99523.5
105044
100892
105708
101549
106022
101858
106095
101926
85341.7
83381.6
88120.2
86252.8
89401.7
87543.8
90009.2
88150.8
90292.9
88434.2
90356.2
88494.1
74934.1
74658.4
77646.8
77514.4
78860.1
78752.1
79426.5
79325.9
79686.9
79592.3
79738.2
79646.5
67974
68826.8
70606.9
71646
71764.7
72839.8
72297.7
73387
72536
73638.3
72569.1
73683.5
63379.3
64651.3
65906.9
67390.2
67010.3
68534.1
67510.1
69052.6
67722.4
69285.4
67727.6
69315.8
60237.1
61054
62601.2
63637.3
63635.9
64710
64094.9
65190.1
64273.2
65397.3
64238.9
65405.7
57653.5
57102
59759.5
59424.7
60691.6
60390.3
61092.6
60814.8
61224.9
60985.3
61138.9
60962.8
54414.5
52082.1
56228.4
54078.6
57043.9
54914.5
57383.3
55273.2
57472.2
55401.3
57344.9
55344.6
49952
46299.1
51532.7
47984.4
52259.9
48701.7
52556.7
48999.3
52620.4
49085.4
52477
48990.6
45309.9
41119.7
46797.4
42626.7
47495.2
43279.2
47779.9
43544.9
47838.3
43610.1
47695.4
43497.6
41819.8
37314.9
43336.9
38802.9
44068.7
39464.1
44379.5
39737
44455
39807.4
44326.7
39700.4
40034.2
34879.8
41628.1
36493.3
42380
37225.1
42730
37537.9
42833.5
37635
42721.7
37551.9
39670
33738.5
41496.2
35549
42270
36347.9
42640.9
36712.7
42770.6
36843.3
42673.4
36786.5
39527.7
33833.1
41914.7
35778.2
42817.3
36537.7
43245.8
36902.9
43416.7
37043
43351.1
36985.1
38788.7
33745.9
41879
35944.8
42982.7
36676.4
43455
37027.5
43643.6
37170.5
43602.2
37108.7
36599.1
32680.3
40116.9
35237.5
41376.9
36042.9
41920.3
36416.5
42166.4
36583
42203.6
36549.8
32308.7
30377.1
35613.7
33184.5
36831.6
34109.6
37360.3
34504.4
37637.7
34685.5
37764
34694.2
27881.1
27364.3
30891.6
30085
32038.8
31010.5
32549.4
31408.7
32832.7
31608.7
33004.6
31670.4
23838.8
24239.4
26546.4
26731.6
27620.3
27603.9
28114.7
28006.7
28402.2
28232.1
28603.1
28344.1
20304.7
21228.1
22671.9
23482.5
23652.9
24305.6
24125
24719.1
24417.7
24977.3
24648.3
25141.9
17269.4
18431.3
19355.8
20566.2
20272.3
21412.4
20748.8
21873.1
21076
22190
21364.5
22434.7
15493.7
16659.3
17001.6
18551.6
17916.5
19531.9
18479.7
20093.1
18891.6
20482.1
19268.9
20825.2
16680.6
17419
17651.6
18898.2
18380
19817.5
18888
20387.7
19277.8
20796.4
19652.4
21179.1
20535
20470.5
21062
21530.2
21571
22343.7
21979.7
22900.8
22315.3
23323.6
22650
23740.5
28703.4
27283.1
28793.2
27866.7
29014.2
28490.5
29251.9
28997
29470.7
29420.8
29697.6
29871.2
46779.2
43198.4
46407.1
43250.7
46273.6
43511.5
46230.8
43817.2
46201.4
44126.7
46155.3
44502.3
91321.9
85681.9
90829.4
85609.7
90557.1
85531.1
90355.5
85477.5
90126.6
85423.4
89740.9
85345.9
220638
215175
221225
216137
221684
216417
221840
216463
221731
216361
221260
216087
776286
762084
779484
764389
781567
765060
782621
765239
782769
765207
782422
765054
5.16257e+06
5.04599e+06
5.18049e+06
5.05645e+06
5.18635e+06
5.05953e+06
5.18883e+06
5.06055e+06
5.18955e+06
5.06038e+06
5.18923e+06
5.05938e+06
4.88223e+06
4.70217e+06
4.87901e+06
4.6997e+06
4.87586e+06
4.69743e+06
4.87336e+06
4.69607e+06
4.87286e+06
4.69714e+06
4.87877e+06
4.70557e+06
4.90992e+06
4.74493e+06
896731
841018
894328
839665
889949
836926
882555
832190
870510
823729
853501
808497
821873
781840
386140
356888
384687
355709
381957
353463
377039
349392
368255
342062
353127
329002
324336
303875
236133
218484
235230
217686
233478
216132
230244
213268
224232
207943
213170
198034
191463
178645
167953
156665
167303
156055
166034
154868
163698
152695
159304
148628
150915
140855
134035
125333
129766
122591
129234
122060
128212
121055
126355
119246
122890
115891
116188
109429
102445
96331.9
105934
101740
105464
101242
104575
100326
102983
98703.6
100054
95733.3
94413.4
90037
82765.4
78445.2
90193.1
88300.8
89751.2
87813.2
88929
86935.4
87474.7
85399.2
84837.3
82613.4
79828.5
77313.7
69562.1
66594
79563.8
79442.2
79129.6
78954.6
78332.3
78087.7
76934.3
76578.4
74427.4
73852.8
69739.6
68697.3
60317.6
58397.5
72375
73466.8
71929.8
72971.4
71123.1
72097.1
69719.5
70578.1
67227
67840.1
62637.8
62682.5
53667.5
52539.2
67500.5
69082.3
67025.4
68574.1
66177.4
67681.9
64714.7
66133.8
62144.4
63348.6
57491.2
58129.5
48706.6
48068.2
63967.2
65152.8
63443.4
64628.8
62525.7
63714.8
60959.4
62133.3
58241.3
59299.7
53418.3
54036.8
44691
44156.7
60810.8
60685.9
60223.4
60146.2
59215.4
59214.3
57518.2
57612
54620
54767.2
49606.7
49567.1
40992.2
40158.2
56978.7
55050.8
56343.6
54500.1
55262
53552.5
53453.4
51934
50406.2
49102.7
45277.3
44073.6
37085.4
35613.7
52106.1
48671.5
51458.7
48095.8
50349.1
47108.8
48489.6
45436.2
45392.2
42580.6
40336.8
37759.5
32889.4
30539.4
47344.4
43178.9
46705.2
42593.7
45581.4
41567.8
43686.4
39816.2
40564.9
36868.7
35640
32135.5
29063.9
25933.8
43999.7
39400.9
43369.7
38824.6
42228.8
37774.8
40309.9
35951.9
37141.8
32889.6
32154.5
28100.4
26067.9
22420.7
42405.3
37281.8
41774.7
36735.5
40604.7
35686.9
38657.9
33821.2
35407.8
30657
30219.6
25722.8
24102.6
20114.4
42360
36534.8
41721.6
36012.8
40531
34984.1
38575.6
33135.7
35324
29979
30056.1
24987.2
23511.2
19089.9
43062.2
36727.8
42450.2
36197.4
41297.8
35175.3
39397.1
33373.1
36259.3
30331.7
31103.5
25459.4
24067.1
19241.1
43348.9
36852
42793.7
36330.1
41732.8
35344
39959.7
33659.6
37033.7
30874.8
32162
26310.1
24836.9
19921.6
42067.3
36344.9
41609.7
35864.5
40687.3
34940.8
39096.5
33392
36395.6
30827.7
31830.7
26512.2
24621.3
20160.2
37727
34546.2
37391.2
34127.6
36603.9
33282.5
35161.6
31851.8
32741.5
29411.2
28584.2
25250.9
22282.4
19232.8
33015.1
31576.7
32782.7
31242.2
32165.9
30489.8
30935.9
29119.2
28733.1
26749.9
25116.3
22718.8
20053.2
17174.2
28651.2
28301.2
28502.7
28049.2
28037.4
27422.9
27061.5
26188.4
25281.4
23969.1
22368.4
20356.8
18400.3
15693.3
24745.3
25162.5
24689.4
25006.2
24402.8
24546.8
23749.3
23588
22520.4
21802.4
20458.5
18842.7
17580.4
15063
21542.7
22555.2
21617.3
22538.6
21573.6
22319.7
21342.5
21749.3
20788.1
20531.6
19654.8
18296.9
17773.1
15269.8
19562.1
21066.4
19808.8
21214.6
20061.3
21268.4
20301.8
21114.2
20432.1
20450.8
20163.3
18843.4
19085.5
16354
19978
21492.3
20299.4
21753.4
20710.7
22011.4
21262.1
22195.6
21949.4
21998.4
22470.1
20909.7
22115.1
18848.5
22970.7
24127.6
23323.2
24514.3
23836.5
24998.2
24659.5
25537.8
25933.9
25787.9
27281
25128.2
27632.9
23386.8
29954
30349.3
30275
30907.9
30836.6
31684.8
31973.9
32620
33976
33312.8
36206.2
33015.2
37270
31565.3
46182.9
45000.4
46272.4
45683.9
46692.1
46665.8
47949.7
47816.6
50652.2
48941.2
53946.3
49108.1
55925.8
48385.3
89383.7
85466.2
88755.3
85683.7
87970.6
85807.9
87957.9
85994.9
90588.8
87304.8
95099.6
88646.8
98840.5
90193
220806
216031
219712
215681
217608
213511
215546
211035
217625
212839
224784
218481
235029
227825
783552
766602
785415
768156
783840
767339
783642
767935
791744
776663
812556
797780
851065
835358
5.20413e+06
5.07352e+06
5.21668e+06
5.08648e+06
5.23554e+06
5.1061e+06
5.26827e+06
5.14012e+06
5.32979e+06
5.20399e+06
5.45211e+06
5.33126e+06
5.69334e+06
5.58125e+06
4.95083e+06
4.80367e+06
5.02219e+06
4.89831e+06
5.14091e+06
5.0528e+06
5.31742e+06
5.25695e+06
803390
770269
787804
762889
784380
769688
799100
791760
305228
288340
281746
269435
257524
250187
240618
237336
176468
165954
157533
149853
136052
131337
117299
114798
122037
114855
106948
101699
89571.9
86317.4
73735.6
71908.5
92393.5
87266.8
80031.2
76258.5
65788.7
63430.3
52701.8
51363.2
73977
70237.5
63512.3
60704.3
51507.9
49739.8
40508.2
39504.8
61600.8
58871.9
52471.2
50343.2
42091
40735
32646.9
31882.8
52878
50906.5
44693.5
43058.7
35512.5
34452.5
27230
26639.8
46556.9
45148.6
39086
37808
30865.5
30009.6
23503.8
23026.8
41800.5
40758
34882.7
33844.9
27438.3
26715.7
20795.9
20389.7
37965.7
37047.6
31549.1
30616.4
24796.6
24132.7
18744.9
18368
34560.4
33513.3
28716.1
27743.3
22696.7
22009.5
17214.3
16814.5
31254.1
29848.6
26124.5
24958.2
20881.3
20075.8
15994.3
15514.4
27887
25918.1
23585.7
22061.8
19172.7
18131.5
14940.4
14303.4
24845.1
22283.2
21314.9
19338.6
17640.6
16284.7
14040.1
13191.1
22452
19380.8
19505.4
17105.2
16364.2
14774.4
13273.5
12215
20687.4
17279.1
18065.7
15381.1
15393.3
13535.3
12633.3
11409.2
19808
16087.5
17164.1
14225.3
14664.7
12585.8
12065.9
10688.5
19861
15840.2
16795.1
13617.2
13986.2
11790.8
11489.8
9897.22
20248.2
16137.4
16510.5
13378.2
13353.1
10984.7
10974.3
9117.78
19648.9
16037.3
15637.1
12704.4
12655.7
10070.6
10540.6
8490.16
17974.6
14833.6
14552.3
11507.7
12089.7
9411.59
10335.7
8231.62
16563.6
13422.9
13813.4
10769.1
11889.4
9254.86
10444.2
8350.68
15705.5
12680.6
13583.3
10593.6
12133.5
9537.73
10917.4
8813.46
15604.8
12643.5
14004.6
10966.2
12917.2
10264.5
11827.2
9644.14
16364.8
13273.7
15140.7
11873.9
14294.9
11448.2
13252.6
10899.3
18096.1
14650.9
17146.1
13444.2
16458.4
13263.9
15431.2
12787.8
21430
17310
20617.6
16180.1
19939.1
16182.5
18827
15741.2
27159.2
21878.1
26302.7
20715.8
25446.1
20828
24131.1
20432.1
36930.7
29974.6
35860
28683.6
34619.7
28798
33008.1
28545.4
55767
46711
54195.7
45101
52208.9
44883.3
50082.9
44825.1
99241.7
88908.8
96776.6
86824.3
93565.4
85341.8
90645.3
85211
238065
229750
233188
225718
227108
220436
220920
217851
864885
850698
846877
835875
824427
816277
801865
801063
5.78512e+06
5.69074e+06
5.6529e+06
5.58342e+06
5.50207e+06
5.46009e+06
5.34814e+06
5.33369e+06
4.92832e+06
4.99695e+06
4.89354e+06
4.93594e+06
4.82827e+06
4.84805e+06
752526
767623
732803
736340
750817
757218
213192
219107
188032
188145
230160
234383
89653.8
91494.7
69369.3
69321.7
104821
107595
49629
50085.9
35222.7
35148.4
60548.7
62485
32176.3
32145.6
21859.2
21793.5
40449.5
41735.5
22704.4
22492.9
15290.6
15276
29852.9
30874.8
16878.4
16680.5
11629.9
11707.4
23443.2
24341.9
13095.5
12968.8
9444.29
9639.21
19224.1
20042.7
10568.5
10533.4
8096.15
8428.42
16256
17054.3
8827.48
8909.04
7261.14
7731.72
14061.2
14859.1
7603.76
7821.52
6760.83
7350.48
12417.5
13188.5
6750.25
7104.77
6510.98
7207.99
11167.8
11858.1
6143.24
6632.48
6487.35
7247.34
10098.5
10563.4
5756.15
6338.23
6582.23
7140.35
9029.36
9322.42
5598.43
6119.71
6482.48
6876.7
8150.19
8416.4
5472.32
5872.13
6248.31
6542.49
7480.62
7692.13
5319.85
5625.03
5982.05
6214.24
6960.94
7114.76
5168.47
5408.94
5720.8
5913.35
6532.46
6652.39
5060.54
5263.39
5501.99
5683.23
6184.33
6300.09
5041.43
5233.72
5383.44
5589.69
5937.76
6093.58
5183.01
5394.47
5455.41
5730.24
5821.35
6077.2
5566.17
5819.73
5818.97
6201.12
5873.8
6293.19
6189.21
6492.95
6469.09
6984.91
6113.25
6749.84
7082.55
7450.99
7440.63
8098.14
6622.29
7521.2
8301.21
8754.67
8811.33
9612.18
7543.36
8742.45
9942.43
10506.3
10712.4
11666.7
9072.67
10571.4
12232.3
12932.7
13385.7
14524.5
11439.8
13277.5
15535.1
16416.1
17238.2
18771.4
15043.4
17581.2
20579
21713
23163.7
25695.8
20991.2
25442.5
29089.8
30546.7
33308.1
38266.6
32181.3
41102.6
45854.7
47484.6
53631.7
62583.2
56979.6
75092.7
86584.2
87797.2
98716.4
109202
115886
145896
214003
216914
216198
220570
279642
291030
769596
769979
743696
744686
814289
813009
5.10068e+06
5.0985e+06
5.03532e+06
5.04325e+06
4.96826e+06
4.98658e+06
4.92698e+06
4.95488e+06
4.97813e+06
4.99698e+06
5.01235e+06
5.02465e+06
4.92725e+06
4.9507e+06
4.96873e+06
4.98186e+06
4.99195e+06
4.9991e+06
737362
730479
738139
737121
737941
737205
758186
747831
759470
748385
748413
746494
204511
209669
213774
211962
210140
208708
244307
247912
249462
241328
237900
236145
87936.3
97157.8
99947.7
98610.7
96716.4
95699.5
125489
130701
129789
124302
121001
119627
49573.8
58301.7
60351.5
59397.4
57822.8
57099.6
80075.9
84703.7
83326.4
79326.1
76505.4
75400.8
32179.7
39684.7
41304.9
40602.5
39331.7
38802.5
56626.7
60647.9
59297.9
56215.1
53842.6
52931.5
22664.3
29023.6
30281.1
29734.9
28709.9
28316.2
42348.4
45954.8
44748.9
42289.2
40301.1
39541.1
16891.1
22221.9
23217
22762.8
21940.2
21651.3
32807.1
36147.4
35119.9
33120.2
31468.3
30839.6
13214.9
17606.7
18395.3
18006.1
17355
17151.3
26118.7
29242.8
28399.6
26756.4
25403.7
24898.4
10901.3
14386.2
14993.8
14660.2
14157.2
14025.6
21409.1
24253.4
23576.4
22223
21142.5
20761.3
9639.07
12128.9
12550.4
12250.4
11870.3
11792.7
18216
20630.8
20064.8
18943.7
18112.2
17859.8
9280.72
10595.7
10792.8
10497
10215
10165
16542.9
18104.6
17541.2
16594.1
15997.7
15885
8581.41
9664.2
9598.62
9255.76
9049.41
8991.3
16565.9
16716.8
15998.9
15168.3
14826.9
14875.9
7108.17
9392.88
8859.35
8353.63
8176.59
8070.11
15876.1
16816.7
15839
14949.5
14557.2
14565.7
5768.92
8599.03
7970.31
7339.12
7193.43
7056.37
13550.8
16537.3
14935.4
13399.4
12635.7
12516.3
5104.03
7241.97
6687.64
6341.16
6320.57
6241.45
10700.3
14619.3
12349.7
10523.6
9671.17
9561.25
5108.12
6298.06
5979.36
5745.51
5756.41
5694.18
8803.01
12040.9
9540.13
7974.27
7346.55
7246.78
5536.02
6090.18
5678.02
5410.76
5389.32
5336.84
7850.7
10021.4
7597
6355.29
5933.57
5822.81
6025.99
6156.59
5595.33
5245.18
5158.23
5098.01
7552.59
9139.24
6705.23
5604.56
5304.02
5210.73
6449.35
6301.92
5620.83
5197.97
5034.99
4948.63
7634.74
9097.34
6496.67
5355.47
5023.61
4923.84
6726.86
6375.62
5714.06
5255.41
5026.87
4913.9
7843.49
9302.42
6736.99
5387.29
4949.41
4832.98
6746.94
6352.88
5839.4
5426.6
5170.35
5048.21
7956.58
9118.08
6931.32
5559.08
5057.23
4937.24
6725.68
6347.55
6027.34
5735.26
5510.8
5416.9
7846.45
8265.24
6703.88
5770.89
5345.2
5267.8
6839.28
6515.1
6341.04
6185.02
6021.61
5990.59
7694.81
7608.81
6715.69
6082.92
5794.99
5799.84
6865.7
6868.03
6820.37
6816.85
6724.01
6780.93
7564.45
7804.3
7035.12
6585.64
6440.25
6549.3
7226.84
7446.3
7520.84
7698.97
7673.75
7831.93
7982.96
8621.98
7788.36
7412.73
7349.25
7558.73
8048.53
8344.03
8532.91
8940.69
8977.22
9236.52
8861.05
10000.9
9020.71
8650.36
8625.21
8923.51
9451.03
9746.79
10028.5
10746.1
10851.6
11215.1
10341.9
12042.7
10863.8
10495
10484.6
10872.6
11666
11910.5
12312.7
13458.4
13668.5
14135.1
12702.9
14908.6
13637.8
13317.2
13315.5
13811.8
15104.1
15420
16006.5
17749.2
18155.6
18742.1
16463.5
19001.4
17996.6
17864.6
17890.8
18571.5
21145.8
21778
22621.4
25217.9
26042.4
26907.6
22795.1
25851.4
25525.4
25911.2
26123.9
27286.6
34454.5
35561.7
36618.3
40390.9
42224.7
44251.2
35625.1
39883.4
40835.7
42571.3
43592
46116.1
71317.7
73247.8
74117.8
79053.2
83291
89418.5
69854
76894.1
79907.6
84737.2
89204.2
94094.2
197394
199236
200358
205770
214147
225385
191163
201129
206429
214972
224872
231653
739557
742401
748225
756289
767415
779812
739982
745122
755091
766002
778908
788439
4.93413e+06
4.97125e+06
5.01092e+06
5.05212e+06
5.09535e+06
5.13872e+06
4.94346e+06
4.99046e+06
5.03888e+06
5.08792e+06
5.13781e+06
5.1867e+06
4.92993e+06
4.94481e+06
4.95223e+06
4.95682e+06
4.96061e+06
4.96231e+06
4.93831e+06
4.95138e+06
4.9487e+06
4.94561e+06
4.94348e+06
4.94008e+06
4.94793e+06
4.96602e+06
4.95868e+06
4.9519e+06
4.947e+06
4.94122e+06
4.95277e+06
4.97608e+06
4.96704e+06
4.95874e+06
4.95224e+06
4.94493e+06
4.95504e+06
4.98205e+06
4.97287e+06
4.96423e+06
4.9569e+06
4.94871e+06
4.95611e+06
4.98564e+06
4.9769e+06
4.9685e+06
4.9608e+06
4.95219e+06
4.95704e+06
4.98813e+06
4.97987e+06
4.97189e+06
4.96412e+06
4.95533e+06
783381
788872
789875
778024
775564
774006
824349
849036
845643
831953
828411
826239
843465
887751
879348
867669
862757
858964
851277
907612
898700
888430
882932
878100
853752
917498
909856
900575
895063
889758
853614
922311
916300
907974
902771
897345
852889
924592
920048
912751
907988
902627
288932
295681
291810
283795
280392
279033
322603
342474
338341
328571
325170
323608
338837
370396
364430
355088
351063
348455
345320
384389
378732
370194
365951
362753
346964
391418
386894
379093
374956
371523
346925
394999
391689
384618
380761
377303
346503
396807
394541
388212
384720
381358
163459
167605
163620
157829
154846
153619
187175
200560
197069
189817
186799
185492
198950
220175
215958
208547
205219
203279
203465
230172
226450
219454
216053
213773
204713
235365
232543
226035
222744
220344
204880
238143
236195
230194
227119
224731
204773
239611
238397
232911
230116
227829
110721
113042
109507
105010
102453
101378
128189
137454
134523
128874
126323
125275
137059
152141
148958
142975
140227
138775
140481
159850
157187
151403
148627
146964
141591
164000
162055
156581
153895
152167
141910
166287
165003
159877
157354
155653
141988
167526
166785
162024
159718
158113
81881.3
83148.3
80093
76467.1
74279.8
73350.8
95578.2
102260
99757.7
95268
93173.1
92380.7
102693
113944
111410
106547
104303
103237
105553
120288
118240
113446
111177
109973
106640
123796
122334
117728
115524
114281
107071
125769
124820
120450
118370
117163
107263
126850
126321
122213
120305
119188
63682
64368.7
61763.1
58785.3
56923.6
56128.2
75109.8
80111.8
77946.9
74364.5
72697.3
72141.1
81213.5
89921.9
87821.1
83881.3
82086
81338.2
83826.4
95412.6
93754.4
89804.8
87978.8
87131.7
84956.5
98523.3
97340.4
93496.1
91712
90843.7
85482.6
100291
99515.7
95831.8
94144.8
93315.2
85756
101267
100825
97334
95786.7
95040.8
51172.2
51612.6
49425.8
46971.1
45413.8
44746.5
61293.4
65189.6
63313.6
60485
59224.1
58882.3
66897.1
73825.4
72055.3
68907.9
67533.8
67050.2
69471.8
78809.5
77418.9
74220.1
72806.9
72245.8
70696.3
81680
80674.7
77531.8
76144.2
75570.4
71318.7
83320.6
82644.6
79614.7
78304.9
77770.1
71662.1
84229
83825.4
80943.2
79750.1
79292.9
42095.5
42551.1
40739.6
38731.8
37469.9
36929.6
51567.4
54718.1
53123.5
50948.5
50077.3
49923.8
57047.7
62678.7
61177.7
58733.3
57761.9
57487.3
59746
67402.9
66210
63701.2
62684.7
62337.5
61119.3
70155.3
69275.2
66799.2
65797.9
65437.5
61853.4
71733.5
71124.7
68737.3
67801.1
67476.1
62269.3
72608.6
72228.3
69962.8
69127.6
68873.4
35285.4
35962.9
34495.4
32892.4
31932
31527.7
44570.6
47236.2
45934.6
44359.9
43878.4
43888.4
50215.7
54882.2
53629.2
51844.1
51276.3
51154.8
53174.9
59535.1
58520.8
56682.7
56064.9
55853.8
54755.7
62272
61512.9
59707.5
59097
58858.3
55626.2
63844.6
63314.4
61591.7
61037.4
60822.4
56124.8
64716.3
64383.6
62771.9
62307.6
62152.9
30183.8
31148.6
29995.7
28780.9
28149.8
27902.2
39540.9
41904.1
40915.7
39947.2
39890.5
40050
45558.5
49490.2
48509.7
47404.9
47276
47255
48894.8
54223.4
53422.7
52293.4
52102.1
51939.5
50743.1
57035.6
56447.8
55366.9
55169.8
54941.1
51780.2
58654.6
58267
57276.6
57125.2
56893.5
52376
59550.3
59339.4
58459.8
58387.9
58197.4
26626
27761.3
26862.8
26068.5
25854.4
25810.2
36135.6
38267.9
37640.6
37418.2
37917.6
38246.3
42627.7
45950.5
45356.1
45112.8
45580.3
45647.5
46397.3
50866.1
50399.8
50148.1
50494.9
50288.9
48554.1
53824.8
53531.5
53328.3
53598.7
53224.8
49782.5
55534
55418.7
55306.4
55585.1
55147.5
50488.2
56476.4
56522.5
56518.5
56856.4
56425.2
25111.4
25950.6
25207.2
24996
25459.3
25722
34676.8
36447.8
36347
37403.4
38765.7
39154.5
41560.4
44290
44548.7
45825.4
46972.9
46775.7
45619.8
49340.3
49633.1
50760.4
51635
51035.8
47996.5
52407.8
52670.6
53680.1
54391.5
53569.5
49376.9
54203.7
54525.4
55472.4
56103.6
55170.4
50174.9
55193.2
55640.2
56618.6
57235.5
56259
26016.5
26743.1
25887.3
25611.3
25872.8
25988.2
36643.6
37981.9
37807.6
38637
39645.2
39606.7
43888.6
46028.9
46139.6
47201.9
47991.8
47180.2
47756.1
50749.6
51020.2
52165.4
52747.2
51422.2
49845.9
53440.5
53788.2
54966.7
55426.6
53817.5
50995.8
54999.6
55377.9
56570.8
56969.8
55215
51708.9
55917.2
56329.1
57521.1
57891.5
56066.6
25118.5
27948.2
25752
24202.4
23652.2
23501.4
37784.7
40631.5
38185.8
37239.8
37238
36758.7
46387.5
49127.8
46923.8
46370.3
46281.8
44838
50896.6
53890.1
52117.8
51894.9
51666
49493.3
53217.5
56465.7
55019.6
55037.7
54726.4
52113.8
54429
57846.8
56599.8
56780
56442.1
53587.4
55089.8
58607.4
57436.7
57711.5
57377.9
54402.1
21699.1
26972.3
22960.5
20050
18831.5
18763.5
35955
41084.3
35395.1
32120
31308
31179.3
46519.2
50852.5
44780.1
41533.4
40877.1
39800
52454.1
56476.1
50711.6
47626.7
46905.8
44931.5
55631.6
59532.6
54152.6
51230.5
50417.6
47838.4
57336.4
61134.8
56066.1
53289.3
52424.5
49473.5
58246.5
61919.8
57072.6
54426
53549.4
50374.6
18091.5
24676.9
18683.8
14949.8
13567.7
13739.6
32384.8
39850.5
30261.8
24999.9
23954.7
24813.9
44049.9
50555.7
39674.8
33862.1
33445.5
33931.2
50768.5
56796.6
45848.9
39971.6
39878.7
39636.6
54339
60221.2
49488.8
43668.4
43677.8
42887.1
56238
62040.1
51545.5
45807.9
45849.4
44713
57242
62942.1
52664.9
47020.9
47078
45725.2
15818.2
22042.8
14672.2
10740
9566.37
9781.04
29253
37748.9
25162.7
18430.3
17305
18758.8
41102.4
48833.8
34413.5
26506.4
26159.2
28034.7
48154
55249.8
40636.5
32618.7
32928.5
34433.7