/*--------------------------------*- C++ -*----------------------------------*\
| =========                 |                                                 |
| \\      /  F ield         | OpenFOAM: The Open Source CFD Toolbox           |
|  \\    /   O peration     | Version:  2206                                  |
|   \\  /    A nd           | Website:  www.openfoam.com                      |
|    \\/     M anipulation  |                                                 |
\*---------------------------------------------------------------------------*/
FoamFile
{
    version     2.0;
    format      ascii;
    arch        "LSB;label=32;scalar=64";
    class       volScalarField;
    location    "400";
    object      p;
}
// * * * * * * * * * * * * * * * * * * * * * * * * * * * * * * * * * * * * * //

dimensions      [0 2 -2 0 0 0 0];

internalField   nonuniform List<scalar> 
50904
(
-9.94722
-10.4851
-18.2464
-18.7564
-10.1105
-10.6569
-18.205
-18.715
-10.3288
-10.8866
-18.1699
-18.6828
-10.5523
-11.1303
-18.1856
-18.7076
-10.7736
-11.3758
-18.2452
-18.7897
-11.0244
-11.6614
-18.3067
-18.8966
-11.3537
-12.03
-18.3338
-18.9963
-11.8252
-12.5361
-18.2967
-19.0618
-12.5077
-13.2261
-18.1662
-19.0591
-13.4104
-14.0893
-17.9453
-18.9748
-14.5524
-15.1368
-17.6367
-18.7824
-15.8475
-16.301
-17.2709
-18.4891
-17.0975
-17.4487
-16.923
-18.1566
-18.1307
-18.4629
-16.6893
-17.8829
-18.7291
-19.1589
-16.5576
-17.7146
-18.7222
-19.3296
-16.3505
-17.5047
-18.2207
-19.0404
-16.1042
-17.2316
-17.2948
-18.3165
-15.7796
-16.8757
-16.2416
-17.391
-15.4334
-16.4742
-15.1892
-16.3872
-15.0463
-16.0058
-14.1328
-15.3521
-14.6946
-15.5517
-12.8749
-14.1429
-14.297
-15.0574
-11.4731
-12.83
-13.9167
-14.6414
-10.2347
-11.7059
-13.6141
-14.3551
-9.25026
-10.8431
-13.384
-14.1588
-8.5584
-10.2399
-13.2073
-14.019
-8.10347
-9.83476
-13.0701
-13.9121
-7.79041
-9.56884
-12.9698
-13.8327
-7.55978
-9.39511
-12.8976
-13.776
-7.39871
-9.28559
-12.8452
-13.7369
-7.27576
-9.21282
-12.802
-13.7069
-7.16733
-9.15445
-12.7587
-13.6771
-7.07062
-9.09952
-12.7122
-13.641
-6.98797
-9.04706
-12.6668
-13.6024
-6.91464
-8.99605
-12.6254
-13.5662
-6.85655
-8.95304
-12.592
-13.5369
-14.2945
-14.5458
-12.8065
-13.579
-11.5597
-12.5599
-10.7078
-11.9125
-10.1566
-11.5089
-9.7711
-11.2347
-9.47838
-11.0339
-14.3542
-14.5995
-12.8748
-13.6165
-11.6564
-12.6075
-10.8276
-11.9675
-10.297
-11.5742
-9.92932
-11.3099
-9.65247
-11.1161
-14.4294
-14.6634
-13.0094
-13.6751
-11.851
-12.6776
-11.0841
-12.0588
-10.6101
-11.6953
-10.2884
-11.4647
-10.0509
-11.2956
-14.5251
-14.7413
-13.2478
-13.7841
-12.215
-12.8217
-11.5608
-12.2479
-11.1726
-11.9331
-10.902
-11.7337
-10.6925
-11.569
-14.6781
-14.8768
-13.6113
-13.977
-12.7836
-13.1086
-12.2785
-12.6092
-11.9769
-12.3554
-11.7362
-12.187
-11.5262
-12.0201
-14.9233
-15.1176
-14.1113
-14.2838
-13.5702
-13.5821
-13.2433
-13.1834
-13.0244
-12.9827
-12.7938
-12.8439
-12.5558
-12.6692
-15.2816
-15.5004
-14.7597
-14.7416
-14.5731
-14.272
-14.4475
-13.9986
-14.3035
-13.851
-14.0582
-13.7315
-13.7622
-13.5326
-15.7635
-16.0552
-15.5546
-15.3959
-15.7586
-15.1995
-15.8572
-15.074
-15.7908
-14.9938
-15.5159
-14.8846
-15.1403
-14.6439
-16.3485
-16.7737
-16.4514
-16.2701
-17.0004
-16.354
-17.2865
-16.3776
-17.2611
-16.3591
-16.9288
-16.2502
-16.4503
-15.9548
-16.9521
-17.5608
-17.3583
-17.3101
-18.1876
-17.6859
-18.6524
-17.901
-18.6769
-17.9828
-18.2952
-17.8979
-17.7192
-17.5607
-17.4388
-18.2602
-18.0182
-18.2793
-18.9183
-18.8341
-19.4273
-19.166
-19.4463
-19.301
-19.0121
-19.2247
-18.3549
-18.8444
-17.6381
-18.6794
-18.1944
-18.9512
-18.9421
-19.5632
-19.3465
-19.938
-19.2972
-20.0899
-18.8261
-20.0113
-18.1382
-19.5936
-17.4943
-18.7379
-17.8526
-19.18
-18.1977
-19.653
-18.2969
-19.915
-18.0857
-19.996
-17.5615
-19.8816
-16.8644
-19.4284
-17.1853
-18.5689
-17.3743
-19.0946
-17.3055
-19.3008
-17.1119
-19.3342
-16.7921
-19.2722
-16.3048
-19.1005
-15.7308
-18.6987
-16.9423
-18.3315
-17.2982
-19.0032
-16.9918
-18.9715
-16.5479
-18.7328
-16.1168
-18.4754
-15.6518
-18.2045
-15.1708
-17.8354
-16.7483
-18.0828
-17.4494
-19.0224
-17.2301
-19.0407
-16.7644
-18.7308
-16.3294
-18.3831
-15.9032
-18.0427
-15.5075
-17.6889
-16.5745
-17.8766
-17.5643
-19.0985
-17.6748
-19.4541
-17.3932
-19.3516
-17.0341
-19.0856
-16.6345
-18.7299
-16.2723
-18.3586
-16.4381
-17.6846
-17.5275
-18.9869
-17.9194
-19.5836
-17.8813
-19.6643
-17.6569
-19.5068
-17.3087
-19.2269
-16.956
-18.935
-16.3719
-17.5036
-17.507
-18.8233
-18.0223
-19.5215
-18.1347
-19.7009
-18.0311
-19.6258
-17.7694
-19.435
-17.4018
-19.1773
-16.2914
-17.247
-17.4713
-18.5946
-18.0021
-19.3443
-18.181
-19.6258
-18.1481
-19.6431
-17.9365
-19.5005
-17.603
-19.2577
-16.1784
-16.9324
-17.4117
-18.2793
-17.9344
-19.0196
-18.1318
-19.3367
-18.133
-19.3892
-17.9525
-19.264
-17.6435
-19.0382
-15.9975
-16.5687
-17.2625
-17.8756
-17.7944
-18.6039
-18.0011
-18.938
-18.0069
-19.0081
-17.8241
-18.8918
-17.5537
-18.706
-15.7225
-16.193
-16.9472
-17.402
-17.4984
-18.1268
-17.7231
-18.4775
-17.7393
-18.5631
-17.5562
-18.4581
-17.2553
-18.266
-15.4019
-15.8716
-16.559
-16.9835
-17.1249
-17.708
-17.3622
-18.0707
-17.3787
-18.1635
-17.1928
-18.0669
-16.8744
-17.8777
-15.1063
-15.6329
-16.1833
-16.677
-16.7235
-17.3715
-16.9554
-17.735
-16.9682
-17.8426
-16.7846
-17.7686
-16.4699
-17.6036
-14.8791
-15.4882
-15.9098
-16.5112
-16.3851
-17.167
-16.5835
-17.5146
-16.5912
-17.6328
-16.4273
-17.5835
-16.1451
-17.4481
-14.7309
-15.4145
-15.7503
-16.4633
-16.1643
-17.1102
-16.3251
-17.4495
-16.3335
-17.5763
-16.2044
-17.5517
-15.967
-17.4435
-14.6482
-15.3869
-15.6714
-16.4833
-16.0473
-17.1508
-16.1775
-17.5036
-16.1706
-17.641
-16.0651
-17.6432
-15.8908
-17.5736
-14.6102
-15.3895
-15.6437
-16.5322
-15.9992
-17.2228
-16.1239
-17.6062
-16.1344
-17.7797
-16.0667
-17.8212
-15.9551
-17.7986
-14.5966
-15.4067
-15.6421
-16.5886
-15.9888
-17.2908
-16.1114
-17.6934
-16.1436
-17.8976
-16.1175
-17.9781
-16.0541
-17.9935
-14.5906
-15.4221
-15.6497
-16.6354
-15.9932
-17.3427
-16.1125
-17.7537
-16.1573
-17.9749
-16.1566
-18.0793
-16.1256
-18.1228
-14.5815
-15.4272
-15.6529
-16.662
-15.9963
-17.3708
-16.1111
-17.7846
-16.1588
-18.0128
-16.1743
-18.1312
-16.1632
-18.1879
-14.5649
-15.418
-15.6457
-16.6685
-15.99
-17.3764
-16.1003
-17.79
-16.1467
-18.0197
-16.1694
-18.144
-16.1702
-18.2065
-14.5448
-15.4003
-15.6346
-16.6611
-15.979
-17.3708
-16.0855
-17.7834
-16.13
-18.0123
-16.1509
-18.1367
-16.157
-18.2035
-14.5255
-15.3808
-15.6239
-16.6494
-15.9678
-17.3615
-16.072
-17.7745
-16.1144
-18.0027
-16.1332
-18.1268
-16.1403
-18.1952
-14.509
-15.3637
-15.6147
-16.6381
-15.9583
-17.3528
-16.0609
-17.767
-16.1016
-17.9952
-16.1184
-18.1189
-16.124
-18.1874
-9.21882
-10.8709
-8.99813
-10.7423
-8.82847
-10.6514
-8.6506
-10.5678
-8.40394
-10.4797
-8.02462
-10.4599
-9.40572
-10.9572
-9.19603
-10.8306
-9.02769
-10.7339
-8.84423
-10.6404
-8.57994
-10.5355
-8.15179
-10.465
-9.84428
-11.159
-9.66097
-11.0451
-9.49757
-10.9384
-9.31773
-10.8321
-9.05229
-10.7123
-8.55861
-10.5589
-10.5046
-11.4322
-10.3089
-11.3045
-10.1056
-11.1606
-9.91378
-11.0356
-9.69751
-10.9372
-9.25119
-10.7813
-11.3224
-11.8619
-11.0729
-11.6945
-10.7801
-11.4755
-10.5376
-11.298
-10.3777
-11.2268
-10.121
-11.1926
-12.3055
-12.475
-11.9632
-12.2448
-11.5311
-11.9197
-11.1912
-11.6654
-11.069
-11.6255
-11.0947
-11.8221
-13.4331
-13.2897
-12.9563
-12.9799
-12.3327
-12.5229
-11.8518
-12.1701
-11.7527
-12.1687
-12.1076
-12.6702
-14.7044
-14.341
-14.0573
-13.9396
-13.193
-13.3289
-12.5231
-12.8573
-12.4121
-12.8885
-13.0813
-13.7155
-15.891
-15.5858
-15.0513
-15.0885
-13.9208
-14.3201
-13.0379
-13.7263
-12.8986
-13.7864
-13.8587
-14.9203
-17.0402
-17.134
-16.0138
-16.5502
-14.6195
-15.6354
-13.5096
-14.9167
-13.2853
-14.957
-14.4053
-16.2543
-17.585
-18.3575
-16.4223
-17.6974
-14.8323
-16.6704
-13.5445
-15.8506
-13.2299
-15.8493
-14.4022
-17.1894
-17.3492
-19.0644
-16.1617
-18.3705
-14.5142
-17.3021
-13.1507
-16.4286
-12.7458
-16.3476
-13.8039
-17.5531
-16.1156
-18.8813
-15.0444
-18.2202
-13.5263
-17.2128
-12.2356
-16.3643
-11.7723
-16.1941
-12.5541
-17.1058
-15.0972
-18.2057
-14.1941
-17.606
-12.9578
-16.7578
-11.8832
-16.0256
-11.3931
-15.7749
-11.7038
-16.2389
-14.6885
-17.4449
-14.0415
-16.9893
-13.1163
-16.3327
-12.2804
-15.7382
-11.7996
-15.4247
-11.7092
-15.4486
-15.173
-17.3822
-14.6951
-17.0086
-13.923
-16.4315
-13.1876
-15.8887
-12.6879
-15.5314
-12.4229
-15.3345
-15.9665
-18.0356
-15.463
-17.5878
-14.6768
-16.9421
-13.9526
-16.3442
-13.4846
-15.9404
-13.28
-15.7125
-16.6275
-18.6692
-16.0638
-18.2173
-15.2424
-17.5544
-14.5051
-16.9358
-14.0546
-16.5061
-13.949
-16.2864
-17.0314
-18.9217
-16.4841
-18.4896
-15.6779
-17.8122
-14.9573
-17.1898
-14.5487
-16.8199
-14.5563
-16.7808
-17.2548
-19.0138
-16.725
-18.5747
-15.9465
-17.8602
-15.2552
-17.1987
-14.8762
-16.8212
-14.9461
-16.8799
-17.3251
-18.8359
-16.8278
-18.4446
-16.0816
-17.7549
-15.42
-17.1072
-15.0658
-16.7444
-15.19
-16.8816
-17.2768
-18.5612
-16.7752
-18.202
-16.0371
-17.5395
-15.3918
-16.918
-15.0488
-16.5757
-15.208
-16.7708
-16.9619
-18.1317
-16.4794
-17.8187
-15.7697
-17.2085
-15.1563
-16.6345
-14.8328
-16.3155
-15.006
-16.5215
-16.5754
-17.7516
-16.1114
-17.47
-15.4309
-16.9063
-14.8489
-16.3814
-14.5402
-16.0989
-14.7164
-16.3322
-16.1794
-17.5031
-15.7428
-17.2626
-15.1082
-16.7573
-14.569
-16.2892
-14.2827
-16.05
-14.456
-16.3146
-15.8869
-17.3754
-15.4994
-17.1798
-14.9315
-16.7417
-14.45
-16.3372
-14.1965
-16.1367
-14.3568
-16.4023
-15.7534
-17.3958
-15.4228
-17.2407
-14.9357
-16.8736
-14.5251
-16.5307
-14.3129
-16.3577
-14.4375
-16.5854
-15.7431
-17.5508
-15.5123
-17.4525
-15.1697
-17.1982
-14.878
-16.9598
-14.7191
-16.8413
-14.7831
-17.0124
-15.8603
-17.8001
-15.7159
-17.7566
-15.4998
-17.611
-15.3178
-17.4821
-15.2184
-17.4313
-15.2521
-17.5796
-15.998
-18.0141
-15.9108
-18.0079
-15.7831
-17.9433
-15.6772
-17.8938
-15.6299
-17.9107
-15.6725
-18.0842
-16.0936
-18.1584
-16.0441
-18.1784
-15.9744
-18.1647
-15.9209
-18.1692
-15.9111
-18.2358
-15.9727
-18.4447
-16.1486
-18.2338
-16.1189
-18.2652
-16.0842
-18.2804
-16.0616
-18.3133
-16.0697
-18.4077
-16.1363
-18.6373
-16.1674
-18.2569
-16.149
-18.2931
-16.134
-18.3229
-16.1259
-18.3664
-16.1366
-18.4671
-16.1899
-18.696
-16.1585
-18.2538
-16.1492
-18.2947
-16.1425
-18.3289
-16.1412
-18.3767
-16.1479
-18.4737
-16.1836
-18.6923
-16.1431
-18.246
-16.1367
-18.287
-16.1331
-18.3234
-16.132
-18.3723
-16.1338
-18.4656
-16.1578
-18.6771
-16.1267
-18.2384
-16.1209
-18.2788
-16.1175
-18.3161
-16.1158
-18.3655
-16.1155
-18.4572
-16.1345
-18.6664
-7.71966
-10.7631
-7.32758
-10.8885
-7.13087
-10.908
-7.01338
-10.917
-6.92364
-10.93
-6.83593
-10.9589
-7.82606
-10.7206
-7.45023
-10.8433
-7.27289
-10.871
-7.16831
-10.8862
-7.08662
-10.9065
-7.00896
-10.9507
-8.19185
-10.7148
-7.86813
-10.8491
-7.74226
-10.9099
-7.6595
-10.9397
-7.58551
-10.9635
-7.534
-11.0307
-8.91418
-10.9004
-8.69968
-11.0886
-8.6131
-11.1724
-8.49017
-11.1706
-8.35058
-11.1453
-8.27178
-11.191
-9.94166
-11.3879
-9.86847
-11.6427
-9.77242
-11.6978
-9.54299
-11.5967
-9.26946
-11.4565
-9.10005
-11.4249
-11.2101
-12.2114
-11.3002
-12.5361
-11.1668
-12.5417
-10.7773
-12.3068
-10.3091
-12.0025
-9.99308
-11.8347
-12.6434
-13.3585
-12.9103
-13.7386
-12.7125
-13.6623
-12.1127
-13.2578
-11.3949
-12.7564
-10.8867
-12.4258
-14.1173
-14.7764
-14.5865
-15.2273
-14.3078
-15.0635
-13.4563
-14.4734
-12.4426
-13.7554
-11.7056
-13.242
-15.3833
-16.3555
-16.0022
-16.8416
-15.604
-16.5575
-14.4736
-15.7648
-13.1447
-14.8241
-12.1722
-14.1233
-16.3215
-17.953
-17.105
-18.4438
-16.6036
-18.0259
-15.2036
-17.0298
-13.5647
-15.8771
-12.3594
-15.0063
-16.5007
-18.9538
-17.328
-19.3591
-16.718
-18.814
-15.1001
-17.6625
-13.2192
-16.3572
-11.837
-15.3721
-15.8422
-19.2262
-16.6425
-19.5853
-15.9738
-18.9863
-14.253
-17.766
-12.2568
-16.3884
-10.7853
-15.3408
-14.1942
-18.4678
-14.793
-18.7246
-14.1104
-18.1318
-12.4559
-16.9624
-10.5348
-15.6396
-9.10039
-14.622
-12.5985
-17.0517
-12.8227
-17.1267
-12.1698
-16.5898
-10.7448
-15.5803
-9.10512
-14.4536
-7.8794
-13.6117
-11.9029
-15.6871
-11.75
-15.5636
-11.1488
-15.1087
-10.0276
-14.3244
-8.77568
-13.4778
-7.89109
-12.9029
-12.3458
-15.2908
-12.039
-15.0671
-11.4631
-14.6526
-10.51
-13.9973
-9.49008
-13.3248
-8.88208
-12.9654
-13.2503
-15.6459
-12.9456
-15.4132
-12.345
-14.9851
-11.3832
-14.3106
-10.3582
-13.6156
-9.75331
-13.2533
-14.0522
-16.2603
-13.7994
-15.9875
-13.1793
-15.4695
-12.1535
-14.6824
-11.0268
-13.8644
-10.2767
-13.3738
-14.7664
-16.9535
-14.5489
-16.7755
-13.9512
-16.273
-12.8668
-15.3978
-11.6753
-14.4856
-10.8868
-13.9329
-15.2838
-17.2471
-15.135
-17.1954
-14.5201
-16.7059
-13.3482
-15.7416
-12.0557
-14.7133
-11.1841
-14.0684
-15.6699
-17.4345
-15.6187
-17.5112
-14.9854
-17.0229
-13.7357
-15.9992
-12.3839
-14.9284
-11.5258
-14.3093
-15.8269
-17.4799
-15.9018
-17.7018
-15.2462
-17.2214
-13.9271
-16.1686
-12.5088
-15.0917
-11.639
-14.5332
-15.6678
-17.2705
-15.8395
-17.5717
-15.2402
-17.1378
-13.988
-16.1564
-12.642
-15.1765
-11.8902
-14.7762
-15.3932
-17.0985
-15.6426
-17.462
-15.119
-17.098
-13.9683
-16.2078
-12.7139
-15.3176
-12.0602
-15.03
-15.1382
-17.0951
-15.4391
-17.4648
-14.9918
-17.1381
-13.9638
-16.3279
-12.8275
-15.5147
-12.2605
-15.2935
-14.9973
-17.1853
-15.3158
-17.5805
-14.9495
-17.2893
-14.0528
-16.5436
-13.0379
-15.7929
-12.5388
-15.6159
-14.9632
-17.296
-15.2388
-17.6914
-14.9426
-17.4673
-14.1716
-16.8268
-13.2899
-16.1754
-12.8656
-16.0468
-15.1167
-17.5561
-15.2754
-17.8728
-15.0306
-17.7047
-14.4058
-17.1889
-13.6711
-16.6516
-13.3262
-16.5739
-15.4203
-17.9628
-15.4016
-18.1112
-15.1936
-17.9842
-14.7524
-17.6239
-14.2281
-17.2404
-13.9826
-17.2022
-15.774
-18.4133
-15.666
-18.4234
-15.4821
-18.3031
-15.1954
-18.0735
-14.8625
-17.8323
-14.6979
-17.8168
-16.0635
-18.7808
-15.9717
-18.7838
-15.8305
-18.6806
-15.6569
-18.5519
-15.4643
-18.4191
-15.3542
-18.405
-16.2235
-18.9889
-16.1927
-19.0612
-16.1208
-19.0055
-16.0304
-18.9494
-15.9254
-18.8885
-15.8538
-18.874
-16.2619
-19.0496
-16.2573
-19.1816
-16.2527
-19.1969
-16.2284
-19.1939
-16.1884
-19.1793
-16.1532
-19.1735
-16.2369
-19.0318
-16.2241
-19.1713
-16.2251
-19.2106
-16.215
-19.2312
-16.2041
-19.2416
-16.1954
-19.2558
-16.1995
-19.0073
-16.1782
-19.1427
-16.17
-19.1791
-16.1616
-19.1966
-16.1506
-19.2095
-16.1406
-19.227
-16.1697
-18.9928
-16.1428
-19.1264
-16.1276
-19.1616
-16.1138
-19.1784
-16.101
-19.1919
-16.0889
-19.209
-6.75598
-11.0112
-6.70621
-11.0837
-6.69972
-11.203
-6.77698
-11.4122
-7.05121
-11.8122
-7.79354
-12.5928
-9.72175
-13.9845
-6.93589
-11.018
-6.88238
-11.097
-6.86365
-11.2169
-6.91528
-11.4216
-7.14777
-11.8091
-7.8342
-12.5702
-9.7207
-13.9612
-7.49572
-11.1381
-7.45408
-11.2409
-7.4243
-11.3682
-7.43661
-11.5681
-7.58266
-11.9272
-8.11382
-12.6169
-9.83609
-13.9768
-8.24071
-11.31
-8.20534
-11.4239
-8.18054
-11.5623
-8.1952
-11.784
-8.29988
-12.151
-8.66628
-12.7752
-10.1349
-14.0831
-9.02156
-11.506
-8.94946
-11.5926
-8.91097
-11.7189
-8.95154
-11.9669
-9.08745
-12.3822
-9.37183
-13.0042
-10.5645
-14.2694
-9.81578
-11.8214
-9.65987
-11.8212
-9.56765
-11.8807
-9.61785
-12.1213
-9.81996
-12.5896
-10.133
-13.2734
-11.0727
-14.5005
-10.5664
-12.293
-10.284
-12.178
-10.1052
-12.1332
-10.148
-12.3175
-10.4222
-12.8021
-10.8602
-13.5647
-11.6351
-14.7511
-11.2064
-12.9644
-10.755
-12.7019
-10.4511
-12.5232
-10.4585
-12.6209
-10.8044
-13.0662
-11.428
-13.867
-12.1862
-15.0264
-11.4857
-13.692
-10.8582
-13.2784
-10.4334
-12.9717
-10.4186
-12.9865
-10.8634
-13.3889
-11.7165
-14.1829
-12.6305
-15.3074
-11.4824
-14.4368
-10.6744
-13.8794
-10.1193
-13.4465
-10.0631
-13.3843
-10.5763
-13.7426
-11.6404
-14.4913
-12.8436
-15.5146
-10.8221
-14.7165
-9.90089
-14.0637
-9.28299
-13.5501
-9.23826
-13.4663
-9.85685
-13.8682
-11.1516
-14.6565
-12.7236
-15.578
-9.70746
-14.6534
-8.77091
-13.9949
-8.1671
-13.4748
-8.165
-13.3914
-8.87218
-13.8078
-10.3451
-14.6079
-12.2507
-15.461
-8.07527
-13.9912
-7.26979
-13.4515
-6.79322
-13.0341
-6.89758
-13.0274
-7.71805
-13.4937
-9.35654
-14.3206
-11.5265
-15.1619
-7.0198
-13.1145
-6.39654
-12.7192
-6.08719
-12.4655
-6.27075
-12.5776
-7.07514
-13.0988
-8.65912
-13.9327
-10.8484
-14.7451
-7.28551
-12.5925
-6.84333
-12.3497
-6.66562
-12.2544
-6.84608
-12.4454
-7.49332
-12.9474
-8.78428
-13.6965
-10.6325
-14.443
-8.50941
-12.8206
-8.14821
-12.6438
-7.97914
-12.5821
-8.09904
-12.7541
-8.58352
-13.17
-9.57303
-13.7961
-11.0198
-14.4784
-9.44514
-13.139
-9.11469
-12.9638
-8.90585
-12.8588
-8.98273
-12.9775
-9.40193
-13.3269
-10.2707
-13.907
-11.5629
-14.6662
-9.9127
-13.2054
-9.58884
-13.0281
-9.33985
-12.893
-9.39897
-13.0078
-9.82269
-13.3485
-10.7164
-13.9658
-12.0657
-14.9261
-10.323
-13.5922
-9.82273
-13.2671
-9.60085
-13.1132
-9.69569
-13.1805
-10.1533
-13.4837
-11.1216
-14.1774
-12.5654
-15.3342
-10.6071
-13.6851
-10.1251
-13.3424
-9.86627
-13.1293
-9.91627
-13.1556
-10.3391
-13.503
-11.3075
-14.3036
-12.9099
-15.6785
-10.975
-13.9525
-10.4851
-13.6117
-10.1893
-13.3887
-10.208
-13.4167
-10.612
-13.7674
-11.5843
-14.6188
-13.3312
-16.1728
-11.2473
-14.2966
-10.8923
-14.045
-10.5126
-13.7974
-10.4565
-13.8099
-10.8243
-14.1525
-11.7874
-14.9994
-13.6682
-16.6769
-11.4385
-14.5405
-10.9457
-14.2212
-10.5586
-14.0208
-10.5557
-14.123
-10.9999
-14.5795
-12.0692
-15.5471
-14.0862
-17.3354
-11.6011
-14.829
-11.063
-14.5005
-10.7116
-14.329
-10.7726
-14.4776
-11.2886
-15.0112
-12.4334
-16.0982
-14.5675
-18.0163
-11.8589
-15.1513
-11.3668
-14.8626
-11.0783
-14.7284
-11.1948
-14.9236
-11.758
-15.5334
-12.9098
-16.7037
-15.082
-18.7147
-12.2084
-15.5414
-11.7932
-15.3131
-11.577
-15.2288
-11.745
-15.4739
-12.3336
-16.1401
-13.4143
-17.3275
-15.5207
-19.3437
-12.6173
-16.0299
-12.2907
-15.8565
-12.1459
-15.8161
-12.351
-16.091
-12.9352
-16.7733
-13.8553
-17.8918
-15.8299
-19.8436
-13.1483
-16.61
-12.9035
-16.4869
-12.8177
-16.4625
-13.0351
-16.7353
-13.5478
-17.3844
-14.2278
-18.39
-16.0491
-20.2453
-13.8702
-17.2675
-13.7002
-17.1991
-13.6423
-17.1978
-13.8087
-17.4333
-14.133
-17.9679
-14.5104
-18.8108
-16.16
-20.5293
-14.6192
-17.8787
-14.4953
-17.8448
-14.4345
-17.8593
-14.5159
-18.0475
-14.5729
-18.4318
-14.6746
-19.1233
-16.1842
-20.7035
-15.2868
-18.4374
-15.1839
-18.4111
-15.1004
-18.4205
-15.0683
-18.5386
-14.8375
-18.7608
-14.7341
-19.3353
-16.1506
-20.8019
-15.7909
-18.8786
-15.7023
-18.855
-15.5888
-18.8476
-15.4263
-18.8827
-14.9363
-18.9643
-14.7115
-19.4605
-16.077
-20.8411
-16.1109
-19.1711
-16.0408
-19.149
-15.9016
-19.1181
-15.6032
-19.0829
-14.904
-19.0592
-14.6442
-19.5242
-15.9917
-20.8483
-16.172
-19.2655
-16.1283
-19.2588
-16.0035
-19.2262
-15.6196
-19.1443
-14.8031
-19.0734
-14.5387
-19.5282
-15.9067
-20.8359
-16.1093
-19.238
-16.0632
-19.2434
-15.9415
-19.2206
-15.5284
-19.1291
-14.6789
-19.0493
-14.433
-19.5081
-15.8307
-20.8181
-16.0537
-19.2172
-16.0016
-19.2203
-15.8689
-19.1955
-15.4365
-19.1002
-14.5773
-19.0205
-14.3497
-19.4853
-15.7716
-20.8009
-10.551
-14.3465
-11.1139
-14.2307
-10.3614
-13.1585
-12.0705
-15.1103
-10.5353
-14.3238
-11.1005
-14.2175
-10.3402
-13.1395
-12.098
-15.1333
-10.5758
-14.3206
-11.1143
-14.2283
-10.3195
-13.1229
-12.1448
-15.1756
-10.7225
-14.3761
-11.1834
-14.2895
-10.306
-13.1106
-12.2119
-15.2395
-10.952
-14.4815
-11.3005
-14.3807
-10.3057
-13.0915
-12.3011
-15.32
-11.2442
-14.6224
-11.4567
-14.4833
-10.3178
-13.06
-12.4288
-15.418
-11.6015
-14.7964
-11.6361
-14.6069
-10.3218
-13.0206
-12.5856
-15.5266
-11.9894
-15.0049
-11.8345
-14.7585
-10.3219
-12.9789
-12.7704
-15.648
-12.352
-15.2207
-12.0561
-14.9206
-10.3585
-12.9375
-12.9868
-15.7672
-12.6041
-15.389
-12.2679
-15.0696
-10.4524
-12.9069
-13.2551
-15.8772
-12.6581
-15.4475
-12.4015
-15.1572
-10.5953
-12.8965
-13.5422
-15.9403
-12.4647
-15.3642
-12.3991
-15.1354
-10.7685
-12.9382
-13.8144
-15.9643
-12.0576
-15.1396
-12.2431
-14.98
-10.9434
-13.056
-14.0237
-15.9835
-11.6862
-14.8595
-12.0843
-14.792
-11.1834
-13.2841
-14.1205
-16.0177
-11.57
-14.6707
-12.0288
-14.6719
-11.5353
-13.6254
-14.1834
-16.1493
-11.9523
-14.8479
-12.3911
-14.9245
-12.0477
-14.1678
-14.4238
-16.5752
-12.5403
-15.2556
-12.9709
-15.4496
-12.6643
-14.8841
-14.7669
-17.22
-13.098
-15.7395
-13.5667
-16.0824
-13.2782
-15.6703
-15.241
-17.9899
-13.6381
-16.3249
-14.2096
-16.8796
-13.8607
-16.5107
-15.8599
-18.889
-14.0142
-16.7885
-14.6459
-17.5033
-14.1877
-17.1029
-16.4816
-19.828
-14.4783
-17.3744
-15.1947
-18.255
-14.4806
-17.6895
-17.1275
-20.7612
-14.8528
-17.9475
-15.7012
-19.0014
-14.6223
-18.1363
-17.7654
-21.7067
-15.2276
-18.5904
-16.3584
-19.9597
-14.6522
-18.4569
-18.5226
-22.8604
-15.5846
-19.2022
-16.924
-20.8455
-14.4904
-18.5646
-19.0378
-23.7469
-15.9136
-19.7816
-17.3076
-21.5599
-14.2531
-18.5512
-19.2262
-24.2269
-16.1664
-20.263
-17.4948
-22.043
-14.02
-18.4755
-19.1541
-24.3409
-16.3336
-20.6217
-17.5058
-22.2693
-13.8544
-18.4181
-18.8784
-24.1228
-16.4352
-20.885
-17.4024
-22.3015
-13.754
-18.3907
-18.4654
-23.6645
-16.4475
-21.0526
-17.2087
-22.2166
-13.6662
-18.3518
-17.9943
-23.114
-16.4085
-21.1418
-16.9998
-22.0728
-13.6021
-18.3186
-17.5309
-22.5799
-16.3379
-21.1753
-16.7995
-21.9102
-13.563
-18.3016
-17.117
-22.1316
-16.2541
-21.1729
-16.623
-21.7566
-13.5383
-18.2952
-16.761
-21.7789
-16.1668
-21.1554
-16.4858
-21.6347
-13.5179
-18.2879
-16.4814
-21.5207
-16.0922
-21.1312
-16.3732
-21.5432
-13.4916
-18.2714
-16.272
-21.3289
-16.028
-21.1081
-16.281
-21.4731
-13.4615
-18.2499
-16.1095
-21.1786
-15.9766
-21.0862
-16.2116
-21.4193
-13.4344
-18.2279
-15.993
-21.067
-30.6957
-30.0566
9.63374
12.9003
-63.4621
-70.189
-30.5919
-29.9362
9.47332
12.7046
-63.4128
-70.1386
-30.4486
-29.7795
9.24453
12.4309
-63.3765
-70.1086
-30.2844
-29.6028
8.91379
12.0394
-63.3778
-70.1228
-30.0984
-29.4065
8.40974
11.452
-63.4087
-70.1656
-29.9241
-29.2149
7.72823
10.661
-63.4792
-70.2349
-29.7582
-29.0253
6.88205
9.70021
-63.6128
-70.3646
-29.5989
-28.8399
5.89773
8.58234
-63.8489
-70.6156
-29.3801
-28.5876
4.78734
7.29353
-64.3142
-71.0871
-29.0168
-28.1737
3.59011
5.88083
-65.2006
-71.9267
-28.3283
-27.4254
2.24864
4.34946
-66.7148
-73.3318
-27.2212
-26.2104
0.691707
2.57824
-69.0057
-75.445
-25.7359
-24.4524
-1.2174
0.349115
-71.997
-77.9694
-23.8735
-22.0992
-3.50188
-1.60515
-75.1842
-80.2567
-21.6767
-19.3179
-4.08747
-0.84944
-78.1312
-82.1165
-19.5089
-16.6921
-0.625841
4.08363
-81.4375
-84.6992
-17.3214
-14.1211
4.97344
10.7813
-82.8607
-85.5663
-15.2542
-11.7825
10.8738
17.3095
-82.21
-84.6
-13.6783
-10.0641
16.3589
22.9421
-81.4106
-83.4495
-12.4363
-8.71846
20.8648
27.1653
-81.2805
-82.8565
-11.3798
-7.47406
24.5358
30.3789
-81.787
-82.9195
-10.6149
-6.45057
28.2362
33.6231
-83.3731
-83.9736
-10.5351
-6.03572
32.8662
37.8638
-87.1236
-87.1314
-10.4727
-5.64283
36.9558
41.5741
-90.4759
-90.1115
-10.081
-5.00502
39.947
44.1062
-92.8509
-92.3329
-9.39238
-4.25325
41.8405
45.5549
-94.54
-94.0463
-8.53578
-3.48074
42.8706
46.1512
-95.7577
-95.4147
-7.62965
-2.68699
43.1912
45.9619
-96.7118
-96.5555
-6.7712
-1.91807
42.9184
45.211
-97.4047
-97.4635
-5.99909
-1.21933
42.2293
44.1893
-97.8681
-98.1942
-5.32302
-0.596793
41.3745
43.1541
-98.2709
-98.8394
-4.73227
-0.0361586
40.5507
42.262
-98.6795
-99.3795
-4.22712
0.46041
39.893
41.6195
-99.0257
-99.7886
-3.81906
0.870394
39.4481
41.2126
-99.2666
-100.073
-3.49254
1.20037
39.1377
40.9193
-99.4224
-100.249
-3.25813
1.43606
38.9204
40.7011
-99.5212
-100.353
-36.6221
14.1892
-11.1613
-7.0748
-10.0977
-9.64466
-39.4514
13.1056
-20.5954
-12.9667
-16.9643
-16.6223
-36.5946
13.9906
-11.1926
-7.19668
-10.2317
-9.80607
-39.3864
13.098
-20.4668
-12.918
-16.9157
-16.5932
-36.5798
13.7608
-11.2265
-7.34121
-10.4012
-10.0118
-39.2061
13.1819
-20.2504
-12.809
-16.8384
-16.5592
-36.6092
13.5747
-11.2422
-7.46114
-10.5645
-10.2142
-38.8228
13.4611
-19.9276
-12.6009
-16.7448
-16.5422
-36.7197
13.4334
-11.2148
-7.55126
-10.716
-10.4109
-38.2955
13.9293
-19.4766
-12.3115
-16.6282
-16.5326
-36.9264
13.2738
-11.1602
-7.64626
-10.8964
-10.6434
-37.7718
14.5203
-18.8957
-11.9634
-16.461
-16.5093
-37.2512
13.0284
-11.1043
-7.78026
-11.1372
-10.955
-37.3308
15.1801
-18.1809
-11.5302
-16.2181
-16.451
-37.6903
12.601
-11.0907
-8.01385
-11.4947
-11.4229
-37.0671
15.833
-17.3626
-11.0291
-15.8977
-16.3475
-38.1762
11.8499
-11.1252
-8.40576
-12.0166
-12.1251
-37.2384
16.3321
-16.4884
-10.5223
-15.4984
-16.1896
-38.4739
10.5667
-11.1752
-8.9912
-12.6663
-13.045
-38.1541
16.3708
-15.5417
-10.0885
-15.0301
-15.9904
-38.2107
8.41351
-11.2326
-9.81501
-13.4121
-14.1705
-39.7976
15.3838
-14.4727
-9.82862
-14.5215
-15.7633
-37.1244
5.10548
-11.254
-10.7963
-14.186
-15.4053
-41.3518
12.8199
-13.2628
-9.77127
-14.0035
-15.5313
-34.8161
1.02639
-11.2127
-11.6419
-14.8285
-16.5133
-41.5402
8.55708
-12.0124
-9.81184
-13.5184
-15.321
-30.562
-2.74892
-10.9848
-12.1014
-15.1295
-17.2764
-39.5552
3.22218
-10.6373
-9.73402
-13.034
-15.1362
-25.1525
-5.38161
-11.1088
-12.4072
-15.1183
-17.5662
-36.1613
-1.34784
-10.0259
-9.75017
-12.6876
-14.9644
-20.2601
-6.66719
-11.4526
-12.5782
-14.8461
-17.3222
-31.8632
-3.75807
-10.4371
-10.094
-12.5719
-14.7594
-16.1679
-7.24379
-11.4341
-12.3512
-14.2378
-16.6393
-27.388
-5.32644
-11.2813
-10.7396
-12.6369
-14.5638
-12.759
-7.20646
-10.8089
-11.5967
-13.2731
-15.585
-23.3905
-6.42061
-12.0431
-11.3818
-12.7555
-14.3438
-10.0328
-6.7356
-9.85223
-10.604
-12.2774
-14.4773
-20.3338
-6.94926
-12.5178
-11.8321
-12.874
-14.1466
-8.08266
-6.00341
-8.78342
-9.56769
-11.2712
-13.4106
-18.1972
-7.10127
-12.7679
-12.0182
-13.0176
-13.9344
-7.05152
-5.11517
-7.64746
-8.50782
-10.2006
-12.2842
-17.0531
-6.90206
-12.9086
-12.0731
-13.2028
-13.7722
-7.03112
-3.98961
-6.41193
-7.21286
-8.97595
-10.9057
-17.2201
-6.13737
-12.9487
-12.0181
-13.2639
-13.6013
-7.76145
-2.78297
-5.3534
-5.76206
-7.74742
-9.38184
-18.8441
-4.84797
-12.9208
-11.8102
-13.2555
-13.4002
-8.5719
-1.73449
-4.59638
-4.45637
-6.74472
-8.1239
-20.8842
-3.42094
-12.726
-11.4799
-13.2349
-13.1914
-9.16067
-0.817291
-4.06289
-3.38358
-5.931
-7.18056
-22.4276
-2.10586
-12.2567
-11.0566
-13.1413
-12.9967
-9.47815
-0.0131596
-3.65683
-2.58389
-5.27177
-6.47802
-23.2341
-1.04833
-11.5376
-10.6101
-12.9999
-12.8489
-9.56081
0.623796
-3.3417
-2.04112
-4.73842
-5.94628
-23.385
-0.203202
-10.7435
-10.1895
-12.8369
-12.7269
-9.48281
1.01599
-3.11368
-1.70118
-4.29887
-5.55574
-23.0879
0.427189
-10.0794
-9.82464
-12.6479
-12.6094
-9.31929
1.17225
-2.96081
-1.50396
-3.93132
-5.26707
-22.6467
0.788524
-9.62131
-9.53167
-12.4388
-12.4909
-9.05559
1.18296
-2.86436
-1.40101
-3.63091
-5.05666
-22.1515
0.91425
-9.33772
-9.31676
-12.2368
-12.3794
-8.70713
1.1413
-2.80593
-1.35385
-3.39447
-4.89716
-21.4682
0.901269
-9.16258
-9.16717
-12.0601
-12.2833
-8.40236
1.09952
-2.77285
-1.33991
-3.22386
-4.76986
-20.6769
0.826292
-9.04114
-9.06434
-11.9182
-12.2026
-8.22507
1.07576
-2.75477
-1.34236
-3.11911
-4.66808
-20.0836
0.742032
-8.94151
-8.98969
-11.8092
-12.132
-8.14768
1.06657
-2.74421
-1.3505
-3.06335
-4.59005
-19.7748
0.676698
-8.85378
-8.92993
-11.7268
-12.0728
-8.1156
1.0671
-2.73666
-1.35842
-3.03093
-4.52666
-19.6131
0.63538
-8.77465
-8.87882
-11.6622
-12.0236
-8.09854
1.07222
-2.73038
-1.36233
-3.00901
-4.47862
-19.5168
0.613307
-8.71144
-8.83926
-11.6145
-11.9854
-36.0533
15.9032
-21.1914
-10.0298
-14.2915
-12.5678
-33.8893
17.9215
-18.9819
-4.82051
-10.5579
-8.93831
-29.4451
20.027
-15.5893
-1.63536
-7.99491
-6.79399
-27.1573
21.116
-13.4526
0.36128
-6.27437
-5.4102
-25.956
21.6679
-12.1168
1.59792
-5.17017
-4.5332
-25.3294
21.9766
-11.2715
2.39435
-4.42653
-3.93843
-24.9686
22.1715
-10.7121
2.94251
-3.88946
-3.5027
-36.0177
15.8781
-21.1574
-10.0766
-14.3379
-12.6418
-33.9637
17.839
-19.0256
-4.91383
-10.6458
-9.04294
-29.6329
19.8869
-15.7046
-1.77795
-8.12778
-6.9382
-27.3634
20.9461
-13.6097
0.177051
-6.44673
-5.58838
-26.1479
21.4827
-12.3027
1.37967
-5.37751
-4.74264
-25.4989
21.7744
-11.4826
2.14128
-4.66564
-4.17419
-25.1319
21.962
-10.9428
2.66297
-4.15563
-3.76055
-35.7678
15.9846
-20.9926
-10.0181
-14.3275
-12.7081
-33.934
17.7582
-18.9739
-4.93099
-10.707
-9.19482
-29.8885
19.6203
-15.8079
-1.9091
-8.28274
-7.18334
-27.6988
20.5598
-13.8302
-0.0662106
-6.69871
-5.9232
-26.4621
21.0304
-12.5987
1.04568
-5.71451
-5.15415
-25.7543
21.2503
-11.8358
1.73088
-5.06785
-4.64486
-25.3281
21.4124
-11.321
2.21117
-4.60426
-4.27945
-35.1844
16.3189
-20.6328
-9.76031
-14.2163
-12.7462
-33.7215
17.6941
-18.7836
-4.80277
-10.7357
-9.41187
-30.1912
19.2115
-15.881
-1.97554
-8.49326
-7.5807
-28.1045
19.9481
-14.1078
-0.3319
-7.07844
-6.47726
-26.8422
20.2966
-13.0078
0.628106
-6.22754
-5.8241
-26.1175
20.3908
-12.3405
1.21483
-5.66856
-5.38516
-25.7439
20.5238
-11.8554
1.673
-5.24685
-5.05945
-34.3529
16.8351
-20.1358
-9.37213
-14.0657
-12.8062
-33.3328
17.6507
-18.5092
-4.6345
-10.7971
-9.73785
-30.55
18.6711
-15.9572
-2.04657
-8.83589
-8.177
-28.6139
19.1488
-14.4635
-0.641441
-7.6492
-7.27354
-27.3357
19.359
-13.5524
0.140511
-6.94654
-6.73821
-26.6004
19.3122
-13.0173
0.619049
-6.45985
-6.34554
-26.302
19.4347
-12.5517
1.05777
-6.04263
-6.02718
-33.4067
17.4778
-19.5608
-8.95436
-13.9372
-12.9397
-32.843
17.6797
-18.2016
-4.53439
-10.9477
-10.2079
-30.9179
18.1052
-16.0613
-2.23339
-9.36479
-8.99783
-29.2254
18.2498
-14.8815
-1.07063
-8.44921
-8.32052
-27.9213
18.2868
-14.2108
-0.449599
-7.89282
-7.89315
-27.152
18.0822
-13.8514
-0.0442457
-7.45051
-7.51794
-26.9328
18.1882
-13.398
0.455583
-6.99704
-7.17282
-32.4415
18.2065
-18.9242
-8.56778
-13.8702
-13.1835
-32.3093
17.8282
-17.9078
-4.57023
-11.2348
-10.8509
-31.1164
17.6086
-16.2519
-2.62079
-10.1148
-10.05
-29.7307
17.339
-15.3928
-1.70022
-9.50213
-9.61223
-28.4204
17.1645
-14.9565
-1.20312
-9.08371
-9.27572
-27.6297
16.8526
-14.7325
-0.827737
-8.64798
-8.8809
-27.5268
17.0247
-14.224
-0.251537
-8.11303
-8.47029
-31.6322
18.9553
-18.2574
-8.28583
-13.9015
-13.5643
-31.7573
18.1193
-17.6884
-4.81622
-11.7051
-11.6824
-30.8475
17.2799
-16.5921
-3.30575
-11.1052
-11.3091
-29.6548
16.5601
-16.0843
-2.63526
-10.8272
-11.1156
-28.3443
16.0391
-15.8835
-2.25729
-10.5343
-10.8547
-27.4205
15.549
-15.7688
-1.86426
-10.0596
-10.4069
-27.4377
15.8678
-15.1288
-1.12891
-9.38784
-9.89565
-31.3137
19.596
-17.6261
-8.21827