/*--------------------------------*- C++ -*----------------------------------*\
| =========                 |                                                 |
| \\      /  F ield         | OpenFOAM: The Open Source CFD Toolbox           |
|  \\    /   O peration     | Version:  2206                                  |
|   \\  /    A nd           | Website:  www.openfoam.com                      |
|    \\/     M anipulation  |                                                 |
\*---------------------------------------------------------------------------*/
FoamFile
{
    version     2.0;
    format      ascii;
    arch        "LSB;label=32;scalar=64";
    class       surfaceScalarField;
    location    "400";
    object      phi;
}
// * * * * * * * * * * * * * * * * * * * * * * * * * * * * * * * * * * * * * //

dimensions      [0 3 -1 0 0 0 0];

oriented        oriented;

internalField   nonuniform List<scalar> 
146294
(
1.09345e-08
1.64086e-08
-2.40758e-08
1.24867e-08
-1.25891e-08
1.28474e-08
-2.54743e-08
1.34491e-08
1.00199e-08
2.74203e-09
4.24624e-09
1.4267e-08
-4.87268e-09
4.73659e-09
9.54033e-09
1.2897e-09
3.50397e-08
4.51886e-08
-6.78204e-08
1.01983e-08
-4.23525e-08
3.35993e-08
-7.24546e-08
1.6543e-08
3.12438e-08
1.10209e-08
3.0929e-09
5.26859e-08
-1.73621e-08
4.91764e-09
3.81858e-08
6.21002e-09
5.38661e-08
6.77123e-08
-1.02983e-07
-1.86364e-08
-6.65708e-08
4.88426e-08
-1.09022e-07
-4.65678e-09
4.63474e-08
1.80272e-08
-4.24394e-09
8.43189e-08
-2.73142e-08
-1.50732e-09
6.23901e-08
1.0902e-08
6.9127e-08
9.14906e-08
-1.20869e-07
-5.46522e-08
-8.72853e-08
6.5494e-08
-1.29932e-07
-3.3626e-08
5.78001e-08
2.47912e-08
-1.58474e-08
1.15441e-07
-3.71314e-08
-1.26919e-08
8.5772e-08
1.5674e-08
8.56851e-08
1.20679e-07
-1.28747e-07
-8.8164e-08
-1.10282e-07
8.63547e-08
-1.40763e-07
-5.95334e-08
6.98432e-08
3.26748e-08
-3.08855e-08
1.51785e-07
-4.87526e-08
-2.78112e-08
1.12779e-07
2.13729e-08
1.05156e-07
1.57441e-07
-1.31908e-07
-1.21596e-07
-1.37737e-07
1.12805e-07
-1.48391e-07
-8.37252e-08
8.34819e-08
4.23002e-08
-4.90927e-08
1.96427e-07
-6.30901e-08
-4.68941e-08
1.45732e-07
2.84311e-08
1.2994e-07
2.06208e-07
-1.35547e-07
-1.5951e-07
-1.73129e-07
1.48001e-07
-1.57018e-07
-1.09517e-07
1.00172e-07
5.4503e-08
-7.01831e-08
2.54327e-07
-8.1554e-08
-7.00954e-08
1.88351e-07
3.73564e-08
1.59692e-07
2.67888e-07
-1.4687e-07
-1.99812e-07
-2.16498e-07
1.92286e-07
-1.73714e-07
-1.35108e-07
1.19112e-07
6.91787e-08
-9.47359e-08
3.27694e-07
-1.04458e-07
-9.8237e-08
2.41832e-07
4.77487e-08
1.94193e-07
3.4231e-07
-1.7673e-07
-2.39419e-07
-2.67386e-07
2.4567e-07
-2.06984e-07
-1.57584e-07
1.39404e-07
8.57545e-08
-1.24262e-07
4.1739e-07
-1.31341e-07
-1.32882e-07
3.07363e-07
5.87015e-08
2.28653e-07
4.28325e-07
-2.34156e-07
-2.77561e-07
-3.21998e-07
3.04527e-07
-2.63441e-07
-1.74853e-07
1.55454e-07
1.01294e-07
-1.62495e-07
5.26035e-07
-1.60793e-07
-1.76742e-07
3.83283e-07
6.63863e-08
2.63499e-07
5.32866e-07
-3.33594e-07
-3.16981e-07
-3.80035e-07
3.76075e-07
-3.55423e-07
-1.87116e-07
1.66542e-07
1.14706e-07
-2.12717e-07
6.59734e-07
-1.91382e-07
-2.33478e-07
4.78985e-07
6.85296e-08
2.82669e-07
6.68138e-07
-4.83462e-07
-3.75102e-07
-4.25781e-07
4.65344e-07
-4.9169e-07
-2.01683e-07
1.55362e-07
1.16942e-07
-2.82316e-07
8.37529e-07
-2.16737e-07
-3.09946e-07
6.05233e-07
5.35294e-08
2.25543e-07
8.15384e-07
-6.67886e-07
-4.76979e-07
-3.79467e-07
5.52875e-07
-6.64039e-07
-2.30398e-07
7.55026e-08
7.73163e-08
-3.79598e-07
1.03533e-06
-1.99969e-07
-4.11626e-07
7.38058e-07
-6.15705e-09
-3.42635e-09
1.07406e-06
-8.31207e-07
-7.91801e-07
-1.15387e-07
7.09577e-07
-8.48175e-07
-3.83287e-07
-1.45459e-07
-6.66226e-08
-5.03744e-07
1.32876e-06
-6.38869e-08
-5.4478e-07
9.39223e-07
-1.63064e-07
-6.10701e-07
1.59795e-06
-8.1601e-07
-1.65515e-06
6.5286e-07
1.03122e-06
-9.43509e-07
-9.07222e-07
-6.39227e-07
-4.48379e-07
-6.17409e-07
1.77494e-06
3.85135e-07
-6.95767e-07
1.23455e-06
-5.00627e-07
-1.35804e-06
2.19884e-06
-5.55997e-07
-2.73207e-06
1.63143e-06
1.45575e-06
-8.46493e-07
-1.7378e-06
-1.17286e-06
-9.26095e-07
-6.30417e-07
2.11392e-06
1.02411e-06
-7.87762e-07
1.47104e-06
-8.49287e-07
-2.07072e-06
3.01214e-06
-1.52782e-07
-3.89432e-06
2.54985e-06
2.09828e-06
-6.08702e-07
-2.73478e-06
-1.67187e-06
-1.41595e-06
-5.48756e-07
2.65576e-06
1.69073e-06
-8.08149e-07
1.88754e-06
-1.18473e-06
-2.68121e-06
3.85768e-06
2.5981e-07
-4.93672e-06
3.34782e-06
2.82058e-06
-3.2623e-07
-3.7022e-06
-2.08189e-06
-1.86541e-06
-4.24488e-07
3.29984e-06
2.29902e-06
-7.81294e-07
2.4189e-06
-1.4905e-06
-3.2751e-06
4.58804e-06
5.51649e-07
-5.74974e-06
4.14522e-06
3.49879e-06
-1.20772e-07
-4.52832e-06
-2.45084e-06
-2.20397e-06
-3.24815e-07
3.93977e-06
2.75257e-06
-7.29981e-07
2.98434e-06
-1.74076e-06
-3.92068e-06
5.19315e-06
6.36535e-07
-6.36625e-06
5.00916e-06
4.04649e-06
-5.46841e-08
-5.21399e-06
-2.81903e-06
-2.44469e-06
-2.97241e-07
4.54588e-06
3.06436e-06
-7.23111e-07
3.53809e-06
-1.9431e-06
-4.54637e-06
5.73652e-06
4.56022e-07
-6.8543e-06
5.84507e-06
4.52351e-06
-1.86521e-07
-5.77419e-06
-3.16356e-06
-2.63809e-06
-3.34781e-07
5.10238e-06
3.30973e-06
-7.53159e-07
4.03893e-06
-2.1234e-06
-5.02796e-06
6.25486e-06
3.94743e-08
-7.27609e-06
6.46606e-06
4.94823e-06
-4.80032e-07
-6.2438e-06
-3.43856e-06
-2.8684e-06
-4.27925e-07
5.62346e-06
3.59283e-06
-8.36166e-07
4.50098e-06
-2.33811e-06
-4.20619e-06
5.37449e-06
-3.52624e-07
-6.12972e-06
5.35398e-06
4.28137e-06
-7.5415e-07
-5.32652e-06
-2.88655e-06
-2.48276e-06
-5.00196e-07
4.83968e-06
3.08975e-06
-8.78374e-07
3.89067e-06
-2.0498e-06
-3.42278e-06
4.55467e-06
-6.14131e-07
-5.14639e-06
4.27617e-06
3.63521e-06
-9.22956e-07
-4.50062e-06
-2.38834e-06
-2.08078e-06
-5.18507e-07
4.0926e-06
2.56094e-06
-8.62234e-07
3.28758e-06
-1.7493e-06
-2.7334e-06
3.82162e-06
-7.42867e-07
-4.28602e-06
3.32697e-06
3.04262e-06
-9.79474e-07
-3.76097e-06
-1.95814e-06
-1.70331e-06
-4.96622e-07
3.43207e-06
2.07093e-06
-8.02335e-07
2.74113e-06
-1.46159e-06
-2.13083e-06
3.13205e-06
-7.43343e-07
-3.5103e-06
2.50954e-06
2.48478e-06
-9.38348e-07
-3.0805e-06
-1.57619e-06
-1.35077e-06
-4.43657e-07
2.81009e-06
1.61951e-06
-7.12746e-07
2.23039e-06
-1.18599e-06
-1.69069e-06
2.61214e-06
-6.59059e-07
-2.92348e-06
1.9181e-06
2.06402e-06
-8.32339e-07
-2.56479e-06
-1.29559e-06
-1.08694e-06
-3.75475e-07
2.34523e-06
1.28568e-06
-6.06948e-07
1.84755e-06
-9.76117e-07
-1.32034e-06
2.14691e-06
-5.4484e-07
-2.38253e-06
1.44168e-06
1.689e-06
-6.98309e-07
-2.09395e-06
-1.04943e-06
-8.62569e-07
-3.11708e-07
1.9365e-06
1.00902e-06
-5.01037e-07
1.51101e-06
-7.90488e-07
-1.00635e-06
1.70975e-06
-4.12678e-07
-1.89521e-06
1.05995e-06
1.34253e-06
-5.52046e-07
-1.66695e-06
-8.27912e-07
-6.64125e-07
-2.47611e-07
1.54244e-06
7.674e-07
-3.97635e-07
1.19673e-06
-6.21559e-07
-7.5917e-07
1.34273e-06
-2.88549e-07
-1.48185e-06
7.74187e-07
1.05322e-06
-4.11418e-07
-1.3086e-06
-6.44364e-07
-5.05663e-07
-1.87921e-07
1.21077e-06
5.77864e-07
-3.01566e-07
9.33739e-07
-4.82177e-07
-5.69854e-07
1.04602e-06
-1.87035e-07
-1.1439e-06
5.66553e-07
8.19984e-07
-2.8782e-07
-1.01667e-06
-4.96449e-07
-3.83061e-07
-1.34596e-07
9.41799e-07
4.34097e-07
-2.15033e-07
7.21755e-07
-3.71127e-07
-4.13466e-07
7.84142e-07
-1.12233e-07
-8.50404e-07
4.0513e-07
6.14784e-07
-1.84515e-07
-7.63046e-07
-3.68298e-07
-2.79565e-07
-8.74596e-08
7.00979e-07
3.15647e-07
-1.38969e-07
5.32983e-07
-2.7363e-07
-2.81626e-07
5.5102e-07
-6.17327e-08
-5.96954e-07
2.7755e-07
4.31506e-07
-1.03048e-07
-5.40431e-07
-2.53694e-07
-1.90302e-07
-4.69041e-08
4.84514e-07
2.16464e-07
-7.45686e-08
3.63868e-07
-1.86697e-07
-1.62646e-07
3.31082e-07
-2.90155e-08
-3.67655e-07
1.67021e-07
2.58323e-07
-4.4952e-08
-3.33865e-07
-1.44692e-07
-1.09696e-07
-1.78089e-08
2.8367e-07
1.28216e-07
-2.86814e-08
2.10068e-07
-1.06939e-07
-6.97363e-08
1.51768e-07
-8.81677e-09
-1.77072e-07
7.51334e-08
1.18546e-07
-1.19355e-08
-1.60739e-07
-6.02736e-08
-4.84977e-08
-3.74338e-09
1.27726e-07
5.85891e-08
-6.01472e-09
9.47717e-08
-4.71734e-08
-1.61788e-08
3.92256e-08
-4.97137e-08
1.78501e-08
3.07708e-08
-4.53373e-08
-1.35479e-08
-1.19893e-08
3.24892e-08
1.49823e-08
2.43458e-08
-1.15789e-08
8.5543e-09
2.45293e-08
-6.92081e-09
-1.19516e-08
1.76118e-08
-5.91118e-09
6.3527e-09
5.41201e-09
2.78086e-08
-1.92486e-09
-6.74738e-09
1.97863e-08
-1.38073e-09
4.62046e-09
3.69703e-09
2.99701e-08
-1.43854e-09
-4.41897e-09
2.13944e-08
-9.64268e-10
3.04627e-09
2.45201e-09
3.13573e-08
-9.78471e-10
-2.85783e-09
2.24516e-08
-5.7088e-10
1.96297e-09
1.7142e-09
3.22971e-08
-6.93809e-10
-1.95747e-09
2.32001e-08
-3.68742e-10
1.33408e-09
1.30907e-09
3.30067e-08
-5.49574e-10
-1.46702e-09
2.38065e-08
-2.84932e-10
9.87145e-10
1.10933e-09
-4.83761e-10
3.36036e-08
-1.22077e-09
-2.39992e-10
2.43474e-08
8.08329e-10
2.36669e-08
6.5756e-08
-1.30028e-08
-3.06861e-08
4.91126e-08
-1.07992e-08
1.76051e-08
1.2895e-08
6.99513e-08
-4.30018e-09
-1.47124e-08
5.19942e-08
-2.80052e-09
1.14269e-08
8.16191e-09
7.22575e-08
-2.8881e-09
-9.01731e-09
5.36643e-08
-1.64077e-09
7.16129e-09
5.20893e-09
7.37054e-08
-1.97699e-09
-5.65525e-09
5.47558e-08
-9.69727e-10
4.51424e-09
3.56397e-09
7.47172e-08
-1.45288e-09
-3.81419e-09
5.55566e-08
-6.4959e-10
3.0433e-09
2.68554e-09
7.54908e-08
-1.17345e-09
-2.83294e-09
5.62186e-08
-5.10769e-10
2.24991e-09
2.25536e-09
-1.04536e-09
7.61406e-08
-2.34236e-09
-4.50964e-10
5.68394e-08
1.84454e-09
3.43996e-08
9.7771e-08
-1.72324e-08
-4.36755e-08
7.34682e-08
-1.35168e-08
2.60057e-08
1.83085e-08
1.02904e-07
-7.2617e-09
-2.04614e-08
7.68485e-08
-4.41371e-09
1.65453e-08
1.14327e-08
1.05758e-07
-4.76923e-09
-1.24041e-08
7.8785e-08
-2.47074e-09
1.0325e-08
7.23962e-09
1.0756e-07
-3.28648e-09
-7.73087e-09
8.00911e-08
-1.5305e-09
6.49451e-09
4.92871e-09
1.08806e-07
-2.43184e-09
-5.19431e-09
8.10651e-08
-1.07016e-09
4.37534e-09
3.69928e-09
1.09734e-07
-1.95379e-09
-3.84632e-09
8.18529e-08
-8.34365e-10
3.23502e-09
3.09563e-09
-1.72104e-09
1.10486e-07
-3.17063e-09
-7.24877e-10
8.257e-08
2.6523e-09
4.52999e-08
1.32604e-07
-2.24284e-08
-5.72737e-08
9.97251e-08
-1.69729e-08
3.47977e-08
2.4074e-08
1.39275e-07
-1.1292e-08
-2.67149e-08
1.03977e-07
-6.7264e-09
2.21317e-08
1.49671e-08
1.43031e-07
-7.36937e-09
-1.61226e-08
1.06427e-07
-3.78278e-09
1.38285e-08
9.44962e-09
1.45359e-07
-5.04545e-09
-1.00178e-08
1.08043e-07
-2.39548e-09
8.69828e-09
6.41732e-09
1.46912e-07
-3.6865e-09
-6.71433e-09
1.09216e-07
-1.68796e-09
5.86269e-09
4.80307e-09
1.48027e-07
-2.91335e-09
-4.95855e-09
1.10151e-07
-1.29879e-09
4.33266e-09
4.00649e-09
-2.52417e-09
1.48899e-07
-4.07458e-09
-1.10352e-09
1.10988e-07
3.54866e-09
5.80849e-08
1.7523e-07
-3.05192e-08
-7.34799e-08
1.31739e-07
-2.31272e-08
4.52618e-08
3.09689e-08
1.83979e-07
-1.67611e-08
-3.42418e-08
1.37179e-07
-1.01309e-08
2.89349e-08
1.92171e-08
1.88904e-07
-1.09037e-08
-2.06056e-08
1.403e-07
-5.80766e-09
1.81221e-08
1.21142e-08
1.91877e-07
-7.35711e-09
-1.27753e-08
1.42298e-07
-3.68787e-09
1.14093e-08
8.21023e-09
1.93798e-07
-5.27496e-09
-8.54242e-09
1.437e-07
-2.56774e-09
7.68757e-09
6.12705e-09
1.9514e-07
-4.09278e-09
-6.28925e-09
1.44801e-07
-1.9458e-09
5.67333e-09
5.09193e-09
-3.48715e-09
1.9616e-07
-5.14831e-09
-1.62122e-09
1.45774e-07
4.63729e-09
7.34889e-08
2.28945e-07
-4.32871e-08
-9.3251e-08
1.71975e-07
-3.38414e-08
5.79522e-08
3.93972e-08
2.40434e-07
-2.41875e-08
-4.34606e-08
1.78988e-07
-1.51352e-08
3.73871e-08
2.44398e-08
2.46824e-07
-1.56282e-08
-2.61042e-08
1.82937e-07
-8.80755e-09
2.34917e-08
1.53944e-08
2.50586e-07
-1.03564e-08
-1.61563e-08
1.85388e-07
-5.55051e-09
1.48074e-08
1.04116e-08
2.52958e-07
-7.28191e-09
-1.07761e-08
1.87064e-07
-3.79804e-09
9.96497e-09
7.74328e-09
2.54577e-07
-5.55039e-09
-7.90452e-09
1.88358e-07
-2.83295e-09
7.33712e-09
6.40573e-09
-4.654e-09
2.55778e-07
-6.43986e-09
-2.3235e-09
1.8949e-07
5.97635e-09
9.24448e-08
2.98471e-07
-6.19954e-08
-1.17915e-07
2.24034e-07
-5.07637e-08
7.36715e-08
4.98149e-08
3.13245e-07
-3.39465e-08
-5.48279e-08
2.3289e-07
-2.2204e-08
4.80298e-08
3.09131e-08
3.21293e-07
-2.17221e-08
-3.28666e-08
2.37722e-07
-1.30071e-08
3.02813e-08
1.94566e-08
3.25922e-07
-1.41413e-08
-2.03008e-08
2.40642e-07
-8.11146e-09
1.90981e-08
1.31237e-08
3.28781e-07
-9.76772e-09
-1.34969e-08
2.42605e-07
-5.46298e-09
1.28263e-08
9.7172e-09
3.30692e-07
-7.32537e-09
-9.85332e-09
2.44094e-07
-4.01347e-09
9.40859e-09
7.99158e-09
-6.05045e-09
3.32076e-07
-7.97859e-09
-3.24652e-09
2.45385e-07
7.62323e-09
1.14919e-07
3.8803e-07
-8.91705e-08
-1.48097e-07
2.90673e-07
-7.69651e-08
9.22734e-08
6.2427e-08
4.0737e-07
-4.70529e-08
-6.86613e-08
3.02241e-07
-3.24332e-08
6.10873e-08
3.88257e-08
4.1765e-07
-2.97284e-08
-4.1098e-08
3.08302e-07
-1.89469e-08
3.8706e-08
2.44291e-08
4.23443e-07
-1.90331e-08
-2.53316e-08
3.11871e-07
-1.16808e-08
2.4429e-08
1.64277e-08
4.26958e-07
-1.29332e-08
-1.67761e-08
3.14227e-07
-7.75831e-09
1.63687e-08
1.20981e-08
4.29261e-07
-9.55199e-09
-1.21753e-08
3.15983e-07
-5.62032e-09
1.19477e-08
9.8773e-09
-7.77306e-09
4.3089e-07
-9.78342e-09
-4.48537e-09
3.17485e-07
9.61464e-09
1.3973e-07
5.0043e-07
-1.28892e-07
-1.83079e-07
3.7416e-07
-1.16435e-07
1.12395e-07
7.70098e-08
5.26198e-07
-6.49136e-08
-8.49185e-08
3.89726e-07
-4.72908e-08
7.63031e-08
4.81463e-08
5.39541e-07
-4.03377e-08
-5.08807e-08
3.97537e-07
-2.73347e-08
4.87231e-08
3.0315e-08
5.46944e-07
-2.54214e-08
-3.13298e-08
4.02031e-07
-1.66508e-08
3.07912e-08
2.03221e-08
5.51375e-07
-1.70185e-08
-2.06687e-08
4.04938e-07
-1.09228e-08
2.05785e-08
1.48726e-08
5.54237e-07
-1.23852e-08
-1.4901e-08
4.0707e-07
-7.80993e-09
1.49315e-08
1.20356e-08
-9.92573e-09
5.56218e-07
-1.18652e-08
-6.14721e-09
4.08852e-07
1.19141e-08
1.62023e-07
6.4056e-07
-1.85055e-07
-2.20397e-07
4.74976e-07
-1.74096e-07
1.27992e-07
9.15153e-08
6.75759e-07
-8.94635e-08
-1.02165e-07
4.97271e-07
-6.91746e-08
9.11056e-08
5.77443e-08
6.93659e-07
-5.46673e-08
-6.13163e-08
5.08166e-07
-3.94921e-08
5.90059e-08
3.64347e-08
7.03457e-07
-3.39396e-08
-3.77139e-08
5.14284e-07
-2.37681e-08
3.74347e-08
2.43496e-08
7.09247e-07
-2.23935e-08
-2.4766e-08
5.18137e-07
-1.53996e-08
2.49726e-08
1.76928e-08
7.12935e-07
-1.60526e-08
-1.77121e-08
5.20879e-07
-1.08638e-08
1.80053e-08
1.4167e-08
-1.26534e-08
7.15441e-07
-1.3947e-08
-8.42253e-09
5.23095e-07
1.42256e-08
1.77568e-07
8.14972e-07
-2.62354e-07
-2.55528e-07
6.01168e-07
-2.531e-07
1.34393e-07
1.03863e-07
8.62211e-07
-1.22382e-07
-1.18184e-07
6.31919e-07
-9.92025e-08
1.03142e-07
6.63622e-08
8.85985e-07
-7.36985e-08
-7.11073e-08
6.46677e-07
-5.60391e-08
6.81504e-08
4.2001e-08
8.98903e-07
-4.51755e-08
-4.36831e-08
6.54809e-07
-3.33852e-08
4.34867e-08
2.79766e-08
9.0647e-07
-2.94066e-08
-2.85315e-08
6.59814e-07
-2.13819e-08
2.89526e-08
2.01589e-08
9.11228e-07
-2.0756e-08
-2.02131e-08
6.63271e-07
-1.48753e-08
2.0714e-08
1.59367e-08
-1.60643e-08
9.14405e-07
-1.57039e-08
-1.13378e-08
6.65958e-07
1.61643e-08
1.7088e-07
1.04551e-06
-3.62611e-07
-2.78602e-07
7.67235e-07
-3.57495e-07
1.13291e-07
1.07226e-07
1.10825e-06
-1.65077e-07
-1.2727e-07
8.10059e-07
-1.39296e-07
1.04501e-07
7.00437e-08
1.13972e-06
-9.85479e-08
-7.66662e-08
8.3051e-07
-7.82385e-08
7.17909e-08
4.46371e-08
1.15674e-06
-5.97996e-08
-4.70249e-08
8.41638e-07
-4.62491e-08
4.63749e-08
2.96701e-08
1.16662e-06
-3.84307e-08
-3.05303e-08
8.48339e-07
-2.92991e-08
3.08843e-08
2.1193e-08
1.17275e-06
-2.66859e-08
-2.13941e-08
8.52814e-07
-2.0083e-08
2.19268e-08
1.65112e-08
-2.02287e-08
1.17676e-06
-1.63586e-08
-1.50092e-08
8.56123e-07
1.68727e-08
9.69977e-08
1.31862e-06
-4.9627e-07
-2.46617e-07
9.51657e-07
-4.95183e-07
2.11203e-08
8.13192e-08
1.40486e-06
-2.21574e-07
-1.11061e-07
1.01357e-06
-1.92843e-07
7.29571e-08
5.68474e-08
1.44854e-06
-1.31906e-07
-6.71598e-08
1.0436e-06
-1.08373e-07
5.6962e-08
3.71766e-08
1.47229e-06
-7.94864e-08
-4.12489e-08
1.05994e-06
-6.37915e-08
3.83754e-08
2.48905e-08
1.48613e-06
-5.04917e-08
-2.66698e-08
1.06965e-06
-4.00254e-08
2.59039e-08
1.7711e-08
1.49471e-06
-3.44687e-08
-1.85045e-08
1.07593e-06
-2.70147e-08
1.83667e-08
1.36273e-08
-2.55173e-08
1.50029e-06
-1.39243e-08
-1.97421e-08
1.08031e-06
1.39754e-08
-1.22212e-07
1.64952e-06
-6.25447e-07
-6.93189e-08
1.17591e-06
-6.4716e-07
-2.06854e-07
-5.90467e-09
1.7653e-06
-2.94201e-07
-3.72268e-08
1.26684e-06
-2.67453e-07
-2.22079e-08
7.80264e-09
1.82649e-06
-1.77746e-07
-2.31479e-08
1.31267e-06
-1.524e-07
6.0005e-09
8.15746e-09
1.8605e-06
-1.07191e-07
-1.44637e-08
1.33788e-06
-8.99096e-08
9.06891e-09
6.41679e-09
1.88039e-06
-6.73993e-08
-9.396e-09
1.35263e-06
-5.59714e-08
7.6118e-09
4.91328e-09
1.89266e-06
-4.518e-08
-6.48073e-09
1.36183e-06
-3.72248e-08
5.92589e-09
3.91977e-09
-3.26492e-08
1.90069e-06
-4.81073e-09
-2.66669e-08
1.36794e-06
4.73435e-09
-5.95054e-07
2.06129e-06
-7.28266e-07
4.11624e-07
1.44327e-06
-8.05859e-07
-6.44952e-07
-2.17009e-07
2.19256e-06
-3.70199e-07
1.61764e-07
1.5558e-06
-3.63364e-07
-2.33604e-07
-1.15152e-07
2.26604e-06
-2.31533e-07
9.54743e-08
1.61431e-06
-2.13503e-07
-1.12539e-07
-6.51435e-08
2.30833e-06
-1.41554e-07
5.72073e-08
1.64684e-06
-1.27632e-07
-5.9962e-08
-3.94985e-08
2.33335e-06
-8.86434e-08
3.57389e-08
1.66566e-06
-7.92482e-08
-3.50286e-08
-2.58145e-08
2.34867e-06
-5.8436e-08
2.37404e-08
1.67688e-06
-5.20007e-08
-2.22671e-08
-1.8268e-08
-4.11497e-08
2.35849e-06
1.69503e-08
-3.64648e-08
1.68374e-06
-1.53299e-08
-1.06428e-06
2.18349e-06
-7.47223e-07
1.01382e-06
1.5231e-06
-9.03116e-07
-1.01894e-06
-4.54096e-07
2.26337e-06
-4.13089e-07
4.17137e-07
1.60354e-06
-4.46217e-07
-4.51644e-07
-2.57442e-07
2.31419e-06
-2.70309e-07
2.45418e-07
1.64605e-06
-2.72123e-07
-2.41316e-07
-1.50242e-07
2.34571e-06
-1.69287e-07
1.46452e-07
1.66989e-06
-1.65914e-07
-1.35801e-07
-9.17065e-08
2.36481e-06
-1.06329e-07
9.03031e-08
1.68346e-06
-1.03219e-07
-8.12958e-08
-5.93966e-08
2.37635e-06
-6.92645e-08
5.86743e-08
1.69107e-06
-6.70121e-08
-5.19996e-08
-4.12102e-08
-4.7657e-08
2.38341e-06
4.06649e-08
-4.60518e-08
1.69509e-06
-3.56419e-08
-1.43262e-06
2.50023e-06
-7.00514e-07
1.54157e-06
1.77093e-06
-9.39473e-07
-1.27948e-06
-6.4862e-07
2.50992e-06
-4.22617e-07
6.4851e-07
1.80017e-06
-5.07847e-07
-6.16173e-07
-3.73805e-07
2.52575e-06
-2.87696e-07
3.75389e-07
1.81434e-06
-3.19139e-07
-3.40929e-07
-2.19205e-07
2.53892e-06
-1.85037e-07
2.21772e-07
1.82169e-06
-1.98096e-07
-1.94374e-07
-1.3273e-07
2.54766e-06
-1.16963e-07
1.34637e-07
1.82539e-06
-1.23469e-07
-1.1617e-07
-8.44146e-08
2.55278e-06
-7.54803e-08
8.54981e-08
1.82675e-06
-7.9326e-08
-7.34658e-08
-5.69988e-08
-5.08037e-08
2.55548e-06
5.74617e-08
-5.34059e-08
1.82652e-06
-4.94143e-08
-1.69577e-06
2.97701e-06
-6.30946e-07
1.94917e-06
2.16843e-06
-9.36875e-07
-1.44774e-06
-7.84366e-07
2.9156e-06
-4.08318e-07
8.31549e-07
2.13479e-06
-5.41122e-07
-7.17379e-07
-4.50999e-07
2.89306e-06
-2.82559e-07
4.68431e-07
2.11261e-06
-3.44673e-07
-4.0325e-07
-2.64514e-07
2.88468e-06
-1.85504e-07
2.73355e-07
2.09868e-06
-2.1673e-07
-2.31952e-07
-1.58877e-07
2.88114e-06
-1.18163e-07
1.6363e-07
2.09008e-06
-1.35423e-07
-1.38306e-07
-9.93964e-08
2.87907e-06
-7.58554e-08
1.01835e-07
2.08422e-06
-8.6351e-08
-8.65235e-08
-6.54489e-08
-5.02221e-08
2.87739e-06
6.65527e-08
-5.72134e-08
2.07974e-06
-5.71562e-08
-1.91561e-06
3.53383e-06
-5.88982e-07
2.27969e-06
2.64988e-06
-9.33111e-07
-1.58473e-06
-8.74168e-07
3.40922e-06
-3.80186e-07
9.7072e-07
2.54817e-06
-5.39422e-07
-7.74073e-07
-4.92539e-07
3.34858e-06
-2.58318e-07
5.28977e-07
2.48469e-06
-3.41037e-07
-4.32655e-07
-2.88116e-07
3.31765e-06
-1.70999e-07
3.04535e-07
2.44631e-06
-2.16278e-07
-2.50194e-07
-1.72817e-07
3.3018e-06
-1.10474e-07
1.80998e-07
2.42452e-06
-1.36734e-07
-1.49695e-07
-1.07684e-07
3.29362e-06
-7.18423e-08
1.11837e-07
2.41224e-06
-8.81426e-08
-9.36248e-08
-7.03953e-08
-4.8142e-08
3.28953e-06
7.24118e-08
-5.90404e-08
2.40532e-06
-6.16413e-08
-2.13097e-06
4.07442e-06
-5.65187e-07
2.57871e-06
3.11711e-06
-9.18289e-07
-1.72468e-06
-9.50446e-07
3.91392e-06
-3.59781e-07
1.09063e-06
2.97559e-06
-5.25705e-07
-8.22548e-07
-5.21599e-07
3.83409e-06
-2.35859e-07
5.79021e-07
2.89104e-06
-3.25627e-07
-4.52413e-07
-3.03252e-07
3.79171e-06
-1.54583e-07
3.29213e-07
2.83933e-06
-2.06011e-07
-2.6181e-07
-1.82485e-07
3.76874e-06
-1.00425e-07
1.9543e-07
2.80903e-06
-1.31206e-07
-1.57694e-07
-1.14448e-07
3.75604e-06
-6.59364e-08
1.2123e-07
2.79129e-06
-8.54284e-08
-9.94408e-08
-7.54542e-08
-4.46578e-08
3.74899e-06
7.90349e-08
-5.78332e-08
2.78074e-06
-6.6095e-08
-2.33166e-06
4.59137e-06
-5.65113e-07
2.84266e-06
3.56349e-06
-9.10604e-07
-1.86374e-06
-1.03777e-06
4.40647e-06
-3.48325e-07
1.21129e-06
3.39471e-06
-5.10836e-07
-8.83786e-07
-5.58114e-07
4.3146e-06
-2.20002e-07
6.34177e-07
3.29808e-06
-3.08206e-07
-4.78864e-07
-3.21471e-07
4.26583e-06
-1.41188e-07
3.56837e-07
3.23937e-06
-1.92771e-07
-2.76008e-07
-1.93651e-07
4.23905e-06
-9.14292e-08
2.11461e-07
3.20446e-06
-1.22979e-07
-1.66936e-07
-1.22127e-07
4.2239e-06
-6.0299e-08
1.31615e-07
3.18355e-06
-8.0618e-08
-1.0605e-07
-8.11525e-08
-4.11484e-08
4.21522e-06
8.63447e-08
-5.50611e-08
3.17078e-06
-7.11335e-08
-2.53099e-06
5.07686e-06
-5.80927e-07
3.09334e-06
3.98539e-06
-9.05898e-07
-2.02003e-06
-1.1312e-06
4.87506e-06
-3.43401e-07
1.32814e-06
3.80071e-06
-4.96136e-07
-9.61141e-07
-6.01034e-07
4.77523e-06
-2.09756e-07
6.90672e-07
3.69832e-06
-2.91452e-07
-5.15342e-07
-3.42188e-07
4.72185e-06
-1.30363e-07
3.84736e-07
3.63562e-06
-1.77947e-07
-2.94314e-07
-2.04767e-07
4.6913e-06
-8.2397e-08
2.26322e-07
3.59644e-06
-1.11458e-07
-1.77084e-07
-1.28499e-07
4.6726e-06
-5.31827e-08
1.40071e-07
3.57103e-06
-7.17226e-08
-1.11997e-07
-8.49641e-08
-3.5486e-08
4.6605e-06
9.14155e-08
-4.79593e-08
3.55373e-06
-7.47473e-08
-2.15585e-06
4.37411e-06
-5.89287e-07
2.62977e-06
3.445e-06
-8.8542e-07
-1.73055e-06
-9.66833e-07
4.20178e-06
-3.37688e-07
1.13345e-06
3.2861e-06
-4.77475e-07
-8.26594e-07
-5.09716e-07
4.11653e-06
-2.01785e-07
5.87037e-07
3.19965e-06
-2.75113e-07
-4.39562e-07
-2.86469e-07
4.07128e-06
-1.22311e-07
3.23637e-07
3.14748e-06
-1.64508e-07
-2.47753e-07
-1.6916e-07
4.04562e-06
-7.55749e-08
1.88032e-07
3.11516e-06
-1.01219e-07
-1.47054e-07
-1.04585e-07
4.03e-06
-4.77467e-08
1.1474e-07
3.09436e-06
-6.39614e-08
-9.15604e-08
-6.7959e-08
-3.11521e-08
4.01996e-06
7.36816e-08
-4.1889e-08
3.08032e-06
-5.9975e-08
-1.79454e-06
3.69417e-06
-5.69746e-07
2.17307e-06
2.90426e-06
-8.35565e-07
-1.4611e-06
-8.08093e-07
3.54614e-06
-3.21459e-07
9.39957e-07
2.76759e-06
-4.47439e-07
-7.01385e-07
-4.24403e-07
3.47245e-06
-1.89675e-07
4.86007e-07
2.69391e-06
-2.54477e-07
-3.71349e-07
-2.36142e-07
3.43343e-06
-1.12934e-07
2.65822e-07
2.64986e-06
-1.49506e-07
-2.07061e-07
-1.37856e-07
3.41143e-06
-6.85454e-08
1.52811e-07
2.62279e-06
-9.05896e-08
-1.21429e-07
-8.41164e-08
3.3983e-06
-4.25616e-08
9.20771e-08
2.6057e-06
-5.64006e-08
-7.45684e-08
-5.3803e-08
-2.72689e-08
3.38996e-06
5.82531e-08
-3.63261e-08
2.59435e-06
-4.80357e-08
-1.47197e-06
3.09323e-06
-5.27055e-07
1.7681e-06
2.41296e-06
-7.6013e-07
-1.21916e-06
-6.65819e-07
2.96512e-06
-2.95511e-07
7.68017e-07
2.29408e-06
-4.05994e-07
-5.8839e-07
-3.49023e-07
2.90127e-06
-1.73827e-07
3.97065e-07
2.23096e-06
-2.29386e-07
-3.10963e-07
-1.9269e-07
2.8674e-06
-1.02294e-07
2.15955e-07
2.1935e-06
-1.32794e-07
-1.71915e-07
-1.11458e-07
2.84837e-06
-6.11772e-08
1.23115e-07
2.17057e-06
-7.93316e-08
-9.97953e-08
-6.729e-08
2.83712e-06
-3.74309e-08
7.34261e-08
2.15625e-06
-4.87606e-08
-6.05961e-08
-4.2486e-08
-2.36207e-08
2.83007e-06
4.58778e-08
-3.09774e-08
2.14692e-06
-3.85077e-08
-1.17527e-06
2.53138e-06
-4.68566e-07
1.39501e-06
1.96164e-06
-6.72044e-07
-9.94621e-07
-5.33998e-07
2.4217e-06
-2.6033e-07
6.08572e-07
1.86104e-06
-3.55577e-07
-4.83741e-07
-2.79888e-07
2.36649e-06
-1.5318e-07
3.14525e-07
1.80765e-06
-1.9985e-07
-2.55969e-07
-1.53656e-07
2.33725e-06
-8.96773e-08
1.70327e-07
1.77635e-06
-1.14443e-07
-1.40673e-07
-8.82152e-08
2.32093e-06
-5.30975e-08
9.64534e-08
1.7573e-06
-6.75254e-08
-8.09758e-08
-5.27985e-08
2.31138e-06
-3.21029e-08
5.70373e-08
1.74551e-06
-4.10293e-08
-4.87224e-08
-3.29836e-08
-2.00003e-08
2.30547e-06
3.52685e-08
-2.57609e-08
1.73792e-06
-3.06254e-08
-9.5193e-07
2.10298e-06
-3.92857e-07
1.11842e-06
1.61213e-06
-5.66864e-07
-8.21614e-07
-4.31839e-07
2.00398e-06
-2.17617e-07
4.88119e-07
1.52133e-06
-2.9733e-07
-3.99344e-07
-2.25659e-07
1.95298e-06
-1.28186e-07
2.51749e-07
1.47294e-06
-1.66137e-07
-2.10907e-07
-1.23181e-07
1.92571e-06
-7.49516e-08
1.35766e-07
1.44484e-06
-9.43267e-08
-1.15165e-07
-7.02445e-08
1.91059e-06
-4.41657e-08
7.64489e-08
1.42791e-06
-5.50981e-08
-6.57206e-08
-4.17253e-08
1.9018e-06
-2.64659e-08
4.48833e-08
1.41748e-06
-3.31302e-08
-3.91986e-08
-2.58322e-08
-1.63104e-08
1.89644e-06
2.75085e-08
-2.05843e-08
1.41089e-06
-2.44073e-08
-7.62247e-07
1.72951e-06
-3.13025e-07
8.88966e-07
1.30664e-06
-4.55664e-07
-6.69022e-07
-3.45036e-07
1.64249e-06
-1.73744e-07
3.88252e-07
1.22646e-06
-2.37514e-07
-3.24676e-07
-1.79606e-07
1.59681e-06
-1.0242e-07
1.9967e-07
1.18409e-06
-1.32104e-07
-1.71141e-07
-9.73126e-08
1.5717e-06
-5.95848e-08
1.07089e-07
1.15947e-06
-7.41456e-08
-9.28409e-08
-5.5056e-08
1.55757e-06
-3.48877e-08
5.99343e-08
1.14461e-06
-4.27585e-08
-5.25066e-08
-3.24694e-08
1.54936e-06
-2.07451e-08
3.49624e-08
1.13547e-06
-2.54199e-08
-3.10494e-08
-1.99524e-08
-1.26698e-08
1.54441e-06
2.12693e-08
-1.56326e-08
1.12975e-06
-1.91756e-08
-5.92959e-07
1.37826e-06
-2.3958e-07
6.83657e-07
1.03306e-06
-3.53789e-07
-5.3107e-07
-2.68865e-07
1.30715e-06
-1.33294e-07
2.9943e-07
9.675e-07
-1.82217e-07
-2.58673e-07
-1.39787e-07
1.26936e-06
-7.85491e-08
1.53804e-07
9.33265e-07
-1.01017e-07
-1.36559e-07
-7.53279e-08
1.24841e-06
-4.5377e-08
8.2108e-08
9.13729e-07
-5.60341e-08
-7.38571e-08
-4.22795e-08
1.2365e-06
-2.6342e-08
4.56644e-08
9.01942e-07
-3.17753e-08
-4.14661e-08
-2.47448e-08
1.22957e-06
-1.55269e-08
2.6468e-08
8.94697e-07
-1.85858e-08
-2.43186e-08
-1.50978e-08
-9.39758e-09
1.2254e-06
1.59942e-08
-1.12819e-08
8.90148e-07
-1.49038e-08
-4.55446e-07
1.08098e-06
-1.75651e-07
5.21013e-07
8.01616e-07
-2.61836e-07
-4.15165e-07
-2.06614e-07
1.02323e-06
-9.75781e-08
2.28668e-07
7.47673e-07
-1.32225e-07
-2.02675e-07
-1.07334e-07
9.92173e-07
-5.74302e-08
1.17452e-07
7.19842e-07
-7.31951e-08
-1.0716e-07
-5.7653e-08
9.74959e-07
-3.29973e-08
6.25265e-08
7.04426e-07
-4.03384e-08
-5.78978e-08
-3.21773e-08
9.65248e-07
-1.9051e-08
3.46069e-08
6.95444e-07
-2.2602e-08
-3.23584e-08
-1.87066e-08
9.59641e-07
-1.11502e-08
1.9945e-08
6.90033e-07
-1.30198e-08
-1.88481e-08
-1.13375e-08
-6.68887e-09
9.5629e-07
1.19795e-08
-7.79006e-09
6.86666e-07
-1.14699e-08
-3.46721e-07
8.36776e-07
-1.19014e-07
3.95115e-07
6.12955e-07
-1.79203e-07
-3.20395e-07
-1.56922e-07
7.88978e-07
-6.62386e-08
1.73358e-07
5.67873e-07
-8.80394e-08
-1.56174e-07
-8.13236e-08
7.63002e-07
-3.90308e-08
8.9052e-08
5.44836e-07
-4.87273e-08
-8.26178e-08
-4.35571e-08
7.48607e-07
-2.23231e-08
4.73162e-08
5.32346e-07
-2.67487e-08
-4.46209e-08
-2.42182e-08
7.40553e-07
-1.28806e-08
2.61006e-08
5.25333e-07
-1.49313e-08
-2.4879e-08
-1.4011e-08
7.35958e-07
-7.50901e-09
1.49758e-08
5.21284e-07
-8.53211e-09
-1.44261e-08
-8.44596e-09
-4.47069e-09
7.33232e-07
8.94972e-09
-5.05327e-09
5.18817e-07
-8.72999e-09
-2.53355e-07
6.18958e-07
-7.28252e-08
2.89024e-07
4.47099e-07
-1.10157e-07
-2.36323e-07
-1.14315e-07
5.80694e-07
-4.06982e-08
1.2675e-07
4.11313e-07
-5.12535e-08
-1.15148e-07
-5.90865e-08
5.59671e-07
-2.37318e-08
6.50539e-08
3.93289e-07
-2.85508e-08
-6.10128e-08
-3.1563e-08
5.47948e-07
-1.35186e-08
3.45156e-08
3.83672e-07
-1.56909e-08
-3.29819e-08
-1.75015e-08
5.41385e-07
-7.81321e-09
1.90006e-08
3.78437e-07
-8.81187e-09
-1.83764e-08
-1.00926e-08
5.37663e-07
-4.56565e-09
1.08706e-08
3.7548e-07
-5.03212e-09
-1.06309e-08
-6.06061e-09
-2.70876e-09
5.35493e-07
6.47258e-09
-2.96408e-09
3.73751e-07
-6.40982e-09
-1.71135e-07
4.21164e-07
-3.62944e-08
1.97932e-07
2.98234e-07
-5.55372e-08
-1.59845e-07
-7.64479e-08
3.91412e-07
-2.02141e-08
8.64225e-08
2.71664e-07
-2.44754e-08
-7.75272e-08
-3.92507e-08
3.75021e-07
-1.19867e-08
4.42043e-08
2.58869e-07
-1.36186e-08
-4.11117e-08
-2.08652e-08
3.6581e-07
-6.78333e-09
2.33873e-08
2.52206e-07
-7.64324e-09
-2.22406e-08
-1.15304e-08
3.60637e-07
-3.94863e-09
1.28431e-08
2.48687e-07
-4.39906e-09
-1.23837e-08
-6.63053e-09
3.57714e-07
-2.34941e-09
7.33025e-09
2.46715e-07
-2.55012e-09
-7.15155e-09
-3.96991e-09
-1.40133e-09
3.56036e-07
4.35223e-09
-1.49653e-09
2.45607e-07
-4.30043e-09
-9.75466e-08
2.41324e-07
-1.27989e-08
1.16304e-07
1.68551e-07
-2.03381e-08
-9.09177e-08
-4.30292e-08
2.2161e-07
-7.32098e-09
5.04532e-08
1.53092e-07
-8.76723e-09
-4.409e-08
-2.18654e-08
2.10758e-07
-4.48665e-09
2.56653e-08
1.4628e-07
-4.87663e-09
-2.34261e-08
-1.15303e-08
2.04578e-07
-2.52425e-09
1.35197e-08
1.427e-07
-2.90341e-09
-1.26751e-08
-6.34203e-09
2.01065e-07
-1.49789e-09
7.39981e-09
1.408e-07
-1.77559e-09
-7.04633e-09
-3.63707e-09
1.99075e-07
-9.33589e-10
4.21316e-09
1.39755e-07
-1.06415e-09
-4.05926e-09
-2.17278e-09
-5.69838e-10
1.97923e-07
2.49548e-09
-6.19926e-10
1.39149e-07
-2.43525e-09
-4.31579e-08
1.07646e-07
-2.45345e-09
5.28399e-08
7.62281e-08
-4.12928e-09
-4.06519e-08
-1.89309e-08
9.80707e-08
-1.38121e-09
2.29208e-08
6.98641e-08
-1.82573e-09
-1.99658e-08
-9.5054e-09
9.26962e-08
-9.35496e-10
1.16058e-08
6.73522e-08
-9.96357e-10
-1.06562e-08
-4.95713e-09
8.95925e-08
-5.06077e-10
6.08681e-09
6.59206e-08
-6.55525e-10
-5.7645e-09
-2.71069e-09
8.77891e-08
-3.08226e-10
3.32134e-09
6.51075e-08
-4.59595e-10
-3.19864e-09
-1.55214e-09
8.67404e-08
-2.14976e-10
1.88693e-09
6.46492e-08
-3.01269e-10
-1.83699e-09
-9.27286e-10
-1.29094e-10
8.6112e-08
1.11546e-09
-1.63244e-10
6.43693e-08
-1.09851e-09
-1.06464e-08
2.72433e-08
1.34389e-08
1.97795e-08
-1.02096e-08
-4.64626e-09
2.46463e-08
5.8622e-09
1.84535e-08
-5.14565e-09
-2.28022e-09
2.30463e-08
2.945e-09
1.79446e-08
-2.76766e-09
-1.16145e-09
2.21702e-08
1.53143e-09
1.76303e-08
-1.50236e-09
-6.25083e-10
2.16559e-08
8.31069e-10
1.73803e-08
-8.34295e-10
-3.56049e-10
2.1327e-08
4.70612e-10
1.72025e-08
-4.77762e-10
-2.13428e-10
2.11338e-08
2.77604e-10
1.711e-08
-2.83712e-10
1.173e-09
3.42493e-08
-5.11729e-10
-1.30561e-09
2.493e-08
-2.36526e-10
8.26024e-10
8.57449e-10
3.4776e-08
-4.02964e-10
-9.79786e-10
2.53872e-08
-1.73593e-10
5.73531e-10
8.70829e-10
3.5339e-08
-4.18699e-10
-1.01455e-09
2.58601e-08