/*--------------------------------*- C++ -*----------------------------------*\
| =========                 |                                                 |
| \\      /  F ield         | OpenFOAM: The Open Source CFD Toolbox           |
|  \\    /   O peration     | Version:  2206                                  |
|   \\  /    A nd           | Website:  www.openfoam.com                      |
|    \\/     M anipulation  |                                                 |
\*---------------------------------------------------------------------------*/
FoamFile
{
    version     2.0;
    format      ascii;
    arch        "LSB;label=32;scalar=64";
    class       volVectorField;
    location    "400";
    object      U;
}
// * * * * * * * * * * * * * * * * * * * * * * * * * * * * * * * * * * * * * //

dimensions      [0 1 -1 0 0 0 0];

internalField   nonuniform List<vector> 
50904
(
(0.883232 -4.73635 0.0561708)
(0.883446 -4.53598 0.0604733)
(0.858178 -5.33312 -0.0231167)
(0.961081 -5.14381 -0.0237369)
(0.336967 -5.16842 0.0689821)
(0.44487 -4.7515 0.0777027)
(0.406886 -6.46493 -0.0129676)
(0.702645 -6.0859 -0.0159396)
(0.103306 -5.60101 0.0920649)
(0.30285 -5.06458 0.110056)
(0.236871 -6.91014 -0.000734854)
(0.595208 -6.45851 -0.00320431)
(0.0560026 -5.84939 0.109691)
(0.307449 -5.27497 0.131905)
(0.182825 -7.06782 0.0130638)
(0.560123 -6.58337 0.0119648)
(0.0592751 -6.01177 0.117353)
(0.34315 -5.42434 0.143234)
(0.164764 -7.14037 0.0309591)
(0.549172 -6.6351 0.0322771)
(0.0823903 -6.13433 0.118422)
(0.388832 -5.543 0.147796)
(0.164853 -7.17755 0.0531286)
(0.551333 -6.65654 0.0582447)
(0.117887 -6.23165 0.116926)
(0.44033 -5.64019 0.14978)
(0.179077 -7.19579 0.0788167)
(0.564798 -6.66217 0.0894516)
(0.164506 -6.30669 0.118892)
(0.498042 -5.71659 0.155725)
(0.207531 -7.20119 0.107418)
(0.590856 -6.65742 0.125606)
(0.224372 -6.3566 0.13153)
(0.564931 -5.76747 0.17204)
(0.25333 -7.19205 0.139356)
(0.63314 -6.64042 0.167185)
(0.303694 -6.37981 0.160959)
(0.645742 -5.78771 0.204055)
(0.320185 -7.16738 0.176658)
(0.695882 -6.60945 0.2158)
(0.415764 -6.37863 0.215219)
(0.752202 -5.77641 0.258378)
(0.415842 -7.12035 0.222089)
(0.786359 -6.55692 0.274103)
(0.58275 -6.35894 0.298646)
(0.903316 -5.73625 0.33865)
(0.555295 -7.04133 0.280597)
(0.918268 -6.47191 0.34689)
(0.83938 -6.34866 0.401832)
(1.12401 -5.68843 0.439831)
(0.763391 -6.93019 0.3562)
(1.11045 -6.35138 0.437796)
(1.23767 -6.43143 0.492793)
(1.45154 -5.7027 0.54073)
(1.09135 -6.82074 0.448446)
(1.39697 -6.22058 0.548164)
(1.82558 -6.77396 0.500348)
(1.91429 -5.92083 0.590071)
(1.5938 -6.8329 0.529663)
(1.80161 -6.17248 0.659918)
(2.48853 -7.42704 0.362213)
(2.43282 -6.43859 0.517552)
(2.18091 -7.13341 0.527611)
(2.24604 -6.37564 0.703318)
(3.06315 -8.18572 0.152015)
(2.89379 -7.11161 0.360489)
(2.72111 -7.65953 0.438536)
(2.64583 -6.81425 0.666356)
(3.5024 -8.895 -0.0511265)
(3.25048 -7.78857 0.188686)
(3.1663 -8.26509 0.314267)
(2.98483 -7.35521 0.580192)
(3.80798 -9.47066 -0.180223)
(3.49754 -8.37355 0.0634789)
(3.51252 -8.82585 0.218075)
(3.25881 -7.87978 0.504882)
(4.01621 -9.90566 -0.216463)
(3.6646 -8.83774 0.00850518)
(3.78793 -9.3145 0.174939)
(3.48283 -8.34607 0.466592)
(4.16697 -10.255 -0.171564)
(3.78708 -9.2083 0.0201171)
(4.01322 -9.74403 0.180466)
(3.67274 -8.75007 0.461188)
(4.28824 -10.5779 -0.0710585)
(3.89459 -9.52369 0.0804005)
(4.21059 -10.1473 0.213582)
(3.84812 -9.11014 0.46721)
(4.39527 -10.9051 0.0385569)
(4.00341 -9.79964 0.152835)
(4.37201 -10.513 0.245038)
(4.00125 -9.40509 0.462225)
(4.4877 -11.2201 0.113805)
(4.11203 -10.0327 0.201852)
(4.49655 -10.8307 0.253039)
(4.12704 -9.63138 0.43618)
(4.56392 -11.5136 0.153609)
(4.21974 -10.2316 0.221145)
(4.59456 -11.1111 0.238556)
(4.23149 -9.80655 0.394033)
(4.6205 -11.7672 0.16534)
(4.32204 -10.3934 0.217014)
(4.66889 -11.3547 0.211155)
(4.31551 -9.93803 0.342438)
(4.65389 -11.9684 0.153457)
(4.41303 -10.5158 0.195995)
(4.71912 -11.5534 0.17924)
(4.37886 -10.029 0.288886)
(4.66338 -12.1106 0.127881)
(4.48475 -10.5972 0.16647)
(4.74446 -11.6967 0.146069)
(4.42011 -10.08 0.23598)
(4.64644 -12.183 0.0994837)
(4.52851 -10.6314 0.133585)
(4.74185 -11.771 0.11496)
(4.43449 -10.0855 0.186835)
(4.60007 -12.1695 0.0727982)
(4.53563 -10.6091 0.102104)
(4.70664 -11.7649 0.0875826)
(4.41526 -10.035 0.142906)
(4.51384 -12.0439 0.0500638)
(4.49275 -10.5089 0.0748327)
(4.62302 -11.6424 0.0646188)
(4.3461 -9.90011 0.105306)
(4.36135 -11.7404 0.0329776)
(4.36751 -10.2729 0.0521104)
(4.45103 -11.3042 0.0443298)
(4.18525 -9.6098 0.0724363)
(4.07292 -11.061 0.0231991)
(4.07591 -9.74353 0.0342869)
(4.09622 -10.5493 0.0270323)
(3.83597 -8.99794 0.0436865)
(3.52231 -9.64938 0.0185183)
(3.47842 -8.61235 0.0218788)
(3.42993 -9.08979 0.013279)
(3.1864 -7.86392 0.0204854)
(2.76995 -7.6399 0.00722699)
(2.69305 -6.97504 0.00728205)
(2.59732 -7.24862 0.00250619)
(2.41891 -6.49542 0.00501436)
(2.07544 -5.70634 -0.0128697)
(2.00906 -5.39469 -0.0100675)
(1.84674 -5.58792 -0.00792052)
(1.754 -5.26094 -0.00683717)
(0.587807 -5.49442 0.0189899)
(0.710158 -5.2256 0.0232133)
(0.204184 -5.95519 0.0121979)
(0.37888 -5.63473 0.0180186)
(-0.0208052 -6.16368 0.0178105)
(0.178473 -5.83047 0.0254819)
(-0.156729 -6.28607 0.0194738)
(0.0593351 -5.95341 0.0274228)
(-0.238721 -6.36556 0.0193635)
(-0.0119613 -6.035 0.0276412)
(-0.292079 -6.42178 0.0192736)
(-0.0576065 -6.09286 0.0275233)
(-0.330155 -6.46512 0.0192671)
(-0.0899203 -6.1395 0.0269356)
(0.0869769 -6.76616 0.0142025)
(0.369544 -6.29012 0.0214275)
(-0.403694 -7.32685 0.0135803)
(-0.111794 -6.83735 0.0226253)
(-0.66904 -7.55098 0.0186865)
(-0.375104 -7.07662 0.0287934)
(-0.825445 -7.67809 0.0233761)
(-0.525991 -7.21873 0.0319502)
(-0.919351 -7.76093 0.0273502)
(-0.614932 -7.31193 0.0346233)
(-0.980858 -7.82037 0.0310309)
(-0.672724 -7.37796 0.0381299)
(-1.02539 -7.86718 0.034504)
(-0.715 -7.43099 0.0410941)
(-0.0487629 -7.21233 0.0170236)
(0.277682 -6.67948 0.0229047)
(-0.55431 -7.7724 0.0233986)
(-0.23305 -7.22757 0.028242)
(-0.822967 -8.0017 0.0317628)
(-0.506735 -7.47371 0.03412)
(-0.979748 -8.13398 0.0396852)
(-0.662249 -7.62166 0.0382991)
(-1.07413 -8.21991 0.046756)
(-0.754399 -7.71855 0.0417629)
(-1.13625 -8.28104 0.0529139)
(-0.814977 -7.78716 0.0452551)
(-1.18148 -8.32857 0.0582837)
(-0.859709 -7.84113 0.0487645)
(-0.0898477 -7.41572 0.0214488)
(0.253499 -6.85638 0.0253661)
(-0.601942 -7.98911 0.0363682)
(-0.269184 -7.41085 0.0345962)
(-0.869108 -8.22772 0.0489504)
(-0.545337 -7.6643 0.0410953)
(-1.02456 -8.36605 0.060916)
(-0.702469 -7.81681 0.0469786)
(-1.11861 -8.45466 0.0714037)
(-0.796613 -7.91535 0.0524555)
(-1.1808 -8.51658 0.080125)
(-0.858925 -7.98453 0.056973)
(-1.2262 -8.56386 0.0873602)
(-0.905133 -8.03812 0.0610674)
(-0.099602 -7.54308 0.0275199)
(0.252145 -6.96606 0.0294393)
(-0.613496 -8.13309 0.0540488)
(-0.275939 -7.52852 0.0437539)
(-0.877117 -8.3806 0.0725555)
(-0.551918 -7.78812 0.0519914)
(-1.03079 -8.52356 0.0892117)
(-0.710013 -7.94354 0.0599399)
(-1.12433 -8.61374 0.102943)
(-0.805801 -8.04264 0.0670522)
(-1.1864 -8.67577 0.113743)
(-0.869616 -8.1114 0.0726233)
(-1.23177 -8.72247 0.122301)
(-0.916978 -8.16407 0.0770905)
(-0.0910983 -7.63548 0.0374639)
(0.264709 -7.04448 0.0377438)
(-0.602828 -8.24305 0.0777887)
(-0.264617 -7.61541 0.0577047)
(-0.861818 -8.49841 0.103853)
(-0.539311 -7.87987 0.0691516)
(-1.01356 -8.64467 0.125391)
(-0.698196 -8.03679 0.0794998)
(-1.10647 -8.73564 0.141969)
(-0.79535 -8.13588 0.0880026)
(-1.16827 -8.79744 0.154372)
(-0.860496 -8.2037 0.0944998)
(-1.21346 -8.84341 0.163842)
(-0.908767 -8.25532 0.0992735)
(-0.06713 -7.70652 0.0533966)
(0.289782 -7.10362 0.0531464)
(-0.572865 -8.3322 0.109312)
(-0.237454 -7.68358 0.0787335)
(-0.826554 -8.59438 0.144266)
(-0.510347 -7.95189 0.0947228)
(-0.976236 -8.74291 0.17074)
(-0.669861 -8.1094 0.107717)
(-1.06837 -8.83416 0.189866)
(-0.768096 -8.20802 0.117478)
(-1.12975 -8.89549 0.20357)
(-0.834203 -8.27481 0.12465)
(-1.17457 -8.94064 0.213703)
(-0.88311 -8.32524 0.129748)
(-0.0272939 -7.76183 0.0777994)
(0.328712 -7.14821 0.0789959)
(-0.522901 -8.40596 0.151217)
(-0.192893 -7.73795 0.11017)
(-0.770732 -8.67431 0.19625)
(-0.463501 -8.00956 0.131704)
(-0.918146 -8.82467 0.227932)
(-0.623294 -8.16732 0.147687)
(-1.00931 -8.91597 0.249573)
(-0.722231 -8.26519 0.158843)
(-1.07007 -8.97672 0.264472)
(-0.788838 -8.33097 0.166637)
(-1.11432 -9.02098 0.275144)
(-0.83801 -8.38012 0.172044)
(0.033351 -7.79942 0.113027)
(0.387546 -7.17608 0.118679)
(-0.446115 -8.46128 0.206236)
(-0.123059 -7.77539 0.156075)
(-0.686776 -8.73502 0.262128)
(-0.38986 -8.04957 0.183612)
(-0.831265 -8.88701 0.299291)
(-0.548934 -8.20731 0.202827)
(-0.921013 -8.97843 0.323555)
(-0.647844 -8.30435 0.215587)
(-0.980801 -9.03873 0.339689)
(-0.714375 -8.3691 0.224145)
(-1.02418 -9.08223 0.350899)
(-0.763316 -8.41697 0.229925)
(0.119598 -7.81727 0.160702)
(0.471936 -7.18569 0.174533)
(-0.33435 -8.49443 0.277183)
(-0.0180449 -7.79297 0.22095)
(-0.564704 -8.77261 0.344878)
(-0.277362 -8.06887 0.255269)
(-0.704439 -8.92587 0.387884)
(-0.433453 -8.22623 0.278224)
(-0.791622 -9.01715 0.414895)
(-0.53083 -8.32206 0.292929)
(-0.84967 -9.07678 0.432294)
(-0.596243 -8.38541 0.302468)
(-0.891611 -9.11929 0.444019)
(-0.644171 -8.43165 0.308719)
(0.24072 -7.80858 0.222505)
(0.592098 -7.17047 0.248509)
(-0.173497 -8.49661 0.367097)
(0.137304 -7.78231 0.309211)
(-0.387488 -8.77737 0.44856)
(-0.107741 -8.05769 0.352249)
(-0.518672 -8.93129 0.498563)
(-0.256599 -8.21359 0.380161)
(-0.600864 -9.02227 0.528934)
(-0.349736 -8.30769 0.397518)
(-0.655574 -9.08116 0.5479)
(-0.412242 -8.36926 0.408439)
(-0.694978 -9.12262 0.560244)
(-0.45786 -8.41369 0.415347)
(0.413131 -7.76113 0.298959)
(0.765372 -7.11928 0.342141)
(0.0615914 -8.45224 0.476738)
(0.368851 -7.72881 0.423686)
(-0.125193 -8.73251 0.574892)
(0.149469 -7.99948 0.478147)
(-0.241224 -8.88566 0.633528)
(0.0149262 -8.15173 0.512552)
(-0.314291 -8.97548 0.668084)
(-0.0695211 -8.2428 0.533435)
(-0.363004 -9.03303 0.689023)
(-0.126255 -8.30177 0.54622)
(-0.398126 -9.07305 0.702158)
(-0.167662 -8.34387 0.554008)
(0.660774 -7.66491 0.390518)
(1.01352 -7.02244 0.457181)
(0.406378 -8.34133 0.608497)
(0.706644 -7.61545 0.568104)
(0.264673 -8.61295 0.728023)
(0.529882 -7.87299 0.639311)
(0.174817 -8.761 0.7977)
(0.420704 -8.01695 0.683684)
(0.117633 -8.84738 0.837668)
(0.351969 -8.10241 0.710207)
(0.0790939 -8.90225 0.861192)
(0.305465 -8.15723 0.726116)
(0.0508465 -8.94 0.875363)
(0.271119 -8.19607 0.735487)
(1.02697 -7.5097 0.491309)
(1.36198 -6.87029 0.590748)
(0.909544 -8.12514 0.751583)
(1.18472 -7.41443 0.741835)
(0.836421 -8.37451 0.900614)
(1.07413 -7.64787 0.841453)
(0.788336 -8.51076 0.987011)
(1.00602 -7.77712 0.903817)
(0.75655 -8.59023 1.036)
(0.962846 -7.85329 0.940944)
(0.733885 -8.64038 1.06439)
(0.932758 -7.90172 0.962989)
(0.715995 -8.67445 1.08112)
(0.909462 -7.93562 0.975861)
(1.53408 -7.34698 0.572192)
(1.80928 -6.70127 0.722155)
(1.56671 -7.83371 0.86164)
(1.7925 -7.14918 0.922634)
(1.59036 -8.03745 1.05733)
(1.77594 -7.34022 1.0729)
(1.60402 -8.14976 1.17575)
(1.76653 -7.44422 1.17061)
(1.60989 -8.21599 1.24389)
(1.7594 -7.50534 1.22945)
(1.61038 -8.25779 1.28351)
(1.75198 -7.54402 1.26443)
(1.60704 -8.28601 1.30686)
(1.74338 -7.57091 1.28498)
(2.09663 -7.35785 0.591265)
(2.25487 -6.67642 0.806274)
(2.22208 -7.66242 0.889339)
(2.37097 -6.98467 1.05378)
(2.33979 -7.79797 1.13804)
(2.45278 -7.11662 1.27085)
(2.41642 -7.87403 1.30026)
(2.50351 -7.18597 1.42034)
(2.46062 -7.92056 1.39634)
(2.53198 -7.22704 1.51222)
(2.48464 -7.95045 1.45313)
(2.54638 -7.25326 1.56738)
(2.49625 -7.97046 1.48717)
(2.55189 -7.27139 1.60023)
(2.59436 -7.6339 0.555878)
(2.61779 -6.89384 0.828007)
(2.73205 -7.75081 0.840945)
(2.79231 -7.05373 1.10893)
(2.90953 -7.81287 1.12579)
(2.94994 -7.1224 1.38458)
(3.03141 -7.84858 1.32927)
(3.0482 -7.15373 1.58653)
(3.1026 -7.8728 1.45398)
(3.10285 -7.17262 1.71282)
(3.1427 -7.88952 1.52848)
(3.13228 -7.18548 1.78879)
(3.16438 -7.90052 1.57337)
(3.1471 -7.1942 1.83423)
(3.0118 -8.08728 0.495112)
(2.91407 -7.29167 0.809082)
(3.09823 -8.06229 0.756491)
(3.06833 -7.32562 1.1064)
(3.29089 -8.06039 1.04483)
(3.26937 -7.33372 1.41425)
(3.4397 -8.06013 1.27334)
(3.40543 -7.32802 1.65509)
(3.52883 -8.06361 1.41945)
(3.48176 -7.32571 1.80838)
(3.57964 -8.0681 1.50772)
(3.52379 -7.32545 1.90051)
(3.60798 -8.07099 1.56088)
(3.54647 -7.32542 1.95523)
(3.36235 -8.58372 0.442145)
(3.17346 -7.74292 0.777427)
(3.385 -8.48272 0.68181)
(3.2743 -7.69725 1.07385)
(3.54968 -8.43673 0.938762)
(3.47828 -7.65737 1.37662)
(3.70446 -8.40897 1.1644)
(3.64009 -7.62046 1.63289)
(3.80369 -8.3958 1.31761)
(3.73682 -7.59814 1.80277)
(3.8617 -8.39016 1.41218)
(3.7914 -7.58599 1.90507)
(3.89531 -8.38727 1.46966)
(3.82202 -7.57916 1.96694)
(3.65789 -9.04598 0.413092)
(3.4066 -8.16658 0.752322)
(3.64243 -8.91029 0.634603)
(3.46666 -8.07569 1.03255)
(3.76107 -8.84207 0.845468)
(3.64461 -8.01036 1.30112)
(3.90228 -8.79816 1.04386)
(3.81271 -7.95322 1.54448)
(4.00355 -8.77349 1.18885)
(3.92182 -7.91597 1.71613)
(4.06599 -8.76041 1.2824)
(3.98578 -7.89508 1.82408)
(4.10342 -8.75264 1.34083)
(4.02286 -7.88235 1.89047)
(3.91757 -9.463 0.406861)
(3.62519 -8.53787 0.736389)
(3.89395 -9.30335 0.608652)
(3.66866 -8.41221 0.988931)
(3.97556 -9.22267 0.778939)
(3.81149 -8.33159 1.21342)
(4.09536 -9.17001 0.94229)
(3.96948 -8.2631 1.426)
(4.19236 -9.13822 1.06977)
(4.08359 -8.21669 1.58579)
(4.25613 -9.11999 1.15593)
(4.1546 -8.18872 1.69083)
(4.29574 -9.10867 1.21123)
(4.19743 -8.17106 1.75708)
(4.15694 -9.84595 0.413152)
(3.83996 -8.85695 0.718367)
(4.14359 -9.65955 0.594438)
(3.88594 -8.69346 0.940005)
(4.20248 -9.56707 0.734574)
(4.00076 -8.5975 1.12224)
(4.30096 -9.50713 0.865546)
(4.14169 -8.51966 1.2967)
(4.38893 -9.46951 0.971559)
(4.25371 -8.46508 1.4348)
(4.44991 -9.4472 1.04551)
(4.32716 -8.4311 1.52871)
(4.48831 -9.43235 1.09366)
(4.37226 -8.4088 1.58887)
(4.35696 -10.1763 0.413235)
(4.03122 -9.10144 0.682652)
(4.35796 -9.95639 0.572912)
(4.08815 -8.89508 0.873824)
(4.40427 -9.85061 0.689728)
(4.1855 -8.78201 1.02003)
(4.48575 -9.78382 0.794053)
(4.31035 -8.69547 1.15841)
(4.56327 -9.74125 0.878853)
(4.41709 -8.63389 1.27132)
(4.61896 -9.71549 0.93849)
(4.49009 -8.59467 1.34926)
(4.65428 -9.69876 0.976989)
(4.53521 -8.56931 1.39882)
(4.5028 -10.4473 0.394214)
(4.17836 -9.27294 0.625638)
(4.51515 -10.1876 0.533509)
(4.24524 -9.0201 0.789999)
(4.55399 -10.0644 0.631449)
(4.33183 -8.88725 0.906499)
(4.62025 -9.98936 0.71446)
(4.44193 -8.79133 1.01406)
(4.68656 -9.94153 0.780931)
(4.54166 -8.72275 1.10372)
(4.73595 -9.91245 0.827488)
(4.61259 -8.67868 1.1665)
(4.76746 -9.89396 0.857159)
(4.65689 -8.6505 1.20611)
(4.60941 -10.6798 0.357754)
(4.28871 -9.39642 0.551598)
(4.62657 -10.3749 0.477546)
(4.36208 -9.09536 0.691215)
(4.65758 -10.2304 0.55981)
(4.43955 -8.94068 0.783731)
(4.70934 -10.1456 0.625671)
(4.53446 -8.83549 0.864688)
(4.76466 -10.0922 0.67681)
(4.62546 -8.76085 0.93306)
(4.80783 -10.0597 0.712135)
(4.69303 -8.71244 0.981637)
(4.83566 -10.0392 0.734257)
(4.73569 -8.68166 1.0122)
(4.68609 -10.8801 0.308902)
(4.36792 -9.4827 0.46957)
(4.69955 -10.5294 0.409573)
(4.44129 -9.13736 0.583815)
(4.72167 -10.3585 0.47935)
(4.51142 -8.95827 0.657513)
(4.76039 -10.2613 0.531882)
(4.59281 -8.84264 0.716842)
(4.80556 -10.2018 0.570145)
(4.67373 -8.76288 0.766294)
(4.84239 -10.1658 0.595738)
(4.73698 -8.71108 0.801938)
(4.86653 -10.1435 0.611341)
(4.77744 -8.67828 0.824337)
(4.73673 -11.0417 0.256254)
(4.42019 -9.53511 0.387534)
(4.7432 -10.6522 0.336408)
(4.48849 -9.15219 0.475867)
(4.7532 -10.4569 0.393997)
(4.54962 -8.95185 0.532708)
(4.77914 -10.3455 0.437157)
(4.61746 -8.82637 0.57656)
(4.81512 -10.2784 0.467106)
(4.68724 -8.74199 0.611759)
(4.84593 -10.2386 0.485544)
(4.74455 -8.68729 0.636836)
(4.86641 -10.2143 0.495843)
(4.78225 -8.65271 0.652341)
(4.76143 -11.156 0.204415)
(4.4465 -9.55092 0.309758)
(4.76071 -10.7341 0.265624)
(4.50639 -9.13563 0.374862)
(4.75816 -10.5195 0.310138)
(4.55648 -8.92004 0.415839)
(4.76604 -10.3977 0.342962)
(4.60533 -8.79071 0.445506)
(4.78634 -10.3242 0.365501)
(4.65803 -8.70475 0.468692)
(4.8086 -10.2799 0.37857)
(4.70582 -8.64833 0.484738)
(4.82529 -10.2531 0.385127)
(4.74016 -8.61244 0.494405)
(4.7565 -11.208 0.157043)
(4.44353 -9.52212 0.24012)
(4.74855 -10.7584 0.202581)
(4.49201 -9.07691 0.285447)
(4.73652 -10.5274 0.235686)
(4.53298 -8.8478 0.313889)
(4.73083 -10.3982 0.258622)
(4.56645 -8.71742 0.331584)
(4.73535 -10.3221 0.273315)
(4.59961 -8.63542 0.343607)
(4.74631 -10.2764 0.281112)
(4.63278 -8.58181 0.351462)
(4.75711 -10.2487 0.284551)
(4.65988 -8.54721 0.356106)
(4.71586 -11.1811 0.116386)
(4.40301 -9.43667 0.179363)
(4.69853 -10.7069 0.148851)
(4.43536 -8.96274 0.208641)
(4.67801 -10.4611 0.172503)
(4.46757 -8.72058 0.227924)
(4.66335 -10.3247 0.187848)
(4.49159 -8.58765 0.238292)
(4.65717 -10.2462 0.197299)
(4.51171 -8.50957 0.243378)
(4.6582 -10.2007 0.201792)
(4.53184 -8.46102 0.245115)
(4.66232 -10.1736 0.203045)
(4.55042 -8.43032 0.245406)
(4.61993 -11.0358 0.0822405)
(4.30589 -9.2639 0.127538)
(4.58841 -10.5382 0.104321)
(4.31697 -8.76308 0.143837)
(4.55753 -10.2788 0.120296)
(4.33635 -8.51011 0.156234)
(4.53479 -10.1348 0.130228)
(4.35162 -8.37417 0.162137)
(4.52112 -10.0533 0.136229)
(4.36378 -8.29798 0.164259)
(4.51519 -10.0071 0.138397)
(4.37532 -8.25319 0.16375)
(4.51421 -9.98068 0.138267)
(4.38686 -8.22655 0.162382)
(4.42116 -10.6754 0.0532723)
(4.10182 -8.93071 0.0833611)
(4.3649 -10.1587 0.0670151)
(4.08111 -8.41045 0.0893346)
(4.31882 -9.88932 0.0770089)
(4.08372 -8.15473 0.0961601)
(4.2856 -9.73902 0.0829673)
(4.08824 -8.01977 0.0993263)
(4.26472 -9.65459 0.0868654)
(4.09283 -7.94744 0.100977)
(4.25319 -9.6067 0.088321)
(4.09821 -7.90603 0.100602)
(4.24816 -9.58028 0.0878518)
(4.10479 -7.88267 0.0992875)
(4.01533 -9.90028 0.0293266)
(3.68828 -8.29435 0.0462778)
(3.91997 -9.38504 0.0365221)
(3.62343 -7.79109 0.0455626)
(3.85147 -9.12036 0.0420492)
(3.60389 -7.55894 0.0486231)
(3.80354 -8.97211 0.0452169)
(3.59502 -7.44054 0.0505575)
(3.77336 -8.88903 0.0476426)
(3.59145 -7.38045 0.0524672)
(3.75564 -8.84186 0.048884)
(3.59126 -7.34597 0.0530173)
(3.74665 -8.81624 0.0487101)
(3.59393 -7.32755 0.0525473)
(3.29344 -8.51525 0.0121245)
(2.99608 -7.26902 0.0193193)
(3.16499 -8.08982 0.014965)
(2.9057 -6.88868 0.0171255)
(3.07853 -7.87485 0.0179774)
(2.87314 -6.73301 0.0180601)
(3.01946 -7.75381 0.0195074)
(2.85483 -6.65753 0.0192973)
(2.98235 -7.68524 0.0208017)
(2.84467 -6.61913 0.0212731)
(2.96023 -7.64633 0.0218028)
(2.83983 -6.59686 0.0225468)
(2.94813 -7.62505 0.0219725)
(2.8394 -6.58567 0.0227255)
(2.43886 -6.90234 0.0023806)
(2.23862 -6.15509 0.00461833)
(2.30863 -6.65773 0.00370589)
(2.14738 -5.95811 0.00367843)
(2.22464 -6.53014 0.00524031)
(2.10975 -5.88757 0.00361291)
(2.1696 -6.45726 0.00592043)
(2.08729 -5.85551 0.00435351)
(2.13583 -6.41559 0.00655605)
(2.07368 -5.83743 0.00585519)
(2.11558 -6.39136 0.00737072)
(2.06631 -5.82624 0.00711645)
(2.104 -6.37771 0.00766576)
(2.06391 -5.82092 0.00735074)
(1.67928 -5.48749 -0.00429476)
(1.58704 -5.17031 -0.00436928)
(1.56055 -5.42064 -0.00252865)
(1.49001 -5.12693 -0.00318666)
(1.49407 -5.38156 -0.00216683)
(1.44552 -5.11688 -0.00288084)
(1.45465 -5.35825 -0.00242114)
(1.42072 -5.11283 -0.00252052)
(1.43223 -5.34561 -0.00255858)
(1.40624 -5.10915 -0.00199859)
(1.41924 -5.33777 -0.00236209)
(1.39778 -5.1054 -0.00155225)
(1.41171 -5.33284 -0.00245519)
(1.39334 -5.1031 -0.00163475)
(-0.361893 -6.50463 0.0192384)
(-0.11589 -6.18125 0.0261573)
(-0.387149 -6.54051 0.0188981)
(-0.137118 -6.21888 0.025319)
(-0.404765 -6.57198 0.0182052)
(-0.151551 -6.25066 0.0245216)
(-0.420762 -6.6088 0.0167798)
(-0.164363 -6.28718 0.0231349)
(-0.442018 -6.6665 0.0126671)
(-0.181684 -6.34421 0.0193641)
(-0.495434 -6.77564 0.00516533)
(-0.231405 -6.45749 0.0125794)
(-1.06343 -7.91094 0.038069)
(-0.75056 -7.47978 0.04357)
(-1.09525 -7.95075 0.0411043)
(-0.780751 -7.52449 0.0454194)
(-1.11891 -7.98485 0.0436602)
(-0.80312 -7.56187 0.0466748)
(-1.14313 -8.02578 0.0454694)
(-0.826204 -7.60599 0.0471972)
(-1.17983 -8.09608 0.043319)
(-0.862461 -7.68081 0.0448617)
(-1.2694 -8.25335 0.0304576)
(-0.957455 -7.85373 0.0325653)
(-1.22047 -8.37207 0.06343)
(-0.897849 -7.88964 0.0521989)
(-1.25313 -8.41104 0.0676386)
(-0.930312 -7.93335 0.054943)
(-1.27815 -8.44316 0.0705776)
(-0.95515 -7.96877 0.056637)
(-1.30495 -8.48067 0.0724509)
(-0.982049 -8.00991 0.0571049)
(-1.34746 -8.54535 0.0710876)
(-1.0258 -8.08064 0.054095)
(-1.45031 -8.70086 0.0575214)
(-1.13716 -8.25417 0.0391379)
(-1.26551 -8.60644 0.0939802)
(-0.944723 -8.08553 0.0648486)
(-1.29844 -8.64419 0.0991951)
(-0.978325 -8.12774 0.0676763)
(-1.32383 -8.67494 0.102611)
(-1.00426 -8.16161 0.0692136)
(-1.35137 -8.71038 0.104834)
(-1.03274 -8.20056 0.0694792)
(-1.39577 -8.77058 0.104409)
(-1.07965 -8.26692 0.0664957)
(-1.50361 -8.91802 0.0917824)
(-1.1983 -8.43278 0.0502385)
(-1.27108 -8.76404 0.129859)
(-0.957631 -8.21011 0.0809452)
(-1.30403 -8.8007 0.135714)
(-0.99203 -8.25084 0.0836893)
(-1.32949 -8.83039 0.13951)
(-1.01867 -8.28337 0.0850443)
(-1.35721 -8.86444 0.14216)
(-1.04807 -8.32064 0.0851082)
(-1.40215 -8.92179 0.142948)
(-1.09664 -8.38388 0.0822411)
(-1.51176 -9.06164 0.133949)
(-1.21896 -8.54171 0.0670336)
(-1.25256 -8.88396 0.171984)
(-0.950209 -8.29993 0.103132)
(-1.28533 -8.91961 0.17825)
(-0.985174 -8.33926 0.105755)
(-1.3107 -8.94837 0.182313)
(-1.01231 -8.37059 0.106934)
(-1.33836 -8.98127 0.185309)
(-1.04234 -8.40643 0.106821)
(-1.38327 -9.03648 0.187178)
(-1.09194 -8.46709 0.104085)
(-1.49283 -9.17007 0.183074)
(-1.21609 -8.61742 0.0912849)
(-1.21327 -8.98018 0.222234)
(-0.925041 -8.36844 0.133671)
(-1.24569 -9.01489 0.22877)
(-0.960328 -8.40645 0.13627)
(-1.27083 -9.04282 0.233011)
(-0.987761 -8.43665 0.137379)
(-1.29826 -9.0747 0.236253)
(-1.01819 -8.47115 0.1372)
(-1.3428 -9.12811 0.238971)
(-1.06842 -8.52941 0.134694)
(-1.45123 -9.25629 0.23953)
(-1.1933 -8.67262 0.124791)
(-1.15238 -9.05944 0.283939)
(-0.880048 -8.42187 0.176052)
(-1.18428 -9.09321 0.290629)
(-0.915348 -8.45855 0.178673)
(-1.20904 -9.12032 0.294945)
(-0.942844 -8.48764 0.179758)
(-1.23609 -9.15122 0.298285)
(-0.973414 -8.5208 0.179554)
(-1.28 -9.20295 0.301489)
(-1.02388 -8.5767 0.177285)
(-1.38659 -9.32621 0.305446)
(-1.14857 -8.71291 0.169917)
(-1.06132 -9.11969 0.359924)
(-0.804983 -8.45724 0.234083)
(-1.09247 -9.15258 0.366702)
(-0.839913 -8.49259 0.236787)
(-1.11671 -9.17892 0.37098)
(-0.867203 -8.52054 0.237856)
(-1.14327 -9.20888 0.374194)
(-0.897648 -8.55232 0.23757)
(-1.18641 -9.25894 0.377357)
(-0.947943 -8.60573 0.235316)
(-1.29066 -9.37729 0.382977)
(-1.07149 -8.73477 0.229521)
(-0.927338 -9.15557 0.453247)
(-0.684777 -8.47012 0.313104)
(-0.957427 -9.18746 0.460031)
(-0.718877 -8.50388 0.315928)
(-0.98097 -9.21297 0.464183)
(-0.745667 -8.53053 0.316977)
(-1.00689 -9.24196 0.467135)
(-0.775738 -8.56077 0.316547)
(-1.04907 -9.29042 0.469869)
(-0.825549 -8.61153 0.314021)
(-1.15044 -9.40425 0.475398)
(-0.947182 -8.73336 0.308278)
(-0.728398 -9.15765 0.569687)
(-0.496332 -8.45022 0.420037)
(-0.756841 -9.18854 0.576391)
(-0.52889 -8.48234 0.422959)
(-0.779327 -9.21322 0.580259)
(-0.554734 -8.50766 0.423875)
(-0.804345 -9.24126 0.582649)
(-0.584071 -8.53636 0.423038)
(-0.845318 -9.28812 0.584264)
(-0.632984 -8.58446 0.419604)
(-0.943252 -9.39746 0.58762)
(-0.751871 -8.69909 0.411894)
(-0.427763 -9.10646 0.711929)
(-0.20237 -8.37801 0.559153)
(-0.453609 -9.13613 0.718548)
(-0.232309 -8.40823 0.562199)
(-0.474459 -9.15987 0.722071)
(-0.256542 -8.43208 0.562922)
(-0.498146 -9.18689 0.723748)
(-0.284618 -8.45915 0.561504)
(-0.537461 -9.23214 0.723846)
(-0.332026 -8.50459 0.556691)
(-0.631051 -9.33708 0.72355)
(-0.446855 -8.61237 0.545361)
(0.0272797 -8.97107 0.885656)
(0.242659 -8.22705 0.741693)
(0.00543147 -8.99913 0.892192)
(0.216917 -8.25491 0.745171)
(-0.0129521 -9.02171 0.895295)
(0.19527 -8.27701 0.745829)
(-0.0347351 -9.04758 0.89609)
(0.169214 -8.30223 0.743835)
(-0.071875 -9.09113 0.894275)
(0.124161 -8.34478 0.737465)
(-0.160142 -9.19166 0.889256)
(0.015145 -8.44551 0.721817)
(0.699226 -8.70258 1.09241)
(0.888393 -7.96278 0.983902)
(0.683881 -8.72787 1.09971)
(0.869437 -7.98713 0.988984)
(0.669519 -8.74863 1.103)
(0.852035 -8.00677 0.990358)
(0.650689 -8.77286 1.10348)
(0.829289 -8.02953 0.988451)
(0.616593 -8.81421 1.10048)
(0.788002 -8.0684 0.981343)
(0.534873 -8.90969 1.09194)
(0.687376 -8.16061 0.962875)
(1.60179 -8.30888 1.32269)
(1.73386 -7.5922 1.2986)
(1.59541 -8.32995 1.33297)
(1.72394 -7.61171 1.3077)
(1.58695 -8.3477 1.33832)
(1.7125 -7.62778 1.31162)
(1.57315 -8.36901 1.34074)
(1.69497 -7.64682 1.31178)
(1.54546 -8.40617 1.34037)
(1.66056 -7.68 1.30706)
(1.47794 -8.49191 1.33684)
(1.57571 -7.75907 1.29305)
(2.50302 -7.98629 1.51082)
(2.55369 -7.28543 1.6231)
(2.50517 -8.00202 1.52665)
(2.55195 -7.29921 1.63867)
(2.50311 -8.01547 1.53651)
(2.5465 -7.31068 1.64727)
(2.49604 -8.03201 1.54412)
(2.53516 -7.32447 1.65216)
(2.47869 -8.0615 1.55212)
(2.51031 -7.34907 1.65452)
(2.43444 -8.12903 1.56673)
(2.44802 -7.40812 1.65641)
(3.17906 -7.90922 1.60493)
(3.15616 -7.20086 1.86637)
(3.18763 -7.91906 1.62676)
(3.16033 -7.20849 1.88886)
(3.19112 -7.92744 1.6419)
(3.1598 -7.21478 1.90288)
(3.19083 -7.9378 1.65607)
(3.15432 -7.22235 1.91388)
(3.18519 -7.95698 1.67551)
(3.13956 -7.23636 1.92632)
(3.16744 -8.0013 1.71597)
(3.10092 -7.2704 1.95162)
(3.62758 -8.07344 1.59845)
(3.56142 -7.32541 1.9941)
(3.64102 -8.07786 1.62542)
(3.57091 -7.32736 2.02263)
(3.64927 -8.08138 1.64538)
(3.57506 -7.3288 2.0418)
(3.65535 -8.08563 1.66589)
(3.5754 -7.33041 2.05889)
(3.66123 -8.09431 1.69667)
(3.57072 -7.33427 2.08159)
(3.66861 -8.11482 1.76205)
(3.55391 -7.34396 2.13)
(3.91827 -8.38428 1.51112)
(3.84204 -7.57322 2.01136)
(3.93573 -8.38459 1.54144)
(3.85632 -7.5707 2.0442)
(3.94801 -8.38418 1.56484)
(3.86457 -7.56813 2.06702)
(3.95963 -8.38335 1.59016)
(3.87 -7.56473 2.08861)
(3.9757 -8.38318 1.62987)
(3.87422 -7.55997 2.11909)
(4.0051 -8.38395 1.71502)
(3.87726 -7.55008 2.18513)
(4.12997 -8.74563 1.38367)
(4.04834 -7.87144 1.93881)
(4.15107 -8.7427 1.41532)
(4.06763 -7.86518 1.97455)
(4.16684 -8.73923 1.44025)
(4.08013 -7.85927 1.99989)
(4.18307 -8.73448 1.46791)
(4.09078 -7.85174 2.02484)
(4.20759 -8.72761 1.51229)
(4.10414 -7.83999 2.06153)
(4.2555 -8.71362 1.60865)
(4.12746 -7.81328 2.14285)
(4.32447 -9.09848 1.25239)
(4.22781 -8.15572 1.80604)
(4.34802 -9.09314 1.2829)
(4.25164 -8.14628 1.84206)
(4.36606 -9.08733 1.30709)
(4.2679 -8.13752 1.86782)
(4.38521 -9.07961 1.33408)
(4.28303 -8.12651 1.8937)
(4.41518 -9.06773 1.37776)
(4.30424 -8.10898 1.93258)
(4.47569 -9.0426 1.47374)
(4.34559 -8.06728 2.02047)
(4.51738 -9.41988 1.12926)
(4.40575 -8.38978 1.63294)
(4.54171 -9.41217 1.15607)
(4.43273 -8.37723 1.66575)
(4.56064 -9.40417 1.17738)
(4.45166 -8.36569 1.6893)
(4.58097 -9.39369 1.2011)
(4.46992 -8.35125 1.71308)
(4.61338 -9.37726 1.23943)
(4.49666 -8.32815 1.74901)
(4.67993 -9.3419 1.32403)
(4.55054 -8.27237 1.83164)
(4.68076 -9.68385 1.00555)
(4.5687 -8.54696 1.4353)
(4.70374 -9.67431 1.02721)
(4.59641 -8.53184 1.46276)
(4.72175 -9.6643 1.04444)
(4.6162 -8.51774 1.48248)
(4.74123 -9.65119 1.0634)
(4.63576 -8.5001 1.50227)
(4.77273 -9.63033 1.09366)
(4.66519 -8.47165 1.53191)
(4.83865 -9.58548 1.15987)
(4.72647 -8.4029 1.59991)
(4.79065 -9.87708 0.879055)
(4.68958 -8.62544 1.23517)
(4.81108 -9.86598 0.895471)
(4.71672 -8.60813 1.25684)
(4.82703 -9.85419 0.908379)
(4.7363 -8.59183 1.27221)
(4.84425 -9.8387 0.92231)
(4.75597 -8.57134 1.28729)
(4.87242 -9.81378 0.944115)
(4.78604 -8.53795 1.30942)
(4.93254 -9.76049 0.991821)
(4.84885 -8.45861 1.3606)
(4.85584 -10.0205 0.750272)
(4.76689 -8.65432 1.03444)
(4.8734 -10.0079 0.761912)
(4.79267 -8.63518 1.05064)
(4.88698 -9.99438 0.770713)
(4.81121 -8.61704 1.06182)
(4.90168 -9.97651 0.779851)
(4.82978 -8.59419 1.07237)
(4.92602 -9.9475 0.793754)
(4.85828 -8.55677 1.08741)
(4.97883 -9.88635 0.824936)
(4.91789 -8.46859 1.12301)
(4.88369 -10.1233 0.622266)
(4.80675 -8.64923 0.840425)
(4.89817 -10.1092 0.629623)
(4.83064 -8.62883 0.851699)
(4.90905 -10.0943 0.634764)
(4.84761 -8.60935 0.859132)
(4.9205 -10.0743 0.639669)
(4.86437 -8.58469 0.865769)
(4.93944 -10.0415 0.646894)
(4.88987 -8.54436 0.875029)
(4.98152 -9.97384 0.665065)
(4.94353 -8.4507 0.898721)
(4.88051 -10.1924 0.502403)
(4.80926 -8.62219 0.66317)
(4.89186 -10.1771 0.505825)
(4.8309 -8.60075 0.670085)
(4.89985 -10.1607 0.507479)
(4.84593 -8.58014 0.674117)
(4.90761 -10.1386 0.508255)
(4.8604 -8.55387 0.677192)
(4.91994 -10.102 0.509056)
(4.88215 -8.51096 0.681415)
(4.94865 -10.0275 0.515926)
(4.9287 -8.41266 0.695913)
(4.83704 -10.2291 0.38862)
(4.7651 -8.58065 0.500907)
(4.84656 -10.2119 0.389097)
(4.78543 -8.55808 0.504225)
(4.853 -10.1934 0.387862)
(4.79948 -8.53617 0.505429)
(4.85873 -10.1687 0.385042)
(4.81294 -8.50807 0.505563)
(4.86723 -10.1275 0.380433)
(4.83303 -8.46204 0.506049)
(4.88677 -10.0452 0.379235)
(4.87571 -8.35777 0.515447)
(4.76514 -10.2238 0.285592)
(4.68114 -8.51576 0.35895)
(4.7723 -10.2055 0.283685)
(4.69977 -8.4933 0.358961)
(4.77681 -10.186 0.280113)
(4.71264 -8.47108 0.357281)
(4.78024 -10.1596 0.274319)
(4.72482 -8.4425 0.354045)
(4.78462 -10.1157 0.264995)
(4.74278 -8.39569 0.349666)
(4.79471 -10.029 0.25661)
(4.78261 -8.28978 0.353076)
(4.66577 -10.1492 0.202309)
(4.56612 -8.40175 0.245082)
(4.66993 -10.1309 0.198837)
(4.5813 -8.38138 0.24238)
(4.67196 -10.1116 0.193687)
(4.59187 -8.3611 0.238408)
(4.67246 -10.0856 0.185703)
(4.60196 -8.33481 0.232457)
(4.67205 -10.0423 0.172321)
(4.61685 -8.29206 0.223676)
(4.67273 -9.95807 0.156126)
(4.64996 -8.19548 0.219415)
(4.51363 -9.95698 0.136887)
(4.39693 -8.20165 0.160917)
(4.51444 -9.93852 0.133209)
(4.408 -8.18402 0.157284)
(4.51392 -9.91972 0.127872)
(4.41568 -8.16676 0.152541)
(4.51154 -9.89464 0.119392)
(4.42299 -8.14445 0.14541)
(4.50637 -9.85312 0.104551)
(4.43385 -8.10907 0.133784)
(4.49811 -9.77639 0.0839481)
(4.45861 -8.03402 0.12161)
(4.24407 -9.55728 0.0864932)
(4.11029 -7.86118 0.0980858)
(4.24131 -9.53802 0.0831893)
(4.11743 -7.84561 0.0950623)