/*--------------------------------*- C++ -*----------------------------------*\
| =========                 |                                                 |
| \\      /  F ield         | OpenFOAM: The Open Source CFD Toolbox           |
|  \\    /   O peration     | Version:  2206                                  |
|   \\  /    A nd           | Website:  www.openfoam.com                      |
|    \\/     M anipulation  |                                                 |
\*---------------------------------------------------------------------------*/
FoamFile
{
    version     2.0;
    format      ascii;
    arch        "LSB;label=32;scalar=64";
    class       volVectorField;
    location    "400";
    object      Urel;
}
// * * * * * * * * * * * * * * * * * * * * * * * * * * * * * * * * * * * * * //

dimensions      [0 1 -1 0 0 0 0];

internalField   nonuniform List<vector> 
50904
(
(-0.320781 -0.062964 0.0561708)
(-0.294131 0.050569 0.0604733)
(-0.246013 -0.672392 -0.0231167)
(-0.121413 -0.561829 -0.0237369)
(-0.869721 -0.495005 0.0689821)
(-0.735296 -0.165075 0.0777027)
(-0.699521 -1.80414 -0.0129676)
(-0.382002 -1.50399 -0.0159396)
(-1.10676 -0.927558 0.0920649)
(-0.880582 -0.478313 0.110056)
(-0.872331 -2.24926 -0.000734854)
(-0.492154 -1.87669 -0.00320431)
(-1.15831 -1.17589 0.109691)
(-0.880102 -0.688901 0.131905)
(-0.929903 -2.40684 0.0130638)
(-0.530664 -2.00166 0.0119648)
(-1.16041 -1.33821 0.117353)
(-0.849596 -0.838521 0.143234)
(-0.95241 -2.47926 0.0309591)
(-0.545935 -2.05354 0.0322771)
(-1.14406 -1.4607 0.118422)
(-0.810467 -0.957496 0.147796)
(-0.95793 -2.51627 0.0531286)
(-0.549222 -2.07516 0.0582447)
(-1.11704 -1.55792 0.116926)
(-0.767163 -1.05508 0.14978)
(-0.950703 -2.53427 0.0788167)
(-0.542545 -2.08099 0.0894516)
(-1.08089 -1.63281 0.118892)
(-0.719579 -1.13197 0.155725)
(-0.93087 -2.53928 0.107418)
(-0.524857 -2.07644 0.125606)
(-1.0341 -1.68255 0.13153)
(-0.665337 -1.18347 0.17204)
(-0.895827 -2.52963 0.139356)
(-0.49301 -2.05966 0.167185)
(-0.970598 -1.70547 0.160959)
(-0.59981 -1.20441 0.204055)
(-0.841991 -2.50415 0.176658)
(-0.442874 -2.02883 0.2158)
(-0.87761 -1.7039 0.215219)
(-0.511726 -1.19396 0.258378)
(-0.761949 -2.45597 0.222089)
(-0.367458 -1.97635 0.274103)
(-0.733924 -1.68361 0.298646)
(-0.38303 -1.15477 0.33865)
(-0.641444 -2.37529 0.280597)
(-0.253805 -1.89122 0.34689)
(-0.505083 -1.67234 0.401832)
(-0.189065 -1.10793 0.439831)
(-0.455733 -2.26161 0.3562)
(-0.0831293 -1.77014 0.437796)
(-0.139551 -1.75346 0.492793)
(0.107066 -1.12296 0.54073)
(-0.153658 -2.1484 0.448446)
(0.17861 -1.638 0.548164)
(0.41034 -2.09293 0.500348)
(0.533509 -1.34118 0.590071)
(0.3196 -2.1547 0.529663)
(0.555449 -1.58729 0.659918)
(1.03471 -2.74143 0.362213)
(1.01536 -1.85793 0.517552)
(0.878348 -2.44757 0.527611)
(0.972994 -1.78646 0.703318)
(1.57428 -3.4939 0.152015)
(1.44314 -2.52838 0.360489)
(1.39446 -2.9647 0.438536)
(1.35007 -2.2197 0.666356)
(1.98222 -4.19503 -0.0511265)
(1.77032 -3.20091 0.188686)
(1.82024 -3.55989 0.314267)
(1.6709 -2.75386 0.580192)
(2.26223 -4.7604 -0.180223)
(1.99309 -3.77928 0.0634789)
(2.15402 -4.10891 0.218075)
(1.93314 -3.27016 0.504882)
(2.44951 -5.18361 -0.216463)
(2.14 -4.23522 0.00850518)
(2.42235 -4.5846 0.174939)
(2.15034 -3.72687 0.466592)
(2.58009 -5.5208 -0.171564)
(2.24312 -4.59712 0.0201171)
(2.64161 -5.00061 0.180466)
(2.3345 -4.12068 0.461188)
(2.67795 -5.83252 -0.0710585)
(2.32845 -4.90478 0.0804005)
(2.82913 -5.39036 0.213582)
(2.50068 -4.47067 0.46721)
(2.75996 -6.15125 0.0385569)
(2.41376 -5.17526 0.152835)
(2.97678 -5.74447 0.245038)
(2.64098 -4.75718 0.462225)
(2.83049 -6.46103 0.113805)
(2.5017 -5.40532 0.201852)
(3.0875 -6.0534 0.253039)
(2.75379 -4.97729 0.43618)
(2.88789 -6.75164 0.153609)
(2.59148 -5.60299 0.221145)
(3.17225 -6.32723 0.238556)
(2.84571 -5.14803 0.394033)
(2.92832 -7.00397 0.16534)
(2.67834 -5.76473 0.217014)
(3.2343 -6.566 0.211155)
(2.91808 -5.27642 0.342438)
(2.94806 -7.20489 0.153457)
(2.7562 -5.88774 0.195995)
(3.27351 -6.76112 0.17924)
(2.97092 -5.36525 0.288886)
(2.94619 -7.34732 0.127881)
(2.81688 -5.97008 0.16647)
(3.28913 -6.9017 0.146069)
(3.00289 -5.41471 0.23598)
(2.91965 -7.42025 0.0994837)
(2.85136 -6.00533 0.133585)
(3.27816 -6.97398 0.11496)
(3.0093 -5.41916 0.186835)
(2.86542 -7.40742 0.0727982)
(2.85085 -5.9841 0.102104)
(3.23593 -6.9664 0.0875826)
(2.98336 -5.36794 0.142906)
(2.77287 -7.28249 0.0500638)
(2.80184 -5.88486 0.0748327)
(3.14655 -6.84278 0.0646188)
(2.9087 -5.23255 0.105306)
(2.61525 -6.97961 0.0329776)
(2.6716 -5.64972 0.0521104)
(2.96986 -6.50374 0.0443298)
(2.74335 -4.94189 0.0724363)
(2.32268 -6.30078 0.0231991)
(2.37598 -5.12109 0.0342869)
(2.6112 -5.74822 0.0270323)
(2.39038 -4.3298 0.0436865)
(1.7688 -4.88964 0.0185183)
(1.7753 -3.99053 0.0218788)
(1.94183 -4.28822 0.013279)
(1.73785 -3.1956 0.0204854)
(1.01386 -2.88054 0.00722699)
(0.987402 -2.35371 0.00728205)
(1.10677 -2.44667 0.00250619)
(0.968016 -1.82696 0.00501436)
(0.317299 -0.947278 -0.0128697)
(0.301406 -0.773746 -0.0100675)
(0.354248 -0.785661 -0.00792052)
(0.301246 -0.592368 -0.00683717)
(-0.426819 -0.845142 0.0189899)
(-0.288251 -0.64743 0.0232133)
(-0.745358 -1.31289 0.0121979)
(-0.557142 -1.05892 0.0180186)
(-0.947591 -1.523 0.0178105)
(-0.734497 -1.25454 0.0254819)
(-1.0715 -1.64612 0.0194738)
(-0.841494 -1.37727 0.0274228)
(-1.14633 -1.72603 0.0193635)
(-0.905572 -1.45866 0.0276412)
(-1.19485 -1.78254 0.0192736)
(-0.946376 -1.51633 0.0275233)
(-1.22924 -1.82612 0.0192671)
(-0.975026 -1.56278 0.0269356)
(-0.929401 -2.1168 0.0142025)
(-0.630579 -1.71199 0.0214275)
(-1.35462 -2.68445 0.0135803)
(-1.04917 -2.26156 0.0226253)
(-1.59708 -2.9102 0.0186865)
(-1.2893 -2.5007 0.0287934)
(-1.7414 -3.03804 0.0233761)
(-1.42797 -2.64259 0.0319502)
(-1.82811 -3.1213 0.0273502)
(-1.50966 -2.73558 0.0346233)
(-1.88476 -3.18103 0.0310309)
(-1.56259 -2.80142 0.0381299)
(-1.9256 -3.22807 0.034504)
(-1.6012 -2.85427 0.0410941)
(-1.06735 -2.56286 0.0170236)
(-0.724602 -2.1014 0.0229047)
(-1.50698 -3.12989 0.0233986)
(-1.17214 -2.6518 0.028242)
(-1.75258 -3.3608 0.0317628)
(-1.42247 -2.89779 0.03412)
(-1.8972 -3.49381 0.0396852)
(-1.56569 -3.04551 0.0382991)
(-1.98434 -3.58015 0.046756)
(-1.65054 -3.1422 0.0417629)
(-2.04159 -3.64156 0.0529139)
(-1.70624 -3.21062 0.0452551)
(-2.08311 -3.68933 0.0582837)
(-1.74729 -3.2644 0.0487645)
(-1.11122 -2.76612 0.0214488)
(-0.751512 -2.27836 0.0253661)
(-1.55681 -3.34645 0.0363682)
(-1.21043 -2.8351 0.0345962)
(-1.80072 -3.58666 0.0489504)
(-1.46301 -3.08839 0.0410953)
(-1.9439 -3.72572 0.060916)
(-1.60774 -3.24066 0.0469786)
(-2.03065 -3.81473 0.0714037)
(-1.69453 -3.33899 0.0524555)
(-2.08794 -3.87694 0.080125)
(-1.75194 -3.40798 0.056973)
(-2.12963 -3.92445 0.0873602)
(-1.79445 -3.46138 0.0610674)
(-1.12449 -2.89332 0.0275199)
(-0.756305 -2.38811 0.0294393)
(-1.57113 -3.49025 0.0540488)
(-1.2199 -2.9528 0.0437539)
(-1.81124 -3.73935 0.0725555)
(-1.47204 -3.21222 0.0519914)
(-1.95251 -3.88302 0.0892117)
(-1.6176 -3.36739 0.0599399)
(-2.03868 -3.97361 0.102943)
(-1.70596 -3.46627 0.0670522)
(-2.09582 -4.03592 0.113743)
(-1.76484 -3.53484 0.0726233)
(-2.13746 -4.08285 0.122301)
(-1.80849 -3.58731 0.0770905)
(-1.12042 -2.98551 0.0374639)
(-0.748079 -2.46663 0.0377438)
(-1.56396 -3.59997 0.0777887)
(-1.21201 -3.03974 0.0577047)
(-1.79911 -3.85691 0.103853)
(-1.46253 -3.30399 0.0691516)
(-1.93828 -4.00388 0.125391)
(-1.6087 -3.46064 0.0794998)
(-2.02374 -4.09525 0.141969)
(-1.69834 -3.5595 0.0880026)
(-2.08056 -4.15732 0.154372)
(-1.7585 -3.62712 0.0944998)
(-2.122 -4.20352 0.163842)
(-1.80305 -3.67854 0.0992735)
(-1.102 -3.05623 0.0533966)
(-0.728428 -2.52585 0.0531464)
(-1.53836 -3.68877 0.109312)
(-1.18912 -3.1079 0.0787335)
(-1.7678 -3.95251 0.144266)
(-1.43742 -3.37597 0.0947228)
(-1.9047 -4.10174 0.17074)
(-1.584 -3.53319 0.107717)
(-1.98927 -4.19338 0.189866)
(-1.67462 -3.63157 0.117478)
(-2.04562 -4.25498 0.20357)
(-1.73568 -3.69815 0.12465)
(-2.08668 -4.30035 0.213703)
(-1.78085 -3.74838 0.129748)
(-1.06898 -3.111 0.0777994)
(-0.696154 -2.57043 0.0789959)
(-1.49376 -3.76188 0.151217)
(-1.14982 -3.16211 0.11017)
(-1.71683 -4.03174 0.19625)
(-1.39531 -3.43341 0.131704)
(-1.85121 -4.18277 0.227932)
(-1.54191 -3.59085 0.147687)
(-1.93469 -4.27445 0.249573)
(-1.63309 -3.68846 0.158843)
(-1.99035 -4.33546 0.264472)
(-1.69459 -3.75402 0.166637)
(-2.03081 -4.37993 0.275144)
(-1.74 -3.80296 0.172044)
(-1.01679 -3.14782 0.113027)
(-0.645595 -2.59822 0.118679)
(-1.42364 -3.81624 0.206236)
(-1.08653 -3.19925 0.156075)
(-1.63892 -4.09141 0.262128)
(-1.32757 -3.47303 0.183612)
(-1.77005 -4.24403 0.299291)
(-1.47312 -3.63039 0.202827)
(-1.85194 -4.3358 0.323555)
(-1.56411 -3.72714 0.215587)
(-1.90656 -4.39634 0.339689)
(-1.62545 -3.79165 0.224145)
(-1.94611 -4.44004 0.350899)
(-1.6706 -3.8393 0.229925)
(-0.940789 -3.16445 0.160702)
(-0.571163 -2.60752 0.174533)
(-1.32002 -3.84788 0.277183)
(-0.989464 -3.21621 0.22095)
(-1.52424 -4.12738 0.344878)
(-1.22226 -3.49157 0.255269)
(-1.65023 -4.2812 0.387884)
(-1.36444 -3.64848 0.278224)
(-1.72937 -4.37279 0.414895)
(-1.4537 -3.74398 0.292929)
(-1.78215 -4.43264 0.432294)
(-1.51383 -3.80706 0.302468)
(-1.82024 -4.47533 0.444019)
(-1.55793 -3.85306 0.308719)
(-0.831955 -3.15399 0.222505)
(-0.462942 -2.59171 0.248509)
(-1.16897 -3.84779 0.367097)
(-0.843662 -3.20446 0.309211)
(-1.35595 -4.12968 0.44856)
(-1.06129 -3.4791 0.352249)
(-1.47295 -4.28407 0.498563)
(-1.19579 -3.63444 0.380161)
(-1.54687 -4.3753 0.528934)
(-1.28057 -3.72814 0.397518)
(-1.59621 -4.43436 0.5479)
(-1.3377 -3.78941 0.408439)
(-1.63173 -4.47597 0.560244)
(-1.37946 -3.83357 0.415347)
(-0.674455 -3.10393 0.298959)
(-0.304125 -2.53947 0.342141)
(-0.945756 -3.80008 0.476738)
(-0.623669 -3.1492 0.423686)
(-1.10447 -4.0812 0.574892)
(-0.81456 -3.41884 0.478147)
(-1.20578 -4.23466 0.633528)
(-0.934193 -3.57037 0.512552)
(-1.2703 -4.32464 0.668084)
(-1.01002 -3.66096 0.533435)
(-1.31353 -4.38231 0.689023)
(-1.06125 -3.71956 0.54622)
(-1.34473 -4.42244 0.702158)
(-1.09877 -3.76136 0.554008)
(-0.444256 -3.00374 0.390518)
(-0.0728286 -2.44074 0.457181)
(-0.615029 -3.68404 0.608497)
(-0.299506 -3.03294 0.568104)
(-0.727452 -3.95608 0.728023)
(-0.446559 -3.28903 0.639311)
(-0.801971 -4.10421 0.7977)
(-0.540209 -3.43205 0.683684)
(-0.850308 -4.19061 0.837668)
(-0.600023 -3.5169 0.710207)
(-0.883223 -4.24551 0.861192)
(-0.640894 -3.57127 0.726116)
(-0.907524 -4.28331 0.875363)
(-0.671326 -3.60975 0.735487)
(-0.0989859 -2.84281 0.491309)
(0.2556 -2.28552 0.590748)
(-0.129539 -3.46045 0.751583)
(0.161664 -2.82738 0.741835)
(-0.171434 -3.70957 0.900614)
(0.0826124 -3.05875 0.841453)
(-0.203197 -3.84555 0.987011)
(0.0309571 -3.18674 0.903817)
(-0.225644 -3.92485 1.036)
(-0.00283418 -3.26212 0.940944)
(-0.242456 -3.97491 1.06439)
(-0.0270761 -3.31001 0.962989)
(-0.256324 -4.00895 1.08112)
(-0.0463908 -3.34349 0.975861)
(0.383711 -2.67169 0.572192)
(0.679818 -2.11175 0.722155)
(0.505958 -3.15844 0.86164)
(0.749083 -2.55546 0.922634)
(0.563673 -3.361 1.05733)
(0.76663 -2.74357 1.0729)
(0.595086 -3.47254 1.17575)
(0.774972 -2.84587 1.17061)
(0.611006 -3.53831 1.24389)
(0.777873 -2.90597 1.22945)
(0.617686 -3.57987 1.28351)
(0.776611 -2.94399 1.26443)
(0.618501 -3.60797 1.30686)
(0.77212 -2.97041 1.28498)
(0.922363 -2.67223 0.591265)
(1.10302 -2.08069 0.806274)
(1.1395 -2.9746 0.889339)
(1.30723 -2.38283 1.05378)
(1.29413 -3.10797 1.13804)
(1.42569 -2.51097 1.27085)
(1.38994 -3.1827 1.30026)
(1.49544 -2.57815 1.42034)
(1.44488 -3.22848 1.39634)
(1.53457 -2.61795 1.51222)
(1.47539 -3.25795 1.45313)
(1.5554 -2.6434 1.56738)
(1.49125 -3.27773 1.48717)
(1.56511 -2.66101 1.60023)
(1.39993 -2.93708 0.555878)
(1.44725 -2.29095 0.828007)
(1.63019 -3.05009 0.840945)
(1.71078 -2.44332 1.10893)
(1.84695 -3.10916 1.12579)
(1.90712 -2.50748 1.38458)
(1.98919 -3.14311 1.32927)
(2.02544 -2.53628 1.58653)
(2.07167 -3.16633 1.45398)
(2.09122 -2.55372 1.71282)
(2.11848 -3.18248 1.52848)
(2.12728 -2.56571 1.78879)
(2.14444 -3.19318 1.57337)
(2.14634 -2.57388 1.83423)
(1.80106 -3.37867 0.495112)
(1.72863 -2.68081 0.809082)
(1.97978 -3.34889 0.756491)
(1.97166 -2.7065 1.1064)
(2.2134 -3.34358 1.04483)
(2.21281 -2.70973 1.41425)
(2.38339 -3.34132 1.27334)
(2.36961 -2.7013 1.65509)
(2.48417 -3.34366 1.41945)
(2.45738 -2.69745 1.80838)
(2.54181 -3.3475 1.50772)
(2.50614 -2.69628 1.90051)
(2.57442 -3.35003 1.56088)
(2.53304 -2.69571 1.95523)
(2.13962 -3.86283 0.442145)
(1.97721 -3.12328 0.777427)
(2.25352 -3.75709 0.68181)
(2.16579 -3.0694 1.07385)
(2.45947 -3.70781 0.938762)
(2.41007 -3.02476 1.37662)
(2.63558 -3.67811 1.1644)
(2.59271 -2.9852 1.63289)
(2.74652 -3.66384 1.31761)
(2.7009 -2.96138 1.80277)
(2.81135 -3.65756 1.41218)
(2.76219 -2.94836 1.90507)
(2.84919 -3.65431 1.46966)
(2.79699 -2.941 1.96694)
(2.42652 -4.31241 0.413092)
(2.20276 -3.53745 0.752322)
(2.50071 -4.17269 0.634603)
(2.34902 -3.43905 1.03255)
(2.65991 -4.10173 0.845468)
(2.56655 -3.36947 1.30112)
(2.8221 -4.05623 1.04386)
(2.75513 -3.30999 1.54448)
(2.93491 -4.03065 1.18885)
(2.87554 -3.27142 1.71613)
(3.00411 -4.01706 1.2824)
(2.94614 -3.24976 1.82408)
(3.04575 -4.009 1.34083)
(2.98739 -3.23658 1.89047)
(2.67863 -4.71631 0.406861)
(2.41491 -3.89871 0.736389)
(2.74296 -4.55362 0.608652)
(2.54293 -3.76646 0.988931)
(2.86435 -4.47089 0.778939)
(2.72458 -3.68221 1.21342)
(3.00476 -4.41704 0.94229)
(2.90268 -3.61174 1.426)
(3.11313 -4.38459 1.06977)
(3.02792 -3.56422 1.58579)
(3.18358 -4.36599 1.15593)
(3.1055 -3.53561 1.69083)
(3.22738 -4.35447 1.21123)
(3.15248 -3.51758 1.75708)
(2.9099 -5.08559 0.413152)
(2.62277 -4.20728 0.718367)
(2.98365 -4.89684 0.594438)
(2.75251 -4.03783 0.940005)
(3.08192 -4.80273 0.734574)
(2.90578 -3.93861 1.12224)
(3.20079 -4.74186 0.865546)
(3.06661 -3.85902 1.2967)
(3.29999 -4.70374 0.971559)
(3.18963 -3.80347 1.4348)
(3.36756 -4.68118 1.04551)
(3.26956 -3.76896 1.52871)
(3.41008 -4.66623 1.09366)
(3.31874 -3.74637 1.58887)
(3.10103 -5.40314 0.413235)
(2.80623 -4.44196 0.682652)
(3.18967 -5.1808 0.572912)
(2.94751 -4.22954 0.873824)
(3.27557 -5.07333 0.689728)
(3.08357 -4.11316 1.02003)
(3.3775 -5.00558 0.794053)
(3.22842 -4.02484 1.15841)
(3.4662 -4.9625 0.878853)
(3.34612 -3.9623 1.27132)
(3.52837 -4.93649 0.93849)
(3.4255 -3.92255 1.34926)
(3.56768 -4.91966 0.976989)
(3.47457 -3.89691 1.39882)
(3.23777 -5.6635 0.394214)
(2.9452 -4.60544 0.625638)
(3.33942 -5.4005 0.533509)
(3.0981 -4.34578 0.789999)
(3.41857 -5.27518 0.631449)
(3.22416 -4.20925 0.906499)
(3.5056 -5.19895 0.71446)
(3.35461 -4.11136 1.01406)
(3.58321 -5.15049 0.780931)
(3.46543 -4.04171 1.10372)
(3.63908 -5.12109 0.827488)
(3.54275 -3.99706 1.1665)
(3.67453 -5.10246 0.857159)
(3.59094 -3.96857 1.20611)
(3.33535 -5.88717 0.357754)
(3.0473 -4.72238 0.551598)
(3.44413 -5.57754 0.477546)
(3.209 -4.41328 0.691215)
(3.51648 -5.43025 0.55981)
(3.32701 -4.25434 0.783731)
(3.58952 -5.34392 0.625671)
(3.44279 -4.14689 0.864688)
(3.65637 -5.28969 0.67681)
(3.54512 -4.07102 0.93306)
(3.7061 -5.25676 0.712135)
(3.61915 -4.02194 0.981637)
(3.73787 -5.23606 0.734257)
(3.66572 -3.9908 1.0122)
(3.4035 -6.08023 0.308902)
(3.11864 -4.80339 0.46957)
(3.51119 -5.7231 0.409573)
(3.28292 -4.44854 0.583815)
(3.57582 -5.54863 0.47935)
(3.39478 -4.26451 0.657513)
(3.6364 -5.44948 0.531882)
(3.49764 -4.14625 0.716842)
(3.69337 -5.38893 0.570145)
(3.59017 -4.06508 0.766294)
(3.73688 -5.35237 0.595738)
(3.66001 -4.0125 0.801938)
(3.765 -5.32979 0.611341)
(3.70441 -3.97927 0.824337)
(3.4463 -6.23589 0.256254)
(3.16359 -4.85154 0.387534)
(3.54965 -5.8382 0.336408)
(3.32544 -4.45759 0.475867)
(3.60335 -5.6385 0.393997)
(3.42951 -4.25159 0.532708)
(3.65175 -5.52473 0.437157)
(3.51942 -4.12312 0.57656)
(3.69982 -5.45635 0.467106)
(3.60111 -4.03713 0.611759)
(3.73745 -5.41586 0.485544)
(3.66515 -3.98154 0.636836)
(3.76196 -5.3912 0.495843)
(3.70685 -3.94647 0.652341)
(3.46396 -6.34527 0.204415)
(3.18331 -4.86388 0.309758)
(3.56266 -5.91347 0.265624)
(3.33925 -4.4361 0.374862)
(3.60494 -5.69369 0.310138)
(3.43343 -4.21418 0.415839)
(3.63585 -5.56911 0.342962)
(3.50493 -4.08151 0.445506)
(3.66853 -5.49412 0.365501)
(3.56982 -3.99375 0.468692)
(3.69774 -5.449 0.37857)
(3.62448 -3.93634 0.484738)
(3.71852 -5.42177 0.385127)
(3.66288 -3.89989 0.494405)
(3.45302 -6.39331 0.157043)
(3.17474 -4.83233 0.24012)
(3.54672 -5.93231 0.202581)
(3.32144 -4.37337 0.285447)
(3.58054 -5.69543 0.235686)
(3.40752 -4.13734 0.313889)
(3.5984 -5.56309 0.258622)
(3.46416 -4.00331 0.331584)
(3.61554 -5.4853 0.273315)
(3.50976 -3.91935 0.343607)
(3.63358 -5.43868 0.281112)
(3.54993 -3.86466 0.351462)
(3.64853 -5.41048 0.284551)
(3.58115 -3.82945 0.356106)
(3.40731 -6.36324 0.116386)
(3.12946 -4.7447 0.179363)
(3.49357 -5.87629 0.148851)
(3.26193 -4.25589 0.208641)
(3.51978 -5.624 0.172503)
(3.34012 -4.00628 0.227924)
(3.52911 -5.48414 0.187848)
(3.38776 -3.86944 0.238292)
(3.53578 -5.40377 0.197299)
(3.42056 -3.78925 0.243378)
(3.544 -5.35726 0.201792)
(3.4478 -3.73953 0.245115)
(3.55232 -5.3296 0.203045)
(3.47054 -3.70818 0.245406)
(3.30717 -6.2154 0.0822405)
(3.02838 -4.57018 0.127538)
(3.38089 -5.7039 0.104321)
(3.14119 -4.05348 0.143837)
(3.39748 -5.43747 0.120296)
(3.20731 -3.7926 0.156234)
(3.39911 -5.28974 0.130228)
(3.24657 -3.65251 0.162137)
(3.39848 -5.20623 0.136229)
(3.2716 -3.57409 0.164259)
(3.39983 -5.15893 0.138397)
(3.29034 -3.52806 0.16375)
(3.4031 -5.13191 0.138267)
(3.3061 -3.50072 0.162382)
(3.10501 -5.85298 0.0532723)
(2.82113 -4.23561 0.0833611)
(3.15531 -5.32144 0.0670151)
(2.90344 -3.69868 0.0893346)
(3.15732 -5.04461 0.0770089)
(2.9534 -3.43467 0.0961601)
(3.14878 -4.89035 0.0829673)
(2.98223 -3.29537 0.0993263)
(3.1411 -4.80379 0.0868654)
(2.99984 -3.2207 0.100977)
(3.13693 -4.75474 0.088321)
(3.0125 -3.178 0.100602)
(3.13618 -4.72768 0.0878518)
(3.02333 -3.15391 0.0992875)
(2.69637 -5.07626 0.0293266)
(2.40495 -3.59817 0.0462778)
(2.7087 -4.5454 0.0365221)
(2.44421 -3.07758 0.0455626)
(2.6888 -4.2729 0.0420492)
(2.47253 -2.83684 0.0486231)
(2.66581 -4.12051 0.0452169)
(2.48823 -2.71394 0.0505575)
(2.64896 -4.0352 0.0476426)
(2.49781 -2.65143 0.0524672)
(2.63867 -3.9868 0.048884)
(2.50497 -2.61561 0.0530173)
(2.63399 -3.96051 0.0487101)
(2.51192 -2.59644 0.0525473)
(1.9722 -3.68995 0.0121245)
(1.7106 -2.57198 0.0193193)
(1.95236 -3.24825 0.014965)
(1.72523 -2.17378 0.0171255)
(1.91492 -3.02516 0.0179774)
(1.74094 -2.00927 0.0180601)
(1.881 -2.89983 0.0195074)
(1.74741 -1.92916 0.0192973)
(1.85733 -2.82894 0.0208017)
(1.75051 -1.88827 0.0212731)
(1.84269 -2.78877 0.0218028)
(1.75307 -1.86462 0.0225468)
(1.83492 -2.76679 0.0219725)
(1.75695 -1.85265 0.0227255)
(1.11581 -2.07603 0.0023806)
(0.95143 -1.45738 0.00461833)
(1.09492 -1.81463 0.00370589)
(0.96591 -1.2421 0.00367843)
(1.06028 -1.67869 0.00524031)
(0.976884 -1.16252 0.00361291)
(1.03056 -1.60139 0.00592043)
(0.979372 -1.12573 0.00435351)
(1.01031 -1.55734 0.00655605)
(0.97911 -1.1051 0.00585519)
(0.997584 -1.53181 0.00737072)
(0.979185 -1.09251 0.00711645)
(0.990363 -1.51744 0.00766576)
(0.981114 -1.08639 0.00735074)
(0.354801 -0.660374 -0.00429476)
(0.298496 -0.472057 -0.00436928)
(0.34599 -0.576323 -0.00252865)
(0.307752 -0.410041 -0.00318666)
(0.32912 -0.528706 -0.00216683)
(0.312127 -0.390794 -0.00288084)
(0.31515 -0.50088 -0.00242114)
(0.312407 -0.381931 -0.00252052)
(0.30632 -0.485811 -0.00255858)
(0.311343 -0.375663 -0.00199859)
(0.300886 -0.47664 -0.00236209)
(0.310361 -0.370483 -0.00155225)
(0.29773 -0.470973 -0.00245519)
(0.310267 -0.367374 -0.00163475)
(-1.25768 -1.86572 0.0192384)
(-0.997701 -1.6044 0.0261573)
(-1.28013 -1.90147 0.0188981)
(-1.01614 -1.6418 0.025319)
(-1.29537 -1.93286 0.0182052)
(-1.02828 -1.6734 0.0245216)
(-1.30847 -1.96967 0.0167798)
(-1.03834 -1.70976 0.0231349)
(-1.3247 -2.02741 0.0126671)
(-1.05089 -1.76656 0.0193641)
(-1.36605 -2.1366 0.00516533)
(-1.08895 -1.87926 0.0125794)
(-1.96035 -3.27192 0.038069)
(-1.63346 -2.90292 0.04357)
(-1.98936 -3.3116 0.0411043)
(-1.66087 -2.9474 0.0454194)
(-2.01064 -3.34563 0.0436602)
(-1.68094 -2.9846 0.0466748)
(-2.03197 -3.38654 0.0454694)
(-1.70127 -3.02856 0.0471972)
(-2.06364 -3.45688 0.043319)
(-1.73276 -3.10315 0.0448617)
(-2.14115 -3.6142 0.0304576)
(-1.8161 -3.27549 0.0325653)
(-2.11881 -3.73292 0.06343)
(-1.78213 -3.31277 0.0521989)
(-2.14866 -3.77176 0.0676386)
(-1.81181 -3.35625 0.054943)
(-2.17131 -3.8038 0.0705776)
(-1.83435 -3.39149 0.056637)
(-2.19521 -3.84129 0.0724509)
(-1.8585 -3.43247 0.0571049)
(-2.2327 -3.90601 0.0710876)
(-1.89749 -3.50297 0.054095)
(-2.32349 -4.06157 0.0575214)
(-1.99719 -3.67592 0.0391379)
(-2.16564 -3.96712 0.0939802)
(-1.83074 -3.50865 0.0648486)
(-2.19576 -4.00474 0.0991951)
(-1.86156 -3.55063 0.0676763)
(-2.21878 -4.03541 0.102611)
(-1.8852 -3.58432 0.0692136)
(-2.24343 -4.07083 0.104834)
(-1.91093 -3.62311 0.0694792)
(-2.2828 -4.13107 0.104409)
(-1.95308 -3.68924 0.0664957)
(-2.3786 -4.27856 0.0917824)
(-2.06008 -3.85452 0.0502385)
(-2.17347 -4.1245 0.129859)
(-1.84584 -3.63322 0.0809452)
(-2.20362 -4.16103 0.135714)
(-1.87746 -3.67371 0.0836893)
(-2.2267 -4.19064 0.13951)
(-1.90181 -3.70607 0.0850443)
(-2.25153 -4.22467 0.14216)
(-1.92846 -3.74317 0.0851082)
(-2.29145 -4.28206 0.142948)
(-1.97226 -3.80618 0.0822411)
(-2.38902 -4.42196 0.133949)
(-2.08294 -3.96343 0.0670336)
(-2.1578 -4.24416 0.171984)
(-1.84119 -3.72302 0.103132)
(-2.18777 -4.27967 0.17825)
(-1.87337 -3.76211 0.105755)
(-2.21076 -4.30835 0.182313)
(-1.89821 -3.79326 0.106934)
(-2.23553 -4.34123 0.185309)
(-1.9255 -3.82894 0.106821)
(-2.27542 -4.39647 0.187178)
(-1.97034 -3.88937 0.104085)
(-2.37296 -4.53011 0.183074)
(-2.08285 -4.03912 0.0912849)
(-2.12207 -4.33997 0.222234)
(-1.81947 -3.79144 0.133671)
(-2.15169 -4.37455 0.22877)
(-1.85198 -3.82921 0.13627)
(-2.17446 -4.40239 0.233011)
(-1.87712 -3.85923 0.137379)
(-2.199 -4.43424 0.236253)
(-1.9048 -3.89357 0.1372)
(-2.23852 -4.48769 0.238971)
(-1.95027 -3.95159 0.134694)
(-2.33495 -4.61592 0.23953)
(-2.06353 -4.09423 0.124791)
(-2.06556 -4.41847 0.283939)
(-1.77873 -3.84457 0.176052)
(-2.09466 -4.45209 0.290629)
(-1.81125 -3.881 0.178673)
(-2.11705 -4.47911 0.294945)
(-1.83645 -3.90991 0.179758)
(-2.14121 -4.50998 0.298285)
(-1.86428 -3.9429 0.179554)
(-2.18011 -4.56173 0.301489)
(-1.90999 -3.99856 0.177285)
(-2.27471 -4.68503 0.305446)
(-2.02307 -4.13418 0.169917)
(-1.97994 -4.47756 0.359924)
(-1.70895 -3.87942 0.234083)
(-2.0083 -4.5103 0.366702)
(-1.7411 -3.91452 0.236787)
(-2.03017 -4.53654 0.37098)
(-1.7661 -3.94228 0.237856)
(-2.05384 -4.56646 0.374194)
(-1.7938 -3.97389 0.23757)
(-2.09197 -4.61653 0.377357)
(-1.83935 -4.02704 0.235316)
(-2.18425 -4.73489 0.382977)
(-1.95131 -4.15548 0.229521)
(-1.85265 -4.51166 0.453247)
(-1.59522 -3.89137 0.313104)
(-1.87994 -4.54338 0.460031)
(-1.62655 -3.92487 0.315928)
(-1.90112 -4.56878 0.464183)
(-1.65105 -3.95132 0.316977)
(-1.92415 -4.59771 0.467135)
(-1.67838 -3.98138 0.316547)
(-1.96132 -4.64616 0.469869)
(-1.72344 -4.03187 0.314021)
(-2.05075 -4.75997 0.475398)
(-1.8335 -4.15307 0.308278)
(-1.66183 -4.51103 0.569687)
(-1.41462 -3.86992 0.420037)
(-1.68748 -4.54172 0.576391)
(-1.44441 -3.90176 0.422959)
(-1.7076 -4.56627 0.580259)
(-1.46796 -3.92687 0.423875)
(-1.72974 -4.59423 0.582649)
(-1.49456 -3.95537 0.423038)
(-1.7657 -4.64105 0.584264)
(-1.53872 -4.00317 0.419604)
(-1.85171 -4.7503 0.58762)
(-1.64606 -4.11713 0.411894)
(-1.37106 -4.45583 0.711929)
(-1.13017 -3.79529 0.559153)
(-1.39411 -4.48527 0.718548)
(-1.15734 -3.8252 0.562199)
(-1.4126 -4.50884 0.722071)
(-1.17929 -3.84882 0.562922)
(-1.4334 -4.53576 0.723748)
(-1.20462 -3.87566 0.561504)
(-1.46769 -4.58091 0.723846)
(-1.24728 -3.92077 0.556691)
(-1.54938 -4.68567 0.72355)
(-1.35058 -4.0278 0.545361)
(-0.927799 -4.31431 0.885656)
(-0.6965 -3.64048 0.741693)
(-0.946854 -4.34208 0.892192)
(-0.71947 -3.66799 0.745171)
(-0.962867 -4.36445 0.895295)
(-0.73883 -3.68983 0.745829)
(-0.981758 -4.39017 0.89609)
(-0.762143 -3.71479 0.743835)
(-1.01387 -4.43355 0.894275)
(-0.802446 -3.75695 0.737465)
(-1.09026 -4.53374 0.889256)
(-0.899946 -3.85682 0.721817)
(-0.269762 -4.03696 1.09241)
(-0.0641396 -3.37036 0.983902)
(-0.282322 -4.06188 1.09971)
(-0.0803308 -3.3943 0.988984)
(-0.29431 -4.08236 1.103)
(-0.0954437 -3.41362 0.990358)
(-0.310232 -4.10637 1.10348)
(-0.115437 -3.43607 0.988451)
(-0.339265 -4.14743 1.10048)
(-0.15195 -3.47447 0.981343)
(-0.409103 -4.24237 1.09194)
(-0.241067 -3.56567 0.962875)
(0.616603 -3.63065 1.32269)
(0.765942 -2.99135 1.2986)
(0.613001 -3.65123 1.33297)
(0.758781 -3.01036 1.3077)
(0.606933 -3.66861 1.33832)
(0.749641 -3.02605 1.31162)
(0.596081 -3.6896 1.34074)
(0.734891 -3.0447 1.31178)
(0.573534 -3.72633 1.34037)
(0.705309 -3.07731 1.30706)
(0.517893 -3.81126 1.33684)
(0.631952 -3.15517 1.29305)
(1.50136 -3.29327 1.51082)
(1.57024 -2.67463 1.6231)
(1.50629 -3.3084 1.52665)
(1.57126 -2.68781 1.63867)
(1.50665 -3.32139 1.53651)
(1.56813 -2.69882 1.64727)
(1.50258 -3.33751 1.54412)
(1.5596 -2.71216 1.65216)
(1.49047 -3.36641 1.55212)
(1.53965 -2.73607 1.65452)
(1.45809 -3.43285 1.56673)
(1.48882 -2.79373 1.65641)
(2.16243 -3.2015 1.60493)
(2.1587 -2.58007 1.86637)
(2.17379 -3.21065 1.62676)
(2.16563 -2.58702 1.88886)
(2.17973 -3.21849 1.6419)
(2.16743 -2.59279 1.90288)
(2.18249 -3.22835 1.65607)
(2.1648 -2.59985 1.91388)
(2.18219 -3.24682 1.67551)
(2.15499 -2.61309 1.92632)
(2.17631 -3.28985 1.71597)
(2.12779 -2.64562 1.95162)
(2.5973 -3.35207 1.59845)
(2.55126 -2.69519 1.9941)
(2.61353 -3.35573 1.62542)
(2.5635 -2.69641 2.02263)
(2.62425 -3.35867 1.64538)
(2.56999 -2.69729 2.0418)
(2.63344 -3.36238 1.66589)
(2.57321 -2.69835 2.05889)
(2.64476 -3.37029 1.69667)
(2.57353 -2.70141 2.08159)
(2.664 -3.38944 1.76205)
(2.56812 -2.70957 2.13)
(2.87543 -3.65094 1.51112)
(2.82029 -2.93458 2.01136)
(2.89568 -3.65047 1.54144)
(2.83731 -2.93129 2.0442)
(2.91046 -3.64946 1.56484)
(2.84791 -2.92813 2.06702)
(2.92522 -3.64809 1.59016)
(2.85621 -2.92418 2.08861)
(2.9468 -3.64718 1.62987)
(2.86545 -2.91864 2.11909)
(2.98805 -3.64667 1.71502)
(2.87984 -2.90736 2.18513)
(3.07558 -4.00167 1.38367)
(3.01614 -3.22524 1.93881)
(3.09947 -3.99795 1.41532)
(3.03816 -3.21815 1.97455)
(3.11775 -3.99389 1.44025)
(3.05298 -3.21163 1.99989)
(3.13714 -3.98863 1.46791)
(3.06649 -3.20356 2.02484)
(3.16722 -3.9811 1.51229)
(3.08484 -3.1911 2.06153)
(3.227 -3.96607 1.60865)
(3.1195 -3.16332 2.14285)
(3.2594 -4.34403 1.25239)
(3.18614 -3.50186 1.80604)
(3.28573 -4.3379 1.2829)
(3.21267 -3.49155 1.84206)
(3.30629 -4.33152 1.30709)
(3.23123 -3.48216 1.86782)
(3.32863 -4.32333 1.33408)
(3.24921 -3.47064 1.8937)
(3.36421 -4.3109 1.37776)
(3.27539 -3.4525 1.93258)
(3.43662 -4.28504 1.47374)
(3.32808 -3.41009 2.02047)
(3.44236 -4.65351 1.12926)
(3.35543 -3.72698 1.63294)
(3.46944 -4.64501 1.15607)
(3.38507 -3.71351 1.66575)
(3.4909 -4.63643 1.17738)
(3.40629 -3.70132 1.6893)
(3.51447 -4.62551 1.2011)
(3.4274 -3.68638 1.71308)
(3.5526 -4.60862 1.23943)
(3.45916 -3.66273 1.74901)
(3.63112 -4.57282 1.32403)
(3.52441 -3.60657 1.83164)
(3.5973 -4.90455 1.00555)
(3.51118 -3.87423 1.4353)
(3.62303 -4.89421 1.02721)
(3.54153 -3.85816 1.46276)
(3.6436 -4.88361 1.04444)
(3.56363 -3.84338 1.48248)
(3.66641 -4.87007 1.0634)
(3.58609 -3.82523 1.50227)
(3.70378 -4.84877 1.09366)
(3.62065 -3.79626 1.53191)
(3.78173 -4.80363 1.15987)
(3.69333 -3.72728 1.59991)
(3.70083 -5.08538 0.879055)
(3.62672 -3.94318 1.23517)
(3.724 -5.07345 0.895471)
(3.65648 -3.92488 1.25684)
(3.74255 -5.06105 0.908379)
(3.67839 -3.90786 1.27221)
(3.76318 -5.0451 0.92231)
(3.70102 -3.88684 1.28729)
(3.79736 -5.01971 0.944115)
(3.73632 -3.8529 1.30942)
(3.86959 -4.96615 0.991821)
(3.81058 -3.77338 1.3606)
(3.76115 -5.21712 0.750272)
(3.7 -3.96311 1.03444)
(3.78146 -5.20364 0.761912)
(3.7284 -3.94291 1.05064)
(3.79767 -5.18946 0.770713)
(3.74929 -3.92401 1.06182)
(3.81584 -5.17109 0.779851)
(3.77087 -3.90059 1.07237)
(3.84632 -5.14154 0.793754)
(3.80469 -3.86256 1.08741)
(3.91134 -5.08003 0.824936)
(3.87583 -3.77416 1.12301)
(3.78527 -5.30931 0.622266)
(3.73681 -3.94983 0.840425)
(3.80251 -5.29426 0.629623)
(3.76332 -3.92831 0.851699)
(3.81605 -5.27865 0.634764)
(3.78267 -3.90802 0.859132)
(3.83103 -5.25809 0.639669)
(3.80249 -3.88274 0.865769)
(3.85622 -5.22465 0.646894)
(3.83339 -3.84174 0.875029)
(3.9106 -5.15649 0.665065)
(3.89866 -3.74777 0.898721)
(3.77918 -5.36897 0.502403)
(3.73696 -3.91551 0.66317)
(3.7933 -5.35266 0.505825)
(3.76123 -3.89289 0.670085)
(3.80398 -5.33549 0.507479)
(3.77866 -3.87142 0.674117)
(3.81532 -5.31276 0.508255)
(3.79623 -3.84448 0.677192)
(3.83399 -5.27543 0.509056)
(3.82346 -3.80082 0.681415)
(3.8751 -5.20027 0.515926)
(3.8817 -3.70211 0.695913)
(3.73341 -5.39738 0.38862)
(3.69094 -3.86763 0.500907)
(3.7457 -5.37911 0.389097)
(3.71391 -3.84381 0.504225)
(3.75486 -5.35978 0.387862)
(3.73038 -3.82099 0.505429)
(3.76421 -5.33438 0.385042)
(3.74697 -3.79216 0.505563)
(3.77913 -5.29233 0.380433)
(3.7726 -3.7453 0.506049)
(3.81115 -5.20918 0.379235)
(3.82705 -3.6405 0.515447)
(3.65972 -5.38514 0.285592)
(3.60555 -3.79749 0.35895)
(3.66966 -5.36571 0.283685)
(3.62682 -3.77373 0.358961)
(3.67691 -5.34533 0.280113)
(3.64213 -3.75055 0.357281)
(3.684 -5.31817 0.274319)
(3.65747 -3.7212 0.354045)
(3.69486 -5.27331 0.264995)
(3.68103 -3.67349 0.349666)
(3.7175 -5.1856 0.25661)
(3.73269 -3.56694 0.353076)
(3.55895 -5.30472 0.202309)
(3.48941 -3.67906 0.245082)
(3.56589 -5.28523 0.198837)
(3.50724 -3.65735 0.24238)
(3.57068 -5.26501 0.193687)
(3.52026 -3.63607 0.238408)
(3.57487 -5.23819 0.185703)
(3.53353 -3.60897 0.232457)
(3.581 -5.19384 0.172321)
(3.55407 -3.56526 0.223676)
(3.59429 -5.10845 0.156126)
(3.59907 -3.46794 0.219415)
(3.40571 -5.10769 0.136887)
(3.31935 -3.47525 0.160917)
(3.40932 -5.088 0.133209)
(3.33307 -3.45624 0.157284)
(3.41157 -5.06824 0.127872)
(3.34321 -3.43795 0.152541)
(3.4129 -5.04229 0.119392)
(3.35373 -3.41479 0.14541)
(3.41432 -4.99964 0.104551)
(3.37027 -3.37839 0.133784)
(3.41872 -4.92163 0.0839481)
(3.40698 -3.30252 0.12161)
(3.1353 -4.70413 0.0864932)
(3.03203 -3.13183 0.0980858)
(3.13534 -4.68361 0.0831893)
(3.04183 -3.11484 0.0950623)
(3.1349 -4.66401 0.0784272)
(3.04914 -3.09922 0.0910626)