/*--------------------------------*- C++ -*----------------------------------*\
| =========                 |                                                 |
| \\      /  F ield         | OpenFOAM: The Open Source CFD Toolbox           |
|  \\    /   O peration     | Version:  2212                                  |
|   \\  /    A nd           | Website:  www.openfoam.com                      |
|    \\/     M anipulation  |                                                 |
\*---------------------------------------------------------------------------*/
FoamFile
{
    version     2.0;
    format      ascii;
    arch        "LSB;label=32;scalar=64";
    class       volScalarField;
    location    "100";
    object      p;
}
// * * * * * * * * * * * * * * * * * * * * * * * * * * * * * * * * * * * * * //

dimensions      [0 2 -2 0 0 0 0];

internalField   nonuniform List<scalar> 
2000
(
6.65424
6.59153
6.44229
6.28332
6.13229
5.99236
5.86334
5.74409
5.63322
5.52935
5.43121
5.33768
5.24784
5.16094
5.07642
4.99386
4.91298
4.8336
4.75561
4.67895
4.60363
4.52965
4.45704
4.38582
4.316
4.24761
4.18063
4.11507
4.05088
3.98803
3.92647
3.86613
3.80696
3.74887
3.69178
3.63561
3.58028
3.52569
3.47176
3.4184
3.36554
3.31309
3.26097
3.20911
3.15745
3.10591
3.05445
3.00299
2.9515
2.89993
2.84823
2.79637
2.74432
2.69204
2.63952
2.58673
2.53365
2.48027
2.42659
2.37258
2.31825
2.26359
2.2086
2.15328
2.09764
2.04168
1.9854
1.92881
1.87193
1.81475
1.75729
1.69956
1.64157
1.58333
1.52486
1.46616
1.40724
1.34813
1.28882
1.22935
1.16971
1.10992
1.05
0.989952
0.929802
0.869559
0.809238
0.748852
0.688413
0.627933
0.567419
0.506878
0.446313
0.385722
0.325096
0.264408
0.203593
0.142493
0.0807362
0.0251563
6.57143
6.52196
6.40401
6.26268
6.12047
5.98525
5.85901
5.74154
5.63189
5.52884
5.43122
5.33799
5.24828
5.16138
5.07677
4.99407
4.913
4.83342
4.75523
4.67839
4.60291
4.5288
4.45608
4.38479
4.31493
4.24653
4.17956
4.11403
4.04989
3.9871
3.92562
3.86537
3.80628
3.74828
3.69128
3.6352
3.57995
3.52544
3.47159
3.4183
3.36551
3.31311
3.26105
3.20924
3.15762
3.10612
3.05469
3.00326
2.95179
2.90024
2.84855
2.7967
2.74466
2.69239
2.63986
2.58707
2.53399
2.48061
2.42692
2.3729
2.31856
2.26389
2.2089
2.15357
2.09791
2.04194
1.98565
1.92905
1.87215
1.81496
1.75749
1.69974
1.64174
1.58349
1.525
1.46629
1.40736
1.34823
1.28892
1.22943
1.16978
1.10998
1.05004
0.98999
0.929828
0.869574
0.809242
0.748846
0.688399
0.627911
0.567392
0.506848
0.446283
0.385697
0.325083
0.264418
0.20363
0.142505
0.0803628
0.0249085
6.45752
6.4212
6.33421
6.21883
6.09408
5.96998
5.85082
5.7379
5.63117
5.52994
5.43338
5.34065
5.25103
5.16395
5.07896
4.99576
4.91415
4.83401
4.75528
4.67796
4.60206
4.5276
4.45461
4.38313
4.31315
4.24469
4.17772
4.11223
4.04818
3.98551
3.92416
3.86407
3.80515
3.74732
3.69049
3.63458
3.57949
3.52514
3.47143
3.41828
3.36561
3.31332
3.26136
3.20963
3.15809
3.10665
3.05527
3.00389
2.95245
2.90092
2.84926
2.79742
2.74538
2.6931
2.64058
2.58778
2.53468
2.48128
2.42757
2.37354
2.31917
2.26448
2.20945
2.1541
2.09842
2.04241
1.98609
1.92947
1.87254
1.81532
1.75782
1.70006
1.64203
1.58375
1.52524
1.4665
1.40755
1.3484
1.28907
1.22955
1.16988
1.11006
1.0501
0.990028
0.929845
0.869571
0.809219
0.748805
0.688342
0.627841
0.567312
0.506762
0.446195
0.385611
0.325006
0.26436
0.203608
0.142539
0.0804517
0.0249578
6.33704
6.30957
6.24606
6.15594
6.05212
5.9436
5.83549
5.73024
5.6287
5.53088
5.4364
5.34479
5.25559
5.16842
5.08299
4.99913
4.91674
4.83577
4.75623
4.67816
4.60158
4.52655
4.4531
4.38126
4.31103
4.24242
4.17538
4.1099
4.04592
3.98337
3.92218
3.86228
3.80357
3.74596
3.68936
3.63368
3.57881
3.52467
3.47116
3.4182
3.36569
3.31356
3.26173
3.21013
3.15869
3.10735
3.05604
3.00472
2.95333
2.90184
2.8502
2.79838
2.74635
2.69408
2.64154
2.58873
2.53562
2.48219
2.42846
2.37439
2.31999
2.26527
2.2102
2.15481
2.09909
2.04305
1.9867
1.93003
1.87307
1.81581
1.75828
1.70047
1.64241
1.5841
1.52555
1.46678
1.4078
1.34862
1.28926
1.22972
1.17002
1.11017
1.05018
0.990078
0.929868
0.869567
0.809191
0.748753
0.688269
0.627751
0.567209
0.506649
0.446076
0.385489
0.324882
0.26424
0.203506
0.142497
0.0805389
0.025026
6.22624
6.20436
6.15652
6.08639
6.00185
5.90961
5.81428
5.71859
5.62394
5.53087
5.43949
5.3497
5.26135
5.17433
5.08855
5.004
4.92072
4.83878
4.75824
4.67921
4.60177
4.52599
4.4519
4.37956
4.30895
4.24007
4.17289
4.10735
4.04339
3.98093
3.91989
3.86017
3.80167
3.7443
3.68795
3.63252
3.5779
3.52401
3.47073
3.41798
3.36568
3.31374
3.26208
3.21062
3.15931
3.10808
3.05687
3.00562
2.9543
2.90286
2.85125
2.79946
2.74744
2.69517
2.64263
2.5898
2.53667
2.48323
2.42946
2.37536
2.32093
2.26617
2.21106
2.15563
2.09987
2.04379
1.98738
1.93068
1.87367
1.81637
1.75879
1.70095
1.64285
1.5845
1.52591
1.46711
1.40809
1.34888
1.28948
1.22991
1.17018
1.11029
1.05028
0.990143
0.929902
0.869572
0.809167
0.748704
0.688197
0.62766
0.567102
0.506531
0.445948
0.385353
0.324736
0.264083
0.203348
0.142382
0.0805548
0.0250651
6.13185
6.11357
6.07587
6.02019
5.95121
5.87346
5.79047
5.70467
5.61754
5.52992
5.44226
5.35479
5.26767
5.18104
5.09505
5.00989
4.92572
4.84275
4.76115
4.68107
4.60266
4.52601
4.45118
4.37823
4.30715
4.23792
4.17051
4.10484
4.04085
3.97844
3.91751
3.85795
3.79965
3.7425
3.6864
3.63121
3.57685
3.5232
3.47017
3.41765
3.36556
3.31381
3.26233
3.21104
3.15987
3.10876
3.05765
3.00649
2.95524
2.90386
2.8523
2.80053
2.74853
2.69627
2.64373
2.5909
2.53775
2.48428
2.43049
2.37636
2.32189
2.26709
2.21195
2.15647
2.10067
2.04454
1.9881
1.93134
1.87429
1.81695
1.75933
1.70144
1.6433
1.58491
1.52629
1.46745
1.4084
1.34915
1.28972
1.23011
1.17034
1.11043
1.05038
0.990218
0.929947
0.869587
0.809154
0.748665
0.688135
0.627578
0.567005
0.50642
0.445827
0.38522
0.32459
0.263918
0.20317
0.14223
0.0805176
0.0250777
6.05617
6.04031
6.00921
5.96351
5.90615
5.84003
5.7676
5.69072
5.6107
5.52845
5.44459
5.35959
5.27387
5.1878
5.10174
5.01607
4.9311
4.84717
4.76453
4.68343
4.60405
4.52652
4.45093
4.37734
4.30574
4.23613
4.16844
4.10261
4.03854
3.97614
3.91527
3.85584
3.7977
3.74075
3.68486
3.6299
3.57577
3.52235
3.46954
3.41724
3.36535
3.3138
3.26249
3.21135
3.16032
3.10933
3.05833
3.00726
2.95608
2.90476
2.85324
2.80151
2.74953
2.69728
2.64474
2.5919
2.53875
2.48526
2.43144
2.37729
2.32279
2.26795
2.21277
2.15726
2.10142
2.04525
1.98876
1.93197
1.87488
1.8175
1.75984
1.70191
1.64373
1.58531
1.52665
1.46777
1.40869
1.34941
1.28994
1.23031
1.17051
1.11057
1.05049
0.990296
0.929997
0.86961
0.809152
0.748639
0.688088
0.627512
0.566923
0.506327
0.445723
0.385104
0.324459
0.263769
0.203004
0.142079
0.0804578
0.0250748
5.99971
5.98548
5.95863
5.91959
5.87035
5.81276
5.74845
5.67871
5.60461
5.52695
5.44644
5.36369
5.27929
5.1938
5.10777
5.02171
4.9361
4.85135
4.76783
4.68583
4.6056
4.52728
4.45101
4.37683
4.30477
4.23479
4.16683
4.10082
4.03666
3.97423
3.9134
3.85404
3.79603
3.73923
3.68351
3.62874
3.5748
3.52157
3.46895
3.41683
3.36512
3.31372
3.26256
3.21156
3.16065
3.10977
3.05886
3.00787
2.95676
2.90548
2.85401
2.80231
2.75035
2.69812
2.64559
2.59274
2.53958
2.48608
2.43224
2.37807
2.32354
2.26868
2.21347
2.15792
2.10205
2.04585
1.98933
1.9325
1.87537
1.81796
1.76027
1.70231
1.6441
1.58564
1.52695
1.46805
1.40894
1.34963
1.29014
1.23048
1.17065
1.11069
1.05059
0.990368
0.930046
0.869636
0.809156
0.748624
0.688054
0.627464
0.566862
0.506255
0.445641
0.385013
0.324355
0.26365
0.20287
0.141953
0.0803987
0.025066
5.96232
5.94911
5.92484
5.88988
5.84576
5.79372
5.73485
5.67006
5.60013
5.52579
5.44775
5.36669
5.28332
5.19831
5.11233
5.02602
4.93995
4.85462
4.77045
4.68779
4.60692
4.52802
4.45123
4.37661
4.30418
4.23391
4.16574
4.09958
4.03534
3.97287
3.91205
3.85275
3.79481
3.73811
3.68251
3.62787
3.57406
3.52097
3.46849
3.4165
3.36491
3.31364
3.26258
3.21168
3.16086
3.11006
3.05922
3.00829
2.95723
2.90599
2.85455
2.80288
2.75094
2.69871
2.64619
2.59334
2.54017
2.48667
2.43282
2.37863
2.32409
2.2692
2.21397
2.1584
2.10251
2.04628
1.98974
1.93288
1.87573
1.8183
1.76058
1.7026
1.64436
1.58589
1.52718
1.46825
1.40912
1.34979
1.29028
1.2306
1.17076
1.11078
1.05066
0.990424
0.930085
0.869659
0.809164
0.748617
0.688034
0.627432
0.566821
0.506207
0.445586
0.384951
0.324285
0.263568
0.202777
0.141864
0.080354
0.0250575
5.94372
5.931
5.90796
5.87495
5.83329
5.78398
5.72784
5.66555
5.59777
5.52517
5.44844
5.36828
5.28546
5.20072
5.11479
5.02836
4.94205
4.8564
4.77189
4.68889
4.60767
4.52846
4.45139
4.37653
4.3039
4.23347
4.16519
4.09895
4.03465
3.97216
3.91135
3.85207
3.79417
3.73752
3.68198
3.6274
3.57367
3.52065
3.46824
3.41632
3.3648
3.31358
3.26259
3.21174
3.16097
3.1102
3.0594
3.0085
2.95747
2.90626
2.85483
2.80317
2.75124
2.69902
2.6465
2.59366
2.54049
2.48698
2.43312
2.37892
2.32437
2.26948
2.21424
2.15866
2.10275
2.04651
1.98995
1.93309
1.87593
1.81847
1.76075
1.70275
1.6445
1.58602
1.5273
1.46836
1.40922
1.34988
1.29036
1.23067
1.17082
1.11083
1.0507
0.990455
0.930107
0.869672
0.809169
0.748615
0.688026
0.627418
0.566802
0.506183
0.445559
0.38492
0.324249
0.263527
0.202731
0.141819
0.0803306
0.0250527
5.94372
5.931
5.90796
5.87495
5.83329
5.78398
5.72784
5.66555
5.59777
5.52517
5.44844
5.36828
5.28546
5.20072
5.11479
5.02836
4.94205
4.8564
4.77189
4.68888
4.60767
4.52846
4.45139
4.37653
4.3039
4.23347
4.16519
4.09895
4.03465
3.97216
3.91135
3.85207
3.79417
3.73752
3.68198
3.6274
3.57367
3.52065
3.46824
3.41632
3.3648
3.31358
3.26259
3.21174
3.16097
3.11021
3.0594
3.00851
2.95747
2.90626
2.85484
2.80317
2.75124
2.69902
2.6465
2.59366
2.54049
2.48698
2.43312
2.37892
2.32437
2.26948
2.21424
2.15866
2.10275
2.04651
1.98995
1.93309
1.87593
1.81848
1.76075
1.70275
1.64451
1.58602
1.5273
1.46836
1.40922
1.34988
1.29036
1.23067
1.17082
1.11083
1.0507
0.990456
0.930108
0.869674
0.80917
0.748616
0.688027
0.627419
0.566803
0.506184
0.44556
0.384921
0.32425
0.263528
0.202732
0.14182
0.080331
0.0250528
5.96232
5.94911
5.92484
5.88988
5.84576
5.79372
5.73485
5.67006
5.60013
5.52579
5.44775
5.36669
5.28332
5.19831
5.11233
5.02602
4.93995
4.85462
4.77045
4.68779
4.60692
4.52802
4.45123
4.37661
4.30418
4.23391
4.16574
4.09958
4.03534
3.97287
3.91205
3.85275
3.79482
3.73811
3.68251
3.62787
3.57406
3.52097
3.46849
3.4165
3.36491
3.31364
3.26259
3.21168
3.16086
3.11006
3.05922
3.00829
2.95723
2.906
2.85456
2.80288
2.75094
2.69872
2.64619
2.59335
2.54018
2.48667
2.43283
2.37863
2.32409
2.26921
2.21398
2.15841
2.10251
2.04629
1.98974
1.93289
1.87574
1.8183
1.76059
1.70261
1.64437
1.58589
1.52718
1.46826
1.40912
1.3498
1.29029
1.23061
1.17077
1.11078
1.05066
0.990428
0.930088
0.869663
0.809167
0.74862
0.688038
0.627436
0.566825
0.50621
0.445589
0.384954
0.324288
0.26357
0.20278
0.141866
0.0803553
0.0250578
5.99971
5.98548
5.95863
5.91959
5.87035
5.81276
5.74845
5.67871
5.60461
5.52695
5.44644
5.36369
5.27929
5.1938
5.10777
5.02171
4.9361
4.85135
4.76783
4.68583
4.6056
4.52728
4.45101
4.37683
4.30477
4.23479
4.16683
4.10082
4.03666
3.97423
3.9134
3.85405
3.79603
3.73923
3.68351
3.62874
3.5748
3.52157
3.46895
3.41683
3.36512
3.31372
3.26256
3.21156
3.16065
3.10977
3.05886
3.00787
2.95676
2.90549
2.85402
2.80232
2.75036
2.69813
2.64559
2.59275
2.53959
2.48609
2.43225
2.37808
2.32355
2.26869
2.21348
2.15794
2.10206
2.04586
1.98934
1.93251
1.87539
1.81797
1.76028
1.70232
1.64411
1.58565
1.52696
1.46806
1.40894
1.34964
1.29015
1.23048
1.17066
1.11069
1.05059
0.990374
0.930052
0.869642
0.809162
0.748629
0.68806
0.627469
0.566867
0.50626
0.445646
0.385018
0.32436
0.263654
0.202874
0.141956
0.0804007
0.0250664
6.05617
6.04031
6.00921
5.96351
5.90615
5.84003
5.7676
5.69072
5.6107
5.52845
5.44459
5.35959
5.27387
5.1878
5.10174
5.01607
4.9311
4.84717
4.76453
4.68343
4.60405
4.52652
4.45093
4.37734
4.30574
4.23613
4.16844
4.10261
4.03855
3.97614
3.91527
3.85584
3.7977
3.74075
3.68486
3.6299
3.57577
3.52235
3.46954
3.41724
3.36536
3.3138
3.26249
3.21135
3.16032
3.10934
3.05833
3.00727
2.95609
2.90476
2.85325
2.80152
2.74954
2.69729
2.64476
2.59192
2.53876
2.48528
2.43146
2.3773
2.32281
2.26797
2.21279
2.15728
2.10143
2.04526
1.98878
1.93198
1.87489
1.81751
1.75985
1.70193
1.64374
1.58532
1.52666
1.46778
1.4087
1.34942
1.28995
1.23032
1.17052
1.11058
1.0505
0.990304
0.930004
0.869617
0.809158
0.748645
0.688094
0.627518
0.566929
0.506333
0.445728
0.38511
0.324464
0.263774
0.203009
0.142083
0.0804603
0.0250752
6.13185
6.11357
6.07588
6.02019
5.95121
5.87346
5.79047
5.70467
5.61754
5.52992
5.44226
5.35479
5.26767
5.18104
5.09505
5.00989
4.92572
4.84275
4.76115
4.68107
4.60266
4.52601
4.45118
4.37823
4.30715
4.23792
4.17051
4.10484
4.04085
3.97844
3.91751
3.85795
3.79965
3.74251
3.6864
3.63122
3.57685
3.52321
3.47017
3.41765
3.36556
3.31382
3.26234
3.21104
3.15987
3.10877
3.05766
3.0065
2.95526
2.90387
2.85231
2.80054
2.74854
2.69628
2.64375
2.59091
2.53777
2.4843
2.43051
2.37638
2.32191
2.26711
2.21197
2.15649
2.10069
2.04456
1.98811
1.93136
1.87431
1.81697
1.75935
1.70146
1.64332
1.58493
1.52631
1.46746
1.40841
1.34916
1.28973
1.23012
1.17035
1.11044
1.05039
0.990226
0.929954
0.869594
0.809161
0.748672
0.688142
0.627585
0.567011
0.506426
0.445833
0.385226
0.324595
0.263924
0.203175
0.142235
0.0805202
0.0250781
6.22624
6.20436
6.15652
6.08639
6.00185
5.90961
5.81428
5.71859
5.62394
5.53087
5.43949
5.3497
5.26135
5.17433
5.08855
5.004
4.92072
4.83878
4.75824
4.67921
4.60177
4.52599
4.4519
4.37956
4.30895
4.24007
4.17289
4.10735
4.04339
3.98093
3.91989
3.86017
3.80168
3.74431
3.68795
3.63252
3.57791
3.52401
3.47073
3.41799
3.36569
3.31374
3.26208
3.21063
3.15932
3.10809
3.05688
3.00564
2.95431
2.90287
2.85127
2.79947
2.74745
2.69519
2.64265
2.58982
2.53669
2.48325
2.42948
2.37538
2.32095
2.26619
2.21109
2.15565
2.09989
2.04381
1.98741
1.9307
1.87369
1.81639
1.75881
1.70097
1.64286
1.58451
1.52593
1.46712
1.40811
1.34889
1.28949
1.22992
1.17018
1.1103
1.05029
0.990151
0.92991
0.869579
0.809174
0.74871
0.688203
0.627665
0.567107
0.506536
0.445953
0.385357
0.324741
0.264087
0.203352
0.142386
0.0805571
0.0250654
6.33704
6.30957
6.24606
6.15594
6.05212
5.9436
5.83549
5.73024
5.6287
5.53088
5.4364
5.34479
5.25559
5.16842
5.08299
4.99913
4.91674
4.83577
4.75623
4.67816
4.60158
4.52655
4.4531
4.38126
4.31103
4.24242
4.17539
4.1099
4.04592
3.98337
3.92219
3.86228
3.80357
3.74596
3.68936
3.63368
3.57881
3.52467
3.47116
3.4182
3.3657
3.31357
3.26174
3.21014
3.1587
3.10736
3.05605
3.00473
2.95335
2.90186
2.85022
2.7984
2.74637
2.69409
2.64156
2.58875
2.53564
2.48222
2.42848
2.37441
2.32002
2.26529
2.21023
2.15484
2.09912
2.04308
1.98672
1.93005
1.87309
1.81583
1.7583
1.70049
1.64243
1.58411
1.52557
1.4668
1.40782
1.34864
1.28927
1.22973
1.17003
1.11018
1.05019
0.990085
0.929874
0.869573
0.809196
0.748758
0.688274
0.627755
0.567212
0.506653
0.446079
0.385492
0.324885
0.264243
0.203509
0.1425
0.0805406
0.025026
6.45752
6.4212
6.33421
6.21883
6.09409
5.96998
5.85082
5.7379
5.63117
5.52994
5.43338
5.34065
5.25103
5.16395
5.07896
4.99576
4.91415
4.83401
4.75528
4.67796
4.60206
4.5276
4.45461
4.38313
4.31315
4.24469
4.17772
4.11223
4.04818
3.98551
3.92416
3.86407
3.80515
3.74732
3.6905
3.63458
3.5795
3.52515
3.47144
3.41829
3.36561
3.31333
3.26137
3.20964
3.1581
3.10666
3.05528
3.0039
2.95247
2.90094
2.84927
2.79744
2.7454
2.69313
2.6406
2.5878
2.53471
2.48131
2.4276
2.37356
2.3192
2.2645
2.20948
2.15412
2.09844
2.04244
1.98612
1.92949
1.87256
1.81534
1.75784
1.70007
1.64204
1.58377
1.52525
1.46652
1.40756
1.34841
1.28908
1.22956
1.16989
1.11007
1.05011
0.990034
0.92985
0.869575
0.809223
0.748808
0.688344
0.627843
0.567314
0.506763
0.446196
0.385612
0.325006
0.264361
0.203609
0.14254
0.0804523
0.0249575
6.57143
6.52197
6.40401
6.26268
6.12047
5.98525
5.85901
5.74155
5.63189
5.52884
5.43122
5.338
5.24828
5.16139
5.07677
4.99407
4.913
4.83342
4.75523
4.67839
4.60291
4.5288
4.45608
4.38479
4.31493
4.24653
4.17956
4.11403
4.04989
3.98711
3.92562
3.86537
3.80628
3.74828
3.69128
3.6352
3.57995
3.52545
3.47159
3.41831
3.36551
3.31312
3.26106
3.20925
3.15763
3.10613
3.0547
3.00327
2.95181
2.90025
2.84857
2.79672
2.74468
2.69241
2.63989
2.5871
2.53402
2.48064
2.42694
2.37293
2.31859
2.26392
2.20892
2.15359
2.09794
2.04196
1.98567
1.92907
1.87217
1.81498
1.75751
1.69976
1.64176
1.58351
1.52502
1.4663
1.40737
1.34825
1.28893
1.22944
1.16979
1.10999
1.05005
0.989994
0.929831
0.869576
0.809244
0.748847
0.688399
0.627911
0.567391
0.506847
0.446282
0.385696
0.325082
0.264417
0.20363
0.142504
0.0803624
0.0249079
6.65424
6.59153
6.44229
6.28332
6.13229
5.99236
5.86334
5.74409
5.63322
5.52936
5.43121
5.33768
5.24784
5.16094
5.07642
4.99386
4.91298
4.8336
4.75561
4.67895
4.60363
4.52965
4.45704
4.38582
4.316
4.24761
4.18064
4.11507
4.05088
3.98803
3.92647
3.86614
3.80696
3.74887
3.69179
3.63562
3.58028
3.52569
3.47177
3.41841
3.36555
3.3131
3.26098
3.20912
3.15746
3.10593
3.05446
3.00301
2.95152
2.89995
2.84825
2.79639
2.74434
2.69206
2.63954
2.58675
2.53367
2.4803
2.42661
2.3726
2.31827
2.26361
2.20863
2.15331
2.09767
2.0417
1.98543
1.92884
1.87195
1.81477
1.75731
1.69958
1.64159
1.58335
1.52487
1.46617
1.40725
1.34814
1.28883
1.22935
1.16971
1.10992
1.05
0.989956
0.929804
0.869561
0.809239
0.748852
0.688413
0.627932
0.567417
0.506876
0.446311
0.38572
0.325094
0.264406
0.203592
0.142492
0.0807354
0.0251556
)
;

boundaryField
{
    inlet
    {
        type            zeroGradient;
    }
    outlet
    {
        type            fixedValue;
        value           uniform 0;
    }
    frontAndBack
    {
        type            empty;
    }
    walls
    {
        type            zeroGradient;
    }
}


// ************************************************************************* //
