/*--------------------------------*- C++ -*----------------------------------*\
| =========                 |                                                 |
| \\      /  F ield         | OpenFOAM: The Open Source CFD Toolbox           |
|  \\    /   O peration     | Version:  2212                                  |
|   \\  /    A nd           | Website:  www.openfoam.com                      |
|    \\/     M anipulation  |                                                 |
\*---------------------------------------------------------------------------*/
FoamFile
{
    version     2.0;
    format      ascii;
    arch        "LSB;label=32;scalar=64";
    class       surfaceScalarField;
    location    "100";
    object      phi;
}
// * * * * * * * * * * * * * * * * * * * * * * * * * * * * * * * * * * * * * //

dimensions      [0 3 -1 0 0 0 0];

oriented        oriented;

internalField   nonuniform List<scalar> 
3880
(
2.371e-05
1.22877e-06
1.5011e-05
2.32912e-06
1.19949e-05
2.57447e-06
1.06045e-05
2.51592e-06
9.80056e-06
2.33131e-06
9.26279e-06
2.09327e-06
8.87505e-06
1.83621e-06
8.58734e-06
1.57909e-06
8.37382e-06
1.33347e-06
8.21834e-06
1.10662e-06
8.10896e-06
9.03044e-07
8.03586e-06
7.25121e-07
7.99047e-06
5.73639e-07
7.96527e-06
4.4813e-07
7.95373e-06
3.47176e-07
7.95029e-06
2.68675e-07
7.9504e-06
2.1009e-07
7.95047e-06
1.68649e-07
7.9478e-06
1.4153e-07
7.94051e-06
1.25987e-07
7.92742e-06
1.19455e-07
7.90792e-06
1.19617e-07
7.88188e-06
1.24442e-07
7.84955e-06
1.322e-07
7.81142e-06
1.4146e-07
7.76818e-06
1.51073e-07
7.72062e-06
1.60152e-07
7.6696e-06
1.6804e-07
7.61598e-06
1.74282e-07
7.56061e-06
1.78591e-07
7.50427e-06
1.80819e-07
7.44769e-06
1.80931e-07
7.39153e-06
1.7898e-07
7.33637e-06
1.75084e-07
7.28269e-06
1.69409e-07
7.23093e-06
1.62153e-07
7.18141e-06
1.5353e-07
7.13442e-06
1.43766e-07
7.09015e-06
1.33085e-07
7.04875e-06
1.21704e-07
7.01033e-06
1.0983e-07
6.97495e-06
9.7656e-08
6.94261e-06
8.53567e-08
6.91329e-06
7.30897e-08
6.88696e-06
6.09935e-08
6.86355e-06
4.91882e-08
6.84297e-06
3.77754e-08
6.82513e-06
2.68395e-08
6.80991e-06
1.64483e-08
6.79719e-06
6.65462e-09
6.78686e-06
-2.50276e-09
6.77879e-06
-1.09974e-08
6.77284e-06
-1.88141e-08
6.76889e-06
-2.59474e-08
6.76681e-06
-3.24003e-08
6.76648e-06
-3.81828e-08
6.76778e-06
-4.33112e-08
6.77058e-06
-4.78067e-08
6.77477e-06
-5.16942e-08
6.78023e-06
-5.50019e-08
6.78686e-06
-5.77599e-08
6.79456e-06
-6.00001e-08
6.80322e-06
-6.17551e-08
6.81274e-06
-6.30578e-08
6.82303e-06
-6.39409e-08
6.834e-06
-6.44367e-08
6.84556e-06
-6.45766e-08
6.85762e-06
-6.43908e-08
6.87009e-06
-6.39084e-08
6.8829e-06
-6.31572e-08
6.89595e-06
-6.21637e-08
6.90917e-06
-6.09533e-08
6.92248e-06
-5.95504e-08
6.93581e-06
-5.79786e-08
6.94909e-06
-5.62611e-08
6.96227e-06
-5.44215e-08
6.97529e-06
-5.24836e-08
6.98814e-06
-5.04725e-08
7.0008e-06
-4.84147e-08
7.01331e-06
-4.63384e-08
7.02572e-06
-4.4274e-08
7.03813e-06
-4.22531e-08
7.05068e-06
-4.03081e-08
7.06353e-06
-3.84703e-08
7.0769e-06
-3.67675e-08
7.09099e-06
-3.52211e-08
7.10599e-06
-3.38416e-08
7.12205e-06
-3.26255e-08
7.13925e-06
-3.15511e-08
7.15753e-06
-3.05774e-08
7.17673e-06
-2.96451e-08
7.19655e-06
-2.86839e-08
7.21658e-06
-2.76249e-08
7.23631e-06
-2.64202e-08
7.25509e-06
-2.50612e-08
7.27156e-06
-2.35701e-08
7.28166e-06
-2.1897e-08
7.26125e-06
-1.96139e-08
7.22932e-06
-1.54244e-08
-1.42653e-08
4.03433e-05
2.00792e-06
3.33165e-05
4.01303e-06
2.91128e-05
4.69721e-06
2.65359e-05
4.74906e-06
2.48569e-05
4.48215e-06
2.36987e-05
4.06361e-06
2.28695e-05
3.58264e-06
2.22678e-05
3.08887e-06
2.18351e-05
2.61135e-06
2.15336e-05
2.16759e-06
2.13352e-05
1.76792e-06
2.12173e-05
1.41782e-06
2.11604e-05
1.11919e-06
2.11477e-05
8.71315e-07
2.11642e-05
6.71518e-07
2.11974e-05
5.15748e-07
2.12369e-05
3.99085e-07
2.12745e-05
3.16154e-07
2.13037e-05
2.61466e-07
2.13202e-05
2.29686e-07
2.13211e-05
2.15823e-07
2.13049e-05
2.15359e-07
2.12711e-05
2.24324e-07
2.12201e-05
2.39327e-07
2.11531e-05
2.57552e-07
2.10717e-05
2.76727e-07
2.09776e-05
2.95087e-07
2.0873e-05
3.11311e-07
2.07598e-05
3.24472e-07
2.06402e-05
3.33973e-07
2.05161e-05
3.39491e-07
2.03893e-05
3.40928e-07
2.02616e-05
3.38359e-07
2.01345e-05
3.31991e-07
2.00091e-05
3.22128e-07
1.98867e-05
3.0914e-07
1.97683e-05
2.93437e-07
1.96546e-05
2.75447e-07
1.95462e-05
2.55604e-07
1.94437e-05
2.34328e-07
1.93473e-05
2.12021e-07
1.92574e-05
1.89059e-07
1.91741e-05
1.65785e-07
1.90974e-05
1.42508e-07
1.90274e-05
1.195e-07
1.8964e-05
9.70006e-08
1.8907e-05
7.52098e-08
1.88564e-05
5.4296e-08
1.88119e-05
3.43952e-08
1.87733e-05
1.56137e-08
1.87403e-05
-1.96934e-09
1.87129e-05
-1.82993e-08
1.86906e-05
-3.33433e-08
1.86732e-05
-4.70879e-08
1.86605e-05
-5.95361e-08
1.86522e-05
-7.07053e-08
1.8648e-05
-8.06246e-08
1.86478e-05
-8.93331e-08
1.86511e-05
-9.68775e-08
1.86579e-05
-1.03311e-07
1.86678e-05
-1.0869e-07
1.86807e-05
-1.13076e-07
1.86962e-05
-1.1653e-07
1.87142e-05
-1.19116e-07
1.87344e-05
-1.20896e-07
1.87567e-05
-1.21932e-07
1.87807e-05
-1.22284e-07
1.88064e-05
-1.2201e-07
1.88334e-05
-1.21166e-07
1.88616e-05
-1.19805e-07
1.88907e-05
-1.17978e-07
1.89206e-05
-1.15734e-07
1.8951e-05
-1.13119e-07
1.89818e-05
-1.10179e-07
1.90127e-05
-1.06958e-07
1.90436e-05
-1.035e-07
1.90743e-05
-9.98503e-08
1.91049e-05
-9.60565e-08
1.91352e-05
-9.21682e-08
1.91655e-05
-8.82384e-08
1.91957e-05
-8.43237e-08
1.92262e-05
-8.04838e-08
1.92575e-05
-7.67795e-08
1.92899e-05
-7.32704e-08
1.9324e-05
-7.00101e-08
1.93606e-05
-6.70405e-08
1.94001e-05
-6.43843e-08
1.94429e-05
-6.20376e-08
1.94892e-05
-5.99625e-08
1.9539e-05
-5.80834e-08
1.95916e-05
-5.62875e-08
1.96461e-05
-5.44348e-08
1.97013e-05
-5.23792e-08
1.97555e-05
-5.0003e-08
1.98068e-05
-4.7261e-08
1.98519e-05
-4.4214e-08
1.98828e-05
-4.09933e-08
1.98592e-05
-3.76035e-08
1.98084e-05
-3.34606e-08
-3.10442e-08
4.65984e-05
2.29636e-06
4.29924e-05
4.84816e-06
4.00701e-05
6.02917e-06
3.78607e-05
6.35942e-06
3.62131e-05
6.17086e-06
3.49838e-05
5.6952e-06
3.40683e-05
5.07864e-06
3.33958e-05
4.41066e-06
3.29169e-05
3.74593e-06
3.25946e-05
3.11781e-06
3.23985e-05
2.54616e-06
3.23024e-05
2.0418e-06
3.22827e-05
1.60924e-06
3.2318e-05
1.2485e-06
3.23896e-05
9.56336e-07
3.24812e-05
7.27337e-07
3.25792e-05
5.54691e-07
3.26726e-05
4.3086e-07
3.2753e-05
3.48095e-07
3.28143e-05
2.9883e-07
3.28525e-05
2.75963e-07
3.28652e-05
2.73042e-07
3.28518e-05
2.84379e-07
3.28126e-05
3.05086e-07
3.27491e-05
3.31084e-07
3.26631e-05
3.59057e-07
3.25571e-05
3.86399e-07
3.24338e-05
4.11142e-07
3.22961e-05
4.31871e-07
3.21467e-05
4.47651e-07
3.19886e-05
4.57942e-07
3.18241e-05
4.62529e-07
3.16559e-05
4.61457e-07
3.14861e-05
4.54967e-07
3.13165e-05
4.43447e-07
3.11491e-05
4.27389e-07
3.09852e-05
4.07349e-07
3.0826e-05
3.8392e-07
3.06727e-05
3.57703e-07
3.05261e-05
3.29292e-07
3.03868e-05
2.99255e-07
3.02554e-05
2.68128e-07
3.01321e-05
2.36403e-07
3.00173e-05
2.04526e-07
2.9911e-05
1.72894e-07
2.98133e-05
1.41851e-07
2.97242e-05
1.11694e-07
2.96435e-05
8.26707e-08
2.95712e-05
5.49837e-08
2.95069e-05
2.87929e-08
2.94504e-05
4.2193e-09
2.94016e-05
-1.86513e-08
2.936e-05
-3.97648e-08
2.93255e-05
-5.9095e-08
2.92977e-05
-7.66399e-08
2.92763e-05
-9.24182e-08
2.9261e-05
-1.06466e-07
2.92515e-05
-1.18834e-07
2.92475e-05
-1.29584e-07
2.92487e-05
-1.38788e-07
2.92546e-05
-1.46522e-07
2.92652e-05
-1.52871e-07
2.92799e-05
-1.57918e-07
2.92986e-05
-1.61752e-07
2.9321e-05
-1.64458e-07
2.93467e-05
-1.66122e-07
2.93753e-05
-1.66829e-07
2.94068e-05
-1.66658e-07
2.94406e-05
-1.65687e-07
2.94765e-05
-1.63992e-07
2.95142e-05
-1.61642e-07
2.95533e-05
-1.58707e-07
2.95936e-05
-1.5525e-07
2.96347e-05
-1.51334e-07
2.96764e-05
-1.47022e-07
2.97184e-05
-1.42373e-07
2.97605e-05
-1.37451e-07
2.98026e-05
-1.32318e-07
2.98446e-05
-1.27044e-07
2.98867e-05
-1.21699e-07
2.99291e-05
-1.16361e-07
2.99723e-05
-1.1111e-07
3.00168e-05
-1.06029e-07
3.00635e-05
-1.01201e-07
3.01133e-05
-9.66994e-08
3.01673e-05
-9.2585e-08
3.02263e-05
-8.88927e-08
3.02912e-05
-8.56222e-08
3.03622e-05
-8.27271e-08
3.04391e-05
-8.01074e-08
3.05211e-05
-7.76082e-08
3.06065e-05
-7.50283e-08
3.06931e-05
-7.21442e-08
3.07784e-05
-6.87544e-08
3.08593e-05
-6.47486e-08
3.09314e-05
-6.0203e-08
3.09856e-05
-5.54851e-08
3.09765e-05
-5.12876e-08
3.09219e-05
-4.81725e-08
-4.5167e-08
4.91092e-05
2.26878e-06
4.78256e-05
5.00384e-06
4.64982e-05
6.5228e-06
4.52864e-05
7.15514e-06
4.42457e-05
7.15483e-06
4.33907e-05
6.75097e-06
4.27167e-05
6.11678e-06
4.22112e-05
5.37285e-06
4.18582e-05
4.5997e-06
4.16393e-05
3.84951e-06
4.15346e-05
3.15484e-06
4.1523e-05
2.53453e-06
4.15838e-05
1.9977e-06
4.16967e-05
1.54665e-06
4.18432e-05
1.17882e-06
4.20068e-05
8.8843e-07
4.21733e-05
6.67646e-07
4.23312e-05
5.07537e-07
4.24716e-05
3.98789e-07
4.25878e-05
3.32229e-07
4.26754e-05
2.992e-07
4.27318e-05
2.918e-07
4.27561e-05
3.03026e-07
4.27486e-05
3.26831e-07
4.27105e-05
3.58132e-07
4.26441e-05
3.92766e-07
4.25519e-05
4.27427e-07
4.24369e-05
4.59581e-07
4.23022e-05
4.87372e-07
4.2151e-05
5.09533e-07
4.19865e-05
5.25289e-07
4.18116e-05
5.34271e-07
4.16294e-05
5.36438e-07
4.14422e-05
5.32004e-07
4.12527e-05
5.21378e-07
4.10628e-05
5.05103e-07
4.08745e-05
4.83818e-07
4.06893e-05
4.58213e-07
4.05088e-05
4.29003e-07
4.0334e-05
3.96899e-07
4.0166e-05
3.62589e-07
4.00054e-05
3.26726e-07
3.9853e-05
2.89916e-07
3.97092e-05
2.52711e-07
3.95742e-05
2.15603e-07
3.94484e-05
1.79027e-07
3.93318e-05
1.43357e-07
3.92245e-05
1.08908e-07
3.91264e-05
7.59413e-08
3.90375e-05
4.46643e-08
3.89576e-05
1.52374e-08
3.88865e-05
-1.22229e-08
3.8824e-05
-3.76396e-08
3.87699e-05
-6.09703e-08
3.87239e-05
-8.22031e-08
3.86857e-05
-1.01352e-07
3.8655e-05
-1.18453e-07
3.86315e-05
-1.33562e-07
3.86149e-05
-1.46746e-07
3.86049e-05
-1.58088e-07
3.86012e-05
-1.67676e-07
3.86034e-05
-1.75607e-07
3.86113e-05
-1.81982e-07
3.86244e-05
-1.86901e-07
3.86424e-05
-1.90468e-07
3.8665e-05
-1.92784e-07
3.86918e-05
-1.93949e-07
3.87225e-05
-1.94058e-07
3.87567e-05
-1.93205e-07
3.87939e-05
-1.91479e-07
3.88339e-05
-1.88965e-07
3.88761e-05
-1.85743e-07
3.89202e-05
-1.81891e-07
3.89657e-05
-1.77484e-07
3.90124e-05
-1.72595e-07
3.90599e-05
-1.67295e-07
3.91078e-05
-1.61658e-07
3.9156e-05
-1.55758e-07
3.92045e-05
-1.49674e-07
3.92533e-05
-1.43489e-07
3.93029e-05
-1.37293e-07
3.93537e-05
-1.31178e-07
3.94066e-05
-1.25242e-07
3.94628e-05
-1.1958e-07
3.95236e-05
-1.14282e-07
3.95903e-05
-1.09421e-07
3.96644e-05
-1.05043e-07
3.9747e-05
-1.01155e-07
3.98385e-05
-9.77078e-08
3.99387e-05
-9.45917e-08
4.00464e-05
-9.16265e-08
4.01593e-05
-8.85702e-08
4.02743e-05
-8.51415e-08
4.03877e-05
-8.10678e-08
4.04955e-05
-7.61709e-08
4.05928e-05
-7.05054e-08
4.06707e-05
-6.45534e-08
4.06822e-05
-5.93757e-08
4.06363e-05
-5.60092e-08
-5.29991e-08
5.01813e-05
2.04489e-06
5.02e-05
4.66536e-06
5.00754e-05
6.30041e-06
4.98546e-05
7.13954e-06
4.9586e-05
7.33897e-06
4.93182e-05
7.08058e-06
4.90892e-05
6.52789e-06
4.8924e-05
5.81066e-06
4.88355e-05
5.02449e-06
4.88263e-05
4.23622e-06
4.88914e-05
3.49014e-06
4.90205e-05
2.81359e-06
4.91999e-05
2.22136e-06
4.94149e-05
1.71916e-06
4.96509e-05
1.30629e-06
4.9894e-05
9.77727e-07
5.01324e-05
7.25678e-07
5.03559e-05
5.40843e-07
5.05567e-05
4.13294e-07
5.0729e-05
3.3314e-07
5.08687e-05
2.9097e-07
5.09735e-05
2.78149e-07
5.10428e-05
2.86983e-07
5.10767e-05
3.10797e-07
5.10765e-05
3.43941e-07
5.10443e-05
3.81758e-07
5.09826e-05
4.2051e-07
5.08942e-05
4.57296e-07
5.07822e-05
4.89956e-07
5.06499e-05
5.16971e-07
5.05004e-05
5.37367e-07
5.03366e-05
5.50624e-07
5.01618e-05
5.56591e-07
4.99784e-05
5.5541e-07
4.97892e-05
5.47446e-07
4.95965e-05
5.33228e-07
4.94023e-05
5.13402e-07
4.92085e-05
4.88682e-07
4.90169e-05
4.5982e-07
4.88287e-05
4.27572e-07
4.86453e-05
3.92683e-07
4.84676e-05
3.5586e-07
4.82966e-05
3.17768e-07
4.8133e-05
2.79015e-07
4.79773e-05
2.4015e-07
4.783e-05
2.01658e-07
4.76914e-05
1.63961e-07
4.75618e-05
1.27418e-07
4.74413e-05
9.23282e-08
4.733e-05
5.89322e-08
4.7228e-05
2.74192e-08
4.71351e-05
-2.07053e-09
4.70514e-05
-2.94403e-08
4.69766e-05
-5.46322e-08
4.69107e-05
-7.76226e-08
4.68535e-05
-9.8417e-08
4.68046e-05
-1.17046e-07
4.6764e-05
-1.33561e-07
4.67314e-05
-1.4803e-07
4.67064e-05
-1.60536e-07
4.66888e-05
-1.7117e-07
4.66783e-05
-1.80032e-07
4.66746e-05
-1.87226e-07
4.66773e-05
-1.9286e-07
4.66861e-05
-1.97043e-07
4.67007e-05
-1.9988e-07
4.67206e-05
-2.0148e-07
4.67455e-05
-2.01943e-07
4.67749e-05
-2.01369e-07
4.68084e-05
-1.99853e-07
4.68455e-05
-1.97487e-07
4.68858e-05
-1.94355e-07
4.69287e-05
-1.90542e-07
4.69739e-05
-1.86127e-07
4.70208e-05
-1.81187e-07
4.7069e-05
-1.75799e-07
4.71182e-05
-1.70038e-07
4.71681e-05
-1.63984e-07
4.72186e-05
-1.57718e-07
4.72699e-05
-1.51327e-07
4.73223e-05
-1.44903e-07
4.73766e-05
-1.38542e-07
4.74338e-05
-1.32346e-07
4.74952e-05
-1.26415e-07
4.75627e-05
-1.20845e-07
4.7638e-05
-1.15714e-07
4.7723e-05
-1.11076e-07
4.78193e-05
-1.06944e-07
4.79274e-05
-1.03277e-07
4.80473e-05
-9.99642e-08
4.81773e-05
-9.68224e-08
4.83146e-05
-9.35963e-08
4.8455e-05
-8.99795e-08
4.85936e-05
-8.56621e-08
4.87254e-05
-8.04198e-08
4.88451e-05
-7.42667e-08
4.89446e-05
-6.7685e-08
4.8977e-05
-6.18385e-08
4.89436e-05
-5.80086e-08
-5.50841e-08
5.06647e-05
1.71094e-06
5.137e-05
4.00343e-06
5.20129e-05
5.54727e-06
5.25504e-05
6.44598e-06
5.2975e-05
6.77922e-06
5.33096e-05
6.67045e-06
5.35875e-05
6.25069e-06
5.38402e-05
5.63725e-06
5.40921e-05
4.92511e-06
5.43582e-05
4.1857e-06
5.46452e-05
3.46932e-06
5.4953e-05
2.80889e-06
5.52769e-05
2.22363e-06
5.56095e-05
1.72251e-06
5.59422e-05
1.30711e-06
5.62662e-05
9.7392e-07
5.65736e-05
7.16178e-07
5.68576e-05
5.25248e-07
5.71128e-05
3.91655e-07
5.73351e-05
3.05814e-07
5.75219e-05
2.58527e-07
5.76718e-05
2.41304e-07
5.77845e-05
2.46546e-07
5.78606e-05
2.67629e-07
5.79014e-05
2.98917e-07
5.79088e-05
3.35735e-07
5.7885e-05
3.74301e-07
5.78326e-05
4.11649e-07
5.77544e-05
4.45538e-07
5.76534e-05
4.74357e-07
5.75323e-05
4.97036e-07
5.7394e-05
5.12959e-07
5.72413e-05
5.2188e-07
5.70768e-05
5.23852e-07
5.6903e-05
5.1916e-07
5.67222e-05
5.08264e-07
5.65366e-05
4.91747e-07
5.63481e-05
4.70274e-07
5.61584e-05
4.44554e-07
5.59692e-05
4.15313e-07
5.5782e-05
3.8327e-07
5.55978e-05
3.49117e-07
5.54179e-05
3.13508e-07
5.52432e-05
2.77044e-07
5.50744e-05
2.40275e-07
5.49124e-05
2.03688e-07
5.47577e-05
1.67709e-07
5.46107e-05
1.32704e-07
5.44719e-05
9.89796e-08
5.43416e-05
6.67869e-08
5.422e-05
3.63239e-08
5.41073e-05
7.74077e-09
5.40035e-05
-1.8856e-08
5.39088e-05
-4.33988e-08
5.38231e-05
-6.58545e-08
5.37465e-05
-8.62196e-08
5.36787e-05
-1.04516e-07
5.36197e-05
-1.20787e-07
5.35693e-05
-1.35094e-07
5.35274e-05
-1.4751e-07
5.34938e-05
-1.58121e-07
5.34681e-05
-1.67021e-07
5.34501e-05
-1.74308e-07
5.34396e-05
-1.80085e-07
5.34362e-05
-1.84453e-07
5.34396e-05
-1.87517e-07
5.34493e-05
-1.89377e-07
5.3465e-05
-1.90133e-07
5.34862e-05
-1.89881e-07
5.35124e-05
-1.8871e-07
5.35432e-05
-1.86711e-07
5.35781e-05
-1.83965e-07
5.36164e-05
-1.80553e-07
5.36577e-05
-1.76552e-07
5.37014e-05
-1.72036e-07
5.3747e-05
-1.67077e-07
5.3794e-05
-1.61749e-07
5.38423e-05
-1.56126e-07
5.38916e-05
-1.50286e-07
5.39421e-05
-1.44309e-07
5.39942e-05
-1.38282e-07
5.40486e-05
-1.32296e-07
5.41067e-05
-1.26446e-07
5.41701e-05
-1.20828e-07
5.42408e-05
-1.15533e-07
5.43212e-05
-1.10638e-07
5.44136e-05
-1.06199e-07
5.45198e-05
-1.02232e-07
5.4641e-05
-9.87069e-08
5.4777e-05
-9.55251e-08
5.4926e-05
-9.25183e-08
5.50843e-05
-8.94462e-08
5.52468e-05
-8.60146e-08
5.54075e-05
-8.19171e-08
5.55602e-05
-7.69174e-08
5.5699e-05
-7.09923e-08
5.58167e-05
-6.45525e-08
5.58673e-05
-5.86752e-08
5.58464e-05
-5.46704e-08
-5.1898e-08
5.08921e-05
1.317e-06
5.1951e-05
3.13812e-06
5.30466e-05
4.42766e-06
5.40961e-05
5.24029e-06
5.50491e-05
5.60854e-06
5.5893e-05
5.60628e-06
5.66366e-05
5.32543e-06
5.7299e-05
4.85766e-06
5.79001e-05
4.28344e-06
5.8457e-05
3.66732e-06
5.89814e-05
3.05719e-06
5.94802e-05
2.48594e-06
5.9956e-05
1.97385e-06
6.04086e-05
1.53144e-06
6.08361e-05
1.16194e-06
6.12355e-05
8.63512e-07
6.16041e-05
6.31013e-07
6.19391e-05
4.57345e-07
6.22384e-05
3.34476e-07
6.25005e-05
2.54153e-07
6.27248e-05
2.08389e-07
6.29112e-05
1.89769e-07
6.30602e-05
1.91631e-07
6.31729e-05
2.08142e-07
6.32507e-05
2.34323e-07
6.32954e-05
2.66022e-07
6.3309e-05
2.9986e-07
6.32939e-05
3.33167e-07
6.32523e-05
3.639e-07
6.31866e-05
3.9057e-07
6.30994e-05
4.12162e-07
6.29929e-05
4.28058e-07
6.28697e-05
4.37975e-07
6.27321e-05
4.41894e-07
6.25822e-05
4.40009e-07
6.24221e-05
4.32676e-07
6.2254e-05
4.20364e-07
6.20797e-05
4.03624e-07
6.1901e-05
3.83053e-07
6.17195e-05
3.59271e-07
6.15367e-05
3.32894e-07
6.1354e-05
3.04523e-07
6.11727e-05
2.74729e-07
6.0994e-05
2.44041e-07
6.08189e-05
2.12944e-07
6.06482e-05
1.81871e-07
6.04829e-05
1.51203e-07
6.03237e-05
1.2127e-07
6.01711e-05
9.23482e-08
6.00258e-05
6.46673e-08
5.98882e-05
3.84099e-08
5.97587e-05
1.37163e-08
5.96375e-05
-9.31198e-09
5.95251e-05
-3.0608e-08
5.94214e-05
-5.01355e-08
5.93267e-05
-6.78848e-08
5.92411e-05
-8.38691e-08
5.91645e-05
-9.81208e-08
5.90969e-05
-1.10688e-07
5.90382e-05
-1.21632e-07
5.89883e-05
-1.31023e-07
5.89471e-05
-1.3894e-07
5.89144e-05
-1.45466e-07
5.88898e-05
-1.50687e-07
5.88732e-05
-1.54691e-07
5.88642e-05
-1.57567e-07
5.88624e-05
-1.59401e-07
5.88675e-05
-1.60278e-07
5.8879e-05
-1.6028e-07
5.88963e-05
-1.59486e-07
5.89191e-05
-1.57971e-07
5.89467e-05
-1.55808e-07
5.89785e-05
-1.53065e-07
5.9014e-05
-1.49808e-07
5.90525e-05
-1.46101e-07
5.90935e-05
-1.42006e-07
5.91365e-05
-1.37585e-07
5.91811e-05
-1.32902e-07
5.92272e-05
-1.28022e-07
5.92749e-05
-1.23013e-07
5.93245e-05
-1.17948e-07
5.9377e-05
-1.12903e-07
5.94338e-05
-1.0796e-07
5.94968e-05
-1.03198e-07
5.95683e-05
-9.86964e-08
5.9651e-05
-9.45225e-08
5.97478e-05
-9.07258e-08
5.9861e-05
-8.73255e-08
5.9992e-05
-8.4299e-08
6.01407e-05
-8.15695e-08
6.0305e-05
-7.89987e-08
6.04808e-05
-7.63861e-08
6.06619e-05
-7.34819e-08
6.08411e-05
-7.00215e-08
6.10112e-05
-6.57921e-08
6.11655e-05
-6.075e-08
6.12975e-05
-5.52025e-08
6.13626e-05
-5.00207e-08
6.13522e-05
-4.6349e-08
-4.39125e-08
5.10016e-05
8.91054e-07
5.22394e-05
2.14925e-06
5.35887e-05
3.069e-06
5.49567e-05
3.67771e-06
5.62712e-05
3.9846e-06
5.74926e-05
4.02853e-06
5.86055e-05
3.86554e-06
5.96099e-05
3.55662e-06
6.05147e-05
3.15887e-06
6.13313e-05
2.72041e-06
6.20714e-05
2.27845e-06
6.27447e-05
1.8594e-06
6.33586e-05
1.48026e-06
6.39188e-05
1.15033e-06
6.4429e-05
8.73125e-07
6.48921e-05
6.4804e-07
6.53098e-05
4.71732e-07
6.56838e-05
3.39227e-07
6.60154e-05
2.44727e-07
6.63059e-05
1.82197e-07
6.65566e-05
1.4575e-07
6.67689e-05
1.29896e-07
6.69443e-05
1.29685e-07
6.70845e-05
1.40774e-07
6.71912e-05
1.59444e-07
6.72662e-05
1.82583e-07
6.73112e-05
2.07649e-07
6.73283e-05
2.32619e-07
6.73193e-05
2.55937e-07
6.72861e-05
2.76455e-07
6.72308e-05
2.93376e-07
6.71554e-05
3.06201e-07
6.70617e-05
3.1468e-07
6.69517e-05
3.18764e-07
6.68272e-05
3.18565e-07
6.66902e-05
3.1432e-07
6.65424e-05
3.06354e-07
6.63856e-05
2.95058e-07
6.62215e-05
2.80861e-07
6.60517e-05
2.64211e-07
6.58777e-05
2.45561e-07
6.5701e-05
2.25352e-07
6.5523e-05
2.04006e-07
6.5345e-05
1.81916e-07
6.51681e-05
1.59444e-07
6.49935e-05
1.36916e-07
6.48222e-05
1.14618e-07
6.46551e-05
9.27995e-08
6.44932e-05
7.16713e-08
6.43371e-05
5.14085e-08
6.41875e-05
3.21516e-08
6.4045e-05
1.40098e-08
6.39102e-05
-2.93702e-09
6.37834e-05
-1.86349e-08
6.36651e-05
-3.30528e-08
6.35554e-05
-4.618e-08
6.34547e-05
-5.8023e-08
6.33631e-05
-6.86029e-08
6.32806e-05
-7.79528e-08
6.32073e-05
-8.61154e-08
6.31432e-05
-9.31414e-08
6.30881e-05
-9.90866e-08
6.30421e-05
-1.04011e-07
6.30048e-05
-1.07978e-07
6.2976e-05
-1.11051e-07
6.29556e-05
-1.13294e-07
6.2943e-05
-1.1477e-07
6.29379e-05
-1.15542e-07
6.294e-05
-1.15669e-07
6.29487e-05
-1.15209e-07
6.29634e-05
-1.14218e-07
6.29836e-05
-1.12747e-07
6.30087e-05
-1.10848e-07
6.3038e-05
-1.08568e-07
6.3071e-05
-1.05954e-07
6.31069e-05
-1.03052e-07
6.31452e-05
-9.99054e-08
6.31856e-05
-9.65615e-08
6.32278e-05
-9.30671e-08
6.32718e-05
-8.94715e-08
6.33182e-05
-8.58273e-08
6.33679e-05
-8.21897e-08
6.34223e-05
-7.86168e-08
6.34836e-05
-7.51674e-08
6.35545e-05
-7.18983e-08
6.36379e-05
-6.88599e-08
6.3737e-05
-6.60896e-08
6.38546e-05
-6.36036e-08
6.39924e-05
-6.13885e-08
6.41504e-05
-5.93919e-08
6.43264e-05
-5.75167e-08
6.45157e-05
-5.56199e-08
6.47114e-05
-5.35216e-08
6.49051e-05
-5.10287e-08
6.50886e-05
-4.7982e-08
6.52547e-05
-4.43374e-08
6.53972e-05
-4.02939e-08
6.54728e-05
-3.64525e-08
6.54704e-05
-3.36477e-08
-3.18104e-08
5.10534e-05
4.48905e-07
5.2378e-05
1.0904e-06
5.386e-05
1.56772e-06
5.54084e-05
1.89221e-06
5.69426e-05
2.06493e-06
5.84076e-05
2.102e-06
5.97706e-05
2.02945e-06
6.10161e-05
1.87732e-06
6.21412e-05
1.67496e-06
6.31507e-05
1.44789e-06
6.40531e-05
1.21633e-06
6.48587e-05
9.94987e-07
6.55774e-05
7.93505e-07
6.62185e-05
6.17358e-07
6.67901e-05
4.68795e-07
6.7299e-05
3.47756e-07
6.7751e-05
2.52628e-07
6.81511e-05
1.80865e-07
6.85033e-05
1.2944e-07
6.88113e-05
9.51669e-08
6.9078e-05
7.49264e-08
6.93062e-05
6.57992e-08
6.94982e-05
6.51478e-08
6.96561e-05
7.06543e-08
6.9782e-05
8.03305e-08
6.98776e-05
9.25093e-08
6.99447e-05
1.05826e-07
6.99849e-05
1.19191e-07
6.99999e-05
1.31761e-07
6.99912e-05
1.42913e-07
6.99603e-05
1.52207e-07
6.99089e-05
1.59365e-07
6.98385e-05
1.64241e-07
6.97507e-05
1.66797e-07
6.96471e-05
1.67082e-07
6.95294e-05
1.65212e-07
6.93989e-05
1.61355e-07
6.92575e-05
1.55712e-07
6.91066e-05
1.48506e-07
6.89479e-05
1.39973e-07
6.87828e-05
1.3035e-07
6.86128e-05
1.19872e-07
6.84393e-05
1.08763e-07
6.82638e-05
9.72318e-08
6.80876e-05
8.54724e-08
6.79118e-05
7.36587e-08
6.77377e-05
6.19449e-08
6.75664e-05
5.04649e-08
6.73988e-05
3.93328e-08
6.72359e-05
2.86433e-08
6.70785e-05
1.84727e-08
6.69273e-05
8.88067e-09
6.67831e-05
-8.88907e-11
6.66464e-05
-8.40594e-09
6.65177e-05
-1.60528e-08
6.63973e-05
-2.30228e-08
6.62857e-05
-2.93184e-08
6.61832e-05
-3.49499e-08
6.60898e-05
-3.99342e-08
6.60057e-05
-4.42935e-08
6.5931e-05
-4.80539e-08
6.58656e-05
-5.12447e-08
6.58095e-05
-5.38973e-08
6.57626e-05
-5.60445e-08
6.57246e-05
-5.77199e-08
6.56953e-05
-5.89571e-08
6.56744e-05
-5.97893e-08
6.56615e-05
-6.02489e-08
6.56562e-05
-6.03676e-08
6.5658e-05
-6.01753e-08
6.56663e-05
-5.97012e-08
6.56806e-05
-5.89726e-08
6.57002e-05
-5.80159e-08
6.57245e-05
-5.68563e-08
6.57528e-05
-5.55179e-08
6.57844e-05
-5.40247e-08
6.58188e-05
-5.24001e-08
6.58555e-05
-5.06681e-08
6.58942e-05
-4.88534e-08
6.59351e-05
-4.69818e-08
6.59786e-05
-4.50808e-08
6.60256e-05
-4.31794e-08
6.60777e-05
-4.1308e-08
6.61372e-05
-3.94976e-08
6.62069e-05
-3.77785e-08
6.62901e-05
-3.61775e-08
6.63902e-05
-3.47151e-08
6.65103e-05
-3.34007e-08
6.66523e-05
-3.22286e-08
6.68164e-05
-3.11726e-08
6.70003e-05
-3.01831e-08
6.71988e-05
-2.91862e-08
6.74045e-05
-2.80881e-08
6.76082e-05
-2.67876e-08
6.78009e-05
-2.51999e-08
6.79748e-05
-2.3298e-08
6.81242e-05
-2.1178e-08
6.82066e-05
-1.91437e-08
6.82094e-05
-1.76311e-08
-1.66412e-08
5.10741e-05
-1.59849e-12
5.24338e-05
-4.09185e-12
5.39723e-05
-6.42133e-12
5.56015e-05
-8.64026e-12
5.72385e-05
-1.07609e-11
5.88219e-05
-1.26446e-11
6.03101e-05
-1.43002e-11
6.16792e-05
-1.56711e-11
6.29195e-05
-1.67547e-11
6.40311e-05
-1.75702e-11
6.50204e-05
-1.81034e-11
6.58972e-05
-1.82983e-11
6.66723e-05
-1.82596e-11
6.73568e-05
-1.80421e-11
6.7961e-05
-1.76498e-11
6.84939e-05
-1.71682e-11
6.89635e-05
-1.66018e-11
6.93766e-05
-1.58927e-11
6.97388e-05
-1.50394e-11
7.00549e-05
-1.40471e-11
7.03291e-05
-1.28887e-11
7.05646e-05
-1.15304e-11
7.07643e-05
-9.92023e-12
7.09308e-05
-7.97695e-12
7.10661e-05
-5.61287e-12
7.11721e-05
-2.74473e-12
7.12504e-05
7.17175e-13
7.13026e-05
4.87281e-12
7.13302e-05
9.83235e-12
7.13344e-05
1.57218e-11
7.13167e-05
2.2679e-11
7.12783e-05
3.08354e-11
7.12207e-05
4.03076e-11
7.11452e-05
5.12036e-11
7.10533e-05
6.36251e-11
7.09464e-05
7.76551e-11
7.08259e-05
9.33476e-11
7.06933e-05
1.10731e-10
7.05502e-05
1.29813e-10
7.0398e-05
1.5058e-10
7.02383e-05
1.72985e-10
7.00726e-05
1.96946e-10
6.99023e-05
2.22349e-10
6.97287e-05
2.49053e-10
6.95534e-05
2.76881e-10
6.93776e-05
3.05612e-10
6.92025e-05
3.34985e-10
6.90294e-05
3.64709e-10
6.88592e-05
3.94459e-10
6.8693e-05
4.23884e-10
6.85318e-05
4.52597e-10
6.83763e-05
4.80185e-10
6.82274e-05
5.06223e-10
6.80855e-05
5.30286e-10
6.79515e-05
5.51955e-10
6.78256e-05
5.70821e-10
6.77083e-05
5.86491e-10
6.76e-05
5.98612e-10
6.75008e-05
6.06898e-10
6.7411e-05
6.11148e-10
6.73307e-05
6.11252e-10
6.72598e-05
6.07184e-10
6.71983e-05
5.98993e-10
6.71461e-05
5.86811e-10
6.71031e-05
5.70862e-10
6.7069e-05
5.5147e-10
6.70436e-05
5.29059e-10
6.70263e-05
5.04137e-10
6.7017e-05
4.77283e-10
6.70149e-05
4.49124e-10
6.70197e-05
4.20311e-10
6.70306e-05
3.91507e-10
6.70472e-05
3.63358e-10
6.70686e-05
3.36471e-10
6.70942e-05
3.11397e-10
6.71234e-05
2.88611e-10
6.71554e-05
2.68501e-10
6.719e-05
2.51357e-10
6.72267e-05
2.37366e-10
6.72657e-05
2.26617e-10
6.73074e-05
2.19105e-10
6.73528e-05
2.14724e-10
6.74035e-05
2.13266e-10
6.74619e-05
2.1442e-10
6.75307e-05
2.17768e-10
6.76135e-05
2.228e-10
6.77139e-05
2.28929e-10
6.78351e-05
2.35506e-10
6.79791e-05
2.41841e-10
6.81462e-05
2.47226e-10
6.8334e-05
2.50955e-10
6.85372e-05
2.52358e-10
6.87479e-05
2.50837e-10
6.89567e-05
2.45924e-10
6.9154e-05
2.37395e-10
6.93319e-05
2.25441e-10
6.94846e-05
2.10946e-10
6.95703e-05
1.9588e-10
6.95756e-05
1.83436e-10
1.77768e-10
5.10741e-05
-4.48908e-07
5.24338e-05
-1.09041e-06
5.39723e-05
-1.56773e-06
5.56015e-05
-1.89222e-06
5.72385e-05
-2.06495e-06
5.88219e-05
-2.10203e-06
6.03101e-05
-2.02947e-06
6.16792e-05
-1.87735e-06
6.29195e-05
-1.67499e-06
6.40311e-05
-1.44792e-06
6.50204e-05
-1.21637e-06
6.58972e-05
-9.95022e-07
6.66723e-05
-7.93541e-07
6.73568e-05
-6.17393e-07
6.7961e-05
-4.6883e-07
6.84939e-05
-3.47789e-07
6.89635e-05
-2.52661e-07
6.93766e-05
-1.80897e-07
6.97388e-05
-1.29469e-07
7.00549e-05
-9.51948e-08
7.0329e-05
-7.49521e-08
7.05645e-05
-6.58223e-08
7.07643e-05
-6.51677e-08
7.09308e-05
-7.06704e-08
7.10661e-05
-8.0342e-08
7.1172e-05
-9.25152e-08
7.12504e-05
-1.05825e-07
7.13026e-05
-1.19181e-07
7.13301e-05
-1.31743e-07
7.13343e-05
-1.42882e-07
7.13166e-05
-1.52163e-07
7.12783e-05
-1.59304e-07
7.12207e-05
-1.64161e-07
7.11452e-05
-1.66695e-07
7.10533e-05
-1.66956e-07
7.09463e-05
-1.65059e-07
7.08258e-05
-1.61171e-07
7.06933e-05
-1.55493e-07
7.05502e-05
-1.48249e-07
7.0398e-05
-1.39674e-07
7.02383e-05
-1.30007e-07
7.00726e-05
-1.19482e-07
6.99023e-05
-1.08322e-07
6.97288e-05
-9.67385e-08
6.95535e-05
-8.49241e-08
6.93777e-05
-7.30536e-08
6.92026e-05
-6.12818e-08
6.90295e-05
-4.97431e-08
6.88593e-05
-3.85523e-08
6.86932e-05
-2.78047e-08
6.85319e-05
-1.75776e-08
6.83765e-05
-7.93133e-09
6.82275e-05
1.08937e-09
6.80857e-05
9.4536e-09
6.79516e-05
1.71429e-08
6.78257e-05
2.41497e-08
6.77084e-05
3.04757e-08
6.76001e-05
3.61306e-08
6.75009e-05
4.11308e-08
6.74111e-05
4.54979e-08
6.73307e-05
4.92579e-08
6.72597e-05
5.24401e-08
6.71982e-05
5.5076e-08
6.7146e-05
5.71987e-08
6.71029e-05
5.88421e-08
6.70688e-05
6.00406e-08
6.70432e-05
6.08282e-08
6.70259e-05
6.12385e-08
6.70164e-05
6.1304e-08
6.70143e-05
6.10562e-08
6.7019e-05
6.05253e-08
6.70299e-05
5.97401e-08
6.70463e-05
5.87282e-08
6.70676e-05
5.75159e-08
6.70932e-05
5.61286e-08
6.71222e-05
5.45911e-08
6.71542e-05
5.29276e-08
6.71886e-05
5.11626e-08
6.72253e-05
4.93212e-08
6.72642e-05
4.74295e-08
6.73058e-05
4.55148e-08
6.73511e-05
4.36058e-08
6.74017e-05
4.17328e-08
6.74599e-05
3.99259e-08
6.75287e-05
3.82146e-08
6.76114e-05
3.66248e-08
6.77117e-05
3.51756e-08
6.78328e-05
3.38754e-08
6.79767e-05
3.27169e-08
6.81437e-05
3.16726e-08
6.83314e-05
3.06914e-08
6.85345e-05
2.9698e-08
6.87452e-05
2.85977e-08
6.89539e-05
2.7288e-08
6.91512e-05
2.56837e-08
6.9329e-05
2.3758e-08
6.94817e-05
2.16089e-08
6.95674e-05
1.95439e-08
6.95726e-05
1.80054e-08
1.7003e-08
5.10534e-05
-8.91057e-07
5.2378e-05
-2.14925e-06
5.386e-05
-3.06901e-06
5.54084e-05
-3.67772e-06
5.69426e-05
-3.98462e-06
5.84076e-05
-4.02856e-06
5.97705e-05
-3.86557e-06
6.1016e-05
-3.55665e-06
6.21412e-05
-3.1589e-06
6.31506e-05
-2.72044e-06
6.40531e-05
-2.27848e-06
6.48586e-05
-1.85944e-06
6.55774e-05
-1.48029e-06
6.62185e-05
-1.15036e-06
6.679e-05
-8.73157e-07
6.72989e-05
-6.48072e-07
6.77509e-05
-4.71764e-07
6.8151e-05
-3.39257e-07
6.85032e-05
-2.44756e-07
6.88112e-05
-1.82225e-07
6.90779e-05
-1.45775e-07
6.93061e-05
-1.29919e-07
6.94981e-05
-1.29705e-07
6.9656e-05
-1.4079e-07
6.97819e-05
-1.59456e-07
6.98775e-05
-1.8259e-07
6.99446e-05
-2.07649e-07
6.99848e-05
-2.32611e-07
6.99997e-05
-2.5592e-07
6.9991e-05
-2.76427e-07
6.99601e-05
-2.93334e-07
6.99087e-05
-3.06143e-07
6.98383e-05
-3.14603e-07
6.97505e-05
-3.18666e-07
6.9647e-05
-3.18443e-07
6.95292e-05
-3.1417e-07
6.93988e-05
-3.06174e-07
6.92574e-05
-2.94845e-07
6.91066e-05
-2.80611e-07
6.89478e-05
-2.63922e-07
6.87827e-05
-2.45228e-07
6.86128e-05
-2.24973e-07
6.84394e-05
-2.03578e-07
6.82639e-05
-1.81437e-07
6.80877e-05
-1.58912e-07
6.7912e-05
-1.36329e-07
6.77379e-05
-1.13976e-07
6.75666e-05
-9.21005e-08
6.73991e-05
-7.0916e-08
6.72362e-05
-5.05976e-08
6.70788e-05
-3.12868e-08
6.69277e-05
-1.30934e-08
6.67835e-05
3.90181e-09
6.66468e-05
1.96441e-08
6.6518e-05
3.41017e-08
6.63977e-05
4.72631e-08
6.6286e-05
5.9134e-08
6.61834e-05
6.97349e-08
6.60899e-05
7.90984e-08
6.60058e-05
8.72671e-08
6.59309e-05
9.4291e-08
6.58654e-05
1.00226e-07
6.58092e-05
1.05133e-07
6.57621e-05
1.09075e-07
6.57239e-05
1.12116e-07
6.56945e-05
1.1432e-07
6.56733e-05
1.15753e-07
6.56602e-05
1.16477e-07
6.56547e-05
1.16552e-07
6.56562e-05
1.16039e-07
6.56643e-05
1.14994e-07
6.56783e-05
1.1347e-07
6.56977e-05
1.11518e-07
6.57217e-05
1.09189e-07
6.57497e-05
1.0653e-07
6.5781e-05
1.03587e-07
6.58151e-05
1.00406e-07
6.58515e-05
9.70324e-08
6.589e-05
9.35151e-08
6.59306e-05
8.99031e-08
6.59737e-05
8.62488e-08
6.60205e-05
8.26074e-08
6.60723e-05
7.90363e-08
6.61315e-05
7.55936e-08
6.62009e-05
7.23355e-08
6.62838e-05
6.93113e-08
6.63837e-05
6.65571e-08
6.65035e-05
6.4088e-08
6.66452e-05
6.18891e-08
6.68091e-05
5.99068e-08
6.69927e-05
5.80423e-08
6.71911e-05
5.61513e-08
6.73965e-05
5.40527e-08
6.76001e-05
5.15523e-08
6.77926e-05
4.84901e-08
6.79664e-05
4.48223e-08
6.81157e-05
4.07492e-08
6.81981e-05
3.68755e-08
6.82007e-05
3.4042e-08
3.2189e-08
5.10016e-05
-1.317e-06
5.22394e-05
-3.13812e-06
5.35887e-05
-4.42767e-06
5.49567e-05
-5.2403e-06
5.62712e-05
-5.60855e-06