/*--------------------------------*- C++ -*----------------------------------*\
| =========                 |                                                 |
| \\      /  F ield         | OpenFOAM: The Open Source CFD Toolbox           |
|  \\    /   O peration     | Version:  2212                                  |
|   \\  /    A nd           | Website:  www.openfoam.com                      |
|    \\/     M anipulation  |                                                 |
\*---------------------------------------------------------------------------*/
FoamFile
{
    version     2.0;
    format      ascii;
    arch        "LSB;label=32;scalar=64";
    class       volVectorField;
    location    "100";
    object      U;
}
// * * * * * * * * * * * * * * * * * * * * * * * * * * * * * * * * * * * * * //

dimensions      [0 1 -1 0 0 0 0];

internalField   nonuniform List<vector> 
2000
(
(0.605879 0.0137841 0)
(0.342521 0.0250854 0)
(0.257921 0.026689 0)
(0.221874 0.0255968 0)
(0.202307 0.0235442 0)
(0.189715 0.0210908 0)
(0.180797 0.0184949 0)
(0.174205 0.0159128 0)
(0.169288 0.0134486 0)
(0.165665 0.0111722 0)
(0.163069 0.00912791 0)
(0.16129 0.00734017 0)
(0.160145 0.00581746 0)
(0.159474 0.00455558 0)
(0.159137 0.00354065 0)
(0.159012 0.00275174 0)
(0.158999 0.00216341 0)
(0.159017 0.00174776 0)
(0.159002 0.00147627 0)
(0.15891 0.0013212 0)
(0.15871 0.00125661 0)
(0.158386 0.00125906 0)
(0.15793 0.00130802 0)
(0.157345 0.00138602 0)
(0.156637 0.00147864 0)
(0.15582 0.00157433 0)
(0.154907 0.00166419 0)
(0.153917 0.00174165 0)
(0.152867 0.0018022 0)
(0.151773 0.00184299 0)
(0.150652 0.00186263 0)
(0.149519 0.00186081 0)
(0.148389 0.00183812 0)
(0.147273 0.00179582 0)
(0.146182 0.0017356 0)
(0.145126 0.00165948 0)
(0.144111 0.00156969 0)
(0.143145 0.00146849 0)
(0.142232 0.00135816 0)
(0.141374 0.00124091 0)
(0.140576 0.00111883 0)
(0.139838 0.000993859 0)
(0.13916 0.000867768 0)
(0.138544 0.000742143 0)
(0.137988 0.000618378 0)
(0.137491 0.00049768 0)
(0.137051 0.000381071 0)
(0.136668 0.000269396 0)
(0.136338 0.000163335 0)
(0.136059 6.34137e-05 0)
(0.135829 -2.99808e-05 0)
(0.135646 -0.000116587 0)
(0.135506 -0.000196258 0)
(0.135408 -0.000268941 0)
(0.135348 -0.000334673 0)
(0.135325 -0.000393561 0)
(0.135335 -0.000445773 0)
(0.135376 -0.000491525 0)
(0.135447 -0.000531076 0)
(0.135544 -0.000564713 0)
(0.135665 -0.000592744 0)
(0.135809 -0.000615495 0)
(0.135973 -0.000633298 0)
(0.136156 -0.000646488 0)
(0.136354 -0.000655399 0)
(0.136567 -0.00066036 0)
(0.136793 -0.000661689 0)
(0.13703 -0.000659696 0)
(0.137275 -0.000654676 0)
(0.137528 -0.000646913 0)
(0.137787 -0.000636675 0)
(0.138051 -0.000624223 0)
(0.138316 -0.000609806 0)
(0.138583 -0.000593665 0)
(0.138849 -0.000576039 0)
(0.139114 -0.00055717 0)
(0.139376 -0.000537305 0)
(0.139635 -0.000516702 0)
(0.13989 -0.000495636 0)
(0.140142 -0.000474402 0)
(0.140391 -0.000453312 0)
(0.140638 -0.000432696 0)
(0.140887 -0.000412887 0)
(0.14114 -0.000394205 0)
(0.141401 -0.000376935 0)
(0.141675 -0.000361286 0)
(0.141965 -0.00034736 0)
(0.142275 -0.000335104 0)
(0.142607 -0.000324281 0)
(0.142963 -0.00031446 0)
(0.143339 -0.000305032 0)
(0.143731 -0.000295295 0)
(0.144131 -0.000284597 0)
(0.144532 -0.000272539 0)
(0.144921 -0.000259113 0)
(0.145283 -0.000244373 0)
(0.14558 -0.000226585 0)
(0.145687 -0.000197115 0)
(0.144763 -0.000132728 0)
(0.14441 -0.000123801 0)
(0.89484 0.0353665 0)
(0.718894 0.0680794 0)
(0.613767 0.07629 0)
(0.550744 0.0750399 0)
(0.510691 0.0697082 0)
(0.483584 0.06264 0)
(0.464363 0.0549536 0)
(0.450416 0.047251 0)
(0.440296 0.03989 0)
(0.43311 0.0330927 0)
(0.428233 0.0269939 0)
(0.425174 0.0216647 0)
(0.423517 0.0171281 0)
(0.4229 0.0133696 0)
(0.423006 0.0103464 0)
(0.423561 0.00799527 0)
(0.424335 0.00624017 0)
(0.425142 0.00499822 0)
(0.425836 0.00418493 0)
(0.426312 0.00371827 0)
(0.426497 0.00352158 0)
(0.426348 0.00352562 0)
(0.425847 0.00366967 0)
(0.424996 0.00390199 0)
(0.42381 0.00417974 0)
(0.422316 0.00446858 0)
(0.420551 0.00474189 0)
(0.418554 0.00497996 0)
(0.416365 0.0051691 0)
(0.414027 0.00530064 0)
(0.41158 0.00537011 0)
(0.409063 0.00537642 0)
(0.406511 0.00532106 0)
(0.403955 0.00520754 0)
(0.401423 0.00504077 0)
(0.398941 0.00482662 0)
(0.396529 0.00457151 0)
(0.394204 0.00428215 0)
(0.39198 0.00396522 0)
(0.389869 0.00362724 0)
(0.387878 0.00327438 0)
(0.386014 0.00291238 0)
(0.384282 0.0025465 0)
(0.382682 0.00218145 0)
(0.381215 0.00182136 0)
(0.379881 0.00146985 0)
(0.378678 0.00112995 0)
(0.377603 0.000804184 0)
(0.376652 0.000494599 0)
(0.375822 0.000202771 0)
(0.375108 -7.01298e-05 0)
(0.374506 -0.00032331 0)
(0.374009 -0.000556308 0)
(0.373614 -0.000768956 0)
(0.373314 -0.000961337 0)
(0.373105 -0.00113375 0)
(0.372982 -0.00128668 0)
(0.372939 -0.00142074 0)
(0.372972 -0.00153669 0)
(0.373074 -0.00163536 0)
(0.373242 -0.00171765 0)
(0.373471 -0.00178451 0)
(0.373756 -0.00183691 0)
(0.374092 -0.00187582 0)
(0.374476 -0.00190224 0)
(0.374902 -0.00191711 0)
(0.375366 -0.00192137 0)
(0.375864 -0.00191594 0)
(0.376392 -0.00190166 0)
(0.376945 -0.00187938 0)
(0.377519 -0.00184987 0)
(0.37811 -0.00181391 0)
(0.378714 -0.00177221 0)
(0.379326 -0.00172548 0)
(0.379944 -0.00167441 0)
(0.380562 -0.00161969 0)
(0.38118 -0.00156204 0)
(0.381793 -0.0015022 0)
(0.382402 -0.00144095 0)
(0.383008 -0.00137914 0)
(0.383611 -0.00131765 0)
(0.384217 -0.00125743 0)
(0.384832 -0.00119944 0)
(0.385466 -0.00114461 0)
(0.386129 -0.00109377 0)
(0.386833 -0.00104756 0)
(0.38759 -0.00100631 0)
(0.388412 -0.000969918 0)
(0.389303 -0.000937764 0)
(0.390266 -0.000908634 0)
(0.391293 -0.000880773 0)
(0.39237 -0.000852062 0)
(0.393474 -0.000820401 0)
(0.394577 -0.00078427 0)
(0.395643 -0.000743335 0)
(0.396629 -0.000698431 0)
(0.397447 -0.000649293 0)
(0.397864 -0.000587439 0)
(0.396505 -0.000484248 0)
(0.395832 -0.00044681 0)
(0.97095 0.0449503 0)
(0.892985 0.092442 0)
(0.826711 0.111598 0)
(0.776091 0.114922 0)
(0.738335 0.109578 0)
(0.710189 0.0999044 0)
(0.689163 0.088352 0)
(0.67357 0.0763038 0)
(0.662263 0.0645642 0)
(0.654413 0.053611 0)
(0.649369 0.0437231 0)
(0.646571 0.035048 0)
(0.645525 0.0276394 0)
(0.645781 0.021483 0)
(0.646938 0.0165143 0)
(0.648645 0.0126347 0)
(0.650603 0.00972324 0)
(0.652565 0.00764794 0)
(0.65434 0.00627372 0)
(0.655781 0.00546919 0)
(0.656791 0.00511134 0)
(0.657307 0.00508872 0)
(0.657301 0.00530328 0)
(0.656771 0.0056711 0)
(0.655735 0.00612232 0)
(0.654228 0.00660052 0)
(0.652295 0.00706159 0)
(0.649988 0.00747248 0)
(0.647363 0.00780978 0)
(0.644479 0.00805826 0)
(0.64139 0.00820953 0)
(0.638152 0.00826071 0)
(0.634814 0.00821329 0)
(0.631422 0.00807208 0)
(0.62802 0.00784434 0)
(0.624642 0.00753897 0)
(0.621321 0.00716595 0)
(0.618085 0.00673574 0)
(0.614956 0.00625893 0)
(0.611953 0.00574588 0)
(0.609091 0.00520648 0)
(0.606382 0.00464999 0)
(0.603833 0.0040849 0)
(0.601452 0.00351886 0)
(0.59924 0.00295866 0)
(0.597201 0.00241018 0)
(0.595333 0.00187845 0)
(0.593636 0.00136766 0)
(0.592106 0.000881211 0)
(0.59074 0.000421778 0)
(0.589534 -8.6439e-06 0)
(0.588482 -0.000408661 0)
(0.58758 -0.000777425 0)
(0.586821 -0.00111456 0)
(0.586199 -0.00142011 0)
(0.585709 -0.00169446 0)
(0.585344 -0.00193831 0)
(0.585098 -0.00215258 0)
(0.584964 -0.00233841 0)
(0.584937 -0.00249707 0)
(0.585009 -0.00262995 0)
(0.585176 -0.00273853 0)
(0.585431 -0.00282431 0)
(0.585767 -0.00288883 0)
(0.586179 -0.00293361 0)
(0.58666 -0.00296018 0)
(0.587206 -0.00296999 0)
(0.587808 -0.00296446 0)
(0.588462 -0.00294497 0)
(0.589161 -0.00291281 0)
(0.589898 -0.00286924 0)
(0.590668 -0.00281544 0)
(0.591464 -0.00275255 0)
(0.59228 -0.00268167 0)
(0.59311 -0.0026039 0)
(0.593948 -0.00252029 0)
(0.59479 -0.00243197 0)
(0.595632 -0.00234006 0)
(0.596473 -0.00224578 0)
(0.597313 -0.0021504 0)
(0.598156 -0.0020553 0)
(0.599009 -0.00196192 0)
(0.599882 -0.00187174 0)
(0.600789 -0.00178621 0)
(0.60175 -0.00170664 0)
(0.602783 -0.00163407 0)
(0.603909 -0.00156907 0)
(0.605145 -0.00151159 0)
(0.606503 -0.00146074 0)
(0.607985 -0.0014147 0)
(0.60958 -0.00137073 0)
(0.611263 -0.00132533 0)
(0.612995 -0.00127477 0)
(0.614729 -0.00121585 0)
(0.616407 -0.00114711 0)
(0.617964 -0.00107013 0)
(0.619293 -0.00099044 0)
(0.620131 -0.0009167 0)
(0.618928 -0.000854176 0)
(0.617949 -0.000794958 0)
(0.994216 0.046904 0)
(0.970154 0.101485 0)
(0.942869 0.129568 0)
(0.91706 0.139454 0)
(0.894395 0.137257 0)
(0.875434 0.127904 0)
(0.860194 0.114794 0)
(0.848473 0.100123 0)
(0.839976 0.0852729 0)
(0.834354 0.0711014 0)
(0.83122 0.0581232 0)
(0.830162 0.0466239 0)
(0.830758 0.0367304 0)
(0.832592 0.0284569 0)
(0.835275 0.0217391 0)
(0.838453 0.0164588 0)
(0.841818 0.0124644 0)
(0.845114 0.00958647 0)
(0.848135 0.0076501 0)
(0.850729 0.00648402 0)
(0.852784 0.00592716 0)
(0.854232 0.00583297 0)
(0.85504 0.00607186 0)
(0.855203 0.00653236 0)
(0.854739 0.00712103 0)
(0.853683 0.00776176 0)
(0.852082 0.00839439 0)
(0.849994 0.00897319 0)
(0.847481 0.00946508 0)
(0.844606 0.00984778 0)
(0.841433 0.0101081 0)
(0.838025 0.0102405 0)
(0.83444 0.010245 0)
(0.830734 0.0101266 0)
(0.826956 0.00989353 0)
(0.823151 0.00955657 0)
(0.81936 0.00912802 0)
(0.815618 0.00862105 0)
(0.811955 0.00804919 0)
(0.808397 0.00742578 0)
(0.804964 0.00676372 0)
(0.801675 0.00607513 0)
(0.798543 0.00537123 0)
(0.795578 0.0046622 0)
(0.792788 0.0039571 0)
(0.79018 0.00326386 0)
(0.787755 0.00258931 0)
(0.785517 0.00193917 0)
(0.783463 0.00131814 0)
(0.781594 0.000729937 0)
(0.779907 0.000177416 0)
(0.778398 -0.00033739 0)
(0.777063 -0.000813167 0)
(0.775898 -0.00124924 0)
(0.774898 -0.00164549 0)
(0.774057 -0.00200227 0)
(0.773369 -0.00232033 0)
(0.772829 -0.00260078 0)
(0.77243 -0.00284496 0)
(0.772166 -0.00305444 0)
(0.772031 -0.00323094 0)
(0.772017 -0.0033763 0)
(0.77212 -0.00349242 0)
(0.772331 -0.00358125 0)
(0.772644 -0.0036447 0)
(0.773052 -0.00368472 0)
(0.773548 -0.00370316 0)
(0.774125 -0.00370184 0)
(0.774776 -0.00368252 0)
(0.775492 -0.00364685 0)
(0.776265 -0.00359645 0)
(0.777089 -0.00353283 0)
(0.777954 -0.00345744 0)
(0.778853 -0.0033717 0)
(0.779777 -0.00327698 0)
(0.78072 -0.00317464 0)
(0.781675 -0.00306606 0)
(0.782637 -0.00295267 0)
(0.783604 -0.00283598 0)
(0.784576 -0.00271756 0)
(0.785557 -0.00259913 0)
(0.786557 -0.00248247 0)
(0.78759 -0.00236942 0)
(0.788675 -0.00226182 0)
(0.789837 -0.00216134 0)
(0.791105 -0.00206933 0)
(0.792507 -0.00198664 0)
(0.794069 -0.0019133 0)
(0.795809 -0.00184835 0)
(0.79773 -0.0017896 0)
(0.799818 -0.0017336 0)
(0.802038 -0.0016758 0)
(0.804335 -0.001611 0)
(0.806638 -0.00153433 0)
(0.808871 -0.00144284 0)
(0.810949 -0.00133799 0)
(0.812764 -0.00122897 0)
(0.814065 -0.0011348 0)
(0.813222 -0.00107272 0)
(0.812228 -0.00101172 0)
(1.0026 0.0438473 0)
(1.00466 0.0986691 0)
(1.00334 0.131344 0)
(0.999671 0.146751 0)
(0.994512 0.148936 0)
(0.988926 0.142135 0)
(0.983801 0.129878 0)
(0.979766 0.114791 0)
(0.977194 0.0987149 0)
(0.976226 0.0828791 0)
(0.976827 0.0680706 0)
(0.97883 0.0547571 0)
(0.981988 0.0431777 0)
(0.986008 0.0334089 0)
(0.99059 0.0254137 0)
(0.995445 0.0190784 0)
(1.00032 0.0142414 0)
(1.00498 0.010715 0)
(1.00926 0.00830145 0)
(1.01301 0.00680514 0)
(1.01615 0.00604083 0)
(1.0186 0.00583905 0)
(1.02034 0.00604918 0)
(1.02137 0.00654089 0)
(1.0217 0.00720424 0)
(1.02136 0.00794889 0)
(1.02041 0.0087027 0)
(1.01889 0.00941003 0)
(1.01687 0.0100298 0)
(1.01442 0.0105336 0)
(1.01158 0.0109034 0)
(1.00843 0.0111304 0)
(1.00503 0.0112125 0)
(1.00144 0.0111536 0)
(0.9977 0.0109616 0)
(0.993869 0.0106475 0)
(0.98999 0.0102247 0)
(0.986102 0.00970748 0)
(0.98224 0.00911095 0)
(0.978435 0.00845017 0)
(0.974713 0.00773983 0)
(0.971098 0.00699391 0)
(0.967607 0.00622541 0)
(0.964258 0.00544623 0)
(0.961062 0.00466703 0)
(0.95803 0.00389723 0)
(0.95517 0.00314497 0)
(0.952487 0.00241716 0)
(0.949985 0.00171952 0)
(0.947667 0.00105664 0)
(0.945534 0.000432081 0)
(0.943585 -0.000151527 0)
(0.94182 -0.000692418 0)
(0.940236 -0.00118957 0)
(0.93883 -0.00164264 0)
(0.937599 -0.00205182 0)
(0.936539 -0.0024178 0)
(0.935646 -0.00274169 0)
(0.934915 -0.00302488 0)
(0.93434 -0.00326906 0)
(0.933915 -0.0034761 0)
(0.933636 -0.00364799 0)
(0.933496 -0.00378684 0)
(0.933488 -0.00389479 0)
(0.933605 -0.00397401 0)
(0.933841 -0.00402665 0)
(0.934188 -0.00405479 0)
(0.934637 -0.00406048 0)
(0.935182 -0.0040457 0)
(0.935813 -0.00401232 0)
(0.936521 -0.00396215 0)
(0.937298 -0.0038969 0)
(0.938132 -0.00381821 0)
(0.939016 -0.00372767 0)
(0.939939 -0.00362682 0)
(0.940892 -0.00351717 0)
(0.941868 -0.00340025 0)
(0.94286 -0.00327764 0)
(0.943864 -0.00315098 0)
(0.944881 -0.00302201 0)
(0.945916 -0.00289258 0)
(0.946978 -0.00276466 0)
(0.948086 -0.00264025 0)
(0.949264 -0.00252139 0)
(0.950544 -0.00240996 0)
(0.951963 -0.00230752 0)
(0.953558 -0.00221509 0)
(0.955364 -0.00213288 0)
(0.957406 -0.00205996 0)
(0.959691 -0.00199407 0)
(0.962201 -0.00193146 0)
(0.964892 -0.00186701 0)
(0.967692 -0.00179466 0)
(0.970507 -0.00170838 0)
(0.973236 -0.001604 0)
(0.97578 -0.00148222 0)
(0.978026 -0.00135317 0)
(0.979759 -0.00124022 0)
(0.979319 -0.00116764 0)
(0.978425 -0.00110824 0)
(1.00607 0.0379482 0)
(1.02052 0.0879453 0)
(1.03428 0.120673 0)
(1.04623 0.13883 0)
(1.05578 0.144623 0)
(1.06322 0.141088 0)
(1.06917 0.131238 0)
(1.07433 0.117635 0)
(1.07928 0.102265 0)
(1.08441 0.0865696 0)
(1.08992 0.0715349 0)
(1.09589 0.0577864 0)
(1.10223 0.0456766 0)
(1.10884 0.0353574 0)
(1.11554 0.0268381 0)
(1.12215 0.0200307 0)
(1.1285 0.0147857 0)
(1.13445 0.0109187 0)
(1.13986 0.00823032 0)
(1.14465 0.00652047 0)
(1.14875 0.00559798 0)
(1.15212 0.00528692 0)
(1.15475 0.00543015 0)
(1.15663 0.00589098 0)
(1.15779 0.00655341 0)
(1.15826 0.00732143 0)
(1.15809 0.0081177 0)
(1.15731 0.00888182 0)
(1.15599 0.00956843 0)
(1.15419 0.0101453 0)
(1.15195 0.0105913 0)
(1.14934 0.0108946 0)
(1.14642 0.0110511 0)
(1.14323 0.0110628 0)
(1.13984 0.0109363 0)
(1.13628 0.0106816 0)
(1.13261 0.0103114 0)
(1.12886 0.0098398 0)
(1.12507 0.00928184 0)
(1.12127 0.00865273 0)
(1.1175 0.00796748 0)
(1.11378 0.0072405 0)
(1.11013 0.00648531 0)
(1.10658 0.00571438 0)
(1.10314 0.00493898 0)
(1.09983 0.0041691 0)
(1.09666 0.00341348 0)
(1.09364 0.00267958 0)
(1.09079 0.00197361 0)
(1.08809 0.00130065 0)
(1.08557 0.000664686 0)
(1.08323 6.87057e-05 0)
(1.08106 -0.000485193 0)
(1.07908 -0.000995715 0)
(1.07727 -0.00146227 0)
(1.07565 -0.00188486 0)
(1.07421 -0.00226404 0)
(1.07294 -0.00260075 0)
(1.07185 -0.00289633 0)
(1.07093 -0.00315238 0)
(1.07017 -0.0033707 0)
(1.06958 -0.00355328 0)
(1.06914 -0.00370221 0)
(1.06886 -0.00381962 0)
(1.06872 -0.00390769 0)
(1.06872 -0.00396857 0)
(1.06886 -0.00400439 0)
(1.06911 -0.00401722 0)
(1.06948 -0.00400906 0)
(1.06996 -0.00398181 0)
(1.07053 -0.00393732 0)
(1.07119 -0.00387732 0)
(1.07193 -0.00380348 0)
(1.07273 -0.00371742 0)
(1.07358 -0.00362068 0)
(1.07447 -0.00351479 0)
(1.0754 -0.00340128 0)
(1.07636 -0.00328173 0)
(1.07733 -0.00315775 0)
(1.07833 -0.00303108 0)
(1.07935 -0.00290353 0)
(1.08041 -0.00277703 0)
(1.08153 -0.00265359 0)
(1.08274 -0.00253522 0)
(1.08407 -0.00242383 0)
(1.08557 -0.00232103 0)
(1.08728 -0.00222794 0)
(1.08926 -0.00214489 0)
(1.09153 -0.00207111 0)
(1.09411 -0.0020045 0)
(1.09697 -0.00194144 0)
(1.10007 -0.00187684 0)
(1.1033 -0.00180452 0)
(1.10657 -0.0017181 0)
(1.10973 -0.00161279 0)
(1.11268 -0.00148845 0)
(1.11529 -0.00135423 0)
(1.11738 -0.00123332 0)
(1.11731 -0.0011527 0)
(1.11655 -0.00109512 0)
(1.00767 0.0304895 0)
(1.02802 0.0721921 0)
(1.05002 0.101218 0)
(1.07184 0.119009 0)
(1.092 0.126546 0)
(1.10996 0.12573 0)
(1.12576 0.11879 0)
(1.13971 0.107855 0)
(1.15225 0.0947399 0)
(1.16376 0.0808583 0)
(1.17452 0.0672381 0)
(1.18473 0.0545692 0)
(1.19447 0.0432685 0)
(1.20376 0.0335429 0)
(1.21258 0.0254462 0)
(1.22086 0.0189261 0)
(1.22856 0.0138614 0)
(1.23561 0.0100912 0)
(1.24196 0.00743589 0)
(1.24758 0.00571209 0)
(1.25244 0.00474309 0)
(1.25655 0.00436524 0)
(1.2599 0.0044317 0)
(1.26251 0.00481417 0)
(1.26441 0.00540328 0)
(1.26562 0.00610797 0)
(1.26619 0.00685434 0)
(1.26617 0.00758416 0)
(1.26559 0.0082531 0)
(1.2645 0.00882901 0)
(1.26296 0.00929019 0)
(1.26101 0.00962376 0)
(1.2587 0.00982404 0)
(1.25608 0.00989125 0)
(1.2532 0.00983014 0)
(1.25009 0.00964898 0)
(1.2468 0.00935851 0)
(1.24336 0.00897116 0)
(1.23982 0.00850032 0)
(1.23621 0.0079598 0)
(1.23256 0.00736333 0)
(1.2289 0.00672419 0)
(1.22526 0.00605499 0)
(1.22165 0.00536739 0)
(1.21811 0.00467204 0)
(1.21465 0.00397842 0)
(1.21128 0.00329487 0)
(1.20803 0.00262858 0)
(1.20491 0.00198558 0)
(1.20193 0.00137082 0)
(1.1991 0.000788269 0)
(1.19643 0.000240925 0)
(1.19392 -0.000269045 0)
(1.19158 -0.000740236 0)
(1.18942 -0.00117191 0)
(1.18744 -0.00156392 0)
(1.18563 -0.00191661 0)
(1.18401 -0.00223074 0)
(1.18257 -0.00250741 0)
(1.18131 -0.00274802 0)
(1.18022 -0.00295415 0)
(1.17931 -0.00312757 0)
(1.17857 -0.00327013 0)
(1.178 -0.00338376 0)
(1.17759 -0.00347043 0)
(1.17734 -0.0035321 0)
(1.17723 -0.0035707 0)
(1.17727 -0.00358811 0)
(1.17743 -0.00358616 0)
(1.17772 -0.0035666 0)
(1.17813 -0.00353111 0)
(1.17863 -0.00348128 0)
(1.17923 -0.00341865 0)
(1.17991 -0.00334466 0)
(1.18065 -0.00326075 0)
(1.18145 -0.00316829 0)
(1.18229 -0.00306868 0)
(1.18317 -0.00296332 0)
(1.18408 -0.00285367 0)
(1.18501 -0.00274127 0)
(1.18598 -0.00262774 0)
(1.187 -0.00251481 0)
(1.18808 -0.00240426 0)
(1.18927 -0.00229791 0)
(1.1906 -0.00219748 0)
(1.19213 -0.00210449 0)
(1.19391 -0.00202 0)
(1.196 -0.00194441 0)
(1.19844 -0.00187717 0)
(1.20124 -0.00181651 0)
(1.20439 -0.00175929 0)
(1.20781 -0.00170101 0)
(1.21142 -0.00163607 0)
(1.21506 -0.00155858 0)
(1.21859 -0.0014639 0)
(1.22186 -0.00135125 0)
(1.22476 -0.00122787 0)
(1.22714 -0.00111369 0)
(1.22736 -0.00103412 0)
(1.22673 -0.000980801 0)
(1.00845 0.0221904 0)
(1.03162 0.0533326 0)
(1.05796 0.0758887 0)
(1.08559 0.0906028 0)
(1.11268 0.0977954 0)
(1.13817 0.0985206 0)
(1.16154 0.0942276 0)
(1.18268 0.0864511 0)
(1.20172 0.0765979 0)
(1.21887 0.0658343 0)
(1.23438 0.0550497 0)
(1.24847 0.0448682 0)
(1.26131 0.0356855 0)
(1.27303 0.0277146 0)
(1.28372 0.0210312 0)
(1.29344 0.0156144 0)
(1.30224 0.0113791 0)
(1.31015 0.00820257 0)
(1.3172 0.00594314 0)
(1.32342 0.00445402 0)
(1.32882 0.00359246 0)
(1.33344 0.00322553 0)
(1.33731 0.00323353 0)
(1.34046 0.0035115 0)
(1.34292 0.00396964 0)
(1.34473 0.00453291 0)
(1.34592 0.00514007 0)
(1.34653 0.00574252 0)
(1.3466 0.00630292 0)
(1.34617 0.00679381 0)
(1.34528 0.00719627 0)
(1.34396 0.00749857 0)
(1.34226 0.00769494 0)
(1.34021 0.00778451 0)
(1.33786 0.00777024 0)
(1.33523 0.00765805 0)
(1.33238 0.00745604 0)
(1.32932 0.00717379 0)
(1.3261 0.0068218 0)
(1.32276 0.00641102 0)
(1.31931 0.00595242 0)
(1.3158 0.00545673 0)
(1.31224 0.00493417 0)
(1.30868 0.00439426 0)
(1.30512 0.00384574 0)
(1.3016 0.00329643 0)
(1.29814 0.00275326 0)
(1.29475 0.00222221 0)
(1.29146 0.00170835 0)
(1.28827 0.00121587 0)
(1.28521 0.000748129 0)
(1.28229 0.000307728 0)
(1.27951 -0.000103434 0)
(1.2769 -0.000484085 0)
(1.27444 -0.000833508 0)
(1.27216 -0.00115147 0)
(1.27006 -0.00143816 0)
(1.26813 -0.0016941 0)
(1.26639 -0.00192011 0)
(1.26483 -0.00211726 0)
(1.26346 -0.00228678 0)
(1.26227 -0.00243004 0)
(1.26126 -0.00254851 0)
(1.26043 -0.00264372 0)
(1.25977 -0.00271722 0)
(1.25928 -0.00277058 0)
(1.25895 -0.00280533 0)
(1.25877 -0.00282299 0)
(1.25875 -0.00282502 0)
(1.25886 -0.00281282 0)
(1.25909 -0.00278773 0)
(1.25944 -0.00275103 0)
(1.2599 -0.00270395 0)
(1.26045 -0.00264766 0)
(1.26107 -0.00258329 0)
(1.26177 -0.00251195 0)
(1.26251 -0.00243474 0)
(1.2633 -0.00235277 0)
(1.26412 -0.0022672 0)
(1.26499 -0.00217924 0)
(1.26589 -0.00209016 0)
(1.26684 -0.00200132 0)
(1.26787 -0.00191412 0)
(1.26902 -0.00183001 0)
(1.27033 -0.00175037 0)
(1.27185 -0.00167641 0)
(1.27366 -0.00160903 0)
(1.27582 -0.00154861 0)
(1.27837 -0.00149479 0)
(1.28133 -0.00144627 0)
(1.28469 -0.00140066 0)
(1.28837 -0.00135444 0)
(1.29226 -0.00130321 0)
(1.2962 -0.00124228 0)
(1.30001 -0.00116778 0)
(1.30354 -0.00107875 0)
(1.30665 -0.000980232 0)
(1.30924 -0.000887139 0)
(1.30968 -0.000819841 0)
(1.30914 -0.0007757 0)
(1.00883 0.0134518 0)
(1.03331 0.0326372 0)
(1.06181 0.0468714 0)
(1.09259 0.0565055 0)
(1.12375 0.0615885 0)
(1.15396 0.0626208 0)
(1.18235 0.060394 0)
(1.20847 0.0558138 0)
(1.23217 0.049757 0)
(1.25348 0.0429822 0)
(1.27255 0.0360881 0)
(1.28958 0.0295079 0)
(1.30477 0.0235248 0)
(1.31833 0.0182985 0)
(1.33041 0.0138937 0)
(1.34119 0.0103072 0)
(1.35077 0.00749018 0)
(1.35927 0.00536649 0)
(1.36677 0.00384595 0)
(1.37336 0.00283386 0)
(1.37909 0.00223753 0)
(1.38403 0.00197029 0)
(1.38822 0.00195385 0)
(1.39171 0.00211945 0)
(1.39454 0.00240812 0)
(1.39674 0.00277041 0)
(1.39836 0.00316587 0)
(1.39943 0.00356224 0)
(1.39997 0.00393458 0)
(1.40002 0.0042644 0)
(1.39962 0.00453876 0)
(1.39879 0.00474947 0)
(1.39756 0.00489225 0)
(1.39598 0.00496604 0)
(1.39405 0.00497237 0)
(1.39183 0.00491473 0)
(1.38934 0.00479811 0)
(1.38662 0.00462852 0)
(1.38368 0.00441263 0)
(1.38058 0.00415744 0)
(1.37733 0.00387003 0)
(1.37398 0.00355735 0)
(1.37053 0.00322606 0)
(1.36704 0.00288237 0)
(1.36351 0.00253204 0)
(1.35999 0.00218021 0)
(1.35648 0.00183146 0)
(1.35302 0.00148977 0)
(1.34963 0.0011585 0)
(1.34632 0.000840469 0)
(1.34311 0.000537937 0)
(1.34002 0.000252664 0)
(1.33707 -1.40468e-05 0)
(1.33426 -0.00026131 0)
(1.3316 -0.000488604 0)
(1.32911 -0.00069573 0)
(1.32679 -0.000882766 0)
(1.32464 -0.00105002 0)
(1.32268 -0.001198 0)
(1.32091 -0.00132735 0)
(1.31932 -0.00143887 0)
(1.31792 -0.00153342 0)
(1.31671 -0.00161194 0)
(1.31568 -0.0016754 0)
(1.31483 -0.00172481 0)
(1.31416 -0.00176116 0)
(1.31366 -0.00178546 0)
(1.31332 -0.00179867 0)
(1.31314 -0.00180173 0)
(1.31311 -0.00179554 0)
(1.31321 -0.00178097 0)
(1.31344 -0.00175885 0)
(1.31378 -0.00172997 0)
(1.31423 -0.00169506 0)
(1.31475 -0.00165488 0)
(1.31536 -0.00161011 0)
(1.31602 -0.00156148 0)
(1.31673 -0.00150969 0)
(1.31749 -0.00145548 0)
(1.31828 -0.00139962 0)
(1.31912 -0.00134293 0)
(1.32002 -0.00128627 0)
(1.321 -0.00123055 0)
(1.32211 -0.00117668 0)
(1.32338 -0.00112556 0)
(1.32489 -0.00107799 0)
(1.32671 -0.00103455 0)
(1.3289 -0.000995537 0)
(1.33151 -0.000960751 0)
(1.33458 -0.000929407 0)
(1.33808 -0.000900013 0)
(1.34193 -0.000870361 0)
(1.34602 -0.000837653 0)
(1.35016 -0.000798872 0)
(1.35417 -0.000751495 0)
(1.35787 -0.000694742 0)
(1.36113 -0.000631525 0)
(1.36384 -0.000570961 0)
(1.36442 -0.000526067 0)
(1.36395 -0.000496716 0)
(1.00898 0.00450438 0)
(1.03398 0.0109788 0)
(1.06337 0.0158373 0)
(1.09552 0.0191827 0)
(1.12854 0.0210087 0)
(1.161 0.0214594 0)
(1.19188 0.0207838 0)
(1.22053 0.019279 0)
(1.24664 0.0172415 0)
(1.27014 0.0149333 0)
(1.29111 0.0125651 0)
(1.30971 0.0102915 0)
(1.32617 0.00821538 0)
(1.34072 0.00639579 0)
(1.35356 0.00485808 0)
(1.36488 0.00360302 0)
(1.37487 0.00261494 0)
(1.38367 0.00186812 0)
(1.39139 0.00133164 0)
(1.39816 0.000972811 0)
(1.40404 0.000759524 0)
(1.40912 0.00066168 0)
(1.41346 0.000652059 0)
(1.41711 0.000706718 0)
(1.42012 0.000805103 0)
(1.42252 0.000929965 0)
(1.42436 0.00106716 0)
(1.42566 0.00120538 0)
(1.42645 0.00133588 0)
(1.42676 0.00145213 0)
(1.42662 0.00154953 0)
(1.42605 0.00162514 0)
(1.42508 0.00167739 0)
(1.42375 0.00170582 0)
(1.42206 0.0017109 0)
(1.42007 0.00169377 0)
(1.41779 0.0016561 0)
(1.41525 0.00159996 0)
(1.41248 0.00152761 0)
(1.40952 0.00144147 0)
(1.4064 0.00134398 0)
(1.40314 0.00123754 0)
(1.39977 0.00112445 0)
(1.39632 0.0010069 0)
(1.39283 0.000886859 0)
(1.38931 0.00076614 0)
(1.38579 0.000646334 0)
(1.38231 0.000528831 0)
(1.37887 0.000414813 0)
(1.3755 0.000305261 0)
(1.37222 0.000200972 0)
(1.36905 0.000102562 0)
(1.366 1.04912e-05 0)
(1.36309 -7.4928e-05 0)
(1.36033 -0.00015351 0)
(1.35773 -0.000225182 0)
(1.3553 -0.000289969 0)
(1.35304 -0.000347974 0)
(1.35096 -0.000399372 0)
(1.34907 -0.000444386 0)
(1.34737 -0.000483285 0)
(1.34586 -0.000516368 0)
(1.34453 -0.000543955 0)
(1.3434 -0.000566381 0)
(1.34245 -0.000583989 0)
(1.34168 -0.00059712 0)
(1.34108 -0.00060611 0)
(1.34066 -0.00061129 0)
(1.3404 -0.000612976 0)
(1.34028 -0.000611473 0)
(1.34031 -0.000607073 0)
(1.34047 -0.00060005 0)
(1.34075 -0.000590671 0)
(1.34114 -0.000579186 0)
(1.34161 -0.000565842 0)
(1.34216 -0.000550876 0)
(1.34277 -0.000534527 0)
(1.34344 -0.000517037 0)
(1.34416 -0.000498658 0)
(1.34491 -0.000479653 0)
(1.34572 -0.000460302 0)
(1.34658 -0.000440904 0)
(1.34753 -0.000421771 0)
(1.34861 -0.000403225 0)
(1.34986 -0.000385579 0)
(1.35136 -0.000369115 0)
(1.35318 -0.00035405 0)
(1.35538 -0.000340492 0)
(1.35802 -0.000328394 0)
(1.36114 -0.000317499 0)
(1.36471 -0.000307311 0)
(1.36865 -0.000297085 0)
(1.37284 -0.00028587 0)
(1.37708 -0.000272634 0)
(1.38119 -0.000256502 0)
(1.38497 -0.000237178 0)
(1.3883 -0.000215595 0)
(1.39108 -0.000194786 0)
(1.39173 -0.000179177 0)
(1.39129 -0.00016893 0)
(1.00898 -0.00450445 0)
(1.03398 -0.0109789 0)
(1.06337 -0.0158375 0)
(1.09552 -0.0191831 0)
(1.12854 -0.0210091 0)
(1.161 -0.0214599 0)
(1.19188 -0.0207843 0)
(1.22053 -0.0192796 0)
(1.24664 -0.0172422 0)
(1.27014 -0.014934 0)
(1.29111 -0.0125658 0)
(1.30971 -0.0102923 0)
(1.32617 -0.00821611 0)
(1.34072 -0.00639652 0)
(1.35356 -0.00485879 0)
(1.36488 -0.00360371 0)
(1.37487 -0.0026156 0)
(1.38367 -0.00186875 0)
(1.39139 -0.00133224 0)
(1.39816 -0.000973373 0)
(1.40404 -0.00076004 0)
(1.40912 -0.000662141 0)
(1.41346 -0.000652456 0)
(1.41711 -0.000707037 0)
(1.42012 -0.000805328 0)
(1.42252 -0.000930074 0)
(1.42436 -0.00106713 0)
(1.42566 -0.00120519 0)
(1.42645 -0.00133549 0)
(1.42676 -0.0014515 0)
(1.42662 -0.00154862 0)
(1.42605 -0.00162391 0)
(1.42508 -0.00167577 0)
(1.42374 -0.00170377 0)
(1.42206 -0.00170835 0)
(1.42007 -0.00169066 0)
(1.41779 -0.00165237 0)
(1.41525 -0.00159553 0)
(1.41248 -0.00152242 0)
(1.40952 -0.00143545 0)
(1.4064 -0.00133706 0)
(1.40314 -0.00122966 0)
(1.39977 -0.00111556 0)
(1.39632 -0.000996936 0)
(1.39283 -0.000875784 0)
(1.38931 -0.000753915 0)
(1.3858 -0.000632935 0)
(1.38231 -0.000514243 0)
(1.37887 -0.000399034 0)
(1.3755 -0.000288306 0)
(1.37222 -0.000182868 0)
(1.36905 -8.33547e-05 0)
(1.36601 9.75777e-06 0)
(1.36309 9.61394e-05 0)
(1.36033 0.000175588 0)
(1.35773 0.000248015 0)
(1.3553 0.000313428 0)
(1.35304 0.000371919 0)
(1.35096 0.000423647 0)
(1.34907 0.000468832 0)
(1.34737 0.000507735 0)
(1.34586 0.000540655 0)
(1.34453 0.000567915 0)
(1.3434 0.000589854 0)
(1.34244 0.000606824 0)
(1.34167 0.000619178 0)
(1.34108 0.000627273 0)
(1.34065 0.000631455 0)
(1.34039 0.000632067 0)
(1.34027 0.000629438 0)
(1.3403 0.000623885 0)
(1.34046 0.000615711 0)
(1.34074 0.000605205 0)
(1.34112 0.000592645 0)
(1.34159 0.000578297 0)
(1.34214 0.00056242 0)
(1.34275 0.000545267 0)
(1.34342 0.000527092 0)
(1.34413 0.000508153 0)
(1.34488 0.000488718 0)
(1.34568 0.000469066 0)
(1.34655 0.000449493 0)
(1.3475 0.000430302 0)
(1.34857 0.000411802 0)
(1.34982 0.000394289 0)
(1.35132 0.000378027 0)
(1.35313 0.000363207 0)
(1.35533 0.000349913 0)
(1.35798 0.000338067 0)
(1.36109 0.000327388 0)
(1.36466 0.000317349 0)
(1.3686 0.00030718 0)
(1.37278 0.000295904 0)
(1.37702 0.000282471 0)
(1.38113 0.000265998 0)
(1.38492 0.000246195 0)
(1.38824 0.000224033 0)
(1.39102 0.000202622 0)
(1.39167 0.000186514 0)
(1.39123 0.000176041 0)
(1.00883 -0.0134519 0)
(1.03331 -0.0326373 0)
(1.06181 -0.0468717 0)
(1.09259 -0.0565059 0)
(1.12375 -0.0615889 0)
(1.15396 -0.0626212 0)
(1.18235 -0.0603946 0)
(1.20847 -0.0558144 0)
(1.23217 -0.0497576 0)
(1.25348 -0.0429828 0)
(1.27255 -0.0360888 0)
(1.28958 -0.0295086 0)
(1.30477 -0.0235255 0)
(1.31832 -0.0182992 0)
(1.33041 -0.0138944 0)
(1.34119 -0.0103079 0)
(1.35077 -0.00749082 0)
(1.35927 -0.00536712 0)
(1.36677 -0.00384654 0)
(1.37336 -0.00283442 0)
(1.37909 -0.00223804 0)
(1.38403 -0.00197075 0)
(1.38822 -0.00195425 0)
(1.39171 -0.00211978 0)
(1.39453 -0.00240835 0)
(1.39674 -0.00277053 0)
(1.39836 -0.00316586 0)
(1.39942 -0.00356207 0)
(1.39997 -0.00393421 0)
(1.40002 -0.0042638 0)
(1.39962 -0.00453789 0)
(1.39879 -0.00474827 0)
(1.39756 -0.00489067 0)
(1.39597 -0.00496404 0)
(1.39405 -0.00496987 0)
(1.39183 -0.00491169 0)
(1.38934 -0.00479445 0)
(1.38661 -0.00462418 0)
(1.38368 -0.00440754 0)
(1.38058 -0.00415153 0)
(1.37733 -0.00386324 0)
(1.37398 -0.00354962 0)
(1.37054 -0.00321733 0)
(1.36704 -0.00287261 0)
(1.36352 -0.00252118 0)
(1.35999 -0.00216823 0)
(1.35649 -0.00181834 0)
(1.35303 -0.00147548 0)
(1.34964 -0.00114306 0)
(1.34633 -0.000823883 0)
(1.34312 -0.000520238 0)
(1.34003 -0.000233899 0)
(1.33708 3.3817e-05 0)
(1.33426 0.000282005 0)
(1.33161 0.000510128 0)
(1.32911 0.000717972 0)
(1.32679 0.000905599 0)
(1.32465 0.00107331 0)
(1.32269 0.00122158 0)
(1.32091 0.00135108 0)
(1.31932 0.00146258 0)
(1.31792 0.00155695 0)
(1.3167 0.00163513 0)
(1.31567 0.00169809 0)
(1.31482 0.00174686 0)
(1.31414 0.00178245 0)
(1.31364 0.00180586 0)
(1.3133 0.00181808 0)
(1.31311 0.00182009 0)
(1.31308 0.00181281 0)
(1.31317 0.00179713 0)
(1.3134 0.00177389 0)
(1.31374 0.00174392 0)
(1.31417 0.00170799 0)
(1.3147 0.00166685 0)
(1.31529 0.00162122 0)
(1.31595 0.00157184 0)
(1.31666 0.00151941 0)
(1.31741 0.0014647 0)
(1.31819 0.00140846 0)
(1.31903 0.00135152 0)
(1.31992 0.00129474 0)
(1.3209 0.00123901 0)
(1.32199 0.00118523 0)
(1.32327 0.00113429 0)
(1.32477 0.00108696 0)
(1.32658 0.00104382 0)
(1.32876 0.0010051 0)
(1.33137 0.000970608 0)
(1.33444 0.000939516 0)
(1.33793 0.000910306 0)
(1.34178 0.000880742 0)
(1.34586 0.000848003 0)
(1.35 0.000809049 0)
(1.354 0.000761349 0)
(1.3577 0.000704126 0)
(1.36096 0.000640322 0)
(1.36367 0.000579133 0)
(1.36425 0.000533703 0)
(1.36378 0.00050408 0)
(1.00845 -0.0221904 0)
(1.03162 -0.0533328 0)
(1.05796 -0.0758889 0)
(1.08559 -0.0906031 0)
(1.11268 -0.0977958 0)
(1.13817 -0.098521 0)
(1.16154 -0.0942281 0)
(1.18268 -0.0864516 0)
(1.20172 -0.0765984 0)
(1.21887 -0.0658349 0)
(1.23438 -0.0550503 0)
(1.24847 -0.0448688 0)
(1.26131 -0.0356861 0)
(1.27303 -0.0277152 0)
(1.28372 -0.0210319 0)
(1.29344 -0.015615 0)
(1.30224 -0.0113797 0)
(1.31015 -0.00820317 0)
(1.3172 -0.00594371 0)
(1.32341 -0.00445456 0)
(1.32882 -0.00359297 0)
(1.33344 -0.003226 0)
(1.33731 -0.00323394 0)
(1.34046 -0.00351184 0)
(1.34292 -0.0039699 0)
(1.34472 -0.00453306 0)
(1.34591 -0.00514009 0)