/*--------------------------------*- C++ -*----------------------------------*\
| =========                 |                                                 |
| \\      /  F ield         | OpenFOAM: The Open Source CFD Toolbox           |
|  \\    /   O peration     | Version:  2212                                  |
|   \\  /    A nd           | Website:  www.openfoam.com                      |
|    \\/     M anipulation  |                                                 |
\*---------------------------------------------------------------------------*/
FoamFile
{
    version     2.0;
    format      ascii;
    arch        "LSB;label=32;scalar=64";
    class       volScalarField;
    location    "40";
    object      p;
}
// * * * * * * * * * * * * * * * * * * * * * * * * * * * * * * * * * * * * * //

dimensions      [0 2 -2 0 0 0 0];

internalField   nonuniform List<scalar> 
2000
(
-516.516
-518.792
-519.996
-520.581
-520.994
-521.346
-521.665
-521.967
-522.256
-522.532
-522.795
-523.043
-523.273
-523.484
-523.672
-523.836
-523.972
-524.078
-524.151
-524.188
-524.184
-524.137
-524.041
-523.893
-523.688
-523.42
-523.085
-522.676
-522.187
-521.611
-520.94
-520.166
-519.281
-518.273
-517.132
-515.848
-514.406
-512.794
-510.997
-509
-506.788
-504.345
-501.654
-498.703
-495.475
-491.958
-488.142
-484.016
-479.576
-474.817
-469.738
-464.341
-458.631
-452.615
-446.302
-439.704
-432.832
-425.7
-418.322
-410.712
-402.883
-394.85
-386.625
-378.219
-369.644
-360.909
-352.024
-342.995
-333.83
-324.536
-315.117
-305.579
-295.925
-286.158
-276.283
-266.302
-256.218
-246.032
-235.748
-225.367
-214.891
-204.323
-193.665
-182.921
-172.094
-161.187
-150.204
-139.15
-128.029
-116.844
-105.595
-94.278
-82.8807
-71.3818
-59.7467
-47.9487
-36.0398
-23.9438
-14.179
-5.59976
-518.559
-519.419
-520.074
-520.524
-520.898
-521.229
-521.528
-521.805
-522.066
-522.313
-522.546
-522.763
-522.962
-523.142
-523.3
-523.432
-523.537
-523.61
-523.65
-523.651
-523.612
-523.526
-523.391
-523.201
-522.952
-522.638
-522.253
-521.792
-521.248
-520.614
-519.881
-519.042
-518.088
-517.008
-515.792
-514.429
-512.906
-511.21
-509.327
-507.244
-504.946
-502.417
-499.645
-496.615
-493.313
-489.73
-485.855
-481.68
-477.201
-472.413
-467.317
-461.915
-456.212
-450.213
-443.928
-437.366
-430.54
-423.461
-416.142
-408.595
-400.833
-392.868
-384.711
-376.374
-367.867
-359.197
-350.375
-341.407
-332.299
-323.058
-313.69
-304.198
-294.587
-284.861
-275.023
-265.076
-255.023
-244.866
-234.608
-224.252
-213.799
-203.253
-192.616
-181.893
-171.086
-160.201
-149.243
-138.218
-127.131
-115.988
-104.795
-93.5499
-82.2477
-70.8717
-59.385
-47.7312
-35.9821
-23.3184
-12.4221
-3.44541
-519.711
-519.929
-520.245
-520.563
-520.87
-521.155
-521.419
-521.666
-521.898
-522.117
-522.323
-522.514
-522.687
-522.842
-522.974
-523.081
-523.16
-523.208
-523.22
-523.195
-523.126
-523.011
-522.845
-522.623
-522.34
-521.99
-521.568
-521.068
-520.482
-519.803
-519.024
-518.136
-517.13
-515.996
-514.724
-513.303
-511.72
-509.962
-508.018
-505.872
-503.512
-500.923
-498.092
-495.006
-491.653
-488.023
-484.107
-479.897
-475.39
-470.582
-465.475
-460.069
-454.369
-448.383
-442.117
-435.583
-428.789
-421.748
-414.471
-406.97
-399.256
-391.341
-383.235
-374.949
-366.491
-357.871
-349.096
-340.172
-331.108
-321.908
-312.577
-303.121
-293.544
-283.848
-274.039
-264.118
-254.089
-243.954
-233.717
-223.379
-212.944
-202.414
-191.793
-181.085
-170.294
-159.425
-148.486
-137.483
-126.424
-115.319
-104.176
-93.0034
-81.8038
-70.5726
-59.2893
-47.9294
-36.541
-24.6481
-13.3025
-2.99549
-520.221
-520.241
-520.4
-520.622
-520.861
-521.097
-521.323
-521.536
-521.738
-521.93
-522.108
-522.273
-522.422
-522.551
-522.659
-522.743
-522.799
-522.823
-522.812
-522.762
-522.67
-522.53
-522.338
-522.089
-521.778
-521.399
-520.947
-520.414
-519.795
-519.081
-518.265
-517.339
-516.293
-515.118
-513.803
-512.337
-510.709
-508.905
-506.915
-504.723
-502.318
-499.686
-496.813
-493.688
-490.299
-486.637
-482.693
-478.46
-473.935
-469.116
-464.001
-458.595
-452.9
-446.924
-440.674
-434.16
-427.391
-420.378
-413.132
-405.665
-397.987
-390.11
-382.042
-373.793
-365.373
-356.79
-348.051
-339.162
-330.131
-320.963
-311.662
-302.234
-292.683
-283.013
-273.226
-263.327
-253.317
-243.201
-232.981
-222.66
-212.24
-201.724
-191.117
-180.423
-169.646
-158.792
-147.868
-136.884
-125.849
-114.775
-103.676
-92.564
-81.4529
-70.3519
-59.2624
-48.1855
-37.121
-25.2592
-12.1025
-2.101
-520.432
-520.407
-520.494
-520.653
-520.843
-521.04
-521.233
-521.418
-521.594
-521.76
-521.915
-522.056
-522.182
-522.289
-522.375
-522.436
-522.471
-522.474
-522.442
-522.371
-522.257
-522.095
-521.881
-521.61
-521.276
-520.873
-520.396
-519.837
-519.191
-518.45
-517.605
-516.649
-515.572
-514.364
-513.016
-511.517
-509.855
-508.017
-505.993
-503.768
-501.331
-498.668
-495.766
-492.614
-489.202
-485.519
-481.557
-477.311
-472.776
-467.95
-462.833
-457.428
-451.739
-445.772
-439.535
-433.036
-426.286
-419.295
-412.073
-404.631
-396.98
-389.13
-381.09
-372.87
-364.479
-355.923
-347.211
-338.35
-329.344
-320.2
-310.923
-301.518
-291.988
-282.337
-272.569
-262.688
-252.695
-242.595
-232.39
-222.082
-211.675
-201.173
-190.578
-179.896
-169.131
-158.29
-147.381
-136.413
-125.397
-114.347
-103.279
-92.2094
-81.1599
-70.1523
-59.211
-48.3619
-37.6179
-24.6272
-9.06185
-0.75204
-520.491
-520.477
-520.536
-520.66
-520.818
-520.986
-521.155
-521.319
-521.475
-521.622
-521.757
-521.88
-521.986
-522.074
-522.141
-522.184
-522.199
-522.184
-522.133
-522.044
-521.912
-521.732
-521.499
-521.209
-520.856
-520.434
-519.937
-519.358
-518.691
-517.928
-517.061
-516.081
-514.981
-513.749
-512.376
-510.852
-509.165
-507.303
-505.254
-503.006
-500.546
-497.862
-494.941
-491.773
-488.345
-484.649
-480.677
-476.423
-471.883
-467.055
-461.938
-456.536
-450.852
-444.893
-438.666
-432.179
-425.443
-418.468
-411.263
-403.84
-396.208
-388.378
-380.359
-372.16
-363.79
-355.256
-346.564
-337.723
-328.737
-319.612
-310.353
-300.965
-291.452
-281.817
-272.064
-262.197
-252.218
-242.131
-231.938
-221.642
-211.246
-200.755
-190.17
-179.498
-168.744
-157.913
-147.014
-136.057
-125.054
-114.018
-102.968
-91.9224
-80.9082
-69.958
-59.1145
-48.422
-37.9187
-22.8922
-4.63121
1.03007
-520.473
-520.489
-520.544
-520.651
-520.789
-520.938
-521.09
-521.238
-521.379
-521.511
-521.633
-521.741
-521.832
-521.905
-521.957
-521.985
-521.985
-521.954
-521.888
-521.784
-521.637
-521.442
-521.194
-520.889
-520.521
-520.084
-519.572
-518.977
-518.294
-517.515
-516.631
-515.635
-514.517
-513.268
-511.878
-510.336
-508.632
-506.753
-504.688
-502.425
-499.951
-497.254
-494.322
-491.143
-487.707
-484.004
-480.027
-475.769
-471.227
-466.399
-461.284
-455.885
-450.205
-444.252
-438.032
-431.555
-424.829
-417.864
-410.672
-403.261
-395.644
-387.828
-379.824
-371.64
-363.285
-354.766
-346.089
-337.263
-328.291
-319.18
-309.935
-300.561
-291.06
-281.437
-271.696
-261.84
-251.872
-241.795
-231.611
-221.325
-210.938
-200.454
-189.877
-179.212
-168.464
-157.639
-146.745
-135.792
-124.793
-113.762
-102.718
-91.6844
-80.6901
-69.7759
-58.9927
-48.387
-37.995
-20.5429
0.33528
2.97523
-520.426
-520.474
-520.534
-520.634
-520.76
-520.898
-521.037
-521.174
-521.305
-521.428
-521.539
-521.637
-521.718
-521.78
-521.821
-521.837
-521.826
-521.783
-521.706
-521.59
-521.431
-521.225
-520.966
-520.65
-520.271
-519.823
-519.299
-518.694
-517.999
-517.209
-516.314
-515.306
-514.176
-512.916
-511.514
-509.961
-508.246
-506.357
-504.282
-502.01
-499.527
-496.823
-493.884
-490.7
-487.259
-483.554
-479.575
-475.316
-470.774
-465.946
-460.833
-455.437
-449.761
-443.812
-437.597
-431.126
-424.406
-417.449
-410.265
-402.863
-395.255
-387.449
-379.455
-371.281
-362.936
-354.428
-345.762
-336.946
-327.984
-318.884
-309.649
-300.283
-290.792
-281.178
-271.446
-261.598
-251.637
-241.567
-231.391
-221.11
-210.729
-200.251
-189.678
-179.016
-168.27
-157.445
-146.551
-135.597
-124.595
-113.563
-102.52
-91.4934
-80.5161
-69.6313
-58.8867
-48.3144
-37.9254
-18.1919
4.89333
4.73399
-520.381
-520.452
-520.519
-520.617
-520.737
-520.868
-521
-521.13
-521.255
-521.371
-521.476
-521.568
-521.642
-521.698
-521.731
-521.74
-521.721
-521.671
-521.586
-521.462
-521.295
-521.081
-520.815
-520.491
-520.104
-519.649
-519.118
-518.505
-517.804
-517.006
-516.104
-515.089
-513.952
-512.685
-511.277
-509.717
-507.996
-506.101
-504.02
-501.743
-499.256
-496.548
-493.606
-490.42
-486.978
-483.271
-479.292
-475.033
-470.492
-465.665
-460.553
-455.159
-449.485
-443.539
-437.328
-430.859
-424.144
-417.191
-410.012
-402.616
-395.013
-387.213
-379.225
-371.058
-362.72
-354.218
-345.559
-336.749
-327.794
-318.7
-309.471
-300.112
-290.627
-281.019
-271.292
-261.449
-251.494
-241.429
-231.256
-220.98
-210.602
-200.126
-189.555
-178.894
-168.146
-157.32
-146.422
-135.463
-124.457
-113.421
-102.379
-91.3593
-80.3991
-69.5394
-58.8185
-48.2486
-37.8106
-16.3451
8.31437
6.04135
-520.354
-520.438
-520.51
-520.607
-520.725
-520.852
-520.981
-521.107
-521.229
-521.342
-521.444
-521.533
-521.604
-521.656
-521.687
-521.692
-521.669
-521.615
-521.526
-521.398
-521.227
-521.009
-520.739
-520.412
-520.021
-519.562
-519.028
-518.412
-517.707
-516.905
-516
-514.981
-513.842
-512.571
-511.16
-509.597
-507.873
-505.975
-503.892
-501.613
-499.125
-496.415
-493.472
-490.285
-486.842
-483.135
-479.156
-474.898
-470.357
-465.531
-460.42
-455.026
-449.354
-443.409
-437.199
-430.732
-424.019
-417.068
-409.891
-402.498
-394.897
-387.1
-379.115
-370.951
-362.616
-354.117
-345.462
-336.655
-327.704
-318.613
-309.387
-300.031
-290.548
-280.943
-271.219
-261.379
-251.426
-241.363
-231.193
-220.918
-210.542
-200.067
-189.496
-178.834
-168.086
-157.257
-146.356
-135.393
-124.383
-113.345
-102.304
-91.2904
-80.3418
-69.4972
-58.7873
-48.2109
-37.7307
-15.3383
10.1362
6.7336
-520.354
-520.438
-520.51
-520.607
-520.725
-520.852
-520.981
-521.107
-521.229
-521.342
-521.444
-521.533
-521.604
-521.656
-521.686
-521.692
-521.669
-521.615
-521.526
-521.398
-521.227
-521.009
-520.739
-520.412
-520.021
-519.562
-519.028
-518.412
-517.707
-516.905
-516
-514.981
-513.842
-512.571
-511.16
-509.597
-507.873
-505.975
-503.892
-501.613
-499.125
-496.415
-493.472
-490.285
-486.842
-483.135
-479.156
-474.898
-470.357
-465.531
-460.42
-455.026
-449.354
-443.409
-437.199
-430.732
-424.019
-417.068
-409.891
-402.497
-394.897
-387.1
-379.115
-370.951
-362.616
-354.117
-345.461
-336.655
-327.704
-318.613
-309.387
-300.031
-290.548
-280.943
-271.219
-261.379
-251.426
-241.363
-231.193
-220.918
-210.541
-200.066
-189.496
-178.834
-168.085
-157.256
-146.355
-135.392
-124.382
-113.344
-102.303
-91.2894
-80.3408
-69.4961
-58.7862
-48.2099
-37.7298
-15.3367
10.1382
6.73433
-520.381
-520.452
-520.519
-520.617
-520.737
-520.867
-521
-521.13
-521.254
-521.371
-521.476
-521.567
-521.642
-521.698
-521.731
-521.74
-521.721
-521.67
-521.585
-521.462
-521.295
-521.081
-520.815
-520.491
-520.104
-519.649
-519.118
-518.505
-517.804
-517.006
-516.104
-515.089
-513.952
-512.685
-511.277
-509.717
-507.996
-506.101
-504.02
-501.743
-499.256
-496.548
-493.606
-490.42
-486.978
-483.271
-479.292
-475.033
-470.492
-465.665
-460.553
-455.159
-449.485
-443.539
-437.327
-430.859
-424.144
-417.191
-410.012
-402.616
-395.013
-387.213
-379.225
-371.058
-362.719
-354.217
-345.558
-336.749
-327.794
-318.7
-309.471
-300.112
-290.626
-281.018
-271.291
-261.448
-251.493
-241.428
-231.255
-220.979
-210.601
-200.125
-189.554
-178.892
-168.145
-157.318
-146.42
-135.46
-124.454
-113.418
-102.376
-91.3562
-80.396
-69.5363
-58.8154
-48.2455
-37.8078
-16.3404
8.31997
6.04335
-520.426
-520.474
-520.534
-520.634
-520.76
-520.897
-521.037
-521.174
-521.305
-521.427
-521.539
-521.636
-521.718
-521.78
-521.821
-521.837
-521.825
-521.783
-521.706
-521.59
-521.431
-521.225
-520.966
-520.65
-520.27
-519.822
-519.299
-518.693
-517.999
-517.208
-516.313
-515.306
-514.176
-512.916
-511.514
-509.961
-508.246
-506.357
-504.282
-502.01
-499.527
-496.823
-493.884
-490.7
-487.259
-483.554
-479.575
-475.316
-470.774
-465.946
-460.833
-455.437
-449.761
-443.812
-437.597
-431.125
-424.406
-417.449
-410.265
-402.863
-395.254
-387.448
-379.454
-371.281
-362.936
-354.427
-345.761
-336.945
-327.984
-318.883
-309.648
-300.282
-290.791
-281.177
-271.445
-261.596
-251.636
-241.566
-231.389
-221.109
-210.727
-200.248
-189.676
-179.014
-168.267
-157.442
-146.548
-135.593
-124.591
-113.559
-102.516
-91.4884
-80.5109
-69.6261
-58.8815
-48.3095
-37.9207
-18.1846
4.90192
4.73704
-520.473
-520.489
-520.544
-520.651
-520.788
-520.938
-521.09
-521.237
-521.379
-521.511
-521.632
-521.74
-521.832
-521.905
-521.957
-521.984
-521.984
-521.953
-521.888
-521.783
-521.636
-521.441
-521.194
-520.889
-520.521
-520.084
-519.571
-518.977
-518.294
-517.515
-516.631
-515.635
-514.517
-513.268
-511.878
-510.336
-508.632
-506.754
-504.689
-502.425
-499.951
-497.254
-494.322
-491.143
-487.707
-484.004
-480.027
-475.769
-471.227
-466.399
-461.284
-455.884
-450.205
-444.252
-438.032
-431.554
-424.828
-417.864
-410.671
-403.261
-395.643
-387.828
-379.823
-371.64
-363.284
-354.765
-346.089
-337.262
-328.29
-319.18
-309.934
-300.559
-291.059
-281.436
-271.695
-261.839
-251.87
-241.793
-231.609
-221.322
-210.935
-200.451
-189.874
-179.208
-168.46
-157.634
-146.74
-135.787
-124.788
-113.756
-102.712
-91.6776
-80.683
-69.7688
-58.9856
-48.38
-37.9884
-20.5336
0.345911
2.97905
-520.49
-520.476
-520.536
-520.66
-520.817
-520.986
-521.155
-521.318
-521.474
-521.621
-521.757
-521.879
-521.985
-522.073
-522.14
-522.183
-522.198
-522.183
-522.132
-522.043
-521.911
-521.731
-521.499
-521.209
-520.855
-520.434
-519.937
-519.358
-518.691
-517.928
-517.061
-516.081
-514.981
-513.749
-512.376
-510.852
-509.165
-507.303
-505.254
-503.006
-500.547
-497.862
-494.942
-491.773
-488.345
-484.649
-480.677
-476.423
-471.883
-467.054
-461.938
-456.536
-450.852
-444.893
-438.665
-432.179
-425.443
-418.467
-411.263
-403.839
-396.208
-388.378
-380.359
-372.16
-363.789
-355.255
-346.564
-337.722
-328.736
-319.611
-310.352
-300.964
-291.45
-281.815
-272.063
-262.195
-252.216
-242.129
-231.935
-221.639
-211.243
-200.751
-190.166
-179.494
-168.739
-157.908
-147.009
-136.051
-125.047
-114.011
-102.96
-91.9142
-80.8996
-69.9492
-59.1055
-48.4133
-37.9105
-22.8818
-4.61988
1.03428
-520.431
-520.406
-520.493
-520.653
-520.843
-521.039
-521.232
-521.417
-521.593
-521.76
-521.914
-522.056
-522.181
-522.288
-522.374
-522.436
-522.47
-522.473
-522.441
-522.37
-522.256
-522.094
-521.88
-521.609
-521.275
-520.872
-520.395
-519.837
-519.191
-518.449
-517.605
-516.649
-515.572
-514.364
-513.016
-511.517
-509.855
-508.018
-505.993
-503.769
-501.331
-498.668
-495.766
-492.615
-489.202
-485.519
-481.557
-477.311
-472.776
-467.95
-462.833
-457.428
-451.739
-445.772
-439.535
-433.036
-426.286
-419.295
-412.073
-404.631
-396.98
-389.129
-381.09
-372.87
-364.478
-355.923
-347.211
-338.349
-329.343
-320.199
-310.922
-301.516
-291.986
-282.336
-272.568
-262.686
-252.693
-242.592
-232.387
-222.079
-211.672
-201.169
-190.574
-179.891
-169.126
-158.285
-147.375
-136.406
-125.39
-114.339
-103.27
-92.2
-81.15
-70.1421
-59.2007
-48.3518
-37.6084
-24.6167
-9.05106
-0.747769
-520.221
-520.241
-520.399
-520.621
-520.861
-521.097
-521.322
-521.536
-521.738
-521.929
-522.108
-522.272
-522.421
-522.551
-522.659
-522.742
-522.798
-522.822
-522.811
-522.761
-522.669
-522.529
-522.337
-522.088
-521.777
-521.398
-520.946
-520.414
-519.794
-519.081
-518.265
-517.339
-516.293
-515.118
-513.803
-512.337
-510.709
-508.906
-506.915
-504.724
-502.318
-499.686
-496.813
-493.688
-490.299
-486.637
-482.693
-478.46
-473.935
-469.115
-464.001
-458.594
-452.9
-446.924
-440.674
-434.159
-427.39
-420.378
-413.132
-405.665
-397.987
-390.109
-382.041
-373.793
-365.373
-356.789
-348.05
-339.162
-330.13
-320.962
-311.661
-302.233
-292.682
-283.011
-273.224
-263.325
-253.315
-243.199
-232.978
-222.656
-212.236
-201.72
-191.113
-180.418
-169.64
-158.786
-147.862
-136.877
-125.841
-114.767
-103.666
-92.5538
-81.4422
-70.3408
-59.2512
-48.1746
-37.1108
-25.2495
-12.0933
-2.09683
-519.711
-519.929
-520.245
-520.563
-520.869
-521.155
-521.419
-521.665
-521.897
-522.117
-522.322
-522.513
-522.687
-522.841
-522.973
-523.08
-523.159
-523.206
-523.219
-523.193
-523.125
-523.01
-522.844
-522.622
-522.339
-521.989
-521.567
-521.067
-520.481
-519.803
-519.024
-518.136
-517.13
-515.996
-514.725
-513.303
-511.72
-509.963
-508.018
-505.873
-503.512
-500.923
-498.092
-495.006
-491.653
-488.023
-484.106
-479.897
-475.39
-470.582
-465.474
-460.068
-454.369
-448.383
-442.117
-435.582
-428.789
-421.748
-414.471
-406.969
-399.256
-391.341
-383.235
-374.949
-366.491
-357.87
-349.095
-340.172
-331.107
-321.907
-312.577
-303.12
-293.543
-283.847
-274.037
-264.116
-254.087
-243.952
-233.714
-223.376
-212.94
-202.41
-191.789
-181.08
-170.288
-159.419
-148.479
-137.475
-126.415
-115.309
-104.166
-92.9929
-81.7927
-70.5612
-59.2778
-47.9183
-36.5307
-24.6401
-13.2954
-2.99134
-518.559
-519.419
-520.074
-520.523
-520.898
-521.229
-521.527
-521.804
-522.065
-522.312
-522.545
-522.762
-522.961
-523.141
-523.299
-523.431
-523.536
-523.609
-523.648
-523.65
-523.61
-523.525
-523.39
-523.2
-522.951
-522.637
-522.252
-521.792
-521.248
-520.613
-519.881
-519.042
-518.088
-517.008
-515.793
-514.429
-512.906
-511.21
-509.328
-507.244
-504.946
-502.418
-499.645
-496.615
-493.314
-489.73
-485.855
-481.68
-477.201
-472.413
-467.317
-461.915
-456.211
-450.212
-443.927
-437.366
-430.54
-423.461
-416.141
-408.594
-400.832
-392.868
-384.711
-376.374
-367.866
-359.197
-350.375
-341.406
-332.299
-323.058
-313.689
-304.197
-294.586
-284.86
-275.022
-265.075
-255.021
-244.864
-234.606
-224.249
-213.796
-203.249
-192.612
-181.888
-171.081
-160.195
-149.236
-138.21
-127.122
-115.979
-104.785
-93.5392
-82.2364
-70.8601
-59.3733
-47.7201
-35.9722
-23.3115
-12.4168
-3.44147
-516.516
-518.792
-519.996
-520.581
-520.994
-521.345
-521.664
-521.966
-522.255
-522.531
-522.795
-523.042
-523.272
-523.483
-523.671
-523.835
-523.971
-524.077
-524.15
-524.186
-524.183
-524.135
-524.04
-523.892
-523.687
-523.419
-523.084
-522.675
-522.187
-521.611
-520.94
-520.166
-519.281
-518.273
-517.133
-515.848
-514.407
-512.795
-510.998
-509.001
-506.788
-504.345
-501.655
-498.703
-495.475
-491.958
-488.142
-484.016
-479.576
-474.816
-469.737
-464.341
-458.631
-452.615
-446.302
-439.703
-432.831
-425.699
-418.321
-410.711
-402.883
-394.85
-386.625
-378.219
-369.644
-360.909
-352.023
-342.995
-333.83
-324.536
-315.117
-305.578
-295.924
-286.157
-276.282
-266.301
-256.216
-246.03
-235.745
-225.364
-214.887
-204.319
-193.661
-182.916
-172.088
-161.18
-150.197
-139.142
-128.02
-116.835
-105.585
-94.267
-82.8692
-71.37
-59.7347
-47.9371
-36.0294
-23.9356
-14.1727
-5.59542
)
;

boundaryField
{
    inlet
    {
        type            zeroGradient;
    }
    outlet
    {
        type            fixedValue;
        value           uniform 0;
    }
    frontAndBack
    {
        type            empty;
    }
    walls
    {
        type            zeroGradient;
    }
}


// ************************************************************************* //
