/*--------------------------------*- C++ -*----------------------------------*\
| =========                 |                                                 |
| \\      /  F ield         | OpenFOAM: The Open Source CFD Toolbox           |
|  \\    /   O peration     | Version:  2212                                  |
|   \\  /    A nd           | Website:  www.openfoam.com                      |
|    \\/     M anipulation  |                                                 |
\*---------------------------------------------------------------------------*/
FoamFile
{
    version     2.0;
    format      ascii;
    arch        "LSB;label=32;scalar=64";
    class       surfaceScalarField;
    location    "40";
    object      phi;
}
// * * * * * * * * * * * * * * * * * * * * * * * * * * * * * * * * * * * * * //

dimensions      [0 3 -1 0 0 0 0];

oriented        oriented;

internalField   nonuniform List<scalar> 
3880
(
3.83521e-05
1.16479e-05
2.9174e-05
9.17884e-06
2.39856e-05
5.18898e-06
2.1141e-05
2.84454e-06
1.95353e-05
1.60559e-06
1.85097e-05
1.02549e-06
1.76912e-05
8.18575e-07
1.6879e-05
8.12265e-07
1.59671e-05
9.1176e-07
1.48986e-05
1.06842e-06
1.36405e-05
1.25797e-06
1.21718e-05
1.46866e-06
1.04767e-05
1.69509e-06
8.54166e-06
1.93501e-06
6.35372e-06
2.18789e-06
3.89977e-06
2.45395e-06
1.16592e-06
2.73379e-06
-1.86253e-06
3.02833e-06
-5.20129e-06
3.33861e-06
-8.86728e-06
3.66581e-06
-1.28787e-05
4.01119e-06
-1.72551e-05
4.37617e-06
-2.20176e-05
4.7623e-06
-2.71891e-05
5.17129e-06
-3.27942e-05
5.60498e-06
-3.88597e-05
6.06535e-06
-4.54143e-05
6.55453e-06
-5.2489e-05
7.0747e-06
-6.01171e-05
7.62806e-06
-6.83338e-05
8.21678e-06
-7.71766e-05
8.84281e-06
-8.66845e-05
9.50782e-06
-9.68975e-05
1.02129e-05
-0.000107856
1.09585e-05
-0.0001196
1.1744e-05
-0.000132168
1.25675e-05
-0.000145593
1.34255e-05
-0.000159906
1.43129e-05
-0.000175129
1.52224e-05
-0.000191273
1.61448e-05
-0.000208342
1.70687e-05
-0.000226323
1.7981e-05
-0.00024519
1.88668e-05
-0.0002649
1.97104e-05
-0.000285395
2.04953e-05
-0.0003066
2.12054e-05
-0.000328426
2.18256e-05
-0.000350768
2.23424e-05
-0.000373513
2.2745e-05
-0.000396539
2.30255e-05
-0.000419718
2.31797e-05
-0.000442925
2.32067e-05
-0.000466035
2.31097e-05
-0.000488929
2.2895e-05
-0.000511501
2.2572e-05
-0.000533654
2.21525e-05
-0.000555304
2.16503e-05
-0.000576384
2.108e-05
-0.000596841
2.04566e-05
-0.000616636
1.97951e-05
-0.000635745
1.91095e-05
-0.000654158
1.84127e-05
-0.000671874
1.77161e-05
-0.000688903
1.70294e-05
-0.000705264
1.63607e-05
-0.00072098
1.57164e-05
-0.000736081
1.51012e-05
-0.0007506
1.45185e-05
-0.00076457
1.39703e-05
-0.000778028
1.34576e-05
-0.000791009
1.29807e-05
-0.000803548
1.2539e-05
-0.000815679
1.21312e-05
-0.000827434
1.17557e-05
-0.000838845
1.14105e-05
-0.000849938
1.10933e-05
-0.00086074
1.08015e-05
-0.000871272
1.05324e-05
-0.000881555
1.02827e-05
-0.000891604
1.00492e-05
-0.000901432
9.82786e-06
-0.000911046
9.61447e-06
-0.00092045
9.40424e-06
-0.000929642
9.19188e-06
-0.000938614
8.9715e-06
-0.00094735
8.73673e-06
-0.000955831
8.48087e-06
-0.000964028
8.19708e-06
-0.000971907
7.87862e-06
-0.000979426
7.51887e-06
-0.000986537
7.1105e-06
-0.000993179
6.64166e-06
-0.000999262
6.08341e-06
-0.00100463
5.36664e-06
-0.00100894
4.30935e-06
-0.00101134
2.406e-06
-0.00101075
-5.91931e-07
-0.00100063
-1.01213e-05
-0.000976443
-2.41878e-05
-8.69089e-06
5.28711e-05
8.77666e-06
5.13634e-05
1.06863e-05
4.79391e-05
8.61377e-06
4.45518e-05
6.23225e-06
4.17691e-05
4.38837e-06
3.95651e-05
3.22938e-06
3.77492e-05
2.63426e-06
3.61285e-05
2.43292e-06
3.45505e-05
2.48979e-06
3.29031e-05
2.71597e-06
3.11043e-05
3.05701e-06
2.90927e-05
3.48054e-06
2.68202e-05
3.96785e-06
2.42472e-05
4.50824e-06
2.13392e-05
5.09596e-06
1.80651e-05
5.72817e-06
1.4395e-05
6.40387e-06
1.03e-05
7.12326e-06
5.75099e-06
7.88746e-06
7.18333e-07
8.6983e-06
-4.82888e-06
9.5582e-06
-1.0923e-05
1.04701e-05
-1.75986e-05
1.14377e-05
-2.48921e-05
1.24647e-05
-3.28431e-05
1.35559e-05
-4.14937e-05
1.4716e-05
-5.08894e-05
1.59504e-05
-6.1079e-05
1.72645e-05
-7.21146e-05
1.86639e-05
-8.40517e-05
2.0154e-05
-9.69485e-05
2.17397e-05
-0.000110866
2.34252e-05
-0.000125866
2.52131e-05
-0.000142012
2.71041e-05
-0.000159364
2.90964e-05
-0.000177981
3.11847e-05
-0.000197916
3.33599e-05
-0.000219211
3.5608e-05
-0.000241898
3.791e-05
-0.000265995
4.02418e-05
-0.0002915
4.25737e-05
-0.000318391
4.48716e-05
-0.000346621
4.70972e-05
-0.00037612
4.92095e-05
-0.000406791
5.11665e-05
-0.000438513
5.29268e-05
-0.000471139
5.44521e-05
-0.000504505
5.57084e-05
-0.000538429
5.66687e-05
-0.000572718
5.73139e-05
-0.000607172
5.7634e-05
-0.000641594
5.76288e-05
-0.000675792
5.73072e-05
-0.000709584
5.66874e-05
-0.000742807
5.57947e-05
-0.000775316
5.46611e-05
-0.000806988
5.33226e-05
-0.000837726
5.18181e-05
-0.000867457
5.0187e-05
-0.00089613
4.84679e-05
-0.000923717
4.66971e-05
-0.000950212
4.49075e-05
-0.000975624
4.31283e-05
-0.000999979
4.13839e-05
-0.00102331
3.96944e-05
-0.00104567
3.80752e-05
-0.00106711
3.65379e-05
-0.00108768
3.50901e-05
-0.00110745
3.37363e-05
-0.00112647
3.24782e-05
-0.0011448
3.13153e-05
-0.00116251
3.02454e-05
-0.00117964
2.92645e-05
-0.00119625
2.83681e-05
-0.00121239
2.75504e-05
-0.0012281
2.68052e-05
-0.00124343
2.61255e-05
-0.0012584
2.5504e-05
-0.00127305
2.49322e-05
-0.0012874
2.44011e-05
-0.00130147
2.39004e-05
-0.00131528
2.34186e-05
-0.00132882
2.29426e-05
-0.00134208
2.24572e-05
-0.00135506
2.19451e-05
-0.0013677
2.13856e-05
-0.00137998
2.07546e-05
-0.00139181
2.00243e-05
-0.00140309
1.91619e-05
-0.0014137
1.8128e-05
-0.00142346
1.68725e-05
-0.00143214
1.53267e-05
-0.00143944
1.33842e-05
-0.00144493
1.08537e-05
-0.00144801
7.39163e-06
-0.00144798
2.37176e-06
-0.00144296
-5.60733e-06
-0.00143592
-1.71686e-05
-0.00141386
-4.62401e-05
-4.37777e-05
5.41002e-05
4.67697e-06
5.66608e-05
8.12555e-06
5.62436e-05
9.03096e-06
5.43057e-05
8.17031e-06
5.19559e-05
6.73838e-06
4.97149e-05
5.47016e-06
4.77585e-05
4.59051e-06
4.60891e-05
4.10211e-06
4.46398e-05
3.93897e-06
4.3325e-05
4.03069e-06
4.20617e-05
4.3202e-06
4.07768e-05
4.76551e-06
3.94074e-05
5.33715e-06
3.79006e-05
6.0151e-06
3.62106e-05
6.78588e-06
3.42979e-05
7.64077e-06
3.21271e-05
8.57442e-06
2.96661e-05
9.58402e-06
2.68846e-05
1.06687e-05
2.37532e-05
1.18293e-05
2.02432e-05
1.30679e-05
1.63252e-05
1.43879e-05
1.19689e-05
1.57936e-05
7.14275e-06
1.72907e-05
1.81317e-06
1.88853e-05
-4.05555e-06
2.05847e-05
-1.05016e-05
2.23964e-05
-1.75659e-05
2.43288e-05
-2.52921e-05
2.639e-05
-3.37264e-05
2.85882e-05
-4.29175e-05
3.09308e-05
-5.2916e-05
3.34235e-05
-6.37735e-05
3.60704e-05
-7.55416e-05
3.88721e-05
-8.82705e-05
4.18252e-05
-0.000102007
4.49211e-05
-0.000116792
4.8145e-05
-0.000132658
5.14747e-05
-0.000149629
5.48803e-05
-0.000167711
5.83236e-05
-0.000186895
6.17587e-05
-0.000207156
6.51321e-05
-0.000228443
6.83847e-05
-0.000250687
7.14536e-05
-0.000273795
7.42747e-05
-0.000297654
7.67855e-05
-0.000322131
7.89287e-05
-0.000347077
8.06549e-05
-0.000372334
8.19256e-05
-0.000397735
8.2715e-05
-0.000423113
8.30122e-05
-0.000448305
8.28209e-05
-0.000473157
8.21594e-05
-0.000497529
8.10593e-05
-0.000521299
7.95638e-05
-0.000544362
7.77246e-05
-0.000566639
7.55994e-05
-0.00058807
7.3249e-05
-0.000608617
7.07342e-05
-0.000628262
6.81138e-05
-0.000647007
6.54421e-05
-0.000664868
6.27678e-05
-0.000681872
6.01328e-05
-0.00069806
5.7572e-05
-0.000713479
5.51129e-05
-0.00072818
5.27762e-05
-0.000742218
5.05762e-05
-0.00075565
4.8522e-05
-0.000768532
4.66178e-05
-0.000780917
4.48638e-05
-0.000792859
4.32573e-05
-0.000804406
4.17928e-05
-0.000815605
4.04633e-05
-0.000826498
3.92604e-05
-0.000837122
3.81747e-05
-0.000847513
3.7196e-05
-0.0008577
3.63131e-05
-0.000867711
3.55141e-05
-0.000877564
3.47859e-05
-0.000887277
3.41138e-05
-0.000896858
3.34815e-05
-0.000906309
3.28697e-05
-0.000915622
3.22561e-05
-0.000924778
3.16134e-05
-0.000933742
3.09086e-05
-0.000942457
3.01005e-05
-0.00095084
2.91379e-05
-0.000958772
2.7956e-05
-0.000966083
2.64724e-05
-0.000972535
2.45801e-05
-0.000977798
2.2136e-05
-0.000981415
1.89431e-05
-0.000982745
1.47148e-05
-0.000980892
9.00037e-06
-0.000974561
1.06033e-06
-0.00096175
-1.04391e-05
-0.000939223
-2.81349e-05
-0.000898764
-5.76274e-05
-0.000838898
-0.000106106
-0.000102828
5.31802e-05
1.49724e-06
5.66274e-05
4.67851e-06
5.80443e-05
7.61397e-06
5.77988e-05
8.41577e-06
5.66607e-05
7.87661e-06
5.52025e-05
6.92836e-06
5.37621e-05
6.0309e-06
5.24966e-05
5.36759e-06
5.14505e-05
4.98507e-06
5.06087e-05
4.87258e-06
4.99287e-05
5.00018e-06
4.93592e-05
5.33516e-06
4.88484e-05
5.84804e-06
4.83487e-05
6.51481e-06
4.78178e-05
7.31678e-06
4.72186e-05
8.23992e-06
4.65188e-05
9.27418e-06
4.56898e-05
1.04129e-05
4.47061e-05
1.16524e-05
4.3544e-05
1.29912e-05
4.21816e-05
1.44301e-05
4.05974e-05
1.59719e-05
3.87699e-05
1.76209e-05
3.66775e-05
1.9383e-05
3.42975e-05
2.12653e-05
3.1606e-05
2.32762e-05
2.85778e-05
2.54247e-05
2.51858e-05
2.77208e-05
2.14013e-05
3.01746e-05
1.71938e-05
3.27957e-05
1.25314e-05
3.55932e-05
7.38059e-06
3.85742e-05
1.70758e-06
4.17433e-05
-4.52142e-06
4.5101e-05
-1.1339e-05
4.86428e-05
-1.87751e-05
5.23573e-05
-2.68554e-05
5.62254e-05
-3.55995e-05
6.02188e-05
-4.50187e-05
6.42995e-05
-5.51141e-05
6.84189e-05
-6.58743e-05
7.2519e-05
-7.72746e-05
7.65324e-05
-8.92748e-05
8.0385e-05
-0.000101819
8.39984e-05
-0.000114838
8.72933e-05
-0.000128246
9.01933e-05
-0.000141946
9.26291e-05
-0.000155834
9.45423e-05
-0.000169797
9.58887e-05
-0.000183723
9.66412e-05
-0.000197502
9.67911e-05
-0.00021103
9.63485e-05
-0.000224212
9.53417e-05
-0.000236968
9.38151e-05
-0.000249231
9.18267e-05
-0.000260951
8.94444e-05
-0.000272093
8.67424e-05
-0.000282642
8.37972e-05
-0.000292592
8.06846e-05
-0.000301954
7.74761e-05
-0.00031075
7.42372e-05
-0.000319007
7.10254e-05
-0.000326764
6.78892e-05
-0.000334059
6.48677e-05
-0.000340937
6.19911e-05
-0.000347442
5.92809e-05
-0.000353618
5.67513e-05
-0.000359506
5.44099e-05
-0.000365146
5.22586e-05
-0.000370578
5.02952e-05
-0.000375834
4.85137e-05
-0.000380947
4.69058e-05
-0.000385945
4.54614e-05
-0.000390854
4.4169e-05
-0.000395695
4.30161e-05
-0.000400489
4.19895e-05
-0.00040525
4.10749e-05
-0.000409993
4.02569e-05
-0.000414725
3.95183e-05
-0.000419452
3.88402e-05
-0.00042417
3.82001e-05
-0.000428872
3.75716e-05
-0.000433538
3.69216e-05
-0.000438133
3.6209e-05
-0.000442605
3.53809e-05
-0.000446874
3.43696e-05
-0.000450823
3.30869e-05
-0.000454285
3.14174e-05
-0.000457022
2.92094e-05
-0.000458703
2.62617e-05
-0.000458872
2.23048e-05
-0.000456902
1.69726e-05
-0.000451943
9.75639e-06
-0.000442867
-7.57946e-08
-0.000428189
-1.36177e-05
-0.000406016
-3.26114e-05
-0.000374705
-5.94453e-05
-0.000325832
-0.000106501
-0.000278319
-0.00015362
-0.000136354
5.20404e-05
-5.43026e-07
5.50028e-05
1.71635e-06
5.70738e-05
5.543e-06
5.79991e-05
7.49026e-06
5.80632e-05
7.81244e-06
5.76339e-05
7.35751e-06
5.70141e-05
6.65062e-06
5.64033e-05
5.97837e-06
5.59105e-05
5.47772e-06
5.55816e-05
5.20143e-06
5.54233e-05
5.15857e-06
5.54207e-05
5.33764e-06
5.55495e-05
5.71925e-06
5.57818e-05
6.28241e-06
5.60908e-05
7.00777e-06
5.64516e-05
7.87896e-06
5.68427e-05
8.88297e-06
5.72453e-05
1.00102e-05
5.76433e-05
1.12541e-05
5.8023e-05
1.26113e-05
5.83721e-05
1.40808e-05
5.86798e-05
1.56641e-05
5.89358e-05
1.73647e-05
5.91305e-05
1.91882e-05
5.92541e-05
2.11417e-05
5.92968e-05
2.32335e-05
5.92483e-05
2.54733e-05
5.90978e-05
2.78714e-05
5.88336e-05
3.04387e-05
5.84436e-05
3.31856e-05
5.79149e-05
3.61218e-05
5.72341e-05
3.9255e-05
5.63874e-05
4.25899e-05
5.53613e-05
4.61272e-05
5.41428e-05
4.98614e-05
5.27201e-05
5.378e-05
5.10838e-05
5.78618e-05
4.92275e-05
6.20753e-05
4.71488e-05
6.63782e-05
4.48506e-05
7.07172e-05
4.23419e-05
7.50277e-05
3.96386e-05
7.92358e-05
3.67636e-05
8.32601e-05
3.37472e-05
8.70149e-05
3.06266e-05
9.04141e-05
2.74446e-05
9.33754e-05
2.42484e-05
9.58253e-05
2.10878e-05
9.77029e-05
1.80129e-05
9.89637e-05
1.50716e-05
9.95825e-05
1.2308e-05
9.95548e-05
9.75983e-06
9.88967e-05
7.45717e-06
9.76444e-05
5.42133e-06
9.5851e-05
3.66434e-06
9.35838e-05
2.18898e-06
9.09199e-05
9.89412e-07
8.79421e-05
5.22431e-08
8.47344e-05
-6.4217e-07
8.13789e-05
-1.11822e-06
7.79521e-05
-1.40356e-06
7.45225e-05
-1.52769e-06
7.11496e-05
-1.52065e-06
6.78822e-05
-1.4119e-06
6.47589e-05
-1.22942e-06
6.18084e-05
-9.99048e-07
5.90503e-05
-7.44139e-07
5.64962e-05
-4.85443e-07
5.41511e-05
-2.41133e-07
5.20144e-05
-2.68821e-08
5.0081e-05
1.44054e-07
4.83428e-05
2.60698e-07
4.6789e-05
3.14114e-07
4.54078e-05
2.97133e-07
4.41859e-05
2.0416e-07
4.31092e-05
3.11641e-08
4.21628e-05
-2.24136e-07
4.13305e-05
-5.61905e-07
4.05947e-05
-9.79592e-07
3.9936e-05
-1.47102e-06
3.93316e-05
-2.02496e-06
3.87541e-05
-2.62289e-06
3.81696e-05
-3.23558e-06
3.75343e-05
-3.81851e-06
3.67919e-05
-4.30569e-06
3.5868e-05
-4.60135e-06
3.46652e-05
-4.56869e-06
3.30542e-05
-4.01578e-06
3.08646e-05
-2.67829e-06
2.7872e-05
-1.9887e-07
2.37821e-05
3.89449e-06
1.82112e-05
1.02056e-05
1.06614e-05
1.94711e-05
4.90859e-07
3.25174e-05
-1.3122e-05
5.01105e-05
-3.12111e-05
7.25195e-05
-5.50206e-05
9.84765e-05
-8.54021e-05
0.000128936
-0.000136961
0.000146166
-0.00017085
-0.000142646
5.10522e-05
-1.59532e-06
5.30471e-05
-2.7837e-07
5.50267e-05
3.56345e-06
5.65245e-05
5.9924e-06
5.74644e-05
6.87249e-06
5.79655e-05
6.85629e-06
5.82007e-05
6.41536e-06
5.83253e-05
5.85375e-06
5.84534e-05
5.34952e-06
5.86585e-05
4.99626e-06
5.8982e-05
4.83502e-06
5.94435e-05
4.87612e-06
6.0049e-05
5.11371e-06
6.07971e-05
5.53429e-06
6.16828e-05
6.12193e-06
6.27005e-05
6.86119e-06
6.38448e-05
7.73861e-06
6.51114e-05
8.74341e-06
6.64977e-05
9.8677e-06
6.80023e-05
1.11065e-05
6.96254e-05
1.24575e-05
7.13683e-05
1.3921e-05
7.32335e-05
1.54995e-05
7.52243e-05
1.71974e-05
7.73449e-05
1.9021e-05
7.96002e-05
2.09782e-05
8.19957e-05
2.30778e-05
8.45374e-05
2.53297e-05
8.72319e-05
2.77442e-05
9.0086e-05
3.03315e-05
9.31069e-05
3.31008e-05
9.6302e-05
3.60598e-05
9.9679e-05
3.9213e-05
0.000103245
4.25609e-05
0.000107008
4.60984e-05
0.000110975
4.98131e-05
0.000115153
5.3684e-05
0.000119548
5.76803e-05
0.000124166
6.17605e-05
0.000129011
6.58718e-05
0.000134088
6.99508e-05
0.000139399
7.3925e-05
0.000144945
7.77143e-05
0.000150725
8.12352e-05
0.000156735
8.44039e-05
0.00016297
8.7141e-05
0.000169419
8.93762e-05
0.00017607
9.10522e-05
0.000182905
9.21286e-05
0.000189903
9.25842e-05
0.000197039
9.24185e-05
0.000204285
9.16514e-05
0.000211607
9.03221e-05
0.000218972
8.84863e-05
0.000226343
8.62126e-05
0.000233685
8.35784e-05
0.000240961
8.06657e-05
0.000248138
7.75569e-05
0.000255186
7.43312e-05
0.000262077
7.10614e-05
0.000268787
6.78123e-05
0.000275298
6.46385e-05
0.000281596
6.15845e-05
0.000287671
5.86844e-05
0.000293516
5.59627e-05
0.00029913
5.34355e-05
0.000304515
5.11114e-05
0.000309674
4.89924e-05
0.000314613
4.70758e-05
0.000319339
4.53549e-05
0.000323861
4.38204e-05
0.000328189
4.24611e-05
0.000332332
4.12648e-05
0.0003363
4.02179e-05
0.000340103
3.93065e-05
0.000343751
3.85152e-05
0.000347253
3.7828e-05
0.000350621
3.72269e-05
0.000353866
3.66914e-05
0.000357001
3.61966e-05
0.000360043
3.57118e-05
0.000363016
3.51972e-05
0.000365949
3.46007e-05
0.000368888
3.38534e-05
0.000371892
3.28636e-05
0.000375048
3.15095e-05
0.000378472
2.963e-05
0.000382322
2.70143e-05
0.000386804
2.339e-05
0.000392175
1.84116e-05
0.000398737
1.16495e-05
0.000406811
2.58764e-06
0.000416667
-9.36589e-06
0.000428385
-2.48389e-05
0.000441565
-4.43916e-05
0.000454833
-6.82894e-05
0.000465318
-9.5887e-05
0.000469524
-0.000141167
0.00046003
-0.000161355
-0.000130043
5.0274e-05
-1.8694e-06
5.12485e-05
-1.25296e-06
5.27892e-05
2.02268e-06
5.4434e-05
4.34753e-06
5.58979e-05
5.40855e-06
5.71003e-05
5.65371e-06
5.80705e-05
5.44523e-06
5.88804e-05
5.04369e-06
5.96093e-05
4.62058e-06
6.03267e-05
4.27886e-06
6.10878e-05
4.07364e-06
6.19351e-05
4.02879e-06
6.28997e-05
4.14903e-06
6.40052e-05
4.42865e-06
6.52701e-05
4.85695e-06
6.67094e-05
5.42174e-06
6.83365e-05
6.1114e-06
7.01638e-05
6.91601e-06
7.22034e-05
7.82786e-06
7.44681e-05
8.84168e-06
7.69709e-05
9.95458e-06
7.97258e-05
1.11659e-05
8.2748e-05
1.24772e-05
8.60537e-05
1.38917e-05
8.96604e-05
1.54144e-05
9.3587e-05
1.70515e-05
9.7854e-05
1.88107e-05
0.000102483
2.07002e-05
0.000107499
2.27288e-05
0.000112925
2.49052e-05
0.000118788
2.72375e-05
0.000125116
2.97322e-05
0.000131935
3.23933e-05
0.000139275
3.52214e-05
0.000147161
3.82121e-05
0.000155619
4.13546e-05
0.000164672
4.46309e-05
0.000174338
4.80143e-05
0.00018463
5.14686e-05
0.000195554
5.4948e-05
0.000207108
5.83973e-05
0.000219279
6.17533e-05
0.000232047
6.49466e-05
0.000245377
6.79047e-05
0.000259226
7.05551e-05
0.000273537
7.28297e-05
0.000288245
7.46685e-05
0.000303274
7.60232e-05
0.000318542
7.68607e-05
0.000333962
7.71647e-05
0.000349443
7.69374e-05
0.000364895
7.61987e-05
0.000380232
7.49852e-05
0.000395371
7.33475e-05
0.000410237
7.13469e-05
0.000424763
6.90519e-05
0.000438895
6.6534e-05
0.000452587
6.38648e-05
0.000465806
6.1112e-05
0.00047853
5.83376e-05
0.000490747
5.55957e-05
0.000502454
5.29317e-05
0.000513656
5.03816e-05
0.000524368
4.79725e-05
0.000534607
4.57237e-05
0.000544395
4.36469e-05
0.000553759
4.17475e-05
0.000562726
4.00257e-05
0.000571324
3.84777e-05
0.000579582
3.70967e-05
0.000587529
3.58739e-05
0.000595191
3.47992e-05
0.000602594
3.38616e-05
0.000609763
3.30491e-05
0.000616721
3.23491e-05
0.000623488
3.17481e-05
0.000630084
3.12317e-05
0.000636528
3.07835e-05
0.000642835
3.0384e-05
0.000649023
3.00091e-05
0.000655107
2.96279e-05
0.000661104
2.91997e-05
0.000667035
2.86704e-05
0.00067292
2.79676e-05
0.00067879
2.69945e-05
0.000684676
2.56229e-05
0.000690621
2.36849e-05
0.00069667
2.09649e-05
0.000702868
1.71924e-05
0.000709241
1.20386e-05
0.000715769
5.12192e-06
0.000722327
-3.9706e-06
0.000728596
-1.56351e-05
0.000733918
-3.01615e-05
0.000737104
-4.75765e-05
0.000736226
-6.74114e-05
0.000728754
-8.84147e-05
0.000710116
-0.000122529
0.000681849
-0.000133089
-0.000105486
4.96974e-05
-1.56683e-06
4.98015e-05
-1.3573e-06
5.08305e-05
9.93674e-07
5.24008e-05
2.77714e-06
5.4125e-05
3.68425e-06
5.57913e-05
3.98734e-06
5.7312e-05
3.92453e-06
5.86756e-05
3.68005e-06
5.99117e-05
3.38439e-06
6.10683e-05
3.12215e-06
6.2199e-05
2.94286e-06
6.33559e-05
2.8717e-06
6.45872e-05
2.91762e-06
6.59358e-05
3.07994e-06
6.74399e-05
3.35283e-06
6.91332e-05
3.72828e-06
7.10465e-05
4.19802e-06
7.32078e-05
4.75458e-06
7.56436e-05
5.39195e-06
7.83794e-05
6.10577e-06
8.14404e-05
6.89347e-06
8.48521e-05
7.75417e-06
8.86407e-05
8.68855e-06
9.28337e-05
9.69871e-06
9.74601e-05
1.0788e-05
0.000102551
1.19609e-05
0.000108139
1.32228e-05
0.000114259
1.45795e-05
0.00012095
1.60376e-05
0.000128252
1.76034e-05
0.000136207
1.92828e-05
0.000144858
2.10807e-05
0.000154252
2.3e-05
0.000164432
2.50413e-05
0.000175443
2.72012e-05
0.000187325
2.94722e-05
0.000200115
3.18409e-05
0.000213842
3.42878e-05
0.000228524
3.67863e-05
0.00024417
3.93027e-05
0.000260771
4.17962e-05
0.000278304
4.42203e-05
0.000296727
4.65238e-05
0.000315978
4.86533e-05
0.000335978
5.05558e-05
0.000356626
5.21812e-05
0.000377809
5.34858e-05
0.000399398
5.44349e-05
0.000421253
5.50048e-05
0.000443233
5.5185e-05
0.000465192
5.4978e-05
0.000486991
5.44001e-05
0.000508497
5.34792e-05
0.000529591
5.2254e-05
0.000550168
5.07703e-05
0.00057014
4.90792e-05
0.00058944
4.72337e-05
0.000608019
4.52863e-05
0.000625844
4.32866e-05
0.000642903
4.12793e-05
0.000659195
3.93031e-05
0.000674737
3.73903e-05
0.000689552
3.55661e-05
0.000703675
3.38493e-05
0.000717146
3.2253e-05
0.000730008
3.07847e-05
0.000742309
2.94473e-05
0.000754094
2.82399e-05
0.000765413
2.71592e-05
0.000776309
2.61998e-05
0.000786828
2.53548e-05
0.000797011
2.46169e-05
0.000806895
2.39773e-05
0.000816517
2.34272e-05
0.000825909
2.29571e-05
0.0008351
2.25569e-05
0.000844116
2.22157e-05
0.000852979
2.19207e-05
0.000861706
2.16564e-05
0.000870312
2.14031e-05
0.000878805
2.11353e-05
0.000887186
2.08187e-05
0.000895449
2.04075e-05
0.000903576
1.98402e-05
0.000911536
1.90345e-05
0.000919277
1.78824e-05
0.000926717
1.62442e-05
0.000933738
1.39441e-05
0.000940163
1.07681e-05
0.000945733
6.46855e-06
0.000950076
7.78688e-07
0.000952661
-6.55574e-06
0.000952746
-1.572e-05
0.000949328
-2.67432e-05
0.000941126
-3.93749e-05
0.000926674
-5.29593e-05
0.000904679
-6.64202e-05
0.000870689
-8.85391e-05
0.000831114
-9.35129e-05
-7.36724e-05
4.93134e-05
-8.80171e-07
4.87961e-05
-8.40285e-07
4.94081e-05
3.81619e-07
5.08434e-05
1.34184e-06
5.26711e-05
1.85648e-06
5.46055e-05
2.05297e-06
5.6482e-05
2.04796e-06
5.82264e-05
1.93572e-06
5.9825e-05
1.78571e-06
6.13021e-05
1.64494e-06
6.27025e-05
1.54234e-06
6.40807e-05
1.49344e-06
6.54934e-05
1.5048e-06
6.6996e-05
1.57727e-06
6.86403e-05
1.70847e-06
7.0474e-05
1.89455e-06
7.25407e-05
2.13124e-06
7.48807e-05
2.41459e-06
7.75313e-05
2.74131e-06
8.0528e-05
3.10897e-06
8.39055e-05
3.51607e-06
8.76977e-05
3.96202e-06
9.19393e-05
4.44704e-06
9.6666e-05
4.97215e-06
0.000101915
5.53902e-06
0.000107726
6.14992e-06
0.000114141
6.80761e-06
0.000121205
7.51524e-06
0.000128967
8.27619e-06
0.000137476
9.09382e-06
0.000146788
9.97128e-06
0.000156958
1.09112e-05
0.000168043
1.19151e-05
0.000180101
1.29833e-05
0.000193188
1.41141e-05
0.000207356
1.53036e-05
0.000222652
1.65448e-05
0.000239113
1.78272e-05
0.000256763
1.9137e-05
0.000275609
2.04561e-05
0.000295642
2.17631e-05
0.000316829
2.30332e-05
0.000339114
2.42393e-05
0.000362414
2.5353e-05
0.000386624
2.63462e-05
0.000411612
2.71926e-05
0.000437229
2.78691e-05
0.000463307
2.83574e-05
0.000489666
2.86453e-05
0.000516123
2.87275e-05
0.000542495
2.86058e-05
0.000568606
2.82892e-05
0.000594292
2.7793e-05
0.000619408
2.71379e-05
0.00064383
2.63486e-05
0.000667457
2.54523e-05
0.000690213
2.44773e-05
0.000712048
2.34513e-05
0.000732934
2.24005e-05
0.000752865
2.13483e-05
0.000771854
2.03148e-05
0.000789927
1.93166e-05
0.000807126
1.83668e-05
0.0008235
1.74752e-05
0.000839105
1.66482e-05
0.000854001
1.58893e-05
0.000868248
1.51998e-05
0.000881909
1.45788e-05
0.000895044
1.40243e-05
0.00090771
1.35336e-05
0.000919962
1.31029e-05
0.000931851
1.27281e-05
0.000943424
1.24045e-05
0.000954724
1.21272e-05
0.000965789
1.18912e-05
0.000976655
1.16913e-05
0.000987349
1.15214e-05
0.000997896
1.13745e-05
0.00100831
1.12419e-05
0.0010186
1.11126e-05
0.00102876
1.09718e-05
0.00103878
1.07999e-05
0.00104862
1.05705e-05
0.00105821
1.02477e-05
0.00106746
9.78439e-06
0.00107623
9.11862e-06
0.0010843
8.17121e-06
0.0010914
6.84384e-06
0.00109715
5.01994e-06
0.00110105
2.56971e-06
0.00110246
-6.3804e-07
0.00110062
-4.71427e-06
0.00109462
-9.71409e-06
0.00108346
-1.55863e-05
0.0010662
-2.21139e-05
0.00104211
-2.8875e-05
0.001011
-3.53017e-05
0.000968517
-4.60608e-05
0.000922989
-4.79851e-05
-3.77466e-05
4.91205e-05
-7.30784e-10
4.82815e-05
-1.40718e-09
4.86643e-05
-1.35216e-09
5.00073e-05
-1.21176e-09
5.18648e-05
-1.11957e-09
5.39189e-05
-1.01252e-09
5.59679e-05
-9.75789e-10
5.79045e-05
-9.15379e-10
5.96911e-05
-8.63368e-10
6.13368e-05
-8.76548e-10
6.28799e-05
-8.72392e-10
6.43741e-05
-8.84437e-10
6.58798e-05
-8.98287e-10
6.74579e-05
-9.05261e-10
6.91673e-05
-9.2073e-10
7.10628e-05
-9.51287e-10
7.3195e-05
-9.98972e-10
7.56106e-05
-1.06937e-09
7.8353e-05
-1.16065e-09
8.14633e-05
-1.25908e-09
8.49807e-05
-1.34977e-09
8.89443e-05
-1.42717e-09
9.3393e-05
-1.49862e-09
9.83668e-05
-1.58379e-09
0.000103908
-1.70899e-09
0.000110059
-1.89539e-09
0.000116869
-2.14814e-09
0.000124387
-2.45382e-09
0.000132666
-2.78542e-09
0.000141763
-3.10991e-09
0.000151737
-3.39557e-09
0.000162652
-3.61888e-09
0.000174571
-3.76769e-09
0.000187558
-3.83593e-09
0.000201676
-3.81049e-09
0.000216983
-3.66031e-09
0.000233531
-3.3402e-09
0.000251361
-2.81228e-09
0.0002705
-2.07253e-09
0.000290958
-1.16266e-09
0.000312721
-1.57058e-10
0.000335753
8.65263e-10
0.000359991
1.84056e-09
0.000385341
2.71695e-09
0.000411684
3.43585e-09
0.000438872
3.92223e-09
0.000466737
4.09887e-09
0.000495091
3.91411e-09
0.000523733
3.35753e-09
0.000552457
2.44986e-09
0.000581062
1.22026e-09
0.000609351
-3.04985e-10
0.000637146
-2.0922e-09
0.000664288
-4.08098e-09
0.000690643
-6.17447e-09
0.000716103
-8.24865e-09
0.000740591
-1.01813e-08
0.000764054
-1.18958e-08
0.000786468
-1.33996e-08
0.000807831
-1.47766e-08
0.000828162
-1.61111e-08
0.000847495
-1.73897e-08
0.000865881
-1.84858e-08
0.000883375
-1.92732e-08
0.000900043
-1.97769e-08
0.000915953
-2.01946e-08
0.000931174
-2.07474e-08
0.000945774
-2.15049e-08
0.00095982
-2.23641e-08
0.000973377
-2.3195e-08
0.000986504
-2.39985e-08
0.000999257
-2.49351e-08
0.00101169
-2.62045e-08
0.00102384
-2.78786e-08
0.00103576
-2.98579e-08
0.00104749
-3.20229e-08
0.00105904
-3.43773e-08
0.00107045
-3.69325e-08
0.00108174
-3.95577e-08
0.00109289
-4.21514e-08
0.00110391
-4.47687e-08
0.00111475
-4.73713e-08
0.00112537
-4.98321e-08
0.00113567
-5.22018e-08
0.00114551
-5.44715e-08
0.00115469
-5.64537e-08
0.00116292
-5.80307e-08
0.00116982
-5.89491e-08
0.0011749
-5.8958e-08
0.00117753
-5.80717e-08
0.00117694
-5.61379e-08
0.00117228
-5.29522e-08
0.00116262
-4.81856e-08
0.00114707
-4.12285e-08
0.00112499
-3.20222e-08
0.00109614
-2.07192e-08
0.00106084
-7.104e-09
0.00101478
4.71688e-09
0.000966768
2.26607e-08
4.07475e-08
4.91205e-05
8.78713e-07
4.82814e-05
8.37538e-07
4.86642e-05
-3.84236e-07
5.00072e-05
-1.3442e-06
5.18647e-05
-1.85865e-06
5.39187e-05
-2.05499e-06
5.59677e-05
-2.04984e-06
5.79043e-05
-1.93751e-06
5.96909e-05
-1.78745e-06
6.13366e-05
-1.64664e-06
6.28797e-05
-1.54403e-06
6.43739e-05
-1.49517e-06
6.58796e-05
-1.50656e-06
6.74577e-05
-1.57906e-06
6.91671e-05
-1.71031e-06
7.10625e-05
-1.89644e-06
7.31947e-05
-2.13322e-06
7.56103e-05
-2.41671e-06
7.83527e-05
-2.7436e-06
8.14629e-05
-3.11144e-06
8.49804e-05
-3.51872e-06
8.8944e-05
-3.96481e-06
9.33927e-05
-4.44997e-06
9.83665e-05
-4.97524e-06
0.000103907
-5.54235e-06
0.000110059
-6.15361e-06
0.000116869
-6.8118e-06
0.000124386
-7.52004e-06
0.000132665
-8.28164e-06
0.000141762
-9.09991e-06
0.000151736
-9.97793e-06
0.000162651
-1.09182e-05
0.00017457
-1.19225e-05
0.000187557
-1.29908e-05
0.000201675
-1.41216e-05
0.000216982
-1.53108e-05
0.00023353
-1.65513e-05
0.00025136
-1.78327e-05
0.000270499
-1.91411e-05
0.000290956
-2.04585e-05
0.00031272
-2.17635e-05
0.000335752
-2.30316e-05
0.00035999
-2.42357e-05
0.00038534
-2.53476e-05
0.000411683
-2.63394e-05
0.000438872
-2.71849e-05
0.000466737
-2.7861e-05
0.00049509
-2.83496e-05
0.000523732
-2.86386e-05
0.000552457
-2.87225e-05
0.000581061
-2.86032e-05
0.00060935
-2.82896e-05
0.000637145
-2.77969e-05
0.000664287
-2.71457e-05
0.000690641
-2.63604e-05
0.0007161
-2.54681e-05
0.000740587
-2.44968e-05
0.00076405
-2.34743e-05
0.000786463
-2.24265e-05
0.000807825
-2.13771e-05
0.000828155
-2.03462e-05
0.000847488
-1.93504e-05
0.000865872
-1.84027e-05
0.000883365
-1.75126e-05
0.000900033
-1.66867e-05
0.000915941
-1.59288e-05
0.00093116
-1.52403e-05
0.000945759
-1.46207e-05
0.000959805
-1.40678e-05
0.00097336
-1.35786e-05
0.000986486
-1.31495e-05
0.000999237
-1.27766e-05
0.00101167
-1.24554e-05
0.00102382
-1.21812e-05
0.00103574
-1.19489e-05
0.00104746
-1.17531e-05
0.00105901
-1.15878e-05
0.00107042
-1.14458e-05
0.0010817
-1.13183e-05
0.00109285
-1.11941e-05
0.00110387
-1.10583e-05
0.00111471
-1.08914e-05
0.00112533
-1.06666e-05
0.00113562
-1.03484e-05
0.00114546
-9.88943e-06
0.00115463
-9.22755e-06
0.00116285
-8.28303e-06
0.00116975
-6.95717e-06
0.00117483
-5.13337e-06
0.00117745
-2.68187e-06
0.00117686
5.29292e-07
0.0011722
4.61193e-06
0.00116253
9.62133e-06
0.00114698
1.55066e-05
0.0011249
2.20511e-05
0.00109604
2.88339e-05
0.00106075
3.52878e-05
0.00101468
4.60714e-05
0.000966674
4.80329e-05
3.78298e-05
4.93132e-05
1.56538e-06
4.87959e-05
1.35464e-06
4.94078e-05
-9.96199e-07
5.0843e-05
-2.77944e-06
5.26707e-05
-3.68634e-06
5.4605e-05
-3.98931e-06
5.64815e-05
-3.92632e-06
5.82258e-05
-3.68178e-06
5.98244e-05
-3.38608e-06
6.13015e-05
-3.12377e-06
6.27019e-05
-2.94451e-06
6.408e-05
-2.87335e-06
6.54927e-05
-2.91927e-06
6.69953e-05
-3.08163e-06
6.86395e-05
-3.35456e-06
7.04732e-05
-3.73009e-06
7.25398e-05
-4.19993e-06
7.48797e-05
-4.75663e-06
7.75303e-05
-5.39416e-06
8.05271e-05
-6.10815e-06
8.39046e-05
-6.896e-06
8.76968e-05
-7.75682e-06
9.19384e-05
-8.69132e-06
9.66649e-05
-9.70164e-06
0.000101914
-1.07912e-05
0.000107725
-1.19644e-05
0.000114139
-1.32268e-05
0.000121203
-1.45841e-05
0.000128965
-1.60428e-05
0.000137474
-1.76092e-05
0.000146785
-1.92892e-05
0.000156955
-2.10875e-05
0.000168039
-2.30071e-05
0.000180097
-2.50485e-05
0.000193184
-2.72085e-05
0.000207352
-2.94792e-05
0.000222648
-3.18473e-05
0.000239109
-3.42932e-05
0.000256758
-3.67904e-05
0.000275605
-3.93051e-05
0.000295638
-4.17968e-05
0.000316825
-4.4219e-05
0.00033911
-4.65206e-05
0.000362411
-4.86484e-05
0.000386621
-5.05494e-05
0.00041161
-5.21739e-05
0.000437227
-5.34781e-05
0.000463304
-5.44274e-05
0.000489664
-5.49982e-05
0.000516121
-5.51798e-05
0.000542493
-5.4975e-05
0.000568603
-5.43998e-05
0.000594288
-5.34823e-05
0.000619403
-5.22606e-05
0.000643823
-5.07806e-05
0.000667448
-4.90931e-05
0.000690203
-4.72511e-05
0.000712036
-4.5307e-05
0.000732919
-4.33103e-05
0.000752848
-4.13057e-05
0.000771833
-3.93321e-05
0.000789905
-3.74213e-05
0.000807101
-3.55989e-05
0.000823472
-3.38837e-05
0.000839074
-3.22886e-05
0.000853967
-3.08214e-05
0.000868211
-2.94849e-05
0.000881869
-2.82785e-05
0.000895
-2.7199e-05
0.000907662
-2.62408e-05
0.00091991
-2.53975e-05
0.000931795
-2.46613e-05
0.000943363
-2.40238e-05
0.000954658
-2.34762e-05
0.000965718
-2.30092e-05
0.000976578
-2.26126e-05
0.000987266
-2.22755e-05
0.000997805
-2.19849e-05
0.00100821
-2.17252e-05
0.00101849
-2.14765e-05
0.00102865
-2.12129e-05
0.00103866
-2.09006e-05
0.00104848
-2.04936e-05
0.00105807
-1.99303e-05
0.0010673
-1.91284e-05
0.00107606
-1.79795e-05
0.00108412
-1.63436e-05
0.00109121
-1.4045e-05
0.00109694
-1.08697e-05
0.00110083
-6.56918e-06
0.00110223
-8.76177e-07
0.00110038
6.4638e-06
0.00109437
1.56362e-05
0.0010832
2.66709e-05
0.00106594
3.93179e-05
0.00104185
5.29222e-05
0.00101073
6.64083e-05
0.000968248
8.85518e-05
0.000922717
9.35627e-05
7.37567e-05
4.96972e-05
1.86805e-06
4.98012e-05
1.25051e-06
5.08299e-05
-2.02502e-06
5.24002e-05
-4.34963e-06
5.41243e-05
-5.41048e-06
5.57906e-05