/*--------------------------------*- C++ -*----------------------------------*\
| =========                 |                                                 |
| \\      /  F ield         | OpenFOAM: The Open Source CFD Toolbox           |
|  \\    /   O peration     | Version:  2212                                  |
|   \\  /    A nd           | Website:  www.openfoam.com                      |
|    \\/     M anipulation  |                                                 |
\*---------------------------------------------------------------------------*/
FoamFile
{
    version     2.0;
    format      ascii;
    arch        "LSB;label=32;scalar=64";
    class       volVectorField;
    location    "40";
    object      U;
}
// * * * * * * * * * * * * * * * * * * * * * * * * * * * * * * * * * * * * * //

dimensions      [0 1 -1 0 0 0 0];

internalField   nonuniform List<vector> 
2000
(
(0.734063 0.121672 0)
(0.65539 0.105112 0)
(0.534211 0.058068 0)
(0.447553 0.0289565 0)
(0.403635 0.0152418 0)
(0.379238 0.0102988 0)
(0.361851 0.00985932 0)
(0.346065 0.0115397 0)
(0.32912 0.0141356 0)
(0.309497 0.0170892 0)
(0.28635 0.0201602 0)
(0.259165 0.0232575 0)
(0.227595 0.0263588 0)
(0.191356 0.0294708 0)
(0.150186 0.032614 0)
(0.10383 0.0358112 0)
(0.0520176 0.0390856 0)
(-0.00553515 0.0424602 0)
(-0.0691319 0.0459565 0)
(-0.139098 0.0495949 0)
(-0.215785 0.0533952 0)
(-0.299568 0.0573774 0)
(-0.390855 0.0615616 0)
(-0.490085 0.065969 0)
(-0.597732 0.0706212 0)
(-0.71431 0.075541 0)
(-0.840374 0.080752 0)
(-0.976519 0.0862782 0)
(-1.12339 0.0921435 0)
(-1.28167 0.098371 0)
(-1.4521 0.104982 0)
(-1.63542 0.111992 0)
(-1.83245 0.119415 0)
(-2.04399 0.127253 0)
(-2.27084 0.135499 0)
(-2.5138 0.144133 0)
(-2.77359 0.153117 0)
(-3.05086 0.162396 0)
(-3.34614 0.171894 0)
(-3.65978 0.181513 0)
(-3.99194 0.191135 0)
(-4.34252 0.200621 0)
(-4.71115 0.20982 0)
(-5.09714 0.218565 0)
(-5.49949 0.226689 0)
(-5.91686 0.234025 0)
(-6.3476 0.240418 0)
(-6.78976 0.245733 0)
(-7.24115 0.249857 0)
(-7.69941 0.252714 0)
(-8.16203 0.254259 0)
(-8.62647 0.254487 0)
(-9.09018 0.253431 0)
(-9.55074 0.251156 0)
(-10.0059 0.24776 0)
(-10.4535 0.243364 0)
(-10.8919 0.238108 0)
(-11.3195 0.232141 0)
(-11.7351 0.225619 0)
(-12.1378 0.218692 0)
(-12.527 0.211504 0)
(-12.9022 0.204186 0)
(-13.2635 0.196856 0)
(-13.6109 0.189613 0)
(-13.9447 0.18254 0)
(-14.2654 0.175705 0)
(-14.5734 0.169155 0)
(-14.8695 0.162928 0)
(-15.1542 0.157046 0)
(-15.4283 0.151521 0)
(-15.6925 0.146356 0)
(-15.9476 0.141546 0)
(-16.1941 0.137081 0)
(-16.4329 0.132944 0)
(-16.6644 0.129116 0)
(-16.8893 0.125574 0)
(-17.1081 0.122292 0)
(-17.3214 0.11924 0)
(-17.5294 0.116387 0)
(-17.7327 0.113695 0)
(-17.9314 0.111126 0)
(-18.1258 0.108634 0)
(-18.3159 0.106171 0)
(-18.5019 0.103682 0)
(-18.6836 0.101109 0)
(-18.8608 0.0983927 0)
(-19.033 0.0954714 0)
(-19.2 0.0922891 0)
(-19.361 0.0887968 0)
(-19.5153 0.0849549 0)
(-19.662 0.0807252 0)
(-19.8001 0.0760327 0)
(-19.9281 0.070646 0)
(-20.0441 0.0639795 0)
(-20.1424 0.054564 0)
(-20.2125 0.038998 0)
(-20.245 0.0192449 0)
(-20.0591 -0.0386164 0)
(-20.0234 -0.0586191 0)
(-19.2243 0.156987 0)
(1.00834 0.220092 0)
(1.05269 0.223363 0)
(1.00189 0.151457 0)
(0.923798 0.0937966 0)
(0.860227 0.057957 0)
(0.811248 0.0391621 0)
(0.772001 0.0315024 0)
(0.738348 0.0304604 0)
(0.706914 0.0331954 0)
(0.675086 0.0381106 0)
(0.640951 0.04435 0)
(0.603101 0.0514679 0)
(0.560466 0.0592444 0)
(0.512186 0.067576 0)
(0.457533 0.0764257 0)
(0.395857 0.0857892 0)
(0.326553 0.0956804 0)
(0.249039 0.106125 0)
(0.162739 0.117156 0)
(0.0670652 0.12881 0)
(-0.0385841 0.141133 0)
(-0.15484 0.154171 0)
(-0.28237 0.167979 0)
(-0.421881 0.182617 0)
(-0.574134 0.198149 0)
(-0.739944 0.214645 0)
(-0.920186 0.232179 0)
(-1.1158 0.250829 0)
(-1.3278 0.270673 0)
(-1.55726 0.291787 0)
(-1.80533 0.31424 0)
(-2.07318 0.33809 0)
(-2.36207 0.363377 0)
(-2.67324 0.390115 0)
(-3.00795 0.418282 0)
(-3.36739 0.44781 0)
(-3.75268 0.478577 0)
(-4.1648 0.510398 0)
(-4.60451 0.543019 0)
(-5.07232 0.57611 0)
(-5.56839 0.60927 0)
(-6.09251 0.642031 0)
(-6.64398 0.673868 0)
(-7.22166 0.704217 0)
(-7.82386 0.732491 0)
(-8.4484 0.758115 0)
(-9.09259 0.780542 0)
(-9.75332 0.79929 0)
(-10.4271 0.813963 0)
(-11.1101 0.824272 0)
(-11.7985 0.830053 0)
(-12.4881 0.831269 0)
(-13.1752 0.828019 0)
(-13.8559 0.820522 0)
(-14.5268 0.809107 0)
(-15.1848 0.794193 0)
(-15.8271 0.776265 0)
(-16.4516 0.755848 0)
(-17.0566 0.733485 0)
(-17.6409 0.709712 0)
(-18.2036 0.685038 0)
(-18.7444 0.659931 0)
(-19.2634 0.63481 0)
(-19.7609 0.610031 0)
(-20.2376 0.58589 0)
(-20.6943 0.562624 0)
(-21.132 0.540408 0)
(-21.5519 0.519369 0)
(-21.955 0.499586 0)
(-22.3425 0.481099 0)
(-22.7158 0.463915 0)
(-23.076 0.448014 0)
(-23.4241 0.433354 0)
(-23.7613 0.419875 0)
(-24.0886 0.407508 0)
(-24.4069 0.39617 0)
(-24.7171 0.385769 0)
(-25.0199 0.376204 0)
(-25.316 0.367364 0)
(-25.6059 0.359127 0)
(-25.89 0.351355 0)
(-26.1688 0.343896 0)
(-26.4422 0.336579 0)
(-26.7103 0.329212 0)
(-26.9728 0.32158 0)
(-27.2292 0.313441 0)
(-27.4787 0.304529 0)
(-27.7201 0.294557 0)
(-27.9518 0.283219 0)
(-28.1715 0.270187 0)
(-28.3763 0.255082 0)
(-28.5624 0.237385 0)
(-28.7244 0.216158 0)
(-28.8558 0.189384 0)
(-28.945 0.152527 0)
(-28.971 0.0940937 0)
(-28.9994 -0.00150463 0)
(-28.5516 -0.212773 0)
(-28.8756 -0.656233 0)
(-27.6873 -0.305868 0)
(1.03904 0.142822 0)
(1.12067 0.198986 0)
(1.13984 0.186216 0)
(1.10902 0.15059 0)
(1.06266 0.114672 0)
(1.01552 0.0883987 0)
(0.973318 0.072851 0)
(0.937238 0.0660161 0)
(0.906402 0.0655188 0)
(0.879157 0.0695073 0)
(0.853749 0.0767128 0)
(0.828593 0.0863123 0)
(0.802329 0.0977893 0)
(0.773804 0.110827 0)
(0.742039 0.125237 0)
(0.706192 0.140911 0)
(0.665518 0.157796 0)
(0.619349 0.175877 0)
(0.567063 0.195166 0)
(0.508072 0.215698 0)
(0.441795 0.237526 0)
(0.367654 0.26072 0)
(0.285055 0.285365 0)
(0.193383 0.311561 0)
(0.0919866 0.339422 0)
(-0.0198245 0.369071 0)
(-0.142789 0.400643 0)
(-0.277697 0.434278 0)
(-0.425393 0.470119 0)
(-0.586778 0.508305 0)
(-0.762804 0.54896 0)
(-0.954465 0.592187 0)
(-1.16279 0.638055 0)
(-1.38881 0.686578 0)
(-1.63356 0.737703 0)
(-1.89801 0.791288 0)
(-2.18305 0.84709 0)
(-2.48945 0.90474 0)
(-2.81775 0.963742 0)
(-3.16827 1.02346 0)
(-3.54102 1.08312 0)
(-3.93564 1.14183 0)
(-4.35139 1.1986 0)
(-4.78708 1.25235 0)
(-5.24107 1.30201 0)
(-5.7113 1.34651 0)
(-6.19529 1.38485 0)
(-6.69023 1.41617 0)
(-7.19301 1.4398 0)
(-7.70036 1.45526 0)
(-8.20891 1.46231 0)
(-8.71535 1.46097 0)
(-9.21647 1.4515 0)
(-9.70932 1.4344 0)
(-10.1913 1.41035 0)
(-10.66 1.38019 0)
(-11.1138 1.34489 0)
(-11.5511 1.30546 0)
(-11.971 1.26292 0)
(-12.373 1.21828 0)
(-12.7568 1.17247 0)
(-13.1228 1.12634 0)
(-13.4713 1.08063 0)
(-13.803 1.03597 0)
(-14.1189 0.992853 0)
(-14.4198 0.951666 0)
(-14.7069 0.912686 0)
(-14.9814 0.876097 0)
(-15.2443 0.841998 0)
(-15.4967 0.810421 0)
(-15.7397 0.781337 0)
(-15.9744 0.754673 0)
(-16.2016 0.730325 0)
(-16.4224 0.708158 0)
(-16.6374 0.688023 0)
(-16.8473 0.669752 0)
(-17.053 0.653161 0)
(-17.2549 0.638052 0)
(-17.4534 0.624209 0)
(-17.649 0.61139 0)
(-17.8419 0.599328 0)
(-18.0322 0.587717 0)
(-18.2199 0.576206 0)
(-18.4047 0.564382 0)
(-18.5861 0.55176 0)
(-18.7632 0.537753 0)
(-18.9346 0.521656 0)
(-19.0985 0.502615 0)
(-19.2519 0.479581 0)
(-19.3909 0.451234 0)
(-19.51 0.415845 0)
(-19.6017 0.371022 0)
(-19.6552 0.3132 0)
(-19.6559 0.236464 0)
(-19.5813 0.1308 0)
(-19.3981 -0.0215854 0)
(-19.1016 -0.26 0)
(-18.4016 -0.64108 0)
(-17.5182 -1.48821 0)
(-15.8498 -1.56256 0)
(1.02986 0.0606154 0)
(1.10509 0.129365 0)
(1.15525 0.172251 0)
(1.16368 0.173341 0)
(1.14696 0.152955 0)
(1.11902 0.129401 0)
(1.08901 0.110428 0)
(1.06152 0.0981902 0)
(1.03834 0.0924863 0)
(1.01961 0.0923967 0)
(1.00463 0.0969354 0)
(0.992385 0.105265 0)
(0.981824 0.116734 0)
(0.971937 0.130863 0)
(0.961822 0.14731 0)
(0.950687 0.165837 0)
(0.937842 0.186285 0)
(0.922682 0.208561 0)
(0.904669 0.23262 0)
(0.883316 0.258462 0)
(0.858172 0.28612 0)
(0.828803 0.315659 0)
(0.794784 0.347173 0)
(0.755686 0.38078 0)
(0.711066 0.41662 0)
(0.660461 0.454854 0)
(0.603381 0.495654 0)
(0.539303 0.539208 0)
(0.46767 0.585703 0)
(0.38789 0.635323 0)
(0.299336 0.688235 0)
(0.201352 0.744573 0)
(0.093264 0.804423 0)
(-0.0256097 0.867797 0)
(-0.155938 0.934613 0)
(-0.298353 1.00466 0)
(-0.453419 1.0776 0)
(-0.621597 1.15291 0)
(-0.803205 1.22989 0)
(-0.998376 1.30766 0)
(-1.20701 1.38514 0)
(-1.42877 1.46111 0)
(-1.66298 1.53419 0)
(-1.90871 1.60293 0)
(-2.16469 1.66587 0)
(-2.42935 1.72158 0)
(-2.70088 1.76876 0)
(-2.97724 1.80631 0)
(-3.25624 1.83336 0)
(-3.53562 1.84938 0)
(-3.81315 1.85415 0)
(-4.08665 1.8478 0)
(-4.35414 1.83082 0)
(-4.61385 1.80397 0)
(-4.86429 1.76828 0)
(-5.1043 1.72498 0)
(-5.33305 1.67542 0)
(-5.55 1.621 0)
(-5.75497 1.56313 0)
(-5.94803 1.50314 0)
(-6.12949 1.44228 0)
(-6.29987 1.38164 0)
(-6.45983 1.32214 0)
(-6.61016 1.26457 0)
(-6.7517 1.2095 0)
(-6.88533 1.1574 0)
(-7.01193 1.10854 0)
(-7.13238 1.06312 0)
(-7.24749 1.02118 0)
(-7.35805 0.982727 0)
(-7.46477 0.94766 0)
(-7.56833 0.915844 0)
(-7.66932 0.887101 0)
(-7.76828 0.861229 0)
(-7.86568 0.838003 0)
(-7.96194 0.817183 0)
(-8.05743 0.798509 0)
(-8.15241 0.781702 0)
(-8.24713 0.766453 0)
(-8.3417 0.752422 0)
(-8.43617 0.739219 0)
(-8.53042 0.726387 0)
(-8.6242 0.713379 0)
(-8.71699 0.699521 0)
(-8.80796 0.683972 0)
(-8.8958 0.665675 0)
(-8.97863 0.643276 0)
(-9.05366 0.615036 0)
(-9.11698 0.57869 0)
(-9.16306 0.531241 0)
(-9.18421 0.468647 0)
(-9.16987 0.385318 0)
(-9.10561 0.273197 0)
(-8.97203 0.119979 0)
(-8.74258 -0.0942082 0)
(-8.38499 -0.404579 0)
(-7.90624 -0.871915 0)
(-7.11307 -1.69678 0)
(-5.64213 -2.74105 0)
(-5.29182 -2.55553 0)
(1.01756 0.00627186 0)
(1.07226 0.0608841 0)
(1.12536 0.132898 0)
(1.15496 0.16347 0)
(1.16354 0.162298 0)
(1.15834 0.148007 0)
(1.14675 0.1312 0)
(1.13374 0.117036 0)
(1.12233 0.10757 0)
(1.11399 0.103293 0)
(1.10915 0.103988 0)
(1.10764 0.10918 0)
(1.10903 0.11834 0)
(1.11277 0.130982 0)
(1.11831 0.146699 0)
(1.12512 0.165168 0)
(1.13273 0.186144 0)
(1.14074 0.209457 0)
(1.14882 0.235 0)
(1.15665 0.262723 0)
(1.16399 0.292624 0)
(1.1706 0.324747 0)
(1.17628 0.359174 0)
(1.18082 0.396023 0)
(1.18404 0.43544 0)
(1.18574 0.477597 0)
(1.18573 0.52269 0)
(1.18378 0.570924 0)
(1.17967 0.622515 0)
(1.17318 0.67767 0)
(1.16404 0.73658 0)
(1.15199 0.799398 0)
(1.13677 0.866219 0)
(1.11809 0.937051 0)
(1.09569 1.01179 0)
(1.06931 1.0902 0)
(1.03875 1.17185 0)
(1.00383 1.25613 0)
(0.964471 1.34221 0)
(0.920673 1.42905 0)
(0.87255 1.51539 0)
(0.820348 1.59977 0)
(0.764456 1.68059 0)
(0.705408 1.75618 0)
(0.643882 1.82483 0)
(0.580681 1.88492 0)
(0.516715 1.93498 0)
(0.452961 1.97379 0)
(0.390426 2.00043 0)
(0.3301 2.01438 0)
(0.27291 2.0155 0)
(0.219681 2.00406 0)
(0.171095 1.98072 0)
(0.12767 1.94649 0)
(0.0897382 1.90265 0)
(0.0574466 1.8507 0)
(0.0307605 1.79225 0)
(0.00948254 1.72895 0)
(-0.00672368 1.66241 0)
(-0.0183046 1.59418 0)
(-0.025787 1.52561 0)
(-0.0297479 1.45792 0)
(-0.0307877 1.3921 0)
(-0.0295052 1.32895 0)
(-0.0264775 1.26907 0)
(-0.0222448 1.2129 0)
(-0.0173 1.16068 0)
(-0.0120843 1.11255 0)
(-0.00698642 1.06853 0)
(-0.00234414 1.02853 0)
(0.00155432 0.992409 0)
(0.00446782 0.959973 0)
(0.00619842 0.930989 0)
(0.00658597 0.905206 0)
(0.00550321 0.88235 0)
(0.00285383 0.86213 0)
(-0.00142591 0.844234 0)
(-0.00736209 0.828326 0)
(-0.014934 0.814033 0)
(-0.0240596 0.800928 0)
(-0.0345732 0.788512 0)
(-0.0461901 0.776173 0)
(-0.0584514 0.763143 0)
(-0.0706448 0.748443 0)
(-0.0816998 0.730803 0)
(-0.0900463 0.708568 0)
(-0.0934213 0.679562 0)
(-0.0886182 0.640913 0)
(-0.0711724 0.588825 0)
(-0.0349773 0.518257 0)
(0.0281476 0.42249 0)
(0.128888 0.292504 0)
(0.280731 0.116028 0)
(0.499637 -0.124002 0)
(0.802674 -0.451798 0)
(1.20255 -0.902166 0)
(1.55127 -1.51295 0)
(2.36729 -2.5545 0)
(3.4045 -3.37558 0)
(2.51894 -2.90133 0)
(1.00762 -0.0244107 0)
(1.03973 0.0101493 0)
(1.08158 0.0898726 0)
(1.11753 0.136625 0)
(1.14207 0.150396 0)
(1.15582 0.146327 0)
(1.16246 0.134765 0)
(1.16542 0.121978 0)
(1.16748 0.111378 0)
(1.17053 0.104585 0)
(1.17567 0.102175 0)
(1.18346 0.104163 0)
(1.19412 0.110296 0)
(1.20767 0.120216 0)
(1.22403 0.133553 0)
(1.24308 0.149971 0)
(1.26472 0.169191 0)
(1.28884 0.190998 0)
(1.31537 0.215238 0)
(1.34427 0.241822 0)
(1.37554 0.270714 0)
(1.40918 0.301929 0)
(1.44523 0.335529 0)
(1.48376 0.371616 0)
(1.52484 0.410326 0)
(1.56857 0.451825 0)
(1.61503 0.496305 0)
(1.66436 0.543972 0)
(1.71667 0.595044 0)
(1.77211 0.649731 0)
(1.8308 0.708229 0)
(1.89291 0.770695 0)
(1.95858 0.837223 0)
(2.02795 0.907824 0)
(2.10119 0.982389 0)
(2.17844 1.06066 0)
(2.25984 1.1422 0)
(2.34552 1.22637 0)
(2.43562 1.31231 0)
(2.53023 1.39892 0)
(2.62944 1.48489 0)
(2.73333 1.56871 0)
(2.84192 1.64872 0)
(2.95522 1.72319 0)
(3.07319 1.79037 0)
(3.19573 1.8486 0)
(3.32268 1.8964 0)
(3.45382 1.93258 0)
(3.58884 1.95625 0)
(3.72736 1.96696 0)
(3.86891 1.96466 0)
(4.01293 1.94972 0)
(4.15883 1.92293 0)
(4.30592 1.88541 0)
(4.45349 1.83857 0)
(4.60083 1.78399 0)
(4.74719 1.72337 0)
(4.8919 1.65843 0)
(5.03429 1.59081 0)
(5.17379 1.52206 0)
(5.3099 1.45353 0)
(5.44218 1.3864 0)
(5.57031 1.32161 0)
(5.69405 1.25992 0)
(5.81325 1.20186 0)
(5.92783 1.14779 0)
(6.03779 1.09792 0)
(6.14319 1.05232 0)
(6.24412 1.01093 0)
(6.34071 0.97365 0)
(6.43314 0.940285 0)
(6.52158 0.910613 0)
(6.60622 0.88438 0)
(6.68728 0.861312 0)
(6.76493 0.84112 0)
(6.83939 0.823492 0)
(6.91083 0.808099 0)
(6.97948 0.794575 0)
(7.04555 0.782511 0)
(7.10928 0.771421 0)
(7.17097 0.760712 0)
(7.231 0.749628 0)
(7.28991 0.737194 0)
(7.34841 0.722126 0)
(7.40752 0.702726 0)
(7.46867 0.676743 0)
(7.53386 0.641193 0)
(7.60577 0.592139 0)
(7.68802 0.524428 0)
(7.78522 0.43138 0)
(7.90306 0.304431 0)
(8.048 0.132785 0)
(8.22649 -0.0968825 0)
(8.44287 -0.400446 0)
(8.69529 -0.795394 0)
(8.96968 -1.29733 0)
(8.92915 -1.90491 0)
(9.76411 -2.89338 0)
(10.0064 -3.40504 0)
(8.27792 -2.78491 0)
(1.00024 -0.0371318 0)
(1.0124 -0.0194004 0)
(1.03832 0.0537013 0)
(1.07196 0.103619 0)
(1.10423 0.12479 0)
(1.13106 0.12807 0)
(1.1526 0.121913 0)
(1.17004 0.112174 0)
(1.18504 0.102552 0)
(1.19918 0.0951729 0)
(1.21373 0.0911009 0)
(1.22963 0.0907394 0)
(1.24761 0.0941054 0)
(1.2682 0.101015 0)
(1.29182 0.1112 0)
(1.31878 0.124373 0)
(1.34938 0.140274 0)
(1.38385 0.158684 0)
(1.42245 0.179438 0)
(1.46542 0.202426 0)
(1.51302 0.227591 0)
(1.56551 0.254925 0)
(1.6232 0.284467 0)
(1.68638 0.316294 0)
(1.7554 0.35052 0)
(1.83062 0.38729 0)
(1.91244 0.426771 0)
(2.00128 0.46915 0)
(2.09759 0.514622 0)
(2.20186 0.563381 0)
(2.31461 0.615606 0)
(2.43636 0.671441 0)
(2.56767 0.730974 0)
(2.70911 0.794217 0)
(2.86122 0.861069 0)
(3.02453 0.931294 0)
(3.19952 1.00449 0)
(3.38662 1.08006 0)
(3.58614 1.15722 0)
(3.79829 1.23493 0)
(4.0231 1.312 0)
(4.26045 1.387 0)
(4.51 1.45843 0)
(4.77121 1.52466 0)
(5.0433 1.58409 0)
(5.32526 1.63521 0)
(5.61586 1.67669 0)
(5.91369 1.70745 0)
(6.21715 1.72673 0)
(6.52454 1.73417 0)
(6.83406 1.72978 0)
(7.1439 1.714 0)
(7.45228 1.68759 0)
(7.75747 1.65168 0)
(8.0579 1.60759 0)
(8.35215 1.55683 0)
(8.639 1.50099 0)
(8.91744 1.44164 0)
(9.18668 1.3803 0)
(9.44619 1.31833 0)
(9.69562 1.25697 0)
(9.93483 1.19723 0)
(10.1639 1.13994 0)
(10.3829 1.0857 0)
(10.5923 1.03497 0)
(10.7924 0.988016 0)
(10.9838 0.944985 0)
(11.1669 0.90589 0)
(11.3424 0.87066 0)
(11.5108 0.839151 0)
(11.6727 0.811175 0)
(11.8287 0.786512 0)
(11.9792 0.764919 0)
(12.1248 0.746135 0)
(12.2659 0.729885 0)
(12.4031 0.715873 0)
(12.5366 0.703785 0)
(12.6669 0.693268 0)
(12.7944 0.683907 0)
(12.9192 0.675199 0)
(13.0419 0.666504 0)
(13.1626 0.656986 0)
(13.2818 0.645541 0)
(13.3999 0.630695 0)
(13.5173 0.61048 0)
(13.6348 0.582281 0)
(13.7529 0.542649 0)
(13.8727 0.487107 0)
(13.9951 0.409944 0)
(14.1208 0.304052 0)
(14.2503 0.160874 0)
(14.3824 -0.0293921 0)
(14.5132 -0.277091 0)
(14.6338 -0.591534 0)
(14.7259 -0.977716 0)
(14.7605 -1.43064 0)
(14.2339 -1.92565 0)
(15.1434 -2.715 0)
(14.6152 -2.99014 0)
(12.3324 -2.38499 0)
(0.994979 -0.0362178 0)
(0.991461 -0.0293799 0)
(1.00226 0.0280509 0)
(1.03017 0.0707943 0)
(1.06489 0.0918699 0)
(1.09957 0.0982883 0)
(1.13175 0.0960423 0)
(1.16054 0.0896721 0)
(1.18632 0.0823233 0)
(1.20998 0.0759904 0)
(1.23259 0.0718127 0)
(1.25521 0.0703448 0)
(1.27886 0.0717622 0)
(1.30446 0.0760205 0)
(1.3328 0.0829612 0)
(1.3646 0.0923809 0)
(1.40051 0.104075 0)
(1.44112 0.117862 0)
(1.48695 0.133596 0)
(1.53853 0.151176 0)
(1.59636 0.170541 0)
(1.66095 0.191671 0)
(1.73281 0.214587 0)
(1.81247 0.23934 0)
(1.90051 0.266014 0)
(1.99751 0.29472 0)
(2.10411 0.325587 0)
(2.221 0.358761 0)
(2.3489 0.394399 0)
(2.48861 0.432656 0)
(2.64094 0.473674 0)
(2.80677 0.51757 0)
(2.98697 0.564419 0)
(3.18247 0.614228 0)
(3.39415 0.666921 0)
(3.62287 0.722309 0)
(3.86942 0.78007 0)
(4.13445 0.839727 0)
(4.41846 0.900636 0)
(4.72174 0.961978 0)
(5.04428 1.02277 0)
(5.3858 1.08188 0)
(5.74564 1.13806 0)
(6.12277 1.19004 0)
(6.51577 1.2365 0)
(6.92284 1.27626 0)
(7.34183 1.30823 0)
(7.77028 1.33158 0)
(8.2055 1.34572 0)
(8.64465 1.35039 0)
(9.08482 1.34564 0)
(9.52314 1.33186 0)
(9.95687 1.30972 0)
(10.3835 1.28013 0)
(10.8007 1.24422 0)
(11.2066 1.2032 0)
(11.5996 1.15837 0)
(11.9786 1.111 0)
(12.3428 1.06229 0)
(12.6916 1.01333 0)
(13.0251 0.965076 0)
(13.3433 0.918312 0)
(13.6467 0.873662 0)
(13.9359 0.831593 0)
(14.2116 0.792426 0)
(14.4747 0.756352 0)
(14.726 0.723452 0)
(14.9667 0.693714 0)
(15.1975 0.667058 0)
(15.4194 0.643356 0)
(15.6333 0.622447 0)
(15.8401 0.604148 0)
(16.0406 0.588255 0)
(16.2355 0.574555 0)
(16.4254 0.562817 0)
(16.6111 0.5528 0)
(16.7931 0.544242 0)
(16.9718 0.536839 0)
(17.1476 0.530229 0)
(17.3209 0.523953 0)
(17.4918 0.517416 0)
(17.6606 0.509833 0)
(17.8271 0.500145 0)
(17.9912 0.486935 0)
(18.1523 0.468309 0)
(18.3097 0.44176 0)
(18.462 0.40403 0)
(18.6075 0.350978 0)
(18.7431 0.27749 0)
(18.8647 0.17752 0)
(18.9662 0.0443397 0)
(19.0389 -0.128817 0)
(19.0702 -0.347501 0)
(19.0426 -0.613961 0)
(18.9325 -0.923955 0)
(18.7132 -1.26306 0)
(17.7583 -1.60465 0)
(18.8034 -2.15454 0)
(17.6863 -2.28786 0)
(15.0458 -1.8065 0)
(0.99154 -0.025617 0)
(0.977288 -0.0240685 0)
(0.976754 0.012282 0)
(0.999103 0.0406832 0)
(1.0338 0.0557707 0)
(1.07258 0.061407 0)
(1.11134 0.0610996 0)
(1.14776 0.057662 0)
(1.18113 0.0531562 0)
(1.21169 0.0489673 0)
(1.24021 0.0459409 0)
(1.26772 0.0445294 0)
(1.29534 0.0449192 0)
(1.32422 0.04713 0)
(1.35544 0.0510883 0)
(1.38998 0.0566774 0)
(1.42877 0.0637701 0)
(1.47263 0.0722483 0)
(1.52235 0.0820141 0)
(1.57864 0.0929956 0)
(1.6422 0.105148 0)
(1.71372 0.118453 0)
(1.79387 0.132918 0)
(1.88336 0.148574 0)
(1.98291 0.16547 0)
(2.0933 0.183673 0)
(2.21533 0.203267 0)
(2.34988 0.224345 0)
(2.49787 0.247006 0)
(2.66031 0.271351 0)
(2.83823 0.297472 0)
(3.03274 0.325447 0)
(3.24498 0.355322 0)
(3.47611 0.387106 0)
(3.72727 0.420749 0)
(3.99956 0.456131 0)
(4.29398 0.493046 0)
(4.61138 0.531184 0)
(4.95239 0.57013 0)
(5.31735 0.609353 0)
(5.70626 0.648213 0)
(6.11869 0.685976 0)
(6.55377 0.721838 0)
(7.01012 0.754959 0)
(7.48586 0.784505 0)
(7.9786 0.809693 0)
(8.48551 0.829837 0)
(9.00339 0.844397 0)
(9.52874 0.853008 0)
(10.0579 0.85551 0)
(10.5872 0.851956 0)
(11.1129 0.842609 0)
(11.6317 0.827921 0)
(12.1405 0.808505 0)
(12.6364 0.785091 0)
(13.1174 0.758487 0)
(13.5815 0.729529 0)
(14.0276 0.699041 0)
(14.4549 0.667799 0)
(14.8631 0.636502 0)
(15.2521 0.605749 0)
(15.6226 0.576035 0)
(15.9751 0.547752 0)
(16.3105 0.521186 0)
(16.63 0.496533 0)
(16.9347 0.473902 0)
(17.2258 0.45333 0)
(17.5045 0.434798 0)
(17.7722 0.418246 0)
(18.0299 0.403588 0)
(18.2788 0.390716 0)
(18.5199 0.379509 0)
(18.7543 0.36983 0)
(18.9828 0.361537 0)
(19.2063 0.354478 0)
(19.4255 0.348496 0)
(19.6409 0.343416 0)
(19.8532 0.339031 0)
(20.0628 0.335086 0)
(20.2698 0.331257 0)
(20.4744 0.327116 0)
(20.6764 0.322092 0)
(20.8752 0.315412 0)
(21.0699 0.306036 0)
(21.259 0.29258 0)
(21.44 0.273232 0)
(21.6097 0.24566 0)
(21.7632 0.206958 0)
(21.8939 0.153653 0)
(21.9934 0.0818303 0)
(22.0503 -0.0125263 0)
(22.0505 -0.132895 0)
(21.977 -0.281138 0)
(21.8101 -0.455969 0)
(21.5291 -0.651102 0)
(21.1177 -0.853961 0)
(19.8694 -1.04715 0)
(21.06 -1.36603 0)
(19.5635 -1.42376 0)
(16.7071 -1.12114 0)
(0.98983 -0.00919707 0)
(0.970123 -0.00913425 0)
(0.963589 0.00328054 0)
(0.982675 0.013199 0)
(1.01687 0.0186398 0)
(1.05731 0.020831 0)
(1.09917 0.0209198 0)
(1.13937 0.0198545 0)
(1.17664 0.0183478 0)
(1.21082 0.0168911 0)
(1.24247 0.0157955 0)
(1.27255 0.0152324 0)
(1.30224 0.015279 0)
(1.33278 0.0159509 0)
(1.36536 0.0172283 0)
(1.40114 0.0190734 0)
(1.44117 0.0214434 0)
(1.48641 0.0242975 0)
(1.53777 0.0276015 0)
(1.59609 0.0313295 0)
(1.66216 0.0354654 0)
(1.73677 0.040002 0)
(1.82068 0.044941 0)
(1.91469 0.0502915 0)
(2.01961 0.0560701 0)
(2.1363 0.0622992 0)
(2.26566 0.069007 0)
(2.40866 0.0762256 0)
(2.56634 0.0839897 0)
(2.73979 0.0923343 0)
(2.93019 0.101292 0)
(3.13875 0.110889 0)
(3.36675 0.121144 0)
(3.61547 0.132058 0)
(3.8862 0.143615 0)
(4.18016 0.155775 0)
(4.49846 0.168466 0)
(4.84206 0.181582 0)
(5.21165 0.194981 0)
(5.60761 0.208477 0)
(6.02994 0.221849 0)
(6.47816 0.23484 0)
(6.95127 0.247172 0)
(7.4477 0.258553 0)
(7.96535 0.268694 0)
(8.50151 0.277323 0)
(9.053 0.284203 0)
(9.61623 0.289147 0)
(10.1873 0.29203 0)
(10.762 0.2928 0)
(11.3364 0.291478 0)
(11.9063 0.288158 0)
(12.4681 0.283 0)
(13.0182 0.276219 0)
(13.5538 0.26807 0)
(14.0725 0.258837 0)
(14.5723 0.248811 0)
(15.052 0.238277 0)
(15.5108 0.227505 0)
(15.9485 0.216732 0)
(16.3653 0.206163 0)
(16.7617 0.195967 0)
(17.1386 0.186277 0)
(17.4971 0.177193 0)
(17.8384 0.16878 0)
(18.1638 0.16107 0)
(18.4747 0.154072 0)
(18.7726 0.147774 0)
(19.0587 0.142157 0)
(19.3344 0.137193 0)
(19.6009 0.132843 0)
(19.8595 0.129064 0)
(20.111 0.125803 0)
(20.3567 0.12301 0)
(20.5972 0.120635 0)
(20.8335 0.118623 0)
(21.0661 0.116914 0)
(21.2957 0.115432 0)
(21.5226 0.114088 0)
(21.747 0.112764 0)
(21.9688 0.111305 0)
(22.1877 0.109499 0)
(22.4027 0.107065 0)
(22.6125 0.103617 0)
(22.8148 0.09865 0)
(23.0062 0.0915027 0)
(23.182 0.0813317 0)
(23.3356 0.0670981 0)
(23.4584 0.0475841 0)
(23.5391 0.0214576 0)
(23.5639 -0.0125751 0)
(23.5162 -0.0555108 0)
(23.3776 -0.107641 0)
(23.129 -0.16801 0)
(22.7538 -0.233877 0)
(22.2435 -0.300513 0)
(20.8515 -0.362161 0)
(22.134 -0.466087 0)
(20.4543 -0.481855 0)
(17.4956 -0.379097 0)
(0.989829 0.00916774 0)
(0.970121 0.00907841 0)
(0.963588 -0.00333397 0)
(0.982672 -0.013247 0)
(1.01686 -0.0186841 0)
(1.05731 -0.0208716 0)
(1.09916 -0.0209583 0)
(1.13937 -0.0198908 0)
(1.17663 -0.0183825 0)
(1.21081 -0.0169256 0)
(1.24246 -0.01583 0)
(1.27255 -0.0152675 0)
(1.30224 -0.0153147 0)
(1.33277 -0.0159871 0)
(1.36536 -0.0172651 0)
(1.40114 -0.0191114 0)
(1.44116 -0.0214833 0)
(1.48641 -0.0243403 0)
(1.53777 -0.0276478 0)
(1.59608 -0.0313797 0)
(1.66215 -0.0355191 0)
(1.73676 -0.0400588 0)
(1.82068 -0.0450006 0)
(1.91469 -0.0503545 0)
(2.01961 -0.0561381 0)
(2.13629 -0.0623747 0)
(2.26565 -0.0690925 0)
(2.40865 -0.0763233 0)
(2.56632 -0.0841007 0)
(2.73978 -0.0924582 0)
(2.93017 -0.101427 0)
(3.13873 -0.111034 0)
(3.36673 -0.121294 0)
(3.61545 -0.132211 0)
(3.88618 -0.143767 0)
(4.18013 -0.155921 0)
(4.49843 -0.168599 0)
(4.84203 -0.181694 0)
(5.21162 -0.195063 0)
(5.60758 -0.208523 0)
(6.02991 -0.221855 0)
(6.47813 -0.234805 0)
(6.95124 -0.247098 0)
(7.44768 -0.258444 0)
(7.96533 -0.268556 0)
(8.50149 -0.277166 0)
(9.05299 -0.284039 0)
(9.61621 -0.28899 0)
(10.1873 -0.291896 0)
(10.762 -0.292702 0)
(11.3364 -0.291429 0)
(11.9063 -0.28817 0)
(12.4681 -0.283084 0)
(13.0182 -0.276382 0)
(13.5538 -0.268317 0)
(14.0724 -0.259166 0)
(14.5722 -0.249217 0)
(15.0519 -0.238753 0)
(15.5107 -0.228041 0)
(15.9484 -0.217324 0)
(16.3652 -0.206808 0)
(16.7616 -0.196662 0)
(17.1385 -0.187015 0)
(17.4969 -0.177963 0)
(17.8382 -0.169571 0)
(18.1636 -0.161878 0)
(18.4745 -0.154902 0)
(18.7723 -0.148633 0)
(19.0584 -0.14305 0)
(19.3341 -0.138119 0)
(19.6006 -0.133803 0)
(19.8591 -0.130061 0)
(20.1106 -0.126851 0)
(20.3562 -0.124124 0)
(20.5967 -0.121827 0)
(20.833 -0.119902 0)
(21.0656 -0.118287 0)
(21.2951 -0.116908 0)
(21.5219 -0.115669 0)
(21.7463 -0.11445 0)
(21.968 -0.113095 0)
(22.1868 -0.111393 0)
(22.4018 -0.109056 0)
(22.6115 -0.105703 0)
(22.8137 -0.100827 0)
(23.0051 -0.0937601 0)
(23.1807 -0.0836506 0)
(23.3343 -0.0694509 0)
(23.457 -0.0499373 0)
(23.5376 -0.0237789 0)
(23.5623 0.0103285 0)
(23.5146 0.0533949 0)
(23.3759 0.10572 0)
(23.1273 0.166365 0)
(22.752 0.232592 0)
(22.2417 0.299679 0)
(20.8496 0.361878 0)
(22.1323 0.466291 0)
(20.4524 0.482793 0)
(17.4937 0.380749 0)
(0.991539 0.0255878 0)
(0.977284 0.0240141 0)
(0.976749 -0.0123337 0)
(0.999096 -0.0407302 0)
(1.03379 -0.0558135 0)
(1.07257 -0.061447 0)
(1.11133 -0.0611365 0)
(1.14775 -0.0576973 0)
(1.18112 -0.0531906 0)
(1.21168 -0.0490007 0)
(1.2402 -0.0459742 0)
(1.26771 -0.0445633 0)
(1.29533 -0.0449536 0)
(1.32421 -0.047165 0)
(1.35542 -0.0511241 0)
(1.38997 -0.0567145 0)
(1.42875 -0.0638091 0)
(1.47262 -0.07229 0)
(1.52233 -0.0820593 0)
(1.57862 -0.0930443 0)
(1.64218 -0.1052 0)
(1.7137 -0.118508 0)
(1.79385 -0.132976 0)
(1.88334 -0.148634 0)
(1.98289 -0.165535 0)
(2.09327 -0.183746 0)
(2.2153 -0.20335 0)
(2.34984 -0.224439 0)
(2.49783 -0.247113 0)
(2.66026 -0.271471 0)
(2.83818 -0.297603 0)
(3.03268 -0.325586 0)
(3.24492 -0.355468 0)
(3.47604 -0.387255 0)
(3.72719 -0.420897 0)
(3.99948 -0.456274 0)
(4.29389 -0.493175 0)
(4.61129 -0.531294 0)
(4.9523 -0.570212 0)
(5.31726 -0.6094 0)
(5.70617 -0.648222 0)
(6.11861 -0.685945 0)
(6.55369 -0.721769 0)
(7.01005 -0.754855 0)
(7.4858 -0.784373 0)
(7.97854 -0.809541 0)
(8.48546 -0.829678 0)
(9.00335 -0.844243 0)
(9.5287 -0.852874 0)
(10.0579 -0.855408 0)
(10.5871 -0.8519 0)
(11.1129 -0.842612 0)
(11.6316 -0.827993 0)
(12.1404 -0.808652 0)
(12.6363 -0.785316 0)
(13.1172 -0.758789 0)
(13.5813 -0.729905 0)
(14.0274 -0.699484 0)
(14.4547 -0.668304 0)
(14.8627 -0.637061 0)
(15.2518 -0.606359 0)
(15.6221 -0.576692 0)
(15.9746 -0.548448 0)
(16.31 -0.521913 0)
(16.6294 -0.497284 0)
(16.934 -0.474672 0)
(17.225 -0.454121 0)
(17.5038 -0.435612 0)
(17.7713 -0.419087 0)
(18.029 -0.404459 0)
(18.2778 -0.39162 0)
(18.5189 -0.38045 0)
(18.7532 -0.370816 0)
(18.9816 -0.362579 0)
(19.2049 -0.35559 0)
(19.424 -0.349688 0)
(19.6393 -0.344696 0)
(19.8515 -0.340406 0)
(20.0609 -0.33656 0)
(20.2678 -0.332828 0)
(20.4722 -0.328783 0)
(20.674 -0.323852 0)
(20.8726 -0.317261 0)
(21.0671 -0.307972 0)
(21.2559 -0.2946 0)
(21.4368 -0.275324 0)
(21.6062 -0.247806 0)
(21.7594 -0.209135 0)
(21.89 -0.155837 0)
(21.9892 -0.0839924 0)
(22.0458 0.0104307 0)
(22.0458 0.13092 0)
(21.9721 0.279343 0)
(21.805 0.454422 0)
(21.5239 0.649881 0)
(21.1124 0.853162 0)
(19.864 1.04688 0)
(21.0549 1.36626 0)
(19.558 1.42475 0)
(16.7015 1.12282 0)
(0.994977 0.0361897 0)
(0.991456 0.0293285 0)
(1.00225 -0.0280998 0)
(1.03015 -0.0708385 0)
(1.06487 -0.0919102 0)
(1.09956 -0.0983261 0)
(1.13173 -0.0960773 0)
(1.16053 -0.0897057 0)
(1.1863 -0.0823555 0)
(1.20996 -0.0760217 0)
(1.23257 -0.0718444 0)
(1.25519 -0.0703762 0)
(1.27884 -0.0717938 0)
(1.30443 -0.0760528 0)
(1.33277 -0.0829945 0)
(1.36458 -0.0924156 0)
(1.40049 -0.104112 0)
(1.44109 -0.117901 0)
(1.48692 -0.133639 0)
(1.5385 -0.151222 0)
(1.59633 -0.170589 0)
(1.66092 -0.191722 0)
(1.73278 -0.21464 0)
(1.81244 -0.239396 0)
(1.90047 -0.266076 0)
(1.99746 -0.294788 0)
(2.10405 -0.325664 0)
(2.22093 -0.35885 0)
(2.34884 -0.3945 0)
(2.48854 -0.432768 0)
(2.64086 -0.473797 0)
(2.80668 -0.517702 0)
(2.98687 -0.564557 0)
(3.18235 -0.614371 0)
(3.39402 -0.667063 0)
(3.62274 -0.722446 0)
(3.86928 -0.780195 0)
(4.1343 -0.839834 0)
(4.41831 -0.900718 0)
(4.72159 -0.962029 0)
(5.04414 -1.02278 0)
(5.38566 -1.08186 0)
(5.74551 -1.13801 0)
(6.12265 -1.18994 0)
(6.51567 -1.23638 0)
(6.92275 -1.27612 0)
(7.34174 -1.30808 0)
(7.7702 -1.33143 0)
(8.20543 -1.34559 0)
(8.64458 -1.35028 0)
(9.08475 -1.34558 0)
(9.52306 -1.33185 0)
(9.95677 -1.30977 0)
(10.3833 -1.28025 0)
(10.8005 -1.2444 0)
(11.2064 -1.20346 0)
(11.5994 -1.15869 0)
(11.9783 -1.11138 0)
(12.3424 -1.06273 0)
(12.6911 -1.01383 0)
(13.0245 -0.965621 0)
(13.3427 -0.918897 0)
(13.646 -0.874281 0)
(13.9351 -0.832241 0)
(14.2107 -0.793099 0)
(14.4737 -0.757047 0)
(14.725 -0.724165 0)
(14.9655 -0.694443 0)
(15.1962 -0.667806 0)
(15.418 -0.644127 0)
(15.6318 -0.623247 0)
(15.8385 -0.604981 0)
(16.0388 -0.589126 0)
(16.2336 -0.57547 0)
(16.4234 -0.563786 0)
(16.6089 -0.553834 0)
(16.7907 -0.545351 0)
(16.9691 -0.538031 0)
(17.1447 -0.531505 0)
(17.3178 -0.52531 0)
(17.4885 -0.518851 0)
(17.657 -0.511345 0)
(17.8232 -0.501735 0)
(17.987 -0.4886 0)
(18.1478 -0.470039 0)
(18.3048 -0.443545 0)
(18.4568 -0.40586 0)
(18.6019 -0.352839 0)
(18.7371 -0.279364 0)
(18.8584 -0.179374 0)
(18.9596 -0.0461372 0)
(19.0319 0.127116 0)
(19.0629 0.345946 0)
(19.035 0.612621 0)
(18.9246 0.922899 0)
(18.7052 1.26237 0)
(17.7499 1.60443 0)
(18.7956 2.15484 0)
(17.6777 2.2889 0)
(15.0371 1.8082 0)
(1.00024 0.0371062 0)
(1.01239 0.0193536 0)
(1.03831 -0.0537465 0)
(1.07194 -0.103659 0)
(1.10421 -0.124827 0)
(1.13104 -0.128105 0)
(1.15258 -0.121946 0)
(1.17001 -0.112204 0)
(1.18501 -0.102582 0)
(1.19916 -0.0952018 0)
(1.2137 -0.0911295 0)
(1.2296 -0.0907676 0)
(1.24758 -0.0941338 0)
(1.26817 -0.101044 0)
(1.29178 -0.11123 0)
(1.31875 -0.124405 0)
(1.34934 -0.140308 0)
(1.38381 -0.15872 0)
(1.42241 -0.179477 0)
(1.46538 -0.202467 0)
(1.51297 -0.227634 0)
(1.56547 -0.25497 0)
(1.62315 -0.284514 0)
(1.68633 -0.316344 0)
(1.75535 -0.350575 0)
(1.83056 -0.387352 0)
(1.91237 -0.426841 0)
(2.0012 -0.46923 0)
(2.0975 -0.514713 0)
(2.20176 -0.563483 0)
(2.3145 -0.615718 0)
(2.43624 -0.671562 0)
(2.56754 -0.731102 0)
(2.70896 -0.794349 0)
(2.86105 -0.861201 0)
(3.02435 -0.931422 0)
(3.19933 -1.00461 0)
(3.38642 -1.08017 0)
(3.58594 -1.1573 0)
(3.79808 -1.23499 0)
(4.0229 -1.31202 0)
(4.26026 -1.38699 0)
(4.50982 -1.45838 0)
(4.77104 -1.52458 0)
(5.04314 -1.58398 0)
(5.32512 -1.63509 0)
(5.61574 -1.67656 0)
(5.91358 -1.70731 0)
(6.21705 -1.7266 0)
(6.52445 -1.73406 0)
(6.83396 -1.72971 0)
(7.14379 -1.71397 0)
(7.45214 -1.68762 0)
(7.7573 -1.65175 0)
(8.05769 -1.60772 0)
(8.35188 -1.55703 0)