/*--------------------------------*- C++ -*----------------------------------*\
| =========                 |                                                 |
| \\      /  F ield         | OpenFOAM: The Open Source CFD Toolbox           |
|  \\    /   O peration     | Version:  2206                                  |
|   \\  /    A nd           | Website:  www.openfoam.com                      |
|    \\/     M anipulation  |                                                 |
\*---------------------------------------------------------------------------*/
FoamFile
{
    version     2.0;
    format      ascii;
    arch        "LSB;label=32;scalar=64";
    class       volScalarField;
    location    "200";
    object      epsilon;
}
// * * * * * * * * * * * * * * * * * * * * * * * * * * * * * * * * * * * * * //

dimensions      [0 2 -3 0 0 0 0];

internalField   nonuniform List<scalar> 
184166
(
9.34479
3.49904
2.99484
9.67273
6.08909
5.30893
2.43937
4.42056
9.62629
7.13604
9.47787
3.54799
3.67013
5.73285
6.45411
7.33049
7.94046
6.02527
3.41367
7.07046
3.31219
3.24208
4.80826
6.7257
6.51761
6.81171
6.34761
7.19195
6.34492
3.41438
6.89526
2.17691
12.6951
7.46214
7.53491
3.81783
3.35794
7.20649
4.66767
2.68063
6.29364
3.73717
6.39242
7.07682
7.67299
6.06982
2.51915
5.98235
6.37457
6.37353
2.35688
2.17968
2.62059
6.37267
7.09648
5.35958
6.99013
7.05219
8.63987
4.73019
3.2842
4.85742
8.39114
9.36849
9.48486
2.23321
2.8404
6.96678
2.3283
7.15294
2.96528
7.05749
7.59883
7.8701
3.89997
6.43027
4.9648
7.6994
4.31898
2.61583
2.46365
3.89279
7.09363
8.74708
6.83598
9.85437
4.15361
3.1216
5.52413
3.48211
2.00382
5.98644
7.13929
10.1707
5.92873
3.43012
7.00658
2.12624
3.24021
6.97205
3.52844
3.42585
7.28902
6.4504
2.18517
4.76645
6.97873
5.83842
2.18169
3.56558
2.69625
7.71761
1.98527
3.0515
6.76517
5.9484
4.65405
3.05142
2.43129
2.99066
8.17326
3.43419
6.71001
6.19353
6.05656
5.8891
6.8885
6.40958
7.24973
6.88718
3.21788
6.36193
5.08363
5.25493
4.01267
3.66115
3.84484
4.91946
5.67936
2.94091
5.24478
2.4002
2.48527
3.41843
4.75842
7.169
3.03314
6.29446
9.17666
9.79197
7.23356
8.18586
6.90107
7.93362
7.98239
9.63145
6.83805
8.60255
9.60331
2.71619
2.04363
2.68594
6.31786
4.34913
4.38261
6.81158
6.54601
6.76237
2.1284
6.62428
6.65948
4.62678
4.57366
8.33914
6.26646
2.62256
2.9479
9.04262
7.3359
5.05498
2.03579
6.77017
5.50662
6.75614
6.95639
4.72558
6.69151
8.51974
2.20191
7.43645
5.76477
7.3642
4.95364
2.12521
10.8304
6.7844
6.45883
9.23984
9.89495
6.87301
7.54167
6.34203
2.20811
5.97576
2.48224
7.96224
3.72807
3.38013
4.76711
5.90102
10.2973
7.1033
3.92501
5.97951
3.42216
4.70873
6.37102
6.73558
2.36309
2.2413
3.70292
4.26304
4.80134
6.94308
2.37045
3.4934
3.72432
7.01226
6.39908
10.8693
10.0704
3.31311
4.833
7.6941
7.26221
5.17928
7.65113
7.50471
7.91727
2.15386
1.98679
7.21909
3.59536
6.92263
2.59153
6.55629
6.31205
3.68719
7.95506
8.22111
5.29395
9.29162
7.29753
3.43063
5.11321
7.41913
5.96123
6.57434
6.42124
5.12714
5.61319
2.8204
6.90135
4.08341
7.09928
6.12693
6.81703
3.41002
6.36658
5.48333
6.45929
2.47191
5.09807
7.03241
3.48503
5.82785
2.03774
5.58897
4.27672
5.66775
3.24267
14.155
5.57653
6.47252
2.72064
3.64052
12.0992
8.19653
5.82655
8.26476
6.19102
6.29337
6.31984
7.24986
9.23597
6.12008
5.30993
10.2794
6.29701
8.17189
6.22668
4.95567
2.56132
6.59819
9.2076
4.96013
6.02879
9.06927
3.07936
2.12636
6.33768
7.27918
7.22531
6.87249
7.5183
5.76808
5.18265
5.86075
5.755
5.75214
3.46142
3.87342
4.49956
6.5103
6.04725
2.14022
6.3494
5.15803
3.15025
6.34841
7.38853
2.79267
2.6608
6.93706
2.35847
6.30715
5.40112
4.47897
6.75779
4.97188
5.67554
10.4098
9.83078
8.33801
7.05264
7.66411
3.06777
2.31629
4.60456
2.37498
2.33339
6.67625
8.36029
2.86925
3.52124
7.02933
6.89259
5.02175
6.88849
7.14869
4.27558
2.16005
7.04711
3.31009
6.94605
6.47531
2.1755
3.19737
3.00393
1.98209
2.07751
8.80418
10.5824
7.30973
8.02387
7.6573
7.55101
6.39498
3.2661
6.05491
6.37451
6.47043
6.67446
7.2024
6.14931
7.23662
6.90948
4.03221
4.66653
4.93619
5.89748
6.70652
6.65013
2.04321
4.71452
2.09479
8.12669
5.23255
4.20587
6.14319
8.19574
6.07047
10.6408
8.08107
2.64776
5.89827
7.41636
7.40395
6.02356
3.73831
5.60723
4.28464
4.39703
3.98211
3.9181
3.44857
6.64728
3.12441
2.94942
2.78137
11.2993
4.82555
4.96514
4.8629
4.62977
2.14803
2.32995
2.40868
3.12663
3.02006
3.17355
2.50767
11.8453
9.58722
11.0689
10.9365
9.24495
10.7129
6.82689
6.69529
7.1194
7.03529
8.67739
7.99717
8.34945
7.49426
11.7018
12.7212
6.73641
6.88355
6.43142
6.49187
6.48152
6.66449
6.07218
6.76307
6.25832
6.14358
6.31905
7.98152
8.85607
2.37571
2.21674
2.14639
2.1259
2.61645
2.12821
2.33142
6.70636
7.24966
7.52032
7.88296
9.37215
7.96341
4.96304
3.97585
4.59699
11.0207
7.27683
6.41985
6.86954
6.4463
2.03452
1.96551
3.63306
3.8047
3.61631
3.40601
3.28419
3.3896
5.76467
6.0536
5.54283
5.89286
5.45967
7.46775
7.04509
7.06396
7.29703
7.54411
7.28502
7.23119
8.54144
7.01747
7.05639
6.72472
8.46717
7.12101
3.46997
7.37378
8.93334
2.01036
2.05464
1.98424
6.88625
7.96791
7.5227
6.93153
7.23975
7.13405
7.40339
7.2603
7.98349
6.14237
6.63953
6.83028
6.64385
7.54524
7.62378
8.39131
8.19312
11.1001
9.38042
11.3042
8.65851
7.77752
8.07457
8.48094
11.1106
13.6866
12.7201
10.2082
11.4655
6.94377
6.78898
6.71035
6.37381
2.5989
4.84794
4.21036
3.82439
4.74173
4.19639
4.61909
4.67421
3.94067
4.41298
3.50629
3.15515
7.43382
7.38482
7.43728
7.36865
7.27673
7.25948
7.15562
7.18052
6.70698
6.17231
5.62548
5.4094
5.68321
6.05806
7.09086
12.1516
2.39139
3.01998
2.09463
2.07877
2.21764
2.11893
7.61894
7.60884
7.82241
7.86309
8.27537
8.10748
7.53407
8.34265
6.86353
7.21624
7.53204
8.46422
7.98859
2.10609
5.44186
5.01764
4.88915
8.68603
7.54305
7.49035
7.31418
8.7895
7.58116
7.60602
7.41501
9.48693
8.50704
9.75053
3.31685
3.79285
5.63627
4.35908
7.16219
7.35341
7.39964
7.24817
7.74338
7.26595
7.78844
7.51015
5.78094
6.68585
6.23652
6.73003
7.4459
7.79431
8.72782
6.12639
5.70228
5.63247
5.22431
5.05847
7.87645
7.77153
6.92644
7.05959
7.63341
11.4232
8.37831
4.82739
7.67539
7.49044
9.33851
7.45858
7.16992
7.47801
9.36184
7.59593
7.30957
2.39157
2.79389
7.6227
10.125
11.4975
9.7989
5.51768
10.3911
8.94852
9.95949
9.77563
8.71496
9.72289
2.14206
8.20946
8.47745
8.14021
8.23522
4.06871
10.7614
11.8922
9.96101
11.4369
9.35776
11.1865
2.74624
2.09912
2.15103
2.46288
2.45371
2.15441
5.27453
2.83299
3.16356
11.6493
9.54378
10.6942
4.40479
3.86194
4.39738
4.08737
3.8661
4.10776
6.99859
8.54256
7.02204
6.74309
8.40673
9.9155
4.4986
4.40435
7.45381
6.27222
5.44952
5.664
3.12319
5.03561
6.74257
6.73691
5.28156
5.68354
5.41674
3.90359
3.62354
3.90094
3.62897
4.0686
5.4911
7.07452
6.84398
6.93762
5.60205
6.34127
5.31791
5.49559
5.83755
4.12651
4.78477
5.0866
6.19959
6.51911
6.79111
6.66163
4.84638
4.95592
3.4843
3.87283
3.98573
7.62959
6.36247
7.44846
7.86107
3.66
5.73179
2.07819
2.10323
2.06462
6.80816
4.44024
4.42405
4.13163
7.17699
5.89698
6.55579
6.12999
5.09072
5.0761
5.09725
5.03555
6.14127
5.02593
6.13646
5.3797
3.4704
3.28704
3.48208
3.36551
3.27882
3.32306
3.22702
3.18427
3.15246
5.64029
4.64308
3.36869
3.45364
3.27747
6.28748
5.84704
6.29595
6.10084
6.65032
6.9025
6.80781
7.84855
5.64961
5.53903
5.09707
3.41545
3.7175
2.0553
2.0549
2.08395
2.07393
4.65122
3.65745
3.57719
3.47369
3.69638
3.8114
5.86736
6.12681
7.39701
6.92234
7.14353
7.5434
5.09431
5.15481
5.40712
3.59157
3.27796
3.23638
3.24647
3.24178
2.143
2.20673
7.64704
7.22438
2.21391
2.4558
2.24165
2.16377
7.02456
2.42212
3.09007
2.45448
2.72144
3.58574
3.93811
3.97066
3.66844
10.5593
5.8545
6.0331
5.63084
5.40451
5.91144
6.46133
6.81434
4.52596
4.17466
4.9409
4.34167
4.70069
3.6719
12.1236
12.6824
13.5909
10.8134
10.1816
10.2975
5.80948
4.91943
5.17387
5.77449
1.93923
1.88733
8.71739
6.03876
5.13264
6.39368
5.23717
6.04092
1.92681
1.89624
11.9845
12.1853
7.38014
7.69883
7.66602
3.28607
6.51601
4.22092
6.04961
2.11024
2.20736
6.95918
7.25941
6.53358
6.9164
6.59292
6.66042
2.35837
2.78576
4.02834
3.72571
6.60874
7.72658
6.2826
6.95597
2.65854
2.61543
7.35222
7.2083
6.3722
6.45747
6.17862
5.64653
5.98472
6.23269
7.30231
7.04372
7.07759
3.12191
4.33255
3.50828
5.32346
5.367
6.14446
5.80401
9.90638
8.58031
6.87687
7.12402
7.65815
7.64455
7.25508
7.29377
7.04896
7.74879
7.43053
7.17189
7.17283
6.70176
7.91866
5.92838
5.41653
4.43231
4.65876
3.94096
3.52776
3.47681
3.64083
3.35632
3.57802
5.0047
9.20022
7.42067
6.81093
7.00365
5.95299
8.05093
8.01431
6.83994
5.79167
6.35521
4.53678
6.58143
6.80456
6.60159
6.5347
2.59964
2.46602
2.78868
2.64619
2.45764
6.39804
7.16191
6.84015
12.3839
12.6888
7.27687
7.32908
8.496
8.52498
8.56953
12.1686
9.17322
6.82122
6.76324
4.29579
4.60639
3.96966
5.8203
5.24052
5.89411
6.35761
6.38408
7.75437
7.40324
7.22738
7.35171
7.58684
9.66518
10.7645
9.17576
12.7511
5.36027
5.16667
5.00148
3.95817
4.44025
4.45809
4.76399
3.94281
6.4943
6.6537
6.72856
6.69994
2.66981
3.03658
2.67263
2.71159
4.87722
4.62164
9.15286
10.7682
7.51612
7.00739
13.7193
12.537
7.72748
6.953
8.15947
8.49828
2.51726
2.07326
2.03135
1.94759
6.40193
6.58817
6.49393
6.40424
5.88133
5.7898
5.94838
8.74938
8.61422
8.61847
8.37306
8.35438
8.47118
4.25348
3.68308
4.01593
3.45761
4.60713
5.01129
5.01401
5.15527
8.25971
7.7321
7.98584
7.12676
7.80152
5.65506
5.23045
7.52482
6.06346
4.81263
5.12914
4.07044
4.14589
4.8434
6.85661
6.81155
13.4505
7.35742
7.46748
7.86349
7.68622
2.44113
2.08545
2.07604
3.35452
3.31127
4.88688
4.55067
4.99499
4.86705
5.42126
5.08276
3.12475
2.36438
3.73783
5.00672
5.44224
6.94295
6.9868
10.2333
7.81308
7.98129
2.12077
2.10771
2.13458
12.3894
12.1737
9.24548
9.23611
2.27506
2.25075
5.99856
6.1026
5.2027
3.72299
3.92687
12.6656
11.0567
6.95684
7.38131
6.83197
2.05274
2.05193
2.05021
2.0237
2.03297
5.38973
8.50754
5.84872
5.62404
5.22579
5.32274
11.0038
6.10538
6.0881
7.02552
6.57407
4.22793
7.1403
7.23707
6.74375
6.87857
3.06113
3.12207
3.03852
3.03836
12.3111
11.412
7.60251
7.93899
7.39063
7.50037
4.90505
4.79333
4.51314
6.28501
6.56575
5.59934
4.04367
2.80379
2.8753
3.39727
2.6478
4.32521
3.208
2.81457
3.74357
12.9468
13.3761
8.44504
5.10638
5.86915
5.031
5.41485
6.17602
6.39855
6.17155
2.1648
2.08638
2.10789
2.21344
7.34466
5.82617
3.04438
2.64199
2.55459
1.88055
1.87969
4.24332
4.63594
4.68587
4.10149
4.33508
7.85035
3.69933
3.11013
2.14941
2.10004
2.20142
2.06939
2.07361
4.25988
4.08074
5.42711
5.33112
5.91736
5.59299
6.80944
6.95732
5.87204
6.30247
5.55347
2.25115
2.71634
3.75767
4.12042
2.71611
2.7064
2.70961
7.03035
6.53713
6.63119
7.34445
8.23065
7.67796
7.455
8.06188
8.32733
2.14088
2.73889
2.39578
3.13317
3.06693
3.71373
3.78172
2.63977
2.6456
6.42774
7.38427
7.216
7.87908
2.2872
2.26794
2.27832
2.34333
5.828
5.93474
5.23299
5.69204
4.34562
5.36408
4.48679
5.0905
13.243
13.533
7.21255
6.35256
3.33559
5.01204
4.55638
4.63351
4.10758
2.62387
3.65568
3.31296
4.57509
3.73828
3.91895
3.38532
5.78711
5.65722
5.22467
5.26407
5.19175
5.37137
2.70091
2.94655
5.88968
6.58277
5.12028
5.62548
5.08821
5.61364
5.03576
5.70041
6.55243
5.56867
5.49411
5.0439
7.92682
7.71265
8.30413
7.90706
7.74239
8.05852
4.56667
4.90734
2.15279
2.22143
2.14991
2.38428
2.37878
2.16284
2.23343
2.13906
3.15494
3.11426
3.23742
3.40603
3.40678
6.16324
6.6967
6.57007
6.14819
6.44752
7.16765
7.19457
7.80587
7.26779
3.84711
3.722
2.0526
2.06178
2.08875
2.13497
2.12527
13.9733
12.3251
5.04725
5.2432
5.41912
10.3568
8.84636
11.7313
8.20333
7.86646
5.13198
7.4354
7.80182
9.40696
8.61122
7.75723
8.70106
7.53052
6.94433
6.91537
7.3206
7.02073
6.98594
6.78311
7.2033
7.07932
5.63178
5.14511
4.59611
6.90852
6.87881
7.3646
7.94875
11.7471
1.91658
5.79764
6.17629
6.21366
5.95618
6.71375
6.85089
6.94233
7.02617
7.16497
2.00641
1.97724
1.90561
2.06998
2.08361
2.09924
2.08699
13.8408
11.0189
11.2244
7.47001
6.86504
6.28286
3.91587
10.7869
10.6876
3.1643
3.95512
3.21826
3.45181
3.52925
3.9417
4.01892
3.53574
4.05571
5.36999
5.28302
10.0927
2.09873
6.40807
5.337
4.58149
2.58655
2.59812
2.64727
4.30512
4.53782
4.09809
4.31623
3.88652
5.94433
5.4644
3.37531
3.23834
3.12104
3.1287
3.3665
3.14411
8.14411
9.04554
9.00271
5.6575
5.96005
6.51518
5.04113
4.64413
7.79493
6.90182
7.14276
5.97976
1.89045
1.85675
10.2689
11.5681
6.00963
6.18402
6.20206
6.59562
5.75072
6.1535
2.04019
2.09965
2.07094
2.09067
2.0636
13.2681
11.8392
1.90692
5.80671
3.47713
3.43289
4.82881
3.81827
4.87423
4.21745
3.61724
10.1701
7.98085
9.36834
11.1848
12.5964
8.97677
5.0373
4.95902
2.08146
2.07641
2.08935
2.0796
2.0756
2.08518
6.48009
2.57353
2.18472
1.86386
1.96277
1.90704
6.78871
6.85365
6.09191
5.20601
4.04283
3.52164
4.15608
3.15047
2.55512
3.59234
3.2783
6.68161
6.50477
6.88859
6.70903
6.49044
6.75423
6.3433
2.29099
2.45191
5.54217
5.53262
5.16473
5.36175
4.87923
5.87532
5.81653
5.97516
4.82369
5.25694
3.69098
4.26898
4.35035
3.58751
3.93218
4.39037
3.90377
4.01928
3.82404
4.26557
4.49171
7.06724
6.82034
6.76591
7.19188
6.89868
2.87656
2.7221
3.7507
3.12183
4.02012
3.51387
6.41075
6.72536
6.66239
6.85716
3.75657
4.29655
4.00081
4.38948
4.00779
3.58553
3.77505
2.0733
2.07055
14.0622
15.3684
6.09789
5.92285
5.98398
5.48891
1.99053
1.93827
1.86231
1.99291
1.93484
7.06856
7.05636
6.37286
6.18932
6.08011
5.02761
5.17256
4.55892
2.9625
3.11093
2.8867
2.94746
2.05457
2.06063
2.06046
2.07889
5.30591
6.11246
6.22754
5.99447
4.77587
5.00549
4.20442
8.87108
10.2419
12.9693
9.24295
11.8235
11.7936
2.50604
3.10106
2.34345
2.58928
5.71508
5.92977
5.94839
5.88102
5.64765
2.08316
2.06408
2.06391
13.3445
13.0217
5.22581
4.79764
4.94612
3.07535
3.94341
4.11063
3.20576
7.40751
7.46231
7.51084
7.74013
7.57112
7.5403
5.99482
6.33279
6.46398
5.86974
14.263
16.4334
3.92713
4.33109
3.24083
13.646
6.57357
6.35718
5.28618
3.75946
13.9042
6.06457
6.08137
1.94167
2.80603
2.60689
2.67763
2.78566
2.60463
2.60431
2.21628
2.21706
2.57124
2.31151
2.7519
2.95345
2.75491
2.85121
2.75298
2.95751
2.75242
2.868
4.45849
3.90323
5.53203
13.643
15.3461
4.37771
2.16443
2.08002
2.07509
2.09531
7.95281
6.37374
6.40606
10.6254
8.76562
5.14901
3.7086
7.43502
7.21383
8.09297
3.11092
2.98794
2.5525
2.51774
5.05556
5.33253
6.11188
6.19253
7.23129
8.67665
6.39668
6.51763
11.6786
11.355
13.551
4.93991
6.17418
5.95656
4.64989
5.45393
7.84164
7.53348
7.33463
8.16626
10.4434
1.99787
1.90346
6.31774
6.5344
6.62309
6.6408
6.3276
6.42917
5.98974
6.28411
5.86046
5.98487
6.29777
6.41556
6.26082
6.36205
6.31415
6.38502
7.79748
7.53416
7.8002
7.64037
1.89067
1.83627
1.96102
2.08399
5.76159
5.70291
7.9496
8.1172
7.65707
5.33693
5.3496
5.45261
7.25023
6.87985
6.97223
7.03085
7.27044
5.24707
5.50517
4.42907
4.62407
3.96771
4.02604
3.25044
3.13634
3.21655
3.64907
5.00226
5.44599
6.14485
6.15469
14.7797
14.7916
2.1442
2.14433
6.81476
6.92965
3.27444
3.17017
3.11002
3.01024
3.15851
3.13217
2.64907
2.45193
2.75441
2.20253
2.25683
2.47119
2.18891
4.9917
4.83037
4.92757
4.59998
6.05286
5.95259
5.48127
5.78029
5.49539
5.67366
7.35486
7.56837
7.7614
7.36107
7.69236
6.62904
7.08885
4.13551
3.69231
3.6865
4.92541
6.13977
6.30249
6.32226
4.5591
4.21003
1.8752
1.79257
3.53705
3.79994
5.00651
2.27631
2.17909
2.18151
2.56867
2.37871
6.77232
7.06175
6.88118
6.6509
6.76964
7.5966
8.46919
2.27577
2.56737
2.32915
2.41475
2.68085
2.18781
2.84593
3.24398
3.40526
2.94595
2.21616
2.1668
1.9925
8.40159
8.21875
8.3738
7.8642
8.56752
5.50242
5.1394
3.95726
6.05337
6.16525
5.93059
5.89204
2.82982
3.85003
3.30414
3.34556
2.86166
2.93111
2.51893
3.42132
3.17845
2.41217
2.57376
14.6291
13.5361
7.49796
7.42981
7.3605
5.97968
4.23839
5.31791
10.8173
13.6657
11.6863
6.80671
6.59782
6.75133
4.03341
3.62981
2.67831
2.45307
3.45603
2.64134
5.10847
5.5535
4.95402
5.85476
4.73449
4.87461
4.53722
4.21012
4.17556
2.78342
2.47668
2.69273
4.51961
6.59528
4.51895
5.54009
6.89727
6.49571
5.52165
6.47504
5.6486
9.43581
11.7595
8.11592
4.86216
5.0552
5.56632
5.77955
2.0732
2.19027
2.34627
2.31313
7.16712
6.74019
2.11545
2.10542
6.63551
5.5667
6.03972
13.0366
1.81044
1.85173
1.92124
2.35169
2.09226
2.15006
3.60941
3.29914
6.21418
6.10064
5.66655
5.4936
3.40771
3.58968
4.37571
1.82621
3.70354
3.42426
3.16832
3.61204
3.26615
3.16909
3.76048
3.45288
3.6904
3.29879
3.57513
3.55274
4.1843
7.788
7.56199
2.25144
2.41571
2.0838
5.81989
5.62413
5.67763
5.21421
5.13743
4.98843
10.1417
7.84661
5.10064
5.61131
5.46509
6.65419
4.29513
5.08663
4.74791
4.54008
4.98948
3.22443
3.21605
3.25743
3.32453
3.30292
4.68441
4.30244
4.28547
4.70076
4.53222
4.85704
4.60592
5.11774
5.04911
5.02753
4.81338
6.3173
6.19312
6.40771
6.34845
6.21092
7.88579
7.56751
7.78897
7.65823
7.79709
4.19944
4.51565
4.17069
4.66329
4.49375
7.18612
6.77272
2.04006
3.07874
3.51616
3.63822
5.36449
5.10432
2.61702
2.40715
2.40661
9.60597
8.31837
10.0549
13.5781
7.29391
6.99347
8.65912
8.66904
7.52034
8.36819
8.47845
7.93886
3.82606
4.25686
6.5818
6.58116
6.6196
6.69791
3.80713
3.42752
2.85119
4.73147
2.69482
3.69907
3.89765
3.20807
9.22497
11.466
10.1626
15.4203
2.79504
3.25108
3.40144
4.62106
4.68314
3.95673
3.89127
5.41434
5.31548
21.8464
9.69348
8.34621
7.62948
7.76833
4.97645
5.6226
4.59024
3.71573
5.81499
6.02461
5.98298
6.07881
6.6244
6.6932
6.53426
6.53705
6.53502
6.90865
6.67017
6.53332
6.7633
3.54086
3.39114
5.52961
2.52789
2.59452
3.42918
3.16325
5.34557
4.84889
5.18705
5.40626
4.96406
4.65016
5.14169
5.38869
5.68972
5.16127
5.87422
8.27896
12.558
15.3576
4.53153
4.56471
5.06035
4.80977
5.08538
4.90562
7.26656
7.05778
6.71997
6.64884
7.0252
6.74841
11.587
8.80556
14.1181
11.6709
7.69485
7.0596
6.71385
6.92704
6.71219
7.79719
8.24031
5.70833
5.91801
5.89268
3.4047
2.64571
5.11086
5.52996
5.89256
5.93875
5.59216
5.39067
5.52888
3.3667
3.16922
3.20383
3.50714
3.39643
4.45654
4.13454
4.16594
4.64091
4.47307
2.31622
2.19248
2.33714
2.42764
2.20313
2.16157
3.16581
2.25042
2.29827
2.53022
2.58778
2.37023
18.3056
6.30702
6.30691
6.37276
6.40987
6.3714
1.79519
6.77739
6.81943
6.87351
6.82987
6.81138
5.07402
5.43019
5.28175
5.39412
5.19487
4.70944
4.16315
5.09334
4.62196
4.70168
3.50893
4.00712
5.22685
4.76734
2.08519
2.13406
2.34856
2.50247
2.12184
2.28314
3.42185
3.20996
2.98898
2.635
2.78324
2.57125
7.15826
6.78424
1.98696
1.90824
1.90686
2.0213
2.04785
8.14884
7.65511
7.91717
7.86448
7.66214
7.11202
7.11595
6.85849
6.83431
7.11807
7.47068
7.26778
5.96878
5.82657
5.73192
4.64221
4.88917
5.04209
2.45081
2.26468
13.9108
15.0728
17.8266
8.06358
8.83225
1.88748
1.84324
3.49384
2.98894
2.84038
3.43538
2.52072
2.53776
6.13588
6.06332
6.16042
6.27109
6.2524
4.97178
5.13877
5.68314
5.42936
5.482
5.89437
5.82052
11.5906
9.50182
8.10377
8.52172
10.6256
16.4333
24.2933
3.28168
3.18032
2.93495
3.01194
2.85294
7.35749
9.8325
8.00112
14.0728
16.2584
16.7635
2.99939
3.29596
3.34379
3.71968
3.65764
3.38256
3.21144
3.44964
3.87784
3.56174
3.29213
3.27507
3.32458
3.20326
3.18195
3.31708
3.22664
4.81202
4.90212
4.79084
4.58379
4.59728
4.54677
4.67176
4.52762
5.01299
5.29835
5.87784
7.9913
11.121
12.916
10.582
7.47979
8.23435
5.7803
5.86857
6.54473
6.26416
5.11966
5.38341
4.95067
4.16777
4.12164
4.02649
4.62547
4.89557
4.77866
6.75187
6.95046
6.8026
7.01909
6.82045
6.89646
6.36242
6.55585
5.92372
6.36658
5.8566
7.96492
7.42533
8.92575
9.01643
7.76959
2.04818
2.00144
1.9486
5.6255
5.53
5.94449
5.66954
5.78051
6.29455
5.40474
5.45164
1.96879
2.02049
6.55961
6.46974
6.34284
6.40607
2.02624
2.06435
1.88207
5.55054
5.71372
6.32858
6.47303
6.54082
14.4062
13.0568
6.31653
6.50094
6.53604
6.51504
6.38339
2.98789
2.52244
3.76938
2.85991
3.12872
4.08781
3.38696
4.62718
4.36612
4.46583
5.57634
4.71592
6.26508
8.87145
11.4079
2.54777
2.59602
2.39744
3.09235
3.03978
3.21431
3.2059
4.02302
3.34237
3.21982
3.31064
3.22905
3.19234
12.3682
14.2113
18.3802
7.06789
7.37996
10.5416
4.71082
4.59698
4.44845
4.32111
4.80739
4.87412
2.07654
2.12801
2.16983
2.10445
2.06671
2.08231
4.21168
3.63245
3.91246
4.3448
3.31733
3.19603
5.61309
5.53799
5.1499
5.26472
5.26184
5.47499
9.82638
12.3088
10.8756
5.73157
5.35946
3.90326
2.02055
2.14533
2.01546
2.06556
2.08561
2.1679
5.1637
5.03319
6.09292
6.63218
6.73096
5.53705
5.42706
2.36285
2.44225
2.84194
2.64449
3.0174
2.81816
2.44502
3.25708
4.60744
3.81644
2.87546
2.38613
2.2897
2.80706
2.45052
1.81568
1.82524
3.5972
3.52555
3.09679
3.02744
2.88339
5.75934
6.01935
5.84283
6.0266
6.29366
6.66895
6.83022
6.99158
7.73819
6.64072
6.91817
7.71941
7.47149
7.52955
7.2475
7.45675
5.44886
5.28173
4.51284
4.71489
5.21304
4.72522
3.26345
3.27312
5.0091
5.03097
5.3372
5.1596
6.75833
6.77572
6.95377
7.45507
6.88961
3.03079
3.24148
2.77517
2.75452
2.90113
3.1325
6.58924
5.83475
6.3176
5.93309
5.05804
5.51451
5.37829
5.1312
6.19106
6.60334
3.69336
4.26235
4.3168
2.83041
2.72395
3.22933
3.47719
3.23929
4.86607
4.61838
3.56159
4.57472
3.32483
3.72701
4.01905
6.82352
6.78302
6.71902
6.2709
6.65247
6.77217
3.55813
2.82224
3.05122
6.51301
5.622
6.03599
6.70172
7.04787
6.95456
6.91658
6.77569
7.59915
7.45779
7.27913
7.5439
7.3066
7.22754
6.99771
6.92399
6.84622
7.00734
2.92492
2.46565
2.1916
2.37509
2.19588
4.88453
5.20219
5.41993
7.44803
7.22241
7.18588
3.63075
3.73599
6.71465
6.17741
6.03615
6.4393
6.80104
2.02701
2.07689
1.99825
1.93301
1.99858
2.03918
2.03593
3.99006
4.14351
4.409
4.19525
4.41254
6.69756
6.81444
7.45714
7.191
7.17838
7.55378
7.56304
14.7615
5.01333
4.91633
4.83809
4.93061
4.6243
4.63585
3.93636
3.79208
4.80611
4.53953
6.78212
7.27601
7.59789
8.48714
5.1095
5.19725
4.98364
5.36474
4.91141
5.77154
5.6491
5.54771
5.1959
3.82676
3.54969
3.80367
3.85828
4.36549
3.5862
3.40997
3.22337
4.72024
4.49499
4.28215
4.91172
4.43116
8.21695
9.01394
11.0787
10.2648
8.60834
14.5664
17.2155
4.19738
4.41169
4.14506
7.39879
7.65347
7.26278
3.70701
3.23014
3.99134
4.51914
3.65574
3.32413
3.56105
2.95168
3.05831
2.92351
2.82293
3.0674
2.81641
3.02016
2.87452
3.00176
2.87703
2.97167
3.07564
4.32325
4.82852
4.41194
4.68546
4.76147
4.51124
7.39439
7.75337
7.3793
7.56168
7.16138
7.20001
6.9968
16.6012
19.6608
8.76301
10.0555
11.9306
8.87399
10.9815
3.02371
2.82682
2.95185
2.80129
2.91429
3.23014
3.38276
3.64297
3.33317
3.81231
3.723
4.36759
4.29925
4.82884
4.84841
5.52298
4.98909
5.37201
5.40363
5.05435
5.24544
5.51245
5.39169
3.33552
3.49196
3.05051
2.98389
2.83813
2.8052
2.92008
4.50169
4.00603
4.33482
3.06766
3.00875
3.2311
3.61554
3.54018
3.3437
3.30823
3.50585
3.0445
2.90535
2.99589
10.4986
7.44879
10.0756
8.17853
16.2424
17.6967
4.20617
3.99006
3.78833
4.17415
3.93358
4.91244
4.59262
5.01349
4.62221
4.86183
5.51315
5.31254
5.52016
5.32628
5.12744
5.16565
5.74045
4.65011
5.17973
4.71792
4.41642
10.3524
11.721
4.86823
4.88658
2.57024
2.46966
2.29052
2.231
6.22942
6.28356
3.77422
3.90884
5.31
4.51229
4.35361
5.33171
10.9114
9.96648
6.1364
6.30535
8.1495
7.57111
7.87667
7.76639
7.57572
7.18645
7.0129
7.30748
7.2436
7.14838
6.26324
5.78197
5.5108
8.43559
9.97693
17.3514
18.2436
5.84524
5.57251
5.94092
2.90794
2.17105
2.43853
2.3718
2.08778
2.13434
10.5646
8.63979
6.91201
11.6671
7.04716
9.51924
3.03549
2.85062
3.65035
5.14305
5.58516
5.20419
5.43778
5.53698
5.34393
6.66999
5.98236
6.37163
3.47799
3.87741
4.6011
5.12681
5.03528
4.48598
4.75071
5.34339
5.44946
4.95236
4.87451
5.15148
3.98397
3.78055
4.26331
9.03641
7.51263
8.83664
6.90027
6.4233
2.31654
2.16162
2.21061
2.17433
2.27021
2.15797
2.1349
2.00481
1.89828
2.05034
1.97973
2.03351
7.01065
7.20713
7.50578
8.56479
5.78916
6.27287
5.59706
2.86635
2.86122
2.96144
3.90572
4.06297
4.37174
7.39716
7.63941
7.5079
7.32412
7.20541
7.242
7.71559
10.2854
9.21358
2.11099
12.2993
9.35189
11.7185
2.39769
2.1871
2.83316
2.62928
2.41675
7.10075
7.33849
5.93723
6.42581
5.82725
2.10274
2.14689
3.52463
2.6839
2.37296
2.23911
6.38275
6.30754
6.38642
6.3695
2.74356
2.76554
4.32028
4.11613
3.97367
5.36968
4.806
4.61631
7.07759
6.5915
3.94846
3.69882
4.38469
4.11016
7.58184
7.14673
7.42255
11.3569
19.1998
28.9024
14.832
18.5127
3.50145
6.2259
1.54804
3.37618
3.29958
21.574
28.6332
6.33787
28.3749
4.39388
27.2696
25.2679
16.1543
17.5952
25.95
20.928
20.2642
19.9372
20.361
27.5932
17.2343
15.7667
17.3046
15.7003
18.3798
20.3023
25.0396
20.9426
2.31078
18.2771
19.1933
13.5174
19.3344
21.7279
19.2984
20.7984
23.0931
17.693
18.7694
1.58692
1.82457
17.0059
20.812
12.8896
2.18863
19.6405
12.3011
20.6381
24.8321
24.4411
9.92276
18.6291
18.9612
20.5575
20.1447
18.2039
20.4408
17.3039
19.7895
17.7707
7.44308
6.71498
2.08318
1.88421
2.29687
18.7959
21.3272
12.7175
24.7676
17.8529
17.3131
19.3811
8.45834
11.525
5.49949
5.78569
3.26901
3.29698
19.2333
16.9089
18.797
16.8744
9.47378
14.0388
9.58758
29.6101
21.1769
25.7259
24.3229
17.6066
17.8153
19.4431
18.3243
19.3389
17.1407
21.5276
21.8725
19.3548
18.4759
19.7078
20.1991
21.5566
18.7066
8.64477
10.6396
18.5098
19.5319
17.38
4.35465
9.93954
14.6657
9.37049
3.89689
3.51792
3.97158
1.54469
1.74387
1.49966
21.2823
20.1306
25.3689
23.6327
19.4324
21.6811
21.407
3.6867
31.9699
24.6172
16.4227
15.7246
15.0725
16.0889
16.1648
16.7434
14.8971
15.5363
15.3356
3.8647
4.10413
19.0718
18.3596
16.1882
22.0267
17.6607
20.5449
22.2201
22.1096
1.48679
1.67625
19.3372
20.3499
18.0333
16.3497
9.94156
1.44322
2.59123
3.66086
3.37046
3.49035
9.57143
14.5375
8.54398
1.59373
2.29325
2.61016
2.79913
1.81305
2.30563
17.5189
19.0424
23.187
20.1259
23.696
18.7592
22.0359
20.3168
22.6412
24.9414
11.4588
1.48297
1.6634
1.48218
1.70208
20.3077
18.5814
18.564
23.123
19.4429
31.9929
25.2438
30.1264
23.4386
1.47697
1.74475
2.07694
1.88545
2.68931
2.89977
2.32759
2.5539
23.8663
20.3846
2.36061
2.137
1.59897
1.90037
25.1014
21.4767
2.74901
24.4946
18.464
19.8297
24.1178
1.6989
1.4603
1.66443
19.4441
3.89979
3.6884
4.16206
29.0703
22.0795
22.2154
10.6206
11.7924
1.64295
1.95337
29.6616
24.3856
39.7192
27.316
31.1962
23.3051
22.5225
28.4266
1.51474
1.74932
1.67321
1.51616
1.74802
1.44485
23.6
19.972
27.0256
3.06505
3.21278
5.94429
5.60949
4.61879
4.9217
5.16125
1.44527
1.63535
16.4434
17.1782
16.6228
13.9198
35.6192
19.0333
44.7109
26.955
23.9626
20.5746
1.61649
1.48932
1.68947
24.5661
29.1109
26.3207
28.4957
1.6348
1.47405
1.66538
3.15628
3.82884
3.35503
3.05403
4.00891
3.09813
1.48449
3.28312
4.14139
3.34972
2.36417
2.75487
2.92082
34.7331
24.3436
3.56518
3.65462
18.7061
20.9135
19.0523
23.3053
21.672
27.1496
5.00212
4.70738
5.304
35.5647
27.6109
27.0655
23.9239
22.5554
1.995
2.53817
10.4322
16.6003
9.934
14.4578
27.1059
22.4229
20.3278
22.6382
1.45312
33.2092
23.2313
4.05037
3.90314
4.28111
7.7443
6.91059
8.91754
1.48847
15.8912
19.5206
18.9704
1.48314
1.65224
23.0913
25.6892
24.417
1.43297
1.59441
25.0853
12.1575
14.1541
24.4699
19.7857
23.1436
21.2871
17.3832
19.8307
1.44395
1.60121
1.59098
28.2685
1.54207
18.1254
18.3116
20.0259
28.5501
25.5685
47.8097
34.2138
2.11669
2.52955
26.0105
21.9255
24.6991
28.9676
2.1566
1.76056
36.2555
27.3979
1.405
1.58278
1.49305
1.66415
1.67406
34.4386
23.7499
27.5616
1.67044
1.45171
1.59534
49.1752
40.7295
33.4435
25.5086
25.8038
4.16033
4.20115
1.50565
1.73062
1.65827
26.8343
22.4832
17.7183
39.9497
27.4914
34.9096
22.581
20.3495
1.60761
1.41763
1.60257
10.7851
8.5399
1.51774
1.75632
1.77008
14.0761
23.1591
20.5803
25.8112
30.8361
18.5881
26.6517
28.2517
28.147
33.2695
21.1461
26.0697
1.57662
1.78566
1.76258
34.771
24.147
26.6732
1.92874
2.28962
22.46
28.6562
10.4997
23.7405
15.1368
2.03161
21.8951
19.2184
25.1502
21.4118
22.8041
18.9618
22.4993
20.1317
17.2431
20.5834
1.75092
1.87804
22.7899
11.5776
11.8099
1.6013
1.72613
1.55126
1.66749
8.38812
3.48928
3.67609
2.49192
1.98075
2.33977
6.85833
7.54071
6.70453
6.62949
2.37409
6.39616
6.09217
8.25986
3.43117
3.50417
6.20838
6.83105
7.8555
2.98886
5.07677
7.32732
5.45146
5.31372
5.66783
3.32639
4.72196
7.75771
7.43036
6.95606
3.81252
6.4139
6.29923
6.49239
6.08924
5.34395
5.50695
2.15648
8.058
6.57928
3.96718
2.11418
2.13468
4.90476
7.24082
7.04589
7.11649
6.79034
6.16305
6.28342
7.02802
7.11208
8.43741
3.41267
5.36743
2.04306
7.62185
9.52321
12.7434
3.40978
8.51672
3.82909
4.8196
5.3194
4.45336
4.92087
2.29889
9.8117
3.20091
5.16844
3.71614
9.29882
4.61331
4.21781
2.96119
3.79335
4.23989
3.95814
2.70633
2.86491
4.89561
3.79019
2.13997
2.17945
4.40257
2.59131
3.22575
6.51539
3.52735
4.98426
6.66551
5.12947
4.94246
5.05639
3.61963
5.73268
6.81511
6.52975
6.2309
3.61663
2.9668
5.49795
5.46508
9.08822
5.71156
6.46405
7.37779
7.11953
7.52278
2.48186
2.64592
6.12519
3.64052
2.0078
6.81659
6.40559
5.15903
6.64689
6.50788
4.08664
4.53677
7.27422
7.06481
7.37352
6.5569
4.82549
9.18795
6.91499
7.29274
3.78019
7.27989
5.45709
3.76179
2.1793
5.68053
6.84759
5.00438
7.43148
7.10767
5.90646
5.80865
9.30946
3.36013
3.22048
3.38203
12.0859
7.23583
2.24002
10.9271
2.03825
4.79829
4.21466
2.66526
7.42594
7.63729
7.83692
5.96092
8.40159
7.95961
7.54922
7.64216
10.7452
6.849
9.8299
2.36641
2.43738
4.70213
4.87443
4.33123
4.12314
9.09682
8.68196
7.15356
7.40772
7.65839
7.88513
6.371
4.79379
3.49279
6.51774
4.93258
7.30749
8.25554
6.48103
8.05613
8.04327
12.0762
6.27929
6.16894
7.21503
2.32837
3.39807
6.7781
7.05522
7.44799
7.19026
6.56073
6.8493
2.29289
8.18831
8.30719
8.2788
4.95581
5.48203
5.79411
4.96396
5.56431
6.33102
6.70172
4.80683
11.3155
12.9594
5.9186
11.9119
3.00089
3.25022
3.03842
4.61454
2.17916
10.9416
9.74844
8.08037
3.41656
3.48525
3.73769
3.81669
3.6587
10.7003
12.8138
3.95085
8.01438
6.19669
5.73796
5.45633
6.16371
5.79386
5.91477
3.58199
2.77724
2.76309
2.83694
2.83116
4.58025
5.79912
6.08866
2.93601
3.43213
5.63392
3.89714
4.44298
9.94005
7.73892
7.06421
7.43261
3.43217
5.18578
5.37447
10.6077
6.22889
6.52561
6.70037
6.73342
3.67583
3.92843
2.21228
2.40685
2.49661
4.44207
6.68464
7.0576
6.77972
6.92229
6.47297
6.40594
6.55317
4.24206
4.17418
4.49396
11.9455
9.31294
11.1518
9.11387
4.98487
4.94148
5.94536
7.106
6.41267
6.66609
5.2837
7.55948
6.71433
11.4375
10.5355
13.3777
1.98242
6.17244
5.31994
5.82966
5.1073
5.55701
3.15259
3.24683
7.0949
7.08019
6.88151
7.56114
6.71047
7.50311
6.8412
6.6261
6.60067
6.98233
5.18792
4.51234
4.82009
4.50329
5.72581
5.52211
6.70212
7.66432
7.55866
7.69577
2.00874
6.84555
4.54693
3.26334
6.77408
6.94523
3.69466
3.02545
9.19801
8.71354
2.46929
7.21647
6.18836
5.27397
4.6519
7.86778
5.78481
5.65812
5.19877
6.26659
3.6862
4.82503
5.81359
6.61441
6.67512
7.12877
4.40063
4.7146
4.78535
2.08174
4.20926
4.26056
6.80918
7.35791
7.0058
7.22423
7.0735
6.82992
4.01423
3.69029
4.1106
3.46155
6.15453
8.0713
10.2251
6.84907
7.00759
7.28001
4.55838
5.76358
5.44031