/*--------------------------------*- C++ -*----------------------------------*\
| =========                 |                                                 |
| \\      /  F ield         | OpenFOAM: The Open Source CFD Toolbox           |
|  \\    /   O peration     | Version:  2206                                  |
|   \\  /    A nd           | Website:  www.openfoam.com                      |
|    \\/     M anipulation  |                                                 |
\*---------------------------------------------------------------------------*/
FoamFile
{
    version     2.0;
    format      ascii;
    arch        "LSB;label=32;scalar=64";
    class       volScalarField;
    location    "200";
    object      k;
}
// * * * * * * * * * * * * * * * * * * * * * * * * * * * * * * * * * * * * * //

dimensions      [0 2 -2 0 0 0 0];

internalField   nonuniform List<scalar> 
184166
(
4.16787
2.69534
2.62815
4.18384
3.60676
3.62151
2.16039
3.28517
4.20529
3.84958
4.13695
2.89542
2.94942
3.23292
3.76989
4.03534
4.24607
3.84511
2.8272
4.08741
2.79684
2.74946
3.43172
3.50397
3.9751
3.87236
3.71449
4.12681
3.82926
2.83302
4.06431
2.07123
4.70742
4.35177
4.22673
3.0196
2.81106
4.04545
3.06322
2.44597
3.87727
2.98273
3.82246
4.25481
4.20003
3.79535
2.37159
3.53383
4.04008
3.8545
2.30593
2.09876
2.44186
3.96398
4.22748
3.65299
3.9554
4.24635
4.21769
3.10696
2.77373
3.13668
4.08813
4.31866
3.95075
2.05066
2.54548
3.83343
2.14024
4.18779
2.61136
4.13882
4.15085
4.08329
3.06281
3.82183
3.493
4.0717
3.24189
2.42017
2.32315
3.05554
3.86434
4.27234
3.94364
4.15721
3.16151
2.70252
3.27399
2.87835
1.96893
3.57701
3.88062
3.55044
3.55677
2.61216
4.2442
2.06311
2.76109
4.12185
2.89095
2.84082
3.88042
3.81978
2.15627
3.43851
4.12327
3.49909
2.07625
2.90491
2.46086
4.06935
1.96079
2.65607
4.02913
3.71403
3.06852
2.65496
2.16393
2.57004
4.06629
2.84594
3.94587
3.88887
3.84828
3.53317
3.95369
3.94135
3.8689
3.82819
2.74359
3.92721
3.24344
3.43142
3.12281
2.94989
3.04464
3.21492
3.2662
2.61836
3.47372
2.14282
2.17595
2.83705
3.05456
4.13269
2.64747
3.83753
4.33336
3.97919
4.02447
3.78305
4.06868
3.95294
4.04623
4.05946
4.00948
3.90552
4.20561
2.49094
1.99753
2.2512
3.78722
3.2653
3.24033
3.94795
3.9347
3.83578
2.02753
3.9372
3.94838
3.00789
3.34371
4.59684
3.9124
2.30935
2.3496
4.04969
3.85076
3.29825
1.98895
3.87692
3.23578
3.94267
3.93927
3.09382
3.98532
3.40939
2.14042
4.1429
3.70205
4.17324
3.49497
2.08301
4.56716
3.87015
3.79779
4.07128
4.40719
3.93694
4.12963
3.83216
2.0627
3.83966
2.36047
3.96118
2.97931
2.8217
3.14047
3.86781
4.16848
3.88159
3.06041
3.18712
2.79389
3.40714
3.89145
3.78546
2.30194
2.24858
2.94972
3.21765
3.44087
3.89467
2.30538
2.87374
2.99117
4.18741
3.9531
4.52297
4.09301
2.6387
3.46248
3.99275
4.23334
3.56197
4.22807
3.85083
4.02115
2.08869
1.9606
4.09915
2.62293
3.8074
2.42666
3.79753
3.83597
2.96177
4.53079
4.47008
3.3861
3.74632
4.14083
2.84138
3.28082
4.25558
3.54449
3.89034
3.96641
3.53024
3.07151
2.50204
4.1844
2.82804
4.12969
3.93966
3.99402
2.5865
4.03762
3.39951
3.84167
2.34834
3.0955
4.03491
2.86962
3.2915
1.98768
3.38208
3.20412
3.43905
2.75339
4.95887
3.37003
3.96032
2.45491
2.94414
4.69929
3.81261
3.81806
4.23108
3.6833
3.69133
3.8404
4.28772
4.06932
3.63559
3.635
4.07572
3.87271
3.79832
3.89997
3.49784
2.28259
3.92161
3.78983
3.24191
3.85294
4.15002
2.60708
2.11486
3.93296
4.15623
4.00434
4.04814
3.99609
3.47924
3.50639
3.40027
3.76523
3.55126
2.85007
3.03387
3.00005
3.53865
3.90154
2.14452
4.01337
3.51424
2.71006
3.92021
4.18386
2.54334
2.47304
4.05798
2.13234
3.90523
3.63809
3.31006
4.00138
3.18068
3.64679
4.22038
4.02662
4.53003
4.25511
4.38839
2.66585
2.10527
3.18689
2.31735
2.28978
3.94822
4.21228
2.53713
2.89635
4.1408
4.06259
3.20203
4.08207
3.82656
3.16784
2.03711
4.09986
2.6307
3.91118
3.91451
2.12601
2.71096
2.60651
1.95287
2.00783
3.93579
4.18585
4.2717
4.55035
4.41851
4.14826
3.83313
2.76717
3.5936
3.72636
3.77744
3.97269
3.97649
3.60937
4.25524
4.10846
3.07984
3.29062
3.28597
3.57661
3.89214
3.89597
1.99625
3.40374
2.0528
4.46815
3.46378
3.19129
3.33353
4.17812
3.75688
4.36645
4.12206
2.46206
3.68898
4.20261
4.17232
3.53163
2.85328
3.73665
3.23199
3.2838
3.10366
3.0726
2.74067
4.08188
2.43427
2.36045
2.29661
4.52002
3.18714
3.15675
3.15654
3.06345
2.08755
2.16795
2.23348
2.69723
2.64318
2.71875
2.19099
4.42427
4.09449
4.33508
4.31314
4.07147
4.27504
3.95728
3.96154
4.09869
4.09743
4.28191
4.20835
4.24735
4.17326
4.6313
4.76531
3.9093
4.00294
3.79139
3.79982
3.8467
3.93593
3.60597
3.95073
3.89416
3.87378
3.91132
4.54769
4.14208
2.15517
2.0729
2.04459
2.02912
2.37991
2.17834
2.29673
4.0359
4.11513
4.09864
4.17579
4.14282
3.99905
3.48219
3.08932
3.35171
4.40593
3.88556
3.8578
3.84639
3.83908
1.98729
1.94342
2.93863
3.01348
2.92992
2.82986
2.7729
2.8223
3.27469
3.76288
3.64685
3.73047
3.06434
4.33583
4.25303
4.23996
4.29614
4.40665
4.3306
4.31636
4.06326
3.97179
3.97134
3.94512
4.08968
3.97879
2.83734
3.88278
4.00476
1.96453
1.9984
1.95593
4.17909
4.50261
4.31924
3.99614
4.11643
4.02864
4.12682
4.22001
4.49965
3.89219
3.96411
4.01854
4.01728
4.40795
4.43202
4.66932
4.61716
4.32561
4.10079
4.36581
4.71263
4.41838
4.52836
4.04498
4.35046
4.72503
4.59452
4.24541
4.43779
4.14294
4.06652
4.16516
4.055
2.3914
3.26467
2.9922
2.88811
3.27143
3.01799
3.19746
3.28431
2.96053
3.15896
2.74068
2.59682
4.30038
4.17499
4.33528
4.2894
4.1472
4.25881
4.25722
4.24254
4.04379
3.8442
3.39944
3.32556
3.42646
3.58086
3.90636
3.94865
2.16722
2.46715
2.03106
2.02937
2.09471
2.05405
4.3294
4.32912
4.45094
4.48794
4.62697
4.57742
4.3337
4.64165
3.95583
3.93751
3.96811
4.0439
3.97827
2.01056
3.62131
3.48096
3.43695
4.11417
4.14647
4.13343
4.15903
4.15002
4.12208
4.15417
4.17023
4.22022
4.0831
4.24673
2.79086
2.71692
3.08944
2.81673
4.00324
4.23347
4.27819
4.18575
4.38486
4.05865
4.42989
4.29535
3.76679
4.01172
3.89481
4.01211
4.1803
4.29935
3.97927
3.75084
3.67288
3.65269
3.40082
3.30266
4.50387
4.45285
3.98692
3.95104
3.96349
4.32984
4.02951
3.13328
3.86735
4.00542
4.08374
3.99037
4.0179
4.01195
4.03928
4.04258
4.0866
2.3123
2.51822
3.93532
4.20821
4.44127
4.20376
3.62894
4.31445
4.15443
4.28041
4.25859
4.14163
4.22823
2.19107
4.58817
4.69753
4.56415
4.61027
3.12661
4.46939
4.576
4.32966
4.3459
4.07397
4.33148
2.51621
2.16218
2.18815
2.36424
2.36494
2.19789
3.28298
2.4985
2.62272
4.2543
4.0122
4.20765
3.2674
3.04002
3.26304
3.13611
3.0425
3.14579
3.84277
3.89811
3.84236
3.8573
3.86541
4.06207
3.31353
3.27503
4.25603
3.86442
3.54982
3.60784
2.68853
3.52604
4.07193
4.05034
3.28265
3.4322
3.33084
3.04981
2.92754
3.04579
2.92881
3.10686
3.66026
4.11677
4.02344
4.04924
3.18497
3.34207
3.57191
3.62716
3.70008
2.87688
3.44435
3.57295
3.70938
3.71419
3.98737
3.81874
3.10653
3.07131
2.86203
3.02861
3.07914
4.27339
3.86558
4.24842
4.37537
2.95127
3.22759
2.01683
2.02651
2.00574
3.95706
3.00379
3.26395
2.98155
4.09164
3.66002
3.84563
3.6453
3.18132
3.23399
3.3185
3.27252
3.94005
3.52778
3.95096
3.67428
2.86417
2.77746
2.87005
2.815
2.77312
2.79464
2.74764
2.72572
2.71159
3.42633
3.2959
2.81582
2.856
2.77278
3.70269
3.51369
3.71712
3.62856
3.95474
4.03064
3.99142
4.43882
3.73028
3.6923
3.53451
2.8476
2.98793
2.00946
2.00359
2.02053
2.0188
3.28652
2.88476
2.81693
2.78841
2.72655
2.72814
3.79193
3.86578
4.1705
3.9474
4.03674
4.19864
3.34239
3.35671
3.46737
2.65339
2.77088
2.75055
2.75674
2.75461
2.03434
2.07395
4.0086
4.01655
2.0776
2.18307
2.09624
2.06002
4.16542
2.33733
2.66774
2.35223
2.48688
2.91693
3.07667
3.093
2.95629
4.25632
3.69579
3.76396
3.59187
3.4948
3.8001
3.88794
4.13474
3.30779
3.16293
3.4726
3.23632
3.10153
2.68555
4.48479
4.55445
4.65522
3.71303
4.46467
4.32238
3.80033
3.47483
3.58163
3.80001
1.92638
1.89262
3.45122
3.21888
3.1895
3.65854
3.22816
3.52652
1.92163
1.9021
4.41191
4.45275
4.27474
4.37247
4.36985
2.71852
4.02589
3.11467
3.83196
2.03863
2.09913
3.89602
3.89993
3.87333
3.8728
3.92736
3.93065
2.25236
2.47074
2.99782
2.89093
3.81375
4.19836
3.72551
3.98933
2.2757
2.26464
4.27727
4.17221
3.75289
3.81357
3.87118
3.73632
3.83608
3.88971
4.20976
4.10767
4.15364
2.47647
2.98873
2.6534
3.62944
3.64016
3.88568
3.78042
4.20048
4.12321
4.12752
4.20597
4.39966
4.37137
4.1719
4.25598
4.11867
4.33787
4.23462
4.10381
4.12448
3.74306
3.65051
3.81896
3.63559
3.25924
3.34961
3.06997
2.88792
2.86326
2.93923
2.80809
2.91038
3.09996
4.14687
3.92959
3.85832
3.8858
3.7635
4.49549
4.4558
4.11839
3.72409
3.96539
3.29054
3.82093
3.84354
3.7622
3.76066
2.43649
2.36408
2.53883
2.46392
2.36016
3.90519
3.97512
3.94996
4.50257
4.53646
4.29586
4.32841
4.66772
4.67801
4.1523
4.38917
4.17971
4.06301
4.02978
3.21911
3.34088
3.07428
3.7198
3.56431
3.77862
3.85935
3.88349
4.28278
4.18104
4.0832
4.11662
3.87375
4.02594
4.15413
3.95453
4.37403
3.12696
3.26211
3.21863
3.07784
3.28303
3.2882
3.41138
3.06992
3.98904
3.97877
4.04604
3.98539
2.46102
2.64639
2.46418
2.48749
3.15551
3.07286
4.16414
4.38751
4.27843
4.10713
4.61739
4.44714
4.05721
3.98399
4.06179
4.11637
2.18088
2.01326
1.98878
1.93074
3.87286
3.93626
3.87114
3.86821
3.52244
3.4872
3.55488
4.73113
4.6873
4.64655
4.59112
4.57501
4.62907
2.92404
2.68903
2.80823
2.5741
3.33335
3.4752
3.47894
3.52558
4.63068
4.47434
4.54718
4.26654
4.49129
3.76234
3.59967
4.39759
3.91019
3.08438
3.20503
2.80432
2.83834
3.10697
3.89294
3.86861
4.72332
4.19794
4.24469
4.33022
4.30377
2.18042
2.14264
2.11718
2.79714
2.77695
3.16028
3.06305
3.19112
3.15468
3.61206
3.50516
2.59093
2.22824
2.70322
3.4972
3.64132
4.08046
4.03745
4.34333
4.10208
4.09134
2.06042
2.042
2.06176
4.68358
4.58921
4.27812
4.28436
2.07419
2.05353
3.82069
3.87773
3.54758
2.92561
3.03098
4.62761
4.36299
3.79607
3.82576
3.80959
2.00512
2.00338
2.00176
1.9835
1.9895
3.62591
4.25749
3.70961
3.60546
3.46557
3.48441
4.33763
3.75566
3.76191
3.82696
3.78372
2.90953
4.06588
4.04666
3.89365
3.91312
2.66071
2.692
2.65132
2.65306
4.64433
4.50365
4.26946
4.39542
4.22111
4.2842
3.13705
3.11234
2.99899
4.01273
4.11138
3.75913
2.78345
2.30095
2.32742
2.53178
2.38554
3.15382
2.64823
2.4899
2.92797
4.85983
4.95498
3.8079
3.55685
3.81827
3.5246
3.66454
3.98386
4.06046
3.97588
2.05512
2.01554
2.0301
2.07345
3.9398
3.78952
2.38836
2.22022
2.18825
1.88848
1.88794
3.20009
3.35658
3.37539
3.1399
3.23763
3.33885
2.93309
2.6603
2.12229
2.11807
2.17114
2.08639
2.07538
2.895
2.82347
3.65644
3.62436
3.80659
3.71392
3.93624
3.96653
3.73136
3.80561
3.65402
2.12525
2.3604
2.99388
3.14825
2.48221
2.4772
2.4804
3.90748
3.91824
3.9506
4.26681
4.57144
4.39299
4.30015
4.48591
4.58813
2.05455
2.51333
2.33012
2.47539
2.47172
2.74083
2.7549
2.26523
2.27922
3.78842
3.8739
3.87475
3.94126
2.26516
2.25422
2.25668
2.29962
3.78784
3.82394
3.5819
3.74378
3.23338
3.62789
3.29282
3.52582
4.80449
4.81591
3.4231
3.25599
2.52126
3.19604
3.02767
3.0402
2.83446
2.22437
2.66448
2.51453
3.02299
2.68356
2.77269
2.5444
3.65235
3.5871
3.24921
3.41441
3.38359
3.46907
2.48152
2.61257
3.49394
3.75998
3.17109
3.17439
3.12865
3.08137
3.15585
3.2823
3.39677
3.69936
3.68221
3.51975
4.49092
4.4182
4.63531
4.49851
3.98114
4.01507
3.32026
3.44567
2.05631
2.10061
2.05998
2.10548
2.09883
2.09804
2.14864
2.1048
2.71204
2.69238
2.75228
2.8317
2.83366
3.90318
3.99222
4.03087
3.87861
3.92279
4.16864
4.15543
4.03967
4.016
3.03517
2.97815
2.00308
2.01029
2.02159
2.04515
2.04547
4.69215
4.44153
3.20919
3.27645
3.34015
4.06431
3.91567
4.21412
3.88067
3.86179
3.22751
3.94904
3.96393
4.06122
3.95762
3.85763
3.9621
4.37653
4.1819
4.18209
4.29285
4.193
4.09893
3.88951
4.21187
4.13872
3.43987
3.26459
3.04138
3.92107
3.93222
3.87796
3.89369
3.64443
1.90939
3.74155
3.80516
3.83644
3.79585
3.88754
3.96754
3.97361
4.0504
4.08031
1.94581
1.92256
1.90728
2.06068
2.05745
2.06347
2.06823
4.93752
4.22475
4.26152
4.36547
4.1564
3.96478
3.06078
4.22281
4.20074
2.44874
2.75121
2.46498
2.66483
2.71688
2.86565
2.85008
2.65194
2.81833
3.67373
3.63561
4.13846
2.0446
3.9712
3.59996
3.32513
2.42355
2.43231
2.45831
3.10015
3.22248
3.03201
2.97353
2.80134
3.76647
3.6432
2.81454
2.75056
2.69439
2.69909
2.8088
2.70449
4.04459
4.15009
4.15875
3.39887
3.50483
3.71322
3.50319
3.3601
4.35462
4.08036
4.10388
3.69872
1.89397
1.87249
4.33166
3.6541
3.58444
3.66504
3.66575
4.01848
3.78006
3.89771
1.99715
2.03581
2.01882
2.03279
2.01136
4.72453
4.51732
1.89714
3.80111
2.85368
2.55327
3.40313
2.9957
3.42759
3.16669
2.90858
4.18435
3.97636
4.10209
4.04087
4.08095
3.63215
3.16988
3.14744
2.04597
2.04263
2.04255
2.03091
2.02727
2.03889
3.86472
2.20604
2.03711
1.87975
1.9443
1.90769
4.16235
4.16063
3.87418
3.56575
2.85715
2.87584
3.15084
2.70126
2.33452
2.78033
2.66334
4.03761
3.94728
4.1037
3.99485
3.89452
3.94444
3.89088
2.25146
2.3293
3.47587
3.50755
3.30414
3.42874
3.4391
3.80376
3.78203
3.83679
3.41942
3.58473
2.95317
3.20024
3.23513
2.90477
3.05752
3.25866
3.05644
3.10502
3.02009
3.20829
3.301
3.89752
3.95247
3.97094
3.91542
3.95277
2.33567
2.25988
2.69399
2.43268
2.80984
2.60818
3.93721
4.09014
4.03021
4.12135
2.99519
3.22928
3.10175
3.00221
2.84936
2.63456
2.72614
2.02083
2.01804
4.62059
4.77843
3.87597
3.81929
3.84045
3.66989
1.96047
1.92611
1.87602
1.96136
1.92339
4.12732
4.13604
3.69575
3.60804
3.58099
3.12742
3.16607
3.02513
2.54219
2.59223
2.50872
2.52266
2.01272
2.02118
2.0145
2.02617
3.58565
3.8708
3.90965
3.82493
3.37743
3.46242
2.95074
4.19527
4.25158
4.48107
4.1814
4.34831
4.29425
2.22497
2.47595
2.16597
2.28132
3.49094
3.6905
3.62592
3.66564
3.52912
2.02806
2.01296
2.01325
4.61129
4.56073
3.5638
3.41729
3.24246
2.49893
2.87105
2.89525
2.53323
4.30982
4.34221
4.33849
4.40927
4.36847
4.37383
3.61312
3.71387
3.77474
3.53667
4.68693
5.00279
2.86742
3.00042
2.55039
4.71215
3.40942
3.3308
3.41917
2.81302
4.7912
3.93477
3.93877
1.91858
2.53315
2.43323
2.46637
2.52244
2.43121
2.43192
2.04111
2.03764
2.20219
2.0915
2.49909
2.60327
2.50161
2.55188
2.4995
2.60417
2.50003
2.55874
2.95043
2.73633
3.55477
4.55271
4.77767
3.02246
2.04541
2.00693
2.00848
2.02026
3.53852
3.40297
3.34424
3.79396
3.50301
3.55715
2.96294
3.91457
3.888
3.93057
2.69074
2.63552
2.4099
2.3949
3.52525
3.6116
3.91501
3.93327
3.9525
4.10352
3.72238
3.77871
4.51437
4.45795
4.76716
3.23969
3.70959
3.61194
3.14396
3.46601
4.3399
4.27206
4.20018
3.82943
4.11805
1.95492
1.89447
3.7413
3.84467
3.91245
3.92296
3.74432
3.80615
3.8264
3.88738
3.79112
3.82417
3.88968
3.90555
3.73196
3.82909
3.75623
3.81371
4.2525
4.20739
4.2933
4.26048
1.87885
1.84873
1.92816
1.99238
3.47091
3.44814
4.42355
4.49342
4.34264
3.30998
3.30938
3.34992
4.1844
4.04122
4.08824
4.1132
4.19756
3.26798
3.60291
3.19333
3.29594
3.02405
3.03291
2.71179
2.64528
2.66674
2.85499
3.44936
3.63296
3.85852
3.87887
4.68069
4.65339
2.0472
2.04457
3.96653
3.8967
2.59247
2.57048
2.57251
2.53248
2.55825
2.57149
2.41261
2.32832
2.4762
2.2226
2.25053
2.36624
2.21699
3.278
3.17314
3.17153
3.0799
3.59397
3.55013
3.3713
3.49146
3.36943
3.43614
4.259
4.32557
4.39315
4.25909
4.37874
3.83372
3.90136
3.0108
2.82464
2.7908
3.16853
3.6259
3.69924
3.69892
3.33364
3.188
1.88168
1.8283
2.70072
2.83622
3.32473
2.25021
2.18925
2.19464
2.39924
2.29651
3.99605
3.94042
3.96361
3.90848
3.96533
3.4682
3.52838
2.12473
2.27591
2.16021
2.18853
2.31976
2.17882
2.33997
2.51968
2.56912
2.37394
2.06176
2.04072
1.94533
4.65142
4.61691
4.65486
4.49684
4.70336
3.7024
3.56556
3.08582
3.60653
3.66919
3.54571
3.5295
2.38208
2.82357
2.60093
2.59569
2.38517
2.35989
2.19798
2.5578
2.46754
2.15742
2.22586
4.73507
4.60674
4.30173
4.23456
4.25535
3.51752
2.87446
3.28399
4.33626
4.72891
4.46015
3.94753
3.84283
3.88895
3.1158
2.9396
2.48306
2.36255
2.85424
2.45922
3.16402
3.21373
3.13079
3.21466
3.40304
3.46026
3.32662
3.18886
3.1749
2.30144
2.17735
2.27062
3.08003
3.87406
3.0968
3.50696
3.93996
3.77893
3.43699
3.8111
3.50045
4.18584
4.50091
4.01145
3.12834
3.21023
3.40392
3.47533
1.99096
2.04555
2.11446
2.10323
3.92591
3.86635
2.08503
2.0774
3.07292
3.02455
3.0834
4.84481
1.83917
1.86367
1.90936
2.24668
2.10184
2.12464
2.92287
2.77918
3.77784
3.75931
3.67048
3.62804
2.54295
2.61246
2.91819
1.85479
2.96271
2.83151
2.70986
2.9224
2.76002
2.7079
2.98337
2.84287
2.94982
2.77106
2.89618
2.88779
3.15986
4.00108
3.96561
2.06577
2.1416
1.98727
3.78702
3.72107
3.74009
3.57491
3.54838
3.48962
3.44415
3.20403
3.05296
3.07736
3.07894
3.11726
2.90296
3.20512
3.08236
2.99401
3.16478
2.74393
2.74021
2.75989
2.79188
2.78136
3.20127
3.02426
3.0457
3.18109
3.09179
3.13406
3.05197
3.23149
3.20363
3.20192
3.13103
3.7324
3.65837
3.75854
3.70597
3.64879
4.29561
4.22512
4.25092
4.27146
4.30261
3.17441
3.29857
3.16223
3.35616
3.29134
3.89207
3.88839
1.96301
2.64821
2.84013
2.91912
3.61584
3.52923
2.439
2.33127
2.33048
3.9521
3.8068
3.97317
4.75056
4.31806
4.22529
4.72799
4.73999
4.38542
4.64815
4.69361
4.53559
3.02872
3.21298
3.92687
3.90397
3.89785
3.93699
2.69373
2.54324
2.31336
3.05265
2.28356
2.69956
2.76418
2.48727
4.03921
4.28568
4.0994
5.10942
2.29088
2.47491
2.53394
3.0879
3.08563
2.80301
2.78599
3.38602
3.33635
5.66879
3.8927
3.76749
4.14345
4.22844
3.16845
3.39858
3.00662
2.67176
3.47958
3.56324
3.55186
3.59074
3.95918
3.95554
3.91997
3.91936
3.90979
3.91558
3.92924
3.89629
3.89782
2.60827
2.55078
3.34444
2.38836
2.42794
2.83107
2.7096
3.59255
3.42997
3.54543
3.61145
3.47225
3.35989
3.47021
3.54674
3.66574
3.49447
3.74983
4.09281
4.42839
4.73669
3.30905
3.32073
3.50054
3.41412
3.50805
3.44646
3.93973
3.93465
3.94907
3.95337
3.91736
3.93923
4.41191
4.06328
4.77868
4.41766
3.95335
3.93788
3.93267
3.88777
3.92736
3.95987
4.00468
3.43169
3.51863
3.52058
2.83219
2.22735
3.22221
3.38051
3.72626
3.73182
3.65617
3.59984
3.64097
2.80335
2.712
2.72955
2.86948
2.81929
3.27073
3.14336
3.15791
3.34319
3.2803
2.12192
2.0685
2.12299
2.16408
2.06597
2.05042
2.48036
2.14254
2.15879
2.27864
2.32213
2.2156
5.0511
3.76409
3.77028
3.82666
3.82596
3.8376
1.83371
3.97164
4.04041
4.06106
3.94109
3.98564
3.21509
3.34428
3.28906
3.3282
3.25317
3.38419
3.16389
3.53614
3.35305
3.38885
2.73967
3.00045
3.47249
3.26607
2.12279
2.16276
2.28607
2.35713
2.13329
2.22581
2.82338
2.72747
2.62082
2.44643
2.52207
2.41482
3.97499
3.94985
1.95294
1.90126
1.90442
1.97939
1.99634
4.47036
4.31531
4.41474
4.34644
4.28743
3.97703
3.78279
3.96279
3.85851
4.1269
4.33163
4.2244
3.55612
3.50143
3.45988
3.04198
3.13851
3.1929
2.23662
2.13941
4.61437
4.75658
5.16
3.90333
3.97786
1.87937
1.85509
2.57216
2.36613
2.30533
2.54688
2.17179
2.17261
3.64047
3.61085
3.6672
3.71684
3.71915
3.46595
3.52223
3.61444
3.49994
3.51362
3.69733
3.68612
4.48628
4.19689
4.0111
4.06692
4.33991
4.89762
5.96875
2.76293
2.7139
2.59342
2.63347
2.55256
3.9345
4.12862
3.97761
4.61641
4.89067
4.99039
2.62859
2.77191
2.79813
2.96889
2.94289
2.81449
2.73304
2.84561
3.03892
2.9042
2.77696
2.76948
2.79125
2.73449
2.72413
2.78793
2.74505
3.13828
3.16162
3.13
3.07839
3.08419
3.07716
3.10613
3.0663
3.5357
3.65181
3.87278
3.93544
4.2905
4.56298
4.2388
3.86853
3.94565
3.67915
3.69774
3.78965
3.76134
3.50904
3.58662
3.44911
2.91324
2.85522
2.90083
3.35291
3.46032
3.41293
4.08132
4.13137
4.09729
4.16527
4.0973
4.11113
3.95938
4.01969
3.81272
3.95889
3.78606
3.96898
3.93798
4.04403
4.0444
3.9557
1.98857
1.9635
1.92804
3.74732
3.71125
3.84856
3.214
3.34406
3.31301
3.32202
3.36449
1.9384
1.97278
3.95205
3.9073
3.85649
3.87859
1.94979
1.97575
1.87551
3.38228
3.45046
3.9398
3.96951
3.96762
4.65651
4.49673
3.93697
3.98855
3.97476
3.97458
3.95343
2.54832
2.31877
2.87971
2.53169
2.65215
3.07045
2.78301
3.30276
3.20219
2.86745
3.11026
2.96865
3.16593
3.45331
3.7936
2.30052
2.35006
2.23743
2.58269
2.53991
2.73939
2.73526
3.10149
2.80226
2.74252
2.78618
2.74815
2.72942
4.30359
4.57396
5.14208
3.6501
3.65197
4.04903
3.10041
3.07882
3.01623
2.98616
3.13585
3.15319
2.04307
2.05766
2.08698
2.06323
2.02893
2.03394
2.86398
2.63356
2.74214
2.91423
2.50083
2.45123
3.4116
3.38086
3.23355
3.27593
3.27493
3.35725
4.17727
4.51569
4.35247
3.78097
3.64779
3.04693
1.96822
2.0325
1.96678
1.99471
2.00069
2.04108
3.60051
3.54135
3.85385
4.02563
4.06974
3.6399
3.60771
2.16027
2.20374
2.37122
2.27087
2.42977
2.54596
2.35258
2.76374
3.35164
3.01908
2.58312
2.32875
2.27267
2.54556
2.35875
1.84792
1.85289
2.92456
2.89156
2.68351
2.6533
2.57729
3.75267
3.82226
3.77848
3.83444
3.90987
3.98535
4.01773
4.01658
4.13965
3.96459
4.02943
4.14587
4.27773
4.29274
4.2034
4.28507
3.65671
3.59391
3.29815
3.38032
3.56984
3.38507
2.76572
2.77048
3.19375
3.20214
3.3049
3.24167
4.03383
4.03356
3.97433
3.98552
4.01105
2.64832
2.75116
2.51647
2.50423
2.57934
2.69536
3.7854
3.68879
3.75787
3.70577
3.48397
3.61908
3.58432
3.50928
3.92139
4.01802
2.92613
3.16943
3.20191
2.5334
2.48556
2.73315
2.84151
2.72494
3.43275
3.33996
2.8903
3.32028
2.76738
2.98831
3.10934
4.02776
4.00721
3.97972
4.00315
4.13154
4.17281
2.90637
2.55609
2.66362
4.09805
3.77195
3.92938
3.97254
4.10893
4.07337
4.06322
3.98431
4.38735
4.31084
4.18191
4.35091
4.21954
3.80808
3.90626
3.9794
3.91117
3.80903
2.4555
2.24302
2.12533
2.14173
2.05616
3.2967
3.41105
3.51019
4.12244
4.178
4.09841
2.93146
2.97948
3.79592
3.59644
3.53499
3.67828
3.8232
1.94258
1.96071
1.96842
1.92563
1.96903
1.99612
1.99386
3.09133
3.15583
3.26512
3.17967
3.26823
3.96072
3.95238
4.37647
4.29229
4.27621
4.38967
4.39207
5.02225
3.26403
3.14397
3.14123
3.2617
3.12454
3.08362
3.06003
2.99662
3.43409
3.32028
4.15421
4.14002
4.06814
4.16356
3.22176
3.24615
3.1727
3.30875
3.14197
3.46174
3.41352
3.38086
3.25024
3.0255
2.89719
3.01366
3.02051
3.23197
2.90168
2.82238
2.73547
3.36737
3.28408
3.19918
3.43519
3.25636
4.06921
4.10083
4.28024
4.18659
4.0837
4.72074
4.99152
3.17475
3.26897
3.15648
4.159
4.10964
4.1891
2.95764
2.73711
3.08068
3.29946
2.93238
2.782
2.88989
2.60535
2.65606
2.58983
2.53552
2.65942
2.53222
2.63561
2.56345
2.62657
2.56397
2.61296
2.66474
3.21544
3.40563
3.2513
3.35387
3.3811
3.28892
4.24306
4.13773
4.19752
4.14435
4.26825
4.2372
4.23691
4.9018
5.21431
4.1763
4.25371
4.39375
4.13672
4.26947
2.63727
2.53751
2.60082
2.52436
2.58238
2.7375
2.8124
2.9292
2.78694
3.00791
2.96771
3.24523
3.21255
3.42973
3.42825
3.66599
3.48705
3.624
3.6209
3.50096
3.59015
3.68399
3.64092
2.78957
2.865
2.64974
2.61669
2.54315
2.52615
2.58461
3.289
3.08494
3.2204
2.66266
2.63285
2.73776
2.91444
2.88008
2.79046
2.77474
2.86479
2.64814
2.57984
2.62441
4.20478
3.91334
4.16848
3.99187
4.95804
5.09293
3.16658
3.07765
2.99018
3.15297
3.05305
3.44018
3.31937
3.47322
3.33029
3.41818
3.37315
3.29634
3.37488
3.30277
3.23333
3.24637
3.14345
2.9405
3.0899
3.01704
2.97533
4.46797
4.67855
3.44218
3.45045
2.2628
2.22256
2.13294
2.09662
3.65359
3.65604
2.68955
2.74115
3.26891
2.97184
2.91466
3.27793
4.44885
4.2952
3.90666
3.94737
4.21564
4.28495
4.27144
4.19792
4.259
4.28553
4.25029
4.28057
4.27681
4.28212
3.80392
3.71116
3.64425
4.19724
4.39564
5.47459
5.52082
3.72884
3.66337
3.76288
2.33897
2.1968
2.34403
2.2981
2.14332
2.16171
3.57312
3.3666
3.08438
3.56581
3.33092
3.51647
2.41304
2.34765
2.65451
3.51194
3.63714
3.53147
3.59876
3.6231
3.57629
3.78262
3.71247
3.75754
2.85671
3.03575
3.34308
3.54162
3.50928
3.29531
3.40049
3.62004
3.65699
3.47803
3.44953
3.55526
3.08866
3.00133
3.20397
4.01859
3.89747
4.00926
3.83181
3.80442
2.2509
2.1703
2.20067
2.18308
2.2321
2.07413
2.05545
1.96297
1.89692
1.99218
1.95084
1.98375
4.10966
4.18083
4.13165
4.26117
3.79786
3.61099
3.36432
2.55918
2.55608
2.60629
3.04164
3.11031
3.23769
4.2597
4.23823
4.24199
4.23036
4.19551
4.22121
3.95257
4.17151
4.04987
1.99777
4.41988
4.03334
4.3045
2.24573
2.13998
2.43515
2.24479
2.15242
4.14642
4.25432
3.70953
3.75714
3.69074
2.02207
2.04159
2.7496
2.37539
2.16141
2.09652
4.00705
3.81862
3.86441
3.81287
2.26096
2.27026
3.22723
3.14341
3.07902
3.51757
3.31104
3.21733
3.93052
3.7396
3.07167
2.9633
3.24896
3.13924
3.86349
3.87097
3.86513
3.77545
5.15285
5.64507
4.0914
5.46038
2.87832
3.80035
1.66277
2.82002
2.78373
5.86899
6.63658
3.81805
5.85037
3.26139
6.63782
6.14831
4.10133
4.20119
6.38553
5.75557
5.52652
5.2564
5.16486
5.80838
5.12641
5.01062
5.1307
4.80595
5.23554
5.62322
5.99721
5.6017
2.07185
5.13598
5.08919
3.97234
5.45564
5.66287
5.22702
5.09314
6.13546
5.2661
5.13089
1.69114
1.82114
5.30834
5.61743
3.91982
2.00263
5.19747
3.85527
4.89329
5.17472
5.10934
3.85715
5.12827
5.11744
5.1801
5.76751
5.54459
5.88588
5.02855
5.1909
5.06771
3.96268
3.87221
1.9569
1.84741
2.06046
5.69118
6.09854
3.96678
6.27133
5.22658
5.09687
5.2646
3.73351
3.8376
3.64336
3.71501
2.76905
2.78267
5.73715
5.46363
5.46953
5.2434
3.84541
3.99498
3.91188
7.18157
5.95399
6.61723
6.44639
5.13848
5.13394
5.22368
5.19089
5.12638
4.97262
5.90906
5.84625
5.59975
5.39172
5.60509
5.45562
5.96688
5.56593
4.11052
4.36988
5.50277
5.59689
5.36318
3.24783
3.815
4.03827
3.75207
2.9048
2.72847
2.86619
1.66015
1.79625
1.62879
5.58902
5.63784
6.33225
6.17009
5.61775
5.77723
5.86087
2.79897
6.53476
5.59505
5.26751
4.91088
5.04808
5.13744
4.87572
5.21083
4.91081
4.81603
5.02278
3.04251
3.14487
5.65559
5.35532
5.2522
5.55268
4.9963
5.71612
5.72729
5.89838
1.61839
1.75192
5.32375
5.43625
5.28933
4.13633
3.89818
1.59398
2.25634
2.95202
2.81773
2.87414
3.81664
4.06203
3.7278
1.69104
2.08034
2.21255
2.32559
1.81203
2.06055
5.23292
5.38631
6.0101
5.66124
6.04671
5.46766
5.81262
5.07174
5.18421
5.39853
4.42376
1.61749
1.74343
1.61888
1.77265
5.48982
5.35103
5.4446
5.97825
5.4697
7.13039
6.25943
6.8964
5.89357
1.61799
1.77699
1.95653
1.86238
2.29153
2.36496
2.09324
2.18991
6.04793
5.78647
2.12357
1.98785
1.70122
1.86863
6.34893
5.94875
2.34343
6.56109
5.58313
5.92473
6.61477
1.76818
1.60232
1.74472
4.20341
3.05552
2.96249
3.16697
6.9716
5.99106
4.21053
3.88703
3.9586
1.71984
1.89087
6.1577
5.49414
6.38897
5.26472
7.13241
4.74624
4.08535
5.25015
1.64293
1.80036
1.75155
1.64732
1.78981
1.59205
6.44193
5.77629
6.45281
2.51052
2.54212
3.75893
3.67542
3.35053
3.46239
3.54355
1.59153
1.72473
5.34738
5.24032
5.23487
4.07101
6.07687
3.76625
6.73824
5.12379
6.28376
5.76283
1.71055
1.62427
1.7597
6.04639
6.47237
6.02634
6.69165
1.72609
1.61364
1.74734
2.54156
2.82126
2.59372
2.46347
2.84936
2.45342
1.62686
2.6205
2.93631
2.60828
2.12601
2.2831
2.3893
7.5071
5.87254
2.75999
2.75809
5.29539
5.37098
5.27832
6.11529
5.8956
6.51796
3.48907
3.38221
3.58902
7.71704
6.49174
6.60431
6.19472
5.99782
1.91022
2.17255
3.99581
4.19997
3.91328
4.83492
6.68565
5.90313
5.72955
5.94459
1.60149
7.32228
5.80665
2.93262
2.89677
3.00137
3.98754
3.89586
4.119
1.62379
5.17596
5.63544
5.56627
1.62207
1.73639
5.7984
5.91903
5.78965
1.58397
1.6962
4.29504
4.05848
4.17291
5.92938
5.46905
5.9001
5.82238
5.56654
5.82414
1.59296
1.7016
1.69407
6.58756
1.6626
5.1032
5.08546
5.13367
6.93187
6.595
8.73188
7.26015
1.98398
2.18335
6.39835
5.84084
6.18816
6.26478
1.99451
1.78779
7.11441
6.09652
1.56376
1.68918
1.62817
1.74449
1.75239
7.57345
5.87579
6.40807
1.74493
1.60384
1.69915
9.16978
7.9627
7.35106
6.02882
6.14874
2.97888
2.97887
1.64327
1.77926
1.73914
6.38058
5.71694
5.12994
8.01368
6.42473
7.27257
5.80772
5.68131
1.70795
1.57616
1.70525
3.80486
3.80847
1.64543
1.79442
1.79357
4.86043
6.33114
5.71197
6.53235
6.80069
5.31623
6.08089
6.11213
6.11089
7.34921
5.66356
6.06487
1.68381
1.8219
1.80146
8.06111
6.51646
6.5906
1.87777
2.0624
5.07094
5.99414
3.86057
4.2763
4.15836
1.94245
5.77132
5.53537
6.30311
5.8452
6.09305
5.01951
5.5952
5.35979
5.01906
5.43557
1.78374
1.8622
5.3012
4.30281
4.3217
1.69884
1.77674
1.66521
1.74767
4.54486
2.87168
2.9569
2.19688
1.95462
2.14407
3.97223
4.33059
3.96539
4.02667
2.18549
3.92906
3.75331
4.23516
2.84152
2.74484
3.83867
4.15887
4.2727
2.64048
3.28579
4.0798
3.64676
3.6224
3.2855
2.52584
3.38973
4.08567
4.26978
3.38887
2.97063
3.97046
3.9201
3.96658
3.61772
3.26703
3.11989
2.03608
4.07186
4.0153
2.78813
2.1103
2.03016
3.47577
4.00606
3.97031
3.96609
3.95366
3.72085
3.70303
3.70893
4.11754
4.57483
2.83231
3.62678
1.99993
4.27754
4.12103
4.44361
2.78012
4.27346
2.77578
3.43582
3.63709
3.29893
3.48373
2.09752
4.39632
2.58515
3.55889
2.97435
4.14342
3.3577
3.19847
2.61179
2.97553
3.1785
3.06442
2.47754
2.54931
3.19589
2.76548
2.14826
2.15608
3.21961
2.3961
2.7094
3.76429
2.89035
3.10889
3.95396
3.3156
3.23713
3.24787
2.69844
3.77365
4.10641
4.02282
3.93957
2.92329
2.61243
3.35683
3.33481
4.09252
3.6343
3.71329
3.99289
3.98809
3.98558
2.33585
2.43689
3.76569
2.94388
1.97019
3.89834
3.80758
3.47218
4.04137
3.9687
3.12631
2.97827
4.20327
4.13171
4.20921
3.86082
3.42803
4.19309
3.90037
3.95914
2.71513
3.915
3.36191
2.83589
2.07358
3.76322
4.13344
3.27103
4.08365
4.04436
3.52913
3.4929
4.31087
2.81197
2.74476
2.82243
4.54145
4.12411
2.24722
4.52614
1.98932
3.19805
3.00517
2.46362
4.18825
4.15338
4.37161
3.7567
4.23876
4.21595
4.29523
4.27936
4.50458
3.80695
4.2359
2.13323
2.15733
3.10368
3.04628
3.00139
2.87263
4.32182
4.26428
4.11813
4.13869
4.306
4.21747
3.71078
3.12569
2.6239
3.86034
3.35344
3.85222
3.73841
3.80436
4.24923
4.12506
3.99643
3.69896
3.64972
4.00184
2.28666
2.81616
4.08447
4.07949
4.12947
4.10654
4.01541
4.02636
2.19697
4.48147
4.56453
4.53406
3.37968
3.56327
3.68851
3.40432
3.64398
3.72028
3.8273
3.42151
4.54657
4.83108
3.53433
4.66974
2.63151
2.75355
2.65039
3.0585
2.07201
4.56829
4.12667
4.01016
2.83588
2.86939
2.98278
3.01895
2.94859
4.45955
4.81054
3.08665
4.40153
3.6544
3.70103
3.34736
3.62045
3.47924
3.5242
2.62164
2.47895
2.48969
2.50491
2.51234
3.34566
3.51845
3.34529
2.3475
2.59447
3.11246
2.7504
2.8486
4.26452
3.98808
3.90847
3.96517
2.8445
3.29066
3.18536
4.5392
3.94806
4.02123
4.08411
4.06979
2.95188
3.06217
2.06461
2.1465
2.18161
3.28203
4.11226
4.21653
4.11823
4.15732
3.9953
3.98023
4.00864
3.20154
3.16937
3.30476
4.38496
4.23227
4.4026
4.23989
3.21055
3.09097
3.29559
4.01978
3.74594
3.83572
3.62388
4.33956
4.00489
4.52165
4.34146
4.75765
1.95207
3.30326
3.13335
3.11715
3.52279
3.65826
2.71107
2.75509
3.93463
3.95306
4.05151
4.15376
4.05071
4.34469
4.06929
3.9882
3.94126
4.11099
3.4084
3.18059
3.24804
3.14562
3.45317
3.37257
3.84485
4.36471
4.18894
4.27718
1.95541
4.1381
3.16575
2.7653
4.01183
4.06564
2.86428
2.58817
3.74603
3.66266
2.17088
3.97198
3.6132
3.57511
3.30204
3.95556
3.3118
3.2277
3.19544
3.72161
2.94312
3.24738
3.55245
3.88923
3.88641
4.17414
3.27612
3.40267
3.43327
2.04222
3.19215
3.21592
3.93127
4.169
4.03975
4.14155
4.02545
3.92144
2.99385
2.83677
3.05782
2.78852
3.7836
4.11643
4.36474
4.11968
4.16818
4.28148
3.31784
3.77751
3.67561
3.24453
4.42159
3.30115