/*--------------------------------*- C++ -*----------------------------------*\
| =========                 |                                                 |
| \\      /  F ield         | OpenFOAM: The Open Source CFD Toolbox           |
|  \\    /   O peration     | Version:  2206                                  |
|   \\  /    A nd           | Website:  www.openfoam.com                      |
|    \\/     M anipulation  |                                                 |
\*---------------------------------------------------------------------------*/
FoamFile
{
    version     2.0;
    format      ascii;
    arch        "LSB;label=32;scalar=64";
    class       volScalarField;
    location    "200";
    object      nut;
}
// * * * * * * * * * * * * * * * * * * * * * * * * * * * * * * * * * * * * * //

dimensions      [0 2 -1 0 0 0 0];

internalField   nonuniform List<scalar> 
184166
(
0.167302
0.186862
0.207573
0.162871
0.192275
0.222339
0.172198
0.219725
0.165339
0.186901
0.162514
0.212659
0.213321
0.164082
0.198181
0.199926
0.204349
0.220843
0.210734
0.212662
0.21255
0.209853
0.220434
0.164295
0.218198
0.198124
0.195627
0.213121
0.207992
0.211559
0.215608
0.17736
0.157098
0.228408
0.213389
0.214944
0.211791
0.204387
0.180925
0.200867
0.214978
0.214254
0.205714
0.230231
0.20691
0.213585
0.20094
0.187872
0.230448
0.209797
0.203047
0.181876
0.20478
0.221914
0.226654
0.224083
0.201436
0.230118
0.185304
0.183668
0.210834
0.182296
0.179255
0.179173
0.148105
0.169474
0.205307
0.189839
0.177063
0.220662
0.206972
0.218447
0.204066
0.19067
0.216481
0.204435
0.221176
0.193793
0.219008
0.201524
0.19716
0.215853
0.189463
0.187807
0.204756
0.15784
0.216574
0.210573
0.174636
0.214135
0.174118
0.19236
0.189841
0.111547
0.192041
0.179033
0.231381
0.180167
0.211754
0.219314
0.213177
0.212013
0.185922
0.203579
0.191497
0.223248
0.219255
0.188737
0.177831
0.213
0.202143
0.193113
0.174294
0.208069
0.215967
0.208705
0.182083
0.207901
0.173337
0.198773
0.182072
0.21226
0.208836
0.219761
0.220065
0.190775
0.204231
0.218124
0.185821
0.191509
0.210529
0.218183
0.186243
0.201662
0.218726
0.213914
0.216988
0.189088
0.169056
0.209807
0.207064
0.172173
0.171462
0.21191
0.176472
0.214412
0.207975
0.210565
0.184165
0.145533
0.201515
0.157349
0.21589
0.177261
0.184592
0.153988
0.211586
0.159578
0.16576
0.205594
0.175723
0.169814
0.204321
0.220641
0.21562
0.205939
0.212858
0.195817
0.173829
0.21061
0.210688
0.175989
0.220006
0.228055
0.219841
0.183019
0.168546
0.163227
0.18192
0.193683
0.174887
0.19981
0.171125
0.207073
0.200766
0.182296
0.213621
0.122792
0.187257
0.207723
0.213966
0.212845
0.221924
0.183749
0.173337
0.198695
0.200979
0.161451
0.176666
0.202962
0.203515
0.208402
0.173417
0.222041
0.20202
0.17736
0.214284
0.211997
0.186199
0.228164
0.151871
0.190899
0.214764
0.152888
0.205286
0.221881
0.213922
0.191472
0.201812
0.20303
0.211475
0.218576
0.22193
0.196622
0.201789
0.21276
0.21621
0.225048
0.219786
0.169389
0.149721
0.189141
0.223254
0.186478
0.222095
0.220473
0.210281
0.177835
0.183809
0.182295
0.174128
0.209482
0.172216
0.188464
0.204506
0.197965
0.209808
0.214116
0.232245
0.218747
0.194922
0.135944
0.211466
0.211801
0.189459
0.219688
0.189676
0.207189
0.220505
0.218764
0.151265
0.199765
0.228336
0.176275
0.216204
0.22799
0.210605
0.176568
0.230456
0.189684
0.205635
0.200785
0.16916
0.208356
0.21266
0.167311
0.174497
0.184195
0.216048
0.187806
0.210415
0.15635
0.183294
0.218087
0.199362
0.214287
0.164267
0.159609
0.225173
0.194947
0.197222
0.194861
0.210034
0.228226
0.161363
0.194373
0.223956
0.14544
0.214357
0.158892
0.219841
0.222198
0.183077
0.209771
0.14039
0.1907
0.221614
0.170911
0.198651
0.189308
0.21966
0.213579
0.199732
0.214604
0.191159
0.188878
0.213506
0.177548
0.221707
0.197324
0.211203
0.213867
0.180023
0.173108
0.226546
0.193394
0.228312
0.215487
0.209824
0.217869
0.213226
0.208464
0.206869
0.213642
0.173511
0.217622
0.22055
0.220159
0.213234
0.183131
0.210891
0.153994
0.148435
0.221504
0.231054
0.226147
0.208494
0.172213
0.198513
0.2035
0.202229
0.210142
0.19101
0.20191
0.214412
0.219531
0.215509
0.183755
0.217711
0.184346
0.211238
0.172904
0.214669
0.188168
0.198208
0.212979
0.186988
0.206869
0.203551
0.173168
0.174643
0.15835
0.149013
0.224668
0.232246
0.229466
0.205102
0.206781
0.211001
0.191953
0.196049
0.198474
0.212812
0.19759
0.190668
0.225193
0.219865
0.211718
0.208835
0.196869
0.195218
0.203292
0.205421
0.175532
0.221166
0.181049
0.221098
0.206362
0.217932
0.162801
0.191697
0.209254
0.16126
0.189236
0.206045
0.207649
0.214334
0.211609
0.186354
0.195999
0.224109
0.219415
0.220717
0.217709
0.21686
0.196027
0.22559
0.170692
0.170018
0.170671
0.162731
0.189452
0.180631
0.184404
0.182434
0.18259
0.181549
0.186393
0.209413
0.2082
0.209621
0.172287
0.148723
0.15738
0.152802
0.153092
0.161377
0.153538
0.20645
0.210961
0.212368
0.214775
0.190164
0.19931
0.194456
0.209153
0.164966
0.160656
0.204179
0.209502
0.201156
0.20017
0.205468
0.209204
0.192727
0.207708
0.218078
0.219832
0.217889
0.233206
0.174357
0.17596
0.174456
0.175285
0.174307
0.194828
0.200668
0.20363
0.218593
0.210229
0.201042
0.199081
0.164815
0.180741
0.219887
0.216042
0.219938
0.158529
0.186727
0.208639
0.193831
0.205773
0.174705
0.172941
0.213924
0.214811
0.213642
0.211605
0.210709
0.211495
0.16742
0.210509
0.215947
0.212542
0.154793
0.226567
0.231075
0.229043
0.227643
0.23166
0.231691
0.231883
0.173965
0.202319
0.201157
0.2083
0.17778
0.20008
0.208804
0.184009
0.161578
0.172778
0.174933
0.173522
0.228256
0.228995
0.223194
0.207346
0.210649
0.20475
0.207035
0.220757
0.228248
0.22197
0.213008
0.212784
0.218618
0.231762
0.231886
0.233841
0.234176
0.151709
0.161345
0.151752
0.230848
0.225906
0.228563
0.173632
0.153312
0.14681
0.149359
0.158902
0.15459
0.222466
0.219222
0.232681
0.23218
0.198043
0.197863
0.191384
0.196295
0.203133
0.195345
0.199204
0.207693
0.200175
0.203516
0.192803
0.192356
0.223894
0.212429
0.227438
0.224723
0.212724
0.224861
0.227955
0.2256
0.219428
0.215479
0.184883
0.184002
0.185926
0.190495
0.193681
0.11548
0.176766
0.181397
0.177247
0.178303
0.178073
0.179204
0.221413
0.221678
0.227932
0.230539
0.232835
0.232594
0.224352
0.232426
0.205197
0.193364
0.188147
0.173882
0.178304
0.172743
0.216884
0.21734
0.217448
0.175382
0.205141
0.205287
0.212844
0.176351
0.201716
0.204199
0.211082
0.168961
0.176378
0.166465
0.211345
0.175159
0.152409
0.163809
0.201382
0.219355
0.222614
0.217551
0.223472
0.204039
0.226766
0.221101
0.220895
0.216645
0.218914
0.215264
0.211223
0.213437
0.163284
0.206679
0.212915
0.213192
0.199242
0.194066
0.231784
0.229622
0.206542
0.199015
0.185216
0.147707
0.174418
0.183033
0.175375
0.192766
0.160724
0.192137
0.202641
0.193717
0.156852
0.193633
0.205625
0.201209
0.204277
0.182849
0.157413
0.154403
0.162308
0.214805
0.161225
0.173585
0.165568
0.166967
0.177141
0.165487
0.201708
0.230784
0.23427
0.230318
0.232285
0.216239
0.167059
0.158472
0.169374
0.148625
0.159627
0.150946
0.20749
0.200441
0.200331
0.204259
0.205145
0.201803
0.183906
0.198315
0.19569
0.13983
0.151806
0.148995
0.218133
0.215372
0.217918
0.216562
0.215492
0.216819
0.189898
0.16009
0.189224
0.198587
0.159958
0.149769
0.219658
0.219175
0.218713
0.214284
0.208111
0.20683
0.208292
0.222211
0.221319
0.219162
0.183624
0.186538
0.184337
0.214449
0.212871
0.21403
0.212736
0.213522
0.219588
0.215605
0.212877
0.212705
0.162969
0.158525
0.215925
0.215458
0.211073
0.180511
0.22315
0.225876
0.199748
0.190451
0.210705
0.197016
0.179216
0.171303
0.211581
0.213157
0.214089
0.21542
0.211371
0.218087
0.219175
0.21418
0.163572
0.176156
0.175733
0.175369
0.206994
0.182884
0.216726
0.193645
0.20994
0.204446
0.203027
0.195096
0.178928
0.185434
0.194442
0.191408
0.227503
0.222858
0.228944
0.225854
0.212745
0.211219
0.212903
0.211908
0.211087
0.211522
0.210552
0.209989
0.209913
0.187327
0.210565
0.211833
0.21256
0.211122
0.196246
0.190035
0.197513
0.194232
0.211659
0.211828
0.210615
0.225938
0.22167
0.221515
0.220588
0.213675
0.216138
0.176818
0.175821
0.176313
0.176862
0.209001
0.204778
0.199643
0.201449
0.181006
0.175749
0.220556
0.219524
0.211623
0.202587
0.205301
0.210326
0.197366
0.196724
0.200113
0.176425
0.210802
0.210389
0.210679
0.210659
0.173808
0.175424
0.189119
0.200978
0.175471
0.174656
0.176424
0.176512
0.222301
0.202995
0.207281
0.202882
0.204529
0.213558
0.216329
0.21684
0.214415
0.15441
0.209975
0.211345
0.20621
0.203391
0.219857
0.210552
0.225796
0.217574
0.215675
0.219657
0.217114
0.184176
0.176773
0.149312
0.147202
0.143508
0.114746
0.176199
0.16329
0.223742
0.2209
0.223146
0.22506
0.172225
0.170814
0.122971
0.154421
0.17838
0.188411
0.179083
0.185281
0.172481
0.171718
0.146176
0.146441
0.222842
0.223497
0.224184
0.202409
0.223864
0.206852
0.218452
0.17725
0.179659
0.196302
0.188563
0.206662
0.19517
0.210555
0.208771
0.193601
0.197221
0.200783
0.201887
0.198074
0.205312
0.198827
0.205913
0.17532
0.176482
0.223953
0.217341
0.198923
0.202695
0.218292
0.22251
0.221297
0.218475
0.218422
0.215592
0.219388
0.176802
0.185555
0.180615
0.222703
0.222204
0.221153
0.221613
0.160297
0.178325
0.222962
0.223486
0.227487
0.224971
0.215907
0.223506
0.216586
0.218555
0.217196
0.211341
0.213447
0.188151
0.15146
0.22141
0.21962
0.215698
0.216751
0.215233
0.212772
0.212218
0.213555
0.211446
0.213059
0.172813
0.168223
0.187281
0.196712
0.194035
0.214137
0.225918
0.222961
0.223175
0.215516
0.222682
0.214798
0.199645
0.195392
0.192965
0.19478
0.205523
0.203971
0.208023
0.206478
0.203989
0.214526
0.19857
0.205287
0.147335
0.145968
0.228243
0.230065
0.2308
0.231031
0.181077
0.142485
0.171401
0.217809
0.216097
0.217106
0.218074
0.214278
0.213962
0.218182
0.218017
0.210851
0.212612
0.212886
0.212514
0.207618
0.207461
0.17801
0.150927
0.14428
0.153388
0.135039
0.164172
0.185366
0.186417
0.215398
0.218467
0.218278
0.219852
0.215124
0.22052
0.21413
0.218968
0.213361
0.20417
0.207571
0.204479
0.205372
0.183742
0.183879
0.170505
0.160893
0.219189
0.216652
0.139863
0.141975
0.191717
0.205451
0.181976
0.179449
0.17005
0.17595
0.17524
0.172263
0.21086
0.211663
0.207688
0.210278
0.189869
0.189031
0.191203
0.230248
0.229547
0.225462
0.226566
0.225482
0.22766
0.180911
0.176695
0.176735
0.172472
0.217057
0.216897
0.217245
0.216997
0.233651
0.233025
0.233027
0.229881
0.232705
0.22528
0.222961
0.2313
0.226943
0.177908
0.180245
0.173883
0.174885
0.179377
0.198925
0.197745
0.149279
0.21557
0.21715
0.214608
0.216884
0.175281
0.198125
0.194321
0.209914
0.209596
0.183934
0.185556
0.183482
0.184029
0.216597
0.21755
0.193348
0.188994
0.175948
0.219851
0.219272
0.215832
0.20998
0.16591
0.193833
0.188756
0.180161
0.178051
0.179229
0.159349
0.155703
0.178164
0.178865
0.170195
0.168624
0.219018
0.221759
0.21771
0.206912
0.210553
0.152171
0.154948
0.186423
0.178462
0.191185
0.176274
0.176037
0.1759
0.174969
0.175227
0.219538
0.191755
0.211757
0.208025
0.206843
0.205289
0.153888
0.207923
0.209208
0.187617
0.195996
0.180202
0.20837
0.203644
0.202328
0.200351
0.20814
0.208905
0.208211
0.208496
0.157686
0.15996
0.21579
0.219017
0.216977
0.220241
0.180568
0.181877
0.179356
0.230578
0.231704
0.227134
0.172438
0.169946
0.169555
0.169811
0.193433
0.20697
0.196753
0.198241
0.206105
0.164181
0.165195
0.15453
0.222977
0.223564
0.222232
0.2232
0.231281
0.231906
0.230524
0.17559
0.17524
0.175967
0.174807
0.190204
0.221834
0.168634
0.167921
0.168701
0.17068
0.170661
0.2172
0.218725
0.218826
0.216337
0.217621
0.127805
0.209301
0.204798
0.188596
0.192264
0.192716
0.189318
0.186943
0.177069
0.17582
0.221713
0.221762
0.220388
0.221954
0.204783
0.203527
0.213397
0.206814
0.216381
0.180575
0.184598
0.214681
0.21649
0.204161
0.204066
0.204352
0.195461
0.211367
0.211825
0.223095
0.228515
0.226213
0.223235
0.22465
0.227514
0.177454
0.207571
0.203964
0.176014
0.179283
0.182052
0.180619
0.174945
0.176723
0.200956
0.182907
0.187255
0.177434
0.2019
0.201652
0.201172
0.203106
0.221568
0.22175
0.220658
0.221613
0.216523
0.220829
0.217491
0.219786
0.156874
0.154242
0.146215
0.150196
0.171516
0.183422
0.181067
0.17953
0.176034
0.169713
0.174782
0.171767
0.179769
0.173378
0.176552
0.172113
0.207456
0.204705
0.181861
0.19932
0.198465
0.201643
0.205196
0.208481
0.186544
0.193288
0.176753
0.161215
0.173137
0.152225
0.177996
0.170095
0.158479
0.221179
0.222107
0.221055
0.228989
0.227788
0.232865
0.230337
0.184239
0.180042
0.217263
0.217743
0.176773
0.178772
0.177643
0.167335
0.166664
0.183166
0.186036
0.186399
0.209818
0.209488
0.210585
0.211879
0.212126
0.22247
0.214196
0.222572
0.220216
0.214803
0.2182
0.216008
0.188154
0.199723
0.215514
0.214466
0.175928
0.176409
0.176093
0.176321
0.177179
0.141804
0.144051
0.183645
0.18427
0.185288
0.143545
0.155988
0.136241
0.165221
0.170624
0.182681
0.188765
0.181258
0.1578
0.163699
0.172654
0.162375
0.228917
0.226652
0.227621
0.226562
0.225377
0.216451
0.200726
0.221646
0.217763
0.189096
0.186426
0.181132
0.200294
0.202305
0.183781
0.171659
0.101758
0.171199
0.217318
0.21099
0.213183
0.217717
0.202594
0.206795
0.204695
0.210145
0.209129
0.169834
0.168245
0.171805
0.184628
0.182845
0.182547
0.184466
0.158526
0.145783
0.145616
0.229606
0.226482
0.225176
0.215317
0.148782
0.148598
0.170549
0.172239
0.169921
0.185155
0.188235
0.187502
0.181906
0.179015
0.176262
0.226195
0.225173
0.152726
0.179267
0.221492
0.218545
0.217197
0.204373
0.204938
0.205456
0.200919
0.205956
0.201894
0.184367
0.181725
0.214787
0.218609
0.211224
0.210263
0.209346
0.209563
0.210913
0.20937
0.180779
0.171365
0.1729
0.183775
0.185493
0.190466
0.219099
0.218798
0.218943
0.217108
0.21221
0.205903
0.170775
0.169952
0.164448
0.103882
0.192415
0.195492
0.194999
0.220349
0.223624
0.222197
0.175951
0.177652
0.17712
0.177886
0.17644
0.151408
0.155125
0.169866
0.223941
0.210781
0.170913
0.215853
0.211531
0.216927
0.213996
0.210489
0.154943
0.178306
0.161655
0.13139
0.118993
0.132267
0.179527
0.179788
0.180997
0.180845
0.179712
0.178502
0.178207
0.179427
0.207442
0.170192
0.170952
0.170619
0.173341
0.17175
0.229685
0.227321
0.221743
0.219806
0.181729
0.211362
0.214987
0.208449
0.191967
0.193668
0.194737
0.219588
0.215579
0.22002
0.214084
0.210318
0.207318
0.214795
0.199134
0.199154
0.196196
0.200133
0.190245
0.197335
0.218163
0.221634
0.221324
0.221732
0.218157
0.22
0.212656
0.215915
0.216522
0.211676
0.213967
0.21768
0.215373
0.215885
0.214664
0.217177
0.218334
0.19345
0.206145
0.209751
0.191848
0.203835
0.170685
0.168853
0.174149
0.170609
0.176754
0.174234
0.217627
0.223874
0.219415
0.222934
0.214931
0.218441
0.216426
0.184804
0.182319
0.174223
0.17718
0.177271
0.177018
0.136642
0.133716
0.221729
0.221654
0.221828
0.220832
0.173778
0.172262
0.170084
0.173727
0.172081
0.216894
0.218188
0.192891
0.189296
0.189818
0.175087
0.174413
0.180663
0.196336
0.194401
0.196221
0.194318
0.177455
0.178424
0.177261
0.17773
0.218082
0.220611
0.220903
0.219654
0.214962
0.215553
0.18638
0.178561
0.158841
0.139344
0.170245
0.143926
0.140725
0.177788
0.177917
0.180174
0.180898
0.191914
0.206716
0.198921
0.205632
0.198476
0.177698
0.176679
0.176745
0.143413
0.143762
0.218734
0.219068
0.191305
0.182749
0.188127
0.18353
0.180161
0.225678
0.227401
0.225544
0.226062
0.226852
0.228338
0.195988
0.19602
0.198388
0.191784
0.138614
0.137069
0.18843
0.187072
0.180634
0.146445
0.159149
0.157064
0.19904
0.189436
0.148589
0.229764
0.229595
0.170619
0.205813
0.204402
0.204461
0.205569
0.20424
0.204384
0.169181
0.168546
0.16975
0.170318
0.204256
0.206515
0.204444
0.205557
0.204242
0.206373
0.20437
0.205455
0.175721
0.172645
0.20558
0.136733
0.133868
0.187809
0.173964
0.174277
0.17496
0.175311
0.141698
0.163518
0.157126
0.121922
0.125992
0.221168
0.213048
0.185494
0.188595
0.171809
0.209458
0.20922
0.204773
0.205026
0.221235
0.220145
0.225701
0.224844
0.194433
0.174664
0.194952
0.197169
0.157053
0.157516
0.150935
0.191218
0.200593
0.197118
0.191317
0.198241
0.216169
0.218032
0.216471
0.161617
0.146145
0.172161
0.169698
0.1994
0.203589
0.208008
0.208569
0.199411
0.202796
0.219996
0.216428
0.220722
0.219919
0.216214
0.213979
0.20021
0.207413
0.201109
0.20501
0.208726
0.211463
0.212677
0.213818
0.16804
0.167514
0.170626
0.171432
0.188186
0.187636
0.221533
0.223867
0.22166
0.184758
0.184253
0.185229
0.217348
0.213643
0.215747
0.216568
0.21811
0.183183
0.212216
0.207214
0.211434
0.207434
0.205628
0.203616
0.200799
0.198982
0.201034
0.214069
0.218116
0.218059
0.220012
0.133412
0.131755
0.175912
0.175449
0.207785
0.197208
0.184729
0.187582
0.191511
0.19175
0.186486
0.190005
0.197754
0.198984
0.200348
0.201858
0.201982
0.203918
0.202089
0.193737
0.187603
0.183716
0.185593
0.192057
0.190557
0.186619
0.189805
0.185933
0.187293
0.221964
0.222498
0.223798
0.221786
0.224327
0.199542
0.193241
0.197277
0.194478
0.190144
0.183449
0.192718
0.195414
0.194769
0.219382
0.217268
0.169937
0.167827
0.185592
0.190523
0.19871
0.200197
0.197951
0.198707
0.201689
0.199544
0.212211
0.197886
0.205476
0.206718
0.209043
0.142506
0.132298
0.178534
0.181579
0.180317
0.178514
0.180658
0.195288
0.173157
0.176138
0.174446
0.17217
0.172631
0.172977
0.170935
0.231767
0.23342
0.23288
0.231421
0.232383
0.224211
0.222631
0.216566
0.193386
0.196532
0.190788
0.190284
0.180466
0.18637
0.184265
0.181251
0.178922
0.171
0.172614
0.1721
0.172407
0.173661
0.173248
0.137937
0.141103
0.222119
0.21721
0.221415
0.186225
0.17545
0.182518
0.156443
0.147276
0.153202
0.206042
0.20144
0.201613
0.216626
0.214257
0.207185
0.204783
0.212152
0.206069
0.176372
0.167376
0.178071
0.158856
0.220142
0.221066
0.219512
0.21738
0.217263
0.171263
0.172278
0.172321
0.188909
0.204806
0.190999
0.199796
0.202557
0.197858
0.192544
0.201884
0.195231
0.16712
0.155043
0.178446
0.181151
0.183475
0.187341
0.188079
0.172078
0.171936
0.1715
0.172115
0.193543
0.199605
0.184955
0.184478
0.128077
0.147899
0.141672
0.162044
0.168151
0.168811
0.17078
0.193172
0.190032
0.188957
0.213023
0.210706
0.206702
0.208489
0.213978
0.21564
0.170788
0.171114
0.175155
0.169544
0.213306
0.210722
0.208596
0.212798
0.209909
0.208245
0.213017
0.210657
0.212207
0.209498
0.211155
0.211256
0.214761
0.185
0.187165
0.170587
0.170874
0.170568
0.221781
0.221576
0.221737
0.220589
0.220575
0.219703
0.105268
0.117748
0.164459
0.151892
0.156116
0.13143
0.176582
0.181762
0.180097
0.177699
0.180665
0.210152
0.21013
0.210451
0.211012
0.210795
0.196894
0.191323
0.194813
0.193743
0.189824
0.182006
0.182006
0.183641
0.182942
0.18353
0.183302
0.198466
0.194494
0.198416
0.194706
0.192923
0.210595
0.212309
0.208799
0.214421
0.213684
0.215962
0.216857
0.215786
0.217388
0.21696
0.189718
0.200918
0.169999
0.20501
0.206467
0.210794
0.219347
0.219616
0.204578
0.203201
0.203109
0.146338
0.156792
0.141299
0.149587
0.23007
0.229754
0.232339
0.233252
0.230159
0.232365
0.233851
0.233212
0.215779
0.218257
0.210859
0.208427
0.206567
0.208272
0.171535
0.169839
0.168929
0.177256
0.174156
0.177311
0.17643
0.173558
0.159174
0.144169
0.148826
0.152368
0.168989
0.169565
0.169892
0.185707
0.182975
0.178712
0.179519
0.190579
0.18847
0.132387
0.140691
0.153058
0.202522
0.207146
0.181558
0.184884
0.177241
0.172899
0.187391
0.189672
0.189774
0.190894
0.212964
0.210388
0.211646
0.211491
0.210524
0.19973
0.208316
0.209128
0.202175
0.172917
0.17268
0.182051
0.203088
0.204485
0.210355
0.208892
0.217298
0.218364
0.218102
0.217124
0.218589
0.218486
0.210789
0.210097
0.212556
0.212936
0.215434
0.1821
0.140545
0.131483
0.217472
0.217419
0.217937
0.218111
0.217796
0.217919
0.192241
0.197418
0.208864
0.211559
0.196594
0.206949
0.151191
0.168748
0.145574
0.150496
0.182799
0.197691
0.207322
0.196379
0.206814
0.180995
0.175159
0.185673
0.188284
0.189303
0.212035
0.168762
0.182833
0.185988
0.212073
0.211052
0.215137
0.216354
0.215793
0.210083
0.208867
0.209294
0.211297
0.21062
0.21604
0.215082
0.215441
0.216751
0.216503
0.174953
0.175638
0.173561
0.173622
0.174361
0.175049
0.174899
0.183586
0.1825
0.184687
0.187538
0.186395
0.125438
0.20218
0.20285
0.206801
0.20553
0.208031
0.168574
0.209469
0.21545
0.215944
0.204674
0.209896
0.183349
0.185367
0.184335
0.184817
0.183351
0.218868
0.216403
0.220952
0.218926
0.219834
0.192515
0.202201
0.207627
0.20138
0.194495
0.197266
0.200273
0.199821
0.193033
0.195293
0.209662
0.208575
0.20682
0.204423
0.205686
0.204112
0.198659
0.206968
0.172756
0.170486
0.171178
0.174451
0.175151
0.220715
0.218935
0.221556
0.216192
0.215917
0.200156
0.180981
0.206071
0.196059
0.215342
0.22604
0.220989
0.190682
0.189374
0.187959
0.179403
0.181324
0.181971
0.183703
0.181895
0.137758
0.135095
0.134423
0.170053
0.161239
0.168416
0.168031
0.170425
0.168579
0.168397
0.169936
0.168404
0.167401
0.194393
0.193531
0.196473
0.198266
0.199106
0.217458
0.21728
0.206889
0.203056
0.202681
0.208729
0.210097
0.156283
0.166837
0.178683
0.174682
0.159533
0.131367
0.131984
0.209356
0.208429
0.206246
0.20723
0.205542
0.189362
0.156023
0.177965
0.136292
0.132404
0.133705
0.207326
0.209807
0.210737
0.213268
0.213103
0.210764
0.209332
0.211261
0.214334
0.213125
0.210816
0.210776
0.210913
0.210089
0.209896
0.210887
0.21018
0.184203
0.183518
0.184043
0.186065
0.186219
0.187431
0.185867
0.186896
0.224437
0.226526
0.229652
0.174426
0.148975
0.145081
0.152814
0.180071
0.170157
0.21076
0.209693
0.197492
0.203266
0.216461
0.215058
0.216269
0.18327
0.178013
0.188087
0.218741
0.220126
0.219377
0.222035
0.221013
0.222106
0.222458
0.221526
0.220566
0.221756
0.221819
0.22086
0.221556
0.220278
0.177999
0.187963
0.164902
0.163273
0.181255
0.173763
0.173366
0.171692
0.224659
0.22416
0.224246
0.163978
0.17411
0.156936
0.183769
0.186876
0.171764
0.173358
0.214294
0.212378
0.21103
0.211349
0.168861
0.170187
0.168207
0.185492
0.187533
0.220741
0.219083
0.216606
0.135461
0.139379
0.220845
0.22024
0.217546
0.218227
0.220364
0.195608
0.19184
0.198002
0.201702
0.202336
0.207566
0.205808
0.212168
0.211369
0.165703
0.15613
0.168188
0.143985
0.120982
0.113537
0.186953
0.191466
0.187929
0.194133
0.191001
0.210118
0.210033
0.215195
0.211448
0.210237
0.211032
0.210499
0.210026
0.134771
0.132493
0.12947
0.169653
0.162646
0.139971
0.183647
0.185583
0.184061
0.185726
0.184096
0.183589
0.180913
0.179067
0.180655
0.182053
0.179265
0.178803
0.175278
0.171841
0.172971
0.175922
0.169676
0.1692
0.186619
0.185757
0.182727
0.183458
0.183447
0.185279
0.159821
0.149099
0.156769
0.224479
0.22345
0.214062
0.172552
0.173305
0.172734
0.173367
0.172731
0.172951
0.225949
0.224252
0.219384
0.219914
0.221462
0.215349
0.215844
0.177755
0.178966
0.178062
0.175504
0.176093
0.207004
0.203728
0.211062
0.21943
0.214947
0.208845
0.204547
0.203018
0.207758
0.204338
0.169265
0.169287
0.213993
0.213442
0.209285
0.209285
0.207333
0.220065
0.218441
0.219915
0.219571
0.218607
0.214348
0.212701
0.207673
0.19931
0.213022
0.211221
0.200396
0.220426
0.220263
0.21941
0.22162
0.22086
0.22009
0.216937
0.218116
0.220013
0.21825
0.21095
0.211053
0.183268
0.18343
0.184181
0.1833
0.216689
0.216105
0.204432
0.191762
0.210167
0.208269
0.21015
0.205369
0.204901
0.206391
0.20873
0.195718
0.209889
0.201175
0.208314
0.215978
0.213763
0.214987
0.216003
0.223541
0.22004
0.208644
0.212108
0.213746
0.20408
0.204124
0.208189
0.208983
0.206303
0.217946
0.217388
0.211098
0.216883
0.207305
0.215642
0.216498
0.213975
0.213061
0.212149
0.229994
0.230932
0.231404
0.213659
0.208353
0.209272
0.232068
0.227763
0.23022
0.21193
0.215596
0.214724
0.214829
0.21086
0.227972
0.224262
0.216228
0.225844
0.219309
0.180577
0.196249
0.205836
0.201096
0.186345
0.185528
0.183645
0.185495
0.173817
0.17328
0.200253
0.201295
0.204602
0.205357
0.21752
0.210375
0.213017
0.213854
0.193131
0.188444
0.186319
0.189101
0.193428
0.16755
0.166592
0.174513
0.172645
0.174592
0.175858
0.175739
0.215553
0.216323
0.217622
0.216895
0.217861
0.210802
0.206314
0.231162
0.230585
0.229263
0.229584
0.229554
0.153783
0.19126
0.18095
0.183556
0.194192
0.190007
0.184601
0.214092
0.213123
0.220838
0.218565
0.22901
0.212009
0.196039
0.183827
0.182831
0.182476
0.181783
0.183663
0.1809
0.18687
0.185639
0.185431
0.182984
0.215281
0.212817
0.214897
0.212818
0.215349
0.211303
0.210243
0.208928
0.216203
0.215944
0.215109
0.216227
0.215372
0.181364
0.167908
0.148829
0.153678
0.174354
0.137693
0.130253
0.216114
0.218001
0.216331
0.210407
0.198606
0.217461
0.212377
0.208741
0.214002
0.216807
0.211693
0.209546
0.21107
0.206969
0.207604
0.20648
0.204964
0.207513
0.204903
0.207002
0.205744
0.206845
0.205648
0.206779
0.207787
0.215235
0.216184
0.215639
0.216065
0.216081
0.215801
0.219128
0.198736
0.214889
0.204426
0.228952
0.224423
0.23091
0.13026
0.124462
0.179132
0.161947
0.14563
0.173555
0.149393
0.207019
0.205003
0.206239
0.204732
0.205944
0.208799
0.210439
0.211974
0.20972
0.213591
0.212908
0.217016
0.216048
0.21924
0.218166
0.219003
0.219349
0.22003
0.218369
0.218249
0.221149
0.221582
0.221279
0.209968
0.211554
0.207147
0.206522
0.205094
0.204737
0.20589
0.216269
0.213808
0.215324
0.208002
0.207353
0.208778
0.211436
0.210876
0.209588
0.209456
0.210686
0.207304
0.206172
0.206909
0.151565
0.185034
0.155213
0.175355
0.136211
0.131912
0.214554
0.21365
0.212417
0.214345
0.213266
0.216824
0.21592
0.216555
0.215952
0.216288
0.185744
0.184079
0.185699
0.184321
0.183502
0.183618
0.154921
0.167349
0.165892
0.173642
0.180402
0.17355
0.168074
0.219047
0.219275
0.179292
0.180017
0.178759
0.17733
0.192857
0.191451
0.172495
0.173006
0.181114
0.176156
0.175617
0.181374
0.163252
0.166597
0.223842
0.222408
0.196263
0.21826
0.208473
0.204217
0.215494
0.230005
0.231837
0.225672
0.227262
0.230862
0.207924
0.214381
0.216893
0.187955
0.174297
0.155458
0.150362
0.214086
0.216747
0.214502
0.169319
0.200056
0.202788
0.200402
0.19803
0.197049
0.108764
0.118066
0.123873
0.0980833
0.141695
0.116911
0.17264
0.174009
0.173731
0.215832
0.213171
0.215675
0.214351
0.213368
0.2154
0.193064
0.207346
0.199434
0.211177
0.213911
0.218613
0.220191
0.220118
0.21786
0.219062
0.220725
0.220869
0.219835
0.2197
0.220828
0.21551
0.214445
0.216707
0.16084
0.181977
0.163713
0.191507
0.202797
0.19684
0.196112
0.197169
0.197267
0.197517
0.179419
0.178107
0.172979
0.1706
0.17421
0.173014
0.174169
0.216818
0.218276
0.204689
0.190803
0.224235
0.18708
0.182002
0.205644
0.205514
0.206435
0.213185
0.214292
0.215803
0.220768
0.211617
0.215707
0.219909
0.219863
0.22144
0.182235
0.152267
0.160213
0.170156
0.14295
0.156557
0.142304
0.189306
0.188448
0.188375
0.172487
0.172529
0.217914
0.221971
0.208592
0.197711
0.210381
0.175006
0.17473
0.193049
0.189211
0.177184
0.176671
0.226404
0.208063
0.210451
0.205419
0.167693
0.167731
0.216965
0.216051
0.214722
0.207386
0.205299
0.201809
0.196452
0.190945
0.215063
0.213663
0.216667
0.215791
0.177185
0.188701
0.181141
0.112959
0.124463
0.0992309
0.101575
0.14495
0.212948
0.208779
0.16074
0.211994
0.211368
0.143694
0.13844
0.207005
0.108561
0.217872
0.145416
0.134643
0.0937136
0.0902806
0.141416
0.142459
0.135649
0.124725
0.117912
0.11004
0.137238
0.143312
0.136909
0.132401
0.134222
0.140174
0.129275
0.13485
0.167186
0.129892
0.121448
0.105061
0.138549
0.132831
0.127418
0.11225
0.146708
0.141065
0.126234
0.162198
0.163593
0.149129
0.13646
0.107284
0.16492
0.123787
0.108744
0.104418
0.0970515
0.0961283
0.134941
0.127055
0.124303
0.117476
0.148614
0.151991
0.152534
0.131518
0.122544
0.130065
0.189875
0.200963
0.165445
0.16302
0.166354
0.15509
0.156949
0.111357
0.142915
0.137711
0.135044
0.128705
0.148317
0.115006
0.217232
0.214688
0.211099
0.211373
0.154022
0.158888
0.143236
0.146635
0.140476
0.102315
0.14365
0.156762
0.150659
0.153188
0.153766
0.134969
0.133153
0.126308
0.132342
0.122302
0.129833
0.145977
0.140637
0.145811
0.141609
0.143473
0.132617
0.148647
0.149047
0.175907
0.16153
0.147232
0.144342
0.148949
0.21801
0.131785
0.100076
0.135214
0.194875
0.190456
0.186161
0.160581
0.166518
0.159213
0.132097
0.142106
0.142252
0.144981
0.146164
0.138548
0.144415
0.191249
0.120216
0.114449
0.152058
0.138033
0.152163
0.147642
0.132357
0.145953
0.145696
0.134361
0.148057
0.215571
0.216884
0.150941
0.140589
0.153365
0.125979
0.127213
0.143133
0.13286
0.141621
0.158547
0.16479
0.131912
0.130701
0.139627
0.0941811
0.137567
0.158444
0.176826
0.214238
0.212008
0.213005
0.136971
0.10215
0.146382
0.161486
0.169849
0.168796
0.173895
0.162991
0.165737
0.140677
0.137121
0.140204
0.143321
0.138869
0.143428
0.137993
0.113947
0.106833
0.105166
0.153704
0.158779
0.164458
0.159137
0.166154
0.133566
0.138688
0.143715
0.139106
0.138487
0.143026
0.139687
0.142082
0.133373
0.159523
0.162885
0.16588
0.165564
0.175733
0.17359
0.169424
0.169002
0.137934
0.147832
0.17193
0.16642
0.1629
0.165368
0.144526
0.148295
0.179792
0.15817
0.15194
0.159317
0.163281
0.165626
0.158234
0.164599
0.0817823
0.215463
0.214149
0.216882
0.150473
0.146305
0.071823
0.128036
0.119597
0.162029
0.164733
0.11505
0.111406
0.0924918
0.0913221
0.146762
0.0869942
0.0666936
0.0872691
0.160376
0.166761
0.165021
0.161084
0.164934
0.157882
0.158257
0.150356
0.138664
0.185069
0.181031
0.21393
0.216738
0.218746
0.219219
0.21896
0.157733
0.163709
0.156507
0.143874
0.148371
0.107156
0.0933079
0.0670729
0.0913951
0.0876568
0.148302
0.145272
0.162908
0.159431
0.164956
0.133936
0.129513
0.12418
0.141426
0.164022
0.15898
0.165
0.184191
0.187095
0.180464
0.17884
0.182269
0.174859
0.160461
0.188246
0.18737
0.182786
0.172066
0.170291
0.175906
0.14603
0.1275
0.192299
0.187335
0.134914
0.124143
0.131609
0.144418
0.144344
0.140832
0.219032
0.218708
0.21857
0.150704
0.137368
0.145038
0.144362
0.143542
0.164614
0.167364
0.137745
0.0956352
0.138739
0.145519
0.148411
0.139867
0.145343
0.14049
0.158851
0.145304
0.130623
0.191099
0.193489
0.189376
0.184787
0.197667
0.17123
0.159428
0.151729
0.146422
0.146993
0.15966
0.164235
0.131042
0.122742
0.123553
0.157579
0.162404
0.0661847
0.121934
0.110724
0.129309
0.136055
0.135372
0.143326
0.160429
0.153946
0.158162
0.162745
0.162347
0.138162
0.16133
0.129312
0.127109
0.118442
0.151473
0.153097
0.14353
0.138654
0.167362
0.169608
0.141654
0.140037
0.139535
0.121939
0.166015
0.163389
0.125645
0.122093
0.156642
0.162245
0.159796
0.164583
0.165094
0.149894
0.130831
0.134089
0.164047
0.159472
0.162874
0.153891
0.140105
0.145422
0.128239
0.131865
0.191965
0.190098
0.161412
0.164634
0.164155
0.136544
0.130831
0.133673
0.144675
0.135131
0.136356
0.134434
0.142753
0.16331
0.157718
0.163307
0.120808
0.152859
0.160548
0.165001
0.163563
0.151046
0.15577