/*--------------------------------*- C++ -*----------------------------------*\
| =========                 |                                                 |
| \\      /  F ield         | OpenFOAM: The Open Source CFD Toolbox           |
|  \\    /   O peration     | Version:  2206                                  |
|   \\  /    A nd           | Website:  www.openfoam.com                      |
|    \\/     M anipulation  |                                                 |
\*---------------------------------------------------------------------------*/
FoamFile
{
    version     2.0;
    format      ascii;
    arch        "LSB;label=32;scalar=64";
    class       volScalarField;
    location    "200";
    object      p;
}
// * * * * * * * * * * * * * * * * * * * * * * * * * * * * * * * * * * * * * //

dimensions      [0 2 -2 0 0 0 0];

internalField   nonuniform List<scalar> 
184166
(
45.6187
130.537
10.4352
34.9795
64.6053
17.0573
14.8458
11.3684
44.7246
68.1675
24.5358
4.92719
7.12728
78.7466
60.3137
45.8839
30.4662
98.8823
20.081
65.7402
21.1858
11.9848
17.6537
70.1696
35.2284
58.3046
67.8535
13.6271
56.7249
7.37303
45.1959
136
53.1519
81.1368
29.5252
2.18652
6.99448
25.7115
71.9972
133.768
85.4137
2.81156
55.6506
92.4412
28.428
86.3538
134.583
70.4326
28.2582
58.0067
16.6025
136.738
16.4124
38.8578
29.9483
12.1182
27.2181
30.8586
54.8964
68.2326
3.8557
66.7477
43.7729
15.7293
61.9409
12.7818
129.953
62.6941
14.808
65.2343
11.3848
72.46
54.7361
42.5924
21.3256
22.156
109.281
43.7931
111.935
128.904
130.298
115.569
66.999
14.0793
47.0563
37.3192
20.3912
19.4401
93.9558
21.7364
13.6465
62.8173
45.8908
71.3299
44.0368
134.837
38.1989
137.111
19.6618
44.4474
7.21519
3.80094
44.8821
56.4975
15.1703
25.5248
45.4082
64.2115
14.1407
4.36604
132.774
54.4459
137.664
18.6084
62.9492
76.9392
57.7759
19.104
133.032
132.026
44.9293
3.12881
28.1544
27.4298
24.1394
43.5241
28.9032
31.7342
52.9647
54.1624
7.50975
30.0167
86.204
96.7821
25.8404
1.5688
24.8908
76.5194
93.6563
20.2018
35.5111
15.3688
14.9555
3.23839
75.6567
64.2316
11.066
58.5719
13.158
62.9553
68.6396
63.8192
46.2503
39.0071
53.5627
55.8534
47.4223
43.9047
41.7629
18.2329
137.664
17.1839
10.8676
27.5436
113.376
30.627
61.0998
59.6679
13.7675
61.3511
31.612
46.1749
14.5497
75.7885
30.7428
132.272
24.0051
49.4135
54.2079
76.9596
13.6294
1.98852
82.5213
63.9053
67.0941
37.4936
59.0056
70.9606
135.998
14.3063
97.2052
54.8145
10.29
137.153
7.60231
62.6094
59.5516
39.0888
14.7246
67.3918
26.4829
55.575
13.6314
100.01
133.99
37.841
6.0483
7.72622
88.0331
33.7876
54.4443
10.7049
8.17665
72.2855
124.187
27.6203
80.0908
18.4062
17.3809
133.613
114.342
12.497
12.6087
4.0882
134.702
6.42475
23.7365
27.855
34.2173
11.1474
58.0057
118.376
28.0747
2.36236
46.2771
4.74131
57.4395
55.3729
3.36083
136.642
137.776
44.9286
37.5404
55.362
16.774
67.047
58.7902
6.49872
79.9221
69.9277
74.5076
66.9872
55.2804
6.72373
74.1087
51.0177
60.2801
59.7469
91.4608
2.33777
73.2978
133.394
28.9213
86.8564
52.6439
35.7789
46.0627
24.744
36.5677
72.3398
58.8397
18.3403
75.3896
55.7814
2.66302
102.486
136.569
60.1231
115.344
63.3622
7.01126
54.4017
57.9069
33.3998
134.358
8.68904
10.2337
61.5245
102.098
9.31771
70.8662
71.1479
56.6863
32.0484
52.0557
72.5671
13.0774
44.0283
77.7918
62.7275
29.0936
11.2809
17.9164
59.5548
68.7301
84.092
32.0119
5.1024
22.8195
14.131
32.4609
56.9455
54.6756
64.7308
61.8719
62.9638
106.148
71.8148
25.4352
73.1679
21.957
23.8646
78.2029
70.1374
100.438
15.006
97.5399
107.044
7.15958
28.3359
27.5831
18.9634
18.4673
54.3295
14.3165
90.4822
6.69306
10.604
62.9857
67.9895
96.5433
48.6809
60.5615
72.1815
92.2715
69.3027
126.256
14.2187
33.1367
16.334
134.619
29.8571
56.2001
131.493
22.8932
66.4593
51.2482
92.3324
64.7606
58.3457
115.104
13.4903
53.8146
116.759
44.8487
74.571
14.554
126.542
129.457
13.771
136.613
57.4322
56.5194
73.4669
77.695
77.8094
8.51977
58.9395
1.00602
66.17
65.9635
65.298
54.0193
53.9468
46.8214
80.0627
75.5486
118.436
33.4597
34.9715
41.6262
46.6121
44.6559
137.467
13.2281
13.7325
75.3411
97.0688
13.0352
90.8124
58.3728
7.44434
52.8463
17.4916
16.6291
89.1282
78.0168
75.7097
58.6892
112.812
104.501
25.065
25.4028
22.6496
22.7548
128.219
26.7578
23.807
21.8152
18.4768
54.2861
79.5398
82.9973
79.3443
73.766
14.1313
15.2541
16.7471
9.07943
9.98803
10.4283
131.336
53.4295
53.3539
52.348
51.2084
50.7999
49.8847
33.9995
34.9654
10.6958
11.4643
11.3579
10.4284
12.2887
12.4411
12.9515
12.0188
65.7761
65.2265
64.3152
65.4837
63.5312
63.7487
61.8388
26.5108
25.0894
25.8577
26.7518
84.5309
1.81212
134.543
136.239
136.489
136.278
130.35
135.818
132.588
15.36
15.1143
16.9092
16.0718
26.0253
26.9541
4.00721
7.55877
9.3855
10.3955
51.5652
53.973
52.8419
53.8978
13.6799
13.7252
2.40083
3.61919
3.0978
5.47364
4.47879
4.84963
70.2663
5.74952
6.56239
6.53183
134.967
43.1798
38.4564
36.712
40.0092
41.4719
39.7341
39.8713
25.194
24.0764
25.6673
24.9535
22.3868
22.5134
25.4956
40.4824
39.9747
13.9222
13.7946
137.077
93.2686
82.4743
82.2365
57.4933
55.8408
57.131
56.551
65.141
69.5558
17.1357
18.1911
17.3091
16.7861
88.928
87.3146
77.9377
83.4125
61.2215
60.8527
60.0435
72.2263
67.5943
69.6244
48.3688
47.8262
47.8063
46.8032
46.8179
45.8124
42.9361
42.4723
32.401
30.8665
19.4672
103.37
116.896
122.079
108.71
116.565
109.321
112.018
120.744
113.285
127.897
131.503
42.2261
39.7252
41.5995
40.6554
36.6949
39.09
38.3642
37.697
43.8565
41.0967
58.4443
59.3518
59.7521
68.3178
43.9492
69.9556
133.115
122.34
13.7267
13.6351
14.2639
13.8349
50.1103
46.8543
73.0959
80.6432
77.1498
81.5012
68.9559
74.1462
39.0457
37.8135
53.1306
51.8622
51.5323
135.545
19.3754
18.3502
18.7482
36.0642
38.4845
37.0137
38.3063
38.9289
41.3268
39.8829
41.2194
23.0613
23.8563
24.5607
2.70528
134.977
135.122
135.186
63.1245
66.9194
67.0933
65.2655
70.4204
65.9314
70.7996
68.4404
8.46037
9.71503
8.1123
8.93389
73.4812
70.1016
16.9327
11.732
11.9391
12.704
91.8603
83.243
77.8491
72.8481
3.65003
2.05147
28.6967
27.6044
27.848
60.572
16.4618
64.5475
62.0538
63.2211
64.5278
67.2523
64.5319
65.9108
67.5002
17.4522
20.4692
11.3589
12.6643
11.8785
11.268
11.2059
40.6729
40.3306
39.3903
38.0014
37.5745
36.485
135.758
72.0304
78.5223
71.6924
74.7935
3.51481
16.2307
17.593
17.2436
63.5396
63.2668
62.4472
126.407
136.191
135.53
129.407
130.668
135.436
64.3242
133.922
131.535
41.3245
41.1955
40.2661
1.7803
2.26588
2.5339
2.73711
1.55032
1.36567
61.3509
58.9452
59.9665
61.2349
60.2225
59.3755
22.0225
22.2222
47.6088
41.8646
37.8205
39.182
22.4522
30.8861
41.3437
40.8883
65.6532
64.7988
64.5853
8.76913
8.28768
10.1675
8.99229
27.8253
35.3157
62.8638
61.3391
62.5655
107.584
101.339
17.5522
18.579
18.7205
52.663
24.586
26.1929
72.5576
70.168
72.4986
70.3348
74.276
73.6632
9.97874
12.4298
12.2901
49.8049
41.5874
46.5147
49.5018
1.22671
118.093
137.215
136.752
137.029
48.398
33.5303
22.9948
30.7961
46.7926
39.882
63.5981
62.8334
93.2572
87.2804
92.042
87.6289
26.3811
23.8081
26.8786
25.2669
2.02756
1.18857
1.39995
1.1541
1.83026
2.06213
6.42837
6.43719
6.50525
62.3869
33.0787
1.15591
1.53756
1.20125
64.8303
63.766
63.9268
63.6888
56.0307
55.4806
56.3969
67.4889
23.8236
24.209
23.2554
120.102
117.423
13.5907
13.6422
13.6458
13.6758
112.677
122.259
124.477
126.083
130.137
132.935
22.556
23.5352
66.8714
67.2851
68.5436
68.5433
93.4028
86.4276
84.8023
40.5605
3.16256
3.61366
2.71711
2.8408
135.034
135.996
46.6131
46.9443
14.0859
15.2042
14.4608
13.9372
44.8347
17.0744
22.2731
17.6961
19.7125
10.2282
11.2479
10.55
9.4377
36.2439
90.5694
85.5113
90.7156
86.7113
23.7309
23.9081
41.326
22.9587
20.9585
23.2353
20.9858
89.1944
104.869
13.2462
25.9136
26.6869
68.1138
5.35669
1.80942
24.8111
22.5861
23.7613
25.3284
13.6593
13.6119
69.0875
70.1086
46.7733
56.867
50.2088
56.462
137.267
137.622
23.4902
24.0938
46.4341
49.1189
47.7697
119.537
92.1193
108.397
94.1182
137.11
136.371
50.2869
50.3174
52.5085
51.4482
52.8107
51.4235
16.6715
20.7191
29.3765
27.8709
46.9846
53.523
43.614
46.9882
129.727
130.327
44.0107
45.1735
60.6332
60.7633
19.4593
18.3438
17.9464
18.7638
66.2076
65.1803
64.9909
117.696
96.2367
110.279
10.3881
9.51682
10.1032
9.43652
25.5254
26.0788
86.2525
78.5629
76.953
72.945
70.9364
76.0308
72.883
50.9002
48.4617
47.8085
46.5892
69.0165
67.1435
36.4371
34.572
29.2169
30.6787
5.02018
3.71188
4.15318
4.78723
4.89316
5.30334
107.954
9.71772
9.83363
9.07131
8.22908
92.0105
77.5793
77.6976
88.0952
95.7439
92.8447
106.67
59.0709
57.5978
58.1915
59.2898
16.7507
15.8036
18.3216
17.7799
16.3509
20.0755
20.9178
21.6881
38.4093
37.5462
87.3213
88.7576
77.7546
75.0356
27.9401
26.8223
27.1237
42.6114
41.4528
4.15821
4.11844
21.3442
5.03489
3.91454
3.64342
2.35512
3.10167
71.2944
67.6586
68.1526
70.1325
45.8917
45.929
45.2133
45.0212
67.2341
73.982
77.1546
79.2606
15.0227
17.1777
17.9325
19.6211
16.4335
39.0476
38.2539
40.0619
39.1648
15.0166
17.5762
14.871
127.192
62.6287
60.4637
19.9304
18.4197
50.3439
48.5563
28.0456
28.8011
18.3545
18.7595
19.5838
18.8154
128.827
136.779
137.167
136.619
55.0758
55.2877
57.4407
56.4964
65.4062
64.426
64.8938
76.1837
72.3419
72.0157
76.9185
69.7663
70.2988
53.7346
40.8822
46.7218
34.0787
9.857
11.7647
10.3544
11.1667
80.1791
88.0716
80.8017
92.3317
86.2599
101.323
104.634
88.2022
97.4944
50.5068
55.2579
42.5744
44.5242
53.1529
23.6489
22.7018
44.0023
53.1139
52.0571
51.9319
51.703
15.8211
136.944
137.313
16.6596
16.3056
66.1899
69.4311
64.7803
63.87
7.28427
8.40367
120.888
134.145
91.3325
3.17498
2.89351
50.2299
47.9415
2.52426
3.31464
2.79125
137.391
137.311
137.125
55.4663
56.7324
57.2912
56.4487
134.689
134.517
38.158
38.4862
33.5333
26.4148
27.7302
51.7457
51.4081
56.5164
56.801
58.1007
13.5925
13.6136
13.5847
13.5958
13.6286
104.401
5.9182
91.8295
91.5352
101.923
97.0353
30.3822
19.7265
20.5936
20.1424
19.3771
77.8152
56.5758
57.2639
58.4366
57.7601
9.81113
8.99205
9.58916
8.85504
2.75689
2.08352
66.7035
67.9463
64.9824
64.5528
56.1887
58.4782
52.5172
33.711
33.8794
30.6352
35.258
18.5621
20.3111
28.6757
128.416
108.265
120.662
125.802
114.208
5.80726
6.5303
67.3846
14.426
16.2694
15.144
16.3442
29.873
29.7622
28.2825
13.9242
13.8142
13.8411
13.9306
31.9347
28.459
23.1292
16.9994
15.8132
13.6389
13.7113
1.74919
1.90334
2.77631
2.29034
2.84204
73.3374
26.7363
23.0439
136.288
137.043
135.775
137.775
137.589
87.1054
89.821
20.2942
19.3438
19.9473
19.0534
74.8238
70.0203
4.27067
3.75892
3.77336
135.317
129.081
1.10516
1.31309
14.4491
14.3881
14.8869
52.2418
54.5223
53.736
67.0333
71.2575
69.1376
66.9947
69.8254
71.4896
136.525
19.3025
16.7457
118.327
121.892
107.893
106.164
129.088
130.536
12.4254
13.6515
12.1657
12.8279
16.2549
16.1048
16.7946
16.8436
30.6994
30.3432
27.7509
28.8537
25.3329
29.5016
25.4395
27.8005
3.90346
3.09758
114.178
120.572
106.936
77.1772
86.4095
82.3449
89.266
126.803
101.419
107.714
53.7595
40.4896
46.6059
33.1849
82.1964
82.4387
57.1853
79.8833
83.4222
87.4457
15.5945
17.7731
58.6577
58.5454
72.5706
70.7537
72.6445
71.0421
83.9396
86.0224
83.4713
23.1411
23.6438
22.3968
71.4168
70.6638
76.6454
73.1123
48.3213
47.5311
7.54115
7.77015
136.663
136.387
136.856
14.4082
14.3883
136.784
135.938
136.923
8.60878
8.09455
8.09577
9.40259
8.82873
25.3714
25.4223
26.2557
24.6261
24.7354
63.1909
63.7277
60.5216
61.7816
20.2007
20.2031
13.6797
13.7038
13.8069
13.9085
13.9014
15.6699
16.4269
62.2466
62.3906
62.2257
42.0027
43.1518
42.5601
42.3344
43.2021
72.6434
33.57
32.542
32.2498
17.5582
18.2349
18.8816
83.9312
93.2835
91.7939
82.6679
87.0977
66.3556
64.1358
68.2514
67.8297
73.3851
79.6218
86.6564
48.2347
49.3931
46.9732
46.8182
71.1629
136.365
22.2084
22.3544
23.2314
23.0764
65.4452
64.5895
66.2861
64.9814
66.2261
13.0742
12.6337
137.747
137.801
137.642
137.553
137.694
13.7659
32.8328
32.2496
86.8469
91.2303
97.5997
14.194
17.7769
18.4388
23.2988
33.514
24.2518
132.277
128.595
123.091
123.052
132.677
129.171
30.9521
30.6065
31.3133
137.448
40.5751
35.1401
28.2558
15.992
16.0688
15.8697
116.107
111.91
118.84
58.4084
48.9024
1.72386
2.03875
8.39368
7.60066
8.08444
7.31328
9.00886
8.46268
21.1654
20.511
21.7219
55.369
55.2384
56.8711
1.79413
1.39806
76.359
84.8448
79.1379
85.9601
13.7609
13.6934
5.87926
73.0584
62.145
61.9021
61.2713
11.6642
11.2613
10.9476
137.569
137.19
137.681
137.495
137.234
18.7205
19.418
13.8326
97.4759
118.32
32.6458
32.5751
27.2023
32.7446
28.9378
25.3546
34.77
35.9807
35.925
68.6238
69.4469
69.71
52.7161
53.3292
137.771
137.75
137.669
137.761
137.852
137.752
59.5823
15.6617
13.4518
137.627
137.447
137.301
39.0784
40.7805
35.0821
31.4068
50.245
22.503
26.5018
20.7953
18.4503
26.4386
24.0759
81.5903
79.5558
77.9209
74.9341
74.9566
23.3655
23.0976
16.7429
18.3134
76.6855
79.5103
77.3617
80.0802
31.1625
34.7007
35.6176
35.941
30.4326
32.1385
21.2296
24.0188
23.9839
20.1124
21.5947
4.52996
3.32819
4.48497
3.92078
3.44928
3.96666
40.4868
41.3289
40.9051
39.5207
39.7837
121.708
123.251
100.052
111.72
94.2888
108.363
86.9276
90.1793
82.8957
83.8516
7.90932
9.11971
8.15728
71.3285
80.2747
95.5132
88.595
137.832
137.807
21.5369
20.5846
33.7004
32.3381
33.9143
32.269
13.5966
13.5989
13.5976
13.6168
13.6189
48.5286
50.0483
59.7054
59.9892
60.5919
105.327
113.225
115.52
133.485
132.255
134.407
134.323
13.5897
13.6026
13.6737
13.7221
35.4503
39.3376
40.3772
39.4112
32.9802
34.1405
57.3569
29.5789
29.7707
29.2143
28.5849
28.2928
46.0683
16.4288
23.2969
14.9284
18.1724
73.6195
77.658
74.1701
79.002
76.3865
137.67
137.702
137.854
54.4547
55.0926
1.65341
1.45757
36.0705
21.664
29.2666
30.3332
23.2509
44.9781
44.4969
46.2755
47.0781
45.3446
44.514
75.3691
69.7954
70.8169
71.7211
17.3897
16.7805
29.0616
31.4161
23.3988
50.083
85.4861
90.2322
91.3888
110.73
1.6093
34.4287
34.0029
13.8216
16.9363
15.6244
15.426
16.2928
15.1167
15.5157
13.7946
12.473
16.5883
12.7848
13.7554
15.0047
14.2123
14.7314
13.7522
15.1914
14.281
15.0524
44.8521
39.1183
87.4205
30.6866
30.92
62.0275
13.8972
13.9622
13.8137
13.9143
67.7684
68.9379
69.2289
67.416
68.3478
108.146
119.341
49.0765
48.6092
47.487
22.0904
20.8943
18.4542
17.728
31.4103
33.9978
36.6313
37.5981
1.44137
1.32722
68.1216
67.3008
21.2483
20.5912
19.8478
89.1479
77.9274
78.089
95.5837
87.9888
52.079
52.0809
52.7929
67.0325
66.0034
136.406
136.246
62.4425
62.6954
60.9503
61.469
61.9126
61.2799
21.9201
22.1655
21.1546
20.6086
20.7818
21.5092
61.8662
60.2619
61.1096
60.2902
52.5053
54.8741
52.7698
53.85
13.5582
13.8434
13.7853
13.7612
63.8341
62.3787
67.5004
68.3785
65.3814
61.236
60.4644
61.0905
51.1894
49.4044
50.5593
49.465
50.3345
42.5509
37.1045
30.8556
32.2928
119.105
118.095
127.206
130.095
128.742
123.623
107.783
102.968
93.9087
95.2083
27.4799
28.0437
135.961
135.906
43.7104
43.3931
134.788
133.48
133.611
134.869
134.47
134.103
19.8611
18.5062
20.4451
135.286
135.157
132.274
135.169
96.7724
96.3999
103.008
109.236
67.9382
66.8711
71.6741
70.1496
69.306
67.5045
63.6402
65.1895
66.632
64.3915
66.3973
7.41067
6.66642
118.21
125.17
126.428
63.3426
65.2541
65.6316
66.3442
8.71576
7.73621
13.8994
13.7989
115.553
110.691
96.6909
16.8004
15.8105
15.6384
18.9561
17.8582
50.7461
49.3138
49.5365
57.5748
56.4966
77.4696
75.2436
135.047
129.947
135.098
134.41
128.635
15.4337
123.743
114.093
109.748
118.92
136.218
135.778
136.591
74.129
83.2605
77.5075
83.4382
75.7881
102.526
105.808
115.118
62.2074
62.5563
63.2376
62.7875
127.877
105.919
118.516
116.446
125.853
20.722
15.7249
25.9687
24.9719
15.1737
16.1476
26.3345
25.6133
62.6511
61.2107
62.8667
50.6098
35.0193
43.7346
43.0162
43.1503
41.9486
58.0661
59.4028
59.1653
115.107
118.626
128.018
131.316
121.251
129.418
80.328
79.6343
78.0001
77.3244
16.7295
16.565
14.9664
14.8445
14.1406
19.5376
14.6249
17.5333
98.0428
79.2165
98.9554
88.874
71.2245
71.6498
81.7678
77.715
82.8665
9.02452
8.63313
8.25332
79.1699
76.8603
72.5896
69.548
13.5845
13.1802
13.9449
13.7843
5.02113
5.7647
13.8205
13.8718
70.9995
71.9888
70.88
14.7595
13.9539
13.9423
13.9631
133.275
137.627
137.03
12.8061
11.6179
9.24669
10.2539
10.3556
9.69008
27.8937
31.4756
43.0647
137.828
18.6351
17.0759
16.0833
18.8015
17.144
16.2844
19.4152
17.4874
19.7074
17.7527
24.2329
23.7753
27.0408
24.6076
23.9984
13.4076
14.1177
13.2811
27.0401
25.7955
27.3729
26.0677
24.4917
24.4759
72.4231
72.521
75.413
73.6893
75.012
73.1363
48.0765
58.1256
55.8179
51.7792
55.7635
4.20762
3.75144
3.58974
3.96604
4.38724
106.967
116.016
114.939
104.27
109.521
58.8696
57.016
61.2549
59.7716
61.4159
60.6535
60.8904
61.2206
60.1735
60.1125
60.7368
52.1723
54.41
53.4961
53.5537
52.6049
7.68428
9.18132
8.29543
8.7434
7.89858
67.7764
69.3434
135.352
123.171
117.702
116.386
101.053
102.178
17.9429
16.1452
16.5809
64.1406
64.9428
64.8372
56.9344
86.1367
91.361
75.5088
75.0443
87.9105
81.1096
79.2256
85.4663
8.72661
9.88297
57.0719
58.8983
59.0183
57.9638
36.0358
29.4962
19.0399
40.1688
18.3526
28.0085
29.94
23.7435
48.1426
47.41
46.9331
55.4313
19.091
26.9373
30.0971
89.9664
84.1375
97.9982
100.609
79.3885
78.1525
63.6454
66.0045
66.017
54.0842
54.083
39.4583
45.3161
37.794
29.5316
65.4192
66.9125
65.7169
66.3204
57.0452
55.8411
56.59
57.7328
55.5611
53.5206
54.974
54.3013
53.1478
96.9387
101.518
47.8104
133.233
131.292
122.51
124.929
5.8457
4.82352
4.63053
5.29059
3.03472
3.18596
107.195
101.569
96.3093
105.467
97.5199
33.138
32.4869
33.1031
5.81896
6.40473
6.0983
5.54744
6.7824
7.07659
36.3998
37.0929
37.4926
36.7317
35.7628
35.8376
48.8233
50.4984
48.7809
49.9456
49.4538
50.0725
51.287
51.6063
52.1341
50.3665
49.6779
61.0116
61.0424
61.5385
2.19216
125.308
65.4364
64.4331
7.98509
8.756
9.0402
8.42377
7.77802
10.9771
9.85915
9.55679
11.0639
10.2071
11.4784
10.3993
9.81567
11.2772
10.1604
14.5926
14.117
14.4095
15.2315
14.0164
13.9433
116.108
135.9
135.193
130.485
131.357
133.424
29.0281
62.6846
61.97
60.9414
62.6753
61.4445
137.821
41.9875
42.8644
43.7063
42.2427
43.0732
63.8531
63.332
63.1051
64.0169
64.3279
6.70937
5.75127
8.90099
7.88876
8.43215
115.148
110.262
96.4047
100.083
137.468
136.198
133.412
130.626
136.856
134.511
23.9269
22.4208
21.1225
18.6764
19.4162
17.9044
20.134
19.6286
136.667
136.542
136.924
13.7353
13.751
71.4477
67.8624
69.1721
70.233
68.547
57.6531
63.6319
65.7952
64.255
68.1304
71.3859
69.1069
61.1467
62.1596
61.2379
76.7831
70.0487
71.9688
133.196
135.978
18.4096
18.9458
17.7145
20.0071
19.3714
13.5737
13.7185
32.7027
24.2422
19.3963
31.6423
15.7619
16.1926
64.0386
63.5431
63.1773
63.994
63.2457
9.03556
9.74393
83.9319
80.3445
77.3263
78.9526
83.3939
7.17954
6.46253
6.95374
7.65008
7.79445
64.7043
63.3039
18.4807
17.4551
15.8339
17.0317
15.7153
30.4673
29.6005
29.5449
29.6524
29.6967
28.6702
11.9651
14.1241
12.875
15.2964
14.2655
13.9648
12.7714
15.336
16.9446
10.6833
10.464
9.86356
6.17831
5.94696
5.50327
5.55296
5.20611
63.2054
64.1283
64.9736
63.0854
66.1546
66.6689
64.6163
63.0816
27.4405
28.2713
29.9269
14.2356
15.2967
14.5241
13.996
15.0266
15.5761
14.2829
13.4416
13.8775
13.2305
12.5123
12.958
12.8987
121.162
125.642
121.478
19.8966
21.3931
21.5424
42.4094
44.1187
42.9152
44.1553
42.386
43.0539
39.2291
40.5164
37.5482
40.1504
37.8195
35.1589
34.9761
34.6935
33.8893
34.1654
13.8907
13.877
13.9265
13.8677
14.6349
15.5366
72.3959
72.1035
70.9441
74.7975
74.733
136.013
136.086
62.0209
61.7788
59.4266
60.9212
136.603
135.853
136.311
61.6092
61.8582
36.0602
35.8991
36.7602
32.6728
33.7574
37.4003
38.4005
38.101
37.3776
36.9752
22.3084
17.9309
28.1724
21.1818
23.4989
29.3332
25.0474
32.5494
30.954
132.355
128.949
124.425
70.0729
69.3155
68.5842
132.588
130.274
134.65
122.227
122.146
4.67324
4.58106
7.04692
5.94281
5.02703
5.26101
5.89826
5.53426
66.1829
65.9753
64.6542
68.8268
68.8654
67.5851
60.5405
62.3058
58.6684
57.4679
62.7327
62.1947
13.6427
13.8905
14.135
13.8037
13.6128
13.7019
45.6453
37.4117
40.3943
47.6853
29.9559
27.228
65.7216
66.6087
67.7237
67.8943
66.0074
65.3583
59.6487
58.6505
58.3588
99.6186
102.169
112.631
13.9437
13.8502
13.9395
13.9509
13.7252
13.6062
25.3048
24.608
39.9431
43.117
43.6459
38.0333
36.9164
15.2106
16.2536
19.8961
17.511
21.6702
128.003
132.612
123.281
111.207
117.896
126.547
132.542
134.215
127.767
131.905
137.214
136.905
20.8053
20.0615
17.6116
17.7621
16.6623
5.01995
4.24849
6.55728
5.83584
7.36587
5.91031
6.80146
4.22059
4.58566
4.58772
5.47121
5.49657
48.3562
49.557
48.7325
47.3471
30.9725
30.7129
27.1105
28.2228
29.4042
27.7063
1.76768
2.10704
61.2137
62.4806
62.0618
61.3247
62.943
63.2051
48.5996
47.5142
48.9018
16.952
17.817
15.3384
14.8756
15.5001
16.827
15.3044
15.6685
14.685
14.9362
14.4608
14.4405
13.8868
13.8643
13.3217
13.0189
121.456
114.273
114.784
130.833
131.422
125.057
122.355
126.286
108.961
110.358
25.0007
29.6236
23.8105
25.0407
26.2104
53.4014
54.4841
51.9019
33.8574
36.3462
36.4666
117.928
124.037
122.407
32.732
30.4038
31.3549
51.5329
52.7606
53.0097
51.002
50.4251
73.6128
72.1789
69.6201
71.7117
69.6206
64.7235
65.9892
66.6595
65.6024
64.5412
21.2349
16.9199
14.6554
134.475
135.695
105.09
97.4848
96.1093
42.608
43.7502
46.1675
6.08427
6.64566
54.0338
50.3414
50.6197
54.7041
56.4825
12.9348
12.0892
137.841
137.847
137.804
137.816
137.829
6.24633
6.11581
6.70548
7.21111
7.26318
33.2047
32.2829
41.9489
40.9215
41.8757
43.2787
43.6802
1.60448
96.466
103.998
97.6409
102.863
109.077
109.406
10.8437
10.9054
106.869
108.515
94.2963
61.4443
60.2955
58.9871
60.0542
59.3216
71.8148
67.5304
75.6696
67.3641
66.5166
69.6858
72.1691
12
11.7814
12.5028
14.4908
16.0497
12.5253
11.4078
10.9762
12.8822
12.0094
12.0034
15.781
14.8179
34.6755
34.7289
33.5399
33.0062
33.4744
33.9287
33.218
19.2988
20.7931
20.0468
35.9458
35.1354
35.5682
16.1325
13.707
17.196
19.0079
14.9551
13.6696
15.084
10.6284
11.6201
11.2142
12.8876
14.0978
12.8636
13.731
12.0938
13.3294
12.6596
12.2521
13.2329
13.211
14.3298
12.9033
13.5271
14.9027
14.3965
33.651
33.427
34.4783
34.3844
36.2374
35.6075
35.0444
30.1325
29.686
31.6911
30.9473
31.3843
32.326
32.2893
14.616
13.2523
13.8149
13.6164
14.4109
14.8151
16.0975
16.3392
14.8517
17.5803
17.6858
19.4244
18.6892
21.1844
19.9882
21.6525
21.0954
22.0786
20.7672
19.9025
20.6418
22.1264
22.5133
15.3682
16.7588
14.849
14.0269
13.3482
13.6458
14.4664
17.6882
15.5779
16.6004
10.4406
10.7962
12.2425
13.6821
13.903
13.2034
12.0001
12.7525
12.7061
11.5552
11.9732
21.9328
22.3965
22.8998
23.0813
22.6768
21.7837
14.3409
13.2653
12.998
14.9387
14.2323
17.5655
16.4105
17.1841
15.8344
16.2576
62.8855
63.6352
63.3882
62.651
63.5082
62.6166
131.635
128.324
121.168
116.447
116.957
9.22309
8.34393
25.6627
25.3314
131.507
132.448
135.985
136.048
60.1943
59.2409
32.5918
35.2579
48.9623
43.3555
37.867
47.4293
4.34916
3.62547
14.0177
14.9792
31.7745
31.7071
31.0089
32.7966
32.893
32.5528
32.9201
33.7952
34.5514
34.3482
2.59099
2.20674
2.73245
4.06885
4.32903
5.18099
4.45202
20.9768
20.3332
21.8254
116.507
135.079
131.049
131.331
137.114
136.242
69.7859
69.8662
71.5779
70.3912
73.7148
72.2094
22.099
19.6382
27.2918
15.9238
15.8558
15.2307
15.2422
16.6846
16.8329
16.7771
16.3041
16.1179
20.8338
23.1749
5.11205
6.07864
5.28266
5.68826
6.19721
7.34662
8.08663
7.25311
7.75837
8.28511
5.05193
4.35106
5.06142
20.6925
21.6315
21.3343
21.0445
21.3143
16.9039
14.9715
15.2527
15.4475
16.5295
136.542
136.647
13.8484
13.9063
13.8843
13.8296
13.8372
58.1766
60.0027
7.42056
7.01371
12.0723
54.6041
49.348
11.9993
12.4337
12.9053
15.8618
16.8622
17.8617
61.8762
59.5603
59.0284
60.0872
47.6139
47.1336
31.1425
30.2453
30.966
136.243
64.3171
65.051
65.113
16.2679
14.755
20.0084
130.128
131.276
47.6345
47.8846
17.7208
17.64
17.1298
13.8489
13.8591
26.1472
19.2798
135.153
136.003
99.3233
58.0742
59.5679
58.1462
18.6063
19.7483
20.3393
18.329
18.5873
100.988
107.131
109.706
55.297
54.1573
5.76879
5.53718
6.69743
6.50236
41.677
41.4502
42.3052
68.9375
40.2699
67.5275
139.072
9.08253
0.347931
0.582282
13.7899
0.539667
0.293298
16.818
64.1391
0.431418
64.1781
0.364744
45.3856
25.8042
144.811
140.254
26.4523
11.8333
34.2234
41.5931
58.2311
66.9313
23.0565
20.6132
33.3749
34.6388
37.3295
41.2343
57.3064
52.0401
125.384
44.8104
56.5593
90.795
36.2633
55.4879
53.7172
60.3665
49.3757
49.3928
43.9546
135.775
133.99
4.74631
47.569
106.698
14.0478
55.3327
106.701
70.5214
67.1675
70.8347
128.596
65.5511
66.6476
59.0485
10.3663
9.71138
8.98355
62.4762
56.3294
61.2867
0.439572
0.9813
12.9688
12.1818
13.6811
8.27551
7.38953
90.3664
50.1073
56.2347
57.7742
52.9955
78.0321
84.6526
0.653464
1.13638
0.47266
0.288902
3.58736
4.27093
7.47649
8.61594
83.4719
98.1761
91.7781
51.6455
51.1353
50.4007
51.8863
59.1069
60.2073
54.385
44.743
40.8592
43.6479
52.4898
48.5581
51.8486
50.5781
51.3581
46.151
11.9316
11.4002
0.919923
0.43212
11.5592
10.4817
10.0882
0.346273
135.336
144.479
133.782
70.9743
91.8124
80.9676
13.9064
13.8293
13.6089
54.5876
61.1337
44.1435
46.1289
45.3597
42.7065
45.7197
50.7715
65.8736
68.3619
24.8763
21.8549
23.3146
39.9853
36.0259
40.8141
36.5855
33.8959
38.5735
0.31881
0.671278
17.2919
15.6729
15.411
38.6977
41.493
62.3024
56.34
63.1598
13.5993
13.6064
40.0698
37.4369
39.4653
118.711
101.437
13.9846
20.3243
0.592419
0.473217
0.316763
126.963
129.761
116.017
12.9975
14.4834
20.7686
27.8271
11.081
15.9804
35.1164
33.5233
13.2446
12.9638
24.5707
25.2506
25.6421
66.6484
66.3989
62.1043
0.387074
13.6442
13.6301
137.563
137.67
23.3932
24.3549
37.5252
35.3864
35.7702
64.211
65.1581
28.5324
26.407
136.801
12.426
11.5307
12.6367
21.8902
29.1691
15.0784
19.3977
39.8832
43.729
126.004
133.613
136.52
135.839
47.9688
50.143
111.651
1.87125
2.64339
6.38181
5.98058
13.7381
13.6683
13.6427
83.7287
0.209743
0.626753
0.614877
3.34777
2.87035
130.865
123.834
113.785
12.4372
11.4253
65.914
66.6478
70.4089
68.5589
16.3748
70.1204
78.5928
70.004
136.281
135.847
136.459
13.7047
13.365
137.737
13.9538
13.0797
31.9453
33.5539
40.1005
0.897733
0.423394
0.705097
0.276703
0.901591
13.7212
13.6912
5.72243
5.90061
7.08278
73.1314
74.7564
78.9773
70.5351
71.6557
18.6924
18.0907
13.9726
13.9025
13.974
66.8526
64.7221
67.5375
20.7928
137.602
137.461
137.293
33.8892
53.1042
41.4087
106.811
83.7727
104.008
136.135
94.5296
74.6495
90.947
125.911
114.649
106.277
22.8099
19.2793
49.6149
51.2153
47.6942
42.6741
45.8848
52.8644
54.4979
51.0402
0.284746
0.791333
0.7339
18.2638
16.2072
46.6538
46.8364
48.192
133.401
121.701
91.927
98.5268
84.0882
0.976693
1.12342
0.872508
2.47882
1.46125
13.9971
31.693
29.1364
60.5667
70.6653
69.6644
0.287383
0.920161
0.637425
137.136
21.169
19.5374
19.1235
136.42
136.276
26.7861
26.9493
28.0852
13.834
13.7949
88.0538
78.6883
75.1479
24.3834
24.6904
25.9194
41.9776
15.1845
14.4362
13.9747
14.0286
13.9279
62.4629
135.714
63.4427
64.4299
57.4629
52.6685
53.2804
61.6112
60.2318
129.434
120.836
14.7425
14.2305
15.2584
31.7151
132.12
136.33
29.7368
28.0975
137.846
137.785
136.8
136.553
136.931
20.044
17.9535
17.0108
13.5386
13.8782
13.9903
64.0597
60.2764
30.3609
27.5988
27.1272
67.4787
62.4384
136.104
136.134
136.134
33.3051
30.8223
32.7759
65.1669
62.5443
61.1711
53.8162
59.9508
136.864
137.246
137.372
116.923
102.846
13.37
12.9745
12.5652
0.985582
1.8168
0.519746
1.42891
33.8953
33.593
31.9889
30.2202
28.7833
24.3529
22.1355
20.2731
135.397
135.677
136.014
5.20778
4.93396
4.30568
132.77
127.707
67.8765
66.4528
74.0223
83.5788
71.6412
135.923
38.9805
41.4616
53.1642
57.9737
55.1281
29.6183
31.2943
32.1166
30.9031
29.9341
135.12
134.366
66.7084
19.6106
20.3295
13.7419
13.5333
137.797
137.835
69.2545
6.39561
6.46709
131.587
136.825
15.2484
30.2419
64.4166
55.0005
34.9334
134.343
28.4244
58.6704
9.33397
6.74318
115.756
81.2062
91.0174
42.9972
20.7293
76.9727
25.7835
35.3643
17.0726
92.308
106.91
109.726
61.8427
63.9924
68.6414
120.958
31.4468
29.3127
30.4012
63.1339
97.335
128.908
13.8017
45.3592
32.4159
89.138
14.2096
13.8858
10.2191
31.0784
29.1538
27.2776
28.2843
57.0198
57.1019
56.0596
53.7929
72.7464
7.37689
6.69996
137.695
66.0991
45.1032
44.0659
127.148
55.3447
128.366
17.6585
12.1171
10.5559
11.2277
14.0054
14.676
119.699
4.75398
6.0384
47.479
29.2889
27.7112
127.737
121.915
116.2
118.804
131.642
130.464
86.9817
105.225
15.3263
14.7994
30.6919
18.8919
23.5033
68.1046
7.19588
74.806
64.1248
91.2376
103.825
97.8166
130.233
34.1862
34.3536
33.414
33.0464
20.6388
11.4109
59.7659
57.1017
43.3819
85.0103
68.2595
45.4952
44.5087
44.3878
130.285
128.683
58.7732
8.70272
13.6012
5.55113
10.8519
35.4841
42.0473
41.43
20.2698
46.0904
60.3984
58.0199
56.9008
22.1165
29.5531
6.54865
7.38004
6.39808
93.9138
10.682
75.7778
124.134
13.9885
101.818
42.2629
80.8008
26.5622
29.9325
43.5369
63.8439
15.7066
7.0043
7.52316
7.7152
49.6332
55.0503
133.627
54.493
13.6767
103.974
117.591
17.0034
54.9581
55.1235
75.7068
91.937
57.027
56.5431
59.3075
57.8117
11.1475
18.4497
24.4735
14.4058
14.7738
111.157
123.234
118.271
124.707
13.1319
14.0484
13.6292
14.2975
59.7287
58.3811
67.1412
38.8934
26.1618
63.8152
33.8785
67.8845
67.8783
61.7855
43.5147
44.8327
68.4934
62.0258
62.7515
54.4523
134.872
20.1301
27.576
29.1938
28.3878
27.2975
31.1488
31.0321
134.455
72.1125
75.1339
71.8081
105.601
96.8856
90.2177
107.484
101.47
60.6453
59.0249
109.212
56.1752
54.5579
63.4182
10.2398
10.4605
11.974
11.0698
57.8694
135.938
35.7268
38.8507
37.5283
3.26688
2.66522
2.7994
2.17524
1.55844
53.0681
53.2999
115.407
70.0352
61.7764
2.55698
70.4479
67.92
69.4771
60.6067
37.6988
134.265
132.724
133.911
132.519
14.5437
44.0204
91.8334
23.696
135.045
135.841
133.531
133.284
9.71666
9.84168
9.00643
8.19587
3.11077
74.516
72.0378
7.62861
28.4425
30.3902
28.7981
29.4984
7.10715
8.19694
13.6698
15.6573
15.2664
27.0178
38.7792
40.6705
38.8032
40.0182
33.8281
31.8848
33.0104
26.9564
25.9893
27.9724
43.3037
43.8225
42.0065
42.8022
76.3658
75.8556
81.8176
67.2455
70.5064
67.7314
13.0132
69.4454
64.7466
57.8182
59.4231
58.6099
13.6925
78.5092
75.4467
73.5936
2.18348
1.99716
7.19543
6.9424
4.5969
48.9175
50.7271
8.47077
80.079
76.8665
72.0451
73.8822
71.2245
68.2027
97.5714
111.999
104.626
111.44
63.1646
63.1737
67.1827
46.0266
45.5
45.0375
136.179
41.8493
33.0011
1.00745
53.6977
54.0419
123.277
132.455
65.6092
66.2284
130.854
54.2311
46.9354
106.729
32.3896
48.2072
103.355
116.152
110.512
55.8175
115.498
34.9671
42.115
44.5529
46.3336
45.0869
11.366
13.2171
12.5114
13.7519
13.0199
12.4966
64.3218
65.3121
63.4301
63.7591
66.0333
65.3938
118.702
124.858
119.429
126.38
7.4114
17.4798
5.76929
81.7556