/*--------------------------------*- Python -*----------------------------------*\
  =========                 |
  \\      /  F ield         | OpenFOAM: The Open Source CFD Toolbox
   \\    /   O peration     | Website:  https://xxxxxxx
    \\  /    A nd           | Version:  xx
     \\/     M anipulation  |
\*---------------------------------------------------------------------------*/
FoamFile
{
   format     ascii;
   class       volScalarField;
   location        "0";
   object      T;
}
// * * * * * * * * * * * * * * * * * * * * * * * * * * * * * * * * * * * * * //

dimensions     [0 0 0 1 0 0 0];

internalField      nonuniform List<scalar>
2550
(
300.0
300.0
300.0
300.0
300.0
300.0
300.0
300.0
300.0
300.0
300.0
300.0
300.0
300.0
300.0
300.0
300.0
300.0
300.0
300.0
300.0
300.0
300.0
300.0
300.0
300.0
300.0
300.0
300.0
300.0
300.0
300.0
300.0
300.0
300.0
300.0
300.0
300.0
300.0
300.0
300.0
300.0
300.0
300.0
300.0000000000001
300.0
300.00000000000006
300.0
300.0000000000011
300.0000000000001
300.0000000000004
300.00000000000006
300.0000000000085
300.0000000000008
300.00000000000347
300.0000000000004
300.0000000000686
300.0000000000052
300.0000000000288
300.0000000000026
300.0000000005549
300.0000000000328
300.00000000024335
300.0000000000181
300.00000000451337
300.00000000020754
300.0000000020692
300.00000000012403
300.000000036844
300.00000000130404
300.0000000177053
300.0000000008517
300.00000030144116
300.00000000812224
300.0000001522863
300.00000000584646
300.0000010245876
300.0000000315557
300.00000192669745
300.00000003957086
300.00000246485735
300.0000000688811
300.0000053125595
300.00000009543345
300.00001108391695
300.00000018805497
300.00000481252397
300.00000012992683
300.00002021999677
300.0000003559722
300.00000905509876
300.00000024980494
300.00003885290084
300.0000006932515
300.0000175953581
300.00000048925097
300.0001203361001
300.0000022651501
300.0000562548598
300.0000016203272
300.00037918045683
300.0000084124733
300.00019129139815
300.00000627582114
300.00115068330615
300.0000350970495
300.0006290237919
300.0000283317864
300.00319144038593
300.00013644629854
300.0019168040392
300.0001206441451
968.6013934044421
966.8755724250752
968.1307504579828
966.9178875317136
300.0059379490001
300.0005124567812
780.6808068816882
772.9023679555845
778.5282969929852
774.2046974986351
300.00864075198024
300.0005241871372
559.5837721082844
550.1271287321874
557.4154783378622
555.5222069306988
300.0251213037046
300.0022210463265
300.01501453129674
300.0019306362885
399.7071043460927
389.35408221960955
398.2378796824131
395.4316808217451
300.06780242255843
300.008500855113
300.04335082921983
300.0081600652722
300.1755810011254
300.03209292576815
300.1215297157513
300.03440411865256
329.19111672313403
325.4816279334815
328.76425200015024
329.290910843326
300.41579356132075
300.1191706192966
300.3165383733453
300.1446947203956
308.5818944551261
306.89084037543347
308.2634377022209
308.49734931531407
302.6273668798976
301.80272713895005
300.7779402330671
300.4334914071749
302.4135011578712
302.36912753669196
300.67182420984744
300.6070469249822
958.6557786866955
947.7531123766747
958.8814441776157
947.8462405619362
300.00000460433625
300.00000357277054
300.00000204655737
300.00000118443194
715.7856894940498
660.4621781847586
712.7094145160743
658.96381064563
300.00000486862507
300.00000442122365
300.00000221130625
300.0000014891959
448.587253001907
398.52012930354624
446.47777825753747
397.76429757279163
300.0000071659983
300.00000462362925
300.0000150346095
300.0000131312294
332.1128094414175
314.44528059830463
330.8154605027556
313.5046872095512
306.2629483532087
302.2573604890306
306.9370089782062
302.72167649551625
300.00002390860413
300.0000143873497
300.000048380411
300.0000403215651
301.5226941201012
300.5618369090375
301.7959683900293
300.7901932129285
300.0001514919323
300.0001190092652
300.00007547262845
300.00004178851395
300.5403809917482
300.2767976557422
300.3964247583282
300.1671299543143
300.0002466587782
300.00012510551466
300.0004081096687
300.0003164906827
300.00071729452685
300.0003496434936
300.00104769023363
300.000844139874
300.1208910116451
300.0576593333885
300.1650482698281
300.09979578149415
300.03647621522146
300.0197615984308
300.02293578448973
300.0159924690135
300.0522096068392
300.0364933376185
300.0025218838099
300.00223140016794
300.0017607944308
300.0009333639315
300.00599865818083
300.0052189623422
300.0040533821988
300.00260063841546
300.01035307312236
300.00646779459174
962.2322742068977
962.4394234861919
300.0000025020193
300.00000473989274
745.6866789545487
743.1134875236737
300.000002671192
502.6133688728122
501.95297700650804
300.0000051205193
300.0000163266312
300.00000845155955
359.0882541278261
359.50915797499204
315.53699673419015
313.5827702371284
300.0000558519489
300.00003124895096
300.000184880317
300.00011261512003
304.0525063232259
303.43376904976157
300.00053431239667
300.0003660838104
301.13913537069794
300.91526306361726
300.33709410677284
300.2549699723829
300.00116835075283
300.0013600133229
300.10286196028494
300.0318984996285
300.00990784101543
300.0030531571955
300.0028252922702
300.0733875414693
300.0215571801221
300.00613244586435
300.0000034827948
300.0
300.00000114690164
300.0
300.00000151039495
300.0
300.0000045067083
300.0
300.00001524608444
300.0
300.00000485946975
300.0
300.0000356987056
300.0
300.0000113899942
300.0
300.0000210449359
300.0
300.0000068445141
300.0
300.0
300.0
300.0
300.0
300.0
300.0
300.0
300.0
300.0
300.0
970.3599692227845
970.0206602176938
970.4706833103704
970.2323413607862
967.4426928214392
967.3237681890708
956.1184335721392
956.0911060542412
933.5077644117063
933.764932425819
793.6534793680935
792.3964429477088
794.3146095536154
793.7362838321216
774.315606451363
774.5374573993797
704.6703560281437
705.4513380837202
624.865651039154
625.8566954375101
589.6856436616936
589.9272986481767
590.8672439252967
592.8042052210722
548.4969413020494
552.1709324555077
448.10487676790865
451.98326750967794
391.259089858225
393.2480737999085
433.89116268139645
436.2760824879305
435.3483477744842
440.23584113003415
391.4183654134141
397.72605880169533
335.1789299042425
339.6106472028349
315.88446207600003
317.77710976442273
349.9097085926577
354.6922533009742
351.33185205775857
357.84039388838
328.9406734960466
334.00892941286213
309.1368400887245
311.6552676730324
303.4685224216501
304.4955160197539
317.8523142860345
321.1563193990233
318.89548497719767
323.1752715359678
309.44348190277555
312.1766398281017
302.77685703609944
303.96119805815323
300.9900892740861
301.45945621693755
306.3457508119629
308.06699680329
306.94566670239783
309.17799515797526
303.1827374687332
304.4647181358622
300.9050200678603
301.4244825941235
300.31622681647576
300.5187587433381
302.2453646870887
303.04169182833016
302.5470103778523
303.59620464903514
301.0973839882198
301.66133573583494
300.30537513711266
300.52509690151
300.10580381447664
300.19067966038716
300.7902396576721
301.135393274548
300.93121322015435
301.39549359366157
300.3843666964494
300.6233821962348
300.105190612607
300.1959804689354
300.0362565455015
300.0711212246981
300.2777514389495
300.420821644416
300.33940311740383
300.5368040765043
300.136021546863
300.23479521462536
300.0367129643818
300.07358517720365
300.0126022696353
300.0267063708361
300.09749309895574
300.155002638277
300.12331598779724
300.2048656003798
300.04843743735313
300.0884853851742
300.012918682406
300.02768448948746
300.0044187787103
300.01005218608236
300.0341737231411
300.0567752465703
300.04466441169484
300.07762355952656
300.01730592085204
300.03329496878195
300.00456748927303
300.0104092137773
300.0015573126226
300.0037820547792
300.0119587668081
300.020689143665
300.0161239875569
300.02921534745514
300.0061906379325
300.01249148719745
300.00161864869347
300.0039049595172
300.0005502745299
300.00141993337894
300.0041697546157
300.0074964405075
300.0057926804582
300.0109188631766
300.0022124675699
300.0046668103733
300.00057398701654
300.00146005782483
300.0001946137666
300.00053140410427
300.0014300616874
300.002681631006
300.0020477175964
300.0040264035288
300.00078323664746
300.0017256119112
300.0002029706504
300.0005425417915
300.0000687733415
300.00019800700954
300.0004413787134
300.0008930858908
300.0006561507874
300.00138544248847
300.000253940624
300.0005912161246
300.0000660666013
300.000184628284
300.00002238777
300.0000674957356
300.00011398544757
300.00028686214284
300.00018055888495
300.0004659727415
300.0000739816559
300.0001968756185
300.0000204893376
300.00005953517035
300.0000071630156
300.0000220845104
300.0000329216581
300.0000961666873
300.00005389441867
300.00016057047935
300.00002271847785
300.0000679520602
300.0000065751285
300.00001998175424
300.0000024828235
300.0000077401765
300.00001228695913
300.0000374829969
300.00002033909334
300.00006326145945
300.00000867990354
300.00002702261804
300.00000261909054
300.00000817698293
300.0000011765278
300.0000037036623
969.223034130256
968.9921448939926
970.0081656748918
969.7931478489402
970.0567296368541
969.8478477039516
970.062309301142
969.8543555734975
970.0630151339698
969.8552129320263
970.0630896586301
969.8553151696876
970.0630768742408
969.8553100188825
970.0630522557746
969.8552897292526
970.0630258972342
969.855267097645
970.0630019160869
969.8552466713854
970.0629759023459
969.8552241133207
970.0629523295975
969.8552038962455
970.0629290259415
969.855183865595
970.0629056008385
969.8551636169699
970.0628836048055
969.8551447102058
970.0628629211296
969.8551270212511
970.0628414908164
969.855108496204
970.0628221751101
969.8550919968842
970.0628027592238
969.8550753037566
970.0627834143645
969.85505859362
970.062766003778
969.8550437236017
970.0627486921478
969.855028865754
970.0627311694382
969.8550137039728
970.0627151605617
969.8549999662565
970.062700192062
969.8549871732922
970.0626846408825
969.854973712217
970.0626711885134
969.8549622572134
970.0626582343695
969.8549512079047
970.0626440926733
969.854938885254
970.0626318376706
969.8549283539315
970.0626208452659
969.8549189953552
970.0626085057584
969.8549082007723
970.0625994106774
969.8549005543414
970.062590376481
969.8548928848137
970.0625798503712
969.8548836290541
970.0625720457705
969.8548770029965
970.0625641174408
969.8548701633791
970.0625555891908
969.854862636583
970.0625501810102
969.8548581253133
970.0625442948786
969.854853032555
970.0625383827214
969.854847695511
970.0625365299888
969.8548456821352
970.0625410746756
969.8548466501301
970.0625938703986
969.8548794673328
970.0629115213875
969.8551033568069
970.0647167234523
969.8565295469543
970.0751053953187
969.86585492941
970.1393835286804
969.9320620811434
970.622517941
970.4937208693093
786.127169394055
785.6005480878591
791.254365419007
790.8084554350775
791.5900647715853
791.188088690363
791.6238401554583
791.2284994701621
791.6234851212753
791.229224348009
791.618810184384
791.224745860299
791.6136404349412
791.219629516113
791.6085043991602
791.2145233876131
791.6034774851944
791.2095221093905
791.5985726840296
791.2046417728217
791.5937887351836
791.1998815678066
791.5891270020481
791.1952429063363
791.5845894467438
791.1907278547185
791.5801727121104
791.1863329457333
791.5758800321639
791.1820614960385
791.5717104001711
791.177912465502
791.5676613863258
791.1738834037709
791.5637372849752
791.1699786787588
791.5599343350532
791.1661944489351
791.5562541373301
791.1625323383319
791.5526972575026
791.1589929343627
791.5492635547879
791.1555760994153
791.5459501210096
791.1522788722982
791.5427617270177
791.1491060974175
791.5396946800003
791.1460540089818
791.5367498579456
791.1431235375665
791.5339296651382
791.1403170951758
791.5312308595876
791.1376313765505
791.528654334039
791.1350673282468
791.5262010556178
791.1326258994656
791.5238710046133
791.1303070820813
791.521661865673
791.1281085332898
791.5195774344636
791.1260340766144
791.5176159997111
791.1240820273749
791.5157743431337
791.1222490782894
791.5140581564349
791.1205409963433
791.5124632996134
791.1189536154868
791.5109909606235
791.1174881330644
791.5096422733109
791.1161456244836
791.5084170826394
791.1149258825749
791.5073137002285
791.1138264158126
791.5063448991002
791.1128564724011
791.5055556350164
791.1120422874912
791.505211537222
791.1115593109648
791.5068225578336
791.1125188557949
791.5188877875579
791.1219514048162
791.5906118912353
791.1862952399372
792.0349086993243
791.6439860715441
795.4300770435667
795.5813964330232
573.1909693424964
574.774395852301
585.1821005051157
587.2175406127826
586.2035084147735
588.3950811610493
586.3222320599365
588.5373550845491
586.3353966352436
588.5541952950452
586.3348619190443
588.5542205708498
586.3324772228717
588.5518993477276
586.3298800771852
588.5492871060756
586.3273050357428
588.546685099748
586.3247883219531
588.5441401735268
586.3223320507872
588.5416560530925
586.319938624122
588.539235340178
586.3176089904881
588.5368792027678
586.3153413516898
588.5345856455565
586.3131371407808
588.5323562144059
586.3109966521661
588.5301911993381
586.3089171495033
588.5280878070755
586.306902503281
588.5260500138527
586.3049498895195
588.5240749073449
586.3030597131817
588.5221628312597
586.3012339924089
588.5203160078067
586.2994704052298
588.5185319036303
586.2977688795334
588.5168106120466
586.2961315481273
588.515154156598
586.294556303247
588.513560445316
586.2930439897739
588.5120303652976
586.2915956295765
588.5105649117909
586.2902097505289
588.5091625821117
586.2888861804436
588.5078233004358
586.287626049604
588.5065481414099
586.2864288277792
588.5053364906653
586.2852942152649
588.5041881777531
586.2842233978189
588.5031042965766
586.2832160017686
588.5020845586632
586.2822695503279
588.5011264251984
586.2813874902013
588.500233308589
586.2805684323293
588.4994039571186
586.2798113098714
588.4986371399048
586.2791182771387
588.4979350079345
586.2784895084576
588.4972974274826
586.2779264564028
588.4967238382919
586.2774559839761
588.4962310234891
586.2772068350012
588.4958954232889
586.2779266005393
588.4962126099758
586.2838287935051
588.5002832234893
586.3185551448859
588.5276668941282
586.5168940116582
588.7055922658063
587.6978288463336
589.9237661467479
595.6894835622188
599.3705326691268
412.9677588325502
415.90495092247113
428.38621609212015
432.70601195514104
430.4599775474121
435.2385574466995
430.76746463052183
435.6318101697808
430.8119656401883
435.69111857594953
430.81780053053603
435.69935691344153
430.817969036436
435.69986353125256
430.81731795811595
435.6992178065008
430.81656141887527
435.69841500935524
430.81580579053707
435.69760621052603
430.81506559315983
435.69681285952436
430.814344151729
435.6960393493706
430.81364164704445
435.6952861432376
430.81295817690346
435.6945532122571
430.8122930849027
435.69384002688156
430.81164768299993
435.6931478621806
430.81102040920763
435.69247511170624
430.8104126128029
435.69182315024716
430.80982342602385
435.6911911461649
430.8092532166913
435.6905793697999
430.8087019361798
435.68998791132424
430.8081699616542
435.68941705501555
430.8076561463199
435.68886568767084
430.80716187376515
435.68833515481293
430.8066862372142
435.6878246192074
430.8062294398727
435.68733420823594
430.80579177571155
435.6868642609408
430.80537335595363
435.6864148635184
430.804972844991
435.68598469916503
430.8045921859566
435.6855757233459
430.80423015737244
435.6851866858391
430.8038869967113
435.68481781223556
430.8035629506539
435.68446940125926
430.80325798445705
435.68414137935747
430.802971232093
435.68383289360287
430.802704079231
435.6835453113283
430.80245543084646
435.6832775903655
430.80222597851036
435.6830302991716
430.8020159332402
435.6828036280548
430.80182655477944
435.6825980241029
430.80166532715003
435.6824170729683
430.8015806791617
435.68228822458127
430.8018429094494
435.6823748268824
430.80399465539756
435.68370343826587
430.8166737268965
435.6926483361666
430.8874890941262
435.74866989967927
431.27366804247094
436.0950725620874
433.3309376911959
438.2262613404613
443.9776507219968
451.2881052752379
336.4963914592529
339.90092070684943
345.73940521929956
350.9770877519499
347.54267080078904
353.3456467689157
347.88485985799275
353.81637395972655
347.9456311237297
353.9034326324815
347.9559260958632
353.9187152266412
347.95755838713654
353.92122327251747
347.95774810878027
353.9215364952292
347.9577038471486
353.92148391756973
347.95762376376706
353.9213736722258
347.9575397119103
353.92125654057236
347.9574566356225
353.92114054311605
347.95737577575176
353.9210275536211
347.9572969268692
353.9209173374177
347.957220144453
353.92081004769267
347.9571456322681
353.9207058958479
347.9570730534308
353.9206044873696
347.95700269078765
353.9205061307105
347.95693441279866
353.9204106910082
347.95686817290033
353.92031812566387
347.9568041587894
353.92022867786864
347.95674234306625
353.92014218554255
347.95668249983294
353.9200585324796
347.9566248878866
353.9199779595219
347.9565693601998
353.9199003138444
347.95651587655357
353.9198255220026
347.95646461268433
353.9197537848971
347.9564154865752
353.9196850489757
347.9563682867653
353.9196190866493
347.9563234111276
353.9195562231019
347.95628072147656
353.91949648198613
347.9562399008039
353.919439345512
347.9562014378574
353.91938548237067
347.9561650803648
353.9193345395216
347.9561306754065
353.91928635980724
347.95609849625635
353.91924126188337
347.95606842179376
353.91919913675366
347.9560405257951
353.91915991674585
347.95601515562475
353.9191240622131
347.95599300304343
353.9190914914048
347.95598058745253
353.91906587445897
347.9560151385506
353.9190683640494
347.95631213799174
353.9192326088696
347.95810945894607
353.92040395625185
347.96841388393887
353.92790188433406
348.02622894278255
353.9750795391153
348.3441558504756
354.2701446829193
350.05011443638233
356.10644302492256
358.9134169391916
367.4723980341075
311.2788406005174
313.1706398911589
315.5874986495119
318.74377534035136
316.6872610466438
320.28543969254883
316.9406532595034
320.6572084280108
316.9935568805262
320.738000258687
317.003920522902
320.75437891959996
317.00588321020376
320.75755541744735
317.00626768370955
320.75816994354403
317.0063658158198
320.75830676158336
317.00641280529595
320.75835674538564
317.00645019917505
320.75839075315935
317.0064851572574
320.75842127767976
317.0065189947451
320.75845062067555
317.00655180141166
320.7584789793633
317.00658364889796
320.7585064737923
317.00661456618303
320.75853314579086
317.00664453393733
320.75855899357396
317.00667353687015
320.7585839673112
317.00670163972364
320.75860814896873
317.00672874014174
320.75863142384077
317.0067549403012
320.7586539386002
317.00678019055346
320.7586755819452
317.00680446742064
320.75869635467205
317.006827798218
320.7587162835572
317.00685022549857
320.75873544611545
317.0068716353445
320.7587536728834
317.006892179452
320.75877114498553
317.0069117567115
320.75878775654354
317.0069303438844
320.75880349454326
317.0069480085243
320.7588183940539
317.00696476083687
320.7588325069997
317.0069805379318
320.7588457381805
317.0069953757144
320.7588581369096
317.00700928572974
320.7588697330913
317.00702224170846
320.7588804645754
317.0070342552752
320.75889036527593
317.0070452897853
320.7588993822129
317.00705542004414
320.75890759432247
317.0070647599175
320.75891508271127
317.00707378195426
320.7589220263769
317.00708561545025
320.75893008851324
317.00711929542837
320.75895051259425
317.0072861577375
320.7590546880002
317.00823466420405
320.7597019540511
317.01369355780184
320.763840211871
317.0447695135307
320.79035187964814
317.21860574134644
320.95994101046944
318.1687804737984
322.0425005512924
323.2024159897635
328.9368649348607
303.4613947760386
304.2872960830762
305.25903557214656
306.75847463373515
305.82703130561373
307.599698895181
305.98126623359576
307.8385427823276
306.0182957347367
307.89817283041924
306.02648747321484
307.91181850124644
306.02821587158894
307.91477119804154
306.02858853600236
307.9154068943973
306.02869009406356
307.9155660705004
306.0287388946074
307.91563058738194
306.0287771312131
307.9156762228461
306.02881266451504
307.9157174601941
306.02884696994306
307.91575704252693
306.02888028283076
307.9157954362318
306.02891262834646
307.9158326896228
306.02894403586055
307.9158688567425
306.0289745228231
307.91590396834965
306.0290040528643
307.91593796186476
306.02903267040705
307.9159709024775
306.02906032605983
307.91600272520384
306.02908706242977
307.9160334930175
306.0291128556425
307.9160631579975
306.02913770058865
307.91609172574556
306.0291616011686
307.91611919576627
306.0291845933896
307.91614562541
306.0292066199735
307.91617092730115
306.0292277243551
307.91619516478187
306.02924790154697
307.9162183317588
306.0292671107007
307.9162403692981
306.02928539774945
307.9162613428685
306.0293027510477
307.9162812351354
306.02931914923516
307.9163000211683
306.0293346448562
307.91631776423463
306.0293491812003
307.916334395014
306.0293627793806
307.91634994427926
306.02937543551275
307.9163643911312
306.02938716389014
307.9163777684259
306.0293979534346
307.91639005266904
306.02940786813986
307.9164012901916
306.02941712974035
307.9164115803456
306.02942724491965
307.91642177126056
306.02944704478216
307.9164371687336
306.0295290258323
307.9164924477156
306.02998100227234
307.9168128442938
306.03258496823685
307.91885922807586
306.04749549963594
307.93209687468334
306.13141696828967
308.0177812395477
306.59255091995044
308.5718277716426
309.04354100966316
312.14971312316806
301.05868255166274
301.38293638768164
301.75921481952304
302.39793065071905
302.0238639089736
302.8094157388594
302.10675807211373
302.9440275279266
302.12927406552865
302.982005659611
302.13482428961674
302.991683132853
302.1361092657635
302.9939839193424
302.1364042356212
302.9945168194809
302.13648262094216
302.99465191801283
302.1365154867034
302.99470148640773
302.13653879677094
302.99473296012525
302.13655980567944
302.994760275821
302.13657995174856
302.9947862427108
302.1365994787792
302.9948113624838
302.1366184539011
302.9948357651299
302.13663687790864
302.99485945397925
302.13665475978536
302.9948824445458
302.13667209070127
302.99490472256446
302.13668887990474
302.9949263048214
302.13670511494837
302.994947171068
302.1367208159319
302.9949673511565
302.1367359657104
302.9949868177392
302.1367505647726
302.9950055736164
302.1367646205936
302.9950236336983
302.13677813154897
302.9950409853477
302.1367910942363
302.9950576350349
302.13680351377155
302.9950735825461
302.1368153853511
302.9950888269378
302.1368267114973
302.99510336188825
302.136837489252
302.9951171935305
302.1368477217818
302.995130320321
302.1368574088153
302.99514274901514
302.1368665521435
302.99515447100924
302.13687514849806
302.99516549107335
302.13688319612316
302.9951758025958
302.136890698277
302.9951854118887
302.136897658893
302.9951943209218
302.1369040696477
302.9952025189325
302.13690995945205
302.995210026251
302.1369154360473
302.99521690618286
302.13692114845287
302.995223509171
302.1369310387187
302.9952322771938
302.1369685354257
302.9952590888347
302.13717151275165
302.99540776310397
302.1383409094992
302.99635647096676
302.14505326865304
303.00253150259925
302.1829075143575
303.04279996218
302.3910154987414
303.3052662013343
303.49463520099823
305.01457510412774
300.32337503851664
300.44324467257024
300.58422093344694
300.8394259574076
300.69917789771904
301.02621073888696
300.74003506116566
301.0954610017518
300.75243125931763
301.11725774088956
300.7558019476331
301.1233790919335
300.75665184396604
301.12496481418833
300.756859282924
301.1253578087542
300.7569138789095
301.12545905217644
300.7569339032575
301.1254927251504
300.75694628195714
301.12551123762177
300.75695686578945
301.12552625252147
300.7569668742319
301.12554025216826
300.7569765525362
301.1255537469777
300.7569859489191
301.12556684108154
300.7569950756817
301.12557955635464
300.75700393246524
301.12559189494243
300.7570125192553
301.1256038563854
300.7570208364983
301.1256154423555
300.7570288847634
301.1256266525848
300.75703666378973
301.1256374861912
300.7570441753005
301.1256479486827
300.75705141513896
301.12565803120594
300.7570583859258
301.1256677384532
300.7570650890655
301.12567707144785
300.7570715200542
301.1256860256099
300.7570776858464
301.12569460897646
300.75708357794764
301.12570281187726
300.7570892039709
301.12571064197175
300.7570945577021
301.12571809239347
300.75709964399755
301.12572517106366
300.75710446047253
301.1257318727657
300.7571090094241
301.12573820088477
300.75711328653
301.1257441500031
300.7571172968995
301.1257497260588
300.75712103417163
301.1257549227683
300.75712450650457
301.1257597483062
300.75712770740597
301.1257641942532
300.75713064930227
301.12576827020774
300.7571333782263
301.12577200065806
300.7571361728012
301.12577554615706
300.7571407239181
301.12577996859426
300.7571571130884
301.12579226447446
300.7572447759082
301.12585834192697
300.7577495903882
301.126279650079
300.7606496139711
301.1290338710845
300.77700543510383
301.1470888073357
300.8667786752531
301.2654228758203
301.3406337910195
302.0405493279549
300.0987618794086
300.1413909600601
300.1928213648154
300.29053421884953
300.24028443519154
300.3708326178372
300.2591770432657
300.4041328585874
300.26551371628665
300.41570545616077
300.2673987152916
300.41925750745565
300.2679133514476
300.42025371855937
300.268047022458
300.420517361522
300.26808265824593
300.4205872849538
300.26809450730207
300.4206090728021
300.26810079535034
300.4206194053778
300.268105761675
300.4206270190349
300.2681103521987
300.4206339030784
300.26811476638454
300.42064048656334
300.2681190488785
300.4206468664706
300.26812320702254
300.42065305983033
300.2681272417145
300.4206590678884
300.26813115455343
300.4206648950334
300.2681349453517
300.4206705399192
300.2681386134668
300.4206760024103
300.2681421598549
300.42068128258796
300.2681455832773
300.42068638018674
300.2681488853493
300.42069129703196
300.2681520646802
300.42069603095666
300.2681551213306
300.4207005814974
300.2681580556456
300.4207049502011
300.2681608690113
300.42070913846044
300.2681635589948
300.4207131428009
300.26816612729505
300.4207169657536
300.2681685724088
300.42072060485793
300.268170895791
300.42072406366105
300.26817309686993
300.42072733887693
300.2681751757053
300.42073043247217
300.26817713231634
300.4207333439493
300.26817896662214
300.42073607318844
300.26818067850917
300.42073861972347
300.26818226877276
300.4207409851054
300.2681837362421
300.42074316682704
300.26818508553623
300.4207451685893
300.268186336251
300.4207470009841
300.2681876044121
300.420748732335
300.2681895970909
300.4207508149107
300.2681965359021
300.42075623740106
300.26823335506225
300.42078470767484
300.26844524236043
300.42096609022235
300.26966249983093
300.4221557734983
300.2765216823115
300.4299854405585
300.31407090667443
300.4815150984224
300.51111691680495
300.8205044680039
300.0301777256537
300.044936258956
300.063305813146
300.0995871052333
300.08216519861463
300.1327077450293
300.0904832922617
300.14790859094677
300.093541022557
300.15369138357363
300.09452919171423
300.1556177105068
300.094819821473
300.1561994541191
300.0949001215087
300.1563635064306
300.0949221520408
300.1564087226844
300.09492906748716
300.1564223765637
300.09493224189293
300.15642806740044
300.0949345012058
300.15643179488114
300.0949365145562
300.1564350097701
300.09493843273077
300.15643804564786
300.0949402891534
300.15644097743456
300.0949420910607
300.15644382219904
300.09494383981536
300.1564465824522
300.0949455356453
300.1564492591484
300.0949471785776
300.1564518523607
300.09494876852
300.1564543619881
300.0949503060957
300.15645678857123
300.0949517907038
300.1564591319639
300.09495322250075
300.15646139170605
300.0949546013428
300.15646356780456
300.0949559274
300.15646566081165
300.0949572007292
300.1564676704569
300.09495842107964
300.1564695962736
300.0949595889003
300.15647143936445
300.0949607038217
300.15647319886034
300.09496176551954
300.1564748742273
300.0949627748262
300.1564764671752
300.0949637311437
300.15647797595466
300.09496463452547
300.1564794016856
300.09496548526835
300.1564807440273
300.0949662830319
300.1564820027492
300.09496702811276
300.1564831783004
300.09496772040535
300.15648427049916
300.0949683596621
300.15648527856933
300.09496894834393
300.15648620533574
300.0949694929766
300.1564870527166
300.09497004215393
300.15648785033886
300.09497088513217
300.15648878706537
300.09497375392726
300.1564911119517