/*--------------------------------*- C++ -*----------------------------------*\
| =========                 |                                                 |
| \\      /  F ield         | OpenFOAM: The Open Source CFD Toolbox           |
|  \\    /   O peration     | Version:  2206                                  |
|   \\  /    A nd           | Website:  www.openfoam.com                      |
|    \\/     M anipulation  |                                                 |
\*---------------------------------------------------------------------------*/
FoamFile
{
    version     2.0;
    format      ascii;
    arch        "LSB;label=32;scalar=64";
    class       volVectorField;
    location    "0";
    object      Urel;
}
// * * * * * * * * * * * * * * * * * * * * * * * * * * * * * * * * * * * * * //

dimensions      [0 1 -1 0 0 0 0];

internalField   nonuniform List<vector> 
50904
(
(-1.20401 4.67339 -10)
(-1.17758 4.58655 -10)
(-1.10419 4.66073 -10)
(-1.08249 4.58198 -10)
(-1.20669 4.67342 -10)
(-1.18017 4.58642 -10)
(-1.10641 4.66079 -10)
(-1.08465 4.58191 -10)
(-1.21006 4.67345 -10)
(-1.18343 4.58627 -10)
(-1.1092 4.66088 -10)
(-1.08736 4.58182 -10)
(-1.21432 4.6735 -10)
(-1.18755 4.58607 -10)
(-1.11273 4.66098 -10)
(-1.09079 4.58171 -10)
(-1.21968 4.67356 -10)
(-1.19275 4.58582 -10)
(-1.11717 4.66111 -10)
(-1.09511 4.58156 -10)
(-1.22645 4.67363 -10)
(-1.1993 4.5855 -10)
(-1.12278 4.66128 -10)
(-1.10056 4.58138 -10)
(-1.23493 4.67373 -10)
(-1.20749 4.58511 -10)
(-1.12978 4.66152 -10)
(-1.10734 4.58118 -10)
(-1.2454 4.67388 -10)
(-1.21762 4.58462 -10)
(-1.1384 4.66191 -10)
(-1.11571 4.58098 -10)
(-1.25847 4.67405 -10)
(-1.23027 4.584 -10)
(-1.14916 4.66242 -10)
(-1.12615 4.58076 -10)
(-1.27429 4.67434 -10)
(-1.24555 4.5833 -10)
(-1.16218 4.66323 -10)
(-1.13876 4.58062 -10)
(-1.29337 4.67473 -10)
(-1.26393 4.58245 -10)
(-1.17779 4.66438 -10)
(-1.15382 4.58057 -10)
(-1.31667 4.67533 -10)
(-1.28635 4.58148 -10)
(-1.19674 4.66604 -10)
(-1.17207 4.58069 -10)
(-1.34446 4.67632 -10)
(-1.31308 4.5805 -10)
(-1.21912 4.66858 -10)
(-1.19358 4.58124 -10)
(-1.37722 4.67797 -10)
(-1.34447 4.57974 -10)
(-1.24501 4.67234 -10)
(-1.21836 4.58258 -10)
(-1.41524 4.68103 -10)
(-1.38078 4.57965 -10)
(-1.2742 4.6782 -10)
(-1.24616 4.58519 -10)
(-1.45382 4.68561 -10)
(-1.41746 4.58066 -10)
(-1.30256 4.68584 -10)
(-1.27305 4.58918 -10)
(-1.48887 4.69182 -10)
(-1.45065 4.58323 -10)
(-1.32665 4.69483 -10)
(-1.29576 4.59455 -10)
(-1.52018 4.69997 -10)
(-1.48016 4.58766 -10)
(-1.34606 4.7052 -10)
(-1.31393 4.60135 -10)
(-1.54575 4.71026 -10)
(-1.50445 4.59427 -10)
(-1.3585 4.71694 -10)
(-1.32567 4.60962 -10)
(-1.5667 4.72205 -10)
(-1.5246 4.60252 -10)
(-1.36558 4.7299 -10)
(-1.33249 4.6192 -10)
(-1.58688 4.7342 -10)
(-1.54396 4.61118 -10)
(-1.37161 4.74342 -10)
(-1.33824 4.62939 -10)
(-1.61029 4.74538 -10)
(-1.56614 4.61891 -10)
(-1.38146 4.75694 -10)
(-1.34744 4.63947 -10)
(-1.63531 4.75385 -10)
(-1.58965 4.62438 -10)
(-1.39523 4.76853 -10)
(-1.36027 4.64791 -10)
(-1.65721 4.75907 -10)
(-1.61033 4.62738 -10)
(-1.40905 4.7773 -10)
(-1.37325 4.65409 -10)
(-1.67603 4.76196 -10)
(-1.62826 4.62861 -10)
(-1.42231 4.78387 -10)
(-1.38578 4.65852 -10)
(-1.69218 4.76323 -10)
(-1.6437 4.62867 -10)
(-1.43459 4.7887 -10)
(-1.39743 4.66161 -10)
(-1.70583 4.76351 -10)
(-1.65683 4.62806 -10)
(-1.44561 4.79228 -10)
(-1.40794 4.66375 -10)
(-1.71719 4.76328 -10)
(-1.66787 4.62712 -10)
(-1.45533 4.795 -10)
(-1.41722 4.66529 -10)
(-1.72679 4.76275 -10)
(-1.67715 4.62607 -10)
(-1.46369 4.79702 -10)
(-1.42519 4.66634 -10)
(-1.73465 4.76208 -10)
(-1.68478 4.625 -10)
(-1.47071 4.7985 -10)
(-1.4319 4.66706 -10)
(-1.74097 4.76141 -10)
(-1.69091 4.62404 -10)
(-1.47647 4.79962 -10)
(-1.4374 4.66756 -10)
(-1.7461 4.76079 -10)
(-1.69591 4.62318 -10)
(-1.48117 4.80046 -10)
(-1.4419 4.66791 -10)
(-1.75024 4.76022 -10)
(-1.69993 4.62244 -10)
(-1.48502 4.80108 -10)
(-1.44559 4.66814 -10)
(-1.75351 4.75974 -10)
(-1.70312 4.62182 -10)
(-1.4881 4.80157 -10)
(-1.44855 4.66832 -10)
(-1.75609 4.75936 -10)
(-1.70565 4.62133 -10)
(-1.49055 4.80195 -10)
(-1.45089 4.66846 -10)
(-1.75814 4.75906 -10)
(-1.70765 4.62094 -10)
(-1.49249 4.80226 -10)
(-1.45275 4.66857 -10)
(-1.01463 4.64928 -10)
(-0.998409 4.57817 -10)
(-0.949542 4.6423 -10)
(-0.936022 4.57581 -10)
(-0.926786 4.64068 -10)
(-0.91297 4.57593 -10)
(-0.914774 4.63995 -10)
(-0.900829 4.57614 -10)
(-0.907606 4.63953 -10)
(-0.893611 4.57634 -10)
(-0.902771 4.63924 -10)
(-0.888769 4.57653 -10)
(-0.899083 4.639 -10)
(-0.885105 4.57672 -10)
(-1.01638 4.64936 -10)
(-1.00012 4.57813 -10)
(-0.950924 4.6424 -10)
(-0.937378 4.57579 -10)
(-0.928038 4.64078 -10)
(-0.914191 4.57592 -10)
(-0.91596 4.64005 -10)
(-0.901982 4.57614 -10)
(-0.908758 4.63963 -10)
(-0.894729 4.57635 -10)
(-0.903906 4.63934 -10)
(-0.889871 4.57654 -10)
(-0.900211 4.63911 -10)
(-0.886199 4.57672 -10)
(-1.01859 4.64947 -10)
(-1.00228 4.57808 -10)
(-0.952667 4.64251 -10)
(-0.939087 4.57577 -10)
(-0.929617 4.6409 -10)
(-0.915732 4.57592 -10)
(-0.917455 4.64017 -10)
(-0.903437 4.57615 -10)
(-0.91021 4.63976 -10)
(-0.89614 4.57635 -10)
(-0.905336 4.63948 -10)
(-0.891259 4.57654 -10)
(-0.901633 4.63924 -10)
(-0.887579 4.57673 -10)
(-1.02137 4.6496 -10)
(-1.00501 4.57802 -10)
(-0.954865 4.64266 -10)
(-0.941244 4.57575 -10)
(-0.931608 4.64106 -10)
(-0.917676 4.57591 -10)
(-0.919341 4.64033 -10)
(-0.905272 4.57615 -10)
(-0.912042 4.63993 -10)
(-0.897919 4.57636 -10)
(-0.907141 4.63964 -10)
(-0.893011 4.57655 -10)
(-0.903427 4.63941 -10)
(-0.88932 4.57674 -10)
(-1.02489 4.64976 -10)
(-1.00845 4.57795 -10)
(-0.957637 4.64284 -10)
(-0.943963 4.57572 -10)
(-0.93412 4.64125 -10)
(-0.920127 4.5759 -10)
(-0.92172 4.64054 -10)
(-0.907586 4.57615 -10)
(-0.914352 4.64013 -10)
(-0.900162 4.57637 -10)
(-0.909417 4.63985 -10)
(-0.895219 4.57656 -10)
(-0.905689 4.63962 -10)
(-0.891515 4.57676 -10)
(-1.02932 4.64997 -10)
(-1.01279 4.57785 -10)
(-0.961134 4.64308 -10)
(-0.947393 4.57567 -10)
(-0.937288 4.6415 -10)
(-0.923218 4.57588 -10)
(-0.92472 4.64079 -10)
(-0.910504 4.57615 -10)
(-0.917265 4.64039 -10)
(-0.902992 4.57638 -10)
(-0.912287 4.64012 -10)
(-0.898005 4.57658 -10)
(-0.908542 4.63989 -10)
(-0.894283 4.57678 -10)
(-1.03487 4.65029 -10)
(-1.01821 4.57777 -10)
(-0.965497 4.64343 -10)
(-0.951667 4.57568 -10)
(-0.941242 4.64187 -10)
(-0.92707 4.57592 -10)
(-0.928466 4.64117 -10)
(-0.914142 4.57621 -10)
(-0.920904 4.64078 -10)
(-0.90652 4.57645 -10)
(-0.915874 4.64051 -10)
(-0.90148 4.57666 -10)
(-0.912108 4.64029 -10)
(-0.897737 4.57686 -10)
(-1.04169 4.65083 -10)
(-1.02487 4.57778 -10)
(-0.970859 4.64408 -10)
(-0.956923 4.57584 -10)
(-0.946101 4.64257 -10)
(-0.931809 4.57615 -10)
(-0.933068 4.6419 -10)
(-0.918617 4.57647 -10)
(-0.925375 4.64152 -10)
(-0.910861 4.57673 -10)
(-0.920281 4.64126 -10)
(-0.905755 4.57695 -10)
(-0.916491 4.64105 -10)
(-0.901988 4.57716 -10)
(-1.05014 4.6516 -10)
(-1.03314 4.57786 -10)
(-0.977528 4.64504 -10)
(-0.963468 4.57614 -10)
(-0.95214 4.64361 -10)
(-0.937708 4.57654 -10)
(-0.938786 4.64298 -10)
(-0.924187 4.57692 -10)
(-0.930929 4.64263 -10)
(-0.916263 4.57721 -10)
(-0.925755 4.64239 -10)
(-0.911077 4.57745 -10)
(-0.921934 4.64219 -10)
(-0.90728 4.57767 -10)
(-1.06039 4.65282 -10)
(-1.0431 4.57817 -10)
(-0.985667 4.64655 -10)
(-0.97142 4.57676 -10)
(-0.959532 4.64523 -10)
(-0.944898 4.5773 -10)
(-0.945795 4.64467 -10)
(-0.930988 4.57775 -10)
(-0.937744 4.64436 -10)
(-0.922868 4.57808 -10)
(-0.932478 4.64414 -10)
(-0.917589 4.57835 -10)
(-0.928626 4.64396 -10)
(-0.913762 4.57859 -10)
(-1.07267 4.65459 -10)
(-1.05504 4.57876 -10)
(-0.995471 4.64882 -10)
(-0.980966 4.57785 -10)
(-0.96846 4.64769 -10)
(-0.95355 4.57859 -10)
(-0.954277 4.64722 -10)
(-0.939186 4.57915 -10)
(-0.946002 4.64697 -10)
(-0.930839 4.57955 -10)
(-0.940632 4.6468 -10)
(-0.925456 4.57985 -10)
(-0.936749 4.64665 -10)
(-0.9216 4.58012 -10)
(-1.08759 4.6572 -10)
(-1.0695 4.57981 -10)
(-1.00735 4.65216 -10)
(-0.99252 4.57961 -10)
(-0.979277 4.65131 -10)
(-0.964029 4.58064 -10)
(-0.964557 4.651 -10)
(-0.949119 4.58136 -10)
(-0.956013 4.65084 -10)
(-0.940501 4.58184 -10)
(-0.950522 4.65072 -10)
(-0.934997 4.58221 -10)
(-0.946605 4.65061 -10)
(-0.931109 4.58251 -10)
(-1.10503 4.66117 -10)
(-1.08635 4.5817 -10)
(-1.02141 4.65729 -10)
(-1.00615 4.58251 -10)
(-0.992125 4.65687 -10)
(-0.976441 4.58396 -10)
(-0.976788 4.65679 -10)
(-0.960913 4.5849 -10)
(-0.967941 4.65677 -10)
(-0.951992 4.58551 -10)
(-0.962317 4.65674 -10)
(-0.946359 4.58596 -10)
(-0.958371 4.65669 -10)
(-0.942445 4.58632 -10)
(-1.12596 4.66689 -10)
(-1.10638 4.58477 -10)
(-1.03908 4.66469 -10)
(-1.02306 4.58705 -10)
(-1.00785 4.66494 -10)
(-0.991518 4.58912 -10)
(-0.991533 4.66521 -10)
(-0.975063 4.59038 -10)
(-0.982194 4.66538 -10)
(-0.96568 4.59117 -10)
(-0.976341 4.66547 -10)
(-0.959834 4.59171 -10)
(-0.972319 4.6655 -10)
(-0.955853 4.59213 -10)
(-1.15037 4.67529 -10)
(-1.12946 4.58952 -10)
(-1.06075 4.67527 -10)
(-1.04342 4.59372 -10)
(-1.02669 4.67645 -10)
(-1.00931 4.59665 -10)
(-1.00893 4.67722 -10)
(-0.991558 4.59835 -10)
(-0.998884 4.67768 -10)
(-0.981527 4.59937 -10)
(-0.992694 4.67792 -10)
(-0.975369 4.60003 -10)
(-0.988539 4.67804 -10)
(-0.97126 4.6005 -10)
(-1.17427 4.68562 -10)
(-1.15185 4.59573 -10)
(-1.08258 4.68782 -10)
(-1.06374 4.60184 -10)
(-1.04566 4.69 -10)
(-1.02709 4.60565 -10)
(-1.02648 4.69133 -10)
(-1.00807 4.60782 -10)
(-1.01574 4.69208 -10)
(-0.997414 4.60909 -10)
(-1.00925 4.6925 -10)
(-0.990979 4.60986 -10)
(-1.005 4.69273 -10)
(-0.986779 4.61038 -10)
(-1.19443 4.69682 -10)
(-1.17054 4.60289 -10)
(-1.10186 4.70072 -10)
(-1.08153 4.61041 -10)
(-1.06258 4.70371 -10)
(-1.04282 4.61492 -10)
(-1.04222 4.70547 -10)
(-1.02276 4.61745 -10)
(-1.03093 4.70647 -10)
(-1.01163 4.6189 -10)
(-1.02422 4.70704 -10)
(-1.005 4.61977 -10)
(-1.01994 4.70734 -10)
(-1.00076 4.62032 -10)
(-1.21074 4.70861 -10)
(-1.18544 4.61086 -10)
(-1.11845 4.7134 -10)
(-1.09667 4.61912 -10)
(-1.07749 4.71681 -10)
(-1.05656 4.62399 -10)
(-1.05631 4.71881 -10)
(-1.03582 4.62672 -10)
(-1.04466 4.71995 -10)
(-1.02438 4.62826 -10)
(-1.03783 4.7206 -10)
(-1.01765 4.62917 -10)
(-1.03356 4.72096 -10)
(-1.01343 4.62971 -10)
(-1.22273 4.72089 -10)
(-1.19625 4.61964 -10)
(-1.13148 4.72563 -10)
(-1.10851 4.62785 -10)
(-1.09021 4.72892 -10)
(-1.06821 4.63261 -10)
(-1.06888 4.73086 -10)
(-1.04738 4.63526 -10)
(-1.05717 4.73196 -10)
(-1.03592 4.63676 -10)
(-1.05035 4.7326 -10)
(-1.02921 4.63763 -10)
(-1.04612 4.73296 -10)
(-1.02503 4.63816 -10)
(-1.23137 4.73357 -10)
(-1.20384 4.62913 -10)
(-1.14172 4.7376 -10)
(-1.11764 4.63664 -10)
(-1.10116 4.74034 -10)
(-1.07806 4.64089 -10)
(-1.08018 4.74193 -10)
(-1.05758 4.64323 -10)
(-1.06864 4.74284 -10)
(-1.04628 4.64455 -10)
(-1.06188 4.74335 -10)
(-1.03964 4.64532 -10)
(-1.05767 4.74364 -10)
(-1.03547 4.64577 -10)
(-1.23894 4.74669 -10)
(-1.21028 4.63916 -10)
(-1.15099 4.74973 -10)
(-1.12573 4.64575 -10)
(-1.11121 4.75178 -10)
(-1.08691 4.64938 -10)
(-1.0906 4.75297 -10)
(-1.0668 4.65136 -10)
(-1.07923 4.75363 -10)
(-1.05567 4.65247 -10)
(-1.07255 4.754 -10)
(-1.0491 4.65311 -10)
(-1.06836 4.7542 -10)
(-1.04495 4.65348 -10)
(-1.24704 4.76036 -10)
(-1.21719 4.64967 -10)
(-1.15994 4.76271 -10)
(-1.13343 4.65563 -10)
(-1.12056 4.76434 -10)
(-1.09498 4.65889 -10)
(-1.10017 4.76527 -10)
(-1.07508 4.66064 -10)
(-1.08894 4.76577 -10)
(-1.06408 4.66161 -10)
(-1.08235 4.76602 -10)
(-1.0576 4.66214 -10)
(-1.07823 4.76612 -10)
(-1.05352 4.66243 -10)
(-1.25593 4.77316 -10)
(-1.22499 4.65948 -10)
(-1.16829 4.77559 -10)
(-1.14064 4.66554 -10)
(-1.1287 4.77728 -10)
(-1.10193 4.66885 -10)
(-1.10825 4.77824 -10)
(-1.08193 4.67063 -10)
(-1.09707 4.77875 -10)
(-1.07097 4.67159 -10)
(-1.09059 4.779 -10)
(-1.06459 4.67212 -10)
(-1.0866 4.7791 -10)
(-1.06064 4.6724 -10)
(-1.26503 4.7838 -10)
(-1.23316 4.6675 -10)
(-1.17573 4.7871 -10)
(-1.14714 4.67432 -10)
(-1.13542 4.78922 -10)
(-1.10767 4.678 -10)
(-1.11465 4.79041 -10)
(-1.08732 4.67997 -10)
(-1.10335 4.79104 -10)
(-1.07623 4.68104 -10)
(-1.09687 4.79136 -10)
(-1.06984 4.68162 -10)
(-1.09293 4.7915 -10)
(-1.06595 4.68193 -10)
(-1.27406 4.79263 -10)
(-1.24141 4.67404 -10)
(-1.18244 4.79736 -10)
(-1.15308 4.68208 -10)
(-1.1411 4.80015 -10)
(-1.11254 4.68634 -10)
(-1.11982 4.80168 -10)
(-1.09167 4.6886 -10)
(-1.10829 4.80251 -10)
(-1.08034 4.68983 -10)
(-1.10173 4.80294 -10)
(-1.07388 4.6905 -10)
(-1.09779 4.80314 -10)
(-1.06997 4.69086 -10)
(-1.28259 4.79987 -10)
(-1.24928 4.67931 -10)
(-1.18836 4.8063 -10)
(-1.15837 4.68882 -10)
(-1.14585 4.80987 -10)
(-1.11664 4.69376 -10)
(-1.12399 4.81182 -10)
(-1.09517 4.69639 -10)
(-1.11219 4.81287 -10)
(-1.08356 4.6978 -10)
(-1.10551 4.81343 -10)
(-1.07697 4.69858 -10)
(-1.10153 4.81371 -10)
(-1.07303 4.69901 -10)
(-1.29043 4.80581 -10)
(-1.2566 4.68357 -10)
(-1.19355 4.814 -10)
(-1.16305 4.6946 -10)
(-1.14985 4.8184 -10)
(-1.12011 4.70026 -10)
(-1.12739 4.82077 -10)
(-1.09804 4.70325 -10)
(-1.1153 4.82205 -10)
(-1.08613 4.70486 -10)
(-1.10848 4.82274 -10)
(-1.0794 4.70575 -10)
(-1.10445 4.8231 -10)
(-1.0754 4.70624 -10)
(-1.29747 4.81073 -10)
(-1.26319 4.68704 -10)
(-1.19805 4.82063 -10)
(-1.16714 4.69953 -10)
(-1.15322 4.82581 -10)
(-1.12305 4.70586 -10)
(-1.13019 4.82859 -10)
(-1.1004 4.7092 -10)
(-1.11781 4.83008 -10)
(-1.08821 4.711 -10)
(-1.11086 4.8309 -10)
(-1.08134 4.71199 -10)
(-1.10677 4.83133 -10)
(-1.07728 4.71255 -10)
(-1.30348 4.81469 -10)
(-1.26879 4.68979 -10)
(-1.20183 4.82609 -10)
(-1.17057 4.70354 -10)
(-1.15598 4.83197 -10)
(-1.12546 4.71046 -10)
(-1.13243 4.83511 -10)
(-1.10229 4.71411 -10)
(-1.11981 4.8368 -10)
(-1.08985 4.71607 -10)
(-1.11273 4.83772 -10)
(-1.08285 4.71715 -10)
(-1.10858 4.83822 -10)
(-1.07873 4.71776 -10)
(-1.30855 4.81786 -10)
(-1.27355 4.69197 -10)
(-1.20496 4.83061 -10)
(-1.17343 4.70685 -10)
(-1.15823 4.8371 -10)
(-1.12745 4.7143 -10)
(-1.13424 4.84056 -10)
(-1.10383 4.71821 -10)
(-1.12139 4.84243 -10)
(-1.09115 4.72032 -10)
(-1.1142 4.84344 -10)
(-1.08404 4.72149 -10)
(-1.11 4.844 -10)
(-1.07988 4.72214 -10)
(-1.31276 4.8204 -10)
(-1.27751 4.69372 -10)
(-1.20752 4.8343 -10)
(-1.17578 4.7096 -10)
(-1.16005 4.84133 -10)
(-1.12904 4.71751 -10)
(-1.13568 4.84506 -10)
(-1.10505 4.72166 -10)
(-1.12264 4.84707 -10)
(-1.09218 4.72389 -10)
(-1.11536 4.84817 -10)
(-1.08498 4.72513 -10)
(-1.11111 4.84877 -10)
(-1.08076 4.72583 -10)
(-1.31615 4.82242 -10)
(-1.28069 4.6951 -10)
(-1.20959 4.83726 -10)
(-1.17767 4.71177 -10)
(-1.1615 4.84471 -10)
(-1.13032 4.72006 -10)
(-1.13682 4.84867 -10)
(-1.10601 4.7244 -10)
(-1.12362 4.8508 -10)
(-1.09299 4.72674 -10)
(-1.11626 4.85196 -10)
(-1.08571 4.72803 -10)
(-1.11198 4.8526 -10)
(-1.08146 4.72876 -10)
(-1.31896 4.82402 -10)
(-1.28333 4.69618 -10)
(-1.21127 4.83964 -10)
(-1.17922 4.71351 -10)
(-1.16267 4.84746 -10)
(-1.13136 4.7221 -10)
(-1.13773 4.8516 -10)
(-1.10679 4.7266 -10)
(-1.1244 4.85383 -10)
(-1.09364 4.72902 -10)
(-1.11697 4.85506 -10)
(-1.08629 4.73036 -10)
(-1.11266 4.85573 -10)
(-1.08201 4.73111 -10)
(-1.32124 4.8253 -10)
(-1.28548 4.69704 -10)
(-1.21263 4.84157 -10)
(-1.18047 4.7149 -10)
(-1.16361 4.84969 -10)
(-1.1322 4.72374 -10)
(-1.13846 4.85398 -10)
(-1.10742 4.72837 -10)
(-1.12502 4.8563 -10)
(-1.09416 4.73086 -10)
(-1.11754 4.85756 -10)
(-1.08676 4.73224 -10)
(-1.11321 4.85826 -10)
(-1.08245 4.73302 -10)
(-1.32305 4.82631 -10)
(-1.28719 4.69771 -10)
(-1.21371 4.8431 -10)
(-1.18147 4.71601 -10)
(-1.16436 4.85145 -10)
(-1.13287 4.72505 -10)
(-1.13904 4.85587 -10)
(-1.10792 4.72978 -10)
(-1.12552 4.85825 -10)
(-1.09457 4.73233 -10)
(-1.118 4.85955 -10)
(-1.08713 4.73373 -10)
(-1.11364 4.86027 -10)
(-1.0828 4.73453 -10)
(-1.32448 4.82712 -10)
(-1.28854 4.69825 -10)
(-1.21456 4.84432 -10)
(-1.18226 4.71689 -10)
(-1.16495 4.85285 -10)
(-1.13339 4.72609 -10)
(-1.1395 4.85737 -10)
(-1.10831 4.7309 -10)
(-1.12591 4.8598 -10)
(-1.0949 4.73349 -10)
(-1.11835 4.86113 -10)
(-1.08742 4.73492 -10)
(-1.11398 4.86187 -10)
(-1.08307 4.73573 -10)
(-0.895789 4.63891 -10)
(-0.881811 4.57685 -10)
(-0.892983 4.63904 -10)
(-0.879026 4.57708 -10)
(-0.890605 4.63912 -10)
(-0.876728 4.57726 -10)
(-0.88771 4.63913 -10)
(-0.873975 4.57742 -10)
(-0.882683 4.63909 -10)
(-0.869209 4.57765 -10)
(-0.87062 4.63904 -10)
(-0.857542 4.57823 -10)
(-0.896916 4.63902 -10)
(-0.882904 4.57686 -10)
(-0.894111 4.63915 -10)
(-0.880119 4.57709 -10)
(-0.891733 4.63922 -10)
(-0.877822 4.57727 -10)
(-0.888839 4.63924 -10)
(-0.875069 4.57743 -10)
(-0.883812 4.6392 -10)
(-0.870304 4.57766 -10)
(-0.871754 4.63915 -10)
(-0.858641 4.57824 -10)
(-0.898337 4.63915 -10)
(-0.884282 4.57687 -10)
(-0.895532 4.63928 -10)
(-0.881499 4.5771 -10)
(-0.893155 4.63936 -10)
(-0.879202 4.57728 -10)
(-0.890261 4.63938 -10)
(-0.87645 4.57744 -10)
(-0.885236 4.63934 -10)
(-0.871685 4.57767 -10)
(-0.873184 4.63929 -10)
(-0.860027 4.57825 -10)
(-0.900128 4.63932 -10)
(-0.886021 4.57688 -10)
(-0.897325 4.63945 -10)
(-0.883238 4.57711 -10)
(-0.894949 4.63953 -10)
(-0.880942 4.57729 -10)
(-0.892056 4.63955 -10)
(-0.878191 4.57745 -10)
(-0.887032 4.63951 -10)
(-0.873427 4.57768 -10)
(-0.874988 4.63946 -10)
(-0.861776 4.57826 -10)
(-0.902388 4.63954 -10)
(-0.888213 4.57689 -10)
(-0.899586 4.63967 -10)
(-0.885432 4.57713 -10)
(-0.897211 4.63975 -10)
(-0.883137 4.5773 -10)
(-0.894319 4.63977 -10)
(-0.880386 4.57747 -10)
(-0.889296 4.63973 -10)
(-0.875625 4.5777 -10)
(-0.877263 4.63968 -10)
(-0.863982 4.57828 -10)
(-0.905238 4.6398 -10)
(-0.890978 4.57691 -10)
(-0.902438 4.63994 -10)
(-0.888198 4.57715 -10)
(-0.900064 4.64002 -10)
(-0.885904 4.57733 -10)
(-0.897173 4.64004 -10)
(-0.883155 4.57749 -10)
(-0.892153 4.64001 -10)
(-0.878396 4.57772 -10)
(-0.880132 4.63996 -10)
(-0.866763 4.5783 -10)
(-0.908801 4.64021 -10)
(-0.89443 4.577 -10)
(-0.906002 4.64034 -10)
(-0.891651 4.57724 -10)
(-0.90363 4.64043 -10)
(-0.889359 4.57742 -10)
(-0.900741 4.64046 -10)
(-0.886611 4.57758 -10)
(-0.895723 4.64042 -10)
(-0.881854 4.57782 -10)
(-0.883718 4.64037 -10)
(-0.870234 4.57839 -10)
(-0.91318 4.64097 -10)
(-0.898678 4.5773 -10)
(-0.910383 4.64112 -10)
(-0.895901 4.57755 -10)
(-0.908012 4.64121 -10)
(-0.89361 4.57773 -10)
(-0.905125 4.64124 -10)
(-0.890864 4.5779 -10)
(-0.900109 4.64122 -10)
(-0.886109 4.57814 -10)
(-0.888122 4.64118 -10)
(-0.874503 4.57873 -10)
(-0.91862 4.64213 -10)
(-0.903966 4.57782 -10)
(-0.915825 4.64228 -10)
(-0.901191 4.57807 -10)
(-0.913456 4.64238 -10)
(-0.898901 4.57826 -10)
(-0.91057 4.64242 -10)
(-0.896157 4.57843 -10)
(-0.905556 4.64241 -10)
(-0.891405 4.57869 -10)
(-0.893589 4.6424 -10)
(-0.879816 4.57929 -10)
(-0.92531 4.64391 -10)
(-0.910447 4.57875 -10)
(-0.922517 4.64408 -10)
(-0.907674 4.57901 -10)
(-0.920149 4.64419 -10)
(-0.905385 4.57921 -10)
(-0.917264 4.64425 -10)
(-0.902642 4.57939 -10)
(-0.912252 4.64426 -10)
(-0.897893 4.57966 -10)
(-0.900308 4.64428 -10)
(-0.886322 4.58029 -10)
(-0.933435 4.64662 -10)
(-0.918288 4.5803 -10)
(-0.930644 4.64682 -10)
(-0.915516 4.58058 -10)
(-0.928276 4.64695 -10)
(-0.913228 4.58079 -10)
(-0.925391 4.64703 -10)
(-0.910487 4.58099 -10)
(-0.920378 4.64707 -10)
(-0.905739 4.58129 -10)
(-0.908457 4.64716 -10)
(-0.894186 4.58196 -10)
(-0.943297 4.65063 -10)
(-0.927804 4.58272 -10)
(-0.940505 4.65086 -10)
(-0.925033 4.58303 -10)
(-0.938137 4.65103 -10)
(-0.922746 4.58326 -10)
(-0.93525 4.65113 -10)
(-0.920004 4.58349 -10)
(-0.930234 4.65123 -10)
(-0.915257 4.58382 -10)
(-0.918334 4.65141 -10)
(-0.903722 4.58457 -10)
(-0.955079 4.65676 -10)
(-0.939159 4.58657 -10)
(-0.952285 4.65705 -10)
(-0.936387 4.58692 -10)
(-0.949914 4.65726 -10)
(-0.9341 4.58718 -10)
(-0.947023 4.65741 -10)
(-0.931357 4.58744 -10)
(-0.941998 4.65758 -10)
(-0.926607 4.58783 -10)
(-0.930115 4.65792 -10)
(-0.915091 4.58869 -10)
(-0.968988 4.66562 -10)
(-0.952533 4.59242 -10)
(-0.966203 4.66599 -10)
(-0.949768 4.59283 -10)
(-0.963829 4.66627 -10)
(-0.947479 4.59315 -10)
(-0.960921 4.66649 -10)
(-0.944726 4.59346 -10)
(-0.955858 4.66678 -10)
(-0.939952 4.59393 -10)
(-0.943976 4.66732 -10)
(-0.928443 4.59494 -10)
(-0.985187 4.67823 -10)
(-0.967918 4.60085 -10)
(-0.982409 4.67872 -10)
(-0.965159 4.60135 -10)
(-0.980017 4.67909 -10)
(-0.962859 4.60173 -10)
(-0.977069 4.67941 -10)
(-0.960079 4.60212 -10)
(-0.971926 4.67984 -10)
(-0.955251 4.60269 -10)
(-0.960047 4.68065 -10)
(-0.943758 4.6039 -10)
(-1.00166 4.69302 -10)
(-0.983446 4.6108 -10)
(-0.99888 4.69362 -10)
(-0.980687 4.6114 -10)
(-0.996461 4.69408 -10)
(-0.97837 4.61186 -10)
(-0.993459 4.6945 -10)
(-0.975556 4.61231 -10)
(-0.988219 4.69509 -10)
(-0.970663 4.613 -10)
(-0.976349 4.69618 -10)
(-0.959195 4.61439 -10)
(-1.01663 4.70772 -10)
(-0.997457 4.62079 -10)
(-1.01384 4.70841 -10)
(-0.9947 4.62147 -10)
(-1.01139 4.70895 -10)
(-0.992367 4.62199 -10)
(-1.00834 4.70945 -10)
(-0.98952 4.6225 -10)
(-1.003 4.71016 -10)
(-0.984566 4.62327 -10)
(-0.991132 4.71145 -10)
(-0.973128 4.62478 -10)
(-1.03028 4.72137 -10)
(-1.01016 4.63022 -10)
(-1.02749 4.72213 -10)
(-1.00741 4.63095 -10)
(-1.02502 4.72271 -10)
(-1.00507 4.63151 -10)
(-1.02191 4.72325 -10)
(-1.00219 4.63206 -10)
(-1.01647 4.72402 -10)
(-0.997187 4.63286 -10)
(-1.00461 4.72538 -10)
(-0.985792 4.63439 -10)
(-1.04284 4.73334 -10)
(-1.02175 4.63864 -10)
(-1.04005 4.73412 -10)
(-1.01901 4.63941 -10)
(-1.03755 4.73472 -10)
(-1.01666 4.64 -10)
(-1.03441 4.73526 -10)
(-1.01379 4.64055 -10)
(-1.0289 4.736 -10)
(-1.00877 4.64133 -10)
(-1.01705 4.73728 -10)
(-0.997423 4.64272 -10)
(-1.05439 4.74396 -10)
(-1.0322 4.6462 -10)
(-1.0516 4.74475 -10)
(-1.02947 4.64703 -10)
(-1.04909 4.74534 -10)
(-1.02715 4.64764 -10)
(-1.04593 4.74585 -10)
(-1.02429 4.64818 -10)
(-1.04037 4.74651 -10)
(-1.0193 4.64889 -10)
(-1.0285 4.74755 -10)
(-1.00796 4.64996 -10)
(-1.06507 4.75445 -10)
(-1.04167 4.65386 -10)
(-1.06229 4.75524 -10)
(-1.03897 4.65473 -10)
(-1.05977 4.75581 -10)
(-1.03667 4.65536 -10)
(-1.05658 4.75628 -10)
(-1.03382 4.65587 -10)
(-1.05097 4.75683 -10)
(-1.02885 4.65648 -10)
(-1.03907 4.75756 -10)
(-1.01751 4.65719 -10)
(-1.07502 4.76637 -10)
(-1.05032 4.6628 -10)
(-1.07227 4.76716 -10)
(-1.04766 4.66372 -10)
(-1.06974 4.76774 -10)
(-1.04537 4.66437 -10)
(-1.0665 4.76818 -10)
(-1.04252 4.66487 -10)
(-1.06078 4.76864 -10)
(-1.0375 4.66542 -10)
(-1.04881 4.76908 -10)
(-1.02613 4.6658 -10)
(-1.08346 4.7793 -10)
(-1.05752 4.67273 -10)
(-1.08071 4.7801 -10)
(-1.05488 4.67368 -10)
(-1.07815 4.78069 -10)
(-1.05257 4.67436 -10)
(-1.07482 4.78112 -10)
(-1.04967 4.67487 -10)
(-1.06895 4.78156 -10)
(-1.04454 4.67539 -10)
(-1.05692 4.78185 -10)
(-1.03314 4.67562 -10)
(-1.08982 4.7917 -10)
(-1.06286 4.68226 -10)
(-1.08708 4.79253 -10)
(-1.06024 4.68325 -10)
(-1.08448 4.79314 -10)
(-1.05791 4.68397 -10)
(-1.08107 4.7936 -10)
(-1.05495 4.6845 -10)
(-1.07506 4.79407 -10)
(-1.04972 4.68505 -10)
(-1.06295 4.79434 -10)
(-1.03827 4.68523 -10)
(-1.09469 4.80338 -10)
(-1.06689 4.69121 -10)
(-1.09194 4.80426 -10)
(-1.06427 4.69227 -10)
(-1.08931 4.80492 -10)
(-1.06192 4.69303 -10)
(-1.08584 4.80542 -10)
(-1.05891 4.6936 -10)
(-1.0797 4.80596 -10)
(-1.05359 4.69421 -10)
(-1.06749 4.80632 -10)
(-1.04206 4.69443 -10)
(-1.09842 4.81399 -10)
(-1.06994 4.6994 -10)
(-1.09566 4.81494 -10)
(-1.06732 4.70052 -10)
(-1.093 4.81565 -10)
(-1.06494 4.70133 -10)
(-1.08947 4.81621 -10)
(-1.06188 4.70195 -10)
(-1.08322 4.81685 -10)
(-1.05648 4.70262 -10)
(-1.07092 4.81735 -10)
(-1.04487 4.70293 -10)
(-1.10133 4.82343 -10)
(-1.0723 4.70668 -10)
(-1.09856 4.82444 -10)
(-1.06967 4.70786 -10)
(-1.09587 4.82521 -10)
(-1.06727 4.70872 -10)
(-1.09229 4.82584 -10)
(-1.06417 4.70939 -10)
(-1.08595 4.82657 -10)
(-1.05869 4.71014 -10)
(-1.07355 4.82723 -10)
(-1.047 4.71055 -10)
(-1.10363 4.83172 -10)
(-1.07416 4.71302 -10)
(-1.10086 4.83279 -10)
(-1.07152 4.71427 -10)
(-1.09814 4.83362 -10)
(-1.0691 4.71518 -10)
(-1.09452 4.83432 -10)
(-1.06597 4.71591 -10)
(-1.0881 4.83517 -10)
(-1.06043 4.71674 -10)
(-1.07562 4.83602 -10)
(-1.04866 4.71727 -10)
(-1.10542 4.83866 -10)
(-1.07559 4.71827 -10)
(-1.10264 4.83979 -10)
(-1.07295 4.71957 -10)
(-1.0999 4.84067 -10)
(-1.07051 4.72053 -10)
(-1.09624 4.84143 -10)
(-1.06735 4.7213 -10)
(-1.08976 4.84239 -10)
(-1.06175 4.7222 -10)
(-1.07721 4.8434 -10)
(-1.04992 4.72284 -10)
(-1.10682 4.84448 -10)
(-1.07671 4.72269 -10)
(-1.10404 4.84567 -10)
(-1.07406 4.72403 -10)
(-1.10128 4.84659 -10)
(-1.07161 4.72503 -10)
(-1.09759 4.84741 -10)
(-1.06843 4.72584 -10)
(-1.09105 4.84846 -10)
(-1.06278 4.7268 -10)
(-1.07844 4.84962 -10)
(-1.05089 4.72754 -10)
(-1.10792 4.84929 -10)
(-1.07758 4.7264 -10)
(-1.10512 4.85052 -10)
(-1.07493 4.72778 -10)
(-1.10235 4.85148 -10)
(-1.07247 4.72881 -10)
(-1.09864 4.85235 -10)
(-1.06926 4.72966 -10)
(-1.09205 4.85348 -10)
(-1.06358 4.73068 -10)
(-1.07939 4.85476 -10)
(-1.05163 4.7315 -10)
(-1.10877 4.85315 -10)
(-1.07826 4.72935 -10)
(-1.10597 4.85441 -10)
(-1.0756 4.73077 -10)
(-1.10319 4.85541 -10)
(-1.07313 4.73182 -10)
(-1.09946 4.85632 -10)
(-1.06991 4.7327 -10)
(-1.09283 4.8575 -10)
(-1.06419 4.73376 -10)
(-1.08013 4.85889 -10)
(-1.05221 4.73466 -10)
(-1.10944 4.8563 -10)
(-1.0788 4.73173 -10)
(-1.10664 4.85759 -10)
(-1.07613 4.73317 -10)
(-1.10385 4.85862 -10)
(-1.07365 4.73425 -10)
(-1.1001 4.85955 -10)
(-1.07042 4.73515 -10)
(-1.09344 4.86079 -10)
(-1.06468 4.73624 -10)
(-1.0807 4.86226 -10)
(-1.05266 4.73719 -10)
(-1.10998 4.85885 -10)
(-1.07923 4.73365 -10)
(-1.10717 4.86017 -10)
(-1.07656 4.73511 -10)
(-1.10437 4.86122 -10)
(-1.07407 4.73621 -10)
(-1.10061 4.86218 -10)
(-1.07083 4.73713 -10)
(-1.09393 4.86346 -10)
(-1.06507 4.73825 -10)
(-1.08116 4.86501 -10)
(-1.05302 4.73925 -10)
(-1.1104 4.86088 -10)
(-1.07957 4.73517 -10)
(-1.10759 4.86222 -10)
(-1.0769 4.73665 -10)
(-1.10479 4.86328 -10)
(-1.07441 4.73776 -10)
(-1.10101 4.86426 -10)
(-1.07115 4.7387 -10)
(-1.09431 4.86558 -10)
(-1.06538 4.73984 -10)
(-1.08153 4.86718 -10)
(-1.05331 4.74088 -10)
(-1.11074 4.86248 -10)
(-1.07984 4.73638 -10)
(-1.10793 4.86384 -10)
(-1.07717 4.73787 -10)
(-1.10512 4.86492 -10)
(-1.07467 4.73899 -10)
(-1.10134 4.86592 -10)
(-1.07141 4.73994 -10)
(-1.09462 4.86726 -10)
(-1.06562 4.74111 -10)
(-1.08181 4.8689 -10)
(-1.05354 4.74217 -10)
(-0.853239 4.63943 -10)
(-0.840588 4.57936 -10)
(-0.84142 4.63995 -10)
(-0.82909 4.58029 -10)
(-0.836654 4.64025 -10)
(-0.824499 4.58071 -10)
(-0.833887 4.64042 -10)
(-0.821834 4.58095 -10)
(-0.83156 4.64052 -10)
(-0.819575 4.58113 -10)
(-0.828731 4.64063 -10)
(-0.816783 4.58136 -10)
(-0.854378 4.63954 -10)
(-0.841689 4.57937 -10)
(-0.842557 4.64006 -10)
(-0.830188 4.5803 -10)
(-0.837788 4.64037 -10)
(-0.825593 4.58072 -10)
(-0.83502 4.64053 -10)
(-0.822927 4.58096 -10)
(-0.832691 4.64063 -10)
(-0.820667 4.58115 -10)
(-0.829861 4.64074 -10)
(-0.817873 4.58137 -10)
(-0.855814 4.63968 -10)
(-0.843078 4.57938 -10)
(-0.843991 4.6402 -10)
(-0.831573 4.58031 -10)
(-0.839219 4.64051 -10)
(-0.826974 4.58074 -10)
(-0.836449 4.64067 -10)
(-0.824306 4.58098 -10)
(-0.834119 4.64077 -10)
(-0.822044 4.58116 -10)
(-0.831287 4.64089 -10)
(-0.819249 4.58138 -10)
(-0.857626 4.63985 -10)
(-0.84483 4.5794 -10)
(-0.8458 4.64038 -10)
(-0.833319 4.58033 -10)
(-0.841023 4.64069 -10)
(-0.828716 4.58075 -10)
(-0.83825 4.64085 -10)
(-0.826045 4.58099 -10)
(-0.835918 4.64095 -10)
(-0.823781 4.58118 -10)
(-0.833085 4.64106 -10)
(-0.820983 4.5814 -10)
(-0.85991 4.64007 -10)
(-0.84704 4.57941 -10)
(-0.848081 4.64061 -10)
(-0.835522 4.58035 -10)
(-0.843299 4.64091 -10)
(-0.830913 4.58078 -10)
(-0.840523 4.64108 -10)
(-0.828238 4.58102 -10)
(-0.838189 4.64118 -10)
(-0.825971 4.5812 -10)
(-0.835353 4.64129 -10)
(-0.823171 4.58142 -10)
(-0.862791 4.64035 -10)
(-0.849827 4.57944 -10)
(-0.850958 4.64089 -10)
(-0.838299 4.58038 -10)
(-0.846169 4.6412 -10)
(-0.833683 4.5808 -10)
(-0.843389 4.64136 -10)
(-0.831004 4.58105 -10)
(-0.841052 4.64146 -10)
(-0.828734 4.58123 -10)
(-0.838213 4.64158 -10)
(-0.82593 4.58145 -10)
(-0.866393 4.64077 -10)
(-0.853305 4.57954 -10)
(-0.854557 4.64132 -10)
(-0.841769 4.58048 -10)
(-0.849759 4.64163 -10)
(-0.837144 4.58091 -10)
(-0.846975 4.6418 -10)
(-0.83446 4.58115 -10)
(-0.844634 4.6419 -10)
(-0.832186 4.58134 -10)
(-0.841792 4.64201 -10)
(-0.829379 4.58156 -10)
(-0.87082 4.6416 -10)
(-0.857587 4.57988 -10)
(-0.858984 4.64217 -10)
(-0.846045 4.58084 -10)
(-0.854178 4.64248 -10)
(-0.841412 4.58128 -10)
(-0.851389 4.64265 -10)
(-0.838723 4.58152 -10)
(-0.849044 4.64275 -10)
(-0.836445 4.58171 -10)
(-0.846199 4.64286 -10)
(-0.833635 4.58193 -10)
(-0.876317 4.64285 -10)
(-0.862918 4.58047 -10)
(-0.864486 4.64345 -10)
(-0.851374 4.58146 -10)
(-0.859671 4.64378 -10)
(-0.846731 4.5819 -10)
(-0.856876 4.64395 -10)
(-0.844036 4.58215 -10)
(-0.854528 4.64406 -10)
(-0.841755 4.58234 -10)
(-0.85168 4.64417 -10)
(-0.838941 4.58256 -10)
(-0.883075 4.6448 -10)
(-0.869451 4.58152 -10)
(-0.871255 4.64544 -10)
(-0.85791 4.58254 -10)
(-0.866432 4.64578 -10)
(-0.853259 4.58299 -10)
(-0.863632 4.64596 -10)
(-0.850559 4.58325 -10)
(-0.86128 4.64608 -10)
(-0.848274 4.58344 -10)
(-0.85843 4.6462 -10)
(-0.845458 4.58368 -10)
(-0.891275 4.64777 -10)
(-0.877353 4.58327 -10)
(-0.879482 4.64849 -10)
(-0.865831 4.58435 -10)
(-0.874651 4.64886 -10)
(-0.861174 4.58482 -10)
(-0.871847 4.64905 -10)
(-0.858471 4.58509 -10)
(-0.869493 4.64917 -10)
(-0.856184 4.58529 -10)
(-0.866642 4.64931 -10)
(-0.853368 4.58553 -10)
(-0.901221 4.65217 -10)
(-0.886944 4.58599 -10)
(-0.889471 4.653 -10)
(-0.875457 4.58715 -10)
(-0.884636 4.65341 -10)
(-0.870798 4.58766 -10)
(-0.88183 4.65363 -10)
(-0.868094 4.58794 -10)
(-0.879474 4.65377 -10)
(-0.865807 4.58816 -10)
(-0.876626 4.65392 -10)
(-0.862994 4.58841 -10)
(-0.913093 4.65891 -10)
(-0.898389 4.59029 -10)
(-0.901415 4.65991 -10)
(-0.88697 4.59158 -10)
(-0.896581 4.66038 -10)
(-0.882316 4.59213 -10)
(-0.893775 4.66063 -10)
(-0.879616 4.59244 -10)
(-0.891421 4.6608 -10)
(-0.877332 4.59267 -10)
(-0.888579 4.66097 -10)
(-0.874528 4.59295 -10)
(-0.927103 4.66864 -10)
(-0.911875 4.59678 -10)
(-0.915544 4.6699 -10)
(-0.900568 4.59826 -10)
(-0.910715 4.67047 -10)
(-0.895932 4.59888 -10)
(-0.907911 4.67077 -10)
(-0.893241 4.59923 -10)
(-0.905559 4.67097 -10)
(-0.890967 4.59949 -10)
(-0.902725 4.67118 -10)
(-0.888176 4.59979 -10)
(-0.943385 4.68241 -10)
(-0.927384 4.60605 -10)
(-0.931984 4.68402 -10)
(-0.916236 4.60779 -10)
(-0.927158 4.68473 -10)