/*--------------------------------*- C++ -*----------------------------------*\
| =========                 |                                                 |
| \\      /  F ield         | OpenFOAM: The Open Source CFD Toolbox           |
|  \\    /   O peration     | Version:  2206                                  |
|   \\  /    A nd           | Website:  www.openfoam.com                      |
|    \\/     M anipulation  |                                                 |
\*---------------------------------------------------------------------------*/
FoamFile
{
    version     2.0;
    format      ascii;
    arch        "LSB;label=32;scalar=64";
    class       volScalarField;
    location    "20";
    object      epsilon;
}
// * * * * * * * * * * * * * * * * * * * * * * * * * * * * * * * * * * * * * //

dimensions      [0 2 -3 0 0 0 0];

internalField   nonuniform List<scalar> 
184166
(
2.51661
2.42015
2.42853
2.5051
2.51647
2.44928
2.3178
2.44325
2.51856
2.52626
2.48132
2.44034
2.43877
2.45925
2.52563
2.51482
2.4968
2.45208
2.41245
2.53224
2.40033
2.43
2.44134
2.50541
2.47298
2.52818
2.50871
2.46794
2.52023
2.43697
2.50728
2.30233
2.56365
2.5101
2.48444
2.44115
2.43656
2.47871
2.50603
2.3738
2.48357
2.44081
2.5236
2.48112
2.48323
2.46823
2.36054
2.50568
2.45955
2.52764
2.36772
2.30979
2.38675
2.46114
2.46967
2.44917
2.4677
2.48035
2.54518
2.51389
2.43798
2.50693
2.51395
2.47396
2.5774
2.24427
2.37409
2.53254
2.3116
2.54289
2.42605
2.52905
2.53252
2.51316
2.41952
2.46194
2.41808
2.50746
2.39665
2.32261
2.34158
2.39841
2.53645
2.46977
2.51276
2.49179
2.43327
2.40238
2.45879
2.39688
2.27307
2.52014
2.50754
2.55904
2.45849
2.41404
2.48243
2.31014
2.39915
2.49863
2.43819
2.43931
2.50931
2.52153
2.3029
2.42534
2.49367
2.51299
2.30277
2.43892
2.37275
2.52857
2.25443
2.40256
2.53005
2.48467
2.50363
2.40716
2.30899
2.38875
2.50925
2.4392
2.46606
2.45903
2.45793
2.47104
2.46825
2.46321
2.51666
2.51243
2.43436
2.45984
2.46719
2.45553
2.38481
2.44049
2.39698
2.47277
2.46091
2.37191
2.42141
2.32985
2.33302
2.43983
2.45757
2.53669
2.42576
2.52682
2.47104
2.5886
2.54433
2.56159
2.50265
2.49203
2.52023
2.54346
2.50679
2.51115
2.51289
2.38594
2.28607
2.34414
2.45145
2.39367
2.40001
2.47127
2.52494
2.52283
2.28851
2.53014
2.47302
2.48083
2.44148
2.52797
2.45951
2.32958
2.3702
2.51822
2.51361
2.47194
2.28628
2.45243
2.4626
2.53107
2.53474
2.42763
2.53408
2.53488
2.31123
2.4636
2.45249
2.53972
2.44545
2.30423
2.4755
2.52723
2.52518
2.49956
2.47536
2.5268
2.47811
2.52257
2.29325
2.44503
2.35742
2.48733
2.43982
2.43659
2.48002
2.44284
2.53595
2.45434
2.43939
2.49008
2.39397
2.42438
2.49883
2.45441
2.32561
2.32482
2.39751
2.43966
2.44513
2.45266
2.34547
2.43761
2.39306
2.47348
2.46765
2.47796
2.56789
2.38703
2.41755
2.45495
2.50287
2.44649
2.55904
2.51914
2.4548
2.30772
2.2554
2.5178
2.46145
2.51403
2.39324
2.50822
2.52942
2.43937
2.54373
2.55266
2.48363
2.56619
2.53585
2.43673
2.47731
2.52466
2.51901
2.53147
2.4683
2.44717
2.46377
2.38509
2.47529
2.46568
2.52751
2.42574
2.51222
2.37462
2.44592
2.48833
2.52174
2.34807
2.46375
2.53502
2.4393
2.44992
2.26241
2.51953
2.41348
2.51059
2.4347
2.59573
2.50927
2.46685
2.37898
2.43777
2.48474
2.55137
2.43495
2.4602
2.51539
2.51545
2.5221
2.48908
2.51714
2.50332
2.45117
2.52536
2.49383
2.55647
2.46002
2.44583
2.3148
2.53249
2.53953
2.45388
2.45061
2.45652
2.34113
2.30072
2.46431
2.55422
2.52298
2.53593
2.53637
2.51844
2.43222
2.49328
2.45144
2.49803
2.40848
2.41188
2.53205
2.50409
2.45762
2.31139
2.45028
2.43425
2.43508
2.46038
2.48083
2.3745
2.37666
2.51664
2.32432
2.46557
2.44826
2.44207
2.53307
2.52015
2.44583
2.53207
2.57414
2.5454
2.47484
2.54799
2.36501
2.30197
2.40001
2.36231
2.34623
2.46869
2.54102
2.37601
2.39709
2.53217
2.5141
2.45383
2.52903
2.5251
2.41098
2.275
2.51949
2.40098
2.50078
2.50894
2.29604
2.38186
2.38686
2.25462
2.27599
2.54452
2.56395
2.53154
2.5375
2.5243
2.46013
2.53068
2.44019
2.50808
2.51396
2.51613
2.52447
2.5224
2.47926
2.51091
2.52163
2.41473
2.40016
2.4077
2.46553
2.46208
2.47615
2.28761
2.44515
2.29668
2.53597
2.45819
2.44016
2.45549
2.54572
2.44992
2.53409
2.4699
2.38701
2.48501
2.52526
2.52964
2.52158
2.41349
2.44536
2.42119
2.41577
2.4105
2.41696
2.41178
2.47299
2.3748
2.37019
2.34672
2.55245
2.45863
2.45361
2.46539
2.53413
2.29448
2.30375
2.31
2.43245
2.4278
2.43047
2.31638
2.54903
2.52491
2.53816
2.53587
2.52079
2.5326
2.47808
2.47866
2.45795
2.46018
2.46446
2.46148
2.46556
2.46326
2.48758
2.493
2.52628
2.53098
2.52538
2.52081
2.52124
2.52703
2.51873
2.46524
2.45735
2.45812
2.45884
2.49952
2.45817
2.31609
2.28911
2.28883
2.28249
2.33246
2.30137
2.33347
2.4622
2.46444
2.46763
2.47221
2.47807
2.47442
2.44793
2.44114
2.44484
2.46991
2.51671
2.51818
2.51381
2.5197
2.27972
2.24421
2.44038
2.44051
2.43997
2.4381
2.43842
2.43816
2.49064
2.44975
2.4483
2.45044
2.44648
2.51255
2.47586
2.49358
2.49891
2.50433
2.47987
2.48167
2.47193
2.462
2.46512
2.46346
2.47062
2.46308
2.38944
2.49456
2.49862
2.24566
2.28855
2.25286
2.47046
2.50378
2.51935
2.53341
2.52031
2.52857
2.53893
2.53655
2.55238
2.45905
2.46239
2.46377
2.46774
2.4959
2.4933
2.53979
2.51641
2.58059
2.55418
2.57885
2.55317
2.54835
2.5448
2.50893
2.52281
2.5471
2.53609
2.51415
2.52704
2.46426
2.46197
2.47126
2.46498
2.33363
2.43924
2.42877
2.41707
2.43722
2.42812
2.43371
2.43746
2.41897
2.41964
2.41702
2.39613
2.51634
2.51014
2.51084
2.5046
2.50507
2.49898
2.48812
2.49597
2.4575
2.45351
2.50943
2.51078
2.50929
2.51323
2.50425
2.5914
2.32497
2.37297
2.3001
2.29694
2.30091
2.30385
2.51288
2.48862
2.54258
2.52015
2.53772
2.52823
2.54029
2.54833
2.4904
2.48373
2.51673
2.51496
2.51491
2.25726
2.44795
2.44168
2.44125
2.50769
2.50733
2.50229
2.50742
2.51125
2.51831
2.51277
2.51186
2.47386
2.47174
2.47684
2.43896
2.43051
2.44655
2.42919
2.53074
2.54661
2.53869
2.54476
2.55539
2.53406
2.54313
2.54733
2.44973
2.45651
2.45371
2.45452
2.53253
2.53287
2.46094
2.45078
2.44952
2.449
2.4577
2.46511
2.50938
2.54858
2.45597
2.45387
2.47561
2.48984
2.47358
2.51088
2.45661
2.53641
2.55439
2.5364
2.53094
2.53548
2.54665
2.54371
2.53456
2.34293
2.36913
2.45526
2.46464
2.47083
2.46252
2.44745
2.52371
2.50846
2.52005
2.51596
2.51015
2.51284
2.32106
2.54034
2.52927
2.55151
2.52775
2.44217
2.48092
2.48639
2.47568
2.58011
2.5523
2.57868
2.32898
2.31275
2.30395
2.33307
2.33863
2.30694
2.50865
2.38401
2.40679
2.52248
2.50296
2.50856
2.4441
2.44159
2.44374
2.44169
2.44151
2.44255
2.52977
2.55097
2.52934
2.52327
2.55127
2.57107
2.43411
2.43234
2.49657
2.44495
2.42854
2.42731
2.3742
2.41809
2.47372
2.48054
2.5117
2.50798
2.5072
2.43922
2.43639
2.43854
2.43692
2.40365
2.44188
2.53732
2.53915
2.54173
2.44516
2.46035
2.44816
2.44491
2.44989
2.53143
2.43613
2.43728
2.49642
2.51436
2.51796
2.51629
2.466
2.4716
2.43398
2.43671
2.4364
2.48547
2.45814
2.49141
2.50867
2.44104
2.45113
2.29969
2.29094
2.28875
2.51301
2.40207
2.43212
2.38032
2.49585
2.43611
2.52493
2.52024
2.45374
2.46065
2.4547
2.45936
2.45143
2.43806
2.46613
2.43976
2.43972
2.43941
2.43981
2.43942
2.43916
2.43879
2.43619
2.43578
2.43409
2.5102
2.3994
2.44021
2.43917
2.43921
2.51843
2.51044
2.51606
2.5173
2.52639
2.53042
2.52138
2.54225
2.44906
2.44988
2.44041
2.38232
2.38107
2.2959
2.29725
2.30642
2.30282
2.43813
2.39483
2.40038
2.40965
2.42168
2.42801
2.45468
2.45532
2.52933
2.5253
2.52127
2.53744
2.45307
2.4607
2.47529
2.4646
2.43865
2.43825
2.4386
2.43758
2.28331
2.29585
2.51295
2.51305
2.30081
2.30742
2.29226
2.3038
2.48381
2.36076
2.38435
2.36828
2.36813
2.43513
2.43879
2.43808
2.4385
2.49942
2.46592
2.4745
2.46267
2.45127
2.45718
2.46
2.4618
2.43398
2.42924
2.44318
2.42903
2.48078
2.43104
2.47427
2.49627
2.50621
2.57414
2.46748
2.46251
2.44902
2.44224
2.43997
2.45383
2.24998
2.21938
2.54332
2.49176
2.50394
2.51576
2.4902
2.52024
2.22043
2.20862
2.49224
2.492
2.5171
2.51235
2.50336
2.37825
2.48128
2.40987
2.46158
2.30102
2.30975
2.51098
2.51535
2.5179
2.51291
2.51487
2.52048
2.31546
2.34394
2.38243
2.3734
2.4757
2.5339
2.46621
2.46591
2.32971
2.35338
2.51776
2.50899
2.52969
2.52845
2.45895
2.45347
2.45414
2.4578
2.53586
2.52567
2.52989
2.39505
2.4503
2.4086
2.44782
2.44894
2.45297
2.45152
2.48548
2.48409
2.48661
2.51134
2.53429
2.54426
2.5281
2.52766
2.52499
2.51564
2.48147
2.47195
2.48746
2.53667
2.55784
2.45298
2.43064
2.41591
2.42302
2.44177
2.43963
2.43981
2.43924
2.43805
2.43902
2.44359
2.46078
2.45367
2.45266
2.45379
2.45919
2.51055
2.54885
2.49588
2.48475
2.47313
2.43225
2.52053
2.51831
2.52213
2.52683
2.39148
2.38101
2.38305
2.38419
2.38079
2.45851
2.46127
2.46271
2.51681
2.52237
2.48405
2.50399
2.5449
2.53725
2.48949
2.5009
2.48961
2.48653
2.49313
2.4428
2.44442
2.42402
2.45065
2.44791
2.45087
2.45116
2.453
2.54142
2.53497
2.54086
2.53317
2.51264
2.5236
2.5329
2.51759
2.58278
2.47846
2.47576
2.46963
2.43592
2.43572
2.44015
2.43811
2.42922
2.46816
2.47972
2.48036
2.47664
2.40596
2.41243
2.40534
2.34975
2.51891
2.51633
2.47284
2.4794
2.50602
2.51665
2.50985
2.50068
2.46651
2.46491
2.46782
2.46909
2.31096
2.28982
2.27247
2.24127
2.52187
2.51768
2.52857
2.52088
2.50633
2.50652
2.50644
2.5502
2.54219
2.54938
2.52502
2.53754
2.56033
2.53392
2.47768
2.50927
2.44638
2.44281
2.44579
2.44601
2.44434
2.54126
2.50797
2.50407
2.47677
2.49807
2.42341
2.42543
2.49919
2.44656
2.49977
2.5069
2.46862
2.4676
2.51969
2.46443
2.46529
2.55219
2.51789
2.52571
2.52026
2.50493
2.31299
2.29936
2.28943
2.4219
2.4224
2.51854
2.55257
2.51007
2.51087
2.45029
2.44617
2.37631
2.31761
2.504
2.44531
2.44742
2.52282
2.51622
2.46264
2.45878
2.45597
2.30426
2.30906
2.30415
2.57531
2.58081
2.54984
2.54869
2.26967
2.24989
2.44118
2.43393
2.42075
2.37859
2.3675
2.55098
2.53335
2.51789
2.52318
2.52128
2.29695
2.30694
2.29954
2.27878
2.28813
2.43306
2.46378
2.46864
2.46148
2.4451
2.45151
2.5215
2.45391
2.45502
2.46101
2.45589
2.53204
2.52298
2.53517
2.53155
2.52691
2.42919
2.4332
2.43028
2.42859
2.4773
2.46775
2.5393
2.54408
2.53615
2.54454
2.50421
2.51255
2.50106
2.44971
2.45252
2.44529
2.43214
2.35805
2.36952
2.41116
2.34362
2.42802
2.36385
2.35299
2.38117
2.48065
2.48783
2.53587
2.44763
2.45654
2.44704
2.45003
2.44875
2.45142
2.46126
2.30792
2.2873
2.30757
2.31313
2.48201
2.44819
2.39584
2.32181
2.32632
2.21261
2.21439
2.44332
2.44485
2.44453
2.44231
2.44386
2.5026
2.3875
2.36385
2.30803
2.30212
2.30055
2.29158
2.29261
2.50111
2.46413
2.44715
2.44842
2.45763
2.44749
2.49771
2.52578
2.44974
2.44991
2.44922
2.32369
2.33789
2.44134
2.4432
2.4126
2.41111
2.40735
2.51283
2.51866
2.51872
2.5418
2.54051
2.53372
2.53824
2.54371
2.5621
2.31054
2.36134
2.35321
2.39014
2.3708
2.42248
2.42459
2.3231
2.34173
2.45289
2.45623
2.45423
2.45591
2.34519
2.33252
2.3562
2.35782
2.44929
2.45022
2.43948
2.44604
2.42343
2.43983
2.42769
2.43806
2.48337
2.48098
2.46934
2.44661
2.40339
2.51283
2.48344
2.47949
2.51546
2.33075
2.42082
2.42121
2.49523
2.45738
2.50006
2.43427
2.47168
2.47756
2.50422
2.47482
2.4656
2.46521
2.40551
2.40594
2.51366
2.52054
2.47232
2.49306
2.48054
2.48257
2.44778
2.46729
2.47057
2.44808
2.44838
2.43943
2.54934
2.54725
2.53703
2.55106
2.5098
2.51048
2.44398
2.44707
2.29828
2.30997
2.30039
2.29298
2.28285
2.30321
2.31252
2.30058
2.43214
2.43236
2.43591
2.4367
2.43427
2.46001
2.46671
2.46349
2.45853
2.46253
2.53779
2.54569
2.54091
2.53187
2.41719
2.42211
2.29548
2.28915
2.2918
2.29513
2.29241
2.48581
2.47543
2.50711
2.50591
2.50846
2.51662
2.51506
2.52916
2.50518
2.50371
2.51806
2.48487
2.48442
2.48921
2.462
2.45614
2.46612
2.51423
2.49287
2.45595
2.50194
2.48083
2.54017
2.53313
2.54303
2.54431
2.50585
2.50777
2.47597
2.51816
2.5098
2.51064
2.51672
2.56989
2.21736
2.45636
2.45744
2.46367
2.45559
2.51834
2.53261
2.52071
2.52549
2.53364
2.23784
2.21626
2.21767
2.30125
2.31033
2.304
2.301
2.50658
2.50018
2.50633
2.51085
2.47451
2.4494
2.43399
2.46989
2.46971
2.37536
2.43287
2.37242
2.42271
2.41223
2.43058
2.42344
2.41357
2.43194
2.42001
2.43098
2.49359
2.31671
2.45948
2.43566
2.42183
2.39769
2.3964
2.39394
2.43118
2.42047
2.42046
2.53481
2.51409
2.45026
2.44766
2.43379
2.43514
2.43347
2.43269
2.43532
2.43145
2.46682
2.47088
2.47233
2.50025
2.51346
2.52658
2.44774
2.44423
2.53476
2.49438
2.51461
2.50006
2.21076
2.20332
2.46413
2.5497
2.51697
2.52693
2.52205
2.4622
2.45215
2.45343
2.27788
2.30878
2.30078
2.30403
2.28623
2.49831
2.48709
2.20273
2.45125
2.38569
2.46365
2.43506
2.38116
2.4147
2.4126
2.39803
2.49847
2.48249
2.49808
2.56352
2.59012
2.53771
2.49178
2.49685
2.30578
2.30776
2.30399
2.30438
2.30387
2.31462
2.52481
2.33441
2.27269
2.19493
2.246
2.21483
2.48528
2.46861
2.45548
2.44024
2.51161
2.40985
2.41777
2.39762
2.32309
2.37061
2.34229
2.48419
2.49622
2.50616
2.51435
2.50775
2.46485
2.45657
2.33246
2.34022
2.48457
2.47947
2.46573
2.47165
2.42569
2.45518
2.44644
2.44326
2.43119
2.43206
2.41608
2.43286
2.42352
2.42026
2.42454
2.44466
2.44133
2.44161
2.44098
2.44345
2.44389
2.49678
2.49383
2.48994
2.48976
2.48925
2.36978
2.33853
2.44954
2.41264
2.47427
2.42137
2.48509
2.47443
2.48705
2.48652
2.43972
2.44123
2.44169
2.54918
2.52081
2.47616
2.52379
2.30473
2.31177
2.49951
2.50781
2.45219
2.45107
2.45328
2.43909
2.26488
2.24402
2.20236
2.26645
2.2438
2.51574
2.51541
2.51734
2.51718
2.5209
2.43492
2.452
2.43507
2.39586
2.39991
2.39271
2.39228
2.29764
2.29923
2.29662
2.29106
2.4221
2.46059
2.43821
2.44647
2.41718
2.4206
2.54184
2.49057
2.51394
2.52303
2.49685
2.50761
2.54075
2.31547
2.37664
2.30722
2.32706
2.48645
2.47355
2.50468
2.49325
2.48286
2.30443
2.29534
2.30268
2.58651
2.5864
2.44732
2.44475
2.4345
2.3394
2.37231
2.39266
2.33239
2.4878
2.48728
2.50634
2.50214
2.51172
2.50004
2.49799
2.51235
2.51144
2.51513
2.48938
2.50276
2.36917
2.41138
2.34089
2.55389
2.47864
2.45304
2.48476
2.4165
2.4871
2.42289
2.4541
2.21911
2.407
2.39451
2.40762
2.40291
2.39696
2.40253
2.28119
2.26012
2.34622
2.29216
2.41523
2.41649
2.41265
2.41377
2.41529
2.41623
2.41238
2.41507
2.46466
2.44293
2.46402
2.51743
2.53182
2.56141
2.2976
2.27584
2.29806
2.28082
2.54484
2.50211
2.50774
2.58047
2.547
2.44485
2.3697
2.5133
2.51525
2.51302
2.34457
2.37422
2.35223
2.34283
2.40203
2.41031
2.43587
2.45355
2.45429
2.45744
2.52442
2.51298
2.48581
2.48701
2.50189
2.46231
2.49461
2.51149
2.45939
2.47991
2.53298
2.51398
2.53333
2.53351
2.57605
2.24597
2.19984
2.524
2.52819
2.54045
2.53565
2.52512
2.52768
2.45604
2.45888
2.45593
2.45348
2.46242
2.45786
2.52823
2.53266
2.5252
2.52247
2.53238
2.53902
2.51506
2.52242
2.18659
2.17401
2.22697
2.253
2.51211
2.51114
2.53907
2.56633
2.55398
2.51077
2.50836
2.50373
2.51372
2.515
2.52792
2.51431
2.52421
2.45982
2.42174
2.3957
2.38889
2.41599
2.40395
2.3878
2.39955
2.39401
2.40732
2.43463
2.43299
2.45703
2.45762
2.53255
2.53232
2.30446
2.29675
2.49802
2.50282
2.41777
2.40339
2.40856
2.40019
2.40393
2.41022
2.35002
2.34387
2.32707
2.32926
2.3261
2.35217
2.31714
2.45921
2.44006
2.45499
2.43453
2.50845
2.50554
2.50239
2.49974
2.50767
2.50623
2.54984
2.54703
2.54176
2.54202
2.55439
2.45131
2.45377
2.42643
2.41653
2.41876
2.50442
2.51978
2.51374
2.52155
2.44523
2.44247
2.21863
2.16106
2.38392
2.41646
2.4495
2.33238
2.31004
2.32111
2.32937
2.31427
2.51944
2.51455
2.51111
2.52254
2.53034
2.47791
2.48313
2.31583
2.33513
2.31796
2.30851
2.36121
2.3043
2.36454
2.39665
2.42042
2.35926
2.26913
2.26697
2.22745
2.53876
2.53385
2.53178
2.48552
2.55186
2.42102
2.42802
2.36912
2.51919
2.52081
2.51543
2.51308
2.36224
2.4436
2.3644
2.40043
2.3536
2.35555
2.32384
2.38128
2.38827
2.32061
2.30785
2.52241
2.51069
2.5691
2.55893
2.55015
2.50674
2.43013
2.46511
2.52266
2.559
2.5328
2.53107
2.52845
2.53624
2.38307
2.38749
2.33236
2.34363
2.38289
2.33568
2.46545
2.46291
2.46112
2.46393
2.44452
2.44054
2.44279
2.43666
2.4388
2.36203
2.31059
2.31978
2.44207
2.51813
2.4551
2.4892
2.52407
2.5319
2.48531
2.51028
2.50599
2.46349
2.47566
2.4555
2.49752
2.5072
2.51364
2.51558
2.26747
2.28768
2.31121
2.31582
2.45203
2.4511
2.29679
2.29404
2.498
2.47875
2.48748
2.49629
2.16628
2.18444
2.22604
2.33759
2.30131
2.28422
2.43476
2.42781
2.45005
2.45135
2.44815
2.44845
2.40532
2.41079
2.4738
2.1807
2.42261
2.42435
2.4182
2.42384
2.41656
2.4171
2.42276
2.4239
2.42529
2.41514
2.40047
2.4025
2.42039
2.46986
2.47524
2.2933
2.31444
2.26576
2.4502
2.45077
2.45185
2.4434
2.44077
2.43784
2.53149
2.51602
2.46446
2.47703
2.46635
2.47986
2.48088
2.50466
2.50659
2.49602
2.49666
2.439
2.43779
2.4396
2.43863
2.43905
2.44368
2.43601
2.42639
2.4389
2.44018
2.51406
2.51235
2.50359
2.49885
2.50837
2.52117
2.52584
2.51869
2.51874
2.52341
2.51771
2.54711
2.52804
2.50017
2.52692
2.50363
2.44246
2.44424
2.4396
2.44262
2.4434
2.55678
2.53092
2.2155
2.3759
2.36111
2.37863
2.46463
2.42825
2.3833
2.3706
2.37488
2.595
2.57401
2.60496
2.59603
2.46965
2.45883
2.53869
2.54371
2.49858
2.52309
2.52915
2.51033
2.43778
2.44335
2.52489
2.53642
2.5339
2.53127
2.44838
2.41064
2.36721
2.45026
2.32195
2.37999
2.38914
2.3496
2.52196
2.54358
2.53156
2.61181
2.34332
2.40495
2.41108
2.4741
2.48
2.44442
2.44601
2.49893
2.48469
2.78435
2.59675
2.57293
2.53719
2.5088
2.44996
2.49511
2.44521
2.39347
2.51336
2.51519
2.51093
2.51191
2.5369
2.52444
2.52891
2.52737
2.5214
2.51421
2.52754
2.5226
2.51153
2.46901
2.43687
2.49387
2.35846
2.33886
2.37159
2.3753
2.44929
2.44583
2.44779
2.44824
2.44517
2.44325
2.44904
2.45003
2.44711
2.42594
2.46789
2.49912
2.52678
2.5627
2.4447
2.44555
2.44788
2.44574
2.4462
2.44522
2.48205
2.48667
2.4793
2.48056
2.48624
2.48141
2.52662
2.51162
2.55348
2.53205
2.51024
2.50425
2.51833
2.51163
2.50642
2.50778
2.50924
2.51065
2.50821
2.51202
2.4395
2.31422
2.50162
2.50266
2.45148
2.45137
2.44903
2.44785
2.44915
2.43296
2.43174
2.43252
2.43288
2.43427
2.44277
2.43899
2.44065
2.4418
2.44134
2.30484
2.29666
2.30729
2.31289
2.29261
2.29841
2.39722
2.31241
2.29917
2.33899
2.32058
2.31675
2.59078
2.52325
2.52892
2.53067
2.52846
2.52366
2.15537
2.49485
2.50232
2.48471
2.49529
2.50041
2.5006
2.50188
2.50871
2.50193
2.50234
2.44706
2.44289
2.44849
2.44688
2.44298
2.37657
2.40594
2.4597
2.42969
2.29924
2.30413
2.31099
2.32885
2.29431
2.29887
2.40021
2.38956
2.37956
2.37749
2.38635
2.37116
2.4672
2.46181
2.25346
2.21363
2.2144
2.28349
2.29016
2.54856
2.54442
2.52861
2.53071
2.54263
2.53629
2.53425
2.54282
2.5422
2.54937
2.53658
2.56346
2.52235
2.52046
2.50972
2.51066
2.52058
2.50285
2.33886
2.31947
2.48985
2.49746
2.5164
2.46215
2.46521
2.2098
2.16228
2.41533
2.38701
2.34315
2.4312
2.32909
2.32511
2.51803
2.51817
2.52585
2.52504
2.52223
2.44602
2.44459
2.48208
2.47472
2.47598
2.49872
2.46612
2.47366
2.46161
2.4553
2.459
2.47035
2.66289
2.80422
2.41763
2.41438
2.41354
2.40958
2.41187
2.47773
2.48421
2.47582
2.51809
2.53951
2.53876
2.4237
2.42771
2.42972
2.43463
2.4278
2.42636
2.42625
2.42477
2.43247
2.43681
2.43243
2.43181
2.43782
2.43619
2.43628
2.43709
2.43781
2.51051
2.50243
2.51103
2.52505
2.53065
2.55463
2.52944
2.54233
2.42675
2.44558
2.43958
2.45752
2.46899
2.47873
2.46594
2.45658
2.4588
2.45216
2.45076
2.45413
2.45275
2.44831
2.44619
2.44378
2.43076
2.43207
2.42659
2.43916
2.43944
2.43654
2.46998
2.48439
2.49214
2.47938
2.4813
2.4881
2.45873
2.47609
2.45009
2.46385
2.43786
2.49175
2.48396
2.4946
2.49185
2.49282
2.27544
2.2578
2.22795
2.45444
2.45035
2.45742
2.48729
2.49708
2.49451
2.48804
2.47879
2.22606
2.26143
2.5291
2.52393
2.52289
2.52672
2.19884
2.22926
2.16432
2.50749
2.51159
2.46991
2.46672
2.47885
2.53552
2.52024
2.47159
2.46959
2.47584
2.47294
2.4647
2.34115
2.32026
2.35872
2.34848
2.34804
2.4032
2.37176
2.41205
2.40366
2.43132
2.44528
2.43391
2.49016
2.53044
2.57326
2.31785
2.33072
2.31677
2.35384
2.38449
2.43695
2.43776
2.44093
2.43764
2.43775
2.438
2.43652
2.43662
2.58651
2.61427
2.6875
2.51335
2.51723
2.55984
2.51512
2.53185
2.53478
2.53866
2.51097
2.51164
2.30287
2.29541
2.30697
2.30779
2.30028
2.2985
2.47703
2.45034
2.4527
2.47497
2.39977
2.37943
2.50361
2.50626
2.50542
2.50826
2.5044
2.50298
2.55808
2.584
2.56618
2.46135
2.43455
2.38528
2.26826
2.29374
2.26656
2.27432
2.27639
2.29269
2.43731
2.44335
2.45015
2.47764
2.45483
2.42705
2.42812
2.29139
2.30292
2.32298
2.31331
2.34007
2.35236
2.3396
2.38379
2.40332
2.39043
2.3647
2.31139
2.33127
2.34184
2.33315
2.16207
2.1811
2.4201
2.40725
2.40942
2.39889
2.40603
2.4527
2.45292
2.45225
2.45525
2.45628
2.45616
2.45675
2.4578
2.46459
2.45904
2.45872
2.46165
2.4858
2.51699
2.50053
2.50018
2.43965
2.43681
2.43272
2.43134
2.43935
2.42926
2.43935
2.43828
2.5034
2.50499
2.50326
2.50504
2.52911
2.53409
2.51633
2.51105
2.51646
2.40943
2.4128
2.41054
2.40666
2.41256
2.41595
2.45479
2.45247
2.45365
2.45174
2.44642
2.4494
2.45022
2.44636
2.45334
2.45707
2.40582
2.39805
2.41918
2.37479
2.3577
2.38707
2.37399
2.38083
2.40675
2.39651
2.36196
2.39215
2.37312
2.3759
2.39386
2.52853
2.51616
2.51291
2.45814
2.45957
2.46869
2.36191
2.34004
2.38815
2.46662
2.43807
2.4486
2.52104
2.52897
2.52268
2.51982
2.51617
2.53289
2.55505
2.55251
2.56266
2.55631
2.54129
2.55391
2.53924
2.54163
2.5429
2.32403
2.31103
2.30325
2.29277
2.27989
2.44786
2.45393
2.45837
2.50398
2.51343
2.51067
2.44028
2.43892
2.48432
2.50003
2.49132
2.50893
2.53535
2.21533
2.23037
2.26698
2.21586
2.27509
2.28295
2.27617
2.44038
2.44377
2.44465
2.44332
2.44425
2.47718
2.4747
2.48487
2.48195
2.47349
2.51557
2.50414
2.49728
2.45578
2.45057
2.43917
2.44914
2.44395
2.43874
2.4373
2.43633
2.41822
2.40774
2.47473
2.54955
2.53976
2.55388
2.51128
2.50641
2.5137
2.51602
2.52911
2.52284
2.50738
2.51084
2.51172
2.43656
2.4316
2.43631
2.43587
2.43702
2.43445
2.434
2.4296
2.44282
2.44277
2.44064
2.44376
2.44071
2.50184
2.51222
2.51149
2.50403
2.50315
2.55711
2.59301
2.43258
2.4336
2.42814
2.50333
2.49273
2.50557
2.42892
2.42711
2.43242
2.4382
2.43146
2.42617
2.43113
2.4261
2.42598
2.42518
2.41957
2.42191
2.41971
2.42144
2.42207
2.42331
2.42004
2.42403
2.42306
2.44005
2.44369
2.44056
2.44365
2.44378
2.44148
2.49988
2.49977
2.5021
2.50076
2.48659
2.48247
2.49806
2.58272
2.62367
2.50218
2.51393
2.5242
2.50255
2.51454
2.41897
2.41761
2.42031
2.41608
2.41621
2.4251
2.42017
2.43039
2.42519
2.42955
2.42747
2.4334
2.43689
2.44181
2.44138
2.44958
2.4406
2.44768
2.44826
2.44343
2.44425
2.44757
2.44754
2.42633
2.42149
2.41998
2.42072
2.4179
2.41602
2.41689
2.43812
2.43472
2.43902
2.42854
2.4273
2.42921
2.43274
2.43177
2.43039
2.43073
2.43311
2.42428
2.42344
2.42508
2.47702
2.4667
2.47778
2.46649
2.52468
2.54243
2.43838
2.43967
2.43442
2.43954
2.43552
2.44509
2.43902
2.44208
2.44304
2.44374
2.50858
2.50454
2.50537
2.50494
2.50434
2.50371
2.44743
2.43401
2.44982
2.43704
2.43748
2.46914
2.47825
2.43858
2.43484
2.34621
2.32924
2.31148
2.3065
2.52137
2.52927
2.42019
2.42711
2.48986
2.4553
2.43475
2.48254
2.46727
2.46172
2.45681
2.45819
2.51198
2.49423
2.49819
2.50184
2.50372
2.47537
2.47435
2.49781
2.49186
2.48673
2.45125
2.44882
2.4477
2.45891
2.46381
2.5197
2.52838
2.45335
2.44951
2.45716
2.3678
2.31277
2.30352
2.34464
2.29407
2.2935
2.54712
2.52519
2.49885
2.57986
2.47063
2.50319
2.36052
2.3432
2.38771
2.44569
2.45123
2.44651
2.44895
2.44677
2.44447
2.45353
2.45054
2.45381
2.41599
2.41933
2.44506
2.44973
2.4483
2.44489
2.44637
2.45191
2.45081
2.44806
2.44749
2.44812
2.44071
2.44041
2.44239
2.47014
2.46534
2.46728
2.46157
2.46081
2.3428
2.2994
2.29345
2.31517
2.31701
2.31074
2.31258
2.26414
2.20333
2.27267
2.25325
2.27217
2.55789
2.56828
2.45734
2.45955
2.45374
2.52509
2.48009
2.42263
2.4207
2.42276
2.43435
2.4351
2.43598
2.56408
2.56143
2.55228
2.56133
2.51478
2.48579
2.48048
2.48982
2.48627
2.23583
2.58308
2.55727
2.58349
2.30795
2.29591
2.3273
2.33222
2.34105
2.52737
2.50933
2.44985
2.45392
2.45384
2.30078
2.30066
2.38547
2.30869
2.31495
2.30248
2.46961
2.52105
2.52092
2.52066
2.36915
2.32542
2.43447
2.43165
2.42959
2.45112
2.42913
2.42712
2.52771
2.50528
2.44176
2.43873
2.44244
2.44109
2.50025
2.49542
2.49904
2.56372
2.71358
2.95887
2.88534
2.61549
2.43954
2.45106
1.90944
2.43919
2.43912
2.71328
3.00004
2.44964
3.04249
2.44316
2.92906
2.77668
2.97297
2.98988
2.8024
2.64643
2.70729
2.75025
2.95803
3.01438
2.58559
2.56481
2.67623
2.62457
2.68298
2.70497
2.87598
2.85594
2.0584
2.68316
2.88552
2.85067
2.66308
2.88268
2.86416
2.8278
2.83928
2.66738
2.7125
1.90885
1.95647
2.56939
2.74916
2.83865
2.05321
2.86381
2.8042
2.80644
2.88927
2.803
2.58642
2.87756
2.80693
2.894
2.69692
2.58068
2.70041
2.82439
2.89502
2.79454
2.4542
2.45279
1.99898
1.97349
2.25587
2.58208
2.70698
2.80136
2.87927
2.7514
2.77631
2.84732
2.55865
2.75743
2.44804
2.44907
2.43929
2.43941
2.64728
2.54642
2.65935
2.54712
2.58121
2.87709
2.57826
3.10535
2.73396
2.94736
2.82025
2.77552
2.7836
2.85014
2.68197
2.74364
2.65064
2.73198
2.78954
2.69145
2.68361
2.691
2.72948
2.74465
2.59263
2.45677
2.46586
2.56008
2.63045
2.55012
2.44352
2.59489
2.89291
2.56969
2.54806
2.35925
2.47079
1.90444
2.14288
1.87218
2.87741
2.81804
2.85863
2.73946
2.65572
2.73708
2.69528
2.45084
3.13366
2.86001
2.57233
2.56065
2.54881
2.63918
2.63055
2.63632
2.59578
2.62378
2.61794
2.44193
2.44246
2.60063
2.60783
2.53726
2.79625
2.62867
2.83071
2.87179
2.823
1.86048
2.09607
2.65193
2.70073
2.61174
2.98041
2.58889
1.79113
2.14008
2.44089
2.43972
2.43992
2.56762
2.86559
2.55107
1.88697
2.07062
2.34694
2.39414
1.9338
2.26102
2.59174
2.66409
2.68927
2.57406
2.80923
2.60531
2.63483
2.82468
2.87454
2.9472
2.47538
1.85669
2.08429
1.84432
2.09111
2.67033
2.56794
2.61815
2.83482
2.64272
3.13284
2.82693
2.93808
2.64604
1.81323
1.94891
2.20822
2.15756
2.15098
2.41736
2.0553
2.33058
2.88934
2.699
1.99725
2.20672
1.84773
2.15558
2.88837
2.72537
2.18943
2.83224
2.56534
2.58683
2.77257
2.10425
1.81916
2.08673
3.08917
2.44222
2.4405
2.44228
2.88561
2.59333
3.21383
2.5855
2.61748
1.88152
2.16611
3.05151
2.85417
3.3037
2.88226
2.8669
2.81008
3.12861
3.0008
1.85934
2.13344
2.08663
1.82455
2.12852
1.80158
2.83015
2.61307
2.88881
2.29373
2.49898
2.44951
2.44841
2.44486
2.44667
2.44562
1.81399
2.06058
2.55039
2.58887
2.5543
2.63664
3.1628
3.0044
3.21142
2.79933
2.85243
2.63219
2.06096
1.84217
2.10143
2.82034
2.99146
2.87376
2.82568
2.05334
1.82526
2.0746
2.30061
2.58998
2.50958
2.22163
2.60444
2.44039
1.81151
2.33219
2.6299
2.51486
2.04196
2.37491
2.42342
3.12717
2.6326
2.42747
2.58548
2.70447
2.77979
2.69662
2.8152
2.81209
3.07902
2.44725
2.4447
2.44756
3.02114
2.66488
2.94292
2.75166
2.72784
1.99276
2.30719
2.58449
2.96677
2.57054
2.49418
2.87901
2.64023
2.57256
2.7265
1.8027
3.11562
2.65728
2.64378
2.52178
2.56437
2.4556
2.45199
2.45691
1.84229
2.55226
2.70768
2.61035
1.84428
2.07198
2.67806
2.83515
2.7069
1.80275
2.03645
3.34407
2.63763
2.66918
2.82427
2.6022
2.66945
2.7284
2.56342
2.7005
1.80594
2.04686
2.03779
2.9474
1.80546
2.84779
2.89364
2.92323
3.07726
2.86178
3.93615
3.08693
1.98372
2.30942
2.73866
2.59328
2.62084
3.1453
2.21626
1.94028
3.38125
2.80144
1.75723
2.0198
1.84301
2.08334
2.08176
3.03199
2.59548
2.66968
2.08986
1.7516
2.01897
3.79661
3.30038
3.08364
2.70169
2.69643
2.59238
2.63713
1.79362
2.07727
2.06188
2.98759
2.68616
2.59025
3.41344
2.86989
3.08189
2.87651
2.81044
2.04782
1.73638
2.02286
2.71587
2.5541
1.8216
2.11602
2.10865
2.49006
2.67499
2.60255
2.86898
3.25187
2.65535
2.87945
3.14688
2.91001
3.22501
2.62005
2.71473
1.8738
2.13345
2.12392
3.24009
2.65508
2.71306
1.94367
2.24905
2.7634
2.99249
2.59821
3.25202
2.65389
2.191
2.78027
2.6772
2.92998
2.77886
2.78237
2.67151
2.71733
2.6553
2.59493
2.67472
1.93832
2.15557
2.7843
2.47788
2.47995
1.88216
2.107
1.91488
2.07076
2.56085
2.43766
2.43914
2.3097
2.23904
2.32316
2.47121
2.55218
2.52523
2.47476
2.32229
2.46078
2.5156
2.46088
2.43672
2.3891
2.48438
2.46408
2.52987
2.38104
2.47379
2.47635
2.42068
2.44948
2.45706
2.40959
2.40695
2.54788
2.55244
2.50419
2.39384
2.46629
2.46241
2.46035
2.51715
2.45406
2.44664
2.27818
2.52433
2.46863
2.48201
2.29216
2.29414
2.44482
2.47893
2.47054
2.46852
2.4669
2.50579
2.50525
2.50025
2.52296
2.53695
2.43698
2.44804
2.28001
2.54244
2.52725
2.55327
2.40318
2.55649
2.42287
2.44099
2.44896
2.44198
2.44548
2.30638
2.47521
2.38063
2.44653
2.43974
2.51928
2.41019
2.40087
2.36071
2.40832
2.40306
2.40278
2.37172
2.36665
2.48918
2.43229
2.31084
2.29954
2.386
2.30889
2.34544
2.52025
2.43844
2.46685
2.52056
2.45432
2.44492
2.45141
2.41623
2.44808
2.48048
2.46655
2.45913
2.41563
2.42613
2.51485
2.50192
2.50655
2.47212
2.50881
2.5064
2.49977
2.50588
2.34185
2.32067
2.51456
2.43766
2.27905
2.45223
2.45199
2.41153
2.45307
2.45578
2.43172
2.47917
2.57447
2.55635
2.56027
2.46245
2.42713
2.45957
2.45316
2.4529
2.47863
2.45486
2.5026
2.4156
2.30181
2.43025
2.47117
2.46345
2.46672
2.4747
2.47159
2.51559
2.47376
2.43667
2.43443
2.43655
2.5428
2.53277
2.32398
2.55816
2.28776
2.44207
2.4301
2.39765
2.54003
2.53331
2.54494
2.46041
2.54364
2.54123
2.5558
2.56644
2.47743
2.45496
2.48602
2.32793
2.3212
2.43713
2.44145
2.4319
2.42883
2.47043
2.46921
2.46772
2.46358
2.56919
2.55204
2.51554
2.42858
2.38297
2.51896
2.41152
2.53175
2.5338
2.52614
2.53739
2.52948
2.57639
2.52233
2.52285
2.52524
2.34508
2.41288
2.46766
2.47543
2.48391
2.47501
2.46322
2.4782
2.32875
2.53794
2.53159
2.53696
2.42746
2.45627
2.45474
2.43402
2.44908
2.51872
2.53038
2.42382
2.57015
2.58264
2.51308
2.48389
2.42843
2.43013
2.4258
2.50415
2.29133
2.52687
2.50427
2.49243
2.43988
2.43932
2.44084
2.44111
2.44041
2.55085
2.58192
2.40126
2.5427
2.52461
2.44889
2.50365
2.51411
2.52225
2.51287
2.46393
2.37773
2.38424
2.39185
2.37246
2.44195
2.4583
2.46651
2.37227
2.4122
2.45496
2.43237
2.42843
2.46414
2.45529
2.45385
2.45471
2.43931
2.47789
2.48334
2.47425
2.46067
2.46822
2.47174
2.46369
2.43879
2.43932
2.29924
2.33124
2.33788
2.4206
2.45946
2.49012
2.4802
2.47465
2.46739
2.45943
2.46638
2.40803
2.41628
2.41868
2.54628
2.54208
2.54249
2.54075
2.47289
2.46083
2.46556
2.53292
2.51565
2.52478
2.45148
2.53923
2.51844
2.58636
2.57969
2.62061
2.25536
2.46435
2.46502
2.46563
2.44633
2.44869
2.4351
2.4347
2.45168
2.51497
2.51921
2.46034
2.49054
2.52178
2.51516
2.50535
2.50744
2.53177
2.44974
2.43286
2.44296
2.42917
2.51269
2.51294
2.51658
2.53402
2.53409
2.53792
2.22138
2.46009
2.40117
2.44013
2.52361
2.52142
2.40454
2.3972
2.55642
2.53421
2.31343
2.52726
2.48285
2.43039
2.39605
2.51133
2.45842
2.45328
2.44582
2.5077
2.40738
2.40112
2.46917
2.47755
2.46855
2.50909
2.44294
2.44594
2.44468
2.29543
2.44044
2.43983
2.53048
2.54174
2.5452
2.54263
2.53309
2.52753
2.41222
2.41665
2.42152
2.39579
2.45021
2.47013
2.46482
2.49188
2.50132
2.50684
2.42598
2.44841
2.44087
2.39573