/*--------------------------------*- C++ -*----------------------------------*\
| =========                 |                                                 |
| \\      /  F ield         | OpenFOAM: The Open Source CFD Toolbox           |
|  \\    /   O peration     | Version:  2206                                  |
|   \\  /    A nd           | Website:  www.openfoam.com                      |
|    \\/     M anipulation  |                                                 |
\*---------------------------------------------------------------------------*/
FoamFile
{
    version     2.0;
    format      ascii;
    arch        "LSB;label=32;scalar=64";
    class       volScalarField;
    location    "20";
    object      k;
}
// * * * * * * * * * * * * * * * * * * * * * * * * * * * * * * * * * * * * * //

dimensions      [0 2 -2 0 0 0 0];

internalField   nonuniform List<scalar> 
184166
(
2.32754
2.27554
2.28014
2.32025
2.32539
2.29068
2.2209
2.28767
2.32854
2.33254
2.30758
2.28617
2.28563
2.29654
2.33277
2.32699
2.31593
2.29222
2.2715
2.33582
2.26488
2.28087
2.28683
2.32178
2.30368
2.33366
2.32158
2.30031
2.33059
2.28465
2.32254
2.21161
2.35458
2.32285
2.30989
2.28671
2.28437
2.30698
2.31814
2.2509
2.30909
2.28661
2.3327
2.30742
2.309
2.30083
2.24397
2.32146
2.29578
2.33403
2.24753
2.2166
2.25794
2.29728
2.30223
2.29054
2.30096
2.30777
2.34429
2.32413
2.2852
2.32016
2.32629
2.30327
2.36155
2.18178
2.25119
2.33711
2.21875
2.34268
2.27868
2.33353
2.33608
2.32593
2.27511
2.29749
2.27426
2.32294
2.26292
2.22394
2.2346
2.26426
2.33803
2.30098
2.32589
2.3133
2.28218
2.26589
2.29601
2.26306
2.19838
2.32827
2.32305
2.34645
2.29692
2.27247
2.30827
2.21672
2.26428
2.31735
2.28511
2.28585
2.32401
2.33122
2.21533
2.27798
2.31514
2.32387
2.21416
2.28557
2.25035
2.33562
2.18922
2.26628
2.33566
2.31003
2.31738
2.26865
2.21524
2.25885
2.32384
2.28586
2.30004
2.29622
2.29562
2.30199
2.30125
2.29857
2.32885
2.3264
2.28318
2.29673
2.30046
2.29404
2.25698
2.28643
2.26307
2.30347
2.29703
2.24988
2.27654
2.2263
2.22833
2.28614
2.29579
2.33864
2.27853
2.33407
2.30198
2.36674
2.34222
2.35147
2.32038
2.3141
2.33121
2.34377
2.3226
2.3241
2.32489
2.25751
2.205
2.23404
2.29218
2.2615
2.26479
2.30293
2.33311
2.33205
2.20712
2.33585
2.30378
2.30549
2.28649
2.33272
2.29658
2.2272
2.24752
2.32888
2.32729
2.30311
2.20532
2.29279
2.29812
2.3358
2.33685
2.27946
2.33868
2.33555
2.21797
2.29818
2.29271
2.34017
2.28884
2.21495
2.30449
2.33414
2.33178
2.31793
2.30409
2.33219
2.30654
2.33192
2.2067
2.28868
2.24235
2.3117
2.286
2.28434
2.30422
2.28747
2.33923
2.29369
2.2859
2.31302
2.26164
2.27758
2.31723
2.29391
2.22531
2.22537
2.26338
2.28558
2.28838
2.29297
2.23592
2.28487
2.26112
2.30377
2.30091
2.30573
2.35683
2.25575
2.27396
2.29407
2.31975
2.28962
2.35161
2.33052
2.29407
2.2156
2.1888
2.32848
2.29486
2.32738
2.26133
2.32172
2.33514
2.28574
2.3404
2.34685
2.30942
2.35376
2.33853
2.28457
2.30596
2.33212
2.32939
2.33597
2.30105
2.28993
2.29889
2.25693
2.30479
2.29657
2.33379
2.27803
2.32552
2.25171
2.289
2.3121
2.33064
2.23733
2.29896
2.33966
2.28589
2.29146
2.19081
2.32728
2.27186
2.32291
2.28347
2.37148
2.3215
2.30046
2.25368
2.28501
2.30934
2.34748
2.2831
2.29687
2.32675
2.32516
2.3313
2.31177
2.32899
2.32006
2.29136
2.33072
2.31481
2.34966
2.29682
2.28891
2.22076
2.33653
2.341
2.29376
2.29173
2.29509
2.23403
2.21473
2.29907
2.34956
2.33162
2.33842
2.3392
2.32751
2.28203
2.31484
2.29209
2.31721
2.26942
2.27112
2.33248
2.32092
2.29505
2.21966
2.29107
2.28302
2.2836
2.29704
2.30771
2.25145
2.25245
2.32809
2.22512
2.29958
2.29024
2.28715
2.33728
2.32698
2.28911
2.33586
2.36057
2.34282
2.30411
2.34416
2.24636
2.21242
2.26495
2.24489
2.23623
2.3015
2.34191
2.25209
2.26331
2.33633
2.3268
2.29356
2.33494
2.33348
2.27044
2.1985
2.32954
2.26465
2.31948
2.32275
2.21223
2.2552
2.25781
2.18923
2.19837
2.34402
2.35518
2.33459
2.33757
2.33002
2.29655
2.33549
2.2861
2.32164
2.32501
2.32679
2.33246
2.33022
2.30654
2.32331
2.32937
2.27242
2.26495
2.2691
2.30025
2.29802
2.30521
2.20662
2.28843
2.21287
2.337
2.29401
2.28581
2.29428
2.34411
2.2913
2.33839
2.30136
2.25792
2.30775
2.3296
2.33215
2.32923
2.2706
2.2885
2.27578
2.2728
2.27016
2.27341
2.271
2.30336
2.25058
2.24791
2.23581
2.34861
2.29613
2.29353
2.2996
2.33414
2.21164
2.21578
2.21893
2.28215
2.27988
2.281
2.21917
2.34636
2.33321
2.34042
2.33876
2.33061
2.33659
2.30666
2.3069
2.29522
2.29616
2.29894
2.29719
2.29918
2.29758
2.31015
2.31304
2.33181
2.33518
2.33118
2.32855
2.32933
2.3333
2.32705
2.2996
2.29546
2.29572
2.29611
2.31738
2.29563
2.21925
2.20489
2.20504
2.20201
2.22935
2.21322
2.23022
2.29728
2.29853
2.30006
2.30215
2.30589
2.30437
2.29016
2.28642
2.2884
2.30206
2.32878
2.32934
2.32709
2.3303
2.20225
2.18351
2.28642
2.2865
2.28614
2.28501
2.28534
2.2849
2.31334
2.29135
2.29018
2.2915
2.2895
2.32497
2.30471
2.3145
2.3176
2.31986
2.30715
2.30812
2.30288
2.29794
2.29955
2.2987
2.30225
2.29831
2.25907
2.31555
2.31739
2.18483
2.20526
2.18793
2.30184
2.31996
2.32743
2.33695
2.32983
2.33425
2.33986
2.33908
2.34644
2.29538
2.29746
2.29801
2.29966
2.31526
2.31369
2.33886
2.32591
2.36341
2.34878
2.36224
2.34634
2.3447
2.34264
2.32372
2.33017
2.34207
2.33655
2.32595
2.33243
2.29886
2.29793
2.30162
2.2983
2.23
2.2856
2.27998
2.27385
2.28428
2.27955
2.28248
2.28412
2.27466
2.2749
2.2738
2.26267
2.32689
2.32393
2.32393
2.32058
2.32094
2.31749
2.31159
2.31576
2.29557
2.29303
2.32292
2.32341
2.32268
2.3227
2.32095
2.36521
2.22406
2.24775
2.21318
2.21203
2.21424
2.21631
2.32583
2.31203
2.34049
2.3278
2.33723
2.33213
2.34048
2.34347
2.31326
2.30978
2.32871
2.32758
2.32733
2.18997
2.29047
2.2871
2.28682
2.32221
2.32237
2.31968
2.32228
2.32426
2.32854
2.32535
2.32497
2.30423
2.30285
2.30558
2.28579
2.28113
2.2896
2.28045
2.33599
2.34392
2.33985
2.34315
2.34738
2.33754
2.34132
2.34384
2.29096
2.29443
2.2931
2.29337
2.33483
2.33552
2.29692
2.29181
2.29114
2.29075
2.29526
2.2993
2.32301
2.3435
2.29399
2.29331
2.30515
2.31079
2.30395
2.32126
2.29476
2.339
2.34893
2.33912
2.33598
2.33786
2.34461
2.34235
2.33719
2.23465
2.2484
2.29419
2.29878
2.30229
2.29793
2.29006
2.33056
2.32293
2.32872
2.32663
2.32361
2.32486
2.22343
2.33993
2.3329
2.34548
2.33295
2.28732
2.30712
2.30967
2.30411
2.36343
2.34803
2.36246
2.22761
2.21926
2.21454
2.22969
2.23262
2.21603
2.32162
2.25627
2.26821
2.32818
2.31915
2.32215
2.28829
2.28697
2.28819
2.28703
2.28687
2.28738
2.33575
2.3475
2.33563
2.33216
2.34767
2.35883
2.28248
2.28145
2.31592
2.2887
2.27992
2.27944
2.25076
2.27378
2.30395
2.30791
2.32251
2.32052
2.32012
2.28579
2.28434
2.2854
2.28463
2.26658
2.28663
2.33944
2.34086
2.34202
2.2887
2.29671
2.29042
2.28891
2.29159
2.33148
2.28412
2.28435
2.3164
2.32599
2.32733
2.32699
2.30008
2.303
2.28311
2.28433
2.28426
2.31068
2.29576
2.31374
2.32275
2.28661
2.29201
2.21165
2.2064
2.20608
2.32604
2.26537
2.28164
2.25485
2.31585
2.28461
2.33214
2.32868
2.29339
2.29699
2.29373
2.29623
2.29207
2.2845
2.29889
2.28503
2.28604
2.28572
2.28601
2.2858
2.28568
2.28558
2.28422
2.284
2.28313
2.32238
2.26407
2.28627
2.28577
2.28556
2.32834
2.32286
2.32675
2.32699
2.33342
2.33547
2.33056
2.34153
2.29082
2.29114
2.28607
2.25513
2.25435
2.21047
2.2114
2.21672
2.21419
2.28489
2.26216
2.26485
2.26976
2.27637
2.27969
2.29364
2.29407
2.33409
2.33146
2.3294
2.33786
2.29299
2.29721
2.30468
2.29665
2.28544
2.28519
2.28559
2.28499
2.202
2.20771
2.32602
2.32597
2.21196
2.21577
2.20803
2.21464
2.30963
2.2439
2.25632
2.24786
2.24776
2.28329
2.28519
2.28505
2.28529
2.3172
2.29954
2.30408
2.29777
2.29206
2.29489
2.29666
2.29723
2.28256
2.28026
2.28749
2.28017
2.30505
2.27862
2.30358
2.31391
2.31828
2.35259
2.30024
2.29738
2.29057
2.28707
2.28581
2.29299
2.18608
2.17081
2.33893
2.31389
2.31869
2.32508
2.31127
2.32859
2.1711
2.16496
2.31211
2.31176
2.32775
2.32525
2.32028
2.25313
2.30751
2.26971
2.29721
2.2118
2.21597
2.32535
2.32781
2.32911
2.32649
2.32731
2.33035
2.22134
2.23565
2.25562
2.25098
2.30487
2.33637
2.29991
2.30011
2.22617
2.2392
2.32794
2.32366
2.33505
2.33368
2.29543
2.29284
2.29303
2.29485
2.33789
2.33216
2.33512
2.26032
2.28955
2.26721
2.28997
2.29053
2.29251
2.29176
2.30942
2.30943
2.31039
2.32329
2.3353
2.3408
2.33277
2.33178
2.3307
2.32643
2.30829
2.30326
2.31112
2.33796
2.3491
2.29295
2.2809
2.27316
2.27678
2.28697
2.28594
2.28591
2.28575
2.28511
2.28568
2.2876
2.29713
2.29336
2.29283
2.29336
2.29481
2.32266
2.34333
2.31475
2.3088
2.30328
2.28172
2.3294
2.32745
2.32967
2.33244
2.26014
2.25479
2.25575
2.25642
2.25459
2.29526
2.29725
2.29792
2.32521
2.32776
2.30915
2.31967
2.3412
2.33755
2.31201
2.31552
2.31212
2.3108
2.31436
2.28764
2.2885
2.27741
2.29165
2.29013
2.29187
2.29198
2.2927
2.33891
2.33639
2.34032
2.33523
2.32555
2.33031
2.33475
2.3273
2.36439
2.30676
2.30527
2.30195
2.2839
2.28393
2.28626
2.28523
2.28041
2.30117
2.30724
2.30775
2.30588
2.26789
2.27147
2.26747
2.23829
2.32623
2.32303
2.30278
2.30593
2.3215
2.32749
2.31954
2.31531
2.29959
2.29873
2.30028
2.30094
2.21603
2.2069
2.19842
2.18061
2.33121
2.32882
2.33426
2.33055
2.3205
2.32072
2.32075
2.34409
2.34087
2.34421
2.33128
2.33875
2.35047
2.33274
2.30322
2.31983
2.2875
2.28755
2.28916
2.28924
2.28845
2.3391
2.32132
2.31963
2.30483
2.31582
2.27652
2.27758
2.317
2.2889
2.31617
2.31928
2.29883
2.29757
2.32637
2.29894
2.29927
2.34285
2.32832
2.33225
2.32886
2.32101
2.21875
2.21213
2.20727
2.27647
2.27651
2.32631
2.34403
2.32163
2.32202
2.29111
2.28916
2.25098
2.22086
2.31768
2.28898
2.29011
2.33129
2.32755
2.29747
2.29555
2.29427
2.21397
2.21677
2.21336
2.36018
2.36244
2.34633
2.34593
2.19518
2.18383
2.28659
2.28238
2.2753
2.25353
2.24737
2.34686
2.33718
2.3297
2.3327
2.33133
2.21023
2.21697
2.2128
2.20168
2.20689
2.28215
2.29843
2.30081
2.29717
2.28833
2.29189
2.32724
2.29369
2.29413
2.29724
2.29469
2.33181
2.33137
2.33779
2.33549
2.33301
2.28044
2.28249
2.28121
2.28015
2.30572
2.30043
2.33965
2.34234
2.33815
2.34287
2.31844
2.32236
2.3156
2.29103
2.29228
2.28829
2.28003
2.24107
2.24669
2.26861
2.23378
2.27867
2.24399
2.23958
2.25389
2.30674
2.31069
2.33773
2.2896
2.29399
2.28934
2.29085
2.2902
2.29226
2.29658
2.21611
2.20343
2.21709
2.21921
2.30849
2.29053
2.26125
2.22151
2.22475
2.16735
2.16768
2.28777
2.28857
2.28838
2.28716
2.28792
2.3188
2.2581
2.24556
2.21642
2.21383
2.21316
2.20844
2.20856
2.31485
2.29441
2.28982
2.29042
2.29462
2.28973
2.31539
2.33076
2.29123
2.29144
2.29082
2.2229
2.22933
2.28675
2.28763
2.27122
2.27046
2.26856
2.32622
2.32954
2.32941
2.34139
2.33962
2.3368
2.34002
2.3425
2.35198
2.21696
2.24388
2.2397
2.25673
2.24628
2.27358
2.2746
2.22135
2.2326
2.29285
2.29452
2.29355
2.29435
2.23567
2.22891
2.24154
2.24215
2.29099
2.29153
2.28579
2.28933
2.27712
2.28587
2.27942
2.2849
2.30727
2.30608
2.301
2.2893
2.26501
2.32321
2.3077
2.30428
2.32364
2.22677
2.27335
2.27437
2.31406
2.29371
2.31597
2.28121
2.30268
2.30555
2.31889
2.30437
2.29957
2.29918
2.26749
2.26771
2.32514
2.32972
2.30332
2.31431
2.30754
2.30869
2.29019
2.30015
2.3019
2.29018
2.29017
2.28551
2.34472
2.34356
2.33723
2.3453
2.32414
2.32458
2.28786
2.28946
2.20956
2.2159
2.21136
2.2068
2.20171
2.21271
2.21856
2.21181
2.28182
2.28211
2.28381
2.28401
2.28289
2.29625
2.30045
2.29835
2.29556
2.29797
2.33979
2.34404
2.34162
2.33652
2.27363
2.27627
2.21004
2.20686
2.2081
2.2092
2.20797
2.30831
2.30329
2.31978
2.3205
2.32141
2.32526
2.32601
2.33049
2.32075
2.32011
2.32563
2.31023
2.30973
2.31127
2.29723
2.29434
2.29928
2.32452
2.31325
2.29401
2.3179
2.30711
2.3404
2.33693
2.3417
2.34199
2.31774
2.31962
2.30201
2.3288
2.32443
2.32442
2.32747
2.34756
2.16866
2.29428
2.29486
2.29819
2.29388
2.32721
2.3362
2.32867
2.33169
2.33618
2.1785
2.16682
2.16947
2.21327
2.21829
2.21359
2.21285
2.31937
2.31608
2.3194
2.3228
2.30409
2.29066
2.28279
2.30046
2.30023
2.25057
2.28067
2.24846
2.2768
2.27131
2.28088
2.27724
2.27223
2.2818
2.27546
2.28128
2.31324
2.22145
2.29589
2.28323
2.27608
2.26343
2.26267
2.2614
2.28097
2.27523
2.27513
2.33393
2.32204
2.29151
2.29015
2.28306
2.28366
2.28288
2.28238
2.28382
2.28176
2.29996
2.30168
2.30293
2.31777
2.32501
2.3325
2.2901
2.28819
2.33579
2.31459
2.32557
2.31646
2.16488
2.16212
2.29913
2.34205
2.32631
2.33246
2.32998
2.29672
2.29198
2.29245
2.20059
2.21597
2.21236
2.21287
2.20453
2.31504
2.30959
2.16125
2.29154
2.25707
2.29705
2.28284
2.25452
2.27228
2.27113
2.2634
2.31637
2.30841
2.31654
2.35446
2.36626
2.33903
2.31228
2.31532
2.21522
2.21602
2.21359
2.21381
2.21314
2.22002
2.33319
2.22739
2.19625
2.15806
2.18479
2.16907
2.30855
2.3003
2.29419
2.28561
2.32117
2.26998
2.27402
2.26357
2.2248
2.24944
2.23443
2.30937
2.31574
2.32047
2.32517
2.32173
2.29926
2.29472
2.22906
2.23297
2.30937
2.30661
2.29996
2.30269
2.27844
2.29389
2.28945
2.28781
2.28114
2.28161
2.27326
2.28196
2.27711
2.27533
2.27751
2.28831
2.2868
2.28681
2.28654
2.28777
2.28786
2.31638
2.31465
2.31276
2.3128
2.31251
2.24649
2.23022
2.28753
2.26866
2.30082
2.273
2.30972
2.30385
2.31088
2.3106
2.28572
2.28643
2.28656
2.34177
2.32643
2.30204
2.32781
2.21242
2.2183
2.31353
2.31684
2.29258
2.29183
2.29297
2.2852
2.19318
2.18262
2.16061
2.19392
2.18204
2.32744
2.32736
2.3263
2.32617
2.32777
2.28341
2.29216
2.28329
2.26253
2.26475
2.26074
2.26043
2.21223
2.21331
2.21175
2.2077
2.27628
2.29632
2.2849
2.28912
2.27369
2.27542
2.33896
2.31218
2.32378
2.3252
2.31549
2.31867
2.33846
2.22038
2.25249
2.21727
2.22696
2.31075
2.30396
2.32032
2.31384
2.30847
2.21429
2.20888
2.21313
2.36608
2.36633
2.28977
2.28842
2.28308
2.2331
2.24996
2.26025
2.22839
2.31149
2.31076
2.32174
2.31923
2.32429
2.3177
2.31555
2.32369
2.3229
2.32464
2.30909
2.31506
2.24887
2.27171
2.23369
2.34692
2.30608
2.29282
2.30768
2.27262
2.30852
2.27687
2.29297
2.17055
2.26849
2.26174
2.26865
2.26642
2.26289
2.2657
2.201
2.19041
2.23449
2.20588
2.27267
2.27312
2.27116
2.27161
2.2727
2.27321
2.27116
2.27255
2.29822
2.28564
2.29857
2.32255
2.32796
2.34951
2.20945
2.19801
2.21123
2.20043
2.34144
2.31943
2.32214
2.35879
2.34045
2.28781
2.24817
2.3264
2.32741
2.3255
2.23483
2.25047
2.23877
2.23395
2.26462
2.26924
2.28254
2.29187
2.29321
2.29469
2.32972
2.32323
2.30994
2.30993
2.31703
2.29542
2.31278
2.32208
2.29429
2.30518
2.33551
2.32617
2.33654
2.33661
2.35884
2.18329
2.15933
2.33118
2.33389
2.34135
2.3389
2.3316
2.33306
2.29417
2.2957
2.29404
2.29252
2.29726
2.29518
2.33232
2.33589
2.33133
2.32993
2.33526
2.34012
2.32628
2.33048
2.15169
2.1465
2.1745
2.18576
2.3232
2.3221
2.33899
2.35401
2.34746
2.32309
2.32231
2.31899
2.32567
2.32666
2.33358
2.32605
2.33102
2.29564
2.27645
2.26272
2.25887
2.27288
2.26655
2.2582
2.26443
2.26166
2.26848
2.28282
2.28197
2.29471
2.29498
2.32916
2.32747
2.21302
2.20967
2.31757
2.32009
2.27421
2.2667
2.26923
2.2646
2.26685
2.2698
2.2389
2.23486
2.22632
2.2273
2.22559
2.23924
2.22102
2.29604
2.28622
2.29365
2.28282
2.3215
2.32007
2.31729
2.31613
2.3205
2.31984
2.34595
2.34317
2.34047
2.34121
2.3478
2.29203
2.2933
2.27864
2.27356
2.27466
2.3181
2.32727
2.32326
2.32803
2.28835
2.2869
2.16907
2.13774
2.25285
2.27069
2.28766
2.22875
2.21668
2.22294
2.22726
2.21881
2.32971
2.32674
2.32493
2.331
2.33539
2.30564
2.30842
2.21864
2.22709
2.21939
2.21434
2.2421
2.21527
2.24437
2.26105
2.27348
2.24109
2.19462
2.19344
2.173
2.33819
2.33494
2.33435
2.30995
2.34472
2.27549
2.27869
2.24776
2.32742
2.32778
2.32483
2.32359
2.24367
2.28596
2.24319
2.26325
2.23826
2.24016
2.22332
2.25427
2.2578
2.22193
2.21457
2.32546
2.32039
2.35768
2.35114
2.34624
2.32102
2.28
2.29832
2.32924
2.34613
2.33433
2.33535
2.33383
2.33851
2.25565
2.25805
2.22898
2.23489
2.25536
2.23054
2.29936
2.29799
2.29731
2.29861
2.28814
2.28595
2.28696
2.28393
2.28497
2.24363
2.21537
2.22049
2.28377
2.32466
2.29051
2.3089
2.32799
2.33325
2.30713
2.32064
2.3178
2.29831
2.30444
2.29393
2.31305
2.31866
2.32248
2.32333
2.1941
2.20383
2.21553
2.21846
2.29268
2.29205
2.21334
2.21191
2.31584
2.30623
2.31121
2.31464
2.14209
2.15183
2.17379
2.23251
2.21365
2.20361
2.28314
2.27955
2.29139
2.29204
2.29034
2.29041
2.26638
2.26867
2.30248
2.14903
2.27631
2.27721
2.27381
2.27685
2.27299
2.27364
2.27681
2.27731
2.27802
2.2726
2.26494
2.26588
2.27533
2.30203
2.30458
2.20835
2.21849
2.19417
2.29148
2.29164
2.29228
2.28764
2.2863
2.28457
2.33135
2.32473
2.29918
2.30581
2.3001
2.30708
2.30573
2.31902
2.31968
2.31383
2.31437
2.28539
2.28467
2.28553
2.28503
2.28532
2.28742
2.28337
2.27834
2.2851
2.28548
2.32402
2.32197
2.3186
2.31592
2.32061
2.32698
2.33157
2.3265
2.32753
2.32931
2.32567
2.34272
2.33371
2.31804
2.33243
2.31993
2.28711
2.28812
2.28574
2.28721
2.28743
2.34861
2.3351
2.16684
2.25213
2.24353
2.25266
2.29854
2.27882
2.25581
2.24917
2.25129
2.36849
2.35692
2.37217
2.37053
2.30171
2.29566
2.33865
2.34093
2.31707
2.32975
2.33321
2.32284
2.28481
2.28761
2.33256
2.33885
2.33717
2.33542
2.28849
2.26846
2.24549
2.28936
2.22253
2.2533
2.25847
2.23684
2.33047
2.34014
2.33425
2.37955
2.23327
2.26567
2.26899
2.30211
2.30481
2.28603
2.28679
2.31569
2.30808
2.46242
2.36851
2.35634
2.33927
2.3228
2.29017
2.31421
2.287
2.25925
2.32345
2.32371
2.3214
2.32217
2.33973
2.33317
2.33488
2.33407
2.33069
2.32711
2.33459
2.33156
2.32549
2.29798
2.28246
2.3125
2.24247
2.23197
2.24916
2.25104
2.29059
2.28913
2.29006
2.29018
2.28875
2.28788
2.29009
2.29064
2.28919
2.27817
2.29997
2.31671
2.32758
2.34082
2.28852
2.28875
2.28984
2.28889
2.28896
2.28847
2.30842
2.31115
2.30705
2.30762
2.31043
2.3082
2.33235
2.32545
2.34581
2.3356
2.32466
2.32126
2.3293
2.32577
2.32298
2.32338
2.32416
2.32259
2.32036
2.32234
2.286
2.21747
2.31673
2.31808
2.29184
2.2918
2.29056
2.28991
2.29046
2.28213
2.28148
2.28182
2.28223
2.2829
2.28733
2.28541
2.28629
2.28688
2.28661
2.21373
2.20985
2.21461
2.21748
2.20676
2.21054
2.26076
2.21773
2.20876
2.23027
2.22091
2.21914
2.34953
2.32939
2.33275
2.33476
2.33325
2.3311
2.13646
2.31517
2.31876
2.30968
2.31572
2.31838
2.31563
2.31725
2.32171
2.31718
2.31754
2.2891
2.28719
2.28991
2.28878
2.28679
2.25112
2.26716
2.29546
2.27934
2.21233
2.2147
2.21814
2.22758
2.20929
2.21138
2.26463
2.25909
2.25371
2.25259
2.25731
2.24918
2.30003
2.29715
2.18716
2.16648
2.16763
2.20431
2.20732
2.34385
2.34221
2.33367
2.3334
2.34057
2.33811
2.33707
2.34099
2.34111
2.34371
2.33716
2.35149
2.33101
2.32859
2.32269
2.32114
2.32662
2.31747
2.23283
2.22268
2.30932
2.31237
2.32017
2.29737
2.2988
2.16609
2.14074
2.2707
2.25584
2.23156
2.27898
2.22535
2.22347
2.32574
2.32579
2.33027
2.33017
2.32802
2.28903
2.28838
2.30787
2.30423
2.305
2.31686
2.29967
2.30361
2.29725
2.2938
2.29545
2.30131
2.40114
2.46876
2.27395
2.27218
2.2717
2.26982
2.27084
2.30628
2.30865
2.30515
2.32246
2.33084
2.33017
2.27744
2.27942
2.28052
2.28292
2.27943
2.27859
2.2786
2.27801
2.28208
2.28409
2.28194
2.28161
2.28493
2.28406
2.28399
2.28445
2.28479
2.32265
2.31662
2.32335
2.33095
2.33391
2.34568
2.33181
2.33908
2.2782
2.28773
2.28421
2.29521
2.30049
2.30535
2.29918
2.29472
2.2958
2.29217
2.2915
2.29337
2.29265
2.29023
2.28908
2.2878
2.281
2.28179
2.27862
2.2857
2.28576
2.28409
2.30159
2.30973
2.3133
2.30701
2.3078
2.31142
2.29569
2.30466
2.29077
2.29793
2.28432
2.31293
2.30909
2.31431
2.3131
2.31394
2.19754
2.19017
2.17232
2.2926
2.29067
2.29407
2.31149
2.31654
2.31574
2.31143
2.30646
2.17202
2.19139
2.3355
2.33267
2.33183
2.33412
2.15788
2.17374
2.1385
2.32023
2.32241
2.30153
2.30001
2.30627
2.33109
2.32466
2.30245
2.30139
2.30468
2.303
2.29862
2.23405
2.22394
2.24321
2.23746
2.23736
2.26621
2.24965
2.2706
2.26633
2.28149
2.28887
2.28284
2.31304
2.3341
2.35395
2.22013
2.22695
2.22065
2.23917
2.25566
2.28448
2.28478
2.28641
2.28476
2.28477
2.28492
2.28422
2.28411
2.36298
2.37728
2.41156
2.32588
2.32812
2.35108
2.32248
2.33294
2.33368
2.33571
2.32121
2.32138
2.2161
2.21004
2.21788
2.21875
2.21355
2.2122
2.30372
2.2892
2.29138
2.30289
2.26292
2.25162
2.31864
2.31972
2.31906
2.32022
2.31849
2.31808
2.35049
2.36402
2.35438
2.29736
2.28255
2.2569
2.1943
2.2064
2.1923
2.19613
2.19721
2.20625
2.28414
2.28691
2.29104
2.30546
2.29376
2.27865
2.27902
2.20747
2.21374
2.22343
2.21818
2.23237
2.23928
2.23252
2.25574
2.2662
2.25915
2.24581
2.21779
2.22808
2.23326
2.22871
2.14021
2.1505
2.27492
2.26834
2.26934
2.26388
2.26762
2.29284
2.2928
2.29241
2.29384
2.29436
2.29426
2.2947
2.29458
2.29806
2.29542
2.29533
2.29692
2.31063
2.32711
2.31887
2.31804
2.28564
2.28397
2.28176
2.28097
2.28546
2.27994
2.28572
2.28538
2.31738
2.31794
2.31735
2.31842
2.33476
2.33796
2.32773
2.32488
2.32766
2.26935
2.27122
2.2701
2.26808
2.27104
2.27275
2.29375
2.29227
2.29305
2.29187
2.28911
2.29068
2.29105
2.28899
2.2927
2.29445
2.26749
2.26365
2.27443
2.25094
2.24182
2.25706
2.25031
2.25399
2.26818
2.26235
2.24444
2.25973
2.25037
2.25179
2.26123
2.33442
2.3277
2.32628
2.29554
2.29614
2.30102
2.24467
2.23344
2.25853
2.29882
2.28399
2.28899
2.33056
2.33446
2.33109
2.32944
2.32771
2.33501
2.34648
2.34521
2.35028
2.34688
2.34053
2.34668
2.33859
2.33995
2.34103
2.22543
2.21952
2.21648
2.20505
2.2011
2.28951
2.29303
2.29534
2.32113
2.32596
2.32474
2.28617
2.28553
2.30848
2.31644
2.3107
2.32033
2.33574
2.16638
2.17413
2.19475
2.16752
2.1998
2.20282
2.19916
2.2858
2.28721
2.28765
2.28726
2.28745
2.30603
2.30464
2.30931
2.30734
2.30305
2.32564
2.3194
2.31477
2.2942
2.29125
2.28556
2.29074
2.28789
2.28497
2.28471
2.28427
2.2744
2.26839
2.30429
2.3463
2.3407
2.34812
2.32231
2.31897
2.32307
2.32452
2.33072
2.32826
2.31952
2.32066
2.32082
2.28399
2.2814
2.28379
2.2836
2.28433
2.28271
2.28252
2.28043
2.28715
2.28718
2.28616
2.28768
2.28616
2.31826
2.32381
2.32164
2.31828
2.31869
2.34021
2.35317
2.28192
2.2823
2.27929
2.3194
2.31353
2.32005
2.27991
2.27911
2.28161
2.28471
2.28107
2.27834
2.2808
2.27867
2.27876
2.27813
2.27513
2.27623
2.2752
2.27607
2.27635
2.27685
2.27519
2.27748
2.2768
2.28602
2.28756
2.28604
2.28746
2.28764
2.2866
2.31684
2.31701
2.31804
2.31745
2.3104
2.30775
2.31593
2.3484
2.36261
2.31797
2.32341
2.32776
2.31822
2.32278
2.27453
2.27394
2.27522
2.27308
2.27298
2.27788
2.27523
2.28084
2.27804
2.28031
2.27887
2.2824
2.28403
2.28675
2.28654
2.29093
2.28618
2.2899
2.29036
2.28777
2.28836
2.28999
2.28994
2.27877
2.27642
2.27505
2.27541
2.27403
2.27306
2.27332
2.285
2.28305
2.28541
2.2801
2.27943
2.28016
2.28183
2.28124
2.28048
2.28089
2.28195
2.27774
2.27725
2.27818
2.3047
2.30006
2.3052
2.2999
2.32468
2.33083
2.28478
2.28555
2.28264
2.28537
2.28322
2.2886
2.28517
2.28688
2.28717
2.28752
2.3207
2.31878
2.3188
2.3183
2.31792
2.3177
2.28995
2.28292
2.29093
2.28419
2.28436
2.30147
2.30612
2.28514
2.28308
2.23538
2.22623
2.21688
2.2142
2.33071
2.33512
2.27429
2.27779
2.3122
2.29218
2.28172
2.30745
2.30091
2.29774
2.29427
2.29485
2.32304
2.31384
2.3161
2.31787
2.3184
2.30411
2.30325
2.31531
2.31231
2.30955
2.29217
2.29094
2.29013
2.29561
2.29834
2.32387
2.32648
2.29307
2.29109
2.2947
2.24519
2.21873
2.21375
2.23576
2.20923
2.20906
2.3414
2.3311
2.31505
2.35144
2.30226
2.31817
2.2427
2.23421
2.25701
2.28872
2.29156
2.28912
2.29036
2.28939
2.28826
2.29327
2.29133
2.29318
2.27325
2.27489
2.28839
2.2908
2.29016
2.28819
2.28878
2.29176
2.29103
2.28949
2.28912
2.28954
2.28662
2.28639
2.28738
2.30144
2.29937
2.30002
2.29745
2.29696
2.2348
2.2119
2.20818
2.21929
2.22046
2.21612
2.21707
2.19456
2.15992
2.19732
2.18828
2.19662
2.35296
2.35866
2.29541
2.29654
2.29259
2.32987
2.3048
2.27672
2.27574
2.2768
2.28267
2.28302
2.28357
2.35575
2.35278
2.348
2.35383
2.32637
2.311
2.30751
2.31121
2.30978
2.17846
2.36391
2.34971
2.36324
2.21758
2.21201
2.2269
2.22708
2.23314
2.33368
2.32391
2.29146
2.29355
2.29309
2.21235
2.21185
2.25782
2.21758
2.21882
2.21219
2.30122
2.33113
2.33113
2.3313
2.24721
2.22355
2.28305
2.28168
2.28062
2.29163
2.27996
2.27877
2.33297
2.32066
2.287
2.28528
2.28709
2.28647
2.31856
2.31598
2.31776
2.35231
2.41647
2.52831
2.48042
2.38036
2.28616
2.29223
1.99656
2.28578
2.28594
2.422
2.57995
2.29135
2.55391
2.28794
2.51949
2.44572
2.52129
2.52591
2.4596
2.39426
2.41606
2.43403
2.52803
2.56432
2.35846
2.35404
2.40412
2.37602
2.40273
2.41577
2.50783
2.50676
2.09415
2.40738
2.5089
2.46682
2.39916
2.5114
2.50596
2.48158
2.4935
2.40599
2.41875
1.99887
2.03639
2.35817
2.44372
2.46113
2.09077
2.50735
2.44492
2.46312
2.49532
2.45791
2.35936
2.50428
2.47771
2.50672
2.42112
2.35767
2.42571
2.48904
2.51755
2.47323
2.29384
2.29291
2.06159
2.04624
2.18968
2.35817
2.42964
2.44496
2.51077
2.45434
2.46513
2.49934
2.34665
2.42626
2.29063
2.29104
2.28571
2.28605
2.40108
2.3469
2.40303
2.34129
2.35699
2.47722
2.35623
2.62351
2.43928
2.54836
2.48129
2.4671
2.47215
2.50237
2.40534
2.42792
2.38744
2.43828
2.46682
2.41916
2.41271
2.41668
2.43109
2.44079
2.3604
2.29492
2.29962
2.34851
2.3878
2.34388
2.28813
2.36382
2.4837
2.3522
2.40097
2.30058
2.30668
1.99481
2.13
1.97599
2.50938
2.48658
2.48492
2.42886
2.39328
2.42965
2.40964
2.32755
2.62922
2.49457
2.35844
2.34818
2.34659
2.39081
2.37839
2.38658
2.36797
2.37763
2.38139
2.28736
2.28732
2.36858
2.37085
2.33796
2.45448
2.37541
2.49404
2.50882
2.49228
1.96759
2.10544
2.38692
2.41328
2.37207
2.52343
2.3597
1.94379
2.15415
2.28654
2.286
2.28629
2.35174
2.47142
2.34325
1.9971
2.1112
2.23787
2.26275
2.02709
2.19271
2.36043
2.39855
2.41134
2.35251
2.4632
2.36672
2.37335
2.47924
2.48353
2.52329
2.30352
1.96663
2.09883
1.95828
2.10266
2.40109
2.34801
2.37626
2.47436
2.38037
2.63099
2.48945
2.51184
2.37087
1.94459
2.02986
2.16473
2.13827
2.16035
2.27509
2.10126
2.22933
2.4933
2.41638
2.08866
2.16375
1.97232
2.13648
2.51184
2.43465
2.19045
2.48709
2.34945
2.36139
2.46241
2.11057
1.94569
2.10125
2.57049
2.28744
2.28627
2.28712
2.49653
2.35575
2.61889
2.35914
2.37267
1.99765
2.14285
2.58531
2.48141
2.65407
2.47872
2.48743
2.45046
2.59125
2.55512
1.97105
2.12509
2.10035
1.95919
2.12408
1.93292
2.48546
2.36674
2.49395
2.24442
2.31823
2.29114
2.2907
2.28844
2.28974
2.289
1.9421
2.08583
2.34869
2.36699
2.34624
2.38661
2.64329
2.53734
2.63306
2.45048
2.48902
2.37547
2.08713
1.96441
2.10828
2.48906
2.5724
2.50938
2.47066
2.08263
1.94737
2.09482
2.24596
2.36589
2.32354
2.20145
2.37218
2.28906
1.9507
2.27461
2.38688
2.32839
2.10647
2.25351
2.27993
2.59185
2.3574
2.32774
2.3641
2.42105
2.44879
2.41301
2.47937
2.48677
2.6057
2.29
2.2884
2.28977
2.55197
2.37788
2.53097
2.43614
2.42932
2.05714
2.2163
2.36044
2.51591
2.35372
2.31154
2.49687
2.37316
2.34924
2.4267
1.94177
2.58585
2.37371
2.39482
2.3648
2.3535
2.2942
2.292
2.29438
1.95853
2.34835
2.42709
2.37036
1.96743
2.09232
2.39328
2.46121
2.39655
1.93803
2.07183
2.67481
2.3841
2.39706
2.4632
2.36257
2.39215
2.42261
2.35401
2.42453
1.94076
2.07853
2.07285
2.54568
1.94962
2.49384
2.50929
2.51779
2.61261
2.50344
2.96632
2.6003
2.06683
2.21996
2.43172
2.35786
2.36582
2.57381
2.16829
2.02971
2.65772
2.42518
1.90878
2.06333
1.96154
2.0982
2.0981
2.55995
2.34701
2.37555
2.10348
1.91105
2.06399
2.9139
2.68392
2.56982
2.38327
2.38554
2.3715
2.39021
1.93944
2.0944
2.08669
2.53416
2.38872
2.35572
2.74315
2.49382
2.58275
2.50668
2.48272
2.08034
1.89832
2.0671
2.40692
2.34436
1.96542
2.11631
2.11139
2.31082
2.40179
2.35927
2.49451
2.62844
2.38801
2.45633
2.571
2.46247
2.6338
2.36867
2.38512
1.98146
2.12598
2.12112
2.65412
2.38619
2.39586
2.03563
2.18689
2.44379
2.56838
2.36492
2.63719
2.39236
2.15546
2.44544
2.40125
2.53726
2.46391
2.46502
2.39111
2.3996
2.38223
2.36041
2.39107
2.02157
2.13863
2.46051
2.30458
2.30518
1.9854
2.11033
1.99662
2.09075
2.3511
2.28489
2.28561
2.21653
2.18148
2.22425
2.30301
2.34723
2.33378
2.30461
2.22366
2.2973
2.32851
2.29723
2.28456
2.25862
2.30972
2.2987
2.33466
2.25495
2.3041
2.30552
2.2759
2.29078
2.29528
2.26718
2.26847
2.34553
2.34756
2.32093
2.2616
2.3004
2.29815
2.29719
2.32752
2.29363
2.2897
2.19993
2.3319
2.30163
2.30564
2.2097
2.20933
2.28852
2.30699
2.30255
2.30143
2.30058
2.32293
2.32271
2.31996
2.33157
2.33833
2.28465
2.29013
2.20086
2.34246
2.33251
2.3415
2.26645
2.35042
2.27714
2.28665
2.29044
2.2871
2.28873
2.21377
2.30401
2.25398
2.28964
2.28596
2.32942
2.26999
2.26504
2.24414
2.26922
2.26653
2.26636
2.24991
2.24729
2.31083
2.28196
2.21907
2.21346
2.25737
2.21696
2.23596
2.3288
2.28525
2.30075
2.33046
2.29385
2.28868
2.29223
2.27374
2.29027
2.30759
2.30036
2.29627
2.27304
2.27873
2.32431
2.31707
2.32191
2.30316
2.32356
2.32251
2.31884
2.32209
2.23532
2.22331
2.32762
2.28496
2.20102
2.29279
2.29245
2.27106
2.29289
2.29463
2.28167
2.30412
2.36303
2.35219
2.35289
2.29766
2.27927
2.29671
2.29326
2.29314
2.3047
2.29397
2.31858
2.27326
2.21304
2.28061
2.30243
2.29873
2.30063
2.30448
2.30199
2.32597
2.30316
2.28443
2.28322
2.28433
2.34172
2.33671
2.22495
2.35138
2.20537
2.28709
2.28086
2.26373
2.34043
2.33617
2.34129
2.29695
2.34452
2.34279
2.3499
2.35578
2.30546
2.29419
2.30994
2.22583
2.22157
2.28471
2.28692
2.28193
2.28037
2.30166
2.30069
2.3002
2.29817
2.35688
2.34831
2.3267
2.27928
2.25551
2.32888
2.2713
2.33555
2.33652
2.33245
2.33839
2.33462
2.35965
2.32995
2.33015
2.33272
2.23562
2.27172
2.3011
2.30477
2.30883
2.30487
2.29843
2.30632
2.22873
2.33923
2.33503
2.338
2.27953
2.29462
2.29389
2.28293
2.29062
2.32886
2.33441
2.27705
2.35802
2.36518
2.32466
2.30892
2.28009
2.28094
2.27854
2.31813
2.20628
2.33123
2.31996
2.3143
2.28618
2.28591
2.28663
2.2867
2.28638
2.34703
2.36402
2.26562
2.34178
2.33081
2.29074
2.31828
2.3251
2.32912
2.32516
2.29615
2.25302
2.25646
2.26043
2.25029
2.28673
2.29653
2.29991
2.24846
2.27158
2.29377
2.28207
2.28003
2.29882
2.29423
2.29351
2.29401
2.28592
2.30641
2.30968
2.3039
2.29661
2.30081
2.30228
2.29848
2.28563
2.28586
2.20943
2.22696
2.2308
2.2757
2.29649
2.31262
2.30734
2.30462
2.30082
2.29647
2.30021
2.26877
2.2733
2.27445
2.33967
2.33995
2.33858
2.3396
2.3036
2.29753
2.29957
2.33679
2.326
2.33142
2.29153
2.33982
2.32951
2.36522
2.36167
2.38252
2.18884
2.29909
2.29954
2.29975
2.28949
2.29068
2.28361
2.28347
2.2924
2.32728
2.32967
2.29666
2.31285
2.32951
2.32668
2.32128
2.32245
2.33604
2.29129
2.28229
2.28758
2.28032
2.32473
2.3248
2.3268
2.33654
2.33702
2.33863
2.17215
2.29649
2.26546
2.28608
2.33204
2.33067
2.26725
2.26316
2.34804
2.33757
2.21793
2.33231
2.30799
2.28096
2.26273
2.32524
2.29591
2.29315
2.28921
2.32403
2.26886
2.26551
2.30194
2.30595
2.30134
2.32337
2.28752
2.28884
2.28815
2.21115
2.28596
2.28567
2.33476
2.34229
2.34388
2.3427
2.33731
2.33366
2.27136
2.27367
2.27614
2.26264
2.29153
2.30147
2.29972
2.31356
2.31861
2.32164
2.27863
2.29069
2.28617
2.26241
2.33499
2.2864
2.32702
2.30424