/*--------------------------------*- C++ -*----------------------------------*\
| =========                 |                                                 |
| \\      /  F ield         | OpenFOAM: The Open Source CFD Toolbox           |
|  \\    /   O peration     | Version:  2206                                  |
|   \\  /    A nd           | Website:  www.openfoam.com                      |
|    \\/     M anipulation  |                                                 |
\*---------------------------------------------------------------------------*/
FoamFile
{
    version     2.0;
    format      ascii;
    arch        "LSB;label=32;scalar=64";
    class       volScalarField;
    location    "20";
    object      nut;
}
// * * * * * * * * * * * * * * * * * * * * * * * * * * * * * * * * * * * * * //

dimensions      [0 2 -1 0 0 0 0];

internalField   nonuniform List<scalar> 
184166
(
0.193741
0.192561
0.192674
0.193414
0.193394
0.192812
0.191524
0.19278
0.193756
0.19383
0.19314
0.192757
0.192789
0.193013
0.193917
0.193788
0.193335
0.19285
0.19249
0.193917
0.192338
0.19268
0.192789
0.193644
0.193138
0.19387
0.193356
0.192967
0.193969
0.192767
0.193628
0.191201
0.194631
0.193462
0.193284
0.192784
0.192752
0.193243
0.192991
0.192092
0.193218
0.192794
0.194062
0.19313
0.193229
0.193031
0.191984
0.19357
0.192863
0.193973
0.19201
0.191445
0.192248
0.192989
0.193154
0.192797
0.193093
0.193247
0.194333
0.193383
0.192779
0.193258
0.193737
0.192992
0.19474
0.190892
0.192119
0.194108
0.191666
0.194241
0.192624
0.193781
0.19394
0.193738
0.192539
0.192962
0.192509
0.193679
0.192299
0.191652
0.191925
0.192384
0.193961
0.192935
0.193763
0.193284
0.192642
0.192344
0.192961
0.192304
0.191353
0.193592
0.193692
0.193637
0.193136
0.192528
0.19317
0.191438
0.192329
0.19343
0.192747
0.192783
0.193715
0.193975
0.191797
0.192561
0.193445
0.193409
0.191607
0.192768
0.192084
0.194165
0.19133
0.192396
0.194059
0.193289
0.19305
0.19243
0.191276
0.192242
0.193691
0.192795
0.193067
0.192976
0.192962
0.193005
0.193098
0.193045
0.193955
0.193872
0.192725
0.192999
0.19305
0.192886
0.19224
0.192788
0.192297
0.193119
0.192965
0.192072
0.19263
0.191461
0.19155
0.192793
0.19302
0.194045
0.192621
0.194041
0.193004
0.194751
0.194055
0.194272
0.193625
0.193398
0.194072
0.194378
0.193675
0.193588
0.193587
0.192238
0.191412
0.191621
0.192893
0.192297
0.192346
0.193144
0.194026
0.194013
0.191576
0.194082
0.193151
0.192829
0.19272
0.19373
0.193
0.19164
0.191807
0.193841
0.193929
0.193123
0.19145
0.192919
0.193016
0.194004
0.193896
0.192631
0.194251
0.193671
0.191563
0.192947
0.192901
0.194067
0.192803
0.191622
0.193077
0.194022
0.193787
0.193456
0.19302
0.193731
0.193217
0.19401
0.191107
0.19281
0.191961
0.193362
0.19277
0.192745
0.192679
0.192778
0.194199
0.19292
0.192786
0.193369
0.192296
0.19257
0.193395
0.192952
0.19164
0.191715
0.192308
0.19271
0.192752
0.192931
0.191833
0.192753
0.192282
0.193114
0.19309
0.193092
0.194681
0.191852
0.192502
0.192935
0.193503
0.192853
0.194489
0.194042
0.192947
0.191444
0.191176
0.193806
0.192559
0.193913
0.192302
0.193417
0.194021
0.19276
0.193799
0.194186
0.193269
0.194302
0.194091
0.192772
0.193182
0.193885
0.193864
0.194001
0.193061
0.192851
0.193054
0.192209
0.193142
0.192515
0.193942
0.192538
0.193743
0.192164
0.192794
0.193352
0.193862
0.191863
0.193068
0.194342
0.192792
0.192893
0.190933
0.193472
0.19247
0.193435
0.192747
0.194995
0.1933
0.193077
0.192148
0.192764
0.193169
0.19439
0.192664
0.192995
0.193703
0.193434
0.193945
0.193239
0.193941
0.19352
0.192778
0.193598
0.193377
0.194363
0.193001
0.192786
0.19175
0.194017
0.19422
0.192969
0.192884
0.192984
0.191864
0.191877
0.193043
0.194516
0.193929
0.194066
0.194162
0.193595
0.192701
0.193425
0.19288
0.193453
0.192456
0.192471
0.193378
0.193603
0.192891
0.191841
0.192799
0.192706
0.192738
0.193008
0.193201
0.192131
0.192126
0.193831
0.191714
0.193029
0.192818
0.192784
0.194095
0.193376
0.192819
0.193937
0.194824
0.194073
0.193064
0.194097
0.19203
0.191372
0.192373
0.191996
0.191825
0.193107
0.194255
0.192116
0.19233
0.194007
0.193811
0.192938
0.194016
0.194077
0.192429
0.191212
0.193852
0.192245
0.193618
0.193533
0.191833
0.192175
0.192216
0.191316
0.191106
0.194338
0.194707
0.193767
0.193806
0.193562
0.192946
0.193982
0.192757
0.193416
0.193523
0.193653
0.193954
0.193742
0.193126
0.193476
0.193659
0.192464
0.192363
0.192462
0.193144
0.19304
0.193146
0.191566
0.192758
0.191891
0.193828
0.192671
0.19271
0.192928
0.194261
0.192866
0.194203
0.192988
0.192223
0.192883
0.19342
0.193506
0.19364
0.192255
0.192753
0.192519
0.192446
0.19242
0.192455
0.192459
0.193083
0.191956
0.191874
0.191712
0.194494
0.192993
0.19295
0.193046
0.193495
0.191862
0.191805
0.19183
0.192702
0.192688
0.192666
0.191345
0.194382
0.194046
0.194228
0.194128
0.19393
0.194017
0.19324
0.193233
0.192893
0.192876
0.193008
0.192948
0.192962
0.192873
0.193084
0.193146
0.193707
0.193908
0.193673
0.193587
0.193683
0.193898
0.193497
0.193058
0.192981
0.192966
0.192974
0.193367
0.192945
0.191382
0.19114
0.191189
0.191193
0.191772
0.191561
0.191838
0.192906
0.192941
0.192948
0.192941
0.193111
0.193141
0.19283
0.192736
0.192778
0.193105
0.193938
0.193919
0.193882
0.193962
0.191467
0.191201
0.192795
0.192799
0.192781
0.192738
0.192768
0.192715
0.19338
0.192887
0.192805
0.192858
0.192833
0.193626
0.193085
0.193346
0.19345
0.193408
0.193182
0.193204
0.193085
0.193034
0.193059
0.193047
0.193082
0.193011
0.192223
0.193445
0.193438
0.191309
0.19125
0.191239
0.193025
0.193467
0.193511
0.194016
0.193836
0.193937
0.194076
0.194128
0.19414
0.192833
0.192922
0.192906
0.192873
0.193293
0.193231
0.193845
0.193485
0.194805
0.19439
0.194745
0.194065
0.194159
0.194088
0.193695
0.193701
0.19382
0.193744
0.193666
0.193753
0.19301
0.193034
0.192927
0.19286
0.191787
0.192747
0.192627
0.19252
0.192685
0.192607
0.192659
0.192639
0.192506
0.192494
0.192517
0.192298
0.193653
0.193638
0.193584
0.193506
0.193531
0.193425
0.193283
0.19337
0.192988
0.192875
0.193524
0.193502
0.193496
0.193194
0.193596
0.194288
0.191477
0.191622
0.191659
0.191723
0.191775
0.191888
0.193743
0.193317
0.193901
0.193512
0.193732
0.193611
0.194075
0.193957
0.193386
0.193322
0.193927
0.193875
0.193836
0.191221
0.192882
0.192807
0.192795
0.19354
0.193594
0.193536
0.193573
0.193607
0.193776
0.193671
0.193679
0.193161
0.193095
0.193155
0.192801
0.192684
0.192844
0.192674
0.194061
0.194163
0.194092
0.194177
0.194067
0.194062
0.193996
0.194094
0.192822
0.192873
0.192871
0.192852
0.19373
0.193818
0.192945
0.192883
0.192871
0.192844
0.19292
0.193017
0.193543
0.193943
0.192842
0.192892
0.193179
0.193015
0.193135
0.193136
0.192922
0.194126
0.194399
0.194146
0.194043
0.194007
0.194275
0.194124
0.193967
0.191824
0.192044
0.192932
0.192967
0.193072
0.192991
0.192851
0.193697
0.1936
0.193672
0.19364
0.193584
0.193584
0.191691
0.19398
0.193661
0.194049
0.193784
0.192806
0.193094
0.193097
0.192999
0.194845
0.194409
0.194793
0.191759
0.191659
0.191573
0.19178
0.191828
0.191584
0.193368
0.192184
0.192385
0.193396
0.193395
0.193464
0.192817
0.192793
0.192828
0.192795
0.192782
0.192787
0.194095
0.194423
0.194108
0.193997
0.194428
0.19477
0.192626
0.192593
0.193351
0.19282
0.192636
0.192651
0.192037
0.192428
0.193124
0.193257
0.193282
0.193237
0.19323
0.19278
0.192761
0.192769
0.192768
0.19236
0.192713
0.19413
0.194224
0.194221
0.192802
0.192955
0.192856
0.192857
0.192917
0.193259
0.192744
0.192691
0.193443
0.193656
0.193603
0.193674
0.193079
0.193131
0.192743
0.192734
0.192746
0.193337
0.19297
0.193387
0.193554
0.192776
0.192889
0.191427
0.191247
0.191375
0.193768
0.19228
0.192643
0.192239
0.193395
0.192828
0.193866
0.193651
0.192917
0.192979
0.192899
0.192953
0.192877
0.192654
0.192868
0.19261
0.192784
0.192755
0.192771
0.192767
0.192768
0.192779
0.192756
0.192752
0.192738
0.193376
0.192274
0.192784
0.192781
0.192743
0.193734
0.193437
0.193652
0.193596
0.193966
0.193999
0.193876
0.1941
0.192852
0.192841
0.192734
0.192127
0.192094
0.19154
0.191588
0.191747
0.191607
0.192716
0.192315
0.192327
0.19242
0.192581
0.19264
0.192885
0.192906
0.193852
0.193725
0.193692
0.193859
0.192902
0.193013
0.193124
0.192613
0.192767
0.192758
0.192796
0.192776
0.191123
0.191066
0.193769
0.193754
0.19139
0.191498
0.19142
0.191604
0.19329
0.191954
0.192165
0.192021
0.192015
0.192682
0.192714
0.192746
0.192753
0.193343
0.192994
0.193086
0.192952
0.192886
0.192898
0.192974
0.19293
0.19265
0.192637
0.192755
0.19264
0.192758
0.192218
0.193021
0.193039
0.193
0.193509
0.192991
0.192899
0.192814
0.192759
0.192725
0.192843
0.191159
0.191098
0.193587
0.193385
0.193243
0.193397
0.193068
0.193636
0.191058
0.190995
0.19305
0.193011
0.193738
0.193687
0.193553
0.192114
0.193131
0.192394
0.192943
0.191344
0.191341
0.193809
0.193882
0.193903
0.193851
0.193837
0.19391
0.191794
0.191912
0.1922
0.192138
0.193125
0.19388
0.193033
0.193092
0.191451
0.19175
0.193718
0.193682
0.193986
0.193852
0.192851
0.192846
0.192825
0.192844
0.193984
0.193813
0.193981
0.191984
0.192541
0.19207
0.192807
0.192813
0.192829
0.192817
0.193126
0.193235
0.193199
0.193439
0.193674
0.193825
0.193728
0.193597
0.193622
0.193631
0.193248
0.193147
0.193256
0.193933
0.194165
0.192903
0.192634
0.192496
0.192543
0.192778
0.192774
0.192755
0.192772
0.192759
0.192778
0.192741
0.192992
0.192917
0.192907
0.192908
0.192728
0.193395
0.193894
0.193209
0.193077
0.193059
0.192645
0.193749
0.193595
0.19367
0.19377
0.192242
0.192174
0.192172
0.192194
0.192158
0.192857
0.192975
0.192975
0.193337
0.193335
0.193191
0.193402
0.193842
0.193821
0.193247
0.19295
0.193256
0.193274
0.193357
0.192811
0.192826
0.192569
0.192867
0.192826
0.192887
0.192882
0.192859
0.193728
0.193802
0.194004
0.193749
0.193716
0.193664
0.193689
0.193625
0.194802
0.193226
0.193186
0.193109
0.192722
0.192743
0.192786
0.192774
0.192664
0.193093
0.193208
0.193243
0.193221
0.192397
0.192488
0.192376
0.19189
0.193345
0.193012
0.192997
0.193014
0.19355
0.193729
0.192929
0.192931
0.192958
0.192939
0.192971
0.192982
0.19125
0.191428
0.191411
0.190943
0.193947
0.193871
0.19394
0.193914
0.193361
0.193383
0.193393
0.193918
0.193994
0.194
0.193715
0.193998
0.194203
0.193277
0.192695
0.193022
0.192505
0.192795
0.19283
0.192828
0.192825
0.193771
0.19337
0.19339
0.193035
0.193218
0.192469
0.192488
0.193329
0.192727
0.193144
0.193113
0.192665
0.192533
0.19331
0.193011
0.192999
0.193562
0.193772
0.193825
0.193679
0.193552
0.191551
0.191539
0.191525
0.192579
0.192547
0.193388
0.193727
0.193261
0.193264
0.192805
0.1928
0.191904
0.191534
0.193071
0.192837
0.192862
0.193886
0.193772
0.192905
0.192884
0.19289
0.191449
0.191536
0.191354
0.194672
0.19463
0.194316
0.194337
0.191082
0.190774
0.192761
0.192624
0.192474
0.192155
0.192
0.194316
0.194058
0.194001
0.194094
0.194013
0.191411
0.191745
0.191639
0.191447
0.191568
0.192654
0.192976
0.192994
0.192944
0.192745
0.192839
0.193315
0.192954
0.19294
0.192993
0.192966
0.193267
0.193888
0.19402
0.193915
0.193859
0.192672
0.1927
0.192715
0.192671
0.193142
0.193001
0.194013
0.194094
0.194004
0.194147
0.19318
0.193191
0.192951
0.192836
0.192826
0.192723
0.192368
0.191691
0.19172
0.192104
0.191617
0.192466
0.191719
0.191846
0.192008
0.193052
0.193155
0.193956
0.19276
0.192798
0.192762
0.19278
0.192773
0.192909
0.192862
0.191516
0.191038
0.191713
0.191618
0.19324
0.192872
0.192079
0.191299
0.191486
0.191072
0.190976
0.192792
0.192806
0.192799
0.192769
0.192774
0.193364
0.192214
0.191987
0.191561
0.191604
0.191618
0.191548
0.191484
0.192822
0.192274
0.192834
0.192836
0.192818
0.192792
0.193175
0.193572
0.192868
0.192889
0.192841
0.191384
0.191322
0.192775
0.192777
0.192432
0.192421
0.1924
0.193812
0.193916
0.19389
0.194111
0.193916
0.193966
0.194155
0.194149
0.194319
0.191445
0.191903
0.19185
0.19177
0.191546
0.192045
0.192051
0.191166
0.191571
0.192893
0.192911
0.192905
0.192907
0.191813
0.191692
0.191921
0.191894
0.192862
0.19288
0.19276
0.19284
0.192567
0.192745
0.192619
0.192723
0.192928
0.192916
0.192973
0.192789
0.192114
0.193311
0.192996
0.192732
0.19318
0.191469
0.192138
0.19228
0.193145
0.192685
0.193088
0.1924
0.193072
0.193093
0.193255
0.19311
0.193024
0.192989
0.192365
0.192368
0.193568
0.193801
0.193128
0.193354
0.193194
0.193229
0.192847
0.192989
0.193027
0.192822
0.192796
0.192718
0.194088
0.194055
0.193785
0.194052
0.193699
0.193721
0.192755
0.192781
0.191184
0.191309
0.19132
0.191148
0.19111
0.19132
0.191558
0.191381
0.192672
0.192703
0.192708
0.192681
0.192683
0.192906
0.193085
0.192986
0.192905
0.192997
0.194151
0.194253
0.194216
0.194062
0.192473
0.192529
0.1915
0.191478
0.19147
0.191384
0.191398
0.192914
0.19288
0.19318
0.193392
0.193349
0.19336
0.193604
0.193269
0.19349
0.193497
0.193312
0.193307
0.19326
0.193144
0.192914
0.192887
0.192936
0.193421
0.193192
0.192848
0.193266
0.1931
0.194072
0.194033
0.194069
0.194018
0.192937
0.193102
0.192624
0.193832
0.193747
0.193682
0.19372
0.193002
0.190893
0.19286
0.192873
0.192945
0.192853
0.193554
0.193952
0.193614
0.193749
0.19387
0.190865
0.190664
0.19101
0.19158
0.191693
0.191406
0.191527
0.193153
0.193097
0.193177
0.193394
0.193088
0.192799
0.192689
0.192838
0.192815
0.191911
0.192418
0.191787
0.192571
0.192476
0.192636
0.192587
0.192525
0.192683
0.192559
0.192672
0.193135
0.19171
0.192886
0.192631
0.192519
0.192302
0.192276
0.192258
0.192603
0.192484
0.192467
0.193407
0.19302
0.192874
0.192849
0.192749
0.192745
0.192745
0.192722
0.192758
0.192715
0.192995
0.192966
0.193063
0.193375
0.193563
0.193798
0.192835
0.192789
0.193719
0.193299
0.193566
0.19317
0.190795
0.190952
0.193067
0.193619
0.193509
0.193766
0.193729
0.192813
0.192805
0.192783
0.191334
0.191421
0.191461
0.191278
0.191317
0.19307
0.193028
0.19085
0.192801
0.192184
0.192755
0.192612
0.192116
0.192443
0.192415
0.192269
0.193279
0.193188
0.193336
0.19462
0.194557
0.194032
0.193113
0.193228
0.191541
0.191514
0.191407
0.191412
0.191339
0.191637
0.19405
0.191274
0.191014
0.190964
0.191272
0.191182
0.192995
0.192912
0.192916
0.192671
0.193065
0.192441
0.192494
0.192332
0.19176
0.192102
0.191838
0.193217
0.193348
0.193368
0.193521
0.193456
0.193032
0.192918
0.191722
0.191757
0.193187
0.193122
0.193079
0.193075
0.192612
0.192888
0.192829
0.192803
0.192631
0.192642
0.1925
0.192638
0.19256
0.192517
0.192545
0.192776
0.192785
0.192764
0.192768
0.192781
0.192761
0.19341
0.193352
0.193336
0.193358
0.193348
0.191666
0.191424
0.192261
0.191993
0.192557
0.192036
0.193204
0.193052
0.193247
0.193241
0.192729
0.19273
0.192715
0.193611
0.193234
0.192615
0.193234
0.191144
0.191574
0.192725
0.192636
0.192903
0.192864
0.192883
0.192691
0.191138
0.191061
0.190768
0.191135
0.190978
0.19379
0.193802
0.193478
0.193469
0.193449
0.19272
0.192847
0.192687
0.192297
0.192349
0.192245
0.192227
0.1917
0.191754
0.191701
0.191464
0.192532
0.192871
0.192712
0.19277
0.192485
0.192505
0.193705
0.193192
0.19332
0.19286
0.193258
0.192957
0.193704
0.191628
0.192134
0.191774
0.191805
0.193272
0.193139
0.193458
0.19326
0.193169
0.191492
0.191311
0.191435
0.1948
0.194849
0.192813
0.192788
0.192697
0.191848
0.192054
0.192165
0.191612
0.193291
0.193209
0.193566
0.193472
0.193577
0.19338
0.193179
0.193427
0.193367
0.193372
0.192767
0.192729
0.192121
0.192612
0.191826
0.194105
0.193097
0.192876
0.19289
0.192357
0.192849
0.192569
0.192818
0.191075
0.192416
0.19227
0.192393
0.192391
0.19227
0.192299
0.191126
0.191057
0.191526
0.191056
0.192468
0.192443
0.192418
0.192404
0.192468
0.192478
0.192439
0.192459
0.192872
0.192464
0.192982
0.192847
0.192647
0.193963
0.191223
0.191056
0.191491
0.191059
0.193887
0.193508
0.193525
0.194054
0.193558
0.192677
0.191958
0.193806
0.193825
0.193677
0.191721
0.191986
0.191771
0.191712
0.192156
0.192279
0.192497
0.192676
0.192844
0.192844
0.193503
0.193302
0.193186
0.193091
0.193125
0.192586
0.192978
0.193226
0.192625
0.192849
0.193808
0.193714
0.193953
0.193951
0.194394
0.191013
0.190761
0.193779
0.193907
0.194207
0.194167
0.193761
0.193807
0.192868
0.192902
0.192854
0.192791
0.192886
0.192894
0.193644
0.193896
0.193711
0.193688
0.193814
0.194112
0.19365
0.193783
0.190561
0.19074
0.191094
0.190847
0.193365
0.193257
0.193921
0.194332
0.194188
0.19345
0.193505
0.193309
0.193653
0.193718
0.193876
0.19367
0.193736
0.192818
0.192588
0.19234
0.192235
0.192441
0.19233
0.192206
0.192322
0.192296
0.192387
0.192643
0.192629
0.192881
0.192879
0.19279
0.192528
0.191268
0.19133
0.193514
0.193564
0.192526
0.192401
0.192416
0.1923
0.192382
0.192381
0.191974
0.191783
0.191694
0.191682
0.191649
0.191856
0.1916
0.192932
0.192786
0.192862
0.192651
0.193364
0.19335
0.19313
0.193141
0.193257
0.193258
0.194253
0.194007
0.193962
0.194064
0.194213
0.192879
0.192899
0.192587
0.192515
0.192523
0.193108
0.193453
0.193249
0.193442
0.192737
0.192711
0.190855
0.190321
0.191608
0.192033
0.192286
0.191675
0.191439
0.191603
0.191666
0.191456
0.193885
0.193767
0.19373
0.19386
0.193991
0.193081
0.19314
0.191298
0.191164
0.19125
0.191161
0.19161
0.191671
0.191727
0.191981
0.192192
0.191596
0.19103
0.191007
0.19079
0.193811
0.193648
0.193709
0.19321
0.193896
0.192483
0.192469
0.191936
0.193522
0.193457
0.19338
0.193355
0.191796
0.192464
0.191537
0.192053
0.191572
0.191737
0.191444
0.192062
0.192101
0.19147
0.191255
0.19295
0.193007
0.194729
0.19442
0.194277
0.193415
0.192523
0.192853
0.193558
0.193587
0.193628
0.193929
0.193876
0.194057
0.192154
0.192206
0.191716
0.191808
0.192119
0.191711
0.193001
0.192969
0.192996
0.192995
0.192759
0.192704
0.192696
0.19267
0.192676
0.191805
0.191166
0.19129
0.192216
0.193144
0.192326
0.192749
0.193243
0.193516
0.192755
0.193079
0.192937
0.192978
0.193055
0.19287
0.192799
0.192988
0.193127
0.193119
0.191079
0.191075
0.191142
0.191268
0.192932
0.192899
0.191962
0.191945
0.193227
0.193114
0.193269
0.193159
0.190635
0.190774
0.191049
0.191893
0.19164
0.191327
0.192686
0.192632
0.19287
0.192877
0.192843
0.192831
0.192191
0.192144
0.192872
0.190603
0.192496
0.19251
0.192424
0.192489
0.192416
0.192483
0.19257
0.192563
0.192573
0.192462
0.192336
0.192333
0.192506
0.193104
0.193112
0.191389
0.191387
0.191237
0.192873
0.192857
0.192879
0.192763
0.192744
0.192685
0.193232
0.193318
0.193048
0.193178
0.193054
0.19317
0.192865
0.193242
0.193203
0.193044
0.193086
0.192731
0.192705
0.192708
0.192699
0.192716
0.192704
0.192626
0.19254
0.19269
0.192653
0.193352
0.193142
0.193255
0.193173
0.193221
0.193298
0.193701
0.193407
0.193575
0.193513
0.193345
0.193927
0.193889
0.193425
0.193762
0.193473
0.192747
0.192777
0.192743
0.192752
0.192727
0.194166
0.193898
0.190733
0.192133
0.191863
0.192002
0.192928
0.192472
0.192162
0.192056
0.192072
0.194558
0.194232
0.194416
0.194816
0.193066
0.192899
0.193894
0.193888
0.193386
0.193611
0.19372
0.193441
0.19273
0.192761
0.193939
0.1941
0.194014
0.193925
0.192515
0.19212
0.191702
0.192512
0.191463
0.192001
0.192145
0.191654
0.193816
0.193767
0.193709
0.195116
0.191556
0.1921
0.192175
0.192786
0.19278
0.192411
0.192414
0.19313
0.192962
0.195993
0.19443
0.194218
0.19411
0.193553
0.192671
0.193178
0.192512
0.191931
0.19331
0.193213
0.193156
0.193209
0.19421
0.194076
0.194016
0.193999
0.193897
0.193854
0.194073
0.193949
0.19379
0.192491
0.192406
0.192989
0.191896
0.191696
0.191975
0.191996
0.192795
0.192822
0.192824
0.192809
0.19281
0.192815
0.192731
0.192747
0.192731
0.192546
0.192913
0.193285
0.192968
0.192433
0.192808
0.19278
0.192781
0.192789
0.192765
0.192759
0.193224
0.193321
0.193209
0.193206
0.193234
0.193237
0.193771
0.193778
0.193953
0.193894
0.193751
0.193649
0.193901
0.193829
0.193766
0.193728
0.193746
0.193376
0.193192
0.193228
0.192794
0.191229
0.193095
0.193239
0.192833
0.192835
0.192811
0.192795
0.192784
0.192659
0.192645
0.192641
0.192681
0.192685
0.19276
0.192735
0.192752
0.192761
0.192752
0.19136
0.191369
0.191308
0.191341
0.191172
0.191343
0.191886
0.191424
0.190972
0.191394
0.191297
0.191307
0.191767
0.193538
0.193662
0.193862
0.19378
0.193791
0.190594
0.193359
0.19338
0.193228
0.193416
0.193465
0.192991
0.193161
0.193378
0.193146
0.193174
0.19272
0.192727
0.192744
0.192681
0.192652
0.191907
0.192274
0.192797
0.192446
0.191583
0.191587
0.191611
0.191765
0.191468
0.19145
0.192304
0.192217
0.192107
0.192082
0.192172
0.192014
0.192977
0.192914
0.191053
0.19083
0.190967
0.19151
0.191473
0.194002
0.194046
0.193838
0.193633
0.193911
0.193987
0.193971
0.193966
0.194034
0.193918
0.193808
0.194134
0.193877
0.193619
0.193464
0.193133
0.193283
0.193123
0.191845
0.191694
0.19277
0.192691
0.192533
0.192926
0.192925
0.191093
0.190747
0.192126
0.191868
0.191275
0.192266
0.19136
0.191365
0.193332
0.19333
0.193485
0.19353
0.193389
0.192791
0.192793
0.193129
0.193093
0.193125
0.193342
0.193001
0.193073
0.192948
0.192863
0.192849
0.192946
0.194861
0.195609
0.192494
0.192453
0.192438
0.192435
0.192426
0.193202
0.193094
0.193163
0.192783
0.192538
0.192485
0.1926
0.192617
0.192644
0.19266
0.192613
0.192583
0.192595
0.192613
0.192689
0.192684
0.192668
0.192661
0.192746
0.192728
0.192709
0.192724
0.192724
0.193396
0.193014
0.193473
0.19366
0.193721
0.193844
0.193466
0.193688
0.192487
0.192607
0.192486
0.192927
0.192914
0.19297
0.192932
0.192916
0.192924
0.192836
0.192833
0.192883
0.192869
0.192812
0.192786
0.192759
0.192642
0.192672
0.19257
0.19277
0.192758
0.192706
0.193021
0.193262
0.193257
0.193197
0.193179
0.193255
0.192911
0.193059
0.192763
0.192887
0.192641
0.193225
0.193188
0.193235
0.193245
0.19331
0.191007
0.191211
0.190627
0.192729
0.192725
0.192743
0.19333
0.193415
0.19348
0.193262
0.193151
0.190736
0.191117
0.194105
0.194031
0.193972
0.194057
0.190592
0.190764
0.190169
0.193226
0.193273
0.193018
0.193012
0.193114
0.192883
0.192983
0.19304
0.193019
0.193081
0.193026
0.192936
0.191867
0.191846
0.192002
0.191852
0.191872
0.192333
0.192045
0.19237
0.192317
0.19268
0.192823
0.192703
0.193366
0.193769
0.1938
0.191389
0.191501
0.191566
0.191709
0.192041
0.192739
0.192726
0.192751
0.192733
0.192725
0.19273
0.192729
0.192703
0.194288
0.19456
0.194756
0.193716
0.193789
0.194341
0.193014
0.193469
0.193368
0.193409
0.19312
0.193098
0.191935
0.191506
0.1919
0.191984
0.191708
0.191623
0.192829
0.192479
0.192661
0.19285
0.192049
0.19176
0.19326
0.193235
0.19319
0.193165
0.193174
0.193216
0.194377
0.194649
0.194406
0.192986
0.192603
0.192188
0.191047
0.191015
0.190843
0.190856
0.19087
0.191076
0.192653
0.192644
0.192804
0.193072
0.192893
0.192539
0.192517
0.191396
0.191521
0.191534
0.191427
0.191667
0.191848
0.191731
0.19211
0.192321
0.192157
0.191961
0.191517
0.191651
0.191675
0.191606
0.190672
0.190829
0.192461
0.192371
0.192366
0.192282
0.192345
0.192907
0.192882
0.192869
0.192874
0.19288
0.192872
0.1929
0.192798
0.192851
0.192841
0.192852
0.19289
0.193302
0.193641
0.193536
0.193425
0.192722
0.192665
0.192615
0.192591
0.192714
0.192582
0.192759
0.192785
0.193067
0.193037
0.193072
0.193112
0.193981
0.19413
0.193793
0.193726
0.193772
0.192368
0.192416
0.192406
0.192373
0.192405
0.192423
0.192896
0.192827
0.192867
0.192818
0.192772
0.192802
0.192799
0.192757
0.192833
0.192832
0.19234
0.192311
0.192451
0.192019
0.191847
0.192073
0.191976
0.192052
0.192384
0.192213
0.191949
0.192118
0.192056
0.192074
0.192236
0.19397
0.193802
0.193815
0.192932
0.192921
0.193027
0.191992
0.191852
0.192235
0.192819
0.192567
0.192581
0.193902
0.193941
0.193865
0.193811
0.193803
0.193732
0.193944
0.193927
0.193996
0.193915
0.194007
0.194063
0.193842
0.193885
0.193967
0.19179
0.191848
0.191967
0.190862
0.191252
0.192726
0.192841
0.192882
0.193647
0.193724
0.193731
0.19276
0.192761
0.193058
0.193171
0.192885
0.193131
0.193666
0.190665
0.190738
0.191234
0.190822
0.19143
0.191296
0.191228
0.19269
0.19266
0.192666
0.192705
0.192664
0.193204
0.193163
0.193153
0.193051
0.192991
0.193504
0.193346
0.193103
0.192893
0.192805
0.192746
0.192832
0.192761
0.192681
0.192751
0.192752
0.192522
0.19234
0.193103
0.194333
0.194152
0.194305
0.193281
0.1931
0.193222
0.193284
0.193309
0.193381
0.193116
0.193039
0.192998
0.192688
0.192642
0.192673
0.192676
0.19271
0.192639
0.192642
0.192638
0.192725
0.192735
0.192731
0.192742
0.192725
0.193333
0.193457
0.193152
0.193167
0.193304
0.192753
0.192196
0.192653
0.192636
0.192561
0.193408
0.193249
0.193345
0.192604
0.192611
0.192613
0.19268
0.192598
0.192556
0.192579
0.192618
0.192642
0.1926
0.192538
0.192538
0.192538
0.192548
0.192546
0.192532
0.192511
0.192581
0.192542
0.192755
0.192726
0.192718
0.192712
0.192734
0.192739
0.193247
0.193285
0.193276
0.193282
0.193203
0.19308
0.193238
0.192181
0.191477
0.193258
0.19326
0.193195
0.193272
0.193108
0.192484
0.192493
0.192494
0.192469
0.192442
0.192565
0.192508
0.192645
0.192583
0.192621
0.192542
0.192669
0.192669
0.192738
0.192738
0.19283
0.192738
0.192805
0.192838
0.192783
0.192817
0.192831
0.192823
0.192617
0.192604
0.192491
0.192493
0.192485
0.192471
0.192446
0.192735
0.192674
0.192733
0.192666
0.192651
0.192623
0.192625
0.192602
0.192584
0.192627
0.192616
0.192605
0.192589
0.192617
0.192993
0.193021
0.193017
0.193011
0.192647
0.192315
0.192677
0.192704
0.19263
0.192686
0.19264
0.192791
0.192692
0.19274
0.192712
0.192715
0.193221
0.193212
0.193152
0.193102
0.193083
0.193095
0.192835
0.192708
0.192811
0.192684
0.192678
0.193066
0.193135
0.192721
0.19267
0.191681
0.191501
0.191354
0.191303
0.193902
0.19403
0.192346
0.192389
0.19325
0.19259
0.192448
0.193024
0.193119
0.193021
0.192824
0.192812
0.193348
0.193185
0.193255
0.193269
0.193211
0.193023
0.192958
0.193153
0.193113
0.193049
0.192908
0.192891
0.192844
0.192883
0.192959
0.192893
0.192663
0.192893
0.192863
0.192869
0.191604
0.191565
0.191472
0.191875
0.191478
0.191496
0.193707
0.193673
0.193029
0.192892
0.193083
0.193215
0.191769
0.191726
0.192011
0.192765
0.192807
0.192767
0.192783
0.192792
0.192783
0.192913
0.192821
0.192875
0.192506
0.192517
0.192758
0.192797
0.192802
0.192739
0.19272
0.192786
0.19275
0.192707
0.192689
0.192711
0.192803
0.192788
0.192799
0.192983
0.193012
0.192969
0.192985
0.192961
0.191861
0.191496
0.191348
0.191464
0.191513
0.191283
0.191295
0.191441
0.190563
0.191202
0.191267
0.191123
0.1948
0.194954
0.192973
0.192991
0.192781
0.193476
0.192771
0.192564
0.192552
0.192566
0.19264
0.19264
0.192662
0.194791
0.194502
0.194407
0.194683
0.193687
0.193365
0.193194
0.193087
0.193123
0.191032
0.1947
0.194309
0.194559
0.191767
0.191806
0.191775
0.191402
0.191718
0.193934
0.193697
0.192897
0.192929
0.192858
0.191459
0.191381
0.192329
0.191706
0.191402
0.19129
0.192988
0.193996
0.194007
0.194055
0.191838
0.191352
0.192694
0.192686
0.19267
0.192825
0.192596
0.192554
0.19379
0.193469
0.192785
0.192733
0.192746
0.192748
0.193507
0.193449
0.193466
0.19425
0.193671
0.194437
0.191909
0.194974
0.192818
0.192933
0.187889
0.192782
0.192813
0.194579
0.199682
0.192896
0.19294
0.192832
0.195047
0.193879
0.192441
0.192055
0.194285
0.19495
0.194054
0.193876
0.194448
0.196331
0.193615
0.194453
0.194371
0.19359
0.193658
0.194174
0.196813
0.198024
0.191746
0.194395
0.196329
0.19212
0.194525
0.196915
0.19733
0.195998
0.197085
0.195319
0.194113
0.188382
0.190762
0.194788
0.1955
0.192044
0.191611
0.197573
0.19185
0.194562
0.193957
0.193978
0.193701
0.196148
0.196839
0.195414
0.195618
0.193854
0.196105
0.197415
0.197037
0.196997
0.192957
0.19291
0.191354
0.190951
0.191288
0.193831
0.196265
0.192051
0.197048
0.197042
0.196995
0.19745
0.193699
0.192137
0.192901
0.192888
0.192762
0.19281
0.196001
0.19467
0.195427
0.193688
0.193702
0.191964
0.193799
0.199479
0.195872
0.198304
0.196477
0.197366
0.1976
0.197732
0.194151
0.193368
0.193533
0.195854
0.19633
0.195698
0.195223
0.195328
0.194879
0.195351
0.193408
0.192936
0.193014
0.193899
0.195078
0.193889
0.192836
0.193799
0.191915
0.19378
0.203613
0.201904
0.193813
0.188052
0.190548
0.1877
0.196958
0.19747
0.194406
0.193813
0.19411
0.194107
0.193885
0.198942
0.198539
0.195825
0.19461
0.193801
0.194438
0.194924
0.193536
0.194444
0.194414
0.193912
0.194958
0.192831
0.192783
0.194151
0.193986
0.193887
0.193903
0.193189
0.197768
0.197255
0.198028
0.187279
0.190336
0.193356
0.194078
0.193895
0.192287
0.193572
0.189852
0.195148
0.192776
0.192776
0.19281
0.193861
0.191832
0.193713
0.19023
0.193732
0.192049
0.192471
0.19124
0.191383
0.193478
0.194353
0.194593
0.193503
0.194382
0.193498
0.192403
0.195844
0.193113
0.194431
0.192924
0.187477
0.190213
0.187136
0.190284
0.19431
0.193223
0.194105
0.194375
0.192965
0.198858
0.197303
0.19327
0.191188
0.187691
0.190276
0.190988
0.190724
0.195279
0.192707
0.193343
0.191923
0.19364
0.194702
0.196582
0.190945
0.189479
0.19058
0.196596
0.195745
0.197233
0.19656
0.193656
0.194004
0.196825
0.190521
0.187291
0.190428
0.192501
0.192823
0.19276
0.192764
0.194391
0.192594
0.192067
0.193734
0.193567
0.190885
0.190785
0.19713
0.194161
0.191896
0.191851
0.194236
0.192317
0.193157
0.195807
0.188053
0.19051
0.190274
0.189338
0.190769
0.186646
0.196447
0.192927
0.193775
0.197656
0.19355
0.192871
0.192883
0.192783
0.19286
0.192817
0.187133
0.190024
0.194665
0.194771
0.193962
0.194426
0.198821
0.19286
0.194297
0.193059
0.195472
0.192941
0.190227
0.188528
0.190363
0.197703
0.199084
0.197209
0.194421
0.19011
0.186987
0.190371
0.197335
0.194507
0.193617
0.19633
0.194457
0.19324
0.189053
0.199661
0.194968
0.194017
0.195571
0.192448
0.193044
0.193335
0.189987
0.20089
0.194552
0.19506
0.194149
0.194331
0.196525
0.197917
0.198462
0.192856
0.192788
0.192794
0.194009
0.190961
0.195902
0.194113
0.194712
0.191124
0.19161
0.194023
0.192022
0.193968
0.192804
0.194891
0.19198
0.193078
0.194388
0.188241
0.193155
0.190835
0.195238
0.199582
0.194397
0.192906
0.192821
0.192835
0.18739
0.194466
0.195801
0.193718
0.188893
0.190157
0.192491
0.192294
0.19096
0.187511
0.189703
0.192555
0.193944
0.193741
0.193347
0.193051
0.19293
0.193598
0.194553
0.195909
0.187708
0.189962
0.189766
0.197885
0.189476
0.196549
0.195839
0.195172
0.199631
0.197097
0.20119
0.197134
0.193807
0.192057
0.194326
0.192943
0.192205
0.189554
0.190922
0.191093
0.188011
0.188951
0.186607
0.189701
0.187892
0.190186
0.190311
0.194525
0.191009
0.190245
0.190546
0.187651
0.189901
0.201278
0.196434
0.192746
0.189214
0.189945
0.19525
0.194976
0.188741
0.19005
0.190063
0.193459
0.19118
0.192819
0.198403
0.195033
0.1948
0.196596
0.197389
0.190204
0.186781
0.190108
0.191981
0.193666
0.190854
0.190495
0.190272
0.193003
0.194083
0.192485
0.195202
0.191207
0.193283
0.188585