/*--------------------------------*- C++ -*----------------------------------*\
| =========                 |                                                 |
| \\      /  F ield         | OpenFOAM: The Open Source CFD Toolbox           |
|  \\    /   O peration     | Version:  2206                                  |
|   \\  /    A nd           | Website:  www.openfoam.com                      |
|    \\/     M anipulation  |                                                 |
\*---------------------------------------------------------------------------*/
FoamFile
{
    version     2.0;
    format      ascii;
    arch        "LSB;label=32;scalar=64";
    class       volScalarField;
    location    "20";
    object      p;
}
// * * * * * * * * * * * * * * * * * * * * * * * * * * * * * * * * * * * * * //

dimensions      [0 2 -2 0 0 0 0];

internalField   nonuniform List<scalar> 
184166
(
26.8438
83.046
2.13491
20.404
39.3934
7.5545
-2.3891
4.22001
26.2123
45.4874
13.5665
1.73592
2.4043
54.4747
34.7429
26.3773
16.8645
63.3787
5.52952
39.6223
5.78093
3.03806
7.15196
48.5265
18.2592
33.1221
40.6948
7.03766
34.6115
2.29181
25.1046
88.253
32.6253
52.4874
15.9562
0.917821
2.09568
13.8325
40.615
84.6644
55.4762
1.01403
33.7242
58.9452
15.5279
56.515
85.0435
48.2073
13.2838
34.7128
2.40054
85.3341
2.69085
18.9643
15.4385
5.27001
14.7657
15.5645
33.6185
39.4424
1.20635
38.7735
25.2938
8.55801
40.6322
-4.08619
82.2691
40.32
0.685396
39.6729
2.25102
47.6668
29.1953
24.3587
6.51387
11.5433
69.5759
25.0128
71.0262
81.7402
82.6357
73.3592
44.9072
7.72708
27.2266
21.4048
6.72093
4.72476
61.2831
6.27844
-3.64478
36.544
26.6879
51.266
21.4469
85.7478
18.4834
85.1841
4.98052
24.0417
2.29434
1.26499
26.0501
35.128
0.557965
9.53436
24.6327
39.8267
0.192185
1.4914
83.9314
32.9097
87.7103
4.30593
38.8461
51.2715
35.0572
4.45649
85.4651
83.6395
26.0374
1.06587
15.1438
13.9126
12.038
20.939
15.7026
16.5102
31.9881
32.9527
2.15669
15.548
56.8935
62.9187
8.89116
0.590486
8.09361
52.5324
61.4388
4.89371
15.0403
0.106559
-1.00621
1.06983
52.8881
38.1386
2.3838
35.2118
7.35543
42.1331
45.0936
42.8618
25.7904
22.1433
32.1858
34.9915
27.0125
25.5807
24.2401
3.78816
88.5962
-0.949095
5.40295
9.888
72.2465
16.6515
37.3048
36.9554
-4.36938
37.6376
16.9536
22.8758
5.6156
47.4393
15.609
81.2491
6.15779
29.5823
33.4302
52.3643
-4.82707
1.22761
55.6432
37.289
44.5035
17.3887
34.8157
50.4998
86.0814
7.57921
62.5868
29.9412
4.33248
86.1126
4.49289
39.9492
34.9633
22.483
8.09966
40.6499
14.3395
33.1497
-1.92855
63.8514
84.6037
21.4761
2.11041
2.28901
54.9112
14.2899
34.2411
5.39116
2.92565
50.7096
78.8354
10.3538
52.4612
9.49697
2.6956
84.7068
72.4201
4.45997
4.91504
2.28031
85.0156
2.17831
7.49354
14.3672
17.3036
6.40149
36.3099
72.4763
10.7854
1.47373
24.3591
2.1539
34.9223
34.4249
1.91748
85.4242
88.2632
25.3936
20.8044
34.7684
2.79624
39.8471
35.2477
2.26532
51.0476
42.1263
50.837
46.693
30.8395
2.13371
51.0602
27.6316
33.8205
35.1367
58.8024
1.10486
52.7964
84.4058
14.608
47.8443
29.1727
15.7673
26.2214
7.9079
16.3716
49.6894
34.6409
3.29644
53.0597
33.5575
0.879243
66.3579
89.8152
33.3269
73.4692
37.8874
2.05624
33.6117
31.34
17.2107
85.0542
2.76154
5.93435
39.8188
64.8552
5.23127
47.9476
44.6318
33.951
16.5564
31.1784
48.95
5.50561
25.8062
51.4075
41.7173
14.7887
4.69506
2.2154
35.1567
48.1194
55.7026
15.3609
2.79526
6.08517
-0.300463
16.3244
34.8001
29.6434
40.5165
38.78
36.8841
68.0198
49.3812
12.2206
49.6129
6.45645
8.10097
44.4214
48.0383
63.7626
0.581588
61.9206
68.3896
1.95599
14.7063
14.8095
4.17046
3.77003
30.8485
-0.478875
58.4855
3.14415
4.03918
39.2286
40.4387
62.3651
28.9893
38.9387
44.1097
58.4439
43.0965
80.0897
-4.51908
13.208
2.41803
85.083
16.0646
34.6014
83.177
6.81555
41.7912
28.8721
60.2665
40.3227
36.2341
73.5277
-4.63228
29.8874
70.9654
25.8182
49.4302
-0.0987975
80.2698
82.168
-3.66308
89.7999
35.9057
35.4065
47.7785
49.4141
50.2273
4.69382
35.1707
0.434679
39.9042
39.5276
38.3691
31.2305
28.6648
23.9314
52.0923
49.6216
75.4911
13.5864
14.5507
19.4196
22.8432
21.2587
89.5993
5.18368
-0.349876
46.7429
59.7658
4.69573
59.7925
35.9461
3.77524
32.0086
9.45082
2.89625
54.3237
47.7876
45.9795
32.5541
69.4535
66.4205
8.68357
9.05361
7.25
7.13716
81.5027
13.369
8.13486
4.04162
3.33804
33.4036
53.8754
55.7064
54.0803
43.0256
-0.419668
0.272677
1.41852
2.29413
2.14596
2.49913
82.3753
33.0644
32.6147
32.1772
30.8827
30.4175
29.5679
18.4839
18.8484
5.58606
5.98646
6.29607
5.69344
6.75797
6.65108
7.3896
6.98794
39.3775
39.0905
37.839
38.9587
37.4517
38.0964
35.9779
14.1855
12.9338
13.0854
13.8621
53.2982
0.996837
87.676
89.9718
90.6095
89.5754
82.0472
86.3931
84.1862
7.71148
7.91236
8.88072
8.46864
14.3784
14.9247
1.76287
2.7495
3.79835
5.48687
30.9239
31.84
31.7072
32.3485
-2.22046
-3.51709
0.872353
1.29119
1.12838
1.72805
1.50488
1.6887
48.9134
2.85999
3.14605
3.28879
85.8815
23.1676
19.1681
18.8471
20.9848
20.9207
19.817
19.4078
13.8393
12.9439
13.9446
13.2948
12.1455
12.1713
8.30144
23.0329
23.0183
-3.48785
-3.29972
89.6005
59.3607
52.0549
51.6918
32.4423
30.6497
31.5258
30.8104
40.4774
43.4259
8.33621
9.39054
8.92608
8.48478
56.2612
55.5126
49.2372
52.6578
38.6699
38.2289
37.5676
45.0201
41.6977
43.2589
28.4738
28.1572
28.2923
27.6318
27.6346
26.9998
20.5309
20.1715
15.4886
14.1617
3.84843
66.8224
75.0496
78.0749
69.9217
74.743
70.4551
71.8624
77.1631
72.7341
81.5841
83.5924
23.0272
22.0398
22.1415
21.934
20.2706
20.9314
19.9698
19.9996
21.3425
18.881
31.2084
31.5889
32.2296
43.0948
25.2369
50.0217
87.0564
74.6861
1.78466
0.834855
0.0730129
0.0760521
26.5137
23.2609
46.5984
51.4332
48.9854
51.8481
43.52
46.7381
21.5715
21.1462
31.5426
30.8596
30.4878
86.9597
9.13093
8.08338
7.98775
20.8646
21.7054
20.8419
21.1117
22.3553
23.4257
22.5514
23.0482
12.6731
13.068
13.4494
0.870111
85.8399
86.1495
85.9262
39.9278
42.3372
42.1539
40.6682
44.9431
42.5979
44.879
43.5089
4.0312
5.04431
4.03032
4.65009
44.2501
42.1492
8.92497
5.90792
5.72289
6.16629
60.0472
55.4991
49.2942
45.9749
2.0166
1.14341
15.968
15.54
15.552
36.3688
8.53442
41.756
39.9157
40.3544
41.4358
44.3307
42.4991
42.987
43.9339
2.82862
4.85694
5.81501
6.53123
6.17796
5.90744
5.38015
23.5727
23.2202
22.7868
21.9811
21.6353
21.1528
86.0571
45.0926
49.4923
44.8487
46.9401
1.39535
9.03546
9.64224
9.3972
41.9423
41.4661
40.6171
80.2576
86.662
86.3295
82.2771
82.9921
85.9532
39.3421
84.8385
83.6855
23.9492
23.7831
23.1789
0.759679
0.874995
1.09632
1.04411
0.62167
0.554056
38.6557
37.0051
37.3516
38.6354
38.2713
37.4375
7.86841
7.67651
23.862
19.5891
16.5216
17.5603
6.04928
12.0129
21.1947
21.5916
40.1741
40.5351
39.8789
3.1601
2.74683
3.59599
3.01785
10.1012
15.6212
37.0169
36.1429
36.2791
69.5447
66.1695
8.16417
8.82489
9.299
32.0412
8.95442
10.0964
48.506
47.2475
47.6313
46.7994
51.8382
52.0948
3.14514
4.34699
4.41562
25.2251
19.1612
22.9091
24.9786
0.473646
75.7371
90.3112
90.4735
90.8835
27.9298
13.7904
8.53268
11.6599
22.6271
17.927
36.7725
36.5256
61.2212
57.8459
60.3126
57.8788
12.3154
9.45188
12.1304
10.5089
0.708236
0.456325
0.498777
0.471518
0.607633
0.666688
1.83822
1.74781
1.80122
36.0976
13.279
0.478679
0.61645
0.439609
38.0413
38.4269
37.2984
37.482
32.2406
31.2086
31.9236
41.6262
11.1693
11.1118
9.86721
76.2917
74.4569
0.865733
-3.03991
-0.175458
0.140756
72.0344
77.7655
79.234
80.1548
82.9242
84.5342
10.9361
11.9849
40.0784
40.0062
40.8688
40.8196
60.6369
56.7441
55.8217
23.3373
1.03334
1.134
0.903436
0.893582
88.2622
89.7895
27.1646
27.0113
1.21996
0.958375
1.25937
0.446247
22.8298
2.81479
6.22475
3.08942
4.48462
3.17561
3.85755
3.5954
3.0149
20.7327
58.7664
55.8318
58.9328
56.6829
11.6444
12.5126
19.7185
8.6871
7.30055
9.53058
7.57991
55.0386
64.6821
6.8954
14.4116
15.0478
48.2779
3.14975
1.15812
11.5706
8.99931
9.89195
11.4132
-1.50565
-2.78779
49.0827
49.2725
25.6588
32.3768
26.7131
31.7847
87.5746
87.5643
12.9704
13.443
25.3123
25.9656
24.635
75.2312
58.1215
67.8012
59.142
88.158
85.1133
29.6003
29.9704
31.0414
30.4512
30.81
30.0098
1.68054
4.54644
10.5514
9.57529
23.1386
27.8271
20.4293
22.9619
82.9929
82.8046
23.8662
25.0531
35.7071
35.5663
9.82388
8.53442
8.75946
9.41155
40.0837
39.255
39.3358
73.8622
57.5271
67.9524
4.63757
4.22384
4.88925
4.50205
14.1766
14.5117
55.5638
50.6917
49.2935
46.851
46.1617
49.0316
47.4527
26.8928
24.5863
23.7751
22.7648
46.8902
46.387
16.9703
15.1526
11.2715
12.2573
1.94877
1.25384
1.38226
1.73416
1.63265
1.8556
69.8189
5.06497
5.15012
4.66636
4.13529
57.1235
48.8347
48.4939
55.5609
60.243
58.8748
67.2373
33.9603
32.0574
33.0551
33.9955
2.81491
2.24799
3.86468
3.32756
2.42907
10.4804
11.2684
11.5437
22.1516
21.5457
55.0204
56.1781
49.0349
46.8724
15.648
15.2456
15.1896
22.8357
22.3183
1.64596
1.77755
7.12808
2.52234
1.81737
1.80004
1.25605
1.64519
43.4021
40.8806
41.3155
42.7692
26.8958
27.1706
26.7168
26.3981
46.9933
51.4984
52.5262
53.5282
4.96032
6.50186
6.78805
7.92343
5.43054
19.8127
20.4969
21.0127
21.0745
2.1549
3.80434
2.0194
80.9281
37.2801
35.6828
10.892
10.1201
27.1743
27.2645
15.9615
16.5114
9.88809
9.99542
10.5947
10.1853
82.7488
89.9684
87.9886
88.4312
32.276
31.9741
33.4807
33.0387
40.5926
39.592
40.1763
47.8582
45.0206
44.4453
48.1476
42.7239
43.2645
32.947
23.761
28.0818
16.9113
4.0804
5.23406
4.60516
5.0346
50.5014
55.9122
51.1178
58.5805
54.5801
64.3416
66.353
55.7752
61.8266
26.1632
29.2086
21.9851
25.0607
29.2208
12.55
12.0352
25.92
29.3131
28.4647
26.9685
27.3973
1.50264
87.3395
87.7445
4.30759
3.98335
39.5447
40.4709
38.6888
38.1906
3.4786
3.74772
75.1974
84.3216
52.7141
1.46533
1.47313
28.4066
27.3781
1.58562
1.91199
1.68556
85.4608
87.0324
84.7854
34.3496
35.2979
35.3721
34.4639
82.268
84.3254
17.1438
17.3553
13.8758
8.73052
9.71606
31.2855
30.7961
35.1888
35.3363
35.9105
0.802388
-0.0369094
-1.81746
-2.34278
-3.59439
66.905
3.39434
59.7023
59.6681
65.8833
62.9107
17.5685
10.0307
10.4383
10.6388
10.1091
42.491
31.7054
31.5442
33.2356
32.3091
2.28237
2.37276
2.09407
2.19319
1.58884
1.1568
39.6985
40.8978
38.7909
38.826
32.3957
35.0364
31.389
15.3834
16.0842
12.9216
16.9341
2.16235
2.75976
10.8989
80.9211
68.067
75.4917
79.4323
72.2324
3.43584
3.96267
46.1084
5.95071
7.60258
6.34065
7.17058
13.393
13.8498
12.7407
-0.655535
-3.12971
-1.77309
-0.180514
17.784
13.5293
5.62554
0.31629
-1.63851
-3.41345
-2.21955
0.785617
0.876236
1.18955
0.947601
1.17703
52.9187
9.04478
6.52436
86.1836
87.3766
86.4238
87.7214
87.2357
50.245
51.0343
9.20538
8.52845
9.7415
8.9179
44.7115
42.063
2.16422
2.05139
1.82977
84.0285
79.4662
0.516606
0.595111
2.00915
1.96445
2.15997
30.5679
31.6111
31.1406
41.539
44.1819
42.8028
40.9745
42.9494
44.273
87.5568
4.23823
2.60063
74.6294
75.8425
66.7159
66.899
83.7494
83.8557
6.27762
7.05966
6.27789
6.55531
2.21408
1.93284
2.34196
2.52132
14.3431
14.5447
12.0514
13.4619
9.43201
12.9854
9.67718
11.8259
2.38449
1.89482
73.7361
77.4418
64.016
46.232
51.5727
47.2646
50.0459
77.1486
59.1799
63.8133
31.0821
22.6386
28.3681
16.0721
53.9917
54.3492
29.7945
53.5549
55.4065
57.4661
2.32313
3.62437
31.828
33.0079
50.5863
49.8312
51.021
50.6827
55.9236
56.9946
56.3206
10.7247
10.618
9.3819
44.6525
44.3516
48.1242
45.7627
28.4128
27.9015
3.05503
3.35028
88.6643
84.7703
88.1941
-1.43076
-3.67544
85.4721
85.3317
86.1304
2.26592
2.1302
2.1621
2.78911
2.57871
12.45
13.3462
13.398
12.2074
12.7888
39.0786
39.1676
37.5738
38.5524
6.12929
5.82948
-0.583263
1.00939
0.772715
0.945074
0.953522
8.16937
8.62295
37.1569
37.3228
36.2325
24.3798
25.1041
24.7559
24.453
24.9445
43.8525
18.7733
18.3185
18.4784
9.21392
9.59263
10.0706
53.6213
59.7289
58.5248
53.0505
55.8382
42.0972
41.1802
43.2455
43.3618
47.0875
49.5415
52.7768
28.0982
28.773
27.4968
27.6332
52.6846
86.9586
10.7833
11.4256
11.8796
11.4412
38.3772
37.7801
39.4241
38.2213
39.3485
-1.46125
-2.70276
88.2123
86.8422
86.2471
85.8808
86.4799
7.83996
19.0858
18.7144
55.9565
58.8005
62.684
4.63301
9.37718
9.86343
8.59802
17.0337
7.88602
84.2255
81.9245
78.773
78.7429
84.5063
82.4754
12.6847
12.3565
17.9719
84.9419
19.6805
15.1351
11.1216
2.35389
2.41142
2.48366
74.2232
71.6816
75.8865
33.6067
29.1798
0.917912
1.02112
2.55969
2.18596
2.1748
1.98416
2.65688
2.24517
11.4712
11.1097
11.9571
29.9552
30.6303
32.0334
0.888194
0.714669
46.99
52.7226
48.0241
52.1881
-0.827185
-1.68512
3.15623
53.8402
35.9593
35.9389
35.0273
5.76735
5.22889
5.34411
88.6174
87.9218
85.9718
87.4498
88.5285
10.102
10.6634
-1.95814
61.6443
75.0033
15.4374
13.3292
9.6196
13.6044
10.8589
8.28817
19.9961
20.321
20.5067
48.3754
49.2779
49.0542
27.4789
27.767
85.5077
86.2528
84.7018
86.7648
85.3785
85.702
36.5816
-3.94281
-3.95087
87.4431
88.8119
88.9922
18.0677
19.2955
16.8201
13.4174
30.415
6.8206
9.66034
5.5384
2.85918
8.44281
6.88809
52.9191
51.8937
50.5534
49.0508
49.4201
12.4464
12.1023
2.20501
3.13239
51.6215
52.9332
52.3086
53.4461
12.9218
15.9755
16.3342
16.9939
12.35
13.9771
6.65494
8.5622
8.99967
5.85757
7.07252
1.84161
1.26032
1.6887
1.359
1.40697
1.60687
22.7187
22.9403
22.4249
22.2924
21.9782
75.516
78.984
59.5174
67.775
56.5124
66.9413
56.6747
58.4279
54.2437
54.6408
2.62028
3.5117
2.95293
40.695
44.0914
53.5773
49.292
87.8257
85.6567
11.9184
11.2035
16.3016
15.2156
15.8807
14.3639
-3.21422
-2.874
-2.7217
-5.13506
-3.57579
27.1863
27.8078
34.3314
34.0664
34.2983
67.9529
72.6144
74.0475
84.5898
83.9207
85.1994
85.1579
1.25235
0.952224
1.11451
1.85625
15.396
18.2729
19.1266
18.1101
13.3531
14.2437
33.1992
16.7496
17.1339
16.9277
16.164
16.2304
27.4265
1.33288
6.47389
0.165436
2.45764
49.9568
51.3376
49.7723
52.328
51.2224
85.5736
88.9793
86.5521
34.3126
34.9311
0.909146
0.775527
15.3647
4.88998
10.4015
11.284
6.20913
22.5109
22.2186
24.6084
24.2679
24.1647
22.9099
44.6286
41.6664
42.5773
43.4475
9.2939
8.82456
10.449
12.0397
6.42653
30.0748
57.2447
59.8013
54.6348
66.6873
1.1951
15.1436
14.6338
0.0572426
3.09086
2.23187
2.24221
2.86772
2.04629
2.12556
-2.62342
-5.34484
-2.79084
-4.35417
2.04389
2.825
2.10979
2.43416
2.08674
3.01706
2.16472
2.71813
22.6241
17.6202
57.3005
17.8599
18.1082
35.2149
-1.51957
-2.34357
-1.06023
0.937496
47.1371
47.6683
48.1458
47.1752
47.9225
68.8314
75.57
28.9557
28.5623
28.1268
5.94958
5.16883
3.48102
3.09704
12.4497
14.1915
16.1864
16.8736
0.941785
0.793962
42.8122
41.9608
11.5994
11.3129
10.8024
52.7749
46.5776
46.1611
56.5372
51.7817
27.0165
27.9883
28.7535
45.2541
44.8037
85.7937
85.0251
36.0705
36.0883
35.6695
35.7352
35.5897
35.8489
10.9061
11.4226
10.2806
10.2605
10.6686
11.2309
36.8259
36.2095
36.2938
35.9866
26.91
29.8147
27.707
29.2996
-1.6291
0.081444
-2.21935
-3.19778
38.4712
36.0025
40.817
41.5645
39.4366
34.9256
33.1286
33.7023
28.4695
28.2467
28.7185
27.8193
27.8415
21.3942
16.1427
11.7814
12.8265
76.0451
75.5765
80.8711
82.7304
81.8414
78.8322
69.214
66.1758
60.824
61.5196
15.7531
16.196
90.1319
90.0284
24.5897
24.774
85.7188
84.8587
84.8535
85.5654
85.3983
85.2595
3.96888
3.16612
4.55481
85.5148
85.3673
83.6817
85.4895
62.7171
62.6164
66.5341
70.2963
41.441
40.6085
43.9242
43.0295
42.7365
42.2092
38.6913
39.4755
40.3797
39.4592
40.3571
3.8578
3.49798
75.6263
79.726
80.6115
38.3316
40.0562
40.517
40.7642
3.52213
2.97619
0.141666
0.341856
69.804
66.588
58.288
2.33211
1.54175
1.47083
3.63827
2.95563
29.18
28.8001
28.6963
33.165
32.3874
54.3385
54.0836
85.7415
79.5518
84.7312
84.6668
79.785
0.986505
77.4173
71.4917
66.2562
72.6827
86.8372
87.1943
84.0981
46.4046
52.5105
48.6468
52.547
47.453
65.2947
67.3183
73.0712
36.4444
36.7518
37.8055
36.4553
78.157
64.0476
71.7263
70.2258
78.8391
6.32665
2.35044
9.80372
8.98263
1.23385
2.14556
14.911
14.4073
37.7045
37.417
38.1765
27.7619
17.5914
23.1295
25.1504
25.4396
24.6291
33.1779
34.6025
33.5917
73.0202
75.3101
81.1248
83.1751
76.9356
81.902
54.383
54.2698
53.3363
53.6587
6.66945
6.8573
5.80425
5.34668
4.96772
4.82399
0.674195
3.5859
60.1957
47.9781
59.2908
54.0683
43.8674
44.8101
49.9873
47.012
50.8712
4.66437
4.41005
4.14636
47.5028
47.2752
46.0409
44.7093
-5.37685
-4.99372
-4.73665
-6.20975
2.75811
3.02891
-0.714396
-0.658774
51.7773
51.7273
50.9474
8.28941
0.28886
-0.921734
0.00054333
84.4313
87.5422
86.67
3.81634
3.02779
4.6338
5.07878
4.9622
4.5435
10.1672
12.507
21.7353
89.6597
5.34108
4.34078
3.51048
5.17359
4.03342
3.80792
6.03429
4.68521
5.99957
4.56887
7.85533
7.49615
9.89602
13.2971
12.9831
-3.81589
-3.98628
-2.42729
12.9596
11.9256
12.7402
11.3358
10.5438
10.1669
52.3994
51.9757
52.5236
51.7142
52.8511
52.468
27.1695
30.9487
31.5435
27.5662
29.5496
1.31414
1.11898
1.12495
1.22824
1.37444
68.783
74.3374
73.5337
67.2334
70.4433
33.9854
34.5138
35.9056
33.9442
36.2755
36.1625
36.3839
35.7492
35.3391
35.2339
34.7376
26.4216
29.1241
27.8664
28.555
27.3643
2.8494
3.68057
3.16551
3.73802
3.16745
45.6867
46.4119
85.4027
78.0047
74.1103
73.6558
63.7961
64.4178
3.53601
2.35034
2.44698
43.46
44.0658
44.399
35.2778
55.1374
58.3643
47.2916
46.987
55.3345
51.2986
49.7842
53.8992
2.99351
3.74047
32.9773
34.2265
34.4845
33.7116
15.714
9.88704
-0.160062
21.296
3.12165
10.0902
11.8122
7.63574
28.6061
28.1752
27.8864
34.5934
0.817371
7.33723
10.4392
54.4001
51.0743
59.9531
61.479
48.1848
47.4404
43.6802
45.4981
45.3032
28.6093
28.6214
19.6198
23.9669
19.8925
13.1749
41.3999
42.4237
41.2199
42.2919
33.3388
32.997
33.1418
34.2282
32.4488
31.9675
32.923
31.9643
31.369
55.952
61.2416
26.4594
84.1528
82.9173
77.4911
79.1293
2.80762
2.10605
2.19788
2.48091
1.43386
1.40071
68.9887
65.521
62.3976
67.7958
63.0422
18.9106
19.1263
19.7014
2.39135
2.69883
2.72377
2.49591
3.09728
3.09737
20.4478
20.6879
20.417
19.7632
19.7701
19.5646
28.7888
29.9697
29.1591
29.6848
28.998
29.282
29.7933
30.4748
30.4214
29.6478
29.3222
33.5958
34.0106
35.0095
0.798586
78.6989
38.7178
40.1126
3.93019
4.37967
4.44053
3.93847
3.63529
3.19362
2.5158
2.5351
3.37786
3.06932
4.64578
3.92513
3.60061
4.76633
4.02373
1.28986
1.01962
0.943331
1.61645
-0.0918644
0.736713
73.1444
84.9501
83.6937
81.0902
82.0542
83.7627
17.0054
36.8913
35.964
35.7844
37.0126
36.6677
89.7372
23.2764
23.2526
23.7871
23.7266
24.1104
38.0475
38.4291
37.6622
39.0509
38.4741
2.87791
2.30478
3.90916
3.1856
3.54491
70.1026
68.7403
59.6657
61.04
87.6867
86.9013
84.9012
83.004
87.292
85.4587
7.35471
6.49752
5.51727
3.83475
4.44638
3.36991
10.7455
10.4227
86.7532
85.7513
87.9429
-3.87295
-1.11609
43.9606
41.1477
42.1257
42.6355
41.4503
31.8971
41.9765
42.7763
42.0172
44.1285
45.4849
44.2872
35.278
35.4085
34.4467
43.4612
40.3004
42.5534
82.8345
85.1737
9.83944
10.3309
9.48627
10.7768
10.3125
-1.74037
-1.15029
13.4826
8.10798
0.768983
11.7988
-0.985729
-1.49322
38.4695
37.8573
37.4223
38.0275
37.3189
3.99899
4.36757
55.3061
53.5488
51.9635
52.4124
54.8161
3.75847
3.36367
3.62917
3.93035
4.02538
44.4864
43.9633
4.70961
4.24836
3.05511
3.69501
2.83566
17.0069
16.8322
16.5865
17.1514
17.3111
16.5592
2.49051
3.49943
3.29273
4.70869
4.28349
3.62074
3.07758
4.2481
5.50307
3.22867
2.72747
2.5498
1.89607
1.78198
1.67691
1.72531
1.60201
37.1782
37.7399
37.478
36.2496
38.0591
38.9778
38.2103
37.1787
10.7554
11.3459
12.8748
7.39742
7.9088
7.52707
7.17146
7.75826
7.98379
7.02027
6.71041
7.06207
6.77108
5.48861
6.06357
5.63871
77.4309
80.0811
77.6216
7.7311
8.76451
8.64415
21.3575
23.2492
21.4235
22.5526
21.8492
22.6174
19.1179
20.1395
17.3299
19.38
17.4724
19.8304
19.677
19.7752
19.3121
19.1614
-3.32461
-2.93746
-2.28077
6.1269
6.48962
7.21907
50.4375
49.7955
49.6367
51.1804
50.855
87.4056
88.2479
37.7168
37.1446
36.2182
37.0095
84.9947
82.4605
84.1139
34.8429
34.8515
17.9262
18.3898
19.3414
19.0301
19.6536
18.4859
19.482
19.8663
19.3414
18.6043
5.65233
2.44197
9.86704
5.13525
6.67221
10.6714
7.80212
13.0349
11.8748
84.1938
82.2042
79.4067
50.0061
49.9066
49.2784
82.2531
81.6772
84.2767
75.9662
75.8444
1.43431
1.45759
2.61411
1.93191
1.49591
1.62066
1.87293
1.71993
45.681
46.1298
44.9794
46.9256
47.3645
47.1671
36.2611
36.5745
34.8263
34.2188
37.4316
37.6457
-0.391351
0.675906
-0.326158
-0.499633
0.686222
0.526911
23.6376
19.9513
18.7884
24.2905
12.0264
10.3008
40.7895
41.2699
40.7709
41.757
40.0668
40.4389
37.3514
36.2859
36.1667
62.9943
64.6937
71.1865
-5.10691
-5.28047
-3.32565
-4.88956
-6.06068
-5.36932
9.98916
9.47154
18.5702
20.771
21.4054
16.9516
16.1625
0.558797
1.04546
3.65781
2.32073
4.98061
80.9678
83.8427
78.2198
70.7079
74.8202
80.3574
83.9291
84.7984
80.8161
83.4302
87.8036
86.479
5.75524
5.50674
3.77539
3.7781
3.02276
2.42358
2.12043
3.21454
2.85127
3.81257
3.14056
3.70646
2.31774
2.55599
2.38845
2.95771
3.05617
25.0757
26.518
26.6694
24.2144
13.7132
13.3278
10.4215
11.1623
12.6414
11.0906
0.656799
0.692716
36.8931
37.4085
35.952
35.8703
38.2904
38.3878
28.2077
27.8069
27.9304
3.45605
4.16965
2.34836
2.14191
2.74941
3.60322
7.84249
7.76543
7.45071
7.424
6.50625
6.85419
6.53869
6.29596
6.37162
6.47263
77.0785
72.7246
73.0945
82.7423
83.0232
79.2398
77.575
79.9514
69.3886
70.1068
7.87965
11.1137
6.9633
8.04432
8.7372
30.1992
30.8284
29.7221
15.4166
17.2086
17.4893
74.7985
78.7289
77.8523
15.1761
12.8699
13.9306
29.7738
29.694
30.0906
29.1142
29.1655
47.0872
46.6635
45.3893
45.8528
44.8815
43.1568
43.6569
43.5876
43.0063
42.6929
4.67352
1.56034
-0.0845261
87.0195
87.6027
67.6281
62.9868
62.1532
23.9225
24.3594
26.0159
2.11173
2.2516
29.3764
26.9167
27.9881
30.5663
31.2705
-2.26586
-4.92763
89.6564
88.2357
89.1327
89.6725
89.2056
2.32847
2.32163
2.65844
2.72465
2.90698
17.7192
17.6583
21.1196
19.6908
20.4353
22.5725
22.2507
1.01833
62.8558
67.4509
63.6783
66.6523
70.3743
70.6018
3.87117
3.70605
67.7282
68.6541
59.6258
37.7082
37.3739
36.3907
34.7407
34.0105
42.5191
41.4493
44.889
42.9811
41.8864
43.9435
44.2745
3.84939
3.50898
4.09912
4.837
6.21389
3.83255
3.19007
2.71208
5.45346
4.87806
4.57344
6.88058
5.88249
19.8844
20.0932
19.8834
19.3494
19.2965
20.0388
19.6881
6.6952
7.58046
6.68678
20.0068
19.8277
19.3018
4.96141
3.31844
5.85597
7.3321
4.54461
3.53133
4.36079
2.09603
2.56811
2.11971
2.16212
2.93423
2.09623
2.73957
2.06863
2.61623
2.18398
2.21162
2.81083
5.09286
6.1231
5.13679
5.74526
6.28373
5.77387
18.1872
18.7963
18.8721
19.1948
18.7584
18.852
17.4103
17.7294
17.5478
18.0344
17.8873
18.4094
18.5257
18.8036
2.92972
2.16666
2.59447
2.17656
2.57216
3.37485
4.12944
4.76471
3.79625
5.40058
5.23252
7.17555
6.73104
8.49652
8.2017
10.0995
8.90326
9.86705
9.48576
8.65089
9.08389
10.1894
10.1491
3.81132
4.71347
3.05804
2.67995
2.15659
2.22897
2.71264
7.00075
5.41504
6.28595
2.36111
2.23747
3.0464
4.25909
3.94886
3.39347
3.18634
3.71169
2.68985
2.13381
2.41089
12.0566
11.9971
12.5024
12.5145
12.6541
12.03
5.34687
4.68475
4.26637
5.50964
4.94742
7.59255
6.71229
7.62629
6.52331
7.02796
37.0623
39.0621
38.4141
36.602
38.2755
37.9898
84.1021
81.8541
77.7137
74.8322
75.1449
5.24999
4.92284
10.4741
10.4445
82.2089
82.2939
84.7597
87.8851
34.1257
32.9963
15.0442
16.4427
27.0614
22.0223
19.6709
25.6826
2.31694
2.03321
6.75271
7.29616
17.7872
17.1007
17.0949
18.2405
17.9401
16.612
16.378
17.8578
17.949
17.4739
1.47216
1.11687
1.36932
2.3476
2.56722
3.16451
2.60889
10.374
9.76735
10.9538
73.668
86.0586
83.3123
83.6697
87.4707
86.8412
51.3892
50.8636
52.3396
52.2774
53.5146
53.7646
6.44911
4.24741
11.4305
7.19048
7.60379
7.00552
7.2416
7.96106
7.8301
8.58984
8.20352
8.2768
5.9591
7.60971
2.17052
2.69717
2.29609
2.27318
2.65157
3.35658
3.71741
3.17558
3.30738
3.67268
1.95599
1.59842
2.08693
11.1417
11.643
11.5989
11.1137
11.1235
1.98771
0.763207
1.01737
1.24053
1.95227
84.5411
86.6865
-3.99473
-0.697138
-4.39325
-1.77159
-3.9829
35.4139
35.5295
4.17964
4.09153
5.6025
30.9911
27.3936
2.04587
2.14368
2.44452
5.2488
5.89555
6.76701
36.9486
36.4254
35.8913
36.0913
25.982
24.9243
17.5438
17.3431
17.6661
87.1057
42.9832
43.5471
44.1299
1.25442
0.0840059
3.86731
82.341
83.3449
26.5247
26.0339
8.77681
9.15176
8.58764
-3.46472
-4.32955
8.226
3.26462
86.1301
88.7114
63.5622
35.7248
36.5625
36.1146
3.33078
2.19732
7.1806
6.35014
6.16083
65.0075
68.8158
70.3393
30.2226
29.8531
2.20822
1.94304
2.60223
2.42553
23.8618
23.4888
24.2755
50.3027
23.7573
50.9749
94.6525
4.50905
0.221397
0.331983
-0.752782
0.22505
0.189501
9.05246
45.8965
0.322764
46.9596
0.292171
26.9782
14.7863
99.0743
96.4468
14.8699
6.05271
19.8015
24.7906
41.6781
48.6955
12.6574
11.1655
19.7704
20.3452
21.9506
24.5547
39.7419
32.9825
90.9317
26.7471
39.3052
67.212
20.991
36.3535
34.2175
43.8511
30.057
29.3298
26.3227
83.6227
89.0731
2.49223
28.9116
75.4099
-12.6704
36.4618
74.766
50.9159
50.1841
52.6988
81.2074
45.8861
47.2933
42.8619
6.15105
5.71672
5.44681
42.0059
38.0112
40.4475
0.302227
0.637481
-14.114
-8.9166
-4.04811
4.93217
4.45874
66.6386
31.542
35.2682
36.1538
33.359
53.3469
64.2045
0.428797
0.635644
0.216012
0.188202
1.89434
2.17386
3.67518
4.39876
55.3004
70.8549
59.3686
31.8824
31.5801
31.4386
32.0121
37.309
38.9591
35.1635
26.5688
24.3501
25.5656
32.6817
30.0347
31.6917
29.9124
30.771
28.1962
6.99564
6.84549
0.632196
0.336368
6.01385
5.31363
5.28184
0.225431
84.9637
98.0479
84.1569
40.0516
59.0542
47.5528
4.56755
-0.635759
-12.755
35.3602
39.0628
26.2263
27.2864
27.0699
25.452
27.2501
25.1732
47.5685
49.6505
13.7743
12.0284
12.8765
23.4203
21.0538
23.963
21.4917
20.0504
22.6443
0.194857
0.267674
9.65472
8.72591
8.57936
22.6235
24.306
40.6991
38.0354
41.977
-19.636
-2.73426
23.4235
21.6827
22.9275
83.5892
65.0555
2.00173
-6.58363
0.225283
0.218596
0.210554
80.0335
89.0349
73.6331
-4.34612
-14.6981
2.92973
10.0081
-10.9274
-2.71808
20.3792
19.4222
6.67935
6.74696
13.6396
14.2222
14.5759
47.2577
47.8939
44.7033
0.351109
-4.48047
1.21431
95.7277
88.7933
13.2495
13.7441
21.6441
20.5427
20.6882
45.7686
46.2378
16.3103
15.1998
82.8967
-5.68105
-5.94614
-2.67778
-3.61564
11.9973
-13.4832
1.93445
23.7373
25.8699
95.6705
88.9276
87.918
85.9657
28.8948
30.5468
77.623
0.9257
1.39682
3.74373
3.53063
-0.873788
-7.12308
0.447987
68.4581
0.142844
0.268872
0.369098
2.03589
1.91331
93.2839
78.5598
72.1085
-7.10516
-7.80527
48.5301
48.734
52.6786
51.6181
8.50307
52.9123
66.9779
52.1451
79.8194
84.1955
82.1355
-1.7611
-0.332723
99.1153
8.03271
7.64319
18.6076
8.39452
21.2867
0.638479
0.3076
0.316532
0.214909
0.519666
1.1889
3.79275
2.94328
2.96382
3.63088
52.8429
54.6706
66.4867
53.3257
52.6887
10.0317
9.74773
0.644968
2.32091
-0.263392
47.7793
46.7219
48.604
11.1969
86.4277
88.9003
83.4576
10.0828
31.999
23.2136
71.107
46.8578
65.2931
83.3197
60.5096
40.1454
51.1172
94.0717
71.4437
64.364
12.414
10.5935
20.6606
29.6773
28.4092
25.5931
27.4857
33.4149
34.2556
32.6286
0.185589
0.384099
0.423597
9.65033
8.53286
27.9171
28.0083
29.1557
92.8636
76.8841
59.7132
72.3303
55.6323
0.667423
0.832237
0.813271
1.63167
1.01106
3.41349
18.4771
16.9624
34.4321
38.7813
40.0137
0.220772
0.552195
0.493255
87.4786
11.5284
10.5487
10.3191
79.1288
81.7554
15.4241
15.6676
16.5282
1.80807
3.53499
71.8278
53.459
52.7648
13.8712
13.8938
14.917
24.9846
8.50853
8.16669
6.56508
3.49503
3.60651
43.3399
91.1139
43.496
44.7671
40.7999
32.7113
33.1635
42.9475
42.0776
96.7943
80.1288
7.62765
7.48079
8.02382
18.9177
85.6718
89.7683
17.5008
16.6062
97.4553
89.5906
79.506
81.6527
83.1985
10.8366
9.63385
8.98784
0.527013
0.227899
1.66074
44.4306
43.3711
17.5299
16.1231
15.807
36.6908
37.1027
85.2346
83.7831
82.7686
19.3092
17.9278
19.1228
46.0844
44.1096
43.3272
34.0214
37.0518
83.2996
90.08
86.4513
79.4861
65.8142
-7.02911
-2.76684
-5.57923
0.591851
1.1401
0.332047
0.857497
20.0018
19.7822
19.2347
18.2054
17.0468
13.5242
12.0717
10.9843
89.1852
84.6995
87.0954
3.25096
2.87844
2.66723
93.8237
85.2756
51.0077
49.8419
52.4011
70.3937
52.1284
88.1768
23.1336
24.6213
33.1895
35.6847
34.3201
17.7924
18.6913
19.3685
18.254
17.8718
88.6763
85.645
49.5682
10.6516
11.1232
-6.47759
-1.57896
98.4024
87.8852
41.849
2.02862
2.21797
84.592
88.8505
1.19883
16.4155
39.7369
32.631
18.0979
84.025
14.8476
35.7006
5.24686
2.17604
71.1416
53.1596
57.9807
24.2013
5.26361
52.4774
13.8543
15.1606
7.53559
60.3701
62.8794
70.0199
38.8722
39.6323
48.0806
77.0731
16.0261
14.9823
15.8854
37.0765
63.1939
82.3009
-3.45917
26.464
16.8118
49.3143
-0.187922
-3.80809
4.32413
17.2389
15.948
14.8602
15.2527
35.3389
35.5781
35.0302
30.2646
44.568
2.32171
3.11089
92.1035
39.347
26.4228
25.8811
80.8791
33.5855
81.8818
7.1742
5.23831
4.02481
4.73748
-3.5143
8.1362
73.4416
2.16902
2.14768
27.9779
11.3585
10.0312
80.7387
77.5008
73.8939
75.4705
83.2763
82.4912
54.152
64.5661
0.847883
0.377688
11.6553
3.44213
6.66152
42.087
2.29261
51.8596
38.6472
59.548
67.0129
63.3606
82.8832
15.1357
17.928
16.9385
16.0628
6.06365
2.27282
32.9638
30.8779
25.3447
55.5835
45.3972
26.1785
25.3165
25.6671
82.7756
81.55
35.3183
2.86036
-4.43137
2.90767
5.4489
14.8605
19.7386
19.271
6.71398
22.8936
35.5437
34.4058
34.2495
11.4942
11.9468
3.48306
3.81314
3.41666
52.4585
5.51617
46.8839
79.2479
0.306972
64.7753
20.0932
53.9737
14.3805
16.309
21.1896
38.744
8.65716
2.10468
2.19552
2.37498
29.4211
30.3226
84.6815
33.4525
-4.6519
67.3234
75.4034
3.02779
30.3411
29.3466
46.8253
56.5692
35.4139
34.6613
35.9475
35.0458
6.3235
9.52699
13.5176
-1.00064
-2.5192
71.4026
78.6887
75.8143
79.5242
7.3057
7.66535
7.07754
7.54983
36.358
35.7986
40.9493
18.3297
8.95605
37.8049
13.6829
45.507
46.3087
35.8622
24.7832
26.0359
49.9732
36.1981
37.0545
29.1039
85.1234
5.63552
14.1857
15.6275
15.412
14.608
15.8216
16.6618
84.677
44.5352
47.1294
44.435
67.8248
62.5557
58.5333
68.9142
65.1987
35.3946
33.7484
69.3673
35.103
33.8686
37.4051
5.98348
2.2727
3.0192
2.41306
34.048
88.1548
20.5111
22.4067
21.5658
1.1294
0.946164
1.11747
0.926257
0.651373
32.3089
32.8535
73.2404
42.5461
35.9322
1.32439
42.9181
42.2554
43.9746
34.7967
21.1353
84.9613
84.0072
84.874
83.895
5.62392
21.3371
60.4421
6.72952
85.8836
86.6371
85.0176
84.6707
5.15607
5.14724
4.66424
4.1134
1.05045
51.4346
50.7211
4.51361
13.536
15.1874
14.4959
15.1633
2.43874
2.96557
-3.46736
-0.0773238
-1.69462
10.0775
18.4486
20.4746
19.5604
20.5824
17.024
15.8271
16.9857
9.7877
9.22801
10.5414
25.2614
25.422
24.2377
24.7148
52.6078
53.0483
55.4532
40.1937
43.5518
41.1599
5.59999
43.1178
40.2819
36.0615
37.0404
36.4643
-3.62427
54.6076
53.2373
52.9502
1.02558
0.98803
1.97361
2.0049
2.43324
28.7653
29.1377
4.64673
51.9101
48.9308
46.2927
48.0847
46.4665
43.2456
63.4172
71.991
67.6366
71.7721
36.9365
37.6767
40.6329
25.4039
26.0282
25.569
86.3865
20.0314
13.1878
0.47411
30.6359
30.2397
78.5554
83.92
44.9839
46.0403
82.2847
28.7792