/*--------------------------------*- C++ -*----------------------------------*\
| =========                 |                                                 |
| \\      /  F ield         | OpenFOAM: The Open Source CFD Toolbox           |
|  \\    /   O peration     | Version:  2206                                  |
|   \\  /    A nd           | Website:  www.openfoam.com                      |
|    \\/     M anipulation  |                                                 |
\*---------------------------------------------------------------------------*/
FoamFile
{
    version     2.0;
    format      ascii;
    arch        "LSB;label=32;scalar=64";
    class       volScalarField;
    location    "500";
    object      epsilon;
}
// * * * * * * * * * * * * * * * * * * * * * * * * * * * * * * * * * * * * * //

dimensions      [0 2 -3 0 0 0 0];

internalField   nonuniform List<scalar> 
12940
(
31.2085
1.01577
0.217555
0.147412
0.134291
0.131014
0.12997
0.129509
119.606
6.80764
0.701354
0.226563
0.155961
0.13955
0.13466
0.132868
235.14
20.3547
2.29222
0.456595
0.208654
0.157112
0.142398
0.137305
368.327
44.6288
6.2771
1.10005
0.33837
0.194269
0.156437
0.143941
501.848
80.5181
13.8508
2.64075
0.654263
0.274595
0.183246
0.154991
607.913
124.9
25.5366
5.54976
1.34346
0.445567
0.235147
0.174414
658.145
170.487
40.7524
9.98303
2.5934
0.782013
0.333713
0.208893
642.559
209.313
57.9201
15.7802
4.48203
1.36501
0.511258
0.269059
576.753
236.574
75.4287
22.6627
6.98306
2.24878
0.806771
0.370579
489.04
251.025
92.2956
30.4268
10.0613
3.45442
1.25735
0.53421
403.047
253.342
107.94
39.0081
13.7414
4.99591
1.8927
0.784248
330.215
245.191
121.622
48.3902
18.1142
6.91183
2.73873
1.14623
272.25
229.161
132.228
58.4226
23.3011
9.28123
3.82891
1.64622
226.591
208.413
138.577
68.6496
29.3895
12.2183
5.21688
2.31372
190.106
185.866
140.006
78.2561
36.3454
15.8484
6.98362
3.18797
160.391
163.587
136.71
86.2111
43.92
20.2665
9.23356
4.32529
135.828
142.73
129.612
91.5799
51.5992
25.4765
12.0768
5.80303
115.361
123.804
119.958
93.8351
58.655
31.3255
15.5962
7.71543
98.3121
106.992
108.943
92.9881
64.3172
37.462
19.8003
10.1581
84.2827
92.3685
97.5474
89.5051
67.999
43.3642
24.5755
13.2004
73.0886
80.0298
86.5449
84.1209
69.4654
48.4588
29.6639
16.8513
64.6841
70.1452
76.5953
77.6837
68.876
52.2948
34.7009
21.0335
59.0237
62.9017
68.3148
71.0817
66.7282
54.6979
39.3275
25.5931
55.8877
58.3366
62.2335
65.2216
63.7674
55.8421
43.3471
30.3788
54.8131
56.1774
58.6008
60.9342
60.9064
56.2214
46.842
35.3878
55.2086
55.8819
57.2233
58.7082
59.0729
56.5539
50.1344
40.831
56.529
56.8444
57.5761
58.4754
58.8551
57.601
53.6214
46.8515
58.3659
58.56
59.0678
59.7576
60.228
59.7975
57.6365
53.2779
60.4467
60.6671
61.2059
61.9808
62.7344
63.0263
62.2653
59.9309
62.5999
62.9231
63.6302
64.6593
65.8325
66.8481
67.2786
66.6637
64.7196
65.1692
66.0916
67.4356
69.0757
70.8012
72.3012
73.2075
66.7411
67.3037
68.4251
70.0664
72.1454
74.5225
76.9791
79.245
68.6254
69.2657
70.5308
72.401
74.8371
77.7632
81.0425
84.5015
70.3501
71.0249
72.3612
74.3649
77.0413
80.3761
84.31
88.7668
71.9054
72.5742
73.9093
75.9439
78.7251
82.2973
86.6775
91.8863
73.2925
73.9241
75.1966
77.1652
79.9102
83.5255
88.0994
93.7446
74.5236
75.0968
76.2593
78.0769
80.6481
84.099
88.5742
94.2608
75.624
76.1235
77.1384
78.7323
81.0031
84.0837
88.1467
93.4202
76.6351
77.0471
77.8832
79.194
81.0564
83.5826
86.9365
91.3591
77.6174
77.931
78.5666
79.5545
80.9355
82.7699
85.1683
88.4066
78.5263
78.7536
79.215
79.9226
80.8773
82.0562
83.3714
84.5326
79.3798
79.5412
79.8715
80.3745
81.034
81.802
82.5713
83.1265
80.3348
80.4438
80.6715
81.0201
81.4707
81.9768
82.4527
82.7646
81.4192
81.4903
81.6449
81.8873
82.2019
82.551
82.8705
83.072
82.6502
82.6972
82.8051
82.9816
83.2157
83.4778
83.718
83.8687
84.0359
84.0702
84.1536
84.2966
84.4926
84.7172
84.9273
85.0615
85.5757
85.6069
85.6839
85.82
86.0122
86.2398
86.4601
86.6062
87.2628
87.298
87.3827
87.5337
87.7531
88.024
88.3007
88.497
89.0856
89.1292
89.2308
89.4129
89.6874
90.0478
90.4506
90.7744
91.0305
91.0829
91.2029
91.4221
91.7693
92.2666
92.9091
93.5698
93.343
93.4006
93.5316
93.7781
94.1916
94.8485
95.8947
97.6844
96.0825
96.1316
96.2436
96.4608
96.8307
97.4092
98.2645
99.4623
98.9962
99.0221
99.0844
99.2199
99.4631
99.8438
100.382
101.072
102.1
102.091
102.082
102.105
102.185
102.337
102.565
102.86
105.417
105.366
105.273
105.169
105.075
105.001
104.947
104.909
108.969
108.87
108.688
108.456
108.194
107.907
107.595
107.256
112.768
112.619
112.35
111.999
111.584
111.107
110.557
109.928
116.81
116.613
116.265
115.817
115.283
114.653
113.894
112.968
121.066
120.828
120.423
119.916
119.323
118.615
117.714
116.49
125.483
125.215
124.785
124.275
123.715
123.075
122.23
120.851
129.983
129.701
129.275
128.819
128.398
128.04
127.758
127.576
134.486
134.202
133.798
133.414
133.135
133.005
133.024
133.125
138.927
138.65
138.273
137.953
137.781
137.792
137.95
138.132
143.262
142.995
142.642
142.37
142.267
142.356
142.579
142.789
147.458
147.201
146.868
146.628
146.567
146.699
146.953
147.175
151.493
151.245
150.926
150.707
150.672
150.827
151.097
151.325
155.352
155.111
154.803
154.597
154.576
154.744
155.023
155.254
159.023
158.787
158.487
158.289
158.277
158.452
158.735
158.967
162.498
162.266
161.971
161.779
161.771
161.95
162.236
162.467
165.769
165.541
165.249
165.061
165.056
165.237
165.524
165.754
168.832
168.607
168.318
168.131
168.129
168.311
168.597
168.827
171.683
171.46
171.172
170.987
170.986
171.168
171.454
171.682
174.317
174.096
173.81
173.626
173.625
173.807
174.092
174.32
176.733
176.513
176.229
176.046
176.045
176.227
176.512
176.738
178.93
178.711
178.427
178.245
178.244
178.426
178.71
178.936
180.907
180.689
180.406
180.224
180.223
180.405
180.689
180.913
182.666
182.448
182.165
181.983
181.983
182.165
182.448
182.672
184.207
183.99
183.707
183.526
183.525
183.707
183.99
184.214
185.536
185.319
185.036
184.854
184.854
185.035
185.318
185.543
186.657
186.439
186.156
185.974
185.974
186.155
186.439
186.663
187.577
187.357
187.074
186.891
186.891
187.073
187.357
187.583
188.303
188.082
187.798
187.615
187.615
187.797
188.082
188.309
188.847
188.624
188.338
188.155
188.155
188.338
188.624
188.852
189.22
188.995
188.708
188.524
188.524
188.708
188.995
189.225
189.438
189.21
188.921
188.736
188.736
188.921
189.211
189.444
189.517
189.287
188.996
188.81
188.81
188.997
189.289
189.525
189.48
189.245
188.952
188.765
188.766
188.954
189.249
189.489
189.348
189.109
188.813
188.625
188.627
188.818
189.117
189.362
189.148
188.905
188.606
188.418
188.421
188.616
188.92
189.17
188.912
188.664
188.362
188.174
188.181
188.381
188.692
188.948
188.674
188.42
188.117
187.931
187.942
188.15
188.47
188.735
188.472
188.214
187.91
187.729
187.749
187.969
188.301
188.577
188.35
188.088
187.788
187.616
187.651
187.889
188.24
188.53
188.353
188.09
187.8
187.647
187.708
187.975
188.354
188.665
188.529
188.271
188.001
187.883
187.989
188.305
188.729
189.072
188.922
188.679
188.451
188.394
188.576
188.975
189.475
189.87
189.571
189.36
189.205
189.255
189.568
190.109
190.744
191.232
190.495
190.344
190.314
190.542
191.076
191.867
192.75
193.422
191.685
191.634
191.801
192.313
193.212
194.444
195.813
196.891
193.097
193.189
193.639
194.569
196.039
198.036
200.4
202.575
194.648
194.921
195.724
197.187
199.425
202.572
206.857
212.83
196.245
196.713
197.889
199.899
202.882
207.013
212.539
219.808
197.806
198.463
199.995
202.514
206.157
211.102
217.579
225.876
199.27
200.097
201.949
204.919
209.135
214.77
222.044
231.233
200.596
201.569
203.697
207.056
211.765
217.986
225.933
235.874
201.765
202.858
205.218
208.906
214.031
220.747
229.256
239.814
202.774
203.963
206.514
210.478
215.952
223.082
232.059
243.121
203.635
204.901
207.608
211.801
217.57
225.05
234.422
245.904
204.372
205.699
208.536
212.922
218.942
226.725
236.439
248.287
205.014
206.391
209.339
213.893
220.136
228.19
238.211
250.393
205.595
207.016
210.062
214.769
221.217
229.523
239.835
252.333
206.149
207.61
210.748
215.601
222.246
230.794
241.389
254.199
206.706
208.207
211.437
216.433
223.272
232.061
242.936
256.057
207.295
208.837
212.16
217.301
224.335
233.365
244.52
257.951
207.939
209.524
212.943
218.231
225.462
234.734
246.165
259.894
208.656
210.286
213.803
219.241
226.669
236.178
247.878
261.891
209.457
211.135
214.752
220.339
227.961
237.701
249.656
263.935
210.353
212.079
215.795
221.529
229.339
239.297
251.491
266.014
211.349
213.122
216.936
222.81
230.796
240.958
253.369
268.108
212.448
214.266
218.172
224.177
232.326
242.671
255.273
270.195
213.652
215.512
219.501
225.625
233.918
244.423
257.185
272.253
214.96
216.857
220.92
227.147
235.562
246.197
259.086
274.259
216.372
218.3
222.424
228.735
237.247
247.982
260.959
276.194
217.887
219.839
224.01
230.383
238.964
249.763
262.788
278.041
219.502
221.47
225.672
232.084
240.704
251.531
264.562
279.786
221.218
223.192
227.408
233.833
242.459
253.276
266.27
281.419
223.031
225.002
229.212
235.624
244.223
254.991
267.905
282.932
224.939
226.897
231.082
237.455
245.992
256.672
269.462
284.321
226.941
228.874
233.015
239.32
247.763
258.315
270.94
285.586
229.032
230.931
235.008
241.218
249.533
259.92
272.337
286.728
231.211
233.065
237.058
243.147
251.301
261.486
273.656
287.75
233.473
235.272
239.163
245.104
253.067
263.015
274.899
288.659
235.815
237.549
241.32
247.09
254.831
264.508
276.072
289.461
238.232
239.892
243.526
249.101
256.593
265.968
277.18
290.164
240.719
242.297
245.778
251.137
258.354
267.399
278.228
290.777
243.271
244.758
248.074
253.196
260.115
268.804
279.223
291.31
245.882
247.272
250.408
255.278
261.877
270.187
280.17
291.771
248.546
249.833
252.778
257.379
263.641
271.551
281.078
292.17
251.256
252.435
255.178
259.498
265.406
272.898
281.95
292.516
254.005
255.071
257.606
261.632
267.173
274.233
282.794
292.819
256.785
257.735
260.055
263.778
268.941
275.556
283.615
293.085
259.59
260.421
262.52
265.935
270.711
276.872
284.417
293.323
262.412
263.123
264.997
268.097
272.48
278.18
285.205
293.539
265.243
265.832
267.48
270.262
274.248
279.481
285.982
293.741
268.075
268.542
269.963
272.425
276.012
280.778
286.751
293.932
270.901
271.247
272.44
274.583
277.771
282.068
287.514
294.118
273.713
273.938
274.906
276.732
279.522
283.353
288.274
294.303
276.504
276.61
277.355
278.866
281.262
284.631
289.03
294.489
279.266
279.256
279.781
280.982
282.989
285.901
289.785
294.68
281.993
281.869
282.179
283.075
284.7
287.162
290.538
294.876
284.678
284.443
284.542
285.141
286.391
288.411
291.289
295.08
287.315
286.972
286.867
287.175
288.059
289.647
292.036
295.291
289.898
289.451
289.147
289.173
289.701
290.868
292.78
295.51
292.421
291.873
291.379
291.131
291.313
292.07
293.518
295.737
294.879
294.236
293.556
293.045
292.892
293.252
294.249
295.97
297.268
296.532
295.676
294.911
294.435
294.411
294.97
296.209
299.583
298.76
297.734
296.725
295.938
295.545
295.681
296.452
301.821
300.914
299.727
298.485
297.4
296.65
296.379
296.698
303.977
302.992
301.651
300.186
298.816
297.724
297.061
296.945
306.05
304.991
303.504
301.827
300.184
298.765
297.726
297.191
308.037
306.907
305.282
303.405
301.503
299.771
298.372
297.434
309.935
308.74
306.985
304.917
302.768
300.739
298.995
297.673
311.742
310.486
308.609
306.362
303.98
301.667
299.595
297.903
313.459
312.146
310.154
307.737
305.134
302.553
300.169
298.125
315.083
313.717
311.619
309.043
306.232
303.396
300.715
298.336
316.615
315.2
313.001
310.277
307.27
304.194
301.231
298.533
318.054
316.594
314.303
311.438
308.247
304.945
301.716
298.716
319.401
317.899
315.522
312.528
309.164
305.649
302.169
298.882
320.656
319.116
316.659
313.544
310.02
306.305
302.587
299.029
321.82
320.245
317.715
314.488
310.814
306.911
302.971
299.156
322.894
321.288
318.69
315.36
311.546
307.468
303.318
299.262
323.88
322.245
319.586
316.16
312.217
307.975
303.629
299.346
324.78
323.119
320.404
316.89
312.826
308.433
303.903
299.405
325.595
323.912
321.145
317.55
313.375
308.84
304.139
299.441
326.329
324.625
321.811
318.143
313.865
309.199
304.338
299.451
326.983
325.261
322.405
318.669
314.297
309.509
304.498
299.436
327.561
325.822
322.928
319.13
314.672
309.771
304.622
299.395
328.065
326.312
323.384
319.53
314.991
309.987
304.709
299.328
328.499
326.733
323.774
319.869
315.258
310.157
304.759
299.236
328.866
327.09
324.103
320.151
315.473
310.283
304.775
299.118
329.17
327.384
324.372
320.379
315.639
310.368
304.756
298.975
329.415
327.621
324.587
320.555
315.759
310.413
304.706
298.808
329.606
327.804
324.75
320.683
315.836
310.42
304.624
298.618
329.746
327.937
324.865
320.767
315.872
310.392
304.514
298.407
329.84
328.026
324.937
320.81
315.872
310.332
304.377
298.176
329.893
328.074
324.971
320.816
315.838
310.243
304.216
297.927
329.912
328.088
324.971
320.791
315.775
310.128
304.035
297.662
329.9
328.072
324.942
320.739
315.688
309.992
303.836
297.386
329.864
328.032
324.89
320.665
315.581
309.839
303.624
297.1
329.811
327.975
324.821
320.575
315.459
309.674
303.402
296.809
329.746
327.906
324.74
320.474
315.328
309.502
303.177
296.517
329.677
327.833
324.656
320.37
315.195
309.329
302.953
296.23
329.61
327.762
324.574
320.269
315.065
309.161
302.737
295.954
329.553
327.7
324.501
320.178
314.948
309.007
302.536
295.696
329.513
327.656
324.446
320.105
314.849
308.874
302.359
295.465
329.497
327.636
324.416
320.058
314.778
308.77
302.215
295.271
329.512
327.647
324.418
320.045
314.743
308.706
302.114
295.125
329.565
327.697
324.46
320.074
314.753
308.692
302.067
295.04
329.661
327.791
324.549
320.153
314.818
308.738
302.089
295.031
329.806
327.936
324.693
320.292
314.947
308.855
302.191
295.116
224.469
240.835
264.251
296.313
338.628
392.606
459.281
539.175
632.199
737.573
853.614
977.901
1107.04
1235.98
1357.45
231.7
250.022
274.86
307.489
349.142
400.882
463.499
537.414
622.589
718.458
823.621
936.502
1055.05
1176.59
1298.05
238.564
257.873
283.248
315.773
356.496
406.329
465.968
535.786
615.745
705.148
802.805
907.381
1017.31
1130.84
1246.64
244.651
264.388
289.859
322.052
361.919
410.296
467.811
534.768
611.033
695.744
787.879
886.164
989.21
1095.56
1204.5
249.846
269.724
295.125
326.984
366.197
413.537
469.548
534.449
607.841
688.959
776.784
870.075
967.511
1067.74
1170.17
254.191
274.099
299.419
331.048
369.831
416.468
471.411
534.66
605.742
683.93
768.197
857.328
950.044
1045.04
1141.7
257.813
277.746
303.05
334.586
373.137
419.318
473.421
535.259
604.39
680.057
761.238
846.749
935.35
1025.78
1117.37
260.868
280.88
306.265
337.838
376.31
422.183
475.515
536.125
603.519
676.916
755.309
837.552
922.453
1008.8
1095.89
263.515
283.684
309.248
340.967
379.462
425.02
477.665
537.146
602.923
674.203
749.999
829.209
910.694
993.307
1076.32
265.899
286.307
312.133
344.07
382.568
427.833
479.823
538.219
602.442
671.696
745.02
821.358
899.632
978.757
1058.02
268.141
288.858
315.003
347.144
385.633
430.603
481.935
539.252
601.948
669.23
740.166
813.751
888.966
964.795
1040.55
270.333
291.407
317.869
350.189
388.647
433.294
483.941
540.164
601.339
666.681
735.29
806.214
878.493
951.18
1023.61
272.535
293.974
320.727
353.197
391.584
435.863
485.783
540.885
600.533
663.954
730.287
798.627
868.075
937.751
1007.03
274.77
296.555
323.571
356.149
394.41
438.262
487.406
541.353
599.462
660.98
725.079
790.905
857.618
924.403
990.667
277.037
299.146
326.384
359.013
397.084
440.447
488.76
541.517
598.076
657.705
719.613
782.993
847.061
911.065
974.448
279.337
301.732
329.139
361.754
399.565
442.372
489.802
541.334
596.335
654.091
713.849
774.85
836.363
897.695
958.321
281.655
304.29
331.805
364.334
401.813
444
490.496
540.774
594.208
650.111
707.764
766.454
825.5
884.264
942.255
283.972
306.791
334.346
366.717
403.792
445.296
490.812
539.81
591.676
645.748
701.343
757.791
814.458
870.759
926.232
286.262
309.205
336.731
368.87
405.472
446.235
490.729
538.426
588.727
640.994
694.58
748.856
803.232
857.171
910.242
288.499
311.503
338.928
370.764
406.828
446.797
490.234
536.615
585.357
635.849
687.477
739.65
791.822
843.5
894.282
290.658
313.656
340.911
372.376
407.841
446.969
489.318
534.372
581.567
630.316
680.039
730.18
780.235
829.751
878.352
292.713
315.641
342.659
373.689
408.5
446.744
487.98
531.703
577.365
624.406
672.277
720.458
768.479
815.928
862.455
294.645
317.439
344.155
374.691
408.797
446.121
486.226
528.615
572.763
618.133
664.206
710.496
756.567
802.042
846.595
296.436
319.034
345.389
375.375
408.732
445.106
484.063
525.123
567.776
611.514
655.844
700.311
744.512
788.102
830.778
298.073
320.417
346.354
375.74
408.309
443.706
481.506
521.242
562.425
604.57
647.21
689.922
732.331
774.121
815.013
299.546
321.581
347.048
375.79
407.537
441.935
478.572
516.994
556.732
597.322
638.327
679.349
720.04
760.112
799.307
300.85
322.525
347.475
375.532
406.427
439.81
475.281
512.4
550.719
589.796
629.219
668.612
707.657
746.089
783.669
301.983
323.25
347.64
374.977
404.994
437.35
471.654
507.485
544.413
582.017
619.908
657.734
695.201
732.067
768.11
302.946
323.762
347.552
374.139
403.257
434.576
467.717
502.276
537.84
574.011
610.419
646.738
682.691
718.059
752.638
303.744
324.068
347.224
373.032
401.235
431.51
463.494
496.798
531.028
565.805
600.779
635.645
670.146
704.082
737.264
304.383
324.179
346.669
371.676
398.949
428.177
459.011
491.079
524.003
557.424
591.012
624.478
657.585
690.151
722
304.871
324.106
345.903
370.09
396.422
424.602
454.296
485.146
516.794
548.896
581.142
613.259
645.028
676.281
706.856
305.219
323.863
344.944
368.293
393.676
420.81
449.374
479.027
509.427
540.248
571.194
602.011
632.493
662.486
691.844
305.437
323.464
343.808
366.306
390.736
416.826
444.272
472.748
501.928
531.503
561.191
590.754
619.998
648.784
676.973
305.536
322.924
342.514
364.15
387.623
412.675
439.016
466.336
494.325
522.687
551.157
579.508
607.562
635.186
662.256
305.53
322.258
341.079
361.846
384.361
408.381
433.631
459.816
486.641
513.824
541.114
568.295
595.201
621.709
647.704
305.43
321.482
339.522
359.414
380.972
403.968
428.141
453.213
478.9
504.937
531.082
557.133
582.931
608.365
633.326
305.25
320.61
337.86
356.873
377.477
399.458
422.571
446.549
471.126
496.046
521.081
546.039
570.769
595.167
619.133
304.999
319.657
336.111
354.244
373.898
394.874
416.941
439.848
463.34
487.174
511.132
535.031
558.729
582.128
605.134
304.691
318.637
334.289
351.543
370.253
390.236
411.274
433.13
455.562
478.338
501.25
524.124
546.825
569.259
591.34
304.337
317.563
332.412
348.788
366.562
385.563
405.589
426.414
447.811
469.557
491.453
513.334
535.07
556.572
577.759
303.945
316.448
330.492
345.995
362.842
380.874
399.904
419.72
440.105
460.847
481.757
502.675
523.476
544.076
564.399
303.526
315.302
328.543
343.18
359.108
376.185
394.236
413.063
432.46
452.224
472.175
492.158
512.054
531.781
551.268
303.087
314.137
326.578
340.354
355.375
371.511
388.602
406.46
424.891
443.703
462.72
481.795
500.814
519.696
538.372
302.638
312.962
324.608
337.532
351.657
366.868
383.015
399.925
417.412
435.295
453.404
471.598
489.765
507.827
525.718
302.183
311.785
322.643
334.725
347.967
362.267
377.488
393.47
410.036
427.013
444.238
461.575
478.915
496.182
513.312
301.73
310.614
320.691
331.942
344.315
357.72
372.034
387.107
402.773
418.866
435.232
451.736
468.272
484.767
501.158
301.283
309.455
318.761
329.192
340.71
353.238
366.663
380.847
395.634
410.866
426.393
442.086
457.842
473.587
489.26
300.846
308.314
316.859
326.484
337.163
348.829
361.384
374.698
388.627
403.018
417.729
432.634
447.631
462.647
477.622
300.423
307.195
314.991
323.824
333.679
344.502
356.204
368.669
381.759
395.331
409.247
423.384
437.642
451.95
466.247
300.016
306.103
313.163
321.219
330.266
340.263
351.132
362.767
375.039
387.811
400.951
414.34
427.881
441.499
455.136
299.626
305.041
311.378
318.672
326.928
336.118
346.173
356.997
368.47
380.463
392.847
405.508
418.349
431.297
444.292
299.257
304.01
309.639
316.187
323.671
332.072
341.332
351.364
362.058
373.29
384.938
396.889
409.049
421.345
433.715
298.907
303.013
307.949
313.769
320.498
328.128
336.612
345.872
355.806
366.296
377.226
388.487
399.983
411.643
423.405
298.578
302.051
306.31
311.418
317.412
324.29
332.018
340.525
349.717
359.484
369.715
380.301
391.152
402.193
413.362
298.269
301.124
304.723
309.138
314.413
320.56
327.55
335.323
343.793
352.856
362.404
372.334
382.555
392.993
403.585
297.979
300.231
303.187
306.928
311.505
316.939
323.211
330.269
338.035
346.411
355.295
364.585
374.193
384.043
394.073
297.707
299.374
301.705
304.789
308.687
313.428
319.002
325.364
332.444
340.151
348.387
357.054
366.064
375.342
384.824
297.453
298.55
300.274
302.721
305.96
310.027
314.922
320.607
327.02
334.076
341.681
349.74
358.167
366.887
375.836
297.214
297.759
298.895
300.723
303.323
306.737
310.971
315.999
321.762
328.184
335.174
342.642
350.501
358.677
367.105
296.99
297
297.565
298.795
300.775
303.555
307.149
311.537
316.669
322.474
328.866
335.756
343.062
350.708
358.63
296.777
296.27
296.284
296.935
298.315
300.48
303.453
307.221
311.74
316.944
322.753
329.082
335.849
342.978
350.406
296.574
295.568
295.05
295.142
295.941
297.512
299.883
303.049
306.972
311.593
316.835
322.617
328.857
335.484
342.429
296.38
294.893
293.861
293.413
293.651
294.647
296.436
299.018
302.363
306.416
311.107
316.356
322.085
328.221
334.696
296.192
294.241
292.715
291.746
291.444
291.885
293.11
295.127
297.911
301.413
305.567
310.298
315.528
321.185
327.203
296.007
293.612
291.61
290.14
289.316
289.221
289.902
291.371
293.611
296.579
300.211
304.437
309.182
314.373
319.945
295.825
293.002
290.543
288.591
287.266
286.653
286.808
287.748
289.462
291.91
295.036
298.771
303.043
307.78
312.917
295.643
292.41
289.513
287.098
285.289
284.179
283.827
284.255
285.459
287.404
290.038
293.296
297.107
301.402
306.115
295.458
291.834
288.516
285.657
283.385
281.796
280.953
280.888
281.598
283.056
285.212
288.006
291.369
295.234
299.533
295.27
291.271
287.551
284.267
281.549
279.499
278.185
277.644
277.877
278.861
280.554
282.897
285.825
289.27
293.167
295.077
290.72
286.616
282.924
279.778
277.286
275.519
274.517
274.29
274.817
276.061
277.966
280.469
283.506
287.011
294.877
290.178
285.707
281.625
278.071
275.154
272.951
271.506
270.833
270.919
271.727
273.206
275.298
277.937
281.06
294.668
289.644
284.823
280.369
276.423
273.099
270.477
268.606
267.504
267.161
267.547
268.614
270.305
272.558
275.309
294.449
289.116
283.961
279.152
274.832
271.117
268.093
265.812
264.296
263.541
263.518
264.185
265.487
267.363
269.752
294.219
288.593
283.12
277.972
273.294
269.207
265.797
263.121
261.207
260.052
259.634
259.913
260.837
262.347
264.384
293.977
288.072
282.298
276.827
271.808
267.363
263.584
260.53
258.231
256.691
255.891
255.794
256.351
257.506
259.199
293.723
287.553
281.492
275.714
270.369
265.584
261.45
258.033
255.365
253.454
252.284
251.823
252.024
252.833
254.192
293.455
287.035
280.701
274.631
268.977
263.865
259.393
255.627
252.604
250.335
248.809
247.995
247.85
248.323
249.358
293.173
286.515
279.924
273.576
267.627
262.204
257.408
253.308
249.944
247.331
245.46
244.305
243.825
243.972
244.691
292.877
285.995
279.158
272.547
266.317
260.599
255.493
251.073
247.381
244.436
242.233
240.748
239.944
239.774
240.186
292.566
285.472
278.404
271.542
265.045
259.045
253.644
248.917
244.911
241.647
239.123
237.319
236.201
235.724
235.837
292.242
284.947
277.659
270.56
263.81
257.541
251.858
246.838
242.53
238.96
236.127
234.015
232.592
231.817
231.64
291.904
284.419
276.923
269.599
262.608
256.083
250.131
244.831
240.235
236.369
233.239
230.829
229.112
228.047
227.589
291.554
283.889
276.196
268.659
261.439
254.67
248.462
242.894
238.021
233.872
230.455
227.758
225.756
224.411
223.679
291.192
283.356
275.477
267.737
260.3
253.3
246.847
241.024
235.886
231.465
227.772
224.798
222.52
220.903
219.905
290.82
282.823
274.766
266.835
259.191
251.971
245.285
239.217
233.825
229.144
225.185
221.944
219.399
217.519
216.263
290.439
282.289
274.064
265.951
258.111
250.681
243.773
237.472
231.837
226.905
222.691
219.192
216.39
214.255
212.749
290.052
281.756
273.372
265.085
257.059
249.43
242.311
235.787
229.92
224.747
220.287
216.54
213.488
211.106
209.357
289.662
281.227
272.691
264.24
256.036
248.218
240.897
234.16
228.07
222.667
217.971
213.984
210.692
208.07
206.086
289.271
280.705
272.024
263.416
255.044
247.045
239.531
232.591
226.289
220.664
215.741
211.522
207.997
205.144
202.931
288.885
280.192
271.373
262.616
254.083
245.912
238.216
231.081
224.575
218.738
213.596
209.154
205.404
202.327
199.891
288.507
279.693
270.743
261.844
253.158
244.823
236.952
229.632
222.93
216.89
211.538
206.881
202.914
199.618
196.966
288.144
279.215
270.139
261.104
252.273
243.783
235.745
228.248
221.36
215.124
209.57
204.706
200.529
197.022
194.161
287.804
278.764
269.568
260.405
251.436
242.798
234.602
226.937
219.871
213.448
207.7
202.637
198.257
194.545
191.481
287.495
278.349
269.041
259.756
250.657
241.88
233.535
225.711
218.476
211.876
205.942
200.688
196.112
192.203
188.942
287.227
277.983
268.568
259.171
249.951
241.044
232.56
224.588
217.194
210.426
204.317
198.881
194.119
190.022
186.57
287.013
277.678
268.167
258.667
249.338
240.313
231.703
223.595
216.056
209.133
202.861
197.256
192.319
188.043
184.413
286.869
277.454
267.857
258.268
248.844
239.718
230.998
222.771
215.105
208.046
201.629
195.872
190.777
186.339
182.544
286.812
277.33
267.665
258.005
248.506
239.301
230.495
222.176
214.408
207.24
200.706
194.823
189.598
185.024
181.091
286.863
277.333
267.622
257.916
248.372
239.12
230.265
221.891
214.063
206.828
200.22
194.258
188.947
184.284
180.259
1476.83
1568.64
1663.22
1759.88
1853.65
1937.97
2005.67
2049.77
2064.41
2045.75
1992.76
1907.79
1796.78
1669.02
1536.34
1411.57
1306.59
1230.36
1187.88
1180.27
1205.7
1260.48
1339.85
1438.57
1551.32
1672.95
1798.68
1924.26
2046.02
2160.86
2266.29
2360.34
2441.6
2509.15
2562.56
2601.84
2627.43
2640.14
2641.13
2631.88
1408.15
1505.35
1602.83
1698.99
1789.26
1868.1
1929.53
1967.89
1978.6
1958.88
1908.46
1830.02
1729.34
1615.06
1497.87
1389.11
1299.08
1235.46
1202.51
1201.16
1229.82
1285.16
1362.89
1458.2
1566.16
1681.99
1801.24
1919.91
2034.57
2142.31
2240.79
2328.19
2403.24
2465.11
2513.47
2548.43
2570.49
2580.52
2579.77
2569.73
1352.77
1451.73
1549.19
1643.09
1729.15
1802.55
1858.28
1891.74
1899.37
1879.25
1831.7
1759.63
1668.65
1566.78
1463.64
1369.25
1292.53
1240.06
1215.47
1219.55
1250.84
1306.39
1382.27
1474.09
1577.3
1687.44
1800.36
1912.34
2020.14
2121.04
2212.86
2293.93
2363.07
2419.57
2463.19
2494.11
2512.89
2520.47
2518.11
2507.35
1307.38
1406.16
1501.87
1592.38
1673.74
1741.72
1792.13
1821.22
1826.29
1806.12
1761.51
1695.54
1613.62
1523.14
1432.76
1351.29
1286.46
1243.89
1226.67
1235.44
1268.88
1324.33
1398.22
1486.52
1585.01
1689.58
1796.34
1901.83
2003
2097.33
2182.77
2257.79
2321.32
2372.75
2411.91
2439.06
2454.81
2460.14
2456.35
2444.99
1269.53
1366.67
1459.46
1545.85
1622.24
1684.95
1730.43
1755.67
1758.66
1738.77
1697.18
1637.06
1563.59
1483.56
1404.74
1334.87
1280.62
1246.8
1236.03
1248.82
1283.97
1339.06
1410.83
1495.59
1589.44
1688.56
1789.35
1888.55
1983.35
2071.36
2150.71
2219.97
2278.19
2324.84
2359.84
2383.48
2396.43
2399.72
2394.65
2382.81
1237.25
1331.66
1420.78
1502.65
1574.02
1631.67
1672.64
1694.54
1695.91
1676.6
1638.09
1583.57
1517.97
1447.51
1379.15
1319.64
1274.77
1248.65
1243.5
1259.7
1296.15
1350.64
1420.2
1501.42
1590.72
1684.54
1779.54
1872.7
1961.36
2043.35
2116.89
2180.69
2233.89
2276.05
2307.15
2327.54
2337.93
2339.37
2333.17
2320.93
1208.96
1299.94
1384.94
1462.11
1528.54
1581.45
1618.35
1637.37
1637.53
1619.07
1583.66
1534.5
1476.21
1414.5
1355.55
1305.3
1268.72
1249.35
1249.05
1268.1
1305.49
1359.17
1426.43
1504.14
1588.98
1677.67
1767.1
1854.44
1937.24
2013.47
2081.49
2140.12
2188.59
2226.55
2254.03
2271.41
2279.46
2279.23
2272.05
2259.5
1183.49
1270.59
1351.24
1423.72
1485.41
1533.91
1567.18
1583.76
1583.09
1565.69
1533.38
1489.31
1437.81
1384.07
1333.58
1291.56
1262.29
1248.81
1252.67
1274.08
1312.07
1364.77
1429.67
1503.91
1584.41
1668.13
1752.19
1833.96
1911.17
1981.91
2044.7
2098.46
2142.49
2176.52
2200.62
2215.25
2221.17
2219.44
2211.4
2198.62
1159.97
1242.96
1319.21
1387.09
1444.3
1488.77
1518.82
1533.38
1532.19
1516.03
1486.8
1447.54
1402.31
1355.8
1312.91
1278.18
1255.34
1246.97
1254.39
1277.7
1316
1367.55
1430.07
1500.88
1577.16
1656.09
1735
1811.45
1883.32
1948.87
2006.72
2055.87
2095.75
2126.11
2147.1
2159.19
2163.17
2160.11
2151.34
2138.4
1137.8
1216.59
1288.49
1351.97
1404.99
1445.79
1473.02
1485.92
1484.5
1469.71
1443.48
1408.77
1369.3
1329.34
1293.24
1264.97
1247.76
1243.81
1254.22
1279.04
1317.38
1367.67
1427.76
1495.21
1567.4
1641.73
1715.7
1787.08
1853.89
1914.51
1967.69
2012.54
2048.52
2075.48
2093.59
2103.36
2105.58
2101.34
2091.95
2078.92
1116.56
1191.18
1258.84
1318.14
1367.28
1404.78
1429.56
1441.13
1439.71
1426.37
1403.07
1372.6
1338.42
1304.38
1274.33
1251.75
1239.45
1239.3
1252.22
1278.18
1316.35
1365.26
1422.92
1487.08
1555.32
1625.23
1694.49
1761.04
1823.04
1879.02
1927.81
1968.61
2000.96
2024.76
2040.22
2047.88
2048.53
2043.25
2033.33
2020.28
1095.99
1166.51
1230.1
1285.47
1331.05
1365.58
1388.25
1398.77
1397.53
1385.7
1365.21
1338.69
1309.35
1280.63
1255.96
1238.4
1230.36
1233.45
1248.44
1275.23
1313.04
1360.47
1415.71
1476.67
1541.09
1606.76
1671.54
1733.5
1790.96
1842.55
1887.22
1924.23
1953.21
1974.09
1987.12
1992.85
1992.09
1985.9
1975.56
1962.53
1075.9
1142.46
1202.17
1253.87
1296.18
1328.07
1348.91
1358.62
1357.72
1347.42
1329.6
1306.75
1281.8
1257.86
1237.96
1224.79
1220.44
1226.29
1242.95
1270.3
1307.57
1353.47
1406.3
1464.13
1524.89
1586.51
1647.02
1704.63
1757.81
1805.27
1846.07
1879.56
1905.4
1923.59
1934.4
1938.38
1936.36
1929.39
1918.71
1905.74
1056.17
1118.92
1174.97
1223.25
1262.58
1292.11
1311.4
1320.51
1320.05
1311.26
1295.97
1276.5
1255.53
1235.86
1220.19
1210.86
1209.68
1217.85
1235.84
1263.5
1300.09
1344.4
1394.85
1449.65
1506.89
1564.65
1621.1
1674.61
1723.74
1767.33
1804.51
1834.71
1857.66
1873.36
1882.14
1884.56
1881.42
1873.77
1862.83
1849.98
1036.72
1095.85
1148.45
1193.56
1230.18
1257.62
1275.58
1284.24
1284.3
1277
1264.08
1247.71
1230.33
1214.47
1202.51
1196.52
1198.08
1208.17
1227.19
1254.95
1290.74
1333.42