/*--------------------------------*- C++ -*----------------------------------*\
| =========                 |                                                 |
| \\      /  F ield         | OpenFOAM: The Open Source CFD Toolbox           |
|  \\    /   O peration     | Version:  2206                                  |
|   \\  /    A nd           | Website:  www.openfoam.com                      |
|    \\/     M anipulation  |                                                 |
\*---------------------------------------------------------------------------*/
FoamFile
{
    version     2.0;
    format      ascii;
    arch        "LSB;label=32;scalar=64";
    class       volScalarField;
    location    "500";
    object      k;
}
// * * * * * * * * * * * * * * * * * * * * * * * * * * * * * * * * * * * * * //

dimensions      [0 2 -2 0 0 0 0];

internalField   nonuniform List<scalar> 
12940
(
1.16199
0.424869
0.386757
0.385484
0.384999
0.384684
0.384294
0.383867
2.7958
0.533848
0.400972
0.394233
0.392417
0.391614
0.390784
0.389909
4.86002
0.802243
0.428445
0.400963
0.398433
0.397909
0.397025
0.395852
7.37578
1.34452
0.503907
0.410666
0.402896
0.402747
0.402268
0.401153
10.2204
2.24366
0.681603
0.436509
0.407555
0.40593
0.40599
0.405294
13.0376
3.50506
1.01599
0.500936
0.417372
0.408198
0.408087
0.407959
15.2935
5.02528
1.53273
0.629366
0.441393
0.41171
0.409034
0.409178
16.565
6.62664
2.21909
0.840409
0.491103
0.420276
0.409924
0.409342
16.8109
8.13579
3.04305
1.14359
0.578057
0.439267
0.412519
0.409111
16.3381
9.42728
3.9736
1.54501
0.713354
0.475424
0.419448
0.409402
15.5379
10.4215
4.97925
2.05207
0.908843
0.536926
0.434519
0.411575
14.6726
11.0806
6.01226
2.67127
1.17822
0.633757
0.463052
0.417772
13.8433
11.4141
7.00061
3.3995
1.53639
0.778096
0.512237
0.431324
13.0628
11.472
7.86135
4.21344
1.99616
0.984252
0.591468
0.457169
12.3202
11.3214
8.52779
5.06429
2.56197
1.26752
0.7125
0.502242
11.6065
11.0241
8.96963
5.88435
3.22228
1.64127
0.889124
0.575774
10.9194
10.6285
9.19351
6.60464
3.94461
2.11189
1.13588
0.689324
10.2647
10.1732
9.2304
7.17439
4.67795
2.67279
1.46526
0.856271
9.65946
9.69427
9.12355
7.57225
5.36449
3.30035
1.88345
1.09038
9.13767
9.2354
8.92471
7.80766
5.95659
3.95604
2.3858
1.40324
8.75649
8.85829
8.6994
7.91917
6.43239
4.59723
2.95521
1.80112
8.59833
8.65108
8.5375
7.97698
6.80777
5.19517
3.5676
2.28336
8.75643
8.7227
8.56003
8.09106
7.14747
5.75752
4.2082
2.84694
9.29911
9.17022
8.90215
8.41205
7.5762
6.35342
4.90103
3.505
10.2345
10.0318
9.66039
9.09581
8.26994
7.13149
5.7482
4.3284
11.5091
11.2698
10.8422
10.2264
9.38774
8.28678
6.94285
5.49463
13.0371
12.7976
12.3728
11.7709
10.9704
9.93888
8.6685
7.23677
14.7298
14.5176
14.1435
13.6178
12.9247
12.0351
10.9258
9.62269
16.5115
16.3436
16.0495
15.6391
15.1004
14.4078
13.5318
12.4646
18.3243
18.2077
18.0056
17.7255
17.3582
16.8822
16.2679
15.4916
20.1274
20.0611
19.9486
19.795
19.5931
19.3258
18.9669
18.4886
21.8953
21.872
21.8365
21.7921
21.7343
21.6509
21.5205
21.3185
23.6144
23.623
23.6453
23.6848
23.7404
23.8057
23.8657
23.9024
25.2808
25.3089
25.3674
25.4616
25.595
25.7677
25.9724
26.1999
26.8979
26.934
27.0083
27.1284
27.3028
27.5382
27.8357
28.1969
28.4736
28.5093
28.5829
28.7041
28.8849
29.1376
29.471
29.8978
30.0188
30.0488
30.1108
30.2148
30.3733
30.6004
30.9101
31.3229
31.5447
31.5667
31.6118
31.6878
31.8043
31.9716
32.2012
32.5118
33.0611
33.0746
33.1019
33.1477
33.2156
33.3065
33.4176
33.5438
34.5752
34.5808
34.5928
34.614
34.6434
34.6727
34.6778
34.594
35.9107
35.9105
35.913
35.9217
35.937
35.9555
35.9694
35.97
37.0669
37.0629
37.0595
37.0613
37.0705
37.0863
37.1051
37.1197
38.2252
38.2182
38.2103
38.2072
38.2122
38.2257
38.2446
38.2604
39.3873
39.3781
39.3666
39.3595
39.3608
39.3714
39.3882
39.4024
40.5553
40.5444
40.5298
40.519
40.5165
40.5236
40.5375
40.5499
41.7314
41.7191
41.7017
41.687
41.6802
41.6833
41.6941
41.7048
42.918
42.9044
42.8839
42.8649
42.8531
42.8514
42.8588
42.8683
44.1177
44.1026
44.0785
44.0541
44.0361
44.0287
44.0324
44.0412
45.3332
45.3161
45.2873
45.256
45.23
45.2153
45.2149
45.2247
46.5681
46.548
46.5126
46.4718
46.4345
46.4096
46.4049
46.4216
47.984
47.9592
47.9134
47.857
47.8002
47.7549
47.7385
47.7862
49.6064
49.5737
49.511
49.428
49.3334
49.2346
49.137
49.0404
51.2901
51.2472
51.1631
51.0468
50.9047
50.7408
50.5553
50.3434
53.0461
52.9913
52.883
52.7295
52.5362
52.3055
52.0371
51.7289
54.8845
54.8165
54.6824
54.4904
54.2453
53.9488
53.6011
53.2026
56.8128
56.7311
56.571
56.3415
56.0465
55.6865
55.2607
54.7703
58.8344
58.7394
58.5557
58.2931
57.9542
57.5359
57.0329
56.4428
60.9462
60.84
60.6385
60.3533
59.9842
59.5212
58.9468
58.2435
63.1362
63.023
62.8144
62.5251
62.1531
61.6788
61.0607
60.2345
65.381
65.2669
65.0656
64.7987
64.4685
64.0538
63.4907
62.6108
67.6466
67.5376
67.3568
67.1371
66.8971
66.6474
66.4008
66.2003
69.8957
69.7953
69.6391
69.4694
69.3138
69.1909
69.1132
69.0839
72.0966
72.0054
71.8717
71.7425
71.6473
71.6013
71.603
71.6273
74.2258
74.1428
74.0267
73.9261
73.8694
73.8664
73.9057
73.9505
76.2671
76.1907
76.0873
76.0055
75.9721
75.9928
76.0508
76.1048
78.2101
78.1388
78.0441
77.9742
77.9546
77.9885
78.0562
78.1145
80.0483
79.9807
79.8919
79.8295
79.818
79.8591
79.9319
79.9924
81.7776
81.7128
81.6279
81.5703
81.5635
81.6086
81.684
81.7454
83.3954
83.3327
83.2505
83.1959
83.1919
83.2391
83.3157
83.3773
84.9
84.8389
84.7586
84.7059
84.7036
84.752
84.829
84.8903
86.2904
86.2305
86.1517
86.1002
86.0989
86.1477
86.2247
86.2856
87.5656
87.5068
87.429
87.3785
87.3777
87.4267
87.5035
87.5638
88.7252
88.6672
88.5903
88.5405
88.54
88.5889
88.6653
88.7251
89.7687
89.7115
89.6353
89.586
89.5857
89.6345
89.7104
89.7696
90.6959
90.6393
90.5637
90.5148
90.5146
90.5632
90.6388
90.6974
91.5068
91.4507
91.3756
91.327
91.3269
91.3753
91.4504
91.5086
92.2013
92.1457
92.071
92.0227
92.0226
92.0708
92.1455
92.2033
92.7798
92.7245
92.6502
92.6022
92.6021
92.65
92.7244
92.7818
93.2426
93.1876
93.1137
93.0658
93.0657
93.1135
93.1875
93.2446
93.5905
93.5357
93.462
93.4143
93.4142
93.4618
93.5355
93.5925
93.8243
93.7696
93.6961
93.6486
93.6485
93.6959
93.7694
93.8263
93.9453
93.8906
93.8172
93.7698
93.7697
93.817
93.8904
93.9471
93.9548
93.9
93.8268
93.7795
93.7794
93.8266
93.8998
93.9566
93.8547
93.7998
93.7266
93.6793
93.6792
93.7263
93.7995
93.8563
93.6471
93.5918
93.5186
93.4714
93.4713
93.5183
93.5915
93.6486
93.3343
93.2787
93.2054
93.1582
93.1581
93.2051
93.2783
93.3357
92.9192
92.8632
92.7898
92.7425
92.7424
92.7895
92.8628
92.9205
92.4051
92.3485
92.275
92.2277
92.2275
92.2747
92.3482
92.4063
91.7956
91.7384
91.6646
91.6172
91.6171
91.6643
91.738
91.7967
91.0947
91.0368
90.9627
90.9152
90.9152
90.9626
91.0366
91.0959
90.3072
90.2484
90.174
90.1265
90.1265
90.1741
90.2485
90.3085
89.438
89.3783
89.3036
89.256
89.2562
89.3041
89.379
89.4399
88.4929
88.4322
88.3571
88.3096
88.3101
88.3584
88.434
88.4959
87.478
87.4163
87.3411
87.2938
87.2947
87.3437
87.4202
87.4833
86.4002
86.3377
86.2626
86.2158
86.2174
86.2673
86.3452
86.41
85.2668
85.2039
85.1297
85.084
85.0867
85.138
85.2179
85.2851
84.0857
84.0234
83.9516
83.9081
83.9124
83.9656
84.0487
84.12
82.8652
82.8056
82.7387
82.6998
82.707
82.7626
82.8501
82.9281
81.6145
81.5608
81.5037
81.4736
81.4866
81.5456
81.6379
81.7262
80.3436
80.3007
80.2606
80.2478
80.2741
80.341
80.4385
80.5374
79.0648
79.0383
79.0248
79.0426
79.0991
79.1911
79.2997
79.3726
77.7936
77.7882
77.8113
77.8764
77.9909
78.1573
78.3738
78.6377
76.5459
76.5647
76.6313
76.7562
76.9483
77.2168
77.5741
78.0407
75.3346
75.378
75.491
75.6815
75.9595
76.3387
76.839
77.4894
74.1688
74.2356
74.3939
74.6497
75.0134
75.5008
76.1346
76.9457
73.0547
73.1425
73.3427
73.6598
74.104
74.6917
75.4458
76.3964
71.9968
72.1026
72.3402
72.7128
73.2304
73.9087
74.7699
75.8419
70.9985
71.1197
71.39
71.8122
72.3956
73.1552
74.1118
75.2909
70.0628
70.197
70.4961
70.9625
71.6051
72.4381
73.4807
74.756
69.1926
69.3381
69.6628
70.1692
70.8658
71.7658
72.8871
74.2507
68.3902
68.5458
68.8941
69.4373
70.184
71.1466
72.3413
73.7875
67.658
67.823
68.1933
68.7714
69.5656
70.5874
71.8518
73.3762
66.9973
67.1714
67.5631
68.1749
69.0147
70.0933
71.4245
73.0237
66.4089
66.5921
67.0049
67.6496
68.5338
69.6674
71.0628
72.7337
65.8926
66.0851
66.5189
67.1961
68.1236
69.3106
70.7674
72.5059
65.4477
65.6496
66.1043
66.8135
67.7832
69.0213
70.5366
72.3387
65.0726
65.284
65.7594
66.4997
67.51
68.7969
70.3672
72.2282
64.7654
64.9861
65.4817
66.2519
67.3009
68.6336
70.2549
72.1698
64.5234
64.7532
65.2681
66.0667
67.1519
68.5269
70.1946
72.1577
64.3439
64.5823
65.1153
65.9402
67.0586
68.4718
70.1808
72.1858
64.2239
64.4701
65.0196
65.8684
67.0162
68.463
70.2075
72.2479
64.1601
64.4134
64.9774
65.8469
67.0202
68.4953
70.2692
72.3379
64.1495
64.4086
64.9849
65.8717
67.0658
68.5637
70.3605
72.4502
64.1886
64.4523
65.0383
65.9386
67.1487
68.6634
70.4763
72.5795
64.2744
64.5413
65.1342
66.0439
67.2647
68.7901
70.6122
72.7213
64.4037
64.6722
65.2691
66.184
67.4101
68.9399
70.764
72.8715
64.5736
64.8422
65.4398
66.3554
67.5815
69.1092
70.9284
73.0268
64.7811
65.0481
65.6433
66.5553
67.7756
69.295
71.1023
73.1843
65.0235
65.2872
65.8768
66.7806
67.9899
69.4947
71.2833
73.3418
65.2981
65.5568
66.1377
67.029
68.2218
69.706
71.4693
73.4977
65.6023
65.8543
66.4235
67.2981
68.4693
69.9269
71.6588
73.6505
65.9336
66.1774
66.7318
67.5856
68.7304
70.156
71.8505
73.7994
66.2894
66.5235
67.0605
67.8897
69.0033
70.3918
72.0434
73.9439
66.6674
66.8905
67.4074
68.2085
69.2867
70.6332
72.2367
74.0836
67.0654
67.2762
67.7706
68.5403
69.5792
70.8793
72.43
74.2184
67.4809
67.6783
68.1481
68.8835
69.8795
71.1292
72.6229
74.3485
67.9119
68.0948
68.5382
69.2366
70.1865
71.3823
72.8152
74.474
68.356
68.5236
68.9389
69.5981
70.4992
71.6379
73.0066
74.5953
68.8113
68.9628
69.3486
69.9666
70.8166
71.8954
73.1972
74.7127
69.2755
69.4105
69.7656
70.3408
71.1376
72.1544
73.3867
74.8266
69.7469
69.8647
70.1883
70.7195
71.4615
72.4144
73.5753
74.9374
70.2233
70.3238
70.6152
71.1013
71.7873
72.6749
73.7627
75.0455
70.703
70.7859
71.0446
71.485
72.1141
72.9355
73.949
75.1512
71.1842
71.2494
71.4753
71.8696
72.4412
73.1956
74.1341
75.2549
71.6652
71.7128
71.9057
72.2537
72.7677
73.4547
74.3179
75.3567
72.1444
72.1744
72.3345
72.6365
73.0929
73.7125
74.5002
75.4569
72.6202
72.633
72.7606
73.0167
73.4159
73.9685
74.6809
75.5557
73.0913
73.0871
73.1826
73.3935
73.736
74.2221
74.8598
75.6531
73.5563
73.5354
73.5995
73.7659
74.0524
74.4728
75.0367
75.7493
74.014
73.9769
74.0102
74.1329
74.3645
74.7203
75.2112
75.8442
74.4633
74.4105
74.4138
74.4938
74.6717
74.964
75.3833
75.9378
74.9031
74.8351
74.8093
74.8478
74.9732
75.2035
75.5526
76.0301
75.3325
75.2498
75.1959
75.1941
75.2684
75.4383
75.7188
76.1208
75.7507
75.6539
75.5728
75.5321
75.5569
75.6679
75.8816
76.21
76.157
76.0467
75.9394
75.8612
75.8381
75.8921
76.0407
76.2974
76.5506
76.4274
76.2951
76.1807
76.1114
76.1103
76.1959
76.3828
76.931
76.7956
76.6394
76.4903
76.3765
76.3221
76.3468
76.466
77.2977
77.1508
76.9717
76.7894
76.633
76.5274
76.4932
76.5468
77.6504
77.4925
77.2917
77.0777
76.8804
76.7256
76.6347
76.6251
77.9888
77.8205
77.5991
77.355
77.1186
76.9166
76.7711
76.7005
78.3125
78.1345
77.8936
77.6208
77.3472
77.1
76.9022
76.7729
78.6214
78.4343
78.175
77.875
77.5659
77.2756
77.0277
76.842
78.9154
78.7197
78.4431
78.1174
77.7747
77.4433
77.1475
76.9077
79.1945
78.9908
78.6979
78.3479
77.9733
77.6028
77.2613
76.9696
79.4586
79.2475
78.9393
78.5664
78.1616
77.754
77.3689
77.0277
79.7078
79.4898
79.1674
78.7729
78.3396
77.8968
77.4702
77.0818
79.9422
79.7179
79.3821
78.9674
78.5072
78.0311
77.5651
77.1316
80.162
79.9318
79.5836
79.15
78.6645
78.1569
77.6534
77.1771
80.3674
80.1317
79.7719
79.3206
78.8113
78.274
77.7352
77.218
80.5585
80.3179
79.9473
79.4795
78.9479
78.3826
77.8103
77.2544
80.7357
80.4906
80.1101
79.6268
79.0743
78.4826
77.8787
77.2861
80.8993
80.65
80.2603
79.7627
79.1906
78.5742
77.9404
77.313
81.0496
80.7965
80.3983
79.8874
79.297
78.6573
77.9954
77.3351
81.1869
80.9304
80.5244
80.0011
79.3937
78.7322
78.0437
77.3523
81.3118
81.0521
80.6389
80.1041
79.4808
78.7989
78.0854
77.3647
81.4245
81.162
80.7422
80.1968
79.5586
78.8576
78.1207
77.3722
81.5256
81.2606
80.8346
80.2794
79.6274
78.9085
78.1496
77.3749
81.6155
81.3482
80.9167
80.3523
79.6876
78.9519
78.1723
77.3729
81.6948
81.4254
80.9888
80.416
79.7393
78.988
78.1889
77.3663
81.764
81.4927
81.0514
80.4708
79.783
79.017
78.1997
77.3551
81.8236
81.5507
81.105
80.5173
79.819
79.0394
78.2049
77.3396
81.8744
81.5999
81.1503
80.5558
79.8479
79.0554
78.2048
77.32
81.9169
81.641
81.1877
80.587
79.8701
79.0655
78.1997
77.2965
81.9518
81.6747
81.2179
80.6114
79.886
79.0701
78.19
77.2694
81.9798
81.7015
81.2416
80.6296
79.8963
79.0698
78.1761
77.2391
82.0018
81.7224
81.2595
80.6424
79.9015
79.0649
78.1585
77.2059
82.0185
81.7381
81.2723
80.6504
79.9024
79.0563
78.1377
77.1703
82.0307
81.7494
81.2809
80.6544
79.8996
79.0444
78.1144
77.1328
82.0395
81.7572
81.2862
80.6552
79.894
79.0302
78.0891
77.0942
82.0457
81.7625
81.289
80.6537
79.8864
79.0143
78.0628
77.055
82.0504
81.7662
81.2903
80.651
79.8778
78.9978
78.0363
77.0163
82.0546
81.7695
81.2913
80.648
79.8691
78.9816
78.0105
76.9789
82.0593
81.7734
81.2929
80.6459
79.8616
78.9669
77.9867
76.944
82.0658
81.779
81.2963
80.6457
79.8563
78.9548
77.966
76.9128
82.0751
81.7874
81.3027
80.6487
79.8545
78.9467
77.9499
76.887
82.0883
81.7998
81.3132
80.6562
79.8575
78.9439
77.9399
76.868
82.1063
81.8171
81.3289
80.6692
79.8667
78.948
77.9375
76.8578
82.1302
81.8404
81.3509
80.6891
79.8834
78.9605
77.9447
76.8584
82.1606
81.8705
81.3803
80.7169
79.909
78.983
77.9631
76.872
82.1981
81.9085
81.4182
80.7541
79.9448
79.017
77.9949
76.9009
79.0695
79.4193
80.6636
83.0201
86.6566
91.6707
98.0731
105.78
114.618
124.342
134.639
145.167
155.556
165.38
174.132
78.7917
79.4964
81.0792
83.6822
87.4111
92.3199
98.4019
105.584
113.73
122.647
132.084
141.792
151.511
160.974
169.93
78.5028
79.4744
81.284
84.0374
87.8116
92.6434
98.52
105.374
113.085
121.469
130.314
139.407
148.543
157.525
166.22
78.1833
79.3546
81.3265
84.1877
88.0013
92.7948
98.5504
105.2
112.622
120.636
129.052
137.678
146.333
154.853
163.154
77.8244
79.1522
81.254
84.2091
88.0723
92.8627
98.5556
105.077
112.293
120.035
128.126
136.386
144.647
152.762
160.661
77.429
78.8897
81.1084
84.1578
88.0847
92.8995
98.5683
105.002
112.063
119.594
127.425
135.386
143.319
151.086
158.621
77.0084
78.5921
80.9255
84.075
88.0787
92.9367
98.6004
104.967
111.906
119.264
126.876
134.582
142.234
149.701
156.914
76.5792
78.2837
80.7347
83.9909
88.0804
92.9908
98.6535
104.968
111.802
119.008
126.429
133.91
141.313
148.515
155.446
76.1589
77.9864
80.5588
83.9265
88.106
93.0643
98.7295
104.997
111.737
118.804
126.047
133.324
140.502
147.464
154.144
75.7641
77.7176
80.4145
83.895
88.1577
93.1607
98.8268
105.048
111.696
118.63
125.707
132.792
139.76
146.504
152.956
75.4088
77.4907
80.3121
83.8989
88.2379
93.2797
98.9416
105.114
111.67
118.473
125.39
132.291
139.062
145.601
151.844
75.1033
77.3135
80.2541
83.9389
88.3459
93.4182
99.0683
105.186
111.647
118.321
125.08
131.805
138.388
144.733
150.781
74.854
77.1883
80.2399
84.0136
88.4785
93.571
99.2004
105.257
111.619
118.163
124.767
131.32
137.722
143.883
149.748
74.6625
77.1139
80.2676
84.1194
88.6305
93.732
99.3312
105.319
111.578
117.991
124.442
130.827
137.053
143.039
148.729
74.5275
77.0877
80.3329
84.2508
88.7956
93.8946
99.4537
105.366
111.518
117.797
124.097
130.318
136.374
142.19
147.715
74.4461
77.1054
80.4304
84.4013
88.9671
94.0517
99.5612
105.391
111.432
117.577
123.725
129.785
135.676
141.33
146.696
74.4141
77.1614
80.5534
84.5641
89.1379
94.1968
99.6477
105.388
111.314
117.324
123.323
129.225
134.956
140.453
145.668
74.4258
77.2491
80.695
84.7322
89.3014
94.3238
99.7075
105.353
111.161
117.035
122.886
128.634
134.209
139.554
144.625
74.475
77.3618
80.8484
84.8988
89.4514
94.4273
99.7359
105.282
110.969
116.707
122.411
128.007
133.432
138.63
143.563
74.555
77.4927
81.0069
85.0579
89.5827
94.5024
99.7289
105.17
110.734
116.336
121.895
127.343
132.621
137.679
142.48
74.6595
77.6354
81.1644
85.2041
89.6903
94.5454
99.6834
105.016
110.455
115.92
121.337
126.64
131.776
136.698
141.371
74.7822
77.784
81.3157
85.3326
89.7706
94.5532
99.597
104.817
110.13
115.46
120.736
125.897
130.894
135.685
140.237
74.9176
77.9333
81.4561
85.4398
89.8205
94.5234
99.4681
104.573
109.759
114.953
120.09
125.114
129.976
134.64
139.075
75.0604
78.0788
81.5818
85.5224
89.8376
94.4546
99.2957
104.283
109.341
114.401
119.402
124.29
129.022
133.563
137.885
75.2065
78.2166
81.6897
85.5783
89.8206
94.3459
99.0796
103.947
108.877
113.804
118.67
123.425
128.03
132.452
136.665
75.352
78.3438
81.7775
85.606
89.7685
94.1971
98.8201
103.566
108.368
113.162
117.895
122.521
127.002
131.309
135.417
75.4939
78.458
81.8437
85.6044
89.6812
94.0086
98.5179
103.141
107.814
112.477
117.08
121.579
125.939
130.134
134.14
75.6299
78.5574
81.8872
85.5733
89.5589
93.7811
98.1743
102.674
107.218
111.751
116.225
120.6
124.842
128.928
132.835
75.7581
78.641
81.9075
85.5129
89.4024
93.5159
97.7909
102.166
106.581
110.986
115.333
119.585
123.712
127.692
131.503
75.8773
78.708
81.9047
85.4238
89.2129
93.2147
97.3695
101.619
105.907
110.183
114.406
118.538
122.552
126.428
130.145
75.9867
78.7584
81.8791
85.3069
88.9918
92.8792
96.9124
101.036
105.196
109.346
113.445
117.46
121.363
125.137
128.763
76.0858
78.7923
81.8316
85.1637
88.741
92.5116
96.4219
100.419
104.452
108.477
112.454
116.353
120.147
123.821
127.358
76.1746
78.8102
81.7633
84.9956
88.4623
92.1142
95.9005
99.7708
103.678
107.578
111.435
115.219
118.907
122.483
125.932
76.2531
78.8127
81.6752
84.8043
88.1578
91.6893
95.3508
99.0944
102.875
106.652
110.391
114.062
117.645
121.124
124.486
76.322
78.801
81.569
84.5918
87.8298
91.2394
94.7754
98.3925
102.048
105.702
109.323
112.884
116.363
119.747
123.024
76.3816
78.776
81.446
84.3598
87.4805
90.7672
94.1771
97.6677
101.198
104.732
108.236
111.687
115.064
118.355
121.546
76.4328
78.7388
81.3079
84.1105
87.1122
90.275
93.5587
96.9229
100.329
103.742
107.132
110.474
113.75
116.948
120.056
76.4762
78.6908
81.1564
83.8459
86.7274
89.7655
92.9227
96.1609
99.4435
102.737
106.013
109.248
112.425
115.531
118.555
76.5127
78.6331
80.9931
83.5678
86.3281
89.2411
92.2717
95.3843
98.5441
101.719
104.883
108.011
111.089
114.104
117.046
76.543
78.567
80.8197
83.2784
85.9166
88.7042
91.6085
94.5958
97.6335
100.691
103.743
106.766
109.746
112.671
115.532
76.5681
78.4937
80.6376
82.9794
85.4951
88.1572
90.9353
93.798
96.7143
99.6553
102.596
105.515
108.398
111.234
114.013
76.5887
78.4144
80.4484
82.6726
85.0657
87.6023
90.2547
92.9933
95.7889
98.6142
101.445
104.261
107.048
109.795
112.494
76.6055
78.3301
80.2535
82.3598
84.6302
87.0417
89.5688
92.184
94.8599
97.5702
100.292
103.006
105.698
108.357
110.974
76.6193
78.242
80.0543
82.0427
84.1904
86.4773
88.8797
91.3723
93.9293
96.5257
99.1394
101.752
104.349
106.92
109.458
76.6305
78.1509
79.852
81.7225
83.7482
85.911
88.1895
90.5604
92.9993
95.4827
97.9892
100.501
103.004
105.489
107.947
76.6399
78.0577
79.6477
81.4009
83.3051
85.3446
87.5001
89.7502
92.072
94.4433
96.8436
99.2555
101.666
104.064
106.442
76.6478
77.9632
79.4426
81.079
82.8625
84.7796
86.8132
88.9435
91.1492
93.4093
95.7043
98.0172
100.335
102.647
104.946
76.6547
77.868
79.2374
80.7579
82.4218
84.2177
86.1304
88.142
90.2327
92.3827
94.5731
96.7878
99.0135
101.241
103.461
76.6609
77.7728
79.0331
80.4388
81.9842
83.6601
85.4531
87.3472
89.324
91.3649
93.4518
95.5691
97.7036
99.8459
101.988
76.6667
77.678
78.8303
80.1224
81.5508
83.108
84.7828
86.5606
88.4247
90.3575
92.3419
94.3625
96.4066
98.4645
100.528
76.6723
77.5841
78.6296
79.8097
81.1225
82.5626
84.1205
85.7834
87.5361
89.362
91.2447
93.1696
95.1239
97.098
99.0835
76.6777
77.4914
78.4317
79.5013
80.7001
82.0247
83.4673
85.0169
86.6594
88.3795
90.1617
91.9915
93.8568
95.7476
97.6556
76.6831
77.4001
78.2369
79.1977
80.2845
81.4953
82.8243
84.262
85.7957
87.4112
89.0938
90.8296
92.6065
94.4146
96.2455
76.6886
77.3105
78.0455
78.8995
79.8761
80.975
82.1922
83.5196
84.946
86.4582
88.0423
89.6849
91.3742
93.1002
94.8544
76.694
77.2227
77.8579
78.6071
79.4755
80.4645
81.5717
82.7905
84.111
85.5212
87.008
88.5584
90.1608
91.8053
93.4832
76.6994
77.1368
77.6743
78.3208
79.0831
79.9643
80.9635
82.0754
83.2917
84.6012
85.9918
87.4509
88.9672
90.5309
92.133
76.7046
77.0528
77.4947
78.0408
78.6993
79.4749
80.3679
81.3749
82.4885
83.6988
84.9944
86.3633
87.7943
89.2777
90.8046
76.7096
76.9706
77.3193
77.7673
78.3243
78.9964
79.7855
80.6894
81.702
82.8146
84.0164
85.2961
86.6427
88.0466
89.4987
76.7141
76.8903
77.148
77.5004
77.9583
78.5293
79.2166
80.0193
80.9327
81.949
83.0583
84.2499
85.513
86.8381
88.216
76.7181
76.8117
76.981
77.2401
77.6014
78.0736
78.6613
79.3649
80.1809
81.1025
82.1206
83.2252
84.4058
85.6528
86.9572
76.7214
76.7348
76.818
76.9865
77.2536
77.6294
78.1198
78.7263
79.4468
80.2753
81.2037
82.2224
83.3213
84.4911
85.7225
76.7237
76.6593
76.659
76.7395
76.915
77.1968
77.5922
78.1038
78.7306
79.4677
80.3077
81.2417
82.2601
83.3534
84.5126
76.7249
76.5852
76.504
76.4989
76.5854
76.7758
77.0785
77.4974
78.0324
78.6797
79.4329
80.2835
81.2222
82.2399
83.3275
76.7249
76.5122
76.3527
76.2647
76.2648
76.3663
76.5786
76.907
77.3522
77.9116
78.5793
79.3477
80.208
81.151
82.1677
76.7233
76.4402
76.2049
76.0366
75.9529
75.9681
76.0925
76.3325
76.69
77.1632
77.7471
78.4346
79.2174
80.0866
81.0333
76.72
76.3691
76.0605
75.8146
75.6497
75.5811
75.6201
75.774
76.0458
76.4345
76.9361
77.5442
78.2506
79.047
79.9244
76.7149
76.2985
75.9193
75.5984
75.355
75.205
75.161
75.2311
75.4193
75.7254
76.1464
76.6762
77.3076
78.0321
78.8409
76.7077
76.2283
75.7811
75.3878
75.0684
74.8398
74.7152
74.7037
74.8103
75.0358
75.3776
75.8308
76.3881
77.0418
77.783
76.6983
76.1583
75.6456
75.1825
74.7897
74.485
74.2823
74.1916
74.2187
74.3653
74.6298
75.0076
75.4922
76.076
76.7505
76.6865
76.0884
75.5126
74.9824
74.5188
74.1404
73.862
73.6944
73.6441
73.7138
73.9026
74.2065
74.6197
75.1347
75.7433
76.6722
76.0183
75.382
74.787
74.2552
73.8057
73.454
73.2118
73.0863
73.081
73.1957
73.4273
73.7702
74.2175
74.7612
76.6553
75.9479
75.2535
74.5963
73.9988
73.4806
73.0581
72.7434
72.5449
72.4665
72.5089
72.6696
72.9436
73.3243
73.804
76.6356
75.877
75.1268
74.4099
73.7492
73.1648
72.6738
72.289
72.0195
71.87
71.8418
71.9331
72.1395
72.4547
72.8714
76.6131
75.8054
75.0019
74.2276
73.506
72.858
72.3008
71.8482
71.5097
71.291
71.194
71.2175
71.3576
71.6085
71.9632
76.5877
75.7331
74.8784
74.0491
73.2691
72.5597
71.9387
71.4205
71.0152
70.7292
70.5651
70.5223
70.5975
70.7853
71.0789
76.5593
75.66
74.7563
73.8743
73.0382
72.2696
71.5872
71.0055
70.5355
70.1842
69.9547
69.8472
69.8588
69.9847
70.2183
76.5279
75.5858
74.6353
73.7028
72.8128
71.9875
71.2458
70.6029
70.0703
69.6555
69.3624
69.1917
69.1412
69.2063
69.3809
76.4935
75.5106
74.5153
73.5344
72.5928
71.713
70.9142
70.2122
69.619
69.1426
68.7877
68.5554
68.444
68.4496
68.5664
76.4561
75.4342
74.3962
73.369
72.378
71.4457
70.592
69.833
69.1812
68.6452
68.2301
67.9378
67.767
67.7143
67.7742
76.4158
75.3567
74.2778
73.2064
72.1679
71.1854
70.2789
69.465
68.7565
68.1627
67.6892
67.3384
67.1096
66.9998
67.0039
76.3726
75.2781
74.1601
73.0464
71.9625
70.9318
69.9745
69.1076
68.3444
67.6947
67.1645
66.7567
66.4713
66.3057
66.2552
76.3267
75.1983
74.0431
72.8889
71.7615
70.6846
69.6785
68.7606
67.9446
67.2407
66.6555
66.1924
65.8517
65.6315
65.5274
76.2782
75.1176
73.9267
72.7338
71.5648
70.4435
69.3906
68.4236
67.5567
66.8004
66.1618
65.6448
65.2503
64.9767
64.8201
76.2274
75.0359
73.811
72.5811
71.3722
70.2084
69.1105
68.0963
67.1803
66.3733
65.683
65.1136
64.6667
64.3409
64.1329
76.1744
74.9535
73.6961
72.4307
71.1837
69.9791
68.838
67.7784
66.815
65.9591
65.2186
64.5984
64.1003
63.7236
63.4654
76.1197
74.8706
73.582
72.2828
70.9993
69.7556
68.5731
67.4698
66.4607
65.5575
64.7684
64.0988
63.5509
63.1245
62.817
76.0636
74.7874
73.4691
72.1375
70.819
69.5379
68.3155
67.1702
66.1171
65.1682
64.3321
63.6145
63.0181
62.5432
62.1876
76.0065
74.7045
73.3577
71.995
70.643
69.326
68.0654
66.8797
65.7842
64.7911
63.9095
63.1453
62.5018
61.9795
61.5768
75.9491
74.6224
73.2482
71.8557
70.4716
69.1201
67.8229
66.5983
65.462
64.4263
63.5006
62.6912
62.0018
61.4333
60.9846
75.8921
74.5415
73.1411
71.7201
70.3052
68.9208
67.5884
66.3265
65.1508
64.074
63.1056
62.2524
61.5183
60.9047
60.411
75.8361
74.4627
73.0372
71.5888
70.1446
68.7286
67.3624
66.0647
64.8512
63.7347
62.725
61.8293
61.0517
60.3943
59.8566
75.7823
74.3869
72.9374
71.463
69.9906
68.5444
67.146
65.8139
64.564
63.4093
62.3598
61.4229
60.6031
59.9029
59.3222
75.7317
74.3154
72.8428
71.3436
69.8444
68.3695
66.9403
65.5754
64.2907
63.0992
62.0113
61.0346
60.174
59.4321
58.8095
75.6857
74.2494
72.7551
71.2323
69.7077
68.2056
66.7472
65.3511
64.0332
62.8066
61.6819
60.6669
59.7668
58.9845
58.3211
75.6458
74.1908
72.6759
71.131
69.5827
68.055
66.5692
65.1438
63.7946
62.5347
61.3749
60.3233
59.3853
58.5641
57.8614
75.6139
74.1414
72.6076
71.0423
69.4721
67.9209
66.4098
64.9573
63.5789
62.288
61.0953
60.0092
59.0352
58.1771
57.4367
75.5921
74.1038
72.5529
70.9693
69.3796
67.8074
66.2737
64.7967
63.392
62.0729
60.8502
59.7323
58.7251
57.8326
57.057
75.5828
74.0806
72.5151
70.9159
69.3097
67.7197
66.1668
64.6691
63.2419
61.8984
60.6496
59.5039
58.4674
57.5443
56.7371
75.5885
74.0752
72.4981
70.887
69.2681
67.6647
66.0974
64.5839
63.1394
61.7771
60.5078
59.3399
58.2798
57.3319
56.499
75.6121
74.0912
72.5067
70.8882
69.262
67.6511
66.0757
64.5534
63.0993
61.7261
60.4445
59.2632
58.1885
57.2249
56.3753
182.241
188.137
193.802
199.179
203.976
207.845
210.441
211.461
210.684
208.012
203.498
197.374
190.062
182.167
174.436
167.677
162.639
159.89
159.736
162.223
167.186
174.321
183.241
193.526
204.749
216.507
228.433
240.208
251.56
262.266
272.145
281.06
288.905
295.613
301.141
305.477
308.631
310.636
311.544
311.423
177.605
184.005
190.026
195.565
200.363
204.137
206.607
207.541
206.781
204.28
200.129
194.576
188.038
181.082
174.391
168.683
164.607
162.645
163.055
165.867
170.933
177.978
186.65
196.563
207.324
218.557
229.921
241.115
251.882
262.012
271.335
279.72
287.071
293.325
298.447
302.429
305.286
307.057
307.799
307.585
173.784
180.464
186.659
192.249
196.998
200.667
203.031
203.912
203.205
200.902
197.124
192.13
186.323
180.238
174.495
169.729
166.505
165.232
166.126
169.208
174.341
181.276
189.693
199.236
209.543
220.264
231.081
241.71
251.911
261.484
270.271
278.147
285.024
290.844
295.578
299.222
301.799
303.349
303.935
303.634
170.625
177.452
183.704
189.265
193.922
197.473
199.737
200.581
199.941
197.845
194.435
189.974
184.855
179.573
174.691
170.772
168.303
167.635
168.946
172.251
177.422
184.232
192.388
201.565
211.426
221.648
231.932
242.013
251.665
260.7
268.968
276.353
282.774
288.178
292.542
295.867
298.178
299.521
299.961
299.582
167.998
174.864
181.087
186.56
191.094
194.519
196.69
197.511
196.952
195.068
192.017
188.066
183.588
179.045
174.944
171.781
169.981
169.84
171.51
174.995
180.177
186.848
194.741
203.556
212.981
222.717
232.483
242.034
251.155
259.67
267.438
274.352
280.336
285.343
289.354
292.375
294.436
295.585
295.891
295.44
165.786
172.605
178.737
184.082
188.474
191.77
193.857
194.668
194.201
192.533
189.833
186.364
182.484
178.618
175.222
172.734
171.523
171.841
173.814
177.44
182.609
189.131
196.759
205.217
214.217
223.48
232.746
241.783
250.392
258.407
265.695
272.156
277.722
282.35
286.026
288.761
290.585
291.553
291.736
291.221
163.885
170.597
176.595
181.787
186.028
189.197
191.21
192.023
191.658
190.207
187.845
184.833
181.508
178.259
175.497
173.61
172.915
173.629
175.857
179.59
184.725
191.088
198.45
206.557
215.143
223.948
232.73
241.273
249.388
256.922
263.749
269.778
274.944
279.212
282.571
285.035
286.639
287.438
287.507
286.935
162.213
168.776
174.612
179.637
183.724
186.774
188.722
189.549
189.292
188.057
186.021
183.438
180.624
177.937
175.745
174.389
174.145
175.2
177.638
181.447
186.531
192.726
199.823
207.586
215.77
224.132
232.448
240.514
248.156
255.228
261.614
267.23
272.016
275.942
279.001
281.21
282.607
283.25
283.215
282.591
160.704
167.092
172.75
177.602
181.537
184.476
186.372
187.222
187.078
186.054
184.33
182.149
179.805
177.627
175.944
175.057
175.206
176.551
179.161
183.019
188.034
194.056
200.889
208.317
216.11
224.045
231.911
239.52
246.707
253.337
259.303
264.524
268.95
272.552
275.327
277.297
278.501
278.999
278.868
278.2
159.311
165.507
170.979
175.658
179.448
182.285
184.138
185.019
184.992
184.175
182.746
180.938
179.025
177.306
176.077
175.602
176.092
177.682
180.428
184.312
189.245
195.088
201.66
208.76
216.175
223.698
231.133
238.303
245.055
251.263
256.827
261.674
265.757
269.052
271.562
273.307
274.332
274.696
274.478
273.77
157.997
163.994
169.278
173.787
177.439
180.183
182.003
182.922
183.011
182.394
181.243
179.781
178.261
176.955
176.129
176.016
176.799
178.594
181.447
185.334
190.174
195.834
202.148
208.928
215.979
223.105
230.126
236.875
243.212
249.018
254.2
258.691
262.449
265.456
267.715
269.25
270.108
270.35
270.053
269.311
156.738
162.532
167.63
171.974
175.496
178.157
179.951
180.913
181.118
180.692
179.802
178.657
177.494
176.559
176.089
176.292
177.326
179.291
182.222
186.095
190.831
196.306
202.366
208.836
215.534
222.28
228.903
235.251
241.191
246.614
251.433
255.587
259.039
261.773
263.797
265.137
265.84
265.969
265.602
264.831
155.513
161.106
166.021
170.207
173.608
176.194
177.97
178.976
179.295
179.05
178.403
177.549
176.709
176.104
175.949
176.426
177.673
179.776
182.762
186.605
191.228
196.517
202.327
208.496
214.854
221.235
227.478
233.443
239.006
244.064
248.539
252.374
255.537
258.015
259.819
260.978
261.538
261.563
261.133
260.338
154.31
159.704
164.441
168.477
171.764
174.283
176.046
177.099
177.528
177.452
177.029
176.442
175.892
175.582
175.702
176.416
177.843
180.056
183.076
186.874
191.379
196.481
202.046
207.923
213.954
219.984
225.865
231.465
236.668
241.38
245.529
249.063
251.954
254.192
255.791
256.78
257.209
257.14
256.653
255.838
153.118
158.318
162.883
166.776
169.957
172.415
174.168
175.269
175.802
175.885
175.668
175.322
175.032
174.983
175.345
176.261
177.838