/*--------------------------------*- C++ -*----------------------------------*\
| =========                 |                                                 |
| \\      /  F ield         | OpenFOAM: The Open Source CFD Toolbox           |
|  \\    /   O peration     | Version:  2206                                  |
|   \\  /    A nd           | Website:  www.openfoam.com                      |
|    \\/     M anipulation  |                                                 |
\*---------------------------------------------------------------------------*/
FoamFile
{
    version     2.0;
    format      ascii;
    arch        "LSB;label=32;scalar=64";
    class       volScalarField;
    location    "500";
    object      nut;
}
// * * * * * * * * * * * * * * * * * * * * * * * * * * * * * * * * * * * * * //

dimensions      [0 2 -1 0 0 0 0];

internalField   nonuniform List<scalar> 
12940
(
0.0038938
0.0159941
0.0618798
0.0907245
0.0993376
0.101656
0.102265
0.102401
0.00588169
0.00376774
0.0206316
0.0617392
0.0888632
0.0989072
0.102065
0.102979
0.00904048
0.0028457
0.00720736
0.0316898
0.0684743
0.0906986
0.0996264
0.102713
0.0132931
0.00364553
0.0036407
0.0137978
0.0431755
0.0751456
0.093097
0.100618
0.0187331
0.00562682
0.00301878
0.00649383
0.0228487
0.0540071
0.0809541
0.0953844
0.0251651
0.00885261
0.00363799
0.00406943
0.0116698
0.0336567
0.0637396
0.08588
0.0319841
0.0133313
0.00518825
0.00357098
0.0067612
0.019508
0.045122
0.0721346
0.0384335
0.0188813
0.00765179
0.0040282
0.00484299
0.011646
0.0295808
0.056049
0.0440996
0.0251812
0.011049
0.00519362
0.00430663
0.00772242
0.0189836
0.0406484
0.0491246
0.0318639
0.0153968
0.00706073
0.00455198
0.00588884
0.0125934
0.0282378
0.0539103
0.0385829
0.0206724
0.00971565
0.00540992
0.00519346
0.00897799
0.0194396
0.0586761
0.0450677
0.0267488
0.0132715
0.0068972
0.00522992
0.00704616
0.0137041
0.0633511
0.051166
0.0333574
0.017803
0.00911738
0.00587088
0.00616752
0.010171
0.0677753
0.056832
0.0401371
0.0232744
0.0122023
0.00713584
0.00603524
0.0081299
0.071859
0.0620643
0.0467485
0.0294959
0.0162533
0.00912364
0.00654231
0.00712123
0.07559
0.0668617
0.0529654
0.0361473
0.0212769
0.0119625
0.00770546
0.00689812
0.0790039
0.0712317
0.0586894
0.0428687
0.0271399
0.0157559
0.00961505
0.00736943
0.0822003
0.0752349
0.0639225
0.0493682
0.0335775
0.0205245
0.0123894
0.00855274
0.0854164
0.0790532
0.0687653
0.0554964
0.0402692
0.026168
0.0161242
0.0105339
0.0891609
0.0831055
0.0734878
0.0612967
0.0469608
0.0324813
0.0208454
0.0134252
0.0944176
0.0882452
0.0787008
0.0670961
0.0536067
0.039252
0.0264968
0.0173258
0.102866
0.0960252
0.085645
0.0737208
0.0605597
0.0464498
0.0330107
0.0223089
0.116915
0.108864
0.0965336
0.0828886
0.0689028
0.0545434
0.0405265
0.028502
0.139254
0.129736
0.114606
0.097646
0.0810115
0.0650573
0.0498719
0.0363956
0.171984
0.161229
0.143327
0.122198
0.101061
0.0814144
0.0634848
0.0476479
0.215933
0.204553
0.184885
0.16032
0.134269
0.109283
0.0865331
0.0665471
0.270603
0.259306
0.239296
0.213251
0.184037
0.154343
0.126122
0.100602
0.334561
0.323917
0.304793
0.279295
0.249623
0.218003
0.186403
0.156419
0.405921
0.396264
0.378767
0.355147
0.327124
0.296425
0.264672
0.233319
0.482749
0.474179
0.458556
0.437328
0.411918
0.383717
0.354022
0.324
0.563357
0.55579
0.541904
0.522954
0.500176
0.474765
0.447805
0.420238
0.646473
0.639705
0.62718
0.610001
0.589286
0.566117
0.541469
0.516159
0.731326
0.725092
0.713434
0.697327
0.677802
0.655889
0.632525
0.6085
0.817637
0.811668
0.800369
0.784592
0.765296
0.743478
0.720088
0.695972
0.905559
0.899629
0.888256
0.872161
0.852202
0.829332
0.804525
0.778741
0.995563
0.989531
0.977813
0.960966
0.939687
0.914808
0.887277
0.858172
1.08827
1.08212
1.07003
1.05235
1.02951
1.00208
0.970815
0.936774
1.18423
1.1781
1.16592
1.14782
1.12386
1.0941
1.05872
1.01832
1.28366
1.27784
1.26621
1.2487
1.22501
1.1945
1.15609
1.10845
1.38616
1.38102
1.37081
1.35545
1.33458
1.30721
1.27077
1.21831
1.478
1.47372
1.46534
1.45307
1.43714
1.41795
1.39667
1.37752
1.55778
1.55428
1.54756
1.53803
1.52627
1.51323
1.50065
1.49181
1.63696
1.63415
1.62885
1.62159
1.61304
1.60422
1.59653
1.59183
1.71486
1.71256
1.70832
1.70265
1.69625
1.68998
1.6849
1.68203
1.79099
1.78901
1.7854
1.78065
1.77542
1.77047
1.7666
1.7645
1.86511
1.86325
1.85984
1.85538
1.85048
1.84584
1.84223
1.84027
1.93719
1.93525
1.93167
1.92689
1.92153
1.91631
1.91209
1.9097
2.00742
2.00524
2.00111
1.99545
1.98883
1.98204
1.97616
1.97257
2.0762
2.07361
2.06862
2.06156
2.05288
2.04334
2.0342
2.02782
2.14403
2.14096
2.13489
2.12603
2.11459
2.10094
2.08598
2.07275
2.22
2.21634
2.20902
2.19802
2.18318
2.16396
2.13888
2.10389
2.30502
2.3008
2.29231
2.27949
2.2621
2.23966
2.21138
2.17616
2.39161
2.38699
2.37767
2.36364
2.34475
2.32079
2.29152
2.25681
2.48041
2.4755
2.46561
2.45077
2.43094
2.40606
2.37613
2.34133
2.57175
2.56664
2.55636
2.54094
2.52038
2.49466
2.46388
2.42825
2.66581
2.66057
2.65002
2.63418
2.61299
2.58638
2.55437
2.51716
2.7626
2.75732
2.74669
2.73064
2.70901
2.68152
2.64794
2.60827
2.86192
2.85677
2.84636
2.83056
2.80899
2.78101
2.74577
2.70259
2.96332
2.95852
2.94883
2.93408
2.9137
2.88653
2.85063
2.80313
3.06592
3.06175
3.0534
3.04082
3.02353
3.00029
2.96814
2.91939
3.16846
3.16512
3.15857
3.1491
3.13689
3.12222
3.10601
3.09168
3.2694
3.26689
3.26211
3.25558
3.24779
3.23945
3.23173
3.22654
3.36733
3.36552
3.36218
3.35787
3.35314
3.34858
3.34489
3.34276
3.46116
3.45988
3.45757
3.45478
3.45196
3.44953
3.44781
3.44691
3.55017
3.54926
3.54764
3.54582
3.54416
3.54292
3.54219
3.54186
3.63392
3.63326
3.63209
3.63087
3.6299
3.62932
3.62911
3.62907
3.71219
3.71169
3.71081
3.70997
3.70939
3.70918
3.70926
3.70936
3.78487
3.78449
3.78379
3.78317
3.78283
3.78283
3.78306
3.78322
3.85194
3.85163
3.85105
3.85057
3.85037
3.85049
3.85079
3.85099
3.9134
3.91315
3.91265
3.91225
3.91213
3.91231
3.91265
3.91286
3.96928
3.96907
3.96862
3.96828
3.96821
3.96843
3.96878
3.96898
4.01961
4.01943
4.01902
4.01872
4.01868
4.01891
4.01926
4.01945
4.0644
4.06425
4.06388
4.0636
4.06358
4.06381
4.06415
4.06433
4.10369
4.10356
4.10321
4.10296
4.10295
4.10317
4.10351
4.10366
4.13747
4.13737
4.13704
4.13681
4.1368
4.13702
4.13734
4.13748
4.16575
4.16567
4.16536
4.16514
4.16513
4.16535
4.16565
4.16578
4.18851
4.18845
4.18816
4.18795
4.18795
4.18815
4.18844
4.18855
4.20573
4.20569
4.20542
4.20522
4.20521
4.20541
4.20568
4.20577
4.21737
4.21735
4.2171
4.2169
4.2169
4.21709
4.21735
4.21742
4.22339
4.22338
4.22314
4.22296
4.22296
4.22314
4.22338
4.22343
4.22371
4.22373
4.22351
4.22334
4.22333
4.2235
4.22372
4.22376
4.21828
4.21831
4.21811
4.21795
4.21794
4.2181
4.2183
4.21832
4.20699
4.20704
4.20686
4.20671
4.2067
4.20685
4.20703
4.20702
4.18975
4.18982
4.18965
4.18951
4.1895
4.18963
4.1898
4.18977
4.16643
4.16652
4.16637
4.16624
4.16623
4.16634
4.16648
4.16643
4.13691
4.13702
4.13688
4.13676
4.13674
4.13683
4.13694
4.13687
4.10101
4.10114
4.10102
4.1009
4.10087
4.10094
4.10102
4.10092
4.05859
4.05873
4.05863
4.0585
4.05845
4.05848
4.05852
4.05839
4.00944
4.00961
4.0095
4.00936
4.00927
4.00926
4.00925
4.00907
3.95339
3.95356
3.95345
3.95327
3.95312
3.95304
3.95296
3.95273
3.89023
3.8904
3.89025
3.89
3.88976
3.88957
3.88938
3.88909
3.81979
3.81993
3.8197
3.81933
3.81893
3.81856
3.81822
3.81783
3.74191
3.74198
3.74161
3.74101
3.74034
3.7397
3.73912
3.73859
3.65652
3.65646
3.65582
3.65484
3.65372
3.65262
3.65166
3.65091
3.56364
3.56337
3.56227
3.56065
3.55877
3.55691
3.55533
3.55421
3.46353
3.46288
3.46105
3.45838
3.45524
3.45211
3.44947
3.44772
3.35672
3.35548
3.35248
3.34813
3.34295
3.33767
3.33314
3.33027
3.24418
3.24207
3.23735
3.23043
3.22197
3.21301
3.20504
3.19993
3.12743
3.12417
3.11707
3.10648
3.093
3.07785
3.06327
3.05308
3.00864
3.00399
2.99403
2.97876
2.95836
2.93341
2.90584
2.88172
2.89041
2.88442
2.87161
2.8516
2.82362
2.78622
2.73599
2.6641
2.77545
2.76845
2.75363
2.73051
2.69828
2.65573
2.60103
2.53198
2.66592
2.65839
2.64262
2.61827
2.5849
2.542
2.48919
2.4267
2.56325
2.55559
2.53975
2.51559
2.48301
2.44207
2.39313
2.3371
2.4681
2.46061
2.4453
2.4222
2.39148
2.35352
2.30902
2.25908
2.38064
2.37351
2.35907
2.3375
2.30913
2.27454
2.23456
2.19035
2.30068
2.294
2.28062
2.26078
2.23495
2.20378
2.16819
2.1293
2.22786
2.22166
2.20939
2.19135
2.16804
2.1402
2.10872
2.07473
2.1617
2.156
2.14483
2.12854
2.10766
2.08294
2.05528
2.02573
2.10173
2.0965
2.08639
2.07176
2.05317
2.03134
2.00716
1.98163
2.04747
2.04268
2.03357
2.02049
2.00401
1.98484
1.96383
1.94193
1.99848
1.99411
1.98592
1.97428
1.95974
1.943
1.92487
1.90625
1.95436
1.95037
1.94304
1.93272
1.91996
1.90543
1.88993
1.87428
1.91472
1.91109
1.90455
1.89545
1.88432
1.87183
1.85871
1.84577
1.87923
1.87593
1.87012
1.86215
1.85253
1.8419
1.83098
1.82051
1.84757
1.84457
1.83945
1.83252
1.82429
1.81538
1.80649
1.7983
1.81946
1.81675
1.81226
1.8063
1.79936
1.79205
1.78502
1.77893
1.79464
1.7922
1.7883
1.78323
1.77749
1.77165
1.76634
1.76217
1.77287
1.77067
1.76731
1.76309
1.75845
1.75397
1.75024
1.74782
1.7539
1.75192
1.74908
1.74563
1.74202
1.73879
1.73649
1.73568
1.73752
1.73576
1.73339
1.73065
1.72798
1.72589
1.7249
1.72552
1.72352
1.72195
1.72002
1.71794
1.71612
1.71506
1.71526
1.71717
1.7117
1.71032
1.70878
1.70729
1.70625
1.70613
1.70738
1.71044
1.70187
1.70065
1.69947
1.69852
1.69818
1.69889
1.70108
1.70515
1.69386
1.69279
1.69193
1.69146
1.69174
1.69318
1.69619
1.70114
1.6875
1.68655
1.68598
1.68594
1.68677
1.68885
1.69256
1.69826
1.68262
1.68179
1.68147
1.6818
1.6831
1.68574
1.69006
1.69639
1.67909
1.67835
1.67825
1.67891
1.68061
1.68371
1.68854
1.69539
1.67676
1.67611
1.67619
1.67712
1.67917
1.68266
1.68789
1.69515
1.67551
1.67493
1.67517
1.67633
1.67865
1.68245
1.68801
1.69559
1.67522
1.67469
1.67506
1.67641
1.67896
1.683
1.6888
1.69659
1.67579
1.6753
1.67577
1.67726
1.67998
1.6842
1.69016
1.6981
1.6771
1.67664
1.67719
1.67879
1.68163
1.68596
1.69203
1.70003
1.67908
1.67864
1.67924
1.68091
1.68383
1.68823
1.69432
1.70232
1.68162
1.68119
1.68183
1.68354
1.6865
1.69091
1.69699
1.70492
1.68467
1.68424
1.68488
1.68661
1.68957
1.69396
1.69996
1.70778
1.68813
1.6877
1.68834
1.69005
1.69298
1.6973
1.70319
1.71084
1.69196
1.6915
1.69213
1.69381
1.69668
1.70089
1.70664
1.71407
1.69608
1.6956
1.69619
1.69782
1.7006
1.70469
1.71025
1.71744
1.70044
1.69993
1.70047
1.70203
1.7047
1.70864
1.71398
1.7209
1.70499
1.70445
1.70493
1.7064
1.70895
1.7127
1.71782
1.72443
1.70969
1.70911
1.70953
1.71089
1.71329
1.71685
1.72171
1.72801
1.71449
1.71387
1.71421
1.71546
1.71771
1.72106
1.72564
1.7316
1.71936
1.71869
1.71895
1.72008
1.72215
1.72528
1.72958
1.73519
1.72426
1.72355
1.72371
1.72471
1.7266
1.7295
1.7335
1.73876
1.72917
1.7284
1.72847
1.72933
1.73104
1.73369
1.7374
1.74228
1.73405
1.73324
1.73321
1.73392
1.73543
1.73783
1.74123
1.74575
1.73889
1.73802
1.73789
1.73845
1.73976
1.74191
1.745
1.74915
1.74367
1.74274
1.74251
1.74291
1.74402
1.74591
1.74869
1.75246
1.74836
1.74738
1.74704
1.74728
1.74818
1.74982
1.75229
1.75569
1.75296
1.75193
1.75147
1.75155
1.75225
1.75362
1.75578
1.75881
1.75745
1.75636
1.75579
1.75571
1.7562
1.75731
1.75916
1.76182
1.76182
1.76067
1.75999
1.75976
1.76003
1.76088
1.76242
1.76472
1.76607
1.76486
1.76407
1.76367
1.76373
1.76433
1.76555
1.76751
1.77018
1.76892
1.76802
1.76745
1.7673
1.76764
1.76856
1.77016
1.77415
1.77284
1.77182
1.77109
1.77073
1.77082
1.77144
1.7727
1.77798
1.77661
1.77549
1.7746
1.77403
1.77386
1.77419
1.77511
1.78167
1.78025
1.77901
1.77796
1.77719
1.77677
1.77681
1.77739
1.78521
1.78373
1.78239
1.78119
1.78021
1.77954
1.77929
1.77954
1.7886
1.78708
1.78563
1.78427
1.78309
1.78218
1.78164
1.78157
1.79185
1.79028
1.78873
1.78721
1.78583
1.78468
1.78387
1.78348
1.79496
1.79334
1.79168
1.79002
1.78844
1.78706
1.78596
1.78526
1.79792
1.79625
1.7945
1.79268
1.79091
1.7893
1.78793
1.78692
1.80074
1.79903
1.79718
1.79522
1.79326
1.79141
1.78978
1.78847
1.80343
1.80167
1.79973
1.79762
1.79548
1.79341
1.79152
1.78991
1.80598
1.80418
1.80214
1.7999
1.79757
1.79528
1.79313
1.79124
1.8084
1.80656
1.80443
1.80205
1.79954
1.79703
1.79464
1.79246
1.81069
1.80881
1.80659
1.80408
1.8014
1.79868
1.79603
1.79358
1.81285
1.81094
1.80864
1.80599
1.80314
1.80021
1.79733
1.7946
1.8149
1.81295
1.81056
1.80779
1.80478
1.80165
1.79852
1.79552
1.81683
1.81484
1.81237
1.80948
1.8063
1.80298
1.79962
1.79636
1.81864
1.81662
1.81408
1.81107
1.80773
1.80421
1.80063
1.79711
1.82035
1.81829
1.81568
1.81255
1.80906
1.80535
1.80154
1.79778
1.82195
1.81986
1.81717
1.81393
1.81029
1.8064
1.80238
1.79836
1.82345
1.82133
1.81857
1.81522
1.81144
1.80736
1.80313
1.79888
1.82485
1.82271
1.81988
1.81642
1.81249
1.80824
1.80381
1.79932
1.82616
1.82399
1.82109
1.81753
1.81347
1.80905
1.80441
1.79969
1.82738
1.82518
1.82222
1.81856
1.81437
1.80978
1.80494
1.8
1.82851
1.82629
1.82327
1.81951
1.81519
1.81044
1.80541
1.80025
1.82956
1.82732
1.82424
1.82039
1.81594
1.81103
1.80582
1.80044
1.83054
1.82827
1.82513
1.8212
1.81662
1.81156
1.80617
1.80058
1.83145
1.82916
1.82596
1.82194
1.81724
1.81203
1.80646
1.80067
1.83229
1.82998
1.82673
1.82262
1.81781
1.81246
1.80671
1.80072
1.83307
1.83074
1.82744
1.82325
1.81833
1.81283
1.80692
1.80073
1.83381
1.83145
1.8281
1.82383
1.8188
1.81317
1.80709
1.80071
1.83449
1.83211
1.82872
1.82437
1.81923
1.81346
1.80723
1.80067
1.83514
1.83274
1.82929
1.82487
1.81963
1.81374
1.80734
1.8006
1.83575
1.83334
1.82984
1.82535
1.82001
1.81399
1.80745
1.80053
1.83634
1.83391
1.83037
1.82581
1.82037
1.81423
1.80754
1.80046
1.83692
1.83447
1.83089
1.82626
1.82073
1.81447
1.80764
1.80039
1.83749
1.83502
1.8314
1.82671
1.82109
1.81472
1.80776
1.80035
1.83806
1.83558
1.83192
1.82717
1.82147
1.81499
1.8079
1.80035
1.83865
1.83615
1.83246
1.82765
1.82187
1.8153
1.80808
1.80039
1.83925
1.83675
1.83302
1.82816
1.82231
1.81565
1.80833
1.8005
1.83989
1.83737
1.83362
1.82871
1.8228
1.81606
1.80864
1.8007
1.84057
1.83804
1.83427
1.82932
1.82335
1.81654
1.80903
1.801
1.8413
1.83876
1.83496
1.82998
1.82398
1.8171
1.80953
1.80141
1.84207
1.83953
1.83572
1.83072
1.82468
1.81776
1.81014
1.80196
1.8429
1.84035
1.83654
1.83153
1.82547
1.81853
1.81087
1.80265
1.84378
1.84124
1.83744
1.83242
1.82636
1.8194
1.81173
1.80349
2.50671
2.35709
2.21606
2.09343
1.99583
1.9264
1.88479
1.86774
1.87023
1.88657
1.91127
1.93947
1.96722
1.99156
2.01037
2.41144
2.27488
2.15253
2.04965
1.96958
1.91345
1.88018
1.86694
1.86977
1.88432
1.90641
1.93212
1.9582
1.98212
2.00212
2.32492
2.2044
2.09936
2.01285
1.94667
1.90105
1.87472
1.86518
1.86917
1.8832
1.90377
1.92762
1.95205
1.97488
1.99467
2.24866
2.1436
2.05362
1.98068
1.92579
1.88883
1.86848
1.86255
1.86822
1.88255
1.90245
1.92512
1.94823
1.96992
1.98897
2.18174
2.09049
2.01338
1.95179
1.90636
1.87677
1.86177
1.85933
1.86705
1.8822
1.90203
1.92408
1.94629
1.96703
1.98525
2.1227
2.0435
1.9774
1.92548
1.88817
1.86504
1.85489
1.85591
1.86585
1.88214
1.90231
1.92416
1.94584
1.9659
1.9834
2.07021
2.00148
1.9449
1.90138
1.87118
1.85384
1.84822
1.85261
1.86479
1.8824
1.90319
1.92515
1.9466
1.96623
1.98321
2.02322
1.96365
1.91543
1.87931
1.85548
1.84341
1.84206
1.84964
1.86403
1.88306
1.90462
1.92689
1.94834
1.96778
1.98442
1.98097
1.9295
1.8887
1.85921
1.84113
1.834
1.83659
1.84716
1.86369
1.88413
1.90656
1.92928
1.95089
1.97031
1.98681
1.94291
1.89867
1.86454
1.84106
1.82833
1.82572
1.83194
1.84528
1.86383
1.88565
1.90896
1.9322
1.9541
1.97363
1.99014
1.90863
1.87093
1.84285
1.82492
1.8171
1.81861
1.82815
1.84404
1.86446
1.88759
1.91178
1.93559
1.95784
1.9776
1.99425
1.87785
1.84609
1.8236
1.81078
1.80742
1.81269
1.82524
1.84345
1.86558
1.88993
1.91496
1.93935
1.962
1.98206
1.99895
1.85033
1.82405
1.80671
1.79856
1.79926
1.8079
1.82317
1.84348
1.86716
1.89262
1.91845
1.9434
1.96648
1.9869
2.00411
1.82591
1.80469
1.79206
1.78815
1.79251
1.8042
1.82189
1.84406
1.86913
1.89561
1.92216
1.94766
1.97118
1.99199
2.00958
1.80442
1.78785
1.77951
1.77943
1.78708
1.80148
1.82133
1.84515
1.87144
1.89881
1.92603
1.95205
1.97601
1.99724
2.01526
1.78566
1.77334
1.7689
1.77226
1.78285
1.79965
1.82139
1.84664
1.87401
1.90217
1.92998
1.95648
1.98087
2.00254
2.02102
1.76944
1.76098
1.76006
1.76651
1.77969
1.79859
1.82197
1.84847
1.87675
1.9056
1.93394
1.96088
1.98569
2.0078
2.02677
1.75556
1.7506
1.75283
1.76201
1.77747
1.7982
1.82298
1.85054
1.8796
1.90903
1.93784
1.96518
1.99039
2.01293
2.03241
1.74381
1.742
1.74704
1.75862
1.77606
1.79835
1.82433
1.85277
1.88248
1.9124
1.9416
1.9693
1.99489
2.01786
2.03785
1.73401
1.73501
1.74253
1.7562
1.77533
1.79895
1.82592
1.85508
1.88532
1.91564
1.94516
1.97318
1.99912
2.02252
2.04302
1.72596
1.72945
1.73913
1.75461
1.77518
1.79989
1.82767
1.85741
1.88806
1.91868
1.94848
1.97677
2.00303
2.02683
2.04784
1.71948
1.72516
1.73672
1.75373
1.77549
1.80109
1.8295
1.85968
1.89063
1.92148
1.95148
1.98001
2.00656
2.03075
2.05225
1.71439
1.72198
1.73514
1.75344
1.77617
1.80247
1.83135
1.86184
1.89299
1.924
1.95415
1.98286
2.00967
2.03422
2.0562
1.71054
1.71977
1.73428
1.75363
1.77713
1.80395
1.83317
1.86384
1.89511
1.92619
1.95642
1.98528
2.01231
2.03719
2.05963
1.70778
1.7184
1.73403
1.75421
1.7783
1.80548
1.83489
1.86564
1.89693
1.92801
1.95829
1.98723
2.01446
2.03963
2.0625
1.70596
1.71775
1.73429
1.75511
1.77961
1.807
1.83648
1.86721
1.89843
1.92946
1.95971
1.98871
2.01608
2.04152
2.06479
1.70497
1.71772
1.73496
1.75625
1.781
1.80847
1.8379
1.86852
1.8996
1.9305
1.96068
1.98968
2.01716
2.04283
2.06646
1.7047
1.71822
1.73598
1.75758
1.78243
1.80986
1.83914
1.86955
1.90042
1.93113
1.96118
1.99014
2.01768
2.04355
2.06751
1.70504
1.71915
1.73728
1.75903
1.78385
1.81113
1.84016
1.87029
1.90087
1.93134
1.9612
1.99008
2.01765
2.04366
2.0679
1.70592
1.72046
1.7388
1.76057
1.78525
1.81226
1.84096
1.87072
1.90095
1.93112
1.96076
1.9895
2.01704
2.04316
2.06765
1.70725
1.72207
1.7405
1.76216
1.78659
1.81324
1.84153
1.87085
1.90067
1.93047
1.95983
1.98839
2.01588
2.04206
2.06675
1.70896
1.72394
1.74233
1.76378
1.78786
1.81406
1.84185
1.87068
1.90002
1.92942
1.95845
1.98678
2.01415
2.04035
2.0652
1.711
1.72602
1.74426
1.7654
1.78904
1.81472
1.84194
1.87021
1.89902
1.92795
1.9566
1.98467
2.01189
2.03806
2.06302
1.71331
1.72826
1.74625
1.76699
1.79011
1.8152
1.8418
1.86944
1.89767
1.92609
1.95432
1.98207
2.00909
2.03519
2.06021
1.71585
1.73064
1.74829
1.76855
1.79109
1.81551
1.84142
1.86839
1.89599
1.92385
1.95161
1.979
2.00578
2.03177
2.0568
1.71857
1.73311
1.75036
1.77007
1.79195
1.81566
1.84083
1.86707
1.89399
1.92125
1.9485
1.97549
2.00198
2.0278
2.05281
1.72143
1.73566
1.75243
1.77153
1.7927
1.81564
1.84002
1.86549
1.8917
1.9183
1.945
1.97154
1.99771
2.02332
2.04825
1.72441
1.73825
1.75449
1.77293
1.79335
1.81547
1.83902
1.86367
1.88912
1.91503
1.94114
1.96719
1.99299
2.01835
2.04315
1.72747
1.74088
1.75653
1.77427
1.79388
1.81515
1.83783
1.86163
1.88627
1.91146
1.93694
1.96247
1.98785
2.01292
2.03755
1.73059
1.74352
1.75855
1.77553
1.79431
1.81469
1.83646
1.85938
1.88319
1.90761
1.93242
1.95738
1.98231
2.00705
2.03146
1.73374
1.74615
1.76052
1.77673
1.79464
1.8141
1.83494
1.85694
1.87988
1.90351
1.92761
1.95197
1.97641
2.00077
2.02492
1.73691
1.74877
1.76245
1.77785
1.79487
1.8134
1.83327
1.85433
1.87637
1.89917
1.92254
1.94626
1.97017
1.99411
2.01796
1.74007
1.75135
1.76432
1.7789
1.79502
1.81257
1.83147
1.85156
1.87267
1.89462
1.91722
1.94027
1.96362
1.9871
2.0106
1.74321
1.75389
1.76614
1.77988
1.79507
1.81165
1.82955
1.84865
1.86882
1.88989
1.91169
1.93404
1.95678
1.97977
2.00289
1.74632
1.75638
1.76789
1.78078
1.79504
1.81063
1.82752
1.84562
1.86482
1.88499
1.90596
1.92758
1.94969
1.97215
1.99484
1.74937
1.75881
1.76957
1.78161
1.79493
1.80953
1.82539
1.84248
1.8607
1.87994
1.90006
1.92092
1.94237
1.96427
1.9865
1.75236
1.76117
1.77118
1.78237
1.79475
1.80835
1.82319
1.83925
1.85647
1.87477
1.89402
1.91409
1.93485
1.95615
1.97789
1.75528
1.76345
1.77271
1.78305
1.79449
1.8071
1.82091
1.83594
1.85215
1.86949
1.88785
1.90711
1.92715
1.94783
1.96904
1.75811
1.76565
1.77417
1.78366
1.79417
1.80579
1.81857
1.83256
1.84776
1.86413
1.88158
1.90001
1.9193
1.93933
1.95998
1.76085
1.76777
1.77554
1.78419
1.79379
1.80442
1.81618
1.82914
1.84332
1.8587
1.87523
1.89281
1.91133
1.93068
1.95074
1.7635
1.76978
1.77683
1.78465
1.79334
1.80299
1.81374
1.82567
1.83883
1.85322
1.86882
1.88553
1.90326
1.92191
1.94135
1.76604
1.7717
1.77803
1.78504
1.79283
1.80153
1.81127
1.82217
1.83431
1.84771
1.86236
1.87819
1.89511
1.91303
1.93183
1.76847
1.77353
1.77914
1.78535
1.79226
1.80001
1.80876
1.81865
1.82977
1.84217
1.85587
1.8708
1.8869
1.90407
1.9222
1.77079
1.77524
1.78016
1.78559
1.79164
1.79846
1.80623
1.81511
1.82522
1.83663
1.84937
1.8634
1.87866
1.89506
1.9125
1.773
1.77686
1.78109
1.78576
1.79096
1.79687
1.80368
1.81157
1.82067
1.83109
1.84287
1.85598
1.87039
1.88601
1.90274
1.77508
1.77836
1.78194
1.78585
1.79023
1.79525
1.80112
1.80803
1.81614
1.82557
1.83638
1.84858
1.86213
1.87694
1.89294
1.77705
1.77977
1.78269
1.78587
1.78945
1.7936
1.79855
1.80449
1.81162
1.82008
1.82993
1.8412
1.85387
1.86788
1.88313
1.7789
1.78106
1.78335
1.78582
1.78862
1.79192
1.79596
1.80097
1.80713
1.81461
1.82351
1.83386
1.84565
1.85884
1.87333
1.78063
1.78225
1.78392
1.7857
1.78773
1.79022
1.79338
1.79746
1.80267
1.80919
1.81714
1.82657
1.83748
1.84983
1.86354
1.78225
1.78333
1.7844
1.78551
1.7868
1.78848
1.79079
1.79397
1.79825
1.80382
1.81083
1.81933
1.82936
1.84087
1.8538
1.78375
1.78431
1.78479
1.78525
1.78582
1.78673
1.7882
1.79049
1.79386
1.79851
1.80458
1.81217
1.8213
1.83197
1.84411
1.78514
1.78519
1.78509
1.78492
1.7848
1.78495
1.78561
1.78705
1.78952
1.79325
1.7984
1.80508
1.81333
1.82315
1.83448
1.78641
1.78597
1.78532
1.78452
1.78373
1.78315
1.78302
1.78362
1.78523
1.78806
1.7923
1.79808
1.80545
1.81442
1.82494
1.78758
1.78665
1.78545
1.78406
1.78262
1.78132
1.78044
1.78023
1.78098
1.78293
1.78628
1.79116
1.79766
1.80578
1.81549
1.78865
1.78724
1.78551
1.78354
1.78146
1.77948
1.77785
1.77686
1.77678
1.77787
1.78035
1.78435
1.78997
1.79724
1.80614
1.78961
1.78774
1.7855
1.78296
1.78026
1.77762
1.77528
1.77352
1.77264
1.77289
1.7745
1.77764
1.7824
1.78882
1.79691
1.79047
1.78815
1.7854
1.78232
1.77903
1.77574
1.77271
1.77021
1.76854
1.76798
1.76875
1.77103
1.77493
1.78052
1.78779
1.79124
1.78847
1.78524
1.78162
1.77775
1.77384
1.77014
1.76693
1.7645
1.76314
1.76308
1.76453
1.76759
1.77235
1.7788
1.79192
1.78872
1.785
1.78086
1.77644
1.77193
1.76758
1.76367
1.76051
1.75838
1.75752
1.75813
1.76037
1.7643
1.76995
1.79251
1.78888
1.7847
1.78006
1.77509
1.77
1.76502
1.76045
1.75657
1.75369
1.75204
1.75185
1.75327
1.75639
1.76123
1.79301
1.78897
1.78434
1.7792
1.77371
1.76805
1.76247
1.75725
1.75269
1.74907
1.74666
1.74569
1.7463
1.74861
1.75265
1.79344
1.78899
1.78392
1.7783
1.7723
1.76609
1.75993
1.75408
1.74885
1.74453
1.74138
1.73963
1.73946
1.74097
1.74423
1.79379
1.78895
1.78344
1.77736
1.77085
1.76412
1.75739
1.75094
1.74507
1.74006
1.73619
1.73369
1.73274
1.73348
1.73595
1.79407
1.78884
1.7829
1.77637
1.76938
1.76214
1.75486
1.74783
1.74133
1.73566
1.73109
1.72786
1.72616
1.72612
1.72782
1.79428
1.78866
1.78232
1.77534
1.76789
1.76014
1.75234
1.74475
1.73764
1.73133
1.72608
1.72214
1.7197
1.71891
1.71985
1.79442
1.78844
1.78168
1.77428
1.76636
1.75814
1.74982
1.74169
1.734
1.72707
1.72116
1.71652
1.71337
1.71184
1.71203
1.7945
1.78815
1.781
1.77318
1.76482
1.75613
1.74732
1.73865
1.73041
1.72288
1.71633
1.71102
1.70716
1.70491
1.70436
1.79453
1.78782
1.78028
1.77204
1.76326
1.75411
1.74482
1.73565
1.72686
1.71875
1.71159
1.70562
1.70108
1.69812
1.69684
1.7945
1.78744
1.77953
1.77088
1.76168
1.75208
1.74233
1.73267
1.72336
1.71469
1.70693
1.70033
1.69512
1.69146
1.68948
1.79442
1.78702
1.77873
1.7697
1.76008
1.75006
1.73986
1.72971
1.7199
1.71069
1.70235
1.69514
1.68928
1.68495
1.68227
1.79429
1.78655
1.77791
1.76849
1.75847
1.74803
1.73739
1.72679
1.71648
1.70675
1.69785
1.69005
1.68356
1.67857
1.67521
1.79412
1.78606
1.77705
1.76726
1.75685
1.74601
1.73494
1.72389
1.71312
1.70288
1.69344
1.68506
1.67796
1.67233
1.6683
1.79392
1.78553
1.77618
1.76602
1.75523
1.74399
1.73251
1.72103
1.70979
1.69906
1.68911
1.68017
1.67248
1.66622
1.66154
1.79368
1.78498
1.77529
1.76477
1.7536
1.74198
1.7301
1.7182
1.70652
1.69532
1.68485
1.67538
1.66711
1.66024
1.65493
1.79342
1.7844
1.77438
1.76351
1.75198
1.73998
1.72771
1.7154
1.70329
1.69164
1.68068
1.67068
1.66186
1.6544
1.64847
1.79313
1.78382
1.77347
1.76226
1.75037
1.738
1.72535
1.71265
1.70012
1.68803
1.6766
1.66609
1.65673
1.6487
1.64215
1.79284
1.78323
1.77256
1.76102
1.74878
1.73605
1.72304
1.70995
1.69702
1.68449
1.67261
1.66161
1.65172
1.64313
1.636
1.79254
1.78264
1.77166
1.75979
1.74722
1.73414
1.72077
1.7073
1.69398
1.68104
1.66872
1.65725
1.64685
1.63771
1.63
1.79224
1.78206
1.77078
1.7586
1.7457
1.73228
1.71856
1.70473
1.69103
1.67769
1.66494
1.65301
1.64211
1.63245
1.62418
1.79197
1.78151
1.76994
1.75745
1.74423
1.73048
1.71642
1.70225
1.68818
1.67446
1.66129
1.64892
1.63754
1.62737
1.61855
1.79172
1.781
1.76915
1.75635
1.74283
1.72877
1.71438
1.69987
1.68546
1.67136
1.6578
1.64499
1.63316
1.62249
1.61314
1.79152
1.78055
1.76842
1.75535
1.74153
1.72717
1.71247
1.69764
1.68289
1.66843
1.65449
1.64128
1.629
1.61785
1.60799
1.79138
1.78017
1.76778
1.75444
1.74034
1.7257
1.7107
1.69557
1.68051
1.66571
1.65141
1.63781
1.62511
1.61351
1.60316
1.79132
1.77989
1.76726
1.75366
1.73931
1.7244
1.70913
1.69372
1.67836
1.66326
1.64862
1.63466
1.62156
1.60952
1.59871
1.79136
1.77972
1.76687
1.75305
1.73846
1.72331
1.7078
1.69214
1.67651
1.66113
1.64619
1.63189
1.61844
1.606
1.59475
1.79152
1.7797
1.76666
1.75263
1.73783
1.72248
1.70676
1.69087
1.67502
1.6594
1.6442
1.62961
1.61583
1.60304
1.5914
1.79182
1.77984
1.76663
1.75244
1.73747
1.72194
1.70606
1.69
1.67397
1.65815
1.64273
1.62791
1.61387
1.60078
1.5888
1.79227
1.78017
1.76683
1.75251
1.73741
1.72176
1.70575
1.68957
1.67341
1.65746
1.64189
1.6269
1.61266
1.59935
1.58711
1.7929
1.7807
1.76728
1.75286
1.73769
1.72196
1.70588
1.68964
1.67341
1.65739
1.64174
1.62666
1.6123
1.59885
1.58645
1.79371
1.78146
1.76798
1.75352
1.73832
1.72257
1.70647
1.69021
1.67398
1.65795
1.64229
1.62718
1.61279
1.59928
1.58681
2.02397
2.03081
2.0324
2.02883
2.0201
2.00621
1.98721
1.96334
1.93513
1.90356
1.87028
1.83777
1.80942
1.78945
1.78249
1.79261
1.82203
1.87004
1.9332
2.00672
2.08643
2.16973
2.25545
2.34308
2.43211
2.52176
2.61101
2.6987
2.78367
2.86483
2.94124
3.01207
3.07666
3.13446
3.18499
3.22789
3.26281
3.28943
3.30744
3.31648
2.01606
2.02426
2.0276
2.02598
2.01932
2.00763
1.99105
1.96992
1.94494
1.91728
1.88877
1.86195
1.84015
1.82727
1.82733
1.84352
1.87716
1.92706
1.98985
2.0614
2.13824
2.21829
2.3006
2.38469
2.47005
2.55594
2.64137
2.72526
2.80649
2.88404
2.95701
3.02461
3.08621
3.14127
3.18936
3.23011
3.26319
3.28832
3.30519
3.31349
2.00928
2.019
2.02411
2.02446
2.01992
2.01051
1.99644
1.97819
1.95659
1.93299
1.90928
1.88804
1.87246
1.86608
1.8723
1.89354
1.93044
1.98147
2.04349
2.11294
2.18696
2.26388
2.34289
2.42356
2.50538
2.58763
2.66938
2.74958
2.82719
2.90125
2.97089
3.03536
3.09406
3.14647
3.19218
3.23084
3.26215
3.28584
3.30163
3.30924
2.00414
2.01543
2.02232
2.02459
2.02214
2.01502
2.00351
1.9882
1.97005
1.95051
1.93154
1.91568
1.90591
1.90539
1.91695
1.94233
1.98165
2.03323
2.09417
2.16145
2.23272
2.30661
2.38244
2.4598
2.5382
2.61692
2.69508
2.77171
2.84582
2.91648
2.98288
3.04431
3.10018
3.15002
3.19343
3.23008
3.25968
3.28198
3.29673
3.30366
2.00082
2.01363
2.02221
2.02634
2.02592
2.02106
2.01211
1.99977
1.98509
1.96958
1.95521
1.94444
1.94003
1.94473
1.96084
1.98955
2.03059
2.08223
2.14188
2.20696
2.27554
2.3465
2.41926
2.49343
2.5685
2.64381
2.71851
2.79168
2.86238
2.92975
2.99301
3.05149
3.10463
3.15198
3.19315
3.22785
3.2558
3.27677
3.29052
3.29681
1.9993
2.01352
2.02369
2.02959
2.03113
2.02849
2.02209
2.0127
2.00145
1.98987
1.97992
1.97393
1.97438
1.98367
2.00359
2.03491
2.07708
2.12841
2.1866
2.24948
2.31545
2.38358
2.45338
2.52445
2.59631
2.66832
2.73967
2.80949
2.8769
2.94109
3.00131
3.05693
3.10743
3.15236
3.19138
3.22419
3.25056
3.27024
3.28304
3.28871
1.99943
2.01495
2.0266
2.03417
2.0376
2.03713
2.03324
2.02676
2.01886
2.01108
2.00531
2.00372
2.00855
2.02181
2.04488
2.07818
2.12099
2.17172
2.22834
2.28903
2.35247
2.41788
2.48481
2.5529
2.62166
2.69048
2.7586
2.82518
2.88942
2.95053
3.00781
3.06067
3.10861
3.15122
3.18816
3.21916
3.24399
3.26245
3.27432
3.27941
2.001
2.01772
2.03075
2.0399
2.04516
2.04679
2.04536
2.04172
2.03706
2.03289
2.03103
2.03347
2.04217
2.05882
2.08444
2.11918
2.16225
2.21215
2.26713
2.32566
2.38665
2.44943
2.5136
2.57881
2.64458
2.71033
2.77532
2.8388
2.89997
2.9581
3.01256
3.06275
3.10823
3.14859
3.18353
3.21278
3.23614
3.25342
3.26442
3.26895
2.00378
2.02161
2.03594
2.04659
2.0536
2.05729
2.05824
2.05734
2.05577
2.05501
2.05677
2.06283
2.07493
2.09442
2.12206
2.15779
2.20079
2.2497
2.30301
2.35943
2.41804
2.47828
2.5398
2.60223
2.66512
2.7279
2.7899
2.85037
2.90858
2.96386
3.01558
3.06322
3.10632
3.14452
3.17753
3.20511
3.22706
3.2432
3.25337
3.25737
2.00756
2.02643
2.04198
2.05406
2.06276
2.06842
2.07166
2.07338
2.07475
2.07717
2.08222
2.09152
2.10654
2.12839
2.15758
2.19393
2.23662
2.28442
2.33603
2.39038
2.4467
2.5045
2.56346
2.62321
2.68333
2.74326
2.80236
2.85994
2.91532
2.96784
3.01694
3.06211
3.10292
3.13905
3.17021
3.19618
3.21678
3.23185
3.24121
3.24472
2.01215
2.03199
2.04869
2.06213
2.07244
2.08
2.08543
2.08963
2.09375
2.09909
2.10712
2.11927
2.13679
2.16055
2.1909
2.22756
2.26973
2.31633
2.36625
2.41859
2.4727
2.52815
2.58463
2.64181
2.69925
2.75644
2.81276
2.86757
2.92022
2.9701
3.01668
3.05947
3.0981
3.13223
3.16161
3.18605
3.20535
3.21939
3.228
3.23103
2.01736
2.03813
2.05591
2.07065
2.08249
2.09184
2.09935
2.10589
2.11254
2.12055
2.13124
2.14587
2.16548
2.19078
2.22194
2.25864
2.30015
2.3455
2.39375
2.44413
2.4961
2.54929
2.6034
2.6581
2.71297
2.76752
2.82117
2.87331
2.92334
2.97069
3.01484
3.05536
3.09188
3.12411
3.15179
3.17475
3.19283
3.20588
3.21377
3.21636
2.02306
2.04468
2.06349
2.07944
2.09274
2.10379
2.11324
2.12195
2.13094
2.14135
2.15439
2.17114
2.1925
2.21897
2.25066
2.2872
2.32793
2.37199
2.41859
2.46708
2.517
2.56801
2.61983
2.67213
2.72454
2.77656
2.82764
2.87723
2.92475
2.96966
3.01149
3.04983
3.08434
3.11474
3.1408
3.16235
3.17925
3.19137
3.19858
3.20075
2.02909
2.05152
2.07127