/*--------------------------------*- C++ -*----------------------------------*\
| =========                 |                                                 |
| \\      /  F ield         | OpenFOAM: The Open Source CFD Toolbox           |
|  \\    /   O peration     | Version:  2206                                  |
|   \\  /    A nd           | Website:  www.openfoam.com                      |
|    \\/     M anipulation  |                                                 |
\*---------------------------------------------------------------------------*/
FoamFile
{
    version     2.0;
    format      ascii;
    arch        "LSB;label=32;scalar=64";
    class       volScalarField;
    location    "500";
    object      p;
}
// * * * * * * * * * * * * * * * * * * * * * * * * * * * * * * * * * * * * * //

dimensions      [0 2 -2 0 0 0 0];

internalField   nonuniform List<scalar> 
12940
(
719.524
707.78
708.173
707.018
705.664
704.342
703.037
701.754
715.211
709.362
709.362
707.429
705.813
704.388
703.036
701.734
713.479
709.917
709.657
707.528
705.866
704.363
702.963
701.648
712.849
710.19
709.383
707.313
705.731
704.208
702.787
701.478
711.857
709.938
708.738
706.835
705.375
703.904
702.508
701.227
710.075
708.869
707.644
706.041
704.764
703.432
702.129
700.908
707.666
707.093
706.179
704.979
703.944
702.814
701.665
700.543
705.128
705.083
704.632
703.836
703.054
702.143
701.169
700.172
703.011
703.37
703.322
702.837
702.265
701.538
700.719
699.843
701.609
702.229
702.429
702.136
701.698
701.1
700.39
699.61
700.902
701.637
701.957
701.772
701.403
700.875
700.23
699.51
700.711
701.442
701.816
701.706
701.366
700.87
700.252
699.563
700.85
701.511
701.908
701.867
701.549
701.062
700.451
699.772
701.191
701.766
702.166
702.191
701.905
701.426
700.811
700.132
701.665
702.161
702.548
702.63
702.394
701.931
701.313
700.632
702.231
702.665
703.029
703.154
702.981
702.551
701.939
701.258
702.864
703.25
703.59
703.745
703.639
703.263
702.671
701.999
703.541
703.894
704.215
704.391
704.349
704.042
703.491
702.842
704.241
704.575
704.887
705.084
705.101
704.874
704.385
703.774
704.934
705.268
705.589
705.814
705.888
705.747
705.339
704.786
705.584
705.943
706.297
706.568
706.708
706.656
706.344
705.867
706.148
706.56
706.977
707.324
707.549
707.596
707.395
707.012
706.582
707.073
707.582
708.04
708.385
708.555
708.483
708.21
706.85
707.439
708.057
708.653
709.158
709.492
709.582
709.442
706.928
707.622
708.35
709.09
709.779
710.318
710.619
710.65
706.812
707.61
708.431
709.288
710.146
710.904
711.453
711.695
706.51
707.407
708.301
709.228
710.194
711.127
711.909
712.37
706.051
707.039
707.992
708.946
709.942
710.949
711.872
712.5
705.484
706.55
707.554
708.51
709.48
710.461
711.388
712.069
704.879
706.007
707.051
707.997
708.914
709.814
710.646
711.254
704.33
705.493
706.561
707.487
708.344
709.145
709.846
710.297
703.94
705.102
706.168
707.064
707.857
708.565
709.134
709.38
703.809
704.923
705.954
706.804
707.536
708.166
708.619
708.622
704.008
705.021
705.975
706.765
707.444
708.024
708.394
708.128
704.558
705.413
706.248
706.969
707.613
708.189
708.534
708.018
705.397
706.044
706.728
707.382
708.027
708.667
709.086
708.426
706.355
706.771
707.29
707.896
708.592
709.383
710.028
709.498
707.153
707.354
707.725
708.307
709.098
710.12
711.173
711.273
707.446
707.496
707.755
708.317
709.187
710.421
711.962
713.232
706.948
706.942
707.128
707.624
708.443
709.656
711.315
713.484
705.716
705.723
705.824
706.11
706.538
707.044
707.389
706.873
704.283
704.345
704.425
704.593
704.798
704.94
704.765
704.024
702.588
702.717
702.805
702.91
702.998
702.998
702.758
702.23
700.713
700.904
701.012
701.084
701.106
701.042
700.81
700.381
698.719
698.963
699.094
699.147
699.131
699.035
698.832
698.491
696.653
696.94
697.09
697.125
697.073
696.948
696.767
696.494
694.561
694.881
695.037
695.04
694.93
694.748
694.552
694.293
692.499
692.837
692.979
692.921
692.713
692.406
692.094
691.713
690.543
690.874
690.973
690.817
690.443
689.871
689.108
688.073
688.784
689.068
689.094
688.811
688.207
687.167
685.259
681.946
687.108
687.287
687.23
686.899
686.288
685.342
683.761
680.484
685.692
685.712
685.577
685.305
684.912
684.407
683.672
682.356
684.457
684.273
684.028
683.803
683.606
683.455
683.296
682.93
683.104
682.71
682.343
682.153
682.121
682.25
682.482
682.639
681.328
680.742
680.265
680.113
680.24
680.624
681.195
681.803
678.826
678.088
677.534
677.445
677.753
678.413
679.352
680.483
675.282
674.451
673.876
673.895
674.428
675.424
676.823
678.678
670.364
669.527
669.001
669.175
669.978
671.373
673.369
676.294
663.752
663.021
662.621
662.975
664.052
665.889
668.705
673.371
655.235
654.739
654.533
655.039
656.325
658.607
662.38
668.961
644.796
644.58
644.427
644.621
645.125
645.873
646.521
645.59
633.127
633.212
633.175
633.195
633.21
633.011
632.068
630.147
620.787
621.115
621.223
621.233
621.129
620.786
619.943
618.716
608.063
608.541
608.759
608.796
608.673
608.335
607.656
606.673
595.086
595.635
595.92
595.995
595.898
595.611
595.069
594.269
581.888
582.454
582.769
582.874
582.812
582.579
582.136
581.464
568.469
569.02
569.339
569.461
569.425
569.235
568.858
568.27
554.822
555.341
555.65
555.776
555.758
555.598
555.268
554.739
540.947
541.427
541.717
541.841
541.832
541.694
541.398
540.918
526.851
527.29
527.556
527.673
527.669
527.548
527.28
526.844
512.547
512.943
513.185
513.292
513.291
513.183
512.942
512.548
498.051
498.406
498.622
498.719
498.719
498.622
498.407
498.054
483.383
483.696
483.887
483.972
483.972
483.887
483.697
483.385
468.56
468.832
468.998
469.072
469.073
468.999
468.833
468.562
453.605
453.836
453.976
454.04
454.04
453.977
453.836
453.606
438.536
438.726
438.842
438.893
438.894
438.842
438.726
438.537
423.375
423.523
423.614
423.654
423.654
423.614
423.523
423.375
408.14
408.247
408.313
408.342
408.342
408.313
408.247
408.14
392.853
392.919
392.959
392.977
392.977
392.959
392.919
392.853
377.535
377.559
377.573
377.579
377.579
377.573
377.559
377.535
362.206
362.187
362.175
362.17
362.17
362.175
362.187
362.206
346.886
346.824
346.786
346.769
346.769
346.786
346.824
346.886
331.598
331.492
331.428
331.399
331.399
331.428
331.492
331.598
316.363
316.213
316.121
316.08
316.08
316.121
316.213
316.363
301.204
301.007
300.888
300.834
300.834
300.887
301.007
301.203
286.141
285.898
285.75
285.684
285.684
285.75
285.898
286.141
271.2
270.909
270.732
270.652
270.652
270.731
270.908
271.2
256.404
256.063
255.856
255.762
255.762
255.855
256.062
256.403
241.776
241.384
241.146
241.039
241.039
241.145
241.384
241.776
227.341
226.897
226.626
226.506
226.506
226.628
226.899
227.343
213.124
212.626
212.323
212.189
212.191
212.329
212.635
213.134
199.146
198.594
198.26
198.114
198.121
198.278
198.621
199.179
185.429
184.824
184.462
184.308
184.323
184.504
184.891
185.515
171.987
171.336
170.953
170.798
170.827
171.04
171.482
172.184
158.828
158.149
157.759
157.613
157.663
157.919
158.435
159.239
145.956
145.279
144.908
144.782
144.859
145.166
145.787
146.737
133.375
132.756
132.44
132.343
132.438
132.79
133.55
134.701
121.118
120.638
120.424
120.348
120.418
120.769
121.69
123.107
109.299
109.059
108.992
108.911
108.866
109.075
110.094
112.183
98.1647
98.2416
98.3158
98.0964
97.6144
96.9682
96.5654
97.7323
88.2039
88.6088
88.7928
88.3362
87.186
85.2237
82.1181
76.3721
80.0229
80.7385
81.1623
80.8587
79.8585
78.1546
75.5265
70.9503
73.6572
74.585
75.2062
75.0998
74.3412
72.9797
70.945
67.6798
68.9629
70.0049
70.7584
70.8338
70.3223
69.2878
67.7405
65.4388
65.6964
66.7714
67.5889
67.7991
67.4937
66.734
65.5741
64.0059
63.6017
64.65
65.473
65.7642
65.6077
65.055
64.1862
63.1617
62.4502
63.4301
64.2141
64.5389
64.4775
64.0702
63.4115
62.7829
62.0504
62.9342
63.6475
63.968
63.9577
63.6459
63.135
62.7885
62.2463
63.0164
63.6375
63.9256
63.9323
63.6778
63.2663
63.1137
62.9118
63.5578
64.0728
64.3087
64.3071
64.0808
63.7325
63.7048
63.9441
64.4608
64.8622
65.0327
65.0047
64.7854
64.4723
64.5169
65.2594
65.6458
65.9304
66.0272
65.9605
65.7327
65.4347
65.5113
66.7889
67.0469
67.215
67.2341
67.1208
66.8739
66.576
66.6554
68.4754
68.6093
68.6638
68.6041
68.4398
68.1667
67.8588
67.9205
70.2713
70.2869
70.2327
70.0955
69.8785
69.5752
69.2504
69.28
72.1365
72.0411
71.8844
71.6727
71.4033
71.0677
70.7219
70.7096
74.0373
73.8387
73.5866
73.3045
72.9845
72.6164
72.247
72.1874
75.9449
75.6516
75.3117
74.9643
74.5965
74.1966
73.8029
73.6935
77.8347
77.4555
77.0359
76.6287
76.2166
75.7866
75.369
75.2094
79.6857
79.2294
78.7383
78.2772
77.8248
77.3669
76.9265
76.7178
81.4797
80.9552
80.4006
79.8916
79.403
78.92
78.4586
78.2031
83.2011
82.6169
82.0069
81.4559
80.9356
80.4302
79.9499
79.6506
84.8365
84.2009
83.5431
82.9559
82.4082
81.8836
81.3867
81.047
86.3741
85.6952
84.997
84.3793
83.8085
83.2676
82.7566
82.3801
87.8044
87.0897
86.3581
85.7153
85.1254
84.5713
84.0486
83.6391
89.1189
88.3756
87.6174
86.9545
86.3495
85.785
85.2531
84.8144
90.311
89.5458
88.7671
88.089
87.4726
86.9004
86.3617
85.8977
91.3753
90.5945
89.8011
89.1121
88.4879
87.9107
87.3673
86.8817
92.3076
91.517
90.7142
90.0187
89.3898
88.81
88.2641
87.7605
93.1051
92.31
91.5028
90.8044
90.1739
89.5937
89.0475
88.5292
93.766
92.9712
92.1641
91.4664
90.8369
90.2586
89.7138
89.1843
94.2896
93.4995
92.6965
92.0026
91.3768
90.8022
90.2607
89.7229
94.676
93.8945
93.0993
92.4121
91.7922
91.2232
90.6865
90.1434
94.9265
94.157
93.3729
92.695
92.083
91.5211
90.9908
90.4451
95.043
94.2885
93.5183
92.8519
92.2498
91.6965
91.1738
90.628
95.028
94.2911
93.5374
92.8845
92.2939
91.7504
91.2367
90.6931
94.8848
94.1678
93.4328
92.7951
92.2173
91.685
91.1812
90.6419
94.6172
93.922
93.2075
92.5866
92.0229
91.5026
91.0097
90.4767
94.2296
93.5576
92.8651
92.2622
91.7137
91.2063
90.7252
90.2001
93.7265
93.079
92.4098
91.8259
91.2935
90.7998
90.3312
89.8155
93.113
92.4909
91.846
91.282
90.7663
90.2869
89.8314
89.3265
92.3942
91.7982
91.1784
90.6349
90.1365
89.672
89.2301
88.7371
91.5756
91.0062
90.4119
89.8894
89.4088
88.9596
88.5317
88.0515
90.6628
90.1201
89.5518
89.0506
88.5881
88.1544
87.7408
87.2743
89.6613
89.1454
88.6032
88.1234
87.6793
87.2613
86.8622
86.4102
88.5767
88.0875
87.5714
87.1132
86.6875
86.2854
85.901
85.4638
87.4146
86.952
86.4617
86.025
85.6178
85.2317
84.862
84.4402
86.1807
85.7441
85.2795
84.8642
84.4753
84.1052
83.7502
83.344
84.8802
84.4692
84.0299
83.6357
83.2651
82.9109
82.5706
82.1803
83.5186
83.1326
82.7182
82.3448
81.9922
81.6537
81.3281
80.9537
82.1011
81.7394
81.3493
80.9963
80.6615
80.3386
80.0274
79.6691
80.6325
80.2944
79.9281
79.5951
79.2777
78.9702
78.6733
78.3309
79.1177
78.8026
78.4593
78.1458
77.8455
77.5531
77.2704
76.9437
77.5613
77.2683
76.9474
76.6529
76.3693
76.0918
75.8228
75.5118
75.9678
75.6961
75.3968
75.1207
74.8534
74.5905
74.335
74.0393
74.3413
74.0901
73.8117
73.5534
73.3019
73.0531
72.811
72.5303
72.6858
72.4542
72.1958
71.9548
71.7187
71.4837
71.2545
70.9886
71.005
70.7921
70.5531
70.3287
70.1075
69.8859
69.6692
69.4178
69.3025
69.1075
68.887
68.6785
68.4717
68.2632
68.0587
67.8213
67.5816
67.4036
67.2007
67.0077
66.8146
66.6188
66.4261
66.2023
65.8453
65.6835
65.4975
65.3191
65.1394
64.9558
64.7746
64.564
64.0965
63.9501
63.7802
63.6158
63.4489
63.2771
63.107
62.9091
62.3379
62.206
62.0514
61.9005
61.7458
61.5853
61.4259
61.2404
60.572
60.4538
60.3137
60.1755
60.0326
59.883
59.7339
59.5602
58.8011
58.6958
58.5694
58.4433
58.3116
58.1725
58.0332
57.871
57.0271
56.934
56.8205
56.706
56.585
56.4558
56.3261
56.1748
55.2521
55.1704
55.0691
54.9654
54.8546
54.735
54.6143
54.4735
53.4777
53.4067
53.3168
53.2235
53.1222
53.0118
52.8998
52.769
51.7055
51.6444
51.5653
51.4817
51.3896
51.2878
51.1841
51.0628
49.937
49.8851
49.8161
49.7415
49.658
49.5646
49.4687
49.3565
48.1733
48.13
48.0703
48.0043
47.929
47.8433
47.755
47.6514
46.4156
46.3803
46.3293
46.2712
46.2035
46.1253
46.0441
45.9486
44.6649
44.6369
44.5939
44.5433
44.4828
44.4115
44.337
44.2493
42.922
42.9006
42.8651
42.8214
42.7676
42.7029
42.6348
42.5543
41.1877
41.1724
41.1437
41.1064
41.0588
41.0003
40.9381
40.8646
39.4624
39.4527
39.4303
39.3988
39.357
39.3043
39.2478
39.1807
37.7468
37.7421
37.7253
37.6993
37.6629
37.6156
37.5643
37.5033
36.0413
36.041
36.0294
36.0083
35.9768
35.9346
35.8883
35.8329
34.3461
34.3497
34.3427
34.3261
34.2992
34.2617
34.2199
34.1699
32.6614
32.6685
32.6656
32.653
32.6303
32.5971
32.5597
32.5146
30.9873
30.9974
30.9981
30.9892
30.9703
30.9411
30.9077
30.8672
29.3238
29.3364
29.3404
29.3347
29.3192
29.2938
29.264
29.2278
27.6708
27.6855
27.6922
27.6894
27.6771
27.6551
27.6288
27.5965
26.0281
26.0446
26.0536
26.0533
26.0438
26.025
26.0019
25.9734
24.3956
24.4135
24.4243
24.4261
24.4191
24.4032
24.3832
24.3581
22.7729
22.7918
22.8042
22.8078
22.803
22.7896
22.7724
22.7506
21.1595
21.1791
21.1927
21.1979
21.195
21.184
21.1693
21.1505
19.555
19.5751
19.5895
19.596
19.5948
19.586
19.5736
19.5576
17.9587
17.979
17.994
18.0015
18.0019
17.9951
17.9849
17.9714
16.3701
16.3903
16.4057
16.414
16.4158
16.4109
16.4027
16.3916
14.7884
14.8083
14.8239
14.8329
14.8358
14.8327
14.8265
14.8177
13.2128
13.2324
13.2479
13.2574
13.2614
13.2599
13.2556
13.249
11.6426
11.6617
11.6771
11.687
11.692
11.692
11.6895
11.685
10.0769
10.0956
10.1107
10.1209
10.1267
10.1282
10.1275
10.125
8.51516
8.53335
8.54812
8.55851
8.56512
8.56798
8.56896
8.5684
6.95661
6.97434
6.98874
6.99921
7.00645
7.01058
7.01318
7.01454
5.40095
5.41821
5.43211
5.44244
5.4501
5.4553
5.45937
5.46252
3.84831
3.86485
3.87788
3.88766
3.89536
3.90132
3.90657
3.91129
2.30035
2.31488
2.32614
2.33497
2.34268
2.34962
2.35628
2.36318
0.763877
0.771186
0.777813
0.784433
0.791696
0.799675
0.808209
0.818985
67.537
61.5133
59.4691
56.5222
52.7756
48.3922
43.3262
37.5989
31.3197
24.6889
18.039
11.7274
6.08294
4.19419
14.898
67.5173
61.3734
58.4966
55.4864
52.1837
48.5634
44.5384
40.0777
35.2047
29.9965
24.6162
19.2236
13.6824
9.49133
15.6367
65.1333
60.2292
57.7689
55.1819
52.4437
49.5163
46.3201
42.8069
38.9522
34.7678
30.3309
25.7447
20.7463
15.6749
19.305
63.2016
59.5974
57.6199
55.4675
53.2222
50.8363
48.2362
45.3694
42.1973
38.7057
34.9304
30.9377
26.5107
21.491
23.6816
61.9033
59.3889
57.8252
56.0836
54.2736
52.3354
50.2047
47.8316
45.1791
42.2251
38.9795
35.4762
31.551
26.8912
28.1423
61.1111
59.5144
58.3196
56.9477
55.5083
53.9374
52.181
50.1998
47.9584
45.4361
42.6294
39.5506
36.0684
31.8625
32.5561
60.7708
59.9359
59.0583
58.0009
56.8672
55.5939
54.1405
52.4726
50.5626
48.3905
45.9489
43.2379
40.1438
36.3952
36.8005
60.8322
60.6081
59.9922
59.1946
58.31
57.2807
56.0727
54.6595
53.0197
51.1359
49.0004
46.6074
43.8529
40.5221
40.7963
61.2374
61.4857
61.081
60.4952
59.8139
58.9842
57.9757
56.7711
55.3536
53.7094
51.8321
49.7138
47.257
44.2951
44.5134
61.9293
62.5297
62.2938
61.8802
61.3653
60.6955
59.8499
58.8166
57.5833
56.1392
54.4801
52.5982
50.4026
47.7617
47.9522
62.8567
63.7088
63.6074
63.3339
62.9503
62.4091
61.6961
60.8035
59.7227
58.4461
56.9713
55.2923
53.3253
50.9625
51.1253
63.9746
64.998
65.0037
64.8395
64.5586
64.1202
63.5144
62.7369
61.7822
60.6454
59.326
57.8202
56.0523
53.9305
54.0526
65.2447
66.3766
66.4636
66.3824
66.1809
65.8235
65.3035
64.6193
63.7681
62.7475
61.5588
60.2002
58.6053
56.6922
56.7547
66.6348
67.8234
67.9694
67.9498
67.8082
67.513
67.0604
66.4508
65.684
64.7593
63.6798
62.4457
61.0005
59.2682
59.2524
68.1148
69.3189
69.5055
69.5297
69.431
69.1821
68.7809
68.23
67.5308
66.6847
65.6957
64.5665
63.2501
61.6743
61.5634
69.6578
70.8457
71.0574
71.1099
71.0398
70.823
70.4597
69.9536
69.3077
68.525
67.6105
66.5689
65.3631
63.9228
63.7034
71.2404
72.3883
72.6113
72.6787
72.6244
72.428
72.0905
71.6173
71.0123
70.2798
69.426
68.4573
67.3458
66.0223
65.6851
72.8423
73.9312
74.1537
74.2244
74.1751
73.9885
73.6667
73.2159
72.6411
71.9477
71.1426
70.2337
69.2024
67.9799
67.5191
74.4444
75.4603
75.6716
75.7356
75.682
75.4961
75.1812
74.7439
74.1901
73.5261
72.7593
71.8993
70.9358
69.8002
69.2134
76.0299
76.9615
77.1527
77.2013
77.1354
76.9427
76.627
76.1955
75.6549
75.012
74.275
73.4542
72.5477
71.4868
70.7748
77.5829
78.4223
78.5854
78.6114
78.5263
78.3202
77.9974
77.5653
77.0311
76.4024
75.6875
74.898
74.0392
73.0422
72.2081
79.0895
79.8304
79.9589
79.9561
79.8462
79.6213
79.2859
78.8478
78.3145
77.6941
76.9951
76.2299
75.4107
74.4685
73.5175
80.5366
81.1751
81.2632
81.2266
81.0873
80.839
80.4867
80.0382
79.5012
78.8842
78.1958
77.4492
76.6625
75.7671
74.706
81.9128
82.4461
82.4895
82.415
82.2425
81.9673
81.5946
81.132
80.5876
79.97
79.2879
78.555
77.795
76.9393
75.776
83.2077
83.6347
83.6298
83.5143
83.3058
83.0009
82.605
82.1257
81.5709
80.9495
80.2702
79.5469
78.8085
77.9866
76.73
84.4123
84.733
84.6771
84.5183
84.2717
83.9353
83.5142
83.0159
82.4486
81.8209
81.1415
80.4248
79.7036
78.9104
77.5699
85.5188
85.7341
85.6255
85.4219
85.136
84.7666
84.3191
83.8005
83.2189
82.583
81.9014
81.1886
80.4812
79.7122
78.2974
86.5207
86.6325
86.4703
86.2211
85.8951
85.4922
85.0174
84.4776
83.8807
83.2354
82.5499
81.839
81.1423
80.394
78.9147
87.4126
87.4237
87.2075
86.9125
86.5464
86.1098
85.6076
85.0463
84.4335
83.7779
83.0875
82.3769
81.6885
80.9577
79.4236
88.1902
88.1039
87.8341
87.4939
87.0881
86.6182
86.0887
85.5059
84.8772
84.2109
83.5148
82.8036
82.1216
81.4056
79.8263
88.8503
88.6707
88.3484
87.9636
87.5191
87.0167
86.4607
85.8569
85.2124
84.5354
83.8334
83.1208
82.4436
81.7404
80.1249
89.3907
89.1224
88.7489
88.3211
87.8392
87.3055
86.7239
86.0999
85.4402
84.7528
84.0447
83.3305
82.657
81.9649
80.322
89.8104
89.4582
89.0355
88.5664
88.0488
87.4852
86.8794
86.2363
85.5622
84.8648
84.1512
83.435
82.7645
82.082
80.42
90.109
89.6782
89.2085
88.7002
88.1488
87.5571
86.9286
86.2677
85.5803
84.8739
84.1549
83.4372
82.769
82.095
80.4217
90.287
89.7831
89.2691
88.7238
88.1408
87.5231
86.8736
86.1963
85.4969
84.7823
84.0589
83.3398
82.6737
82.0074
80.3299
90.3458
89.7745
89.2187
88.6392
88.027
87.3853
86.7167
86.0247
85.3147
84.593
83.8658
83.146
82.4818
81.8228
80.1478
90.2873
89.6542
89.06
88.4487
87.8099
87.1465
86.4608
85.7558
85.0365
84.3091
83.579
82.8591
82.1971
81.5448
79.8786
90.1141
89.425
88.7954
88.1553
87.4923
86.8096
86.1088
85.3927
84.6658
83.9337
83.202
82.4827
81.823
81.1773
79.5254
89.8291
89.0897
88.428
87.762
87.0777
86.3778
85.6642
84.9389
84.2058
83.4707
82.7383
82.0205
81.3635
80.7244
79.0917
89.436
88.652
87.9614
87.2723
86.5692
85.8549
85.1305
84.3978
83.6605
82.9234
82.1916
81.4762
80.8224
80.1898
78.5809
88.9386
88.1154
87.3993
86.6901
85.9711
85.2445
84.5115
83.7734
83.0332
82.2959
81.5658
80.8536
80.2035
79.5777
77.9966
88.3411
87.4841
86.7458
86.0194
85.2868
84.5506
83.8111
83.0693
82.3282
81.5918
80.8646
80.1567
79.5109
78.892
77.3422
87.648
86.7623
86.0051
85.2643
84.5209
83.7771
83.0332
82.2897
81.549
80.8152
80.092
79.3893
78.7485
78.1368
76.6213
86.8638
85.9544
85.1814
84.429
83.6772
82.9283
82.1819
81.4384
80.6998
79.9698
79.2518
78.5553
77.92
77.3161
75.8375
85.9935
85.065
84.2792
83.5179
82.7603
82.0081
81.2613
80.5194
79.7845
79.0595
78.3479
77.6584
77.0295
76.4336
74.9941
85.0418
84.0987
83.3031
82.5354
81.7741
81.0211
80.2754
79.5369
78.8069
78.0883
77.3841
76.7027
76.0808
75.4933
74.0948
84.0137
83.0601
82.2576
81.4859
80.7233
79.9709
79.2284
78.4947
77.771
77.06
76.3643
75.6918
75.0775
74.499
73.1428
82.9141
81.9539
81.1471
80.3738
79.6116
78.8622
78.1242
77.3968
76.6808
75.9783
75.2921
74.6292
74.0235
73.4541
72.1414
81.7478
80.7847
79.9762
79.2033
78.4438
77.6987
76.9669
76.2471
75.5398
74.847
74.1711
73.5188
72.922
72.3624
71.0939
80.5198
79.5571
78.7492
77.9789
77.2237
76.4846
75.7603
75.0493
74.3518
73.6697
73.005
72.3638
71.7767
71.2271
70.0034
79.2346
78.2754
77.4704
76.7046
75.9554
75.2237
74.5081
73.807
73.1204
72.4498
71.7971
71.1678
70.5908
70.0516
68.873
77.897
76.9441
76.144
75.3843
74.6427
73.9198
73.2141
72.524
71.8492
71.1909
70.5507
69.9338
69.3675
68.8391
67.7056
76.5113
75.5673
74.774
74.0222
73.2895
72.5766
71.8819
71.2036
70.5414
69.8961
69.2691
68.6652
68.11
67.5926
66.5042
75.0818
74.1491
73.3644
72.6218
71.8993
71.1975
70.5148
69.8492
69.2002
68.5685
67.9553
67.3648
66.8211
66.3152
65.2714
73.6127
72.6934
71.9188
71.1868
70.4757
69.786
69.1161
68.4639
67.8288
67.2113
66.6122
66.0355
65.5038
65.0095
64.01
72.108
71.2038
70.4409
69.7207
69.022
68.3453
67.6889
67.0508
66.4301
65.8271
65.2426
64.6801
64.1608
63.6783
62.7223
70.5713
69.684
68.934
68.2267
67.5414
66.8784
66.2362
65.6127
65.0068
64.4188
63.8492
63.3012
62.7945
62.3241
61.411
69.0063
68.1373
67.4014
66.708
66.0368
65.3883
64.7608
64.1523
63.5617
62.989
62.4346
61.9013
61.4074
60.9493
60.0782
67.4163
66.567
65.8462
65.1675
64.5112
63.8776
63.2653
62.6723
62.0972
61.5401
61.0011
60.4827
60.0018
59.5561
58.7261
65.8046
64.9759
64.2712
63.6079
62.9671
62.349
61.7524
61.175
60.6158
60.0744
59.5509
59.0475
58.5799
58.1468
57.3568
64.1741
63.3671
62.6791
62.032
61.4071
60.805
60.2243
59.6629
59.1196
58.5941
58.0863
57.598
57.1438
56.7232
55.9722
62.5275
61.7429
61.0725
60.442
59.8336
59.2478
58.6832
58.138
57.6108
57.1013
56.6092
56.136
55.6953
55.2873
54.5742
60.8676
60.1061
59.4537
58.8404
58.2488
57.6795
57.1313
56.6024
56.0914
55.5978
55.1214
54.6634
54.2361
53.8408
53.1644
59.1968
58.4588
57.825
57.2291
56.6547
56.1021
55.5704
55.0578
54.5631
54.0855
53.6247
53.1819
52.7681
52.3854
51.7444
57.5172
56.8031
56.1883
55.6103
55.0531
54.5175
54.0024
53.5062
53.0276
52.566
52.1208
51.693
51.2927
50.9225
50.3159
55.8309
55.1411
54.5455
53.9855
53.4459
52.9273
52.4288
51.949
51.4865
51.0407
50.6111
50.1982
49.8114
49.4537
48.8801
54.1399
53.4745
52.8984
52.3566
51.8346
51.3331
50.8513
50.3877
49.9413
49.5112
49.0969
48.6989
48.3254
47.9802
47.4384
52.4458
51.8049
51.2485
50.7251
50.2208
49.7363
49.2711
48.8238
48.3933
47.9788
47.5797
47.1963
46.8361
46.5031
45.9919
50.7503
50.1339
49.5973
49.0922
48.6056
48.1382
47.6895
47.2583
46.8436
46.4445
46.0605
45.6915
45.3445
45.0237
44.5418
49.0548
48.4628
47.946
47.4594
46.9904
46.54
46.1077
45.6925
45.2934
44.9096
44.5403
44.1857
43.8516
43.5429
43.0891
47.3606
46.7929
46.2959
45.8276
45.3763
44.9427
44.5268
44.1274
43.7437
43.3749
43.0203
42.6797
42.3585
42.0616
41.6348
45.6688
45.1252
44.648
44.198
43.7642
43.3474
42.9476
42.5639
42.1955
41.8415
41.5012
41.1745
40.866
40.5807
40.1796
43.9805
43.4608
43.0032
42.5714
42.1549
41.7548
41.3711
41.0029
40.6494
40.31
39.9839
39.6708
39.3747
39.101
38.7245
42.2965
41.8004
41.3623
40.9485
40.5494
40.1658
39.7979
39.4449
39.1063
38.7812
38.469
38.1693
37.8856
37.6232
37.2701
40.6177
40.1449
39.7261
39.3303
38.9482
38.581
38.2287
37.8908
37.5667
37.2558
36.9573
36.6707
36.3991
36.1478
35.8171
38.9448
38.4949
38.0952
37.7171
37.352
37.0009
36.6641
36.3411
36.0314
35.7343
35.4492
35.1755
34.9158
34.6754
34.3661
37.2782
36.8509
36.4702
36.1096
35.7612
35.4261
35.1045
34.7962
34.5007
34.2173
33.9453
33.6843
33.4363
33.2066
32.9176
35.6186
35.2135
34.8514
34.5082
34.1763
33.857
33.5505
33.2567
32.975
32.705
32.4461
32.1974
31.9609
31.7418
31.4721
33.9662
33.5829
33.2393
32.9132
32.5977
32.2939
32.0023
31.7228
31.4548
31.1981
30.9518
30.7153
30.4901
30.2814
30.03
32.3215
31.9595
31.6341
31.3249
31.0256
30.7372
30.4603
30.1948
29.9404
29.6966
29.4629
29.2384
29.0243
28.8258
28.5918
30.6845
30.3435
30.036
29.7436
29.4602
29.187
28.9247
28.6731
28.432
28.201
27.9795
27.7668
27.5637
27.3752
27.1578
29.0554
28.7351
28.4453
28.1693
27.9017
27.6436
27.3956
27.1577
26.9298
26.7114
26.5021
26.3009
26.1086
25.9299
25.7283
27.4343
27.1342
26.8618
26.6021
26.3501
26.1069
25.8732
25.6489
25.434
25.2281
25.0306
24.8409
24.6592
24.4903
24.3036
25.8212
25.5409
25.2857
25.0421
24.8056
24.5771
24.3574
24.1466
23.9446
23.751
23.5654
23.3869
23.2158
23.0564
22.884
24.2159
23.955
23.7169
23.4892
23.268
23.0542
22.8485
22.651
22.4618
22.2804
22.1065
21.9391
21.7784
21.6286
21.4697
22.6184
22.3766
22.1552
21.9433
21.7372
21.538
21.3462
21.1621
20.9855
20.8163
20.6539
20.4977
20.3473
20.2069
20.061
21.0282
20.8051
20.6004
20.4042
20.2132
20.0284
19.8505
19.6796
19.5157
19.3586
19.2078
19.0626
18.9225
18.7915
18.658
19.4451
19.2405
19.0522
18.8716
18.6957
18.5254
18.3613
18.2037
18.0524
17.9074
17.7681
17.6339
17.5042
17.3825
17.2609
17.8686
17.6823
17.5104
17.3454
17.1845
17.0286
16.8784
16.734
16.5954
16.4625
16.3349
16.2117
16.0924
15.9801
15.8698
16.2984
16.1302
15.9747
15.8251
15.6793
15.5379
15.4016
15.2705
15.1446
15.0238
14.9079
14.796
14.6871
14.5843
14.4849
14.734
14.5837
14.4445
14.3105
14.1797
14.0529
13.9305
13.8129
13.6998
13.591
13.4871
13.3868
13.2883
13.195
13.1063
13.175
13.0424
12.9194
12.801
12.6853
12.5732
12.465
12.3609
12.2607
12.1643
12.0724
11.9835
11.896
11.8123
11.7339
11.6206
11.5057
11.399
11.2962
11.1958
11.0985
11.0045
10.9142
10.8273
10.7436
10.6636
10.586
10.5097
10.4361
10.3678
10.0704
9.97304
9.88266
9.79559
9.7106
9.62825
9.54885
9.47251
9.39911
9.3284
9.26044
9.19434
9.12931
9.06602
9.00787
8.52367
8.44383
8.36986
8.29867
8.22927
8.16212
8.09748
8.0354
7.97575
7.91823
7.86266
7.80841
7.75473
7.70215
7.65407
6.97977
6.91747
6.86004
6.80489
6.75127
6.69954
6.64989
6.60232
6.55668
6.5126
6.46972
6.42765
6.38562
6.34409
6.3061
5.43772
5.39285
5.35196
5.31295
5.27528
5.2392
5.20478
5.17196
5.14055
5.11021
5.0803
5.05067
5.02056
4.99033
4.96242
3.89656
3.86903
3.84474
3.82226
3.80123
3.78166
3.76342
3.74627
3.72993
3.71401
3.69767
3.68088
3.66294
3.6441
3.62632
2.36175
2.3558
2.3513
2.34792
2.34585
2.34497
2.34496
2.34549
2.34618
2.34664
2.34599
2.34414
2.34039
2.33494
2.32929
0.839296
0.869225
0.890371
0.901896
0.906991
0.908207
0.90768
0.907225
0.908275
0.911837
0.918297
0.927817
0.939929
0.95412
0.967801
1.88362
8.55774
11.1936
13.2664
15.8274
18.8753
22.3812
26.331
30.6857
35.3869
40.3667
45.5495
50.8495
56.1651
61.3727
66.3262
70.8712
74.8728
78.2442
80.9571
83.0326
84.5239
85.4989
86.0276
86.174
85.9925
85.5273
84.8147
83.8851
82.7633
81.4708
80.0262
78.4444
76.737
74.9126
72.9758
70.9334
68.7761
66.3537
63.8453
1.03468
7.16847
8.04653
8.99639
10.7697
13.2001
16.2505
19.9165
24.1627
28.9284
34.1328
39.6775
45.447
51.3083
57.1102
62.6878
67.8753
72.5297
76.5523
79.8975
82.5667
84.5955
86.0385
86.9577
87.4135
87.4603
87.1448
86.5072
85.5824
84.4008
82.9891
81.3716
79.5692
77.6001
75.4795
73.2196
70.8346
68.3258
65.5732
62.8491
5.40123
12.1842
13.0815
14.0873
15.8295
18.131
20.9703
24.3495
28.2417
32.5994
37.3586
42.4387
47.7421
53.1517
58.5297
63.7204
68.5637
72.9166
76.6759
79.7888
82.249
84.0857
85.3489
86.098
86.3926
86.2881
85.8334
85.0709
84.0377
82.7659
81.2837
79.6158
77.7837
75.8056
73.6966
71.4692
69.1381
66.7069
64.064
61.4523
11.1567
17.8002
18.7656
19.8882
21.6737
23.9529
26.7045
29.9249
33.5843
37.6365
42.021
46.6631
51.4727
56.3422
61.1461
65.7449
69.9977
73.7824
77.0135
79.65
81.6912
83.1664
84.1231
84.6164
84.7015
84.4298
83.8466
82.9917
81.8992
80.5987
79.1157
77.4726
75.6883
73.7789
71.7576
69.6352
67.425
65.1292
62.6393
60.1978
16.8222
22.9404
23.8869
25.0329
26.7849
28.9848
31.6095
34.65
38.0754
41.8398
45.8848
50.1388
54.5159
58.9148
63.2191
67.3032
71.0444
74.3399
77.1202
79.3546
81.0467
82.2251
82.9337
83.223
83.1435
82.7425
82.0618
81.1383
80.0035
78.6848
77.2057
75.5866
73.8448
71.9947
70.0481
68.0149
65.9068
63.7254
61.3663
59.0767
22.2432
27.8058
28.7198
29.8511
31.5383
33.6339
36.1119
38.9593
42.1438
45.6206
49.3331
53.2128
57.1784
61.1348
64.9753
68.5878
71.8659
74.7231
77.103
78.9826
80.368
81.2864
81.7784
81.89
81.6677
81.1549
80.3905
79.4088
78.2392
76.9072
75.4347
73.8405
72.1402
70.3473
68.4721
66.5237
64.5127
62.4396
60.2055
58.0589
27.3706
32.439
33.3196
34.4199
36.0312
38.0146
40.3411
42.9942
45.9406
49.1358
52.525
56.0425
59.6115
63.1436
66.542
69.7077
72.5497
74.9961
77.0021
78.5512
79.6515
80.3292
80.6216
80.5709
80.2194
79.6072
78.7703
77.7404
76.5448
75.2071
73.7477
72.1835
70.5292
68.7965
66.9949
65.1323
63.2185
61.2529
59.1413
57.1336
32.1688
36.8083
37.6538
38.7138
40.2423
42.1081
44.28
46.7389
49.4505
52.3707
55.4465
58.6151
61.8041
64.9322
67.9123
70.6582
73.0927
75.1572
76.8167
78.0604
78.8982
79.3551
79.4656
79.2682
78.8016
78.1027
77.2044
76.1359
74.9227
73.5865
72.1458
70.6163
69.0111
67.3408
65.6139
63.8371
62.0193
60.1589
58.1667
56.2921
36.6381
40.8997
41.7106
42.7253
44.1669
45.9117
47.9272
50.1922
52.6722
55.3238
58.0958
60.9286
63.7546
66.4998
69.0866
71.4407
73.4977
75.2101
76.5514
77.5155
78.1137
78.3701
78.3162
77.9875
77.4194
76.6454
75.6958
74.5977
73.3741
72.0453
70.628
69.1366
67.5828
65.9762
64.3239
62.6321
60.9084
59.1506
57.2736
55.5267
40.7957
44.7152
45.4919
46.4589
47.8112
49.4329
51.2913
53.3638
55.616
58.0057
60.4838
62.9942
65.4746
67.858
70.0764
72.0664
73.7747
75.1637
76.2139
76.9231
77.3035
77.3783
77.1766
76.7309
76.0736
75.2352
74.2436
73.1234
71.896
70.5796
69.1897
67.7392
66.2386
64.6961
63.1183
61.5101
59.8784
58.22
56.4545
54.8293
44.6647
48.2623
49.0052
49.9223
51.1835
52.6809
54.3822
56.2641
58.2929
60.4278
62.6224
64.8243
66.9766
69.0195
70.8942
72.5468
73.9343
75.0271
75.8117
76.289
76.4721
76.383
76.049
75.4996
74.7644
73.8713
72.8459
71.7106
70.4849
69.1855
67.8263
66.4189
64.9726
63.4947
61.9906
60.4646
58.9225
57.3604
55.702
54.1931
48.2659
51.5541
52.2612
53.1256
54.2937
55.6656
57.2102
58.904
60.7142
62.602
64.5239
66.4315
68.2735
69.9973
71.5521
72.8933
73.9863
74.8086
75.3516
75.6187
75.6237
75.3874
74.9353
74.2944
73.4918
72.553
71.5013
70.357
69.138
67.8594
66.5336
65.171
63.7798
62.3663
60.9349
59.4892
58.0341
56.5651
55.0099
53.6117
51.6208
54.604
55.2723
56.0806
57.1529
58.3982
59.7867
61.2951
62.892
64.5409
66.2013
67.8292
69.3788
70.8042
72.0625
73.117
73.9404
74.5164
74.8402
74.9174
74.762
74.3941
73.8371
73.1161
72.2558
71.2793
70.2079
69.0602
67.8522
66.5975
65.3074
63.9909
62.6551
61.3055
59.9456
58.5782
57.2075
55.8282
54.3719
53.0792
54.746
57.4268
58.0517
58.7992
59.7729
60.8905
62.1236
63.4498
64.8391
66.2575
67.668
69.0309
70.3058
71.4533
72.4374
73.2288
73.8062
74.1583
74.2838
74.1898
73.8907
73.4054
72.7559
71.9652
71.0559
70.0491
68.9641
67.8176
66.6243
65.3963
64.1435
62.874
61.5937
60.3072
59.0174
57.7261
56.4369
55.1439
53.7826
52.5901
57.6574
60.0358
60.612
61.2938
62.1658
63.1545
64.2333
65.3805
66.5683
67.7652
68.9375
70.0501
71.0678
71.9572
72.6886
73.2389
73.5922
73.7415
73.688
73.4403
73.0127
72.4233
71.6926