/*--------------------------------*- C++ -*----------------------------------*\
| =========                 |                                                 |
| \\      /  F ield         | OpenFOAM: The Open Source CFD Toolbox           |
|  \\    /   O peration     | Version:  2206                                  |
|   \\  /    A nd           | Website:  www.openfoam.com                      |
|    \\/     M anipulation  |                                                 |
\*---------------------------------------------------------------------------*/
FoamFile
{
    version     2.0;
    format      ascii;
    arch        "LSB;label=32;scalar=64";
    class       surfaceScalarField;
    location    "500";
    object      phi;
}
// * * * * * * * * * * * * * * * * * * * * * * * * * * * * * * * * * * * * * //

dimensions      [0 3 -1 0 0 0 0];

oriented        oriented;

internalField   nonuniform List<scalar> 
25506
(
0.000200114
0.0372999
0.00044305
0.0372571
0.000742075
0.037201
0.000810863
0.0374312
0.000827746
0.0374831
0.000826694
0.0375011
0.000815501
0.0375112
0.0375163
0.000799232
0.00172706
0.0355728
0.00193602
0.0370481
0.00193213
0.0372049
0.0019017
0.0374616
0.00186517
0.0375197
0.00182363
0.0375426
0.0017803
0.0375545
0.0375588
0.0017378
0.00261196
0.0329609
0.00316234
0.0364977
0.00313437
0.0372329
0.0030405
0.0375555
0.00293969
0.0376205
0.00284304
0.0376393
0.00275615
0.0376414
0.0376351
0.00267982
0.00351324
0.0294477
0.00433243
0.0356786
0.00431422
0.0372511
0.00416982
0.0376999
0.00400636
0.0377839
0.00385446
0.0377912
0.00372257
0.0377733
0.037747
0.00361071
0.00416601
0.0252817
0.00538869
0.0344559
0.00545013
0.0371896
0.00526033
0.0378897
0.00503359
0.0380107
0.00482973
0.037995
0.00465741
0.0379457
0.0378903
0.00451412
0.00440633
0.0208753
0.00612204
0.0327402
0.00640564
0.0369061
0.00623931
0.0380561
0.00597844
0.0382716
0.00573777
0.0382357
0.00553716
0.0381463
0.0380547
0.00537278
0.00417888
0.0166965
0.00639369
0.0305254
0.00704496
0.0362548
0.00701877
0.0380823
0.00679097
0.0384994
0.0065487
0.038478
0.00634134
0.0383536
0.038224
0.00617198
0.00358437
0.0131121
0.00620689
0.0279029
0.00731803
0.0351437
0.00754993
0.0378504
0.00743886
0.0386105
0.00724455
0.0386723
0.00705936
0.0385388
0.0383789
0.0069045
0.00283194
0.0102802
0.00568978
0.025045
0.0072709
0.0335626
0.00784252
0.0372788
0.00792208
0.0385309
0.00782578
0.0387686
0.00769338
0.0386712
0.0384997
0.00757264
0.00211653
0.00816366
0.00500791
0.0221537
0.00699699
0.0315735
0.00794311
0.0363326
0.00826476
0.0382093
0.00830752
0.0387258
0.00825519
0.0387236
0.0385689
0.00818597
0.0015438
0.00661987
0.00429316
0.0194043
0.00658365
0.029283
0.00790113
0.0350152
0.00849591
0.0376145
0.00870911
0.0385126
0.00875966
0.038673
0.0385718
0.00875671
0.00113392
0.00548596
0.00362655
0.0169117
0.00609189
0.0268177
0.00775024
0.0333568
0.00863559
0.0367292
0.0090448
0.0381034
0.0092187
0.0384991
0.038495
0.00929554
0.000859342
0.00462662
0.0030486
0.0147224
0.00556254
0.0243038
0.00750876
0.0314106
0.0086916
0.0355463
0.00932
0.037475
0.00963805
0.0381811
0.0383241
0.00980895
0.000678932
0.00394769
0.00257146
0.0128299
0.00502692
0.0218483
0.00718837
0.0292492
0.00866289
0.0340718
0.00953156
0.0366064
0.0100165
0.0376961
0.0380424
0.0102983
0.00055721
0.00339049
0.00218853
0.0111986
0.00451073
0.0195261
0.00680206
0.0269578
0.00854505
0.0323288
0.00967011
0.0354813
0.0103466
0.0370197
0.0376294
0.0107595
0.000470068
0.00292043
0.00188332
0.00978535
0.00403216
0.0173773
0.00636724
0.0246228
0.00833547
0.0303606
0.00972294
0.0340939
0.0106152
0.0361274
0.0370614
0.0111833
0.00040284
0.0025176
0.00163641
0.00855179
0.00359929
0.0154144
0.00590403
0.022318
0.00803714
0.0282275
0.00967746
0.0324535
0.0108058
0.0349991
0.0363119
0.0115553
0.000346394
0.00217121
0.00142916
0.00746903
0.00321001
0.0136336
0.00543036
0.0200977
0.00765956
0.0259983
0.00952459
0.0305885
0.0108999
0.0336238
0.0353547
0.0118571
0.000294356
0.00187686
0.00124476
0.00651863
0.0028541
0.0120242
0.00495694
0.0179949
0.00721644
0.0237388
0.00926129
0.0285437
0.0108805
0.0320046
0.0341676
0.0120675
0.000242158
0.00163471
0.0010685
0.0056923
0.00251606
0.0105767
0.00448452
0.0160264
0.00672065
0.0215027
0.0088909
0.0263735
0.0107346
0.0301609
0.0327375
0.0121648
0.000187884
0.00144683
0.000889755
0.00499043
0.00217887
0.00928757
0.00400449
0.0142008
0.00617901
0.0193282
0.00842042
0.0241321
0.010455
0.0281263
0.0310634
0.0121291
0.000134097
0.00131273
0.000706657
0.00441788
0.0018307
0.00816353
0.00350347
0.012528
0.00558949
0.0172422
0.00785542
0.0218661
0.0100394
0.0259424
0.0291585
0.0119443
8.79712e-05
0.00122477
0.000531262
0.0039746
0.00147621
0.00721859
0.00297467
0.0110296
0.00494487
0.015272
0.0071958
0.0196152
0.00948627
0.0236519
0.0270474
0.0115973
5.71315e-05
0.00116764
0.000387044
0.00364469
0.00114632
0.00645933
0.00243819
0.00973772
0.00424947
0.0134607
0.00643992
0.0174248
0.00879171
0.0213001
0.0247629
0.0110762
4.43013e-05
0.00112334
0.000295224
0.00339377
0.000890387
0.00586417
0.00195715
0.00867096
0.00355232
0.0118656
0.0056115
0.0153656
0.00795962
0.018952
0.0223516
0.0103709
4.67154e-05
0.00107662
0.000261563
0.00317892
0.000745958
0.00537978
0.00161541
0.00780152
0.00296369
0.0105173
0.00480665
0.0135227
0.00704736
0.0167113
0.0198985
0.0095005
5.93538e-05
0.00101727
0.000275898
0.00296238
0.000713881
0.0049418
0.00145771
0.0070577
0.0025961
0.00937889
0.00418714
0.0119316
0.00621557
0.0146829
0.0175337
0.00858039
7.72407e-05
0.000940031
0.000320247
0.00271938
0.000763264
0.00449878
0.0014594
0.00636156
0.00247294
0.00836536
0.00386274
0.0105418
0.00565622
0.0128894
0.0153608
0.00782915
9.61393e-05
0.000843892
0.000376183
0.00243933
0.000852583
0.00402238
0.00155466
0.00565948
0.00252297
0.00739704
0.00380116
0.00926364
0.00542331
0.0112673
0.013385
0.00739912
0.000112623
0.000731269
0.000428268
0.00212369
0.000944507
0.00350615
0.00167475
0.00492924
0.00264288
0.00642891
0.00387784
0.00802868
0.00540653
0.00973859
0.0115478
0.00724364
0.000123909
0.00060736
0.000464463
0.00178313
0.00101008
0.00296053
0.00176473
0.00417459
0.00274237
0.00545127
0.00396211
0.00680895
0.00544262
0.00825807
0.00979554
0.00719493
0.000127731
0.000479629
0.000475631
0.00143524
0.00102811
0.00240805
0.0017851
0.0034176
0.00275613
0.00448024
0.00395545
0.00560963
0.00539683
0.00681669
0.00810442
0.00708795
0.000122372
0.000357258
0.00045532
0.00110229
0.000984193
0.00187918
0.00170954
0.00269226
0.00264108
0.00354869
0.00379283
0.00445788
0.00517798
0.00543155
0.00647846
0.00680395
0.000106852
0.000250406
0.000400103
0.00080904
0.00087066
0.00140863
0.00152353
0.00203939
0.00237232
0.0026999
0.00343475
0.00339545
0.00472788
0.00413842
0.00494342
0.00626291
8.13404e-05
0.000169067
0.000310742
0.000579639
0.000688431
0.00103094
0.00122631
0.00150152
0.00194394
0.00198227
0.00286542
0.00247397
0.00401552
0.00298833
0.00354488
0.00541406
4.78159e-05
0.000121252
0.000194214
0.000433243
0.000450772
0.00077438
0.000836491
0.0011158
0.00137653
0.00144223
0.00210145
0.00174906
0.00304566
0.00204412
0.00234817
0.00424237
1.07754e-05
0.000110478
6.5843e-05
0.000378177
0.000187578
0.000652646
0.000399652
0.000903727
0.000729334
0.00111255
0.00120991
0.00126848
0.00188306
0.00137098
0.00143401
0.00279722
-2.26397e-05
0.000133119
-5.0427e-05
0.000405966
-5.35936e-05
0.000655814
-8.06628e-06
0.000858201
0.000110015
0.000994467
0.000329346
0.00104915
0.000690336
0.00100999
0.000872552
0.00125179
-4.4019e-05
0.00017714
-0.000126781
0.000488729
-0.00021615
0.000745184
-0.000290978
0.000933031
-0.00033441
0.0010379
-0.000328347
0.00104309
-0.000244812
0.000926457
0.000651827
-2.40832e-05
-4.78217e-05
0.000224963
-0.000144547
0.000585456
-0.000260123
0.000860761
-0.000375347
0.00104826
-0.000476456
0.00113901
-0.000550639
0.00111727
-0.000578984
0.000954805
0.000592343
-0.000519501
-2.77734e-05
0.000252738
-8.57238e-05
0.000643408
-0.000153577
0.000928616
-0.000214544
0.00110922
-0.000252349
0.00117681
-0.000248238
0.00111316
-0.000176699
0.000883267
0.000415645
-1.89688e-05
0.000271708
-5.92246e-05
0.000683666
-0.000104929
0.000974322
-0.00014128
0.00114558
-0.000154116
0.00118965
-0.000130766
0.00108981
-6.70258e-05
0.000819528
0.00034862
-1.12192e-05
0.000282929
-3.55196e-05
0.000707968
-6.24842e-05
0.00100129
-8.18011e-05
0.00116489
-8.44838e-05
0.00119234
-6.53111e-05
0.00107064
-2.90473e-05
0.000783266
0.000319573
-5.14803e-06
0.000288078
-1.67784e-05
0.0007196
-2.96204e-05
0.00101413
-3.81369e-05
0.00117341
-3.79284e-05
0.00119213
-2.75518e-05
0.00106027
-1.12042e-05
0.000766919
0.000308369
-4.63991e-07
0.000288544
-2.2296e-06
0.000721367
-4.4482e-06
0.00101635
-5.78394e-06
0.00117475
-5.30742e-06
0.00119165
-3.1603e-06
0.00105812
-8.14644e-07
0.000764575
0.000307555
3.44487e-06
0.0002851
9.87013e-06
0.000714944
1.63894e-05
0.00100984
2.08283e-05
0.00117031
2.1322e-05
0.00119116
1.66029e-05
0.00106284
7.54802e-06
0.000773631
0.000315104
7.06387e-06
0.000278038
2.08864e-05
0.000701123
3.54623e-05
0.000995261
4.58295e-05
0.00115995
4.76329e-05
0.00118936
3.77959e-05
0.00107268
1.76897e-05
0.000793739
0.000332794
1.04243e-05
0.000267614
3.08395e-05
0.000680709
5.29414e-05
0.000973161
7.00438e-05
0.00114285
7.58518e-05
0.00118355
6.43803e-05
0.00108415
3.34669e-05
0.000824653
0.000366261
1.28745e-05
0.000254741
3.76591e-05
0.000655926
6.5097e-05
0.000945725
8.85297e-05
0.00111942
0.000101505
0.00117058
9.58141e-05
0.00108985
6.03824e-05
0.000860086
0.000426645
1.29941e-05
0.000241748
3.68958e-05
0.000632026
6.30912e-05
0.000919531
8.67482e-05
0.00109576
0.00010389
0.00115344
0.000108974
0.00108476
9.10934e-05
0.00087797
0.000517739
1.09277e-05
0.000230822
2.69469e-05
0.000616008
3.90492e-05
0.00090743
4.21246e-05
0.00109269
2.98501e-05
0.00116572
-1.18725e-05
0.00112649
-0.000117799
0.000983898
0.000765291
-0.000365352
-2.55644e-06
0.000233378
-1.80317e-05
0.000631485
-5.0569e-05
0.00093997
-0.000103109
0.00114523
-0.000181078
0.00124369
-0.000296131
0.00124155
-0.000469883
0.00115765
0.00103148
-0.000736076
-1.8767e-05
0.000252147
-7.15772e-05
0.000684297
-0.000154562
0.00102296
-0.000264434
0.0012551
-0.000399889
0.00137914
-0.000562396
0.00140405
-0.00075493
0.00135018
0.00125058
-0.000974031
-3.4734e-05
0.000286882
-0.000123963
0.000773527
-0.000254333
0.00115333
-0.000414093
0.00141486
-0.00059299
0.00155804
-0.000781825
0.00159289
-0.00097082
0.00153918
0.00142549
-0.00114572
-4.91395e-05
0.000336024
-0.000170863
0.000895253
-0.000342359
0.00132482
-0.000543163
0.00161567
-0.000754277
0.00176916
-0.000957446
0.00179606
-0.00113451
0.00171624
0.00155811
-0.00126712
-6.14961e-05
0.000397521
-0.000210511
0.00104427
-0.000415774
0.00153009
-0.000649139
0.00184904
-0.00088394
0.00200396
-0.00109403
0.00200615
-0.00125391
0.00187613
0.00164506
-0.00134085
-7.11523e-05
0.000468677
-0.000240681
0.0012138
-0.000470733
0.00176014
-0.000727452
0.00210576
-0.000978118
0.00225462
-0.00118938
0.00221741
-0.00132727
0.00201403
0.00167888
-0.00136109
-7.66169e-05
0.000545294
-0.000256635
0.00139382
-0.000498635
0.00200214
-0.000766047
0.00237317
-0.00102257
0.00251114
-0.00122867
0.00242351
-0.00133976
0.00212513
0.00164872
-0.00130961
-7.54124e-05
0.000620712
-0.000250796
0.00156921
-0.000485359
0.00223671
-0.000743635
0.00263144
-0.000989465
0.00275697
-0.00118006
0.00261411
-0.00125934
0.00220439
0.00153747
-0.0011481
-6.51434e-05
0.000685856
-0.000215643
0.00171971
-0.0004157
0.00243677
-0.000633789
0.00284953
-0.000837314
0.00296049
-0.000985534
0.00276232
-0.00101445
0.00223331
0.00132427
-0.000801248
-4.45451e-05
0.000730407
-0.00014853
0.00182369
-0.000282063
0.0025703
-0.000413821
0.00298129
-0.000508238
0.00305492
-0.000521021
0.00277511
-0.000388749
0.00210105
0.000935519
-2.49342e-05
0.000755341
-8.46938e-05
0.00188346
-0.000158497
0.00264411
-0.000221942
0.00304474
-0.000249071
0.00308205
-0.000215893
0.00274194
-0.000113235
0.0019984
0.000822286
-1.16838e-05
0.00076703
-4.13073e-05
0.00191308
-7.72531e-05
0.00268006
-0.000104796
0.00307229
-0.000110126
0.00308739
-8.55187e-05
0.00271734
-3.83415e-05
0.00195122
0.000783946
-4.31091e-06
0.00077134
-1.67479e-05
0.00192552
-3.20815e-05
0.0026954
-4.28961e-05
0.0030831
-4.2989e-05
0.00308748
-3.07615e-05
0.00270512
-1.2246e-05
0.00193271
0.0007717
-9.19736e-07
0.000772264
-4.96682e-06
0.00192957
-1.04281e-05
0.00270086
-1.41463e-05
0.00308683
-1.36644e-05
0.003087
-8.93084e-06
0.00270038
-2.97708e-06
0.00192676
0.000768724
3.01299e-07
0.000771962
-2.87196e-07
0.00193016
-1.59912e-06
0.00270218
-2.58297e-06
0.00308781
-2.40354e-06
0.00308683
-1.20279e-06
0.00269919
-1.17783e-07
0.00192568
0.000768607
5.50705e-07
0.000771416
1.05708e-06
0.00192966
1.18795e-06
0.00270205
1.12709e-06
0.00308788
1.07528e-06
0.00308688
9.58278e-07
0.00269931
5.31906e-07
0.00192611
0.00076914
4.53377e-07
0.000770961
1.09732e-06
0.00192902
1.55932e-06
0.00270159
1.73134e-06
0.00308771
1.60634e-06
0.00308701
1.17786e-06
0.00269974
5.11517e-07
0.00192678
0.000769652
2.93446e-07
0.000770672
7.80791e-07
0.00192853
1.18639e-06
0.00270118
1.36471e-06
0.00308753
1.2561e-06
0.00308712
8.73977e-07
0.00270012
3.49594e-07
0.0019273
0.000770002
1.60044e-07
0.00077051
4.5927e-07
0.00192823
7.33272e-07
0.00270092
8.61786e-07
0.0030874
7.90929e-07
0.00308719
5.37929e-07
0.00270038
2.05746e-07
0.00192764
0.000770208
7.68453e-08
0.000770437
2.36034e-07
0.00192808
3.91834e-07
0.00270076
4.73553e-07
0.00308732
4.39246e-07
0.00308723
2.95229e-07
0.00270052
1.10212e-07
0.00192782
0.000770319
2.82322e-08
0.000770407
1.01285e-07
0.001928
1.8399e-07
0.00270068
2.31698e-07
0.00308728
2.18933e-07
0.00308724
1.48889e-07
0.00270059
5.52255e-08
0.00192792
0.000770374
7.24032e-09
0.000770404
3.45985e-08
0.00192798
7.07746e-08
0.00270064
9.87733e-08
0.00308725
9.98959e-08
0.00308724
6.94376e-08
0.00270063
2.63135e-08
0.00192796
0.000770401
-3.37072e-09
0.000770406
2.36686e-09
0.00192797
1.91916e-08
0.00270063
3.47073e-08
0.00308724
3.9357e-08
0.00308724
3.04263e-08
0.00270064
1.21709e-08
0.00192798
0.000770414
-3.87999e-09
0.000770413
-6.16067e-09
0.00192798
-2.74276e-09
0.00270063
6.71253e-09
0.00308723
1.37827e-08
0.00308723
1.19847e-08
0.00270064
5.35324e-09
0.00192799
0.000770419
-4.66636e-09
0.000770416
-9.04987e-09
0.00192798
-7.01115e-09
0.00270063
-2.44175e-09
0.00308723
1.83887e-09
0.00308723
3.98621e-09
0.00270064
1.97356e-09
0.00192799
0.000770422
-1.02498e-09
0.00077042
-4.4292e-09
0.00192799
-7.11263e-09
0.00270063
-4.7771e-09
0.00308722
-1.12444e-09
0.00308723
-3.3207e-10
0.00270064
-1.5803e-10
0.00192799
0.000770422
-3.64261e-10
0.000770418
-2.27496e-09
0.00192799
-2.60453e-09
0.00270063
-3.44534e-09
0.00308723
-3.88523e-09
0.00308723
-2.76638e-09
0.00270064
-1.82381e-09
0.00192799
0.00077042
3.64631e-09
0.000770418
3.87455e-09
0.00192799
1.40585e-10
0.00270063
-2.31755e-09
0.00308723
-3.87494e-09
0.00308723
-5.43352e-09
0.00270064
-3.55762e-09
0.00192799
0.000770416
4.3442e-09
0.000770411
6.31174e-09
0.00192799
5.25924e-09
0.00270064
-2.5794e-10
0.00308724
-6.11249e-09
0.00308724
-7.72419e-09
0.00270064
-5.30422e-09
0.00192799
0.000770411
8.43145e-09
0.000770405
1.26009e-08
0.00192798
8.14092e-09
0.00270064
9.37874e-10
0.00308724
-6.19484e-09
0.00308725
-1.06152e-08
0.00270065
-7.22221e-09
0.00192799
0.000770404
9.35115e-09
0.000770393
1.54335e-08
0.00192798
1.36675e-08
0.00270064
3.24513e-09
0.00308725
-8.43378e-09
0.00308726
-1.3089e-08
0.00270065
-9.14644e-09
0.00192798
0.000770395
1.38322e-08
0.000770382
2.24412e-08
0.00192797
1.72925e-08
0.00270065
4.94342e-09
0.00308727
-8.34973e-09
0.00308727
-1.60918e-08
0.00270066
-1.12281e-08
0.00192798
0.000770384
1.51919e-08
0.000770364
2.59893e-08
0.00192796
2.34286e-08
0.00270065
7.50526e-09
0.00308728
-1.06813e-08
0.00308729
-1.88278e-08
0.00270067
-1.33536e-08
0.00192797
0.00077037
1.99206e-08
0.000770346
3.29429e-08
0.00192794
2.62557e-08
0.00270066
7.78431e-09
0.0030873
-1.21543e-08
0.00308731
-2.29732e-08
0.00270068
-1.59083e-08
0.00192797
0.000770354
2.06787e-08
0.000770322
3.3819e-08
0.00192793
2.73461e-08
0.00270066
3.98569e-09
0.00308732
-2.0373e-08
0.00308733
-2.95602e-08
0.00270069
-1.94222e-08
0.00192795
0.000770334
2.26315e-08
0.000770302
3.17993e-08
0.00192792
1.51601e-08
0.00270068
-1.35255e-08
0.00308735
-3.77796e-08
0.00308736
-4.39775e-08
0.00270069
-2.5618e-08
0.00192794
0.000770309
1.58919e-08
0.000770282
1.07149e-08
0.00192792
-1.87127e-08
0.00270071
-5.77244e-08
0.00308739
-8.19356e-08
0.00308738
-7.38995e-08
0.00270068
-3.75371e-08
0.0019279
0.000770271
1.43311e-09
0.000770283
-3.65851e-08
0.00192796
-1.0063e-07
0.00270077
-1.54633e-07
0.00308744
-1.70158e-07
0.00308739
-1.35141e-07
0.00270065
-6.11746e-08
0.00192782
0.000770209
-3.65238e-08
0.000770316
-1.38984e-07
0.00192806
-2.55451e-07
0.00270089
-3.34651e-07
0.00308752
-3.3642e-07
0.00308739
-2.48258e-07
0.00270056
-1.05667e-07
0.00192768
0.000770103
-1.02721e-07
0.000770421
-3.10743e-07
0.00192827
-5.12561e-07
0.00270109
-6.23727e-07
0.00308763
-5.99984e-07
0.00308737
-4.35224e-07
0.00270039
-1.82584e-07
0.00192743
0.00076992
-2.11245e-07
0.000770629
-5.57249e-07
0.00192862
-8.42666e-07
0.00270137
-9.81029e-07
0.00308777
-9.33824e-07
0.00308732
-6.86114e-07
0.00270014
-2.96724e-07
0.00192704
0.000769623
-3.38959e-07
0.000770969
-7.77726e-07
0.00192905
-1.05835e-06
0.00270165
-1.15993e-06
0.00308787
-1.11176e-06
0.00308727
-8.75163e-07
0.0026999
-4.16911e-07
0.00192658
0.000769206
-4.04116e-07
0.00077137
-6.42117e-07
0.00192929
-5.29963e-07
0.00270154
-3.65021e-07
0.0030877
-4.009e-07
0.0030873
-5.31266e-07
0.00270003
-3.8995e-07
0.00192643
0.000768816
-1.42581e-07
0.000771514
7.40352e-07
0.00192841
2.32401e-06
0.00269995
3.43299e-06
0.00308659
3.16864e-06
0.00308757
1.69877e-06
0.0027015
2.88422e-07
0.00192784
0.000769104
1.0321e-06
0.000770479
5.29663e-06
0.00192414
1.09656e-05
0.00269428
1.47836e-05
0.00308277
1.42383e-05
0.00308811
9.29706e-06
0.00270644
3.09597e-06
0.00193404
0.000772199
4.2664e-06
0.000766214
1.66641e-05
0.00191174
3.19793e-05
0.00267896
4.27689e-05
0.00307198
4.28159e-05
0.00308806
3.0562e-05
0.00271869
1.2107e-05
0.00195249
0.000784304
1.13467e-05
0.000754864
4.04935e-05
0.00188259
7.60437e-05
0.00264341
0.00010331
0.00304471
0.000108518
0.00308285
8.4098e-05
0.00274311
3.75711e-05
0.00199901
0.000821872
2.42704e-05
0.000730594
8.32227e-05
0.00182364
0.000156441
0.00257019
0.000219413
0.00298173
0.000246079
0.00305618
0.00021278
0.0027764
0.000111223
0.00210056
0.000933095
4.39127e-05
0.000686678
0.000147785
0.00171976
0.000281867
0.00243611
0.000413968
0.00284963
0.000507463
0.00296268
0.000517669
0.00276619
0.000383105
0.00223512
0.00131619
6.57422e-05
0.000620935
0.000219774
0.00156573
0.000425617
0.00223026
0.000649523
0.00262572
0.000855763
0.00275644
0.000999681
0.00262227
0.00101316
0.00222163
0.00155559
0.000773757
7.95706e-05
0.00054136
0.000267369
0.00137793
0.000520982
0.00197664
0.000802339
0.00234436
0.00107231
0.00248647
0.00128524
0.00240933
0.00138235
0.00212453
0.0016591
0.00127884
8.55764e-05
0.000455782
0.000289815
0.00117369
0.000567957
0.00169849
0.000879787
0.00203253
0.00118553
0.00218072
0.00144272
0.00215214
0.00160421
0.00196302
0.00164303
0.00162027
8.5446e-05
0.000370331
0.000292137
0.000966992
0.00057636
0.00141427
0.000898543
0.00171034
0.00122087
0.00185839
0.00150593
0.00186707
0.00171705
0.0017519
0.00153816
0.0018219
8.13582e-05
0.00028897
0.000280825
0.000767522
0.000557947
0.00113714
0.000875728
0.00139256
0.00119959
0.00153453
0.00149709
0.00156956
0.00173882
0.00151016
0.00137576
0.00190121
7.49979e-05
0.000213968
0.000261082
0.000581434
0.000522079
0.000876139
0.000824511
0.00109012
0.00113739
0.00122164
0.00143245
0.00127449
0.00168497
0.00125763
0.00118512
0.00187561
6.74364e-05
0.000146529
0.000236357
0.000412509
0.000475078
0.000637412
0.000753896
0.000811301
0.00104529
0.00093024
0.00132435
0.000995426
0.00156939
0.00101258
0.000991422
0.00176308
5.92816e-05
8.7243e-05
0.000208751
0.000263035
0.000421001
0.000425157
0.00066996
0.000562336
0.00093129
0.000668906
0.00118281
0.000743898
0.00140498
0.000790405
0.000814851
0.00158154
5.08734e-05
3.63657e-05
0.000179549
0.000134354
0.00036251
0.00024219
0.00057704
0.000347801
0.000801654
0.000444285
0.00101652
0.000529034
0.00120378
0.000603129
0.000670605
0.00134802
4.24085e-05
-6.04758e-06
0.000149585
2.71724e-05
0.000301496
9.02733e-05
0.000478462
0.00017083
0.000661586
0.000261158
0.000833116
0.000357495
0.000976764
0.000459483
0.000569416
0.00107795
3.40205e-05
-4.00724e-05
0.000119463
-5.82747e-05
0.000239408
-2.96761e-05
0.000376927
3.33078e-05
0.000515484
0.000122598
0.000639291
0.000233691
0.00073354
0.000365228
0.000518285
0.00078467
2.58126e-05
-6.58888e-05
8.96632e-05
-0.000122129
0.000177423
-0.000117439
0.000274673
-6.39439e-05
0.000367075
3.01966e-05
0.000440691
0.000160073
0.000482243
0.000323676
0.000521218
0.000479303
1.7867e-05
-8.37591e-05
6.05813e-05
-0.000164847
0.000116524
-0.000173384
0.000173571
-0.000120991
0.000219444
-1.56755e-05
0.000242005
0.000137514
0.00022951
0.000336169
0.000579919
0.000170809
1.02482e-05
-9.40104e-05
3.25266e-05
-0.000187128
5.74919e-05
-0.000198351
7.5131e-05
-0.000138631
7.50968e-05
-1.56402e-05
4.69984e-05
0.000165614
-1.93423e-05
0.000402512
0.000694263
-0.000133689
3.0083e-06
-9.70218e-05
5.74402e-06
-0.000189867
9.3624e-07
-0.000193546
-1.94733e-05
-0.000118222
-6.40069e-05
2.88936e-05
-0.000141351
0.00024296
-0.000260107
0.000521269
0.000862733
-0.000428575
-3.81419e-06
-9.32105e-05
-1.95797e-05
-0.000174105
-5.2671e-05
-0.000160456
-0.000109328
-6.15654e-05
-0.000196335
0.000115901
-0.000320728
0.000367354
-0.000489555
0.000690099
0.00108284
-0.000709667
-1.01895e-05
-8.30239e-05
-4.33002e-05
-0.000140997
-0.000102966
-0.000100792
-0.000193735
2.92026e-05
-0.000320739
0.000242905
-0.000489441
0.000536057
-0.000705383
0.000906042
0.00135144
-0.000973978
-1.60964e-05
-6.69302e-05
-6.53156e-05
-9.17802e-05
-0.000149697
-1.64125e-05
-0.000272203
0.000151708
-0.000436421
0.000407123
-0.000646318
0.000745954
-0.000905991
0.00116572
0.00166492
-0.00121948
-2.15224e-05
-4.54104e-05
-8.55617e-05
-2.77436e-05
-0.000192692
9.07156e-05
-0.000344406
0.000303422
-0.000542856
0.000605572
-0.000790595
0.000993693
-0.00109035
0.00146547
0.00201942
-0.00144485
-2.64611e-05
-1.89518e-05
-0.000104
4.97931e-05
-0.00023185
0.000218564
-0.000410162
0.000481732
-0.000639745
0.000835155
-0.000921836
0.00127578
-0.00125788
0.00180152
0.0024109
-0.00164937
-3.09115e-05
1.19572e-05
-0.000120618
0.000139497
-0.00026714
0.000365084
-0.000469399
0.000683989
-0.000726967
0.00109272
-0.00103986
0.00158868
-0.00140834
0.00216999
0.0028353
-0.00183273
-3.4877e-05
4.68318e-05
-0.000135426
0.000240045
-0.000298579
0.000528235
-0.000522135
0.000907544
-0.000804541
0.00137513
-0.00114469
0.00192883
-0.00154175
0.00256705
0.00328856
-0.00199502
-3.83657e-05
8.51953e-05
-0.000148453
0.00035013
-0.00032622
0.000706
-0.00056846
0.00114978
-0.000872598
0.00167926
-0.00123651
0.00229274
-0.00165838
0.00298892
0.00376673
-0.00213655
-4.13893e-05
0.000126583
-0.00015974
0.000468478
-0.000350151
0.000896409
-0.00060852
0.00140815
-0.00093136
0.0020021
-0.00131564
0.00267702
-0.00175865
0.00343193
0.00426595
-0.00225787
-4.39621e-05
0.000170543
-0.000169338
0.000593853
-0.000370483
0.00109755
-0.000642509
0.00168018
-0.000981123
0.00234072
-0.00138249
0.00307839
-0.00184311
0.00389255
0.00478255
-0.00235971
-4.61005e-05
0.000216642
-0.000177312
0.000725063
-0.000387355
0.00130759
-0.000670662
0.00196348
-0.00102224
0.00269229
-0.00143756
0.0034937
-0.00191241
0.0043674
0.00531302
-0.00244289
-4.78239e-05
0.000264464
-0.000183734
0.000860971
-0.000400921
0.00152478
-0.000693247
0.00225581
-0.00105512
0.00305417
-0.00148141
0.00391999
-0.00196732
0.00485331
0.00585407
-0.00250836
-4.91534e-05
0.000313616
-0.000188684
0.0010005
-0.000411355
0.00174745
-0.00071056
0.00255501
-0.00108021
0.00342382
-0.00151466
0.00435443
-0.00200863
0.00534728
0.00640258
-0.00255714
-5.01122e-05
0.000363727
-0.000192248
0.00114263
-0.000418844
0.00197405
-0.000722918
0.00285909
-0.00109798
0.00379888
-0.00153797
0.00479443
-0.0020372
0.00584651
0.00695567
-0.0025903
-5.07247e-05
0.000414451
-0.000194519
0.00128643
-0.000423583
0.00220311
-0.000730654
0.00316616
-0.00110893
0.00417716
-0.00155202
0.00523752
-0.00205392
0.0063484
0.00751068
-0.00260893
-5.10164e-05
0.000465467
-0.000195591
0.001431
-0.000425777
0.0024333
-0.000734112
0.00347449
-0.00111357
0.00455661
-0.00155752
0.00568147
-0.00205969
0.00685057
0.00806513
-0.00261414
-5.10137e-05
0.00051648
-0.000195564
0.00157555
-0.000425632
0.00266337
-0.000733641
0.0037825
-0.00111242
0.00493539
-0.00155516
0.00612421
-0.00205541
0.00735083
0.00861679
-0.00260707
-5.07429e-05
0.000567223
-0.000194535
0.00171934
-0.000423358
0.00289219
-0.000729594
0.00408874
-0.00110599
0.00531178
-0.00154564
0.00656386
-0.002042
0.00784718
0.0091636
-0.00258881
-5.02306e-05
0.000617453
-0.000192601
0.00186171
-0.000419163
0.00311875
-0.000722318
0.00439189
-0.0010948
0.00568427
-0.00152968
0.00699874
-0.00202033
0.00833784
0.00970373
-0.00256046
-4.95027e-05
0.000666956
-0.000189861
0.00200207
-0.00041325
0.00334214
-0.000712154
0.00469079
-0.00107935
0.00605147
-0.00150793
0.00742732
-0.00199128
0.00882118
0.0102355
-0.00252308
-4.85846e-05
0.00071554
-0.000186407
0.0021399
-0.000405818
0.00356155
-0.000699432
0.00498441
-0.00106013
0.00641216
-0.00148107
0.00784826
-0.00195568
0.00929579
0.0107575
-0.00247768
-4.75007e-05
0.000763041
-0.000182331
0.00227473
-0.000397057
0.00377628
-0.000684473
0.00527183
-0.0010376
0.0067653
-0.00144972
0.00826037
-0.00191434
0.00976041
0.0112684
-0.00242525
-4.62743e-05
0.000809315
-0.000177717
0.00240617
-0.000387149
0.00398572
-0.00066758
0.00555226
-0.00101222
0.00710993
-0.00141448
0.00866264
-0.00186802
0.010214
0.0117671
-0.00236672
-4.49275e-05
0.000854243
-0.000172649
0.00253389
-0.000376267
0.00418933
-0.000649041
0.00582503
-0.00098439
0.00744528
-0.00137592
0.00905417
-0.00181745
0.0106555
0.0122527
-0.00230298
-4.34811e-05
0.000897724
-0.000167202
0.00265761
-0.000364573
0.00438671
-0.000629125
0.00608958
-0.000954521
0.00777068
-0.00133458
0.00943423
-0.00176329
0.0110842
0.0127242
-0.00223484
-4.1954e-05
0.000939678
-0.000161448
0.0027771
-0.000352216
0.00457748
-0.000608084
0.00634545
-0.000922977
0.00808557
-0.00129095
0.0098022
-0.0017062
0.0114994
0.0131811
-0.00216309
-4.03642e-05
0.000980042
-0.000155452
0.00289219
-0.000339337
0.00476136
-0.000586151
0.00659226
-0.0008901
0.00838952
-0.00124549
0.0101576
-0.00164675
0.0119007
0.0136228
-0.00208844
-3.87277e-05
0.00101877
-0.000149275
0.00300274
-0.000326062
0.00493815
-0.000563539
0.00682974
-0.000856205
0.00868219
-0.00119863
0.0105
-0.00158549
0.0122875
0.0140488
-0.00201155
-3.70593e-05
0.00105583
-0.000142972
0.00310865
-0.000312507
0.00510768
-0.000540443
0.00705768
-0.000821579
0.00896332
-0.00115076
0.0108292
-0.00152291
0.0126597
0.0144589
-0.00193302
-3.53721e-05
0.0010912
-0.000136592
0.00320987
-0.000298779
0.00526987
-0.00051704
0.00727594
-0.000786481
0.00923276
-0.00110223
0.011145
-0.00145947
0.0130169
0.0148529
-0.00185342
-3.3678e-05
0.00112488
-0.00013018
0.00330637
-0.000284971
0.00542466
-0.000493489
0.00748445
-0.000751148
0.00949042
-0.00105336
0.0114472
-0.00139557
0.0133591
0.0152305
-0.00177324
-3.19874e-05
0.00115686
-0.000123774
0.00339816
-0.000271168
0.00557206
-0.000469933
0.00768321
-0.000715788
0.00973627
-0.00100444
0.0117358
-0.00133158
0.0136863
0.0155919
-0.00169294
-3.03096e-05
0.00118717
-0.00011741
0.00348526
-0.000257445
0.00571209
-0.000446496
0.00787226
-0.000680589
0.00997037
-0.000955713
0.0120109
-0.00126783
0.0139984
0.015937
-0.00161291
-2.86525e-05
0.00121582
-0.000111118
0.00356772
-0.000243865
0.00584484
-0.00042329
0.00805169
-0.000645716
0.0101928
-0.000907414
0.0122726
-0.00120461
0.0142956
0.0162659
-0.00153351
-2.70232e-05
0.00124285
-0.000104924
0.00364562
-0.000230487
0.0059704
-0.000400411
0.00822161
-0.000611312
0.0104037
-0.000859738
0.0125211
-0.00114218
0.014578
0.0165788
-0.00145507
-2.54275e-05
0.00126827
-9.88518e-05
0.00371904
-0.000217359
0.00608891
-0.000377944
0.00838219
-0.000577504
0.0106033
-0.000812857
0.0127564
-0.00108075
0.0148459
0.0168759
-0.00137786
-2.38705e-05
0.00129214
-9.29197e-05
0.00378809
-0.000204524
0.00620051
-0.000355958
0.00853363
-0.000544397
0.0107917
-0.00076692
0.0129789
-0.00102052
0.0150995
0.0171575
-0.00130211
-2.23563e-05
0.0013145
-8.71439e-05
0.00385288
-0.000192015
0.00630538
-0.000334516
0.00867613
-0.000512085
0.0109693
-0.000722053
0.0131889
-0.000961655
0.0153391
0.0174238
-0.00122804
-2.08883e-05
0.00133539
-8.15377e-05
0.00391353
-0.000179863
0.00640371
-0.000313668
0.00880993
-0.000480642
0.0111362
-0.000678362
0.0133866
-0.000904298
0.015565
0.0176754
-0.00115582
-1.94691e-05
0.00135486
-7.61118e-05
0.00397017
-0.00016809
0.00649569
-0.000293454
0.0089353
-0.000450132
0.0112929
-0.000635936
0.0135724
-0.000848561
0.0157777
0.0179124
-0.00108559
-1.8101e-05
0.00137296
-7.08744e-05
0.00402294
-0.000156716
0.00658153
-0.000273907
0.00905249
-0.000420606
0.0114396
-0.000594847
0.0137467
-0.000794541
0.0159774
0.0181353
-0.00101748
-1.67852e-05
0.00138974
-6.58319e-05
0.00407199
-0.000145755
0.00666145
-0.000255053
0.00916178
-0.000392103
0.0115767
-0.00055515
0.0139097
-0.000742314
0.0161645
0.0183446
-0.00095159
-1.55231e-05
0.00140526
-6.09888e-05
0.00411745
-0.000135217
0.00673568
-0.000236912
0.00926348
-0.000364653
0.0117044
-0.00051689
0.0140619
-0.000691938
0.0163396
0.0185407
-0.000887984
-1.43151e-05
0.00141958
-5.63478e-05
0.00415949
-0.000125109
0.00680444
-0.000219495
0.00935786
-0.000338278
0.0118232
-0.000480097
0.0142038
-0.000643455
0.0165029
0.0187239
-0.000826724
-1.31615e-05
0.00143274
-5.19104e-05
0.00419824
-0.000115435
0.00686796
-0.000202812
0.00944524
-0.000312991
0.0119334
-0.000444792
0.0143356
-0.000596896
0.016655
0.0188949
-0.000767849
-1.20622e-05
0.0014448
-4.76769e-05
0.00423385
-0.000106197
0.00692648
-0.000186864
0.00952591
-0.000288798
0.0120353
-0.000410986
0.0144577