/*--------------------------------*- C++ -*----------------------------------*\
| =========                 |                                                 |
| \\      /  F ield         | OpenFOAM: The Open Source CFD Toolbox           |
|  \\    /   O peration     | Version:  2206                                  |
|   \\  /    A nd           | Website:  www.openfoam.com                      |
|    \\/     M anipulation  |                                                 |
\*---------------------------------------------------------------------------*/
FoamFile
{
    version     2.0;
    format      ascii;
    arch        "LSB;label=32;scalar=64";
    class       volVectorField;
    location    "500";
    object      U;
}
// * * * * * * * * * * * * * * * * * * * * * * * * * * * * * * * * * * * * * //

dimensions      [0 1 -1 0 0 0 0];

internalField   nonuniform List<vector> 
12940
(
(9.92378 -1.17193 0)
(10.0209 0.48095 0)
(9.96793 0.101041 0)
(9.99358 0.146334 0)
(9.99763 0.157421 0)
(9.99936 0.15824 0)
(10.0006 0.156583 0)
(10.0013 0.154187 0)
(9.78255 -0.633534 0)
(9.91623 0.77223 0)
(9.91762 0.289478 0)
(9.98265 0.367288 0)
(9.99731 0.361565 0)
(10.0031 0.351968 0)
(10.0065 0.343246 0)
(10.0082 0.33574 0)
(9.2374 -0.235394 0)
(9.81973 0.922238 0)
(9.91831 0.504134 0)
(9.99801 0.598369 0)
(10.0151 0.571121 0)
(10.0207 0.550639 0)
(10.0231 0.532904 0)
(10.0235 0.518545 0)
(8.38957 0.0969596 0)
(9.65321 1.03825 0)
(9.9338 0.745529 0)
(10.0311 0.826943 0)
(10.0504 0.77794 0)
(10.0541 0.747484 0)
(10.0523 0.720867 0)
(10.0485 0.699332 0)
(7.33041 0.33995 0)
(9.38397 1.12632 0)
(9.93559 0.986233 0)
(10.0774 1.04362 0)
(10.1024 0.977997 0)
(10.1019 0.937079 0)
(10.0935 0.902103 0)
(10.083 0.874403 0)
(6.14819 0.456749 0)
(8.98895 1.16488 0)
(9.89637 1.18179 0)
(10.1292 1.23029 0)
(10.1692 1.16146 0)
(10.162 1.11311 0)
(10.1441 1.07145 0)
(10.1248 1.0398 0)
(4.96829 0.443232 0)
(8.45821 1.1352 0)
(9.77852 1.29748 0)
(10.1621 1.36833 0)
(10.2387 1.31553 0)
(10.2285 1.26861 0)
(10.1997 1.22469 0)
(10.1704 1.19225 0)
(3.91709 0.344186 0)
(7.80576 1.03648 0)
(9.54824 1.32428 0)
(10.1422 1.44929 0)
(10.2897 1.43237 0)
(10.2901 1.39873 0)
(10.2539 1.35964 0)
(10.2148 1.33041 0)
(3.06537 0.225797 0)
(7.06692 0.888886 0)
(9.18993 1.27817 0)
(10.0405 1.47771 0)
(10.2992 1.51231 0)
(10.3325 1.50318 0)
(10.2983 1.47657 0)
(10.2528 1.45503 0)
(2.41817 0.133365 0)
(6.29073 0.722845 0)
(8.70992 1.18589 0)
(9.84041 1.46533 0)
(10.2494 1.56109 0)
(10.3427 1.5854 0)
(10.325 1.57776 0)
(10.2794 1.56824 0)
(1.94257 0.0773263 0)
(5.52918 0.56595 0)
(8.13175 1.07101 0)
(9.53807 1.42358 0)
(10.1293 1.58519 0)
(10.3109 1.64976 0)
(10.327 1.66624 0)
(10.2901 1.67257 0)
(1.59492 0.0478682 0)
(4.82405 0.435569 0)
(7.48858 0.94915 0)
(9.13857 1.36054 0)
(9.93289 1.58897 0)
(10.2297 1.69931 0)
(10.2987 1.74439 0)
(10.2813 1.77011 0)
(1.33552 0.0327312 0)
(4.19809 0.337282 0)
(6.81616 0.829854 0)
(8.65351 1.28177 0)
(9.65722 1.57429 0)
(10.0929 1.73503 0)
(10.2346 1.8132 0)
(10.2494 1.86201 0)
(1.13452 0.0243077 0)
(3.65539 0.267665 0)
(6.14707 0.719491 0)
(8.10014 1.19196 0)
(9.30194 1.54165 0)
(9.89456 1.75614 0)
(10.1291 1.87219 0)
(10.1903 1.94829 0)
(0.97226 0.0190261 0)
(3.18834 0.219232 0)
(5.50612 0.622225 0)
(7.50027 1.09584 0)
(8.87064 1.49152 0)
(9.62955 1.76081 0)
(9.97595 1.91958 0)
(10.0992 2.02776 0)
(0.836855 0.0153346 0)
(2.78517 0.184594 0)
(4.90836 0.539664 0)
(6.87775 0.998147 0)
(8.37215 1.42543 0)
(9.29448 1.747 0)
(9.76834 1.95265 0)
(9.97013 2.09814 0)
(0.721401 0.0125372 0)
(2.43448 0.158246 0)
(4.36002 0.470758 0)
(6.25471 0.90297 0)
(7.82069 1.34615 0)
(8.88949 1.71333 0)
(9.50005 1.9682 0)
(9.79626 2.15618 0)
(0.622008 0.010309 0)
(2.12722 0.136519 0)
(3.8615 0.412538 0)
(5.64849 0.812886 0)
(7.23428 1.25726 0)
(8.41953 1.6597 0)
(9.16654 1.96316 0)
(9.57037 2.19791 0)
(0.536758 0.00850649 0)
(1.85708 0.1169 0)
(3.4103 0.361189 0)
(5.07055 0.728313 0)
(6.63165 1.1622 0)
(7.89465 1.58745 0)
(8.76649 1.93525 0)
(9.28572 2.21914 0)
(0.465167 0.00711468 0)
(1.62053 0.097588 0)
(3.00334 0.31288 0)
(4.5271 0.647514 0)
(6.02919 1.06315 0)
(7.32879 1.49881 0)
(8.30287 1.88351 0)
(8.93726 2.21599 0)
(0.40769 0.00626377 0)
(1.41658 0.0776215 0)
(2.63856 0.26447 0)
(4.02098 0.567326 0)
(5.4392 0.960305 0)
(6.73716 1.39593 0)
(7.78311 1.8082 0)
(8.52291 2.18542 0)
(0.364822 0.00618964 0)
(1.24625 0.0574636 0)
(2.31614 0.214652 0)
(3.55393 0.48466 0)
(4.86991 0.851991 0)
(6.13362 1.27976 0)
(7.21782 1.71019 0)
(8.04443 2.12551 0)
(0.335749 0.0069805 0)
(1.11089 0.0393271 0)
(2.03912 0.165508 0)
(3.12936 0.399103 0)
(4.32745 0.736347 0)
(5.5294 1.14976 0)
(6.6188 1.58987 0)
(7.50726 2.03497 0)
(0.317374 0.00828132 0)
(1.00916 0.0261353 0)
(1.81165 0.122869 0)
(2.75473 0.316152 0)
(3.81983 0.615511 0)
(4.9343 1.0059 0)
(5.99744 1.44691 0)
(6.91953 1.9122 0)
(0.30491 0.00946661 0)
(0.934278 0.0195433 0)
(1.63327 0.0933931 0)
(2.43946 0.247554 0)
(3.36112 0.501137 0)
(4.36182 0.855216 0)
(5.36599 1.28371 0)
(6.29076 1.75583 0)
(0.293614 0.0101248 0)
(0.874985 0.0191276 0)
(1.4935 0.0801693 0)
(2.1845 0.204712 0)
(2.96748 0.413217 0)
(3.83492 0.719058 0)
(4.74502 1.11528 0)
(5.63449 1.57217 0)
(0.279987 0.0102077 0)
(0.819631 0.0231573 0)
(1.3747 0.0813276 0)
(1.97497 0.190415 0)
(2.64029 0.366287 0)
(3.37636 0.625313 0)
(4.16831 0.974238 0)
(4.98011 1.39048 0)
(0.261987 0.00985678 0)
(0.759549 0.0295837 0)
(1.26003 0.0919441 0)
(1.78783 0.198174 0)
(2.35983 0.358229 0)
(2.98467 0.58543 0)
(3.66002 0.890128 0)
(4.3692 1.25741 0)
(0.238836 0.00923935 0)
(0.690104 0.0365982 0)
(1.1386 0.106544 0)
(1.60407 0.217525 0)
(2.10027 0.37474 0)
(2.63539 0.587252 0)
(3.21105 0.863576 0)
(3.8193 1.19448 0)
(0.210773 0.00847702 0)
(0.610279 0.0427804 0)
(1.00609 0.120504 0)
(1.41368 0.238648 0)
(1.84397 0.399254 0)
(2.3039 0.608085 0)
(2.79605 0.870975 0)
(3.31639 1.18192 0)
(0.178854 0.00762734 0)
(0.521871 0.0470231 0)
(0.863401 0.130285 0)
(1.21479 0.253938 0)
(1.58425 0.41823 0)
(1.97736 0.626893 0)
(2.39684 0.883862 0)
(2.84103 1.18386 0)
(0.144801 0.00669425 0)
(0.428797 0.0484535 0)
(0.715239 0.133261 0)
(1.01135 0.257927 0)
(1.32275 0.422013 0)
(1.65368 0.628345 0)
(2.00697 0.879927 0)
(2.38264 1.16997 0)
(0.110876 0.00565146 0)
(0.336508 0.0464282 0)
(0.568913 0.127613 0)
(0.811219 0.246938 0)
(1.06653 0.404234 0)
(1.3379 0.60238 0)
(1.62832 0.84435 0)
(1.93934 1.12021 0)
(0.0797146 0.00446557 0)
(0.251439 0.0405941 0)
(0.433364 0.112389 0)
(0.624674 0.219008 0)
(0.826088 0.361327 0)
(1.03956 0.543056 0)
(1.26834 0.767942 0)
(1.51549 1.02193 0)
(0.0540925 0.0031233 0)
(0.180344 0.0310361 0)
(0.318156 0.0877988 0)
(0.463211 0.174277 0)
(0.614026 0.292854 0)
(0.771444 0.448529 0)
(0.938791 0.646425 0)
(1.12064 0.868174 0)
(0.0365404 0.0016652 0)
(0.129327 0.0185153 0)
(0.232138 0.0557534 0)
(0.338017 0.115878 0)
(0.443577 0.202766 0)
(0.548364 0.322628 0)
(0.655201 0.482101 0)
(0.769629 0.659318 0)
(0.0287501 0.00022124 0)
(0.102447 0.00471621 0)
(0.1815 0.0204309 0)
(0.257704 0.0510032 0)
(0.326284 0.101209 0)
(0.38521 0.177659 0)
(0.435701 0.287837 0)
(0.482783 0.408636 0)
(0.0308275 -0.000976932 0)
(0.100007 -0.0077196 0)
(0.167294 -0.0116492 0)
(0.225076 -0.00877306 0)
(0.268058 0.00559161 0)
(0.292612 0.0370775 0)
(0.297171 0.0923973 0)
(0.283733 0.151291 0)
(0.040621 -0.00162984 0)
(0.117046 -0.0157233 0)
(0.183013 -0.0329013 0)
(0.233299 -0.0494761 0)
(0.263288 -0.0615972 0)
(0.268479 -0.065629 0)
(0.24431 -0.0573401 0)
(0.186885 -0.0487335 0)
(0.0539131 -0.00156142 0)
(0.143754 -0.0172604 0)
(0.21471 -0.0381734 0)
(0.264879 -0.060976 0)
(0.291386 -0.0822557 0)
(0.290175 -0.0994558 0)
(0.255032 -0.110577 0)
(0.175033 -0.118669 0)
(0.0641597 -0.000813046 0)
(0.164915 -0.0132918 0)
(0.240034 -0.0297964 0)
(0.289455 -0.0468863 0)
(0.310927 -0.0602355 0)
(0.299628 -0.0653358 0)
(0.245555 -0.0569786 0)
(0.125023 -0.0346421 0)
(0.0704198 -0.000255299 0)
(0.178038 -0.00915989 0)
(0.255089 -0.0206118 0)
(0.302019 -0.0317375 0)
(0.316638 -0.0386786 0)
(0.294099 -0.0377896 0)
(0.226065 -0.0270089 0)
(0.100361 -0.00918526 0)
(0.0743567 0.000173352 0)
(0.186444 -0.00548151 0)
(0.264448 -0.0124001 0)
(0.308908 -0.0187723 0)
(0.31792 -0.021973 0)
(0.287532 -0.0199363 0)
(0.212258 -0.0126114 0)
(0.0874987 -0.00345355 0)
(0.0764476 0.000469846 0)
(0.191032 -0.00257113 0)
(0.269483 -0.00591046 0)
(0.312309 -0.0088774 0)
(0.317984 -0.0101102 0)
(0.283563 -0.00868781 0)
(0.205681 -0.00502481 0)
(0.0829318 -0.00168431 0)
(0.0771333 0.000669631 0)
(0.192678 -0.000309012 0)
(0.271324 -0.000873178 0)
(0.313475 -0.00136866 0)
(0.317828 -0.00150274 0)
(0.281985 -0.00109428 0)
(0.203465 -0.00042401 0)
(0.0816385 -0.00078656 0)
(0.0767046 0.000823648 0)
(0.191985 0.00157878 0)
(0.270678 0.00331173 0)
(0.31303 0.00483299 0)
(0.317734 0.00555307 0)
(0.282416 0.00507867 0)
(0.204433 0.00329332 0)
(0.0825365 -0.000101823 0)
(0.0752862 0.000972047 0)
(0.189245 0.00330938 0)
(0.267842 0.00711241 0)
(0.311098 0.0105452 0)
(0.31755 0.0123013 0)
(0.284494 0.0114071 0)
(0.208337 0.00758354 0)
(0.0857596 0.000774288 0)
(0.0729185 0.00112638 0)
(0.184599 0.00488969 0)
(0.26289 0.0105345 0)
(0.307481 0.015853 0)
(0.316753 0.0190796 0)
(0.287702 0.0186851 0)
(0.215473 0.0136199 0)
(0.0926264 0.00246248 0)
(0.0697141 0.00125795 0)
(0.178347 0.00600823 0)
(0.256032 0.0128589 0)
(0.301923 0.0196304 0)
(0.314354 0.0246044 0)
(0.290484 0.0261416 0)
(0.224881 0.0219125 0)
(0.104519 0.00641335 0)
(0.0660747 0.00129126 0)
(0.171397 0.00601275 0)
(0.248223 0.0125185 0)
(0.294788 0.0190513 0)
(0.309186 0.0245253 0)
(0.28879 0.0281688 0)
(0.228421 0.0272662 0)
(0.113743 0.0113917 0)
(0.0624089 0.00113729 0)
(0.164861 0.00392647 0)
(0.241312 0.00692387 0)
(0.288851 0.00870954 0)
(0.305584 0.00825211 0)
(0.290493 0.0042733 0)
(0.24406 -0.00696069 0)
(0.171722 -0.044065 0)
(0.060994 0.000571017 0)
(0.164066 -0.00128516 0)
(0.243105 -0.00595808 0)
(0.294548 -0.0142957 0)
(0.317117 -0.0269597 0)
(0.311891 -0.0452487 0)
(0.283374 -0.0725274 0)
(0.242526 -0.121179 0)
(0.0637879 -6.8738e-05 0)
(0.173093 -0.00757243 0)
(0.258551 -0.0212032 0)
(0.316582 -0.0406314 0)
(0.346534 -0.0651753 0)
(0.350599 -0.0946852 0)
(0.334237 -0.129911 0)
(0.307029 -0.176246 0)
(0.0709913 -0.000665653 0)
(0.192231 -0.013777 0)
(0.287363 -0.036061 0)
(0.353124 -0.0656419 0)
(0.389295 -0.100001 0)
(0.398449 -0.137103 0)
(0.385899 -0.175318 0)
(0.359542 -0.216123 0)
(0.0822932 -0.00117754 0)
(0.220666 -0.019377 0)
(0.32807 -0.0493206 0)
(0.401769 -0.0875499 0)
(0.441923 -0.129684 0)
(0.451297 -0.17192 0)
(0.435093 -0.210813 0)
(0.400643 -0.245323 0)
(0.0971948 -0.00160265 0)
(0.257144 -0.0241632 0)
(0.378823 -0.060482 0)
(0.460221 -0.105723 0)
(0.5019 -0.153874 0)
(0.50683 -0.199593 0)
(0.480387 -0.237895 0)
(0.430354 -0.265306 0)
(0.115093 -0.0019304 0)
(0.300138 -0.0278702 0)
(0.437547 -0.0689188 0)
(0.526253 -0.119257 0)
(0.567203 -0.171656 0)
(0.56344 -0.219517 0)
(0.520496 -0.256339 0)
(0.447132 -0.275407 0)
(0.135121 -0.00210942 0)
(0.34753 -0.0299205 0)
(0.501501 -0.0733059 0)
(0.597153 -0.126048 0)
(0.635644 -0.18033 0)
(0.619581 -0.228736 0)
(0.553967 -0.263261 0)
(0.448232 -0.272349 0)
(0.155859 -0.0020332 0)
(0.396033 -0.0293834 0)
(0.566513 -0.0715328 0)
(0.668795 -0.122578 0)
(0.703963 -0.174946 0)
(0.673337 -0.221181 0)
(0.579922 -0.25217 0)
(0.432193 -0.249585 0)
(0.175192 -0.00161046 0)
(0.440974 -0.0253558 0)
(0.626709 -0.0614803 0)
(0.735402 -0.104904 0)
(0.768142 -0.148923 0)
(0.724654 -0.186726 0)
(0.604062 -0.209398 0)
(0.407402 -0.198329 0)
(0.190079 -0.000646284 0)
(0.475539 -0.0174724 0)
(0.672027 -0.0423173 0)
(0.782857 -0.0704593 0)
(0.807967 -0.0949879 0)
(0.743089 -0.107852 0)
(0.575623 -0.0985659 0)
(0.271605 -0.0600161 0)
(0.19909 0.000180368 0)
(0.49667 -0.00991689 0)
(0.698407 -0.0241908 0)
(0.806747 -0.0391279 0)
(0.820843 -0.0493791 0)
(0.736303 -0.0495628 0)
(0.544186 -0.036479 0)
(0.230563 -0.0119649 0)
(0.203599 0.000659197 0)
(0.507656 -0.0047539 0)
(0.711665 -0.0119193 0)
(0.817113 -0.0189639 0)
(0.823181 -0.0227967 0)
(0.726971 -0.0209237 0)
(0.524118 -0.0134198 0)
(0.211446 -0.00355743 0)
(0.205445 0.000863739 0)
(0.512587 -0.00183845 0)
(0.717637 -0.00495874 0)
(0.821402 -0.00789861 0)
(0.82344 -0.00919174 0)
(0.722388 -0.0078486 0)
(0.516732 -0.00449377 0)
(0.206529 -0.0016738 0)
(0.205968 0.000896162 0)
(0.514375 -0.000464659 0)
(0.719921 -0.0015897 0)
(0.822948 -0.00262595 0)
(0.823278 -0.00300985 0)
(0.720441 -0.00237606 0)
(0.514156 -0.00118886 0)
(0.205121 -0.00101875 0)
(0.205962 0.00084615 0)
(0.514783 5.49416e-05 0)
(0.720583 -0.00021975 0)
(0.823406 -0.000469873 0)
(0.823184 -0.00055981 0)
(0.719837 -0.000352089 0)
(0.513519 -0.000103892 0)
(0.204908 -0.000791477 0)
(0.205812 0.000767936 0)
(0.514702 0.000181351 0)
(0.720636 0.000201137 0)
(0.823481 0.000226751 0)
(0.82318 0.000221621 0)
(0.719786 0.000246597 0)
(0.513556 0.000168818 0)
(0.205036 -0.000695225 0)
(0.205667 0.000686103 0)
(0.514516 0.00016119 0)
(0.720518 0.000243648 0)
(0.823444 0.000337357 0)
(0.823213 0.000351913 0)
(0.719897 0.000324896 0)
(0.513747 0.000179047 0)
(0.205197 -0.00063365 0)
(0.205566 0.000610403 0)
(0.514359 0.000107804 0)
(0.720393 0.000174116 0)
(0.823392 0.000263364 0)
(0.823249 0.000280199 0)
(0.720018 0.000253879 0)
(0.513918 0.00012686 0)
(0.205317 -0.000579623 0)
(0.205509 0.000541776 0)
(0.514256 6.04362e-05 0)
(0.720303 9.63333e-05 0)
(0.823352 0.000164256 0)
(0.823274 0.000179045 0)
(0.720105 0.00016705 0)
(0.514033 7.63434e-05 0)
(0.20539 -0.000526336 0)
(0.20548 0.00047983 0)
(0.514199 2.94612e-05 0)
(0.720249 4.0469e-05 0)
(0.823326 8.80451e-05 0)
(0.823289 0.000100752 0)
(0.720157 0.000101866 0)
(0.5141 4.1611e-05 0)
(0.205431 -0.000472956 0)
(0.205468 0.000422289 0)
(0.514172 1.13217e-05 0)
(0.72022 7.65422e-06 0)
(0.823311 4.09354e-05 0)
(0.823296 5.14463e-05 0)
(0.720184 6.06279e-05 0)
(0.514135 2.1212e-05 0)
(0.205452 -0.000419954 0)
(0.205465 0.000368459 0)
(0.514162 2.85248e-06 0)
(0.720207 -8.31639e-06 0)
(0.823302 1.52628e-05 0)
(0.823298 2.42306e-05 0)
(0.720197 3.7069e-05 0)
(0.514152 1.03352e-05 0)
(0.205462 -0.00036787 0)
(0.205466 0.000316648 0)
(0.514159 -1.15847e-06 0)
(0.720202 -1.43655e-05 0)
(0.823298 3.31537e-06 0)
(0.823298 1.05474e-05 0)
(0.720202 2.39654e-05 0)
(0.51416 4.99155e-06 0)
(0.205467 -0.0003169 0)
(0.205468 0.000266833 0)
(0.51416 -1.8533e-06 0)
(0.720201 -1.4931e-05 0)
(0.823295 -1.61242e-06 0)
(0.823297 4.3786e-06 0)
(0.720204 1.67282e-05 0)
(0.514164 2.43398e-06 0)
(0.20547 -0.000267064 0)
(0.205469 0.000217817 0)
(0.514162 -2.05798e-06 0)
(0.720201 -1.31234e-05 0)
(0.823294 -2.71401e-06 0)
(0.823296 1.72887e-06 0)
(0.720204 1.20836e-05 0)
(0.514165 1.22177e-06 0)
(0.205471 -0.000218166 0)
(0.205471 0.000169902 0)
(0.514163 -1.1088e-06 0)
(0.720201 -1.01412e-05 0)
(0.823294 -2.58702e-06 0)
(0.823295 7.34259e-07 0)
(0.720204 8.78959e-06 0)
(0.514166 5.03891e-07 0)
(0.205472 -0.000169998 0)
(0.205471 0.000122068 0)
(0.514165 -7.22658e-07 0)
(0.720202 -6.95879e-06 0)
(0.823294 -1.63001e-06 0)
(0.823295 2.09795e-07 0)
(0.720204 5.75597e-06 0)
(0.514166 -4.84751e-09 0)
(0.205472 -0.000122251 0)
(0.205471 7.47068e-05 0)
(0.514165 3.81985e-07 0)
(0.720203 -3.55439e-06 0)
(0.823295 -8.23299e-07 0)
(0.823296 -7.87216e-08 0)
(0.720205 2.98237e-06 0)
(0.514166 -5.28641e-07 0)
(0.205471 -7.46694e-05 0)
(0.20547 2.68303e-05 0)
(0.514165 7.7894e-07 0)
(0.720204 -2.81293e-07 0)
(0.823297 2.84482e-07 0)
(0.823297 -4.6016e-07 0)
(0.720205 2.27001e-08 0)
(0.514166 -1.03335e-06 0)
(0.20547 -2.69202e-05 0)
(0.205469 -2.11578e-05 0)
(0.514164 1.8944e-06 0)
(0.720205 3.1809e-06 0)
(0.823298 1.12067e-06 0)
(0.823299 -7.5133e-07 0)
(0.720206 -2.81228e-06 0)
(0.514165 -1.59647e-06 0)
(0.205468 2.12718e-05 0)
(0.205466 -7.02655e-05 0)
(0.514163 2.34644e-06 0)
(0.720206 6.59888e-06 0)
(0.823301 2.3081e-06 0)
(0.823302 -1.11582e-06 0)
(0.720208 -5.85426e-06 0)
(0.514164 -2.13528e-06 0)
(0.205466 7.02603e-05 0)
(0.205463 -0.000120117 0)
(0.514161 3.57445e-06 0)
(0.720207 1.03087e-05 0)
(0.823304 3.28777e-06 0)
(0.823305 -1.35363e-06 0)
(0.720209 -8.78195e-06 0)
(0.514163 -2.72456e-06 0)
(0.205464 0.000120351 0)
(0.205459 -0.000171769 0)
(0.514158 4.14811e-06 0)
(0.720208 1.39956e-05 0)
(0.823308 4.58083e-06 0)
(0.823309 -1.72857e-06 0)
(0.720211 -1.1998e-05 0)
(0.514162 -3.30667e-06 0)
(0.20546 0.000171946 0)
(0.205454 -0.000224903 0)
(0.514155 5.41379e-06 0)
(0.720209 1.77851e-05 0)
(0.823312 5.33772e-06 0)
(0.823314 -2.32201e-06 0)
(0.720214 -1.53856e-05 0)
(0.51416 -4.05017e-06 0)
(0.205456 0.000225408 0)
(0.205449 -0.000280672 0)
(0.514151 5.69045e-06 0)
(0.72021 2.08757e-05 0)
(0.823317 5.43305e-06 0)
(0.823319 -4.0511e-06 0)
(0.720216 -1.98438e-05 0)
(0.514157 -5.14181e-06 0)
(0.205451 0.00028119 0)
(0.205442 -0.000338887 0)
(0.514147 5.83126e-06 0)
(0.720212 2.24159e-05 0)
(0.823324 2.72269e-06 0)
(0.823326 -8.29006e-06 0)
(0.720218 -2.62455e-05 0)
(0.514154 -7.2562e-06 0)
(0.205445 0.000339697 0)
(0.205436 -0.000400917 0)
(0.514146 3.21538e-06 0)
(0.720217 1.98678e-05 0)
(0.823332 -5.14506e-06 0)
(0.823332 -1.81852e-05 0)
(0.720218 -3.72328e-05 0)
(0.514147 -1.15103e-05 0)
(0.205437 0.000401382 0)
(0.205433 -0.000466889 0)
(0.514149 -2.80141e-06 0)
(0.720228 9.75754e-06 0)
(0.823343 -2.35796e-05 0)
(0.823337 -3.83798e-05 0)
(0.720213 -5.63311e-05 0)
(0.514133 -2.01094e-05 0)
(0.205424 0.000466565 0)
(0.205436 -0.000538639 0)
(0.514165 -1.68551e-05 0)
(0.72025 -1.35036e-05 0)
(0.82336 -5.84049e-05 0)
(0.823339 -7.54875e-05 0)
(0.720198 -8.92573e-05 0)
(0.514105 -3.62346e-05 0)
(0.205403 0.000535492 0)
(0.205452 -0.00061688 0)
(0.514204 -4.12424e-05 0)
(0.72029 -5.44922e-05 0)
(0.823384 -0.000115103 0)
(0.823336 -0.000134067 0)
(0.720164 -0.00014038 0)
(0.514054 -6.36419e-05 0)
(0.205366 0.000608191 0)
(0.205492 -0.000703913 0)
(0.514277 -7.89438e-05 0)
(0.720356 -0.00011088 0)
(0.823418 -0.000185774 0)
(0.823325 -0.000206124 0)
(0.720107 -0.000205766 0)
(0.513967 -0.000102738 0)
(0.205302 0.000684899 0)
(0.205567 -0.000800023 0)
(0.514389 -0.000119786 0)
(0.720443 -0.000153266 0)
(0.823456 -0.000223481 0)
(0.823308 -0.00024018 0)
(0.72003 -0.000248226 0)
(0.513841 -0.000139196 0)
(0.205202 0.000767268 0)
(0.205677 -0.000904287 0)
(0.514512 -0.000127334 0)
(0.720503 -8.37413e-05 0)
(0.82347 -7.66645e-05 0)
(0.823298 -7.1579e-05 0)
(0.719978 -0.000140038 0)
(0.513717 -0.000111508 0)
(0.205072 0.000862896 0)
(0.205785 -0.00100712 0)
(0.514515 4.37739e-06 0)
(0.720379 0.000348855 0)
(0.823364 0.000635321 0)
(0.823326 0.000727121 0)
(0.720102 0.00047256 0)
(0.513766 0.000171245 0)
(0.204988 0.000999323 0)
(0.205751 -0.00108453 0)
(0.51403 0.000507896 0)
(0.719645 0.00168764 0)
(0.822871 0.00274806 0)
(0.823442 0.00313187 0)
(0.720777 0.00245818 0)
(0.51449 0.00123685 0)
(0.205245 0.00127189 0)
(0.205214 -0.00108302 0)
(0.512208 0.00182611 0)
(0.717326 0.00494958 0)
(0.821307 0.00787297 0)
(0.823616 0.00915113 0)
(0.722763 0.00778404 0)
(0.517111 0.00445133 0)
(0.20667 0.00197446 0)
(0.203414 -0.000912206 0)
(0.507341 0.00463982 0)
(0.711405 0.0117239 0)
(0.817052 0.0186843 0)
(0.823368 0.0224619 0)
(0.727315 0.0205634 0)
(0.524412 0.0131614 0)
(0.211511 0.00390805 0)
(0.19905 -0.000463611 0)
(0.496556 0.00969803 0)
(0.698313 0.0238442 0)
(0.806799 0.0386657 0)
(0.821064 0.0488045 0)
(0.736514 0.0488666 0)
(0.544066 0.035869 0)
(0.230144 0.0122392 0)
(0.190261 0.000354077 0)
(0.475668 0.0172987 0)
(0.672095 0.0422235 0)
(0.783068 0.0704851 0)
(0.808425 0.0949704 0)
(0.743527 0.107441 0)
(0.57536 0.0977128 0)
(0.270562 0.0590659 0)
(0.175491 0.00136612 0)
(0.440937 0.0256987 0)
(0.626381 0.0628265 0)
(0.735414 0.107511 0)
(0.769189 0.152497 0)
(0.726993 0.190343 0)
(0.606818 0.211884 0)
(0.406993 0.19423 0)
(0.155634 0.00196883 0)
(0.394157 0.0311223 0)
(0.563315 0.0764904 0)
(0.665574 0.13187 0)
(0.702319 0.1891 0)
(0.674641 0.240204 0)
(0.584697 0.275594 0)
(0.438874 0.272328 0)
(0.133196 0.0022799 0)
(0.34088 0.0335415 0)
(0.491063 0.0830544 0)
(0.584991 0.144021 0)
(0.624134 0.207833 0)
(0.610786 0.266521 0)
(0.549113 0.311538 0)
(0.447346 0.326833 0)
(0.110085 0.00236117 0)
(0.285331 0.033584 0)
(0.415053 0.0839158 0)
(0.499319 0.146487 0)
(0.53927 0.212838 0)
(0.537424 0.275511 0)
(0.498234 0.327306 0)
(0.42921 0.358064 0)
(0.0876455 0.00230407 0)
(0.230666 0.0320645 0)
(0.339482 0.0808663 0)
(0.413137 0.142163 0)
(0.45217 0.208033 0)
(0.458668 0.271719 0)
(0.436437 0.327147 0)
(0.391433 0.368612 0)
(0.0666795 0.00217137 0)
(0.178932 0.029627 0)
(0.267231 0.0753511 0)
(0.329796 0.133336 0)
(0.36648 0.196383 0)
(0.378661 0.258436 0)
(0.369196 0.314254 0)
(0.342478 0.361384 0)
(0.0476201 0.00199901 0)
(0.131391 0.0266883 0)
(0.200253 0.0683382 0)
(0.251803 0.121561 0)
(0.285253 0.179926 0)
(0.301245 0.238015 0)
(0.301699 0.291186 0)
(0.289704 0.339327 0)
(0.0306864 0.00180465 0)
(0.088809 0.0234906 0)
(0.139882 0.0604297 0)
(0.181062 0.107853 0)
(0.211035 0.160076 0)
(0.229795 0.212241 0)
(0.238474 0.260159 0)
(0.239155 0.305385 0)
(0.0159793 0.00159707 0)
(0.0516451 0.0201726 0)
(0.0870263 0.0520021 0)
(0.118998 0.0928993 0)
(0.145852 0.137875 0)
(0.167077 0.182576 0)
(0.183186 0.223179 0)
(0.195521 0.262401 0)
(0.00353436 0.00138066 0)
(0.0201583 0.0168173 0)
(0.0422802 0.0433082 0)
(0.0666251 0.0772022 0)
(0.0912203 0.114152 0)
(0.115185 0.150266 0)
(0.138583 0.182051 0)
(0.162214 0.212996 0)
(-0.00665481 0.00115892 0)
(-0.00553551 0.0134812 0)
(0.00598875 0.0345334 0)
(0.0245997 0.0611556 0)
(0.0481718 0.0895938 0)
(0.0755787 0.116388 0)
(0.106565 0.138358 0)
(0.141547 0.159476 0)
(-0.0146234 0.000935026 0)
(-0.0254273 0.0102085 0)
(-0.0217055 0.0258267 0)
(-0.0067316 0.0450819 0)
(0.0173112 0.0647739 0)
(0.0491471 0.0818517 0)
(0.0883069 0.0934469 0)
(0.134939 0.103789 0)
(-0.0204324 0.000711884 0)
(-0.039602 0.00703458 0)
(-0.040828 0.0173109 0)
(-0.0272764 0.0292507 0)
(-0.00111629 0.0401703 0)
(0.0363102 0.0474151 0)
(0.0843982 0.0484263 0)
(0.143109 0.0475228 0)
(-0.0241616 0.000492206 0)
(-0.0482187 0.00398712 0)
(-0.0515503 0.00908296 0)
(-0.0371638 0.0138781 0)
(-0.00716026 0.0161714 0)
(0.0371097 0.0136895 0)
(0.0949663 0.00418604 0)
(0.166245 -0.00805603 0)
(-0.0259062 0.000278658 0)
(-0.0514931 0.00108819 0)
(-0.054151 0.00121876 0)
(-0.0366902 -0.00086809 0)
(-0.00110236 -0.00692055 0)
(0.0512933 -0.0188435 0)
(0.119778 -0.0385696 0)
(0.204092 -0.0619414 0)
(-0.0257733 7.34508e-05 0)
(-0.0496859 -0.00164569 0)
(-0.0489931 -0.00622334 0)
(-0.0262839 -0.0148576 0)
(0.0165871 -0.0288699 0)
(0.0783574 -0.0498076 0)
(0.158301 -0.0792948 0)
(0.256094 -0.113364 0)
(-0.0238788 -0.000121383 0)
(-0.0430927 -0.00420172 0)
(-0.0365089 -0.0131982 0)
(-0.00647862 -0.0279904 0)
(0.0452969 -0.0494967 0)
(0.117633 -0.0789243 0)
(0.209817 -0.117596 0)
(0.321482 -0.161776 0)
(-0.0203454 -0.000304072 0)
(-0.0320346 -0.00657088 0)
(-0.0171778 -0.0196745 0)
(0.0221208 -0.0401963 0)
(0.0843183 -0.0686757 0)
(0.168328 -0.106 0)
(0.273467 -0.153201 0)
(0.399343 -0.206797 0)
(-0.0153004 -0.00047326 0)
(-0.0168499 -0.00874775 0)
(0.00848825 -0.0256316 0)
(0.0588529 -0.0514269 0)
(0.132875 -0.0863242 0)
(0.229574 -0.130908 0)
(0.348306 -0.185933 0)
(0.488671 -0.248183 0)
(-0.00887316 -0.000627907 0)
(0.00211239 -0.0107294 0)
(0.0399519 -0.0310569 0)
(0.10303 -0.0616559 0)
(0.190153 -0.102395 0)
(0.300451 -0.153576 0)
(0.433334 -0.215691 0)
(0.588404 -0.285791 0)
(-0.00119419 -0.000767242 0)
(0.0244969 -0.0125151 0)
(0.076668 -0.0359466 0)
(0.153946 -0.0708739 0)
(0.255314 -0.11687 0)
(0.380017 -0.173974 0)
(0.527526 -0.242433 0)
(0.697458 -0.319562 0)
(0.00760647 -0.000890726 0)
(0.0499482 -0.0141061 0)
(0.11809 -0.0403037 0)
(0.210894 -0.0790843 0)
(0.327517 -0.129753 0)
(0.467322 -0.192107 0)
(0.629849 -0.266167 0)
(0.814745 -0.349503 0)
(0.0174003 -0.000998174 0)
(0.0781153 -0.0155058 0)
(0.163675 -0.0441362 0)
(0.27317 -0.0863012 0)
(0.405924 -0.141064 0)
(0.561425 -0.208005 0)
(0.739286 -0.286935 0)
(0.939193 -0.375666 0)
(0.0280615 -0.00108971 0)
(0.108654 -0.0167188 0)
(0.212891 -0.0474561 0)
(0.340082 -0.0925471 0)
(0.489717 -0.150841 0)
(0.661405 -0.221721 0)
(0.85484 -0.304809 0)
(1.06976 -0.398148 0)
(0.039468 -0.00116564 0)
(0.141227 -0.0177508 0)
(0.26522 -0.050279 0)
(0.410959 -0.0978518 0)
(0.578099 -0.159131 0)
(0.766368 -0.233326 0)
(0.97555 -0.319888 0)
(1.20544 -0.417073 0)
(0.0515014 -0.00122648 0)
(0.175513 -0.0186084 0)
(0.320161 -0.0526235 0)
(0.485155 -0.102251 0)
(0.670304 -0.165992 0)
(0.87546 -0.242904 0)
(1.1005 -0.332285 0)
(1.34527 -0.432592 0)
(0.0640485 -0.0012729 0)
(0.211199 -0.0192995 0)
(0.377235 -0.0545111 0)
(0.562049 -0.105786 0)
(0.765601 -0.17149 0)
(0.987862 -0.250551 0)
(1.2288 -0.342132 0)
(1.48835 -0.444874 0)
(0.0770014 -0.00130572 0)
(0.24799 -0.0198326 0)
(0.435987 -0.0559653 0)
(0.641055 -0.108503 0)
(0.863297 -0.175699 0)
(1.1028 -0.256371 0)
(1.35964 -0.349569 0)
(1.63382 -0.454101 0)
(0.090258 -0.00132588 0)
(0.285608 -0.0202169 0)
(0.495987 -0.0570119 0)
(0.721619 -0.110449 0)
(0.962741 -0.178695 0)
(1.21956 -0.260478 0)
(1.49224 -0.354748 0)
(1.78089 -0.460466 0)
(0.103723 -0.00133441 0)
(0.323789 -0.0204623 0)
(0.556832 -0.0576778 0)
(0.803222 -0.111677 0)
(1.06332 -0.180561 0)
(1.33746 -0.262987 0)
(1.62589 -0.357825 0)
(1.9288 -0.46417 0)
(0.117306 -0.00133238 0)
(0.362292 -0.0205791 0)
(0.618149 -0.0579913 0)
(0.885384 -0.11224 0)
(1.16448 -0.181382 0)
(1.45587 -0.26402 0)
(1.75992 -0.358958 0)
(2.07688 -0.465416 0)
(0.130927 -0.00132091 0)
(0.400891 -0.0205777 0)
(0.679593 -0.0579809 0)
(0.967662 -0.112192 0)
(1.2657 -0.181242 0)
(1.57423 -0.263697 0)
(1.89371 -0.358309 0)
(2.22451 -0.464407 0)
(0.14451 -0.0013011 0)
(0.43938 -0.0204687 0)
(0.740848 -0.0576757 0)
(1.04965 -0.111588 0)
(1.36649 -0.180227 0)
(1.692 -0.262139 0)
(2.02671 -0.356039 0)
(2.3711 -0.461348 0)
(0.157987 -0.00127404 0)
(0.477575 -0.0202628 0)
(0.801628 -0.0571045 0)
(1.13098 -0.110482 0)
(1.46644 -0.178423 0)
(1.80871 -0.259467 0)
(2.15843 -0.352304 0)
(2.51614 -0.456437 0)
(0.171296 -0.00124079 0)
(0.515308 -0.0199704 0)
(0.861677 -0.0562955 0)
(1.21133 -0.108927 0)
(1.56514 -0.175914 0)
(1.92393 -0.255799 0)
(2.28839 -0.347258 0)
(2.65916 -0.449869 0)
(0.184385 -0.00120236 0)
(0.55243 -0.0196017 0)
(0.920766 -0.0552764 0)
(1.2904 -0.106974 0)
(1.66227 -0.172778 0)
(2.03728 -0.251246 0)
(2.41621 -0.341051 0)
(2.79975 -0.441832 0)
(0.197206 -0.00115967 0)
(0.58881 -0.0191663 0)
(0.978694 -0.0540737 0)
(1.36792 -0.104674 0)
(1.75751 -0.169095 0)
(2.14843 -0.245919 0)
(2.54152 -0.333826 0)
(2.93755 -0.432506 0)
(0.209717 -0.00111363 0)
(0.624336 -0.0186737 0)
(1.03528 -0.0527127 0)
(1.44368 -0.102074 0)
(1.85061 -0.164939 0)
(2.25707 -0.239922 0)
(2.664 -0.325719 0)
(3.07224 -0.422062 0)
(0.221884 -0.00106504 0)
(0.658911 -0.0181326 0)
(1.09039 -0.0512174 0)
(1.51748 -0.0992188 0)
(1.94132 -0.160379 0)
(2.36296 -0.233353 0)
(2.7834 -0.316858 0)
(3.20353 -0.410662 0)
(0.233677 -0.00101463 0)
(0.692453 -0.0175515 0)
(1.14388 -0.0496103 0)
(1.58916 -0.0961506 0)
(2.02946 -0.155482 0)
(2.46589 -0.226305 0)
(2.89948 -0.307364 0)
(3.33118 -0.398459 0)
(0.245073 -0.000963052 0)
(0.724894 -0.0169378 0)
(1.19565 -0.0479122 0)
(1.65858 -0.0929085 0)
(2.11486 -0.150308 0)
(2.56566 -0.218863 0)
(3.01205 -0.297351 0)
(3.45501 -0.385594 0)
(0.256052 -0.000910899 0)
(0.756181 -0.0162988 0)
(1.24562 -0.0461426 0)
(1.72562 -0.0895289 0)
(2.1974 -0.144915 0)
(2.66214 -0.211108 0)
(3.12094 -0.286922 0)
(3.57486 -0.372199 0)
(0.2666 -0.000858659 0)
(0.786273 -0.0156409 0)
(1.29372 -0.0443191 0)
(1.79021 -0.0860451 0)
(2.27697 -0.139355 0)
(2.7552 -0.203113 0)
(3.22605 -0.276175 0)
(3.69058 -0.358396 0)
(0.276706 -0.000806783 0)
(0.815139 -0.0149701 0)
(1.33991 -0.0424578 0)
(1.85227 -0.0824874 0)
(2.35349 -0.133675 0)
(2.84476 -0.194945 0)
(3.32726 -0.265196 0)
(3.80208 -0.344295 0)
(0.286364 -0.000755622 0)
(0.842759 -0.0142916 0)
(1.38414 -0.0405734 0)
(1.91177 -0.0788834 0)
(2.4269 -0.127919 0)
(2.93076 -0.186665 0)
(3.42453 -0.254067 0)
(3.9093 -0.329999 0)
(0.295571 -0.0007055 0)
(0.869122 -0.0136101 0)
(1.42641 -0.0386789 0)
(1.96868 -0.0752578 0)
(2.49719 -0.122126 0)
(3.01316 -0.178327 0)
(3.51779 -0.24286 0)
(4.01219 -0.315598 0)
(0.304325 -0.00065665 0)
(0.894226 -0.01293 0)
(1.4667 -0.0367859 0)
(2.02298 -0.0716325 0)
(2.56432 -0.116329 0)
(3.09194 -0.169983 0)
(3.60703 -0.231639 0)
(4.11072 -0.301175 0)
(0.31263 -0.000609294 0)
(0.918074 -0.0122548 0)
(1.50502 -0.0349047 0)
(2.07468 -0.068027 0)
(2.62831 -0.110561 0)
(3.16711 -0.161674 0)
(3.69226 -0.220463 0)
(4.20491 -0.286805 0)
(0.32049 -0.000563572 0)
(0.940679 -0.0115879 0)
(1.54138 -0.0330443 0)
(2.12381 -0.0644586 0)
(2.68917 -0.104848 0)
(3.23868 -0.15344 0)
(3.7735 -0.209383 0)
(4.29476 -0.272551 0)
(0.327911 -0.00051962 0)
(0.962055 -0.0109319 0)
(1.57582 -0.0312124 0)
(2.17038 -0.060942 0)
(2.74694 -0.0992141 0)
(3.30668 -0.145315 0)
(3.85077 -0.198443 0)
(4.38032 -0.258472 0)
(0.334902 -0.000477506 0)
(0.982226 -0.0102894 0)
(1.60835 -0.0294158 0)
(2.21443 -0.0574902 0)
(2.80165 -0.0936797 0)
(3.37117 -0.137328 0)
(3.92413 -0.187684 0)
(4.46164 -0.244618 0)
(0.341473 -0.000437303 0)
(1.00122 -0.00966221 0)
(1.63902 -0.0276601 0)
(2.25602 -0.0541142 0)
(2.85337 -0.0882625 0)
(3.4322 -0.129505 0)
(3.99364 -0.177139 0)
(4.53878 -0.231032 0)
(0.347634 -0.000399024 0)
(1.01905 -0.00905213 0)
(1.66787 -0.0259502 0)
(2.2952 -0.0508232 0)
(2.90215 -0.0829774 0)
(3.48985 -0.121867 0)
(4.05938 -0.166837 0)
(4.61182 -0.217751 0)
(0.353397 -0.000362696 0)
(1.03577 -0.00846052 0)
(1.69495 -0.0242899 0)
(2.33202 -0.0476248 0)
(2.94807 -0.0778369 0)
(3.54418 -0.114432 0)
(4.12143 -0.156802 0)
(4.68085 -0.204808 0)
(0.358775 -0.000328294 0)
(1.0514 -0.00788844 0)
(1.72031 -0.0226825 0)
(2.36656 -0.0445254 0)
(2.99121 -0.0728512 0)
(3.5953 -0.107215 0)
(4.17988 -0.147055 0)
(4.74596 -0.192228 0)
(0.363781 -0.00029581 0)
(1.06598 -0.00733676 0)
(1.74401 -0.0211304 0)
(2.39888 -0.04153 0)
(3.03163 -0.0680285 0)
(3.64328 -0.100229 0)
(4.23483 -0.137612 0)
(4.80727 -0.180033 0)
(0.368429 -0.000265194 0)
(1.07955 -0.00680609 0)
(1.7661 -0.0196356 0)
(2.42906 -0.0386423 0)
(3.06945 -0.0633753 0)