/*--------------------------------*- C++ -*----------------------------------*\
| =========                 |                                                 |
| \\      /  F ield         | OpenFOAM: The Open Source CFD Toolbox           |
|  \\    /   O peration     | Version:  2206                                  |
|   \\  /    A nd           | Website:  www.openfoam.com                      |
|    \\/     M anipulation  |                                                 |
\*---------------------------------------------------------------------------*/
FoamFile
{
    version     2.0;
    format      ascii;
    arch        "LSB;label=32;scalar=64";
    class       volScalarField;
    location    "100";
    object      epsilon;
}
// * * * * * * * * * * * * * * * * * * * * * * * * * * * * * * * * * * * * * //

dimensions      [0 2 -3 0 0 0 0];

internalField   nonuniform List<scalar> 
184166
(
4.99767
2.90019
2.62874
5.04851
3.70849
3.57893
2.23381
3.22575
5.08995
4.49311
4.9089
2.87324
2.91651
3.6754
3.89115
4.32285
4.57602
3.90369
2.76151
4.19277
2.69567
2.7307
3.36933
4.31885
4.06111
4.02768
3.79829
4.24303
3.99442
2.81497
4.2517
2.18087
6.52177
4.57009
4.45391
2.97865
2.79232
4.25765
3.2744
2.4565
4.03492
2.94953
4.01487
4.34699
4.46835
3.94547
2.3598
3.96163
4.0731
3.97166
2.24561
2.17594
2.38864
4.0338
4.3477
3.60615
4.12106
4.37245
4.92221
3.31298
2.76796
3.32437
4.65256
4.82294
5.59522
2.12896
2.50151
4.35289
2.19155
4.34321
2.60816
4.44173
4.38349
4.49051
2.96561
3.92401
3.4068
4.44364
3.08557
2.29825
2.26653
2.9058
4.4889
4.64649
4.18087
5.05311
3.09845
2.62103
3.66443
2.76423
2.1259
3.67774
4.25289
5.85744
3.63277
2.85342
4.37707
2.17307
2.66573
4.29297
2.86042
2.82763
4.30587
4.04288
2.12418
3.3573
4.28851
3.61346
2.15891
2.87838
2.45185
4.52566
2.11053
2.59486
4.19619
3.91435
3.28042
2.60168
2.2255
2.62012
4.58571
2.82971
4.05581
3.92224
3.86182
3.65243
4.09797
4.00207
4.34459
4.2117
2.73095
3.97688
3.54886
3.63133
2.968
2.91994
2.92554
3.50023
3.70051
2.49641
3.45813
2.23354
2.25637
2.82433
3.38943
4.23824
2.63562
3.95583
4.77487
5.766
4.51748
5.01561
4.24788
4.44853
4.57473
5.4785
4.20425
4.79797
5.07438
2.42274
2.15028
2.32788
3.82863
3.13193
3.14514
4.08179
4.09601
4.22032
2.15306
4.14633
4.05508
3.1956
3.27794
4.79931
3.95464
2.29645
2.46889
5.01029
4.39267
3.55194
2.14379
3.95068
3.63461
4.02608
4.39928
3.14117
4.09925
5.15077
2.16945
4.28767
3.78727
4.36838
3.43049
2.15456
5.29992
4.24955
3.91123
4.89109
4.98805
4.03563
4.38802
3.99848
2.16863
3.85041
2.33618
4.43095
2.93943
2.80221
3.23341
3.89257
5.7158
4.03461
3.01512
3.99625
2.77851
3.32942
4.09198
3.94878
2.19442
2.1715
2.8079
3.15333
3.37964
3.99162
2.26829
2.84576
2.85913
4.31535
4.02071
5.33503
5.76382
2.59278
3.37304
4.18603
4.43803
3.49575
4.5977
4.48351
4.24834
2.16868
2.11098
4.33345
2.81328
4.24047
2.38958
3.87118
3.94578
2.92264
4.82448
4.67968
3.65012
5.50411
4.3435
2.81994
3.58409
4.46078
3.68297
3.99114
4.06071
3.47464
3.67871
2.53791
4.29187
3.02873
4.29919
3.96206
4.19902
2.593
4.07375
3.73413
3.95311
2.26698
3.5037
4.27135
2.84873
3.71995
2.12565
3.56302
3.1322
3.55221
2.74316
7.24635
3.55554
4.03461
2.48796
2.90684
5.77622
4.981
3.77724
4.49795
4.04123
3.80248
3.96203
4.44359
5.16525
4.00913
3.59317
5.47399
4.05854
4.97925
3.93892
3.43672
2.25902
4.01465
5.47749
3.49152
3.86759
4.56766
2.48735
2.10833
3.98823
4.42592
4.19285
4.26822
4.54972
3.59743
3.53911
3.91973
3.75667
3.84527
2.77146
2.93824
3.24807
4.21159
3.8858
2.11009
4.00586
3.51644
2.70805
3.96971
4.38999
2.43938
2.3889
4.22081
2.21704
4.03496
3.5815
3.24284
4.20772
3.39211
3.75974
5.55412
5.72771
4.74159
4.3208
4.60592
2.57008
2.19549
3.13684
2.2492
2.24821
4.05313
4.84708
2.53498
2.77916
4.3291
4.21268
3.4874
4.2568
4.38294
3.14178
2.14405
4.25724
2.61858
4.19619
4.16455
2.12797
2.66774
2.60436
2.09923
2.13897
5.15941
5.93842
4.5405
4.83217
4.68262
4.30018
3.94213
2.76693
3.67719
3.80291
3.84954
4.12442
4.20094
3.74381
4.48512
4.36078
3.04774
3.21163
3.26255
3.67589
3.99958
4.04293
2.15043
3.34384
2.13107
4.654
3.43109
3.12733
3.82066
4.81925
3.7577
5.63268
4.40792
2.39956
3.70272
4.34487
4.31066
3.71584
2.78681
3.70377
3.14291
3.18268
2.99374
2.98277
2.8519
4.15966
2.49381
2.43856
2.3543
5.97991
3.44177
3.45608
3.45839
3.31323
2.13269
2.17631
2.20329
2.6896
2.63588
2.70105
2.25135
6.35092
5.35571
5.96035
5.86569
5.13756
5.70798
4.10439
4.08351
4.18573
4.1755
4.62516
4.43658
4.53452
4.31644
5.61578
5.99431
3.99591
4.10136
3.87665
3.88161
3.92682
4.02549
3.71645
4.06422
3.92807
3.90146
3.95442
4.72704
4.49798
2.22639
2.16654
2.16071
2.14642
2.29813
2.10362
2.21378
4.0977
4.241
4.28596
4.41236
4.83479
4.38678
3.42401
3.03936
3.28764
5.22632
4.33885
4.026
4.19342
4.03348
2.13855
2.09183
2.90841
2.97385
2.90197
2.8123
2.76894
2.80737
3.87506
3.75864
3.60659
3.71707
3.57405
4.54916
4.37897
4.36487
4.46942
4.63695
4.49924
4.48447
4.55925
4.11807
4.13549
4.04724
4.51494
4.13365
2.73929
4.28502
4.81158
2.09564
2.14713
2.10145
4.25134
4.64964
4.45661
4.13868
4.28264
4.19114
4.32248
4.42095
4.74975
3.90244
4.02833
4.10128
4.08772
4.55526
4.59717
4.97227
4.86536
6.2222
5.41651
6.27198
5.01745
4.63722
4.75657
4.66997
5.68806
6.763
6.3328
5.31644
5.81498
4.29127
4.18794
4.24797
4.10208
2.30119
3.42946
3.18238
3.01018
3.38694
3.17049
3.34626
3.36256
3.05739
3.23054
2.89366
2.71023
4.51959
4.40233
4.54043
4.48811
4.3375
4.43078
4.39566
4.39593
4.13881
3.91984
3.56637
3.50525
3.58592
3.70239
4.24683
6.79959
2.23804
2.45768
2.15327
2.14393
2.15542
2.14529
4.54289
4.5695
4.74084
4.74079
4.9455
4.84996
4.56819
4.96107
4.15344
4.21965
4.39515
4.71747
4.53033
2.11322
3.60454
3.43172
3.38986
4.71774
4.41985
4.39072
4.36766
4.77976
4.43581
4.44895
4.41289
4.85089
4.54305
4.95926
2.7867
3.0226
3.62442
3.18495
4.40329
4.49781
4.49172
4.43605
4.73112
4.4865
4.71242
4.5847
3.7266
4.04884
3.89187
4.05242
4.32152
4.4513
4.50892
3.77702
3.6567
3.63245
3.60795
3.5583
4.69522
4.69357
4.0473
4.0449
4.28062
5.56717
4.50479
3.33036
4.19833
4.57472
5.43345
4.54223
4.41968
4.6312
5.49361
4.66161
4.53415
2.22775
2.42829
4.17525
4.93566
5.38771
4.82736
3.5994
5.37103
4.8343
5.21371
5.13132
4.74549
5.09397
2.12851
4.83278
4.98095
4.84062
4.85141
3.07845
5.24686
5.61839
4.97156
6.43387
5.46927
6.29784
2.35896
2.1027
2.11633
2.25526
2.25939
2.11777
3.43427
2.54771
2.73862
5.93719
5.07694
5.48141
3.20931
2.99854
3.20512
3.08379
2.99907
3.09331
4.34756
5.08659
4.34485
4.21885
5.05056
5.73837
3.23846
3.19703
4.48692
3.91681
3.5559
3.61126
2.57295
3.46387
4.19135
4.17344
3.46344
3.55912
3.48048
3.00425
2.89416
3.00302
2.89742
3.01197
3.64431
4.22387
4.12314
4.15363
3.62884
3.88203
3.54598
3.60635
3.71927
3.13328
3.38262
3.50352
4.02654
4.19305
4.29318
4.25326
3.45945
3.50051
2.82993
2.98717
3.02698
4.47012
3.95776
4.45643
4.63372
2.91961
3.69391
2.16658
2.15984
2.1525
4.17698
2.99877
3.19455
2.89967
4.28754
3.69564
3.92818
3.73472
3.49583
3.54101
3.55982
3.52799
3.94293
3.45788
3.98717
3.61441
2.84542
2.77358
2.84983
2.80523
2.77167
2.78751
2.74237
2.72483
2.7076
3.55296
3.21143
2.80862
2.83772
2.76936
3.78004
3.61061
3.79013
3.71707
4.07395
4.16904
4.11731
4.63542
3.71206
3.67165
3.48263
2.7079
2.82263
2.15222
2.15834
2.16653
2.15845
3.34366
2.87473
2.86793
2.84758
2.96994
3.01549
3.78938
3.88277
4.27918
4.03735
4.13335
4.32998
3.54887
3.58838
3.70398
2.84908
2.7664
2.75057
2.75729
2.75275
2.14705
2.17522
4.39622
4.28594
2.17183
2.21133
2.16075
2.15789
4.3194
2.26722
2.57412
2.28722
2.3991
2.87469
3.02178
3.03389
2.91653
5.29096
3.85373
3.93591
3.77579
3.65576
3.8114
3.97404
4.2439
3.24237
3.09157
3.42371
3.1558
3.21942
2.77197
5.60934
6.03123
6.38566
6.09853
5.03948
4.98888
3.78277
3.41667
3.51411
3.7875
2.08226
2.04086
5.18638
4.0011
3.38834
3.85413
3.41564
3.7243
2.06109
2.04262
5.75871
5.87383
4.48514
4.61142
4.59529
2.59671
4.03168
2.98322
3.78736
2.17417
2.18764
4.21305
4.31664
4.06739
4.20142
4.09887
4.12746
2.18814
2.38822
2.91062
2.78628
3.94885
4.45768
3.83771
4.1107
2.31367
2.31265
4.48502
4.37212
3.85924
3.90995
3.88512
3.71713
3.82803
3.90702
4.34077
4.21533
4.28403
2.52645
3.03775
2.68552
3.57254
3.58604
3.87111
3.74721
5.09185
4.66955
4.2834
4.39441
4.66581
4.69176
4.49985
4.49675
4.40672
4.58906
4.41782
4.25301
4.3196
4.29699
4.90039
3.83575
3.60902
3.18317
3.2801
3.02418
2.86218
2.84444
2.90552
2.79324
2.88449
3.43897
4.63644
4.11664
3.95678
4.00557
3.71777
4.6553
4.6516
4.15905
3.72166
3.95649
3.16786
3.94721
4.00973
3.92956
3.90857
2.3864
2.31269
2.45067
2.39519
2.31111
3.94274
4.13604
4.05749
6.06798
6.14391
4.34272
4.43564
4.94007
4.92909
4.70135
5.97932
4.88212
4.21072
4.18164
3.16354
3.28297
2.99794
3.69949
3.51474
3.7501
3.86562
3.89003
4.45193
4.30926
4.20552
4.24983
4.40715
5.19774
5.6586
5.01345
7.0922
3.69913
3.60569
3.51996
3.02371
3.21894
3.2339
3.34776
3.00456
4.07013
4.1047
4.1764
4.11836
2.44707
2.60576
2.44351
2.37005
3.34424
3.27993
4.69009
5.21249
4.49134
4.29254
6.445
5.98227
4.29734
4.09734
4.39678
4.49578
2.25701
2.15519
2.13442
2.07543
3.99975
4.06943
3.98932
3.98893
3.6115
3.58415
3.63492
5.03304
4.94656
4.91087
4.79736
4.79117
4.90149
3.17869
2.89289
3.05171
2.75101
3.27188
3.42842
3.4312
3.47509
4.88553
4.65429
4.74308
4.34619
4.66136
3.65451
3.48533
4.5267
3.85376
3.29506
3.41984
2.9868
3.03333
3.33886
4.06766
4.03677
6.64976
4.39544
4.46048
4.5982
4.52694
2.22429
2.09042
2.09364
2.75599
2.73874
3.36037
3.28643
3.36794
3.32907
3.57164
3.44992
2.53151
2.21049
2.92276
3.4312
3.59108
4.24413
4.22896
4.98142
4.2816
4.30644
2.16701
2.17645
2.17503
6.52202
6.51387
5.23512
5.20855
2.14338
2.11841
3.85362
3.91541
3.50657
2.81541
2.89405
6.44487
5.74519
4.27443
4.46669
4.2372
2.1568
2.16069
2.15831
2.13889
2.1474
3.59219
4.5512
3.8515
3.7694
3.5953
3.62978
5.60859
3.80694
3.80824
4.04899
3.91769
3.15522
4.24141
4.23837
4.03679
4.06548
2.65416
2.68972
2.65389
2.64572
5.59404
5.26244
4.40857
4.56738
4.34631
4.43584
3.35393
3.32564
3.22234
4.04254
4.15421
3.73532
2.89164
2.36734
2.41162
2.63804
2.32584
3.06371
2.54072
2.39422
2.78163
5.97952
6.19091
5.12439
3.50522
3.8079
3.47033
3.62739
4.00838
4.08494
4.01255
2.17451
2.15668
2.16985
2.18823
4.20508
3.7825
2.50556
2.30551
2.27299
2.03411
2.03257
3.14083
3.29542
3.31044
3.08657
3.17736
4.50243
2.82212
2.54845
2.14774
2.1194
2.14793
2.11048
2.12261
3.0905
2.99949
3.61621
3.59072
3.80185
3.67798
4.00554
4.07517
3.71249
3.82539
3.61694
2.19891
2.33345
2.95604
3.10109
2.47546
2.46938
2.46386
4.1944
4.03631
4.08017
4.43814
4.80685
4.56943
4.45736
4.69308
4.82947
2.18298
2.3987
2.24117
2.51912
2.4735
2.76023
2.79552
2.30176
2.30395
3.85506
4.11485
4.06444
4.24792
2.18781
2.1552
2.18948
2.21722
3.78927
3.82906
3.53919
3.73036
3.15168
3.58984
3.21439
3.47797
6.03411
6.10859
4.1558
3.85129
2.64266
3.38129
3.17235
3.21969
3.05418
2.29567
2.77419
2.63925
3.23959
2.88531
3.01071
2.71818
3.82282
3.79671
3.44247
3.64604
3.60418
3.68342
2.4519
2.55383
3.65882
3.9197
3.58508
3.81938
3.5771
3.81652
3.46906
3.71158
3.97341
3.67177
3.64915
3.45439
4.7121
4.64352
4.89555
4.72897
4.4152
4.52062
3.25871
3.39133
2.17405
2.19122
2.17624
2.19672
2.188
2.16277
2.17463
2.14412
2.69963
2.68268
2.74212
2.81034
2.80399
3.92974
4.09359
4.10217
3.90719
3.9894
4.38227
4.40374
4.66013
4.43515
2.93886
2.90408
2.15126
2.14493
2.1452
2.15092
2.1465
6.2751
5.68833
3.38044
3.42595
3.48413
5.44973
4.87713
6.06136
4.60799
4.50452
3.4185
4.23765
4.33416
4.83828
4.48177
4.22754
4.52727
4.57522
4.33762
4.23781
4.47978
4.31881
4.33689
4.25928
4.42694
4.39193
3.57212
3.41753
3.18208
4.20306
4.19335
4.33669
4.54338
6.13098
2.04439
3.74877
3.85888
3.8944
3.81307
3.96037
4.05194
4.05576
4.13344
4.17711
2.06327
2.02859
2.05111
2.13481
2.15354
2.1526
2.13754
6.39882
5.40488
5.47642
4.57739
4.25533
3.99562
3.00596
5.184
5.169
2.49498
2.84802
2.52056
2.89072
2.89485
3.08131
3.08871
2.88743
3.11079
3.61254
3.58964
5.06882
2.17908
4.03859
3.56965
3.24
2.39258
2.39571
2.40957
3.21477
3.27431
3.10462
3.2058
3.03286
3.74446
3.59252
2.79176
2.74449
2.6942
2.69378
2.795
2.69509
4.40077
4.67024
4.66922
3.57016
3.69967
3.90894
3.45198
3.29591
4.52389
4.12768
4.20695
3.75122
2.03442
2.01507
4.94947
5.98994
3.68676
3.76679
3.77751
4.05947
3.74624
3.88707
2.14609
2.17902
2.17009
2.17682
2.15802
6.11055
5.58431
2.02072
3.7326
2.69905
2.74251
3.36201
2.86812
3.35929
3.08273
2.8062
5.11617
4.40809
4.86033
6.34918
7.01553
5.37177
3.35747
3.34101
2.15695
2.16012
2.1634
2.16761
2.16977
2.17422
4.07019
2.28932
2.14306
2.01664
2.09252
2.04689
4.31745
4.29413
3.90268
3.53025
3.08162
2.7921
3.06405
2.61434
2.27209
2.71589
2.56101
4.18596
4.12767
4.30365
4.23962
4.15244
4.04707
3.92483
2.17341
2.24982
3.75666
3.7466
3.58792
3.68002
3.36356
3.8243
3.79436
3.84012
3.36118
3.53136
2.87356
3.14218
3.15769
2.83624
2.98309
3.20028
3.01015
3.05345
2.98166
3.15263
3.23536
4.19685
4.15495
4.14603
4.22173
4.16592
2.42289
2.35194
2.84395
2.56063
2.96624
2.71216
4.08951
4.20979
4.21098
4.27196
2.9506
3.1688
3.05036
3.25391
3.06902
2.83782
2.9645
2.17412
2.17617
6.50175
6.99316
3.89871
3.83156
3.86276
3.64028
2.11577
2.07942
2.02048
2.11709
2.07667
4.30727
4.297
3.83333
3.7633
3.71768
3.43987
3.53554
3.28936
2.62962
2.70047
2.59432
2.62221
2.14795
2.14393
2.1454
2.14132
3.53363
3.92307
3.93952
3.86006
3.32
3.41081
3.18009
4.8238
5.29353
6.36129
4.93063
5.87463
6.07825
2.24919
2.50007
2.1885
2.28125
3.8303
3.87917
3.92393
3.89011
3.78834
2.17127
2.16417
2.16815
7.12594
7.01559
3.51139
3.34915
3.26204
2.44259
2.81496
2.87048
2.48027
4.50313
4.56027
4.55063
4.66268
4.60338
4.59302
3.70042
3.80963
3.86315
3.66136
6.40889
7.2254
2.80851
3.00177
2.50796
6.80594
3.96703
3.85529
3.45261
2.77851
6.27523
3.9052
3.96984
2.0422
2.50053
2.3956
2.4479
2.48724
2.40204
2.40724
2.14523
2.12852
2.29972
2.18662
2.4962
2.57585
2.49406
2.53106
2.49693
2.57941
2.49268
2.54358
3.11822
2.89319
3.73023
6.41721
7.12106
3.26641
2.15854
2.13582
2.14774
2.14233
4.85209
4.138
4.15278
6.02491
5.20048
3.53019
2.81761
4.3789
4.29089
4.60632
2.5324
2.51402
2.29232
2.27331
3.43996
3.56614
3.95317
3.98511
4.08044
4.48933
3.83964
3.87007
5.59346
5.44558
6.23984
3.28007
3.77783
3.70852
3.17259
3.50006
4.594
4.47261
4.38489
4.9924
6.04905
2.08309
2.00904
3.82407
3.93079
4.01155
4.01104
3.83191
3.89188
3.82844
3.91598
3.78592
3.81866
3.91835
3.94506
3.8236
3.92844
3.85137
3.91376
4.53208
4.43052
4.53489
4.49054
1.9879
1.96021
2.05162
2.10642
3.58637
3.57006
4.60726
4.71142
4.51408
3.46082
3.47543
3.49029
4.37821
4.22396
4.27174
4.29595
4.39549
3.37226
3.59215
3.11466
3.20201
3.0399
3.0428
2.70833
2.70086
2.71611
2.90226
3.45746
3.62331
3.94952
3.94083
7.07323
7.1191
2.17333
2.1675
4.17818
4.18914
2.81411
2.73772
2.72683
2.66536
2.73464
2.7405
2.33633
2.24662
2.35517
2.16455
2.18711
2.30147
2.14374
3.51692
3.415
3.46027
3.31786
3.68921
3.64587
3.51674
3.60623
3.52108
3.55916
4.42581
4.49267
4.57007
4.44625
4.57342
3.90768
4.0287
3.1468
2.96099
2.9668
3.33191
3.72285
3.7825
3.79214
3.27423
3.12976
2.02236
1.95444
2.65719
2.79274
3.30482
2.16342
2.10935
2.11399
2.28129
2.19772
4.14988
4.20264
4.16159
4.03321
4.10769
4.27014
4.55193
2.20541
2.29263
2.21499
2.22843
2.34206
2.1181
2.39897
2.57685
2.65574
2.43834
2.14098
2.13364
2.05374
4.9148
4.85907
4.90213
4.60949
4.99271
3.60816
3.46437
2.90851
3.70909
3.76243
3.65117
3.63786
2.38339
2.85498
2.56818
2.60979
2.39894
2.40568
2.25513
2.59574
2.52865
2.21962
2.25726
6.96313
6.47142
4.51222
4.52263
4.45257
3.70782
2.94917
3.40593
5.54017
6.71398
5.87561
4.0785
3.96409
4.02691
2.96103
2.79715
2.34534
2.27285
2.73111
2.34241
3.51527
3.6446
3.47929
3.73393
3.35421
3.39593
3.26325
3.12364
3.116
2.36388
2.23663
2.3033
3.09349
3.98771
3.10809
3.55612
4.06624
3.9047
3.5107
3.91018
3.59551
4.70267
5.47474
4.30676
3.31125
3.38476
3.5539
3.62461
2.11547
2.15581
2.21092
2.20404
4.04929
3.93806
2.11823
2.11844
4.20826
3.77344
3.99667
6.0939
1.96426
1.98549
2.04704
2.22404
2.11563
2.12942
2.88539
2.74512
3.79739
3.77418
3.64504
3.59257
2.63765
2.7285
3.09371
1.99108
2.89317
2.78348
2.66424
2.85531
2.70283
2.66166
2.9133
2.79462
2.88827
2.71203
2.7938
2.79239
3.07617
4.36996
4.28863
2.163
2.22529
2.10218
3.78219
3.70786
3.73548
3.53395
3.49569
3.43477
5.6659
4.76949
3.53539
3.79327
3.64295
4.11066
3.11105
3.40703
3.3059
3.21096
3.36131
2.7452
2.73921
2.7581
2.7816
2.77659
3.37747
3.22647
3.19661
3.37501
3.30231
3.35461
3.27689
3.39837
3.38158
3.3843
3.34406
3.83801
3.76741
3.87227
3.83112
3.77131
4.58398
4.42833
4.47484
4.4922
4.52475
3.12007
3.24637
3.10358
3.29434
3.23303
4.53029
4.31562
2.05343
2.51458
2.66731
2.75551
3.55426
3.4071
2.38064
2.27611
2.28037
5.7048
5.09333
5.95017
7.17464
4.41219
4.28459
5.0065
5.0487
4.50819
4.88126
4.95044
4.7284
2.97416
3.16319
4.03258
4.00845
4.01001
4.05581
2.84975
2.66129
2.40066
3.16508
2.29522
2.68927
2.77076
2.49146
5.05712
5.9821
5.4153
7.91308
2.37141
2.59147
2.66466
3.18336
3.21555
2.90148
2.87069
3.49606
3.43996
11.572
5.77205
5.12711
4.40726
4.47025
3.26418
3.55519
3.10063
2.71929
3.60991
3.69078
3.65823
3.69475
4.08188
4.11542
4.03104
4.0213
4.04267
4.16365
4.09971
4.03476
4.10498
2.7906
2.71
3.51132
2.34188
2.33992
2.7137
2.60536
3.54553
3.37118
3.49452
3.56444
3.41291
3.29634
3.56061
3.65286
3.76186
3.50852
3.8626
4.56703
6.1791
7.35622
3.25209
3.26137
3.44451
3.35437
3.44788
3.38811
4.20492
4.16177
4.09104
4.0767
4.13269
4.08317
5.89608
4.81333
6.96946
5.95454
4.40179
4.20032
4.10428
4.14752
4.09749
4.44285
4.5957
3.5812
3.64805
3.63752
2.82153
2.2986
3.38433
3.49489
3.71338
3.72483
3.62374
3.5569
3.60227
2.78263
2.70147
2.71809
2.83424
2.79791
3.21643
3.08732
3.10613
3.28337
3.22215
2.18737
2.16085
2.1958
2.21952
2.16307
2.15772
2.55171
2.1826
2.19295
2.28142
2.28309
2.21714
8.78827
3.84358
3.85592
3.91953
3.90997
3.92309
1.96219
4.15435
4.2074
4.22722
4.16055
4.17885
3.36964
3.46905
3.43634
3.45466
3.40059
3.32101
3.10745
3.47675
3.28512
3.31396
2.64598
2.89345
3.42514
3.187
2.10031
2.11533
2.18884
2.26639
2.11552
2.16587
2.73625
2.63485
2.52603
2.37563
2.4492
2.34544
4.1365
4.04284
2.09301
2.03091
2.03974
2.13497
2.14594
4.66848
4.47139
4.5774
4.49994
4.43839
4.1636
4.44953
4.30099
4.3047
4.43304
4.55877
4.48886
3.685
3.62179
3.58555
3.25561
3.35374
3.37655
2.25452
2.19881
6.32815
6.81927
7.84586
4.34717
4.58118
1.9963
1.95991
2.70973
2.48929
2.39498
2.69233
2.26979
2.27533
3.73106
3.7041
3.75607
3.80165
3.79946
3.41262
3.46897
3.81355
3.70165
3.72322
3.90803
3.83351
5.39678
4.70644
4.29225
4.41987
5.08114
8.91748
12.8368
2.70997
2.66685
2.56746
2.59272
2.52932
4.19796
4.98187
4.38503
6.59455
7.50726
7.72825
2.61557
2.74042
2.76362
2.92789
2.88764
2.77383
2.70378
2.79504
2.98693
2.87094
2.7539
2.74552
2.78347
2.73207
2.72216
2.77825
2.74426
3.31645
3.33328
3.3221
3.28583
3.29681
3.29949
3.30833
3.27935
3.45271
3.61478
3.86534
4.28638
5.26953
5.88974
5.08707
4.14294
4.36009
3.6796
3.70094
3.88651
3.81239
3.46402
3.54859
3.39401
3.15709
3.13047
3.10174
3.29553
3.39882
3.34858
4.20414
4.27985
4.24203
4.32311
4.22727
4.25969
4.02225
4.11734
3.8285
4.03133
3.78033
4.39387
4.24041
4.68757
4.71188
4.33669
2.12674
2.10507
2.06713
3.71933
3.67433
3.84885
3.857
3.89715
4.13146
3.71668
3.72295
2.06368
2.10879
4.06479
3.9962
3.97227
3.97112
2.02253
2.06295
1.96434
3.51908
3.57389
4.00189
4.04304
4.06207
6.74103
6.21381
4.00096
4.07505
4.06634
4.06169
4.01827
2.45091
2.24661
2.76947
2.42211
2.53488
2.99273
2.67322
3.2365
3.12609
3.22814
3.60074
3.31744
4.09978
5.24387
6.36609
2.26741
2.29351
2.21226
2.48519
2.50259
2.73778
2.73621
3.0521
2.78733
2.74061
2.77838
2.74196
2.72788
6.99246
7.85315
9.90033
4.47091
4.60955
6.10245
3.30422
3.28947
3.24853
3.21678
3.31698
3.33561
2.13627
2.14458
2.15351
2.13857
2.14057
2.14177
3.06656
2.81908
2.90904
3.10925
2.62615
2.57318
3.52057
3.51045
3.40345
3.43759
3.42992
3.47981
5.57613
6.66555
5.99846
3.72364
3.54689
2.8629
2.11037
2.15611
2.1091
2.12971
2.1311
2.16094
3.52559
3.48482
3.88846
4.15059
4.17844
3.61728
3.58654
2.18098
2.2085
2.34156
2.26938
2.41373
2.44848
2.27277
2.66823
3.22163
2.88671
2.4735
2.21214
2.19205
2.42566
2.26762
1.97285
1.98414
2.84555
2.79924
2.62061
2.57658
2.52682
3.72276
3.80076
3.75117
3.81844
3.9173
4.02054
4.07514
4.08659
4.3152
4.00385
4.09247
4.31901
4.47418
4.52036
4.39525
4.51351
3.6219
3.55324
3.23834
3.31065
3.52882
3.31941
2.76603
2.76801
3.36384
3.36794
3.4494
3.40523
4.15995
4.14522
4.18793
4.33086
4.18964
2.59754
2.68678
2.49508
2.48491
2.54739
2.64841
3.90083
3.699
3.8286
3.72277
3.43753
3.5947
3.55342
3.46403
3.91885
4.05339
2.90125
3.0967
3.15441
2.50137
2.42875
2.66606
2.74574
2.66595
3.33953
3.22963
2.73707
3.2115
2.65231
2.84434
2.98755
4.17377
4.14052
4.12495
4.03662
4.19224
4.26371
2.7134
2.39624
2.55556
4.16309
3.74342
3.93372
4.14744
4.2906
4.25086
4.24607
4.17521
4.64437
4.62062
4.54238
4.63244
4.53845
4.52397
4.41228
4.34689
4.30573
4.40552
2.39541
2.22226
2.14059
2.20639
2.14796
3.46143
3.60025
3.68317
4.39742
4.38154
4.32058
2.90771
2.94123
3.94757
3.76166
3.69466
3.86463
4.01783
2.03504
2.04929
2.12044
2.06832
2.12474
2.15239
2.1468
3.03636
3.09841
3.20258
3.12458
3.20428
4.07696
4.08881
4.57355
4.4661
4.4318
4.62098
4.62679
6.4506
3.51934
3.45074
3.40715
3.49474
3.35137
3.34207
3.00814
2.9546
3.29343
3.16834
4.19477
4.4373
4.57566
4.95101
3.40471
3.43148
3.39318
3.49922
3.36578
3.61797
3.56585
3.54566
3.44735
2.97362
2.85389
2.9602
2.97398
3.17202
2.86539
2.80036
2.71442
3.30844
3.22616
3.14438
3.38317
3.20073
4.54898
4.80469
5.54857
5.24338
4.6626
7.05818
8.20981
3.10517
3.19308
3.08694
4.37217
4.4018
4.36061
2.90034
2.71185
3.01959
3.23855
2.88565
2.74474
2.84694
2.60333
2.64489
2.59054
2.53518
2.63684
2.53253
2.61592
2.55999
2.61399
2.55969
2.60735
2.64401
3.16094
3.35162
3.19271
3.29856
3.32783
3.23459
4.42468
4.44469
4.39063
4.40159
4.40795
4.37896
4.37275
8.06813
9.52813
4.76704
5.22717
5.92426
4.77171
5.54678
2.61106
2.53288
2.58669
2.5197
2.56345
2.70574
2.75596
2.88449
2.7497
2.9482
2.9049
3.17005
3.15354
3.3721
3.37538
3.6454
3.43005
3.59239
3.59864
3.45732
3.54611
3.65396
3.60884
2.75396
2.80398
2.62521
2.60128
2.53859
2.52152
2.56733
3.22934
3.03007
3.16848
2.65603
2.62993
2.71852
2.87356
2.84263
2.76312
2.75281
2.83203
2.63457
2.57851
2.61931
5.17348
4.20907
5.06216
4.43523
7.46184
8.04196
3.1121
3.03495
2.94182
3.10118
3.00232
3.39891
3.25968
3.42415
3.27677
3.3675
3.50158
3.43767
3.50141
3.44105
3.3857
3.39861
3.67117
3.30642
3.52003
3.34178
3.2491
5.14802
5.62968
3.38767
3.39394
2.29773
2.26001
2.20371
2.19152
3.78259
3.80973
2.77916
2.84832
3.43886
3.11832
3.00939
3.43559
5.15486
4.83579
3.90607
3.96612
4.61759
4.50161
4.56789
4.49313
4.48529
4.41959
4.3665
4.44867
4.43228
4.43086
3.82118
3.68622
3.60318
4.47297
4.93869
7.6734
7.99605
3.74322
3.65201
3.78694
2.44672
2.13034
2.22169
2.23365
2.08821
2.11331
5.90591
5.11184
4.27437
6.22141
4.09735
4.993
2.44355
2.36716
2.67942
3.47041
3.62378
3.49112
3.57251
3.6025
3.54423
3.9229
3.73918
3.84542
2.79222
2.9573
3.27788
3.48426
3.45161
3.23283
3.33501
3.57075
3.60533
3.41339
3.38466
3.49471
3.03963
2.96461
3.14996
4.66135
4.20901
4.60603
4.02884
3.90756
2.19725
2.10122
2.11293
2.10907
2.16005
2.18182
2.18485
2.10595
2.03431
2.13531
2.09725
2.1295
4.2723
4.36845
4.26964
4.56821
3.77412
3.81224
3.53046
2.55984
2.55375
2.59706
2.98984
3.0519
3.17725
4.44608
4.61796
4.54892
4.43435
4.39987
4.39518
4.2976
5.13469
4.76343
2.08735
6.85544
5.52706
6.64099
2.19801
2.12544
2.36793
2.30408
2.2473
4.33038
4.44672
3.73585
3.86424
3.70663
2.16395
2.17128
2.69039
2.3029
2.2232
2.18928
4.06912
3.98466
4.02
4.01191
2.37118
2.37107
3.16315
3.07714
3.0156
3.65461
3.38166
3.31601
4.13406
3.92617
3.02877
2.92795
3.18917
3.08518
4.37253
4.22923
4.32942
6.31619
9.69184
15.118
8.21843
8.19289
2.8573
3.81647
1.665
2.80958
2.78013
9.79248
15.2829
3.83782
15.361
3.19876
13.5895
12.1542
9.04162
9.4781
12.1542
9.22228
9.57547
10.045
11.5794
15.0111
8.00186
7.29818
8.42388
7.78184
9.02681
9.95491
13.4082
11.2209
2.0038
9.28582
10.7945
7.67448
9.24436
11.7828
10.5611
11.2808
11.6185
8.9146
9.52714
1.66925
1.74833
7.47247
10.7705
7.42897
1.95699
10.8477
7.14044
11.0139
13.2314
12.2252
5.40585
10.4107
10.3008
11.4578
9.2835
8.34111
9.46193
9.67419
11.0206
9.82378
4.1219
3.93792
1.87743
1.77876
2.12102
8.62261
9.78212
7.19361
12.8826
9.58895
9.42917
10.5038
4.86492
6.65538
3.60574
3.69228
2.76759
2.77917
8.39069
7.37896
8.35476
7.45037
5.26293
7.96957
5.33046
15.2456
10.5515
13.0252
12.2039
9.64403
9.78182
10.6808
9.17302
9.81445
8.65696
11.0125
11.2409
9.8868
9.34074
10.0693
10.3499
9.92795
8.54364
4.43605
5.03236
8.12014
8.63793
7.66396
3.18873
5.48231
8.20931
5.20859
3.09684
2.75183
3.01675
1.65545
1.91457
1.61583
11.5078
10.8272
12.5728
11.5241
9.43247
10.6642
10.3877
2.9197
17.4203
13.1233
7.61361
7.32366
7.00585
7.92059
8.01676
8.17335
7.29131
7.65373
7.54734
3.00133
3.09302
8.56793
8.28987
7.30606
11.0828
8.81657
11.0847
12.0332
11.8314
1.60039
1.85876
9.46291
9.95236
8.64976
9.02968
5.46006
1.50722
2.19363
2.92099
2.80768
2.85425
5.26292
8.04769
4.8978
1.62934
2.01048
2.31352
2.43878
1.72693
2.12914
8.17083
8.87566
10.225
8.79705
11.1832
8.65488
10.1696
10.7672
11.9381
13.5552
5.4237
1.59814
1.845
1.58867
1.87589
9.4156
8.5727
8.77369
11.1246
9.12623
17.2852
13.3933
14.3636
10.8601
1.56581
1.72392
2.01881
1.92836
2.23182
2.48761
2.01139
2.27429
11.9124
9.89965
1.9735
2.02629
1.60653
1.91008
12.5418
10.6291
2.29285
10.7098
7.97655
8.93544
10.9003
1.87401
1.55725
1.84552
10.4154
3.01339
2.92978
3.11298
13.0224
9.61936
11.836
5.6626
6.10764
1.63605
1.93642
15.9948
12.8227
21.5067
13.8749
13.9921
11.5778
11.7205
14.0299
1.60643
1.90175
1.84028
1.57407
1.8617
1.54223
10.8884
9.07717
12.7395
2.51848
2.71294
3.73777
3.63773
3.28849
3.40493
3.48729
1.54847
1.8144
7.24575
7.59649
7.34556
6.93445
17.4813
10.3324
23.2984
13.5245
11.0378
9.2773
1.77225
1.57507
1.85279
12.9443
15.5191
13.9135
13.036
1.81226
1.5738
1.83874
2.54898
3.04795
2.77111
2.42523
3.10042
2.56139
1.55111
2.64083
3.18917
2.76838
2.01326
2.38012
2.49627
16.5127
11.1043
2.87032
2.96736
9.39027
10.5639
9.50176
12.0905
11.4305
14.4282
3.432
3.31872
3.53831
16.3121
12.2461
13.5266
11.7094
11.0681
1.83247
2.24148
5.5885
9.1061
5.3861
6.51974
12.3207
10.0054
8.84651
10.0895
1.53337
16.0351
10.7911
3.18
3.08275
3.2358
4.2234
3.99154
4.56343
1.58816
7.27799
8.9694
8.58254
1.57518
1.80371
11.0144
12.5658
11.7837
1.53177
1.77151
13.2345
6.2373
6.92704
11.772
9.22892
10.9635
10.3468
7.80986
9.01434
1.5373
1.76702
1.76398
14.9949
1.55528
10.1617
10.3323
11.3678
14.9246
13.0445
26.6605
18.3229
1.87068
2.21487
11.487
9.55675
10.8071
14.6147
2.03765
1.71007
18.8999
13.5013
1.48964
1.75985
1.58846
1.82779
1.84244
15.966
10.6678
12.3774
1.80684
1.49817
1.73965
27.1627
22.0579
16.1933
11.9892
12.1012
3.20071
3.22859
1.5414
1.81081
1.78465
12.9006
10.4664
8.23118
22.0938
14.7869
18.9188
12.0401
10.8655
1.77886
1.4808
1.77307
6.27722
4.936
1.54985
1.85669
1.83391
6.18825
9.99477
8.806
11.2947
15.6345
8.96321
13.1311
14.6527
14.2921
16.053
9.73021
12.1416
1.6303
1.90956
1.86476
16.1203
10.7641
11.9358
1.77305
2.09747
11.561
15.1945
5.58689
12.4514
7.302
1.995
10.7772
9.30263
13.166
11.2254
11.755
9.1526
10.8653
9.62159
8.29598
10.0461
1.72552
1.9224
11.9044
5.50977
5.6151
1.65526
1.84532
1.67584
1.84233
4.76832
2.84435
2.91804
2.25409
2.09069
2.20578
4.11394
4.53736
4.11479
4.11249
2.22125
3.98849
3.85344
4.50015
2.8201
2.66605
4.0146
4.20899
4.65609
2.53121
3.55864
4.29972
3.60468
3.58201
3.68521
2.64716
3.29016
4.67344
4.50892
4.34596
2.93779
4.03212
3.97095
4.03329
3.71867
3.6145
3.6079
2.14868
4.63704
4.09
2.98012
2.08906
2.15925
3.40953
4.2203
4.14758
4.1608
4.08147
3.89366
3.94345
4.25562
4.30041
4.78034
2.81329
3.56878
2.14918
4.40586
5.17954
6.55746
2.80896
4.90311
3.02555
3.37399
3.58919
3.23222
3.42257
2.1935
4.965
2.54434
3.49315
2.93462
4.99616
3.25571
3.0855
2.52169
2.95833
3.11142
2.98693
2.4461
2.50318
3.29272
2.81359
2.10232
2.10969
3.11285
2.26578
2.57202
3.87844
2.86094
3.53296
4.02765
3.57913
3.48872
3.51397
2.93201
3.78248
4.21411
4.08998
3.97815
2.84236
2.60902
3.53188
3.51655
4.85716
3.79779
4.09672
4.31281
4.23407
4.34357
2.27237
2.30964
3.85718
2.90745
2.13202
3.97353
3.85973
3.4286
4.13915
4.05754
3.06414
3.16616
4.37517
4.28262
4.46685
3.96579
3.35418
4.63158
4.00123
4.09712
2.90982
4.09336
3.50798
2.99664
2.15838
3.70211
4.27134
3.53045
4.31024
4.22038
3.64944
3.60333
4.80519
2.79341
2.73242
2.80316
6.17157
4.30497
2.16855
5.88688
2.14478
3.42861
3.189
2.43409
4.40355
4.39636
4.56649
3.70749
4.86394
4.69065
4.5562
4.60064
5.29963
3.98177
5.06237
2.22106
2.23635
3.35526
3.41682
3.23632
3.13167
4.75548
4.63071
4.23293
4.28208
4.62473
4.69476
3.81491
3.17732
2.63047
3.9303
3.30963
4.57407
5.04104
3.89067
4.73275
4.66059
6.59048
3.78913
3.74142
4.19535
2.24251
2.75255
4.17694
4.23535
4.37521
4.28001
4.08245
4.1558
2.20033
4.67264
4.77114
4.74853
3.4516
3.7007
3.82663
3.4582
3.7247
3.8365
3.98644
3.33921
6.13703
6.79612
3.65104
5.71411
2.63184
2.73488
2.63813
3.27582
2.16467
5.63999
5.06494
4.46744
2.82371
2.84862
2.94968
2.97798
2.91868
5.72713
6.68428
2.94234
4.58501
3.76093
3.66603
3.50327
3.74272
3.64012
3.66314
2.81572
2.5076
2.50625
2.56343
2.51335
3.2821
3.5863
3.83896
2.46895
2.84504
3.68356
3.06532
3.21894
4.87148
4.218
4.03796
4.13647
2.8286
3.60921
3.70033
5.2203
3.98146
4.09086
4.18537
4.1574
2.91975
3.01742
2.1734
2.23781
2.26419
3.19332
4.19887
4.36897
4.22326
4.27746
4.05624
4.02911
4.07904
3.09481
3.07959
3.2142
6.21528
5.17071
5.87459
5.08285
3.52784
3.45571
3.77579
4.11944
3.85132
3.93818
3.58304
4.54705
4.16178
6.29377
5.95958
7.28076
2.09981
3.82161
3.57488
3.74713
3.46213
3.6166
2.7087
2.74417
4.03641
4.2582
4.23309
4.30536
4.1984
4.56331
4.2551
4.1669
4.16045
4.30905
3.59802
3.29601
3.43338
3.29972
3.58752
3.52559
3.94058
4.65979
4.53402
4.63153
2.05812
4.24966
3.11281
2.76553
4.15244
4.21645
2.9291
2.64852
5.34589
5.12701
2.24668
4.20237
3.75655
3.55588
3.20987
4.52056
3.73571
3.67718
3.54667
3.93371
2.81739
3.2044
3.65112
4.03225
3.99673
4.34445
3.21697
3.34621
3.3728
2.12399
3.12963
3.1532
4.00834
4.27724
4.13422
4.24392
4.11535
4.0043
3.07081
2.96507
3.12418
2.82009
3.78853
4.40722
4.95085
4.2454
4.32788
4.44629
3.23916
3.76619
3.6144
3.08362
4.60977
3.23686
4.27747