/*--------------------------------*- C++ -*----------------------------------*\
| =========                 |                                                 |
| \\      /  F ield         | OpenFOAM: The Open Source CFD Toolbox           |
|  \\    /   O peration     | Version:  2206                                  |
|   \\  /    A nd           | Website:  www.openfoam.com                      |
|    \\/     M anipulation  |                                                 |
\*---------------------------------------------------------------------------*/
FoamFile
{
    version     2.0;
    format      ascii;
    arch        "LSB;label=32;scalar=64";
    class       volScalarField;
    location    "100";
    object      k;
}
// * * * * * * * * * * * * * * * * * * * * * * * * * * * * * * * * * * * * * //

dimensions      [0 2 -2 0 0 0 0];

internalField   nonuniform List<scalar> 
184166
(
3.05672
2.45677
2.34842
3.03661
2.75932
2.78721
2.11236
2.63904
3.07033
3.02212
2.99731
2.47101
2.49222
2.71942
2.84099
3.00263
3.09676
2.92744
2.41699
2.98359
2.39316
2.39998
2.699
2.88251
2.96137
2.89225
2.80217
3.01422
2.9161
2.44366
3.02786
2.08758
3.40057
3.19258
3.08905
2.52235
2.43362
2.98989
2.58926
2.26469
2.96688
2.50827
2.91894
3.10819
3.07079
2.93064
2.21511
2.85258
3.00274
2.90415
2.15527
2.09072
2.22854
2.96047
3.09592
2.80516
2.93338
3.11492
3.14888
2.61218
2.42043
2.61035
3.01796
3.05412
3.14647
2.05436
2.29196
2.98281
2.09966
3.07236
2.3367
3.12351
3.03752
3.0187
2.51944
2.87108
2.72562
3.01623
2.58356
2.18604
2.16266
2.4991
3.02803
3.04293
2.97054
3.01603
2.57631
2.3527
2.74477
2.42744
2.05847
2.74959
2.94076
2.95935
2.74526
2.42211
3.1172
2.08712
2.37551
3.05021
2.46681
2.45007
2.94307
2.92345
2.09138
2.70173
3.04873
2.71937
2.08296
2.47438
2.26263
3.05369
2.05168
2.33475
3.01238
2.90659
2.59306
2.33811
2.10657
2.34352
3.01026
2.45173
2.93442
2.91529
2.89329
2.753
2.93521
2.94017
2.9661
2.94235
2.40257
2.93157
2.72693
2.78938
2.53128
2.49472
2.51001
2.70628
2.74616
2.29533
2.7148
2.10991
2.12118
2.448
2.63303
3.00379
2.35194
2.90375
3.06497
3.16815
3.08739
3.03644
3.02691
2.94863
3.03431
3.14832
2.99917
2.96345
3.06187
2.24768
2.07264
2.15468
2.83937
2.60857
2.6044
2.93554
2.96715
2.96054
2.07354
2.98086
2.93975
2.54903
2.65937
3.24759
2.92655
2.1536
2.22019
3.05
2.96734
2.736
2.06826
2.8686
2.72521
2.90767
3.03863
2.53608
2.96167
2.88626
2.0958
3.01099
2.86942
3.05308
2.72907
2.08332
3.14939
2.97864
2.854
3.00063
3.08693
2.90093
3.0311
2.91874
2.07704
2.90425
2.20389
2.94356
2.50353
2.4384
2.57551
2.93366
3.18868
2.86701
2.53803
2.73242
2.42556
2.69087
2.98514
2.84123
2.13204
2.11984
2.44717
2.60453
2.70755
2.87258
2.16721
2.45922
2.47639
3.0797
2.95006
3.13482
3.19776
2.30171
2.71107
2.89939
3.11111
2.75034
3.14246
2.98076
2.90747
2.0877
2.05069
3.04001
2.38208
2.94148
2.22863
2.82966
2.89443
2.49591
3.29179
3.17074
2.77108
3.04456
3.04027
2.44629
2.73177
3.10974
2.75167
2.89879
2.98537
2.7385
2.65863
2.30415
3.07999
2.48107
3.0419
2.95664
2.99558
2.29104
3.00631
2.78285
2.88179
2.16804
2.66134
3.02044
2.46075
2.74399
2.05681
2.70011
2.60008
2.69611
2.40879
3.56595
2.69769
2.9516
2.27905
2.48991
3.21103
3.04485
2.88078
3.03085
2.91135
2.8058
2.90366
3.1344
3.09223
2.8945
2.79888
3.05413
2.97409
3.03785
2.92155
2.73221
2.14548
2.91509
3.08301
2.71142
2.89659
2.94313
2.28053
2.08039
2.93789
3.09097
2.96037
3.03619
3.05604
2.71512
2.76995
2.80586
2.85634
2.84613
2.42353
2.50239
2.58195
2.88336
2.92569
2.08568
2.97585
2.76213
2.3911
2.92871
3.06675
2.26363
2.2356
3.00512
2.10577
2.97262
2.78455
2.64746
3.01083
2.64081
2.85379
3.13667
3.18631
3.20222
3.09987
3.18373
2.32978
2.0923
2.56609
2.15772
2.15651
2.93768
3.14706
2.30495
2.43715
3.07046
3.01196
2.69565
3.0391
2.9733
2.59764
2.06637
3.02075
2.31443
2.9516
3.00864
2.08703
2.37583
2.34091
2.04329
2.06412
3.0876
3.23728
3.17415
3.29149
3.23638
3.00655
2.88164
2.42027
2.74956
2.80142
2.82234
2.97098
2.96219
2.78631
3.15659
3.09907
2.55692
2.61782
2.61296
2.77393
2.90581
2.93248
2.07339
2.69023
2.07659
3.17559
2.69293
2.59149
2.77024
3.14035
2.82609
3.20868
2.97899
2.23616
2.80151
3.05011
3.02826
2.76205
2.40309
2.84949
2.60564
2.62427
2.53495
2.52933
2.44859
3.02194
2.23639
2.20909
2.16989
3.31202
2.68736
2.67633
2.68468
2.61495
2.08129
2.10174
2.12396
2.38074
2.35336
2.38597
2.11852
3.32046
3.1264
3.24936
3.21654
3.078
3.17576
2.94494
2.95054
2.99217
2.99563
3.04916
3.02897
3.03896
3.02683
3.17516
3.23597
2.88917
2.94253
2.83883
2.83762
2.86856
2.91586
2.76378
2.9336
2.91423
2.90792
2.92326
3.24638
2.94101
2.10992
2.07787
2.07588
2.06782
2.17284
2.08265
2.14482
2.97828
3.00292
2.98504
3.02089
2.98718
2.93877
2.71993
2.55052
2.66489
3.04961
2.96472
2.92896
2.94339
2.92557
2.06568
2.03993
2.49015
2.52056
2.48666
2.44158
2.42038
2.43898
2.74638
2.83002
2.78342
2.81897
2.66223
3.16652
3.11711
3.10619
3.14075
3.21207
3.16255
3.15732
2.95658
2.93526
2.93728
2.92954
2.96078
2.93269
2.40929
2.92641
2.9784
2.04223
2.06908
2.04626
3.06696
3.20181
3.1222
2.95328
3.01431
2.96562
3.01995
3.10786
3.24075
2.91285
2.93498
2.96104
2.97414
3.18532
3.20301
3.33905
3.30231
3.32198
3.17208
3.32824
3.33299
3.19243
3.23995
3.0043
3.15488
3.3509
3.27183
3.0936
3.18526
3.06564
3.01744
3.07388
3.01793
2.18719
2.69945
2.58643
2.52028
2.69124
2.58796
2.66844
2.68801
2.54676
2.62536
2.46351
2.37787
3.14884
3.07059
3.16585
3.13971
3.04666
3.11945
3.11432
3.10859
2.99744
2.91243
2.70374
2.67971
2.71115
2.75849
2.95346
3.18059
2.11635
2.2267
2.07766
2.07564
2.0833
2.07966
3.14326
3.15944
3.24875
3.25347
3.33052
3.29572
3.17314
3.33217
2.95869
2.9403
2.99004
3.02449
2.98834
2.05055
2.78492
2.71647
2.69951
3.01138
3.05102
3.04079
3.05949
3.0349
3.04526
3.05796
3.06991
3.01308
2.96271
3.0287
2.43071
2.48938
2.6738
2.5321
3.04431
3.13562
3.1394
3.10715
3.23435
3.08321
3.23364
3.1728
2.84423
2.956
2.90368
2.95352
3.03128
3.07506
2.89615
2.82648
2.79675
2.78716
2.77476
2.74546
3.23471
3.23089
2.92117
2.89587
2.92546
3.06314
2.94612
2.61223
2.85924
3.07192
3.17544
3.05825
3.05488
3.09542
3.16787
3.1044
3.10616
2.14749
2.25319
2.88298
2.97242
3.06375
2.97166
2.77846
3.11359
3.03713
3.09682
3.08245
3.02874
3.06254
2.09462
3.27483
3.33888
3.28099
3.28741
2.56866
3.10181
3.13823
3.04367
3.35814
3.18097
3.33761
2.22597
2.08129
2.08923
2.16815
2.16993
2.09069
2.64915
2.30758
2.39613
3.11936
2.99255
3.07692
2.62808
2.53247
2.62594
2.57164
2.53274
2.57603
2.98338
3.0771
2.98017
2.96906
3.06794
3.19478
2.64268
2.62375
3.12202
2.90473
2.7558
2.77176
2.33212
2.75038
3.01579
3.00448
2.66362
2.697
2.66659
2.53242
2.48138
2.53069
2.4825
2.53653
2.80806
3.00552
2.96322
2.97194
2.7033
2.78273
2.75919
2.78267
2.8159
2.53423
2.71293
2.76866
2.91503
2.94105
3.04306
2.98273
2.65713
2.64991
2.44927
2.52071
2.54032
3.09997
2.9172
3.10786
3.17126
2.49526
2.72779
2.081
2.07622
2.07332
2.9752
2.47563
2.6167
2.45515
3.03043
2.79671
2.86248
2.77539
2.68862
2.72204
2.74695
2.72808
2.94399
2.73983
2.96548
2.81049
2.45973
2.42384
2.46181
2.43966
2.42301
2.43127
2.40854
2.39949
2.3913
2.69613
2.62122
2.44123
2.45576
2.42167
2.79402
2.72084
2.79986
2.76727
2.94603
2.97913
2.95599
3.18752
2.83888
2.82205
2.74459
2.40195
2.46024
2.07533
2.07736
2.08248
2.07891
2.68234
2.46994
2.45989
2.45371
2.47684
2.48666
2.86578
2.90011
3.00651
2.89913
2.94104
3.02265
2.74804
2.76295
2.81484
2.40605
2.41931
2.41135
2.4157
2.4135
2.06775
2.08287
2.98565
2.99437
2.08396
2.10514
2.08162
2.07917
3.06802
2.16683
2.32725
2.17785
2.23796
2.4725
2.54331
2.55041
2.49402
3.05662
2.88924
2.9228
2.85298
2.79849
2.87236
2.90842
3.05443
2.63898
2.57106
2.71828
2.6016
2.56831
2.36714
3.0819
3.15795
3.20933
3.01275
3.09467
3.01269
2.87144
2.719
2.76362
2.87688
2.03337
2.00978
2.87751
2.73502
2.63075
2.81697
2.64044
2.76566
2.02338
2.01287
3.10361
3.12581
3.13301
3.17525
3.1713
2.33004
2.97247
2.51045
2.86231
2.08504
2.09383
2.95524
2.96287
2.9391
2.94905
2.95981
2.96656
2.12637
2.23074
2.47536
2.42316
2.87642
3.06933
2.8394
2.94992
2.15282
2.15376
3.13655
3.07774
2.83033
2.85649
2.89594
2.84266
2.88198
2.90499
3.05591
3.00215
3.04386
2.25608
2.49386
2.33386
2.78809
2.7921
2.90169
2.85453
3.03247
3.00993
3.07431
3.11328
3.22141
3.22543
3.13067
3.15137
3.10037
3.15057
3.08863
3.0158
3.05063
2.96642
2.97686
2.88515
2.79426
2.61341
2.65655
2.5416
2.46625
2.45697
2.4871
2.43262
2.47708
2.65277
2.95082
2.88107
2.86068
2.86889
2.82243
3.19321
3.1852
3.01609
2.83324
2.9401
2.6113
2.86484
2.88225
2.84881
2.84256
2.22881
2.18903
2.26666
2.23658
2.18864
2.90773
2.92742
2.92282
3.18769
3.19476
3.09434
3.13923
3.31108
3.30266
3.02995
3.12362
3.03819
3.01479
3.00049
2.60636
2.6582
2.52782
2.81593
2.7528
2.84545
2.86994
2.88351
3.07751
3.02273
2.97435
2.99091
2.94266
3.02525
3.09501
2.99089
3.40411
2.68497
2.73461
2.71027
2.54224
2.63256
2.63888
2.68935
2.53339
2.96937
2.96663
3.00622
2.96921
2.2541
2.33826
2.25263
2.22843
2.61799
2.595
2.97594
3.05686
3.11706
3.04387
3.19576
3.11654
2.95356
2.93676
2.94431
2.9637
2.11886
2.07512
2.06465
2.02933
2.92035
2.94565
2.90186
2.91273
2.72158
2.7097
2.7316
3.33825
3.30053
3.27427
3.24108
3.23077
3.28032
2.55439
2.42666
2.4933
2.35556
2.65049
2.71377
2.71638
2.73365
3.3056
3.22743
3.25435
3.10266
3.22465
2.82926
2.75673
3.17118
2.9134
2.59328
2.64488
2.45967
2.48018
2.61319
2.90254
2.88962
3.32097
3.07114
3.09988
3.14302
3.12122
2.11286
2.07198
2.06815
2.41127
2.40185
2.62987
2.6117
2.62748
2.61399
2.77067
2.72423
2.28178
2.11895
2.44082
2.72313
2.7864
3.02617
3.005
3.02268
2.95514
2.94349
2.08411
2.08712
2.08716
3.42569
3.40249
3.20369
3.20203
2.06148
2.04635
2.89511
2.92582
2.7569
2.44527
2.4861
3.33684
3.19327
2.94562
2.97714
2.95009
2.07665
2.07908
2.07772
2.06644
2.0717
2.79795
3.03342
2.8913
2.85362
2.78249
2.79319
3.12242
2.84089
2.84349
2.86096
2.84481
2.54497
2.99362
2.9824
2.90465
2.91091
2.36148
2.37971
2.36222
2.35857
3.12436
3.06151
3.06534
3.13099
3.04945
3.0949
2.61955
2.61067
2.56589
2.99179
3.03544
2.86428
2.4156
2.17385
2.19424
2.30019
2.1837
2.54724
2.2916
2.22692
2.4212
3.24677
3.30469
3.05776
2.7601
2.88041
2.74362
2.80897
2.98016
3.01174
2.98047
2.08498
2.07377
2.08299
2.09172
2.92256
2.86606
2.23647
2.13939
2.12534
2.0066
2.00576
2.59629
2.66462
2.67084
2.57113
2.61238
2.81236
2.44795
2.31388
2.08681
2.07826
2.09435
2.06868
2.07119
2.50572
2.46481
2.80091
2.79118
2.8693
2.82517
2.89868
2.92183
2.81994
2.84472
2.78956
2.0997
2.17147
2.51199
2.57805
2.26694
2.26404
2.26241
2.94778
2.93609
2.95398
3.11427
3.2533
3.16697
3.11819
3.1993
3.25757
2.0898
2.24256
2.15563
2.24991
2.23134
2.3658
2.38028
2.14462
2.14872
2.83873
2.86339
2.86352
2.883
2.12555
2.10995
2.12622
2.14222
2.86647
2.88319
2.7676
2.8446
2.5993
2.78732
2.62803
2.74042
3.20983
3.20916
2.84661
2.75129
2.30446
2.63596
2.54678
2.56309
2.4927
2.13677
2.36692
2.30251
2.57334
2.41589
2.476
2.33992
2.86977
2.85644
2.65505
2.78826
2.77136
2.80935
2.25824
2.31516
2.74123
2.84591
2.68789
2.70837
2.67662
2.671
2.67472
2.75175
2.81562
2.82127
2.81446
2.73429
3.22811
3.20452
3.30446
3.24213
2.97422
2.98756
2.64495
2.70057
2.08362
2.09443
2.08598
2.08458
2.07998
2.08532
2.09584
2.08044
2.38603
2.37784
2.40743
2.44043
2.43824
2.92487
2.96306
2.99178
2.91057
2.92617
3.08683
3.09051
3.07692
3.04834
2.50444
2.48771
2.07327
2.07093
2.07027
2.07415
2.07386
3.16924
3.0659
2.62922
2.64623
2.66895
3.03218
2.96674
3.11391
2.93747
2.93269
2.6473
2.92814
2.9295
2.95571
2.8909
2.85531
2.89753
3.19009
3.10219
3.05997
3.15144
3.08935
3.06683
2.98907
3.11366
3.09178
2.71263
2.65281
2.54827
2.9636
2.96601
2.94367
2.9549
2.96726
2.01162
2.84109
2.86618
2.8859
2.86738
2.87005
2.915
2.909
2.95189
2.96408
2.02007
1.99962
2.01706
2.07402
2.08156
2.07952
2.07474
3.30496
3.02302
3.04306
3.19733
3.06918
2.96917
2.53406
2.98696
2.98226
2.23569
2.39652
2.24616
2.45015
2.45641
2.53688
2.52903
2.43699
2.52821
2.81614
2.80538
2.98772
2.09025
2.96061
2.77831
2.63757
2.22881
2.23133
2.23885
2.61527
2.64705
2.56784
2.57193
2.49694
2.8352
2.78549
2.43227
2.40905
2.38366
2.38401
2.433
2.38369
2.93897
2.97457
2.98366
2.70542
2.75949
2.8427
2.7301
2.66534
3.12855
2.98197
2.99541
2.81867
2.00519
1.99485
3.01404
2.98251
2.75311
2.78851
2.7925
2.97059
2.85931
2.9101
2.07122
2.0884
2.08377
2.08724
2.07756
3.19808
3.10962
1.99739
2.86051
2.39481
2.34863
2.68937
2.47105
2.68926
2.56874
2.44091
3.01542
2.93779
2.98755
3.22635
3.25539
3.00214
2.61935
2.61359
2.08012
2.0817
2.08144
2.08233
2.08276
2.08742
2.9445
2.13498
2.0624
1.99738
2.04187
2.01612
3.09522
3.07796
2.90966
2.76206
2.5178
2.43313
2.55988
2.34518
2.16639
2.37767
2.30784
3.02851
2.99975
3.07324
3.03468
2.99375
2.92662
2.90275
2.11766
2.15868
2.81449
2.8251
2.73811
2.79478
2.69206
2.88101
2.86955
2.88611
2.69184
2.7624
2.4708
2.59455
2.60152
2.45148
2.52084
2.62134
2.53653
2.55565
2.52248
2.60078
2.63782
2.93234
2.96229
2.96954
2.93527
2.95845
2.1994
2.16313
2.39519
2.26385
2.45227
2.33657
2.99319
3.04899
3.0427
3.07061
2.5101
2.61178
2.55637
2.59859
2.51748
2.39859
2.46139
2.08416
2.0866
3.18187
3.24938
2.90834
2.88242
2.89486
2.8067
2.05194
2.03152
1.99731
2.05226
2.02963
3.05287
3.05028
2.80972
2.77953
2.76125
2.65594
2.69488
2.60843
2.34507
2.37672
2.32772
2.33868
2.07502
2.07554
2.07338
2.07204
2.76258
2.91894
2.92444
2.89526
2.67273
2.71118
2.57145
3.05199
3.07456
3.17986
3.04236
3.11069
3.16448
2.13092
2.25197
2.10529
2.1529
2.82302
2.88488
2.87934
2.89026
2.83074
2.08411
2.07963
2.08184
3.4615
3.44116
2.75278
2.68764
2.60244
2.23125
2.40753
2.4227
2.24326
3.14533
3.17209
3.16164
3.20227
3.18556
3.1849
2.77322
2.81001
2.83428
2.7522
3.17331
3.30826
2.40604
2.48805
2.25853
3.36757
2.81714
2.76817
2.68664
2.38785
3.20558
2.93794
2.96556
2.01077
2.28464
2.23007
2.25533
2.27744
2.23201
2.23501
2.06197
2.05382
2.14009
2.08423
2.27687
2.3191
2.2762
2.29595
2.27732
2.3213
2.27584
2.30257
2.51741
2.4173
2.83357
3.17023
3.27378
2.61134
2.07254
2.06077
2.06897
2.06631
2.91364
2.81244
2.79299
3.06172
2.90138
2.77567
2.44946
2.96728
2.94993
2.97362
2.31365
2.30292
2.18525
2.17547
2.73613
2.78546
2.94738
2.95763
2.89248
2.93552
2.81775
2.82853
3.12167
3.09307
3.22047
2.60216
2.81055
2.77982
2.559
2.70247
3.14492
3.10656
3.07111
3.0573
3.24349
2.03304
1.99015
2.81666
2.86568
2.90857
2.90912
2.81957
2.84951
2.87939
2.90369
2.86433
2.87465
2.9033
2.90787
2.8181
2.87744
2.83082
2.86425
3.10658
3.07141
3.1127
3.09889
1.97756
1.96162
2.01553
2.04421
2.70804
2.70084
3.15407
3.20044
3.1267
2.66059
2.66757
2.67124
3.07248
3.01067
3.03351
3.0438
3.08154
2.6304
2.78104
2.57591
2.62138
2.54775
2.54609
2.39117
2.38459
2.38969
2.47745
2.73487
2.80883
2.93844
2.93724
3.27692
3.26486
2.08243
2.07968
2.97648
2.94503
2.41491
2.38418
2.38512
2.356
2.3808
2.38885
2.20579
2.15851
2.21749
2.11173
2.12395
2.18575
2.10215
2.72896
2.67433
2.6852
2.63017
2.75693
2.73768
2.68906
2.72539
2.68908
2.70243
3.10521
3.12431
3.15443
3.11407
3.16217
2.85213
2.87343
2.58071
2.49563
2.49127
2.6108
2.76545
2.79077
2.79518
2.65728
2.59126
1.99686
1.95619
2.32338
2.39378
2.62299
2.11354
2.08271
2.08548
2.17889
2.13277
2.98252
2.957
2.96734
2.91403
2.94849
2.87066
2.91269
2.10149
2.14711
2.10786
2.11327
2.17135
2.09097
2.19164
2.27901
2.31276
2.20881
2.06262
2.0592
2.01519
3.3038
3.2951
3.30362
3.19457
3.33258
2.81071
2.74828
2.49733
2.76204
2.78717
2.73549
2.72978
2.19225
2.4178
2.28318
2.29975
2.1979
2.19478
2.12333
2.2849
2.25522
2.10656
2.1252
3.29067
3.21643
3.13674
3.13456
3.11542
2.76709
2.44493
2.64305
3.12416
3.3205
3.18313
2.9276
2.87424
2.89856
2.5224
2.44469
2.2159
2.17358
2.40892
2.21073
2.68909
2.7186
2.67342
2.72747
2.69203
2.71048
2.65191
2.58871
2.58505
2.1747
2.11226
2.14636
2.51881
2.89842
2.52891
2.7276
2.91723
2.8508
2.69347
2.86151
2.73282
2.96512
3.08294
2.90274
2.60055
2.6344
2.70323
2.72921
2.04946
2.0697
2.09697
2.09432
2.88187
2.86315
2.0786
2.07784
2.67993
2.64089
2.68111
3.26185
1.96339
1.97631
2.01274
2.1332
2.0722
2.07717
2.47626
2.40808
2.83429
2.8305
2.79491
2.77761
2.3023
2.34304
2.50712
1.98111
2.47918
2.42441
2.36474
2.46117
2.38564
2.36371
2.48806
2.4302
2.47524
2.38983
2.43392
2.43327
2.56484
2.94886
2.93463
2.07335
2.10533
2.04154
2.86624
2.83631
2.84768
2.76513
2.74943
2.72238
2.86965
2.76047
2.64376
2.6693
2.66059
2.6887
2.5154
2.6411
2.60057
2.5586
2.62132
2.40772
2.40486
2.41404
2.42574
2.42327
2.67631
2.60408
2.59669
2.66976
2.63199
2.62209
2.59155
2.6368
2.63093
2.63158
2.61873
2.82035
2.78578
2.83313
2.81107
2.78499
3.1291
3.07173
3.07925
3.10133
3.11084
2.5845
2.63962
2.5773
2.66037
2.63368
3.04532
3.01721
2.01571
2.29719
2.36979
2.42015
2.77975
2.71887
2.22475
2.16952
2.17189
3.15475
3.0533
3.17758
3.50567
3.1308
3.08403
3.33387
3.35488
3.16142
3.29721
3.32369
3.25167
2.52251
2.60955
2.92722
2.9095
2.90432
2.92611
2.39748
2.31055
2.18789
2.53733
2.1458
2.333
2.36767
2.23841
3.03736
3.16577
3.06433
3.67688
2.17409
2.27824
2.31189
2.55665
2.56592
2.42744
2.41498
2.68861
2.66212
4.1656
3.13672
3.04333
3.04785
3.07544
2.58547
2.7076
2.51091
2.34039
2.71772
2.75214
2.73732
2.75327
2.95621
2.9668
2.93189
2.92621
2.93763
2.95203
2.95625
2.93217
2.93844
2.37225
2.33802
2.68275
2.20571
2.2063
2.39736
2.34325
2.76205
2.69466
2.74405
2.76967
2.71268
2.66486
2.77434
2.80999
2.85623
2.75344
2.90138
2.99586
3.14981
3.29909
2.64326
2.64654
2.72256
2.68666
2.72341
2.69943
2.93188
2.93512
2.94663
2.94927
2.92157
2.9387
3.19487
3.02567
3.39014
3.20923
2.96528
2.95521
2.95324
2.93398
2.94826
2.97213
2.99274
2.70544
2.73201
2.72849
2.44759
2.13756
2.6304
2.67287
2.81614
2.818
2.78884
2.76441
2.78129
2.42339
2.38425
2.39287
2.44941
2.43203
2.62426
2.56827
2.57753
2.65402
2.62826
2.09205
2.0785
2.09332
2.10626
2.07644
2.07488
2.265
2.09594
2.09861
2.14611
2.15159
2.11724
3.48931
2.82886
2.83612
2.87178
2.86355
2.87674
1.96376
2.97191
3.00802
3.01644
2.9599
2.98285
2.62334
2.66193
2.65002
2.65592
2.6352
2.67302
2.57882
2.7435
2.65883
2.67384
2.33167
2.4613
2.69486
2.58132
2.07158
2.08405
2.12777
2.16678
2.07695
2.10701
2.40607
2.35597
2.30222
2.22356
2.26124
2.20704
2.92762
2.92171
2.03905
2.00284
2.00977
2.06391
2.0695
3.1765
3.10075
3.14483
3.10018
3.07849
2.94762
2.97756
3.02162
2.98873
3.10046
3.17462
3.13714
2.7529
2.72535
2.70998
2.57923
2.62127
2.62895
2.13388
2.10321
3.1536
3.2225
3.39294
2.88035
2.90588
1.98296
1.96232
2.33295
2.22923
2.18343
2.32451
2.12367
2.12531
2.77056
2.75906
2.78408
2.80448
2.80489
2.7089
2.73179
2.86877
2.81646
2.82145
2.90742
2.88
3.07448
2.96255
2.89955
2.92127
3.01889
3.70664
4.346
2.38937
2.36696
2.31582
2.33073
2.29648
2.91646
2.98008
2.92782
3.19778
3.33219
3.37696
2.34064
2.40372
2.41641
2.49559
2.47695
2.42084
2.38568
2.43208
2.52434
2.46995
2.41253
2.40864
2.42771
2.40257
2.39708
2.42481
2.40777
2.61011
2.61308
2.61506
2.60872
2.6153
2.62307
2.61588
2.61049
2.74298
2.81481
2.91971
2.88261
3.00421
3.11425
2.9841
2.86146
2.88588
2.79923
2.80514
2.839
2.82954
2.72693
2.75759
2.6972
2.56029
2.53907
2.54531
2.665
2.71022
2.68734
3.02313
3.04831
3.03899
3.06891
3.02959
3.03959
2.95448
2.99039
2.88104
2.95841
2.86021
2.93353
2.92652
2.95701
2.9549
2.93089
2.05556
2.04571
2.02211
2.85016
2.83009
2.89882
2.73288
2.78601
2.79274
2.76183
2.7712
2.02218
2.04801
2.95344
2.91928
2.91113
2.90789
1.99613
2.01885
1.96267
2.68032
2.70263
2.9441
2.9555
2.95662
3.22224
3.148
2.94411
2.9706
2.96008
2.95999
2.94889
2.25854
2.15384
2.40825
2.24972
2.30692
2.52302
2.37539
2.63467
2.58604
2.55378
2.6747
2.59434
2.71957
2.8843
3.05663
2.14392
2.16368
2.11783
2.2604
2.26442
2.40467
2.40354
2.55399
2.43008
2.40604
2.42503
2.40772
2.39989
3.3682
3.52133
3.85014
2.94683
2.96158
3.22315
2.60418
2.60738
2.58832
2.58339
2.60871
2.61331
2.07844
2.07776
2.08756
2.08273
2.07574
2.0751
2.49503
2.38367
2.42483
2.51458
2.29334
2.26756
2.68419
2.68124
2.63909
2.65286
2.64838
2.66734
3.20147
3.39239
3.28686
2.86011
2.78556
2.47567
2.04681
2.06947
2.04503
2.05552
2.05694
2.07231
2.77628
2.75542
2.90485
3.00605
3.01767
2.79255
2.78216
2.09574
2.11226
2.17491
2.13556
2.20579
2.26611
2.17151
2.37887
2.64094
2.48557
2.28113
2.14256
2.12799
2.25478
2.16911
1.97137
1.9772
2.46101
2.43833
2.34698
2.32695
2.29874
2.84002
2.86607
2.85088
2.87647
2.91277
2.93683
2.95269
2.93862
2.98797
2.92621
2.95351
2.99255
3.11703
3.13254
3.08646
3.13783
2.79935
2.77035
2.63711
2.66925
2.76078
2.67313
2.42011
2.42148
2.62237
2.62318
2.65256
2.63729
2.99476
2.98533
2.97386
2.97608
2.99139
2.33382
2.37947
2.27912
2.27304
2.30573
2.35821
2.8385
2.80462
2.82918
2.80982
2.71418
2.77286
2.75913
2.72527
2.92544
2.9666
2.4862
2.57692
2.60433
2.2884
2.25117
2.37196
2.41118
2.37048
2.68864
2.6396
2.41462
2.63218
2.36964
2.47095
2.53713
2.99156
2.97533
2.97215
2.98829
3.0478
3.07706
2.40548
2.24558
2.32647
3.04039
2.86811
2.94787
2.9809
3.03734
3.02133
3.02199
2.98762
3.21505
3.20159
3.14571
3.20454
3.15231
2.99783
3.028
3.03731
3.0064
2.98414
2.21529
2.12909
2.0914
2.09718
2.06853
2.71684
2.77545
2.81397
3.04491
3.08201
3.03802
2.48723
2.50379
2.85876
2.78851
2.75747
2.8237
2.88583
2.0021
2.00747
2.05555
2.02642
2.05864
2.07392
2.07061
2.5468
2.5744
2.621
2.58767
2.62259
2.94769
2.93896
3.18585
3.14768
3.13036
3.19939
3.20102
3.27757
2.7249
2.67622
2.6628
2.72119
2.65406
2.63939
2.5325
2.50735
2.67621
2.61786
3.04705
3.08889
3.07961
3.14761
2.6393
2.64879
2.63812
2.67791
2.6249
2.7238
2.70145
2.69585
2.65788
2.51959
2.46132
2.5126
2.51354
2.60394
2.46242
2.43156
2.39
2.66193
2.62766
2.59182
2.69281
2.61553
2.98638
2.99976
3.07275
3.02971
2.98926
3.2906
3.43616
2.57779
2.61933
2.57046
3.05168
3.01538
3.06878
2.48028
2.38827
2.53563
2.63503
2.47197
2.40438
2.45346
2.33483
2.35557
2.32741
2.29732
2.35072
2.29597
2.33983
2.31072
2.33837
2.31026
2.33545
2.35455
2.59921
2.67961
2.61315
2.65751
2.6697
2.63104
3.09645
3.03003
3.0711
3.03773
3.12151
3.09667
3.11437
3.41426
3.59645
3.04011
3.07656
3.1377
3.01584
3.07457
2.33706
2.29605
2.32406
2.28904
2.31213
2.38526
2.41125
2.47317
2.4077
2.50464
2.4833
2.60718
2.59803
2.69643
2.69475
2.80517
2.71998
2.78675
2.7853
2.72851
2.77185
2.81581
2.79693
2.41069
2.43689
2.34432
2.33165
2.29901
2.29007
2.31425
2.63041
2.54019
2.60284
2.36196
2.34833
2.39144
2.46637
2.45122
2.41299
2.40851
2.44628
2.34983
2.32099
2.34202
3.00436
2.90167
2.99661
2.93006
3.35153
3.4132
2.57642
2.54199
2.49817
2.57141
2.5266
2.70181
2.64156
2.71106
2.64865
2.68665
2.67294
2.64841
2.67282
2.64887
2.6287
2.63347
2.69878
2.58944
2.67123
2.61641
2.59289
3.11023
3.19887
2.70249
2.70542
2.14942
2.13128
2.10095
2.09326
2.79313
2.80324
2.36792
2.39902
2.65448
2.51806
2.47089
2.65316
3.05597
2.99392
2.92052
2.93943
3.07504
3.12178
3.10925
3.06695
3.10642
3.129
3.11429
3.12619
3.12469
3.13538
2.84694
2.8127
2.78564
2.99001
3.05751
3.51546
3.53071
2.83124
2.80272
2.84868
2.20924
2.09581
2.14873
2.15082
2.07067
2.08289
2.93546
2.83896
2.67791
2.9214
2.78831
2.90579
2.2149
2.18133
2.32389
2.72745
2.78318
2.7355
2.76516
2.77507
2.75683
2.8376
2.81363
2.83005
2.43217
2.51109
2.65551
2.74408
2.73083
2.63443
2.67947
2.78046
2.79496
2.7136
2.7015
2.75002
2.55006
2.51557
2.59943
2.92646
2.89082
2.92432
2.86701
2.86147
2.13095
2.08069
2.08669
2.08245
2.11038
2.08995
2.09086
2.04728
2.00501
2.06319
2.04229
2.05946
3.03862
3.07557
2.99466
3.03283
2.8717
2.80188
2.68833
2.31069
2.30757
2.33007
2.52093
2.55021
2.60689
3.10847
3.15182
3.13964
3.10524
3.09157
3.09188
2.92138
2.99954
2.94961
2.03535
3.40465
3.17577
3.35596
2.12582
2.08804
2.2073
2.14513
2.11808
3.06467
3.11508
2.81621
2.83169
2.80927
2.07851
2.08262
2.36551
2.17748
2.10979
2.09175
2.99996
2.9134
2.93307
2.91733
2.17114
2.17181
2.60533
2.56715
2.53734
2.80689
2.69081
2.65784
2.93343
2.85033
2.54412
2.49718
2.61459
2.56938
2.92542
2.9253
2.92755
3.051
3.67782
4.12089
3.72165
3.55064
2.46555
2.84772
1.76711
2.44215
2.42771
3.79866
4.78968
2.84862
4.2582
2.62269
4.50959
4.1125
3.87734
3.93215
4.16261
3.7009
3.72505
3.73761
3.9587
4.30482
3.44309
3.37828
3.55571
3.38507
3.62023
3.84419
4.38832
4.14457
1.98916
3.66929
3.90473
3.62398
3.72645
4.19313
3.95605
3.84297
4.25423
3.73779
3.66421
1.77436
1.83589
3.44506
4.01186
3.56967
1.95759
3.9678
3.49685
3.71148
3.87235
3.78783
3.21925
3.92432
3.88143
3.94174
3.77559
3.63379
3.84285
3.86619
3.97042
3.88151
2.89212
2.86827
1.91664
1.8537
2.04919
3.70837
3.93866
3.53189
4.47425
3.90889
3.85561
3.95973
3.09472
3.4202
2.78828
2.81622
2.421
2.42709
3.6641
3.51819
3.56886
3.42973
3.19026
3.66576
3.22563
4.97776
4.12425
4.57474
4.44825
3.90209
3.91629
3.97322
3.68837
3.66713
3.56373
4.20158
4.16071
3.98854
3.82622
3.97902
3.88558
3.87642
3.639
2.93092
3.01592
3.55857
3.62159
3.48973
2.61927
3.22869
3.71198
3.15965
2.60636
2.43657
2.51456
1.76147
1.93413
1.73286
4.13529
4.16467
4.30282
4.17977
3.83406
3.95257
3.98578
2.50439
4.76174
4.1317
3.52944
3.33254
3.40596
3.5761
3.42161
3.60383
3.42444
3.38797
3.50545
2.53426
2.57617
3.67419
3.51489
3.44788
3.90111
3.55878
4.22644
4.23802
4.3396
1.72038
1.90003
3.71245
3.76813
3.6425
3.86847
3.23688
1.66874
2.11632
2.4961
2.44108
2.46416
3.18405
3.67979
3.10083
1.75689
2.00244
2.1492
2.22094
1.82516
2.05111
3.53475
3.63359
3.8342
3.63586
3.98815
3.63413
3.81411
3.81035
3.83535
4.00596
3.062
1.72123
1.89156
1.7147
1.91291
3.67616
3.58472
3.68839
4.02264
3.68311
5.12436
4.51981
4.48263
3.85924
1.70317
1.81935
1.99459
1.94419
2.13232
2.24405
2.00072
2.13118
4.12428
3.92712
1.99438
1.99905
1.7469
1.93202
4.37004
4.10395
2.1806
4.09518
3.556
3.79526
4.17994
1.91131
1.69307
1.89274
4.07025
2.53876
2.49945
2.58404
4.34519
3.76939
4.24733
3.26618
3.34475
1.76636
1.94785
4.45805
4.00941
4.65221
3.86088
4.45566
3.59183
4.0435
4.12322
1.73053
1.92797
1.88952
1.7194
1.90432
1.68194
4.13734
3.7326
4.24011
2.3011
2.36601
2.83076
2.79888
2.66216
2.71157
2.74444
1.68721
1.87221
3.47974
3.42937
3.43007
3.4188
4.62221
3.73847
4.83287
3.76454
4.05991
3.7318
1.84685
1.71054
1.89646
4.39025
4.68387
4.39099
4.29361
1.87228
1.70545
1.89005
2.3119
2.53009
2.39094
2.23904
2.53692
2.28406
1.70139
2.37546
2.5881
2.40083
2.01495
2.18666
2.25733
4.83326
3.81437
2.49142
2.49801
3.75994
3.81605
3.74165
4.38665
4.29902
4.71412
2.72192
2.6743
2.76357
4.82894
4.07455
4.515
4.21323
4.11189
1.88876
2.11057
3.28677
3.88163
3.22903
3.23492
4.25243
3.78487
3.65007
3.80785
1.68327
4.77639
3.81874
2.60057
2.58483
2.61127
2.90114
2.87316
2.94104
1.71596
3.44958
3.7117
3.63256
1.71248
1.86725
3.90596
4.02544
3.9225
1.67731
1.84337
4.45895
3.39837
3.51595
3.98491
3.66444
3.94236
3.94586
3.61487
3.76863
1.68288
1.84195
1.83879
4.76402
1.70789
3.91276
3.90897
3.94081
4.87656
4.58923
6.29462
5.19523
1.92212
2.10536
4.03695
3.72084
3.89977
4.28384
2.00386
1.81383
4.86786
4.12699
1.64541
1.83628
1.71867
1.88124
1.89166
4.79504
3.7828
4.0541
1.87003
1.66273
1.82704
6.51959
5.66541
4.78261
3.95225
4.01469
2.61437
2.61261
1.69922
1.87323
1.85625
4.24653
3.7897
3.46821
5.74307
4.62857
5.19062
4.23776
4.16913
1.8506
1.6416
1.84765
3.33848
3.13243
1.70761
1.90118
1.88624
3.20444
3.94255
3.60854
4.08223
4.60805
3.6337
4.1132
4.24846
4.19033
4.79795
3.73561
3.94973
1.75166
1.93513
1.90621
5.0123
4.0727
4.10854
1.85624
2.03859
3.74362
4.35171
3.23075
4.34923
3.51316
1.98281
3.93362
3.77781
4.50498
4.21782
4.31708
3.49354
3.80119
3.6695
3.48121
3.74322
1.81862
1.94134
3.88766
3.0327
3.04285
1.77068
1.8925
1.77261
1.88981
3.20964
2.45841
2.49374
2.12283
2.04098
2.10572
2.94928
3.15381
2.96682
2.98558
2.113
2.93443
2.8609
3.034
2.44617
2.3441
2.95591
3.04831
3.1435
2.31369
2.73217
3.00147
2.80242
2.78826
2.74343
2.30587
2.67095
3.10597
3.14058
2.80847
2.50389
2.96117
2.93362
2.95351
2.76721
2.73748
2.68433
2.06914
3.04076
2.98113
2.4604
2.0697
2.07637
2.71985
2.96115
2.9427
2.93774
2.93831
2.86286
2.8652
2.8991
3.03664
3.22024
2.44271
2.77964
2.0714
3.06594
3.0665
3.23649
2.44005
3.17597
2.50163
2.701
2.79764
2.64245
2.72589
2.09093
3.08426
2.27837
2.74954
2.50134
3.05716
2.65529
2.58126
2.30434
2.51585
2.58964
2.53144
2.26262
2.29231
2.60313
2.39358
2.08218
2.08422
2.58523
2.17254
2.33032
2.83407
2.46691
2.67191
2.92192
2.75312
2.71225
2.7151
2.46077
2.87321
3.03307
2.98678
2.94732
2.45632
2.33742
2.68928
2.68265
3.00886
2.86451
2.90522
2.97804
2.97529
2.97126
2.16729
2.19269
2.86032
2.49007
2.06092
2.87985
2.84885
2.71258
3.00764
2.96827
2.55866
2.53674
3.07488
3.04181
3.1115
2.88484
2.69099
2.96858
2.88064
2.89821
2.43087
2.88136
2.68634
2.50975
2.08139
2.84878
3.06589
2.72973
2.99464
2.98523
2.74839
2.71646
3.05202
2.43394
2.40322
2.43873
3.28023
3.02659
2.11803
3.32398
2.06786
2.68995
2.59302
2.25227
3.06564
3.04006
3.14685
2.81447
3.15968
3.13741
3.15191
3.15877
3.12941
2.84843
3.04302
2.10658
2.11252
2.6439
2.64233
2.60251
2.54415
3.06256
3.04167
3.0116
3.01059
3.17277
3.14694
2.80743
2.55186
2.30852
2.87065
2.65207
3.03254
3.02499
2.84289
3.1402
3.06966
3.15598
2.7955
2.77484
2.96143
2.15329
2.41101
3.0143
3.00601
3.03429
3.01845
2.97692
2.98168
2.11627
3.17604
3.22825
3.21143
2.72502
2.82781
2.88207
2.73172
2.84832
2.81845
2.87527
2.69029
3.36348
3.50675
2.73691
3.19994
2.35033
2.40233
2.35352
2.59215
2.0785
3.23812
3.01134
2.95762
2.44746
2.46048
2.50818
2.5219
2.49399
3.26726
3.47466
2.5174
3.13475
2.78206
2.80537
2.68039
2.77703
2.73907
2.74257
2.38367
2.28802
2.29079
2.3161
2.29359
2.66091
2.72782
2.78987
2.22053
2.41369
2.70238
2.50646
2.54597
2.99461
2.9049
2.88158
2.89986
2.45093
2.73719
2.70365
3.13796
2.94857
2.98454
3.0233
3.0048
2.49366
2.53916
2.0794
2.11257
2.12557
2.62297
3.04061
3.09927
3.04049
3.05942
2.96922
2.96045
2.97518
2.58071
2.5715
2.63374
3.20646
3.13348
3.20992
3.132
2.70778
2.65229
2.76393
2.93606
2.82878
2.86096
2.7941
3.15641
2.99617
3.38387
3.30519
3.55157
2.04254
2.76234
2.68168
2.68141
2.73324
2.79065
2.39123
2.40895
2.88766
2.97939
3.01957
3.00945
3.03326
3.17724
3.04399
3.00982
2.99437
3.05997
2.77667
2.65293
2.70135
2.64799
2.71054
2.68588
2.85733
3.19836
3.10486
3.15644
2.02119
3.05535
2.5549
2.41935
2.98352
3.00513
2.48877
2.35695
3.01154
2.97222
2.11671
2.96099
2.78855
2.78105
2.62337
2.98237
2.76078
2.72721
2.70459
2.86934
2.45175
2.58727
2.76464
2.92881
2.90599
3.07388
2.63471
2.6908
2.70399
2.06982
2.59227
2.6041
2.89162
3.01102
2.95221
3.0034
2.93623
2.88697
2.55483
2.50174
2.58382
2.44334
2.83831
2.97811
3.03205
3.05531
3.08612
3.13568
2.63704
2.86178
2.81161
2.58314
3.16001
2.60876
3.02308