/*--------------------------------*- C++ -*----------------------------------*\
| =========                 |                                                 |
| \\      /  F ield         | OpenFOAM: The Open Source CFD Toolbox           |
|  \\    /   O peration     | Version:  2206                                  |
|   \\  /    A nd           | Website:  www.openfoam.com                      |
|    \\/     M anipulation  |                                                 |
\*---------------------------------------------------------------------------*/
FoamFile
{
    version     2.0;
    format      ascii;
    arch        "LSB;label=32;scalar=64";
    class       volScalarField;
    location    "100";
    object      p;
}
// * * * * * * * * * * * * * * * * * * * * * * * * * * * * * * * * * * * * * //

dimensions      [0 2 -2 0 0 0 0];

internalField   nonuniform List<scalar> 
184166
(
40.9732
121.05
9.118
31.4079
57.8534
15.2817
12.6091
10.1403
40.1278
61.1704
21.9858
4.36167
6.33533
71.4932
53.9736
41.1234
27.3884
89.6119
17.7786
58.6804
18.7668
10.534
15.7915
63.2051
31.5368
52.2691
61.0313
12.1288
50.664
6.50675
40.388
125.608
47.7738
72.6964
26.5563
1.9388
6.13848
23.1527
66.1775
124.185
76.6752
2.49327
49.7338
83.6696
25.5659
77.6405
124.954
63.3281
25.4479
51.7905
14.4572
126.551
14.3363
34.8523
26.9665
10.869
24.2584
27.7679
49.2365
62.4878
3.37291
61.0468
39.249
13.9362
55.717
10.6605
120.389
56.1935
12.5713
58.2175
9.95411
64.8585
49.1225
38.1809
19.0078
19.9554
100.072
39.263
102.79
119.193
120.549
106.343
60.1214
12.474
42.0287
33.2968
18.2362
17.1767
85.0338
19.2945
11.589
56.2636
40.9899
64.5518
39.434
125.47
34.3027
127.023
17.3951
39.7595
6.36569
3.3497
40.0885
50.5079
12.9779
22.8578
40.5931
57.659
11.9818
3.86589
123.156
48.7939
127.637
16.3961
56.2173
69.045
52.2935
16.8402
121.901
122.445
40.3054
2.75006
25.1617
24.5686
21.6031
38.9106
25.7904
28.4131
47.3918
48.4468
6.56462
26.8683
77.8007
87.6663
23.0165
1.38827
22.1277
69.0491
84.825
17.7974
31.7522
13.1161
12.7034
2.85271
68.4864
57.3172
9.67687
52.2995
11.6352
56.6979
61.5122
57.4014
41.3008
34.8031
48.0407
50.087
42.3408
39.216
37.5077
15.9892
127.562
14.6555
9.77013
24.5615
103.989
27.3523
54.5714
53.4063
11.6895
54.8169
28.2666
41.2281
13.0057
68.0512
27.545
121.762
20.6572
44.227
48.5275
69.366
11.5856
1.77337
74.6005
57.0753
60.1263
33.301
52.7054
64.1069
125.967
12.7519
87.9218
49.0643
9.21966
127.113
6.67305
56.056
53.2285
34.8419
13.004
60.3346
23.8193
49.6306
11.5613
90.7652
124.364
33.7465
5.35807
6.79402
81.0503
30.3098
48.8408
9.59011
7.31246
65.2375
114.59
24.6991
71.7208
16.5609
15.108
123.88
105.275
11.1427
11.2829
3.65412
125.03
5.65884
21.1139
25.116
30.6626
9.84496
52.1016
109.036
25.1483
2.10454
41.4518
4.26211
51.4224
49.6063
3.01091
126.558
127.742
40.2515
33.2895
49.5319
14.6714
60.1199
52.4702
5.74909
71.5456
62.5614
67.0798
60.4478
49.4327
5.93171
66.7742
45.6614
54.0467
53.3809
82.3888
2.10324
66.4956
123.809
26.0439
80.1153
47.0895
32.0949
41.1381
21.665
32.8196
65.1254
52.5481
15.9902
68.2582
49.9252
2.34475
93.3431
126.371
54.14
105.995
56.9365
6.14319
48.904
52.0844
29.9027
124.781
7.68483
9.00208
55.2676
92.9818
8.25529
63.6729
64.4721
50.5926
28.8226
46.64
65.1127
11.708
39.313
69.7484
56.3984
26.0623
10.0891
15.4485
53.1921
61.9911
75.8216
28.7062
4.54466
20.0406
12.0084
29.0845
50.9113
49.0664
57.845
55.4562
56.4917
96.6835
64.6365
22.7999
65.7831
19.4669
21.2327
71.9931
63.0991
91.5551
12.8374
88.6634
97.5862
6.25884
25.3575
24.8419
16.6703
16.2022
48.5239
12.1385
81.4335
6.01601
9.46408
56.2817
62.2388
87.2873
43.5759
54.453
64.7437
83.6639
61.8227
116.744
12.0637
29.475
14.2104
124.957
26.6924
50.3841
121.883
20.3164
59.3364
45.8277
83.5295
57.8206
52.2783
105.641
11.4351
48.1181
107.442
40.0464
66.8236
12.3839
117.01
119.91
11.7133
126.131
51.5188
50.7512
65.6918
69.4956
69.5982
7.58097
52.6229
0.881898
59.4148
59.0812
58.4097
48.2311
48.4505
41.9429
71.7137
67.6465
108.988
29.8737
31.181
37.2028
41.8131
40.061
127.34
11.8223
11.6135
67.8618
89.0416
11.6087
82.3161
52.3119
6.68835
47.4695
15.5067
14.5541
81.5053
70.7076
68.5166
52.7618
103.896
95.4295
22.3797
22.7162
20.1959
20.2715
118.643
24.1012
20.7252
18.8733
15.8373
48.7756
71.8011
75.0447
71.674
67.8781
11.9756
12.9765
14.3664
7.94276
8.72102
9.13717
120.264
47.9093
47.8235
46.9186
45.878
45.4896
44.6729
30.3767
31.2764
9.55217
10.236
10.0535
9.26403
10.8998
11.0934
11.4371
10.5687
58.7727
58.2427
57.4665
58.5575
56.7335
56.9001
55.3591
23.671
22.452
23.1546
23.9394
76.0677
1.63554
123.557
125.138
125.757
125.486
120.366
125.947
122.891
13.7538
13.4591
15.0346
14.2752
23.1402
24.0025
3.59373
6.7223
8.38645
9.26508
46.1224
48.2074
47.2534
48.1585
11.62
11.6567
2.12603
3.22314
2.74335
4.82129
3.92844
4.26777
63.3697
5.17386
5.92396
5.88715
125.807
38.7239
34.5635
32.9662
35.8975
37.2284
35.683
35.8018
22.4043
21.4634
22.8803
22.2623
19.8563
20.0533
22.6182
36.1415
35.6733
11.8324
11.7197
126.831
84.3177
74.5018
74.5761
51.4136
49.9714
51.165
50.6762
58.1253
62.0014
15.3731
16.2302
15.4645
14.9985
80.2059
78.5781
69.6701
74.9249
55.0669
54.6585
53.9896
64.4752
60.261
62.0652
43.4211
42.972
42.9596
42.0362
42.0622
41.1289
38.5769
38.126
29.1474
27.7547
16.9579
94.0483
107.417
112.566
99.259
107.067
99.8861
102.545
111.228
103.784
118.409
122.013
37.8538
35.6281
37.3167
36.4656
32.9152
35.0698
34.4451
33.844
39.3436
36.8724
52.5323
53.4455
53.74
61.7665
39.2607
63.2798
122.514
112.576
11.6236
11.5356
12.0821
11.7031
44.9096
42.1069
65.2512
72.1456
68.9027
72.9872
61.5076
66.1448
34.8895
33.7543
47.625
46.5454
46.2247
124.752
17.4991
16.5476
16.9045
32.3539
34.526
33.2256
34.359
34.9419
37.0476
35.771
36.9563
20.4522
21.1885
21.8064
2.37461
125.691
126.04
125.828
56.4951
59.7363
59.848
58.2809
62.8638
58.9933
63.1566
61.0958
7.60387
8.68054
7.25549
8.01377
66.3185
62.8504
15.1609
10.5551
10.7663
11.455
82.9985
75.0796
69.63
65.0114
3.26395
1.82105
25.568
24.5408
24.7985
54.95
14.7816
57.854
55.7504
56.6639
57.7405
60.2893
58.0088
59.0793
60.4145
15.1694
17.9736
10.1709
11.3318
10.6024
10.0736
10.1049
36.4999
36.2119
35.3552
34.1112
33.7216
32.7535
125.955
64.2375
70.3174
63.9189
66.762
3.14078
14.3163
15.511
15.2656
57.199
56.8537
56.193
116.817
126.322
125.648
119.707
120.981
125.592
58.2323
124.37
122.041
36.8504
36.7712
35.8955
1.60933
2.01634
2.27123
2.45036
1.3799
1.21961
54.9767
52.9018
53.7281
54.8066
54.0771
53.357
19.7433
19.8907
42.768
37.5497
33.8517
35.0886
19.8123
27.6212
37.0588
36.588
59.7798
58.3403
58.3995
7.83276
7.35974
9.091
7.99081
24.7927
31.6491
56.0828
54.7608
55.848
98.1726
92.4
15.8385
16.778
16.8827
47.5702
22.0326
23.4947
65.0471
62.9746
64.8682
63.0632
67.0988
66.6691
8.85123
11.1129
11.004
44.7166
37.3369
41.7815
44.4536
1.08788
108.69
126.997
126.331
126.742
43.2118
29.7586
20.5333
27.3241
42.0323
35.7357
56.8218
56.2019
84.5333
78.8854
83.2237
79.1538
23.7801
21.391
24.2069
22.7116
1.78918
1.03309
1.2305
1.0168
1.60433
1.79851
5.62828
5.63131
5.6721
56.048
29.5334
1.01749
1.35319
1.04333
58.0166
57.1584
57.1538
57.0135
50.092
49.5998
50.3986
60.1528
21.3601
21.6986
20.8379
110.814
108.201
11.5174
11.5842
11.5756
11.5936
103.111
112.65
114.861
116.49
120.685
123.572
20.2041
21.0876
59.7221
60.2343
61.451
61.332
84.3985
77.8835
76.3612
36.1294
2.7662
3.1628
2.37732
2.47683
124.311
125.212
41.8065
42.0539
11.9423
12.9153
12.2669
11.8022
40.1765
14.8702
19.6543
15.4407
17.2868
9.02816
9.98746
9.3744
8.35035
32.2902
81.5755
76.7864
81.7588
78.0096
21.4108
21.5751
37.0996
20.5234
18.6841
20.8028
18.7281
82.0037
96.6551
11.8335
22.9851
23.7134
61.5987
4.76967
1.57018
22.3746
20.3133
21.3714
22.8202
11.6104
11.5628
62.4818
63.3157
41.7813
51.0623
44.9695
50.6785
127.182
127.591
21.0327
21.6483
41.595
44.0252
42.8491
110.147
83.9687
99.6393
85.9103
126.882
125.972
44.957
44.9945
46.9055
46.0036
47.1604
45.9267
14.3425
18.1269
26.0888
24.7006
42.1513
48.0743
39.0729
42.1853
118.948
119.597
39.4117
40.4473
54.2251
54.3095
17.4118
16.4562
16.079
16.8097
59.079
58.1646
57.9764
108.093
88.5185
101.401
9.30383
8.53707
9.0615
8.4408
22.9313
23.424
77.4124
70.24
68.7476
65.1109
63.4266
67.9311
65.1682
45.6332
43.4876
42.9204
41.8603
62.0535
60.5309
32.6706
30.996
26.0945
27.4178
4.46433
3.26979
3.65794
4.23305
4.29235
4.68411
98.6509
8.69018
8.81366
8.13581
7.37833
84.0697
69.8837
70.1169
80.1441
87.699
84.7018
97.967
52.8565
51.6677
52.1773
53.1205
14.6653
13.7653
16.1022
15.5916
14.2649
17.9534
18.6322
19.3247
34.2768
33.4408
79.1906
80.5602
69.894
67.1835
25.096
24.0447
24.3547
38.1079
37.0477
3.73636
3.70169
18.9989
4.52254
3.54529
3.28606
2.12785
2.7739
64.0397
60.4545
60.9882
63.031
40.9845
41.0666
40.3991
40.2238
60.7217
66.7839
69.5447
71.4881
13.3485
15.3473
16.007
17.5637
14.6088
34.9658
34.2255
35.8742
35.0036
13.1285
15.4742
12.9972
117.576
56.9695
54.9418
17.6088
16.3078
45.043
43.3734
24.9109
25.6355
16.293
16.7189
17.3691
16.6539
118.028
126.6
127.054
126.413
49.1668
49.3719
51.2849
50.4398
58.7769
57.8593
58.1832
68.4355
64.6456
64.4676
69.235
62.2764
62.7309
48.6122
36.4321
41.9273
29.9921
8.87541
10.619
9.34034
10.0767
71.9209
79.4515
72.452
83.684
77.8292
92.4677
95.7419
79.7796
88.8521
45.2771
49.7049
37.9416
39.7493
47.8118
21.2744
20.4399
39.5708
47.4833
46.5635
46.6072
46.3078
13.5026
126.998
127.345
14.7212
14.4429
60.5537
63.6804
59.0336
58.2095
6.56398
7.58484
111.465
124.032
84.1959
2.86734
2.58731
44.9367
42.9374
2.27727
2.97197
2.48718
127.287
127.153
126.948
49.8545
50.9653
51.4173
50.6263
123.32
123.098
34.2083
34.5407
29.9997
23.4215
24.6515
46.5214
46.171
50.5913
50.8855
52.0148
11.533
11.5443
11.529
11.5506
11.5826
95.1277
5.2594
82.8447
82.5958
92.6078
87.8756
27.2634
17.7965
18.5716
18.112
17.4446
71.6012
50.605
51.3262
52.272
51.7446
8.58766
7.8786
8.38238
7.7171
2.48254
1.82478
59.5402
60.6529
57.9624
57.5847
50.6612
52.9458
47.2982
30.3205
30.4631
27.4909
31.179
15.8992
17.5194
25.0897
118.649
99.5449
111.266
116.177
105.167
5.09057
5.77717
60.6899
12.9339
14.5806
13.5542
14.6703
26.8804
26.7746
25.4576
11.8111
11.7374
11.744
11.8175
28.4908
25.5106
19.995
14.3355
13.3603
11.5872
11.649
1.56648
1.71692
2.48237
2.03964
2.54274
66.4476
23.745
20.3176
126.278
127.092
125.79
127.819
127.627
80.3663
82.9229
18.1877
17.3458
17.8741
17.0785
67.7519
62.9983
3.86755
3.36119
3.38233
125.04
118.929
0.977127
1.17192
12.6434
12.5787
13.0166
46.7952
48.7409
48.0811
59.8053
63.5965
61.667
59.7652
62.358
63.883
126.273
16.952
14.5749
108.813
112.049
99.383
97.6494
118.488
119.902
11.1723
12.2409
10.9136
11.4872
14.0938
13.9388
14.5908
14.6604
27.5285
27.2057
24.8738
25.8695
22.6114
26.4439
22.7222
24.8926
3.4934
2.68915
104.962
111.28
98.4258
70.9388
79.4592
75.8831
82.2075
116.178
93.4582
99.0055
48.4129
36.0229
41.8326
29.2118
73.7734
74.038
51.4679
71.9171
75.1884
78.84
13.6593
15.6594
52.7437
52.5415
65.4917
63.9189
65.6424
64.2425
75.7895
77.6717
75.6735
20.8753
21.3165
20.1599
63.7323
63.0395
68.5633
65.2778
43.3502
42.6467
6.78896
6.99854
126.191
125.939
126.517
11.9839
11.8746
126.617
125.794
126.861
7.52059
7.06405
7.09356
8.27584
7.76217
22.8754
22.8854
23.6998
22.2189
22.3032
56.4146
56.9217
54.2555
55.3099
18.0044
17.9949
11.6117
11.6195
11.714
11.7904
11.7859
14.0028
14.7419
56.4313
56.3439
56.0415
37.4911
38.5144
38.0056
37.7643
38.5679
66.5821
29.9647
29.0224
28.7367
15.7618
16.388
16.9267
75.2524
84.2426
82.823
74.0244
78.23
59.2817
57.4423
60.946
60.6061
67.0421
73.1812
79.8556
43.0798
44.1126
41.9713
41.8272
64.6658
126.111
20.0535
20.1814
20.9389
20.8261
58.4908
57.6893
59.2571
58.0121
59.1615
11.0555
10.5981
127.688
127.833
127.669
127.513
127.696
12.1102
29.272
28.684
78.1132
82.3055
88.5096
12.6102
15.9038
16.5443
20.2241
29.5438
21.1328
122.876
119.136
113.619
113.597
123.296
119.814
27.7656
27.4009
27.8731
127.438
36.3905
31.4775
25.2552
13.9771
14.0558
13.8756
106.516
102.349
109.214
53.0475
44.0294
1.52637
1.84829
7.40457
6.67342
7.07216
6.37916
7.95316
7.40523
18.7589
18.1857
19.2657
49.7158
49.6249
51.0864
1.61614
1.25369
68.9924
77.1192
71.7908
78.6255
11.7012
11.626
5.21914
66.4543
55.645
55.397
54.8268
10.4377
10.106
9.80234
127.531
127.108
127.671
127.442
127.14
16.5146
17.1728
11.7454
88.9694
109.036
28.7698
29.1327
24.1821
29.3127
25.8015
22.4907
30.9736
32.1206
32.0081
61.9658
62.7476
62.9569
47.3008
47.8659
127.778
127.768
127.624
127.735
127.854
127.748
53.2526
13.2683
11.3716
127.554
127.306
127.13
35.0925
36.6383
31.4502
28.145
45.3076
19.9587
23.6442
18.3507
15.9971
23.3415
21.1448
73.0315
71.2459
69.669
67.0408
67.0874
20.8244
20.6323
14.491
15.9398
68.8846
71.4492
69.6446
72.0231
27.879
31.1315
31.9599
32.2276
27.2387
28.789
18.8451
21.4272
21.4154
17.8293
19.2128
4.05053
2.95616
3.99742
3.47928
3.07742
3.5566
36.1211
36.9282
36.5533
35.2961
35.5207
111.757
113.063
92.155
102.754
86.9199
99.6453
78.1785
81.257
74.3728
75.2525
7.00383
8.13837
7.25202
65.533
73.7981
87.9536
81.5191
127.816
127.787
19.3
18.3983
30.2207
29.0045
30.4208
28.9213
11.5507
11.5601
11.54
11.5762
11.5802
43.4153
44.7779
53.507
53.8247
54.3528
95.9018
103.691
105.987
123.942
122.716
124.882
124.814
11.5124
11.5047
11.5792
11.6235
31.7455
35.2908
36.2142
35.3669
29.4965
30.5455
52.0539
26.5796
26.6853
26.2228
25.6486
25.3672
41.1977
14.055
20.3165
12.6846
15.6786
66.109
69.586
66.5635
70.847
68.5919
127.597
127.64
127.829
48.8482
49.473
1.47127
1.30317
32.1631
18.8475
25.8874
26.7925
20.3121
40.366
39.9713
41.4581
42.2491
40.6607
39.9224
68.6498
63.0193
63.9964
65.2179
15.5879
15.0023
25.6635
27.8471
20.4102
45.0343
77.4676
81.8053
83.8249
101.844
1.45902
30.8887
30.5242
11.7353
14.8638
13.6369
13.4957
14.2792
13.193
13.5659
11.5978
10.329
14.1317
10.6578
12.0302
13.1969
12.4409
12.9248
12.0215
13.3372
12.4901
13.1969
40.0079
34.7112
78.7584
27.2969
27.5373
56.5247
11.818
11.874
11.7463
11.8166
61.1757
62.1203
62.4637
60.9164
61.7619
98.8974
109.896
43.8685
43.4384
42.468
19.4764
18.4209
16.1356
15.4607
28.0919
30.4448
32.8775
33.7332
1.30988
1.1902
61.3635
60.3885
18.835
18.2074
17.5482
81.8343
70.9913
71.1978
87.8719
80.6225
46.7312
46.6457
47.2344
60.2965
59.4589
125.726
125.513
55.8233
56.0114
54.4467
54.8888
55.3475
54.7639
19.6315
19.8255
18.955
18.4632
18.5781
19.2155
55.2864
53.7977
54.605
53.8434
47.1534
49.1162
47.3058
48.1959
11.4557
11.7306
11.7063
11.6662
57.278
55.9981
60.2224
61.0131
58.3043
55.1708
54.5009
54.9731
45.7386
44.1138
45.1465
44.1796
44.9835
37.9454
33.2413
27.489
28.8351
109.61
108.579
117.665
120.57
119.201
114.082
98.3967
93.688
84.8304
86.0994
24.6187
25.1744
125.515
125.447
39.0191
38.7427
125.392
124.015
124.127
125.385
125.043
124.663
17.3445
16.1205
17.8763
125.549
125.416
122.614
125.386
87.662
87.3012
93.6793
99.7525
61.2705
60.2591
65.3874
63.7294
63.1146
61.1315
56.7764
58.1313
59.3961
57.4325
59.2136
6.6587
5.9441
108.609
115.585
116.872
57.6181
58.4798
58.7471
59.4836
7.80281
6.89517
11.8272
11.7216
106.314
101.915
88.814
14.5705
13.6276
13.4762
16.5471
15.5144
45.4099
44.1894
44.3565
51.4402
50.4748
70.3543
68.5381
124.618
119.743
124.667
123.71
118.417
13.243
113.467
104.806
100.937
109.112
124.907
124.709
125.625
66.239
75.0358
69.4258
75.2628
67.8678
93.5408
96.8151
105.883
55.6841
55.937
56.6627
56.2504
117.539
97.4807
108.963
107.054
115.556
17.893
13.398
22.7082
21.8121
12.8988
13.7676
23.6093
22.9159
55.8956
54.7196
56.1168
45.3747
30.929
39.0284
38.6513
38.7489
37.6529
51.9203
53.1312
52.9457
105.814
109.272
118.396
121.639
111.796
119.774
72.5931
71.9646
70.4188
69.9966
14.9674
14.8344
13.3632
13.2205
12.5935
16.8713
12.3944
15.0248
90.1119
72.2013
91.1067
81.4784
64.3152
64.8823
74.8548
70.735
75.9613
8.04455
7.70907
7.37501
72.8436
70.6749
66.2942
63.2448
11.538
11.1443
11.8051
11.6885
4.49645
5.18088
11.7034
11.748
64.347
65.1723
64.1357
13.0422
11.8482
11.8501
11.866
123.321
127.625
126.961
11.3265
10.2095
8.33142
9.20998
9.33366
8.72994
24.3655
27.6544
38.3664
127.808
16.5976
15.1477
14.1969
16.7259
15.1723
14.3375
17.2541
15.4755
17.4963
15.6807
21.5013
21.0913
24.111
22.1316
21.5739
11.2987
11.9105
11.2448
24.2386
23.1228
24.5406
23.3528
21.9397
21.9159
65.6432
65.5867
68.1997
66.5938
67.8931
66.2899
43.0708
52.3714
50.341
46.5001
50.1734
3.67614
3.27363
3.1425
3.4732
3.84628
97.4991
106.453
105.364
94.869
100.031
53.235
51.5878
55.3994
54.0123
55.6395
55.0381
54.4492
54.7748
53.8034
53.7955
54.4007
46.8844
48.7498
48.0114
47.9813
47.1961
6.89334
8.26576
7.43591
7.87855
7.10296
60.8713
62.2157
124.358
113.668
108.399
107.15
92.497
93.5225
15.7132
14.0531
14.4536
57.7771
58.4648
58.4651
51.2015
77.4597
82.5429
67.5857
67.0758
79.6294
73.0967
71.0624
77.1903
7.73282
8.81258
50.9961
52.6241
52.7463
51.8024
31.8683
25.8629
16.2273
35.7276
15.7869
24.6096
26.4061
20.6501
43.0584
42.4366
41.9613
49.8555
16.3285
23.5122
26.4014
82.735
77.4288
90.2097
92.6435
72.7136
71.5402
57.4099
59.5342
59.458
48.5707
48.5073
35.115
40.5233
33.4986
25.966
58.9402
60.3431
59.0322
59.6441
50.9833
49.9259
50.5776
51.5754
49.6611
47.918
49.2034
48.5692
47.609
89.2999
93.5187
42.7469
123.58
121.626
112.973
115.394
5.27164
4.35561
4.16633
4.78264
2.73548
2.87673
97.7901
92.2618
87.1379
96.0938
88.3289
29.7539
29.15
29.701
5.24127
5.7619
5.50561
4.99481
6.11774
6.39432
32.5286
33.1039
33.4917
32.844
31.9113
32.009
43.8727
45.3285
43.8481
44.8714
44.3495
44.8783
45.9241
46.2299
46.6473
45.1928
44.5762
54.8376
54.8
55.1591
1.93031
114.906
59.5765
58.024
7.20368
7.85539
8.15887
7.59413
7.01404
9.71692
8.66167
8.40426
9.82492
9.0303
10.3378
9.32702
8.81182
10.1635
9.14074
12.3918
11.9723
12.2366
12.9613
11.8982
11.8416
106.632
125.704
124.909
120.405
121.211
123.325
26.0248
55.9953
55.3513
54.4063
55.9671
54.8445
127.806
37.5113
38.2978
39.0766
37.7335
38.4811
57.9746
57.0297
56.9938
57.7617
58.2915
6.00954
5.13573
7.97358
7.06368
7.54593
105.964
101.351
88.3666
91.779
127.49
126.265
123.495
120.818
126.87
124.489
21.2008
19.8163
18.5994
16.3597
17.058
15.6543
17.9021
17.4886
126.238
126.049
126.626
11.6804
11.6787
63.9935
60.591
61.7714
62.9094
61.2525
51.7098
57.1011
58.9002
57.5638
60.9276
63.7247
61.745
54.8385
55.7446
54.9875
70.7309
64.2597
65.984
122.883
125.62
16.466
16.988
15.8504
17.9826
17.4
11.518
11.626
28.769
20.9137
16.5267
27.8386
13.2102
13.5147
57.3062
56.8586
56.5031
57.2173
56.5159
8.14322
8.79347
75.5035
72.2788
69.4974
70.8984
74.9397
6.37794
5.78996
6.19688
6.83338
6.95529
58.3552
57.1717
16.3285
15.3968
13.9062
14.9825
13.7824
27.1721
26.3297
26.3203
26.3774
26.4143
25.4849
10.4681
12.4449
11.3423
13.5631
12.6282
12.3147
11.2219
13.5497
15.0541
9.43131
9.19125
8.64996
5.43576
5.19598
4.80408
4.87754
4.55673
57.518
58.403
59.3672
57.5963
60.4666
60.9874
59.0952
57.5536
24.5959
25.3862
26.9021
12.7589
13.7135
12.9793
12.5361
13.4843
13.9578
12.8739
12.1134
12.4684
11.9
11.2831
11.7083
11.6399
111.607
116.157
111.903
17.7845
19.1514
19.2702
38.0408
39.4893
38.4734
39.581
37.9688
38.5414
35.1842
36.3209
33.6844
36.0286
33.9125
31.3556
31.2479
30.9172
30.1909
30.4502
11.826
11.8198
11.8338
12.4443
13.1251
13.9561
65.2714
64.9199
63.9921
67.3519
67.2288
125.589
125.71
55.3639
55.1164
53.0418
54.4027
125.174
124.649
125.31
55.4387
55.5086
32.3232
32.1648
32.8814
29.0796
30.0953
33.5126
34.408
34.084
33.4731
33.133
19.5718
15.4969
24.9498
18.5694
20.7107
26.1111
22.1665
29.0787
27.6156
122.945
119.625
114.883
63.3588
62.7466
62.068
122.274
120.299
124.397
112.631
112.582
4.08094
4.00368
6.30317
5.22181
4.3926
4.61215
5.15476
4.83722
59.6716
59.5666
58.3737
61.8961
62.0119
60.9427
55.0162
56.8578
53.3144
52.182
57.0944
56.5617
11.5318
11.7669
11.9758
11.686
11.5153
11.5889
40.7967
33.1491
35.9154
42.6747
26.2271
23.703
59.2831
60.3838
61.8242
61.8876
59.9586
59.0647
53.5661
52.7404
52.4073
91.0198
93.4416
103.627
11.864
11.788
11.8639
11.8729
11.6782
11.5542
22.7097
22.0938
35.8223
38.7003
39.1703
34.0727
33.0746
12.9318
13.8976
17.2018
15.0058
18.8364
118.456
122.958
113.89
101.988
108.594
117.086
122.844
124.501
118.239
122.276
127.132
126.782
18.4965
17.8206
15.5499
15.6555
14.6511
4.51904
3.80984
5.89006
5.23471
6.62315
5.30488
6.05778
3.77883
4.10303
4.10708
4.91393
4.882
43.3504
44.3645
43.5631
42.4837
27.7612
27.5173
24.2287
25.2388
26.3409
24.7874
1.54411
1.84013
55.4298
56.6133
55.9566
55.4071
56.1753
56.3974
43.5424
42.6015
43.7612
14.9472
15.7653
13.4517
13.0275
13.6233
14.8621
13.7649
14.1245
13.2116
13.4616
13.05
13.0294
12.5219
12.5142
11.9565
11.6516
111.891
104.752
105.319
121.229
121.782
115.514
112.786
116.691
99.588
101.004
22.1529
26.4266
21.0474
22.2488
23.3083
47.7451
48.6961
46.4062
30.3994
32.6469
32.7937
108.68
114.592
113.07
29.44
27.316
28.1802
46.0042
47.1256
47.3387
45.5223
45.0408
65.7407
64.5488
62.2927
64.0536
62.2395
58.1105
59.1994
59.6691
58.7675
57.9039
18.5204
14.5047
12.4711
123.395
124.642
95.639
88.2522
86.919
38.1976
39.2064
41.3419
5.40626
5.91508
48.4633
45.1303
45.3494
49.0921
50.6844
10.8249
9.96774
127.803
127.852
127.761
127.794
127.809
5.55187
5.45415
6.00185
6.43467
6.4926
29.6926
28.8451
37.6669
36.7666
37.5984
38.8129
39.2144
1.44366
87.4472
94.7137
88.5932
93.5994
99.6818
100.023
9.69817
9.73179
97.9631
99.5437
85.6971
54.9368
54.0067
52.9084
54.2397
53.5474
65.989
61.5404
69.5437
61.0638
60.3053
63.6005
66.191
10.643
10.4022
11.0845
12.95
14.4264
11.1565
10.1108
9.66672
11.621
10.8113
10.7839
14.2378
13.325
31.1058
31.1416
30.1221
29.6302
30.0413
30.474
29.8224
17.2839
18.6464
17.9441
32.2949
31.5738
31.9136
14.3747
12.1146
15.3785
17.0865
13.3271
12.0972
13.4187
9.2864
10.2084
9.80173
11.2644
12.3805
11.2501
12.0795
10.5616
11.6848
11.0657
10.7223
11.6133
11.8696
12.9277
11.6035
12.1903
13.4337
12.9571
30.2557
30.0283
30.9778
30.8932
32.5822
32.0148
31.4874
27.0361
26.6232
28.4668
27.7943
28.1315
29.0293
28.9675
12.8676
11.5982
12.1368
11.9193
12.6575
13.0973
14.263
14.5414
13.1526
15.6799
15.7504
17.426
16.7657
19.0622
18.0056
19.5386
19.0027
19.924
18.7555
17.9436
18.4994
19.8337
20.1723
13.5615
14.8267
13.0495
12.3029
11.6731
11.9341
12.6818
15.9061
13.944
14.9098
9.15483
9.45886
10.8073
12.1844
12.3619
11.6908
10.6115
11.3312
11.1749
10.1043
10.5081
19.6451
20.1529
20.5531
20.7617
20.318
19.491
12.879
11.8787
11.601
13.4042
12.7339
15.8422
14.7706
15.5034
14.2594
14.6576
56.5422
57.4568
57.0549
56.4783
57.5147
56.6154
122.472
118.916
111.733
107.036
107.508
8.13753
7.35759
22.9613
22.6843
120.916
121.918
125.341
125.384
53.9633
53.1546
28.6877
31.1666
43.8015
38.602
33.5786
42.398
3.89024
3.18863
12.5623
13.3983
28.5049
28.5569
27.897
29.4841
29.582
29.2973
29.6272
30.3756
31.0741
30.8966
2.34357
1.97978
2.48453
3.5953
3.82138
4.58847
3.9026
18.9554
18.3505
19.6949
107.051
125.257
121.298
121.612
127.181
126.335
63.3038
63.2842
64.9725
63.8946
67.1247
65.8801
19.2254
16.9333
23.8551
14.3724
14.2992
13.7497
13.7491
15.051
15.2094
15.0992
14.7043
14.4991
18.458
20.6167
4.59074
5.45228
4.75215
5.09469
5.56697
6.59764
7.24351
6.51667
6.95664
7.44196
4.51794
3.87289
4.54009
18.5676
19.4568
19.1701
18.9383
19.2012
14.6235
12.8269
13.0958
13.2891
14.2751
126.358
126.446
11.7709
11.785
11.7928
11.7512
11.7572
51.9661
53.579
6.63234
6.24231
10.811
48.9789
44.1538
10.4889
10.8789
11.328
14.1804
15.0989
16.0393
55.2277
53.272
52.78
53.6445
42.5712
42.1926
27.7619
26.9257
27.569
124.983
57.9039
58.5248
58.6237
13.9576
12.5744
17.3768
119.313
120.351
42.6377
42.8665
15.9777
15.8686
15.4348
11.7678
11.7729
23.0581
16.7349
124.228
125.261
90.2698
51.8737
53.2052
51.9646
15.7003
16.6215
18.1478
16.3297
16.537
91.5775
97.6085
100.162
49.6453
48.6076
5.15205
4.92455
6.0162
5.827
37.1956
36.9881
37.7765
62.456
35.9351
61.3092
131.812
8.09669
0.307788
0.510657
11.6973
0.467727
0.260138
14.8251
58.0206
0.379234
58.1496
0.322878
40.7951
23.1048
138.196
133.533
23.4959
10.5616
30.458
37.1657
52.6293
60.642
20.4208
18.2144
29.9252
31.0612
33.5045
37.0493
51.7302
46.7567
115.172
40.1198
51.038
85.0833
32.3197
50.0208
48.3249
54.626
44.3981
44.2567
39.3265
125.379
122.753
4.20862
42.631
99.7428
11.2474
49.8543
99.5171
63.9223
60.8289
64.2272
118.897
59.2585
60.295
53.3939
9.08391
8.52617
7.85322
56.348
50.7883
55.2289
0.396413
0.883777
10.2748
9.82554
10.9698
7.25032
6.47401
84.502
44.9649
50.5603
51.9644
47.6444
70.3714
79.2315
0.572701
1.0366
0.406213
0.256411
3.15868
3.79578
6.66015
7.68133
75.0589
91.9104
82.6598
46.4776
46.042
45.3421
46.7309
53.1946
54.2175
48.9637
40.0012
36.4694
38.9952
47.1235
43.546
46.5207
45.3412
46.0618
41.3467
10.4712
10.0074
0.803738
0.416599
10.3323
9.34898
9.01562
0.307189
125.57
137.45
124.056
64.8294
84.48
74.4326
11.7849
11.7477
11.5419
49.1738
55.1126
39.6604
41.5098
40.8022
38.3643
41.1269
45.784
59.6697
61.9647
22.0452
19.3041
20.643
35.9112
32.3161
36.6711
32.8439
30.3808
34.632
0.282871
0.604926
15.2468
13.7721
13.6307
34.5033
37.0438
56.1969
50.8088
57.0066
11.5479
11.5446
35.75
33.3687
35.1981
111.936
91.8759
11.8388
16.8059
0.522864
0.410567
0.280525
117.092
122.329
106.186
10.9316
11.416
17.5339
24.1348
8.79932
13.1918
31.2924
29.8169
11.8328
11.5893
21.8021
22.4107
22.7803
60.3514
60.1658
56.263
0.360981
11.5728
11.5625
127.559
127.658
20.8728
21.771
33.4623
31.4859
31.8825
58.0548
58.9974
25.3355
23.4782
126.702
10.2948
9.22393
10.4843
18.3344
25.4044
11.9874
16.1997
35.7968
39.3326
116.029
122.421
125.163
124.377
43.1214
45.1537
102.924
1.67161
2.35809
5.62222
5.25087
11.6609
11.5845
11.5752
79.9797
0.185499
0.555098
0.551353
2.98635
2.53724
125.212
114.06
103.826
10.2901
9.1454
59.7274
60.4282
64.0364
62.2792
14.6447
63.8768
75.0782
63.5054
126.054
125.493
126.275
11.5965
11.2576
127.708
12.2673
11.4833
28.3994
29.4187
35.781
0.827538
0.361593
0.638039
0.241357
0.823275
11.643
11.6127
5.08854
5.25297
6.30089
65.9487
67.7835
74.7474
64.1644
64.9932
16.48
15.9599
11.8592
11.7826
11.8601
60.5339
58.588
61.1836
18.5708
127.544
127.37
127.165
29.7578
48.1067
37.0197
98.425
77.0304
95.7677
125.446
86.9154
68.3169
83.5949
116
105.458
97.8709
20.3724
17.2378
44.6341
46.3026
42.7026
38.155
41.0561
47.4867
48.9834
45.8173
0.248276
0.714196
0.676833
16.3178
14.4966
41.9436
42.1642
43.3953
122.157
111.737
82.8317
92.7459
75.6116
0.823771
0.977223
0.730338
2.15465
1.27768
11.868
28.137
25.9606
55.0873
64.5204
63.8305
0.255066
0.797996
0.555527
126.954
18.7201
17.2343
16.8961
125.939
125.655
24.0368
24.1292
25.1749
11.7436
11.7032
85.1635
70.7181
67.6238
21.8001
22.1367
23.2216
37.7514
13.3477
12.6708
11.8517
11.8857
11.8204
56.3798
124.862
57.2727
58.207
51.9
47.4038
47.9904
55.6403
54.4752
118.807
111.144
13.1742
12.7209
13.6477
28.4003
121.011
124.761
26.6211
25.2117
127.88
127.774
126.485
126.145
126.69
17.8692
16.0853
15.224
11.4468
11.7468
11.8572
57.8883
54.5429
26.965
24.5695
24.1315
61.6028
56.9968
125.121
124.904
125.221
29.5861
27.4558
29.2039
58.884
56.6265
55.3715
48.4646
54.0247
126.762
127.204
127.329
108.794
93.2735
11.2454
10.9425
10.4009
0.837425
1.58531
0.463313
1.22476
30.3233
30.1645
28.6861
26.9856
25.8083
21.6886
19.8417
18.1423
124.822
125.083
125.1
4.5616
4.38153
3.76729
121.657
117.209
61.5961
60.2548
66.7853
80.9652
64.5188
124.531
34.9983
37.2668
47.8621
52.2312
49.6589
26.515
28.1092
28.7685
27.7214
26.8275
123.962
123.342
60.4924
17.5395
18.2412
11.6062
11.4535
127.79
127.834
61.8738
5.63279
5.71976
120.656
126.558
12.9685
27.0091
57.4528
49.172
31.3931
123.857
25.4363
52.3896
8.26694
5.95057
106.637
72.7604
82.2721
38.4003
18.2734
69.4007
23.2329
31.6626
15.2967
83.5949
98.3321
100.509
55.43
57.1576
61.883
111.446
28.1691
26.2536
27.2113
56.5203
88.212
119.62
11.7428
40.5126
29.0075
82.233
12.0834
11.8063
9.15548
27.7444
26.0071
24.3086
25.2731
50.9387
51.052
50.1859
48.0475
65.3092
6.5128
6.02105
127.661
58.9954
40.2783
39.3896
117.618
49.6306
118.963
15.7969
10.8652
9.42126
10.0427
11.9008
12.9698
110.273
4.27393
5.34855
42.6105
26.2032
24.75
118.2
112.426
106.789
109.395
122.065
120.881
79.9653
96.803
13.144
12.6357
27.3667
16.4293
20.7382
61.2875
6.34783
67.536
57.234
82.391
94.4394
88.6674
120.772
30.6505
30.7484
29.9396
29.6377
18.3757
9.97709
53.8407
51.359
38.9497
76.3865
61.2013
40.7826
39.879
39.7984
120.538
118.982
52.4582
7.6978
11.5503
4.96888
9.7601
31.7329
37.7401
37.1598
18.125
41.1598
53.9294
51.8197
50.8759
19.9175
26.4288
5.8386
6.61233
5.72695
86.538
9.57519
69.3921
114.648
11.8358
92.7234
37.9698
72.7911
23.8999
26.9258
38.8955
57.3276
13.9175
6.14701
6.57652
6.78396
44.598
49.2685
123.894
48.9474
11.6329
94.6739
108.092
14.9102
49.1633
49.4682
68.4214
83.9274
51.1357
50.6517
53.0044
51.7074
9.84749
16.5979
21.9293
12.2387
12.5673
101.651
113.706
108.704
115.201
11.6188
12.452
12.1305
12.7465
53.3743
52.2979
60.4357
34.6062
22.9639
56.9806
30.2303
60.9275
61.1038
55.2372
38.8299
40.0539
62.0273
55.4903
56.1676
48.893
125.196
17.8239
24.848
26.2971
25.5397
24.5885
28.0312
27.9222
124.386
64.6405
67.454
64.2469
96.1313
87.6308
81.2104
97.9636
92.0907
54.2519
52.8868
99.9172
50.4583
49.0385
56.8368
9.00877
9.14155
10.5251
9.68092
52.386
125.516
31.8675
34.8634
33.6909
2.87774
2.34638
2.48259
1.92894
1.37875
47.6642
47.9113
106.192
62.6547
55.3232
2.2956
64.3212
61.3345
63.1985
54.3525
33.449
124.672
123.167
124.373
122.94
13.0018
39.4254
83.1456
20.3665
125.706
126.76
124.2
123.889
8.68832
8.80381
8.07831
7.33337
2.73576
67.1662
65.0478
6.69692
25.6241
27.3673
25.9519
26.5795
6.31492
7.32855
11.5834
13.3731
12.9896
24.1797
34.825
36.5153
34.8434
35.9254
30.4234
28.698
29.6894
24.0738
23.2137
25.0264
38.6415
39.1523
37.5389
38.204
68.9162
68.6765
73.9754
60.2136
63.8061
60.846
11.6542
61.9623
57.8097
51.9431
53.372
52.722
11.6331
71.3198
68.3081
66.7689
1.9745
1.79031
6.29073
6.08173
4.13298
43.7099
45.3001
7.5379
71.7201
68.7219
64.3743
66.0735
63.6903
60.9052
88.4212
102.512
95.2768
101.98
56.7677
56.9431
60.2442
41.1253
40.617
40.2549
125.246
37.546
29.3805
0.883302
48.0254
48.3199
113.668
122.89
59.1322
59.67
119.85
48.6778
42.0132
97.4102
28.9149
43.1003
94.1281
106.719
101.007
49.8964
106.425
31.2007
37.682
40.0019
41.5889
40.3899
10.1372
11.8117
11.1981
11.6344
11.5955
11.1424
57.4692
58.3203
56.6381
56.8979
59.0349
58.4797
109.183
115.348
109.898
116.839
6.66038
15.4972
5.11931
73.2638
69.8211
71.7079
22.9735
27.815
95.4125
102.538
69.4914