/*--------------------------------*- C++ -*----------------------------------*\
| =========                 |                                                 |
| \\      /  F ield         | OpenFOAM: The Open Source CFD Toolbox           |
|  \\    /   O peration     | Version:  2212                                  |
|   \\  /    A nd           | Website:  www.openfoam.com                      |
|    \\/     M anipulation  |                                                 |
\*---------------------------------------------------------------------------*/
FoamFile
{
    version     2.0;
    format      ascii;
    arch        "LSB;label=32;scalar=64";
    class       volScalarField;
    location    "0.03";
    object      alphat;
}
// * * * * * * * * * * * * * * * * * * * * * * * * * * * * * * * * * * * * * //

dimensions      [1 -1 -1 0 0 0 0];

internalField   nonuniform List<scalar> 
3072
(
0.000276635
0.000596217
0.000642716
0.000643428
0.000639321
0.000614211
0.000598218
0.000669412
0.00115076
0.00157965
0.00172461
0.00178885
0.000447104
0.00130087
0.00185996
0.00209381
0.0018061
0.00105669
0.000918681
0.00162783
0.00198546
0.00317698
0.00434731
0.00607587
0.000573714
0.00213828
0.00290297
0.00306781
0.00268355
0.00244527
0.0023969
0.00334346
0.00511503
0.00751308
0.01009
0.0125751
0.000725584
0.00337089
0.00369662
0.00322874
0.00303656
0.00304686
0.00396433
0.00646138
0.00919262
0.012308
0.0152577
0.0178668
0.000858464
0.00398978
0.00405599
0.00365306
0.00364717
0.00442663
0.00663266
0.00991517
0.0130756
0.0162862
0.0192434
0.0218511
0.000988849
0.0045336
0.00458189
0.00431744
0.0047847
0.0066211
0.0097769
0.0130105
0.0161446
0.0192323
0.0220743
0.0246136
0.00110289
0.00512785
0.00555313
0.00559058
0.00680281
0.00955873
0.0126078
0.0155875
0.0185126
0.021301
0.0239352
0.0263564
0.00124408
0.00650982
0.00769551
0.0086523
0.0107248
0.0131966
0.0156966
0.0182198
0.0207592
0.023179
0.0254601
0.0275667
0.00140973
0.00888762
0.0116091
0.0138548
0.0159036
0.0177547
0.0195412
0.0213381
0.0231817
0.0249861
0.0267339
0.0284084
0.0016392
0.0106935
0.0147921
0.0175938
0.0196317
0.0211801
0.0225088
0.023747
0.0249558
0.0261636
0.0273938
0.0286771
0.0018521
0.00996967
0.0159771
0.0194444
0.0217168
0.0231027
0.0243535
0.0252358
0.0260366
0.0268395
0.0276909
0.0286287
0.00307933
0.00937456
0.0168397
0.0208786
0.0228541
0.0245932
0.0256871
0.026451
0.027052
0.0276159
0.028216
0.0289054
0.00183933
0.00186407
0.00187915
0.00188208
0.00188372
0.00185569
0.00181198
0.00173718
0.00163378
0.00149267
0.00128311
0.000610209
0.007783
0.00936271
0.0104732
0.0109578
0.0107544
0.0101916
0.00921963
0.00788181
0.00610216
0.00373312
0.00182703
0.00106099
0.0147154
0.0163609
0.0173946
0.0178037
0.017598
0.0168292
0.0154374
0.0134182
0.0107176
0.00734674
0.0032753
0.00141465
0.0200784
0.021817
0.023029
0.0236794
0.0237204
0.0230901
0.0216956
0.0194129
0.0160337
0.0115844
0.00577807
0.00172889
0.0240972
0.0259438
0.0273551
0.0282899
0.0286777
0.0283924
0.0272575
0.0250245
0.0212657
0.0158314
0.00852285
0.0020429
0.0268485
0.0287604
0.0303246
0.031503
0.0322278
0.0323899
0.0317787
0.0300137
0.0265149
0.0204697
0.0118471
0.00236592
0.028524
0.0304326
0.0320753
0.0334331
0.0344783
0.0351433
0.0352024
0.0341721
0.0312352
0.0251916
0.0153916
0.00270627
0.0294938
0.0312563
0.0328479
0.0342707
0.0355561
0.0366862
0.0374927
0.0374694
0.0355077
0.0297608
0.0188637
0.00308321
0.0299708
0.0314198
0.0328465
0.0342618
0.0356728
0.0371316
0.0385669
0.0395905
0.0389773
0.0340842
0.0220711
0.00350324
0.0299423
0.0311259
0.0323284
0.0337105
0.0352373
0.0369055
0.0387275
0.0405835
0.0414075
0.0381486
0.0258157
0.00395186
0.0297319
0.0310043
0.0320772
0.0331803
0.0346908
0.0364856
0.0384489
0.040677
0.0425877
0.0415892
0.0303147
0.00444915
0.0297942
0.0311241
0.0323647
0.0333348
0.0345658
0.0362861
0.0381319
0.0403251
0.042598
0.0435514
0.0350483
0.00502537
0.000276639
0.000596226
0.000642726
0.000643436
0.000639329
0.000614217
0.000598225
0.000669425
0.00115079
0.00157967
0.00172462
0.00178886
0.000447112
0.00130088
0.00185999
0.00209382
0.0018061
0.00105667
0.000918703
0.00162786
0.0019855
0.00317706
0.00434741
0.006076
0.000573726
0.00213833
0.00290301
0.0030678
0.00268351
0.00244526
0.00239692
0.00334358
0.00511519
0.00751331
0.0100903
0.0125753
0.000725599
0.00337095
0.00369667
0.00322877
0.00303661
0.00304691
0.00396452
0.00646164
0.00919294
0.0123083
0.0152581
0.0178672
0.000858481
0.00398987
0.00405606
0.00365315
0.00364725
0.00442677
0.00663302
0.00991554
0.013076
0.0162866
0.0192439
0.0218516
0.000988862
0.00453367
0.004582
0.00431756
0.00478487
0.00662151
0.00977735
0.013011
0.0161451
0.0192328
0.0220748
0.0246141
0.0011029
0.00512796
0.00555329
0.0055908
0.00680315
0.00955924
0.0126083
0.015588
0.0185131
0.0213016
0.0239358
0.026357
0.00124408
0.00650991
0.00769569
0.00865263
0.0107254
0.0131972
0.0156971
0.0182204
0.0207598
0.0231796
0.0254606
0.0275673
0.00140974
0.00888765
0.0116092
0.0138551
0.015904
0.0177551
0.0195417
0.0213386
0.0231823
0.0249866
0.0267344
0.0284089
0.0016392
0.0106936
0.0147922
0.017594
0.0196319
0.0211804
0.0225091
0.0237474
0.0249562
0.026164
0.0273943
0.0286776
0.0018521
0.00996969
0.0159772
0.0194445
0.021717
0.0231029
0.0243538
0.0252362
0.026037
0.02684
0.0276914
0.0286291
0.00307934
0.00937459
0.0168397
0.0208787
0.0228543
0.0245934
0.0256873
0.0264512
0.0270523
0.0276163
0.0282164
0.0289058
0.00183934
0.00186408
0.00187916
0.00188209
0.00188373
0.0018557
0.00181199
0.00173719
0.00163378
0.00149267
0.00128312
0.000610211
0.00778317
0.00936288
0.0104734
0.010958
0.0107546
0.0101917
0.00921974
0.00788189
0.00610222
0.00373315
0.00182704
0.00106099
0.0147157
0.0163612
0.0173949
0.017804
0.0175983
0.0168295
0.0154376
0.0134184
0.0107177
0.00734681
0.00327533
0.00141465
0.0200788
0.0218174
0.0230294
0.0236798
0.0237208
0.0230904
0.0216959
0.0194131
0.0160339
0.0115845
0.00577812
0.0017289
0.0240976
0.0259442
0.0273556
0.0282903
0.0286781
0.0283928
0.0272578
0.0250248
0.0212659
0.0158316
0.00852292
0.00204291
0.026849
0.0287609
0.0303251
0.0315035
0.0322283
0.0323903
0.0317791
0.030014
0.0265151
0.0204699
0.0118472
0.00236593
0.0285245
0.0304332
0.0320759
0.0334336
0.0344788
0.0351438
0.0352028
0.0341725
0.0312355
0.0251918
0.0153917
0.00270628
0.0294944
0.0312569
0.0328485
0.0342712
0.0355566
0.0366867
0.0374931
0.0374698
0.0355081
0.0297611
0.0188639
0.00308321
0.0299714
0.0314203
0.0328471
0.0342623
0.0356734
0.0371321
0.0385674
0.0395909
0.0389777
0.0340844
0.0220712
0.00350325
0.0299428
0.0311264
0.032329
0.0337111
0.0352379
0.036906
0.0387281
0.040584
0.0414079
0.0381489
0.0258158
0.00395187
0.0297324
0.0310048
0.0320777
0.0331808
0.0346913
0.0364861
0.0384494
0.0406774
0.0425881
0.0415895
0.0303149
0.00444916
0.0297946
0.0311246
0.0323651
0.0333352
0.0345662
0.0362866
0.0381324
0.0403255
0.0425984
0.0435518
0.0350484
0.00502538
0.000276633
0.000596214
0.000642714
0.000643426
0.00063932
0.00061421
0.000598218
0.000669413
0.00115076
0.00157965
0.00172461
0.00178885
0.000447102
0.00130086
0.00185998
0.00209382
0.00180611
0.00105669
0.000918693
0.00162784
0.00198546
0.00317699
0.00434732
0.00607588
0.000573713
0.00213829
0.00290298
0.00306783
0.00268358
0.00244529
0.00239691
0.00334347
0.00511505
0.0075131
0.0100901
0.0125751
0.000725583
0.0033709
0.00369664
0.00322877
0.00303659
0.00304688
0.00396434
0.0064614
0.00919266
0.012308
0.0152578
0.0178669
0.000858463
0.0039898
0.00405602
0.00365309
0.0036472
0.00442666
0.00663269
0.0099152
0.0130756
0.0162862
0.0192435
0.0218512
0.000988848
0.00453362
0.00458191
0.00431746
0.00478473
0.00662111
0.00977692
0.0130106
0.0161447
0.0192324
0.0220744
0.0246137
0.00110289
0.00512786
0.00555314
0.00559057
0.00680281
0.00955872
0.0126079
0.0155876
0.0185126
0.0213011
0.0239353
0.0263565
0.00124408
0.0065098
0.00769546
0.00865224
0.0107248
0.0131966
0.0156966
0.0182199
0.0207593
0.0231791
0.0254602
0.0275668
0.00140973
0.0088876
0.011609
0.0138547
0.0159036
0.0177547
0.0195412
0.0213382
0.0231818
0.0249862
0.026734
0.0284085
0.00163921
0.0106936
0.0147921
0.0175939
0.0196317
0.0211801
0.0225088
0.0237471
0.0249558
0.0261637
0.0273939
0.0286772
0.00185211
0.00996971
0.0159771
0.0194445
0.0217169
0.0231028
0.0243536
0.0252359
0.0260367
0.0268397
0.0276911
0.0286288
0.00307934
0.00937461
0.0168398
0.0208788
0.0228543
0.0245934
0.0256873
0.0264512
0.0270522
0.0276161
0.0282162
0.0289056
0.00183933
0.00186407
0.00187915
0.00188208
0.00188372
0.00185569
0.00181198
0.00173718
0.00163378
0.00149267
0.00128311
0.000610209
0.00778302
0.00936272
0.0104732
0.0109578
0.0107544
0.0101916
0.00921964
0.00788182
0.00610216
0.00373312
0.00182703
0.00106099
0.0147155
0.016361
0.0173947
0.0178037
0.0175981
0.0168293
0.0154374
0.0134182
0.0107176
0.00734675
0.00327531
0.00141465
0.0200785
0.021817
0.0230291
0.0236795
0.0237205
0.0230902
0.0216956
0.0194129
0.0160337
0.0115844
0.00577808
0.00172889
0.0240973
0.0259438
0.0273552
0.02829
0.0286778
0.0283925
0.0272575
0.0250245
0.0212657
0.0158315
0.00852286
0.0020429
0.0268486
0.0287605
0.0303246
0.0315031
0.0322279
0.0323899
0.0317787
0.0300137
0.0265149
0.0204697
0.0118471
0.00236592
0.0285241
0.0304327
0.0320754
0.0334332
0.0344784
0.0351433
0.0352024
0.0341721
0.0312352
0.0251916
0.0153916
0.00270627
0.0294939
0.0312564
0.032848
0.0342707
0.0355561
0.0366862
0.0374927
0.0374694
0.0355078
0.0297608
0.0188637
0.00308321
0.0299709
0.0314199
0.0328466
0.0342618
0.0356729
0.0371316
0.0385669
0.0395905
0.0389773
0.0340842
0.0220711
0.00350324
0.0299424
0.031126
0.0323285
0.0337106
0.0352374
0.0369055
0.0387276
0.0405835
0.0414075
0.0381486
0.0258157
0.00395186
0.0297321
0.0310044
0.0320773
0.0331804
0.0346908
0.0364856
0.0384489
0.040677
0.0425876
0.0415892
0.0303147
0.00444915
0.0297943
0.0311243
0.0323648
0.0333349
0.0345658
0.0362862
0.0381319
0.0403251
0.0425979
0.0435514
0.0350483
0.00502536
0.000276639
0.000596227
0.000642726
0.000643437
0.00063933
0.000614218
0.000598225
0.000669419
0.00115077
0.00157966
0.00172461
0.00178885
0.000447112
0.00130088
0.00185998
0.00209382
0.00180611
0.00105669
0.000918694
0.00162784
0.00198547
0.00317701
0.00434735
0.00607592
0.000573724
0.00213832
0.00290301
0.00306782
0.00268354
0.00244527
0.0023969
0.00334351
0.00511509
0.00751317
0.0100901
0.0125752
0.000725596
0.00337093
0.00369666
0.00322876
0.00303659
0.00304688
0.00396441
0.0064615
0.00919278
0.0123081
0.0152579
0.017867
0.000858477
0.00398984
0.00405603
0.00365313
0.00364721
0.0044267
0.00663285
0.00991537
0.0130758
0.0162864
0.0192436
0.0218513
0.000988858
0.00453364
0.00458196
0.00431752
0.0047848
0.00662134
0.00977717
0.0130108
0.0161449
0.0192325
0.0220746
0.0246138
0.0011029
0.00512792
0.00555324
0.00559072
0.00680303
0.00955907
0.0126081
0.0155878
0.0185129
0.0213014
0.0239355
0.0263567
0.00124408
0.00650986
0.00769562
0.00865252
0.0107252
0.013197
0.0156969
0.0182202
0.0207596
0.0231793
0.0254604
0.027567
0.00140973
0.0088876
0.0116091
0.0138549
0.0159039
0.0177549
0.0195415
0.0213384
0.0231821
0.0249864
0.0267342
0.0284087
0.0016392
0.0106935
0.0147921
0.0175939
0.0196318
0.0211803
0.022509
0.0237473
0.024956
0.0261639
0.0273941
0.0286774
0.0018521
0.00996966
0.0159771
0.0194445
0.0217169
0.0231028
0.0243537
0.025236
0.0260368
0.0268398
0.0276912
0.0286289
0.00307933
0.00937456
0.0168397
0.0208787
0.0228542
0.0245933
0.0256872
0.0264511
0.0270521
0.0276161
0.0282162
0.0289057
0.00183933
0.00186407
0.00187915
0.00188208
0.00188372
0.00185569
0.00181198
0.00173718
0.00163377
0.00149267
0.00128311
0.000610208
0.00778306
0.00936276
0.0104733
0.0109579
0.0107545
0.0101916
0.00921965
0.00788182
0.00610217
0.00373312
0.00182703
0.00106099
0.0147155
0.016361
0.0173947
0.0178038
0.0175981
0.0168293
0.0154375
0.0134182
0.0107176
0.00734675
0.00327531
0.00141465
0.0200786
0.0218172
0.0230292
0.0236795
0.0237205
0.0230902
0.0216957
0.019413
0.0160338
0.0115844
0.00577808
0.00172889
0.0240974
0.025944
0.0273553
0.0282901
0.0286779
0.0283926
0.0272576
0.0250246
0.0212658
0.0158315
0.00852286
0.0020429
0.0268488
0.0287606
0.0303248
0.0315032
0.032228
0.03239
0.0317788
0.0300138
0.0265149
0.0204697
0.0118471
0.00236592
0.0285243
0.0304329
0.0320756
0.0334333
0.0344785
0.0351434
0.0352025
0.0341722
0.0312352
0.0251916
0.0153916
0.00270627
0.0294941
0.0312566
0.0328482
0.0342709
0.0355563
0.0366864
0.0374928
0.0374695
0.0355078
0.0297608
0.0188637
0.0030832
0.0299711
0.0314201
0.0328468
0.034262
0.035673
0.0371318
0.038567
0.0395906
0.0389774
0.0340842
0.0220711
0.00350324
0.0299426
0.0311262
0.0323287
0.0337108
0.0352376
0.0369057
0.0387277
0.0405836
0.0414076
0.0381486
0.0258157
0.00395186
0.0297322
0.0310046
0.0320774
0.0331805
0.034691
0.0364858
0.038449
0.040677
0.0425877
0.0415892
0.0303147
0.00444914
0.0297944
0.0311243
0.0323649
0.033335
0.0345659
0.0362862
0.038132
0.0403251
0.0425979
0.0435514
0.0350482
0.00502536
0.01856
0.0192628
0.0209984
0.0228394
0.0244303
0.0259281
0.0269328
0.0276328
0.0281491
0.0286144
0.0290951
0.0296466
0.0299514
0.0273194
0.0264783
0.0265675
0.0271095
0.0276555
0.0281583
0.0288019
0.0293861
0.0298553
0.0303069
0.0308081
0.0377878
0.0347985
0.032633
0.0313504
0.0307421
0.0304856
0.0305868
0.0307765
0.0309854
0.031233
0.0317151
0.0323018
0.0401439
0.038085
0.0362004
0.0346307
0.0336186
0.0330065
0.0327414
0.0326573
0.032858
0.0331375
0.0335324
0.0341318
0.0304625
0.0317752
0.0330569
0.0340452
0.0351572
0.036603
0.0381428
0.0399568
0.0421346
0.0447355
0.0450174
0.0208317
0.0317371
0.0329891
0.0341508
0.0351979
0.0363131
0.0373217
0.0384532
0.0397377
0.0414091
0.0438253
0.048081
0.0348491
0.0334538
0.0344276
0.0354301
0.0363301
0.0372118
0.0379856
0.0388807
0.0398088
0.0409008
0.0425638
0.0464422
0.0415276
0.0353477
0.0361926
0.0369758
0.037697
0.0382562
0.0388369
0.0394744
0.0400798
0.040803
0.0416546
0.0437273
0.0425082
0.0185601
0.0192628
0.0209985
0.0228396
0.0244305
0.0259283
0.026933
0.0276331
0.0281494
0.0286147
0.0290954
0.029647
0.0299513
0.0273197
0.0264786
0.0265678
0.0271098
0.0276558
0.0281586
0.0288022
0.0293864
0.0298556
0.0303072
0.0308084
0.0377881
0.034799
0.0326336
0.0313509
0.0307426
0.030486
0.0305872
0.0307768
0.0309857
0.0312333
0.0317154
0.0323021
0.0401444
0.0380857
0.0362014
0.0346314
0.0336192
0.0330069
0.0327417
0.0326576
0.0328583
0.0331377
0.0335326
0.034132
0.0304628
0.0317756
0.0330572
0.0340455
0.0351575
0.0366034
0.0381432
0.0399572
0.0421349
0.0447358
0.0450175
0.0208317
0.0317374
0.0329894
0.0341511
0.0351981
0.0363134
0.0373219
0.0384535
0.039738
0.0414094
0.0438256
0.0480812
0.0348492
0.033454
0.0344278
0.0354303
0.0363303
0.037212
0.0379858
0.0388809
0.039809
0.040901
0.042564
0.0464424
0.0415278
0.0353479
0.0361928
0.0369759
0.0376971
0.0382564
0.038837
0.0394746
0.0400799
0.0408031
0.0416547
0.0437275
0.0425083
0.01856
0.0192628
0.0209986
0.0228396
0.0244305
0.0259283
0.026933
0.0276331
0.0281493
0.0286146
0.0290953
0.0296468
0.0299513
0.0273198
0.0264787
0.0265678
0.0271098
0.0276558
0.0281586
0.0288022
0.0293863
0.0298556
0.0303071
0.0308083
0.0377882
0.0347991
0.0326336
0.0313509
0.0307426
0.030486
0.0305872
0.0307768
0.0309857
0.0312333
0.0317153
0.032302
0.0401445
0.0380857
0.0362014
0.0346315
0.0336192
0.0330069
0.0327417
0.0326576
0.0328583
0.0331377
0.0335325
0.0341319
0.0304626
0.0317753
0.033057
0.0340453
0.0351572
0.036603
0.0381428
0.0399568
0.0421345
0.0447354
0.0450173
0.0208316
0.0317372
0.0329892
0.0341509
0.0351979
0.0363131
0.0373217
0.0384532
0.0397376
0.041409
0.0438252
0.0480809
0.034849
0.0334538
0.0344277
0.0354302
0.0363301
0.0372118
0.0379856
0.0388806
0.0398087
0.0409007
0.0425637
0.0464421
0.0415275
0.0353477
0.0361926
0.0369758
0.0376969
0.0382561
0.0388368
0.0394743
0.0400796
0.0408028
0.0416544
0.0437271
0.042508
0.01856
0.0192627
0.0209984
0.0228395
0.0244304
0.0259282
0.0269329
0.027633
0.0281492
0.0286145
0.0290952
0.0296468
0.0299512
0.0273196
0.0264785
0.0265677
0.0271096
0.0276556
0.0281584
0.028802
0.0293862
0.0298554
0.030307
0.0308082
0.037788
0.0347989
0.0326334
0.0313507
0.0307424
0.0304858
0.030587
0.0307766
0.0309855
0.0312331
0.0317152
0.0323019
0.0401442
0.0380855
0.0362012
0.0346313
0.033619
0.0330068
0.0327416
0.0326575
0.0328581
0.0331375
0.0335324
0.0341318
0.0304626
0.0317754
0.033057
0.0340453
0.0351573
0.036603
0.0381428
0.0399568
0.0421345
0.0447354
0.0450172
0.0208316
0.0317372
0.0329892
0.0341508
0.0351979
0.0363131
0.0373216
0.0384532
0.0397376
0.0414089
0.0438251
0.0480807
0.0348486
0.0334537
0.0344276
0.0354301
0.03633
0.0372117
0.0379855
0.0388805
0.0398086
0.0409006
0.0425635
0.046442
0.0415269
0.0353476
0.0361925
0.0369756
0.0376968
0.038256
0.0388366
0.0394741
0.0400795
0.0408026
0.0416542
0.043727
0.0425074
0.0373972
0.0360644
0.0349514
0.0341959
0.0337927
0.0336395
0.0335848
0.0336625
0.0340197
0.0345064
0.0353327
0.0365872
0.035594
0.0347376
0.0340352
0.0336426
0.0334173
0.0331928
0.0329159
0.0327741
0.0326897
0.0327321
0.0331898
0.0344174
0.0338429
0.0331605
0.0326402
0.0322414
0.0316995
0.0309886
0.0302622
0.0294021
0.0284053
0.0274025
0.0267739
0.0274009
0.0316538
0.0310628
0.0303306
0.0295207
0.0284458
0.0271896
0.0257052
0.0238888
0.0217927
0.0195503
0.017566
0.01644
0.0381534
0.0391648
0.0392304
0.0394978
0.0396739
0.0399116
0.0401206
0.0403123
0.0404958
0.0406921
0.0402188
0.0391641
0.0364004
0.0393313
0.0391176
0.0391699
0.0392233
0.0392793
0.0393047
0.039268
0.0390467
0.0385642
0.0379474
0.0368823
0.0303846
0.0372611
0.0377779
0.0378126
0.0378384
0.0378336
0.0377672
0.0374542
0.0370047
0.0365283
0.035904
0.0347956
0.0174764
0.033774
0.0358309
0.0359254
0.035949
0.0358346
0.0355678
0.035147
0.0348001
0.0343251
0.033561
0.0324996
0.037398
0.036065
0.034952
0.0341964
0.033793
0.0336398
0.033585
0.0336627
0.0340199
0.0345066
0.0353328
0.0365873
0.0355945
0.0347381
0.0340356
0.033643
0.0334176
0.0331931
0.0329161
0.0327743
0.0326898
0.0327322
0.0331898
0.0344175
0.0338433
0.0331609
0.0326406
0.0322416
0.0316996
0.0309887
0.0302623
0.0294022
0.0284053
0.0274025
0.026774
0.027401
0.0316542
0.0310632
0.0303309
0.0295209
0.0284459
0.0271897
0.0257053
0.0238889
0.0217927
0.0195503
0.017566
0.01644
0.0381535
0.0391649
0.0392305
0.0394979
0.039674
0.0399117
0.0401207
0.0403124
0.0404959
0.0406922
0.0402189
0.0391642
0.0364005
0.0393313
0.0391177
0.0391699
0.0392234
0.0392794
0.0393048
0.0392681
0.0390468
0.0385643
0.0379475
0.0368824
0.0303847
0.0372612
0.037778
0.0378127
0.0378384
0.0378337
0.0377673
0.0374542
0.0370047
0.0365283
0.035904
0.0347956
0.0174764
0.033774
0.0358309
0.0359254
0.035949
0.0358346
0.0355678
0.035147
0.0348001
0.0343251
0.033561
0.0324996
0.0373981
0.036065
0.034952
0.0341964
0.033793
0.0336398
0.033585
0.0336627
0.0340198
0.0345065
0.0353327
0.0365871
0.0355945
0.0347381
0.0340356
0.033643
0.0334176
0.033193
0.0329161
0.0327742
0.0326897
0.0327321
0.0331897
0.0344173
0.0338432
0.0331608
0.0326406
0.0322416
0.0316996
0.0309887
0.0302623
0.0294021
0.0284052
0.0274024
0.0267739
0.0274009
0.0316541
0.0310631
0.0303308
0.0295208
0.0284459
0.0271896
0.0257053
0.0238888
0.0217927
0.0195502
0.017566
0.01644
0.0381533
0.0391647
0.0392302
0.0394977
0.0396738
0.0399114
0.0401204
0.0403122
0.0404956
0.040692
0.0402187
0.039164
0.0364003
0.0393311
0.0391175
0.0391697
0.0392231
0.0392791
0.0393045
0.0392678
0.0390465
0.038564
0.0379472
0.0368821
0.0303845
0.037261
0.0377777
0.0378124
0.0378382
0.0378334
0.037767
0.037454
0.0370045
0.0365281
0.0359038
0.0347954
0.0174764
0.0337738
0.0358307
0.0359251
0.0359488
0.0358344
0.0355676
0.0351468
0.0347999
0.0343249
0.0335608
0.0324994
0.0373978
0.0360648
0.0349518
0.0341963
0.0337929
0.0336396
0.0335849
0.0336625
0.0340197
0.0345063
0.0353326
0.036587
0.0355943
0.0347379
0.0340355
0.0336428
0.0334174
0.0331929
0.0329159
0.0327741
0.0326896
0.032732
0.0331896
0.0344172
0.0338431
0.0331607
0.0326404
0.0322415
0.0316995
0.0309885
0.0302622
0.029402
0.0284052
0.0274023
0.0267738
0.0274008
0.031654
0.031063
0.0303307
0.0295207
0.0284457
0.0271895
0.0257052
0.0238887
0.0217926
0.0195502
0.0175659
0.0164399
0.0381532
0.0391646
0.0392301
0.0394975
0.0396736
0.0399112
0.0401202
0.040312
0.0404954
0.0406917
0.0402184
0.0391636
0.0364002
0.0393309
0.0391173
0.0391694
0.0392229
0.0392789
0.0393043
0.0392676
0.0390462
0.0385637
0.0379469
0.0368817
0.0303844
0.0372608
0.0377775
0.0378122
0.0378379
0.0378332
0.0377667
0.0374537
0.0370042
0.0365278
0.0359035
0.0347951
0.0174763
0.0337736
0.0358305
0.0359249
0.0359485
0.0358341
0.0355673
0.0351465
0.0347996
0.0343245
0.0335605
0.0324993
0.0288887
0.0280236
0.0268914
0.0256073
0.0240369
0.0221649
0.0199087
0.0172044
0.0140652
0.0105846
0.00646198
0.00334463
0.0252698
0.0240435
0.0225444
0.0208171
0.01875
0.0163243
0.0134788
0.0102144
0.00650805
0.0031559
0.00145927
0.00141864
0.0208955
0.019302
0.0174133
0.0152332
0.0126773
0.00974338
0.00629086
0.00284
0.000898303
0.000464937
0.000489862
0.000614938
0.0158245
0.0138469
0.0115536
0.00891453
0.00577552
0.00258855
0.0006708
0.000283977
0.000244554
0.000351968
0.000310567
0.000326199
0.0101322
0.00773419
0.00494138
0.00220526
0.000604872
0.00027711
0.00026761
0.000302507
0.000291221
0.000288416
0.000284824
0.000279185
0.00380877
0.00165362
0.000528367
0.000323297
0.000294413
0.000304011
0.000299843
0.000295511
0.000293454
0.000290461
0.000288159
0.000285783
0.000428709
0.000621146
0.000312723
0.000312759
0.000311221
0.000307163
0.000305489
0.00030257
0.000300306
0.000297792
0.000296517
0.000294361
0.00032727
0.000327183
0.000322434
0.00031924
0.000317109
0.000314785
0.000312579
0.000310341
0.000308122
0.000306491
0.000305071
0.000303032
0.000332284
0.000329211
0.000327223
0.000325226
0.000323192
0.000321239
0.000319247
0.00031728
0.000315343
0.00031354
0.000312169
0.000310447
0.000329228
0.00032777
0.000326262
0.000324813
0.000323292
0.000321796
0.000320242
0.00031869
0.000317079
0.000315466
0.000313835
0.000312295
0.000280375
0.000281896
0.00028342
0.000284706
0.000286109
0.000287512
0.000289096
0.000290802
0.000292711
0.000294706
0.000296761
0.000298353
8.73364e-05
8.64476e-05
8.65677e-05
8.59104e-05
8.60024e-05
8.55398e-05
8.56266e-05
8.53816e-05
8.54753e-05
8.54856e-05
8.55951e-05
8.57458e-05
0.00512745
0.0291963
0.0336282
0.0336338
0.0335673
0.033266
0.0329306
0.0326554
0.0322941
0.0317185
0.0307813
0.0297682
0.00493279
0.0268144
0.0312356
0.0308415
0.0306351
0.0303597
0.0301454
0.0298666
0.0293475
0.0285238
0.0274694
0.0263619
0.00480436
0.0245006
0.0281471
0.0277053
0.027516
0.0273356
0.0270331
0.0265485
0.0257692
0.0246922
0.0235266
0.0222711
0.00466064
0.0219154
0.0246443
0.0244772
0.0242728
0.023907
0.0234218
0.0225994
0.0215493
0.0203499
0.0190175
0.0175257
0.00447514
0.0191451
0.0211789
0.0210102
0.0206323
0.0200056
0.0191532
0.0181196
0.0169081
0.0155157
0.0139507
0.0121722
0.00421369
0.0163158
0.0177891
0.0171831
0.016481
0.0155646
0.0145196
0.0132509
0.0118675
0.0102407
0.00837866
0.00620893
0.00389501
0.0128386
0.0140756
0.01267
0.0120573
0.0108038
0.00960637
0.00799988
0.00633375
0.00438839
0.002593
0.00107301
0.00347228
0.00906272
0.00989614
0.00793698
0.00734831
0.00551199
0.00428753
0.00260846
0.00149322
0.000625689
0.000353949
0.00045317
0.00283865
0.00457391
0.00502625
0.00305409
0.00267929
0.00118729
0.000861054
0.000478621
0.000366107
0.000346909
0.000335192
0.000335247
0.0021213
0.00115487
0.00132803
0.000582418
0.000533976
0.000374017
0.00034002
0.000327625
0.000334175
0.000332383
0.000332335
0.000330809
0.00138836
0.000218758
0.000277194
0.000229622
0.000253118
0.000246936
0.000264493
0.000266782
0.000270364
0.000273649
0.000276134
0.000278315
0.000483429
0.000102607
0.000102209
9.58335e-05
9.53077e-05
9.19286e-05
9.21732e-05
8.95003e-05
8.99224e-05
8.81171e-05
8.83964e-05
8.71556e-05
0.028889
0.0280238
0.0268916
0.0256075
0.024037
0.0221649
0.0199088
0.0172044
0.0140652
0.0105846
0.00646199
0.00334463
0.0252701
0.0240437
0.0225445
0.0208172
0.0187501
0.0163243
0.0134789
0.0102144
0.00650806
0.00315591
0.00145927
0.00141864
0.0208957
0.0193021
0.0174134
0.0152333
0.0126773
0.00974342
0.00629088
0.00284001
0.000898303
0.00046494
0.000489861
0.000614937
0.0158247
0.013847
0.0115537
0.00891459
0.00577557
0.00258857
0.000670807
0.000283997
0.000244554
0.000351994
0.000310577
0.000326206
0.0101323
0.00773427
0.00494145
0.00220531
0.000604876
0.000277142
0.000267584
0.000302513
0.000291228
0.000288427
0.000284833
0.000279194
0.00380881
0.00165366
0.000528379
0.000323169
0.000294412
0.000304007
0.000299841
0.000295512
0.000293455
0.000290463
0.00028816
0.000285784
0.000428626
0.000620692
0.000312723
0.000312755
0.000311219
0.000307161
0.000305487
0.000302569
0.000300305
0.000297791
0.000296515
0.000294359
0.000327267
0.000327179
0.000322433
0.000319239
0.000317107
0.000314783
0.000312578
0.00031034
0.000308121
0.000306489
0.000305069
0.000303031
0.000332283
0.00032921
0.000327222
0.000325225
0.00032319
0.000321238
0.000319246
0.000317279
0.000315342
0.000313539
0.000312168
0.000310446
0.000329228
0.000327769
0.000326261
0.000324812
0.000323291
0.000321795
0.000320242
0.000318689
0.000317079
0.000315466
0.000313834
0.000312294
0.000280374
0.000281896
0.00028342
0.000284706
0.000286109
0.000287512
0.000289096
0.000290801
0.000292711
0.000294706
0.000296761
0.000298352
8.73364e-05
8.64476e-05
8.65677e-05
8.59103e-05
8.60023e-05
8.55397e-05
8.56265e-05
8.53815e-05
8.54753e-05
8.54855e-05
8.55951e-05
8.57457e-05
0.00512745
0.0291963
0.0336282
0.0336338
0.0335673
0.033266
0.0329306
0.0326554
0.032294
0.0317185
0.0307813
0.0297681
0.00493279
0.0268144
0.0312355
0.0308414
0.030635
0.0303596
0.0301454
0.0298666
0.0293475
0.0285238
0.0274693
0.0263619
0.00480437
0.0245005
0.028147
0.0277053
0.0275159
0.0273356
0.0270331
0.0265484
0.0257692
0.0246921
0.0235265
0.0222711
0.00466064
0.0219154
0.0246442
0.0244771
0.0242728
0.0239069
0.0234218
0.0225994
0.0215492
0.0203498
0.0190174
0.0175257
0.00447513
0.019145
0.0211788
0.0210102
0.0206322
0.0200055
0.0191531
0.0181196
0.0169081
0.0155157
0.0139506
0.0121721
0.00421368
0.0163157
0.017789
0.017183
0.0164809
0.0155645
0.0145195
0.0132508
0.0118674
0.0102406
0.00837858
0.00620885
0.003895
0.0128385
0.0140755
0.0126698
0.0120571
0.0108037
0.00960625
0.00799977
0.00633364
0.0043883
0.00259293
0.00107297
0.00347226
0.00906258
0.00989599
0.00793683
0.00734816
0.00551184
0.00428741
0.00260836
0.00149316
0.000625672
0.000353944
0.000453161
0.00283862
0.00457372
0.00502607
0.00305396
0.00267917
0.00118723
0.000861014
0.000478619
0.000366104
0.000346907
0.000335193
0.000335248
0.00212127
0.00115478
0.00132794
0.000582388
0.000533952
0.000374013
0.00034002
0.000327626
0.000334176
0.000332385
0.000332336
0.000330811
0.00138834
0.000218749
0.000277185
0.000229623
0.000253119
0.000246937
0.000264494
0.000266783
0.000270365
0.00027365
0.000276135
0.000278317
0.000483422
0.000102608
0.000102208
9.58337e-05
9.5308e-05
9.19288e-05
9.21734e-05
8.95006e-05
8.99226e-05
8.81173e-05
8.83967e-05
8.71559e-05
0.028889
0.0280237
0.0268915
0.0256074
0.024037
0.0221649
0.0199087
0.0172044
0.0140652
0.0105846
0.00646197
0.00334462
0.02527
0.0240437
0.0225445
0.0208171
0.01875
0.0163243
0.0134788
0.0102144
0.00650803
0.00315588
0.00145926
0.00141863
0.0208956
0.019302
0.0174134
0.0152332
0.0126773
0.00974338
0.00629084
0.00283998
0.000898294
0.000464938
0.00048986
0.000614934
0.0158246
0.0138469
0.0115536
0.00891454
0.00577552
0.00258853
0.000670799
0.000283999
0.000244558
0.000351996
0.000310579
0.000326208
0.0101322
0.0077342
0.00494139
0.00220527
0.000604868
0.000277144
0.000267584
0.000302513
0.00029123
0.000288429
0.000284834
0.000279196
0.00380874
0.00165362
0.00052837
0.000323174
0.000294413
0.000304008
0.000299842
0.000295513
0.000293456
0.000290463
0.000288161
0.000285784
0.000428619
0.000620707
0.000312725
0.000312757
0.00031122
0.000307163
0.000305488
0.00030257
0.000300306
0.000297792
0.000296517
0.00029436
0.000327269
0.00032718
0.000322434
0.00031924
0.000317108
0.000314784
0.000312579
0.000310341
0.000308122
0.00030649
0.00030507
0.000303032
0.000332284
0.000329211
0.000327223
0.000325226
0.000323192
0.000321239
0.000319247
0.00031728
0.000315343
0.00031354
0.000312169
0.000310447
0.000329229
0.00032777
0.000326262
0.000324813
0.000323292
0.000321796
0.000320243
0.000318691
0.00031708
0.000315467
0.000313836
0.000312295
0.000280376
0.000281897
0.000283421
0.000284707
0.000286111
0.000287514
0.000289097
0.000290803
0.000292712
0.000294707
0.000296762
0.000298354
8.73366e-05
8.64478e-05
8.65679e-05
8.59106e-05
8.60026e-05
8.554e-05
8.56268e-05
8.53817e-05
8.54755e-05
8.54858e-05
8.55953e-05
8.5746e-05
0.00512744
0.0291961
0.033628
0.0336336
0.0335671
0.0332658
0.0329304
0.0326552
0.0322939
0.0317183
0.0307811
0.029768
0.00493278
0.0268142
0.0312353
0.0308412
0.0306349
0.0303595
0.0301452
0.0298664
0.0293473
0.0285236
0.0274692
0.0263617
0.00480435
0.0245004
0.0281469
0.0277051
0.0275158
0.0273354
0.0270329
0.0265483
0.025769
0.024692
0.0235264
0.0222709
0.00466062
0.0219152
0.024644
0.0244769
0.0242726
0.0239068
0.0234216
0.0225992
0.0215491
0.0203497
0.0190173
0.0175256
0.00447511
0.0191449
0.0211786
0.02101
0.020632
0.0200053
0.019153
0.0181194
0.0169079
0.0155155
0.0139505
0.012172
0.00421366
0.0163155
0.0177888
0.0171828
0.0164808
0.0155644
0.0145194
0.0132507
0.0118673
0.0102405
0.00837847
0.00620874
0.00389497
0.0128383
0.0140753
0.0126697
0.012057
0.0108036
0.0096061
0.00799964
0.00633352
0.0043882
0.00259284
0.00107293
0.00347223
0.00906241
0.00989578
0.00793665
0.00734799
0.00551168
0.00428729
0.00260826
0.0014931
0.000625651
0.000353938
0.00045315
0.00283859
0.0045735
0.00502585
0.00305381
0.00267904
0.00118717
0.000860975
0.000478615
0.0003661
0.000346905
0.000335193
0.000335248
0.00212123
0.00115469
0.00132784
0.000582356
0.000533925
0.000374009
0.000340019
0.000327626
0.000334176
0.000332385
0.000332336
0.00033081
0.00138831
0.000218738
0.000277175
0.000229622
0.000253118
0.000246938
0.000264494
0.000266783
0.000270365
0.00027365
0.000276135
0.000278316
0.00048341
0.000102609
0.000102207
9.58333e-05
9.53076e-05
9.19285e-05
9.21731e-05
8.95003e-05
8.99224e-05
8.81171e-05
8.83965e-05
8.71557e-05
0.0288888
0.0280236
0.0268914
0.0256073
0.0240369
0.0221648