/*--------------------------------*- C++ -*----------------------------------*\
| =========                 |                                                 |
| \\      /  F ield         | OpenFOAM: The Open Source CFD Toolbox           |
|  \\    /   O peration     | Version:  2212                                  |
|   \\  /    A nd           | Website:  www.openfoam.com                      |
|    \\/     M anipulation  |                                                 |
\*---------------------------------------------------------------------------*/
FoamFile
{
    version     2.0;
    format      ascii;
    arch        "LSB;label=32;scalar=64";
    class       volScalarField;
    location    "0.03";
    object      epsilon;
}
// * * * * * * * * * * * * * * * * * * * * * * * * * * * * * * * * * * * * * //

dimensions      [0 2 -3 0 0 0 0];

internalField   nonuniform List<scalar> 
3072
(
2020.88
1800.76
2256.58
2264.85
2221.61
1970.03
1818.67
2540.72
12871.8
33377.1
43450.7
48468.5
5449.55
4941.12
3956.68
3364.79
4067.55
6429.31
16307.7
23206.5
24736.5
32337.7
35001.8
36222.9
7696.5
6041.37
6068.37
7286.92
14576.9
20312.2
20883.8
22024.6
24469
27512.4
28471.1
29613.1
10777.1
8343.16
9707.59
12229.1
16870.6
18573.5
18760.3
20714.6
23386.7
24823.9
25610.6
26441.5
12741.9
10232.3
12371.6
13688.8
15662.8
16361.8
18332.4
20775.6
22678.3
23643.8
24208.7
24746.3
14257.2
11158.6
12561.2
13244.5
14914.1
16605.4
18925.8
21193.7
22519.7
23063.9
23368.6
23666.1
14802.9
11272.3
12170.9
13337.2
15595.6
17914.8
20307.2
21988.6
22818.5
23133.8
23230.8
23327
16207.8
11677.3
12820.1
15168.3
18488.1
21085.7
22931.6
23858.3
24112.1
24062.7
23935.7
23889.9
18280.5
13347.6
16779.2
21604
26039.3
28313.9
28997.7
28699.1
27966.1
27183
26528
26098.2
22623.6
18548.7
28636.6
37330.3
42637.8
43664.5
42133.8
39470.6
36725.2
34331.4
32436
31057.4
26032.7
34342.6
56260.8
68486.9
71627.9
69318.8
63568.7
57132.8
51149.2
46092.4
42075.2
39023.5
96843.1
97792
107947
110464
106630
97542.6
87072
76839
67637.5
59848.1
53555.8
48625.3
52692.8
54831.2
56134.6
56352.8
56439.2
53906.1
50131
44142.5
36707.5
28006.8
17804.6
21554.2
37346.6
38226.9
39039
39800.9
40711.5
42085.7
44620.9
48209.4
53035.7
58655.7
61378.4
72443.1
30571.8
31277.2
31878.7
32506.9
33582.8
35490.4
38739.6
43920.3
51927
63666.3
80549.9
114947
27112
27695
28296.5
29031.9
30183.7
32137.7
35473.8
41005
50070.7
65144.6
92041.5
145544
25181.5
25591.9
26063.5
26720
27803
29694.1
32985.7
38592.6
48109.8
64958.8
98703.5
171442
23947
24273.5
24719.4
25402.8
26539.3
28466
31730.7
37259.7
46839.9
64401.4
102464
194865
23492.3
23774.9
24236
24981
26186.5
28144.3
31379.5
36827.6
46304
63944.9
104778
217926
23977.4
24230.6
24716.6
25527.9
26792.2
28762
31914.5
37169.4
46440
64088.2
106185
245226
25948.8
26096.7
26528.4
27323.7
28603.1
30551.8
33580.9
38572.9
47520.4
65090.2
108425
278108
30216.4
29929.2
30150
30773.3
31894.9
33707.6
36513
41086.5
49502.6
66609.6
110649
313257
36948.6
35805.1
35552.1
35972.5
36832.5
38316.5
40686
44612.7
52068.4
68057.5
113148
355603
45153.3
43085.5
42197
42326.6
42950.4
43985
45664.5
48538.8
54120.5
68262.8
114042
413199
2020.98
1800.85
2256.68
2264.95
2221.7
1970.1
1818.74
2540.87
12872.9
33378.2
43451.7
48469.6
5449.85
4941.35
3956.86
3364.96
4067.75
6429.62
16308.4
23206.9
24737.2
32338.4
35002.5
36223.5
7696.98
6041.7
6068.73
7287.42
14577.6
20312.4
20883.8
22025
24469.5
27512.9
28471.7
29613.7
10777.8
8343.67
9708.16
12229.6
16870.8
18573.6
18760.5
20715.1
23387.2
24824.4
25611.1
26442
12742.7
10232.8
12372.1
13689.1
15663.1
16362.1
18332.9
20776.2
22678.8
23644.3
24209.3
24746.9
14257.8
11159.1
12561.7
13244.8
14914.5
16605.8
18926.3
21194.3
22520.2
23064.5
23369.1
23666.7
14803.4
11272.7
12171.4
13337.7
15596.1
17915.4
20307.8
21989.2
22819.1
23134.3
23231.3
23327.6
16208
11677.6
12820.5
15168.7
18488.6
21086.2
22932.1
23858.9
24112.7
24063.3
23936.3
23890.5
18280.6
13347.8
16779.4
21604.3
26039.7
28314.3
28998.3
28699.7
27966.7
27183.7
26528.7
26098.9
22623.6
18548.7
28636.7
37330.4
42637.9
43664.7
42134.2
39471.1
36725.8
34332
32436.7
31058.1
26032.8
34342.8
56261
68487
71628
69319
63569
57133.2
51149.8
46093
42075.9
39024.2
96843.4
97792.9
107948
110464
106630
97543
87072.4
76839.5
67638
59848.7
53556.4
48625.9
52693.8
54832.3
56135.6
56353.7
56440.2
53906.9
50131.7
44143
36707.9
28007
17804.7
21554.4
37347.2
38227.5
39039.6
39801.5
40712
42086.1
44621.4
48209.9
53036.2
58656.2
61378.9
72443.8
30572.3
31277.8
31879.2
32507.4
33583.3
35490.9
38740.1
43920.8
51927.5
63666.9
80550.6
114948
27112.5
27695.5
28297
29032.4
30184.3
32138.2
35474.3
41005.5
50071.2
65145.2
92042.3
145546
25182.1
25592.4
26064.1
26720.5
27803.5
29694.6
32986.2
38593.1
48110.4
64959.4
98704.4
171444
23947.6
24274.1
24720
25403.4
26539.9
28466.6
31731.3
37260.3
46840.5
64402.1
102464
194867
23492.9
23775.5
24236.6
24981.6
26187.1
28144.9
31380.1
36828.2
46304.7
63945.6
104779
217928
23978
24231.3
24717.2
25528.5
26792.9
28762.6
31915.1
37170
46440.7
64089
106186
245228
25949.5
26097.4
26529.1
27324.4
28603.8
30552.5
33581.6
38573.6
47521.1
65091
108426
278111
30217.1
29929.9
30150.7
30774
31895.6
33708.3
36513.7
41087.1
49503.3
66610.3
110650
313259
36949.3
35805.8
35552.7
35973.2
36833.1
38317.1
40686.6
44613.2
52069
68058.2
113149
355606
45154
43086.1
42197.6
42327.1
42950.9
43985.5
45665
48539.2
54120.9
68263.3
114043
413202
2020.84
1800.73
2256.55
2264.83
2221.6
1970.03
1818.67
2540.73
12871.9
33377.2
43450.8
48468.6
5449.48
4941.07
3956.65
3364.81
4067.59
6429.41
16307.9
23206.6
24736.6
32337.7
35001.9
36222.9
7696.44
6041.35
6068.4
7287.05
14577.2
20312.4
20883.9
22024.7
24469
27512.5
28471.1
29613.2
10777
8343.18
9707.69
12229.3
16870.8
18573.7
18760.4
20714.6
23386.7
24823.9
25610.6
26441.5
12741.9
10232.3
12371.7
13689
15663
16361.9
18332.5
20775.7
22678.3
23643.8
24208.8
24746.4
14257.2
11158.6
12561.3
13244.6
14914.2
16605.5
18925.8
21193.8
22519.7
23064
23368.7
23666.2
14802.9
11272.3
12171
13337.3
15595.7
17914.9
20307.2
21988.7
22818.6
23133.8
23230.8
23327.1
16207.8
11677.3
12820.1
15168.3
18488.1
21085.7
22931.6
23858.4
24112.2
24062.8
23935.8
23890
18280.5
13347.7
16779.2
21604.1
26039.4
28314
28997.9
28699.2
27966.2
27183.2
26528.2
26098.4
22623.8
18548.8
28636.9
37330.7
42638.2
43664.9
42134.2
39470.9
36725.5
34331.7
32436.3
31057.7
26033
34343.1
56261.6
68487.8
71628.8
69319.7
63569.4
57133.4
51149.8
46092.9
42075.7
39024
96843.5
97793.2
107948
110465
106631
97543.9
87073.1
76839.9
67638.3
59848.9
53556.4
48625.9
52692.9
54831.3
56134.7
56352.9
56439.3
53906.2
50131
44142.5
36707.5
28006.8
17804.6
21554.1
37346.6
38226.9
39039.1
39801
40711.5
42085.7
44621
48209.5
53035.7
58655.8
61378.4
72443.1
30571.8
31277.3
31878.7
32506.9
33582.8
35490.4
38739.6
43920.4
51927
63666.3
80550
114947
27112
27695
28296.5
29031.9
30183.8
32137.8
35473.8
41005
50070.7
65144.6
92041.5
145545
25181.6
25592
26063.6
26720
27803
29694.1
32985.7
38592.6
48109.9
64958.8
98703.6
171442
23947.1
24273.6
24719.5
25403
26539.4
28466.1
31730.8
37259.8
46839.9
64401.4
102464
194865
23492.4
23775
24236.1
24981.1
26186.6
28144.4
31379.6
36827.7
46304.1
63945
104778
217926
23977.5
24230.8
24716.7
25528
26792.4
28762.2
31914.6
37169.5
46440.1
64088.4
106185
245226
25949
26096.9
26528.6
27324
28603.3
30552
33581.1
38573.1
47520.5
65090.4
108425
278108
30216.7
29929.5
30150.3
30773.6
31895.2
33707.9
36513.3
41086.7
49502.8
66609.7
110649
313257
36949
35805.5
35552.4
35972.8
36832.8
38316.8
40686.3
44612.9
52068.6
68057.7
113148
355603
45153.8
43085.9
42197.4
42326.9
42950.7
43985.3
45664.7
48539
54120.6
68262.9
114042
413198
2020.99
1800.85
2256.69
2264.95
2221.7
1970.11
1818.73
2540.81
12872.2
33377.3
43450.8
48468.6
5449.84
4941.34
3956.86
3364.93
4067.69
6429.47
16308
23206.6
24736.7
32337.7
35001.9
36222.9
7696.91
6041.64
6068.64
7287.24
14577.2
20312.1
20883.7
22024.6
24469
27512.5
28471.1
29613.2
10777.6
8343.54
9707.97
12229.4
16870.6
18573.4
18760.3
20714.7
23386.7
24824
25610.7
26441.6
12742.5
10232.7
12371.9
13688.9
15662.9
16361.9
18332.6
20775.8
22678.4
23643.9
24208.8
24746.4
14257.6
11159
12561.5
13244.6
14914.2
16605.5
18926
21193.9
22519.8
23064.1
23368.7
23666.3
14803.3
11272.5
12171.2
13337.4
15595.8
17915.1
20307.4
21988.8
22818.7
23133.9
23230.9
23327.2
16207.8
11677.4
12820.3
15168.4
18488.3
21085.9
22931.8
23858.5
24112.3
24062.9
23935.9
23890.1
18280.4
13347.6
16779.2
21604
26039.4
28314
28997.9
28699.3
27966.3
27183.3
26528.3
26098.5
22623.4
18548.6
28636.5
37330.1
42637.6
43664.4
42133.8
39470.7
36725.4
34331.6
32436.3
31057.7
26032.5
34342.5
56260.6
68486.6
71627.7
69318.6
63568.6
57132.8
51149.4
46092.7
42075.5
39023.9
96842.7
97792.4
107947
110464
106630
97542.7
87072.1
76839.1
67637.7
59848.4
53556.1
48625.6
52692.9
54831.2
56134.6
56352.8
56439.2
53906
50130.9
44142.4
36707.4
28006.7
17804.5
21554
37346.6
38226.9
39039
39800.9
40711.4
42085.6
44620.8
48209.3
53035.5
58655.5
61378.1
72442.8
30571.8
31277.3
31878.7
32506.9
33582.8
35490.4
38739.5
43920.2
51926.9
63666.1
80549.7
114947
27112.1
27695.1
28296.5
29031.9
30183.8
32137.7
35473.8
41005
50070.6
65144.4
92041.2
145544
25181.7
25592
26063.6
26720.1
27803.1
29694.1
32985.7
38592.6
48109.8
64958.6
98703.2
171442
23947.2
24273.7
24719.6
25403
26539.4
28466.1
31730.8
37259.7
46839.9
64401.3
102463
194864
23492.5
23775.1
24236.2
24981.2
26186.7
28144.5
31379.6
36827.7
46304
63944.8
104778
217925
23977.6
24230.9
24716.8
25528.1
26792.5
28762.2
31914.7
37169.5
46440
64088.2
106185
245225
25949.1
26097
26528.7
27324
28603.4
30552
33581.1
38573.1
47520.4
65090.2
108425
278107
30216.7
29929.5
30150.3
30773.6
31895.2
33707.9
36513.2
41086.7
49502.7
66609.5
110648
313255
36948.9
35805.4
35552.4
35972.8
36832.7
38316.7
40686.2
44612.8
52068.4
68057.5
113147
355602
45153.6
43085.8
42197.3
42326.8
42950.6
43985.2
45664.6
48538.8
54120.5
68262.7
114042
413197
154316
143824
133335
124842
116598
107452
97757.7
87923.8
78477.7
69994.9
62787.5
56870.2
95865.8
97039.1
96804.4
96337.5
95266.7
93177.1
89870.4
84607.7
78140
71930.2
66125
60993.3
65295.9
67316
68732.1
70086.1
71387.3
72413.2
72420.2
71561.7
69947.9
67468.4
64053.1
60827.7
51559.6
53084.7
54340.8
55538.7
56797.4
58113.2
59215.1
60005.3
60071.2
59616.9
58696.2
57478.7
52659.3
50191.4
48972.7
48764.2
48981.2
49366.8
49948.4
51259.9
54435.1
62953.6
86758.6
171741
57379.9
55421.9
54239.6
53472.8
52669.5
51970
51442.4
51566.9
52589.6
56029.6
65613.6
90092.4
58686
57505.4
56089.1
54503.9
52640.9
50813.7
49222.6
48255.6
48207.6
49247.6
53051.1
61422.9
56252.7
54577
52175.4
49589.9
47063.2
45096
43737.1
43119.4
43225.6
43899.3
45941.1
49371.5
154316
143827
133337
124843
116599
107453
97758.3
87924.3
78478.3
69995.5
62788.1
56870.7
95866.5
97040.9
96806.1
96339
95267.9
93178.2
89871.3
84608.4
78140.6
71930.7
66125.4
60993.8
65296.5
67317.6
68733.6
70087.6
71388.6
72414.4
72421.2
71562.5
69948.6
67469
64053.6
60828.1
51560.5
53086.2
54342.2
55540
56798.6
58114.2
59216
60006
60071.7
59617.3
58696.6
57479
52659.8
50191.9
48973.2
48764.6
48981.6
49367.2
49948.7
51260.2
54435.4
62954
86759.1
171743
57380.3
55422.3
54239.9
53473
52669.7
51970.2
51442.6
51567
52589.8
56029.8
65613.9
90093
58686.3
57505.6
56089.2
54504.1
52641
50813.8
49222.7
48255.7
48207.8
49247.7
53051.3
61423.3
56252.9
54577.1
52175.5
49589.9
47063.3
45096
43737.2
43119.5
43225.7
43899.4
45941.3
49371.7
154317
143827
133338
124844
116600
107453
97759
87924.9
78478.7
69995.8
62788.2
56870.8
95867.1
97041.4
96806.5
96339.4
95268.4
93178.7
89871.8
84608.9
78141
71931
66125.7
60994
65296.9
67317.9
68733.9
70087.9
71388.9
72414.7
72421.5
71562.9
69948.9
67469.2
64053.8
60828.3
51560.7
53086.5
54342.4
55540.2
56798.8
58114.4
59216.2
60006.2
60072
59617.5
58696.8
57479.1
52659.8
50191.9
48973.1
48764.5
48981.4
49367
49948.5
51260.1
54435.1
62953.7
86758.6
171742
57380.4
55422.4
54239.9
53473
52669.7
51970.1
51442.5
51566.9
52589.6
56029.6
65613.6
90092.4
58686.4
57505.7
56089.3
54504.1
52640.9
50813.7
49222.6
48255.5
48207.6
49247.5
53051
61422.8
56253
54577.2
52175.5
49589.9
47063.2
45095.9
43737.1
43119.3
43225.5
43899.2
45941
49371.3
154316
143827
133337
124843
116599
107452
97758.1
87924.1
78478
69995.2
62787.8
56870.5
95866.4
97040.8
96806
96338.9
95267.8
93178
89871.1
84608.2
78140.4
71930.5
66125.2
60993.6
65296.4
67317.5
68733.5
70087.4
71388.4
72414.2
72421
71562.3
69948.4
67468.8
64053.4
60827.9
51560.3
53086.1
54342
55539.8
56798.4
58114
59215.7
60005.8
60071.5
59617.1
58696.4
57478.8
52659.6
50191.6
48972.9
48764.3
48981.3
49366.9
49948.4
51259.9
54435
62953.5
86758.4
171741
57380
55422.1
54239.7
53472.8
52669.5
51969.9
51442.4
51566.8
52589.5
56029.4
65613.4
90092.4
58686.1
57505.4
56089.1
54503.9
52640.8
50813.6
49222.5
48255.4
48207.4
49247.3
53050.8
61422.7
56252.7
54577
52175.3
49589.7
47063.1
45095.8
43736.9
43119.1
43225.3
43898.9
45940.6
49370.9
46998.9
48117.5
49232.4
50348.1
51317.8
52073.7
52610.8
52697.9
51974
50688.4
48898.2
46897.2
44006
45103.2
46176.4
47035
47646.1
48017.2
47840.1
46786.3
44968.1
42671.5
40195.1
38132
41462.7
42460.4
43252.4
43837.1
44223.8
44230.5
43466
42102.9
40313.2
38536.8
37047.7
36004
38232.8
38870.1
39404.5
39756.2
39843.3
39477.2
38691.5
37827.7
37260.8
37741.3
39838.6
42418
45143.1
42342.8
40202.1
39415.8
38894.1
39042.2
39548.8
40391.7
41500.9
42833.4
44624.2
46051.5
36824.3
34114.3
33505.3
34192.7
35033.6
36270.4
37553.1
38920.9
40271.9
41553.1
42677
43397
35165.3
30143.4
29569.2
31088.3
32561.5
34231.8
35790.2
37264.7
38526.3
39511.1
40239.1
40820.5
46371
28042.6
26667.9
28401
30062.5
31797.6
33346.4
34719
35745
36509.3
37098.5
37632.3
47000.2
48118.5
49233.3
50348.8
51318.3
52074.2
52611.2
52698.2
51974.2
50688.5
48898.3
46897.3
44006.9
45103.8
46176.9
47035.4
47646.4
48017.4
47840.3
46786.5
44968.2
42671.5
40195.1
38132
41463.2
42460.8
43252.6
43837.3
44223.9
44230.7
43466.1
42103
40313.3
38536.8
37047.8
36004.1
38233
38870.3
39404.7
39756.3
39843.4
39477.3
38691.6
37827.8
37260.8
37741.3
39838.7
42418.1
45143.1
42342.9
40202.1
39415.9
38894.1
39042.3
39548.9
40391.8
41501.1
42833.6
44624.4
46051.7
36824.4
34114.4
33505.3
34192.7
35033.7
36270.5
37553.2
38921
40272
41553.2
42677.1
43397.1
35165.4
30143.5
29569.3
31088.4
32561.6
34231.8
35790.3
37264.8
38526.4
39511.2
40239.1
40820.6
46371
28042.6
26668
28401
30062.6
31797.7
33346.5
34719
35745
36509.4
37098.5
37632.3
47000.4
48118.7
49233.5
50349
51318.5
52074.3
52611.3
52698.3
51974.3
50688.6
48898.3
46897.3
44007
45103.9
46177
47035.5
47646.5
48017.5
47840.4
46786.5
44968.1
42671.4
40195
38131.9
41463.2
42460.8
43252.7
43837.3
44224
44230.7
43466
42102.9
40313.1
38536.6
37047.6
36003.9
38233
38870.3
39404.7
39756.3
39843.4
39477.2
38691.5
37827.7
37260.6
37741.1
39838.4
42417.8
45143.1
42342.8
40202
39415.7
38894
39042.1
39548.7
40391.6
41500.8
42833.3
44624
46051.4
36824.2
34114.2
33505.2
34192.6
35033.5
36270.3
37553
38920.8
40271.7
41553
42676.8
43396.8
35165.2
30143.3
29569.1
31088.2
32561.4
34231.7
35790.1
37264.6
38526.2
39511
40238.9
40820.3
46370.7
28042.5
26667.8
28400.9
30062.4
31797.5
33346.3
34718.9
35744.9
36509.2
37098.3
37632.1
47000.1
48118.3
49233.1
50348.6
51318.1
52074
52611
52698
51974
50688.3
48898.1
46897
44006.7
45103.6
46176.7
47035.2
47646.2
48017.2
47840.1
46786.2
44967.9
42671.2
40194.8
38131.7
41463
42460.6
43252.4
43837.1
44223.7
44230.4
43465.8
42102.7
40312.9
38536.5
37047.4
36003.7
38232.8
38870.1
39404.5
39756.1
39843.2
39477
38691.3
37827.5
37260.5
37741
39838.2
42417.5
45142.9
42342.6
40201.8
39415.6
38893.8
39041.9
39548.5
40391.3
41500.4
42832.7
44623.2
46050.2
36824.1
34114.1
33505
34192.4
35033.3
36270.1
37552.8
38920.5
40271.4
41552.6
42676.3
43396.3
35165
30143.2
29569.1
31088.2
32561.3
34231.5
35790
37264.5
38526
39510.8
40238.8
40820.2
46370.3
28042.4
26667.7
28400.8
30062.3
31797.5
33346.2
34718.8
35744.9
36509.2
37098.4
37632.2
33598.9
33877
33970
33768.8
33142.9
32099.7
30712.8
29174.4
27614.2
25861
24962.5
27083.9
27578.4
27252.3
26531.4
25380.4
23632.7
21239
18071.2
13981.5
9053.91
4993.82
2795.27
1801.21
20370.4
19278
17660.8
15509.4
12683.7
9205.86
5266.39
2110.69
654.061
222.418
155.661
128.494
12752.3
11028.8
8826.82
6218.61
3394.43
1218.56
257.06
35.9252
24.4747
15.2469
17.604
16.9683
5858.29
3998.61
2119.05
741.514
138.459
15.7084
11.5479
8.61284
9.39293
9.36598
9.43013
9.44918
1187.22
398.536
80.9334
8.7102
10.3685
8.24985
8.50351
8.62178
8.68975
8.78919
8.87913
8.97888
48.5495
3.47456
8.86543
7.932
8.02085
8.15768
8.24297
8.35308
8.44464
8.54896
8.63365
8.72271
7.87491
7.42404
7.57928
7.70437
7.79415
7.89752
7.9914
8.1018
8.19996
8.30464
8.39443
8.48884
7.11777
7.22067
7.30547
7.39425
7.48605
7.57956
7.67441
7.77041
7.86787
7.96511
8.05946
8.16892
6.51256
6.58599
6.65976
6.73802
6.81663
6.90023
6.98493
7.07528
7.16678
7.26371
7.36425
7.46648
5.56843
5.59333
5.61744
5.64569
5.67264
5.70132
5.72851
5.75617
5.78279
5.80958
5.83568
5.86353
6.01942
5.839
5.8637
5.73242
5.75116
5.66003
5.67764
5.63016
5.64917
5.65196
5.67441
5.70501
96604.2
26105.4
23786.5
25492.4
27076.2
28662.2
30004.7
31075.4
31882.8
32489.4
32942.3
33286.2
75010.4
21749.5
20530.3
22210.5
23556.7
24777.3
25759.7
26525.8
27132.3
27516.3
27693.6
27719.2
60699.9
17867.3
17188.7
18537.4
19511
20326.5
20987.5
21489.3
21779.4
21831.5
21597.4
21121.6
48769.3
14208.6
13781.5
14649.1
15258.4
15753.1
16092.7
16234.2
16148.8
15735.2
15059.3
14079
38149.5
10751.2
10400.6
10876.8
11181.8
11327.6
11333.1
11058.6
10572.5
9794.64
8779.78
7463.71
28245.2
7598.58
7206.28
7434.74
7449.88
7254.87
6915.98
6349.73
5622.46
4658.25
3554.02
2317.79
19855.9
4799.73
4494.34
4429.97
4192.19
3755.6
3254.11
2576.03
1896.58
1147.67
572.748
169.611
12562.3
2476.2
2315.78
1918.47
1708.36
1202.69
876.335
439.163
231.047
43.986
32.6992
4.27983
6149
785.657
791.442
406.36
369.911
110.712
90.7894
10.6069
14.515
6.14596
7.23239
7.00261
2305.12
105.182
115.87
25.9089
29.5341
5.70734
8.09438
6.1769
6.35861
6.32703
6.37931
6.44621
582.285
9.49452
12.1641
5.79619
6.17779
5.70497
5.57684
5.57271
5.544
5.53152
5.53775
5.55159
1007.18
9.69521
9.62234
7.93095
7.80545
7.00702
7.0654
6.47167
6.56447
6.17938
6.23893
5.98172
33599.1
33877.2
33970.2
33768.9
33143
32099.8
30712.9
29174.5
27614.3
25861
24962.6
27084
27578.5
27252.5
26531.6
25380.6
23632.8
21239.1
18071.3
13981.5
9053.94
4993.84
2795.27
1801.21
20370.5
19278.2
17661
15509.5
12683.8
9205.91
5266.42
2110.7
654.062
222.418
155.659
128.493
12752.4
11028.9
8826.91
6218.66
3394.47
1218.57
257.066
35.9253
24.4765
15.2474
17.6049
16.9694
5858.3
3998.68
2119.1
741.527
138.464
15.7078
11.5496
8.61344
9.39353
9.36671
9.43091
9.45017
1187.19
398.56
80.9271
8.71432
10.3686
8.24989
8.50354
8.62176
8.68972
8.78917
8.87912
8.97891
48.5297
3.47729
8.8653
7.93194
8.02074
8.15756
8.24285
8.35295
8.44451
8.54882
8.6335
8.72255
7.87474
7.42403
7.57919
7.70428
7.79406
7.89742
7.9913
8.1017
8.19986
8.30454
8.39432
8.48873
7.11772
7.22062
7.30542
7.3942
7.48601
7.57951
7.67436
7.77036
7.86782
7.96505
8.05941
8.16886
6.51255
6.58597
6.65974
6.738
6.81661
6.90021
6.98491
7.07526
7.16677
7.26369
7.36423
7.46646
5.56843
5.59333
5.61745
5.6457
5.67264
5.70133
5.72851
5.75617
5.7828
5.80959
5.83569
5.86354
6.01943
5.83901
5.8637
5.73242
5.75117
5.66003
5.67764
5.63016
5.64917
5.65196
5.67441
5.70501
96604.3
26105.4
23786.5
25492.4
27076.3
28662.2
30004.7
31075.4
31882.8
32489.4
32942.3
33286.2
75010.4
21749.5
20530.3
22210.5
23556.7
24777.3
25759.7
26525.8
27132.3
27516.2
27693.6
27719.2
60699.8
17867.3
17188.7
18537.4
19511
20326.5
20987.4
21489.3
21779.4
21831.5
21597.3
21121.6
48769.2
14208.5
13781.5
14649.1
15258.4
15753
16092.7
16234.1
16148.8
15735.2
15059.2
14079
38149.4
10751.1
10400.5
10876.8
11181.8
11327.6
11333.1
11058.6
10572.4
9794.57
8779.71
7463.64
28245
7598.53
7206.24
7434.69
7449.83
7254.81
6915.92
6349.67
5622.4
4658.19
3553.97
2317.74
19855.7
4799.67
4494.29
4429.91
4192.13
3755.54
3254.05
2575.97
1896.53
1147.63
572.728
169.603
12562.1
2476.14
2315.73
1918.42
1708.31
1202.65
876.301
439.14
231.036
43.9825
32.6984
4.27996
6148.81
785.616
791.404
406.335
369.89
110.703
90.7835
10.606
14.5143
6.14609
7.23242
7.00265
2305.02
105.172
115.86
25.9061
29.5315
5.70729
8.0942
6.17696
6.35864
6.32708
6.37935
6.44626
582.256
9.49427
12.1634
5.79624
6.17777
5.70501
5.57688
5.57275
5.54404
5.53156
5.53779
5.55163
1007.13
9.69548
9.62212
7.93097
7.80548
7.00705
7.06543
6.4717
6.5645
6.17942
6.23896
5.98176
33599.1
33877.2
33970.2
33768.9
33142.9
32099.7
30712.8
29174.3
27614.1
25860.8
24962.3
27083.6
27578.4
27252.5
26531.5
25380.5
23632.7
21238.9
18071.2
13981.4
9053.83
4993.76
2795.23
1801.18
20370.4
19278.1
17660.9
15509.5
12683.7
9205.83
5266.35
2110.66
654.049
222.414
155.658
128.491
12752.3
11028.8
8826.84
6218.6
3394.42
1218.54
257.059
35.9246
24.4767
15.2474
17.6051
16.9696
5858.24
3998.62
2119.06
741.508
138.46
15.7075
11.5497
8.61355
9.39363
9.36681
9.43102
9.45029
1187.16
398.547
80.9246
8.71402
10.3686
8.24995
8.50358
8.6218
8.68976
8.78921
8.87916
8.97895
48.5283
3.47721
8.8653
7.932
8.02081
8.15763
8.24293
8.35303
8.44459
8.5489
8.63358
8.72264
7.87476
7.42408
7.57924
7.70434
7.79411
7.89748
7.99135
8.10176
8.19992
8.3046
8.39438
8.48879
7.11777
7.22067
7.30547
7.39425
7.48606
7.57956
7.67441
7.77041
7.86788
7.96511
8.05947
8.16892
6.5126
6.58602
6.65979
6.73805
6.81667
6.90027
6.98497
7.07531
7.16682
7.26375
7.36429
7.46652
5.56848
5.59338
5.6175
5.64574
5.67269
5.70138
5.72856
5.75623
5.78285
5.80964
5.83575
5.86359
6.01946
5.83904
5.86373
5.73245
5.7512
5.66007
5.67768
5.6302
5.64921
5.65199
5.67445
5.70504
96603.4
26105.2
23786.4
25492.3
27076.1
28662.1
30004.6
31075.3
31882.7
32489.3
32942.2
33286.1
75009.7
21749.3
20530.2
22210.4
23556.6
24777.2
25759.6
26525.7
27132.2
27516.1
27693.5
27719.1
60699.2
17867.2
17188.6
18537.3
19510.9
20326.4
20987.3
21489.2
21779.3
21831.4
21597.2
21121.5
48768.6
14208.4
13781.4
14649
15258.3
15752.9
16092.6
16234
16148.7
15735.1
15059.1
14078.9
38148.9
10751
10400.4
10876.7
11181.7
11327.5
11333
11058.5
10572.3
9794.49
8779.62
7463.56
28244.6
7598.43
7206.15
7434.61
7449.75
7254.73
6915.84
6349.59
5622.32
4658.11
3553.9
2317.68
19855.3
4799.57
4494.21
4429.83
4192.06
3755.47
3253.99
2575.91
1896.48
1147.59
572.705
169.594
12561.8
2476.06
2315.66
1918.36
1708.25
1202.6
876.265
439.117
231.024
43.9786
32.6974
4.28009
6148.56
785.569
791.361
406.308
369.867
110.694
90.7776
10.6051
14.5136
6.1462
7.23243
7.00268
2304.89
105.16
115.848
25.903
29.5288
5.70721
8.09398
6.17698
6.35863
6.32708
6.37935
6.44626
582.218
9.49387
12.1625
5.79623
6.17768
5.70498
5.57685
5.57273
5.54402
5.53154
5.53777
5.55161
1007.05
9.69561
9.62176
7.93089
7.8054
7.00699
7.06538
6.47166
6.56446
6.17939
6.23893
5.98173
33598.9
33877
33970
33768.7
33142.7
32099.6
30712.6
29174.2
27614
25860.7
24962.2
27083.5
27578.3
27252.3
26531.4
25380.3
23632.6
21238.8
18071.1
13981.3
9053.79
4993.75
2795.23
1801.18
20370.3
19278
17660.8
15509.3
12683.6
9205.75
5266.31
2110.65
654.053
222.419
155.664
128.498
12752.2
11028.7
8826.75
6218.52
3394.37
1218.52
257.06
35.9267
24.479
15.2493
17.6072
16.9718
5858.16
3998.55
2119.01
741.491
138.458
15.7078
11.5505
8.61401
9.39416
9.36742
9.43166
9.45104
1187.13
398.532
80.922
8.71391
10.3687
8.25004
8.50368
8.62187
8.68983
8.78928
8.87924
8.97904
48.5264
3.47721
8.86532
7.93207
8.02088
8.15771
8.24301
8.35311
8.44467
8.54898
8.63366
8.72272
7.87477
7.42412
7.57929
7.70438
7.79416
7.89752
7.9914
8.10181
8.19997
8.30465
8.39444
8.48885
7.11779
7.22069
7.3055
7.39427
7.48608
7.57959
7.67444
7.77044
7.8679
7.96514
8.05949
8.16895
6.5126
6.58602
6.65979
6.73805
6.81667
6.90027
6.98497
7.07531
7.16682
7.26375
7.36429
7.46652
5.56846
5.59336
5.61748
5.64572
5.67267
5.70136
5.72854
5.7562
5.78283
5.80962
5.83572
5.86357
6.01944
5.83902
5.86372
5.73244
5.75118
5.66005
5.67766
5.63018
5.64919
5.65198
5.67443
5.70503
96602.7
26105.1
23786.3
25492.2
27076.1
28662
30004.5
31075.3
31882.8
32489.4
32942.3
33286.3
75009.1
21749.2
20530.1
22210.3
23556.5
24777.1
25759.6
26525.7
27132.2
27516.2
27693.6
27719.2
60698.7
17867.1
17188.5
18537.2
19510.8
20326.3
20987.3
21489.1
21779.3
21831.4
21597.3
21121.6
48768.2
14208.3
13781.3
14648.9
15258.2
15752.9
16092.6
16234
16148.7
15735.1
15059.1
14078.9
38148.6
10750.9
10400.4
10876.6
11181.6
11327.5
11333
11058.5
10572.3
9794.49
8779.64
7463.57
28244.3
7598.37
7206.1
7434.56
7449.7
7254.7
6915.82
6349.59
5622.33
4658.13
3553.92
2317.7
19855.2
4799.54
4494.18
4429.81
4192.04
3755.47
3253.99
2575.93
1896.5
1147.62
572.719
169.602
12561.7
2476.06
2315.66
1918.36
1708.27
1202.62
876.286
439.137
231.037
43.9872
32.701
4.28192
6148.59
785.586
791.375
406.324
369.883
110.705
90.7867
10.6097
14.5176
6.14888
7.23521
7.00542
2304.94
105.172
115.859
25.9093
29.5346
5.71053
8.09734
6.17992
6.36166
6.33013
6.38245
6.4494
582.239
9.49693
12.1664
5.7988
6.18035
5.70752
5.57948
5.57529
5.54664
5.53423
5.54042
5.55434
1007.09
9.69731
9.62508
7.93299
7.80759
7.00881
7.0673
6.47341
6.56623
6.18102
6.24058
5.98328
)
;

boundaryField
{
    rotor
    {
        type            epsilonWallFunction;
        blending        stepwise;
        value           nonuniform List<scalar> 
192
(
2020.88
1800.76
2256.58
2264.85
2221.61
1970.03
1818.67
2540.72
12871.8
33377.1
43450.7
48468.5
52692.8
54831.2
56134.6
56352.8
56439.2
53906.1
50131
44142.5
36707.5
28006.8
17804.6
21554.2
2020.98
1800.85
2256.68
2264.95
2221.7
1970.1
1818.74
2540.87
12872.9
33378.2
43451.7
48469.6
52693.8
54832.3
56135.6
56353.7
56440.2
53906.9
50131.7
44143
36707.9
28007
17804.7
21554.4
2020.84
1800.73
2256.55
2264.83
2221.6
1970.03
1818.67
2540.73
12871.9
33377.2
43450.8
48468.6
52692.9
54831.3
56134.7
56352.9
56439.3
53906.2
50131
44142.5
36707.5
28006.8
17804.6
21554.1
2020.99
1800.85
2256.69
2264.95
2221.7
1970.11
1818.73
2540.81
12872.2
33377.3
43450.8
48468.6
52692.9
54831.2
56134.6
56352.8
56439.2
53906
50130.9
44142.4
36707.4
28006.7
17804.5
21554
2020.88
5449.55
7696.5
10777.1
12741.9
14257.2
14802.9
16207.8
18280.5
22623.6
26032.7
96843.1
21554
72442.8
114947
145544
171442
194864
217925
245225
278107
313255
355602
413197
2020.98
5449.85
7696.98
10777.8
12742.7
14257.8
14803.4
16208
18280.6
22623.6
26032.8
96843.4
21554.2
72443.1
114947
145544
171442
194865
217926
245226
278108
313257
355603
413199
2020.84
5449.48
7696.44
10777
12741.9
14257.2
14802.9
16207.8
18280.5
22623.8
26033
96843.5
21554.4
72443.8
114948
145546
171444
194867
217928
245228
278111
313259
355606
413202
2020.99
5449.84
7696.91
10777.6
12742.5
14257.6
14803.3
16207.8
18280.4
22623.4
26032.5
96842.7
21554.1
72443.1
114947
145545
171442
194865
217926
245226
278108
313257
355603
413198
)
;
    }
    stator
    {
        type            epsilonWallFunction;
        blending        stepwise;
        value           nonuniform List<scalar> 
192
(
6.01942
5.839
5.8637
5.73242
5.75116
5.66003
5.67764
5.63016
5.64917
5.65196
5.67441
5.70501
1007.18
9.69521
9.62234
7.93095
7.80545
7.00702
7.0654
6.47167
6.56447
6.17938
6.23893
5.98172
6.01943
5.83901
5.8637
5.73242
5.75117
5.66003
5.67764
5.63016
5.64917
5.65196
5.67441
5.70501
1007.13
9.69548
9.62212
7.93097
7.80548
7.00705
7.06543
6.4717
6.5645
6.17942
6.23896
5.98176
6.01946
5.83904
5.86373
5.73245
5.7512
5.66007
5.67768
5.6302
5.64921
5.65199
5.67445
5.70504
1007.05
9.69561
9.62176
7.93089
7.8054
7.00699
7.06538
6.47166
6.56446
6.17939
6.23893
5.98173
6.01944
5.83902
5.86372
5.73244
5.75118
5.66005
5.67766
5.63018
5.64919
5.65198
5.67443
5.70503
1007.09
9.69731
9.62508
7.93299
7.80759
7.00881
7.0673
6.47341
6.56623
6.18102
6.24058
5.98328
96604.2
75010.4
60699.9
48769.3
38149.5
28245.2
19855.9
12562.3
6149
2305.12
582.285
1007.18
27083.9
1801.21
128.494
16.9683
9.44918
8.97888
8.72271
8.48884
8.16892
7.46648
5.86353
5.70501
96604.3
75010.4
60699.8
48769.2
38149.4
28245
19855.7
12562.1
6148.81
2305.02
582.256
1007.13
27084
1801.21
128.493
16.9694
9.45017
8.97891
8.72255
8.48873
8.16886
7.46646
5.86354
5.70501
96603.4
75009.7
60699.2
48768.6
38148.9
28244.6
19855.3
12561.8
6148.56
2304.89
582.218
1007.05
27083.6
1801.18
128.491
16.9696
9.45029
8.97895
8.72264
8.48879
8.16892
7.46652
5.86359
5.70504
96602.7
75009.1
60698.7
48768.2
38148.6
28244.3
19855.2
12561.7
6148.59
2304.94
582.239
1007.09
27083.5
1801.18
128.498
16.9718
9.45104
8.97904
8.72272
8.48885
8.16895
7.46652
5.86357
5.70503
)
;
    }
    front
    {
        type            empty;
    }
    back
    {
        type            empty;
    }
}


// ************************************************************************* //
