/*--------------------------------*- C++ -*----------------------------------*\
| =========                 |                                                 |
| \\      /  F ield         | OpenFOAM: The Open Source CFD Toolbox           |
|  \\    /   O peration     | Version:  2212                                  |
|   \\  /    A nd           | Website:  www.openfoam.com                      |
|    \\/     M anipulation  |                                                 |
\*---------------------------------------------------------------------------*/
FoamFile
{
    version     2.0;
    format      ascii;
    arch        "LSB;label=32;scalar=64";
    class       volScalarField;
    location    "0.03";
    object      k;
}
// * * * * * * * * * * * * * * * * * * * * * * * * * * * * * * * * * * * * * //

dimensions      [0 2 -2 0 0 0 0];

internalField   nonuniform List<scalar> 
3072
(
2.30851
3.19934
3.71859
3.72757
3.67997
3.39654
3.2204
4.02526
11.877
22.4126
26.7201
28.7397
4.81621
7.82359
8.37126
8.1906
8.36299
8.04106
11.9407
18.9584
21.6108
31.2443
38.0138
45.7093
6.48061
11.0869
12.9464
14.5829
19.2879
21.7325
21.8135
26.4504
34.474
44.2908
52.2038
59.4269
8.61807
16.3479
18.4653
19.3674
22.0572
23.1794
26.5658
35.6286
45.1432
53.8048
60.8383
66.8857
10.1863
19.6825
21.8194
21.7792
23.2737
26.2013
33.9396
44.1638
52.9755
60.3571
66.3794
71.5084
11.5552
21.8921
23.3484
23.2693
25.9898
32.2538
41.8327
51.0561
58.616
64.7362
69.8044
74.1725
12.4254
23.3809
25.2797
26.5476
31.6622
40.2186
49.1685
56.8807
63.1397
68.1883
72.4283
76.1571
13.7982
26.7899
30.5163
35.1908
43.2489
51.2273
58.2564
64.0142
68.6873
72.5021
75.7824
78.7779
15.5866
33.4394
42.8462
53.1044
62.4565
68.8068
73.0475
75.9347
78.1274
79.9655
81.7113
83.5458
18.6848
43.2099
63.1426
78.6148
88.7424
93.2735
94.4514
93.897
92.8484
91.9179
91.4212
91.5291
21.2926
56.7363
91.932
111.885
120.914
122.682
120.621
116.405
111.876
107.827
104.644
102.471
52.9509
92.7983
130.671
147.172
151.274
150.086
144.922
138.152
131.083
124.585
119.129
114.894
30.3861
31.2021
31.6951
31.7769
31.8093
30.85
29.3923
27.0021
23.8779
19.9372
14.7403
11.1871
52.5251
58.2812
62.2897
64.3312
64.453
63.7914
62.472
60.0394
55.4117
45.584
32.6295
27.0292
65.3115
69.6517
72.5015
74.0642
74.8393
75.2329
75.2793
74.7308
72.6268
66.5879
50.0214
39.3035
71.7913
75.63
78.5373
80.6636
82.3174
83.8037
85.3475
86.8044
87.1841
84.5408
70.9865
48.8729
75.7459
79.2285
82.0984
84.5326
86.8174
89.2751
92.1965
95.559
98.3657
98.6359
89.2279
57.6232
77.9212
81.1929
84.1322
86.9279
89.8676
93.3076
97.5823
102.77
108.312
111.606
107.113
66.0597
79.5044
82.6122
85.6304
88.7574
92.2838
96.5903
102.078
108.957
116.81
123.286
123.366
74.6436
81.6329
84.4789
87.4673
90.7963
94.7464
99.7152
106.185
114.556
124.648
134.054
137.37
84.4228
85.5666
87.8605
90.5742
93.8822
98.0132
103.346
110.419
119.895
132.028
144.477
150.016
95.7152
92.2526
93.6118
95.7559
98.7886
102.826
108.179
115.33
125.225
138.819
154.526
163.763
107.762
101.615
102.151
103.539
105.928
109.6
114.64
121.262
130.59
144.327
163.009
179.329
121.69
112.408
112.234
113.268
115.134
118.104
122.456
127.9
135.588
147.122
167.012
193.517
139.3
2.30859
3.19944
3.71871
3.72767
3.68007
3.39662
3.22049
4.02542
11.8777
22.4131
26.7205
28.7401
4.81639
7.82383
8.37151
8.19083
8.36319
8.0412
11.9411
18.9587
21.6113
31.2451
38.0146
45.7102
6.48088
11.0873
12.9469
14.5834
19.2883
21.7326
21.8136
26.4512
34.4749
44.2919
52.2049
59.4281
8.61844
16.3486
18.4659
19.368
22.0575
23.1797
26.5666
35.6299
45.1444
53.806
60.8396
66.887
10.1867
19.6832
21.82
21.7798
23.2742
26.2019
33.9409
44.1652
52.9769
60.3586
66.3809
71.5099
11.5555
21.8928
23.3491
23.27
25.9905
32.2552
41.8342
51.0576
58.6176
64.7377
69.806
74.1741
12.4256
23.3815
25.2805
26.5486
31.6634
40.2203
49.1702
56.8824
63.1414
68.1899
72.43
76.1588
13.7983
26.7904
30.5171
35.192
43.2505
51.229
58.2581
64.016
68.6891
72.5039
75.7843
78.7798
15.5866
33.4396
42.8469
53.1054
62.4576
68.8082
73.049
75.9364
78.1291
79.9674
81.7132
83.5478
18.6848
43.21
63.143
78.6153
88.7431
93.2744
94.4526
93.8985
92.8501
91.9196
91.423
91.531
21.2926
56.7365
91.9324
111.885
120.915
122.683
120.622
116.406
111.877
107.829
104.646
102.473
52.951
92.7989
130.671
147.173
151.274
150.086
144.923
138.153
131.084
124.586
119.13
114.895
30.3865
31.2025
31.6954
31.7772
31.8097
30.8503
29.3925
27.0023
23.878
19.9373
14.7404
11.1871
52.5261
58.2822
62.2907
64.3321
64.4539
63.7922
62.4728
60.0401
55.4123
45.5844
32.6297
27.0293
65.3127
69.6529
72.5027
74.0653
74.8404
75.2339
75.2802
74.7316
72.6276
66.5885
50.0218
39.3037
71.7927
75.6314
78.5387
80.6649
82.3187
83.8049
85.3486
86.8054
87.1851
84.5416
70.9871
48.8732
75.7474
79.23
82.1
84.5341
86.8189
89.2765
92.1979
95.5603
98.3668
98.6368
89.2287
57.6235
77.9228
81.1946
84.1339
86.9296
89.8693
93.3092
97.5838
102.771
108.313
111.607
107.114
66.0601
79.5062
82.614
85.6322
88.7592
92.2856
96.592
102.08
108.959
116.812
123.287
123.367
74.6441
81.6348
84.4808
87.4692
90.7982
94.7483
99.717
106.187
114.558
124.649
134.056
137.371
84.4233
85.5686
87.8625
90.5761
93.8841
98.0151
103.348
110.421
119.896
132.03
144.478
150.018
95.7158
92.2545
93.6138
95.7579
98.7905
102.828
108.18
115.332
125.227
138.821
154.527
163.764
107.762
101.617
102.153
103.541
105.929
109.602
114.642
121.263
130.592
144.329
163.01
179.33
121.691
112.41
112.235
113.269
115.135
118.106
122.458
127.902
135.589
147.123
167.013
193.518
139.301
2.30848
3.19931
3.71856
3.72755
3.67996
3.39653
3.22041
4.02527
11.8771
22.4127
26.7202
28.7397
4.81617
7.82355
8.37126
8.19064
8.36306
8.04115
11.9409
18.9585
21.6109
31.2444
38.0139
45.7094
6.48058
11.0869
12.9465
14.5831
19.2882
21.7327
21.8135
26.4505
34.4741
44.2909
52.2039
59.427
8.61804
16.348
18.4654
19.3677
22.0574
23.1796
26.5659
35.6288
45.1433
53.8049
60.8384
66.8858
10.1862
19.6826
21.8196
21.7795
23.274
26.2014
33.9397
44.1639
52.9756
60.3573
66.3796
71.5086
11.5552
21.8922
23.3486
23.2695
25.9899
32.2539
41.8328
51.0562
58.6162
64.7364
69.8046
74.1727
12.4254
23.381
25.2798
26.5477
31.6622
40.2186
49.1686
56.8809
63.1399
68.1885
72.4286
76.1573
13.7982
26.7899
30.5163
35.1907
43.2488
51.2273
58.2565
64.0144
68.6876
72.5024
75.7828
78.7783
15.5866
33.4394
42.8462
53.1044
62.4566
68.807
73.0477
75.935
78.1277
79.9659
81.7118
83.5463
18.6849
43.2101
63.143
78.6153
88.7429
93.274
94.4519
93.8976
92.849
91.9185
91.4218
91.5297
21.2927
56.7368
91.9328
111.886
120.915
122.683
120.622
116.406
111.876
107.828
104.645
102.472
52.951
92.7992
130.672
147.174
151.275
150.087
144.923
138.153
131.084
124.586
119.13
114.895
30.3862
31.2021
31.6951
31.7769
31.8093
30.85
29.3923
27.0021
23.8779
19.9372
14.7403
11.1871
52.5252
58.2813
62.2898
64.3313
64.4531
63.7915
62.4721
60.0395
55.4118
45.5841
32.6295
27.0292
65.3116
69.6518
72.5016
74.0643
74.8395
75.233
75.2794
74.7308
72.6269
66.588
50.0214
39.3035
71.7914
75.6301
78.5374
80.6637
82.3176
83.8038
85.3476
86.8045
87.1842
84.5409
70.9866
48.8729
75.7461
79.2287
82.0986
84.5328
86.8176
89.2753
92.1967
95.5592
98.3658
98.6359
89.228
57.6232
77.9214
81.1932
84.1324
86.9282
89.8679
93.3079
97.5825
102.77
108.312
111.606
107.113
66.0597
79.5047
82.6125
85.6307
88.7577
92.2841
96.5906
102.078
108.957
116.81
123.286
123.366
74.6437
81.6333
84.4793
87.4677
90.7967
94.7468
99.7155
106.185
114.557
124.648
134.055
137.37
84.4228
85.5671
87.861
90.5747
93.8827
98.0137
103.347
110.419
119.895
132.028
144.477
150.017
95.7152
92.2532
93.6125
95.7565
98.7892
102.826
108.179
115.331
125.225
138.82
154.526
163.763
107.762
101.616
102.152
103.54
105.928
109.601
114.641
121.262
130.59
144.327
163.009
179.329
121.69
112.409
112.234
113.268
115.135
118.105
122.457
127.901
135.588
147.122
167.012
193.517
139.3
2.30859
3.19945
3.71871
3.72768
3.68007
3.39663
3.22048
4.02535
11.8772
22.4127
26.7202
28.7397
4.81638
7.82383
8.37149
8.1908
8.36315
8.04116
11.9409
18.9585
21.611
31.2445
38.014
45.7095
6.48084
11.0872
12.9468
14.5833
19.2881
21.7325
21.8134
26.4506
34.4742
44.2911
52.2041
59.4272
8.61837
16.3484
18.4657
19.3677
22.0573
23.1794
26.566
35.6291
45.1436
53.8052
60.8387
66.886
10.1866
19.683
21.8198
21.7795
23.2739
26.2015
33.9402
44.1644
52.976
60.3576
66.3799
71.5089
11.5555
21.8926
23.3488
23.2697
25.9901
32.2545
41.8335
51.0568
58.6167
64.7368
69.805
74.1731
12.4255
23.3813
25.2802
26.5482
31.6629
40.2196
49.1694
56.8815
63.1405
68.189
72.4291
76.1578
13.7983
26.7902
30.5168
35.1914
43.2498
51.2282
58.2574
64.0152
68.6883
72.503
75.7833
78.7788
15.5865
33.4394
42.8464
53.1048
62.457
68.8075
73.0483
75.9355
78.1283
79.9665
81.7123
83.5468
18.6847
43.2097
63.1425
78.6148
88.7424
93.2737
94.4519
93.8977
92.8492
91.9188
91.4221
91.53
21.2924
56.7361
91.9319
111.884
120.914
122.682
120.621
116.406
111.876
107.828
104.645
102.472
52.9507
92.7985
130.671
147.173
151.274
150.086
144.922
138.152
131.083
124.585
119.13
114.894
30.3861
31.2021
31.6951
31.7769
31.8093
30.85
29.3922
27.0021
23.8778
19.9371
14.7402
11.187
52.5253
58.2813
62.2898
64.3313
64.4531
63.7915
62.4721
60.0394
55.4117
45.584
32.6294
27.0291
65.3118
69.6519
72.5017
74.0644
74.8395
75.233
75.2794
74.7308
72.6268
66.5879
50.0213
39.3034
71.7916
75.6304
78.5376
80.6639
82.3177
83.8039
85.3476
86.8045
87.1841
84.5408
70.9864
48.8728
75.7464
79.229
82.0989
84.533
86.8177
89.2754
92.1968
95.5592
98.3658
98.6358
89.2278
57.6231
77.9218
81.1935
84.1328
86.9285
89.8681
93.3081
97.5827
102.77
108.312
111.606
107.113
66.0596
79.5051
82.6129
85.6311
88.758
92.2844
96.5908
102.078
108.957
116.81
123.286
123.365
74.6435
81.6338
84.4798
87.4681
90.797
94.7471
99.7158
106.186
114.557
124.648
134.055
137.37
84.4226
85.5676
87.8615
90.5751
93.883
98.014
103.347
110.419
119.895
132.028
144.477
150.016
95.715
92.2536
93.6128
95.7569
98.7895
102.826
108.179
115.331
125.225
138.819
154.526
163.763
107.761
101.616
102.152
103.54
105.929
109.601
114.641
121.262
130.59
144.327
163.008
179.329
121.69
112.409
112.234
113.268
115.134
118.105
122.457
127.901
135.588
147.122
167.011
193.517
139.3
163.945
161.233
162.085
163.566
163.485
161.682
157.178
150.991
143.979
137.096
130.934
125.791
164.133
157.722
155.075
154.949
155.64
155.46
154.055
151.173
146.746
141.914
137.094
132.754
152.144
148.246
145.053
143.557
143.461
143.874
144.111
143.691
142.537
140.542
137.99
135.71
139.343
137.714
135.837
134.308
133.813
134.105
134.814
135.525
136.005
136.054
135.794
135.569
122.703
122.356
123.283
124.854
127.165
130.266
133.756
138.673
146.724
162.543
191.368
183.075
130.695
130.968
131.837
132.906
133.987
134.937
136.272
138.69
142.96
151.776
172.014
171.57
135.664
136.25
136.522
136.294
135.574
134.59
134.026
134.277
136.033
140.24
152.028
154.67
136.49
136.065
134.485
132.404
129.959
128.193
127.294
127.365
128.669
131.002
137.296
140.313
163.945
161.235
162.086
163.568
163.487
161.683
157.179
150.992
143.98
137.097
130.936
125.792
164.133
157.725
155.078
154.952
155.642
155.462
154.057
151.175
146.747
141.915
137.095
132.755
152.145
148.249
145.056
143.56
143.463
143.876
144.113
143.693
142.539
140.543
137.991
135.711
139.345
137.717
135.84
134.311
133.815
134.107
134.816
135.527
136.006
136.055
135.795
135.569
122.705
122.357
123.285
124.856
127.166
130.267
133.757
138.674
146.725
162.544
191.369
183.075
130.696
130.969
131.838
132.907
133.988
134.937
136.273
138.691
142.96
151.777
172.015
171.57
135.664
136.251
136.522
136.294
135.575
134.591
134.026
134.278
136.033
140.241
152.029
154.67
136.491
136.065
134.486
132.404
129.959
128.194
127.294
127.366
128.669
131.003
137.297
140.313
163.946
161.235
162.087
163.568
163.487
161.683
157.18
150.992
143.98
137.097
130.935
125.792
164.134
157.725
155.078
154.952
155.643
155.462
154.057
151.175
146.748
141.916
137.095
132.755
152.146
148.25
145.056
143.56
143.464
143.877
144.114
143.693
142.539
140.544
137.991
135.711
139.346
137.717
135.841
134.311
133.815
134.107
134.816
135.527
136.006
136.055
135.795
135.569
122.704
122.357
123.284
124.855
127.166
130.266
133.756
138.673
146.724
162.543
191.368
183.074
130.696
130.969
131.838
132.906
133.988
134.937
136.272
138.69
142.959
151.776
172.014
171.569
135.664
136.251
136.522
136.294
135.574
134.59
134.026
134.277
136.032
140.24
152.028
154.669
136.491
136.065
134.485
132.404
129.959
128.193
127.293
127.365
128.668
131.002
137.296
140.312
163.945
161.234
162.086
163.567
163.486
161.682
157.178
150.991
143.979
137.097
130.935
125.791
164.133
157.724
155.077
154.951
155.642
155.461
154.056
151.174
146.747
141.915
137.094
132.755
152.145
148.249
145.055
143.56
143.463
143.876
144.113
143.692
142.538
140.543
137.991
135.711
139.345
137.716
135.84
134.31
133.815
134.107
134.815
135.526
136.006
136.055
135.794
135.569
122.704
122.357
123.284
124.855
127.166
130.266
133.756
138.673
146.724
162.543
191.368
183.074
130.696
130.968
131.837
132.906
133.987
134.936
136.272
138.69
142.959
151.776
172.014
171.568
135.664
136.25
136.522
136.294
135.574
134.59
134.025
134.277
136.032
140.24
152.027
154.668
136.49
136.064
134.485
132.404
129.958
128.193
127.293
127.364
128.668
131.001
137.295
140.31
128.399
127.577
127.035
127.065
127.518
128.154
128.699
128.945
128.725
128.02
127.228
126.783
121.203
121.215
121.398
121.809
122.182
122.239
121.499
119.89
117.382
114.416
111.818
110.901
114.713
114.906
115.056
115.119
114.647
113.36
111.05
107.729
103.612
99.4985
96.4317
96.1687
106.531
106.407
105.864
104.905
103.089
100.323
96.571
92.0523
87.2611
83.1814
81.0108
80.8785
127.021
124.659
121.582
120.816
120.297
120.904
122.018
123.616
125.591
127.895
129.773
130.076
112.063
112.138
110.837
112.056
113.513
115.593
117.666
119.74
121.459
122.609
123.255
122.525
100.047
102.604
102.325
104.979
107.48
110.204
112.591
114.414
115.636
116.348
116.405
115.415
87.1154
94.2238
94.6388
97.8017
100.66
103.365
105.462
106.975
108.009
108.41
108.058
107.095
128.403
127.579
127.037
127.067
127.519
128.155
128.7
128.946
128.726
128.02
127.228
126.783
121.205
121.217
121.4
121.81
122.183
122.24
121.499
119.89
117.382
114.416
111.818
110.902
114.714
114.907
115.057
115.119
114.647
113.361
111.05
107.729
103.612
99.4987
96.4318
96.1689
106.532
106.407
105.865
104.905
103.09
100.323
96.5713
92.0525
87.2613
83.1816
81.0109
80.8786
127.021
124.659
121.582
120.816
120.297
120.904
122.018
123.616
125.591
127.895
129.774
130.076
112.063
112.138
110.837
112.056
113.513
115.593
117.666
119.74
121.459
122.609
123.255
122.525
100.047
102.604
102.325
104.979
107.481
110.204
112.591
114.414
115.637
116.348
116.405
115.415
87.1155
94.2239
94.6389
97.8018
100.66
103.365
105.462
106.975
108.009
108.41
108.058
107.095
128.403
127.58
127.037
127.067
127.519
128.155
128.7
128.946
128.725
128.02
127.228
126.783
121.205
121.217
121.4
121.81
122.183
122.24
121.499
119.89
117.382
114.416
111.818
110.901
114.714
114.907
115.057
115.119
114.647
113.361
111.05
107.729
103.612
99.4983
96.4314
96.1684
106.532
106.407
105.865
104.905
103.09
100.323
96.5711
92.0522
87.2609
83.1812
81.0105
80.8781
127.02
124.659
121.582
120.815
120.297
120.903
122.018
123.616
125.59
127.894
129.773
130.076
112.063
112.138
110.836
112.056
113.513
115.593
117.666
119.74
121.458
122.608
123.254
122.525
100.047
102.603
102.324
104.978
107.48
110.203
112.591
114.414
115.636
116.347
116.405
115.414
87.115
94.2233
94.6383
97.8013
100.659
103.364
105.461
106.975
108.009
108.41
108.057
107.095
128.402
127.579
127.037
127.066
127.518
128.154
128.7
128.946
128.725
128.02
127.227
126.782
121.204
121.216
121.399
121.81
122.182
122.239
121.499
119.889
117.382
114.416
111.817
110.901
114.714
114.906
115.057
115.119
114.647
113.36
111.049
107.729
103.611
99.4979
96.431
96.168
106.532
106.407
105.864
104.905
103.089
100.323
96.5706
92.0519
87.2606
83.1809
81.0102
80.8778
127.02
124.658
121.581
120.815
120.296
120.903
122.017
123.615
125.589
127.893
129.771
130.073
112.062
112.137
110.836
112.055
113.512
115.592
117.665
119.739
121.458
122.607
123.253
122.523
100.046
102.603
102.324
104.978
107.479
110.203
112.59
114.413
115.635
116.346
116.404
115.414
87.1146
94.2229
94.6379
97.8008
100.659
103.364
105.461
106.974
108.008
108.409
108.057
107.095
95.4081
94.3564
92.5578
90.0535
86.4371
81.6877
75.7297
68.615
60.3611
50.6758
38.9047
29.1625
80.8482
78.3954
74.9026
70.399
64.473
57.0323
47.8058
36.6077
23.5165
12.163
6.1883
4.89858
63.1901
59.0835
53.715
47.0825
38.8441
29.0136
17.6344
7.50157
2.34868
0.985377
0.846175
0.861453
43.514
37.8552
30.9362
22.8101
13.5656
5.4417
1.27237
0.309492
0.237062
0.224476
0.226579
0.227995
23.6024
17.0374
9.91421
3.91806
0.886717
0.202158
0.170336
0.156405
0.160261
0.159262
0.158812
0.157397
6.5151
2.4873
0.633603
0.162594
0.16929
0.15345
0.154721
0.154666
0.154735
0.154826
0.155001
0.15523
0.442028
0.14234
0.16133
0.152611
0.153087
0.153379
0.15376
0.154044
0.154308
0.15461
0.155043
0.155277
0.155543
0.151006
0.151467
0.151955
0.152328
0.152774
0.153142
0.153645
0.154022
0.154593
0.155068
0.155419
0.149004
0.149384
0.149806
0.150254
0.150712
0.151193
0.151665
0.152142
0.152628
0.15313
0.1537
0.154315
0.141871
0.142354
0.142821
0.14334
0.143837
0.144383
0.144917
0.145499
0.146069
0.146681
0.147312
0.147968
0.121061
0.121662
0.122254
0.12284
0.123437
0.124054
0.124693
0.125363
0.126066
0.126789
0.127518
0.128165
0.0702494
0.0688366
0.0690306
0.0679946
0.0681429
0.0674195
0.0675594
0.0671809
0.0673321
0.0673536
0.0675314
0.0677735
68.0793
84.5315
86.5911
89.6553
92.3104
94.5526
96.2561
97.5513
98.2642
98.3075
97.5173
96.3978
58.85
73.9484
77.5345
80.1386
82.2572
83.985
85.3339
86.1947
86.4155
85.7963
84.4676
82.7864
52.2523
64.0704
67.3489
69.394
70.9508
72.1836
72.9433
73.1478
72.5532
71.1075
69.0373
66.4274
46.1403
54.0402
56.4319
57.9866
58.9338
59.4307
59.4576
58.6626
57.1346
54.8079
51.8345
48.1148
39.9963
43.939
45.4492
46.2951
46.5166
46.1041
45.1241
43.3566
40.9528
37.7611
33.9017
29.1985
33.4009
34.1026
34.6743
34.6162
33.9372
32.5469
30.6938
28.0974
25.0224
21.1583
16.7175
11.6222
26.9298
24.0438
24.3597
22.9461
21.7762
19.5112
17.1267
13.9064
10.6178
6.87543
3.7337
1.30706
20.228
14.5097
14.6626
11.9522
10.853
7.88704
5.93805
3.2789
1.7995
0.508263
0.32961
0.134931
12.7978
5.80623
6.10914
3.41236
3.04958
1.11064
0.856539
0.218282
0.223333
0.141466
0.150851
0.148449
6.77421
1.06743
1.20154
0.376272
0.384684
0.141533
0.160715
0.137816
0.141223
0.140497
0.141069
0.141483
2.7547
0.139573
0.177861
0.111747
0.121131
0.114978
0.117655
0.118123
0.11861
0.119197
0.119807
0.120431
2.13776
0.0965667
0.0960544
0.0844444
0.0835481
0.0777473
0.0781771
0.0737299
0.0744336
0.0714905
0.0719493
0.0699556
95.4089
94.3571
92.5584
90.0539
86.4374
81.6879
75.7299
68.6151
60.3613
50.6759
38.9048
29.1625
80.8487
78.3959
74.903
70.3994
64.4733
57.0326
47.806
36.6078
23.5165
12.1631
6.1883
4.89858
63.1905
59.0839
53.7153
47.0828
38.8443
29.0138
17.6345
7.5016
2.34868
0.98538
0.84617
0.861451
43.5143
37.8556
30.9365
22.8102
13.5657
5.44175
1.27239
0.309504
0.237071
0.224487
0.226589
0.228005
23.6025
17.0376
9.91439
3.91814
0.886737
0.202166
0.17034
0.156412
0.160269
0.159271
0.158821
0.157408
6.51506
2.48741
0.633585
0.162601
0.169291
0.153449
0.154721
0.154666
0.154735
0.154826
0.155001
0.15523
0.441895
0.142344
0.161329
0.152609
0.153086
0.153377
0.153758
0.154043
0.154306
0.154608
0.155041
0.155275
0.155541
0.151005
0.151466
0.151954
0.152327
0.152772
0.15314
0.153644
0.15402
0.154592
0.155067
0.155418
0.149004
0.149383
0.149805
0.150253
0.150711
0.151192
0.151665
0.152141
0.152627
0.15313
0.153699
0.154314
0.141871
0.142354
0.142821
0.14334
0.143837
0.144383
0.144917
0.145499
0.146068
0.14668
0.147312
0.147968
0.121061
0.121662
0.122254
0.12284
0.123438
0.124054
0.124693
0.125363
0.126066
0.12679
0.127518
0.128166
0.0702495
0.0688366
0.0690307
0.0679947
0.0681429
0.0674196
0.0675594
0.0671809
0.0673321
0.0673536
0.0675314
0.0677735
68.0794
84.5316
86.5911
89.6554
92.3105
94.5527
96.2561
97.5513
98.2642
98.3075
97.5172
96.3977
58.85
73.9484
77.5345
80.1386
82.2571
83.985
85.3339
86.1946
86.4155
85.7962
84.4675
82.7862
52.2523
64.0703
67.3488
69.3939
70.9507
72.1835
72.9432
73.1477
72.5531
71.1074
69.0371
66.4273
46.1402
54.04
56.4318
57.9865
58.9337
59.4306
59.4574
58.6624
57.1344
54.8077
51.8343
48.1146
39.9961
43.9389
45.4491
46.2949
46.5164
46.1039
45.1239
43.3564
40.9526
37.7609
33.9015
29.1983
33.4007
34.1024
34.6741
34.616
33.9369
32.5466
30.6935
28.0971
25.0221
21.1581
16.7173
11.622
26.9296
24.0436
24.3594
22.9458
21.776
19.5109
17.1264
13.9062
10.6176
6.87525
3.73358
1.30701
20.2278
14.5094
14.6623
11.9519
10.8527
7.88679
5.93785
3.27875
1.79942
0.508236
0.329604
0.134932
12.7975
5.80595
6.10888
3.41218
3.04942
1.11056
0.856491
0.218272
0.223327
0.141467
0.150851
0.14845
6.77402
1.06734
1.20145
0.376242
0.384658
0.141532
0.160713
0.137817
0.141224
0.140498
0.14107
0.141484
2.75461
0.139568
0.177853
0.111747
0.121131
0.114978
0.117656
0.118124
0.118611
0.119198
0.119808
0.120432
2.13769
0.0965684
0.0960529
0.0844446
0.0835483
0.0777475
0.0781773
0.0737301
0.0744338
0.0714907
0.0719496
0.0699559
95.4088
94.3569
92.5582
90.0537
86.4373
81.6877
75.7296
68.6149
60.3609
50.6756
38.9045
29.1623
80.8486
78.3958
74.9029
70.3992
64.4731
57.0323
47.8058
36.6076
23.5163
12.1629
6.18823
4.89851
63.1903
59.0837
53.7151
47.0826
38.8441
29.0136
17.6343
7.50149
2.34865
0.985368
0.846164
0.861443
43.5141
37.8554
30.9363
22.8101
13.5655
5.44165
1.27237
0.309501
0.237074
0.224488
0.226591
0.228007
23.6023
17.0374
9.91424
3.91805
0.886717
0.202164
0.170341
0.156413
0.16027
0.159273
0.158822
0.15741
6.51491
2.48734
0.63357
0.162599
0.169291
0.15345
0.154721
0.154666
0.154736
0.154826
0.155001
0.155231
0.441885
0.142344
0.161329
0.15261
0.153086
0.153378
0.153759
0.154044
0.154307
0.154609
0.155042
0.155276
0.155541
0.151006
0.151466
0.151955
0.152328
0.152773
0.153141
0.153644
0.154021
0.154593
0.155068
0.155418
0.149004
0.149384
0.149806
0.150254
0.150712
0.151193
0.151665
0.152142
0.152628
0.15313
0.1537
0.154315
0.141872
0.142355
0.142822
0.14334
0.143838
0.144383
0.144918
0.1455
0.146069
0.146681
0.147313
0.147969
0.121062
0.121662
0.122255
0.122841
0.123438
0.124054
0.124693
0.125364
0.126067
0.12679
0.127519
0.128166
0.0702497
0.0688369
0.0690309
0.0679949
0.0681432
0.0674198
0.0675597
0.0671811
0.0673324
0.0673539
0.0675317
0.0677738
68.0789
84.5311
86.5906
89.6549
92.31
94.5522
96.2556
97.5508
98.2637
98.307
97.5168
96.3973
58.8497
73.9479
77.534
80.1381
82.2567
83.9845
85.3334
86.1942
86.415
85.7958
84.4671
82.7858
52.2519
64.0699
67.3484
69.3935
70.9503
72.1831
72.9428
73.1474
72.5527
71.107
69.0368
66.4269
46.1399
54.0396
56.4314
57.9861
58.9333
59.4302
59.457
58.6621
57.1341
54.8074
51.834
48.1143
39.9958
43.9385
45.4487
46.2945
46.5161
46.1035
45.1235
43.3561
40.9523
37.7606
33.9012
29.198
33.4004
34.102
34.6737
34.6156
33.9366
32.5463
30.6932
28.0968
25.0218
21.1578
16.717
11.6218
26.9293
24.0432
24.359
22.9455
21.7756
19.5106
17.1261
13.9059
10.6174
6.87505
3.73344
1.30695
20.2275
14.5091
14.662
11.9516
10.8524
7.88653
5.93764
3.2786
1.79934
0.508205
0.329596
0.134932
12.7972
5.80564
6.10858
3.41199
3.04925
1.11049
0.856444
0.218262
0.223321
0.141468
0.150851
0.14845
6.77377
1.06724
1.20134
0.376209
0.384631
0.14153
0.160711
0.137817
0.141224
0.140498
0.14107
0.141484
2.75449
0.139562
0.177843
0.111747
0.12113
0.114978
0.117656
0.118124
0.118611
0.119197
0.119807
0.120432
2.13758
0.0965692
0.0960505
0.084444
0.0835478
0.077747
0.0781769
0.0737298
0.0744335
0.0714905
0.0719493
0.0699557
95.4083
94.3565
92.5578
90.0533
86.4368
81.6873
75.7293
68.6146
60.3607
50.6754
38.9044
29.1622
80.8482
78.3954
74.9025
70.3988
64.4727
57.032
47.8055
36.6074
23.5162
12.1629
6.18825
4.89853
63.19
59.0834
53.7148
47.0823
38.8438
29.0134
17.6342
7.50146
2.34867
0.985395
0.846193
0.86147
43.5138
37.855
30.936
22.8098
13.5654
5.44159
1.27238
0.309519
0.237094
0.224506
0.22661
0.228026
23.6021
17.0371
9.91406
3.91797
0.88671
0.202168
0.170348
0.156418
0.160276
0.15928
0.15883
0.157418
6.51474
2.48726
0.633555
0.162599
0.169291
0.153451
0.154722
0.154667
0.154737
0.154827
0.155003
0.155232
0.441871
0.142345
0.16133
0.152611
0.153087
0.153379
0.15376
0.154045
0.154308
0.15461
0.155044
0.155277
0.155541
0.151006
0.151467
0.151955
0.152328
0.152774
0.153142
0.153645
0.154022
0.154593
0.155069
0.155419
0.149005
0.149384
0.149806
0.150254
0.150712
0.151193
0.151666
0.152142
0.152628
0.153131
0.1537
0.154315
0.141872
0.142355
0.142822
0.14334
0.143838
0.144383
0.144918
0.1455
0.146069
0.146681
0.147313
0.147969
0.121062
0.121662
0.122255
0.122841
0.123438
0.124054
0.124693
0.125363
0.126067
0.12679
0.127518
0.128166
0.0702496
0.0688367
0.0690308
0.0679948
0.0681431
0.0674197
0.0675596
0.067181
0.0673322
0.0673538
0.0675316
0.0677736
68.0786
84.5306
86.5902
89.6544
92.3095
94.5517
96.2552
97.5504
98.2633
98.3067
97.5168
96.3975
58.8494
73.9475
77.5336
80.1377
82.2563
83.9841
85.333
86.1938
86.4148
85.7957
84.4672
82.7861
52.2517
64.0695
67.348
69.3931
70.9499
72.1827
72.9425
73.1471
72.5525
71.107
69.0369
66.4271
46.1396
54.0393
56.431
57.9857
58.9329
59.4299
59.4568
58.6619
57.134
54.8074
51.8341
48.1145
39.9956
43.9382
45.4484
46.2942
46.5158
46.1033
45.1234
43.356
40.9523
37.7607
33.9013
29.1981
33.4002
34.1018
34.6735
34.6154
33.9364
32.5462
30.6931
28.0968
25.0219
21.1579
16.7172
11.6219
26.9292
24.0431
24.3589
22.9454
21.7756
19.5106
17.1262
13.906
10.6175
6.8752
3.73356
1.30703
20.2274
14.5091
14.6619
11.9517
10.8525
7.88666
5.9378
3.27876
1.79946
0.508294
0.329649
0.134959
12.7972
5.80579
6.10871
3.41213
3.0494
1.11061
0.856545
0.218329
0.22338
0.141515
0.150899
0.148497
6.77386
1.06736
1.20146
0.37629
0.384706
0.14158
0.160761
0.137862
0.14127
0.140544
0.141116
0.14153
2.75455
0.139597
0.177888
0.111781
0.121167
0.115014
0.117694
0.118162
0.11865
0.119237
0.119847
0.120472
2.13763
0.0965806
0.0960726
0.0844589
0.0835634
0.0777605
0.0781911
0.0737431
0.0744469
0.0715031
0.071962
0.0699678
)
;

boundaryField
{
    rotor
    {
        type            kqRWallFunction;
        value           nonuniform List<scalar> 
192
(
2.30851
3.19934
3.71859
3.72757
3.67997
3.39654
3.2204
4.02526
11.877
22.4126
26.7201
28.7397
30.3861
31.2021
31.6951
31.7769
31.8093
30.85
29.3923
27.0021
23.8779
19.9372
14.7403
11.1871
2.30859
3.19944
3.71871
3.72767
3.68007
3.39662
3.22049
4.02542
11.8777
22.4131
26.7205
28.7401
30.3865
31.2025
31.6954
31.7772
31.8097
30.8503
29.3925
27.0023
23.878
19.9373
14.7404
11.1871
2.30848
3.19931
3.71856
3.72755
3.67996
3.39653
3.22041
4.02527
11.8771
22.4127
26.7202
28.7397
30.3862
31.2021
31.6951
31.7769
31.8093
30.85
29.3923
27.0021
23.8779
19.9372
14.7403
11.1871
2.30859
3.19945
3.71871
3.72768
3.68007
3.39663
3.22048
4.02535
11.8772
22.4127
26.7202
28.7397
30.3861
31.2021
31.6951
31.7769
31.8093
30.85
29.3922
27.0021
23.8778
19.9371
14.7402
11.187
2.30851
4.81621
6.48061
8.61807
10.1863
11.5552
12.4254
13.7982
15.5866
18.6848
21.2926
52.9509
11.187
27.0291
39.3034
48.8728
57.6231
66.0596
74.6435
84.4226
95.715
107.761
121.69
139.3
2.30859
4.81639
6.48088
8.61844
10.1867
11.5555
12.4256
13.7983
15.5866
18.6848
21.2926
52.951
11.1871
27.0292
39.3035
48.8729
57.6232
66.0597
74.6436
84.4228
95.7152
107.762
121.69
139.3
2.30848
4.81617
6.48058
8.61804
10.1862
11.5552
12.4254
13.7982
15.5866
18.6849
21.2927
52.951
11.1871
27.0293
39.3037
48.8732
57.6235
66.0601
74.6441
84.4233
95.7158
107.762
121.691
139.301
2.30859
4.81638
6.48084
8.61837
10.1866
11.5555
12.4255
13.7983
15.5865
18.6847
21.2924
52.9507
11.1871
27.0292
39.3035
48.8729
57.6232
66.0597
74.6437
84.4228
95.7152
107.762
121.69
139.3
)
;
    }
    stator
    {
        type            kqRWallFunction;
        value           nonuniform List<scalar> 
192
(
0.0702494
0.0688366
0.0690306
0.0679946
0.0681429
0.0674195
0.0675594
0.0671809
0.0673321
0.0673536
0.0675314
0.0677735
2.13776
0.0965667
0.0960544
0.0844444
0.0835481
0.0777473
0.0781771
0.0737299
0.0744336
0.0714905
0.0719493
0.0699556
0.0702495
0.0688366
0.0690307
0.0679947
0.0681429
0.0674196
0.0675594
0.0671809
0.0673321
0.0673536
0.0675314
0.0677735
2.13769
0.0965684
0.0960529
0.0844446
0.0835483
0.0777475
0.0781773
0.0737301
0.0744338
0.0714907
0.0719496
0.0699559
0.0702497
0.0688369
0.0690309
0.0679949
0.0681432
0.0674198
0.0675597
0.0671811
0.0673324
0.0673539
0.0675317
0.0677738
2.13758
0.0965692
0.0960505
0.084444
0.0835478
0.077747
0.0781769
0.0737298
0.0744335
0.0714905
0.0719493
0.0699557
0.0702496
0.0688367
0.0690308
0.0679948
0.0681431
0.0674197
0.0675596
0.067181
0.0673322
0.0673538
0.0675316
0.0677736
2.13763
0.0965806
0.0960726
0.0844589
0.0835634
0.0777605
0.0781911
0.0737431
0.0744469
0.0715031
0.071962
0.0699678
68.0793
58.85
52.2523
46.1403
39.9963
33.4009
26.9298
20.228
12.7978
6.77421
2.7547
2.13776
29.1625
4.89858
0.861453
0.227995
0.157397
0.15523
0.155277
0.155419
0.154315
0.147968
0.128165
0.0677735
68.0794
58.85
52.2523
46.1402
39.9961
33.4007
26.9296
20.2278
12.7975
6.77402
2.75461
2.13769
29.1625
4.89858
0.861451
0.228005
0.157408
0.15523
0.155275
0.155418
0.154314
0.147968
0.128166
0.0677735
68.0789
58.8497
52.2519
46.1399
39.9958
33.4004
26.9293
20.2275
12.7972
6.77377
2.75449
2.13758
29.1623
4.89851
0.861443
0.228007
0.15741
0.155231
0.155276
0.155418
0.154315
0.147969
0.128166
0.0677738
68.0786
58.8494
52.2517
46.1396
39.9956
33.4002
26.9292
20.2274
12.7972
6.77386
2.75455
2.13763
29.1622
4.89853
0.86147
0.228026
0.157418
0.155232
0.155277
0.155419
0.154315
0.147969
0.128166
0.0677736
)
;
    }
    front
    {
        type            empty;
    }
    back
    {
        type            empty;
    }
}


// ************************************************************************* //
