/*--------------------------------*- C++ -*----------------------------------*\
| =========                 |                                                 |
| \\      /  F ield         | OpenFOAM: The Open Source CFD Toolbox           |
|  \\    /   O peration     | Version:  2212                                  |
|   \\  /    A nd           | Website:  www.openfoam.com                      |
|    \\/     M anipulation  |                                                 |
\*---------------------------------------------------------------------------*/
FoamFile
{
    version     2.0;
    format      ascii;
    arch        "LSB;label=32;scalar=64";
    class       surfaceScalarField;
    location    "0.03";
    object      phi;
}
// * * * * * * * * * * * * * * * * * * * * * * * * * * * * * * * * * * * * * //

dimensions      [1 0 -1 0 0 0 0];

oriented        oriented;

internalField   nonuniform List<scalar> 
5952
(
5.0175e-05
-5.01697e-05
9.91257e-05
-4.89455e-05
0.000131948
-3.28166e-05
0.000147137
-1.51843e-05
0.000152903
-5.7606e-06
0.000149195
3.71285e-06
0.000116614
3.2586e-05
4.45498e-05
7.20694e-05
-9.24519e-05
0.000137007
-0.00028745
0.000195004
-0.000437342
0.000149897
0.000110379
-0.000547716
4.45622e-05
-9.47259e-05
7.56865e-05
-8.00638e-05
8.14438e-05
-3.85679e-05
6.6519e-05
-2.53768e-07
2.66628e-05
3.41013e-05
-4.90971e-05
7.94784e-05
-0.000171466
0.00015496
-0.000322149
0.000222759
-0.000429122
0.000243986
-0.000466512
0.000232399
-0.000503277
0.000186668
0.000146428
-0.00053932
3.33552e-05
-0.000128074
4.82594e-05
-9.49614e-05
3.78705e-05
-2.81724e-05
-7.55007e-07
3.83781e-05
-8.02219e-05
0.000113575
-0.000199391
0.000198654
-0.000313196
0.000268772
-0.000380798
0.000290368
-0.000413147
0.000276342
-0.000423298
0.000242557
-0.000434099
0.000197475
0.000156801
-0.000444465
-2.03557e-06
-0.000126032
-1.50622e-05
-8.19276e-05
-4.68116e-05
3.58399e-06
-0.000103772
9.53458e-05
-0.000184979
0.000194789
-0.000264085
0.000277767
-0.000312541
0.000317235
-0.00033224
0.000310074
-0.000338625
0.000282734
-0.000340496
0.000244436
-0.000343402
0.000200389
0.000158531
-0.000345124
-2.71569e-05
-9.88667e-05
-6.41321e-05
-4.49444e-05
-0.000111146
5.06052e-05
-0.000167416
0.000151624
-0.000222126
0.000249506
-0.000255122
0.000310771
-0.000262295
0.000324416
-0.000258013
0.0003058
-0.000249876
0.000274606
-0.000242088
0.000236656
-0.000237144
0.000195452
0.000154699
-0.000233304
-5.0898e-05
-4.79601e-05
-9.98852e-05
4.0512e-06
-0.000147102
9.78303e-05
-0.000184374
0.000188904
-0.000203859
0.000269
-0.000200894
0.000307814
-0.000186181
0.000309712
-0.000169073
0.000288702
-0.000153308
0.00025885
-0.000140477
0.000223834
-0.000131078
0.000186063
0.000147649
-0.000124019
-6.6289e-05
1.83382e-05
-0.000121537
5.93086e-05
-0.000157033
0.000133336
-0.000168061
0.000199941
-0.000155813
0.000256762
-0.000129991
0.000282002
-0.000101657
0.000281387
-7.66111e-05
0.000263666
-5.5685e-05
0.000237933
-3.91212e-05
0.00020728
-2.66146e-05
0.000173566
0.00013824
-1.7196e-05
-7.6696e-05
9.50443e-05
-0.0001252
0.000107822
-0.000142141
0.000150287
-0.000129261
0.000187071
-9.5658e-05
0.000223169
-5.57958e-05
0.00024215
-1.81387e-05
0.00024374
1.35369e-05
0.000232001
3.91345e-05
0.000212346
5.92337e-05
0.000187191
7.46801e-05
0.00015813
0.000126391
8.65395e-05
-7.23627e-05
0.000167418
-0.000109754
0.000145224
-0.000106265
0.000146809
-7.68021e-05
0.000157619
-3.12646e-05
0.000177643
1.75734e-05
0.000193323
6.23952e-05
0.000198929
9.9976e-05
0.000194431
0.000130255
0.000182078
0.000154162
0.000163295
0.00017291
0.000139393
0.000111578
0.000187734
-7.17854e-05
0.000239214
-7.34371e-05
0.000146887
-4.40968e-05
0.00011748
-9.12847e-07
0.000114447
5.11066e-05
0.000125635
0.00010357
0.000140871
0.000151086
0.000151426
0.000191277
0.000154251
0.000224123
0.000149244
0.000250604
0.000136825
0.000272022
0.000117986
9.39247e-05
0.000289687
-1.73254e-07
0.0002394
3.08548e-05
0.000115871
7.98829e-05
6.8464e-05
0.00012973
6.46117e-05
0.000178864
7.65131e-05
0.0002251
9.46467e-05
0.000266561
0.000109977
0.000302257
0.000118568
0.000332316
0.000119197
0.000357529
0.000111624
0.000378978
9.65505e-05
7.50082e-05
0.000397907
0.000194785
4.46273e-05
0.000268487
4.21809e-05
0.000314455
2.2508e-05
0.000346583
3.24965e-05
0.000372849
5.02593e-05
0.000397676
6.98325e-05
0.000421455
8.62107e-05
0.000443648
9.63873e-05
0.000463933
9.89254e-05
0.00048258
9.29903e-05
0.000500119
7.90243e-05
0.000517691
5.74489e-05
-0.000628336
8.0618e-05
-0.00067827
4.99548e-05
-0.000704118
2.58465e-05
-0.000705151
1.03871e-06
-0.000685202
-1.99443e-05
-0.000643078
-4.21184e-05
-0.000577776
-6.52966e-05
-0.000487654
-9.01162e-05
-0.000371293
-0.000116356
-0.000229748
-0.00014154
-8.5664e-05
-0.000144078
-8.56586e-05
-0.000565099
0.000106402
-0.00058309
6.7954e-05
-0.000590715
3.34774e-05
-0.000589699
2.82768e-08
-0.000577961
-3.16762e-05
-0.000554242
-6.58309e-05
-0.000516817
-0.000102716
-0.000463569
-0.000143357
-0.00039171
-0.000188209
-0.000299279
-0.000233965
-0.000176008
-0.000267343
-0.000261661
-0.000453767
0.000115711
-0.000461176
7.537e-05
-0.000464218
3.65261e-05
-0.00046185
-2.33268e-06
-0.000451365
-4.21543e-05
-0.000432651
-8.45384e-05
-0.000404525
-0.000130835
-0.00036598
-0.000181895
-0.000315333
-0.000238851
-0.000247572
-0.000301719
-0.00015179
-0.000363119
-0.000413444
-0.000346055
0.00011665
-0.000345826
7.51484e-05
-0.000343467
3.41741e-05
-0.000338317
-7.47465e-06
-0.000329413
-5.10512e-05
-0.000316017
-9.79265e-05
-0.000296974
-0.000149871
-0.000271168
-0.000207694
-0.00023668
-0.000273331
-0.000187921
-0.000350471
-0.000114331
-0.000436702
-0.000527768
-0.00023039
0.000113744
-0.000227927
7.26936e-05
-0.00022506
3.13154e-05
-0.000221148
-1.13781e-05
-0.000215622
-5.65694e-05
-0.000207934
-0.000105606
-0.000197341
-0.000160456
-0.000182903
-0.000222124
-0.00016261
-0.000293617
-0.000134346
-0.000378726
-8.68301e-05
-0.000484209
-0.00061459
-0.000118841
0.000108575
-0.000115015
6.88765e-05
-0.00011192
2.82294e-05
-0.000109127
-1.41625e-05
-0.000106332
-5.93552e-05
-0.000103276
-0.000108653
-0.00010003
-0.000163693
-9.59214e-05
-0.000226224
-9.01004e-05
-0.000299429
-8.04942e-05
-0.000388324
-5.76166e-05
-0.000507079
-0.000672198
-1.02125e-05
0.000101601
-5.1312e-06
6.38049e-05
-1.50865e-06
2.46165e-05
8.48506e-07
-1.651e-05
1.90873e-06
-6.04058e-05
1.44917e-06
-0.000108184
-9.67004e-07
-0.000161267
-5.62898e-06
-0.000221552
-1.25852e-05
-0.000292463
-2.07528e-05
-0.000380147
-2.53057e-05
-0.000502517
-0.000697495
9.5648e-05
9.25028e-05
0.000102551
5.69121e-05
0.000107598
1.95802e-05
0.000110768
-1.96694e-05
0.000111689
-6.13162e-05
0.000109645
-0.00010613
0.000103529
-0.000155142
9.19822e-05
-0.000209995
7.3489e-05
-0.00027396
4.73656e-05
-0.000354014
1.63843e-05
-0.000471526
-0.000681101
0.000199701
8.05479e-05
0.000209389
4.72346e-05
0.000217139
1.18419e-05
0.000222743
-2.5263e-05
0.000225506
-6.40676e-05
0.000224204
-0.000104818
0.000216939
-0.000147865
0.000201165
-0.000194211
0.000173419
-0.000246203
0.000130026
-0.000310611
6.94093e-05
-0.000410898
-0.000611681
0.000304898
6.53487e-05
0.000318139
3.40063e-05
0.000329761
2.31317e-07
0.000339367
-3.48573e-05
0.000345943
-7.06321e-05
0.000347775
-0.000106638
0.000342188
-0.000142267
0.000325566
-0.000177577
0.000292452
-0.000213079
0.000236246
-0.000254394
0.000146314
-0.000320955
-0.000465357
0.000415848
4.74195e-05
0.000432805
1.70613e-05
0.000449026
-1.59769e-05
0.00046379
-4.96095e-05
0.000475714
-8.25434e-05
0.000482585
-0.000113497
0.000481153
-0.000140823
0.000467179
-0.000163592
0.000433725
-0.000179612
0.000372394
-0.000193051
0.000257863
-0.000206412
-0.000207483
0.000537232
2.78912e-05
0.000557672
-3.36596e-06
0.000578845
-3.71372e-05
0.000599359
-7.01101e-05
0.000617349
-0.000100522
0.000630071
-0.000126206
0.000634093
-0.000144832
0.000625441
-0.000154927
0.000597564
-0.000151723
0.000539403
-0.000134878
0.000409001
-7.59989e-05
0.00020153
5.01759e-05
-5.01706e-05
9.91272e-05
-4.89461e-05
0.000131949
-3.28167e-05
0.000147138
-1.51841e-05
0.000152904
-5.76033e-06
0.000149195
3.71381e-06
0.000116613
3.25879e-05
4.45465e-05
7.20709e-05
-9.2459e-05
0.000137011
-0.000287457
0.000195004
-0.000437346
0.000149895
0.000110378
-0.000547721
4.45627e-05
-9.47273e-05
7.56869e-05
-8.00643e-05
8.14437e-05
-3.85675e-05
6.65183e-05
-2.52798e-07
2.66606e-05
3.41031e-05
-4.91019e-05
7.94818e-05
-0.000171473
0.000154964
-0.000322156
0.00022276
-0.000429126
0.000243987
-0.000466514
0.000232398
-0.00050328
0.000186666
0.000146427
-0.000539322
3.33548e-05
-0.000128075
4.82579e-05
-9.49609e-05
3.78677e-05
-2.81708e-05
-7.59781e-07
3.83811e-05
-8.02293e-05
0.000113579
-0.0001994
0.000198659
-0.000313202
0.000268774
-0.000380802
0.000290366
-0.000413149
0.00027634
-0.000423299
0.000242555
-0.0004341
0.000197473
0.0001568
-0.000444466
-2.03752e-06
-0.000126031
-1.50661e-05
-8.19252e-05
-4.68173e-05
3.58757e-06
-0.00010378
9.53507e-05
-0.000184987
0.000194794
-0.000264091
0.00027777
-0.000312544
0.000317233
-0.000332241
0.000310072
-0.000338626
0.000282732
-0.000340496
0.000244433
-0.000343402
0.000200386
0.000158529
-0.000345124
-2.71593e-05
-9.88633e-05
-6.41366e-05
-4.494e-05
-0.000111151
5.06101e-05
-0.000167422
0.000151629
-0.00022213
0.00024951
-0.000255123
0.000310771
-0.000262295
0.000324413
-0.000258013
0.000305797
-0.000249876
0.000274603
-0.000242088
0.000236654
-0.000237144
0.00019545
0.000154698
-0.000233304
-5.08995e-05
-4.79553e-05
-9.98877e-05
4.05664e-06
-0.000147105
9.78356e-05
-0.000184376
0.000188909
-0.00020386
0.000269002
-0.000200893
0.000307813
-0.00018618
0.000309709
-0.000169073
0.000288699
-0.000153308
0.000258847
-0.000140476
0.000223832
-0.000131078
0.000186061
0.000147647
-0.000124019
-6.62891e-05
1.83431e-05
-0.000121537
5.93136e-05
-0.000157032
0.00013334
-0.000168059
0.000199945
-0.00015581
0.000256763
-0.000129989
0.000282
-0.000101655
0.000281385
-7.661e-05
0.000263663
-5.56842e-05
0.000237931
-3.91207e-05
0.000207278
-2.66143e-05
0.000173564
0.000138239
-1.71959e-05
-7.66947e-05
9.50479e-05
-0.000125197
0.000107826
-0.000142137
0.000150291
-0.000129257
0.000187074
-9.56547e-05
0.00022317
-5.57934e-05
0.000242149
-1.81371e-05
0.000243739
1.3538e-05
0.000231999
3.91352e-05
0.000212344
5.92341e-05
0.000187189
7.46803e-05
0.000158129
0.00012639
8.65397e-05
-7.23609e-05
0.00016742
-0.000109751
0.000145227
-0.000106261
0.000146812
-7.67981e-05
0.000157622
-3.12611e-05
0.000177644
1.75761e-05
0.000193323
6.23971e-05
0.000198929
9.99773e-05
0.00019443
0.000130256
0.000182077
0.000154162
0.000163293
0.000172911
0.000139391
0.000111577
0.000187735
-7.17838e-05
0.000239215
-7.34346e-05
0.000146889
-4.40935e-05
0.000117482
-9.09162e-07
0.000114449
5.11102e-05
0.000125637
0.000103573
0.000140872
0.000151088
0.000151426
0.000191278
0.000154251
0.000224124
0.000149243
0.000250605
0.000136824
0.000272023
0.000117985
9.39235e-05
0.000289688
-1.72472e-07
0.000239399
3.08566e-05
0.000115872
7.98854e-05
6.84655e-05
0.000129733
6.46136e-05
0.000178867
7.65148e-05
0.000225103
9.46478e-05
0.000266563
0.000109978
0.000302259
0.000118567
0.000332318
0.000119197
0.000357531
0.000111623
0.000378979
9.65494e-05
7.50071e-05
0.000397908
0.000194785
4.46264e-05
0.000268488
4.2181e-05
0.000314457
2.25089e-05
0.000346585
3.24979e-05
0.000372852
5.02607e-05
0.000397679
6.98334e-05
0.000421458
8.62112e-05
0.000443651
9.63873e-05
0.000463935
9.8925e-05
0.000482582
9.29896e-05
0.00050012
7.90234e-05
0.000517693
5.74479e-05
-0.000628339
8.06169e-05
-0.000678272
4.99541e-05
-0.00070412
2.58459e-05
-0.000705153
1.03828e-06
-0.000685203
-1.99446e-05
-0.000643079
-4.21186e-05
-0.000577777
-6.52968e-05
-0.000487655
-9.01162e-05
-0.000371293
-0.000116356
-0.000229748
-0.00014154
-8.56645e-05
-0.000144078
-8.56591e-05
-0.0005651
0.0001064
-0.000583091
6.7953e-05
-0.000590716
3.34765e-05
-0.000589699
2.76421e-08
-0.000577961
-3.16767e-05
-0.000554242
-6.58313e-05
-0.000516817
-0.000102716
-0.00046357
-0.000143358
-0.00039171
-0.000188209
-0.000299279
-0.000233965
-0.000176008
-0.000267343
-0.000261662
-0.000453768
0.000115709
-0.000461176
7.53688e-05
-0.000464218
3.65251e-05
-0.00046185
-2.33344e-06
-0.000451365
-4.21549e-05
-0.000432651
-8.45388e-05
-0.000404525
-0.000130835
-0.00036598
-0.000181896
-0.000315332
-0.000238851
-0.000247572
-0.000301719
-0.000151789
-0.000363119
-0.000413444
-0.000346056
0.000116648
-0.000345826
7.51472e-05
-0.000343467
3.41731e-05
-0.000338317
-7.47542e-06
-0.000329413
-5.10519e-05
-0.000316017
-9.7927e-05
-0.000296974
-0.000149871
-0.000271168
-0.000207694
-0.00023668
-0.000273331
-0.000187921
-0.00035047
-0.000114331
-0.000436702
-0.000527768
-0.00023039
0.000113742
-0.000227927
7.26924e-05
-0.00022506
3.13144e-05
-0.000221148
-1.13789e-05
-0.000215622
-5.657e-05
-0.000207934
-0.000105607
-0.000197341
-0.000160456
-0.000182903
-0.000222124
-0.000162609
-0.000293617
-0.000134345
-0.000378726
-8.68299e-05
-0.000484209
-0.00061459
-0.000118841
0.000108573
-0.000115015
6.88753e-05
-0.00011192
2.82284e-05
-0.000109127
-1.41634e-05
-0.000106332
-5.93559e-05
-0.000103276
-0.000108654
-0.000100029
-0.000163694
-9.59211e-05
-0.000226224
-9.01001e-05
-0.000299429
-8.04939e-05
-0.000388324
-5.76164e-05
-0.000507078
-0.000672198
-1.02124e-05
0.0001016
-5.13113e-06
6.38038e-05
-1.50855e-06
2.46155e-05
8.48664e-07
-1.6511e-05
1.90897e-06
-6.04066e-05
1.44949e-06
-0.000108185
-9.66611e-07
-0.000161268
-5.62855e-06
-0.000221553
-1.25848e-05
-0.000292463
-2.07524e-05
-0.000380147
-2.53054e-05
-0.000502516
-0.000697494
9.56482e-05
9.25016e-05
0.000102552
5.6911e-05
0.000107598
1.95791e-05
0.000110768
-1.96704e-05
0.000111689
-6.13172e-05
0.000109645
-0.000106131
0.00010353
-0.000155142
9.19828e-05
-0.000209996
7.34895e-05
-0.00027396
4.7366e-05
-0.000354014
1.63846e-05
-0.000471525
-0.0006811
0.000199701
8.05466e-05
0.00020939
4.72334e-05
0.000217139
1.18408e-05
0.000222744
-2.52641e-05
0.000225506
-6.40686e-05
0.000224205
-0.000104819
0.000216939
-0.000147866
0.000201165
-0.000194211
0.000173419
-0.000246203
0.000130027
-0.000310611
6.94096e-05
-0.000410898
-0.00061168
0.000304899
6.53474e-05
0.000318139
3.4005e-05
0.000329762
2.30154e-07
0.000339368
-3.48584e-05
0.000345944
-7.06331e-05
0.000347775
-0.000106639
0.000342189
-0.000142268
0.000325566
-0.000177577
0.000292453
-0.000213079
0.000236247
-0.000254394
0.000146314
-0.000320954
-0.000465356
0.000415849
4.74183e-05
0.000432807
1.70601e-05
0.000449027
-1.5978e-05
0.000463792
-4.96105e-05
0.000475715
-8.25443e-05
0.000482586
-0.000113498
0.000481153
-0.000140823
0.00046718
-0.000163592
0.000433725
-0.000179612
0.000372394
-0.000193051
0.000257863
-0.000206412
-0.000207482
0.000537234
2.78901e-05
0.000557674
-3.36703e-06
0.000578847
-3.71382e-05
0.00059936
-7.0111e-05
0.000617351
-0.000100522
0.000630072
-0.000126206
0.000634093
-0.000144833
0.000625441
-0.000154927
0.000597564
-0.000151723
0.000539403
-0.000134877
0.000409001
-7.5998e-05
0.000201532
5.01746e-05
-5.01693e-05
9.91251e-05
-4.89452e-05
0.000131947
-3.28165e-05
0.000147137
-1.51846e-05
0.000152903
-5.76092e-06
0.000149195
3.7127e-06
0.000116614
3.25861e-05
4.45497e-05
7.20695e-05
-9.24523e-05
0.000137008
-0.000287451
0.000195004
-0.000437342
0.000149897
0.000110379
-0.000547717
4.4562e-05
-9.47253e-05
7.56861e-05
-8.00634e-05
8.14434e-05
-3.85679e-05
6.65188e-05
-2.54137e-07
2.66626e-05
3.41011e-05
-4.90977e-05
7.94785e-05
-0.000171467
0.000154961
-0.000322151
0.000222759
-0.000429123
0.000243986
-0.000466513
0.0002324
-0.000503278
0.000186668
0.000146428
-0.000539321
3.33551e-05
-0.000128074
4.82592e-05
-9.49609e-05
3.78702e-05
-2.81725e-05
-7.55479e-07
3.83779e-05
-8.02227e-05
0.000113575
-0.000199392
0.000198654
-0.000313197
0.000268772
-0.000380799
0.000290368
-0.000413148
0.000276342
-0.000423299
0.000242557
-0.0004341
0.000197475
0.000156801
-0.000444466
-2.03545e-06
-0.000126031
-1.50621e-05
-8.19271e-05
-4.68115e-05
3.58405e-06
-0.000103772
9.53458e-05
-0.00018498
0.000194789
-0.000264086
0.000277768
-0.000312542
0.000317235
-0.000332241
0.000310075
-0.000338626
0.000282735
-0.000340497
0.000244436
-0.000343403
0.000200389
0.000158531
-0.000345125
-2.71564e-05
-9.88667e-05
-6.41314e-05
-4.49443e-05
-0.000111145
5.06053e-05
-0.000167415
0.000151624
-0.000222126
0.000249507
-0.000255122
0.000310772
-0.000262295
0.000324417
-0.000258014
0.000305801
-0.000249877
0.000274606
-0.000242089
0.000236656
-0.000237145
0.000195452
0.000154699
-0.000233305
-5.08974e-05
-4.79608e-05
-9.98842e-05
4.05102e-06
-0.000147101
9.78305e-05
-0.000184373
0.000188905
-0.000203859
0.000269001
-0.000200894
0.000307816
-0.000186181
0.000309712
-0.000169074
0.000288703
-0.000153309
0.00025885
-0.000140478
0.000223834
-0.000131079
0.000186063
0.000147649
-0.00012402
-6.62886e-05
1.83371e-05
-0.000121537
5.93082e-05
-0.000157033
0.000133336
-0.000168061
0.000199942
-0.000155813
0.000256763
-0.000129991
0.000282003
-0.000101658
0.000281388
-7.66118e-05
0.000263666
-5.56858e-05
0.000237933
-3.9122e-05
0.00020728
-2.66154e-05
0.000173566
0.00013824
-1.71967e-05
-7.66961e-05
9.50433e-05
-0.0001252
0.000107822
-0.000142141
0.000150287
-0.000129261
0.000187072
-9.56586e-05
0.000223171
-5.57963e-05
0.000242151
-1.81391e-05
0.000243741
1.35364e-05
0.000232001
3.9134e-05
0.000212346
5.92332e-05
0.000187191
7.46796e-05
0.00015813
0.000126391
8.65391e-05
-7.23633e-05
0.000167417
-0.000109755
0.000145224
-0.000106266
0.00014681
-7.68028e-05
0.00015762
-3.1265e-05
0.000177644
1.75732e-05
0.000193324
6.23951e-05
0.00019893
9.99759e-05
0.000194431
0.000130255
0.000182079
0.000154162
0.000163295
0.00017291
0.000139392
0.000111578
0.000187734
-7.1786e-05
0.000239215
-7.34378e-05
0.000146887
-4.40974e-05
0.000117481
-9.13252e-07
0.000114447
5.11065e-05
0.000125636
0.00010357
0.000140872
0.000151086
0.000151426
0.000191277
0.000154252
0.000224123
0.000149244
0.000250604
0.000136825
0.000272022
0.000117986
9.39242e-05
0.000289688
-1.73536e-07
0.0002394
3.08545e-05
0.000115871
7.98828e-05
6.84644e-05
0.00012973
6.46121e-05
0.000178864
7.65137e-05
0.000225101
9.46473e-05
0.000266562
0.000109978
0.000302258
0.000118568
0.000332317
0.000119197
0.00035753
0.000111624
0.000378979
9.65501e-05
7.50077e-05
0.000397908
0.000194785
4.46276e-05
0.000268487
4.2181e-05
0.000314456
2.25083e-05
0.000346584
3.24969e-05
0.00037285
5.02597e-05
0.000397677
6.98329e-05
0.000421456
8.6211e-05
0.00044365
9.63875e-05
0.000463934
9.89254e-05
0.000482581
9.29901e-05
0.00050012
7.9024e-05
0.000517692
5.74484e-05
-0.000628337
8.0618e-05
-0.000678271
4.99548e-05
-0.000704119
2.58464e-05
-0.000705152
1.03864e-06
-0.000685202
-1.99444e-05
-0.000643078
-4.21185e-05
-0.000577776
-6.52967e-05
-0.000487655
-9.01163e-05
-0.000371293
-0.000116356
-0.000229748
-0.00014154
-8.56639e-05
-0.000144078
-8.56586e-05
-0.000565099
0.000106402
-0.00058309
6.79539e-05
-0.000590716
3.34772e-05
-0.000589699
2.81063e-08
-0.000577961
-3.16764e-05
-0.000554242
-6.58311e-05
-0.000516817
-0.000102716
-0.00046357
-0.000143358
-0.00039171
-0.00018821
-0.000299279
-0.000233965
-0.000176008
-0.000267343
-0.000261661
-0.000453768
0.00011571
-0.000461177
7.53698e-05
-0.000464219
3.65258e-05
-0.000461851
-2.33296e-06
-0.000451366
-4.21546e-05
-0.000432651
-8.45387e-05
-0.000404525
-0.000130835
-0.000365981
-0.000181896
-0.000315333
-0.000238851
-0.000247572
-0.000301719
-0.00015179
-0.000363119
-0.000413444
-0.000346056
0.00011665
-0.000345827
7.51481e-05
-0.000343468
3.41738e-05
-0.000338318
-7.47505e-06
-0.000329413
-5.10517e-05
-0.000316018
-9.7927e-05
-0.000296974
-0.000149871
-0.000271168
-0.000207695
-0.00023668
-0.000273331
-0.000187921
-0.000350471
-0.000114331
-0.000436702
-0.000527768
-0.000230391
0.000113743
-0.000227927
7.26932e-05
-0.00022506
3.13149e-05
-0.000221149
-1.13786e-05
-0.000215622
-5.65699e-05
-0.000207934
-0.000105607
-0.000197341
-0.000160456
-0.000182903
-0.000222125
-0.00016261
-0.000293617
-0.000134346
-0.000378727
-8.68301e-05
-0.00048421
-0.00061459
-0.000118842
0.000108574
-0.000115016
6.8876e-05
-0.000111921
2.82288e-05
-0.000109127
-1.41632e-05
-0.000106332
-5.93558e-05
-0.000103276
-0.000108654
-0.00010003
-0.000163694
-9.59214e-05
-0.000226224
-9.01004e-05
-0.000299429
-8.04941e-05
-0.000388324
-5.76165e-05
-0.000507079
-0.000672198
-1.02131e-05
0.0001016
-5.13171e-06
6.38044e-05
-1.50906e-06
2.46158e-05
8.48213e-07
-1.65108e-05
1.90855e-06
-6.04066e-05
1.4491e-06
-0.000108185
-9.66984e-07
-0.000161268
-5.62889e-06
-0.000221553
-1.25851e-05
-0.000292464
-2.07527e-05
-0.000380148
-2.53056e-05
-0.000502517
-0.000697495
9.56477e-05
9.25023e-05
0.000102551
5.69114e-05
0.000107598
1.95794e-05
0.000110768
-1.96703e-05
0.000111689
-6.13172e-05
0.000109645
-0.000106131
0.000103529
-0.000155143
9.19825e-05
-0.000209996
7.34892e-05
-0.000273961
4.73658e-05
-0.000354014
1.63844e-05
-0.000471526
-0.000681101
0.000199701
8.05472e-05
0.000209389
4.72339e-05
0.000217139
1.1841e-05
0.000222743
-2.52639e-05
0.000225506
-6.40686e-05
0.000224205
-0.000104819
0.000216939
-0.000147866
0.000201165
-0.000194211
0.000173419
-0.000246204
0.000130026
-0.000310611
6.94095e-05
-0.000410898
-0.000611681
0.000304899
6.53479e-05
0.000318139
3.40054e-05
0.000329761
2.30398e-07
0.000339367
-3.48583e-05
0.000345944
-7.06331e-05
0.000347775
-0.000106639
0.000342189
-0.000142268
0.000325566
-0.000177577
0.000292453
-0.000213079
0.000236246
-0.000254394
0.000146314
-0.000320955
-0.000465356
0.000415849
4.74187e-05
0.000432806
1.70604e-05
0.000449027
-1.59778e-05
0.000463791
-4.96104e-05
0.000475715
-8.25444e-05
0.000482586
-0.000113498
0.000481153
-0.000140824
0.00046718
-0.000163592
0.000433725
-0.000179613
0.000372394
-0.000193051
0.000257863
-0.000206412
-0.000207482
0.000537233
2.78905e-05
0.000557673
-3.36676e-06
0.000578846
-3.7138e-05
0.00059936
-7.0111e-05
0.00061735
-0.000100522
0.000630072
-0.000126207
0.000634093
-0.000144833
0.000625441
-0.000154928
0.000597564
-0.000151723
0.000539403
-0.000134878
0.000409001
-7.59985e-05
0.000201531
5.01759e-05
-5.01706e-05
9.91273e-05
-4.89461e-05
0.000131949
-3.28168e-05
0.000147139
-1.51841e-05
0.000152904
-5.7601e-06
0.000149196
3.71365e-06
0.000116614
3.2587e-05
4.45485e-05
7.207e-05
-9.24543e-05
0.000137008
-0.000287452
0.000195003
-0.000437342
0.000149896
0.000110379
-0.000547717
4.45628e-05
-9.47274e-05
7.56873e-05
-8.00646e-05
8.14443e-05
-3.85679e-05
6.65192e-05
-2.53074e-07
2.66621e-05
3.41027e-05
-4.90991e-05
7.94804e-05
-0.000171468
0.000154962
-0.000322152
0.000222759
-0.000429123
0.000243986
-0.000466512
0.000232398
-0.000503278
0.000186667
0.000146427
-0.00053932
3.33549e-05
-0.000128076
4.82585e-05
-9.49616e-05
3.78687e-05
-2.81716e-05
-7.57907e-07
3.83799e-05
-8.02261e-05
0.000113577
-0.000199396
0.000198656
-0.000313199
0.000268772
-0.0003808
0.000290367
-0.000413148
0.000276341
-0.000423298
0.000242556
-0.000434099
0.000197474
0.0001568
-0.000444465
-2.03698e-06
-0.000126031
-1.50649e-05
-8.19265e-05
-4.68155e-05
3.58609e-06
-0.000103777
9.53488e-05
-0.000184984
0.000194792
-0.000264089
0.000277768
-0.000312543
0.000317233
-0.000332241
0.000310072
-0.000338625
0.000282732
-0.000340496
0.000244434
-0.000343402
0.000200387
0.000158529
-0.000345123
-2.71588e-05
-9.88648e-05
-6.41356e-05
-4.49418e-05
-0.00011115
5.06083e-05
-0.00016742
0.000151627
-0.000222129
0.000249508
-0.000255123
0.00031077
-0.000262295
0.000324413
-0.000258013
0.000305798
-0.000249876
0.000274604
-0.000242088
0.000236654
-0.000237144
0.000195451
0.000154698
-0.000233304
-5.08994e-05
-4.79568e-05
-9.98875e-05
4.05474e-06
-0.000147104
9.78337e-05
-0.000184376
0.000188907
-0.00020386
0.000269001
-0.000200894
0.000307813
-0.00018618
0.000309709
-0.000169073
0.000288699
-0.000153308
0.000258847
-0.000140477
0.000223832
-0.000131078
0.000186061
0.000147648
-0.000124019
-6.62893e-05
1.83418e-05
-0.000121537
5.9312e-05
-0.000157033
0.000133339
-0.00016806
0.000199943
-0.000155812
0.000256762
-0.00012999
0.000282
-0.000101656
0.000281385
-7.6611e-05
0.000263664
-5.5685e-05
0.000237931
-3.91214e-05
0.000207278
-2.66149e-05
0.000173565
0.000138239
-1.71964e-05
-7.66951e-05
9.50469e-05
-0.000125198
0.000107825
-0.000142139
0.000150289
-0.000129258
0.000187073
-9.56562e-05
0.00022317
-5.57948e-05
0.000242149
-1.81383e-05
0.000243739
1.35369e-05
0.000231999
3.91342e-05
0.000212344
5.92332e-05
0.000187189
7.46795e-05
0.000158129
0.00012639
8.65389e-05
-7.23612e-05
0.000167419
-0.000109752
0.000145226
-0.000106263
0.000146811
-7.67995e-05
0.000157621
-3.12626e-05
0.000177644
1.75746e-05
0.000193323
6.23957e-05
0.000198929
9.9976e-05
0.00019443
0.000130254
0.000182077
0.000154161
0.000163293
0.00017291
0.000139391
0.000111577
0.000187734
-7.17842e-05
0.000239214
-7.34353e-05
0.000146888
-4.40946e-05
0.000117482
-9.10561e-07
0.000114448
5.11086e-05
0.000125636
0.000103572
0.000140871
0.000151086
0.000151425
0.000191277
0.000154251
0.000224123
0.000149243
0.000250604
0.000136824
0.000272022
0.000117985
9.39236e-05
0.000289687
-1.72812e-07
0.000239399
3.08558e-05
0.000115872
7.98843e-05
6.84654e-05
0.000129732
6.46133e-05
0.000178865
7.65144e-05
0.000225102
9.46474e-05
0.000266562
0.000109977
0.000302257
0.000118567
0.000332316
0.000119197
0.00035753
0.000111623
0.000378978
9.65494e-05
7.50072e-05
0.000397906
0.000194785
4.4627e-05
0.000268487
4.21814e-05
0.000314456
2.2509e-05
0.000346584
3.24977e-05
0.000372851
5.02604e-05
0.000397677
6.98331e-05
0.000421456
8.62109e-05
0.000443649
9.6387e-05
0.000463934
9.89248e-05
0.00048258
9.29895e-05
0.000500119
7.90234e-05
0.000517691
5.7448e-05
-0.000628336
8.06174e-05
-0.000678269
4.99545e-05
-0.000704117
2.58462e-05
-0.00070515
1.03856e-06
-0.000685201
-1.99444e-05
-0.000643077
-4.21184e-05
-0.000577775
-6.52966e-05
-0.000487653
-9.01161e-05
-0.000371292
-0.000116356
-0.000229747
-0.00014154
-8.56637e-05
-0.000144078
-8.56583e-05
-0.000565098
0.000106401
-0.000583089
6.79534e-05
-0.000590714
3.34769e-05
-0.000589698
2.79973e-08
-0.00057796
-3.16764e-05
-0.000554241
-6.58309e-05
-0.000516816
-0.000102716
-0.000463569
-0.000143357
-0.000391709
-0.000188209
-0.000299278
-0.000233965
-0.000176008
-0.000267342
-0.00026166
-0.000453766
0.00011571
-0.000461175
7.53693e-05
-0.000464217
3.65255e-05
-0.000461849
-2.33302e-06
-0.000451365
-4.21545e-05
-0.00043265
-8.45384e-05
-0.000404524
-0.000130835
-0.00036598
-0.000181895
-0.000315332
-0.00023885
-0.000247572
-0.000301718
-0.000151789
-0.000363118
-0.000413443
-0.000346055
0.000116649
-0.000345826
7.51477e-05
-0.000343466
3.41736e-05
-0.000338317
-7.47501e-06
-0.000329412
-5.10514e-05
-0.000316017
-9.79266e-05
-0.000296973
-0.000149871
-0.000271167
-0.000207694
-0.000236679
-0.000273331
-0.00018792
-0.00035047
-0.000114331
-0.000436701
-0.000527767
-0.00023039
0.000113743
-0.000227927
7.26928e-05
-0.000225059
3.13148e-05
-0.000221148
-1.13785e-05
-0.000215621
-5.65696e-05
-0.000207934
-0.000105606
-0.000197341
-0.000160456
-0.000182903
-0.000222124
-0.000162609
-0.000293616
-0.000134345
-0.000378726
-8.68299e-05
-0.000484208
-0.000614589
-0.000118841
0.000108574
-0.000115015
6.88757e-05
-0.00011192
2.82288e-05
-0.000109127
-1.4163e-05
-0.000106332
-5.93555e-05
-0.000103276
-0.000108653
-0.00010003
-0.000163693
-9.59212e-05
-0.000226223
-9.01002e-05
-0.000299428
-8.04939e-05
-0.000388323
-5.76164e-05
-0.000507077
-0.000672197
-1.02128e-05
0.0001016
-5.13151e-06
6.38042e-05
-1.50891e-06
2.46159e-05
8.48292e-07
-1.65105e-05
1.90858e-06
-6.04061e-05
1.44909e-06
-0.000108184
-9.67012e-07
-0.000161268
-5.62892e-06
-0.000221552
-1.25851e-05
-0.000292463
-2.07527e-05
-0.000380147
-2.53055e-05
-0.000502516
-0.000697493
9.56475e-05
9.25018e-05
0.000102551
5.69113e-05
0.000107598
1.95795e-05
0.000110767
-1.967e-05
0.000111688
-6.13167e-05
0.000109645
-0.000106131
0.000103529
-0.000155142
9.19821e-05
-0.000209995
7.3489e-05
-0.00027396
4.73656e-05
-0.000354014
1.63844e-05
-0.000471525
-0.000681099
0.0001997
8.05469e-05
0.000209389
4.72338e-05
0.000217138
1.18411e-05
0.000222743
-2.52636e-05
0.000225505
-6.40681e-05
0.000224204
-0.000104818
0.000216938
-0.000147865
0.000201164
-0.000194211
0.000173418
-0.000246203
0.000130026
-0.000310611
6.94093e-05
-0.000410898
-0.00061168
0.000304898
6.53476e-05
0.000318138
3.40053e-05
0.00032976
2.30549e-07
0.000339366
-3.48579e-05
0.000345943
-7.06326e-05
0.000347774
-0.000106639
0.000342188
-0.000142267
0.000325565
-0.000177577
0.000292452
-0.000213079
0.000236246
-0.000254393
0.000146314
-0.000320954
-0.000465355
0.000415848
4.74185e-05
0.000432805
1.70604e-05
0.000449026
-1.59776e-05
0.00046379
-4.961e-05
0.000475714
-8.25438e-05
0.000482584
-0.000113497
0.000481152
-0.000140823
0.000467179
-0.000163592
0.000433724
-0.000179612
0.000372393
-0.000193051
0.000257862
-0.000206412
-0.000207482
0.000537232
2.78904e-05
0.000557672
-3.36668e-06
0.000578845
-3.71377e-05
0.000599358
-7.01105e-05
0.000617349
-0.000100522
0.00063007
-0.000126206
0.000634092
-0.000144832
0.00062544
-0.000154927
0.000597563
-0.000151723
0.000539402
-0.000134878
0.000409001
-7.59987e-05
0.000201531
0.000726365
9.66675e-05
-0.000778393
0.000697743
7.08155e-05
0.000659885
6.03783e-05
0.00063312
5.92746e-05
0.000617076
6.63166e-05
0.000609834
7.70869e-05
0.000608946
8.71115e-05
0.000612225
9.31214e-05
0.000618224
9.29399e-05
0.000626576
8.46518e-05
0.000637247
6.83662e-05
4.30244e-05
0.000651685
0.000937441
0.000100244
-0.000941004
0.000917068
9.12013e-05
0.000889775
8.76844e-05
0.000861397
8.76658e-05
0.000836064
9.16618e-05
0.000815505
9.76594e-05
0.000800025
0.000102605
0.000789394
0.000103765
0.000783387
9.89601e-05
0.000782475
8.55775e-05
0.000786964
6.38915e-05
3.03157e-05
0.000799686
0.00106688
9.94561e-05
-0.00106608
0.001059
9.90914e-05
0.00104558
0.000101124
0.00102809
0.000105169
0.00100865
0.000111111
0.000989254
0.000117069
0.000971462
0.000120411
0.000956676
0.000118565
0.000946348
0.000109302
0.000942403
8.95367e-05
0.000946393
5.99162e-05
1.34317e-05
0.000963291
0.00117608
-0.00117489
9.82835e-05
0.00117407
0.000101116
0.00116799
0.000107211
0.00115824
0.000114933
0.00114593
0.000123441
0.00113273
0.00013028
0.00112036
0.000132793
0.00111076
0.000128185
0.00110615
0.000113921
0.00110943