/*--------------------------------*- C++ -*----------------------------------*\
| =========                 |                                                 |
| \\      /  F ield         | OpenFOAM: The Open Source CFD Toolbox           |
|  \\    /   O peration     | Version:  2212                                  |
|   \\  /    A nd           | Website:  www.openfoam.com                      |
|    \\/     M anipulation  |                                                 |
\*---------------------------------------------------------------------------*/
FoamFile
{
    version     2.0;
    format      ascii;
    arch        "LSB;label=32;scalar=64";
    class       volVectorField;
    location    "0.03";
    object      U;
}
// * * * * * * * * * * * * * * * * * * * * * * * * * * * * * * * * * * * * * //

dimensions      [0 1 -1 0 0 0 0];

internalField   nonuniform List<vector> 
3072
(
(1.37737 21.9186 0)
(1.8349 19.2665 0)
(3.17222 18.0452 6.00899e-19)
(4.56125 16.6679 -8.77297e-15)
(5.78549 16.0838 1.40577e-14)
(6.97197 15.5394 -7.03807e-15)
(7.77258 15.3469 -3.266e-15)
(9.57403 17.1244 -1.54799e-14)
(16.8808 15.4023 2.56731e-14)
(28.4618 14.6901 -9.67699e-15)
(32.5317 19.4086 6.57433e-15)
(35.0284 21.258 3.06637e-15)
(-4.65881 25.5542 -3.83173e-16)
(-2.64469 22.4974 -2.92872e-15)
(0.442562 22.4173 1.48117e-15)
(3.4301 21.9871 0)
(5.89139 22.177 5.97738e-15)
(8.92615 23.5685 -9.12988e-15)
(15.0415 23.9517 0)
(24.0251 25.5286 0)
(29.8903 26.3871 0)
(32.077 26.2443 7.52305e-18)
(32.7059 27.2059 -1.35488e-14)
(33.3015 27.1834 4.42496e-18)
(-4.19209 28.7674 3.49863e-16)
(-1.69908 25.5562 0)
(2.79053 25.9905 0)
(7.02371 25.647 -7.78756e-15)
(11.9337 26.1591 5.23697e-15)
(18.7282 27.3663 -7.91375e-15)
(26.1269 28.2945 1.04848e-14)
(31.0561 28.4987 0)
(33.356 27.8873 0)
(34.2294 26.8585 -3.79296e-15)
(34.3787 26.2923 -3.46711e-15)
(34.7891 25.6093 9.99096e-15)
(-5.74012 32.2422 -1.29164e-15)
(-1.63319 29.9382 -2.40451e-15)
(4.1654 31.0791 2.34863e-15)
(10.1738 30.9272 -2.36872e-15)
(17.1219 31.3735 9.53048e-15)
(24.0746 31.4993 -9.46208e-15)
(29.3012 30.9168 -4.54867e-15)
(31.7809 29.8533 -1.24998e-14)
(32.9279 28.493 -3.32144e-18)
(33.4223 27.3428 6.53607e-15)
(33.6062 26.4471 6.16703e-15)
(33.911 25.5674 -5.85942e-15)
(-3.21683 34.7013 0)
(0.791441 33.8754 1.09507e-15)
(7.12545 35.2481 -2.15505e-15)
(13.8519 35.1823 4.34189e-15)
(20.8513 34.9927 4.6718e-18)
(26.4583 33.9395 4.18969e-15)
(29.6445 32.3603 3.84615e-15)
(31.0723 30.6082 3.5548e-15)
(31.7372 28.9936 -6.57206e-15)
(32.0654 27.5633 6.10264e-15)
(32.2944 26.362 -8.55915e-15)
(32.593 25.2657 1.07959e-14)
(-2.11291 37.5421 -1.10384e-15)
(2.80135 37.5145 1.00807e-15)
(9.41671 38.8387 3.96091e-15)
(16.0138 38.4502 0)
(22.1895 37.3555 -7.79067e-15)
(26.359 35.3476 7.38894e-15)
(28.6059 33.1298 0)
(29.669 31.0774 -6.30316e-15)
(30.3008 29.2119 5.85823e-15)
(30.7019 27.5892 0)
(31.0233 26.2007 2.99179e-18)
(31.3655 24.962 4.93588e-15)
(0.997112 39.6409 0)
(5.30812 40.9627 -1.85743e-15)
(11.3258 41.7064 1.81291e-15)
(17.0043 40.9231 0)
(21.9265 38.9466 -3.46184e-15)
(25.1118 36.3576 5.41254e-18)
(26.9851 33.7742 6.05468e-15)
(28.0602 31.4529 5.67012e-15)
(28.7808 29.4141 -5.33511e-15)
(29.3091 27.6374 5.05431e-15)
(29.7533 26.0963 -4.80935e-15)
(30.1813 24.7306 -1.38218e-14)
(3.07724 42.0577 0)
(7.22795 43.9254 1.68707e-15)
(12.2482 43.9662 -3.22567e-15)
(16.7743 42.7556 3.13939e-15)
(20.6834 40.224 0)
(23.4547 37.3025 -5.68893e-15)
(25.279 34.4486 5.4047e-15)
(26.473 31.9053 1.42939e-18)
(27.3386 29.685 -9.80763e-15)
(28.0101 27.7512 -4.6956e-15)
(28.5751 26.0648 -3.06632e-18)
(29.0888 24.5731 8.71662e-15)
(5.89569 43.7463 0)
(8.81552 46.4544 -1.52249e-15)
(12.461 45.5757 -2.83343e-15)
(15.9303 44.0706 -2.70116e-15)
(19.1376 41.3302 5.19129e-15)
(21.7029 38.2492 0)
(23.5843 35.2151 0)
(24.9487 32.4717 0)
(25.9869 30.0597 0)
(26.8064 27.9549 4.38839e-15)
(27.4829 26.1152 -4.26689e-15)
(28.0683 24.4898 4.15393e-15)
(7.22994 46.6626 0)
(9.26567 48.391 1.33658e-15)
(11.7698 46.4961 -3.91391e-18)
(14.5929 44.5888 2.3971e-15)
(17.3716 41.7748 2.33141e-15)
(19.8273 38.6969 -4.52481e-15)
(21.8122 35.6472 0)
(23.3733 32.8338 -2.11673e-18)
(24.6056 30.3174 -1.27122e-14)
(25.5847 28.0964 0)
(26.3744 26.1387 8.14846e-15)
(27.0262 24.4017 -3.9928e-15)
(9.96897 46.9298 0)
(8.84671 48.0771 1.25485e-15)
(10.2953 45.3725 4.60056e-15)
(12.6665 43.1699 -4.43016e-15)
(15.1963 40.564 -6.46819e-15)
(17.6496 37.8042 1.0515e-14)
(19.798 35.0512 -1.86844e-18)
(21.5828 32.4413 -4.06949e-15)
(23.0331 30.0374 4.00692e-15)
(24.1921 27.8628 -7.92393e-15)
(25.1097 25.9063 -1.17209e-14)
(25.8352 24.1439 1.15614e-14)
(4.62894 43.8974 -6.57691e-16)
(6.46494 43.1258 -4.73738e-15)
(7.72204 40.2769 1.0875e-15)
(10.063 38.5344 0)
(12.6739 36.8138 0)
(15.2516 34.9158 3.73743e-18)
(17.5791 32.9021 1.16812e-14)
(19.5738 30.8519 7.69086e-15)
(21.2296 28.852 0)
(22.5633 26.955 7.55276e-15)
(23.6095 25.179 0)
(24.4072 23.5334 6.02863e-18)
(38.3667 21.6777 -2.15026e-14)
(40.3981 21.4496 9.31533e-15)
(42.1432 20.4971 -9.41831e-15)
(42.8092 19.2766 -3.18824e-15)
(42.9058 17.8271 -3.14887e-15)
(42.2315 16.1422 0)
(40.8422 14.3871 0)
(38.6057 12.5808 6.16569e-15)
(35.6223 10.7831 -6.22096e-15)
(31.7746 8.79112 0)
(26.6156 5.24116 0)
(24.6718 -0.590114 -4.20028e-16)
(34.3795 27.555 8.39998e-15)
(35.2754 27.2241 0)
(36.388 26.5219 -1.03213e-17)
(37.3353 25.3934 4.08097e-15)
(38.1826 23.8351 2.02714e-15)
(38.5606 22.2499 8.24631e-15)
(38.4338 20.6748 -1.2674e-14)
(37.7485 19.2806 2.20092e-15)
(36.5587 18.1988 0)
(34.2557 17.2553 0)
(31.0308 15.8621 0)
(31.5604 11.4458 -4.67121e-23)
(35.3238 24.9832 3.23233e-15)
(35.8762 24.2654 -9.5676e-15)
(36.4938 23.46 3.17721e-15)
(36.9811 22.5873 6.37233e-15)
(37.2989 21.7067 -6.38314e-15)
(37.3434 20.8499 0)
(37.1055 20.1329 0)
(36.5648 19.6382 -1.96304e-18)
(35.8008 19.4686 1.84455e-15)
(34.338 19.4581 0)
(32.0115 19.2916 0)
(33.6593 18.88 0)
(34.2253 24.744 3.71052e-18)
(34.5622 23.9397 8.26363e-15)
(34.934 23.1219 5.4337e-15)
(35.281 22.3073 -5.37393e-15)
(35.5529 21.534 0)
(35.694 20.8724 2.72028e-15)
(35.6698 20.3923 0)
(35.4963 20.17 4.32602e-15)
(35.1716 20.2996 -1.41708e-15)
(34.4436 20.9374 0)
(32.4672 21.8305 -9.27757e-16)
(35.7812 22.8352 -1.19173e-15)
(32.9143 24.2604 -5.15123e-15)
(33.2731 23.3278 0)
(33.6572 22.4471 0)
(34.0265 21.6349 0)
(34.3516 20.9271 0)
(34.6129 20.3727 -4.62936e-15)
(34.7853 20.0681 -1.54192e-18)
(34.8789 20.0357 -2.42123e-15)
(34.9404 20.4113 0)
(34.7939 21.3352 -1.38566e-15)
(33.5622 22.8676 8.53162e-16)
(37.7911 25.4206 1.09848e-15)
(31.725 23.844 -2.77642e-18)
(32.113 22.8278 -9.14975e-15)
(32.5213 21.8995 4.4529e-15)
(32.931 21.0701 2.71376e-20)
(33.3291 20.369 2.56299e-18)
(33.709 19.8403 6.45886e-15)
(34.0809 19.5443 -1.7189e-18)
(34.462 19.5462 -6.73881e-15)
(34.8684 19.9589 -2.39683e-15)
(35.3413 20.9359 1.3462e-15)
(34.7669 22.8856 -1.60436e-15)
(39.5008 26.3011 -5.09703e-16)
(30.607 23.5053 1.33211e-14)
(31.043 22.3976 4.30393e-15)
(31.4897 21.3965 0)
(31.9439 20.5084 0)
(32.4084 19.7566 2.39034e-18)
(32.8953 19.1777 -4.00226e-15)
(33.4303 18.8222 6.00578e-15)
(34.0518 18.75 -1.41159e-18)
(34.7948 19.0661 2.13618e-15)
(35.7534 19.9598 0)
(35.963 21.8945 -2.26841e-18)
(40.9512 26.1868 4.74544e-16)
(29.5728 23.2374 -4.22469e-15)
(30.0445 22.0301 -4.10788e-15)
(30.5122 20.939 4.01385e-15)
(30.9859 19.9643 -3.92711e-15)
(31.4834 19.1221 7.62385e-20)
(32.0334 18.4401 7.58982e-15)
(32.6821 17.956 -3.75233e-15)
(33.4935 17.7207 1.88269e-15)
(34.5312 17.8248 0)
(35.9597 18.4679 1.06292e-15)
(36.968 20.1772 6.43089e-16)
(41.9392 24.6979 -1.77346e-15)
(28.589 23.036 4.05368e-15)
(29.0695 21.7185 -3.96423e-15)
(29.5251 20.5232 -3.87928e-15)
(29.9766 19.4414 -7.60616e-15)
(30.4563 18.4802 7.4519e-15)
(31.0094 17.6563 -7.30145e-15)
(31.7041 16.9913 0)
(32.6341 16.5182 -1.77035e-15)
(33.9016 16.2986 0)
(35.7429 16.5177 0)
(37.5971 17.7623 0)
(42.4854 21.9816 1.64471e-15)
(27.5654 22.844 3.91654e-15)
(28.0266 21.4209 -7.69351e-15)
(28.4338 20.1217 7.55677e-15)
(28.8181 18.9274 7.41134e-15)
(29.2242 17.8366 3.62748e-15)
(29.7139 16.8522 0)
(30.3791 15.9749 0)
(31.3384 15.2121 3.38869e-15)
(32.7377 14.5786 0)
(34.8928 14.2143 -8.84698e-16)
(37.3977 14.6074 5.27092e-16)
(42.3085 17.7003 -2.30535e-15)
(26.3824 22.5422 -7.58545e-15)
(26.8011 21.0497 7.44498e-15)
(27.1239 19.6746 -7.32527e-15)
(27.3975 18.3853 -1.80254e-14)
(27.6809 17.1759 -2.61524e-18)
(28.0497 16.0372 1.29789e-18)
(28.619 14.9466 -3.36547e-15)
(29.5171 13.8785 -3.27292e-15)
(30.9308 12.7827 0)
(33.2354 11.745 2.46499e-15)
(36.0481 10.8455 4.80888e-16)
(41.1457 11.4713 -4.49169e-19)
(24.939 21.9962 -5.89436e-18)
(25.2849 20.4987 0)
(25.4851 19.0973 0)
(25.6059 17.7534 3.4791e-15)
(25.7285 16.4613 1.02649e-14)
(25.9445 15.1997 -3.34721e-15)
(26.3835 13.929 -2.16094e-18)
(27.1552 12.5923 -1.59264e-15)
(28.4682 11.0622 -1.55184e-15)
(30.5889 9.3264 -1.5489e-15)
(33.8595 6.84807 0)
(38.2858 -0.658011 6.30278e-16)
(21.9185 -1.37731 -4.41919e-16)
(19.2664 -1.83485 0)
(18.0451 -3.17218 -6.00893e-19)
(16.6679 -4.56122 0)
(16.0837 -5.78547 7.02882e-15)
(15.5394 -6.97198 -7.03806e-15)
(15.3469 -7.77255 0)
(17.1245 -9.57412 -1.23841e-14)
(15.4021 -16.8812 2.24641e-14)
(14.6903 -28.4621 -1.61413e-14)
(19.4088 -32.5317 -3.29154e-15)
(21.2582 -35.0284 -3.06635e-15)
(25.5542 4.65888 -1.91515e-15)
(22.4974 2.64473 -1.46404e-15)
(22.4173 -0.442565 4.4411e-15)
(21.9871 -3.43013 0)
(22.177 -5.89142 -5.97739e-15)
(23.5686 -8.92627 6.08573e-15)
(23.9518 -15.0419 0)
(25.5288 -24.0254 5.60505e-15)
(26.3872 -29.8904 -1.51704e-14)
(26.2444 -32.077 9.46451e-15)
(27.206 -32.7058 9.02877e-15)
(27.1835 -33.3015 -1.30456e-14)
(28.7674 4.19218 3.49863e-16)
(25.5563 1.6991 0)
(25.9906 -2.79057 -2.61e-15)
(25.6471 -7.0238 0)
(26.1593 -11.9339 0)
(27.3665 -18.7285 -5.27208e-15)
(28.2946 -26.1272 2.09746e-14)
(28.4988 -31.0562 -1.49764e-14)
(27.8874 -33.356 4.01507e-15)
(26.8586 -34.2294 0)
(26.2924 -34.3786 6.93871e-15)
(25.6093 -34.789 -3.33367e-15)
(32.2422 5.74013 -1.2927e-15)
(29.9383 1.6331 1.20283e-15)
(31.0792 -4.16556 2.34735e-15)
(30.9274 -10.1741 4.73421e-15)
(31.3737 -17.1222 -4.76429e-15)
(31.4995 -24.0749 -4.72622e-15)
(30.917 -29.3012 0)
(29.8534 -31.7808 0)
(28.4931 -32.9278 3.4912e-15)
(27.3429 -33.4222 0)
(26.4472 -33.6061 4.75978e-18)
(25.5674 -33.911 2.92779e-15)
(34.7013 3.21673 1.79064e-15)
(33.8755 -0.791602 -1.09454e-15)
(35.2482 -7.12567 -2.15504e-15)
(35.1824 -13.8522 0)
(34.9929 -20.8515 0)
(33.9396 -26.4583 4.19679e-15)
(32.3604 -29.6444 0)
(30.6083 -31.0722 -7.11723e-15)
(28.9936 -31.7371 -3.2855e-15)
(27.5633 -32.0653 6.10258e-15)
(26.3621 -32.2943 -8.55907e-15)
(25.2657 -32.593 5.39575e-15)
(37.5421 2.11273 -7.29561e-19)
(37.5145 -2.80157 -1.00716e-15)
(38.8388 -9.41693 1.97889e-15)
(38.4503 -16.014 2.34649e-18)
(37.3555 -22.1896 3.89539e-15)
(35.3477 -26.3589 -7.38674e-15)
(33.1298 -28.6058 6.72471e-15)
(31.0774 -29.6689 6.39567e-18)
(29.2119 -30.3007 0)
(27.5892 -30.7018 0)
(26.2008 -31.0233 1.03586e-14)
(24.962 -31.3655 7.37637e-19)
(39.6408 -0.997292 -1.02655e-15)
(40.9627 -5.30831 -9.29365e-16)
(41.7064 -11.326 0)
(40.9231 -17.0045 -3.58012e-15)
(38.9465 -21.9265 3.46369e-15)
(36.3576 -25.1118 9.75142e-15)
(33.7742 -26.985 6.06072e-15)
(31.4529 -28.0601 8.47133e-18)
(29.4142 -28.7807 -1.0676e-14)
(27.6374 -29.309 5.05041e-15)
(26.0963 -29.7532 4.81648e-15)
(24.7306 -30.1813 3.07042e-18)
(42.0576 -3.07739 -6.4225e-19)
(43.9254 -7.2281 1.68707e-15)
(43.9661 -12.2483 0)
(42.7555 -16.7744 -3.13936e-15)
(40.2238 -20.6834 -2.99926e-15)
(37.3024 -23.4546 5.84287e-18)
(34.4486 -25.2789 -1.08023e-14)
(31.9053 -26.4729 4.34652e-18)
(29.685 -27.3386 -2.78609e-18)
(27.7512 -28.01 4.69822e-15)
(26.0648 -28.5751 -4.50906e-15)
(24.5732 -29.0888 2.46572e-18)
(43.7463 -5.89578 -4.45432e-16)
(46.4543 -8.81562 7.596e-16)
(45.5755 -12.4611 -4.24882e-15)
(44.0705 -15.9304 2.70115e-15)
(41.33 -19.1376 0)
(38.2491 -21.7029 0)
(35.215 -23.5843 4.83446e-15)
(32.4716 -24.9486 9.35335e-15)
(30.0597 -25.9869 -4.52676e-15)
(27.9549 -26.8064 -4.38835e-15)
(26.1152 -27.4828 -4.26424e-15)
(24.4898 -28.0682 0)
(46.6625 -7.22997 -8.26051e-16)
(48.3909 -9.26573 2.0052e-15)
(46.496 -11.7699 4.96744e-15)
(44.5886 -14.5929 0)
(41.7747 -17.3716 4.65349e-15)
(38.6968 -19.8273 0)
(35.6472 -21.8121 3.22451e-18)
(32.8337 -23.3732 -4.31958e-15)
(30.3173 -24.6055 4.2406e-15)
(28.0964 -25.5846 0)
(26.1387 -26.3743 0)
(24.4017 -27.0262 -7.98924e-15)
(46.9297 -9.96897 2.19202e-23)
(48.077 -8.84675 1.25485e-15)
(45.3724 -10.2953 3.51524e-18)
(43.1698 -12.6666 -4.43635e-15)
(40.5639 -15.1963 -2.15377e-15)
(37.8041 -17.6496 -2.10291e-15)
(35.0511 -19.7979 -4.12688e-15)
(32.4412 -21.5827 -1.2195e-14)
(30.0374 -23.033 -4.0069e-15)
(27.8628 -24.192 -7.92388e-15)
(25.9063 -25.1096 7.81982e-15)
(24.1439 -25.8352 7.70165e-15)
(43.8973 -4.62892 -1.31492e-15)
(43.1258 -6.46495 -5.91481e-16)
(40.2769 -7.72207 2.94265e-18)
(38.5343 -10.0631 4.19448e-15)
(36.8137 -12.6739 0)
(34.9157 -15.2516 -3.96341e-15)
(32.902 -17.5791 3.89141e-15)
(30.8518 -19.5737 3.84072e-15)
(28.852 -21.2295 -1.14365e-14)
(26.955 -22.5633 7.55272e-15)
(25.179 -23.6094 -7.48415e-15)
(23.5334 -24.4071 0)
(21.6778 -38.3668 9.21005e-15)
(21.4497 -40.3982 -2.48393e-14)
(20.4972 -42.1433 6.25904e-15)
(19.2766 -42.8092 1.5887e-14)
(17.8271 -42.9058 -1.57213e-14)
(16.1423 -42.2315 3.11257e-15)
(14.3871 -40.8422 -1.74181e-18)
(12.5808 -38.6058 -3.08116e-15)
(10.7831 -35.6223 -6.22096e-15)
(8.79111 -31.7746 0)
(5.24117 -26.6156 0)
(-0.590105 -24.6718 -6.30169e-16)
(27.5551 -34.3795 -3.64047e-19)
(27.2242 -35.2754 8.21438e-15)
(26.5219 -36.388 -1.03213e-17)
(25.3935 -37.3353 0)
(23.8351 -38.1826 6.09084e-15)
(22.2499 -38.5606 0)
(20.6748 -38.4338 4.22333e-15)
(19.2806 -37.7485 6.60551e-15)
(18.1988 -36.5587 -4.71305e-15)
(17.2553 -34.2557 0)
(15.8621 -31.0308 0)
(11.4458 -31.5604 -1.20379e-19)
(24.9833 -35.3237 3.22811e-15)
(24.2655 -35.8762 -3.18566e-15)
(23.4601 -36.4937 3.17719e-15)
(22.5874 -36.9811 0)
(21.7067 -37.2989 -3.18963e-15)
(20.8499 -37.3434 6.53677e-15)
(20.1329 -37.1055 -8.48581e-15)
(19.6382 -36.5648 -8.86186e-15)
(19.4686 -35.8008 5.53186e-15)
(19.4581 -34.338 0)
(19.2916 -32.0115 1.03721e-15)
(18.88 -33.6593 -3.85764e-20)
(24.744 -34.2252 2.81621e-15)
(23.9398 -34.5621 -5.51051e-15)
(23.1219 -34.934 5.43366e-15)
(22.3074 -35.281 -5.37389e-15)
(21.5341 -35.5529 0)
(20.8725 -35.694 2.72027e-15)
(20.3923 -35.6698 2.76087e-15)
(20.17 -35.4963 1.44048e-15)
(20.2996 -35.1716 -2.83436e-15)
(20.9374 -34.4436 0)
(21.8305 -32.4672 -9.25887e-16)
(22.8353 -35.7812 1.49005e-15)
(24.2604 -32.9143 5.15529e-15)
(23.3279 -33.2731 -2.48781e-15)
(22.4471 -33.6572 0)
(21.635 -34.0265 0)
(20.9271 -34.3516 2.36606e-15)
(20.3727 -34.6129 -2.31319e-15)
(20.0681 -34.7853 -2.79604e-18)
(20.0358 -34.8789 0)
(20.4113 -34.9404 -1.27807e-15)
(21.3352 -34.7939 1.38565e-15)
(22.8676 -33.5622 -1.70721e-15)
(25.4206 -37.7911 0)
(23.844 -31.725 -9.46166e-15)
(22.8278 -32.1129 4.57333e-15)
(21.8995 -32.5213 8.90839e-15)
(21.0701 -32.931 2.7137e-20)
(20.3691 -33.3291 -1.07914e-14)
(19.8403 -33.709 -4.30949e-15)
(19.5443 -34.0809 -2.69026e-18)
(19.5463 -34.462 0)
(19.9589 -34.8684 0)
(20.9359 -35.3412 -1.3462e-15)
(22.8856 -34.7669 -8.03247e-16)
(26.3011 -39.5008 5.09702e-16)
(23.5053 -30.607 4.44145e-15)
(22.3977 -31.043 -8.61035e-15)
(21.3965 -31.4897 -4.19006e-15)
(20.5084 -31.9439 -2.3416e-18)
(19.7566 -32.4084 4.03803e-15)
(19.1777 -32.8953 3.99947e-15)
(18.8222 -33.4303 2.00213e-15)
(18.75 -34.0517 2.03567e-15)
(19.0661 -34.7948 -2.13779e-15)
(19.9598 -35.7534 0)
(21.8945 -35.9629 1.43108e-15)
(26.1868 -40.9511 -9.49987e-16)
(23.2374 -29.5728 0)
(22.0301 -30.0445 4.10785e-15)
(20.9391 -30.5122 0)
(19.9643 -30.9859 -2.2297e-18)
(19.1221 -31.4833 7.62369e-20)
(18.4401 -32.0334 7.58977e-15)
(17.956 -32.682 -1.87508e-15)
(17.7207 -33.4935 -3.76431e-15)
(17.8248 -34.5312 -1.9427e-15)
(18.4679 -35.9597 1.06291e-15)
(20.1772 -36.968 -1.93366e-15)
(24.6979 -41.9392 8.85428e-16)
(23.036 -28.5889 4.05364e-15)
(21.7185 -29.0695 -3.9642e-15)
(20.5233 -29.5251 -3.8832e-15)
(19.4415 -29.9766 3.80397e-15)
(18.4802 -30.4563 3.72591e-15)
(17.6563 -31.0094 -1.09549e-14)
(16.9913 -31.7041 0)
(16.5182 -32.6341 1.77034e-15)
(16.2986 -33.9016 1.7923e-15)
(16.5177 -35.7428 0)
(17.7623 -37.5971 1.74723e-15)
(21.9816 -42.4854 -4.11874e-16)
(22.844 -27.5653 0)
(21.4209 -28.0265 -7.69345e-15)
(20.1217 -28.4338 -3.78188e-15)
(18.9274 -28.8181 -7.40802e-15)
(17.8366 -29.2242 3.62746e-15)
(16.8522 -29.7139 3.54406e-15)
(15.9749 -30.3791 0)
(15.2121 -31.3384 0)
(14.5786 -32.7377 0)
(14.2143 -34.8928 0)
(14.6074 -37.3977 -5.27079e-16)
(17.7002 -42.3085 -7.68371e-16)
(22.5422 -26.3824 3.79107e-15)
(21.0497 -26.801 3.72072e-15)
(19.6746 -27.1239 1.46566e-14)
(18.3853 -27.3975 3.60796e-15)
(17.1759 -27.6808 1.41368e-14)
(16.0372 -28.0496 -3.45095e-15)
(14.9466 -28.619 -3.36545e-15)
(13.8785 -29.5171 0)
(12.7827 -30.9308 -3.2131e-15)
(11.7449 -33.2353 -1.64326e-15)
(10.8455 -36.0481 -9.62176e-16)
(11.4713 -41.1457 0)
(21.9962 -24.9389 0)
(20.4987 -25.2848 0)
(19.0973 -25.485 -1.41265e-14)
(17.7533 -25.6059 -1.04425e-14)
(16.4613 -25.7285 -3.41977e-15)
(15.1997 -25.9444 0)
(13.929 -26.3835 3.26868e-15)
(12.5923 -27.1552 0)
(11.0622 -28.4682 -1.95878e-18)
(9.32638 -30.5889 1.54889e-15)
(6.84805 -33.8595 4.27802e-16)
(-0.658047 -38.2858 -1.88425e-19)
(-1.37739 -21.9186 -2.2096e-16)
(-1.83492 -19.2665 -3.45106e-15)
(-3.17223 -18.0452 3.48802e-15)
(-4.56125 -16.668 -3.51041e-15)
(-5.78549 -16.0838 0)
(-6.97196 -15.5394 3.52037e-15)
(-7.77256 -15.3469 0)
(-9.57402 -17.1244 3.09767e-15)
(-16.8808 -15.4023 -9.6238e-15)
(-28.4619 -14.6901 9.68407e-15)
(-32.5317 -19.4086 1.9703e-14)
(-35.0284 -21.258 -6.10585e-15)
(4.65879 -25.5542 0)
(2.64468 -22.4974 -2.92872e-15)
(-0.442558 -22.4173 2.96113e-15)
(-3.43007 -21.9871 2.95071e-15)
(-5.89136 -22.177 -5.97738e-15)
(-8.92615 -23.5685 -1.47975e-19)
(-15.0416 -23.9517 -6.03393e-15)
(-24.0251 -25.5286 -1.40049e-14)
(-29.8903 -26.3871 1.51687e-14)
(-32.077 -26.2443 -4.72798e-15)
(-32.7059 -27.2059 8.13908e-18)
(-33.3015 -27.1835 5.47634e-18)
(4.19206 -28.7673 0)
(1.69905 -25.5562 0)
(-2.79053 -25.9905 0)
(-7.0237 -25.647 -2.59664e-15)
(-11.9337 -26.1592 0)
(-18.7282 -27.3664 -2.64168e-15)
(-26.127 -28.2945 5.24069e-15)
(-31.0562 -28.4987 9.99085e-15)
(-33.356 -27.8874 -4.01686e-15)
(-34.2294 -26.8585 -7.58269e-15)
(-34.3787 -26.2923 -1.04058e-14)
(-34.7891 -25.6093 9.99096e-15)
(5.7401 -32.2422 0)
(1.63317 -29.9382 -1.20283e-15)
(-4.1654 -31.0791 2.34997e-15)
(-10.1738 -30.9272 2.36549e-15)
(-17.1219 -31.3735 0)
(-24.0747 -31.4993 -9.46966e-15)
(-29.3012 -30.9168 9.08699e-15)
(-31.7809 -29.8533 0)
(-32.9279 -28.493 6.97254e-15)
(-33.4223 -27.3429 -9.80215e-15)
(-33.6062 -26.4471 6.16226e-15)
(-33.9111 -25.5674 5.07911e-18)
(3.21682 -34.7013 -7.12066e-23)
(-0.791452 -33.8753 2.19157e-15)
(-7.12545 -35.2481 2.98837e-18)
(-13.8519 -35.1823 0)
(-20.8513 -34.9927 -4.32588e-15)
(-26.4583 -33.9395 8.38157e-15)
(-29.6445 -32.3603 0)
(-31.0724 -30.6082 -3.56066e-15)
(-31.7372 -28.9936 -3.28937e-15)
(-32.0654 -27.5633 6.10263e-15)
(-32.2944 -26.362 0)
(-32.5931 -25.2657 -5.39227e-15)
(2.11292 -37.5421 5.51465e-16)
(-2.80135 -37.5144 2.06566e-18)
(-9.4167 -38.8387 -1.9789e-15)
(-16.0138 -38.4502 -7.94316e-15)
(-22.1895 -37.3555 -2.25645e-18)
(-26.3591 -35.3476 7.38894e-15)
(-28.606 -33.1298 0)
(-29.669 -31.0774 9.45509e-15)
(-30.3009 -29.2119 -5.8603e-15)
(-30.7019 -27.5892 5.48384e-15)
(-31.0234 -26.2008 2.99179e-18)
(-31.3655 -24.962 -7.37649e-19)
(-0.997075 -39.6409 -1.53986e-15)
(-5.3081 -40.9627 -9.26499e-16)
(-11.3258 -41.7064 0)
(-17.0044 -40.9231 7.16444e-15)
(-21.9265 -38.9466 -1.03854e-14)
(-25.1119 -36.3576 -1.65135e-18)
(-26.9852 -33.7742 -1.21155e-14)
(-28.0602 -31.4529 5.33343e-18)
(-28.7808 -29.4142 -5.3351e-15)
(-29.3091 -27.6374 -5.05431e-15)
(-29.7533 -26.0963 4.81652e-15)
(-30.1813 -24.7306 -4.60801e-15)
(-3.0772 -42.0577 1.43154e-15)
(-7.22794 -43.9254 -8.44184e-16)
(-12.2482 -43.9662 0)
(-16.7744 -42.7556 3.13939e-15)
(-20.6834 -40.224 2.99771e-15)
(-23.4547 -37.3025 2.84287e-15)
(-25.279 -34.4486 -5.00592e-18)
(-26.473 -31.9053 -1.42939e-18)
(-27.3387 -29.685 -4.90795e-15)
(-28.0101 -27.7512 -6.59154e-18)
(-28.5751 -26.0648 2.559e-18)
(-29.0888 -24.5732 0)
(-5.89567 -43.7464 4.44686e-16)
(-8.81553 -46.4544 0)
(-12.461 -45.5757 0)
(-15.9304 -44.0706 -2.70117e-15)
(-19.1377 -41.3302 2.59165e-15)
(-21.703 -38.2492 -5.00261e-15)
(-23.5844 -35.2151 0)
(-24.9487 -32.4716 4.67551e-15)
(-25.9869 -30.0597 -2.46462e-18)
(-26.8064 -27.9549 4.38838e-15)
(-27.4829 -26.1152 -4.269e-15)
(-28.0683 -24.4898 8.31234e-15)
(-7.22995 -46.6626 -3.54329e-19)
(-9.26568 -48.391 -6.68621e-16)
(-11.7699 -46.4961 -2.48568e-15)
(-14.5929 -44.5888 -4.79159e-15)
(-17.3716 -41.7748 0)
(-19.8274 -38.6969 4.5188e-15)
(-21.8122 -35.6472 -8.83394e-15)
(-23.3733 -32.8338 4.32037e-15)
(-24.6056 -30.3174 4.24063e-15)
(-25.5846 -28.0964 0)
(-26.3743 -26.1387 -4.07837e-15)
(-27.0262 -24.4017 -7.98138e-15)
(-9.96899 -46.9298 -7.36748e-16)
(-8.84672 -48.0771 6.2669e-16)
(-10.2953 -45.3725 2.29852e-15)
(-12.6666 -43.1699 2.2131e-15)
(-15.1963 -40.564 -5.15862e-19)
(-17.6496 -37.8041 -6.31209e-15)
(-19.798 -35.0511 8.24699e-15)
(-21.5828 -32.4413 1.62565e-14)
(-23.0331 -30.0374 -1.20287e-14)
(-24.1921 -27.8628 -7.92392e-15)
(-25.1097 -25.9063 7.81265e-15)
(-25.8352 -24.1439 0)
(-4.62895 -43.8974 1.31368e-15)
(-6.46494 -43.1258 5.94036e-16)
(-7.72205 -40.2769 1.08456e-15)
(-10.063 -38.5343 4.19934e-15)
(-12.6739 -36.8138 0)
(-15.2516 -34.9157 3.95968e-15)
(-17.5791 -32.9021 -7.78975e-15)
(-19.5737 -30.8519 -3.84355e-15)
(-21.2295 -28.852 -3.81118e-15)
(-22.5633 -26.955 7.55274e-15)
(-23.6095 -25.179 3.74658e-15)
(-24.4071 -23.5334 1.11183e-14)
(-38.3668 -21.6778 -3.07036e-15)
(-40.3981 -21.4496 3.11646e-15)
(-42.1432 -20.4972 -9.40796e-15)
(-42.8092 -19.2766 2.85932e-14)
(-42.9058 -17.8271 -1.25724e-14)
(-42.2315 -16.1422 0)
(-40.8422 -14.3871 -6.17815e-15)
(-38.6058 -12.5808 4.62087e-15)
(-35.6223 -10.7831 0)
(-31.7746 -8.79112 1.07303e-18)
(-26.6156 -5.24116 0)
(-24.6718 0.590114 4.20029e-16)
(-34.3795 -27.555 -1.68109e-14)
(-35.2754 -27.2241 8.22476e-15)
(-36.388 -26.5219 8.11532e-15)
(-37.3353 -25.3935 -4.08579e-15)
(-38.1826 -23.8351 0)
(-38.5606 -22.2499 0)
(-38.4338 -20.6748 4.22522e-15)
(-37.7485 -19.2806 -4.40453e-15)
(-36.5587 -18.1989 0)
(-34.2557 -17.2553 1.22252e-15)
(-31.0308 -15.8621 -1.38365e-19)
(-31.5604 -11.4458 -1.56807e-15)
(-35.3238 -24.9832 3.23275e-15)
(-35.8762 -24.2655 -6.37755e-15)
(-36.4938 -23.4601 0)
(-36.9811 -22.5874 -6.37239e-15)
(-37.2989 -21.7067 -6.38387e-15)
(-37.3434 -20.8499 1.30729e-14)
(-37.1056 -20.1329 -1.0184e-14)
(-36.5648 -19.6382 0)
(-35.8008 -19.4687 0)
(-34.338 -19.4582 0)
(-32.0115 -19.2916 -1.03668e-15)
(-33.6593 -18.88 0)
(-34.2253 -24.744 -2.81623e-15)
(-34.5622 -23.9398 -4.17138e-18)
(-34.934 -23.1219 0)
(-35.281 -22.3074 -3.98215e-18)
(-35.553 -21.5341 0)
(-35.694 -20.8725 0)
(-35.6698 -20.3923 2.76268e-15)
(-35.4964 -20.17 -2.88321e-15)
(-35.1716 -20.2997 2.83587e-15)
(-34.4436 -20.9374 0)
(-32.4672 -21.8305 -9.27757e-16)
(-35.7812 -22.8352 1.19173e-15)
(-32.9143 -24.2604 1.03138e-14)
(-33.2732 -23.3278 -2.48783e-15)
(-33.6572 -22.4471 4.84219e-15)
(-34.0265 -21.635 2.37867e-15)
(-34.3516 -20.9271 -7.09521e-15)
(-34.6129 -20.3727 0)
(-34.7853 -20.0681 -2.26457e-15)
(-34.8789 -20.0358 0)
(-34.9404 -20.4113 0)
(-34.7939 -21.3352 1.38565e-15)
(-33.5622 -22.8676 3.76615e-19)
(-37.7911 -25.4206 1.4e-18)
(-31.7251 -23.844 -4.72816e-15)
(-32.113 -22.8278 -3.01396e-18)
(-32.5213 -21.8995 0)
(-32.931 -21.0701 0)
(-33.3291 -20.3691 -6.47805e-15)
(-33.709 -19.8403 4.30703e-15)
(-34.0809 -19.5443 4.35452e-15)
(-34.462 -19.5463 2.24595e-15)
(-34.8684 -19.9589 -4.7924e-15)
(-35.3413 -20.936 -1.3462e-15)
(-34.7669 -22.8856 0)
(-39.5008 -26.3011 5.09703e-16)
(-30.607 -23.5053 -8.88544e-15)
(-31.043 -22.3977 4.29872e-15)
(-31.4897 -21.3965 4.19272e-15)
(-31.9439 -20.5084 2.32626e-18)
(-32.4084 -19.7566 -4.74896e-18)
(-32.8953 -19.1777 -4.00446e-15)
(-33.4303 -18.8222 -6.00465e-15)
(-34.0517 -18.75 -2.03712e-15)
(-34.7948 -19.0661 2.13618e-15)
(-35.7534 -19.9598 0)
(-35.9629 -21.8945 2.14888e-15)
(-40.9512 -26.1868 -1.42518e-15)
(-29.5728 -23.2374 8.44719e-15)
(-30.0445 -22.0301 -4.11481e-15)
(-30.5122 -20.9391 -4.01384e-15)
(-30.9859 -19.9643 -7.85198e-15)
(-31.4833 -19.1221 7.70657e-15)
(-32.0334 -18.4401 -2.13791e-18)
(-32.682 -17.956 1.12636e-14)
(-33.4935 -17.7207 1.8804e-15)
(-34.5312 -17.8248 1.94271e-15)
(-35.9597 -18.4679 0)
(-36.968 -20.1772 -1.28819e-15)
(-41.9392 -24.6979 4.43509e-16)
(-28.589 -23.036 0)
(-29.0695 -21.7185 3.96211e-15)
(-29.5251 -20.5233 3.87927e-15)
(-29.9766 -19.4415 -3.80216e-15)
(-30.4563 -18.4802 -1.76677e-18)
(-31.0094 -17.6563 -3.65349e-15)
(-31.7041 -16.9913 -3.58204e-15)
(-32.6341 -16.5183 0)
(-33.9016 -16.2986 -1.79231e-15)
(-35.7428 -16.5177 -9.64599e-16)
(-37.5971 -17.7623 2.91136e-15)
(-42.4854 -21.9816 -4.09758e-16)
(-27.5653 -22.844 0)
(-28.0265 -21.4209 0)
(-28.4338 -20.1217 0)
(-28.8181 -18.9274 -1.11181e-14)
(-29.2242 -17.8366 7.25472e-15)
(-29.7139 -16.8522 7.08991e-15)
(-30.3791 -15.9749 0)
(-31.3384 -15.2121 -3.38869e-15)
(-32.7377 -14.5786 0)
(-34.8928 -14.2143 -1.76991e-15)
(-37.3977 -14.6074 -5.2708e-16)
(-42.3085 -17.7002 -7.66349e-16)
(-26.3824 -22.5422 0)
(-26.8011 -21.0497 0)
(-27.1239 -19.6746 7.33146e-15)
(-27.3975 -18.3853 1.08123e-14)
(-27.6808 -17.1759 4.18376e-18)
(-28.0496 -16.0372 3.45227e-15)
(-28.619 -14.9466 -1.68223e-15)
(-29.5171 -13.8785 4.91006e-15)
(-30.9308 -12.7827 3.21312e-15)
(-33.2353 -11.745 1.64162e-15)
(-36.048 -10.8455 -9.62178e-16)
(-41.1457 -11.4713 -1.43281e-15)
(-24.939 -21.9962 0)
(-25.2848 -20.4987 0)
(-25.485 -19.0973 -7.06058e-15)
(-25.6059 -17.7533 3.48418e-15)
(-25.7285 -16.4613 -3.41979e-15)
(-25.9444 -15.1997 -3.34721e-15)
(-26.3835 -13.929 3.27086e-15)
(-27.1552 -12.5923 0)
(-28.4682 -11.0622 -3.10286e-15)
(-30.5889 -9.32639 -1.54982e-15)
(-33.8595 -6.84806 1.2865e-15)
(-38.2858 0.658035 1.10738e-19)
(-21.9185 1.37731 -2.02212e-19)
(-19.2664 1.83485 0)
(-18.0451 3.17217 0)
(-16.6679 4.56122 -7.01837e-15)
(-16.0837 5.78548 1.05446e-14)
(-15.5394 6.97198 0)
(-15.3469 7.77258 0)
(-17.1244 9.57408 3.09768e-15)
(-15.4022 16.8809 3.21416e-15)
(-14.6901 28.4619 9.69292e-15)
(-19.4086 32.5317 1.64114e-14)
(-21.2581 35.0283 -3.04922e-15)
(-25.5542 -4.65888 -2.96331e-19)
(-22.4974 -2.64474 0)
(-22.4173 0.442549 0)
(-21.9871 3.43012 -2.95245e-15)
(-22.177 5.89143 5.97938e-15)
(-23.5685 8.92622 -1.82586e-14)
(-23.9518 15.0417 1.20605e-14)
(-25.5287 24.0252 2.8061e-15)
(-26.3871 29.8903 -5.05007e-15)
(-26.2444 32.077 7.52309e-18)
(-27.206 32.7058 0)
(-27.1835 33.3015 -8.68741e-15)
(-28.7674 -4.19219 3.49863e-16)
(-25.5563 -1.69912 0)
(-25.9906 2.79054 0)
(-25.647 7.02377 -1.99103e-18)
(-26.1592 11.9338 2.36869e-18)
(-27.3664 18.7284 -5.27741e-15)
(-28.2945 26.1271 0)
(-28.4988 31.0562 -1.49817e-14)
(-27.8874 33.356 1.20544e-14)
(-26.8586 34.2294 -3.79295e-15)
(-26.2923 34.3786 -6.93855e-15)
(-25.6093 34.789 9.99094e-15)
(-32.2422 -5.74016 1.2927e-15)
(-29.9382 -1.63315 1.20283e-15)
(-31.0792 4.1655 0)
(-30.9273 10.174 2.36549e-15)
(-31.3736 17.1221 -2.38103e-15)
(-31.4994 24.0748 4.72622e-15)
(-30.9169 29.3012 0)
(-29.8534 31.7808 -4.16814e-15)
(-28.4931 32.9278 -1.04637e-14)
(-27.3429 33.4222 6.53605e-15)
(-26.4472 33.6061 6.16225e-15)
(-25.5674 33.911 -1.17239e-14)
(-34.7013 -3.21678 -5.96266e-16)
(-33.8755 0.791531 -1.09506e-15)
(-35.2482 7.12559 2.15504e-15)
(-35.1824 13.8521 0)
(-34.9928 20.8514 -8.65414e-15)
(-33.9396 26.4583 8.38868e-15)
(-32.3604 29.6444 3.85265e-15)
(-30.6083 31.0722 3.55478e-15)
(-28.9936 31.7371 0)
(-27.5633 32.0653 0)
(-26.362 32.2943 0)
(-25.2657 32.593 -7.78593e-18)
(-37.5421 -2.11279 7.29562e-19)
(-37.5145 2.80149 0)
(-38.8388 9.41685 -1.97889e-15)
(-38.4503 16.0139 3.97275e-15)
(-37.3555 22.1895 3.89517e-15)
(-35.3477 26.3589 -7.38699e-15)
(-33.1298 28.6058 3.36241e-15)
(-31.0774 29.6689 -1.26098e-14)
(-29.212 30.3008 -2.06891e-18)
(-27.5892 30.7018 -4.64011e-18)
(-26.2008 31.0233 2.99177e-18)
(-24.962 31.3655 1.47883e-14)
(-39.6409 0.99724 5.14001e-16)
(-40.9627 5.30825 1.85742e-15)
(-41.7064 11.3259 -3.6199e-15)
(-40.9231 17.0044 -3.58013e-15)
(-38.9466 21.9264 -6.91952e-15)
(-36.3576 25.1118 -3.25587e-15)
(-33.7742 26.985 -6.05741e-15)
(-31.4529 28.0601 1.13328e-14)
(-29.4142 28.7807 0)
(-27.6375 29.3091 1.01017e-14)
(-26.0963 29.7532 -1.44298e-14)
(-24.7306 30.1813 4.61124e-15)
(-42.0576 3.07735 -9.53734e-16)
(-43.9254 7.22805 -2.53151e-15)
(-43.9661 12.2483 4.83965e-15)
(-42.7555 16.7744 0)
(-40.2239 20.6834 -3.00421e-15)
(-37.3025 23.4546 5.68888e-15)
(-34.4486 25.2789 -2.87968e-18)
(-31.9053 26.473 1.42937e-18)
(-29.685 27.3386 -4.90327e-15)
(-27.7512 28.01 -9.39061e-15)
(-26.0648 28.5751 4.51144e-15)
(-24.5732 29.0888 -4.35846e-15)
(-43.7463 5.89575 -8.89373e-16)
(-46.4543 8.81559 0)
(-45.5756 12.461 0)
(-44.0705 15.9304 0)
(-41.3301 19.1376 2.59164e-15)
(-38.2492 21.7029 0)
(-35.2151 23.5843 -3.97669e-18)
(-32.4717 24.9486 9.35002e-15)
(-30.0597 25.9869 2.96789e-18)
(-27.955 26.8064 4.38836e-15)
(-26.1153 27.4829 -4.26687e-15)
(-24.4899 28.0683 1.24662e-14)
(-46.6625 7.22996 -1.65246e-15)
(-48.3909 9.26571 3.34515e-15)
(-46.496 11.7699 -1.24167e-15)
(-44.5887 14.5929 0)
(-41.7748 17.3716 0)
(-38.6969 19.8273 0)
(-35.6472 21.8121 0)
(-32.8338 23.3733 4.32306e-15)
(-30.3174 24.6056 -1.69457e-14)
(-28.0964 25.5846 -8.31019e-15)
(-26.1388 26.3743 8.14842e-15)
(-24.4017 27.0262 4.0007e-15)
(-46.9297 9.96896 -7.36749e-16)
(-48.0771 8.84674 -1.88016e-15)
(-45.3724 10.2953 -1.15201e-15)
(-43.1699 12.6666 0)
(-40.5639 15.1963 0)
(-37.8041 17.6496 4.20849e-15)
(-35.0511 19.798 -8.25191e-15)
(-32.4413 21.5827 1.62586e-14)
(-30.0374 23.033 1.20326e-14)
(-27.8628 24.192 7.91642e-15)
(-25.9063 25.1097 -7.81264e-15)
(-24.1439 25.8352 6.9631e-18)
(-43.8974 4.62893 -1.24022e-18)
(-43.1258 6.46496 0)
(-40.2769 7.72207 2.16768e-15)
(-38.5343 10.0631 -6.29813e-15)
(-36.8137 12.6739 6.0962e-15)
(-34.9157 15.2516 3.73743e-18)
(-32.9021 17.5791 3.89142e-15)
(-30.8519 19.5737 -3.84356e-15)