/*--------------------------------*- C++ -*----------------------------------*\
| =========                 |                                                 |
| \\      /  F ield         | OpenFOAM: The Open Source CFD Toolbox           |
|  \\    /   O peration     | Version:  2212                                  |
|   \\  /    A nd           | Website:  www.openfoam.com                      |
|    \\/     M anipulation  |                                                 |
\*---------------------------------------------------------------------------*/
FoamFile
{
    version     2.0;
    format      ascii;
    arch        "LSB;label=32;scalar=64";
    class       volScalarField;
    location    "0.05";
    object      alphat;
}
// * * * * * * * * * * * * * * * * * * * * * * * * * * * * * * * * * * * * * //

dimensions      [1 -1 -1 0 0 0 0];

internalField   nonuniform List<scalar> 
3072
(
0.000343187
0.000724303
0.000750134
0.000746632
0.000718588
0.000691424
0.000758177
0.00124595
0.00179544
0.00199527
0.00208235
0.00215144
0.000558704
0.00143868
0.00196185
0.00185663
0.00118588
0.00100402
0.00183796
0.00229216
0.00354011
0.00495795
0.00697775
0.00908132
0.000731657
0.00262606
0.00318342
0.00273933
0.002449
0.00266163
0.00410206
0.00605408
0.00882646
0.0120387
0.0151131
0.0179006
0.000920515
0.0037701
0.00364701
0.00324835
0.00355244
0.00518391
0.00800419
0.0111906
0.0148327
0.0184823
0.0217456
0.0245946
0.00106425
0.00459726
0.00469569
0.00462394
0.00593934
0.00886312
0.0122921
0.01596
0.0197781
0.0234072
0.0266456
0.0294632
0.00119031
0.00566461
0.0064072
0.00684071
0.00904031
0.0123688
0.0159804
0.0196976
0.023415
0.0269089
0.0300478
0.0327925
0.00128607
0.00642935
0.00785458
0.00923623
0.012081
0.015564
0.0191183
0.0227134
0.026198
0.0294456
0.032377
0.0349645
0.00138942
0.00764233
0.00977673
0.0122851
0.0155157
0.0189152
0.0222837
0.0255742
0.0286707
0.0315157
0.0340808
0.0363465
0.00151564
0.00902025
0.0128509
0.0163624
0.0196736
0.022723
0.0255638
0.0282156
0.0306528
0.0328826
0.0349309
0.0367853
0.00169409
0.0107642
0.0160893
0.0199555
0.0230387
0.0255585
0.0277524
0.02974
0.0315635
0.0332684
0.0348958
0.0364367
0.00194368
0.0105128
0.017645
0.0217658
0.0245839
0.0268709
0.0287835
0.0304351
0.0319414
0.0333442
0.0346803
0.035981
0.00343531
0.0104287
0.0188111
0.0233131
0.0258917
0.0280999
0.0298378
0.0312739
0.0325417
0.0336955
0.0347744
0.0358067
0.00218712
0.00220924
0.00221175
0.00221176
0.00219407
0.00215445
0.00209192
0.00200098
0.00187421
0.00171212
0.00148066
0.000717406
0.011131
0.0128155
0.0138306
0.0140715
0.0137109
0.012873
0.0115484
0.00977072
0.00754207
0.00459471
0.00219102
0.00121899
0.0202274
0.0218961
0.0227553
0.02286
0.0223597
0.0211699
0.0192809
0.0166438
0.0132315
0.00903341
0.00402647
0.0016024
0.0269242
0.028653
0.0297101
0.0301047
0.0298049
0.0287261
0.0267689
0.0237584
0.0195389
0.0139932
0.00693315
0.0019582
0.031802
0.0336143
0.0348607
0.0355057
0.0354924
0.0347335
0.0330661
0.0302059
0.0256261
0.0190813
0.0101931
0.00230817
0.0351095
0.0369732
0.0383642
0.0392555
0.0396155
0.0393531
0.0382392
0.0358475
0.0315297
0.0244079
0.0139907
0.00267274
0.0371806
0.039004
0.0404282
0.0414666
0.0421345
0.0423775
0.041981
0.0404293
0.0367728
0.0296244
0.0180209
0.00305321
0.0382982
0.0399313
0.0412624
0.0423423
0.0432114
0.0438732
0.0441926
0.0436758
0.0411434
0.0344535
0.0217415
0.00347874
0.0384316
0.0398645
0.0411034
0.0421812
0.0431589
0.0441017
0.0449942
0.0455037
0.0444391
0.0388801
0.025148
0.00394423
0.0378644
0.0391471
0.0403088
0.0413607
0.0423764
0.0434512
0.0446633
0.045945
0.04641
0.0428426
0.0290039
0.00443965
0.0372104
0.0383601
0.0394327
0.040412
0.0413423
0.0423159
0.0435808
0.0451489
0.0466117
0.0454388
0.0334436
0.00498505
0.0367946
0.0377381
0.0386425
0.0395301
0.0404513
0.0413196
0.0422133
0.0436959
0.0456706
0.0466373
0.0381248
0.00561154
0.000322408
0.00068326
0.000713382
0.000709669
0.000690146
0.000654674
0.000689428
0.00101145
0.0016336
0.0018716
0.00196607
0.00203493
0.000524673
0.00135849
0.00189494
0.00188379
0.00129927
0.000817953
0.00160274
0.0020008
0.00295544
0.00432496
0.00610317
0.00803256
0.000684817
0.00244839
0.00314247
0.00280436
0.00247471
0.00237826
0.003399
0.0051321
0.00754676
0.0105553
0.0134612
0.0160942
0.000861775
0.00363326
0.00360387
0.00314128
0.00318826
0.00416962
0.00671882
0.00968207
0.0130162
0.0164875
0.0196054
0.0223316
0.00100011
0.00431775
0.00431839
0.00409076
0.00487023
0.0073369
0.0106969
0.0140736
0.0176607
0.0211149
0.024206
0.0269064
0.0011229
0.00519817
0.00568138
0.00582956
0.00763919
0.0108086
0.0142172
0.0177029
0.0211274
0.0244347
0.0274209
0.0300446
0.00122327
0.0059559
0.00703403
0.00812882
0.0107344
0.0140307
0.0173711
0.0206828
0.0239222
0.0269495
0.0296916
0.0321255
0.00133356
0.00721614
0.0090925
0.0114265
0.0143919
0.0175152
0.0205826
0.0235598
0.0264005
0.0290146
0.0313719
0.0334655
0.00146496
0.0087918
0.01234
0.0156088
0.0185955
0.0213191
0.0238383
0.0261859
0.0283615
0.0303942
0.032224
0.0338813
0.00165395
0.0106469
0.0154687
0.0189469
0.0217196
0.0239398
0.0258653
0.0275986
0.0292076
0.0307475
0.0321888
0.0335414
0.00189901
0.0101473
0.016734
0.0205253
0.0230772
0.0250967
0.0267606
0.0281935
0.0294992
0.0307385
0.031929
0.0330809
0.00333934
0.00985019
0.0177012
0.0218601
0.0241058
0.0260424
0.0275372
0.0287862
0.0299055
0.030947
0.031943
0.0329113
0.00207388
0.00209703
0.00210271
0.00210321
0.00209368
0.00205723
0.00200373
0.00191944
0.00180446
0.00165056
0.00142992
0.000690466
0.00999986
0.0116412
0.0126831
0.0129867
0.0126316
0.0118866
0.0106822
0.00907815
0.00702447
0.00430889
0.00208499
0.00117735
0.0183574
0.0199927
0.0208783
0.0210577
0.0206222
0.0195608
0.0178452
0.015436
0.0123083
0.00843777
0.0037929
0.00155085
0.0245953
0.026286
0.0273605
0.0278054
0.0275914
0.0266432
0.024868
0.0221121
0.0182277
0.0131202
0.00653482
0.00189483
0.0291704
0.0309446
0.0321954
0.0328842
0.0329521
0.032315
0.0308242
0.0282188
0.0239484
0.0178804
0.00959757
0.00223465
0.0322785
0.0340975
0.0354816
0.0364009
0.0368152
0.0366407
0.0356652
0.0334936
0.0295279
0.0229001
0.0132084
0.00258801
0.0342344
0.0360002
0.0374118
0.03847
0.0391826
0.0394993
0.039218
0.0378515
0.0345065
0.0278684
0.0170545
0.00295725
0.0352949
0.0368651
0.0381783
0.0392668
0.0401691
0.0408881
0.0412972
0.0409275
0.0386632
0.0324936
0.0206784
0.00336874
0.0353858
0.0367619
0.0379888
0.0390769
0.0400792
0.0410644
0.0420229
0.0426413
0.0417913
0.036717
0.0239536
0.00382457
0.0348302
0.0360701
0.037208
0.0382667
0.0392984
0.0404122
0.0416756
0.0430345
0.0436802
0.0404491
0.0277037
0.00431298
0.034236
0.0353541
0.0364221
0.0374265
0.0383725
0.0393583
0.040659
0.0423545
0.043929
0.0431908
0.0321732
0.0048599
0.0338721
0.0348206
0.0357471
0.0367192
0.0377
0.0385532
0.0394934
0.0409694
0.0430265
0.0443561
0.0370295
0.00550986
0.000343183
0.000724295
0.000750126
0.000746625
0.000718582
0.000691416
0.000758166
0.00124593
0.00179543
0.00199527
0.00208234
0.00215144
0.000558699
0.00143867
0.00196186
0.00185665
0.00118589
0.00100399
0.00183793
0.00229212
0.00354005
0.00495789
0.00697768
0.00908123
0.000731652
0.00262605
0.00318344
0.00273934
0.00244903
0.00266158
0.00410197
0.00605398
0.00882632
0.0120386
0.0151129
0.0179005
0.000920506
0.00377013
0.00364704
0.00324836
0.00355239
0.00518375
0.00800403
0.0111904
0.0148325
0.0184821
0.0217454
0.0245944
0.00106424
0.00459724
0.00469563
0.00462384
0.00593915
0.00886287
0.0122918
0.0159598
0.0197778
0.023407
0.0266454
0.029463
0.00119029
0.00566451
0.00640704
0.00684047
0.00904002
0.0123685
0.0159801
0.0196973
0.0234148
0.0269086
0.0300475
0.0327922
0.00128606
0.00642921
0.00785434
0.00923591
0.0120807
0.0155637
0.019118
0.0227131
0.0261977
0.0294453
0.0323767
0.0349642
0.00138941
0.00764219
0.00977648
0.0122848
0.0155154
0.0189148
0.0222834
0.0255739
0.0286704
0.0315154
0.0340805
0.0363463
0.00151563
0.00902017
0.0128507
0.0163622
0.0196734
0.0227228
0.0255635
0.0282154
0.0306525
0.0328823
0.0349306
0.0367851
0.00169409
0.0107642
0.0160892
0.0199554
0.0230386
0.0255583
0.0277522
0.0297398
0.0315633
0.0332681
0.0348955
0.0364364
0.00194368
0.0105128
0.017645
0.0217658
0.0245838
0.0268707
0.0287834
0.030435
0.0319412
0.033344
0.03468
0.0359808
0.00343531
0.0104287
0.0188111
0.0233131
0.0258916
0.0280998
0.0298377
0.0312738
0.0325416
0.0336954
0.0347742
0.0358065
0.00218711
0.00220923
0.00221174
0.00221175
0.00219406
0.00215444
0.00209192
0.00200097
0.0018742
0.00171212
0.00148066
0.000717405
0.0111309
0.0128154
0.0138305
0.0140715
0.0137108
0.012873
0.0115483
0.00977068
0.00754204
0.0045947
0.00219101
0.00121899
0.0202272
0.021896
0.0227552
0.0228599
0.0223596
0.0211698
0.0192808
0.0166437
0.0132315
0.00903338
0.00402646
0.0016024
0.026924
0.0286528
0.0297099
0.0301045
0.0298048
0.0287259
0.0267688
0.0237583
0.0195388
0.0139932
0.00693312
0.0019582
0.0318018
0.0336141
0.0348605
0.0355055
0.0354922
0.0347333
0.033066
0.0302057
0.025626
0.0190812
0.0101931
0.00230817
0.0351092
0.036973
0.038364
0.0392553
0.0396153
0.0393529
0.038239
0.0358474
0.0315296
0.0244079
0.0139907
0.00267274
0.0371804
0.0390037
0.0404279
0.0414663
0.0421343
0.0423773
0.0419808
0.0404291
0.0367726
0.0296243
0.0180208
0.00305321
0.0382979
0.039931
0.0412621
0.042342
0.0432111
0.0438729
0.0441924
0.0436756
0.0411432
0.0344534
0.0217415
0.00347873
0.0384313
0.0398642
0.0411032
0.0421809
0.0431586
0.0441015
0.044994
0.0455034
0.0444389
0.03888
0.0251479
0.00394422
0.0378641
0.0391468
0.0403085
0.0413604
0.0423761
0.043451
0.044663
0.0459448
0.0464098
0.0428425
0.0290039
0.00443964
0.0372101
0.0383598
0.0394325
0.0404118
0.0413421
0.0423157
0.0435806
0.0451487
0.0466114
0.0454387
0.0334435
0.00498505
0.0367944
0.0377379
0.0386423
0.0395299
0.0404511
0.0413194
0.0422131
0.0436957
0.0456704
0.0466371
0.0381248
0.00561153
0.000322409
0.00068326
0.000713382
0.000709669
0.000690147
0.000654675
0.000689428
0.00101145
0.0016336
0.0018716
0.00196607
0.00203494
0.000524673
0.00135849
0.00189494
0.00188379
0.00129927
0.00081795
0.00160274
0.0020008
0.00295544
0.00432496
0.00610317
0.00803256
0.000684817
0.00244839
0.00314246
0.00280435
0.00247471
0.00237826
0.003399
0.0051321
0.00754676
0.0105553
0.0134612
0.0160942
0.000861775
0.00363326
0.00360387
0.00314128
0.00318826
0.00416961
0.00671882
0.00968207
0.0130162
0.0164875
0.0196054
0.0223316
0.00100011
0.00431775
0.00431839
0.00409075
0.00487022
0.0073369
0.0106969
0.0140736
0.0176607
0.0211149
0.024206
0.0269064
0.00112291
0.00519817
0.00568137
0.00582956
0.00763919
0.0108086
0.0142172
0.0177029
0.0211274
0.0244347
0.027421
0.0300446
0.00122328
0.00595591
0.00703404
0.00812882
0.0107344
0.0140307
0.0173711
0.0206828
0.0239222
0.0269495
0.0296916
0.0321255
0.00133356
0.00721615
0.00909251
0.0114265
0.0143919
0.0175152
0.0205826
0.0235598
0.0264005
0.0290146
0.0313719
0.0334655
0.00146496
0.00879181
0.01234
0.0156088
0.0185955
0.0213191
0.0238383
0.0261859
0.0283615
0.0303942
0.032224
0.0338813
0.00165395
0.0106469
0.0154687
0.0189469
0.0217196
0.0239398
0.0258653
0.0275986
0.0292076
0.0307475
0.0321888
0.0335414
0.00189901
0.0101473
0.016734
0.0205253
0.0230772
0.0250967
0.0267606
0.0281935
0.0294993
0.0307385
0.031929
0.0330809
0.00333934
0.00985018
0.0177012
0.0218601
0.0241058
0.0260424
0.0275372
0.0287862
0.0299055
0.030947
0.031943
0.0329113
0.00207388
0.00209703
0.00210272
0.00210321
0.00209368
0.00205723
0.00200373
0.00191944
0.00180446
0.00165056
0.00142992
0.000690466
0.00999987
0.0116412
0.0126831
0.0129867
0.0126316
0.0118866
0.0106822
0.00907816
0.00702448
0.0043089
0.002085
0.00117735
0.0183574
0.0199927
0.0208783
0.0210577
0.0206222
0.0195609
0.0178452
0.015436
0.0123083
0.00843778
0.00379291
0.00155085
0.0245953
0.026286
0.0273605
0.0278054
0.0275915
0.0266433
0.0248681
0.0221121
0.0182277
0.0131202
0.00653482
0.00189484
0.0291704
0.0309446
0.0321954
0.0328842
0.0329521
0.032315
0.0308243
0.0282189
0.0239484
0.0178805
0.00959758
0.00223466
0.0322785
0.0340975
0.0354816
0.036401
0.0368152
0.0366408
0.0356653
0.0334936
0.0295279
0.0229001
0.0132085
0.00258801
0.0342344
0.0360003
0.0374118
0.03847
0.0391827
0.0394994
0.0392181
0.0378516
0.0345065
0.0278684
0.0170545
0.00295725
0.035295
0.0368651
0.0381783
0.0392668
0.0401692
0.0408882
0.0412973
0.0409275
0.0386632
0.0324936
0.0206784
0.00336875
0.0353858
0.036762
0.0379888
0.0390769
0.0400793
0.0410644
0.0420229
0.0426414
0.0417913
0.0367171
0.0239536
0.00382457
0.0348302
0.0360701
0.0372081
0.0382668
0.0392984
0.0404122
0.0416757
0.0430345
0.0436803
0.0404492
0.0277037
0.00431299
0.034236
0.0353541
0.0364221
0.0374265
0.0383725
0.0393583
0.0406591
0.0423545
0.0439291
0.0431909
0.0321732
0.0048599
0.0338721
0.0348206
0.0357472
0.0367192
0.0377001
0.0385532
0.0394935
0.0409694
0.0430266
0.0443561
0.0370296
0.00550986
0.0209807
0.0219856
0.0238922
0.0260276
0.0280415
0.0298699
0.0312851
0.0324566
0.0335016
0.0344145
0.035239
0.0360058
0.0328991
0.030757
0.0303145
0.0307156
0.0315777
0.0324325
0.0330519
0.0338551
0.0346949
0.0353144
0.035836
0.0363141
0.0404536
0.0383188
0.0368304
0.0359287
0.0355842
0.0355242
0.0355986
0.0357246
0.0358562
0.0359867
0.0361149
0.0363162
0.0429946
0.0414925
0.04009
0.0389065
0.0379926
0.0372857
0.036728
0.0364267
0.036159
0.0359048
0.0356899
0.035448
0.0367251
0.0374102
0.0380693
0.0387185
0.0394224
0.0403113
0.0412272
0.0422411
0.0439951
0.046377
0.0474261
0.022143
0.0367385
0.0371424
0.0375439
0.0379689
0.0384441
0.0390146
0.0398695
0.0407365
0.0420337
0.0444183
0.0493306
0.0363666
0.0364136
0.03653
0.0366812
0.0369219
0.0372662
0.0377333
0.0384056
0.0393502
0.0405021
0.0422791
0.0468206
0.0426973
0.0352678
0.0352257
0.0353471
0.0357349
0.0362618
0.0369237
0.0377395
0.0388527
0.0400994
0.0414275
0.0443405
0.0440743
0.019761
0.0203816
0.0221155
0.0240068
0.025759
0.0273165
0.0285332
0.0296062
0.0305942
0.0314821
0.0323093
0.0331022
0.0313868
0.0288906
0.0280899
0.0281926
0.0287271
0.0293298
0.0299571
0.0307676
0.0316049
0.0322682
0.0328915
0.0334725
0.0390996
0.0364627
0.0344013
0.033215
0.032605
0.0324099
0.0324568
0.0326393
0.0329075
0.0331275
0.0333653
0.0336408
0.041865
0.0397782
0.0379787
0.0364408
0.0352807
0.0345275
0.0340161
0.0336371
0.0334621
0.0333442
0.0332525
0.0331847
0.0338763
0.0346338
0.0353671
0.0360984
0.0368698
0.0377828
0.0385563
0.0397065
0.0415938
0.0442753
0.0466478
0.0226592
0.0340366
0.0345777
0.0350831
0.0355781
0.0360847
0.0367718
0.037523
0.0383215
0.039841
0.0425031
0.0483213
0.0372259
0.033975
0.034266
0.0344831
0.0346946
0.0349561
0.0353993
0.0361001
0.0368579
0.0383287
0.0402729
0.0453119
0.0432657
0.0331254
0.0330402
0.0330129
0.0330707
0.0332775
0.0338485
0.03463
0.035584
0.0372216
0.0388841
0.0426444
0.0438037
0.0209806
0.0219856
0.0238921
0.0260275
0.0280414
0.0298698
0.0312851
0.0324566
0.0335015
0.0344144
0.0352389
0.0360056
0.032899
0.0307569
0.0303144
0.0307155
0.0315776
0.0324324
0.0330518
0.0338551
0.0346948
0.0353144
0.0358359
0.036314
0.0404535
0.0383187
0.0368303
0.0359286
0.0355841
0.0355241
0.0355986
0.0357246
0.0358561
0.0359866
0.0361149
0.0363162
0.0429945
0.0414924
0.0400899
0.0389064
0.0379926
0.0372856
0.0367279
0.0364267
0.036159
0.0359048
0.0356898
0.0354479
0.0367249
0.03741
0.0380692
0.0387184
0.0394223
0.0403111
0.041227
0.0422409
0.0439949
0.0463768
0.047426
0.022143
0.0367384
0.0371423
0.0375438
0.0379688
0.0384439
0.0390144
0.0398693
0.0407364
0.0420336
0.0444181
0.0493304
0.0363666
0.0364135
0.0365299
0.0366811
0.0369218
0.0372661
0.0377332
0.0384055
0.0393501
0.040502
0.0422789
0.0468204
0.0426971
0.0352678
0.0352257
0.0353471
0.0357348
0.0362617
0.0369236
0.0377393
0.0388526
0.0400992
0.0414274
0.0443403
0.0440742
0.019761
0.0203816
0.0221154
0.0240068
0.025759
0.0273165
0.0285332
0.0296061
0.0305942
0.0314821
0.0323093
0.0331022
0.0313867
0.0288906
0.0280899
0.0281925
0.028727
0.0293298
0.0299571
0.0307676
0.0316048
0.0322682
0.0328915
0.0334725
0.0390995
0.0364627
0.0344012
0.0332149
0.032605
0.0324099
0.0324568
0.0326393
0.0329075
0.0331275
0.0333653
0.0336408
0.0418649
0.0397781
0.0379787
0.0364408
0.0352806
0.0345274
0.0340161
0.0336371
0.0334621
0.0333442
0.0332525
0.0331847
0.0338763
0.0346338
0.0353671
0.0360984
0.0368699
0.0377829
0.0385563
0.0397065
0.0415939
0.0442754
0.0466479
0.0226593
0.0340366
0.0345777
0.0350831
0.0355781
0.0360848
0.0367719
0.037523
0.0383216
0.0398411
0.0425032
0.0483214
0.037226
0.033975
0.034266
0.0344831
0.0346947
0.0349561
0.0353993
0.0361002
0.036858
0.0383288
0.040273
0.045312
0.0432658
0.0331254
0.0330402
0.0330129
0.0330708
0.0332776
0.0338486
0.0346301
0.0355841
0.0372217
0.0388842
0.0426446
0.0438039
0.0413213
0.0400428
0.0387855
0.0376993
0.0368227
0.0361046
0.0354957
0.0350411
0.0345837
0.0341036
0.0336501
0.0333517
0.0391128
0.0380094
0.0368706
0.0358482
0.0349726
0.0342168
0.0335415
0.0329266
0.0322505
0.0314611
0.030593
0.029962
0.0367748
0.0358376
0.0348077
0.0338379
0.0329634
0.032166
0.0314045
0.0306228
0.0296841
0.0284253
0.0266693
0.024762
0.0344941
0.0337083
0.0327848
0.0318651
0.0309919
0.0301528
0.029302
0.0283533
0.0271159
0.025186
0.0216644
0.0161417
0.0335346
0.0342381
0.0351078
0.0361387
0.0372521
0.0382935
0.0393773
0.040423
0.0413927
0.0423193
0.0428213
0.0422757
0.0305088
0.0323732
0.0341739
0.0358473
0.0374157
0.0387388
0.0398719
0.0407819
0.0414438
0.0417029
0.0416443
0.0407477
0.025383
0.0296197
0.0327726
0.0351041
0.0369626
0.038424
0.0395508
0.0403293
0.0406695
0.0406657
0.040315
0.0390798
0.0161702
0.025733
0.0309272
0.0339606
0.036046
0.0375742
0.0386769
0.0392796
0.039466
0.0393495
0.0387583
0.0373789
0.0402641
0.0383224
0.036684
0.0353213
0.0342832
0.0335263
0.0329161
0.0323905
0.0319844
0.0316134
0.0312972
0.031085
0.0387313
0.0368443
0.0352144
0.0338351
0.0327075
0.0317774
0.0309512
0.0301782
0.0294496
0.0287135
0.0280119
0.0275196
0.0371709
0.0352921
0.0336054
0.0321269
0.0308445
0.0297089
0.028647
0.0276018
0.0265192
0.0252888
0.0238362
0.0225102
0.0355537
0.0336824
0.0319348
0.030349
0.0289163
0.0275955
0.0263228
0.0250217
0.02357
0.0216772
0.0186787
0.0143407
0.0310164
0.0310381
0.0311421
0.0314352
0.0320198
0.032983
0.0342303
0.0357075
0.037525
0.0394314
0.0414421
0.0420029
0.0275594
0.0280281
0.0284592
0.0290363
0.0299179
0.0311526
0.0326583
0.0343526
0.0361921
0.0379629
0.0392954
0.0396656
0.0226054
0.0244647
0.0256312
0.0266073
0.0277534
0.0291598
0.0307737
0.0325129
0.0342807
0.0358602
0.0368899
0.0371934
0.0143344
0.0201966
0.0228259
0.0243502
0.0257396
0.0272382
0.028862
0.0305561
0.0322181
0.0336184
0.0345072
0.0347981
0.0413211
0.0400427
0.0387854
0.0376992
0.0368226
0.0361045
0.0354957
0.035041
0.0345836
0.0341035
0.03365
0.0333516
0.0391126
0.0380092
0.0368705
0.035848
0.0349726
0.0342167
0.0335415
0.0329266
0.0322504
0.0314611
0.030593
0.0299619
0.0367746
0.0358374
0.0348075
0.0338377
0.0329633
0.0321659
0.0314045
0.0306227
0.0296841
0.0284252
0.0266693
0.0247619
0.0344939
0.0337081
0.0327847
0.0318649
0.0309918
0.0301527
0.0293018
0.0283532
0.0271158
0.0251859
0.0216643
0.0161417
0.0335345
0.034238
0.0351077
0.0361386
0.037252
0.0382934
0.0393771
0.0404229
0.0413925
0.0423192
0.0428212
0.0422756
0.0305087
0.0323732
0.0341738
0.0358472
0.0374156
0.0387387
0.0398717
0.0407817
0.0414437
0.0417027
0.0416442
0.0407476
0.0253829
0.0296196
0.0327725
0.0351039
0.0369624
0.0384239
0.0395506
0.0403292
0.0406694
0.0406656
0.0403149
0.0390797
0.0161702
0.0257329
0.0309271
0.0339604
0.0360459
0.037574
0.0386768
0.0392794
0.0394659
0.0393494
0.0387582
0.0373788
0.040264
0.0383224
0.0366839
0.0353213
0.0342832
0.0335263
0.0329161
0.0323905
0.0319844
0.0316134
0.0312972
0.0310851
0.0387312
0.0368442
0.0352144
0.0338351
0.0327075
0.0317774
0.0309512
0.0301783
0.0294497
0.0287135
0.028012
0.0275197
0.0371709
0.0352921
0.0336054
0.032127
0.0308446
0.0297089
0.0286471
0.0276019
0.0265193
0.0252889
0.0238363
0.0225103
0.0355536
0.0336824
0.0319348
0.0303491
0.0289164
0.0275957
0.0263229
0.0250218
0.0235702
0.0216774
0.0186788
0.0143407
0.0310165
0.0310382
0.0311422
0.0314353
0.03202
0.0329832
0.0342306
0.0357077
0.0375252
0.0394316
0.0414423
0.0420031
0.0275595
0.0280283
0.0284595
0.0290366
0.0299182
0.0311529
0.0326586
0.0343528
0.0361924
0.0379631
0.0392956
0.0396658
0.0226055
0.024465
0.0256316
0.0266077
0.0277539
0.0291602
0.0307741
0.0325132
0.034281
0.0358605
0.0368901
0.0371936
0.0143344
0.0201969
0.0228264
0.0243508
0.0257402
0.0272387
0.0288624
0.0305565
0.0322185
0.0336187
0.0345075
0.0347983
0.0323427
0.0316892
0.030863
0.0299923
0.0291237
0.0282484
0.027315
0.0262138
0.0246969
0.0220301
0.0159555
0.00353343
0.0303355
0.0297928
0.0290534
0.0282306
0.0273714
0.0264683
0.0254662
0.0242411
0.022514
0.0195757
0.0137084
0.00245432
0.02846
0.0280081
0.0273453
0.0265693
0.0257243
0.0248038
0.0237514
0.0224398
0.0205993
0.0176336
0.012305
0.00200521
0.0266879
0.0263102
0.0257147
0.0249845
0.0241596
0.0232333
0.0221507
0.0207907
0.0189133
0.0160458
0.0112607
0.00178687
0.0249743
0.0246583
0.0241231
0.0234388
0.0226407
0.0217215
0.0206299
0.0192563
0.0173979
0.0146862
0.0103699
0.00163101
0.0232491
0.0229866
0.0225075
0.0218718
0.0211093
0.0202123
0.0191338
0.0177788
0.0159807
0.0134514
0.00953869
0.00149681
0.0213986
0.0211862
0.0207631
0.0201822
0.0194682
0.0186121
0.017572
0.0162678
0.0145661
0.0122392
0.00870336
0.0013729
0.0192364
0.0190748
0.0187127
0.018199
0.0175525
0.016763
0.0157936
0.0145793
0.0130158
0.0109263
0.00779571
0.001252
0.0164587
0.0163515
0.0160616
0.0156356
0.0150863
0.0144011
0.0135485
0.0124801
0.011118
0.00933728
0.00671397
0.00112565
0.0125889
0.012539
0.0123377
0.0120311
0.0116235
0.0110994
0.0104349
0.0096013
0.00853638
0.00718974
0.00527801
0.000980738
0.00699311
0.00699085
0.00689346
0.00674484
0.00653845
0.00625638
0.00588737
0.00542738
0.00480827
0.00406872
0.0031183
0.000797598
0.000748156
0.000743631
0.000731108
0.000713474
0.000690469
0.000662014
0.00062728
0.000583108
0.00052698
0.000455878
0.000363255
0.000172786
0.00366551
0.0209695
0.0288534
0.0325409
0.0348058
0.0363639
0.037402
0.0378976
0.0380458
0.0378219
0.0370358
0.035652
0.00287647
0.0188192
0.0269688
0.0309711
0.0333531
0.0349286
0.0358827
0.0363329
0.036437
0.0361265
0.0352577
0.0339118
0.00254609
0.0173559
0.0252242
0.0293228
0.031759
0.0333233
0.0342286
0.0346472
0.0347023
0.0343271
0.0334475
0.0321663
0.00235408
0.0161429
0.0235719
0.0276261
0.0300628
0.0315977
0.0324661
0.0328673
0.0328738
0.0324542
0.0316058
0.0304071
0.00220563
0.0150162
0.0219562
0.0258776
0.0282705
0.0297603
0.0306002
0.030973
0.0309381
0.030505
0.0297072
0.0285984
0.00207218
0.0138903
0.0203161
0.0240406
0.026346
0.0277749
0.0285799
0.0289168
0.0288476
0.0284192
0.0276817
0.0266626
0.00194031
0.0127014
0.0185732
0.0220355
0.0242022
0.0255453
0.0262951
0.0265891
0.0264916
0.0260754
0.0253933
0.024469
0.00180156
0.0113697
0.0166084
0.0197143
0.0216709
0.0228818
0.0235468
0.0237864
0.0236633
0.0232611
0.0226273
0.0218127
0.00165293
0.00976492
0.0142037
0.0168082
0.0184477
0.0194561
0.0199944
0.0201633
0.0200212
0.0196374
0.0190603
0.0183919
0.00147816
0.00769471
0.0109727
0.0128469
0.0140213
0.0147363
0.0150993
0.0151918
0.0150477
0.0147062
0.0142462
0.0137597
0.00125619
0.00467498
0.00624484
0.00713646
0.00770692
0.00805303
0.00821251
0.00825371
0.00814821
0.00795448
0.00769823
0.00742039
0.00029687
0.000515861
0.000658252
0.000746445
0.000806416
0.000847058
0.000870955
0.000880616
0.000876493
0.000864117
0.000845743
0.000822564
0.0339052
0.0320635
0.0302851
0.0286234
0.0270786
0.0256178
0.0241793
0.0226654
0.0208828
0.0183032
0.0130947
0.00295897
0.0322534
0.0304726
0.0287072
0.0270177
0.0254132
0.0238671
0.0223189
0.0206571
0.0186573
0.015778
0.0106089
0.00180569
0.0306096
0.0289192
0.02721
0.0255425
0.0239313
0.0223553
0.0207563
0.0190199
0.0169265
0.0140119
0.0092559
0.00136132
0.0289611
0.0273828
0.0257632
0.0241586
0.0225862
0.0210291
0.0194336
0.0176916
0.0156088
0.0128194
0.00859004
0.0011937
0.0272646
0.0258108
0.0243017
0.0227886
0.0212889
0.0197894
0.018242
0.0165501
0.014551
0.0119624
0.00822258
0.00112055
0.025444
0.0241164
0.022728
0.0213244
0.0199219
0.0185094
0.0170449
0.0154442
0.0135736
0.0112078
0.00786925
0.00106971
0.0233745
0.022169
0.0209076
0.0196281
0.0183438
0.0170442
0.0156925
0.0142158
0.0125037
0.0103649
0.00741528
0.00103154
0.020861
0.0197801
0.0186584
0.0175238
0.0163838
0.0152275
0.0140219
0.0127038
0.0111831
0.00928562
0.00677476
0.000986127
0.0176099
0.0166823
0.0157319
0.0147801
0.0138253
0.0128557
0.0118423
0.0107305
0.00945361
0.0078384
0.00584495
0.000928307
0.0131694
0.0124795
0.0117574
0.0110506
0.0103424
0.00962126
0.00886391
0.00802432
0.00707113
0.00580432
0.00441723
0.000845832
0.00710567
0.00677181
0.00641189
0.00604123
0.00566506
0.00528013
0.00487398
0.00440969
0.00391198
0.00316189
0.00247101
0.000726204
0.000794467
0.0007627
0.000727892
0.000691563
0.000654447
0.000616191
0.000576553
0.000533485
0.000486998
0.000424717
0.000362766
0.000224958
0.00319124
0.0153131
0.0201526
0.0223085
0.0239141
0.0254482
0.027026
0.0286336
0.0301775
0.0314418
0.0322536
0.0325532
0.00230913
0.0129261
0.0179953
0.0205233
0.0222608
0.0237891
0.0252948
0.026803
0.0282343
0.0293933
0.0301567
0.0304707
0.00188277
0.011348
0.0162661
0.018942
0.0207384
0.0222326
0.0236586
0.0250712
0.0264039
0.0274794
0.0282077
0.0285355
0.00162823
0.010159
0.014822
0.0175021
0.0192926
0.0207331
0.0220825
0.0234127
0.0246652
0.0256751
0.0263765
0.0267159
0.00144634
0.00917467
0.0135391
0.0161312
0.0178611
0.0192312
0.0205102
0.0217757
0.0229696
0.0239313
0.0246129
0.0249635
0.0013062
0.00827671
0.0123258
0.0147557
0.0163735
0.0176532
0.0188643
0.0200816
0.0212392
0.0221701
0.0228398
0.0232042
0.00118634
0.00741966
0.0111034
0.0132979
0.014749
0.0159092
0.017044
0.0182205
0.0193591
0.020274
0.0209373
0.021321
0.00107492
0.00656024
0.0097866
0.011664
0.0128882
0.0138878
0.0149194
0.0160428
0.0171646
0.018065
0.0187183
0.0191259
0.000963113
0.00562234
0.00825381
0.00972264
0.0106578
0.0114454
0.0123231
0.0133475
0.0144197
0.0152793
0.0158944
0.0163182
0.000839266
0.0044502
0.00629183
0.00723758
0.00781963
0.00833398
0.00897045
0.00979534
0.01074
0.01152
0.0120422
0.0124333
0.000684875
0.00270408
0.00357032
0.00394649
0.00416338
0.00437441
0.00470183
0.00521251
0.00580472
0.00630243
0.00665027
0.00688267
0.000148285
0.000313784
0.000387279
0.000429428
0.000462262
0.000500399
0.000549402
0.000606456
0.000656873
0.000695892
0.000724875
0.000742456
0.0323425
0.031689
0.0308628
0.0299921
0.0291236
0.0282483
0.0273149
0.0262136
0.0246968
0.02203
0.0159555
0.00353342
0.0303352
0.0297925
0.0290532
0.0282304
0.0273712
0.0264681
0.0254661
0.0242409
0.0225138
0.0195756
0.0137083
0.00245431
0.0284597
0.0280078
0.027345
0.026569
0.0257241
0.0248036
0.0237512
0.0224396
0.0205991
0.0176335
0.0123049
0.0020052
0.0266876
0.0263098
0.0257144
0.0249842
0.0241593
0.023233
0.0221504
0.0207905
0.0189131
0.0160456
0.0112605
0.00178685
0.024974
0.0246579
0.0241227
0.0234385
0.0226404
0.0217212
0.0206296
0.019256
0.0173976
0.014686
0.0103697
0.00163098
0.0232487
0.0229863
0.0225072
0.0218715
0.021109
0.020212
0.0191335
0.0177784
0.0159804
0.013451
0.00953847
0.00149676
0.0213982
0.0211858
0.0207628
0.0201819
0.0194678
0.0186118
0.0175717
0.0162675
0.0145657
0.0122389
0.00870316
0.00137284
0.0192361
0.0190745
0.0187124
0.0181987
0.0175522
0.0167627
0.0157933
0.014579
0.0130155
0.010926
0.00779558
0.00125192
0.0164585
0.0163513
0.0160614
0.0156354
0.0150861
0.0144009
0.0135484
0.01248
0.0111178
0.00933715
0.00671396
0.00112555
0.0125887
0.0125388
0.0123376
0.012031
0.0116234
0.0110993
0.0104348
0.00960122
0.00853633
0.00718974
0.00527813
0.000980609
0.00699303
0.00699078
0.00689339
0.00674478
0.00653839
0.00625633
0.00588733
0.00542734
0.00480825
0.00406874
0.0031184
0.000797437
0.000748137
0.000743613
0.000731091
0.000713457
0.000690453
0.000661998
0.000627263
0.000583089
0.000526959
0.000455853
0.000363226
0.000172719
0.00366551
0.0209694
0.0288533
0.0325408
0.0348056
0.0363637
0.0374018
0.0378975
0.0380457
0.0378218
0.0370357
0.035652
0.00287646
0.0188191
0.0269687
0.030971
0.033353
0.0349285
0.0358825
0.0363328
0.0364369
0.0361264
0.0352576
0.0339117
0.00254609
0.0173558
0.025224
0.0293226
0.0317588
0.0333231
0.0342285
0.034647
0.0347022
0.034327
0.0334474
0.0321663
0.00235407
0.0161428
0.0235718
0.0276259
0.0300627
0.0315976
0.0324659
0.0328671
0.0328737
0.0324541
0.0316057
0.0304071
0.00220562
0.0150162
0.0219561
0.0258775
0.0282704
0.0297602
0.0306
0.0309728
0.030938
0.0305049
0.0297071
0.0285983
0.00207217
0.0138902
0.0203159
0.0240405
0.0263459
0.0277748
0.0285798
0.0289166
0.0288475
0.0284191
0.0276816
0.0266625
0.0019403
0.0127013
0.0185731
0.0220354
0.0242021
0.0255452
0.0262949
0.026589
0.0264915
0.0260753
0.0253932
0.024469
0.00180154
0.0113696
0.0166084
0.0197142
0.0216708
0.0228817
0.0235467
0.0237863
0.0236633
0.023261
0.0226273
0.0218127
0.00165291
0.00976489
0.0142037
0.0168082
0.0184477
0.0194561
0.0199943
0.0201633
0.0200212
0.0196374
0.0190603
0.0183919
0.00147815
0.0076947
0.0109727
0.0128468
0.0140213
0.0147363
0.0150993
0.0151918
0.0150477
0.0147062
0.0142462
0.0137597
0.00125617
0.00467498
0.00624483
0.00713644
0.00770691
0.00805301
0.00821249
0.00825369
0.0081482
0.00795448
0.00769822
0.00742039
0.000296864
0.000515855
0.000658246
0.000746439
0.00080641
0.000847052
0.00087095
0.000880612
0.000876489
0.000864113
0.000845739
0.000822562
0.0339052
0.0320636
0.0302852
0.0286235
0.0270788
0.0256179
0.0241795
0.0226656
0.020883
0.0183034
0.0130949
0.00295899
0.0322534
0.0304726
0.0287072
0.0270179
0.0254134
0.0238673
0.0223192
0.0206574
0.0186576
0.0157784
0.0106092
0.00180576
0.0306096
0.0289193
0.0272101
0.0255426
0.0239315
0.0223556
0.0207566
0.0190203
0.016927
0.0140124
0.00925629
0.00136143
0.0289611
0.0273828
0.0257633
0.0241588
0.0225864
0.0210294
0.0194339
0.0176921
0.0156094
0.0128199
0.00859047
0.00119385
0.0272646
0.0258109
0.0243018
0.0227887
0.0212891
0.0197897
0.0182423
0.0165506
0.0145516
0.011963
0.00822292
0.00112073
0.025444
0.0241164
0.0227281
0.0213245
0.0199221
0.0185097
0.0170452
0.0154447
0.0135742
0.0112083
0.00786944
0.0010699
0.0233745
0.0221691
0.0209077
0.0196282
0.018344
0.0170445
0.0156928