/*--------------------------------*- C++ -*----------------------------------*\
| =========                 |                                                 |
| \\      /  F ield         | OpenFOAM: The Open Source CFD Toolbox           |
|  \\    /   O peration     | Version:  2212                                  |
|   \\  /    A nd           | Website:  www.openfoam.com                      |
|    \\/     M anipulation  |                                                 |
\*---------------------------------------------------------------------------*/
FoamFile
{
    version     2.0;
    format      ascii;
    arch        "LSB;label=32;scalar=64";
    class       volScalarField;
    location    "0.05";
    object      epsilon;
}
// * * * * * * * * * * * * * * * * * * * * * * * * * * * * * * * * * * * * * //

dimensions      [0 2 -3 0 0 0 0];

internalField   nonuniform List<scalar> 
3072
(
3826.35
3202.24
3558.2
3509.15
3128.23
2785.34
3665.79
16221.1
48590.8
66696.3
75787.8
83599
10547.4
8759.26
6802.79
6599.48
9399.11
22881.2
33660
36278.2
49086.9
54582.6
57133
58996.9
15837.4
12062.2
14251.6
20396.6
26538.4
28524.8
32710.8
37583.3
43366.7
45406.4
47685.7
49295.5
21829.2
17643.6
19971.8
21733.9
25011.9
27699.4
32580.6
37003.1
40081
41823.9
43549.8
44846.2
24073.7
20394.4
21818.3
21908.6
24754
28237.2
32923.4
36553.7
38821.7
40308.5
41656.8
42716.3
24649.7
20649.9
21793.3
22190.7
25356.5
29445.8
33631.6
36584
38346.6
39597.1
40729.8
41724.9
23260.8
18973.6
20768.9
22640.6
26635.9
30903.6
34650.9
37174.5
38785.7
39980
41058.8
42067.7
22368.6
17312.8
20584.5
24341.4
29567.8
34030.6
37414
39633.5
41110.4
42240.3
43270.5
44289.4
22505.3
17733.2
23481.4
30388
37315.2
42073
45071.2
46801.9
47841.2
48579.8
49231.3
49914.9
24730.6
22470.8
36407.1
48300.7
56874
61281.3
62915.8
62982.6
62390.7
61618.1
60895
60361.6
29803
43370.1
73144.4
90530.1
97627
97761.5
94591.1
90239.9
85805.3
81773.7
78326.9
75498.6
133311
136374
151769
155873
151919
142139
131529
121433
112373
104519
97875.4
92332.8
87793.6
90442.2
90673
90560.3
88273.9
83457.7
76279.2
66677.1
54747
41742.5
27014.1
34591.1
60184.3
61074.9
61413.1
61544.2
61783.6
62956.7
65743.1
70496.6
76838.9
84495
89431.9
108545
50291.2
50871.1
51140.2
51427
52175.4
54105.9
57926.1
64530.1
75198.6
91312.9
115046
165185
45741.7
46373.2
46829.8
47324.4
48279.7
50318.2
54265.5
61262.3
73175
93477.4
130804
209155
43525.8
44172.7
44712.4
45354
46467.4
48600.4
52573.4
59610.8
71888.7
94102.8
139932
244569
42592.2
43358.6
44072.7
44909
46173.2
48372.9
52318.8
59312.8
71718.2
94681.2
145859
277808
43026.7
43954.6
44891.9
45954.5
47379.2
49618.6
53450.5
60209.1
72413.5
95532.5
149467
309340
45324.4
46383.4
47482.8
48681.9
50173.6
52352.2
55951.4
62326.5
74153.6
97248.1
152994
347975
50670.6
51505.9
52420.6
53462.7
54773.1
56671.2
59822.3
65572.8
76740.8
99516.8
156812
391839
60058.5
60012.2
60179.3
60581.2
61301.4
62579.3
64989.1
69785.5
79848.7
101642
160164
438213
73247.2
71533.1
70293.8
69494.5
69254.5
69700.6
71051.5
74494.3
82796.4
103131
163367
493290
87754.2
84051.6
81111.4
78844.7
77220.8
76398.5
76722.1
78492
84325.6
102354
164494
567181
3173.39
2688.64
3060.92
3013.83
2771.67
2365.15
2758.67
8681.1
36618.2
55075.7
63819.8
70769.3
8737.22
7417.76
5752.06
5272.36
7037.63
16266.3
28528
30651
41018
46770
49121.2
51105.1
12990.5
9810.88
10878.5
15694.7
23086.7
25234.2
27787.3
31605.8
36978.9
39107
41173.3
42856.7
17918.9
14344.9
16487.1
18630.8
21919.1
23558.3
27248.8
31365.8
34516.7
36174
37762.1
39032.1
19989
16774.9
18356.2
18619.4
20934.4
23829.3
27787.3
31414.5
33684.1
35060.2
36267.9
37245.1
20705.5
17338.6
18381
18743.9
21443.5
24967.3
28910.8
31783.4
33579.9
34664.3
35597.7
36421.3
20027.3
16080.5
17581.4
19202.2
22838
26778
30272.4
32711.7
34175.5
35162.6
36006.2
36791.2
19787
15117.7
17743.7
21144.8
26065.2
30235.8
33373.3
35404.4
36619.7
37457.5
38186.2
38914.1
20331.4
15852.3
20963.7
27478.2
34078.1
38507.8
41173.3
42575.8
43255.2
43581.8
43881.6
44240.6
23025.4
20746.5
33749.5
45160.8
53407.7
57459.2
58639
58258.6
57217.1
56000.9
54893.1
54032.2
27809.3
40446.1
68985.5
85831.8
92532
92276.6
88629.5
83858.5
79064.4
74736.5
71061.5
68072.1
122493
128721
144365
148115
143730
133383
122351
112009
102876
95087.4
88598.3
83288
74888.7
77391.6
77964.6
77932.8
76773.3
72740.1
67113
58931.3
48929.1
37455.4
24367.8
30884.3
52367.3
53306.4
53856.8
54227.6
54842.3
56107.2
58887.8
63344.2
69364.1
76617.4
81012.9
97930.9
43920.9
44593.1
45010.7
45419.1
46274.2
48210.7
51903.1
58180.9
68175.1
83139.6
104519
149925
39912.9
40586.6
41096.6
41657.9
42652
44665.1
48492.1
55177.9
66425
85348.5
119614
189711
37973.3
38578.2
39101.6
39734.5
40824.6
42888.5
46705.7
53420.6
65065.9
85985
128526
222182
37137
37791.8
38424.9
39195.7
40398.5
42508.4
46290.2
52966.2
64748.5
86429.2
134220
252510
37543.4
38294.3
39082.2
40020.3
41333.1
43442.5
47078.6
53494.5
65064
86901.4
137607
281433
39678
40493.7
41386.9
42421.6
43770.9
45800.4
49194.6
55221.6
66398.3
88146.5
140515
316449
44695.1
45243.2
45923.3
46787
47958.5
49721.3
52690.6
58123.2
68663.4
90088.1
143909
357811
53455.6
53155.9
53167.9
53452.8
54099
55293.6
57585.4
62150.8
71696.2
92402.8
147195
402437
65723.6
63941.8
62677.7
61889.6
61708.7
62219.9
63590.5
66980.9
75079.2
94439.5
151009
457803
78991.1
75559
72873.2
70857.4
69489.8
69024.7
69646
71746.7
77684.5
95247.7
154409
537626
3826.21
3202.13
3558.1
3509.06
3128.14
2785.25
3665.63
16220.2
48589.9
66695.6
75787
83598.2
10547.1
8759.04
6802.61
6599.29
9398.83
22880.6
33659.7
36277.8
49086.4
54582.1
57132.5
58996.4
15837
12061.9
14251.1
20396.1
26538.3
28524.6
32710.5
37582.8
43366.3
45405.9
47685.3
49295
21828.6
17643.2
19971.6
21733.9
25011.7
27699
32580.1
37002.6
40080.5
41823.4
43549.3
44845.7
24073
20394
21818.1
21908.4
24753.6
28236.7
32922.9
36553.2
38821.3
40308
41656.4
42715.9
24648.9
20649.4
21793
22190.4
25356.1
29445.2
33631.1
36583.5
38346.1
39596.6
40729.4
41724.4
23260
18973.1
20768.5
22640.1
26635.4
30903.1
34650.4
37174
38785.2
39979.6
41058.4
42067.3
22368
17312.4
20584.1
24341
29567.4
34030.1
37413.5
39633
41109.9
42239.9
43270
44288.9
22504.8
17732.9
23481.1
30387.7
37314.8
42072.7
45070.8
46801.5
47840.8
48579.3
49230.8
49914.5
24730.3
22470.7
36407.1
48300.6
56874
61281.2
62915.6
62982.3
62390.4
61617.7
60894.6
60361.3
29802.9
43370.3
73144.7
90530.5
97627.4
97761.8
94591.2
90240
85805.3
81773.6
78326.7
75498.4
133311
136374
151770
155874
151920
142140
131529
121433
112374
104519
97875.4
92332.7
87792.8
90441.4
90672.3
90559.6
88273.3
83457.2
76278.7
66676.8
54746.7
41742.3
27014
34591
60183.8
61074.5
61412.6
61543.8
61783.3
62956.3
65742.8
70496.3
76838.6
84494.7
89431.6
108545
50290.7
50870.6
51139.8
51426.6
52175.1
54105.6
57925.8
64529.7
75198.2
91312.6
115045
165184
45741.2
46372.8
46829.3
47324
48279.3
50317.8
54265.1
61261.9
73174.6
93477
130804
209154
43525.3
44172.3
44711.9
45353.6
46467.1
48600
52573.1
59610.5
71888.3
94102.4
139931
244568
42591.7
43358.2
44072.3
44908.5
46172.8
48372.5
52318.5
59312.4
71717.8
94680.8
145859
277807
43026.2
43954.1
44891.5
45954.1
47378.8
49618.3
53450.1
60208.7
72413.1
95532.1
149467
309338
45324
46382.9
47482.4
48681.5
50173.2
52351.9
55951
62326.1
74153.2
97247.7
152993
347974
50670.2
51505.5
52420.2
53462.3
54772.7
56670.8
59822
65572.5
76740.4
99516.4
156812
391838
60058.1
60011.9
60179
60580.9
61301.1
62579
64988.8
69785.3
79848.4
101642
160163
438211
73247
71532.9
70293.6
69494.3
69254.3
69700.4
71051.3
74494
82796.2
103130
163367
493288
87754.1
84051.6
81111.3
78844.6
77220.7
76398.4
76722
78491.9
84325.4
102353
164494
567179
3173.4
2688.64
3060.92
3013.83
2771.68
2365.16
2758.67
8681.1
36618.2
55075.8
63819.9
70769.4
8737.22
7417.77
5752.06
5272.35
7037.62
16266.3
28528
30651
41018.1
46770.1
49121.3
51105.2
12990.5
9810.88
10878.5
15694.7
23086.7
25234.3
27787.4
31605.9
36978.9
39107.1
41173.4
42856.8
17918.9
14344.9
16487.1
18630.8
21919.1
23558.3
27248.8
31365.8
34516.7
36174
37762.2
39032.2
19989
16774.9
18356.3
18619.4
20934.5
23829.4
27787.3
31414.6
33684.1
35060.3
36268
37245.2
20705.5
17338.6
18381
18743.9
21443.6
24967.3
28910.9
31783.5
33580
34664.4
35597.8
36421.4
20027.3
16080.5
17581.4
19202.2
22838
26778
30272.5
32711.7
34175.6
35162.7
36006.2
36791.3
19787
15117.7
17743.7
21144.8
26065.3
30235.9
33373.3
35404.4
36619.7
37457.6
38186.3
38914.1
20331.5
15852.3
20963.8
27478.2
34078.1
38507.9
41173.4
42575.8
43255.2
43581.9
43881.6
44240.6
23025.4
20746.6
33749.5
45160.8
53407.7
57459.2
58639
58258.7
57217.1
56000.9
54893.1
54032.2
27809.3
40446.1
68985.4
85831.8
92532
92276.5
88629.4
83858.4
79064.4
74736.5
71061.5
68072.1
122492
128721
144365
148115
143730
133382
122351
112009
102876
95087.4
88598.3
83288
74888.8
77391.8
77964.8
77933
76773.5
72740.2
67113.1
58931.4
48929.2
37455.5
24367.8
30884.4
52367.4
53306.5
53856.9
54227.7
54842.4
56107.3
58887.9
63344.4
69364.2
76617.5
81013.1
97931.1
43921
44593.2
45010.8
45419.2
46274.3
48210.8
51903.2
58181
68175.3
83139.7
104519
149925
39913
40586.7
41096.7
41658
42652.1
44665.2
48492.2
55178
66425.2
85348.7
119614
189711
37973.4
38578.3
39101.7
39734.6
40824.6
42888.6
46705.8
53420.7
65066
85985.2
128527
222183
37137.1
37791.8
38425
39195.8
40398.6
42508.5
46290.3
52966.3
64748.6
86429.4
134221
252510
37543.5
38294.4
39082.3
40020.4
41333.2
43442.6
47078.7
53494.6
65064.1
86901.6
137607
281433
39678.1
40493.7
41387
42421.6
43771
45800.5
49194.7
55221.7
66398.4
88146.6
140516
316449
44695.2
45243.2
45923.4
46787
47958.5
49721.3
52690.6
58123.3
68663.5
90088.3
143909
357811
53455.6
53155.9
53167.9
53452.9
54099
55293.6
57585.5
62150.8
71696.3
92403
147196
402437
65723.6
63941.8
62677.7
61889.6
61708.8
62219.9
63590.5
66981
75079.3
94439.7
151009
457804
78991.1
75559
72873.2
70857.4
69489.8
69024.7
69646
71746.8
77684.6
95247.8
154409
537627
215792
207841
195438
184101
172961
161375
150041
139228
129086
119914
111842
104817
139848
144568
146443
146656
145521
142967
139259
133842
127077
120290
113795
107539
99936.7
103998
107359
110224
112507
114058
114081
112952
110812
107976
104352
99794.6
79061.1
81906.8
84322.2
86454.6
88342.9
89926.6
90924
90814.9
89959.8
88389.4
86199.5
83594.5
98768.3
93636.9
89332.6
85770.8
82855.5
80640.5
79455.9
79940.5
82811.5
93239.7
125325
243976
101711
96436
91748
87610
83957
80882.7
78431.4
77282.1
77776.2
81588.5
94032.9
127943
95277.6
90849.9
86561
82376.2
78380.7
74744
71658.8
69401.2
68618.7
69354.1
73854.3
85444.6
80478.7
76914.6
73041.4
68914.5
65059.4
61699.8
59097.9
57312.1
56835.3
57182.9
59776.6
64759.9
219416
203416
186831
172991
160374
148037
136380
125605
115864
107326
100002
93821.9
135918
136200
134513
132201
129332
126047
121918
116637
110740
105064
99805.7
95059.6
90496.3
92779.3
93999.1
94875.5
95582.6
96062.9
95903.6
95155
93756.5
92013.7
89963.7
87598.5
67778.7
69674.3
71040.2
72163.2
73231.5
74332.9
75262.6
75968
76067.5
75733.4
75001.3
73819.8
88637.1
84298.4
80678.2
77740.2
75450.6
73901.5
73567.1
74549.8
78113.8
89240.8
121575
233474
90716.1
86751.2
83171.4
80038.7
77383
75347.4
74135.6
74332.7
75998.4
81322.6
95768.2
130820
84829.8
81936.7
79030
76232.1
73645
71480
69858.9
69375.4
70176.8
72694.6
79933.4
93975
72102.2
70043.1
67669.3
65155.7
62733
60663
59245.2
58848.3
60134.1
62267.6
67424.6
74931.9
215791
207841
195438
184101
172961
161375
150042
139229
129086
119914
111842
104817
139848
144567
146442
146655
145521
142967
139259
133842
127077
120290
113795
107540
99936.5
103998
107359
110223
112507
114058
114081
112952
110812
107976
104352
99794.7
79061
81906.8
84322.2
86454.5
88342.7
89926.5
90923.9
90814.9
89959.7
88389.4
86199.5
83594.5
98768.3
93637
89332.6
85770.7
82855.5
80640.4
79455.8
79940.4
82811.4
93239.6
125325
243976
101711
96436.1
91748.1
87610.1
83957
80882.7
78431.4
77282.1
77776.2
81588.5
94032.8
127942
95277.6
90849.9
86561.1
82376.3
78380.8
74744
71658.8
69401.2
68618.7
69354
73854.2
85444.5
80478.8
76914.6
73041.5
68914.6
65059.5
61699.8
59097.9
57312.1
56835.3
57182.9
59776.6
64759.9
219415
203415
186830
172990
160374
148037
136380
125605
115864
107326
100002
93821.8
135918
136200
134513
132201
129332
126047
121918
116637
110740
105064
99805.7
95059.6
90496.2
92779.1
93998.9
94875.4
95582.4
96062.8
95903.4
95154.9
93756.5
92013.7
89963.6
87598.5
67778.6
69674.2
71040.1
72163.1
73231.4
74332.8
75262.5
75967.9
76067.5
75733.4
75001.2
73819.8
88637
84298.4
80678.2
77740.3
75450.7
73901.6
73567.2
74549.9
78113.9
89240.9
121575
233475
90716.1
86751.2
83171.4
80038.7
77383
75347.4
74135.7
74332.7
75998.5
81322.7
95768.4
130820
84829.8
81936.7
79030
76232.1
73645
71480
69859
69375.5
70176.8
72694.6
79933.5
93975.1
72102.2
70043.1
67669.4
65155.8
62733.1
60663
59245.3
58848.4
60134.2
62267.6
67424.7
74932.1
65083.6
66297.1
67368.4
68258.6
68960.9
69352.3
69236.4
68354.6
66852.6
64818.5
62383.3
59640.9
49788.2
50187.2
50493
50685.3
50738
50521.1
49890.5
48745.9
47154.4
45266.9
43317.7
41395.6
37084.3
37153.1
37100.1
36951.1
36677.1
36181
35368
34197.5
32741.2
31235.7
30156.6
29853
27413.5
27369.1
27169.7
26875.8
26467
25875.4
25039.7
23945.9
22674.8
21537
21463.3
24498.4
56588.4
53394.4
50463.4
48119.7
46507.9
45666.8
45619.8
46287.7
47756.8
49719.3
52644.1
54840.4
39119.3
36732.9
35229.8
34641.7
34776.3
35537.6
36835.1
38547.9
40631
42786.2
44571.7
45491
28614.3
26088.5
25419.1
25833.6
26895.1
28396.6
30213.5
32211.3
34174.1
35719.6
36714.2
36796.4
24686.9
19427.4
18908.8
19746.3
21153.9
22864
24737.8
26605.2
28129.4
29151
29576.9
29080.7
55798.2
56413.1
56931.7
57385.7
57848.7
58263.6
58471.6
58354.1
57749
56859.9
55744.3
54164
45161.2
44723.2
44328.9
43918
43505.4
43006.2
42303.5
41337.1
40117.3
38887.1
37822.9
36671.7
35735.9
34644
33608.3
32584.6
31568.1
30495.8
29297.5
27966.4
26585.2
25396.6
24780.9
24687.6
27717.7
26315.6
24963
23651.2
22375.8
21097.5
19775.9
18416.7
17098.1
16048.3
15971.8
18211.6
51769.1
48919.7
46412.8
44426
43152.7
42850.1
43767.3
46028.3
49774.7
54158.8
59623.4
63464.9
34569.6
31642.3
29488.3
28177
27764.1
28412.1
30262.4
33353.3
37568.3
42242.2
46520.5
49017
23425.5
20216.6
18454.7
17690.4
17776.6
18780.2
20783.2
23784.7
27592.1
31633.8
34822.3
36605.1
18286.5
13155.2
11638.8
11244
11555.4
12586.3
14391.7
16958.3
20097.9
23320
25713.7
27048.8
65083.6
66297
67368.3
68258.5
68960.8
69352.2
69236.3
68354.5
66852.6
64818.5
62383.4
59641
49788.1
50187.1
50492.9
50685.2
50737.9
50521.1
49890.5
48745.8
47154.4
45266.9
43317.7
41395.7
37084.1
37152.9
37100
36951
36677
36180.9
35368
34197.5
32741.1
31235.7
30156.6
29853
27413.4
27369
27169.6
26875.7
26466.9
25875.3
25039.6
23945.9
22674.7
21537
21463.3
24498.4
56588.5
53394.4
50463.4
48119.7
46507.9
45666.8
45619.8
46287.7
47756.8
49719.3
52644.1
54840.3
39119.4
36732.9
35229.9
34641.7
34776.3
35537.6
36835.1
38547.9
40631
42786.1
44571.6
45490.9
28614.3
26088.5
25419.1
25833.6
26895
28396.6
30213.5
32211.2
34174.1
35719.6
36714.2
36796.3
24686.9
19427.4
18908.8
19746.3
21153.8
22864
24737.8
26605.1
28129.4
29150.9
29576.8
29080.7
55798.1
56413
56931.7
57385.7
57848.7
58263.5
58471.6
58354
57749
56860
55744.3
54164
45161.1
44723.1
44328.8
43918
43505.4
43006.2
42303.5
41337.1
40117.4
38887.1
37823
36671.8
35735.9
34643.9
33608.3
32584.7
31568.2
30495.8
29297.5
27966.5
26585.2
25396.7
24781
24687.7
27717.7
26315.6
24963
23651.2
22375.9
21097.6
19776
18416.8
17098.1
16048.4
15972
18211.8
51769.2
48919.8
46412.9
44426.1
43152.8
42850.2
43767.4
46028.4
49774.8
54158.9
59623.5
63465
34569.7
31642.4
29488.5
28177.1
27764.2
28412.3
30262.5
33353.4
37568.4
42242.4
46520.7
49017.1
23425.6
20216.8
18454.9
17690.6
17776.8
18780.4
20783.4
23784.8
27592.2
31633.9
34822.4
36605.3
18286.8
13155.4
11639.1
11244.2
11555.6
12586.5
14391.9
16958.5
20098.1
23320.1
25713.8
27048.9
20277.6
20207.5
19968.2
19632.2
19190.3
18596.8
17811.3
16827.7
15706.7
14749.6
15279.2
31550.3
15061.1
14997.6
14766.2
14438.4
14013.9
13462.8
12757.2
11891.2
10894.9
9874.88
9073.72
9212.92
11249.3
11200.5
10995.4
10697.7
10313.2
9822.49
9205.99
8456.33
7580.47
6590.58
5456.9
4398.28
8455.39
8420.27
8245.55
7985.49
7648.5
7222.61
6694.12
6056
5306.06
4434.23
3413.59
2736.14
6400.29
6374.91
6228.7
6006.19
5716.67
5353.12
4906.38
4371.33
3745.5
3023.98
2220.31
1836.7
4885.49
4865.93
4744
4555.57
4309.62
4002.5
3628.49
3185.05
2672.69
2096.19
1491.75
1257.83
3771.21
3754.39
3651.98
3492.6
3284.49
3026.15
2714.48
2349.2
1933.98
1480.02
1028.44
863.098
2961.05
2944.75
2857.12
2721.12
2544.07
2325.91
2065.35
1763.67
1426.61
1067.79
724.029
584.042
2394.13
2376.68
2299.03
2180
2026.16
1838.45
1616.72
1363.04
1084.06
793.07
519.944
379.952
2052.16
2031.6
1957.98
1847.37
1706.11
1536.09
1337.8
1113.35
870.314
619.574
384.633
225.622
2041.23
2011.96
1929.74
1808.95
1657.33
1478.68
1273.75
1043.45
798.719
547.958
312.318
109.282
3687.88
3620.22
3439.69
3196.47
2897.2
2553.88
2173.07
1746.07
1289.32
835.104
422.805
45.56
35197.5
15021.7
14321.1
15310.9
16761.6
18408
20118
21648.6
22748
23380.3
23407.4
22606.7
14818.2
10598.9
10874.3
11958.7
13317.6
14780.1
16223.5
17395.5
18171.7
18510.2
18277.4
17389.9
8994.01
7586.75
8306.06
9379.05
10588.1
11831.3
12985.1
13855.2
14384.2
14515.8
14153
13304.9
6248.64
5561.36
6385.18
7375.79
8417.06
9442.01
10338.5
10974.2
11317.6
11315.6
10917.1
10171.3
4536
4152.57
4936.62
5812.62
6690.86
7519.31
8206.76
8669.62
8878.93
8800.11
8423.2
7804.09
3332.48
3136.08
3834.06
4590.73
5323.54
5987.47
6515.34
6851.19
6968.53
6856.29
6531.43
6036.17
2432.61
2380.79
2989.52
3638.56
4250.17
4785.21
5194.49
5439.02
5498.98
5382.35
5117.28
4728.4
1737.19
1808.76
2343.91
2906.55
3424.21
3863.71
4188.51
4371.42
4398.68
4292.32
4081.83
3776.97
1200.9
1371.42
1862.61
2366.52
2819.82
3195
3464.43
3608.43
3618.72
3526.98
3358.35
3113.07
771.085
1045.68
1538.05
2023.51
2449.39
2793.91
3035.52
3157.42
3158.62
3078.42
2930.18
2721.26
426.151
855.793
1450.2
2007.31
2479.31
2851.56
3105.86
3218.78
3209.78
3113.33
2953.9
2743.68
230.679
1209.85
2512.85
3664.01
4620.12
5354.88
5821.53
6017.85
5933.99
5686.23
5331.1
4904.58
21195
19732.3
18317.8
16967.9
15682.4
14435.6
13200.5
11973.4
10790.3
9788.89
9747.45
18602.3
16075.1
14709.3
13392.2
12152.2
10991.6
9892.04
8830.32
7790.25
6766.17
5757.76
4759.93
3685.53
12159.2
10970.4
9828.41
8764.01
7780.56
6863.8
5992.64
5144.76
4296.82
3407.53
2401.17
1382.44
9217.51
8229.92
7284.08
6407.98
5605.13
4864.43
4167.73
3492.95
2816.23
2102.32
1346.65
819.281
7033.88
6237.62
5476.31
4772.65
4130.19
3540.78
2990.06
2459.42
1930.87
1381.95
855.941
598.063
5425.02
4794.46
4190.89
3631.99
3121.5
2654.07
2219.24
1802.55
1392.35
974.5
607.649
460.875
4247.95
3752.2
3275.16
2830.94
2423.76
2050.69
1704.71
1374.98
1054.74
732.755
466.116
367.384
3398.55
3006.75
2625.89
2268.18
1938.48
1635.81
1355.88
1090.49
836.333
581.85
376.806
286.287
2810.13
2492.99
2180.12
1883.28
1608.12
1355.05
1121.72
901.581
693.78
485.052
317.272
213.694
2468.5
2196.51
1922.91
1660.75
1416.83
1192.44
986.433
793.006
612.756
431.365
281.837
145.073
2491.98
2218.81
1940.12
1671.87
1422.86
1194.52
986.085
791.342
611.881
430.498
279.43
82.635
4418.89
3909.71
3398.52
2914.77
2470.45
2062.37
1689.78
1339.09
1019
676.27
421.606
100.652
23326.9
8748.88
7436.62
7298.51
7681.12
8599.04
10097.7
12164.2
14640.1
17128.7
18945.4
19972.4
7701.43
5181.28
4791.81
4848.4
5233.58
5999.18
7192.58
8805.76
10713.6
12612.7
13999.7
14799.4
3654.47
3136.21
3151.03
3305.64
3657.27
4275.57
5206.24
6445.7
7898.7
9341.27
10402.1
11026.4
2078.1
1980.92
2128.22
2314.39
2620.15
3112.58
3832.14
4777.88
5878.72
6972.54
7783.28
8269.17
1285.79
1302.52
1477.58
1662.48
1922.61
2314.11
2870.48
3591.67
4424.86
5253.91
5872.19
6248.12
839.253
885.045
1052.33
1223.1
1443.29
1756.85
2190.26
2743.06
3375.49
4004.43
4475.06
4763.91
559.178
616.036
766.651
920.147
1107.59
1362.48
1705.2
2134.07
2617.94
3096.8
3455.36
3676.08
371.198
436.3
570.693
707.956
869.485
1081.14
1358.73
1698.95
2075.35
2443.54
2719.12
2887.81
239.032
313.834
436.03
559.883
701.519
882.301
1115.59
1396.49
1699.32
1989
2206.81
2338.09
142.036
232.175
349.227
465.414
594.109
756.217
966.378
1218.16
1478.49
1714.76
1898.32
2008.49
69.5111
189.312
316.948
436.452
561.669
719.659
932.677
1198.2
1466.76
1698.42
1883.58
2001.05
28.9342
273.801
514.428
700.927
873.709
1107.46
1464.83
1969.29
2501.16
2972.27
3357.42
3605.78
20277.5
20207.3
19968.1
19632.1
19190.2
18596.8
17811.2
16827.7
15706.7
14749.6
15279.2
31550.2
15061
14997.4
14766.1
14438.2
14013.8
13462.7
12757.2
11891.1
10894.8
9874.86
9073.69
9212.83
11249.1
11200.4
10995.2
10697.6
10313.1
9822.42
9205.93
8456.28
7580.43
6590.54
5456.86
4398.18
8455.24
8420.12
8245.42
7985.37
7648.4
7222.52
6694.05
6055.95
5306.01
4434.18
3413.52
2736.03
6400.14
6374.77
6228.56
6006.07
5716.56
5353.03
4906.3
4371.26
3745.43
3023.92
2220.23
1836.58
4885.33
4865.78
4743.86
4555.44
4309.51
4002.4
3628.4
3184.97
2672.6
2096.1
1491.66
1257.71
3771.05
3754.24
3651.83
3492.47
3284.37
3026.04
2714.38
2349.11
1933.88
1479.93
1028.34
862.975
2960.89
2944.6
2856.98
2720.99
2543.95
2325.8
2065.25
1763.56
1426.51
1067.68
723.923
583.925
2393.97
2376.52
2298.89
2179.86
2026.04
1838.33
1616.61
1362.93
1083.95
792.959
519.838
379.847
2052
2031.44
1957.83
1847.23
1705.98
1535.97
1337.68
1113.24
870.199
619.461
384.528
225.534
2041.05
2011.8
1929.58
1808.8
1657.2
1478.55
1273.63
1043.33
798.601
547.844
312.22
109.216
3687.6
3619.96
3439.45
3196.25
2897
2553.69
2172.9
1745.9
1289.16
834.97
422.705
45.5072
35197.4
15021.7
14321.1
15310.9
16761.6
18407.9
20117.9
21648.5
22747.9
23380.3
23407.4
22606.7
14818.2
10598.9
10874.3
11958.7
13317.5
14780.1
16223.5
17395.5
18171.7
18510.2
18277.3
17389.9
8993.95
7586.72
8306.03
9379.01
10588.1
11831.3
12985.1
13855.2
14384.2
14515.8
14153
13304.9
6248.58
5561.32
6385.15
7375.76
8417.02
9441.97
10338.5
10974.1
11317.5
11315.5
10917.1
10171.3
4535.94
4152.53
4936.58
5812.58
6690.82
7519.27
8206.72
8669.57
8878.89
8800.08
8423.18
7804.07
3332.43
3136.04
3834.02
4590.69
5323.5
5987.42
6515.29
6851.14
6968.49
6856.25
6531.4
6036.15
2432.56
2380.75
2989.48
3638.51
4250.12
4785.16
5194.44
5438.97
5498.94
5382.31
5117.25
4728.38
1737.14
1808.72
2343.86
2906.5
3424.15
3863.66
4188.46
4371.36
4398.63
4292.27
4081.8
3776.94
1200.87
1371.38
1862.56
2366.47
2819.77
3194.95
3464.37
3608.38
3618.67
3526.93
3358.31
3113.04
771.056
1045.64
1538
2023.46
2449.33
2793.85
3035.45
3157.36
3158.57
3078.37
2930.14
2721.23
426.132
855.758
1450.15
2007.25
2479.25
2851.49
3105.79
3218.72
3209.73
3113.28
2953.86
2743.65
230.666
1209.81
2512.79
3663.93
4620.03
5354.78
5821.43
6017.76
5933.9
5686.16
5331.04
4904.53
21195
19732.3
18317.8
16968
15682.5
14435.7
13200.6
11973.5
10790.4
9789.03
9747.62
18602.6
16075.1
14709.4
13392.3
12152.3
10991.7
9892.13
8830.43
7790.37
6766.31
5757.92
4760.13
3685.91
12159.2
10970.5
9828.45
8764.07
7780.64
6863.9
5992.76
5144.9
4296.98
3407.71
2401.39
1382.79
9217.51
8229.94
7284.12
6408.03
5605.21
4864.52
4167.85
3493.1
2816.39
2102.51
1346.87
819.598
7033.88
6237.63
5476.34
4772.7
4130.27
3540.87
2990.18
2459.56
1931.03
1382.14
856.159
598.342
5425.02
4794.47
4190.92
3632.04
3121.57
2654.16
2219.35
1802.69
1392.52
974.69
607.856
461.123
4247.94
3752.21
3275.18
2830.99
2423.82
2050.77
1704.82
1375.11
1054.9
732.937
466.311
367.6
3398.53
3006.75
2625.91
2268.22
1938.54
1635.89
1355.98
1090.62
836.484
582.024
376.989
286.473
2810.11
2492.99
2180.14
1883.31
1608.17
1355.12
1121.81
901.701
693.925
485.217
317.444
213.847
2468.49
2196.51
1922.92
1660.78
1416.87
1192.51
986.523
793.121
612.895
431.524
281.997
145.19
2491.96
2218.81
1940.14
1671.9
1422.91
1194.59
986.176
791.458
612.019
430.656
279.581
82.711
4418.86
3909.71
3398.54
2914.81
2470.52
2062.47
1689.9
1339.25
1019.18
676.472
421.763
100.733
23327.5
8749.18
7436.91
7298.81
7681.4
8599.29
10097.9
12164.4
14640.2
17128.8
18945.5
19972.6
7701.9
5181.6
4792.12
4848.71
5233.87
5999.45
7192.8
8805.95
10713.7
12612.9
13999.9
14799.6
3654.91
3136.54
3151.35
3305.96
3657.57
4275.84
5206.47
6445.89
7898.87
9341.43
10402.3
11026.6
2078.52
1981.25
2128.56
2314.73
2620.46
3112.86
3832.38
4778.09
5878.9
6972.7
7783.44
8269.33
1286.19
1302.84
1477.92
1662.82
1922.92
2314.39
2870.72
3591.87
4425.05
5254.08
5872.35
6248.28
839.625
885.367
1052.67
1223.43
1443.6
1757.13
2190.5
2743.27
3375.68
4004.6
4475.22
4764.07
559.523
616.352
766.983
920.479
1107.9
1362.76
1705.44
2134.28
2618.13
3096.97
3455.53
3676.24
371.509
436.605
571.019
708.283
869.791
1081.41
1358.96
1699.16
2075.53
2443.71
2719.29
2887.98
239.301
314.125
436.348
560.204
701.82
882.567
1115.82
1396.69
1699.5
1989.17
2206.98
2338.25
142.251
232.447
349.537
465.73
594.404
756.478
966.604
1218.36
1478.67
1714.93
1898.48
2008.65
69.6601
189.568
317.256
436.769
561.965
719.921
932.906
1198.41
1466.95
1698.6
1883.76
2001.23
29.0362
274.093
514.818
701.33
874.086
1107.8
1465.15
1969.57
2501.43
2972.54
3357.7
3606.05
)
;

boundaryField
{
    rotor
    {
        type            epsilonWallFunction;
        blending        stepwise;
        value           nonuniform List<scalar> 
192
(
3826.35
3202.24
3558.2
3509.15
3128.23
2785.34
3665.79
16221.1
48590.8
66696.3
75787.8
83599
87793.6
90442.2
90673
90560.3
88273.9
83457.7
76279.2
66677.1
54747
41742.5
27014.1
34591.1
3173.39
2688.64
3060.92
3013.83
2771.67
2365.15
2758.67
8681.1
36618.2
55075.7
63819.8
70769.3
74888.7
77391.6
77964.6
77932.8
76773.3
72740.1
67113
58931.3
48929.1
37455.4
24367.8
30884.3
3826.21
3202.13
3558.1
3509.06
3128.14
2785.25
3665.63
16220.2
48589.9
66695.6
75787
83598.2
87792.8
90441.4
90672.3
90559.6
88273.3
83457.2
76278.7
66676.8
54746.7
41742.3
27014
34591
3173.4
2688.64
3060.92
3013.83
2771.68
2365.16
2758.67
8681.1
36618.2
55075.8
63819.9
70769.4
74888.8
77391.8
77964.8
77933
76773.5
72740.2
67113.1
58931.4
48929.2
37455.5
24367.8
30884.4
3826.35
10547.4
15837.4
21829.2
24073.7
24649.7
23260.8
22368.6
22505.3
24730.6
29803
133311
30884.4
97931.1
149925
189711
222183
252510
281433
316449
357811
402437
457804
537627
3173.39
8737.22
12990.5
17918.9
19989
20705.5
20027.3
19787
20331.4
23025.4
27809.3
122493
34591.1
108545
165185
209155
244569
277808
309340
347975
391839
438213
493290
567181
3826.21
10547.1
15837
21828.6
24073
24648.9
23260
22368
22504.8
24730.3
29802.9
133311
30884.3
97930.9
149925
189711
222182
252510
281433
316449
357811
402437
457803
537626
3173.4
8737.22
12990.5
17918.9
19989
20705.5
20027.3
19787
20331.5
23025.4
27809.3
122492
34591
108545
165184
209154
244568
277807
309338
347974
391838
438211
493288
567179
)
;
    }
    stator
    {
        type            epsilonWallFunction;
        blending        stepwise;
        value           nonuniform List<scalar> 
192
(
3687.88
3620.22
3439.69
3196.47
2897.2
2553.88
2173.07
1746.07
1289.32
835.104
422.805
45.56
230.679
1209.85
2512.85
3664.01
4620.12
5354.88
5821.53
6017.85
5933.99
5686.23
5331.1
4904.58
4418.89
3909.71
3398.52
2914.77
2470.45
2062.37
1689.78
1339.09
1019
676.27
421.606
100.652
28.9342
273.801
514.428
700.927
873.709
1107.46
1464.83
1969.29
2501.16
2972.27
3357.42
3605.78
3687.6
3619.96
3439.45
3196.25
2897
2553.69
2172.9
1745.9
1289.16
834.97
422.705
45.5072
230.666
1209.81
2512.79
3663.93
4620.03
5354.78
5821.43
6017.76
5933.9
5686.16
5331.04
4904.53
4418.86
3909.71
3398.54
2914.81
2470.52
2062.47
1689.9
1339.25
1019.18
676.472
421.763
100.733
29.0362
274.093
514.818
701.33
874.086
1107.8
1465.15
1969.57
2501.43
2972.54
3357.7
3606.05
35197.5
14818.2
8994.01
6248.64
4536
3332.48
2432.61
1737.19
1200.9
771.085
426.151
230.679
31550.3
9212.92
4398.28
2736.14
1836.7
1257.83
863.098
584.042
379.952
225.622
109.282
45.56
23326.9
7701.43
3654.47
2078.1
1285.79
839.253
559.178
371.198
239.032
142.036
69.5111
28.9342
18602.3
3685.53
1382.44
819.281
598.063
460.875
367.384
286.287
213.694
145.073
82.635
100.652
35197.4
14818.2
8993.95
6248.58
4535.94
3332.43
2432.56
1737.14
1200.87
771.056
426.132
230.666
31550.2
9212.83
4398.18
2736.03
1836.58
1257.71
862.975
583.925
379.847
225.534
109.216
45.5072
23327.5
7701.9
3654.91
2078.52
1286.19
839.625
559.523
371.509
239.301
142.251
69.6601
29.0362
18602.6
3685.91
1382.79
819.598
598.342
461.123
367.6
286.473
213.847
145.19
82.711
100.733
)
;
    }
    front
    {
        type            empty;
    }
    back
    {
        type            empty;
    }
}


// ************************************************************************* //
