/*--------------------------------*- C++ -*----------------------------------*\
| =========                 |                                                 |
| \\      /  F ield         | OpenFOAM: The Open Source CFD Toolbox           |
|  \\    /   O peration     | Version:  2212                                  |
|   \\  /    A nd           | Website:  www.openfoam.com                      |
|    \\/     M anipulation  |                                                 |
\*---------------------------------------------------------------------------*/
FoamFile
{
    version     2.0;
    format      ascii;
    arch        "LSB;label=32;scalar=64";
    class       volScalarField;
    location    "0.05";
    object      k;
}
// * * * * * * * * * * * * * * * * * * * * * * * * * * * * * * * * * * * * * //

dimensions      [0 2 -2 0 0 0 0];

internalField   nonuniform List<scalar> 
3072
(
3.53354
4.69653
5.03843
4.99202
4.62389
4.2795
5.13949
13.8525
28.7858
35.553
38.7146
41.331
7.48033
10.9408
11.2592
10.7874
10.2866
14.7667
24.2267
28.0775
40.5694
50.6103
61.4148
71.1899
10.4843
17.3388
20.7482
23.022
24.8257
26.8256
35.65
46.4092
60.1753
71.8945
82.5356
91.3176
13.7958
25.1066
26.2685
25.8575
29.0007
36.8559
49.6533
62.5511
74.9317
85.4284
94.5441
102.022
15.5667
29.7826
31.128
30.9466
37.2711
48.6141
61.8025
74.1859
85.0923
94.3143
102.286
108.91
16.6458
33.2373
36.3087
37.8487
46.4988
58.597
71.1663
82.392
91.9575
100.165
107.341
113.492
16.7951
33.9132
39.2115
44.3851
55.0475
67.2874
78.9557
89.128
97.7652
105.226
111.813
117.611
17.1063
35.289
43.5165
53.0349
65.6782
77.787
88.5191
97.5956
105.239
111.84
117.711
122.983
17.9064
38.7692
53.2457
68.3376
83.0277
94.7418
104.004
111.342
117.332
122.46
127.061
131.294
19.8305
47.6423
74.138
95.0904
110.864
121.205
127.974
132.549
135.913
138.672
141.192
143.646
23.3041
65.3717
109.991
135.895
149.973
156.902
159.739
160.442
160.282
159.878
159.583
159.592
65.5247
115.403
163.509
184.46
191.91
193.39
191.708
188.596
185.078
181.64
178.574
176.008
42.7022
43.5568
43.6309
43.5947
42.8578
41.2844
38.8817
35.5462
31.1684
26.0132
19.4626
15.3343
79.597
86.0331
89.6176
90.4852
89.4836
87.5182
84.7012
80.6736
73.9984
60.5691
43.0406
35.3914
98.0393
102.583
104.845
105.372
104.958
103.991
102.681
100.691
96.9201
88.2527
66.1496
50.0493
107.796
111.959
114.558
115.917
116.492
116.75
117.038
117.157
116.127
111.09
92.5178
62.2348
114.21
118.282
121.184
123.17
124.646
126.102
127.969
130.242
131.75
130.09
115.964
73.019
118.642
122.837
126.148
128.807
131.201
133.842
137.209
141.451
145.88
147.489
138.612
83.6742
122.652
126.968
130.633
133.854
136.999
140.598
145.236
151.264
158.205
163.101
159.12
94.2737
127.707
131.914
135.672
139.157
142.709
146.878
152.383
159.873
169.235
177.333
176.664
106.601
135.212
138.84
142.225
145.498
148.959
153.152
158.918
167.295
178.818
190.427
192.177
120.288
146.067
148.463
150.857
153.317
156.098
159.689
164.965
173.345
186.308
201.89
208.396
134.783
159.861
160.403
161.213
162.267
163.83
166.263
170.33
177.477
190.052
209.332
225.844
151.354
173.945
172.408
171.383
170.897
171.077
171.963
174.154
179.177
189.806
211.216
241.884
172.045
3.11915
4.17987
4.55732
4.51046
4.2655
3.8375
4.25215
9.13114
23.8382
31.2931
34.5233
36.9861
6.59789
9.78387
10.1754
9.7127
9.31755
11.2383
20.8302
24.1167
33.892
43.7637
53.2665
62.3235
9.18691
15.0996
18.0116
20.4346
23.2783
23.8533
29.9148
39.1912
51.3905
62.486
72.3922
80.7472
12.0947
22.2253
23.7276
23.5454
25.7231
30.4886
41.611
53.577
65.1502
75.0511
83.606
90.708
13.7519
26.1797
27.3841
26.8379
31.0427
40.6395
52.9745
64.5922
74.9109
83.5547
90.9804
97.1974
14.819
29.1785
31.4037
32.1162
39.3138
50.4477
62.2461
72.8152
81.7529
89.3185
95.8777
101.509
15.2002
30.0525
34.1447
38.3523
48.054
59.4783
70.3558
79.7934
87.7064
94.4197
100.285
105.442
15.7633
32.0466
38.967
47.6769
59.3976
70.565
80.3581
88.5455
95.3231
101.065
106.107
110.629
16.7339
36.1921
49.3049
63.476
77.1481
87.8034
96.0022
102.316
107.328
111.527
115.231
118.64
18.9081
45.5323
69.9972
89.602
104.321
113.598
119.284
122.818
125.216
127.106
128.762
130.408
22.2528
62.028
104.033
128.505
141.472
147.328
149.101
148.871
147.87
146.762
145.861
145.317
61.9299
108.973
154.705
174.127
180.122
180.357
177.636
173.786
169.77
166.046
162.849
160.277
38.4078
39.2589
39.4524
39.4417
39.0495
37.6696
35.7009
32.737
28.9192
24.2002
18.1699
14.2182
70.3845
76.6154
80.3788
81.61
80.9354
79.407
77.1149
73.728
67.8673
55.8675
39.9709
33.0448
87.2951
91.7889
94.2322
95.0575
94.9432
94.3757
93.5255
92.0932
89.024
81.404
61.2076
46.9175
96.2547
100.337
103.002
104.537
105.365
105.952
106.656
107.286
106.885
102.805
85.9093
58.3153
102.182
106.074
108.924
110.966
112.592
114.28
116.475
119.191
121.191
120.398
107.861
68.4922
106.239
110.146
113.293
115.894
118.324
121.085
124.662
129.228
134.162
136.519
129.22
78.5141
109.952
113.872
117.268
120.331
123.413
127.03
131.763
137.982
145.293
150.906
148.556
88.515
114.721
118.443
121.854
125.111
128.533
132.643
138.147
145.697
155.266
163.99
165.15
100.061
121.868
124.974
127.992
131.023
134.337
138.444
144.157
152.495
164.057
176.103
179.716
113.219
132.181
134.136
136.25
138.54
141.233
144.779
150.021
158.346
171.299
187.076
195.296
127.343
145.264
145.604
146.318
147.382
149.006
151.517
155.664
163.022
175.721
195.335
213.017
144.005
158.357
157.035
156.258
156.159
156.688
157.905
160.514
165.897
176.853
198.739
231.007
166.015
3.53345
4.69643
5.03834
4.99193
4.62381
4.27941
5.13934
13.852
28.7854
35.5527
38.7143
41.3307
7.48019
10.9407
11.259
10.7873
10.2865
14.7664
24.2263
28.0771
40.5689
50.6098
61.4142
71.1893
10.4842
17.3385
20.748
23.0219
24.8258
26.8252
35.6494
46.4085
60.1745
71.8937
82.5348
91.3168
13.7955
25.1065
26.2685
25.8575
29.0004
36.855
49.6524
62.5502
74.9308
85.4275
94.5432
102.021
15.5664
29.7822
31.1276
30.9461
37.2702
48.613
61.8015
74.1849
85.0913
94.3133
102.285
108.909
16.6454
33.2366
36.308
37.8477
46.4977
58.5959
71.1652
82.391
91.9564
100.164
107.34
113.491
16.7947
33.9124
39.2105
44.3839
55.0462
67.2862
78.9545
89.1269
97.764
105.224
111.812
117.61
17.1059
35.2883
43.5155
53.0338
65.677
77.7858
88.5179
97.5945
105.238
111.839
117.71
122.982
17.9061
38.7687
53.245
68.3369
83.0269
94.7409
104.003
111.341
117.331
122.459
127.06
131.293
19.8304
47.6423
74.1378
95.0901
110.863
121.205
127.973
132.549
135.912
138.672
141.191
143.645
23.304
65.3719
109.992
135.895
149.973
156.902
159.739
160.442
160.282
159.877
159.582
159.591
65.5246
115.403
163.509
184.46
191.91
193.39
191.708
188.596
185.077
181.64
178.574
176.007
42.7019
43.5565
43.6306
43.5945
42.8576
41.2842
38.8816
35.5461
31.1683
26.0131
19.4626
15.3342
79.5964
86.0325
89.6171
90.4846
89.4831
87.5178
84.7008
80.6732
73.9981
60.5689
43.0405
35.3913
98.0385
102.582
104.845
105.371
104.958
103.991
102.68
100.69
96.9197
88.2523
66.1494
50.0492
107.795
111.958
114.557
115.917
116.491
116.749
117.038
117.157
116.127
111.089
92.5175
62.2347
114.209
118.281
121.183
123.169
124.645
126.101
127.968
130.241
131.749
130.089
115.963
73.0188
118.641
122.836
126.147
128.806
131.2
133.841
137.208
141.45
145.879
147.489
138.612
83.674
122.651
126.967
130.632
133.853
136.998
140.597
145.235
151.263
158.205
163.101
159.12
94.2735
127.706
131.913
135.671
139.156
142.708
146.877
152.382
159.872
169.234
177.333
176.663
106.601
135.211
138.839
142.224
145.497
148.958
153.151
158.917
167.294
178.817
190.426
192.177
120.288
146.066
148.462
150.857
153.316
156.097
159.688
164.964
173.344
186.307
201.889
208.395
134.782
159.86
160.402
161.213
162.266
163.829
166.262
170.329
177.477
190.051
209.331
225.843
151.354
173.944
172.408
171.383
170.896
171.077
171.963
174.153
179.176
189.805
211.215
241.883
172.044
3.11915
4.17988
4.55732
4.51046
4.2655
3.8375
4.25215
9.13114
23.8382
31.2931
34.5233
36.9861
6.5979
9.78387
10.1754
9.71269
9.31755
11.2382
20.8303
24.1167
33.892
43.7637
53.2665
62.3236
9.18691
15.0996
18.0116
20.4346
23.2783
23.8533
29.9148
39.1913
51.3905
62.4861
72.3923
80.7473
12.0947
22.2253
23.7276
23.5454
25.7231
30.4886
41.611
53.5771
65.1503
75.0512
83.6061
90.7082
13.7519
26.1797
27.3841
26.8379
31.0427
40.6395
52.9746
64.5923
74.911
83.5549
90.9805
97.1975
14.819
29.1785
31.4037
32.1162
39.3138
50.4477
62.2462
72.8153
81.753
89.3186
95.8778
101.509
15.2002
30.0525
34.1448
38.3523
48.0541
59.4784
70.3558
79.7935
87.7065
94.4198
100.285
105.442
15.7634
32.0467
38.967
47.6769
59.3976
70.5651
80.3582
88.5455
95.3231
101.065
106.107
110.629
16.7339
36.1921
49.305
63.4761
77.1481
87.8035
96.0023
102.316
107.328
111.527
115.231
118.64
18.9082
45.5324
69.9972
89.6021
104.321
113.598
119.284
122.818
125.216
127.106
128.762
130.408
22.2528
62.028
104.033
128.505
141.472
147.328
149.101
148.871
147.87
146.762
145.861
145.318
61.9298
108.973
154.705
174.127
180.122
180.357
177.636
173.786
169.77
166.046
162.849
160.277
38.4078
39.2589
39.4525
39.4417
39.0495
37.6696
35.701
32.7371
28.9193
24.2002
18.1699
14.2183
70.3846
76.6156
80.3789
81.6101
80.9355
79.4072
77.115
73.7281
67.8674
55.8676
39.971
33.0448
87.2952
91.7891
94.2323
95.0576
94.9433
94.3758
93.5256
92.0934
89.0241
81.4041
61.2076
46.9175
96.2548
100.337
103.002
104.538
105.366
105.952
106.656
107.286
106.885
102.805
85.9095
58.3154
102.183
106.074
108.924
110.966
112.592
114.281
116.475
119.191
121.191
120.398
107.862
68.4923
106.239
110.146
113.293
115.894
118.324
121.085
124.663
129.228
134.162
136.519
129.22
78.5142
109.952
113.872
117.269
120.331
123.413
127.03
131.763
137.983
145.293
150.906
148.556
88.5151
114.722
118.443
121.855
125.112
128.533
132.643
138.147
145.697
155.266
163.99
165.15
100.061
121.868
124.974
127.992
131.023
134.337
138.444
144.157
152.496
164.057
176.104
179.716
113.219
132.181
134.136
136.25
138.54
141.233
144.78
150.021
158.346
171.299
187.076
195.297
127.343
145.264
145.605
146.318
147.382
149.006
151.517
155.664
163.022
175.722
195.335
213.017
144.005
158.357
157.035
156.258
156.159
156.689
157.906
160.514
165.897
176.853
198.74
231.007
166.015
205.774
206.72
208.983
211.714
213.013
212.371
209.589
205.657
201.203
196.562
192.104
187.996
207.417
203.927
203.758
205.248
207.304
208.246
207.493
205.887
203.104
199.376
195.358
191.187
194.43
193.046
192.289
192.434
193.483
194.649
194.878
194.263
192.776
190.651
187.767
184.142
178.283
178.267
177.79
177.345
177.152
177.063
176.708
175.88
174.41
172.278
169.627
166.483
184.313
181.132
178.474
176.363
174.901
174.467
175.114
177.759
184.593
201.032
235.614
224.513
187.026
183.117
179.577
176.472
173.828
171.866
171.069
171.62
174.854
184.047
208.189
208.469
180.176
176.228
172.38
168.715
165.338
162.46
160.473
159.837
161.22
165.566
179.772
184.639
162.942
159.206
155.419
151.796
148.575
146.003
144.458
144.333
146.007
148.837
157.417
163.337
201.379
196.915
196.593
197.104
196.595
194.522
190.835
186.569
182.17
177.87
173.948
170.554
199.722
191.838
187.983
186.699
186.407
185.951
184.837
183.232
180.967
178.124
175.292
172.591
181.884
177.859
173.889
171.659
170.71
170.629
170.617
170.436
169.884
168.871
167.59
166.066
162.872
160.97
158.823
156.8
155.424
154.911
154.723
154.584
154.29
153.689
152.744
151.391
167.711
165.379
163.495
162.139
161.425
161.713
162.969
166.452
174.343
192.194
230.183
222.2
170.027
167.593
165.298
163.295
161.698
161.06
161.368
163.268
168.296
179.766
207.965
213.297
164.24
162.112
159.719
157.348
155.235
153.898
153.632
154.681
158.624
165.456
184.007
194.941
149.495
147.161
144.59
142.005
139.776
138.623
138.562
139.979
144.709
150.487
163.975
175.179
205.773
206.72
208.983
211.714
213.012
212.371
209.589
205.657
201.203
196.562
192.104
187.996
207.417
203.926
203.758
205.248
207.304
208.246
207.493
205.887
203.104
199.376
195.358
191.186
194.43
193.045
192.289
192.434
193.483
194.649
194.878
194.262
192.776
190.65
187.767
184.142
178.283
178.266
177.79
177.345
177.152
177.063
176.708
175.879
174.41
172.278
169.627
166.483
184.312
181.132
178.474
176.362
174.9
174.466
175.114
177.758
184.592
201.031
235.614
224.513
187.025
183.117
179.577
176.472
173.827
171.866
171.069
171.62
174.853
184.047
208.188
208.469
180.176
176.228
172.38
168.715
165.338
162.46
160.473
159.837
161.22
165.565
179.771
184.638
162.942
159.206
155.419
151.796
148.575
146.003
144.458
144.333
146.007
148.836
157.416
163.337
201.378
196.915
196.592
197.104
196.595
194.521
190.834
186.569
182.17
177.87
173.948
170.554
199.722
191.837
187.983
186.699
186.406
185.951
184.836
183.231
180.967
178.124
175.292
172.591
181.884
177.859
173.889
171.659
170.709
170.629
170.617
170.436
169.884
168.871
167.59
166.066
162.871
160.97
158.823
156.8
155.424
154.911
154.723
154.584
154.29
153.689
152.744
151.391
167.711
165.379
163.495
162.139
161.425
161.713
162.97
166.452
174.344
192.194
230.183
222.2
170.027
167.593
165.298
163.295
161.698
161.061
161.368
163.268
168.297
179.766
207.965
213.297
164.24
162.112
159.719
157.348
155.236
153.898
153.632
154.682
158.625
165.456
184.008
194.942
149.495
147.161
144.59
142.006
139.776
138.623
138.563
139.98
144.709
150.487
163.975
175.179
158.579
157.552
156.303
155.112
154.083
153.005
151.584
149.65
147.03
143.771
140.107
136.387
134.941
133.552
131.932
130.335
128.799
127.126
125.078
122.497
119.24
115.392
111.314
107.69
112.925
111.576
109.879
108.117
106.313
104.306
101.9
98.9455
95.3216
91.1101
86.7143
83.1347
94.0315
92.8754
91.2572
89.4779
87.5684
85.4034
82.8193
79.6693
75.8164
71.2129
65.9342
60.8042
133.218
130.759
128.728
127.539
127.304
127.9
129.63
132.295
135.975
140.273
145.185
147.225
105.639
105.45
106.105
107.763
110.309
113.465
117.194
121.246
125.482
129.165
131.738
131.648
82.4049
84.9988
88.2546
92.0821
96.4099
101.004
105.701
110.208
113.993
116.537
117.639
115.955
61.089
68.3645
73.9408
79.1794
84.4315
89.6192
94.5774
98.8436
101.878
103.559
103.53
100.818
144.929
142.17
139.738
137.666
136.177
135.152
134.16
132.956
131.439
129.672
127.757
125.513
127.886
124.128
120.819
117.883
115.36
113.058
110.668
108.027
105.134
102.212
99.5695
97.1814
111.45
106.929
102.775
98.9499
95.4344
92.0603
88.6102
84.9839
81.2214
77.5253
74.3506
72.1194
95.998
91.0473
86.3489
81.9394
77.7986
73.8015
69.7885
65.6652
61.4109
57.0598
52.8424
49.4431
122.577
119.202
116.303
114.321
113.713
115.004
118.403
124.01
132.192
141.337
152.019
157.884
94.4271
91.1079
88.6266
87.5067
88.1702
91.0125
96.1685
103.54
112.785
122.475
130.754
134.839
70.4026
68.0412
66.5402
66.3756
67.9532
71.5901
77.3635
85.0627
94.0696
103.01
109.609
112.834
49.5347
49.8712
49.8688
50.6248
52.763
56.6441
62.3467
69.6316
77.8325
85.6353
91.097
93.8189
158.579
157.552
156.303
155.111
154.083
153.005
151.584
149.649
147.03
143.771
140.107
136.387
134.94
133.551
131.932
130.335
128.799
127.126
125.078
122.497
119.239
115.392
111.314
107.69
112.924
111.575
109.879
108.117
106.313
104.306
101.9
98.9453
95.3215
91.11
86.7143
83.1347
94.031
92.8749
91.2567
89.4775
87.5681
85.4032
82.8191
79.6692
75.8162
71.2128
65.9342
60.8041
133.218
130.759
128.728
127.539
127.304
127.9
129.63
132.295
135.975
140.273
145.185
147.225
105.639
105.45
106.105
107.762
110.309
113.465
117.194
121.246
125.482
129.165
131.738
131.648
82.4049
84.9987
88.2545
92.0819
96.4097
101.004
105.701
110.208
113.993
116.536
117.639
115.955
61.0889
68.3644
73.9406
79.1792
84.4312
89.619
94.5771
98.8434
101.877
103.559
103.53
100.818
144.929
142.17
139.737
137.666
136.177
135.152
134.16
132.956
131.439
129.672
127.757
125.513
127.886
124.128
120.819
117.883
115.36
113.058
110.668
108.027
105.134
102.212
99.5697
97.1816
111.45
106.929
102.775
98.95
95.4346
92.0605
88.6104
84.9841
81.2217
77.5256
74.3508
72.1197
95.9979
91.0473
86.349
81.9395
77.7988
73.8018
69.7888
65.6656
61.4113
57.0602
52.8427
49.4434
122.578
119.202
116.304
114.322
113.714
115.004
118.403
124.01
132.192
141.338
152.019
157.884
94.4274
91.1084
88.6273
87.5074
88.171
91.0132
96.1692
103.541
112.785
122.476
130.755
134.839
70.403
68.0419
66.5411
66.3765
67.9541
71.591
77.3643
85.0634
94.0702
103.01
109.61
112.835
49.5352
49.8721
49.87
50.626
52.7643
56.6452
62.3476
69.6324
77.8332
85.6359
91.0976
93.8195
78.3098
77.3772
75.9059
74.1934
72.2827
70.0784
67.44
64.2172
60.2206
55.1174
47.7424
32.2851
65.3619
64.6349
63.3315
61.7298
59.8822
57.7164
55.1102
51.9117
47.8876
42.513
34.1032
14.5406
54.7143
54.1579
53.0191
51.5479
49.8012
47.7244
45.212
42.1194
38.2091
32.9638
25.0573
9.08143
45.9352
45.5121
44.5233
43.188
41.5628
39.6073
37.2322
34.3095
30.6316
25.7932
18.9591
6.76182
38.6607
38.3372
37.4802
36.2782
34.7848
32.9704
30.7617
28.0534
24.6837
20.3783
14.6736
5.29311
32.5898
32.3388
31.5954
30.5206
29.163
27.5012
25.4771
23.0095
19.9842
16.238
11.5358
4.19637
27.47
27.2709
26.6256
25.6708
24.4498
22.9469
21.1176
18.9029
16.23
13.0153
9.14958
3.32925
23.0787
22.9171
22.3575
21.5168
20.4321
19.0922
17.4636
15.5055
13.177
10.4456
7.26586
2.61542
19.1955
19.0621
18.5805
17.8512
16.9048
15.733
14.3108
12.6119
10.6164
8.32203
5.7143
2.00035
15.5427
15.4332
15.0284
14.415
13.6162
12.6254
11.4246
9.99772
8.33525
6.4547
4.35781
1.43891
11.5534
11.4678
11.1522
10.6803
10.0653
9.30018
8.37354
7.27704
5.99296
4.56652
3.01844
0.903156
5.07941
5.01709
4.84888
4.61752
4.32462
3.97584
3.57008
3.08557
2.52078
1.88708
1.19873
0.271446
34.7276
54.2647
62.1521
68.2471
73.8502
79.1055
83.8708
87.5784
89.9519
90.9273
90.0331
86.8147
19.9609
43.1806
52.3595
58.8415
64.4382
69.4696
73.771
76.8682
78.6791
79.0721
77.626
74.2618
14.6308
35.0842
44.2556
50.7042
56.0669
60.7097
64.4602
66.9922
68.3154
68.2579
66.5331
63.2638
11.7263
28.9697
37.5102
43.6445
48.6366
52.8121
56.0177
58.071
58.9804
58.5997
56.8036
53.7813
9.67091
24.144
31.832
37.499
42.0516
45.7392
48.4549
50.1064
50.6807
50.1025
48.3742
45.6868
8.0347
20.1803
26.9853
32.1213
36.2111
39.4311
41.7253
43.0397
43.3561
42.6863
41.1198
38.7966
6.64285
16.8141
22.7841
27.3789
31.0116
33.8071
35.7372
36.7735
36.9087
36.2282
34.8606
32.8951
5.40932
13.8664
19.078
23.1462
26.3405
28.7515
30.3682
31.1823
31.1991
30.5571
29.3903
27.7583
4.30817
11.1901
15.7279
19.2854
22.0546
24.1095
25.4509
26.0845
26.03
25.4508
24.4676
23.1407
3.26472
8.6741
12.5622
15.591
17.9206
19.6217
20.7033
21.1799
21.0835
20.5768
19.759
18.7138
2.23755
6.11679
9.20262
11.574
13.3674
14.6544
15.4448
15.7627
15.6399
15.2191
14.5836
13.7992
0.800388
2.41611
3.93315
5.05747
5.90289
6.51321
6.88632
7.04028
6.97472
6.7792
6.49392
6.14275
81.9789
76.9247
72.0344
67.4032
63.0295
58.8208
54.6487
50.3934
45.9216
40.9507
34.5661
22.701
69.6346
64.7486
59.9678
55.4199
51.12
46.9993
42.9431
38.8062
34.3725
29.1607
21.7427
7.89434
58.9996
54.4739
50.0156
45.7613
41.737
37.8898
34.1157
30.2608
26.0901
21.1407
14.4247
4.1982
49.9672
45.9115
41.8974
38.055
34.4148
30.9367
27.5292
24.0476
20.2832
15.8831
10.4067
3.0264
42.3516
38.8057
35.2826
31.897
28.6807
25.6041
22.5912
19.5166
16.2158
12.4396
8.11734
2.50524
35.9308
32.886
29.849
26.9165
24.1196
21.4383
18.8129
16.1402
13.2994
10.111
6.69078
2.14872
30.4744
27.8933
25.3082
22.7986
20.3942
18.083
15.8206
13.5241
11.1095
8.43143
5.68838
1.88388
25.7506
23.5854
21.4074
19.282
17.2365
15.2654
13.3371
11.3854
9.35551
7.11122
4.88852
1.62597
21.5137
19.7227
17.9109
16.1358
14.4212
12.7657
11.148
9.51421
7.83427
5.96532
4.1665
1.36296
17.4371
16.0119
14.5418
13.1019
11.7076
10.3597
9.04434
7.71606
6.3675
4.84079
3.41374
1.07194
12.8691
11.8547
10.7867
9.71963
8.68317
7.68115
6.70539
5.71391
4.73267
3.5692
2.54228
0.749618
5.73021
5.28111
4.81011
4.34208
3.88877
3.44778
3.0189
2.58524
2.15482
1.63949
1.19647
0.460444
26.398
35.4147
37.4565
39.0405
41.4653
45.2562
50.5361
57.0887
64.2911
70.9771
75.5981
77.9746
12.9032
25.0404
28.4129
30.5208
33.0236
36.5482
41.2631
46.9947
53.1982
58.8891
62.8383
64.9392
8.0263
18.2544
21.9061
24.2117
26.6458
29.8283
33.952
38.8867
44.1729
49.0022
52.3867
54.2445
5.6288
13.7271
17.186
19.4741
21.7535
24.5774
28.1423
32.3538
36.8326
40.9227
43.8196
45.4531
4.17316
10.5785
13.6866
15.8459
17.9299
20.4101
23.4736
27.0533
30.8375
34.2957
36.7674
38.1924
3.20421
8.2826
11.0211
12.9995
14.8743
17.0387
19.6649
22.7043
25.8996
28.8186
30.9193
32.1526
2.49272
6.5429
8.92854
10.7041
12.3671
14.2446
16.4931
19.0756
21.7762
24.2353
26.0132
27.0738
1.93337
5.17783
7.23246
8.7936
10.2431
11.8556
13.7745
15.9709
18.2568
20.3214
21.8191
22.7274
1.46867
4.0656
5.8059
7.1399
8.36696
9.72296
11.3436
13.2075
15.1419
16.8615
18.1132
18.8896
1.05692
3.11125
4.53673
5.61669
6.59552
7.6812
9.00785
10.5674
12.1893
13.5944
14.6228
15.2822
0.667985
2.19008
3.25585
4.01653
4.67946
5.42886
6.40682
7.64534
8.9257
10.0071
10.8245
11.3492
0.200556
0.897261
1.36619
1.6791
1.94479
2.27779
2.74465
3.34324
3.92094
4.399
4.77125
5.00374
78.3092
77.3767
75.9054
74.1929
72.2824
70.0781
67.4397
64.217
60.2205
55.1172
47.7423
32.2851
65.3612
64.6343
63.3309
61.7293
59.8818
57.7161
55.1099
51.9115
47.8874
42.5128
34.1031
14.5405
54.7136
54.1573
53.0185
51.5474
49.8007
47.724
45.2117
42.1191
38.2088
32.9636
25.057
9.0813
45.9345
45.5114
44.5227
43.1874
41.5623
39.6068
37.2317
34.3092
30.6312
25.7928
18.9588
6.76164
38.66
38.3365
37.4795
36.2776
34.7843
32.9699
30.7613
28.053
24.6833
20.3779
14.6732
5.29288
32.589
32.338
31.5947
30.5199
29.1624
27.5007
25.4766
23.009
19.9837
16.2374
11.5353
4.19609
27.4692
27.2702
26.6248
25.6701
24.4491
22.9463
21.1171
18.9024
16.2294
13.0147
9.14903
3.32894
23.0779
22.9163
22.3567
21.5162
20.4315
19.0916
17.4629
15.5049
13.1764
10.4449
7.26527
2.61507
19.1947
19.0613
18.5798
17.8506
16.9042
15.7324
14.3102
12.6113
10.6158
8.3214
5.71371
1.99998
15.542
15.4325
15.0277
14.4143
13.6156
12.6249
11.4241
9.99717
8.33467
6.45411
4.35727
1.43853
11.5528
11.4673
11.1516
10.6798
10.0648
9.29973
8.37311
7.2766
5.99251
4.56606
3.01802
0.902791
5.07915
5.01685
4.84866
4.61731
4.32441
3.97564
3.56989
3.08538
2.52058
1.88687
1.19854
0.271237
34.7275
54.2646
62.1519
68.2469
73.85
79.1052
83.8706
87.5782
89.9517
90.9271
90.033
86.8146
19.9609
43.1805
52.3593
58.8413
64.438
69.4694
73.7707
76.868
78.6789
79.0719
77.6258
74.2617
14.6307
35.084
44.2554
50.704
56.0667
60.7094
64.4599
66.992
68.3152
68.2577
66.5329
63.2637
11.7263
28.9696
37.51
43.6443
48.6363
52.8118
56.0174
58.0708
58.9801
58.5995
56.8035
53.7812
9.67083
24.1438
31.8318
37.4988
42.0514
45.739
48.4547
50.1062
50.6805
50.1024
48.3741
45.6867
8.03462
20.1801
26.9851
32.1211
36.2109
39.4309
41.7251
43.0395
43.3559
42.6861
41.1196
38.7966
6.64277
16.8139
22.7839
27.3787
31.0114
33.8068
35.7369
36.7732
36.9085
36.228
34.8604
32.895
5.40923
13.8662
19.0778
23.146
26.3402
28.7512
30.3679
31.1821
31.1989
30.5569
29.3901
27.7582
4.30808
11.1899
15.7277
19.2851
22.0544
24.1093
25.4507
26.0843
26.0297
25.4507
24.4675
23.1406
3.26464
8.67394
12.562
15.5908
17.9203
19.6214
20.703
21.1797
21.0833
20.5767
19.7588
18.7137
2.23748
6.11666
9.20246
11.5738
13.3672
14.6542
15.4446
15.7626
15.6398
15.219
14.5835
13.7991
0.800358
2.41606
3.93308
5.05739
5.9028
6.51313
6.88623
7.0402
6.97465
6.77914
6.49387
6.14272
81.9789
76.9248
72.0345
67.4034
63.0298
58.8212
54.6491
50.3939
45.9221
40.9513
34.5666
22.7012
69.6346
64.7486
59.9679
55.4201
51.1203
46.9997
42.9436
38.8068
34.3732
29.1614
21.7434
7.89489
58.9996
54.474
50.0158
45.7616
41.7373
37.8903
34.1163
30.2615
26.091
21.1416
14.4257
4.19891
49.9672
45.9116
41.8976
38.0552
34.4152
30.9372
27.5299
24.0484
20.2842
15.8842
10.4079
3.02718
42.3516
38.8058
35.2828
31.8973
28.6811
25.6046
22.5919
19.5174
16.2168
12.4408
8.11854
2.50602
35.9308
32.8861
29.8491
26.9168
24.12
21.4389
18.8136
16.141
13.3005
10.1123
6.69199
2.14949
30.4744
27.8933
25.3083
22.7989
20.3945
18.0835
15.8213
13.5249
11.1106
8.43264
5.68958
1.88462
25.7506
23.5855
21.4075
19.2822
17.2368
15.2658
13.3377
11.3862
9.3565
7.11238
4.88966
1.62668
21.5136
19.7228
17.911
16.136
14.4215
12.7661
11.1485
9.51494
7.83517
5.96638
4.16754
1.36361
17.4371
16.012
14.5418
13.102
11.7078
10.3601
9.04481
7.71668
6.36828
4.8417
3.41464
1.07251
12.8691
11.8547
10.7867
9.71974
8.68334
7.68141
6.70574
5.71439
4.73325
3.5699
2.54294
0.750077
5.73019
5.28111
4.81013
4.34212
3.88885
3.44789
3.01905
2.58545
2.15507
1.63982
1.19676
0.460691
26.3985
35.4157
37.4578
39.0419
41.4667
45.2574
50.5371
57.0896
64.2919
70.9778
75.5988
77.9752
12.9037
25.0416
28.4145
30.5225
33.0252
36.5497
41.2644
46.9957
53.1991
58.8898
62.839
64.9399
8.02695
18.2559
21.908
24.2136
26.6476
29.8299
33.9534
38.8878
44.1739
49.0031
52.3874
54.2452
5.62956
13.7288
17.188
19.4762
21.7555
24.5792
28.1437
32.355
36.8336
40.9236
43.8204
45.4538
4.17402
10.5803
13.6888
15.8481
17.932
20.4119
23.4752
27.0546
30.8385
34.2967
36.7683
38.1932
3.20515
8.28454
11.0234
13.0018
14.8764
17.0405
19.6664
22.7055
25.9007
28.8196
30.9202
32.1535
2.49374
6.54491
8.93087
10.7064
12.3692
14.2465
16.4946
19.0769
21.7773
24.2362
26.0141
27.0747
1.93445
5.17985
7.23479
8.79589
10.2452
11.8574
13.7759
15.9721
18.2578
20.3224
21.82
22.7283
1.46977
4.06756
5.80812
7.14206
8.36889
9.72459
11.3449
13.2086
15.1429
16.8624
18.1141
18.8904
1.05799
3.11302
4.53871
5.61859
6.5972
7.68261
9.00901
10.5684
12.1902
13.5951
14.6235
15.2829
0.668939
2.19149
3.25742
4.018
4.68074
5.42993
6.40771
7.64609
8.92635
10.0077
10.8251
11.3498
0.201027
0.897898
1.36688
1.67975
1.94535
2.27826
2.74504
3.34357
3.92122
4.39927
4.77151
5.00399
)
;

boundaryField
{
    rotor
    {
        type            kqRWallFunction;
        value           nonuniform List<scalar> 
192
(
3.53354
4.69653
5.03843
4.99202
4.62389
4.2795
5.13949
13.8525
28.7858
35.553
38.7146
41.331
42.7022
43.5568
43.6309
43.5947
42.8578
41.2844
38.8817
35.5462
31.1684
26.0132
19.4626
15.3343
3.11915
4.17987
4.55732
4.51046
4.2655
3.8375
4.25215
9.13114
23.8382
31.2931
34.5233
36.9861
38.4078
39.2589
39.4524
39.4417
39.0495
37.6696
35.7009
32.737
28.9192
24.2002
18.1699
14.2182
3.53345
4.69643
5.03834
4.99193
4.62381
4.27941
5.13934
13.852
28.7854
35.5527
38.7143
41.3307
42.7019
43.5565
43.6306
43.5945
42.8576
41.2842
38.8816
35.5461
31.1683
26.0131
19.4626
15.3342
3.11915
4.17988
4.55732
4.51046
4.2655
3.8375
4.25215
9.13114
23.8382
31.2931
34.5233
36.9861
38.4078
39.2589
39.4525
39.4417
39.0495
37.6696
35.701
32.7371
28.9193
24.2002
18.1699
14.2183
3.53354
7.48033
10.4843
13.7958
15.5667
16.6458
16.7951
17.1063
17.9064
19.8305
23.3041
65.5247
14.2183
33.0448
46.9175
58.3154
68.4923
78.5142
88.5151
100.061
113.219
127.343
144.005
166.015
3.11915
6.59789
9.18691
12.0947
13.7519
14.819
15.2002
15.7633
16.7339
18.9081
22.2528
61.9299
15.3343
35.3914
50.0493
62.2348
73.019
83.6742
94.2737
106.601
120.288
134.783
151.354
172.045
3.53345
7.48019
10.4842
13.7955
15.5664
16.6454
16.7947
17.1059
17.9061
19.8304
23.304
65.5246
14.2182
33.0448
46.9175
58.3153
68.4922
78.5141
88.515
100.061
113.219
127.343
144.005
166.015
3.11915
6.5979
9.18691
12.0947
13.7519
14.819
15.2002
15.7634
16.7339
18.9082
22.2528
61.9298
15.3342
35.3913
50.0492
62.2347
73.0188
83.674
94.2735
106.601
120.288
134.782
151.354
172.044
)
;
    }
    stator
    {
        type            kqRWallFunction;
        value           nonuniform List<scalar> 
192
(
5.07941
5.01709
4.84888
4.61752
4.32462
3.97584
3.57008
3.08557
2.52078
1.88708
1.19873
0.271446
0.800388
2.41611
3.93315
5.05747
5.90289
6.51321
6.88632
7.04028
6.97472
6.7792
6.49392
6.14275
5.73021
5.28111
4.81011
4.34208
3.88877
3.44778
3.0189
2.58524
2.15482
1.63949
1.19647
0.460444
0.200556
0.897261
1.36619
1.6791
1.94479
2.27779
2.74465
3.34324
3.92094
4.399
4.77125
5.00374
5.07915
5.01685
4.84866
4.61731
4.32441
3.97564
3.56989
3.08538
2.52058
1.88687
1.19854
0.271237
0.800358
2.41606
3.93308
5.05739
5.9028
6.51313
6.88623
7.0402
6.97465
6.77914
6.49387
6.14272
5.73019
5.28111
4.81013
4.34212
3.88885
3.44789
3.01905
2.58545
2.15507
1.63982
1.19676
0.460691
0.201027
0.897898
1.36688
1.67975
1.94535
2.27826
2.74504
3.34357
3.92122
4.39927
4.77151
5.00399
34.7276
19.9609
14.6308
11.7263
9.67091
8.0347
6.64285
5.40932
4.30817
3.26472
2.23755
0.800388
32.2851
14.5406
9.08143
6.76182
5.29311
4.19637
3.32925
2.61542
2.00035
1.43891
0.903156
0.271446
26.398
12.9032
8.0263
5.6288
4.17316
3.20421
2.49272
1.93337
1.46867
1.05692
0.667985
0.200556
22.701
7.89434
4.1982
3.0264
2.50524
2.14872
1.88388
1.62597
1.36296
1.07194
0.749618
0.460444
34.7275
19.9609
14.6307
11.7263
9.67083
8.03462
6.64277
5.40923
4.30808
3.26464
2.23748
0.800358
32.2851
14.5405
9.0813
6.76164
5.29288
4.19609
3.32894
2.61507
1.99998
1.43853
0.902791
0.271237
26.3985
12.9037
8.02695
5.62956
4.17402
3.20515
2.49374
1.93445
1.46977
1.05799
0.668939
0.201027
22.7012
7.89489
4.19891
3.02718
2.50602
2.14949
1.88462
1.62668
1.36361
1.07251
0.750077
0.460691
)
;
    }
    front
    {
        type            empty;
    }
    back
    {
        type            empty;
    }
}


// ************************************************************************* //
