/*--------------------------------*- C++ -*----------------------------------*\
| =========                 |                                                 |
| \\      /  F ield         | OpenFOAM: The Open Source CFD Toolbox           |
|  \\    /   O peration     | Version:  2212                                  |
|   \\  /    A nd           | Website:  www.openfoam.com                      |
|    \\/     M anipulation  |                                                 |
\*---------------------------------------------------------------------------*/
FoamFile
{
    version     2.0;
    format      ascii;
    arch        "LSB;label=32;scalar=64";
    class       volScalarField;
    location    "0.05";
    object      nut;
}
// * * * * * * * * * * * * * * * * * * * * * * * * * * * * * * * * * * * * * //

dimensions      [0 2 -1 0 0 0 0];

internalField   nonuniform List<scalar> 
3072
(
0.000238929
0.000514772
0.000553664
0.000553316
0.00054929
0.000526756
0.000513608
0.000578635
0.00100467
0.00136436
0.00148577
0.0015409
0.000386143
0.00111684
0.00158613
0.0017777
0.00152315
0.000885418
0.000793934
0.00140805
0.00172248
0.00276209
0.00377396
0.00526347
0.00049575
0.00184101
0.00248491
0.00259375
0.00224508
0.00207453
0.00205923
0.00292813
0.00445765
0.00654279
0.00874346
0.0108719
0.000626843
0.00289481
0.00315576
0.00274434
0.0026027
0.0026219
0.00349144
0.00565884
0.00801173
0.0106686
0.0131844
0.0154099
0.000740361
0.00343472
0.0034696
0.00314027
0.00313755
0.00384764
0.00584836
0.00864247
0.0113421
0.0140732
0.0165898
0.0188093
0.0008477
0.00388556
0.00393917
0.00372333
0.00415454
0.00586328
0.00855974
0.011291
0.0139595
0.0165825
0.0189971
0.0211556
0.000941662
0.0043978
0.00477832
0.00485792
0.00598184
0.00838869
0.0109555
0.0134819
0.0159658
0.0183335
0.0205724
0.0226278
0.00105621
0.00554521
0.00659264
0.00748556
0.00933213
0.0114306
0.0135573
0.015702
0.0178577
0.0199121
0.0218479
0.0236351
0.00119295
0.00751316
0.00987463
0.0118436
0.0136008
0.0151961
0.0167405
0.0182868
0.0198629
0.0214025
0.0228916
0.0243147
0.00138283
0.00903714
0.0125425
0.0149514
0.0166951
0.018031
0.0191799
0.0202551
0.0213
0.0223412
0.0234024
0.0244965
0.00156279
0.00842686
0.0135215
0.0164548
0.0183883
0.0195807
0.0206645
0.0214383
0.022143
0.0228475
0.0235911
0.0244025
0.00260839
0.00793589
0.0142293
0.0176383
0.0193138
0.0207956
0.0217319
0.0223998
0.0229342
0.0234377
0.0239704
0.0245753
0.00158369
0.00160456
0.00161673
0.00161857
0.00161924
0.00159392
0.00155563
0.00149059
0.0014015
0.00128014
0.00110067
0.00052383
0.0067363
0.00808873
0.00903448
0.00943862
0.00925772
0.00876947
0.00792851
0.00677279
0.00524077
0.00320384
0.00156675
0.000909647
0.0127046
0.0141038
0.0149796
0.0153189
0.0151314
0.0144612
0.0132625
0.0115197
0.0091987
0.00630287
0.0028092
0.00121215
0.0172944
0.0187712
0.0197973
0.0203421
0.0203654
0.0198142
0.0186091
0.0166439
0.0137465
0.00992818
0.00494981
0.00148042
0.0207196
0.0222874
0.023483
0.0242709
0.0245909
0.0243355
0.0233536
0.0214333
0.0182059
0.0135541
0.00729318
0.00174717
0.0230544
0.0246769
0.0260022
0.0269978
0.0276056
0.0277322
0.0271974
0.0256759
0.0226736
0.0175003
0.0101218
0.00202029
0.0244672
0.0260857
0.0274775
0.0286262
0.0295081
0.030064
0.0301004
0.0292042
0.0266783
0.0215042
0.0131282
0.00230651
0.0252706
0.0267649
0.0281141
0.0293196
0.0304065
0.0313582
0.0320294
0.0319878
0.0302895
0.0253658
0.0160572
0.00262205
0.02564
0.0268725
0.0280882
0.0292883
0.0304829
0.031715
0.032921
0.0337678
0.0332122
0.0290079
0.0187516
0.00297177
0.0255707
0.0265821
0.0276134
0.0287887
0.0300864
0.0314947
0.0330307
0.0345856
0.0352509
0.0324308
0.0218915
0.00334403
0.0253547
0.0264382
0.0273417
0.0282873
0.0295869
0.0311037
0.0327582
0.0346331
0.0362185
0.0353116
0.025661
0.00375614
0.0253481
0.026492
0.0275317
0.0283631
0.0294296
0.030885
0.0324469
0.0342953
0.0362142
0.036965
0.0296445
0.00423542
0.00023893
0.000514775
0.000553665
0.000553317
0.000549291
0.000526756
0.000513609
0.000578637
0.00100468
0.00136436
0.00148577
0.0015409
0.000386145
0.00111685
0.00158612
0.00177769
0.00152314
0.000885413
0.000793937
0.00140806
0.00172249
0.00276211
0.00377398
0.00526349
0.000495752
0.00184101
0.00248491
0.00259373
0.00224506
0.00207453
0.00205924
0.00292815
0.00445768
0.00654283
0.0087435
0.0108719
0.000626846
0.00289481
0.00315575
0.00274433
0.00260271
0.00262191
0.00349148
0.00565889
0.00801179
0.0106686
0.0131844
0.0154099
0.000740365
0.00343473
0.0034696
0.00314028
0.00313756
0.00384767
0.00584843
0.00864254
0.0113422
0.0140733
0.0165899
0.0188094
0.000847703
0.00388558
0.00393919
0.00372335
0.00415458
0.00586336
0.00855983
0.0112911
0.0139595
0.0165826
0.0189972
0.0211557
0.000941664
0.00439782
0.00477836
0.00485798
0.00598195
0.00838881
0.0109556
0.013482
0.0159659
0.0183336
0.0205725
0.0226279
0.00105621
0.00554524
0.0065927
0.00748566
0.00933226
0.0114307
0.0135574
0.0157021
0.0178579
0.0199122
0.021848
0.0236352
0.00119295
0.00751318
0.00987468
0.0118437
0.0136008
0.0151962
0.0167406
0.0182869
0.019863
0.0214026
0.0228917
0.0243148
0.00138283
0.00903715
0.0125425
0.0149515
0.0166951
0.0180311
0.0191799
0.0202552
0.0213001
0.0223413
0.0234025
0.0244966
0.00156279
0.00842686
0.0135215
0.0164548
0.0183883
0.0195807
0.0206646
0.0214383
0.0221431
0.0228476
0.0235912
0.0244026
0.00260839
0.00793589
0.0142293
0.0176383
0.0193138
0.0207956
0.0217319
0.0223998
0.0229342
0.0234377
0.0239704
0.0245754
0.00158369
0.00160456
0.00161673
0.00161857
0.00161924
0.00159392
0.00155564
0.00149059
0.0014015
0.00128015
0.00110068
0.00052383
0.00673632
0.00808876
0.00903451
0.00943865
0.00925775
0.00876949
0.00792853
0.0067728
0.00524078
0.00320384
0.00156676
0.000909647
0.0127047
0.0141039
0.0149796
0.0153189
0.0151314
0.0144612
0.0132625
0.0115197
0.00919872
0.00630288
0.0028092
0.00121215
0.0172944
0.0187712
0.0197973
0.0203422
0.0203655
0.0198143
0.0186092
0.016644
0.0137466
0.0099282
0.00494982
0.00148042
0.0207197
0.0222875
0.0234831
0.024271
0.024591
0.0243355
0.0233537
0.0214333
0.0182059
0.0135542
0.00729319
0.00174717
0.0230545
0.024677
0.0260023
0.0269979
0.0276057
0.0277322
0.0271975
0.025676
0.0226736
0.0175003
0.0101218
0.0020203
0.0244673
0.0260858
0.0274776
0.0286263
0.0295082
0.0300641
0.0301005
0.0292043
0.0266784
0.0215042
0.0131282
0.00230651
0.0252707
0.0267651
0.0281142
0.0293198
0.0304066
0.0313583
0.0320295
0.0319879
0.0302896
0.0253658
0.0160573
0.00262205
0.0256401
0.0268727
0.0280883
0.0292884
0.030483
0.0317151
0.0329211
0.0337679
0.0332122
0.0290079
0.0187516
0.00297177
0.0255708
0.0265822
0.0276135
0.0287888
0.0300865
0.0314948
0.0330308
0.0345857
0.035251
0.0324309
0.0218916
0.00334404
0.0253548
0.0264383
0.0273417
0.0282874
0.029587
0.0311038
0.0327583
0.0346332
0.0362186
0.0353116
0.025661
0.00375614
0.0253481
0.026492
0.0275318
0.0283631
0.0294297
0.0308851
0.032447
0.0342954
0.0362143
0.0369651
0.0296445
0.00423542
0.000238931
0.000514776
0.000553667
0.000553319
0.000549294
0.000526759
0.000513611
0.000578638
0.00100468
0.00136436
0.00148577
0.0015409
0.000386146
0.00111685
0.00158614
0.00177771
0.00152316
0.000885421
0.000793938
0.00140806
0.00172249
0.00276211
0.00377398
0.00526349
0.000495753
0.00184102
0.00248493
0.00259376
0.00224508
0.00207454
0.00205924
0.00292815
0.00445767
0.00654283
0.0087435
0.0108719
0.000626847
0.00289483
0.00315577
0.00274435
0.00260272
0.00262192
0.00349147
0.00565888
0.00801178
0.0106686
0.0131844
0.0154099
0.000740366
0.00343475
0.00346962
0.0031403
0.00313756
0.00384767
0.00584842
0.00864253
0.0113422
0.0140733
0.0165899
0.0188094
0.000847704
0.00388559
0.00393921
0.00372336
0.00415458
0.00586335
0.00855983
0.0112911
0.0139595
0.0165826
0.0189972
0.0211557
0.000941666
0.00439783
0.00477837
0.00485799
0.00598194
0.00838881
0.0109556
0.013482
0.015966
0.0183336
0.0205725
0.0226279
0.00105622
0.00554526
0.00659272
0.00748567
0.00933227
0.0114307
0.0135574
0.0157021
0.0178579
0.0199122
0.021848
0.0236352
0.00119295
0.0075132
0.00987471
0.0118437
0.0136009
0.0151962
0.0167406
0.018287
0.0198631
0.0214026
0.0228918
0.0243148
0.00138283
0.00903716
0.0125425
0.0149515
0.0166951
0.0180311
0.0191799
0.0202552
0.0213001
0.0223413
0.0234025
0.0244966
0.00156279
0.00842687
0.0135215
0.0164548
0.0183883
0.0195808
0.0206646
0.0214384
0.0221431
0.0228476
0.0235912
0.0244026
0.00260839
0.00793589
0.0142293
0.0176383
0.0193138
0.0207956
0.0217319
0.0223998
0.0229343
0.0234378
0.0239704
0.0245754
0.00158369
0.00160456
0.00161673
0.00161857
0.00161924
0.00159392
0.00155564
0.00149059
0.0014015
0.00128014
0.00110067
0.00052383
0.00673632
0.00808876
0.00903451
0.00943865
0.00925775
0.00876949
0.00792852
0.0067728
0.00524077
0.00320384
0.00156676
0.000909646
0.0127047
0.0141039
0.0149796
0.0153189
0.0151314
0.0144612
0.0132625
0.0115197
0.00919871
0.00630288
0.0028092
0.00121215
0.0172944
0.0187712
0.0197973
0.0203422
0.0203654
0.0198143
0.0186092
0.016644
0.0137466
0.00992819
0.00494982
0.00148042
0.0207197
0.0222875
0.0234831
0.024271
0.024591
0.0243355
0.0233537
0.0214333
0.0182059
0.0135542
0.00729319
0.00174717
0.0230545
0.024677
0.0260023
0.0269979
0.0276057
0.0277322
0.0271974
0.025676
0.0226736
0.0175003
0.0101218
0.0020203
0.0244673
0.0260858
0.0274776
0.0286263
0.0295082
0.0300641
0.0301005
0.0292043
0.0266784
0.0215042
0.0131282
0.00230651
0.0252707
0.0267651
0.0281142
0.0293197
0.0304066
0.0313583
0.0320295
0.0319879
0.0302896
0.0253658
0.0160573
0.00262205
0.0256401
0.0268727
0.0280883
0.0292884
0.0304829
0.0317151
0.032921
0.0337678
0.0332122
0.0290079
0.0187516
0.00297177
0.0255708
0.0265822
0.0276135
0.0287888
0.0300865
0.0314948
0.0330307
0.0345856
0.035251
0.0324308
0.0218916
0.00334403
0.0253548
0.0264383
0.0273417
0.0282874
0.029587
0.0311038
0.0327582
0.0346331
0.0362186
0.0353116
0.025661
0.00375614
0.0253481
0.026492
0.0275318
0.0283631
0.0294296
0.0308851
0.0324469
0.0342954
0.0362143
0.036965
0.0296445
0.00423542
0.00023893
0.000514773
0.000553664
0.000553316
0.00054929
0.000526756
0.000513608
0.000578635
0.00100467
0.00136436
0.00148576
0.0015409
0.000386144
0.00111684
0.00158612
0.0017777
0.00152314
0.000885415
0.000793932
0.00140805
0.00172248
0.0027621
0.00377397
0.00526348
0.000495751
0.00184101
0.00248491
0.00259374
0.00224507
0.00207453
0.00205923
0.00292814
0.00445766
0.0065428
0.00874347
0.0108719
0.000626844
0.00289481
0.00315575
0.00274434
0.0026027
0.00262191
0.00349145
0.00565886
0.00801175
0.0106686
0.0131844
0.0154099
0.000740363
0.00343472
0.0034696
0.00314028
0.00313755
0.00384765
0.00584839
0.0086425
0.0113422
0.0140733
0.0165898
0.0188094
0.000847701
0.00388557
0.00393918
0.00372334
0.00415456
0.00586332
0.00855979
0.0112911
0.0139595
0.0165826
0.0189971
0.0211556
0.000941663
0.00439781
0.00477834
0.00485796
0.00598191
0.00838877
0.0109556
0.013482
0.0159659
0.0183336
0.0205724
0.0226279
0.00105621
0.00554523
0.00659268
0.00748564
0.00933223
0.0114307
0.0135574
0.0157021
0.0178578
0.0199121
0.0218479
0.0236351
0.00119295
0.00751318
0.00987467
0.0118437
0.0136008
0.0151962
0.0167406
0.0182869
0.019863
0.0214026
0.0228917
0.0243148
0.00138283
0.00903714
0.0125425
0.0149515
0.0166951
0.0180311
0.0191799
0.0202552
0.0213
0.0223413
0.0234024
0.0244966
0.00156279
0.00842685
0.0135215
0.0164548
0.0183883
0.0195807
0.0206646
0.0214383
0.0221431
0.0228475
0.0235912
0.0244025
0.00260839
0.00793588
0.0142293
0.0176383
0.0193138
0.0207956
0.0217319
0.0223998
0.0229342
0.0234377
0.0239704
0.0245754
0.00158369
0.00160456
0.00161673
0.00161857
0.00161924
0.00159392
0.00155563
0.00149059
0.0014015
0.00128014
0.00110067
0.000523829
0.0067363
0.00808874
0.00903449
0.00943863
0.00925773
0.00876948
0.00792851
0.00677279
0.00524077
0.00320384
0.00156675
0.000909646
0.0127047
0.0141038
0.0149796
0.0153189
0.0151314
0.0144612
0.0132625
0.0115197
0.0091987
0.00630287
0.0028092
0.00121215
0.0172944
0.0187712
0.0197973
0.0203421
0.0203654
0.0198142
0.0186091
0.0166439
0.0137465
0.00992819
0.00494981
0.00148042
0.0207196
0.0222874
0.023483
0.024271
0.024591
0.0243355
0.0233536
0.0214333
0.0182059
0.0135541
0.00729319
0.00174717
0.0230544
0.0246769
0.0260023
0.0269979
0.0276056
0.0277322
0.0271974
0.0256759
0.0226736
0.0175003
0.0101218
0.00202029
0.0244673
0.0260858
0.0274775
0.0286263
0.0295081
0.0300641
0.0301005
0.0292042
0.0266784
0.0215042
0.0131282
0.00230651
0.0252706
0.026765
0.0281142
0.0293197
0.0304065
0.0313582
0.0320295
0.0319878
0.0302896
0.0253658
0.0160572
0.00262205
0.0256401
0.0268726
0.0280882
0.0292884
0.0304829
0.0317151
0.032921
0.0337678
0.0332122
0.0290079
0.0187516
0.00297177
0.0255707
0.0265822
0.0276134
0.0287888
0.0300864
0.0314948
0.0330307
0.0345856
0.035251
0.0324308
0.0218915
0.00334403
0.0253548
0.0264383
0.0273417
0.0282874
0.029587
0.0311038
0.0327582
0.0346331
0.0362186
0.0353116
0.025661
0.00375614
0.0253481
0.026492
0.0275318
0.0283631
0.0294296
0.030885
0.0324469
0.0342954
0.0362142
0.036965
0.0296445
0.00423542
0.0156973
0.0162827
0.017745
0.0192983
0.0206533
0.0219138
0.0227481
0.0233573
0.023815
0.0242311
0.0246595
0.025146
0.0253443
0.0231118
0.0223924
0.0224622
0.0229039
0.0233531
0.0237871
0.0243445
0.0248472
0.0252512
0.0256455
0.0260826
0.0319982
0.0294552
0.027607
0.0265131
0.025985
0.0257651
0.0258376
0.025997
0.0261748
0.0263909
0.0268067
0.0273086
0.0339996
0.0322398
0.0306275
0.0292897
0.0284196
0.0278937
0.027659
0.0275787
0.0277521
0.0279793
0.0283095
0.0288212
0.025857
0.0269866
0.0280657
0.0289107
0.0298743
0.0311016
0.032408
0.0339527
0.035795
0.0379683
0.0381112
0.0175916
0.0268894
0.0279576
0.0289442
0.029844
0.0307957
0.0316622
0.0326318
0.0337261
0.0351511
0.0371835
0.0407499
0.0294832
0.0282937
0.0291295
0.0299911
0.0307649
0.0315304
0.0321951
0.0329761
0.0337594
0.0346996
0.036105
0.0393848
0.0351747
0.0298575
0.0305948
0.0312781
0.0319054
0.0324003
0.0329022
0.0334687
0.0339756
0.0346055
0.035327
0.0370858
0.0360225
0.0156973
0.0162827
0.017745
0.0192983
0.0206533
0.0219138
0.0227481
0.0233573
0.023815
0.0242312
0.0246595
0.025146
0.0253443
0.0231119
0.0223924
0.0224622
0.022904
0.0233531
0.0237871
0.0243445
0.0248472
0.0252512
0.0256455
0.0260826
0.0319982
0.0294553
0.0276071
0.0265131
0.025985
0.0257651
0.0258376
0.025997
0.0261748
0.0263909
0.0268067
0.0273086
0.0339997
0.0322399
0.0306276
0.0292898
0.0284196
0.0278937
0.0276591
0.0275787
0.0277521
0.0279793
0.0283095
0.0288212
0.0258571
0.0269866
0.0280657
0.0289108
0.0298743
0.0311016
0.032408
0.0339528
0.035795
0.0379684
0.0381113
0.0175917
0.0268894
0.0279576
0.0289442
0.029844
0.0307957
0.0316622
0.0326319
0.0337261
0.0351512
0.0371836
0.0407499
0.0294832
0.0282937
0.0291295
0.0299911
0.0307649
0.0315304
0.0321952
0.0329761
0.0337594
0.0346997
0.036105
0.0393849
0.0351748
0.0298575
0.0305948
0.0312781
0.0319055
0.0324003
0.0329022
0.0334687
0.0339756
0.0346055
0.0353271
0.0370859
0.0360225
0.0156974
0.0162827
0.0177451
0.0192983
0.0206533
0.0219138
0.0227481
0.0233574
0.0238151
0.0242312
0.0246596
0.025146
0.0253443
0.0231119
0.0223925
0.0224623
0.022904
0.0233531
0.0237871
0.0243446
0.0248472
0.0252512
0.0256455
0.0260826
0.0319983
0.0294553
0.0276071
0.0265132
0.025985
0.0257652
0.0258376
0.025997
0.0261748
0.0263909
0.0268067
0.0273086
0.0339997
0.0322399
0.0306276
0.0292898
0.0284197
0.0278938
0.0276591
0.0275788
0.0277521
0.0279793
0.0283095
0.0288212
0.0258571
0.0269866
0.0280657
0.0289108
0.0298743
0.0311016
0.032408
0.0339528
0.035795
0.0379683
0.0381112
0.0175916
0.0268894
0.0279576
0.0289442
0.029844
0.0307957
0.0316622
0.0326319
0.0337261
0.0351512
0.0371835
0.0407499
0.0294832
0.0282937
0.0291295
0.0299911
0.0307649
0.0315304
0.0321951
0.0329761
0.0337594
0.0346996
0.036105
0.0393848
0.0351747
0.0298575
0.0305948
0.0312781
0.0319054
0.0324003
0.0329022
0.0334687
0.0339756
0.0346055
0.035327
0.0370858
0.0360225
0.0156973
0.0162827
0.017745
0.0192983
0.0206533
0.0219138
0.0227481
0.0233573
0.023815
0.0242312
0.0246595
0.025146
0.0253443
0.0231119
0.0223924
0.0224622
0.022904
0.0233531
0.0237871
0.0243446
0.0248472
0.0252512
0.0256455
0.0260826
0.0319982
0.0294553
0.0276071
0.0265131
0.025985
0.0257651
0.0258376
0.025997
0.0261748
0.0263909
0.0268067
0.0273086
0.0339997
0.0322399
0.0306276
0.0292898
0.0284196
0.0278937
0.0276591
0.0275787
0.0277521
0.0279793
0.0283095
0.0288212
0.0258571
0.0269866
0.0280657
0.0289107
0.0298743
0.0311016
0.032408
0.0339528
0.035795
0.0379683
0.0381112
0.0175916
0.0268894
0.0279576
0.0289442
0.029844
0.0307957
0.0316622
0.0326318
0.0337261
0.0351511
0.0371835
0.0407498
0.0294831
0.0282937
0.0291295
0.0299911
0.0307649
0.0315304
0.0321951
0.0329761
0.0337594
0.0346996
0.036105
0.0393848
0.0351746
0.0298575
0.0305948
0.0312781
0.0319054
0.0324003
0.0329022
0.0334686
0.0339755
0.0346055
0.035327
0.0370858
0.0360224
0.031649
0.0305072
0.0295515
0.0289188
0.0285619
0.0284233
0.0283672
0.0284274
0.0287287
0.0291341
0.0298337
0.0309004
0.0301017
0.0293693
0.02878
0.0284397
0.0282297
0.0280331
0.0277924
0.0276697
0.0275986
0.0276351
0.0280284
0.0290722
0.0286071
0.0280399
0.0275922
0.0272388
0.0267606
0.0261603
0.0255418
0.0248142
0.0239732
0.0231323
0.0226094
0.0231386
0.0267626
0.0262573
0.0256191
0.0249228
0.0240038
0.0229464
0.0216887
0.0201567
0.0183845
0.0165028
0.0148347
0.0138814
0.0322272
0.0331076
0.0331835
0.0334261
0.033596
0.0338013
0.0339962
0.034161
0.0343258
0.0344904
0.0340821
0.0331674
0.0307513
0.0332517
0.0330908
0.0331508
0.0332039
0.0332568
0.0332864
0.0332587
0.0330724
0.0326584
0.0321337
0.0312135
0.0256673
0.031507
0.0319611
0.0320015
0.0320263
0.0320254
0.0319708
0.0317068
0.0313248
0.0309246
0.030392
0.0294297
0.0147569
0.0285597
0.030318
0.0304034
0.0304233
0.0303251
0.0300974
0.0297436
0.0294527
0.0290499
0.0283923
0.0274846
0.0316491
0.0305072
0.0295515
0.0289188
0.0285619
0.0284234
0.0283673
0.0284274
0.0287287
0.0291341
0.0298337
0.0309004
0.0301017
0.0293694
0.0287801
0.0284397
0.0282298
0.0280331
0.0277924
0.0276697
0.0275986
0.0276351
0.0280284
0.0290723
0.0286072
0.0280399
0.0275923
0.0272389
0.0267606
0.0261603
0.0255418
0.0248143
0.0239733
0.0231323
0.0226095
0.0231386
0.0267627
0.0262574
0.0256192
0.0249228
0.0240038
0.0229465
0.0216887
0.0201568
0.0183845
0.0165028
0.0148347
0.0138815
0.0322272
0.0331077
0.0331835
0.0334262
0.033596
0.0338013
0.0339963
0.0341611
0.0343258
0.0344904
0.0340822
0.0331675
0.0307513
0.0332517
0.0330908
0.0331508
0.033204
0.0332568
0.0332864
0.0332587
0.0330725
0.0326584
0.0321337
0.0312135
0.0256673
0.031507
0.0319611
0.0320015
0.0320263
0.0320254
0.0319708
0.0317068
0.0313248
0.0309246
0.030392
0.0294297
0.0147569
0.0285597
0.030318
0.0304034
0.0304233
0.0303251
0.0300974
0.0297436
0.0294527
0.0290499
0.0283923
0.0274846
0.0316491
0.0305073
0.0295515
0.0289188
0.0285619
0.0284234
0.0283673
0.0284274
0.0287287
0.0291341
0.0298337
0.0309004
0.0301018
0.0293694
0.0287801
0.0284397
0.0282298
0.0280331
0.0277924
0.0276697
0.0275986
0.0276351
0.0280284
0.0290722
0.0286072
0.0280399
0.0275923
0.0272389
0.0267606
0.0261603
0.0255418
0.0248142
0.0239732
0.0231323
0.0226094
0.0231386
0.0267627
0.0262574
0.0256191
0.0249228
0.0240038
0.0229464
0.0216887
0.0201567
0.0183845
0.0165028
0.0148347
0.0138815
0.0322272
0.0331076
0.0331835
0.0334261
0.033596
0.0338013
0.0339962
0.034161
0.0343258
0.0344904
0.0340821
0.0331674
0.0307513
0.0332517
0.0330908
0.0331508
0.0332039
0.0332568
0.0332863
0.0332587
0.0330724
0.0326584
0.0321337
0.0312135
0.0256673
0.0315069
0.031961
0.0320015
0.0320263
0.0320254
0.0319708
0.0317068
0.0313248
0.0309246
0.030392
0.0294297
0.0147569
0.0285597
0.0303179
0.0304033
0.0304232
0.0303251
0.0300974
0.0297436
0.0294527
0.0290498
0.0283923
0.0274846
0.0316491
0.0305072
0.0295515
0.0289188
0.0285619
0.0284234
0.0283672
0.0284274
0.0287287
0.029134
0.0298337
0.0309004
0.0301017
0.0293694
0.0287801
0.0284397
0.0282297
0.0280331
0.0277924
0.0276697
0.0275986
0.0276351
0.0280284
0.0290722
0.0286071
0.0280399
0.0275923
0.0272388
0.0267606
0.0261603
0.0255418
0.0248142
0.0239732
0.0231323
0.0226094
0.0231386
0.0267626
0.0262574
0.0256191
0.0249228
0.0240038
0.0229464
0.0216887
0.0201567
0.0183845
0.0165027
0.0148347
0.0138814
0.0322272
0.0331076
0.0331835
0.0334261
0.033596
0.0338013
0.0339962
0.034161
0.0343258
0.0344903
0.0340821
0.0331674
0.0307513
0.0332517
0.0330908
0.0331507
0.0332039
0.0332568
0.0332863
0.0332587
0.0330724
0.0326584
0.0321337
0.0312134
0.0256673
0.0315069
0.031961
0.0320014
0.0320262
0.0320254
0.0319708
0.0317068
0.0313248
0.0309246
0.0303919
0.0294296
0.0147569
0.0285597
0.0303179
0.0304033
0.0304232
0.0303251
0.0300974
0.0297436
0.0294527
0.0290498
0.0283923
0.0274846
0.0244105
0.023669
0.0226984
0.0216113
0.0202787
0.0186998
0.016793
0.0145135
0.0118673
0.0089373
0.00545981
0.00282744
0.0213428
0.0202961
0.0190223
0.0175614
0.0158125
0.0137663
0.0113644
0.00861375
0.00549026
0.00266792
0.00123293
0.00119998
0.0176379
0.0162834
0.0146846
0.0128418
0.0106823
0.00820751
0.00529239
0.00238469
0.000747528
0.000380502
0.000404341
0.000513265
0.0133447
0.0116676
0.00972903
0.00749776
0.00484087
0.00214602
0.000533414
0.000199866
0.000170904
0.000267945
0.000230449
0.000250255
0.00852232
0.00648762
0.00411771
0.00179624
0.000463412
0.000186336
0.000174821
0.000221922
0.000207246
0.000206802
0.000202658
0.000198902
0.00313985
0.00131206
0.000399313
0.000288222
0.00019845
0.000215317
0.000212138
0.000210806
0.000209936
0.000207787
0.000206095
0.00020383
0.000310402
0.000765257
0.000212
0.00021861
0.000217894
0.000217771
0.000217049
0.000215759
0.000214234
0.000212887
0.000211522
0.000209698
0.000222738
0.000226461
0.000222756
0.000222647
0.000222588
0.000222489
0.000221804
0.000220803
0.000219658
0.000218602
0.000217336
0.000215643
0.000227617
0.000226842
0.000226287
0.000225904
0.000225622
0.000225389
0.000225069
0.000224578
0.000223851
0.000222895
0.000221768
0.000220201
0.000225052
0.000224672
0.000224403
0.000224332
0.000224315
0.000224368
0.000224326
0.000224107
0.000223596
0.000222828
0.00022181
0.00022032
0.000191817
0.000193248
0.000194817
0.000196346
0.000198071
0.000199902
0.000201991
0.000203816
0.000205503
0.000207031
0.00020841
0.000208957
6.2027e-05
6.11857e-05
6.12828e-05
6.06278e-05
6.0703e-05
6.02077e-05
6.02793e-05
5.99651e-05
6.00417e-05
5.99504e-05
6.00317e-05
6.01038e-05
0.00432244
0.0246915
0.0284519
0.0284637
0.0284012
0.0281449
0.027865
0.0276378
0.0273328
0.0268366
0.0260281
0.0251625
0.00415934
0.0226791
0.0264214
0.0260948
0.0259154
0.0256922
0.0255117
0.0252714
0.0248285
0.0241171
0.0232144
0.0222679
0.00405139
0.0207191
0.0238022
0.0234385
0.0232823
0.0231318
0.02287
0.0224554
0.0217848
0.0208612
0.0198732
0.0188037
0.00393084
0.018531
0.0208384
0.0207088
0.0205326
0.0202202
0.0198057
0.0190976
0.0182051
0.0171819
0.0160531
0.0147854
0.00377464
0.0161856
0.0179075
0.0177673
0.0174452
0.0169065
0.0161789
0.015299
0.0142695
0.0130852
0.0117594
0.0102496
0.00355397
0.0137877
0.0150356
0.0145165
0.0139177
0.0131372
0.0122466
0.0111688
0.0099941
0.00861039
0.00703067
0.0051827
0.00328443
0.0108338
0.0118783
0.0106816
0.0101603
0.00909411
0.00807085
0.00670508
0.00528695
0.00363149
0.00210745
0.00082863
0.00292643
0.00762109
0.00832116
0.00664889
0.00614816
0.00457827
0.00353906
0.00210588
0.00117615
0.000444352
0.000245875
0.000466424
0.00238595
0.00376678
0.00415372
0.00247891
0.00216133
0.000906348
0.000641959
0.000351348
0.000237803
0.000242925
0.000227114
0.000229537
0.00177416
0.000882215
0.00102026
0.000407057
0.000370042
0.00028127
0.000223935
0.000221475
0.000226926
0.000226151
0.000226395
0.000225679
0.00115521
0.000155889
0.000189346
0.000157815
0.000171179
0.000168009
0.000181038
0.000181566
0.000184478
0.000186635
0.00018863
0.000190046
0.000401001
7.51841e-05
7.31478e-05
6.92538e-05
6.86631e-05
6.62007e-05
6.62357e-05
6.40235e-05
6.4344e-05
6.27835e-05
6.30033e-05
6.18822e-05
0.0244106
0.0236691
0.0226984
0.0216114
0.0202788
0.0186999
0.016793
0.0145135
0.0118673
0.00893731
0.00545981
0.00282744
0.0213428
0.0202962
0.0190224
0.0175614
0.0158126
0.0137664
0.0113644
0.00861378
0.00549027
0.00266793
0.00123293
0.00119999
0.0176379
0.0162834
0.0146846
0.0128418
0.0106823
0.00820753
0.00529242
0.0023847
0.000747534
0.000380507
0.000404344
0.000513268
0.0133447
0.0116676
0.00972906
0.00749779
0.0048409
0.00214604
0.000533423
0.000199872
0.000170908
0.00026795
0.000230454
0.000250259
0.00852236
0.00648766
0.00411774
0.00179626
0.00046342
0.000186339
0.000174821
0.000221924
0.000207248
0.000206805
0.000202661
0.000198905
0.00313988
0.00131208
0.000399319
0.000288217
0.000198449
0.000215317
0.000212137
0.000210805
0.000209935
0.000207787
0.000206095
0.000203829
0.000310387
0.000765287
0.000211999
0.000218609
0.000217893
0.00021777
0.000217048
0.000215758
0.000214233
0.000212886
0.000211521
0.000209698
0.000222737
0.00022646
0.000222755
0.000222646
0.000222587
0.000222489
0.000221803
0.000220802
0.000219658
0.000218601
0.000217336
0.000215643
0.000227617
0.000226841
0.000226286
0.000225903
0.000225622
0.000225389
0.000225068
0.000224578
0.000223851
0.000222895
0.000221768
0.0002202
0.000225051
0.000224672
0.000224403
0.000224332
0.000224315
0.000224368
0.000224326
0.000224107
0.000223596
0.000222827
0.000221809
0.00022032
0.000191805
0.000193248
0.000194817
0.000196346
0.000198071
0.000199902
0.000201991
0.000203816
0.000205503
0.00020703
0.00020841
0.000208957
6.2027e-05
6.11857e-05
6.12828e-05
6.06278e-05
6.0703e-05
6.02077e-05
6.02793e-05
5.99651e-05
6.00417e-05
5.99504e-05
6.00317e-05
6.01038e-05
0.00432244
0.0246915
0.0284519
0.0284637
0.0284012
0.0281449
0.027865
0.0276378
0.0273328
0.0268366
0.0260281
0.0251625
0.00415934
0.0226791
0.0264214
0.0260947
0.0259153
0.0256922
0.0255117
0.0252714
0.0248285
0.0241171
0.0232144
0.0222679
0.00405138
0.0207191
0.0238022
0.0234385
0.0232823
0.0231318
0.02287
0.0224554
0.0217848
0.0208612
0.0198731
0.0188037
0.00393084
0.0185309
0.0208384
0.0207088
0.0205326
0.0202202
0.0198056
0.0190976
0.0182051
0.0171819
0.0160531
0.0147854
0.00377464
0.0161856
0.0179075
0.0177673
0.0174452
0.0169064
0.0161789
0.015299
0.0142695
0.0130851
0.0117593
0.0102496
0.00355396
0.0137877
0.0150356
0.0145164
0.0139176
0.0131372
0.0122466
0.0111687
0.00999405
0.00861034
0.00703062
0.00518265
0.00328442
0.0108338
0.0118782
0.0106815
0.0101603
0.00909405
0.00807078
0.00670502
0.00528689
0.00363143
0.00210741
0.000828611
0.00292642
0.00762105
0.00832111
0.00664882
0.00614809
0.00457819
0.00353899
0.00210582
0.00117612
0.000444334
0.000245878
0.000466409
0.00238594
0.00376673
0.00415367
0.00247886
0.00216128
0.000906319
0.000641939
0.000351349
0.000237801
0.000242924
0.000227115
0.000229537
0.00177415
0.000882198
0.00102024
0.000407048
0.000370034
0.000281267
0.000223935
0.000221475
0.000226926
0.000226152
0.000226396
0.000225679
0.00115521
0.000155888
0.000189345
0.000157815
0.000171179
0.000168009
0.000181039
0.000181566
0.000184478
0.000186636
0.00018863
0.000190046
0.000400998
7.51842e-05
7.31477e-05
6.92538e-05
6.86631e-05
6.62008e-05
6.62358e-05
6.40235e-05
6.4344e-05
6.27835e-05
6.30034e-05
6.18823e-05
0.0244105
0.023669
0.0226984
0.0216113
0.0202787
0.0186998
0.016793
0.0145135
0.0118673
0.0089373
0.00545981
0.00282744
0.0213428
0.0202961
0.0190223
0.0175613
0.0158125
0.0137663
0.0113644
0.00861375
0.00549026
0.00266792
0.00123293
0.00119998
0.0176379
0.0162834
0.0146846
0.0128418
0.0106823
0.0082075
0.00529239
0.00238469
0.00074753
0.000380507
0.000404343
0.000513266
0.0133447
0.0116676
0.00972902
0.00749775
0.00484086
0.00214602
0.000533415
0.00019987
0.00017091
0.000267948
0.000230454
0.000250259
0.00852232
0.00648761
0.00411771
0.00179624
0.000463414
0.000186339
0.000174823
0.000221925
0.000207248
0.000206805
0.000202661
0.000198906
0.00313984
0.00131205
0.000399314
0.000288223
0.00019845
0.000215317
0.000212138
0.000210806
0.000209936
0.000207788
0.000206095
0.00020383
0.000310384
0.00076529
0.000211999
0.00021861
0.000217894
0.000217771
0.000217049
0.000215758
0.000214233
0.000212887
0.000211522
0.000209698
0.000222738
0.00022646
0.000222756
0.000222646
0.000222588
0.000222489
0.000221803
0.000220803
0.000219658
0.000218602
0.000217336
0.000215643
0.000227617
0.000226842
0.000226287
0.000225904
0.000225622
0.000225389
0.000225069
0.000224578
0.000223851
0.000222895
0.000221768
0.000220201
0.000225051
0.000224672
0.000224403
0.000224332
0.000224315
0.000224368
0.000224326
0.000224108
0.000223596
0.000222828
0.00022181
0.000220321
0.000191805
0.000193249
0.000194817
0.000196347
0.000198071
0.000199902
0.000201991
0.000203816
0.000205503
0.000207031
0.00020841
0.000208957
6.20271e-05
6.11857e-05
6.12829e-05
6.06279e-05
6.07031e-05
6.02078e-05
6.02794e-05
5.99652e-05
6.00418e-05
5.99505e-05
6.00318e-05
6.01039e-05
0.00432244
0.0246915
0.0284519
0.0284637
0.0284012
0.0281449
0.027865
0.0276378
0.0273328
0.0268366
0.0260281
0.0251625
0.00415934
0.0226791
0.0264214
0.0260947
0.0259153
0.0256922
0.0255117
0.0252714
0.0248285
0.0241171
0.0232143
0.0222679
0.00405138
0.0207191
0.0238022
0.0234385
0.0232822
0.0231318
0.02287
0.0224554
0.0217848
0.0208612
0.0198731
0.0188037
0.00393084
0.0185309
0.0208383
0.0207088
0.0205325
0.0202202
0.0198056
0.0190976
0.0182051
0.0171819
0.0160531
0.0147854
0.00377464
0.0161856
0.0179075
0.0177672
0.0174452
0.0169064
0.0161789
0.0152989
0.0142695
0.0130851
0.0117593
0.0102496
0.00355396
0.0137877
0.0150356
0.0145164
0.0139176
0.0131372
0.0122466
0.0111687
0.00999405
0.00861033
0.00703062
0.00518265
0.00328442
0.0108338
0.0118782
0.0106815
0.0101603
0.00909404
0.00807078
0.00670501
0.00528689
0.00363143
0.00210741
0.000828614
0.00292642
0.00762105
0.0083211
0.00664882
0.00614809
0.00457819
0.00353899
0.00210582
0.00117612
0.000444332
0.000245882
0.000466407
0.00238594
0.00376672
0.00415366
0.00247886
0.00216127
0.000906316
0.000641938
0.000351348
0.000237801
0.000242925
0.000227115
0.000229537
0.00177416
0.000882194
0.00102024
0.000407047
0.000370033
0.000281267
0.000223935
0.000221475
0.000226926
0.000226152
0.000226396
0.000225679
0.00115521
0.000155887
0.000189344
0.000157815
0.000171179
0.000168009
0.000181039
0.000181566
0.000184478
0.000186635
0.00018863
0.000190046
0.000401
7.51843e-05
7.31478e-05
6.92538e-05
6.86632e-05