/*--------------------------------*- C++ -*----------------------------------*\
| =========                 |                                                 |
| \\      /  F ield         | OpenFOAM: The Open Source CFD Toolbox           |
|  \\    /   O peration     | Version:  2212                                  |
|   \\  /    A nd           | Website:  www.openfoam.com                      |
|    \\/     M anipulation  |                                                 |
\*---------------------------------------------------------------------------*/
FoamFile
{
    version     2.0;
    format      ascii;
    arch        "LSB;label=32;scalar=64";
    class       volScalarField;
    location    "0.05";
    object      nut;
}
// * * * * * * * * * * * * * * * * * * * * * * * * * * * * * * * * * * * * * //

dimensions      [0 2 -1 0 0 0 0];

internalField   nonuniform List<scalar> 
3072
(
0.000293682
0.000619932
0.0006421
0.000639136
0.000615118
0.000591768
0.000648507
0.00106468
0.00153477
0.00170566
0.00177989
0.00183905
0.000477461
0.00122991
0.00167713
0.00158696
0.0010132
0.000857693
0.00156933
0.00195575
0.00301769
0.00422344
0.00594158
0.00773126
0.000624656
0.00224311
0.00271859
0.00233869
0.00209011
0.00227048
0.00349679
0.0051577
0.00751488
0.0102451
0.0128569
0.0152246
0.00078469
0.00321538
0.00310953
0.0027687
0.00302631
0.00441352
0.00681051
0.00951644
0.0126077
0.0157044
0.0184725
0.0208884
0.000905927
0.00391433
0.0039969
0.00393417
0.0050506
0.00753261
0.0104412
0.0135505
0.016786
0.019861
0.0226044
0.0249908
0.00101167
0.00481478
0.0054443
0.00580995
0.00767426
0.0104947
0.0135533
0.0167002
0.0198468
0.0228039
0.0254603
0.027783
0.0010914
0.00545545
0.00666279
0.00783124
0.0102388
0.0131856
0.0161918
0.0192321
0.0221788
0.0249254
0.0274046
0.0295929
0.00117737
0.00647371
0.00827961
0.0103997
0.01313
0.0160025
0.0188487
0.0216292
0.0242462
0.026651
0.0288194
0.0307349
0.00128225
0.00762834
0.0108664
0.0138312
0.0166266
0.0192009
0.0215996
0.0238394
0.0258984
0.0277828
0.029514
0.0310815
0.00143112
0.00909097
0.0135874
0.0168485
0.0194494
0.0215754
0.0234274
0.025106
0.0266467
0.0280876
0.0294632
0.0307656
0.00164001
0.00886812
0.014886
0.0183592
0.0207347
0.0226637
0.0242781
0.0256733
0.0269464
0.0281324
0.029262
0.0303616
0.00289858
0.00878915
0.0158541
0.0196461
0.0218185
0.0236807
0.0251479
0.0263617
0.0274338
0.0284101
0.0293229
0.0301961
0.00186931
0.00188792
0.00188952
0.00188874
0.00187271
0.00183801
0.00178372
0.0017055
0.00159703
0.00145899
0.00126199
0.000611792
0.00947444
0.0109071
0.0117698
0.0119732
0.0116642
0.0109496
0.00982136
0.00830878
0.00641365
0.00390763
0.00186426
0.00103855
0.0172009
0.0186176
0.0193454
0.0194312
0.0190025
0.0179884
0.0163812
0.0141403
0.0112425
0.00767655
0.00342315
0.0013648
0.022863
0.0243274
0.0252216
0.0255538
0.025297
0.0243797
0.0227183
0.0201645
0.0165863
0.0118818
0.0058894
0.00166664
0.0269714
0.0285055
0.0295599
0.0301047
0.0300917
0.0294473
0.0280339
0.0256105
0.021731
0.0161855
0.00864906
0.00196206
0.0297435
0.0313202
0.0324965
0.0332495
0.0335528
0.0333292
0.0323852
0.0303602
0.0267057
0.0206775
0.0118553
0.0022682
0.031467
0.0330087
0.0342124
0.0350893
0.0356523
0.0358553
0.0355171
0.034202
0.0311076
0.0250615
0.0152457
0.00258576
0.0323847
0.0337648
0.0348891
0.0358001
0.0365318
0.037087
0.0373514
0.0369079
0.0347608
0.0291033
0.0183597
0.00293911
0.0324728
0.0336833
0.034729
0.0356373
0.0364593
0.0372497
0.037995
0.0384137
0.0375006
0.0327947
0.0211966
0.00332339
0.031972
0.0330552
0.0340352
0.034921
0.035774
0.0366742
0.0376864
0.0387525
0.0391235
0.0360908
0.0244037
0.00373101
0.0314004
0.0323712
0.0332758
0.0341
0.0348805
0.0356943
0.0367496
0.0380545
0.0392624
0.0382408
0.0280991
0.00417953
0.0310312
0.0318282
0.0325909
0.0333378
0.0341109
0.0348361
0.0355785
0.0368114
0.0384505
0.0392276
0.0320115
0.00469682
0.000275925
0.000584839
0.000610675
0.000607527
0.000590799
0.000560375
0.000589874
0.000864406
0.00139666
0.00160022
0.00168078
0.0017397
0.000448415
0.00116142
0.00162003
0.00161034
0.00111025
0.000698802
0.00136886
0.00170779
0.00252035
0.00368556
0.00519854
0.00684042
0.00058473
0.00209153
0.00268396
0.00239454
0.00211243
0.00202932
0.00289846
0.00437375
0.00642767
0.00898573
0.0114554
0.0136924
0.00073472
0.00309915
0.00307332
0.00267808
0.00271686
0.00355118
0.00571887
0.00823652
0.0110674
0.0140139
0.0166595
0.018972
0.000851483
0.00367714
0.00367667
0.00348156
0.00414285
0.00623773
0.00908932
0.0119529
0.0149937
0.0179213
0.0205407
0.0228287
0.000954541
0.00441932
0.00482875
0.00495257
0.00648688
0.00917389
0.0120616
0.0150136
0.0179131
0.020713
0.023241
0.025462
0.00103829
0.0050548
0.00596812
0.00689404
0.00910008
0.01189
0.0147162
0.0175176
0.0202577
0.0228185
0.0251382
0.0271972
0.00113021
0.00611395
0.0077018
0.00967507
0.012182
0.0148218
0.0174142
0.0199305
0.0223318
0.0245419
0.0265352
0.0283056
0.00123956
0.00743665
0.0104365
0.013197
0.0157187
0.0180184
0.020146
0.0221293
0.0239678
0.025686
0.027233
0.0286342
0.00139744
0.00899366
0.0130658
0.0159999
0.0183391
0.0202125
0.0218382
0.0233025
0.0246624
0.0259643
0.0271831
0.0283268
0.00160259
0.00856133
0.0141197
0.0173153
0.0194665
0.0211701
0.0225749
0.0237858
0.0248899
0.0259382
0.0269453
0.0279196
0.00281795
0.00830296
0.0149207
0.0184237
0.0203155
0.0219487
0.0232111
0.0242672
0.0252144
0.0260962
0.0269394
0.0277591
0.00177282
0.00179235
0.00179677
0.00179652
0.00178757
0.0017557
0.00170921
0.00163672
0.00153833
0.00140723
0.00121936
0.000589109
0.00851406
0.0099105
0.0107965
0.0110537
0.0107499
0.0101144
0.00908853
0.00772326
0.00597625
0.00366635
0.00177491
0.00100353
0.0156153
0.0170042
0.0177552
0.0179051
0.017532
0.0166272
0.0151673
0.0131195
0.0104624
0.00717342
0.00322595
0.00132141
0.0208917
0.0223244
0.0232342
0.0236096
0.0234261
0.0226199
0.0211126
0.0187742
0.0154791
0.0111448
0.00555319
0.0016133
0.0247467
0.0262493
0.0273081
0.0278905
0.0279468
0.0274059
0.0261421
0.0239342
0.0203157
0.0151725
0.0081467
0.00190027
0.0273529
0.0288923
0.0300634
0.0308408
0.0311904
0.0310418
0.0302151
0.0283762
0.025019
0.0194074
0.0111966
0.00219715
0.0289812
0.0304748
0.0316684
0.0325626
0.0331641
0.0334301
0.03319
0.0320318
0.0292006
0.0235847
0.0144338
0.00250554
0.0298525
0.0311799
0.0322896
0.0332085
0.0339691
0.0345735
0.0349147
0.0345965
0.0326766
0.0274581
0.0174693
0.00284752
0.0299061
0.031069
0.032105
0.0330227
0.0338664
0.0346937
0.0354961
0.0360086
0.0352783
0.0309821
0.0201989
0.00322426
0.0294163
0.0304637
0.0314241
0.0323162
0.0331836
0.0341179
0.0351752
0.0363085
0.0368346
0.0340874
0.0233204
0.00362658
0.028896
0.0298406
0.0307417
0.0315876
0.0323821
0.0332075
0.0342947
0.0357094
0.0370146
0.036362
0.0270439
0.0040768
0.0285718
0.0293732
0.030155
0.0309736
0.0317977
0.0325112
0.0332944
0.0345238
0.0362353
0.0373212
0.0311043
0.00461377
0.000293679
0.000619925
0.000642094
0.00063913
0.000615113
0.000591762
0.000648498
0.00106466
0.00153476
0.00170566
0.00177988
0.00183904
0.000477457
0.00122991
0.00167713
0.00158698
0.00101321
0.000857674
0.00156931
0.00195572
0.00301764
0.00422339
0.00594151
0.00773118
0.000624652
0.0022431
0.00271861
0.0023387
0.00209014
0.00227044
0.00349672
0.00515761
0.00751477
0.010245
0.0128568
0.0152244
0.000784682
0.00321541
0.00310955
0.00276871
0.00302627
0.00441339
0.00681037
0.00951628
0.0126075
0.0157043
0.0184723
0.0208882
0.000905918
0.00391431
0.00399684
0.00393409
0.00505044
0.0075324
0.010441
0.0135503
0.0167858
0.0198608
0.0226042
0.0249907
0.00101165
0.0048147
0.00544416
0.00580975
0.00767402
0.0104945
0.013553
0.0167
0.0198465
0.0228037
0.0254601
0.0277828
0.00109139
0.00545534
0.00666258
0.00783097
0.0102385
0.0131854
0.0161915
0.0192318
0.0221786
0.0249252
0.0274043
0.0295927
0.00117736
0.00647359
0.0082794
0.0103994
0.0131298
0.0160022
0.0188485
0.021629
0.0242459
0.0266507
0.0288192
0.0307347
0.00128224
0.00762827
0.0108663
0.013831
0.0166264
0.0192007
0.0215994
0.0238392
0.0258982
0.0277825
0.0295138
0.0310813
0.00143112
0.00909098
0.0135874
0.0168485
0.0194493
0.0215752
0.0234272
0.0251058
0.0266465
0.0280874
0.029463
0.0307654
0.00164001
0.00886813
0.014886
0.0183591
0.0207346
0.0226636
0.024278
0.0256731
0.0269462
0.0281322
0.0292618
0.0303614
0.00289858
0.00878916
0.0158541
0.0196461
0.0218185
0.0236807
0.0251478
0.0263616
0.0274337
0.0284099
0.0293227
0.0301959
0.0018693
0.00188791
0.00188952
0.00188873
0.0018727
0.00183801
0.00178372
0.0017055
0.00159703
0.00145899
0.00126199
0.000611792
0.00947436
0.0109071
0.0117697
0.0119731
0.0116642
0.0109495
0.00982131
0.00830874
0.00641363
0.00390762
0.00186425
0.00103855
0.0172008
0.0186175
0.0193453
0.0194311
0.0190024
0.0179883
0.0163811
0.0141403
0.0112424
0.00767652
0.00342314
0.0013648
0.0228628
0.0243272
0.0252215
0.0255536
0.0252969
0.0243796
0.0227182
0.0201644
0.0165862
0.0118818
0.00588938
0.00166664
0.0269713
0.0285053
0.0295597
0.0301045
0.0300916
0.0294472
0.0280337
0.0256104
0.021731
0.0161855
0.00864904
0.00196206
0.0297433
0.03132
0.0324963
0.0332493
0.0335526
0.033329
0.0323851
0.03036
0.0267056
0.0206775
0.0118553
0.0022682
0.0314668
0.0330085
0.0342122
0.0350891
0.0356521
0.0358551
0.035517
0.0342018
0.0311074
0.0250614
0.0152457
0.00258576
0.0323845
0.0337646
0.0348888
0.0357998
0.0365316
0.0370868
0.0373512
0.0369077
0.0347606
0.0291032
0.0183596
0.00293911
0.0324725
0.0336831
0.0347287
0.035637
0.0364591
0.0372495
0.0379947
0.0384135
0.0375005
0.0327946
0.0211966
0.00332339
0.0319718
0.033055
0.034035
0.0349207
0.0357738
0.036674
0.0376862
0.0387522
0.0391233
0.0360907
0.0244036
0.00373101
0.0314002
0.032371
0.0332756
0.0340997
0.0348803
0.0356941
0.0367494
0.0380543
0.0392622
0.0382406
0.0280991
0.00417952
0.031031
0.031828
0.0325908
0.0333377
0.0341107
0.034836
0.0355784
0.0368112
0.0384503
0.0392274
0.0320114
0.00469681
0.000275925
0.00058484
0.000610675
0.000607527
0.0005908
0.000560376
0.000589874
0.000864406
0.00139666
0.00160022
0.00168078
0.0017397
0.000448415
0.00116142
0.00162002
0.00161034
0.00111025
0.000698799
0.00136886
0.00170779
0.00252035
0.00368556
0.00519854
0.00684042
0.00058473
0.00209153
0.00268396
0.00239454
0.00211243
0.00202932
0.00289846
0.00437375
0.00642767
0.00898573
0.0114554
0.0136924
0.000734721
0.00309914
0.00307332
0.00267808
0.00271686
0.00355118
0.00571887
0.00823652
0.0110674
0.014014
0.0166595
0.018972
0.000851483
0.00367714
0.00367666
0.00348156
0.00414285
0.00623773
0.00908931
0.0119529
0.0149937
0.0179213
0.0205407
0.0228287
0.000954541
0.00441932
0.00482875
0.00495257
0.00648687
0.00917388
0.0120616
0.0150136
0.0179131
0.020713
0.023241
0.025462
0.00103829
0.0050548
0.00596813
0.00689404
0.00910008
0.01189
0.0147162
0.0175176
0.0202577
0.0228185
0.0251382
0.0271972
0.00113021
0.00611395
0.00770181
0.00967507
0.012182
0.0148218
0.0174142
0.0199305
0.0223318
0.0245419
0.0265352
0.0283056
0.00123956
0.00743666
0.0104365
0.013197
0.0157187
0.0180184
0.020146
0.0221293
0.0239678
0.025686
0.027233
0.0286343
0.00139744
0.00899367
0.0130658
0.0159999
0.0183391
0.0202126
0.0218382
0.0233025
0.0246624
0.0259643
0.0271831
0.0283268
0.00160259
0.00856133
0.0141197
0.0173153
0.0194665
0.0211701
0.0225749
0.0237858
0.0248899
0.0259382
0.0269453
0.0279196
0.00281795
0.00830295
0.0149207
0.0184236
0.0203155
0.0219487
0.0232111
0.0242672
0.0252144
0.0260962
0.0269394
0.0277591
0.00177282
0.00179236
0.00179677
0.00179652
0.00178757
0.0017557
0.00170921
0.00163672
0.00153833
0.00140723
0.00121936
0.000589109
0.00851406
0.00991051
0.0107965
0.0110537
0.0107499
0.0101144
0.00908854
0.00772326
0.00597626
0.00366635
0.00177491
0.00100353
0.0156153
0.0170042
0.0177552
0.0179051
0.017532
0.0166272
0.0151674
0.0131195
0.0104624
0.00717343
0.00322595
0.00132141
0.0208917
0.0223244
0.0232342
0.0236096
0.0234261
0.0226199
0.0211126
0.0187742
0.0154791
0.0111448
0.00555319
0.0016133
0.0247467
0.0262493
0.0273081
0.0278905
0.0279468
0.0274059
0.0261421
0.0239342
0.0203157
0.0151725
0.00814671
0.00190027
0.0273529
0.0288923
0.0300634
0.0308408
0.0311905
0.0310418
0.0302152
0.0283762
0.025019
0.0194074
0.0111966
0.00219715
0.0289812
0.0304748
0.0316684
0.0325626
0.0331641
0.0334301
0.03319
0.0320318
0.0292006
0.0235847
0.0144339
0.00250554
0.0298526
0.0311799
0.0322896
0.0332085
0.0339691
0.0345735
0.0349148
0.0345966
0.0326767
0.0274581
0.0174693
0.00284753
0.0299061
0.0310691
0.0321051
0.0330227
0.0338664
0.0346937
0.0354961
0.0360086
0.0352783
0.0309821
0.0201989
0.00322426
0.0294163
0.0304638
0.0314242
0.0323162
0.0331836
0.0341179
0.0351752
0.0363085
0.0368347
0.0340874
0.0233204
0.00362658
0.0288961
0.0298406
0.0307417
0.0315876
0.0323822
0.0332075
0.0342948
0.0357095
0.0370146
0.0363621
0.0270439
0.0040768
0.0285718
0.0293732
0.030155
0.0309737
0.0317977
0.0325112
0.0332944
0.0345238
0.0362354
0.0373213
0.0311043
0.00461378
0.0176599
0.0185045
0.0201121
0.0219122
0.0236105
0.0251534
0.0263492
0.0273403
0.028225
0.0289983
0.0296969
0.0303464
0.027687
0.0258893
0.0255155
0.0258526
0.0265787
0.0272998
0.0278243
0.0285042
0.0292154
0.0297412
0.0301844
0.0305907
0.0340444
0.0322507
0.0309965
0.0302367
0.0299466
0.0298968
0.0299611
0.0300695
0.0301832
0.0302963
0.0304076
0.0305803
0.0361826
0.0349191
0.0337378
0.0327411
0.0319716
0.0313769
0.0309083
0.0306561
0.0304324
0.0302205
0.0300418
0.0298405
0.0309553
0.0315346
0.032091
0.0326375
0.033228
0.0339715
0.0347343
0.0355743
0.0370324
0.0390096
0.0398663
0.0185943
0.0309512
0.031294
0.0316336
0.031992
0.0323909
0.0328676
0.0335812
0.0343006
0.0353789
0.0373656
0.0414836
0.0305711
0.0306653
0.0307659
0.0308954
0.0310992
0.031389
0.0317805
0.0323428
0.0331308
0.0340911
0.0355722
0.0393831
0.035909
0.0296912
0.0296586
0.0297635
0.030092
0.0305369
0.0310944
0.03178
0.0327135
0.0337576
0.0348655
0.037309
0.0370771
0.0166342
0.017156
0.0186178
0.0202121
0.0216897
0.0230043
0.0240328
0.024941
0.0257779
0.0265304
0.0272317
0.0279038
0.026413
0.0243183
0.0236436
0.0237297
0.0241802
0.0246892
0.0252203
0.0259064
0.0266158
0.027179
0.0277085
0.0282021
0.0329005
0.0306862
0.028951
0.0279526
0.0274398
0.0272768
0.0273183
0.0274747
0.0277042
0.0278934
0.0280978
0.0283339
0.0352241
0.0334705
0.0319569
0.0306634
0.029688
0.0290554
0.0286268
0.02831
0.0281655
0.0280697
0.0279963
0.0279429
0.0285594
0.0291999
0.029819
0.030435
0.031083
0.0318477
0.0324916
0.0334483
0.0350208
0.0372526
0.0392234
0.0190323
0.0286808
0.0291393
0.0295666
0.0299838
0.0304094
0.030985
0.0316119
0.0322749
0.0335419
0.0357639
0.0406445
0.0312994
0.0286189
0.0288666
0.0290511
0.0292299
0.0294497
0.0298211
0.0304077
0.0310394
0.0322692
0.0338926
0.0381228
0.0363947
0.0278962
0.0278266
0.0278051
0.0278548
0.0280291
0.0285095
0.0291662
0.0299665
0.0313409
0.0327323
0.0358904
0.0368586
0.0176598
0.0185045
0.0201121
0.0219121
0.0236105
0.0251534
0.0263492
0.0273403
0.0282249
0.0289983
0.0296968
0.0303463
0.0276869
0.0258892
0.0255155
0.0258525
0.0265786
0.0272998
0.0278242
0.0285042
0.0292153
0.0297412
0.0301843
0.0305906
0.0340443
0.0322507
0.0309965
0.0302366
0.0299465
0.0298967
0.029961
0.0300695
0.0301831
0.0302962
0.0304075
0.0305803
0.0361825
0.034919
0.0337377
0.032741
0.0319716
0.0313768
0.0309083
0.030656
0.0304324
0.0302205
0.0300417
0.0298405
0.0309552
0.0315344
0.0320909
0.0326374
0.0332279
0.0339714
0.0347342
0.0355742
0.0370322
0.0390094
0.0398662
0.0185942
0.0309511
0.0312939
0.0316335
0.0319919
0.0323908
0.0328675
0.033581
0.0343005
0.0353788
0.0373655
0.0414835
0.030571
0.0306652
0.0307658
0.0308953
0.0310991
0.031389
0.0317804
0.0323427
0.0331307
0.0340909
0.0355721
0.039383
0.0359088
0.0296911
0.0296585
0.0297634
0.0300919
0.0305368
0.0310943
0.0317799
0.0327134
0.0337575
0.0348653
0.0373088
0.037077
0.0166342
0.0171559
0.0186178
0.0202121
0.0216897
0.0230043
0.0240328
0.0249409
0.0257779
0.0265304
0.0272317
0.0279038
0.0264129
0.0243183
0.0236436
0.0237297
0.0241802
0.0246891
0.0252203
0.0259064
0.0266158
0.027179
0.0277085
0.0282021
0.0329004
0.0306861
0.0289509
0.0279525
0.0274397
0.0272768
0.0273183
0.0274747
0.0277041
0.0278934
0.0280978
0.0283339
0.035224
0.0334704
0.0319568
0.0306633
0.029688
0.0290554
0.0286268
0.02831
0.0281655
0.0280697
0.0279963
0.0279429
0.0285594
0.0292
0.029819
0.030435
0.031083
0.0318478
0.0324917
0.0334483
0.0350209
0.0372527
0.0392235
0.0190323
0.0286809
0.0291393
0.0295667
0.0299838
0.0304094
0.0309851
0.031612
0.032275
0.0335419
0.035764
0.0406446
0.0312995
0.0286189
0.0288666
0.0290511
0.02923
0.0294497
0.0298211
0.0304078
0.0310395
0.0322693
0.0338927
0.0381229
0.0363948
0.0278962
0.0278267
0.0278052
0.0278548
0.0280292
0.0285096
0.0291663
0.0299666
0.031341
0.0327325
0.0358905
0.0368588
0.0347747
0.0336974
0.032638
0.031723
0.0309848
0.0303804
0.0298685
0.0294867
0.0291029
0.0287002
0.02832
0.0280702
0.0329156
0.0319852
0.0310252
0.0301636
0.0294261
0.0287899
0.0282219
0.027705
0.0271369
0.0264737
0.0257441
0.0252138
0.0309478
0.030157
0.0292886
0.0284713
0.0277347
0.0270633
0.0264228
0.0257656
0.0249765
0.023918
0.022441
0.0208363
0.0290285
0.028365
0.0275862
0.026811
0.0260755
0.0253692
0.0246534
0.0238558
0.0228153
0.0211921
0.0182292
0.0135823
0.0282255
0.0288197
0.0295536
0.0304231
0.0313618
0.0322392
0.0331514
0.0340302
0.0348438
0.0356178
0.0360361
0.0355717
0.0256744
0.0272447
0.0287611
0.0301703
0.0314909
0.0326045
0.0335578
0.0343225
0.0348777
0.0350936
0.0350434
0.0342882
0.0213583
0.0249241
0.0275777
0.0295398
0.0311038
0.0323335
0.0332813
0.0339361
0.0342219
0.0342185
0.0339243
0.0328863
0.0136051
0.0216516
0.0260223
0.0285746
0.0303292
0.0316149
0.0325429
0.0330502
0.0332077
0.0331107
0.0326153
0.0314567
0.0338791
0.0322461
0.0308684
0.029723
0.0288509
0.0282156
0.0277039
0.0272638
0.0269245
0.0266152
0.026352
0.0261763
0.0325928
0.0310064
0.0296364
0.0284774
0.0275303
0.0267494
0.0260562
0.0254079
0.0247969
0.0241793
0.0235907
0.0231781
0.0312824
0.0297033
0.0282857
0.0270433
0.0259659
0.025012
0.0241201
0.0232423
0.0223329
0.0212987
0.0200768
0.0189613
0.0299233
0.0283507
0.0268819
0.025549
0.0243449
0.0232349
0.0221653
0.0210717
0.0198512
0.0182589
0.0157345
0.0120811
0.0261212
0.026141
0.0262294
0.0264765
0.0269686
0.0277789
0.028828
0.0300696
0.0315966
0.0331962
0.0348836
0.0353497
0.0232135
0.0236095
0.0239729
0.0244585
0.0252002
0.0262386
0.0275046
0.0289284
0.0304734
0.0319588
0.0330758
0.033383
0.0190428
0.02061
0.0215926
0.0224142
0.0233784
0.0245611
0.025918
0.0273794
0.028864
0.0301889
0.0310511
0.0313026
0.0120762
0.0170155
0.0192305
0.0205139
0.0216829
0.0229433
0.0243084
0.025732
0.0271277
0.0283022
0.029046
0.029287
0.0347745
0.0336973
0.0326379
0.0317229
0.0309848
0.0303804
0.0298685
0.0294867
0.0291028
0.0287001
0.0283199
0.0280702
0.0329155
0.031985
0.0310251
0.0301635
0.0294261
0.0287898
0.0282218
0.027705
0.0271369
0.0264736
0.0257441
0.0252138
0.0309477
0.0301569
0.0292885
0.0284712
0.0277346
0.0270632
0.0264227
0.0257655
0.0249764
0.0239179
0.0224409
0.0208362
0.0290283
0.0283649
0.027586
0.0268108
0.0260754
0.0253691
0.0246534
0.0238557
0.0228152
0.021192
0.0182292
0.0135822
0.0282254
0.0288196
0.0295536
0.030423
0.0313617
0.0322391
0.0331512
0.03403
0.0348437
0.0356176
0.0360359
0.0355716
0.0256743
0.0272446
0.028761
0.0301702
0.0314908
0.0326044
0.0335577
0.0343223
0.0348776
0.0350935
0.0350433
0.0342881
0.0213582
0.024924
0.0275776
0.0295397
0.0311037
0.0323333
0.0332812
0.033936
0.0342218
0.0342184
0.0339243
0.0328862
0.013605
0.0216515
0.0260222
0.0285745
0.0303291
0.0316148
0.0325427
0.0330501
0.0332076
0.0331107
0.0326152
0.0314566
0.0338791
0.032246
0.0308684
0.029723
0.0288509
0.0282156
0.027704
0.0272638
0.0269245
0.0266152
0.026352
0.0261764
0.0325927
0.0310063
0.0296364
0.0284774
0.0275303
0.0267494
0.0260562
0.0254079
0.024797
0.0241794
0.0235907
0.0231781
0.0312823
0.0297033
0.0282858
0.0270434
0.025966
0.025012
0.0241202
0.0232424
0.022333
0.0212988
0.0200769
0.0189614
0.0299233
0.0283507
0.0268819
0.0255491
0.024345
0.0232351
0.0221654
0.0210719
0.0198514
0.018259
0.0157346
0.0120811
0.0261212
0.0261411
0.0262296
0.0264766
0.0269687
0.0277791
0.0288282
0.0300697
0.0315968
0.0331963
0.0348837
0.0353498
0.0232136
0.0236097
0.0239731
0.0244588
0.0252004
0.0262388
0.0275048
0.0289286
0.0304736
0.031959
0.033076
0.0333831
0.0190429
0.0206102
0.0215929
0.0224145
0.0233787
0.0245614
0.0259183
0.0273797
0.0288642
0.0301891
0.0310513
0.0313028
0.0120762
0.0170158
0.019231
0.0205144
0.0216834
0.0229437
0.0243088
0.0257323
0.0271279
0.0283024
0.0290462
0.0292872
0.027218
0.0266659
0.0259689
0.025235
0.0245035
0.0237669
0.0229817
0.0220557
0.0207802
0.018537
0.0134261
0.00297333
0.025529
0.02507
0.0244462
0.0237528
0.0230292
0.0222692
0.0214264
0.0203962
0.0189438
0.0164723
0.0115358
0.00206541
0.0239508
0.0235683
0.023009
0.022355
0.0216435
0.020869
0.0199839
0.018881
0.0173332
0.0148386
0.0103553
0.0016876
0.0224595
0.0221396
0.021637
0.0210216
0.0203271
0.0195478
0.0186374
0.0174939
0.0159151
0.0135031
0.00947696
0.00150394
0.0210176
0.0207496
0.0202978
0.0197212
0.0190493
0.0182761
0.0173581
0.0162032
0.0146404
0.0123595
0.00872773
0.00137286
0.0195658
0.019343
0.0189385
0.0184028
0.017761
0.0170065
0.0160997
0.0149603
0.0134483
0.0113208
0.00802862
0.00125999
0.0180086
0.017828
0.0174708
0.0169814
0.0163804
0.0156603
0.0147858
0.0136893
0.0122583
0.0103011
0.00732597
0.00115578
0.016189
0.0160514
0.0157456
0.0153127
0.0147687
0.0141047
0.0132896
0.0122687
0.010954
0.00919649
0.00656237
0.0010541
0.0138514
0.0137598
0.0135149
0.013156
0.0126937
0.0121175
0.0114007
0.0105025
0.00935712
0.00785941
0.00565213
0.000947821
0.0105946
0.0105515
0.0103815
0.0101232
0.0097802
0.00933941
0.00878084
0.00808003
0.00718462
0.00605203
0.00444357
0.000825898
0.00588531
0.0058828
0.00580045
0.00567521
0.00550157
0.00526441
0.00495422
0.00456753
0.00404698
0.00342504
0.0026255
0.000671768
0.00062964
0.000625766
0.000615186
0.00060033
0.000580978
0.000557057
0.000527867
0.000490742
0.000443561
0.000383778
0.000305877
0.000145555
0.00308375
0.0176424
0.024276
0.0273785
0.029284
0.030595
0.0314688
0.0318866
0.0320126
0.031826
0.0311669
0.0300049
0.00241995
0.0158329
0.0226897
0.0260571
0.0280611
0.0293869
0.0301903
0.0305703
0.0306595
0.0304003
0.0296717
0.0285415
0.00214203
0.0146019
0.0212219
0.0246702
0.02672
0.0280365
0.0287991
0.0291526
0.0292008
0.0288872
0.0281493
0.0270734
0.00198053
0.0135816
0.019832
0.0232431
0.0252934
0.0265855
0.0273171
0.027656
0.0276633
0.0273122
0.0266002
0.0255934
0.00185569
0.0126341
0.0184732
0.0217726
0.0237863
0.0250405
0.0257482
0.0260633
0.0260356
0.0256728
0.0250031
0.0240714
0.00174347
0.0116872
0.0170938
0.0202278
0.022168
0.023371
0.0240494
0.0243341
0.0242774
0.0239183
0.0232989
0.0224424
0.0016326
0.0106873
0.0156281
0.0185415
0.0203651
0.021496
0.0221279
0.0223764
0.0222956
0.0219464
0.0213733
0.0205963
0.00151594
0.00956729
0.0139755
0.0165892
0.0182361
0.0192557
0.0198162
0.0200187
0.0199161
0.0195784
0.0190456
0.0183606
0.00139097
0.00821747
0.0119527
0.0141445
0.0155246
0.0163738
0.0168274
0.0169703
0.0168514
0.0165289
0.0160435
0.0154813
0.00124404
0.00647581
0.00923427
0.0108115
0.0118002
0.0124023
0.0127083
0.0127867
0.0126658
0.0123786
0.0119916
0.0115823
0.00105736
0.00393478
0.00525579
0.00600616
0.00648638
0.00677789
0.00691236
0.00694726
0.00685863
0.00669567
0.00648004
0.00624621
0.00024994
0.000434254
0.000554059
0.000628279
0.000678762
0.000712989
0.000733127
0.000741277
0.000737817
0.000727402
0.000711933
0.000692416
0.0285374
0.0269896
0.0254946
0.0240977
0.0227991
0.0215709
0.0203615
0.0190886
0.0175891
0.0154181
0.0110319
0.00249324
0.0271482
0.0256513
0.0241671
0.0227466
0.0213975
0.0200974
0.0187955
0.0173977
0.0157153
0.0132918
0.00893855
0.00152186
0.0257652
0.0243442
0.0229071
0.0215049
0.0201499
0.0188245
0.0174797
0.016019
0.0142576
0.0118043
0.00779894
0.00114742
0.0243781
0.023051
0.0216891
0.0203397
0.0190172
0.0177076
0.0163656
0.0149002
0.0131477
0.0107998
0.00723798
0.00100615
0.0229502
0.0217278
0.0204586
0.019186
0.0179246
0.0166634
0.0153618
0.0139385
0.0122565
0.0100777
0.00692829
0.000944486
0.0214179
0.0203013
0.0191335
0.0179529
0.0167733
0.0155852
0.0143533
0.0130068
0.0114329
0.00944176
0.00663044
0.000901613
0.0196758
0.0186619
0.0176008
0.0165245
0.0154442
0.0143511
0.0132141
0.0119719
0.0105314
0.00873143
0.00624778
0.000869419
0.01756
0.0166507
0.015707
0.0147526
0.0137936
0.012821
0.011807
0.0106983
0.00941886
0.00782203
0.00570793
0.000831126
0.0148233
0.0140429
0.0132433
0.0124425
0.0116393
0.0108237
0.0099713
0.00903615
0.00796192
0.0066027
0.00492439
0.000782373
0.0110856
0.010505
0.00989732
0.00930265
0.00870686
0.00810028
0.00746326
0.00675705
0.00595515
0.00488912
0.0037214
0.000712844
0.00598132
0.00570033
0.00539745
0.00508557
0.0047691
0.00444531
0.0041037
0.00371317
0.00329449
0.00266326
0.0020817
0.000612009
0.000668761
0.00064202
0.000612721
0.00058215
0.000550924
0.000518747
0.000485411
0.000449196
0.000410101
0.000357717
0.000305588
0.000189572
0.00268861
0.012902
0.0169793
0.0187948
0.0201459
0.0214362
0.0227627
0.0241134
0.0254098
0.0264701
0.0271495
0.027398
0.00194565
0.0108915
0.0151626
0.0172916
0.0187539
0.0200393
0.021305
0.0225722
0.023774
0.0247459
0.0253847
0.0256456
0.00158653
0.00956249
0.0137064
0.0159601
0.017472
0.0187287
0.0199274
0.0211142
0.0222331
0.023135
0.0237445
0.024017
0.00137217
0.00856117
0.0124903
0.0147476
0.0162546
0.017466
0.0186002
0.0197178
0.0207694
0.0216163
0.0222032
0.0224857
0.001219
0.00773228
0.0114099
0.0135931
0.0150491
0.0162013
0.0172762
0.0183395
0.0193419
0.0201484
0.020719
0.021011
0.00110101
0.00697608
0.0103881
0.0124347
0.0137962
0.0148723
0.0158903
0.0169131
0.0178851
0.0186659
0.0192266
0.0195304
0.00100009
0.00625427
0.00935849
0.0112068
0.0124279
0.0134034
0.0143572
0.0153459
0.0163022
0.0170697
0.0176253
0.0179456
0.000906291
0.00553035
0.00824922
0.00983037
0.0108604
0.0117007
0.0125678
0.013512
0.0144544
0.0152101
0.0157575
0.0160981
0.000812148
0.00474015
0.00695771
0.00819464
0.00898129
0.00964323
0.0103809
0.011242
0.0121431
0.0128648
0.0133804
0.0137349
0.000707834
0.0037523
0.0053042
0.00610048
0.00658984
0.0070219
0.0075568
0.00825034
0.00904449
0.00969966
0.0101376
0.0104651
0.000577725
0.00228025
0.00301012
0.00332666
0.00350876
0.00368581
0.00396093
0.00439041
0.00488841
0.00530661
0.00559849
0.00579317
0.000125113
0.000264634
0.000326544
0.000362013
0.000389603
0.000421641
0.000462838
0.000510822
0.000553198
0.000585953
0.000610242
0.000624932
0.0272179
0.0266657
0.0259687
0.0252349
0.0245034
0.0237668
0.0229816
0.0220556
0.0207801
0.0185369
0.013426
0.00297333
0.0255288
0.0250698
0.024446
0.0237526
0.023029
0.0222691
0.0214263
0.0203961
0.0189437
0.0164722
0.0115357
0.00206541
0.0239505
0.023568
0.0230088
0.0223548
0.0216433
0.0208688
0.0199837
0.0188809
0.0173331
0.0148385
0.0103552
0.00168759
0.0224593
0.0221393
0.0216368
0.0210214
0.0203269
0.0195476
0.0186372
0.0174937
0.0159149
0.0135029
0.00947682
0.00150392
0.0210173
0.0207493
0.0202975
0.019721
0.0190491
0.0182759
0.0173579
0.016203
0.0146402
0.0123593
0.00872756
0.00137283
0.0195654
0.0193427
0.0189382
0.0184026
0.0177608
0.0170063
0.0160994
0.0149601
0.013448
0.0113205
0.00802844
0.00125995
0.0180083
0.0178277
0.0174705
0.0169811
0.0163801
0.0156601
0.0147856
0.013689
0.012258
0.0103008
0.0073258
0.00115573
0.0161887
0.0160511
0.0157454
0.0153125
0.0147684
0.0141045
0.0132894
0.0122685
0.0109537
0.00919629
0.00656227
0.00105403
0.0138512
0.0137596
0.0135147
0.0131558
0.0126936
0.0121173
0.0114006
0.0105023
0.00935698
0.0078593
0.00565213
0.000947733
0.0105945
0.0105514
0.0103814
0.0101231
0.00978011
0.00933933
0.00878077
0.00807997
0.00718458
0.00605204
0.00444367
0.00082579
0.00588524
0.00588274
0.00580039
0.00567516
0.00550152
0.00526437
0.00495418
0.00456751
0.00404697
0.00342506
0.00262558
0.000671633
0.000629624
0.000625751
0.000615172
0.000600316
0.000580964
0.000557044
0.000527853
0.000490727
0.000443543
0.000383757
0.000305853
0.000145499
0.00308375
0.0176424
0.0242759
0.0273784
0.0292839
0.0305948
0.0314687
0.0318865
0.0320125
0.0318259
0.0311668
0.0300049
0.00241995
0.0158328
0.0226896
0.0260569
0.028061
0.0293868
0.0301902
0.0305702
0.0306594
0.0304002
0.0296717
0.0285415
0.00214203
0.0146018
0.0212217
0.02467
0.0267198
0.0280364
0.028799
0.0291525
0.0292007
0.0288871
0.0281493
0.0270733
0.00198052
0.0135815
0.0198319
0.0232429
0.0252933
0.0265853
0.0273169
0.0276559
0.0276632
0.0273121
0.0266002
0.0255933
0.00185568
0.012634
0.0184731
0.0217725
0.0237862
0.0250403
0.0257481
0.0260632
0.0260355
0.0256727
0.025003
0.0240714
0.00174346
0.0116871
0.0170937
0.0202276
0.0221679
0.0233709
0.0240493
0.024334
0.0242773
0.0239182
0.0232989
0.0224424
0.00163259
0.0106873
0.015628
0.0185414
0.020365
0.0214959
0.0221278
0.0223764
0.0222955
0.0219464
0.0213733
0.0205963
0.00151593
0.00956726
0.0139755
0.0165891
0.018236
0.0192556
0.0198161
0.0200187
0.019916
0.0195783
0.0190456
0.0183606
0.00139096
0.00821745
0.0119526
0.0141445
0.0155245
0.0163737
0.0168274
0.0169703
0.0168513
0.0165289
0.0160435
0.0154813
0.00124402
0.00647581
0.00923426
0.0108115
0.0118001
0.0124023
0.0127083
0.0127866
0.0126658
0.0123786
0.0119916
0.0115823
0.00105735
0.00393478
0.00525579
0.00600615
0.00648637
0.00677788
0.00691234
0.00694725
0.00685862
0.00669567
0.00648004
0.00624621
0.000249935
0.000434249
0.000554054
0.000628274
0.000678758
0.000712985
0.000733122
0.000741273
0.000737814
0.000727399
0.00071193
0.000692414
0.0285374
0.0269896
0.0254947
0.0240978
0.0227992
0.0215711
0.0203617
0.0190888
0.0175893
0.0154183
0.0110321
0.00249326
0.0271481
0.0256513
0.0241672
0.0227467
0.0213976
0.0200976
0.0187957
0.017398
0.0157156
0.0132921
0.00893877
0.00152191
0.0257652
0.0243443
0.0229072
0.021505
0.0201501
0.0188247
0.0174799
0.0160194
0.014258
0.0118047
0.00779926
0.00114752
0.0243781
0.0230511
0.0216892
0.0203398
0.0190174
0.0177078
0.0163659
0.0149006
0.0131481
0.0108002
0.00723834
0.00100628
0.0229502
0.0217278
0.0204587
0.0191861
0.0179248
0.0166636
0.0153621
0.0139389
0.012257
0.0100782
0.00692857
0.000944633
0.0214179
0.0203014
0.0191336
0.017953
0.0167734
0.0155854
0.0143536
0.0130072
0.0114334
0.00944222
0.0066306
0.000901775