/*--------------------------------*- C++ -*----------------------------------*\
| =========                 |                                                 |
| \\      /  F ield         | OpenFOAM: The Open Source CFD Toolbox           |
|  \\    /   O peration     | Version:  2212                                  |
|   \\  /    A nd           | Website:  www.openfoam.com                      |
|    \\/     M anipulation  |                                                 |
\*---------------------------------------------------------------------------*/
FoamFile
{
    version     2.0;
    format      ascii;
    arch        "LSB;label=32;scalar=64";
    class       volScalarField;
    location    "0.05";
    object      p;
}
// * * * * * * * * * * * * * * * * * * * * * * * * * * * * * * * * * * * * * //

dimensions      [1 -1 -2 0 0 0 0];

internalField   nonuniform List<scalar> 
3072
(
98332.2
98313.2
98301.9
98293.6
98290.8
98292.2
98292.3
98305.3
98335.8
98334.9
98290.5
98244.6
98415.4
98372.4
98361.6
98355
98359.5
98381.7
98414.7
98464.6
98564.6
98620
98635.6
98643.2
98476.7
98418.1
98411.6
98417.2
98444.2
98488.9
98548.5
98603.6
98660.9
98702.7
98730.8
98750.7
98595.8
98540.5
98542
98562.5
98612.8
98673.6
98733
98786
98831.3
98864.3
98890.1
98910.3
98720.3
98687.4
98699.8
98734.7
98791.6
98851.7
98907.4
98956.3
98995.5
99024.2
99045.9
99062
98855.8
98840.7
98863.7
98908.6
98967.4
99023.4
99073.5
99113.4
99144.8
99168.4
99186.1
99199.1
98980.2
98990.3
99021.1
99074.2
99132.8
99185.1
99227.6
99260.3
99284.9
99302.9
99315.8
99325
99108.8
99138.9
99176.5
99234.1
99288.8
99334.9
99370
99395.6
99413.7
99426
99434.2
99439.6
99236.7
99294.7
99332.4
99389.6
99436.9
99474.6
99501.4
99519.4
99530.8
99537.5
99541.1
99542.7
99366.2
99441.7
99483.1
99538.5
99577
99604.5
99621.9
99631.7
99636.3
99637.5
99636.6
99634.6
99509.4
99606
99636.6
99679.8
99706.5
99721.8
99729
99730.7
99728.7
99724.8
99719.8
99714.7
99615.1
99764.3
99781.3
99802.3
99814
99817.8
99816.3
99811.4
99804.6
99796.9
99789.1
99781.6
98209.9
98201
98213.9
98250.4
98305.1
98376.4
98458.4
98544.2
98621.6
98683.5
98723.4
98696.3
98644.2
98645.5
98650.4
98660.9
98678
98701.4
98729.9
98759.4
98784.5
98816.7
98835.7
98738.8
98760.2
98768.2
98777.9
98791.4
98808
98825.7
98842.6
98854.5
98857.4
98860.8
98851.4
98710.7
98925.5
98938
98948.1
98957
98964.6
98970.1
98972.5
98968.2
98952.3
98929.5
98901.1
98722.2
99073.7
99082.8
99089.5
99094.3
99096.9
99096.7
99092.5
99081.9
99060.1
99026
98985.6
98793.3
99208.4
99215.2
99219.7
99222.5
99223.3
99221.4
99215.7
99204.6
99184
99150.4
99108
98920.7
99331.4
99335.9
99338.8
99340.6
99341.2
99340.5
99337.4
99330.6
99317.1
99292.5
99263
99102.1
99443
99445.4
99447.1
99448.8
99450.6
99452.6
99454.6
99455.8
99454.8
99447.9
99445.1
99332.2
99543.4
99543.7
99544.5
99546.3
99549.8
99555.5
99563.6
99574.4
99588.4
99604.7
99639.3
99603.6
99632.5
99630.9
99630.7
99632.6
99637.6
99646.6
99660.7
99681
99709.6
99749.8
99832.5
99897.6
99710
99706.7
99705.3
99706.9
99712.7
99724.1
99742.5
99770
99809.4
99868.2
100000
100175
99775.2
99770.4
99767.9
99768.8
99774.4
99786.4
99806.5
99837.3
99880.6
99947.6
100097
100416
98326.1
98309.4
98299.1
98291.3
98289.4
98289.5
98291.4
98297.9
98320.7
98333.7
98300.5
98255.8
98412.3
98372.7
98361.8
98354.7
98358.5
98373.9
98405.1
98442.8
98534.6
98603.3
98621.6
98632.6
98471.9
98415.9
98408.1
98409.9
98434.4
98471.8
98528.7
98581.9
98637.2
98683.4
98712.2
98734.6
98585.4
98528.7
98527.2
98541.9
98587.6
98647.3
98707.7
98761.6
98808.4
98843.9
98870.6
98891.6
98705
98668.2
98676.2
98705.9
98760.7
98822.3
98880.7
98930.6
98971.6
99002.1
99024.7
99041.5
98840.7
98819.7
98838.4
98879
98937.1
98994.8
99046.5
99088
99120.7
99145.4
99163.8
99177.2
98966
98969.7
98996.7
99046.5
99104.7
99158
99201.4
99235.2
99260.8
99279.5
99292.9
99302.4
99096.3
99119.9
99153.9
99208.5
99262.6
99309
99344.7
99371
99389.6
99402.4
99410.9
99416.5
99224.4
99276.5
99311.3
99365.9
99412.3
99450
99477
99495.4
99507.1
99514.1
99517.8
99519.5
99353.8
99423.9
99463.1
99516.5
99554.3
99581.6
99599
99608.9
99613.5
99614.6
99613.5
99611.5
99496.3
99588.3
99617.4
99659.5
99685.8
99700.9
99707.9
99709.2
99706.9
99702.5
99697.1
99691.6
99602.2
99745.1
99762.2
99783.2
99795.1
99798.6
99796.6
99791
99783.6
99775.2
99766.6
99758.6
98221
98208.9
98218
98249.1
98298.1
98363
98438.7
98518.5
98590.8
98647.6
98684.7
98658.2
98634.7
98635.6
98638.7
98646.8
98660.4
98680.3
98705
98731.2
98753.3
98781.9
98799.9
98705.7
98745.2
98753.1
98761.4
98773.1
98787.7
98803.2
98817.9
98827.8
98829
98830.7
98821.7
98684
98906.7
98919.1
98928.8
98936.8
98943.1
98947.3
98948.3
98942.5
98925.7
98902.4
98874.9
98699.1
99053.2
99062.1
99068.5
99072.6
99074.6
99073.4
99068.2
99056.8
99034.3
98999.9
98960.7
98770
99186.6
99193.3
99197.7
99200
99200.2
99197.7
99191.2
99179.3
99157.8
99123.2
99081.5
98894.5
99308.9
99313.3
99316.1
99317.5
99317.7
99316.3
99312.5
99304.7
99290.2
99264
99233.6
99070.8
99420
99422.3
99424
99425.4
99426.8
99428.2
99429.3
99429.2
99426.6
99417.3
99411.5
99294
99520.1
99520.5
99521.2
99522.9
99525.9
99530.9
99538
99547.3
99559.3
99572.5
99601.7
99558.4
99609.3
99607.7
99607.5
99609.3
99613.9
99622.3
99635.2
99653.8
99680.2
99716.8
99792.1
99847.4
99686.9
99683.5
99682.2
99683.8
99689.4
99700.2
99717.6
99743.4
99780.8
99836.3
99960.7
100125
99751.9
99747.1
99744.9
99746.1
99751.7
99763.4
99782.8
99812.1
99854
99918.7
100062
100377
98332.2
98313.2
98301.9
98293.6
98290.8
98292.2
98292.3
98305.3
98335.8
98334.9
98290.5
98244.6
98415.4
98372.4
98361.6
98355
98359.5
98381.7
98414.7
98464.6
98564.5
98620
98635.6
98643.2
98476.7
98418.1
98411.6
98417.2
98444.2
98488.9
98548.5
98603.6
98660.9
98702.7
98730.8
98750.7
98595.8
98540.5
98542
98562.5
98612.8
98673.6
98733
98786
98831.3
98864.3
98890.1
98910.3
98720.3
98687.4
98699.8
98734.7
98791.6
98851.7
98907.4
98956.3
98995.5
99024.2
99045.9
99062
98855.8
98840.7
98863.7
98908.6
98967.4
99023.4
99073.5
99113.4
99144.8
99168.4
99186.1
99199.1
98980.2
98990.3
99021.1
99074.2
99132.8
99185.1
99227.6
99260.3
99284.9
99302.9
99315.8
99325
99108.8
99138.9
99176.5
99234.1
99288.8
99334.9
99370
99395.6
99413.7
99426
99434.2
99439.6
99236.7
99294.7
99332.4
99389.6
99436.9
99474.6
99501.4
99519.4
99530.8
99537.5
99541.1
99542.7
99366.2
99441.7
99483.1
99538.5
99577
99604.5
99621.9
99631.7
99636.3
99637.5
99636.6
99634.6
99509.4
99606
99636.6
99679.8
99706.5
99721.8
99729
99730.7
99728.7
99724.8
99719.8
99714.7
99615.1
99764.3
99781.3
99802.3
99814
99817.8
99816.3
99811.4
99804.6
99796.9
99789.1
99781.6
98209.9
98201
98213.9
98250.4
98305.1
98376.4
98458.4
98544.2
98621.6
98683.5
98723.4
98696.3
98644.2
98645.5
98650.4
98660.9
98678
98701.4
98729.9
98759.4
98784.5
98816.7
98835.7
98738.8
98760.2
98768.2
98777.9
98791.4
98808
98825.7
98842.6
98854.5
98857.4
98860.8
98851.4
98710.7
98925.5
98938
98948.1
98957
98964.6
98970.1
98972.5
98968.2
98952.3
98929.5
98901.1
98722.2
99073.7
99082.8
99089.5
99094.3
99096.9
99096.7
99092.5
99081.9
99060.1
99026
98985.6
98793.3
99208.4
99215.2
99219.7
99222.5
99223.3
99221.4
99215.7
99204.6
99184
99150.4
99108
98920.7
99331.4
99335.9
99338.8
99340.6
99341.2
99340.5
99337.4
99330.6
99317.1
99292.5
99262.9
99102.1
99443
99445.4
99447.1
99448.8
99450.6
99452.6
99454.6
99455.8
99454.8
99447.9
99445.1
99332.2
99543.4
99543.7
99544.5
99546.3
99549.8
99555.5
99563.6
99574.4
99588.4
99604.7
99639.3
99603.6
99632.5
99630.9
99630.7
99632.6
99637.6
99646.6
99660.7
99681
99709.6
99749.8
99832.5
99897.6
99710
99706.7
99705.3
99706.9
99712.7
99724.1
99742.5
99770
99809.4
99868.2
100000
100175
99775.2
99770.4
99767.9
99768.8
99774.4
99786.4
99806.5
99837.3
99880.6
99947.6
100097
100416
98326.1
98309.4
98299.1
98291.3
98289.4
98289.5
98291.4
98297.9
98320.7
98333.7
98300.5
98255.8
98412.3
98372.7
98361.8
98354.7
98358.5
98373.9
98405.1
98442.8
98534.6
98603.3
98621.6
98632.6
98471.9
98415.9
98408.1
98409.9
98434.4
98471.8
98528.7
98581.9
98637.2
98683.4
98712.2
98734.6
98585.4
98528.7
98527.2
98541.9
98587.6
98647.3
98707.7
98761.6
98808.4
98843.9
98870.6
98891.6
98705
98668.2
98676.2
98705.9
98760.7
98822.3
98880.7
98930.6
98971.6
99002.1
99024.7
99041.5
98840.7
98819.7
98838.4
98879
98937.1
98994.8
99046.5
99088
99120.7
99145.4
99163.8
99177.2
98966
98969.7
98996.7
99046.5
99104.7
99158
99201.4
99235.2
99260.8
99279.5
99292.9
99302.4
99096.3
99119.9
99153.9
99208.5
99262.6
99309
99344.7
99371
99389.6
99402.4
99410.9
99416.5
99224.4
99276.5
99311.3
99365.9
99412.3
99450
99477
99495.4
99507.1
99514.1
99517.8
99519.5
99353.8
99423.9
99463.1
99516.5
99554.3
99581.6
99599
99608.9
99613.5
99614.6
99613.5
99611.5
99496.3
99588.3
99617.4
99659.5
99685.8
99700.9
99707.9
99709.2
99706.9
99702.5
99697.1
99691.6
99602.2
99745.1
99762.2
99783.2
99795.1
99798.6
99796.6
99791
99783.6
99775.2
99766.6
99758.6
98221
98208.9
98218
98249.1
98298.1
98363
98438.7
98518.5
98590.8
98647.6
98684.7
98658.2
98634.7
98635.6
98638.7
98646.8
98660.4
98680.3
98705
98731.2
98753.3
98781.9
98799.9
98705.7
98745.2
98753.1
98761.4
98773.1
98787.7
98803.2
98817.9
98827.8
98829
98830.7
98821.7
98684
98906.7
98919.1
98928.8
98936.8
98943.1
98947.3
98948.3
98942.5
98925.7
98902.4
98874.9
98699.1
99053.2
99062.1
99068.5
99072.6
99074.6
99073.4
99068.2
99056.8
99034.3
98999.9
98960.7
98770
99186.6
99193.3
99197.7
99200
99200.2
99197.7
99191.2
99179.3
99157.8
99123.2
99081.5
98894.5
99308.9
99313.3
99316.1
99317.5
99317.7
99316.3
99312.5
99304.7
99290.2
99264
99233.6
99070.8
99420
99422.3
99424
99425.4
99426.8
99428.2
99429.3
99429.2
99426.6
99417.3
99411.5
99294
99520.1
99520.5
99521.2
99522.9
99525.9
99530.9
99538
99547.3
99559.3
99572.5
99601.7
99558.4
99609.3
99607.7
99607.5
99609.3
99613.9
99622.3
99635.2
99653.8
99680.2
99716.8
99792.1
99847.4
99686.9
99683.5
99682.2
99683.8
99689.4
99700.2
99717.6
99743.4
99780.8
99836.3
99960.7
100125
99751.9
99747.1
99744.9
99746.1
99751.7
99763.4
99782.8
99812.1
99854
99918.7
100062
100377
99910.3
99916
99903.4
99896.1
99891.4
99886.5
99879.6
99871.1
99862
99852.7
99843.7
99835.2
99944.6
99923.8
99925.8
99927.5
99927.3
99924.4
99918.5
99911
99902.5
99893.6
99884.9
99876.4
99951.8
99942.8
99946.3
99948.1
99948.3
99946.2
99942.1
99936.6
99930.1
99922.8
99915.5
99907.9
99955.3
99954.2
99956.9
99958.4
99958.9
99958.1
99955.8
99952.6
99948.5
99943.9
99938.9
99933.3
99827.9
99822.1
99818.6
99818.5
99823.1
99834
99852.6
99881.8
99919.5
99969.9
100021
100136
99869.1
99862.8
99858.3
99856.9
99859.6
99868.1
99883
99907.4
99938
99977.9
100002
100043
99901
99894.5
99888.7
99885.1
99884.9
99889.4
99899.1
99916.6
99939.1
99970.8
99987.4
100005
99927.6
99919.8
99912
99905.5
99901.1
99899.9
99902.4
99910.9
99923.7
99947.1
99961.4
99982.6
99898.5
99900.1
99887.6
99879.6
99874.4
99868.8
99861.1
99851.9
99841.8
99831.4
99821.2
99811.8
99940.8
99914.6
99914
99913.7
99912.3
99908.4
99901.6
99892.8
99882.9
99872.4
99861.8
99851.9
99955.7
99940.9
99940.8
99939.8
99937.6
99933.8
99928
99920.5
99911.5
99901.6
99891.4
99881.6
99968.2
99963.1
99962
99960.1
99957.4
99953.8
99948.9
99942.7
99935.1
99926.1
99916.3
99906.1
99803.9
99798.2
99795.3
99796
99800.9
99811.9
99830.3
99858.7
99896
99946.2
99999.5
100120
99843.5
99837.5
99834.1
99834
99837.7
99846.8
99862.2
99886.7
99918
99959
99987.4
100033
99873.1
99867.1
99863.4
99862.2
99864
99870
99880.7
99898.8
99922.2
99954.8
99974.7
99994
99897.3
99891.7
99888
99885.7
99884.9
99886.4
99890.3
99899.1
99911.4
99933.2
99948.1
99967.6
99910.3
99916
99903.4
99896.1
99891.4
99886.5
99879.6
99871.1
99862
99852.7
99843.7
99835.2
99944.6
99923.8
99925.8
99927.5
99927.3
99924.4
99918.5
99911
99902.5
99893.6
99884.9
99876.4
99951.8
99942.8
99946.3
99948.1
99948.3
99946.2
99942.1
99936.6
99930.1
99922.8
99915.5
99907.9
99955.3
99954.2
99956.9
99958.4
99958.9
99958.1
99955.8
99952.6
99948.5
99943.9
99938.9
99933.3
99827.9
99822.1
99818.6
99818.5
99823.1
99834
99852.6
99881.8
99919.5
99969.9
100021
100136
99869.1
99862.8
99858.3
99856.9
99859.6
99868.1
99883
99907.4
99938
99977.9
100002
100043
99901
99894.5
99888.7
99885.1
99884.9
99889.4
99899.1
99916.6
99939.1
99970.8
99987.4
100005
99927.6
99919.8
99912
99905.5
99901.1
99899.9
99902.4
99910.9
99923.7
99947.1
99961.4
99982.6
99898.5
99900.1
99887.6
99879.6
99874.4
99868.8
99861.1
99851.9
99841.8
99831.4
99821.2
99811.8
99940.8
99914.6
99914
99913.7
99912.3
99908.4
99901.6
99892.8
99882.9
99872.4
99861.8
99851.9
99955.7
99940.9
99940.8
99939.8
99937.6
99933.8
99928
99920.5
99911.5
99901.6
99891.4
99881.6
99968.2
99963.1
99962
99960.1
99957.4
99953.8
99948.9
99942.7
99935.1
99926.1
99916.3
99906.1
99803.9
99798.2
99795.3
99796
99800.9
99811.9
99830.3
99858.7
99896
99946.2
99999.5
100120
99843.5
99837.5
99834.1
99834
99837.7
99846.8
99862.2
99886.7
99918
99959
99987.4
100033
99873.1
99867.1
99863.4
99862.2
99864
99870
99880.7
99898.8
99922.2
99954.8
99974.7
99994
99897.3
99891.7
99888
99885.7
99884.9
99886.4
99890.3
99899.1
99911.4
99933.2
99948.1
99967.6
99956.2
99960.6
99964.5
99967.2
99968.8
99969.2
99968.5
99966.8
99964.3
99961.4
99958
99954.3
99958.5
99964.6
99969.9
99974
99976.9
99978.4
99978.6
99977.8
99976
99973.8
99971.4
99969
99959.8
99966.9
99973.1
99978
99981.5
99983.6
99984.2
99983.7
99982.3
99980.7
99979.1
99978.1
99960.4
99968.4
99975.1
99980.4
99984.2
99986.4
99987.2
99986.8
99985.5
99984.1
99983.1
99982.8
99950.8
99944.8
99938.8
99933.4
99928.7
99925.6
99924.5
99926.5
99930.6
99943.1
99951.3
99965.2
99968.3
99964.4
99961.1
99958.3
99955.9
99954.4
99953.9
99954.8
99957.1
99959.7
99960.2
99961.9
99980.8
99977.9
99976.4
99975.1
99974.1
99973.3
99972.4
99971.3
99970.1
99968.1
99964
99959.4
99990.7
99987.8
99986.6
99986
99985.3
99984.2
99982.4
99979.5
99975.4
99970.3
99963.4
99956.1
99965.6
99964.5
99962.1
99958.6
99954.7
99950.2
99944.9
99939.2
99932.7
99924.2
99915.4
99905.9
99958.1
99954.2
99949.6
99944.6
99939.4
99933.9
99928
99921.5
99914.8
99908.4
99901.6
99893.5
99952.2
99946.2
99940.3
99934.6
99929
99923.4
99917.8
99912.1
99906.3
99900.6
99895.1
99887.7
99947.8
99941
99934.6
99928.8
99923.3
99918
99912.8
99907.7
99902.7
99897.5
99892.9
99885.6
99897.2
99892
99889.3
99888.1
99888.2
99889.7
99893
99899.2
99908.1
99922.8
99935.5
99952.1
99885.3
99880.9
99879.4
99879.7
99881.6
99885.1
99890.8
99899.2
99910.5
99925.9
99939
99952
99878.8
99875
99874.3
99875.3
99877.9
99882.4
99889
99898.5
99910.7
99925.6
99939.5
99952
99876
99872.7
99872.3
99873.5
99876.2
99880.9
99887.9
99897.6
99909.9
99924.4
99938.5
99951.3
99956.2
99960.6
99964.5
99967.2
99968.8
99969.2
99968.5
99966.8
99964.3
99961.4
99958
99954.3
99958.5
99964.6
99969.9
99974
99976.9
99978.4
99978.6
99977.8
99976
99973.8
99971.4
99969
99959.8
99966.9
99973.1
99978
99981.5
99983.6
99984.2
99983.7
99982.3
99980.7
99979.1
99978.1
99960.4
99968.4
99975.1
99980.4
99984.2
99986.4
99987.2
99986.8
99985.5
99984.1
99983.1
99982.8
99950.8
99944.8
99938.8
99933.4
99928.7
99925.6
99924.5
99926.5
99930.6
99943.1
99951.3
99965.2
99968.3
99964.4
99961.1
99958.3
99955.9
99954.4
99953.9
99954.8
99957.1
99959.7
99960.2
99961.9
99980.8
99977.9
99976.4
99975.1
99974.1
99973.3
99972.4
99971.3
99970.1
99968.1
99964
99959.4
99990.7
99987.8
99986.6
99986
99985.3
99984.2
99982.4
99979.5
99975.4
99970.3
99963.4
99956.1
99965.6
99964.5
99962.1
99958.6
99954.7
99950.2
99944.9
99939.2
99932.7
99924.2
99915.4
99905.9
99958.1
99954.2
99949.6
99944.6
99939.4
99933.9
99928
99921.5
99914.8
99908.4
99901.6
99893.5
99952.2
99946.2
99940.3
99934.6
99929
99923.4
99917.8
99912.1
99906.3
99900.6
99895.1
99887.7
99947.8
99941
99934.6
99928.8
99923.3
99918
99912.8
99907.7
99902.7
99897.5
99892.9
99885.6
99897.2
99892
99889.3
99888.1
99888.2
99889.7
99893
99899.2
99908.1
99922.8
99935.5
99952.1
99885.3
99880.9
99879.4
99879.7
99881.6
99885.1
99890.8
99899.2
99910.5
99925.9
99939
99952
99878.8
99875
99874.3
99875.3
99877.9
99882.4
99889
99898.5
99910.7
99925.6
99939.5
99952
99876
99872.7
99872.3
99873.5
99876.2
99880.9
99887.9
99897.6
99909.9
99924.4
99938.5
99951.3
99960.8
99969.4
99976.5
99982
99985.9
99988.1
99988.9
99988.4
99987
99985.3
99983
99980.7
99961.1
99970.2
99977.6
99983.2
99987.1
99989.2
99989.9
99989.2
99987.7
99985.7
99982.9
99983.4
99961.4
99970.8
99978.4
99984.1
99988
99990
99990.4
99989.6
99988
99985.9
99983.4
99984.2
99961.6
99971.4
99979.2
99984.9
99988.6
99990.5
99990.7
99989.8
99988
99986
99984
99984.8
99961.8
99972
99979.9
99985.6
99989.2
99990.8
99990.9
99989.7
99987.9
99985.9
99984.4
99985.1
99962.1
99972.5
99980.5
99986.2
99989.7
99991.1
99990.9
99989.6
99987.7
99985.9
99984.7
99985.2
99962.3
99973
99981.1
99986.8
99990.1
99991.3
99990.9
99989.4
99987.5
99985.8
99984.8
99985.2
99962.6
99973.5
99981.7
99987.4
99990.5
99991.5
99990.9
99989.2
99987.3
99985.6
99984.9
99985.2
99963
99974.1
99982.4
99987.9
99990.9
99991.7
99990.8
99989
99987
99985.5
99984.9
99985.1
99963.5
99974.8
99983.2
99988.6
99991.4
99991.9
99990.8
99988.7
99986.7
99985.3
99984.8
99985.1
99964
99975.6
99984
99989.3
99991.9
99992.2
99990.7
99988.6
99986.4
99985
99984.7
99985
99964.8
99976.7
99985.2
99990.3
99992.5
99992.3
99990.4
99987.8
99985.6
99984.6
99984.7
99985.2
100001
99995.5
99993.3
99992.6
99991.7
99990.1
99987.2
99982.8
99976.9
99969.8
99961.5
99953.1
100002
99999.5
99997.2
99996.3
99994.9
99992.5
99988.6
99983.1
99976.2
99968.1
99959.3
99950.7
100003
100001
99999.1
99997.8
99995.8
99992.7
99987.9
99981.7
99974.2
99965.9
99957.2
99949.1
100003
100001
99999.5
99997.8
99995.2
99991.3
99985.9
99979.3
99971.7
99963.6
99955.5
99948.1
100003
100000
99999
99996.8
99993.5
99989
99983.2
99976.3
99968.9
99961.3
99954.1
99947.6
100003
99999.6
99998
99995.1
99991.2
99986.1
99980
99973.2
99966.1
99959.3
99953
99947.6
100002
99998.5
99996.6
99993.1
99988.6
99983
99976.7
99970
99963.5
99957.5
99952.2
99947.7
100001
99997.2
99994.9
99990.8
99985.7
99979.7
99973.4
99967
99961.1
99955.9
99951.5
99948
99999.8
99995.9
99993.2
99988.4
99982.8
99976.6
99970.2
99964.1
99958.8
99954.4
99951
99948.4
99998.7
99994.7
99991.4
99986.1
99980.2
99973.7
99967.3
99961.5
99956.7
99953.1
99950.5
99948.7
99997.9
99993.7
99990
99984.2
99977.8
99971.1
99964.8
99959.3
99955.1
99952.1
99950
99948.8
99996.6
99991.3
99987
99980.4
99973.6
99966.6
99960.3
99955.2
99951.6
99949.5
99948.7
99948.7
99944.7
99937.7
99931.4
99925.7
99920.5
99915.6
99910.8
99906.2
99901.7
99896.8
99892.4
99883
99942.7
99935.9
99929.9
99924.6
99919.8
99915.3
99910.9
99906.7
99902.5
99897.7
99894
99885.2
99941.7
99935.5
99930
99925.1
99920.7
99916.5
99912.5
99908.5
99904.5
99899.8
99896.9
99887.9
99941.6
99936
99931.1
99926.8
99922.7
99918.8
99915
99911.1
99907.3
99902.5
99900.3
99890.8
99942
99937.2
99933
99929.1
99925.4
99921.7
99918
99914.1
99910.4
99905.5
99903.5
99893.9
99942.9
99938.9
99935.3
99931.9
99928.5
99925
99921.3
99917.4
99913.6
99908.7
99906.7
99897.1
99944
99940.8
99937.8
99934.8
99931.7
99928.4
99924.8
99920.8
99916.9
99911.8
99909.6
99900.4
99945.2
99942.7
99940.3
99937.8
99935
99931.8
99928.2
99924.1
99920.1
99914.9
99912.4
99903.7
99946.4
99944.6
99942.7
99940.6
99938.1
99935.1
99931.6
99927.4
99923.3
99917.9
99915.1
99906.8
99947.4
99946.2
99944.9
99943.3
99941.1
99938.3
99934.9
99930.7
99926.4
99920.8
99917.6
99909.9
99948.2
99947.6
99946.8
99945.5
99943.6
99940.9
99937.5
99933.2
99928.7
99922.8
99919.3
99912.1
99949
99949.4
99949.4
99948.8
99947.6
99945.4
99942.5
99938.3
99933.9
99927.6
99923.7
99915.8
99876.6
99872.5
99871.5
99872.5
99875.2
99879.9
99886.9
99896.7
99909
99923.4
99937.6
99950.7
99874.1
99872.7
99871.2
99871.9
99874.4
99879
99886
99895.8
99908.2
99922.5
99936.9
99950.2
99873.5
99872.6
99871.1
99871.5
99873.8
99878.2
99885.2
99895
99907.4
99921.7
99936.3
99950
99872.7
99872.4
99871
99871.2
99873.2
99877.4
99884.3
99894.1
99906.6
99921
99935.8
99949.7
99872.3
99872.2
99870.9
99870.9
99872.6
99876.7
99883.4
99893.2
99905.7
99920.2
99935.3
99949.6
99872
99872
99870.8
99870.6
99872.1
99875.9
99882.5
99892.2
99904.8
99919.5
99934.9
99949.4
99871.9
99871.8
99870.7
99870.4
99871.5
99875
99881.5
99891.1
99903.8
99918.8
99934.4
99949.3
99871.8
99871.7
99870.7
99870.1
99871
99874.2
99880.4
99890
99902.8
99918
99934
99949.3
99871.8
99871.7
99870.7
99869.9
99870.4
99873.2
99879.2
99888.7
99901.6
99917.1
99933.6
99949.3
99871.8
99871.7
99870.7
99869.7
99869.8
99872.2
99877.8
99887.3
99900.4
99916.2
99933.2
99949.4
99871.9
99871.9
99870.8
99869.5
99869.2
99871.2
99876.5
99885.9
99899.2
99915.6
99932.9
99949.6
99871.9
99872.1
99871.3
99869.7
99868.7
99869.8
99874.3
99883.2
99896.7
99913.7
99932.1
99949.7
99960.8
99969.4
99976.5
99982
99985.9
99988.1
99988.9
99988.4
99987
99985.3
99983
99980.7
99961.1
99970.2
99977.6
99983.2
99987.1
99989.2
99989.9
99989.2
99987.7
99985.7
99982.9
99983.4
99961.4
99970.8
99978.4
99984.1
99988
99990
99990.4
99989.6
99988
99985.9
99983.4
99984.2
99961.6
99971.4
99979.2
99984.9
99988.6
99990.5
99990.7
99989.8
99988
99986
99984
99984.8
99961.8
99972
99979.9
99985.6
99989.2
99990.8
99990.9
99989.7
99987.9
99985.9
99984.4
99985.1
99962.1
99972.5
99980.5
99986.2
99989.7
99991.1
99990.9
99989.6
99987.7
99985.9
99984.7
99985.2
99962.3
99973
99981.1
99986.8
99990.1
99991.3
99990.9
99989.4
99987.5
99985.8
99984.8
99985.2
99962.6
99973.5
99981.7
99987.4
99990.5
99991.5
99990.9
99989.2
99987.3
99985.6
99984.9
99985.2
99963
99974.1
99982.4
99987.9
99990.9
99991.7
99990.8
99989
99987
99985.5
99984.9
99985.1
99963.5
99974.8
99983.2
99988.6
99991.4
99991.9
99990.8
99988.7
99986.7
99985.3
99984.8
99985.1
99964
99975.6
99984
99989.3
99991.9
99992.2
99990.7
99988.6
99986.4
99985
99984.7
99985
99964.8
99976.7
99985.2
99990.3
99992.5
99992.3
99990.4
99987.8
99985.6
99984.6
99984.7
99985.2
100001
99995.5
99993.3
99992.6
99991.7
99990.1
99987.2
99982.8
99976.9
99969.8
99961.5
99953.1
100002
99999.5
99997.2
99996.3
99994.9
99992.5
99988.6
99983.1
99976.2
99968.1
99959.3
99950.7
100003
100001
99999.1
99997.8
99995.8
99992.7
99987.9
99981.7
99974.2
99965.9
99957.2
99949.1
100003
100001
99999.5
99997.8
99995.2
99991.3
99985.9
99979.3
99971.7
99963.6
99955.5
99948.1
100003
100000
99999
99996.8
99993.5
99989
99983.2
99976.3
99968.9
99961.3
99954.1
99947.6
100003
99999.6
99998
99995.1
99991.2
99986.1
99980
99973.2
99966.1
99959.3
99953
99947.6
100002
99998.5
99996.6
99993.1
99988.6
99983
99976.7
99970
99963.5
99957.5
99952.2
99947.7
100001
99997.2
99994.9
99990.8
99985.7
99979.7
99973.4
99967
99961
99955.9
99951.5
99948
99999.8
99995.9
99993.2
99988.4
99982.8
99976.6
99970.2
99964.1
99958.8
99954.4
99951
99948.4
99998.7
99994.7
99991.4
99986.1
99980.2
99973.7
99967.3
99961.5
99956.7
99953.1
99950.5
99948.7
99997.9
99993.7
99990
99984.2
99977.8
99971.1
99964.8
99959.3
99955.1
99952.1
99950
99948.8
99996.6
99991.3
99987
99980.4
99973.6
99966.6
99960.3
99955.2
99951.6
99949.5
99948.7
99948.7
99944.7
99937.7
99931.4
99925.7
99920.5
99915.6
99910.8
99906.2
99901.7
99896.8
99892.4
99883
99942.7
99935.9
99929.9
99924.6
99919.8
99915.3
99910.9
99906.7
99902.5
99897.7
99894
99885.2
99941.7
99935.5
99930
99925.1
99920.7
99916.5
99912.5
99908.5
99904.5
99899.8
99896.9
99887.9
99941.6
99936
99931.1
99926.8
99922.7
99918.8
99915
99911.1
99907.3
99902.5
99900.3
99890.8
99942
99937.2
99933
99929.1
99925.4
99921.7
99918
99914.1
99910.4
99905.5
99903.5
99893.9
99942.9
99938.9
99935.3
99931.9
99928.5
99925
99921.3
99917.4
99913.6
99908.7
99906.7
99897.1
99944
99940.8
99937.8
99934.8
99931.7
99928.4
99924.8
99920.8
99916.9
99911.8
99909.6
99900.4
99945.2
99942.7
99940.3
99937.8
99935
99931.8
99928.2
99924.1
99920.1
99914.9
99912.4
99903.7
99946.4
99944.6
99942.7
99940.6
99938.1
99935.1
99931.6
99927.4
99923.3
99917.9
99915.1
99906.8
99947.4
99946.2
99944.9
99943.3
99941.1
99938.3
99934.9
99930.7
99926.4
99920.8
99917.6
99909.9
99948.2
99947.6
99946.8
99945.5
99943.6
99940.9
99937.5
99933.2
99928.7
99922.8
99919.3
99912.1
99949
99949.4
99949.4
99948.8
99947.6
99945.4
99942.5
99938.3
99933.9
99927.6
99923.7
99915.8
99876.6
99872.5
99871.5
99872.5
99875.2
99879.9
99886.9
99896.7
99909
99923.4
99937.6
99950.7
99874.1
99872.7
99871.2
99871.9
99874.4
99879
99886
99895.8
99908.2
99922.5
99936.9
99950.2
99873.5
99872.6
99871.1
99871.5
99873.8
99878.2
99885.2
99895
99907.4
99921.7
99936.3
99950
99872.7
99872.4
99871
99871.2
99873.2
99877.4
99884.3
99894.1
99906.6
99921
99935.8
99949.7
99872.3
99872.2
99870.9
99870.9
99872.6
99876.7
99883.4
99893.2
99905.7
99920.2
99935.3
99949.6
99872
99872
99870.8
99870.6
99872.1
99875.9
99882.5
99892.2
99904.8
99919.5
99934.9
99949.4
99871.9
99871.8
99870.7
99870.4
99871.5
99875
99881.5
99891.1
99903.8
99918.8
99934.4
99949.3
99871.8
99871.7
99870.7
99870.1
99871
99874.2
99880.4
99890
99902.8
99918
99934
99949.3
99871.8
99871.7
99870.7
99869.9
99870.4
99873.2
99879.2
99888.7
99901.6
99917.1
99933.6
99949.3
99871.8
99871.7
99870.7
99869.7
99869.8
99872.2
99877.8
99887.3
99900.4
99916.2
99933.2
99949.4
99871.9
99871.9
99870.8
99869.5
99869.2
99871.2
99876.5
99885.9
99899.2
99915.6
99932.9
99949.6
99871.9
99872.1
99871.3
99869.7
99868.7
99869.8
99874.3
99883.2
99896.7
99913.7
99932.1
99949.7
)
;

boundaryField
{
    rotor
    {
        type            zeroGradient;
    }
    stator
    {
        type            zeroGradient;
    }
    front
    {
        type            empty;
    }
    back
    {
        type            empty;
    }
}


// ************************************************************************* //
