/*--------------------------------*- C++ -*----------------------------------*\
| =========                 |                                                 |
| \\      /  F ield         | OpenFOAM: The Open Source CFD Toolbox           |
|  \\    /   O peration     | Version:  2212                                  |
|   \\  /    A nd           | Website:  www.openfoam.com                      |
|    \\/     M anipulation  |                                                 |
\*---------------------------------------------------------------------------*/
FoamFile
{
    version     2.0;
    format      ascii;
    arch        "LSB;label=32;scalar=64";
    class       surfaceScalarField;
    location    "0.05";
    object      phi;
}
// * * * * * * * * * * * * * * * * * * * * * * * * * * * * * * * * * * * * * //

dimensions      [1 0 -1 0 0 0 0];

oriented        oriented;

internalField   nonuniform List<scalar> 
5952
(
5.06449e-05
-5.064e-05
9.99481e-05
-4.92982e-05
0.000132748
-3.27953e-05
0.000147614
-1.48612e-05
0.000153227
-5.60758e-06
0.00014894
4.29209e-06
0.000115049
3.38962e-05
4.20267e-05
7.3027e-05
-9.75439e-05
0.000139575
-0.000291989
0.00019445
-0.000439979
0.000147994
0.000109671
-0.000549647
4.48595e-05
-9.5494e-05
7.59295e-05
-8.03627e-05
8.13795e-05
-3.82397e-05
6.59806e-05
5.43104e-07
2.51147e-05
3.5264e-05
-5.2221e-05
8.16334e-05
-0.000175901
0.000157582
-0.000326262
0.000223394
-0.000430435
0.000243753
-0.000466911
0.000230932
-0.000503814
0.000184903
0.00014534
-0.000539478
3.316e-05
-0.000128648
4.75738e-05
-9.47704e-05
3.641e-05
-2.70698e-05
-3.48854e-06
4.04478e-05
-8.47753e-05
0.000116557
-0.000204702
0.000201566
-0.000316598
0.000269483
-0.000382235
0.000289037
-0.000413326
0.00027485
-0.000423095
0.000240707
-0.000433928
0.000195742
0.000155472
-0.000444054
-3.20839e-06
-0.000125433
-1.74046e-05
-8.05676e-05
-5.0394e-05
5.92629e-06
-0.000108662
9.87221e-05
-0.000190168
0.00019807
-0.000267622
0.000279027
-0.000313941
0.000315808
-0.000332629
0.000307731
-0.000338455
0.000280683
-0.000340103
0.00024236
-0.000342937
0.000198583
0.000157081
-0.000344541
-2.8835e-05
-9.65906e-05
-6.71653e-05
-4.22301e-05
-0.000115055
5.38231e-05
-0.000171374
0.000155048
-0.000224832
0.000251535
-0.000255864
0.000310066
-0.000261985
0.000321936
-0.000257539
0.000303292
-0.00024921
0.000272361
-0.000241461
0.000234618
-0.000236587
0.000193716
0.000153285
-0.000232784
-5.18365e-05
-4.47463e-05
-0.000101503
7.44406e-06
-0.000148858
0.000101186
-0.000185508
0.000191705
-0.000203711
0.000269746
-0.000199875
0.000306237
-0.000185121
0.00030719
-0.000168162
0.000286341
-0.00015254
0.000256747
-0.000139878
0.000221963
-0.000130623
0.000184468
0.000146334
-0.000123664
-6.6132e-05
2.1394e-05
-0.000121058
6.2378e-05
-0.000156102
0.000136239
-0.000166502
0.000202114
-0.000153821
0.000257073
-0.000128252
0.000280676
-0.000100406
0.000279352
-7.57207e-05
0.000261664
-5.50663e-05
0.000236101
-3.87262e-05
0.000205631
-2.63849e-05
0.000172135
0.000137035
-1.70773e-05
-7.55613e-05
9.69642e-05
-0.000123234
0.000110059
-0.000139569
0.000152583
-0.000126428
0.000188982
-9.31499e-05
0.000223803
-5.39743e-05
0.000241509
-1.69864e-05
0.000242373
1.4219e-05
0.000230467
3.94923e-05
0.000210836
5.93574e-05
0.000185775
7.46465e-05
0.000156855
0.00012528
8.64105e-05
-7.08694e-05
0.000167843
-0.000107445
0.000146644
-0.000103454
0.000148601
-7.38875e-05
0.000159425
-2.87649e-05
0.00017869
1.93776e-05
0.000193376
6.34923e-05
0.000198268
0.000100535
0.000193433
0.00013044
0.000180941
0.000154094
0.00016213
0.000172684
0.000138274
0.000110551
0.000187422
-7.06868e-05
0.00023854
-7.18049e-05
0.000147773
-4.20251e-05
0.000118831
1.33189e-06
0.000116078
5.31284e-05
0.000126903
0.000105081
0.000141433
0.000152016
0.000151343
0.000191716
0.000153743
0.000224198
0.000148469
0.000250431
0.000135907
0.000271694
0.00011702
9.29757e-05
0.00028928
-2.66755e-08
0.000238577
3.13957e-05
0.000116361
8.07016e-05
6.95359e-05
0.00013074
6.60496e-05
0.000179854
7.77998e-05
0.000225867
9.54309e-05
0.000267003
0.000110217
0.000302384
0.000118373
0.000332191
0.000118672
0.000357228
0.00011088
0.000378572
9.5687e-05
7.41041e-05
0.000397454
0.000193926
4.46622e-05
0.0002675
4.27979e-05
0.000313609
2.34381e-05
0.000346023
3.36465e-05
0.000372512
5.13216e-05
0.000397407
7.05466e-05
0.000421141
8.6494e-05
0.000443254
9.62712e-05
0.000463467
9.84699e-05
0.000482071
9.22874e-05
0.000499602
7.81668e-05
0.000517194
5.65224e-05
-0.000629334
7.96853e-05
-0.000678628
4.93129e-05
-0.000704027
2.53964e-05
-0.000704735
7.13283e-07
-0.0006846
-2.01308e-05
-0.000642395
-4.22008e-05
-0.000577101
-6.52885e-05
-0.000487086
-9.00109e-05
-0.000370911
-0.00011617
-0.000229637
-0.000141269
-8.57793e-05
-0.000143854
-8.57746e-05
-0.000564936
0.000105148
-0.000582738
6.71213e-05
-0.000590179
3.28421e-05
-0.00058906
-4.0076e-07
-0.000577257
-3.19283e-05
-0.000553507
-6.59454e-05
-0.000516091
-0.000102699
-0.000462887
-0.000143209
-0.000391117
-0.000187935
-0.000298813
-0.000233568
-0.000175758
-0.000266903
-0.000261528
-0.000453385
0.000114485
-0.000460695
7.44378e-05
-0.00046366
3.58125e-05
-0.000461231
-2.82387e-06
-0.000450714
-4.24401e-05
-0.000431997
-8.46564e-05
-0.000403891
-0.0001308
-0.000365379
-0.000181716
-0.00031478
-0.000238528
-0.000247081
-0.000301261
-0.00015143
-0.000362548
-0.000412953
-0.000345477
0.000115428
-0.000345245
7.42119e-05
-0.000342918
3.34914e-05
-0.000337797
-7.93812e-06
-0.000328904
-5.13264e-05
-0.000315519
-9.80353e-05
-0.00029649
-0.000149822
-0.000270707
-0.000207492
-0.00023627
-0.000272959
-0.000187604
-0.00034992
-0.000114144
-0.000436002
-0.00052709
-0.00022994
0.00011259
-0.000227527
7.18063e-05
-0.000224692
3.06632e-05
-0.000220794
-1.18285e-05
-0.00021527
-5.68443e-05
-0.000207577
-0.00010572
-0.000196983
-0.00016041
-0.000182552
-0.000221916
-0.000162272
-0.000293233
-0.000134036
-0.000378149
-8.65936e-05
-0.000483438
-0.000613677
-0.000118572
0.000107506
-0.000114801
6.80421e-05
-0.000111732
2.76018e-05
-0.000108943
-1.46102e-05
-0.000106137
-5.96424e-05
-0.000103062
-0.000108787
-9.97967e-05
-0.000163668
-9.56792e-05
-0.000226026
-8.98645e-05
-0.00029904
-8.02764e-05
-0.000387729
-5.74607e-05
-0.000506247
-0.00067113
-1.0169e-05
0.000100606
-5.1258e-06
6.30071e-05
-1.5108e-06
2.39949e-05
8.61104e-07
-1.69739e-05
1.952e-06
-6.07252e-05
1.53228e-06
-0.00010836
-8.43394e-07
-0.000161284
-5.47444e-06
-0.000221387
-1.24159e-05
-0.00029209
-2.05835e-05
-0.000379554
-2.51448e-05
-0.000501677
-0.000696267
9.54676e-05
9.15578e-05
0.000102358
5.61253e-05
0.000107421
1.89409e-05
0.000110625
-2.01696e-05
0.000111594
-6.16851e-05
0.000109605
-0.000106362
0.000103544
-0.000155214
9.20394e-05
-0.000209874
7.35717e-05
-0.000273614
4.7456e-05
-0.00035343
1.64738e-05
-0.000470687
-0.000679785
0.000199353
7.96358e-05
0.000209048
4.64395e-05
0.00021683
1.11684e-05
0.00022248
-2.58103e-05
0.000225297
-6.44923e-05
0.000224053
-0.00010511
0.000216842
-0.000147993
0.000201112
-0.000194135
0.0001734
-0.000245893
0.000130038
-0.000310059
6.94495e-05
-0.000410089
-0.000610326
0.000304464
6.44615e-05
0.000317718
3.31958e-05
0.000329375
-4.796e-07
0.000339024
-3.54491e-05
0.000345644
-7.11026e-05
0.000347516
-0.000106972
0.000341963
-0.00014243
0.000325366
-0.000177529
0.00029228
-0.000212798
0.000236112
-0.000253881
0.000146225
-0.000320192
-0.000464091
0.000415384
4.6542e-05
0.000432358
1.62324e-05
0.000448609
-1.67204e-05
0.000463401
-5.02311e-05
0.000475341
-8.30316e-05
0.000482213
-0.000113833
0.000480772
-0.00014098
0.000466788
-0.000163534
0.00043334
-0.00017934
0.000372042
-0.000192572
0.000257577
-0.000205717
-0.000206504
0.000536762
2.69858e-05
0.000557227
-4.22194e-06
0.000578418
-3.79007e-05
0.000598931
-7.07335e-05
0.000616891
-0.000100981
0.000629556
-0.000126488
0.000633509
-0.000144922
0.000624788
-0.000154802
0.000596873
-0.000151415
0.000538745
-0.000134434
0.000408474
-7.54349e-05
0.000201981
5.0645e-05
-5.06401e-05
9.99482e-05
-4.92983e-05
0.000132748
-3.27952e-05
0.000147615
-1.48612e-05
0.000153227
-5.6076e-06
0.00014894
4.29223e-06
0.000115048
3.38966e-05
4.20259e-05
7.30273e-05
-9.75454e-05
0.000139576
-0.000291991
0.00019445
-0.00043998
0.000147994
0.000109671
-0.000549648
4.48595e-05
-9.54942e-05
7.59295e-05
-8.03627e-05
8.13793e-05
-3.82396e-05
6.59803e-05
5.43301e-07
2.51141e-05
3.52642e-05
-5.22221e-05
8.16341e-05
-0.000175902
0.000157582
-0.000326264
0.000223394
-0.000430435
0.000243753
-0.000466911
0.000230931
-0.000503815
0.000184902
0.00014534
-0.000539478
3.31599e-05
-0.000128648
4.75735e-05
-9.47703e-05
3.64095e-05
-2.70695e-05
-3.4895e-06
4.04484e-05
-8.47769e-05
0.000116558
-0.000204704
0.000201567
-0.000316599
0.000269483
-0.000382236
0.000289037
-0.000413326
0.000274849
-0.000423095
0.000240706
-0.000433928
0.000195741
0.000155471
-0.000444054
-3.20881e-06
-0.000125433
-1.74054e-05
-8.0567e-05
-5.03953e-05
5.92708e-06
-0.000108663
9.87231e-05
-0.000190169
0.000198071
-0.000267623
0.000279027
-0.000313941
0.000315808
-0.000332629
0.00030773
-0.000338455
0.000280682
-0.000340103
0.00024236
-0.000342937
0.000198582
0.000157081
-0.000344541
-2.88356e-05
-9.65897e-05
-6.71664e-05
-4.22291e-05
-0.000115056
5.38242e-05
-0.000171375
0.000155049
-0.000224833
0.000251535
-0.000255864
0.000310066
-0.000261984
0.000321935
-0.000257539
0.000303292
-0.00024921
0.000272361
-0.000241461
0.000234617
-0.000236587
0.000193716
0.000153285
-0.000232784
-5.18369e-05
-4.4745e-05
-0.000101504
7.44538e-06
-0.000148859
0.000101187
-0.000185508
0.000191706
-0.000203711
0.000269746
-0.000199874
0.000306237
-0.00018512
0.000307189
-0.000168161
0.00028634
-0.00015254
0.000256747
-0.000139878
0.000221963
-0.000130622
0.000184468
0.000146334
-0.000123664
-6.6132e-05
2.13954e-05
-0.000121058
6.23792e-05
-0.000156102
0.00013624
-0.000166502
0.000202114
-0.000153821
0.000257073
-0.000128251
0.000280676
-0.000100406
0.000279351
-7.57203e-05
0.000261663
-5.5066e-05
0.0002361
-3.8726e-05
0.000205631
-2.63848e-05
0.000172135
0.000137035
-1.70772e-05
-7.5561e-05
9.69653e-05
-0.000123233
0.00011006
-0.000139568
0.000152583
-0.000126427
0.000188982
-9.31491e-05
0.000223803
-5.39737e-05
0.000241509
-1.6986e-05
0.000242372
1.42193e-05
0.000230466
3.94925e-05
0.000210836
5.93575e-05
0.000185775
7.46466e-05
0.000156855
0.000125279
8.64105e-05
-7.08688e-05
0.000167844
-0.000107444
0.000146645
-0.000103453
0.000148602
-7.38865e-05
0.000159425
-2.87641e-05
0.00017869
1.93782e-05
0.000193376
6.34927e-05
0.000198267
0.000100536
0.000193433
0.00013044
0.000180941
0.000154094
0.00016213
0.000172684
0.000138274
0.000110551
0.000187422
-7.06864e-05
0.00023854
-7.18043e-05
0.000147773
-4.20244e-05
0.000118832
1.33268e-06
0.000116078
5.31291e-05
0.000126903
0.000105082
0.000141433
0.000152016
0.000151343
0.000191716
0.000153743
0.000224198
0.000148469
0.000250431
0.000135907
0.000271694
0.00011702
9.29756e-05
0.00028928
-2.64836e-08
0.000238577
3.13961e-05
0.000116361
8.07021e-05
6.95362e-05
0.000130741
6.605e-05
0.000179855
7.78e-05
0.000225868
9.5431e-05
0.000267003
0.000110217
0.000302384
0.000118373
0.000332191
0.000118672
0.000357228
0.00011088
0.000378572
9.5687e-05
7.41041e-05
0.000397454
0.000193927
4.4662e-05
0.000267501
4.2798e-05
0.000313609
2.34383e-05
0.000346024
3.36468e-05
0.000372513
5.13219e-05
0.000397408
7.05468e-05
0.000421142
8.64941e-05
0.000443254
9.62713e-05
0.000463467
9.847e-05
0.000482071
9.22875e-05
0.000499602
7.81669e-05
0.000517194
5.65225e-05
-0.000629335
7.96851e-05
-0.000678629
4.93128e-05
-0.000704027
2.53963e-05
-0.000704736
7.13223e-07
-0.0006846
-2.01309e-05
-0.000642395
-4.22009e-05
-0.000577101
-6.52885e-05
-0.000487086
-9.00109e-05
-0.000370911
-0.00011617
-0.000229637
-0.000141269
-8.57793e-05
-0.000143854
-8.57747e-05
-0.000564936
0.000105148
-0.000582738
6.71211e-05
-0.000590179
3.28419e-05
-0.00058906
-4.00856e-07
-0.000577257
-3.19283e-05
-0.000553507
-6.59455e-05
-0.000516091
-0.000102699
-0.000462887
-0.000143209
-0.000391117
-0.000187935
-0.000298813
-0.000233568
-0.000175758
-0.000266903
-0.000261528
-0.000453385
0.000114485
-0.000460695
7.44376e-05
-0.00046366
3.58123e-05
-0.000461231
-2.82397e-06
-0.000450714
-4.24402e-05
-0.000431997
-8.46565e-05
-0.000403891
-0.0001308
-0.000365379
-0.000181716
-0.00031478
-0.000238528
-0.000247081
-0.000301261
-0.00015143
-0.000362548
-0.000412953
-0.000345477
0.000115428
-0.000345245
7.42117e-05
-0.000342917
3.34913e-05
-0.000337797
-7.9382e-06
-0.000328904
-5.13264e-05
-0.000315519
-9.80353e-05
-0.00029649
-0.000149822
-0.000270707
-0.000207492
-0.00023627
-0.000272959
-0.000187604
-0.00034992
-0.000114144
-0.000436002
-0.00052709
-0.00022994
0.00011259
-0.000227527
7.18061e-05
-0.000224692
3.06631e-05
-0.000220794
-1.18286e-05
-0.00021527
-5.68443e-05
-0.000207577
-0.00010572
-0.000196983
-0.00016041
-0.000182552
-0.000221916
-0.000162272
-0.000293233
-0.000134036
-0.000378149
-8.65936e-05
-0.000483438
-0.000613677
-0.000118572
0.000107506
-0.000114801
6.8042e-05
-0.000111732
2.76017e-05
-0.000108943
-1.46102e-05
-0.000106137
-5.96424e-05
-0.000103062
-0.000108787
-9.97968e-05
-0.000163668
-9.56793e-05
-0.000226026
-8.98645e-05
-0.00029904
-8.02764e-05
-0.000387729
-5.74607e-05
-0.000506247
-0.00067113
-1.0169e-05
0.000100606
-5.12581e-06
6.3007e-05
-1.51084e-06
2.39949e-05
8.61049e-07
-1.69739e-05
1.95193e-06
-6.07251e-05
1.5322e-06
-0.00010836
-8.43461e-07
-0.000161284
-5.4745e-06
-0.000221387
-1.2416e-05
-0.00029209
-2.05835e-05
-0.000379554
-2.51448e-05
-0.000501677
-0.000696267
9.54676e-05
9.15577e-05
0.000102358
5.61253e-05
0.000107421
1.89409e-05
0.000110625
-2.01695e-05
0.000111594
-6.16851e-05
0.000109605
-0.000106362
0.000103544
-0.000155214
9.20393e-05
-0.000209874
7.35716e-05
-0.000273614
4.74559e-05
-0.00035343
1.64738e-05
-0.000470687
-0.000679785
0.000199353
7.96357e-05
0.000209048
4.64395e-05
0.00021683
1.11684e-05
0.00022248
-2.58102e-05
0.000225296
-6.44922e-05
0.000224053
-0.00010511
0.000216841
-0.000147993
0.000201112
-0.000194135
0.0001734
-0.000245893
0.000130038
-0.000310059
6.94495e-05
-0.000410089
-0.000610326
0.000304464
6.44615e-05
0.000317717
3.31958e-05
0.000329375
-4.79577e-07
0.000339024
-3.54491e-05
0.000345644
-7.11026e-05
0.000347516
-0.000106972
0.000341963
-0.00014243
0.000325366
-0.000177529
0.00029228
-0.000212798
0.000236112
-0.000253881
0.000146225
-0.000320192
-0.000464091
0.000415384
4.6542e-05
0.000432358
1.62324e-05
0.000448609
-1.67203e-05
0.000463401
-5.02311e-05
0.00047534
-8.30315e-05
0.000482212
-0.000113833
0.000480772
-0.00014098
0.000466788
-0.000163534
0.00043334
-0.00017934
0.000372042
-0.000192573
0.000257577
-0.000205717
-0.000206504
0.000536761
2.69859e-05
0.000557227
-4.22183e-06
0.000578418
-3.79006e-05
0.000598931
-7.07334e-05
0.000616891
-0.000100981
0.000629556
-0.000126488
0.000633509
-0.000144922
0.000624788
-0.000154803
0.000596873
-0.000151415
0.000538745
-0.000134434
0.000408474
-7.54352e-05
0.00020198
5.06451e-05
-5.06401e-05
9.99483e-05
-4.92983e-05
0.000132749
-3.27952e-05
0.000147615
-1.48612e-05
0.000153227
-5.60749e-06
0.00014894
4.29233e-06
0.000115048
3.38966e-05
4.20259e-05
7.30272e-05
-9.75451e-05
0.000139576
-0.00029199
0.00019445
-0.000439979
0.000147994
0.000109671
-0.000549647
4.48596e-05
-9.54942e-05
7.59294e-05
-8.03627e-05
8.13793e-05
-3.82396e-05
6.59803e-05
5.43343e-07
2.5114e-05
3.52644e-05
-5.22221e-05
8.16341e-05
-0.000175902
0.000157582
-0.000326264
0.000223394
-0.000430435
0.000243753
-0.000466911
0.000230931
-0.000503814
0.000184902
0.000145339
-0.000539478
3.31598e-05
-0.000128648
4.75732e-05
-9.47701e-05
3.64091e-05
-2.70694e-05
-3.48986e-06
4.04485e-05
-8.47771e-05
0.000116558
-0.000204704
0.000201567
-0.000316599
0.000269483
-0.000382235
0.000289036
-0.000413326
0.000274849
-0.000423095
0.000240706
-0.000433928
0.000195741
0.000155471
-0.000444053
-3.20896e-06
-0.000125432
-1.74056e-05
-8.05668e-05
-5.03955e-05
5.9272e-06
-0.000108663
9.87231e-05
-0.00019017
0.00019807
-0.000267623
0.000279027
-0.000313941
0.000315808
-0.000332629
0.00030773
-0.000338455
0.000280682
-0.000340102
0.000242359
-0.000342937
0.000198582
0.000157081
-0.000344541
-2.88357e-05
-9.65894e-05
-6.71665e-05
-4.22288e-05
-0.000115056
5.38242e-05
-0.000171375
0.000155049
-0.000224833
0.000251535
-0.000255864
0.000310066
-0.000261984
0.000321935
-0.000257539
0.000303291
-0.00024921
0.00027236
-0.000241461
0.000234617
-0.000236587
0.000193716
0.000153285
-0.000232784
-5.1837e-05
-4.47447e-05
-0.000101504
7.44565e-06
-0.000148859
0.000101187
-0.000185508
0.000191706
-0.000203711
0.000269745
-0.000199874
0.000306236
-0.00018512
0.000307188
-0.000168161
0.00028634
-0.00015254
0.000256746
-0.000139878
0.000221963
-0.000130622
0.000184468
0.000146334
-0.000123664
-6.61321e-05
2.13957e-05
-0.000121058
6.23795e-05
-0.000156102
0.00013624
-0.000166502
0.000202114
-0.000153821
0.000257072
-0.000128251
0.000280675
-0.000100406
0.000279351
-7.57203e-05
0.000261662
-5.5066e-05
0.0002361
-3.8726e-05
0.000205631
-2.63848e-05
0.000172135
0.000137034
-1.70772e-05
-7.55611e-05
9.69656e-05
-0.000123233
0.000110061
-0.000139568
0.000152583
-0.000126427
0.000188982
-9.31491e-05
0.000223803
-5.39737e-05
0.000241508
-1.69861e-05
0.000242372
1.42192e-05
0.000230466
3.94924e-05
0.000210836
5.93574e-05
0.000185774
7.46466e-05
0.000156854
0.000125279
8.64105e-05
-7.08689e-05
0.000167844
-0.000107444
0.000146645
-0.000103453
0.000148602
-7.38865e-05
0.000159425
-2.87641e-05
0.00017869
1.93781e-05
0.000193376
6.34926e-05
0.000198267
0.000100536
0.000193432
0.00013044
0.00018094
0.000154094
0.00016213
0.000172684
0.000138273
0.000110551
0.000187422
-7.06863e-05
0.00023854
-7.18042e-05
0.000147773
-4.20242e-05
0.000118832
1.33283e-06
0.000116078
5.31292e-05
0.000126903
0.000105082
0.000141433
0.000152016
0.000151342
0.000191716
0.000153742
0.000224198
0.000148468
0.000250431
0.000135907
0.000271694
0.00011702
9.29752e-05
0.00028928
-2.63348e-08
0.000238577
3.13964e-05
0.000116361
8.07024e-05
6.95361e-05
0.000130741
6.60498e-05
0.000179855
7.77998e-05
0.000225868
9.54307e-05
0.000267004
0.000110217
0.000302384
0.000118372
0.000332191
0.000118672
0.000357229
0.00011088
0.000378572
9.56866e-05
7.41037e-05
0.000397454
0.000193927
4.46618e-05
0.000267501
4.27979e-05
0.00031361
2.34382e-05
0.000346024
3.36467e-05
0.000372513
5.13217e-05
0.000397408
7.05465e-05
0.000421142
8.64937e-05
0.000443254
9.62709e-05
0.000463468
9.84695e-05
0.000482071
9.2287e-05
0.000499602
7.81664e-05
0.000517195
5.65221e-05
-0.000629334
7.9685e-05
-0.000678628
4.93127e-05
-0.000704026
2.53963e-05
-0.000704735
7.13185e-07
-0.000684599
-2.01309e-05
-0.000642394
-4.22009e-05
-0.000577101
-6.52885e-05
-0.000487085
-9.00108e-05
-0.00037091
-0.00011617
-0.000229637
-0.000141269
-8.5779e-05
-0.000143853
-8.57744e-05
-0.000564936
0.000105148
-0.000582737
6.7121e-05
-0.000590178
3.28419e-05
-0.000589059
-4.00916e-07
-0.000577256
-3.19284e-05
-0.000553507
-6.59455e-05
-0.000516091
-0.000102699
-0.000462887
-0.000143209
-0.000391117
-0.000187935
-0.000298813
-0.000233567
-0.000175758
-0.000266903
-0.000261527
-0.000453385
0.000114485
-0.000460695
7.44375e-05
-0.00046366
3.58122e-05
-0.000461231
-2.82404e-06
-0.000450713
-4.24402e-05
-0.000431997
-8.46565e-05
-0.000403891
-0.0001308
-0.000365378
-0.000181716
-0.00031478
-0.000238528
-0.000247081
-0.000301261
-0.00015143
-0.000362548
-0.000412952
-0.000345477
0.000115427
-0.000345245
7.42116e-05
-0.000342917
3.34912e-05
-0.000337797
-7.93828e-06
-0.000328904
-5.13265e-05
-0.000315519
-9.80353e-05
-0.00029649
-0.000149822
-0.000270707
-0.000207492
-0.00023627
-0.000272959
-0.000187604
-0.00034992
-0.000114144
-0.000436002
-0.000527089
-0.000229939
0.00011259
-0.000227527
7.18059e-05
-0.000224692
3.0663e-05
-0.000220794
-1.18286e-05
-0.000215269
-5.68444e-05
-0.000207577
-0.00010572
-0.000196983
-0.00016041
-0.000182552
-0.000221916
-0.000162271
-0.000293232
-0.000134036
-0.000378148
-8.65935e-05
-0.000483438
-0.000613676
-0.000118572
0.000107506
-0.000114801
6.80418e-05
-0.000111732
2.76016e-05
-0.000108942
-1.46103e-05
-0.000106137
-5.96424e-05
-0.000103062
-0.000108787
-9.97967e-05
-0.000163668
-9.56792e-05
-0.000226026
-8.98644e-05
-0.00029904
-8.02763e-05
-0.000387729
-5.74606e-05
-0.000506246
-0.000671129
-1.01689e-05
0.000100606
-5.12575e-06
6.30068e-05
-1.51076e-06
2.39947e-05
8.61135e-07
-1.6974e-05
1.95202e-06
-6.07252e-05
1.53229e-06
-0.00010836
-8.43383e-07
-0.000161284
-5.47444e-06
-0.000221387
-1.24159e-05
-0.00029209
-2.05835e-05
-0.000379554
-2.51448e-05
-0.000501677
-0.000696266
9.54676e-05
9.15574e-05
0.000102358
5.61251e-05
0.000107421
1.89407e-05
0.000110625
-2.01696e-05
0.000111594
-6.16851e-05
0.000109605
-0.000106362
0.000103544
-0.000155214
9.20393e-05
-0.000209874
7.35717e-05
-0.000273614
4.74559e-05
-0.000353429
1.64738e-05
-0.000470686
-0.000679784
0.000199353
7.96354e-05
0.000209048
4.64392e-05
0.00021683
1.11682e-05
0.00022248
-2.58103e-05
0.000225296
-6.44923e-05
0.000224053
-0.000105109
0.000216841
-0.000147993
0.000201112
-0.000194135
0.0001734
-0.000245893
0.000130038
-0.000310058
6.94495e-05
-0.000410088
-0.000610325
0.000304464
6.44612e-05
0.000317718
3.31955e-05
0.000329375
-4.79739e-07
0.000339024
-3.54492e-05
0.000345644
-7.11026e-05
0.000347516
-0.000106971
0.000341963
-0.00014243
0.000325366
-0.000177528
0.00029228
-0.000212798
0.000236112
-0.00025388
0.000146225
-0.000320192
-0.000464091
0.000415384
4.65417e-05
0.000432358
1.62322e-05
0.000448609
-1.67204e-05
0.000463401
-5.02311e-05
0.00047534
-8.30315e-05
0.000482213
-0.000113833
0.000480772
-0.000140979
0.000466788
-0.000163534
0.00043334
-0.00017934
0.000372042
-0.000192572
0.000257577
-0.000205717
-0.000206504
0.000536762
2.69855e-05
0.000557227
-4.22205e-06
0.000578418
-3.79007e-05
0.000598931
-7.07334e-05
0.000616891
-0.000100981
0.000629556
-0.000126487
0.000633509
-0.000144922
0.000624788
-0.000154802
0.000596873
-0.000151414
0.000538745
-0.000134434
0.000408474
-7.54347e-05
0.000201981
5.0645e-05
-5.06401e-05
9.99482e-05
-4.92983e-05
0.000132748
-3.27953e-05
0.000147614
-1.48612e-05
0.000153227
-5.60757e-06
0.00014894
4.29216e-06
0.000115048
3.38964e-05
4.20264e-05
7.3027e-05
-9.75441e-05
0.000139575
-0.000291989
0.00019445
-0.000439979
0.000147994
0.000109671
-0.000549646
4.48595e-05
-9.54941e-05
7.59295e-05
-8.03627e-05
8.13794e-05
-3.82397e-05
6.59805e-05
5.4318e-07
2.51144e-05
3.52641e-05
-5.22214e-05
8.16336e-05
-0.000175901
0.000157582
-0.000326263
0.000223394
-0.000430435
0.000243753
-0.00046691
0.000230931
-0.000503814
0.000184903
0.00014534
-0.000539477
3.31599e-05
-0.000128648
4.75736e-05
-9.47703e-05
3.64097e-05
-2.70697e-05
-3.48908e-06
4.04481e-05
-8.47761e-05
0.000116557
-0.000204703
0.000201566
-0.000316598
0.000269483
-0.000382235
0.000289036
-0.000413326
0.000274849
-0.000423094
0.000240706
-0.000433927
0.000195741
0.000155471
-0.000444053
-3.20869e-06
-0.000125433
-1.74051e-05
-8.05672e-05
-5.03948e-05
5.92671e-06
-0.000108663
9.87225e-05
-0.000190169
0.00019807
-0.000267623
0.000279027
-0.000313941
0.000315808
-0.000332628
0.00030773
-0.000338455
0.000280682
-0.000340102
0.00024236
-0.000342937
0.000198582
0.000157081
-0.00034454
-2.88354e-05
-9.65899e-05
-6.71661e-05
-4.22294e-05
-0.000115056
5.38237e-05
-0.000171375
0.000155048
-0.000224832
0.000251535
-0.000255864
0.000310066
-0.000261984
0.000321935
-0.000257539
0.000303291
-0.00024921
0.000272361
-0.00024146
0.000234617
-0.000236587
0.000193716
0.000153285
-0.000232784
-5.18368e-05
-4.47453e-05
-0.000101504
7.44497e-06
-0.000148859
0.000101187
-0.000185508
0.000191705
-0.000203711
0.000269745
-0.000199874
0.000306236
-0.00018512
0.000307189
-0.000168161
0.00028634
-0.00015254
0.000256746
-0.000139878
0.000221963
-0.000130622
0.000184468
0.000146334
-0.000123664
-6.61321e-05
2.13951e-05
-0.000121058
6.23789e-05
-0.000156102
0.000136239
-0.000166502
0.000202114
-0.000153821
0.000257072
-0.000128252
0.000280675
-0.000100406
0.000279351
-7.57204e-05
0.000261663
-5.5066e-05
0.0002361
-3.8726e-05
0.000205631
-2.63847e-05
0.000172135
0.000137034
-1.70771e-05
-7.55611e-05
9.69651e-05
-0.000123233
0.00011006
-0.000139568
0.000152583
-0.000126428
0.000188982
-9.31494e-05
0.000223803
-5.3974e-05
0.000241508
-1.69862e-05
0.000242372
1.42191e-05
0.000230466
3.94923e-05
0.000210836
5.93574e-05
0.000185775
7.46466e-05
0.000156854
0.000125279
8.64106e-05
-7.08689e-05
0.000167844
-0.000107444
0.000146645
-0.000103453
0.000148601
-7.38869e-05
0.000159425
-2.87644e-05
0.00017869
1.93779e-05
0.000193375
6.34924e-05
0.000198267
0.000100535
0.000193432
0.00013044
0.00018094
0.000154094
0.00016213
0.000172684
0.000138274
0.000110551
0.000187422
-7.06864e-05
0.00023854
-7.18044e-05
0.000147773
-4.20245e-05
0.000118831
1.33246e-06
0.000116078
5.31288e-05
0.000126903
0.000105081
0.000141433
0.000152016
0.000151342
0.000191716
0.000153742
0.000224198
0.000148468
0.000250431
0.000135907
0.000271694
0.00011702
9.29753e-05
0.00028928
-2.64683e-08
0.000238577
3.13961e-05
0.000116361
8.0702e-05
6.9536e-05
0.000130741
6.60497e-05
0.000179855
7.77997e-05
0.000225867
9.54306e-05
0.000267003
0.000110217
0.000302384
0.000118372
0.000332191
0.000118672
0.000357228
0.00011088
0.000378572
9.56866e-05
7.41037e-05
0.000397454
0.000193927
4.46619e-05
0.000267501
4.27979e-05
0.000313609
2.34381e-05
0.000346024
3.36466e-05
0.000372513
5.13216e-05
0.000397408
7.05464e-05
0.000421142
8.64936e-05
0.000443254
9.62708e-05
0.000463467
9.84694e-05
0.000482071
9.2287e-05
0.000499602
7.81664e-05
0.000517194
5.65221e-05
-0.000629334
7.96852e-05
-0.000678627
4.93128e-05
-0.000704026
2.53964e-05
-0.000704735
7.13274e-07
-0.000684599
-2.01308e-05
-0.000642394
-4.22008e-05
-0.000577101
-6.52884e-05
-0.000487085
-9.00108e-05
-0.00037091
-0.00011617
-0.000229637
-0.000141269
-8.5779e-05
-0.000143853
-8.57744e-05
-0.000564936
0.000105148
-0.000582737
6.71212e-05
-0.000590178
3.2842e-05
-0.000589059
-4.00775e-07
-0.000577256
-3.19282e-05
-0.000553506
-6.59454e-05
-0.00051609
-0.000102699
-0.000462887
-0.000143209
-0.000391117
-0.000187935
-0.000298813
-0.000233567
-0.000175758
-0.000266903
-0.000261527
-0.000453384
0.000114485
-0.000460695
7.44377e-05
-0.00046366
3.58124e-05
-0.000461231
-2.82386e-06
-0.000450713
-4.24401e-05
-0.000431996
-8.46563e-05
-0.00040389
-0.000130799
-0.000365378
-0.000181716
-0.00031478
-0.000238527
-0.000247081
-0.000301261
-0.00015143
-0.000362548
-0.000412952
-0.000345477
0.000115428
-0.000345244
7.42118e-05
-0.000342917
3.34914e-05
-0.000337796
-7.9381e-06
-0.000328904
-5.13263e-05
-0.000315519
-9.80351e-05
-0.00029649
-0.000149822
-0.000270707
-0.000207492
-0.000236269
-0.000272959
-0.000187604
-0.00034992
-0.000114144
-0.000436002
-0.000527089
-0.000229939
0.00011259
-0.000227527
7.18061e-05
-0.000224691
3.06631e-05
-0.000220794
-1.18285e-05
-0.000215269
-5.68442e-05
-0.000207577
-0.00010572
-0.000196983
-0.000160409
-0.000182552
-0.000221916
-0.000162271
-0.000293232
-0.000134036
-0.000378148
-8.65935e-05
-0.000483438
-0.000613676
-0.000118572
0.000107506
-0.0001148
6.8042e-05
-0.000111731
2.76018e-05
-0.000108942
-1.46101e-05
-0.000106137
-5.96422e-05
-0.000103062
-0.000108787
-9.97965e-05
-0.000163668
-9.56791e-05
-0.000226026
-8.98643e-05
-0.000299039
-8.02763e-05
-0.000387729
-5.74606e-05
-0.000506246
-0.000671129
-1.01688e-05
0.000100606
-5.12563e-06
6.3007e-05
-1.51064e-06
2.39949e-05
8.61257e-07
-1.69739e-05
1.95214e-06
-6.0725e-05
1.5324e-06
-0.000108359
-8.43282e-07
-0.000161284
-5.47435e-06
-0.000221387
-1.24159e-05
-0.00029209
-2.05834e-05
-0.000379553
-2.51448e-05
-0.000501677
-0.000696266
9.54677e-05
9.15576e-05
0.000102358
5.61252e-05
0.000107421
1.89409e-05
0.000110625
-2.01695e-05
0.000111594
-6.1685e-05
0.000109605
-0.000106362
0.000103544
-0.000155213
9.20394e-05
-0.000209874
7.35717e-05
-0.000273614
4.7456e-05
-0.000353429
1.64738e-05
-0.000470686
-0.000679784
0.000199353
7.96355e-05
0.000209048
4.64394e-05
0.00021683
1.11683e-05
0.00022248
-2.58102e-05
0.000225297
-6.44921e-05
0.000224053
-0.000105109
0.000216842
-0.000147993
0.000201112
-0.000194135
0.0001734
-0.000245893
0.000130038
-0.000310058
6.94495e-05
-0.000410088
-0.000610325
0.000304464
6.44613e-05
0.000317718
3.31956e-05
0.000329375
-4.79625e-07
0.000339024
-3.5449e-05
0.000345644
-7.11025e-05
0.000347516
-0.000106971
0.000341963
-0.00014243
0.000325366
-0.000177528
0.00029228
-0.000212798
0.000236112
-0.00025388
0.000146225
-0.000320192
-0.000464091
0.000415384
4.65418e-05
0.000432358
1.62323e-05
0.000448609
-1.67204e-05
0.000463401
-5.0231e-05
0.00047534
-8.30314e-05
0.000482213
-0.000113833
0.000480772
-0.000140979
0.000466788
-0.000163534
0.00043334
-0.00017934
0.000372042
-0.000192572
0.000257577
-0.000205716
-0.000206504
0.000536762
2.69856e-05
0.000557227
-4.22202e-06
0.000578418
-3.79006e-05
0.000598931
-7.07333e-05
0.000616891
-0.000100981
0.000629556
-0.000126487
0.000633509
-0.000144921
0.000624788
-0.000154802
0.000596873
-0.000151414
0.000538745
-0.000134433
0.000408474
-7.54346e-05
0.000201981
0.000724537
9.71625e-05
-0.000777026
0.00069578
7.15658e-05
0.000657968
6.12614e-05
0.000631415
6.02109e-05
0.000615626
6.71223e-05
0.000608597
7.75868e-05
0.000607868
8.72337e-05
0.00061127
9.28812e-05
0.000617374
9.23768e-05
0.000625828
8.3845e-05
0.000636606
6.74e-05
4.19937e-05
0.000651146
0.000935306
0.000100996
-0.000939128
0.000914777
9.21067e-05
0.000887417
8.86328e-05
0.000859105
8.85346e-05
0.000833943
9.22962e-05
0.000813608
9.79338e-05
0.000798373
0.00010248
0.000787989
0.000103277
0.000782223
9.81545e-05
0.000781537
8.45423e-05
0.000786234
6.27153e-05
2.91212e-05
0.000799118
0.00106446
0.000100362
-0.00106381
0.00105646
0.000100119
0.00104297
0.000102133
0.00102553
0.000105993
0.00100624
0.000111596
0.000987067
0.000117116
0.000969553
0.000120006
0.000955076
0.000117767
0.00094506
0.000108182
0.000941405
8.82096e-05
0.000945639
5.84933e-05
1.20941e-05
0.000962679
0.00117343
-0.00117234
9.92846e-05
0.00117137
0.000102196
0.00116532
0.00010819
0.0011557
0.000115627
0.0011436
0.00012371
0.00113068
0.000130052
0.00111862
0.000132081
0.00110932
0.000127072
0.001105
0.000112514
0.00110851
8.47158e-05
0.00112308
4.39317e-05