/*--------------------------------*- C++ -*----------------------------------*\
| =========                 |                                                 |
| \\      /  F ield         | OpenFOAM: The Open Source CFD Toolbox           |
|  \\    /   O peration     | Version:  2212                                  |
|   \\  /    A nd           | Website:  www.openfoam.com                      |
|    \\/     M anipulation  |                                                 |
\*---------------------------------------------------------------------------*/
FoamFile
{
    version     2.0;
    format      ascii;
    arch        "LSB;label=32;scalar=64";
    class       surfaceScalarField;
    location    "0.05";
    object      phi;
}
// * * * * * * * * * * * * * * * * * * * * * * * * * * * * * * * * * * * * * //

dimensions      [1 0 -1 0 0 0 0];

oriented        oriented;

internalField   nonuniform List<scalar> 
5952
(
6.54996e-05
-6.5499e-05
0.000123428
-5.79282e-05
0.000154613
-3.11835e-05
0.000168051
-1.34378e-05
0.000166588
1.46334e-06
0.000131318
3.52711e-05
5.61858e-05
7.51327e-05
-8.13309e-05
0.000137517
-0.000294046
0.000212715
-0.000468211
0.000174166
-0.000597568
0.000129357
9.81076e-05
-0.000695675
5.21218e-05
-0.00011762
7.88181e-05
-8.46237e-05
7.24139e-05
-2.47787e-05
3.09927e-05
2.79841e-05
-5.40421e-05
8.64988e-05
-0.00018758
0.00016881
-0.00034998
0.000237533
-0.000474262
0.000261799
-0.000517523
0.000255977
-0.000555652
0.000212296
-0.000594721
0.000168427
0.000131125
-0.000627739
2.14993e-05
-0.000139119
1.45361e-05
-7.76598e-05
-2.72034e-05
1.69616e-05
-0.000112649
0.000113431
-0.0002375
0.00021135
-0.000349713
0.000281023
-0.000416548
0.000304368
-0.000452211
0.000297463
-0.000464587
0.000268354
-0.000476781
0.00022449
-0.000491074
0.000182721
0.000142308
-0.000502256
-3.49816e-05
-0.000104136
-8.0161e-05
-3.24796e-05
-0.000145203
8.20039e-05
-0.000225552
0.000193781
-0.000297769
0.000283568
-0.000340866
0.00032412
-0.00036153
0.000325033
-0.000369238
0.000305171
-0.00037112
0.000270237
-0.000373782
0.000227153
-0.000376017
0.000184956
0.000143345
-0.000377053
-5.95219e-05
-4.46136e-05
-0.000122173
3.01727e-05
-0.00018349
0.000143322
-0.000236041
0.000246333
-0.00026707
0.000314598
-0.00027648
0.000333531
-0.000275509
0.000324063
-0.000267655
0.000297318
-0.000258962
0.000261544
-0.000253127
0.000221319
-0.000249019
0.000180848
0.000140476
-0.000246149
-6.60085e-05
2.13958e-05
-0.00012544
8.96047e-05
-0.000172112
0.000189995
-0.00019746
0.000271681
-0.000200884
0.000318023
-0.000191657
0.000324304
-0.000176018
0.000308425
-0.000159501
0.000280803
-0.000144987
0.00024703
-0.000133766
0.000210099
-0.00012528
0.000172363
0.000134244
-0.000119047
-6.59012e-05
8.72979e-05
-0.000116873
0.000140578
-0.000144424
0.000217547
-0.000145386
0.000272643
-0.000127644
0.000300282
-0.000102563
0.000299224
-7.66074e-05
0.00028247
-5.28411e-05
0.000257037
-3.26891e-05
0.000226879
-1.65762e-05
0.000193987
-4.00345e-06
0.000159791
0.000124683
5.55762e-06
-6.74847e-05
0.000154784
-0.000104181
0.000177275
-0.000110429
0.000223796
-8.9749e-05
0.000251964
-5.45852e-05
0.000265119
-1.65994e-05
0.000261239
1.90837e-05
0.000246788
5.03632e-05
0.000225759
7.66587e-05
0.000200584
9.80765e-05
0.00017257
0.000115206
0.000142663
0.000111251
0.000128639
-5.69889e-05
0.000211774
-8.26596e-05
0.000202947
-6.76147e-05
0.000208752
-2.90983e-05
0.000213449
2.00951e-05
0.000215926
6.93313e-05
0.000212004
0.000114195
0.000201925
0.000153095
0.000186859
0.0001859
0.00016778
0.000213044
0.000145428
0.00023522
0.000120488
9.33943e-05
0.000253078
-6.04688e-05
0.000272244
-4.96965e-05
0.000192176
-4.72285e-06
0.000163779
5.20397e-05
0.000156687
0.000112876
0.000155091
0.000170529
0.000154352
0.000222041
0.000150414
0.00026658
0.000142321
0.000304404
0.000129957
0.000336161
0.000113672
0.00036261
9.40397e-05
7.15994e-05
0.000384406
7.64549e-06
0.000264599
5.67026e-05
0.00014312
0.000124965
9.55185e-05
0.000192763
8.88905e-05
0.000256211
9.16429e-05
0.000313381
9.71832e-05
0.000363812
9.99842e-05
0.000407697
9.84373e-05
0.000445581
9.20739e-05
0.000478092
8.1162e-05
0.000505861
6.62712e-05
4.80846e-05
0.000529377
0.000219217
4.53837e-05
0.000314332
4.80061e-05
0.00038126
2.85913e-05
0.000433993
3.61586e-05
0.000478259
4.73779e-05
0.000518193
5.72508e-05
0.000554899
6.32784e-05
0.000588534
6.48033e-05
0.000619119
6.14898e-05
0.000646669
5.36134e-05
0.0006713
4.1641e-05
0.000693062
2.6324e-05
-0.000763992
6.83172e-05
-0.000804686
4.06944e-05
-0.000821301
1.66148e-05
-0.000814539
-6.76125e-06
-0.000786441
-2.80974e-05
-0.000735909
-5.05313e-05
-0.000661371
-7.45382e-05
-0.000561007
-0.000100363
-0.000432661
-0.000128346
-0.000276603
-0.000156057
-0.000111989
-0.000164613
-0.000111989
-0.000650705
9.12844e-05
-0.00066522
5.52096e-05
-0.00066989
2.12854e-05
-0.00066547
-1.11813e-05
-0.000649784
-4.37826e-05
-0.000621196
-7.91192e-05
-0.000577807
-0.000117926
-0.00051721
-0.00016096
-0.000436425
-0.00020913
-0.000332692
-0.00025979
-0.000197552
-0.000299753
-0.00030954
-0.000511661
0.00010069
-0.000517544
6.1093e-05
-0.000518861
2.26033e-05
-0.000513881
-1.61609e-05
-0.00050074
-5.69232e-05
-0.000478565
-0.000101293
-0.0004459
-0.000150591
-0.000401353
-0.000205506
-0.000343136
-0.000267347
-0.000266195
-0.00033673
-0.00015987
-0.000406077
-0.00046941
-0.000378268
0.000101906
-0.000378533
6.1358e-05
-0.000376452
2.05232e-05
-0.000370854
-2.17581e-05
-0.000360862
-6.69144e-05
-0.000345696
-0.000116458
-0.000324122
-0.000172164
-0.000295171
-0.000234457
-0.000256545
-0.000305973
-0.000203727
-0.000389548
-0.000124731
-0.000485073
-0.00059414
-0.000244318
0.000100075
-0.00024253
5.95704e-05
-0.000240025
1.80189e-05
-0.000236133
-2.56489e-05
-0.000230321
-7.27256e-05
-0.000222004
-0.000124775
-0.00021062
-0.000183547
-0.000194918
-0.000250158
-0.000172824
-0.000328066
-0.000141554
-0.000420818
-8.9606e-05
-0.00053702
-0.000683746
-0.000114626
9.56557e-05
-0.000111365
5.63096e-05
-0.000108784
1.54385e-05
-0.000106521
-2.79106e-05
-0.000104323
-7.49231e-05
-0.00010206
-0.000127038
-9.97079e-05
-0.000185898
-9.64675e-05
-0.000253398
-9.15678e-05
-0.000332965
-8.25956e-05
-0.000429789
-6.0222e-05
-0.000559393
-0.000743967
1.25803e-05
8.86338e-05
1.75158e-05
5.13749e-05
2.06278e-05
1.23273e-05
2.2003e-05
-2.92849e-05
2.15453e-05
-7.44646e-05
1.89936e-05
-0.000124485
1.40047e-05
-0.000180909
6.44578e-06
-0.000245838
-3.5821e-06
-0.000322936
-1.47328e-05
-0.000418638
-2.21795e-05
-0.000551946
-0.000766146
0.00013886
7.84137e-05
0.000146207
4.40294e-05
0.000150781
7.75436e-06
0.000152437
-3.09399e-05
0.000150755
-7.27825e-05
0.000145043
-0.000118772
0.000134321
-0.000170185
0.00011742
-0.000228937
9.2991e-05
-0.000298506
6.03803e-05
-0.000386026
2.2357e-05
-0.000513921
-0.000743788
0.00026712
6.43722e-05
0.000277634
3.35164e-05
0.00028462
7.69307e-07
0.000287767
-3.40866e-05
0.000286395
-7.14095e-05
0.000279415
-0.000111791
0.000265178
-0.000155948
0.000241466
-0.000205224
0.000205111
-0.00026215
0.000152511
-0.000333425
8.13878e-05
-0.000442798
-0.0006624
0.000402049
4.673e-05
0.000415797
1.97699e-05
0.00042558
-9.01323e-06
0.000430979
-3.94844e-05
0.000431126
-7.15558e-05
0.000424652
-0.000105316
0.000409339
-0.000140634
0.000382045
-0.00017793
0.000337629
-0.000217732
0.000269398
-0.000265194
0.000164811
-0.00033821
-0.000497588
0.000549024
2.70843e-05
0.000564961
3.83319e-06
0.000577026
-2.10764e-05
0.000584702
-4.71598e-05
0.000586991
-7.38443e-05
0.000582379
-0.000100702
0.000568357
-0.000126611
0.000541362
-0.000150934
0.000494627
-0.000170997
0.000419593
-0.000190159
0.000288346
-0.000206962
-0.000209241
0.000712059
8.08824e-06
0.000728232
-1.23394e-05
0.000741238
-3.40808e-05
0.000750432
-5.6353e-05
0.000754744
-7.81553e-05
0.000752641
-9.85988e-05
0.000741642
-0.000115611
0.000718525
-0.000127816
0.000676788
-0.000129259
0.000604223
-0.000117592
0.000452217
-5.49555e-05
0.000242977
6.07728e-05
-6.07722e-05
0.000116511
-5.57378e-05
0.000148001
-3.14892e-05
0.000160477
-1.24754e-05
0.000162111
-1.63312e-06
0.000138412
2.36992e-05
7.41833e-05
6.42295e-05
-3.55887e-05
0.000109773
-0.000235274
0.000199685
-0.000418632
0.000183359
-0.000550143
0.000131512
0.000102925
-0.000653068
5.06142e-05
-0.000111386
7.88671e-05
-8.39901e-05
7.66761e-05
-2.92975e-05
4.50376e-05
1.91638e-05
-2.52534e-05
6.86586e-05
-0.000142519
0.000140965
-0.000297398
0.00021911
-0.000438315
0.000250689
-0.000493272
0.000254643
-0.000527297
0.000217384
-0.000567
0.000171215
0.00013563
-0.000599705
2.66259e-05
-0.000138011
2.7139e-05
-8.45025e-05
-4.35696e-06
2.1992e-06
-7.53619e-05
9.01695e-05
-0.000191001
0.000184298
-0.000312897
0.000262862
-0.000389893
0.000296107
-0.000431826
0.000292623
-0.000445684
0.000268502
-0.00045568
0.00022738
-0.000469528
0.000185064
0.000146154
-0.000480052
-2.54533e-05
-0.000112557
-6.0782e-05
-4.9173e-05
-0.000117011
5.84294e-05
-0.000193706
0.000166865
-0.000271664
0.000262257
-0.000322215
0.000313414
-0.000346008
0.0003199
-0.000355004
0.000301619
-0.000356648
0.000270147
-0.000358228
0.000228961
-0.000360384
0.000187221
0.000146774
-0.000361004
-5.15385e-05
-6.10175e-05
-0.00010892
8.20978e-06
-0.000168374
0.000117884
-0.000223381
0.000221872
-0.000259223
0.000298099
-0.000269976
0.000324168
-0.000267551
0.000317476
-0.000259456
0.000293524
-0.000249416
0.000260108
-0.000242088
0.000221634
-0.000237089
0.000182224
0.000143087
-0.000233402
-6.33157e-05
2.29904e-06
-0.000121403
6.62978e-05
-0.000169341
0.000165822
-0.000197114
0.000249646
-0.000201504
0.00030249
-0.000190814
0.000313479
-0.000173607
0.000300269
-0.000155458
0.000275376
-0.000139237
0.000243888
-0.000126471
0.000208869
-0.00011693
0.000172683
0.000136147
-0.000109989
-6.70407e-05
6.93407e-05
-0.000119747
0.000119005
-0.000149447
0.000195524
-0.000151651
0.00025185
-0.000133096
0.000283936
-0.000106108
0.000286492
-7.83051e-05
0.000272467
-5.2644e-05
0.000249715
-3.07301e-05
0.000221975
-1.31362e-05
0.000191276
4.64813e-07
0.000159082
0.000125992
1.06204e-05
-7.06372e-05
0.000139979
-0.000110615
0.000158983
-0.000119361
0.000204271
-9.97717e-05
0.000232262
-6.38433e-05
0.000248009
-2.42203e-05
0.00024687
1.32706e-05
0.000234977
4.64025e-05
0.000216584
7.43812e-05
0.000193997
9.7182e-05
0.000168476
0.000115273
0.000140993
0.000112045
0.000129221
-6.12601e-05
0.00020124
-9.09449e-05
0.000188669
-7.87812e-05
0.000192108
-4.19351e-05
0.000195417
7.35074e-06
0.000198724
5.77126e-05
0.000196509
0.000104105
0.000188585
0.000144654
0.000176037
0.000178989
0.000159663
0.000207382
0.000140084
0.000230427
0.000117949
9.37342e-05
0.000248739
-6.5408e-05
0.000266649
-5.84863e-05
0.000181749
-1.70951e-05
0.000150718
3.73917e-05
0.000140931
9.76395e-05
0.000138477
0.000155761
0.000138388
0.000208226
0.000136121
0.000253924
0.00013034
0.000292907
0.000120681
0.000325656
0.000107336
0.000352811
9.07947e-05
7.15702e-05
0.000374976
3.22749e-06
0.000263423
4.67578e-05
0.00013822
0.000111711
8.57663e-05
0.000177314
7.53292e-05
0.000239755
7.60371e-05
0.00029659
8.15535e-05
0.000347113
8.55991e-05
0.000391396
8.60584e-05
0.000429863
8.22145e-05
0.000462999
7.42019e-05
0.000491261
6.25335e-05
4.77852e-05
0.000515047
0.000211645
5.17789e-05
0.000302229
4.76375e-05
0.000367407
2.05889e-05
0.000418598
2.41388e-05
0.000461219
3.34171e-05
0.000499783
4.2991e-05
0.000535577
4.98066e-05
0.000568807
5.28291e-05
0.000599422
5.16006e-05
0.000627291
4.63335e-05
0.000652291
3.75346e-05
0.000674326
2.57515e-05
-0.00072415
7.10826e-05
-0.00076844
4.42903e-05
-0.000787921
1.94819e-05
-0.000784282
-3.63929e-06
-0.000759013
-2.52686e-05
-0.000711809
-4.72029e-05
-0.000640429
-7.13802e-05
-0.000543574
-9.68549e-05
-0.000418651
-0.000124922
-0.000266325
-0.000152325
-0.000106061
-0.000160264
-0.000106061
-0.000623717
9.50952e-05
-0.000638872
5.94463e-05
-0.000644794
2.54034e-05
-0.000641576
-6.85594e-06
-0.000627861
-3.89839e-05
-0.000601246
-7.38174e-05
-0.000560393
-0.000112232
-0.000502391
-0.000154857
-0.000424559
-0.000202754
-0.000323997
-0.000252887
-0.000192315
-0.000291945
-0.000298375
-0.000489952
0.000104996
-0.000496322
6.58171e-05
-0.000498599
2.76801e-05
-0.000494963
-1.04911e-05
-0.000483398
-5.05483e-05
-0.000463063
-9.41516e-05
-0.000432464
-0.000142831
-0.000390388
-0.000196932
-0.000335
-0.000258141
-0.000260942
-0.000326945
-0.000157664
-0.000395222
-0.000456039
-0.000361822
0.000105815
-0.000362024
6.60202e-05
-0.000360439
2.60955e-05
-0.000355761
-1.51686e-05
-0.000347056
-5.92526e-05
-0.000333543
-0.000107664
-0.000313877
-0.000162497
-0.000287003
-0.000223805
-0.000250555
-0.000294589
-0.000199559
-0.00037794
-0.000122252
-0.000472529
-0.000578291
-0.000231285
0.000103698
-0.000229654
6.43903e-05
-0.000227719
2.41607e-05
-0.000224763
-1.8124e-05
-0.000220199
-6.38159e-05
-0.000213354
-0.000114509
-0.000203686
-0.000172164
-0.00018975
-0.00023774
-0.000169385
-0.000314953
-0.000140035
-0.000407289
-8.96212e-05
-0.000522942
-0.000667911
-0.000105373
9.90835e-05
-0.000102355
6.13724e-05
-0.000100395
2.22023e-05
-9.90765e-05
-1.94421e-05
-9.80803e-05
-6.48114e-05
-9.71724e-05
-0.000115416
-9.63138e-05
-0.000173022
-9.45045e-05
-0.000239549
-9.08846e-05
-0.000318572
-8.29394e-05
-0.000415234
-6.09244e-05
-0.000544957
-0.000728835
1.77466e-05
9.19581e-05
2.23589e-05
5.6761e-05
2.47899e-05
1.9772e-05
2.51968e-05
-1.98482e-05
2.35593e-05
-6.31731e-05
1.97073e-05
-0.000111563
1.33896e-05
-0.000166703
4.64096e-06
-0.0002308
-6.26436e-06
-0.000307666
-1.78101e-05
-0.000403688
-2.49713e-05
-0.000537795
-0.000753806
0.000139484
8.16959e-05
0.000146454
4.97914e-05
0.00015031
1.59173e-05
0.000150991
-2.05285e-05
0.000148171
-6.03525e-05
0.000141259
-0.000104649
0.000129399
-0.000154843
0.000111607
-0.000213007
8.67855e-05
-0.000282844
5.46045e-05
-0.000371506
1.80712e-05
-0.000501261
-0.000735734
0.000262788
6.7647e-05
0.000272902
3.96792e-05
0.000279158
9.66136e-06
0.000281354
-2.27229e-05
0.000278918
-5.79159e-05
0.000270879
-9.66097e-05
0.000255727
-0.00013969
0.000231426
-0.000188705
0.000195083
-0.000246501
0.000143419
-0.000319841
7.49366e-05
-0.000432778
-0.000660797
0.000392587
5.00364e-05
0.000405916
2.63521e-05
0.000414975
6.02615e-07
0.00041947
-2.72163e-05
0.000418662
-5.71076e-05
0.000411323
-8.92693e-05
0.000395399
-0.000123765
0.000367934
-0.000161239
0.000324034
-0.0002026
0.000257254
-0.000253059
0.000156324
-0.000331847
-0.000504472
0.000534609
3.04755e-05
0.000550099
1.08632e-05
0.000561449
-1.07465e-05
0.00056829
-3.40566e-05
0.000569769
-5.85855e-05
0.000564544
-8.40439e-05
0.000550332
-0.000109551
0.000523746
-0.000134652
0.000478234
-0.000157087
0.000405355
-0.00018018
0.000278417
-0.000204909
-0.000226054
0.000693254
1.15486e-05
0.000708975
-4.85736e-06
0.000721273
-2.30438e-05
0.000729712
-4.24937e-05
0.000733419
-6.22925e-05
0.000731113
-8.17366e-05
0.000720637
-9.90739e-05
0.000698945
-0.00011296
0.000659671
-0.000117813
0.000590286
-0.000110794
0.000443719
-5.83407e-05
0.000217666
6.54992e-05
-6.54986e-05
0.000123428
-5.79281e-05
0.000154612
-3.11836e-05
0.00016805
-1.34377e-05
0.000166588
1.46293e-06
0.000131319
3.52697e-05
5.6188e-05
7.51318e-05
-8.13265e-05
0.000137515
-0.000294041
0.000212715
-0.000468209
0.000174168
-0.000597566
0.000129358
9.81084e-05
-0.000695674
5.21219e-05
-0.00011762
7.88185e-05
-8.4624e-05
7.24149e-05
-2.47794e-05
3.09948e-05
2.79831e-05
-5.40386e-05
8.6497e-05
-0.000187576
0.000168808
-0.000349976
0.000237532
-0.00047426
0.0002618
-0.000517522
0.000255978
-0.000555651
0.000212297
-0.000594721
0.000168428
0.000131126
-0.000627738
2.15003e-05
-0.000139119
1.45383e-05
-7.76613e-05
-2.71998e-05
1.69594e-05
-0.000112644
0.000113428
-0.000237495
0.000211348
-0.00034971
0.000281023
-0.000416546
0.000304369
-0.00045221
0.000297464
-0.000464587
0.000268356
-0.000476781
0.000224491
-0.000491074
0.000182722
0.000142309
-0.000502256
-3.49799e-05
-0.000104139
-8.01576e-05
-3.24827e-05
-0.000145198
8.20008e-05
-0.000225548
0.000193779
-0.000297767
0.000283568
-0.000340865
0.000324122
-0.00036153
0.000325035
-0.000369238
0.000305173
-0.00037112
0.000270238
-0.000373783
0.000227154
-0.000376017
0.000184957
0.000143346
-0.000377053
-5.95205e-05
-4.46175e-05
-0.000122171
3.01687e-05
-0.000183488
0.000143318
-0.00023604
0.000246331
-0.00026707
0.000314599
-0.00027648
0.000333533
-0.00027551
0.000324065
-0.000267656
0.00029732
-0.000258962
0.000261545
-0.000253128
0.000221321
-0.000249019
0.000180849
0.000140477
-0.00024615
-6.60079e-05
2.13913e-05
-0.000125439
8.96007e-05
-0.000172112
0.000189993
-0.000197461
0.000271681
-0.000200886
0.000318024
-0.000191658
0.000324306
-0.000176019
0.000308427
-0.000159502
0.000280804
-0.000144987
0.000247031
-0.000133766
0.0002101
-0.00012528
0.000172364
0.000134244
-0.000119047
-6.59015e-05
8.72937e-05
-0.000116874
0.000140574
-0.000144426
0.000217545
-0.000145388
0.000272643
-0.000127646
0.000300283
-0.000102565
0.000299226
-7.66084e-05
0.000282471
-5.28419e-05
0.000257038
-3.26896e-05
0.00022688
-1.65767e-05
0.000193988
-4.00379e-06
0.000159792
0.000124684
5.55734e-06
-6.74855e-05
0.00015478
-0.000104183
0.000177273
-0.000110431
0.000223795
-8.9751e-05
0.000251964
-5.45868e-05
0.00026512
-1.66006e-05
0.00026124
1.90829e-05
0.000246789
5.03626e-05
0.00022576
7.66582e-05
0.000200585
9.80762e-05
0.000172571
0.000115206
0.000142663
0.000111252
0.000128639
-5.69901e-05
0.000211772
-8.26616e-05
0.000202945
-6.76169e-05
0.000208751
-2.91003e-05
0.000213448
2.00935e-05
0.000215927
6.93302e-05
0.000212005
0.000114194
0.000201926
0.000153095
0.00018686
0.0001859
0.000167781
0.000213044
0.000145428
0.00023522
0.000120488
9.33949e-05
0.000253077
-6.04701e-05
0.000272243
-4.96983e-05
0.000192175
-4.72487e-06
0.000163779
5.20378e-05
0.000156687
0.000112875
0.000155091
0.000170528
0.000154352
0.00022204
0.000150415
0.00026658
0.000142322
0.000304404
0.000129958
0.000336161
0.000113672
0.00036261
9.40403e-05
7.15999e-05
0.000384406
7.6447e-06
0.000264599
5.67012e-05
0.000143119
0.000124963
9.55178e-05
0.000192761
8.88901e-05
0.00025621
9.16428e-05
0.00031338
9.71834e-05
0.000363811
9.99845e-05
0.000407696
9.84377e-05
0.000445581
9.20744e-05
0.000478091
8.11625e-05
0.000505861
6.62717e-05
4.80851e-05
0.000529377
0.000219217
4.53839e-05
0.000314331
4.80059e-05
0.000381259
2.85909e-05
0.000433992
3.61583e-05
0.000478258
4.73777e-05
0.000518191
5.72509e-05
0.000554898
6.32786e-05
0.000588533
6.48036e-05
0.000619119
6.14901e-05
0.000646668
5.36138e-05
0.0006713
4.16414e-05
0.000693061
2.63244e-05
-0.000763991
6.83178e-05
-0.000804686
4.06948e-05
-0.000821301
1.66151e-05
-0.000814539
-6.76108e-06
-0.000786441
-2.80973e-05
-0.00073591
-5.05313e-05
-0.000661371
-7.45382e-05
-0.000561007
-0.000100363
-0.000432661
-0.000128346
-0.000276603
-0.000156057
-0.00011199
-0.000164614
-0.000111989
-0.000650705
9.12851e-05
-0.00066522
5.52102e-05
-0.00066989
2.12858e-05
-0.00066547
-1.11811e-05
-0.000649784
-4.37824e-05
-0.000621196
-7.91191e-05
-0.000577808
-0.000117926
-0.00051721
-0.00016096
-0.000436425
-0.00020913
-0.000332692
-0.00025979
-0.000197552
-0.000299753
-0.00030954
-0.000511661
0.00010069
-0.000517544
6.10935e-05
-0.000518861
2.26037e-05
-0.000513881
-1.61607e-05
-0.00050074
-5.69231e-05
-0.000478566
-0.000101293
-0.0004459
-0.000150591
-0.000401354
-0.000205506
-0.000343136
-0.000267347
-0.000266195
-0.000336731
-0.00015987
-0.000406078
-0.00046941
-0.000378269
0.000101906
-0.000378533
6.13585e-05
-0.000376452
2.05236e-05
-0.000370854
-2.17578e-05
-0.000360863
-6.69143e-05
-0.000345696
-0.000116458
-0.000324123
-0.000172164
-0.000295171
-0.000234457
-0.000256545
-0.000305973
-0.000203727
-0.000389548
-0.000124731
-0.000485073
-0.000594141
-0.000244318
0.000100076
-0.00024253
5.95709e-05
-0.000240025
1.80193e-05
-0.000236134
-2.56487e-05
-0.000230322
-7.27255e-05
-0.000222004
-0.000124775
-0.000210621
-0.000183547
-0.000194918
-0.000250158
-0.000172824
-0.000328066
-0.000141554
-0.000420818
-8.96061e-05
-0.00053702
-0.000683746
-0.000114627
9.56563e-05
-0.000111365
5.631e-05
-0.000108784
1.54389e-05
-0.000106521
-2.79104e-05
-0.000104323
-7.4923e-05
-0.00010206
-0.000127038
-9.97081e-05
-0.000185898
-9.64677e-05
-0.000253398
-9.1568e-05
-0.000332965
-8.25957e-05
-0.000429789
-6.0222e-05
-0.000559393
-0.000743967
1.25801e-05
8.86344e-05
1.75156e-05
5.13753e-05
2.06276e-05
1.23277e-05
2.20028e-05
-2.92847e-05
2.15451e-05
-7.44645e-05
1.89934e-05
-0.000124485
1.40045e-05
-0.000180909
6.4456e-06
-0.000245839
-3.58225e-06
-0.000322937
-1.4733e-05
-0.000418638
-2.21795e-05
-0.000551946
-0.000766146
0.00013886
7.84142e-05
0.000146207
4.40298e-05
0.000150781
7.75467e-06
0.000152436
-3.09397e-05
0.000150755
-7.27824e-05
0.000145043
-0.000118772
0.00013432
-0.000170186
0.00011742
-0.000228937
9.29909e-05
-0.000298507
6.03803e-05
-0.000386027
2.23569e-05
-0.000513922
-0.000743789
0.00026712
6.43727e-05
0.000277634
3.35168e-05
0.00028462
7.69611e-07
0.000287767
-3.40864e-05
0.000286395
-7.14094e-05
0.000279415
-0.000111791
0.000265178
-0.000155948
0.000241466
-0.000205225
0.000205111
-0.00026215
0.000152511
-0.000333426
8.13878e-05
-0.000442798
-0.0006624
0.000402049
4.67305e-05
0.000415797
1.97703e-05
0.00042558
-9.01295e-06
0.000430979
-3.94842e-05
0.000431126
-7.15557e-05
0.000424652
-0.000105316
0.000409339
-0.000140634
0.000382045
-0.00017793
0.000337629
-0.000217733
0.000269398
-0.000265195
0.000164811
-0.00033821
-0.000497588
0.000549023
2.70847e-05
0.000564961
3.83351e-06
0.000577025
-2.10762e-05
0.000584702
-4.71596e-05
0.000586991
-7.38442e-05
0.000582379
-0.000100702
0.000568357
-0.000126611
0.000541362
-0.000150934
0.000494627
-0.000170998
0.000419593
-0.000190159
0.000288346
-0.000206962
-0.000209242
0.000712058
8.08855e-06
0.000728232
-1.23391e-05
0.000741237
-3.40806e-05
0.000750432
-5.63529e-05
0.000754744
-7.81553e-05
0.000752642
-9.85989e-05
0.000741642
-0.000115611
0.000718526
-0.000127816
0.000676788
-0.000129259
0.000604223
-0.000117593
0.000452217
-5.4956e-05
0.000242976
6.07728e-05
-6.07722e-05
0.000116511
-5.57378e-05
0.000148001
-3.14892e-05
0.000160477
-1.24754e-05
0.000162111
-1.63313e-06
0.000138412
2.36992e-05
7.41834e-05
6.42295e-05
-3.55886e-05
0.000109773
-0.000235273
0.000199685
-0.000418632
0.000183359
-0.000550143
0.000131512
0.000102925
-0.000653068
5.06142e-05
-0.000111386
7.88671e-05
-8.39901e-05
7.66762e-05
-2.92975e-05
4.50377e-05
1.91638e-05
-2.52533e-05
6.86586e-05
-0.000142519
0.000140965
-0.000297398
0.00021911
-0.000438315
0.000250689
-0.000493272
0.000254644
-0.000527297
0.000217384
-0.000567
0.000171215
0.00013563
-0.000599705
2.66259e-05
-0.000138011
2.71391e-05
-8.45026e-05
-4.35683e-06
2.19913e-06
-7.53617e-05
9.01694e-05
-0.000191
0.000184298
-0.000312896
0.000262862
-0.000389893
0.000296107
-0.000431826
0.000292623
-0.000445684
0.000268502
-0.00045568
0.000227381
-0.000469528
0.000185065
0.000146154
-0.000480052
-2.54533e-05
-0.000112557
-6.07819e-05
-4.91731e-05
-0.000117011
5.84293e-05
-0.000193706
0.000166865
-0.000271664
0.000262257
-0.000322215
0.000313414
-0.000346008
0.0003199
-0.000355004
0.000301619
-0.000356648
0.000270147
-0.000358228
0.000228961
-0.000360384
0.000187221
0.000146774
-0.000361004
-5.15384e-05
-6.10176e-05
-0.00010892
8.20966e-06
-0.000168374
0.000117884
-0.000223381
0.000221872
-0.000259223
0.000298099
-0.000269976
0.000324168
-0.000267551
0.000317476
-0.000259456
0.000293524
-0.000249416
0.000260108
-0.000242088
0.000221634
-0.000237089
0.000182224
0.000143087
-0.000233402
-6.33157e-05
2.29894e-06
-0.000121403
6.62977e-05
-0.000169341
0.000165822
-0.000197114
0.000249646
-0.000201504
0.00030249
-0.000190814
0.000313479
-0.000173607
0.000300269
-0.000155458
0.000275376
-0.000139236
0.000243888
-0.000126471
0.000208869
-0.000116929
0.000172683
0.000136147
-0.000109989
-6.70407e-05
6.93406e-05
-0.000119747
0.000119005
-0.000149447
0.000195524
-0.000151651
0.00025185
-0.000133096
0.000283936
-0.000106108
0.000286492
-7.8305e-05
0.000272467
-5.2644e-05
0.000249715
-3.073e-05
0.000221975
-1.31362e-05
0.000191276
4.64896e-07
0.000159083
0.000125993
1.06205e-05
-7.06372e-05
0.000139979
-0.000110615
0.000158983
-0.000119361
0.000204271
-9.97717e-05
0.000232262
-6.38433e-05
0.000248009
-2.42203e-05
0.00024687
1.32707e-05
0.000234977
4.64026e-05
0.000216584
7.43813e-05
0.000193997
9.71821e-05
0.000168476
0.000115273
0.000140993
0.000112045
0.000129221
-6.12601e-05
0.00020124
-9.09449e-05
0.000188669
-7.87812e-05
0.000192108
-4.19351e-05
0.000195417
7.35076e-06
0.000198724
5.77126e-05
0.000196509
0.000104106
0.000188585
0.000144654
0.000176037
0.000178989
0.000159663
0.000207382
0.000140084
0.000230427
0.000117949
9.37343e-05
0.000248739
-6.54079e-05
0.000266649
-5.84863e-05
0.000181749
-1.70951e-05
0.000150718
3.73918e-05
0.000140931
9.76395e-05
0.000138477
0.000155761
0.000138388
0.000208226
0.000136121
0.000253924
0.00013034
0.000292907
0.000120681
0.000325656
0.000107336
0.000352811
9.07948e-05
7.15703e-05
0.000374976
3.22756e-06
0.000263423
4.67578e-05
0.00013822
0.000111711
8.57662e-05
0.000177314
7.53291e-05
0.000239755
7.6037e-05
0.000296591
8.15535e-05
0.000347114
8.55991e-05
0.000391396
8.60584e-05
0.000429863
8.22146e-05
0.000462999
7.42019e-05
0.000491261
6.25336e-05
4.77853e-05
0.000515047
0.000211645
5.17787e-05
0.000302229
4.76374e-05
0.000367407
2.05888e-05
0.000418599
2.41387e-05
0.000461219
3.3417e-05
0.000499783
4.29909e-05
0.000535577
4.98066e-05
0.000568807
5.28291e-05
0.000599422
5.16006e-05
0.000627291
4.63336e-05
0.000652291
3.75347e-05
0.000674326
2.57515e-05
-0.00072415
7.10827e-05
-0.00076844
4.42903e-05
-0.000787922
1.94819e-05
-0.000784282
-3.63928e-06
-0.000759013
-2.52686e-05
-0.00071181
-4.72029e-05
-0.000640429
-7.13802e-05
-0.000543574
-9.68549e-05
-0.000418651
-0.000124922
-0.000266326
-0.000152325
-0.000106061
-0.000160264
-0.000106061
-0.000623717
9.50952e-05
-0.000638873
5.94464e-05
-0.000644794
2.54035e-05
-0.000641577
-6.85591e-06
-0.000627861
-3.89839e-05
-0.000601246
-7.38174e-05
-0.000560393
-0.000112232
-0.000502391
-0.000154857
-0.000424559
-0.000202754
-0.000323997
-0.000252887
-0.000192315
-0.000291945
-0.000298375
-0.000489952
0.000104996
-0.000496323
6.58171e-05
-0.000498599
2.76802e-05
-0.000494963
-1.04911e-05
-0.000483398
-5.05482e-05
-0.000463063
-9.41516e-05
-0.000432464
-0.000142831
-0.000390388
-0.000196932
-0.000335
-0.000258141
-0.000260942
-0.000326945
-0.000157664
-0.000395222
-0.000456039
-0.000361822
0.000105815
-0.000362024
6.60203e-05
-0.000360439
2.60956e-05
-0.000355761
-1.51685e-05
-0.000347056
-5.92526e-05
-0.000333543
-0.000107664
-0.000313877
-0.000162497
-0.000287003
-0.000223805
-0.000250555
-0.000294589
-0.00019956
-0.00037794
-0.000122252
-0.000472529
-0.000578291
-0.000231285
0.000103698
-0.000229654
6.43904e-05
-0.000227719
2.41608e-05
-0.000224763
-1.81239e-05
-0.000220199
-6.38159e-05
-0.000213354
-0.000114509
-0.000203686
-0.000172164
-0.00018975
-0.00023774
-0.000169385
-0.000314953
-0.000140035
-0.00040729
-8.96212e-05
-0.000522943
-0.000667912
-0.000105373
9.90836e-05
-0.000102355
6.13725e-05
-0.000100395
2.22023e-05
-9.90765e-05
-1.94421e-05
-9.80803e-05
-6.48114e-05
-9.71724e-05
-0.000115416
-9.63138e-05
-0.000173022
-9.45045e-05
-0.000239549
-9.08846e-05
-0.000318572
-8.29395e-05
-0.000415234
-6.09244e-05
-0.000544957
-0.000728835
1.77467e-05
9.19581e-05
2.23589e-05
5.67611e-05
2.479e-05
1.97721e-05
2.51969e-05
-1.98481e-05
2.35594e-05
-6.31731e-05
1.97073e-05
-0.000111563
1.33896e-05
-0.000166703
4.64096e-06
-0.0002308
-6.26438e-06
-0.000307666
-1.78102e-05
-0.000403688
-2.49713e-05
-0.000537795
-0.000753806
0.000139484
8.16959e-05
0.000146455
4.97915e-05
0.00015031
1.59174e-05
0.000150991
-2.05284e-05
0.000148171
-6.03524e-05
0.000141259
-0.000104649
0.000129399
-0.000154843
0.000111607
-0.000213007
8.67855e-05
-0.000282844
5.46045e-05
-0.000371506
1.80712e-05
-0.000501261
-0.000735734
0.000262789
6.76471e-05
0.000272902
3.96793e-05
0.000279158
9.66146e-06
0.000281354
-2.27228e-05
0.000278918
-5.79158e-05
0.000270879
-9.66096e-05
0.000255727
-0.00013969
0.000231426
-0.000188705
0.000195083
-0.0002465
0.000143419
-0.000319841
7.49366e-05
-0.000432778
-0.000660797
0.000392588
5.00365e-05
0.000405916
2.63522e-05
0.000414975
6.0272e-07
0.00041947
-2.72162e-05
0.000418662
-5.71075e-05
0.000411323
-8.92692e-05
0.000395399
-0.000123765
0.000367934
-0.000161239
0.000324035
-0.0002026
0.000257254
-0.000253059
0.000156324
-0.000331847
-0.000504472
0.000534609
3.04756e-05
0.000550099
1.08633e-05
0.000561449
-1.07464e-05
0.00056829
-3.40565e-05
0.000569769
-5.85854e-05
0.000564545
-8.40438e-05
0.000550332
-0.000109551
0.000523746
-0.000134652
0.000478234
-0.000157087
0.000405355
-0.00018018
0.000278417
-0.000204909
-0.000226054
0.000693254
1.15487e-05
0.000708975
-4.85727e-06
0.000721273
-2.30437e-05
0.000729712
-4.24936e-05
0.00073342
-6.22924e-05
0.000731113
-8.17365e-05
0.000720637
-9.90739e-05
0.000698945
-0.00011296
0.000659672
-0.000117813
0.000590287
-0.000110794
0.000443719
-5.83408e-05
0.000217666
0.00081803
9.52386e-05
-0.000867884
0.000798721
6.73164e-05
0.000774764
5.2549e-05
0.000764434
4.64888e-05
0.000765335
4.64778e-05
0.000774202
4.83849e-05
0.000788104
4.93776e-05
0.000804831
4.80768e-05
0.000822814
4.35085e-05
0.000840989
3.54384e-05
0.000858793
2.38381e-05
9.39619e-06
0.000875722
0.00108713
9.14909e-05
-0.00108338
0.00107606
7.83854e-05
0.0010599
6.8715e-05
0.00104509
6.12981e-05
0.00103504
5.65293e-05
0.00103041
5.30164e-05
0.00103059
4.91925e-05
0.00103461
4.40551e-05
0.0010415
3.66284e-05
0.0010504
2.65308e-05
0.0010608
1.34471e-05
-1.77572e-06
0.00107197
0.00128391
8.36972e-05
-0.00127611
0.00128382
7.84744e-05
0.00127948
7.30583e-05
0.00127309
6.76865e-05
0.00126672
6.28998e-05
0.00126166
5.80748e-05
0.00125855
5.23067e-05
0.0012576
4.49977e-05
0.00125883
3.54024e-05
0.00126215
2.32165e-05
0.00126748
8.11961e-06
-8.66555e-06
0.00127437
0.00147285
-0.00146847
7.93183e-05
0.00147579
7.55326e-05
0.00147672
7.21309e-05
0.00147591
6.84978e-05
0.00147402
6.47926e-05
0.00147176
6.03286e-05
0.00146979
5.42828e-05
0.00146863
4.61578e-05
0.00146865
3.53764e-05
0.00147018
2.16913e-05
0.00147341
4.88636e-06
0.00147868