/*--------------------------------*- C++ -*----------------------------------*\
| =========                 |                                                 |
| \\      /  F ield         | OpenFOAM: The Open Source CFD Toolbox           |
|  \\    /   O peration     | Version:  2212                                  |
|   \\  /    A nd           | Website:  www.openfoam.com                      |
|    \\/     M anipulation  |                                                 |
\*---------------------------------------------------------------------------*/
FoamFile
{
    version     2.0;
    format      ascii;
    arch        "LSB;label=32;scalar=64";
    class       volScalarField;
    location    "0.05";
    object      rho;
}
// * * * * * * * * * * * * * * * * * * * * * * * * * * * * * * * * * * * * * //

dimensions      [1 -3 0 0 0 0 0];

internalField   nonuniform List<scalar> 
3072
(
1.16857
1.16836
1.16825
1.16819
1.16821
1.1684
1.16911
1.17026
1.16984
1.16979
1.16993
1.16987
1.17016
1.16974
1.16977
1.16993
1.17043
1.1706
1.17117
1.17201
1.17312
1.17391
1.17439
1.17462
1.1713
1.17072
1.17098
1.17131
1.17171
1.17227
1.17309
1.1738
1.17453
1.17507
1.17548
1.17577
1.17309
1.17252
1.17285
1.17324
1.17385
1.17455
1.17527
1.17593
1.17648
1.17688
1.17719
1.17743
1.17476
1.17447
1.17483
1.17533
1.17597
1.17663
1.17727
1.17782
1.17825
1.17855
1.17878
1.17896
1.17658
1.1765
1.17686
1.17741
1.178
1.17857
1.17908
1.17948
1.17979
1.18001
1.18018
1.18031
1.17837
1.17852
1.17887
1.17941
1.17992
1.18038
1.18074
1.18102
1.18121
1.18135
1.18145
1.18152
1.18011
1.18052
1.18082
1.18129
1.1817
1.18202
1.18224
1.18239
1.18248
1.18253
1.18256
1.18258
1.18201
1.18247
1.18262
1.18301
1.18326
1.18343
1.18353
1.18357
1.18358
1.18356
1.18353
1.18351
1.18375
1.18405
1.18413
1.18441
1.18454
1.18461
1.18462
1.18458
1.18452
1.18445
1.18439
1.18433
1.18516
1.18546
1.18534
1.18556
1.18564
1.18564
1.18557
1.18548
1.18537
1.18526
1.18516
1.18508
1.18517
1.18655
1.18651
1.18666
1.18668
1.18661
1.18649
1.18634
1.18619
1.18604
1.18591
1.1858
1.17002
1.1702
1.17053
1.17102
1.1716
1.17216
1.17278
1.17325
1.17356
1.1735
1.17328
1.17263
1.17484
1.17496
1.17509
1.17525
1.17546
1.17566
1.17585
1.17595
1.17594
1.17583
1.17528
1.17374
1.17595
1.1761
1.17626
1.17646
1.17667
1.17687
1.17701
1.17704
1.17693
1.17676
1.17625
1.17409
1.17763
1.17781
1.17796
1.17809
1.1782
1.17828
1.1783
1.17823
1.17801
1.1777
1.17723
1.17494
1.1791
1.17922
1.17932
1.17941
1.17947
1.17951
1.17951
1.17943
1.17924
1.17891
1.17852
1.1764
1.18041
1.18049
1.18057
1.18063
1.18069
1.18074
1.18076
1.18074
1.18064
1.18041
1.18012
1.17835
1.18157
1.18163
1.18168
1.18174
1.18182
1.1819
1.18199
1.18207
1.18212
1.18207
1.18203
1.18078
1.1826
1.18263
1.18267
1.18274
1.18284
1.18298
1.18316
1.18337
1.18361
1.18384
1.1842
1.1836
1.1835
1.18351
1.18355
1.18363
1.18375
1.18395
1.18422
1.18457
1.18502
1.18556
1.18641
1.18681
1.1843
1.18429
1.18432
1.18441
1.18456
1.18479
1.18513
1.1856
1.18624
1.18708
1.18851
1.18993
1.18503
1.18501
1.18503
1.18511
1.18526
1.18551
1.18589
1.18643
1.18718
1.18823
1.1902
1.19273
1.18573
1.18568
1.18568
1.18574
1.18588
1.18611
1.18648
1.18702
1.18778
1.18889
1.19098
1.19475
1.16847
1.16829
1.16819
1.16813
1.16816
1.16828
1.16877
1.17011
1.16964
1.16959
1.16973
1.1697
1.17006
1.16968
1.1697
1.16981
1.17025
1.17051
1.17086
1.17158
1.17263
1.17349
1.17402
1.17428
1.17117
1.17062
1.17083
1.17115
1.1715
1.17195
1.17269
1.17339
1.1741
1.17467
1.17509
1.17541
1.17293
1.17234
1.17263
1.17296
1.17351
1.17415
1.17485
1.1755
1.17608
1.17651
1.17684
1.17708
1.17455
1.17422
1.17454
1.17498
1.17557
1.17621
1.17686
1.17742
1.17787
1.1782
1.17844
1.17862
1.17638
1.17624
1.17657
1.17708
1.17764
1.17819
1.17871
1.17912
1.17944
1.17968
1.17985
1.17998
1.17817
1.17827
1.1786
1.17911
1.1796
1.18004
1.18041
1.18069
1.18089
1.18104
1.18114
1.18121
1.17992
1.18028
1.18057
1.18102
1.18141
1.18172
1.18195
1.1821
1.18219
1.18225
1.18228
1.18229
1.18183
1.18223
1.18239
1.18276
1.18301
1.18318
1.18328
1.18332
1.18332
1.1833
1.18327
1.18324
1.18355
1.18382
1.18391
1.18419
1.18433
1.1844
1.1844
1.18436
1.1843
1.18422
1.18415
1.18409
1.18496
1.18525
1.18515
1.18538
1.18548
1.18548
1.18541
1.18531
1.18519
1.18507
1.18496
1.18486
1.18503
1.18635
1.18635
1.18652
1.18657
1.18651
1.18638
1.18622
1.18605
1.18588
1.18573
1.1856
1.16982
1.16999
1.17028
1.17071
1.17124
1.17174
1.17232
1.17273
1.173
1.17292
1.17268
1.17205
1.17451
1.17463
1.17474
1.17487
1.17504
1.17521
1.17535
1.17543
1.1754
1.17526
1.1747
1.17321
1.1756
1.17575
1.1759
1.17607
1.17626
1.17644
1.17655
1.17657
1.17644
1.17625
1.17575
1.17363
1.17728
1.17745
1.1776
1.17772
1.17781
1.17787
1.17788
1.17779
1.17756
1.17725
1.17677
1.17451
1.17876
1.17887
1.17897
1.17905
1.1791
1.17912
1.1791
1.17902
1.17881
1.17848
1.17809
1.17597
1.18008
1.18016
1.18023
1.18029
1.18034
1.18037
1.18038
1.18034
1.18022
1.17997
1.17969
1.1779
1.18126
1.18131
1.18136
1.18142
1.18148
1.18155
1.18162
1.18169
1.18171
1.18163
1.18157
1.18028
1.18231
1.18233
1.18237
1.18243
1.18252
1.18264
1.1828
1.18299
1.18321
1.18339
1.1837
1.18304
1.18323
1.18323
1.18327
1.18333
1.18345
1.18363
1.18387
1.1842
1.18462
1.18511
1.18588
1.18618
1.18405
1.18403
1.18406
1.18413
1.18427
1.18449
1.1848
1.18524
1.18585
1.18663
1.18796
1.18927
1.1848
1.18477
1.18478
1.18485
1.18499
1.18522
1.18558
1.18609
1.1868
1.1878
1.18967
1.19209
1.18551
1.18546
1.18545
1.1855
1.18562
1.18584
1.18619
1.1867
1.18742
1.18849
1.1905
1.19422
1.16857
1.16836
1.16825
1.16819
1.16821
1.1684
1.16911
1.17026
1.16984
1.16979
1.16993
1.16987
1.17016
1.16974
1.16977
1.16993
1.17043
1.1706
1.17117
1.17201
1.17312
1.17391
1.17439
1.17462
1.1713
1.17072
1.17098
1.17131
1.17171
1.17227
1.17309
1.1738
1.17453
1.17507
1.17548
1.17577
1.17309
1.17252
1.17285
1.17324
1.17385
1.17455
1.17527
1.17593
1.17648
1.17688
1.17719
1.17743
1.17476
1.17447
1.17483
1.17533
1.17597
1.17663
1.17727
1.17782
1.17825
1.17855
1.17878
1.17896
1.17658
1.1765
1.17686
1.17741
1.178
1.17857
1.17908
1.17948
1.17979
1.18001
1.18018
1.18031
1.17837
1.17852
1.17887
1.17941
1.17992
1.18038
1.18074
1.18102
1.18121
1.18135
1.18145
1.18152
1.18011
1.18052
1.18082
1.18129
1.18169
1.18202
1.18224
1.18239
1.18248
1.18253
1.18256
1.18258
1.18201
1.18247
1.18262
1.18301
1.18326
1.18343
1.18353
1.18357
1.18358
1.18356
1.18353
1.18351
1.18375
1.18405
1.18413
1.18441
1.18454
1.18461
1.18462
1.18458
1.18452
1.18445
1.18438
1.18433
1.18516
1.18546
1.18534
1.18556
1.18564
1.18564
1.18557
1.18548
1.18537
1.18526
1.18516
1.18508
1.18517
1.18655
1.18651
1.18666
1.18668
1.18661
1.18649
1.18634
1.18619
1.18604
1.18591
1.1858
1.17002
1.1702
1.17053
1.17102
1.1716
1.17216
1.17278
1.17325
1.17356
1.1735
1.17327
1.17263
1.17484
1.17496
1.17509
1.17525
1.17546
1.17566
1.17584
1.17595
1.17594
1.17583
1.17528
1.17374
1.17595
1.1761
1.17626
1.17646
1.17667
1.17687
1.17701
1.17704
1.17693
1.17675
1.17625
1.17409
1.17763
1.17781
1.17796
1.17809
1.1782
1.17828
1.1783
1.17823
1.17801
1.1777
1.17723
1.17494
1.1791
1.17922
1.17932
1.17941
1.17947
1.17951
1.17951
1.17943
1.17924
1.17891
1.17852
1.1764
1.18041
1.18049
1.18057
1.18063
1.18069
1.18074
1.18076
1.18074
1.18064
1.18041
1.18012
1.17835
1.18157
1.18163
1.18168
1.18174
1.18182
1.1819
1.18199
1.18207
1.18212
1.18207
1.18203
1.18078
1.1826
1.18263
1.18267
1.18274
1.18284
1.18298
1.18316
1.18337
1.18361
1.18384
1.1842
1.1836
1.1835
1.18351
1.18355
1.18363
1.18375
1.18395
1.18422
1.18457
1.18502
1.18556
1.18641
1.18681
1.1843
1.18429
1.18432
1.18441
1.18456
1.18479
1.18513
1.1856
1.18624
1.18708
1.18851
1.18993
1.18503
1.18501
1.18503
1.18511
1.18526
1.18551
1.18589
1.18643
1.18718
1.18823
1.1902
1.19273
1.18573
1.18568
1.18568
1.18574
1.18588
1.18611
1.18648
1.18702
1.18778
1.18889
1.19097
1.19475
1.16847
1.16829
1.16819
1.16813
1.16816
1.16828
1.16877
1.17011
1.16964
1.16959
1.16973
1.1697
1.17006
1.16968
1.1697
1.16981
1.17025
1.17051
1.17086
1.17158
1.17263
1.17349
1.17402
1.17428
1.17117
1.17062
1.17083
1.17115
1.1715
1.17195
1.17269
1.17339
1.1741
1.17467
1.17509
1.17541
1.17293
1.17234
1.17263
1.17296
1.17351
1.17415
1.17485
1.1755
1.17608
1.17651
1.17684
1.17708
1.17455
1.17422
1.17454
1.17498
1.17557
1.17621
1.17686
1.17742
1.17787
1.1782
1.17844
1.17862
1.17638
1.17624
1.17657
1.17708
1.17764
1.17819
1.17871
1.17912
1.17944
1.17968
1.17985
1.17998
1.17817
1.17827
1.1786
1.17911
1.1796
1.18004
1.18041
1.18069
1.18089
1.18104
1.18114
1.18121
1.17992
1.18028
1.18057
1.18102
1.18141
1.18172
1.18195
1.1821
1.18219
1.18225
1.18228
1.18229
1.18183
1.18223
1.18239
1.18276
1.18301
1.18318
1.18328
1.18332
1.18332
1.1833
1.18327
1.18324
1.18355
1.18382
1.18391
1.18419
1.18433
1.1844
1.1844
1.18436
1.1843
1.18422
1.18415
1.18409
1.18496
1.18525
1.18515
1.18538
1.18548
1.18548
1.18541
1.18531
1.18519
1.18507
1.18496
1.18486
1.18503
1.18635
1.18635
1.18652
1.18657
1.18651
1.18638
1.18622
1.18605
1.18588
1.18573
1.1856
1.16982
1.16999
1.17028
1.17071
1.17124
1.17174
1.17232
1.17273
1.173
1.17292
1.17268
1.17205
1.17451
1.17463
1.17474
1.17487
1.17504
1.17521
1.17535
1.17543
1.1754
1.17526
1.1747
1.17321
1.1756
1.17575
1.1759
1.17607
1.17626
1.17644
1.17655
1.17657
1.17644
1.17625
1.17575
1.17363
1.17728
1.17745
1.1776
1.17772
1.17781
1.17787
1.17788
1.17779
1.17756
1.17725
1.17677
1.17451
1.17876
1.17887
1.17897
1.17905
1.1791
1.17912
1.1791
1.17902
1.17881
1.17848
1.17809
1.17597
1.18008
1.18016
1.18023
1.18029
1.18034
1.18037
1.18038
1.18034
1.18022
1.17997
1.17969
1.1779
1.18126
1.18131
1.18136
1.18142
1.18148
1.18155
1.18162
1.18169
1.18171
1.18163
1.18157
1.18028
1.18231
1.18233
1.18237
1.18243
1.18252
1.18264
1.1828
1.18299
1.18321
1.18339
1.1837
1.18304
1.18323
1.18323
1.18327
1.18333
1.18345
1.18363
1.18387
1.1842
1.18462
1.18511
1.18588
1.18618
1.18405
1.18403
1.18406
1.18413
1.18427
1.18449
1.1848
1.18524
1.18585
1.18663
1.18796
1.18927
1.1848
1.18477
1.18478
1.18485
1.18499
1.18522
1.18558
1.18609
1.1868
1.1878
1.18967
1.19209
1.18551
1.18546
1.18545
1.1855
1.18562
1.18584
1.18619
1.1867
1.18742
1.18849
1.1905
1.19422
1.18804
1.18812
1.18795
1.18781
1.18767
1.18751
1.18733
1.18713
1.18695
1.18678
1.18662
1.18649
1.18825
1.18802
1.18808
1.1881
1.18809
1.18801
1.18788
1.18772
1.18756
1.18739
1.18724
1.1871
1.18826
1.18815
1.18821
1.18825
1.18826
1.18823
1.18816
1.18807
1.18795
1.18782
1.1877
1.18757
1.18827
1.18825
1.18828
1.18831
1.18832
1.18832
1.18829
1.18824
1.18817
1.1881
1.18801
1.18791
1.18639
1.18632
1.18629
1.18632
1.18642
1.18662
1.18693
1.1874
1.18802
1.18886
1.18963
1.19085
1.18698
1.18689
1.18683
1.18683
1.18688
1.18702
1.18726
1.18763
1.1881
1.18875
1.18916
1.18958
1.18746
1.18735
1.18727
1.18723
1.18724
1.18731
1.18746
1.18772
1.18806
1.18854
1.18885
1.18904
1.18782
1.18771
1.1876
1.18752
1.18748
1.18747
1.18752
1.18766
1.18786
1.18821
1.18847
1.18872
1.18798
1.18802
1.18787
1.18774
1.18761
1.18745
1.18726
1.18705
1.18684
1.18664
1.18646
1.1863
1.18831
1.18802
1.18806
1.18807
1.18804
1.18796
1.18782
1.18764
1.18745
1.18725
1.18706
1.18688
1.18842
1.18825
1.18826
1.18826
1.18824
1.18819
1.1881
1.18797
1.18782
1.18765
1.18747
1.1873
1.18853
1.18846
1.18844
1.18841
1.18838
1.18833
1.18826
1.18817
1.18805
1.1879
1.18775
1.18759
1.18617
1.18609
1.18606
1.18608
1.18617
1.18636
1.18665
1.1871
1.18769
1.18851
1.18929
1.19057
1.18674
1.18663
1.18658
1.18658
1.18663
1.18676
1.18699
1.18735
1.1878
1.18844
1.18888
1.18935
1.18715
1.18705
1.18698
1.18695
1.18698
1.18706
1.1872
1.18745
1.18778
1.18825
1.18858
1.18879
1.18745
1.18736
1.18729
1.18726
1.18725
1.18727
1.18733
1.18746
1.18764
1.18794
1.18819
1.18842
1.18804
1.18812
1.18795
1.18781
1.18767
1.18751
1.18733
1.18713
1.18695
1.18678
1.18662
1.18649
1.18825
1.18802
1.18808
1.1881
1.18808
1.18801
1.18788
1.18772
1.18756
1.18739
1.18724
1.1871
1.18826
1.18815
1.18821
1.18825
1.18826
1.18823
1.18816
1.18807
1.18795
1.18782
1.1877
1.18757
1.18827
1.18825
1.18828
1.18831
1.18832
1.18832
1.18829
1.18824
1.18817
1.1881
1.18801
1.18791
1.18639
1.18632
1.18629
1.18632
1.18642
1.18662
1.18693
1.1874
1.18802
1.18886
1.18963
1.19085
1.18698
1.18689
1.18683
1.18683
1.18688
1.18702
1.18726
1.18763
1.1881
1.18875
1.18916
1.18958
1.18746
1.18735
1.18727
1.18723
1.18724
1.18731
1.18746
1.18772
1.18806
1.18854
1.18885
1.18904
1.18782
1.18771
1.1876
1.18752
1.18748
1.18747
1.18752
1.18766
1.18786
1.18821
1.18847
1.18872
1.18798
1.18802
1.18787
1.18774
1.18761
1.18745
1.18726
1.18705
1.18684
1.18664
1.18646
1.1863
1.18831
1.18802
1.18806
1.18807
1.18804
1.18796
1.18782
1.18764
1.18745
1.18725
1.18706
1.18688
1.18842
1.18825
1.18826
1.18826
1.18824
1.18819
1.1881
1.18797
1.18782
1.18765
1.18747
1.1873
1.18853
1.18846
1.18844
1.18841
1.18838
1.18833
1.18826
1.18817
1.18805
1.1879
1.18775
1.18759
1.18617
1.18609
1.18606
1.18608
1.18617
1.18636
1.18665
1.1871
1.18769
1.18851
1.18929
1.19057
1.18674
1.18663
1.18658
1.18658
1.18663
1.18676
1.18699
1.18735
1.1878
1.18844
1.18888
1.18935
1.18715
1.18705
1.18698
1.18695
1.18698
1.18706
1.1872
1.18745
1.18778
1.18825
1.18858
1.18879
1.18745
1.18736
1.18729
1.18726
1.18725
1.18727
1.18733
1.18746
1.18764
1.18794
1.18819
1.18842
1.18826
1.18831
1.18835
1.18839
1.18841
1.18841
1.1884
1.18837
1.18832
1.18827
1.18821
1.18815
1.18827
1.18834
1.18841
1.18846
1.18849
1.1885
1.18849
1.18847
1.18843
1.18839
1.18835
1.18831
1.18828
1.18836
1.18844
1.18849
1.18853
1.18854
1.18854
1.18852
1.18848
1.18845
1.18842
1.18841
1.18828
1.18838
1.18845
1.18851
1.18855
1.18856
1.18855
1.18853
1.1885
1.18846
1.18844
1.18844
1.1881
1.18801
1.18793
1.18787
1.18782
1.18779
1.1878
1.18786
1.18795
1.18815
1.18829
1.18847
1.1883
1.18824
1.1882
1.18817
1.18815
1.18814
1.18816
1.1882
1.18826
1.18833
1.18836
1.18839
1.18844
1.1884
1.18838
1.18836
1.18836
1.18837
1.18838
1.18839
1.18841
1.18841
1.18838
1.18833
1.18854
1.1885
1.18849
1.18849
1.18849
1.18849
1.18849
1.18848
1.18846
1.18842
1.18835
1.18827
1.18846
1.18844
1.1884
1.18835
1.18829
1.18822
1.18814
1.18804
1.18793
1.18779
1.18766
1.18752
1.18834
1.18828
1.18821
1.18814
1.18806
1.18797
1.18786
1.18775
1.18763
1.18752
1.18742
1.18731
1.18824
1.18815
1.18807
1.18798
1.18789
1.18779
1.18768
1.18757
1.18745
1.18734
1.18725
1.18717
1.18816
1.18806
1.18797
1.18787
1.18778
1.18767
1.18757
1.18745
1.18733
1.18721
1.18712
1.18704
1.18741
1.18733
1.1873
1.18729
1.1873
1.18734
1.1874
1.1875
1.18763
1.18783
1.18801
1.18821
1.18721
1.18715
1.18714
1.18716
1.18721
1.18728
1.18738
1.1875
1.18766
1.18787
1.18804
1.1882
1.18708
1.18703
1.18703
1.18707
1.18714
1.18723
1.18735
1.18749
1.18766
1.18786
1.18804
1.18819
1.18699
1.18695
1.18696
1.18701
1.18709
1.1872
1.18732
1.18748
1.18765
1.18784
1.18802
1.18817
1.18826
1.18831
1.18835
1.18839
1.18841
1.18841
1.1884
1.18837
1.18832
1.18827
1.18821
1.18815
1.18827
1.18834
1.18841
1.18846
1.18849
1.1885
1.18849
1.18847
1.18843
1.18839
1.18835
1.18831
1.18828
1.18836
1.18844
1.18849
1.18853
1.18854
1.18854
1.18852
1.18848
1.18845
1.18842
1.18841
1.18828
1.18838
1.18845
1.18851
1.18855
1.18856
1.18855
1.18853
1.1885
1.18846
1.18844
1.18844
1.1881
1.18801
1.18793
1.18787
1.18782
1.18779
1.1878
1.18786
1.18795
1.18815
1.18829
1.18847
1.1883
1.18824
1.1882
1.18817
1.18815
1.18814
1.18816
1.1882
1.18826
1.18833
1.18836
1.18839
1.18844
1.1884
1.18837
1.18836
1.18836
1.18837
1.18838
1.18839
1.18841
1.18841
1.18838
1.18833
1.18854
1.1885
1.18849
1.18849
1.18849
1.18849
1.18849
1.18848
1.18846
1.18842
1.18835
1.18827
1.18846
1.18844
1.1884
1.18835
1.18829
1.18822
1.18814
1.18804
1.18793
1.18779
1.18766
1.18752
1.18834
1.18828
1.18821
1.18814
1.18806
1.18797
1.18786
1.18775
1.18763
1.18752
1.18742
1.18731
1.18824
1.18815
1.18807
1.18798
1.18789
1.18779
1.18768
1.18757
1.18745
1.18734
1.18725
1.18717
1.18816
1.18806
1.18797
1.18787
1.18778
1.18767
1.18757
1.18745
1.18733
1.18721
1.18712
1.18704
1.18741
1.18733
1.1873
1.18729
1.1873
1.18734
1.1874
1.1875
1.18763
1.18783
1.18801
1.18821
1.18721
1.18715
1.18714
1.18716
1.18721
1.18728
1.18738
1.1875
1.18766
1.18787
1.18804
1.1882
1.18708
1.18703
1.18704
1.18707
1.18714
1.18723
1.18735
1.18749
1.18766
1.18786
1.18804
1.18819
1.18699
1.18695
1.18696
1.18701
1.18709
1.1872
1.18732
1.18748
1.18765
1.18784
1.18802
1.18817
1.18828
1.18838
1.18846
1.18852
1.18855
1.18856
1.18855
1.18853
1.18848
1.18844
1.1884
1.18837
1.18828
1.18838
1.18846
1.18852
1.18855
1.18856
1.18854
1.18851
1.18846
1.1884
1.18834
1.18829
1.18827
1.18838
1.18846
1.18852
1.18855
1.18855
1.18853
1.18849
1.18843
1.18836
1.18828
1.1882
1.18827
1.18838
1.18846
1.18851
1.18854
1.18854
1.18851
1.18846
1.18839
1.18831
1.18822
1.18812
1.18826
1.18837
1.18846
1.18851
1.18853
1.18852
1.18848
1.18843
1.18835
1.18826
1.18815
1.18804
1.18825
1.18837
1.18845
1.1885
1.18852
1.1885
1.18846
1.18839
1.18831
1.1882
1.18809
1.18795
1.18825
1.18836
1.18845
1.18849
1.18851
1.18849
1.18844
1.18836
1.18826
1.18815
1.18801
1.18785
1.18824
1.18836
1.18844
1.18849
1.1885
1.18847
1.18841
1.18833
1.18822
1.18809
1.18794
1.18775
1.18824
1.18836
1.18844
1.18848
1.18849
1.18846
1.18839
1.1883
1.18818
1.18804
1.18786
1.18762
1.18823
1.18836
1.18844
1.18848
1.18848
1.18844
1.18837
1.18828
1.18815
1.18799
1.18779
1.18748
1.18823
1.18835
1.18844
1.18847
1.18847
1.18843
1.18836
1.18825
1.18811
1.18793
1.1877
1.18731
1.18823
1.18835
1.18843
1.18847
1.18846
1.18841
1.18833
1.18822
1.18807
1.18787
1.18759
1.18708
1.18865
1.18858
1.18856
1.18856
1.18856
1.18856
1.18854
1.18851
1.18846
1.1884
1.18831
1.18821
1.18865
1.18861
1.18859
1.18859
1.18859
1.18858
1.18855
1.18851
1.18844
1.18836
1.18826
1.18816
1.18863
1.18861
1.18859
1.18859
1.18859
1.18857
1.18853
1.18847
1.1884
1.18831
1.18822
1.18812
1.18861
1.18859
1.18858
1.18857
1.18856
1.18853
1.18849
1.18843
1.18835
1.18827
1.18818
1.18809
1.18858
1.18855
1.18855
1.18854
1.18852
1.18849
1.18844
1.18838
1.1883
1.18822
1.18814
1.18806
1.18854
1.18851
1.18851
1.18849
1.18847
1.18843
1.18838
1.18832
1.18825
1.18818
1.18811
1.18804
1.18848
1.18845
1.18845
1.18844
1.18842
1.18838
1.18832
1.18826
1.1882
1.18814
1.18808
1.18803
1.18841
1.18839
1.1884
1.18838
1.18836
1.18831
1.18826
1.18821
1.18815
1.1881
1.18806
1.18802
1.18832
1.18831
1.18833
1.18832
1.18829
1.18825
1.1882
1.18815
1.18811
1.18807
1.18803
1.18801
1.1882
1.18822
1.18826
1.18826
1.18823
1.18819
1.18815
1.1881
1.18806
1.18803
1.18801
1.188
1.18804
1.18812
1.18818
1.18819
1.18817
1.18813
1.18809
1.18805
1.18802
1.188
1.18799
1.18798
1.18776
1.18792
1.18806
1.18808
1.18807
1.18804
1.188
1.18797
1.18795
1.18795
1.18795
1.18796
1.1881
1.188
1.1879
1.18781
1.18771
1.18761
1.1875
1.18738
1.18725
1.18712
1.18698
1.1868
1.18805
1.18795
1.18786
1.18777
1.18767
1.18757
1.18746
1.18734
1.18721
1.18705
1.18687
1.1865
1.18802
1.18793
1.18784
1.18775
1.18766
1.18756
1.18746
1.18733
1.18719
1.18701
1.18681
1.18641
1.188
1.18792
1.18784
1.18776
1.18767
1.18757
1.18747
1.18734
1.18719
1.187
1.1868
1.1864
1.18799
1.18792
1.18785
1.18777
1.18769
1.1876
1.18749
1.18736
1.18721
1.18702
1.18681
1.18641
1.18798
1.18792
1.18786
1.18779
1.18772
1.18763
1.18752
1.18739
1.18724
1.18704
1.18684
1.18644
1.18798
1.18793
1.18788
1.18782
1.18775
1.18766
1.18756
1.18743
1.18727
1.18707
1.18687
1.18647
1.18798
1.18794
1.1879
1.18785
1.18778
1.1877
1.1876
1.18747
1.18731
1.18711
1.1869
1.1865
1.18798
1.18795
1.18792
1.18787
1.18781
1.18773
1.18763
1.18751
1.18735
1.18715
1.18694
1.18653
1.18798
1.18796
1.18794
1.1879
1.18784
1.18777
1.18767
1.18755
1.1874
1.18719
1.18698
1.18656
1.18798
1.18797
1.18795
1.18792
1.18787
1.1878
1.1877
1.18758
1.18743
1.18723
1.18702
1.18659
1.18797
1.18797
1.18797
1.18795
1.18791
1.18785
1.18776
1.18764
1.18751
1.1873
1.18711
1.18666
1.18695
1.18688
1.18689
1.18695
1.18704
1.18716
1.1873
1.18745
1.18763
1.18782
1.188
1.18816
1.18682
1.1868
1.18682
1.18689
1.187
1.18712
1.18727
1.18743
1.18761
1.1878
1.18798
1.18815
1.18672
1.18672
1.18675
1.18683
1.18695
1.18709
1.18724
1.18741
1.18759
1.18779
1.18797
1.18814
1.18661
1.18663
1.18668
1.18678
1.1869
1.18705
1.18722
1.18739
1.18757
1.18777
1.18796
1.18813
1.1865
1.18654
1.18661
1.18672
1.18686
1.18702
1.18719
1.18737
1.18756
1.18775
1.18794
1.18812
1.18637
1.18644
1.18653
1.18665
1.18681
1.18698
1.18716
1.18735
1.18754
1.18774
1.18793
1.18811
1.18623
1.18634
1.18645
1.18659
1.18676
1.18695
1.18714
1.18733
1.18752
1.18772
1.18792
1.1881
1.18607
1.18623
1.18637
1.18653
1.18672
1.18692
1.18711
1.1873
1.1875
1.1877
1.1879
1.18809
1.18588
1.18611
1.18628
1.18646
1.18667
1.18689
1.18709
1.18728
1.18748
1.18769
1.18789
1.18808
1.18568
1.18599
1.1862
1.1864
1.18662
1.18686
1.18707
1.18727
1.18746
1.18767
1.18788
1.18807
1.18547
1.18587
1.18611
1.18632
1.18657
1.18682
1.18705
1.18725
1.18744
1.18766
1.18787
1.18807
1.1852
1.18573
1.18599
1.18622
1.1865
1.18679
1.18703
1.18722
1.18741
1.18763
1.18785
1.18806
1.18828
1.18838
1.18846
1.18852
1.18855
1.18856
1.18855
1.18853
1.18848
1.18844
1.1884
1.18837
1.18828
1.18838
1.18846
1.18852
1.18855
1.18856
1.18854
1.18851
1.18846
1.1884
1.18834
1.18829
1.18827
1.18838
1.18846
1.18852
1.18855
1.18855
1.18853
1.18849
1.18843
1.18836
1.18828
1.1882
1.18827
1.18838
1.18846
1.18851
1.18854
1.18854
1.18851
1.18846
1.18839
1.18831
1.18822
1.18812
1.18826
1.18837
1.18846
1.18851
1.18853
1.18852
1.18848
1.18843
1.18835
1.18826
1.18815
1.18804
1.18825
1.18837
1.18845
1.1885
1.18852
1.1885
1.18846
1.18839
1.18831
1.1882
1.18809
1.18795
1.18825
1.18836
1.18845
1.18849
1.18851
1.18849
1.18844
1.18836
1.18826
1.18815
1.18801
1.18785
1.18824
1.18836
1.18844
1.18849
1.1885
1.18847
1.18841
1.18833
1.18822
1.18809
1.18794
1.18775
1.18824
1.18836
1.18844
1.18848
1.18849
1.18846
1.18839
1.1883
1.18818
1.18804
1.18786
1.18762
1.18823
1.18835
1.18844
1.18848
1.18848
1.18844
1.18837
1.18827
1.18815
1.18799
1.18779
1.18748
1.18823
1.18835
1.18843
1.18847
1.18847
1.18843
1.18836
1.18825
1.18811
1.18793
1.1877
1.18731
1.18823
1.18835
1.18843
1.18847
1.18846
1.18841
1.18833
1.18822
1.18807
1.18787
1.18759
1.18708
1.18865
1.18858
1.18856
1.18856
1.18856
1.18856
1.18854
1.18851
1.18846
1.1884
1.18831
1.18821
1.18865
1.18861
1.18859
1.18859
1.18859
1.18858
1.18855
1.18851
1.18844
1.18836
1.18826
1.18816
1.18863
1.18861
1.18859
1.18859
1.18859
1.18857
1.18853
1.18847
1.1884
1.18831
1.18822
1.18812
1.18861
1.18859
1.18858
1.18857
1.18856
1.18853
1.18849
1.18843
1.18835
1.18827
1.18818
1.18809
1.18858
1.18855
1.18855
1.18854
1.18852
1.18849
1.18844
1.18838
1.1883
1.18822
1.18814
1.18806
1.18854
1.18851
1.18851
1.18849
1.18847
1.18843
1.18838
1.18832
1.18825
1.18818
1.18811
1.18804
1.18848
1.18845
1.18845
1.18844
1.18842
1.18838
1.18832
1.18826
1.1882
1.18814
1.18808
1.18803
1.18841
1.18839
1.1884
1.18838
1.18836
1.18831
1.18826
1.18821
1.18815
1.1881
1.18806
1.18802
1.18832
1.18831
1.18833
1.18832
1.18829
1.18825
1.1882
1.18815
1.18811
1.18807
1.18803
1.18801
1.1882
1.18822
1.18826
1.18826
1.18823
1.18819
1.18815
1.1881
1.18806
1.18803
1.18801
1.188
1.18804
1.18812
1.18818
1.18819
1.18817
1.18813
1.18809
1.18805
1.18802
1.188
1.18799
1.18798
1.18776
1.18792
1.18805
1.18808
1.18807
1.18804
1.188
1.18797
1.18795
1.18795
1.18795
1.18796
1.1881
1.188
1.1879
1.18781
1.18771
1.18761
1.1875
1.18738
1.18725
1.18712
1.18698
1.1868
1.18805
1.18795
1.18786
1.18777
1.18767
1.18757
1.18746
1.18734
1.18721
1.18705
1.18687
1.18651
1.18802
1.18793
1.18784
1.18775
1.18766
1.18756
1.18746
1.18733
1.18719
1.18702
1.18682
1.18641
1.188
1.18792
1.18784
1.18776
1.18767
1.18758
1.18747
1.18734
1.18719
1.18701
1.1868
1.1864
1.18799
1.18792
1.18785
1.18777
1.18769
1.1876
1.18749
1.18736
1.18721
1.18702
1.18681
1.18642
1.18798
1.18792
1.18786
1.18779
1.18772
1.18763
1.18752
1.18739
1.18724
1.18704
1.18684
1.18644
1.18798
1.18793
1.18788
1.18782
1.18775
1.18766
1.18756
1.18743
1.18727
1.18707
1.18687
1.18647
1.18798
1.18794
1.1879
1.18785
1.18778
1.1877
1.1876
1.18747
1.18731
1.18711
1.1869
1.1865
1.18798
1.18795
1.18792
1.18787
1.18781
1.18773
1.18764
1.18751
1.18735
1.18715
1.18694
1.18653
1.18798
1.18796
1.18794
1.1879
1.18784
1.18777
1.18767
1.18755
1.1874
1.18719
1.18698
1.18656
1.18798
1.18797
1.18795
1.18792
1.18787
1.1878
1.1877
1.18758
1.18743
1.18723
1.18702
1.18659
1.18797
1.18797
1.18797
1.18795
1.18791
1.18785
1.18776
1.18764
1.18751
1.1873
1.18711
1.18666
1.18695
1.18688
1.18689
1.18695
1.18704
1.18716
1.1873
1.18745
1.18763
1.18782
1.188
1.18816
1.18682
1.18681
1.18682
1.18689
1.187
1.18712
1.18727
1.18743
1.18761
1.1878
1.18799
1.18815
1.18672
1.18672
1.18675
1.18683
1.18695
1.18709
1.18724
1.18741
1.18759
1.18779
1.18797
1.18814
1.18661
1.18663
1.18668
1.18678
1.1869
1.18705
1.18722
1.18739
1.18758
1.18777
1.18796
1.18813
1.1865
1.18654
1.18661
1.18672
1.18686
1.18702
1.18719
1.18737
1.18756
1.18775
1.18794
1.18812
1.18637
1.18644
1.18653
1.18666
1.18681
1.18698
1.18716
1.18735
1.18754
1.18774
1.18793
1.18811
1.18623
1.18634
1.18645
1.18659
1.18676
1.18695
1.18714
1.18733
1.18752
1.18772
1.18792
1.1881
1.18607
1.18623
1.18637
1.18653
1.18672
1.18692
1.18711
1.18731
1.1875
1.1877
1.1879
1.18809
1.18588
1.18611
1.18628
1.18646
1.18667
1.18689
1.18709
1.18729
1.18748
1.18769
1.18789
1.18808
1.18568
1.18599
1.1862
1.1864
1.18662
1.18686
1.18707
1.18727
1.18746
1.18767
1.18788
1.18807
1.18547
1.18587
1.18611
1.18632
1.18657
1.18683
1.18705
1.18725
1.18745
1.18766
1.18787
1.18807
1.1852
1.18573
1.18599
1.18622
1.1865
1.18679
1.18703
1.18722
1.18741
1.18763
1.18785
1.18806
)
;

boundaryField
{
    rotor
    {
        type            calculated;
        value           nonuniform List<scalar> 
192
(
1.16857
1.16836
1.16825
1.16819
1.16821
1.1684
1.16911
1.17026
1.16984
1.16979
1.16993
1.16987
1.17002
1.1702
1.17053
1.17102
1.1716
1.17216
1.17278
1.17325
1.17356
1.1735
1.17328
1.17263
1.16847
1.16829
1.16819
1.16813
1.16816
1.16828
1.16877
1.17011
1.16964
1.16959
1.16973
1.1697
1.16982
1.16999
1.17028
1.17071
1.17124
1.17174
1.17232
1.17273
1.173
1.17292
1.17268
1.17205
1.16857
1.16836
1.16825
1.16819
1.16821
1.1684
1.16911
1.17026
1.16984
1.16979
1.16993
1.16987
1.17002
1.1702
1.17053
1.17102
1.1716
1.17216
1.17278
1.17325
1.17356
1.1735
1.17327
1.17263
1.16847
1.16829
1.16819
1.16813
1.16816
1.16828
1.16877
1.17011
1.16964
1.16959
1.16973
1.1697
1.16982
1.16999
1.17028
1.17071
1.17124
1.17174
1.17232
1.17273
1.173
1.17292
1.17268
1.17205
1.16857
1.17016
1.1713
1.17309
1.17476
1.17658
1.17837
1.18011
1.18201
1.18375
1.18516
1.18517
1.17205
1.17321
1.17363
1.17451
1.17597
1.1779
1.18028
1.18304
1.18618
1.18927
1.19209
1.19422
1.16847
1.17006
1.17117
1.17293
1.17455
1.17638
1.17817
1.17992
1.18183
1.18355
1.18496
1.18503
1.17263
1.17374
1.17409
1.17494
1.1764
1.17835
1.18078
1.1836
1.18681
1.18993
1.19273
1.19475
1.16857
1.17016
1.1713
1.17309
1.17476
1.17658
1.17837
1.18011
1.18201
1.18375
1.18516
1.18517
1.17205
1.17321
1.17363
1.17451
1.17597
1.1779
1.18028
1.18304
1.18618
1.18927
1.19209
1.19422
1.16847
1.17006
1.17117
1.17293
1.17455
1.17638
1.17817
1.17992
1.18183
1.18355
1.18496
1.18503
1.17263
1.17374
1.17409
1.17494
1.1764
1.17835
1.18078
1.1836
1.18681
1.18993
1.19273
1.19475
)
;
    }
    stator
    {
        type            calculated;
        value           nonuniform List<scalar> 
192
(
1.18823
1.18835
1.18843
1.18847
1.18846
1.18841
1.18833
1.18822
1.18807
1.18787
1.18759
1.18708
1.18776
1.18792
1.18806
1.18808
1.18807
1.18804
1.188
1.18797
1.18795
1.18795
1.18795
1.18796
1.18797
1.18797
1.18797
1.18795
1.18791
1.18785
1.18776
1.18764
1.18751
1.1873
1.18711
1.18666
1.1852
1.18573
1.18599
1.18622
1.1865
1.18679
1.18703
1.18722
1.18741
1.18763
1.18785
1.18806
1.18823
1.18835
1.18843
1.18847
1.18846
1.18841
1.18833
1.18822
1.18807
1.18787
1.18759
1.18708
1.18776
1.18792
1.18805
1.18808
1.18807
1.18804
1.188
1.18797
1.18795
1.18795
1.18795
1.18796
1.18797
1.18797
1.18797
1.18795
1.18791
1.18785
1.18776
1.18764
1.18751
1.1873
1.18711
1.18666
1.1852
1.18573
1.18599
1.18622
1.1865
1.18679
1.18703
1.18722
1.18741
1.18763
1.18785
1.18806
1.18865
1.18865
1.18863
1.18861
1.18858
1.18854
1.18848
1.18841
1.18832
1.1882
1.18804
1.18776
1.18837
1.18829
1.1882
1.18812
1.18804
1.18795
1.18785
1.18775
1.18762
1.18748
1.18731
1.18708
1.18695
1.18682
1.18672
1.18661
1.1865
1.18637
1.18623
1.18607
1.18588
1.18568
1.18547
1.1852
1.1868
1.1865
1.18641
1.1864
1.18641
1.18644
1.18647
1.1865
1.18653
1.18656
1.18659
1.18666
1.18865
1.18865
1.18863
1.18861
1.18858
1.18854
1.18848
1.18841
1.18832
1.1882
1.18804
1.18776
1.18837
1.18829
1.1882
1.18812
1.18804
1.18795
1.18785
1.18775
1.18762
1.18748
1.18731
1.18708
1.18695
1.18682
1.18672
1.18661
1.1865
1.18637
1.18623
1.18607
1.18588
1.18568
1.18547
1.1852
1.1868
1.18651
1.18641
1.1864
1.18642
1.18644
1.18647
1.1865
1.18653
1.18656
1.18659
1.18666
)
;
    }
    front
    {
        type            empty;
    }
    back
    {
        type            empty;
    }
}


// ************************************************************************* //
