/*--------------------------------*- C++ -*----------------------------------*\
| =========                 |                                                 |
| \\      /  F ield         | OpenFOAM: The Open Source CFD Toolbox           |
|  \\    /   O peration     | Version:  2212                                  |
|   \\  /    A nd           | Website:  www.openfoam.com                      |
|    \\/     M anipulation  |                                                 |
\*---------------------------------------------------------------------------*/
FoamFile
{
    version     2.0;
    format      ascii;
    arch        "LSB;label=32;scalar=64";
    class       volScalarField;
    location    "0.05";
    object      tracer0;
}
// * * * * * * * * * * * * * * * * * * * * * * * * * * * * * * * * * * * * * //

dimensions      [0 0 0 0 0 0 0];

internalField   nonuniform List<scalar> 
3072
(
1.58422e-05
1.58362e-05
1.57909e-05
1.56853e-05
1.56016e-05
1.54757e-05
1.54712e-05
1.57923e-05
1.85523e-05
2.01879e-05
2.03097e-05
2.0347e-05
1.62628e-05
1.61722e-05
1.59439e-05
1.56983e-05
1.55458e-05
1.58644e-05
1.71158e-05
1.89786e-05
1.97913e-05
2.00343e-05
1.98739e-05
1.95376e-05
1.64491e-05
1.62691e-05
1.58888e-05
1.56622e-05
1.6051e-05
1.76078e-05
1.90074e-05
1.94748e-05
1.95917e-05
1.92438e-05
1.81698e-05
1.67757e-05
1.66205e-05
1.63237e-05
1.59769e-05
1.62098e-05
1.74605e-05
1.8746e-05
1.91622e-05
1.9243e-05
1.86467e-05
1.67785e-05
1.43696e-05
1.28583e-05
1.68165e-05
1.68367e-05
1.67348e-05
1.73462e-05
1.84481e-05
1.88983e-05
1.89981e-05
1.84887e-05
1.65057e-05
1.38133e-05
1.17043e-05
1.02396e-05
1.69787e-05
1.72617e-05
1.74373e-05
1.8166e-05
1.86679e-05
1.88114e-05
1.85957e-05
1.7156e-05
1.4468e-05
1.18232e-05
1.00119e-05
8.65589e-06
1.71521e-05
1.76579e-05
1.79651e-05
1.84397e-05
1.86113e-05
1.85981e-05
1.78484e-05
1.58061e-05
1.3204e-05
1.0989e-05
9.44727e-06
8.24227e-06
1.73804e-05
1.78392e-05
1.81444e-05
1.84177e-05
1.85015e-05
1.8315e-05
1.73664e-05
1.56273e-05
1.32978e-05
1.11899e-05
9.6847e-06
8.51778e-06
2.07919e-05
2.013e-05
1.82318e-05
1.82775e-05
1.82927e-05
1.80934e-05
1.74036e-05
1.59144e-05
1.38899e-05
1.19584e-05
1.04972e-05
9.38195e-06
2.46481e-05
2.26825e-05
2.04174e-05
1.83659e-05
1.82123e-05
1.80753e-05
1.76403e-05
1.66819e-05
1.53324e-05
1.38135e-05
1.24774e-05
1.13775e-05
2.68069e-05
2.84982e-05
2.76501e-05
2.17362e-05
1.96596e-05
1.886e-05
1.84204e-05
1.78345e-05
1.69768e-05
1.58821e-05
1.48517e-05
1.38978e-05
3.12272e-05
3.20435e-05
3.42731e-05
3.31334e-05
3.05115e-05
2.79227e-05
2.56582e-05
2.37458e-05
2.21621e-05
2.08833e-05
1.97574e-05
1.89821e-05
2.03665e-05
2.03976e-05
2.04187e-05
2.04615e-05
2.0498e-05
2.05678e-05
2.06552e-05
2.07574e-05
2.08507e-05
2.09144e-05
2.09426e-05
2.09158e-05
1.91813e-05
1.88418e-05
1.86449e-05
1.86041e-05
1.87236e-05
1.90047e-05
1.94117e-05
1.99411e-05
2.04718e-05
2.08684e-05
2.10562e-05
2.11303e-05
1.56402e-05
1.47254e-05
1.4287e-05
1.41519e-05
1.43081e-05
1.49302e-05
1.58264e-05
1.71606e-05
1.87043e-05
2.01949e-05
2.09325e-05
2.12051e-05
1.14299e-05
1.05993e-05
1.00548e-05
9.94532e-06
1.00668e-05
1.07257e-05
1.17525e-05
1.34791e-05
1.5802e-05
1.8699e-05
2.05699e-05
2.12549e-05
8.95853e-06
8.34563e-06
7.96198e-06
7.89468e-06
8.06967e-06
8.67258e-06
9.66019e-06
1.12699e-05
1.35702e-05
1.69227e-05
2.00949e-05
2.13154e-05
7.6459e-06
7.16902e-06
6.89409e-06
6.84389e-06
7.11941e-06
7.67848e-06
8.61772e-06
1.01954e-05
1.24655e-05
1.59275e-05
1.96953e-05
2.13718e-05
7.34468e-06
6.83517e-06
6.49962e-06
6.45364e-06
6.78398e-06
7.33707e-06
8.2382e-06
9.78838e-06
1.20029e-05
1.54833e-05
1.9462e-05
2.14353e-05
7.63523e-06
7.11509e-06
6.78226e-06
6.83659e-06
7.04126e-06
7.49145e-06
8.30313e-06
9.79773e-06
1.19759e-05
1.54216e-05
1.93786e-05
2.14948e-05
8.54039e-06
8.0059e-06
7.76072e-06
7.90224e-06
8.21792e-06
8.80966e-06
9.78015e-06
1.14501e-05
1.35844e-05
1.67047e-05
2.00083e-05
2.16127e-05
1.06453e-05
1.00576e-05
9.92984e-06
1.01537e-05
1.05544e-05
1.12257e-05
1.22508e-05
1.38452e-05
1.57939e-05
1.8484e-05
2.0797e-05
2.1792e-05
1.33134e-05
1.29198e-05
1.30427e-05
1.34515e-05
1.40597e-05
1.49605e-05
1.62884e-05
1.79571e-05
1.98883e-05
2.11572e-05
2.1836e-05
2.19821e-05
1.83107e-05
1.81826e-05
1.85721e-05
1.91504e-05
1.98838e-05
2.07343e-05
2.14982e-05
2.1963e-05
2.21982e-05
2.22319e-05
2.21883e-05
2.20557e-05
1.80309e-05
1.80247e-05
1.79782e-05
1.78694e-05
1.77843e-05
1.76544e-05
1.76522e-05
1.79871e-05
2.08682e-05
2.25669e-05
2.26922e-05
2.27211e-05
1.84634e-05
1.837e-05
1.81349e-05
1.78824e-05
1.77279e-05
1.80591e-05
1.93577e-05
2.12583e-05
2.20846e-05
2.23238e-05
2.20203e-05
2.152e-05
1.86552e-05
1.84694e-05
1.80779e-05
1.78461e-05
1.82461e-05
1.98426e-05
2.12826e-05
2.17649e-05
2.1884e-05
2.1537e-05
2.05488e-05
1.96185e-05
1.88321e-05
1.85246e-05
1.81673e-05
1.84054e-05
1.96828e-05
2.10241e-05
2.14654e-05
2.15539e-05
2.10258e-05
1.93562e-05
1.71134e-05
1.53703e-05
1.90342e-05
1.90517e-05
1.89418e-05
1.95695e-05
2.07263e-05
2.12068e-05
2.13172e-05
2.08782e-05
1.90398e-05
1.63111e-05
1.38726e-05
1.18301e-05
1.92035e-05
1.94991e-05
1.96754e-05
2.04342e-05
2.09712e-05
2.11253e-05
2.0944e-05
1.96089e-05
1.69076e-05
1.39405e-05
1.15708e-05
9.64173e-06
1.93754e-05
1.98977e-05
2.02285e-05
2.07352e-05
2.09208e-05
2.09319e-05
2.02332e-05
1.8223e-05
1.54859e-05
1.2884e-05
1.08009e-05
9.09118e-06
1.95144e-05
2.01471e-05
2.04457e-05
2.07158e-05
2.08033e-05
2.06409e-05
1.97504e-05
1.80266e-05
1.55808e-05
1.31239e-05
1.11259e-05
9.48123e-06
1.95461e-05
2.01792e-05
2.0454e-05
2.06186e-05
2.06356e-05
2.04495e-05
1.97815e-05
1.83164e-05
1.62174e-05
1.4034e-05
1.21926e-05
1.06668e-05
1.95591e-05
2.01419e-05
2.0362e-05
2.04532e-05
2.04816e-05
2.03739e-05
2.00353e-05
1.92404e-05
1.7817e-05
1.613e-05
1.45485e-05
1.31497e-05
1.94465e-05
1.99691e-05
2.00942e-05
2.00954e-05
2.01621e-05
2.01754e-05
2.0086e-05
1.9882e-05
1.94974e-05
1.87034e-05
1.7926e-05
1.69712e-05
1.94357e-05
1.95402e-05
1.96113e-05
1.96501e-05
1.96794e-05
1.97114e-05
1.97583e-05
1.97617e-05
1.97009e-05
1.94706e-05
1.92826e-05
1.89179e-05
2.27457e-05
2.27722e-05
2.28039e-05
2.28257e-05
2.28329e-05
2.28414e-05
2.28129e-05
2.25803e-05
2.25495e-05
2.25496e-05
2.27587e-05
2.31226e-05
2.10861e-05
2.06819e-05
2.04759e-05
2.03998e-05
2.04564e-05
2.05574e-05
2.06013e-05
2.05116e-05
2.05486e-05
2.05489e-05
2.05853e-05
2.06782e-05
1.86941e-05
1.7958e-05
1.75474e-05
1.74938e-05
1.7683e-05
1.83609e-05
1.89047e-05
1.93639e-05
1.9637e-05
1.97719e-05
1.9811e-05
1.97997e-05
1.35371e-05
1.24372e-05
1.16693e-05
1.15152e-05
1.16873e-05
1.26648e-05
1.42474e-05
1.66187e-05
1.81789e-05
1.89876e-05
1.92944e-05
1.93711e-05
1.01204e-05
9.21406e-06
8.68188e-06
8.58445e-06
8.81062e-06
9.60047e-06
1.08556e-05
1.28253e-05
1.56495e-05
1.78667e-05
1.86852e-05
1.89126e-05
8.29604e-06
7.58868e-06
7.23441e-06
7.16838e-06
7.54772e-06
8.29985e-06
9.53717e-06
1.14429e-05
1.40985e-05
1.67993e-05
1.81956e-05
1.86447e-05
7.88276e-06
7.14647e-06
6.69629e-06
6.63878e-06
7.09686e-06
7.84945e-06
9.06769e-06
1.0963e-05
1.36491e-05
1.63787e-05
1.80333e-05
1.85778e-05
8.28629e-06
7.54783e-06
7.09287e-06
7.17019e-06
7.45242e-06
8.06022e-06
9.18028e-06
1.09779e-05
1.36367e-05
1.63554e-05
1.80663e-05
1.86566e-05
9.52633e-06
8.78634e-06
8.44844e-06
8.63722e-06
9.05414e-06
9.81688e-06
1.10685e-05
1.29837e-05
1.53325e-05
1.73096e-05
1.83693e-05
1.86791e-05
1.21999e-05
1.14274e-05
1.13015e-05
1.16004e-05
1.20979e-05
1.28628e-05
1.3996e-05
1.55479e-05
1.70061e-05
1.80171e-05
1.8577e-05
1.87794e-05
1.63708e-05
1.57858e-05
1.57026e-05
1.59489e-05
1.63322e-05
1.68538e-05
1.74927e-05
1.81018e-05
1.85449e-05
1.87936e-05
1.88885e-05
1.88307e-05
1.87151e-05
1.84724e-05
1.84874e-05
1.86104e-05
1.87626e-05
1.89052e-05
1.90181e-05
1.90925e-05
1.90965e-05
1.90404e-05
1.89858e-05
1.88544e-05
5.60966e-05
5.62017e-05
5.69994e-05
5.83023e-05
5.93664e-05
6.06385e-05
6.00845e-05
5.58094e-05
2.8973e-05
1.50028e-05
1.41944e-05
1.41889e-05
5.13616e-05
5.34983e-05
5.66483e-05
5.94101e-05
6.08627e-05
5.69979e-05
4.41072e-05
2.54739e-05
1.67793e-05
1.39894e-05
1.36165e-05
1.33053e-05
4.91807e-05
5.35668e-05
5.80529e-05
6.04497e-05
5.62241e-05
4.13042e-05
2.34649e-05
1.6494e-05
1.3744e-05
1.26883e-05
1.16754e-05
1.02238e-05
4.68928e-05
5.40853e-05
5.79879e-05
5.53915e-05
4.35655e-05
2.47755e-05
1.66141e-05
1.32311e-05
1.17004e-05
1.01063e-05
8.37461e-06
6.97586e-06
4.4233e-05
4.89958e-05
5.07156e-05
4.38963e-05
2.8042e-05
1.76665e-05
1.33495e-05
1.13791e-05
9.83325e-06
7.87634e-06
6.22417e-06
5.06822e-06
4.00343e-05
4.28521e-05
4.14136e-05
3.09076e-05
2.00271e-05
1.43067e-05
1.17657e-05
1.01905e-05
8.357e-06
6.34443e-06
4.9475e-06
3.97325e-06
3.34097e-05
3.44086e-05
3.19349e-05
2.29001e-05
1.59679e-05
1.26885e-05
1.07957e-05
9.20584e-06
7.40875e-06
5.69908e-06
4.53129e-06
3.68536e-06
3.08458e-05
2.95581e-05
2.55727e-05
1.80452e-05
1.40697e-05
1.17864e-05
1.03254e-05
9.04851e-06
7.46494e-06
5.84997e-06
4.70675e-06
3.87499e-06
2.98038e-05
2.6156e-05
2.04543e-05
1.53376e-05
1.30664e-05
1.15581e-05
1.03831e-05
9.23995e-06
7.87079e-06
6.42235e-06
5.31131e-06
4.48798e-06
2.75328e-05
2.19196e-05
1.7822e-05
1.46754e-05
1.31412e-05
1.17907e-05
1.07366e-05
9.78252e-06
8.79333e-06
7.70955e-06
6.73806e-06
5.91957e-06
2.72174e-05
2.21744e-05
1.87917e-05
1.60571e-05
1.44548e-05
1.31019e-05
1.19878e-05
1.10634e-05
1.02335e-05
9.34716e-06
8.55085e-06
7.82847e-06
2.6583e-05
2.5193e-05
2.3703e-05
2.23104e-05
2.09036e-05
1.94235e-05
1.7786e-05
1.61779e-05
1.47186e-05
1.35292e-05
1.24848e-05
1.18136e-05
1.42189e-05
1.42446e-05
1.42803e-05
1.43152e-05
1.43672e-05
1.44413e-05
1.45459e-05
1.46666e-05
1.47908e-05
1.48778e-05
1.49167e-05
1.49018e-05
1.28656e-05
1.24975e-05
1.2252e-05
1.22028e-05
1.23203e-05
1.25981e-05
1.30227e-05
1.35923e-05
1.42155e-05
1.47595e-05
1.5025e-05
1.51251e-05
9.17567e-06
8.40085e-06
8.02078e-06
7.90724e-06
8.02866e-06
8.52838e-06
9.30033e-06
1.05243e-05
1.20246e-05
1.378e-05
1.48239e-05
1.52029e-05
6.02111e-06
5.33145e-06
4.99818e-06
4.90821e-06
4.99681e-06
5.46519e-06
6.1932e-06
7.41724e-06
9.26155e-06
1.17935e-05
1.43117e-05
1.52597e-05
4.25142e-06
3.74161e-06
3.5135e-06
3.46835e-06
3.59527e-06
4.01847e-06
4.71952e-06
5.88181e-06
7.66073e-06
1.01688e-05
1.36314e-05
1.53291e-05
3.31816e-06
2.93736e-06
2.77666e-06
2.74402e-06
2.93339e-06
3.32199e-06
3.9858e-06
5.04677e-06
6.81043e-06
9.35765e-06
1.3003e-05
1.53979e-05
3.09776e-06
2.71968e-06
2.50751e-06
2.47939e-06
2.70234e-06
3.08394e-06
3.7293e-06
4.74534e-06
6.47092e-06
8.99556e-06
1.26935e-05
1.54753e-05
3.29181e-06
2.91786e-06
2.6967e-06
2.73489e-06
2.87707e-06
3.19172e-06
3.79488e-06
4.75277e-06
6.45561e-06
8.94844e-06
1.25985e-05
1.5547e-05
3.91113e-06
3.53756e-06
3.36865e-06
3.46727e-06
3.68869e-06
4.10794e-06
4.82316e-06
5.9316e-06
7.68993e-06
9.96189e-06
1.31809e-05
1.56976e-05
5.38325e-06
4.9621e-06
4.87621e-06
5.0406e-06
5.33785e-06
5.8397e-06
6.60234e-06
7.76456e-06
9.43708e-06
1.14854e-05
1.41008e-05
1.59719e-05
7.37836e-06
7.08149e-06
7.17889e-06
7.49961e-06
7.98764e-06
8.69767e-06
9.67049e-06
1.10756e-05
1.28076e-05
1.44542e-05
1.58158e-05
1.63675e-05
1.1234e-05
1.11744e-05
1.15148e-05
1.20526e-05
1.27735e-05
1.36459e-05
1.47611e-05
1.55969e-05
1.61545e-05
1.64441e-05
1.66428e-05
1.65469e-05
1.78329e-05
1.78263e-05
1.77876e-05
1.76895e-05
1.76094e-05
1.74832e-05
1.74834e-05
1.78107e-05
2.06217e-05
2.22815e-05
2.24052e-05
2.24348e-05
1.82533e-05
1.81818e-05
1.79809e-05
1.77334e-05
1.75842e-05
1.79149e-05
1.92539e-05
2.10252e-05
2.17949e-05
2.20287e-05
2.17064e-05
2.11907e-05
1.84388e-05
1.83034e-05
1.79582e-05
1.77281e-05
1.81159e-05
1.97339e-05
2.09566e-05
2.13352e-05
2.14241e-05
2.06972e-05
1.89523e-05
1.70169e-05
1.86044e-05
1.84126e-05
1.80674e-05
1.82965e-05
1.9588e-05
2.06475e-05
2.09329e-05
2.0959e-05
1.99127e-05
1.70018e-05
1.42462e-05
1.25331e-05
1.87857e-05
1.89052e-05
1.88495e-05
1.94465e-05
2.03252e-05
2.06254e-05
2.06598e-05
1.97374e-05
1.68014e-05
1.35709e-05
1.13051e-05
9.61384e-06
1.88938e-05
1.9274e-05
1.94507e-05
2.00637e-05
2.03938e-05
2.04851e-05
2.00304e-05
1.78533e-05
1.43014e-05
1.13789e-05
9.40251e-06
7.8313e-06
1.90297e-05
1.95513e-05
1.98233e-05
2.01858e-05
2.03104e-05
2.01459e-05
1.89205e-05
1.60975e-05
1.28612e-05
1.04711e-05
8.76572e-06
7.37185e-06
1.91309e-05
1.96981e-05
1.99531e-05
2.01169e-05
2.01306e-05
1.97022e-05
1.83115e-05
1.59197e-05
1.29883e-05
1.06929e-05
9.03316e-06
7.68766e-06
1.91473e-05
1.96883e-05
1.98961e-05
1.99638e-05
1.99177e-05
1.94715e-05
1.83998e-05
1.63195e-05
1.37232e-05
1.15545e-05
9.94356e-06
8.66571e-06
1.91523e-05
1.9625e-05
1.97538e-05
1.97841e-05
1.97503e-05
1.94989e-05
1.88858e-05
1.75687e-05
1.55749e-05
1.35726e-05
1.19318e-05
1.06583e-05
1.90882e-05
1.94455e-05
1.94735e-05
1.94933e-05
1.94951e-05
1.94321e-05
1.92733e-05
1.89109e-05
1.82545e-05
1.70966e-05
1.6084e-05
1.48862e-05
1.87961e-05
1.89177e-05
1.88711e-05
1.88596e-05
1.88563e-05
1.89523e-05
1.89897e-05
1.89092e-05
1.87934e-05
1.85497e-05
1.82557e-05
1.78693e-05
2.24615e-05
2.24922e-05
2.25272e-05
2.2576e-05
2.26409e-05
2.27357e-05
2.28763e-05
2.3034e-05
2.31998e-05
2.33085e-05
2.33586e-05
2.33577e-05
2.06111e-05
2.0074e-05
1.97425e-05
1.966e-05
1.98164e-05
2.01888e-05
2.07674e-05
2.15441e-05
2.23981e-05
2.31147e-05
2.34571e-05
2.35873e-05
1.55589e-05
1.44339e-05
1.39321e-05
1.37508e-05
1.39207e-05
1.45947e-05
1.56332e-05
1.73013e-05
1.93916e-05
2.18459e-05
2.31624e-05
2.3667e-05
1.09105e-05
1.00465e-05
9.45649e-06
9.34533e-06
9.48232e-06
1.02136e-05
1.12965e-05
1.30292e-05
1.54545e-05
1.91594e-05
2.2466e-05
2.37313e-05
8.22862e-06
7.54364e-06
7.11349e-06
7.0399e-06
7.25364e-06
7.98722e-06
9.16491e-06
1.0939e-05
1.32248e-05
1.68692e-05
2.15401e-05
2.38107e-05
6.73986e-06
6.16054e-06
5.84628e-06
5.78665e-06
6.10575e-06
6.7567e-06
7.86739e-06
9.7906e-06
1.2012e-05
1.57352e-05
2.06847e-05
2.38936e-05
6.38799e-06
5.77727e-06
5.38644e-06
5.33122e-06
5.71304e-06
6.35094e-06
7.4055e-06
9.35824e-06
1.15307e-05
1.52215e-05
2.02572e-05
2.39855e-05
6.71385e-06
6.10645e-06
5.718e-06
5.77936e-06
6.01175e-06
6.52507e-06
7.45829e-06
9.41428e-06
1.15046e-05
1.51486e-05
2.01212e-05
2.40721e-05
7.7246e-06
7.11557e-06
6.83063e-06
6.98648e-06
7.34305e-06
8.02386e-06
9.15895e-06
1.13579e-05
1.31313e-05
1.65664e-05
2.05049e-05
2.41669e-05
9.83785e-06
9.17546e-06
9.13941e-06
9.44641e-06
9.96471e-06
1.08035e-05
1.20434e-05
1.40308e-05
1.51241e-05
1.76665e-05
1.94688e-05
2.29352e-05
1.42499e-05
1.35949e-05
1.36364e-05
1.39889e-05
1.44883e-05
1.51463e-05
1.57966e-05
1.63365e-05
1.65128e-05
1.76765e-05
1.90714e-05
2.23682e-05
1.75437e-05
1.73027e-05
1.71836e-05
1.71574e-05
1.71255e-05
1.7126e-05
1.70366e-05
1.69971e-05
1.68482e-05
1.75801e-05
1.85898e-05
2.15692e-05
2.15934e-05
2.26307e-05
2.56252e-05
2.60294e-05
2.67901e-05
2.69775e-05
2.67946e-05
2.65564e-05
2.60732e-05
2.55845e-05
2.5014e-05
2.45831e-05
1.86899e-05
1.93101e-05
2.128e-05
2.16432e-05
2.19332e-05
2.24287e-05
2.30369e-05
2.3695e-05
2.41553e-05
2.444e-05
2.44308e-05
2.43439e-05
1.50886e-05
1.68262e-05
1.71411e-05
1.74553e-05
1.78033e-05
1.81576e-05
1.85832e-05
1.90036e-05
1.94732e-05
1.99186e-05
2.03533e-05
2.05388e-05
1.35991e-05
1.37648e-05
1.39905e-05
1.421e-05
1.4516e-05
1.4826e-05
1.5251e-05
1.56612e-05
1.61596e-05
1.65058e-05
1.67754e-05
1.65982e-05
2.41789e-05
2.40126e-05
2.38567e-05
2.37028e-05
2.35391e-05
2.33548e-05
2.31418e-05
2.28983e-05
2.26314e-05
2.23746e-05
2.21563e-05
2.20467e-05
2.41874e-05
2.39684e-05
2.36775e-05
2.33056e-05
2.28409e-05
2.23294e-05
2.17064e-05
2.11157e-05
2.05177e-05
2.00473e-05
1.96986e-05
1.99788e-05
2.03442e-05
1.99707e-05
1.94754e-05
1.88865e-05
1.82137e-05
1.75243e-05
1.6725e-05
1.60521e-05
1.54088e-05
1.5039e-05
1.48066e-05
1.51123e-05
1.59585e-05
1.5269e-05
1.4552e-05
1.38637e-05
1.33199e-05
1.27289e-05
1.24255e-05
1.21729e-05
1.2104e-05
1.20857e-05
1.2055e-05
1.21538e-05
2.19181e-05
2.16133e-05
2.14657e-05
2.12814e-05
2.1102e-05
2.08612e-05
2.06715e-05
2.04491e-05
2.03161e-05
2.01773e-05
2.00601e-05
1.99291e-05
2.03363e-05
2.04861e-05
2.05709e-05
2.06182e-05
2.06308e-05
2.06037e-05
2.05534e-05
2.04752e-05
2.04035e-05
2.03367e-05
2.02718e-05
2.02053e-05
1.55495e-05
1.60043e-05
1.64246e-05
1.68591e-05
1.72804e-05
1.7731e-05
1.81651e-05
1.8581e-05
1.89045e-05
1.90931e-05
1.9221e-05
1.91885e-05
1.23416e-05
1.25211e-05
1.2758e-05
1.29956e-05
1.33174e-05
1.36526e-05
1.40953e-05
1.453e-05
1.5058e-05
1.54974e-05
1.58239e-05
1.56672e-05
1.98198e-05
1.97488e-05
1.97112e-05
1.96694e-05
1.96094e-05
1.95327e-05
1.9438e-05
1.93168e-05
1.9178e-05
1.90348e-05
1.89043e-05
1.8823e-05
2.01312e-05
2.0031e-05
1.99035e-05
1.97189e-05
1.95139e-05
1.92146e-05
1.89146e-05
1.85428e-05
1.82044e-05
1.78969e-05
1.76737e-05
1.78213e-05
1.89985e-05
1.87093e-05
1.83369e-05
1.78781e-05
1.73628e-05
1.67517e-05
1.61538e-05
1.5505e-05
1.49905e-05
1.46329e-05
1.44341e-05
1.46668e-05
1.50879e-05
1.44645e-05
1.38096e-05
1.3211e-05
1.26341e-05
1.22193e-05
1.18445e-05
1.16876e-05
1.1619e-05
1.16032e-05
1.15766e-05
1.16682e-05
1.90503e-05
1.97038e-05
1.99046e-05
2.01012e-05
2.02061e-05
2.0117e-05
1.99413e-05
1.96162e-05
1.91043e-05
1.86051e-05
1.79904e-05
1.75307e-05
1.7889e-05
1.808e-05
1.81902e-05
1.83636e-05
1.84734e-05
1.87e-05
1.89176e-05
1.90516e-05
1.90025e-05
1.89257e-05
1.88462e-05
1.87224e-05
1.49837e-05
1.52269e-05
1.54709e-05
1.57012e-05
1.59601e-05
1.62056e-05
1.65028e-05
1.67944e-05
1.71507e-05
1.73888e-05
1.75891e-05
1.75721e-05
1.18639e-05
1.20213e-05
1.22435e-05
1.2437e-05
1.27182e-05
1.29822e-05
1.33516e-05
1.36903e-05
1.41092e-05
1.4418e-05
1.46594e-05
1.45247e-05
1.71214e-05
1.70038e-05
1.70611e-05
1.71663e-05
1.72547e-05
1.7291e-05
1.72923e-05
1.72073e-05
1.71442e-05
1.70321e-05
1.69719e-05
1.68275e-05
1.86189e-05
1.85068e-05
1.83511e-05
1.81709e-05
1.79471e-05
1.77015e-05
1.74218e-05
1.71428e-05
1.68491e-05
1.66063e-05
1.64024e-05
1.64342e-05
1.7405e-05
1.7149e-05
1.68248e-05
1.64308e-05
1.5984e-05
1.54766e-05
1.49551e-05
1.4404e-05
1.39658e-05
1.36627e-05
1.34933e-05
1.37024e-05
1.40388e-05
1.35309e-05
1.30122e-05
1.25261e-05
1.21006e-05
1.1707e-05
1.14941e-05
1.13255e-05
1.12821e-05
1.12709e-05
1.12449e-05
1.13197e-05
1.68578e-05
1.7015e-05
1.70305e-05
1.71074e-05
1.7146e-05
1.72923e-05
1.7437e-05
1.76856e-05
1.78601e-05
1.8023e-05
1.80096e-05
1.79519e-05
1.64257e-05
1.64577e-05
1.64649e-05
1.6498e-05
1.65212e-05
1.65787e-05
1.66549e-05
1.67362e-05
1.68397e-05
1.69153e-05
1.70016e-05
1.70431e-05
1.40254e-05
1.42533e-05
1.44926e-05
1.46761e-05
1.48972e-05
1.50663e-05
1.5276e-05
1.54343e-05
1.56245e-05
1.57307e-05
1.58426e-05
1.5822e-05
1.14607e-05
1.15943e-05
1.17569e-05
1.1922e-05
1.21247e-05
1.23476e-05
1.26157e-05
1.28977e-05
1.31956e-05
1.3449e-05
1.36086e-05
1.35152e-05
1.78868e-05
1.7809e-05
1.76946e-05
1.7573e-05
1.74177e-05
1.72588e-05
1.70668e-05
1.6881e-05
1.6555e-05
1.69566e-05
1.79239e-05
1.89665e-05
1.69832e-05
1.68721e-05
1.67288e-05
1.65449e-05
1.63181e-05
1.60582e-05
1.57556e-05
1.54611e-05
1.50485e-05
1.53124e-05
1.62495e-05
1.69111e-05
1.56929e-05
1.54927e-05
1.52466e-05
1.49541e-05
1.46221e-05
1.42275e-05
1.38286e-05
1.33932e-05
1.31355e-05
1.29135e-05
1.3227e-05
1.45073e-05
1.3231e-05
1.29097e-05
1.25964e-05
1.23055e-05
1.20524e-05
1.18974e-05
1.18353e-05
1.18305e-05
1.1847e-05
1.18519e-05
1.18309e-05
1.22491e-05
1.24198e-05
1.21971e-05
1.20298e-05
1.16629e-05
1.13577e-05
1.08346e-05
1.03629e-05
9.69172e-06
9.12394e-06
8.42957e-06
7.99349e-06
7.74561e-06
9.02849e-06
8.73409e-06
8.29815e-06
7.92733e-06
7.43579e-06
6.99074e-06
6.50107e-06
6.08026e-06
5.72015e-06
5.48101e-06
5.41294e-06
5.50877e-06
5.78862e-06
5.50507e-06
5.15478e-06
4.82908e-06
4.44703e-06
4.11754e-06
3.76037e-06
3.48959e-06
3.23444e-06
3.10126e-06
3.04656e-06
3.16705e-06
3.4334e-06
3.22993e-06
2.96596e-06
2.73569e-06
2.46405e-06
2.24306e-06
2.00324e-06
1.83504e-06
1.67336e-06
1.60507e-06
1.57813e-06
1.70213e-06
7.88874e-06
8.19143e-06
8.68859e-06
9.26895e-06
9.87351e-06
1.04041e-05
1.08147e-05
1.11125e-05
1.13215e-05
1.14641e-05
1.15236e-05
1.15457e-05
5.84783e-06
6.30768e-06
6.72758e-06
7.20077e-06
7.66399e-06
8.1086e-06
8.50322e-06
8.83548e-06
9.10602e-06
9.25273e-06
9.26873e-06
9.02999e-06
3.45621e-06
3.91035e-06
4.25968e-06
4.63874e-06
5.01133e-06
5.36508e-06
5.68199e-06
5.9671e-06
6.15868e-06
6.23763e-06
6.15586e-06
5.9453e-06
1.93663e-06
2.34242e-06
2.56657e-06
2.81703e-06
3.06507e-06
3.3054e-06
3.53158e-06
3.71598e-06
3.83194e-06
3.86745e-06
3.77143e-06
3.62719e-06
1.14968e-05
1.14056e-05
1.12514e-05
1.09955e-05
1.07001e-05
1.02966e-05
9.84901e-06
9.29913e-06
8.75802e-06
8.20225e-06
7.82668e-06
7.59707e-06
8.72862e-06
8.40266e-06
8.03031e-06
7.67403e-06
7.2542e-06
6.8367e-06
6.40116e-06
6.01045e-06
5.68033e-06
5.46261e-06
5.39612e-06
5.49612e-06
5.68813e-06
5.41292e-06
5.09568e-06
4.77688e-06
4.42794e-06
4.09821e-06
3.76848e-06
3.49063e-06
3.25453e-06
3.11061e-06
3.06904e-06
3.17858e-06
3.41769e-06
3.2173e-06
2.96314e-06
2.73339e-06
2.4707e-06
2.24544e-06
2.01386e-06
1.83732e-06
1.6839e-06
1.60584e-06
1.58758e-06
1.70607e-06
7.7349e-06
8.03909e-06
8.50052e-06
9.04795e-06
9.60134e-06
1.00872e-05
1.04591e-05
1.07293e-05
1.09184e-05
1.1049e-05
1.11051e-05
1.1128e-05
5.82343e-06
6.26974e-06
6.67491e-06
7.12846e-06
7.57059e-06
7.99258e-06
8.36504e-06
8.67682e-06
8.9316e-06
9.07114e-06
9.08991e-06
8.87884e-06
3.47794e-06
3.92411e-06
4.26998e-06
4.64419e-06
5.01079e-06
5.35772e-06
5.66747e-06
5.94499e-06
6.1321e-06
6.21036e-06
6.13609e-06
5.93333e-06
1.94406e-06
2.35062e-06
2.57538e-06
2.82624e-06
3.07436e-06
3.31438e-06
3.53986e-06
3.72361e-06
3.83923e-06
3.87504e-06
3.78112e-06
3.63755e-06
1.1091e-05
1.10031e-05
1.08697e-05
1.06327e-05
1.03779e-05
1.00089e-05
9.62128e-06
9.12499e-06
8.65986e-06
8.16698e-06
7.84117e-06
7.66613e-06
8.60226e-06
8.31096e-06
7.96948e-06
7.64511e-06
7.25328e-06
6.86609e-06
6.45644e-06
6.08714e-06
5.77323e-06
5.56321e-06
5.5032e-06
5.60764e-06
5.68727e-06
5.41956e-06
5.11043e-06
4.79592e-06
4.45031e-06
4.12028e-06
3.78792e-06
3.50478e-06
3.26239e-06
3.11227e-06
3.0673e-06
3.17666e-06
3.42999e-06
3.22909e-06
2.97562e-06
2.74397e-06
2.48078e-06
2.25283e-06
2.02041e-06
1.84171e-06
1.68836e-06
1.60943e-06
1.59199e-06
1.70983e-06
7.79578e-06
8.15619e-06
8.61757e-06
9.13628e-06
9.64385e-06
1.00648e-05
1.03877e-05
1.06199e-05
1.07805e-05
1.08938e-05
1.09462e-05
1.09772e-05
5.94547e-06
6.40329e-06
6.82007e-06
7.28329e-06
7.73217e-06
8.15598e-06
8.52527e-06
8.83062e-06
9.08088e-06
9.22026e-06
9.24538e-06
9.05735e-06
3.48242e-06
3.93811e-06
4.29345e-06
4.67864e-06
5.0563e-06
5.41374e-06
5.73262e-06
6.01795e-06
6.20958e-06
6.28947e-06
6.21282e-06
6.00452e-06
1.94822e-06
2.35686e-06
2.58276e-06
2.83542e-06
3.08587e-06
3.32867e-06
3.55726e-06
3.74349e-06
3.86051e-06
3.89628e-06
3.79915e-06
3.65291e-06
1.09827e-05
1.09475e-05
1.08837e-05
1.07578e-05
1.05656e-05
1.02576e-05
9.93397e-06
9.51907e-06
9.12925e-06
8.73142e-06
8.48861e-06
8.39808e-06
8.78867e-06
8.49267e-06
8.12605e-06
7.73815e-06
7.31496e-06
6.92055e-06
6.48046e-06
6.08934e-06
5.73245e-06
5.49298e-06
5.39382e-06
5.48971e-06
5.74799e-06
5.47024e-06
5.14796e-06
4.82415e-06
4.47429e-06
4.13961e-06
3.8037e-06
3.5213e-06
3.27967e-06
3.13663e-06
3.09448e-06
3.2081e-06
3.44032e-06
3.23666e-06
2.97859e-06
2.74534e-06
2.47878e-06
2.24943e-06
2.0144e-06
1.83479e-06
1.67893e-06
1.59927e-06
1.5797e-06
1.6985e-06
8.70427e-06
9.23026e-06
9.78869e-06
1.03563e-05
1.08647e-05
1.1291e-05
1.1622e-05
1.18676e-05
1.20434e-05
1.21719e-05
1.22454e-05
1.23332e-05
5.83976e-06
6.36248e-06
6.86056e-06
7.41305e-06
7.9609e-06
8.47799e-06
8.92843e-06
9.30253e-06
9.60208e-06
9.76279e-06
9.77774e-06
9.45467e-06
3.5075e-06
3.96266e-06
4.31798e-06
4.70835e-06
5.09656e-06
5.46945e-06
5.80666e-06
6.11261e-06
6.31658e-06
6.39823e-06
6.30006e-06
6.0699e-06
1.93815e-06
2.34941e-06
2.57727e-06
2.83203e-06
3.08474e-06
3.33023e-06
3.56214e-06
3.75114e-06
3.86965e-06
3.90472e-06
3.80134e-06
3.6526e-06
1.56987e-06
1.43321e-06
1.22548e-06
1.07563e-06
8.70215e-07
7.3279e-07
5.54975e-07
4.52656e-07
3.22288e-07
2.70627e-07
2.11821e-07
2.23315e-07
5.12189e-07
4.36713e-07
3.3692e-07
2.7163e-07
1.83611e-07
1.42302e-07
7.76756e-08
6.55293e-08
3.13144e-08
3.55672e-08
2.71878e-08
2.95566e-08
1.15536e-07
8.72059e-08
6.03044e-08
4.20405e-08
2.29147e-08
1.72504e-08
7.35316e-09
8.03024e-09
5.07124e-09
5.79799e-09
5.22896e-09
5.54124e-09
1.68765e-08
1.1475e-08
6.73235e-09
4.35303e-09
2.10881e-09
2.16788e-09
1.34585e-09
1.50398e-09
1.28687e-09
1.38784e-09
1.3847e-09
1.41217e-09
1.72606e-09
1.12911e-09
6.98983e-10
5.96518e-10
4.38044e-10
4.7251e-10
4.04609e-10
4.32096e-10
4.23773e-10
4.34897e-10
4.41139e-10
4.47107e-10
2.30488e-10
1.83673e-10
1.69675e-10
1.602e-10
1.53905e-10
1.55823e-10
1.51929e-10
1.54968e-10
1.56141e-10
1.58613e-10
1.61162e-10
1.62945e-10
6.49311e-11
6.01721e-11
6.12871e-11
6.02942e-11
6.04921e-11
6.05888e-11
6.07341e-11
6.12714e-11
6.19438e-11
6.28386e-11
6.37661e-11
6.43268e-11
2.45545e-11
2.45574e-11
2.46962e-11
2.47386e-11
2.4823e-11
2.49177e-11
2.50592e-11
2.52673e-11
2.55383e-11
2.58593e-11
2.61795e-11
2.63526e-11
1.01384e-11
1.02138e-11
1.02783e-11
1.03209e-11
1.03659e-11
1.04131e-11
1.04756e-11
1.05541e-11
1.06515e-11
1.07589e-11
1.08636e-11
1.0913e-11
4.25508e-12
4.28465e-12
4.31024e-12
4.32776e-12
4.34628e-12
4.36421e-12
4.38661e-12
4.41258e-12
4.44378e-12
4.4762e-12
4.50753e-12
4.5206e-12
1.852e-12
1.86096e-12
1.86924e-12
1.87494e-12
1.88103e-12
1.88658e-12
1.89322e-12
1.90025e-12
1.90846e-12
1.91645e-12
1.92402e-12
1.92654e-12
1.00429e-12
1.00667e-12
1.00881e-12
1.01072e-12
1.0125e-12
1.01413e-12
1.01562e-12
1.01691e-12
1.01798e-12
1.01876e-12
1.01923e-12
1.01941e-12
8.86535e-07
1.07322e-06
1.19058e-06
1.33725e-06
1.48867e-06
1.64405e-06
1.78165e-06
1.88683e-06
1.94491e-06
1.94775e-06
1.84425e-06
1.74818e-06
4.50582e-07
4.25073e-07
4.60573e-07
5.15186e-07
5.74955e-07
6.3777e-07
6.92331e-07
7.32071e-07
7.48803e-07
7.26692e-07
6.70354e-07
6.05322e-07
2.06338e-07
1.34095e-07
1.46197e-07
1.60129e-07
1.75659e-07
1.91825e-07
2.04514e-07
2.11804e-07
2.11589e-07
1.94871e-07
1.74822e-07
1.45138e-07
8.74326e-08
3.35746e-08
3.65812e-08
3.87189e-08
4.11775e-08
4.35705e-08
4.48907e-08
4.47604e-08
4.15356e-08
3.77095e-08
3.08236e-08
2.41249e-08
3.60874e-08
6.59641e-09
7.25773e-09
7.37084e-09
7.52354e-09
7.58329e-09
7.25646e-09
6.67e-09
5.83745e-09
4.90154e-09
3.79968e-09
2.68643e-09
1.52855e-08
1.09536e-09
1.21333e-09
1.16321e-09
1.15485e-09
1.05749e-09
9.63508e-10
8.13209e-10
6.83705e-10
5.252e-10
4.07607e-10
2.94206e-10
6.72717e-09
1.78828e-10
1.8898e-10
1.75493e-10
1.71925e-10
1.48576e-10
1.37971e-10
1.13854e-10
1.04098e-10
8.4668e-11
8.02972e-11
6.87777e-11
3.10503e-09
3.58451e-11
3.24374e-11
3.34664e-11
3.30074e-11
3.04795e-11
3.02719e-11
2.79238e-11
2.81931e-11
2.69118e-11
2.73566e-11
2.70652e-11
1.43672e-09
1.18203e-11
8.37876e-12
9.63633e-12
1.01106e-11
1.02926e-11
1.0575e-11
1.07754e-11
1.10652e-11
1.12766e-11
1.1517e-11
1.1671e-11
6.70692e-10
5.09981e-12
3.52957e-12
3.95353e-12
4.25106e-12
4.42142e-12
4.6018e-12
4.74194e-12
4.87962e-12
4.98454e-12
5.08041e-12
5.14493e-12
2.68619e-10
2.49221e-12
1.80971e-12
1.96587e-12
2.07676e-12
2.13765e-12
2.19893e-12
2.24403e-12
2.28724e-12
2.31897e-12
2.34803e-12
2.36727e-12
1.73845e-10
2.36119e-12
1.24499e-12
1.27637e-12
1.29497e-12
1.30894e-12
1.32063e-12
1.33004e-12
1.33783e-12
1.34406e-12
1.34918e-12
1.35327e-12
1.57141e-06
1.43432e-06
1.22878e-06
1.07762e-06
8.74131e-07
7.3396e-07
5.58545e-07
4.52297e-07
3.2543e-07
2.69129e-07
2.14628e-07
2.24014e-07
5.13724e-07
4.37872e-07
3.38232e-07
2.72348e-07
1.84625e-07
1.42425e-07
7.84921e-08
6.51718e-08
3.13838e-08
3.56626e-08
2.74429e-08
2.96775e-08
1.15995e-07
8.75032e-08
6.05818e-08
4.21542e-08
2.30863e-08
1.72278e-08
7.36851e-09
8.04833e-09
5.10552e-09
5.8347e-09
5.2688e-09
5.57539e-09
1.69561e-08
1.15241e-08
6.77209e-09
4.36863e-09
2.13567e-09
2.18132e-09
1.36088e-09
1.51943e-09
1.3034e-09
1.40399e-09
1.40083e-09
1.42818e-09
1.74192e-09
1.14133e-09
7.10537e-10
6.06138e-10
4.49178e-10
4.82448e-10
4.14624e-10
4.42102e-10
4.33837e-10
4.44956e-10
4.51246e-10
4.57255e-10
2.37771e-10
1.90597e-10
1.76644e-10
1.66959e-10
1.60864e-10
1.62644e-10
1.58748e-10
1.61799e-10
1.62998e-10
1.6551e-10
1.68106e-10
1.69921e-10
6.94673e-11
6.47059e-11
6.58287e-11
6.48315e-11
6.50364e-11
6.51312e-11
6.52851e-11
6.58394e-11
6.65373e-11
6.74655e-11
6.84279e-11
6.90095e-11
2.73828e-11
2.74003e-11
2.75489e-11
2.75968e-11
2.76865e-11
2.77873e-11
2.79381e-11
2.81597e-11
2.84488e-11
2.87915e-11
2.91334e-11
2.93182e-11
1.18136e-11
1.18983e-11
1.19699e-11
1.2017e-11
1.20666e-11
1.21185e-11
1.21874e-11
1.22741e-11
1.23819e-11
1.25008e-11
1.26169e-11
1.26717e-11
5.20014e-12
5.23425e-12
5.26368e-12
5.28369e-12
5.30485e-12
5.32532e-12
5.35101e-12
5.38087e-12
5.41687e-12
5.45434e-12
5.49062e-12
5.50575e-12
2.38442e-12
2.3951e-12
2.40495e-12
2.41167e-12
2.41889e-12
2.42544e-12
2.43334e-12
2.44172e-12
2.45155e-12
2.46114e-12
2.47025e-12
2.47326e-12
1.35673e-12
1.35963e-12
1.36223e-12
1.36454e-12
1.3667e-12
1.36868e-12
1.37048e-12
1.37205e-12
1.37334e-12
1.37427e-12
1.37484e-12
1.37505e-12
8.90353e-07
1.07781e-06
1.19555e-06
1.34268e-06
1.49456e-06
1.65037e-06
1.7883e-06
1.89369e-06
1.95189e-06
1.95477e-06
1.85118e-06
1.75474e-06
4.52518e-07
4.26835e-07
4.62484e-07
5.17294e-07
5.77279e-07
6.40322e-07
6.95077e-07
7.34954e-07
7.51734e-07
7.29503e-07
6.72951e-07
6.07614e-07
2.07242e-07
1.34668e-07
1.46816e-07
1.60797e-07
1.76382e-07
1.92606e-07
2.05338e-07
2.12649e-07
2.12416e-07
1.9563e-07
1.75487e-07
1.45684e-07
8.78249e-08
3.3722e-08
3.67397e-08
3.88834e-08
4.13494e-08
4.37496e-08
4.50727e-08
4.49373e-08
4.16995e-08
3.78547e-08
3.09419e-08
2.42149e-08
3.62537e-08
6.62674e-09
7.29051e-09
7.40335e-09
7.55607e-09
7.61548e-09
7.28637e-09
6.69764e-09
5.86111e-09
4.92159e-09
3.815e-09
2.69758e-09
1.53582e-08
1.10129e-09
1.2197e-09
1.16907e-09
1.16071e-09
1.06274e-09
9.68444e-10
8.17444e-10
6.87449e-10
5.28283e-10
4.10199e-10
2.96382e-10
6.76045e-09
1.80457e-10
1.90653e-10
1.77077e-10
1.73525e-10
1.50045e-10
1.39444e-10
1.15197e-10
1.05444e-10
8.59124e-11
8.15406e-11
6.99677e-11
3.12115e-09
3.66312e-11
3.32433e-11
3.42804e-11
3.38517e-11
3.13109e-11
3.11287e-11
2.87687e-11
2.905e-11