/*--------------------------------*- C++ -*----------------------------------*\
| =========                 |                                                 |
| \\      /  F ield         | OpenFOAM: The Open Source CFD Toolbox           |
|  \\    /   O peration     | Version:  2212                                  |
|   \\  /    A nd           | Website:  www.openfoam.com                      |
|    \\/     M anipulation  |                                                 |
\*---------------------------------------------------------------------------*/
FoamFile
{
    version     2.0;
    format      ascii;
    arch        "LSB;label=32;scalar=64";
    class       volScalarField;
    location    "0.05";
    object      tracer0;
}
// * * * * * * * * * * * * * * * * * * * * * * * * * * * * * * * * * * * * * //

dimensions      [0 0 0 0 0 0 0];

internalField   nonuniform List<scalar> 
3072
(
1.82355e-05
1.82189e-05
1.81722e-05
1.80833e-05
1.79933e-05
1.79324e-05
1.80913e-05
1.9838e-05
2.13278e-05
2.14479e-05
2.14753e-05
2.14955e-05
1.85705e-05
1.85123e-05
1.83199e-05
1.80946e-05
1.8219e-05
1.90213e-05
2.03882e-05
2.09829e-05
2.11923e-05
2.10484e-05
2.07117e-05
2.03434e-05
1.87158e-05
1.86293e-05
1.83124e-05
1.85182e-05
1.95104e-05
2.04054e-05
2.07108e-05
2.07924e-05
2.04553e-05
1.94313e-05
1.799e-05
1.67214e-05
1.88668e-05
1.89396e-05
1.89357e-05
1.95639e-05
2.02173e-05
2.04356e-05
2.04796e-05
1.9886e-05
1.81062e-05
1.57088e-05
1.40029e-05
1.25026e-05
1.89594e-05
1.93495e-05
1.95259e-05
2.0019e-05
2.02204e-05
2.02686e-05
1.97422e-05
1.78885e-05
1.53021e-05
1.30534e-05
1.14102e-05
9.98231e-06
1.90071e-05
1.9529e-05
1.97767e-05
2.005e-05
2.01295e-05
1.98699e-05
1.84946e-05
1.59279e-05
1.32656e-05
1.12402e-05
9.72476e-06
8.54888e-06
1.90301e-05
1.95898e-05
1.98532e-05
1.9983e-05
1.99062e-05
1.91716e-05
1.72588e-05
1.47916e-05
1.2526e-05
1.08066e-05
9.47853e-06
8.43537e-06
1.90955e-05
1.96263e-05
1.9809e-05
1.98754e-05
1.96489e-05
1.87423e-05
1.71348e-05
1.49102e-05
1.27793e-05
1.11268e-05
9.85014e-06
8.83206e-06
2.12138e-05
2.13845e-05
1.97771e-05
1.96472e-05
1.94418e-05
1.87832e-05
1.7415e-05
1.55434e-05
1.36719e-05
1.21318e-05
1.09499e-05
9.98019e-06
2.4641e-05
2.34791e-05
2.15703e-05
1.97062e-05
1.94711e-05
1.90289e-05
1.81122e-05
1.69476e-05
1.57018e-05
1.44116e-05
1.34587e-05
1.25466e-05
2.65523e-05
2.79505e-05
2.71812e-05
2.24907e-05
2.08046e-05
2.00912e-05
1.9537e-05
1.8806e-05
1.80267e-05
1.71769e-05
1.64428e-05
1.5865e-05
3.06013e-05
3.12809e-05
3.30802e-05
3.20681e-05
2.99697e-05
2.81164e-05
2.6686e-05
2.55582e-05
2.45543e-05
2.3813e-05
2.31072e-05
2.26643e-05
2.15181e-05
2.15432e-05
2.15711e-05
2.16171e-05
2.1662e-05
2.17374e-05
2.18309e-05
2.19357e-05
2.20337e-05
2.20969e-05
2.21263e-05
2.21198e-05
1.99422e-05
1.96469e-05
1.9481e-05
1.94993e-05
1.96756e-05
1.9996e-05
2.04567e-05
2.10185e-05
2.1596e-05
2.20134e-05
2.22158e-05
2.22957e-05
1.56077e-05
1.49732e-05
1.45804e-05
1.45908e-05
1.48648e-05
1.55593e-05
1.65876e-05
1.80189e-05
1.96902e-05
2.12792e-05
2.20621e-05
2.2357e-05
1.14352e-05
1.07524e-05
1.03946e-05
1.03748e-05
1.06576e-05
1.13248e-05
1.24467e-05
1.41743e-05
1.66468e-05
1.97506e-05
2.16919e-05
2.24046e-05
9.13968e-06
8.56253e-06
8.36129e-06
8.34972e-06
8.70083e-06
9.33824e-06
1.04167e-05
1.20841e-05
1.44308e-05
1.79351e-05
2.11979e-05
2.24579e-05
7.91871e-06
7.52208e-06
7.38788e-06
7.39366e-06
7.75059e-06
8.38856e-06
9.41346e-06
1.10634e-05
1.33725e-05
1.70086e-05
2.08333e-05
2.25117e-05
7.81244e-06
7.37695e-06
7.08562e-06
7.13466e-06
7.4445e-06
8.07712e-06
9.06902e-06
1.06974e-05
1.29701e-05
1.66066e-05
2.06167e-05
2.25679e-05
8.19087e-06
7.76664e-06
7.55884e-06
7.66313e-06
7.9346e-06
8.46122e-06
9.37187e-06
1.09203e-05
1.30052e-05
1.65847e-05
2.05671e-05
2.26242e-05
9.36361e-06
8.90515e-06
8.84652e-06
9.03923e-06
9.40683e-06
1.00435e-05
1.10614e-05
1.26824e-05
1.48557e-05
1.81156e-05
2.12765e-05
2.27451e-05
1.20516e-05
1.15822e-05
1.16012e-05
1.18722e-05
1.23014e-05
1.2979e-05
1.3977e-05
1.54499e-05
1.7367e-05
1.99423e-05
2.20019e-05
2.29071e-05
1.54231e-05
1.52955e-05
1.54881e-05
1.59406e-05
1.65639e-05
1.74235e-05
1.85617e-05
1.99094e-05
2.14753e-05
2.24475e-05
2.29784e-05
2.30874e-05
2.22771e-05
2.21497e-05
2.22683e-05
2.25107e-05
2.28005e-05
2.30715e-05
2.32728e-05
2.33824e-05
2.34201e-05
2.33418e-05
2.32866e-05
2.31541e-05
1.97678e-05
1.9754e-05
1.97046e-05
1.95992e-05
1.95091e-05
1.94238e-05
1.95309e-05
2.08391e-05
2.32353e-05
2.34595e-05
2.34955e-05
2.35178e-05
2.01349e-05
2.00561e-05
1.98338e-05
1.95739e-05
1.96104e-05
2.02784e-05
2.19646e-05
2.28105e-05
2.31374e-05
2.3071e-05
2.26484e-05
2.22219e-05
2.02952e-05
2.01566e-05
1.97637e-05
1.98663e-05
2.07242e-05
2.20959e-05
2.25997e-05
2.27356e-05
2.26625e-05
2.18906e-05
2.08462e-05
1.98659e-05
2.04564e-05
2.03834e-05
2.03151e-05
2.08663e-05
2.19393e-05
2.23688e-05
2.24733e-05
2.22055e-05
2.10728e-05
1.87932e-05
1.69181e-05
1.51186e-05
2.06237e-05
2.09161e-05
2.10335e-05
2.1731e-05
2.21561e-05
2.2271e-05
2.2044e-05
2.08622e-05
1.84399e-05
1.58942e-05
1.37955e-05
1.18578e-05
2.07106e-05
2.12035e-05
2.15062e-05
2.1951e-05
2.20951e-05
2.20235e-05
2.11825e-05
1.90546e-05
1.61591e-05
1.36365e-05
1.15731e-05
9.90245e-06
2.07731e-05
2.13989e-05
2.1703e-05
2.19154e-05
2.19555e-05
2.15463e-05
2.01206e-05
1.78149e-05
1.52681e-05
1.31049e-05
1.13039e-05
9.82911e-06
2.08382e-05
2.14399e-05
2.16979e-05
2.18205e-05
2.17268e-05
2.11363e-05
1.98883e-05
1.78958e-05
1.55418e-05
1.35055e-05
1.18073e-05
1.03925e-05
2.08367e-05
2.14219e-05
2.16276e-05
2.16602e-05
2.15474e-05
2.11018e-05
2.00837e-05
1.846e-05
1.65039e-05
1.47156e-05
1.32192e-05
1.19476e-05
2.08418e-05
2.13595e-05
2.14941e-05
2.15203e-05
2.14433e-05
2.12034e-05
2.06899e-05
1.98145e-05
1.86719e-05
1.73873e-05
1.62687e-05
1.52473e-05
2.07402e-05
2.11962e-05
2.12391e-05
2.12388e-05
2.12163e-05
2.11601e-05
2.10448e-05
2.07986e-05
2.04488e-05
1.99662e-05
1.94654e-05
1.89746e-05
2.0708e-05
2.08003e-05
2.08562e-05
2.08685e-05
2.08715e-05
2.08804e-05
2.08888e-05
2.0853e-05
2.07869e-05
2.0655e-05
2.05364e-05
2.03872e-05
2.35418e-05
2.3567e-05
2.35975e-05
2.36207e-05
2.3639e-05
2.36556e-05
2.36343e-05
2.34301e-05
2.34003e-05
2.33776e-05
2.34925e-05
2.37518e-05
2.17532e-05
2.14458e-05
2.12375e-05
2.1225e-05
2.13145e-05
2.14527e-05
2.15254e-05
2.15272e-05
2.15472e-05
2.15813e-05
2.16236e-05
2.16982e-05
1.88764e-05
1.83032e-05
1.79043e-05
1.7917e-05
1.82074e-05
1.89455e-05
1.96699e-05
2.02377e-05
2.06431e-05
2.08562e-05
2.09368e-05
2.09489e-05
1.36846e-05
1.26879e-05
1.211e-05
1.20396e-05
1.22813e-05
1.31919e-05
1.47115e-05
1.71367e-05
1.89869e-05
2.00072e-05
2.04372e-05
2.05642e-05
1.05836e-05
9.73396e-06
9.39076e-06
9.3414e-06
9.67761e-06
1.04487e-05
1.16932e-05
1.35644e-05
1.6242e-05
1.88104e-05
1.98275e-05
2.01414e-05
8.94304e-06
8.36544e-06
8.14892e-06
8.12731e-06
8.50868e-06
9.27036e-06
1.05045e-05
1.2317e-05
1.48525e-05
1.77091e-05
1.93354e-05
1.9895e-05
8.89696e-06
8.27542e-06
7.85324e-06
7.82291e-06
8.14008e-06
8.88435e-06
1.01032e-05
1.19018e-05
1.44526e-05
1.72689e-05
1.91592e-05
1.98277e-05
9.43992e-06
8.83446e-06
8.45342e-06
8.5494e-06
8.83777e-06
9.43176e-06
1.05012e-05
1.21388e-05
1.45449e-05
1.72667e-05
1.91831e-05
1.99059e-05
1.1027e-05
1.04183e-05
1.01671e-05
1.03629e-05
1.07437e-05
1.14218e-05
1.25081e-05
1.41469e-05
1.62872e-05
1.83245e-05
1.95331e-05
1.99313e-05
1.45207e-05
1.39459e-05
1.37692e-05
1.39651e-05
1.43543e-05
1.49371e-05
1.57458e-05
1.68788e-05
1.81306e-05
1.91191e-05
1.9763e-05
2.00367e-05
1.85631e-05
1.82638e-05
1.8095e-05
1.81585e-05
1.8361e-05
1.86289e-05
1.89518e-05
1.93161e-05
1.97301e-05
2e-05
2.01365e-05
2.00988e-05
2.02812e-05
2.01725e-05
2.01444e-05
2.01754e-05
2.0235e-05
2.03e-05
2.035e-05
2.03685e-05
2.0368e-05
2.03054e-05
2.02533e-05
2.01278e-05
5.08845e-05
5.10481e-05
5.16817e-05
5.26521e-05
5.37433e-05
5.42549e-05
5.17235e-05
3.15786e-05
1.68151e-05
1.58895e-05
1.58777e-05
1.59006e-05
4.72295e-05
4.82246e-05
5.06861e-05
5.30348e-05
5.15807e-05
4.32344e-05
2.6056e-05
1.84763e-05
1.57121e-05
1.53427e-05
1.50284e-05
1.45662e-05
4.5628e-05
4.74241e-05
5.11673e-05
4.8886e-05
3.89356e-05
2.41422e-05
1.79852e-05
1.55007e-05
1.44988e-05
1.34868e-05
1.19019e-05
1.07209e-05
4.3856e-05
4.45713e-05
4.48952e-05
3.75902e-05
2.53908e-05
1.78736e-05
1.49177e-05
1.35375e-05
1.19048e-05
1.00493e-05
8.49045e-06
7.37836e-06
4.18869e-05
3.88132e-05
3.67023e-05
2.79875e-05
1.87963e-05
1.49492e-05
1.32197e-05
1.17115e-05
9.64701e-06
7.83309e-06
6.47281e-06
5.47295e-06
4.08982e-05
3.61415e-05
3.07277e-05
2.11089e-05
1.58622e-05
1.35335e-05
1.20909e-05
1.01768e-05
8.00523e-06
6.40349e-06
5.21995e-06
4.40012e-06
3.61127e-05
3.08401e-05
2.50456e-05
1.77101e-05
1.44241e-05
1.26601e-05
1.11317e-05
9.26029e-06
7.40374e-06
6.0571e-06
5.03061e-06
4.29881e-06
3.24461e-05
2.68485e-05
2.17302e-05
1.59738e-05
1.36064e-05
1.2233e-05
1.10099e-05
9.34416e-06
7.60485e-06
6.30521e-06
5.30793e-06
4.5842e-06
3.13242e-05
2.48521e-05
1.90887e-05
1.49926e-05
1.33943e-05
1.22878e-05
1.12128e-05
9.82276e-06
8.31055e-06
7.09426e-06
6.14869e-06
5.43009e-06
2.92313e-05
2.21121e-05
1.81069e-05
1.5091e-05
1.36212e-05
1.26302e-05
1.17848e-05
1.08503e-05
9.8538e-06
8.84733e-06
8.08222e-06
7.36398e-06
2.89021e-05
2.26545e-05
1.92239e-05
1.65778e-05
1.50558e-05
1.39982e-05
1.32212e-05
1.25315e-05
1.18356e-05
1.11337e-05
1.05227e-05
1.00566e-05
2.83024e-05
2.66168e-05
2.48235e-05
2.32915e-05
2.1861e-05
2.06107e-05
1.93404e-05
1.83601e-05
1.73922e-05
1.67572e-05
1.60649e-05
1.57401e-05
1.59244e-05
1.59502e-05
1.5979e-05
1.60235e-05
1.60825e-05
1.61648e-05
1.62789e-05
1.64063e-05
1.65406e-05
1.66342e-05
1.66797e-05
1.66858e-05
1.41199e-05
1.37575e-05
1.35652e-05
1.35726e-05
1.37483e-05
1.40657e-05
1.45489e-05
1.5162e-05
1.58535e-05
1.6449e-05
1.67491e-05
1.68604e-05
9.70835e-06
9.17589e-06
8.85042e-06
8.84773e-06
9.06181e-06
9.63141e-06
1.05042e-05
1.18022e-05
1.34415e-05
1.53237e-05
1.64983e-05
1.69225e-05
6.49953e-06
6.0389e-06
5.75547e-06
5.74198e-06
5.96042e-06
6.46518e-06
7.31354e-06
8.61368e-06
1.05604e-05
1.32397e-05
1.59563e-05
1.69768e-05
4.78033e-06
4.40522e-06
4.23148e-06
4.22256e-06
4.48608e-06
4.96691e-06
5.78507e-06
7.04752e-06
8.95401e-06
1.15921e-05
1.52239e-05
1.70379e-05
3.8787e-06
3.6074e-06
3.50451e-06
3.50803e-06
3.77182e-06
4.24786e-06
5.03163e-06
6.21836e-06
8.12738e-06
1.08062e-05
1.46245e-05
1.71041e-05
3.80329e-06
3.49206e-06
3.27968e-06
3.31553e-06
3.54327e-06
4.01101e-06
4.77889e-06
5.93104e-06
7.81806e-06
1.04712e-05
1.4331e-05
1.71726e-05
4.08926e-06
3.77635e-06
3.62393e-06
3.70091e-06
3.90222e-06
4.29495e-06
5.01365e-06
6.08244e-06
7.87e-06
1.04555e-05
1.42572e-05
1.7241e-05
4.96593e-06
4.62139e-06
4.57627e-06
4.7205e-06
4.99726e-06
5.48014e-06
6.27376e-06
7.45395e-06
9.31723e-06
1.16724e-05
1.49385e-05
1.7401e-05
6.97773e-06
6.62132e-06
6.64028e-06
6.85377e-06
7.19099e-06
7.72321e-06
8.50939e-06
9.68361e-06
1.1314e-05
1.32739e-05
1.58647e-05
1.76668e-05
9.69529e-06
9.59667e-06
9.74934e-06
1.01123e-05
1.05876e-05
1.12632e-05
1.21841e-05
1.34477e-05
1.48513e-05
1.64165e-05
1.75568e-05
1.80514e-05
1.53475e-05
1.53472e-05
1.55556e-05
1.59373e-05
1.63787e-05
1.68519e-05
1.73103e-05
1.77015e-05
1.80246e-05
1.82057e-05
1.8307e-05
1.82211e-05
1.97202e-05
1.97057e-05
1.96631e-05
1.9567e-05
1.94785e-05
1.93962e-05
1.95045e-05
2.08108e-05
2.31993e-05
2.34216e-05
2.34569e-05
2.3481e-05
2.00792e-05
2.00239e-05
1.98322e-05
1.95729e-05
1.9597e-05
2.02591e-05
2.19562e-05
2.2745e-05
2.30675e-05
2.29425e-05
2.24406e-05
2.19187e-05
2.02351e-05
2.01505e-05
1.97945e-05
1.98907e-05
2.07908e-05
2.20104e-05
2.24318e-05
2.25439e-05
2.21867e-05
2.08283e-05
1.87167e-05
1.71728e-05
2.03861e-05
2.04167e-05
2.03719e-05
2.09002e-05
2.17902e-05
2.21074e-05
2.21725e-05
2.14916e-05
1.9322e-05
1.621e-05
1.42236e-05
1.24338e-05
2.05055e-05
2.08579e-05
2.09969e-05
2.1575e-05
2.18526e-05
2.19228e-05
2.13445e-05
1.91433e-05
1.59839e-05
1.32264e-05
1.1392e-05
9.6437e-06
2.05672e-05
2.10812e-05
2.13313e-05
2.16521e-05
2.17494e-05
2.14638e-05
1.9868e-05
1.68364e-05
1.35998e-05
1.1201e-05
9.48028e-06
8.00364e-06
2.06099e-05
2.118e-05
2.14384e-05
2.15802e-05
2.15028e-05
2.0646e-05
1.83999e-05
1.54452e-05
1.27387e-05
1.07381e-05
9.23568e-06
7.9408e-06
2.06581e-05
2.11903e-05
2.13856e-05
2.14278e-05
2.11457e-05
2.00539e-05
1.81609e-05
1.55645e-05
1.30306e-05
1.11052e-05
9.66661e-06
8.4226e-06
2.06533e-05
2.11407e-05
2.1258e-05
2.1232e-05
2.08917e-05
2.00808e-05
1.84664e-05
1.62865e-05
1.4077e-05
1.22677e-05
1.09273e-05
9.78616e-06
2.06477e-05
2.10384e-05
2.10978e-05
2.1064e-05
2.08602e-05
2.03937e-05
1.94206e-05
1.80728e-05
1.65477e-05
1.4993e-05
1.37707e-05
1.27119e-05
2.0583e-05
2.08664e-05
2.08751e-05
2.08443e-05
2.0777e-05
2.06337e-05
2.0414e-05
1.9935e-05
1.94234e-05
1.86774e-05
1.80614e-05
1.73827e-05
2.03238e-05
2.04135e-05
2.03666e-05
2.033e-05
2.03189e-05
2.03026e-05
2.02492e-05
2.01702e-05
2.00721e-05
1.99129e-05
1.97289e-05
1.95536e-05
2.35077e-05
2.35373e-05
2.35708e-05
2.362e-05
2.36904e-05
2.37913e-05
2.39323e-05
2.40943e-05
2.42559e-05
2.4371e-05
2.44262e-05
2.44361e-05
2.1287e-05
2.08216e-05
2.05058e-05
2.05023e-05
2.06951e-05
2.11064e-05
2.17097e-05
2.25237e-05
2.33992e-05
2.41383e-05
2.44931e-05
2.46281e-05
1.55897e-05
1.48801e-05
1.43052e-05
1.42741e-05
1.44968e-05
1.52446e-05
1.63409e-05
1.80857e-05
2.0283e-05
2.28183e-05
2.41748e-05
2.46961e-05
1.11455e-05
1.03871e-05
9.91728e-06
9.86818e-06
1.00912e-05
1.08318e-05
1.19692e-05
1.37276e-05
1.62431e-05
2.01221e-05
2.34899e-05
2.47579e-05
8.65245e-06
7.93484e-06
7.65591e-06
7.61766e-06
7.9275e-06
8.63837e-06
9.84291e-06
1.16246e-05
1.39752e-05
1.77974e-05
2.257e-05
2.48291e-05
7.27027e-06
6.74611e-06
6.55649e-06
6.5363e-06
6.86757e-06
7.53951e-06
8.66096e-06
1.05465e-05
1.28023e-05
1.66621e-05
2.17782e-05
2.49073e-05
7.2039e-06
6.66401e-06
6.29753e-06
6.26744e-06
6.54014e-06
7.18803e-06
8.25606e-06
1.0153e-05
1.23602e-05
1.61685e-05
2.13695e-05
2.49893e-05
7.64693e-06
7.135e-06
6.80756e-06
6.88916e-06
7.13854e-06
7.6625e-06
8.58523e-06
1.04083e-05
1.23778e-05
1.61225e-05
2.12478e-05
2.50704e-05
8.99645e-06
8.47554e-06
8.26482e-06
8.43932e-06
8.78725e-06
9.42692e-06
1.04743e-05
1.23918e-05
1.42103e-05
1.77369e-05
2.16623e-05
2.51594e-05
1.20383e-05
1.14717e-05
1.13912e-05
1.16426e-05
1.20959e-05
1.28044e-05
1.38148e-05
1.53972e-05
1.64916e-05
1.90031e-05
2.07808e-05
2.40244e-05
1.69562e-05
1.65491e-05
1.64507e-05
1.6611e-05
1.68948e-05
1.72118e-05
1.75353e-05
1.78861e-05
1.80629e-05
1.91221e-05
2.04335e-05
2.34997e-05
1.937e-05
1.9247e-05
1.91235e-05
1.90412e-05
1.89171e-05
1.88432e-05
1.87114e-05
1.86394e-05
1.84515e-05
1.91138e-05
2.00204e-05
2.27569e-05
2.23587e-05
2.32843e-05
2.5782e-05
2.61709e-05
2.65625e-05
2.67354e-05
2.6628e-05
2.64792e-05
2.63321e-05
2.61632e-05
2.5955e-05
2.57628e-05
1.91945e-05
1.96599e-05
2.1404e-05
2.16222e-05
2.18306e-05
2.20423e-05
2.23274e-05
2.26027e-05
2.28104e-05
2.29715e-05
2.30374e-05
2.29858e-05
1.41755e-05
1.57774e-05
1.60529e-05
1.63071e-05
1.65323e-05
1.67513e-05
1.69446e-05
1.71327e-05
1.72799e-05
1.74004e-05
1.74549e-05
1.74115e-05
1.09279e-05
1.11113e-05
1.126e-05
1.14472e-05
1.15916e-05
1.17789e-05
1.19166e-05
1.209e-05
1.21913e-05
1.23024e-05
1.22894e-05
1.21881e-05
2.56031e-05
2.54498e-05
2.52653e-05
2.50586e-05
2.48178e-05
2.45532e-05
2.4256e-05
2.39467e-05
2.36208e-05
2.33339e-05
2.30959e-05
2.30432e-05
2.28545e-05
2.26515e-05
2.23766e-05
2.20329e-05
2.16284e-05
2.11953e-05
2.07366e-05
2.02693e-05
1.98314e-05
1.95359e-05
1.92931e-05
1.98946e-05
1.72877e-05
1.70795e-05
1.6792e-05
1.64383e-05
1.60391e-05
1.56198e-05
1.51768e-05
1.47707e-05
1.44656e-05
1.43362e-05
1.41774e-05
1.45748e-05
1.19817e-05
1.16887e-05
1.13556e-05
1.10239e-05
1.07366e-05
1.05006e-05
1.0345e-05
1.02563e-05
1.02074e-05
1.0235e-05
1.02064e-05
1.04084e-05
2.29127e-05
2.26556e-05
2.25177e-05
2.2373e-05
2.22343e-05
2.20719e-05
2.19314e-05
2.17801e-05
2.16706e-05
2.15729e-05
2.14841e-05
2.1399e-05
2.04705e-05
2.07432e-05
2.08965e-05
2.09692e-05
2.10105e-05
2.10216e-05
2.10111e-05
2.09861e-05
2.09493e-05
2.09003e-05
2.08382e-05
2.07562e-05
1.50283e-05
1.54427e-05
1.58014e-05
1.60937e-05
1.63353e-05
1.65383e-05
1.67085e-05
1.6843e-05
1.69415e-05
1.69904e-05
1.69588e-05
1.68739e-05
1.06454e-05
1.09053e-05
1.11231e-05
1.13508e-05
1.1521e-05
1.16979e-05
1.18094e-05
1.19178e-05
1.19408e-05
1.18872e-05
1.17477e-05
1.15317e-05
2.13234e-05
2.12524e-05
2.11772e-05
2.10897e-05
2.09938e-05
2.08795e-05
2.07526e-05
2.06047e-05
2.04461e-05
2.02854e-05
2.01477e-05
2.00766e-05
2.0646e-05
2.05066e-05
2.03339e-05
2.01241e-05
1.98765e-05
1.96035e-05
1.93011e-05
1.89778e-05
1.86561e-05
1.84012e-05
1.81946e-05
1.8514e-05
1.67413e-05
1.65563e-05
1.63154e-05
1.60193e-05
1.56772e-05
1.52819e-05
1.4824e-05
1.43753e-05
1.40031e-05
1.38009e-05
1.36124e-05
1.39376e-05
1.12552e-05
1.09316e-05
1.05879e-05
1.02605e-05
9.98506e-06
9.77528e-06
9.66255e-06
9.61676e-06
9.59498e-06
9.62903e-06
9.59034e-06
9.73008e-06
2.02842e-05
2.09787e-05
2.11443e-05
2.13555e-05
2.13444e-05
2.12577e-05
2.11471e-05
2.09555e-05
2.07154e-05
2.04751e-05
2.02467e-05
2.00381e-05
1.86307e-05
1.8817e-05
1.89585e-05
1.90793e-05
1.91856e-05
1.93285e-05
1.94459e-05
1.95294e-05
1.9571e-05
1.9555e-05
1.95091e-05
1.94379e-05
1.42901e-05
1.45601e-05
1.47768e-05
1.4993e-05
1.51612e-05
1.53435e-05
1.54837e-05
1.56492e-05
1.57546e-05
1.5867e-05
1.58843e-05
1.58266e-05
9.87548e-06
1.00567e-05
1.01973e-05
1.03751e-05
1.05092e-05
1.06838e-05
1.08098e-05
1.09691e-05
1.1061e-05
1.11619e-05
1.11498e-05
1.10581e-05
1.98907e-05
1.97648e-05
1.9654e-05
1.95223e-05
1.94075e-05
1.92641e-05
1.91375e-05
1.89746e-05
1.88372e-05
1.86714e-05
1.85723e-05
1.8438e-05
1.93297e-05
1.91848e-05
1.90019e-05
1.87852e-05
1.85429e-05
1.82725e-05
1.79771e-05
1.76708e-05
1.73774e-05
1.71512e-05
1.69846e-05
1.72746e-05
1.57061e-05
1.55196e-05
1.52703e-05
1.49677e-05
1.46271e-05
1.42621e-05
1.38727e-05
1.35138e-05
1.32417e-05
1.31231e-05
1.29536e-05
1.33469e-05
1.08722e-05
1.06095e-05
1.03115e-05
1.00139e-05
9.7551e-06
9.5475e-06
9.41278e-06
9.33665e-06
9.29449e-06
9.31987e-06
9.29256e-06
9.47673e-06
1.84971e-05
1.8652e-05
1.86863e-05
1.87202e-05
1.87428e-05
1.88012e-05
1.88549e-05
1.89382e-05
1.89952e-05
1.90417e-05
1.90351e-05
1.90015e-05
1.73938e-05
1.74905e-05
1.75476e-05
1.75867e-05
1.76069e-05
1.76275e-05
1.76423e-05
1.76588e-05
1.76683e-05
1.76573e-05
1.76273e-05
1.75759e-05
1.37648e-05
1.40677e-05
1.43165e-05
1.4498e-05
1.46493e-05
1.47571e-05
1.48515e-05
1.49074e-05
1.49515e-05
1.49424e-05
1.49002e-05
1.48225e-05
9.69181e-06
9.92735e-06
1.0118e-05
1.03185e-05
1.04619e-05
1.06146e-05
1.07036e-05
1.07957e-05
1.0807e-05
1.07581e-05
1.06427e-05
1.0469e-05
1.89462e-05
1.88718e-05
1.87844e-05
1.86831e-05
1.85645e-05
1.84238e-05
1.82619e-05
1.80768e-05
1.78078e-05
1.82196e-05
1.89533e-05
2.00452e-05
1.74987e-05
1.73935e-05
1.72572e-05
1.70874e-05
1.68839e-05
1.66509e-05
1.63976e-05
1.61295e-05
1.58563e-05
1.60295e-05
1.69239e-05
1.74822e-05
1.47086e-05
1.45553e-05
1.43604e-05
1.41255e-05
1.38512e-05
1.34918e-05
1.31162e-05
1.2753e-05
1.24369e-05
1.22023e-05
1.24216e-05
1.37635e-05
1.02542e-05
1.00196e-05
9.78927e-06
9.58019e-06
9.40725e-06
9.33859e-06
9.32148e-06
9.35917e-06
9.37826e-06
9.42736e-06
9.38318e-06
9.73401e-06
1.05524e-05
1.04858e-05
1.02632e-05
9.95887e-06
9.49026e-06
8.9147e-06
8.17822e-06
7.38908e-06
6.55448e-06
5.84364e-06
5.31072e-06
5.14046e-06
9.58807e-06
9.14092e-06
8.59777e-06
7.92466e-06
7.10919e-06
6.21482e-06
5.27142e-06
4.41084e-06
3.6833e-06
3.2059e-06
2.97087e-06
3.01167e-06
8.35185e-06
7.79498e-06
7.06615e-06
6.24727e-06
5.33626e-06
4.41345e-06
3.53626e-06
2.8096e-06
2.25988e-06
1.93691e-06
1.84355e-06
1.92125e-06
7.24249e-06
6.63583e-06
5.8297e-06
4.99513e-06
4.10467e-06
3.2522e-06
2.48595e-06
1.8754e-06
1.41932e-06
1.13132e-06
1.03888e-06
1.10001e-06
5.15672e-06
5.40048e-06
5.87856e-06
6.46882e-06
7.13869e-06
7.87152e-06
8.42767e-06
8.81773e-06
9.07136e-06
9.22088e-06
9.22471e-06
9.04932e-06
3.28773e-06
3.81034e-06
4.33328e-06
4.98521e-06
5.57025e-06
6.05322e-06
6.4389e-06
6.72735e-06
6.91051e-06
6.88613e-06
6.3966e-06
5.71782e-06
2.28751e-06
2.76991e-06
3.17386e-06
3.60866e-06
3.9416e-06
4.2028e-06
4.40278e-06
4.49698e-06
4.39185e-06
4.00105e-06
3.42967e-06
2.75433e-06
1.64962e-06
2.1591e-06
2.46926e-06
2.68786e-06
2.83708e-06
2.93985e-06
2.95132e-06
2.77334e-06
2.4882e-06
2.05849e-06
1.58392e-06
1.11508e-06
8.53315e-06
7.91881e-06
7.27319e-06
6.56084e-06
5.86236e-06
5.13444e-06
4.43358e-06
3.77094e-06
3.2024e-06
2.83028e-06
2.68371e-06
2.64827e-06
4.67027e-06
4.02071e-06
3.14988e-06
2.59012e-06
1.94085e-06
1.5251e-06
1.08553e-06
8.44678e-07
6.42357e-07
6.12834e-07
5.74078e-07
6.27727e-07
2.00499e-06
1.55773e-06
1.01911e-06
7.87288e-07
4.52243e-07
3.58073e-07
1.8997e-07
1.70109e-07
1.11218e-07
1.14386e-07
1.11819e-07
1.49098e-07
7.13089e-07
4.90005e-07
2.58283e-07
1.95407e-07
8.73494e-08
6.85575e-08
3.39397e-08
3.08084e-08
1.81783e-08
1.88801e-08
1.8917e-08
3.09363e-08
2.72454e-06
3.04209e-06
3.69192e-06
4.66676e-06
5.9663e-06
7.31682e-06
8.19862e-06
8.76742e-06
9.11821e-06
9.32283e-06
9.43803e-06
9.50724e-06
7.75236e-07
9.9812e-07
1.49102e-06
2.41591e-06
3.91709e-06
5.57088e-06
7.04044e-06
7.91803e-06
8.45585e-06
8.75898e-06
8.90328e-06
8.92528e-06
2.22508e-07
3.26476e-07
5.7825e-07
1.09868e-06
2.08019e-06
3.69047e-06
5.53254e-06
6.81017e-06
7.53226e-06
7.91951e-06
8.08621e-06
8.01974e-06
6.85595e-08
1.13479e-07
2.40933e-07
5.43317e-07
1.21258e-06
2.42493e-06
4.128e-06
5.69014e-06
6.55707e-06
7.0193e-06
7.21102e-06
7.08506e-06
9.53412e-06
9.48245e-06
9.28651e-06
9.02175e-06
8.60494e-06
8.09576e-06
7.43913e-06
6.73821e-06
5.99501e-06
5.36577e-06
4.89635e-06
4.75499e-06
8.64339e-06
8.25518e-06
7.77194e-06
7.177e-06
6.44959e-06
5.65452e-06
4.81145e-06
4.04458e-06
3.3949e-06
2.9731e-06
2.7712e-06
2.82393e-06
7.51391e-06
7.02281e-06
6.37465e-06
5.64798e-06
4.83377e-06
4.00993e-06
3.22142e-06
2.56799e-06
2.07064e-06
1.78041e-06
1.70343e-06
1.78397e-06
6.48642e-06
5.95624e-06
5.23731e-06
4.4963e-06
3.69861e-06
2.93478e-06
2.24255e-06
1.68999e-06
1.27518e-06
1.01578e-06
9.37169e-07
9.98761e-07
4.77692e-06
5.02002e-06
5.45937e-06
5.99503e-06
6.59473e-06
7.24973e-06
7.74377e-06
8.09021e-06
8.31484e-06
8.45235e-06
8.46457e-06
8.33879e-06
3.09496e-06
3.59008e-06
4.07432e-06
4.68217e-06
5.21512e-06
5.66122e-06
6.01315e-06
6.27461e-06
6.44627e-06
6.44384e-06
6.01478e-06
5.42522e-06
2.14419e-06
2.62556e-06
3.00399e-06
3.42119e-06
3.73684e-06
3.98345e-06
4.17076e-06
4.26405e-06
4.18242e-06
3.8294e-06
3.31589e-06
2.69736e-06
1.5172e-06
2.04336e-06
2.35179e-06
2.56671e-06
2.71262e-06
2.81412e-06
2.83124e-06
2.67805e-06
2.41505e-06
2.0198e-06
1.57611e-06
1.13223e-06
7.91349e-06
7.37939e-06
6.83883e-06
6.22233e-06
5.63637e-06
5.01469e-06
4.43243e-06
3.88174e-06
3.42835e-06
3.15195e-06
3.08553e-06
3.12848e-06
4.47261e-06
3.91242e-06
3.12051e-06
2.62488e-06
2.03246e-06
1.65711e-06
1.25389e-06
1.03525e-06
8.5495e-07
8.53123e-07
8.71332e-07
1.03551e-06
2.00488e-06
1.58994e-06
1.07835e-06
8.55949e-07
5.28999e-07
4.31417e-07
2.57338e-07
2.40498e-07
1.801e-07
1.91017e-07
2.22189e-07
3.30334e-07
7.46051e-07
5.2502e-07
2.95254e-07
2.25842e-07
1.11287e-07
9.12892e-08
5.08179e-08
4.81801e-08
3.29271e-08
3.57287e-08
4.54209e-08
8.68441e-08
3.32894e-06
3.84808e-06
4.61431e-06
5.93594e-06
7.25712e-06
8.38543e-06
9.08845e-06
9.48912e-06
9.71564e-06
9.90584e-06
1.00459e-05
1.03376e-05
1.26751e-06
1.60061e-06
2.2025e-06
3.15788e-06
4.66706e-06
6.4419e-06
7.94613e-06
8.8334e-06
9.35688e-06
9.6537e-06
9.81113e-06
9.89391e-06
5.16251e-07
7.18925e-07
1.13521e-06
1.80706e-06
2.87039e-06
4.48737e-06
6.38395e-06
7.72272e-06
8.47073e-06
8.87234e-06
9.04818e-06
8.92728e-06
2.28072e-07
3.52507e-07
6.47015e-07
1.16162e-06
1.97372e-06
3.19371e-06
4.89561e-06
6.5326e-06
7.43113e-06
7.90356e-06
8.09544e-06
7.90465e-06
6.26429e-06
5.65257e-06
4.8429e-06
4.05252e-06
3.22876e-06
2.47087e-06
1.80889e-06
1.28732e-06
8.90902e-07
6.13721e-07
4.26911e-07
2.9619e-07
5.38177e-06
4.7986e-06
4.02888e-06
3.30978e-06
2.57036e-06
1.90945e-06
1.34185e-06
8.98682e-07
5.6407e-07
3.29811e-07
1.71229e-07
7.6784e-08
4.56197e-06
4.03257e-06
3.32743e-06
2.69267e-06
2.04418e-06
1.47747e-06
9.97197e-07
6.28018e-07
3.5789e-07
1.79111e-07
7.3044e-08
2.48463e-08
3.78563e-06
3.32651e-06
2.70062e-06
2.15678e-06
1.60157e-06
1.12599e-06
7.28651e-07
4.30656e-07
2.233e-07
9.74412e-08
3.33547e-08
1.00138e-08
3.04973e-06
2.66484e-06
2.12912e-06
1.67906e-06
1.21817e-06
8.31468e-07
5.14277e-07
2.84458e-07
1.34474e-07
5.20644e-08
1.58431e-08
4.55936e-09
2.35815e-06
2.04641e-06
1.60919e-06
1.25272e-06
8.86464e-07
5.86131e-07
3.45686e-07
1.7881e-07
7.74808e-08
2.71663e-08
7.64521e-09
2.18443e-09
1.72795e-06
1.48588e-06
1.15058e-06
8.83468e-07
6.09406e-07
3.9012e-07
2.19592e-07
1.06652e-07
4.28582e-08
1.39219e-08
3.71608e-09
1.06533e-09
1.18898e-06
1.00888e-06
7.70083e-07
5.82791e-07
3.92608e-07
2.44013e-07
1.31916e-07
6.08175e-08
2.30705e-08
7.09885e-09
1.8217e-09
5.19775e-10
7.67024e-07
6.38012e-07
4.79984e-07
3.57994e-07
2.36763e-07
1.4387e-07
7.55977e-08
3.3675e-08
1.23196e-08
3.65552e-09
9.04651e-10
2.51694e-10
4.66713e-07
3.78774e-07
2.79728e-07
2.05867e-07
1.34891e-07
8.1082e-08
4.21442e-08
1.8561e-08
6.68987e-09
1.93455e-09
4.57623e-10
1.20484e-10
2.76859e-07
2.19798e-07
1.58045e-07
1.15083e-07
7.57401e-08
4.57946e-08
2.40887e-08
1.0756e-08
3.9063e-09
1.10776e-09
2.44824e-10
5.89219e-11
1.85402e-07
1.45527e-07
1.01713e-07
7.35926e-08
4.92239e-08
3.03424e-08
1.64269e-08
7.53242e-09
2.78656e-09
7.74371e-10
1.56353e-10
3.46728e-11
1.20009e-06
1.72154e-06
1.95753e-06
2.07313e-06
2.13409e-06
2.09843e-06
1.92062e-06
1.66367e-06
1.34441e-06
9.91557e-07
6.67368e-07
4.04707e-07
1.00984e-06
1.43269e-06
1.60794e-06
1.6738e-06
1.66403e-06
1.5087e-06
1.28174e-06
1.01341e-06
7.32894e-07
4.77486e-07
2.78198e-07
1.46436e-07
8.59734e-07
1.22005e-06
1.35849e-06
1.39696e-06
1.32734e-06
1.13082e-06
9.01336e-07
6.55591e-07
4.3013e-07
2.52427e-07
1.31896e-07
6.59798e-08
7.30658e-07
1.04531e-06
1.16551e-06
1.19162e-06
1.09692e-06
8.96665e-07
6.84542e-07
4.72182e-07
2.93946e-07
1.67654e-07
9.01576e-08
5.2493e-08
6.12475e-07
8.88147e-07
1.00428e-06
1.03095e-06
9.41151e-07
7.5731e-07
5.70833e-07
3.92573e-07
2.51229e-07
1.56696e-07
9.63666e-08
6.58407e-08
5.00704e-07
7.35972e-07
8.55673e-07
8.93775e-07
8.30703e-07
6.77397e-07
5.2034e-07
3.74892e-07
2.58197e-07
1.74958e-07
1.2442e-07
9.66775e-08
3.94622e-07
5.8046e-07
7.02129e-07
7.592e-07
7.29457e-07
6.28651e-07
5.01356e-07
3.81733e-07
2.83494e-07
2.13363e-07
1.6499e-07
1.32146e-07
2.95507e-07
4.23703e-07
5.36078e-07
6.0783e-07
6.09039e-07
5.61226e-07
4.76039e-07
3.82568e-07
3.03653e-07
2.41318e-07
1.93108e-07
1.55087e-07
2.0595e-07
2.75839e-07
3.65425e-07
4.36737e-07
4.62687e-07
4.43879e-07
4.0861e-07
3.53784e-07
2.91551e-07
2.37445e-07
1.92425e-07
1.54277e-07
1.2904e-07
1.56342e-07
2.14138e-07
2.68417e-07
3.03801e-07
3.03176e-07
2.87073e-07
2.64477e-07
2.34592e-07
1.96363e-07
1.6098e-07
1.29911e-07
7.11625e-08
7.69145e-08
1.06064e-07
1.37946e-07
1.65574e-07
1.76177e-07
1.72863e-07
1.6326e-07
1.50152e-07
1.34868e-07
1.17039e-07
9.70683e-08
3.88505e-08
3.93079e-08
5.09913e-08
6.85471e-08
8.6749e-08
9.98593e-08
1.0506e-07
1.03559e-07
9.90464e-08
9.34051e-08
8.59411e-08
7.5343e-08
2.2471e-07
1.34388e-07
6.12524e-08
4.26821e-08
1.80064e-08
1.39959e-08
6.54024e-09
5.5156e-09
2.93938e-09
2.86351e-09
2.68005e-09
3.74631e-09
7.21515e-08
3.9616e-08
1.90233e-08
1.36099e-08
6.87414e-09
4.85458e-09
2.36868e-09
1.49792e-09
6.92555e-10
4.85006e-10
3.56632e-10
4.00243e-10
3.46419e-08
2.19113e-08
1.47253e-08
1.11876e-08
7.03899e-09
4.49673e-09
2.34465e-09
1.15765e-09
4.71956e-10
1.97747e-10
7.5409e-11
4.71559e-11
3.52408e-08
2.7809e-08
2.25779e-08
1.76575e-08
1.2351e-08
7.66215e-09
4.09373e-09
1.84872e-09
6.86844e-10
2.03658e-10
5.07172e-11
1.36706e-11
5.26321e-08
4.44706e-08
3.67806e-08
2.83748e-08
1.97418e-08
1.21188e-08
6.43142e-09
2.8864e-09
1.06741e-09
3.14468e-10
6.6881e-11
1.21097e-11
7.97758e-08
6.64553e-08
5.34093e-08
4.00297e-08
2.72825e-08
1.65391e-08
8.72669e-09
3.91265e-09
1.44734e-09
4.25784e-10
9.25075e-11
1.6109e-11
1.07958e-07
8.67689e-08
6.68537e-08
4.83935e-08
3.22427e-08
1.93418e-08
1.02059e-08
4.61736e-09
1.73631e-09
5.22998e-10
1.16518e-10
2.06177e-11
1.23419e-07
9.62025e-08
7.23095e-08
5.14688e-08
3.39836e-08
2.03497e-08
1.07878e-08
4.93174e-09
1.88852e-09
5.85825e-10
1.37137e-10
2.49754e-11
1.21701e-07
9.36866e-08
6.95671e-08
4.9082e-08
3.23003e-08
1.94183e-08
1.04271e-08
4.88013e-09
1.9321e-09
6.18932e-10
1.52967e-10
2.95121e-11
1.02825e-07
7.9313e-08
5.90013e-08
4.17472e-08
2.76261e-08
1.67808e-08
9.17242e-09
4.41274e-09
1.82426e-09
6.20603e-10
1.64955e-10
3.44207e-11
7.85807e-08
6.17266e-08
4.65796e-08
3.33481e-08
2.23311e-08
1.37722e-08
7.69966e-09
3.82902e-09
1.66339e-09
6.09693e-10
1.77048e-10
4.08063e-11
6.29977e-08
5.05287e-08
3.86266e-08
2.79085e-08
1.88739e-08
1.18146e-08
6.76602e-09
3.49238e-09
1.60177e-09
6.35749e-10
2.05268e-10
4.94806e-11
2.45344e-08
4.32307e-08
1.08933e-07
2.84644e-07
7.17176e-07
1.58739e-06
2.98598e-06
4.58932e-06
5.57579e-06
6.10152e-06
6.32162e-06
6.19214e-06
1.14393e-08
1.81899e-08
5.27352e-08
1.58364e-07
4.33958e-07
1.04256e-06
2.12701e-06
3.5523e-06
4.61957e-06
5.18619e-06
5.43325e-06
5.34438e-06
5.85632e-09
8.32989e-09
2.6647e-08
8.84858e-08
2.62085e-07
6.75841e-07
1.47983e-06
2.66121e-06
3.71455e-06
4.28879e-06
4.55382e-06
4.52929e-06
3.03734e-09
4.00048e-09
1.38764e-08
4.98017e-08
1.58243e-07
4.33162e-07
1.0046e-06
1.92292e-06
2.88371e-06
3.43029e-06
3.69917e-06
3.72379e-06
1.53422e-09
1.94942e-09
7.17203e-09
2.78229e-08
9.45882e-08
2.73538e-07
6.65527e-07
1.33832e-06
2.14571e-06
2.6313e-06
2.88563e-06
2.93948e-06
7.37425e-10
9.3666e-10
3.65077e-09
1.53679e-08
5.59643e-08
1.70293e-07
4.31024e-07
8.99633e-07
1.51642e-06
1.91844e-06
2.13967e-06
2.2059e-06
3.32105e-10
4.36597e-10
1.81278e-09
8.35419e-09
3.27404e-08
1.04528e-07
2.7269e-07
5.84053e-07
1.01511e-06
1.31823e-06
1.49305e-06
1.55603e-06
1.3893e-10
1.96494e-10
8.69421e-10
4.45949e-09
1.90084e-08
6.3672e-08
1.69372e-07
3.65881e-07
6.43844e-07
8.46907e-07
9.70782e-07