/*--------------------------------*- C++ -*----------------------------------*\
| =========                 |                                                 |
| \\      /  F ield         | OpenFOAM: The Open Source CFD Toolbox           |
|  \\    /   O peration     | Version:  2212                                  |
|   \\  /    A nd           | Website:  www.openfoam.com                      |
|    \\/     M anipulation  |                                                 |
\*---------------------------------------------------------------------------*/
FoamFile
{
    version     2.0;
    format      ascii;
    arch        "LSB;label=32;scalar=64";
    class       volVectorField;
    location    "0.05";
    object      U;
}
// * * * * * * * * * * * * * * * * * * * * * * * * * * * * * * * * * * * * * //

dimensions      [0 1 -1 0 0 0 0];

internalField   nonuniform List<vector> 
3072
(
(0.350246 21.7238 0)
(0.950244 18.6827 0)
(2.65488 17.1408 4.52757e-19)
(4.06001 16.1421 -7.59977e-15)
(5.39777 15.4679 1.21876e-14)
(6.24486 15.4562 -5.6952e-15)
(7.74458 17.4 -2.70655e-15)
(14.7651 16.9245 -1.39292e-14)
(27.5751 15.7 2.2699e-14)
(32.7575 21.5213 -8.48112e-15)
(35.1093 23.5938 5.59285e-15)
(38.7255 25.4297 2.65486e-15)
(-5.71099 25.6494 -3.32048e-16)
(-3.18785 22.1394 -2.54447e-15)
(0.741278 22.5792 1.30147e-15)
(3.76752 22.2808 0)
(7.23892 24.1705 5.2967e-15)
(13.9941 24.9712 -7.84883e-15)
(23.2119 27.4071 0)
(29.5559 29.0563 0)
(32.1665 28.964 0)
(32.9086 29.902 7.6258e-18)
(33.3675 30.0686 -1.17189e-14)
(34.7896 30.2271 5.20781e-18)
(-5.46439 29.1695 3.0659e-16)
(-1.58108 26.1793 0)
(4.2563 27.4732 0)
(10.3387 27.6852 -6.87918e-15)
(18.1162 29.5432 4.60884e-15)
(25.5074 30.7996 -6.82187e-15)
(30.322 31.1823 8.63506e-15)
(32.9259 30.6491 0)
(34.1335 29.5142 0)
(34.4462 28.8533 -2.98081e-15)
(34.9174 28.1806 -2.84264e-15)
(35.6107 27.5216 8.32301e-15)
(-5.32936 32.7672 -1.12362e-15)
(0.306041 31.465 -2.08784e-15)
(7.85808 33.3287 2.05777e-15)
(15.5042 33.632 -2.07245e-15)
(22.781 34.1715 8.15119e-15)
(27.8337 33.5362 -7.74532e-15)
(30.611 32.4985 -3.37408e-15)
(32.2952 31.0323 -8.93777e-15)
(33.0597 29.7233 -2.21625e-18)
(33.3573 28.7013 5.24683e-15)
(33.7144 27.763 4.96969e-15)
(34.0866 26.8528 -4.81492e-15)
(-1.52166 34.8678 0)
(3.655 35.3864 9.45186e-16)
(11.1554 36.8605 -1.85635e-15)
(18.4051 36.7281 3.68754e-15)
(24.3309 36.0344 4.1361e-18)
(27.7771 34.5017 3.19358e-15)
(29.8501 32.7869 2.87711e-15)
(30.8554 31.0975 2.77107e-15)
(31.3562 29.54 -5.18365e-15)
(31.6743 28.2267 4.83417e-15)
(32.0236 27.0567 -6.83802e-15)
(32.4045 25.9784 8.69216e-15)
(0.499816 37.2038 -9.51228e-16)
(6.1435 38.1511 8.61198e-16)
(13.1248 39.0709 3.33256e-15)
(19.4218 38.3875 0)
(24.1011 36.8787 -6.20156e-15)
(26.7958 34.865 5.60553e-15)
(28.2964 32.8692 0)
(29.1575 30.9327 -4.97193e-15)
(29.6862 29.2065 4.64631e-15)
(30.0712 27.7108 0)
(30.4456 26.3855 2.41701e-18)
(30.8344 25.1902 3.99312e-15)
(3.50047 39.1205 0)
(8.32382 40.7489 -1.58587e-15)
(14.3383 40.8483 1.51716e-15)
(19.4446 39.7064 0)
(23.0891 37.6168 -2.75259e-15)
(25.2446 35.2622 4.17918e-18)
(26.5704 32.9726 4.80719e-15)
(27.4103 30.8532 4.51611e-15)
(27.996 28.9622 -4.26325e-15)
(28.4574 27.2974 4.05549e-15)
(28.8821 25.8212 -3.87927e-15)
(29.2997 24.5004 -1.12141e-14)
(5.24248 41.4826 0)
(9.67592 43.2718 1.45675e-15)
(14.6614 42.5793 -2.74105e-15)
(18.686 41.0069 2.60695e-15)
(21.6171 38.4656 0)
(23.5247 35.8014 -4.6163e-15)
(24.7982 33.2481 4.36711e-15)
(25.6858 30.9145 9.10263e-19)
(26.3486 28.8284 -7.91178e-15)
(26.8817 26.9813 -3.79621e-15)
(27.3506 25.3432 -2.30314e-18)
(27.7882 23.8843 7.10381e-15)
(7.57393 43.0466 0)
(10.72 45.6424 -1.34022e-15)
(14.3526 44.0774 -2.47058e-15)
(17.428 42.1717 -2.31716e-15)
(19.8557 39.3148 4.38929e-15)
(21.6506 36.3859 0)
(22.9591 33.5831 0)
(23.9328 31.0222 0)
(24.6805 28.7277 0)
(25.2769 26.6902 3.59632e-15)
(25.7783 24.8834 -3.5002e-15)
(26.2217 23.2791 3.4157e-15)
(8.16969 46.1911 0)
(10.6903 47.7812 1.1785e-15)
(13.1793 45.1428 -3.36894e-18)
(15.6595 42.7045 2.09447e-15)
(17.7751 39.5858 2.00762e-15)
(19.5198 36.47 -3.85554e-15)
(20.8974 33.5114 0)
(21.9741 30.8011 -1.69927e-18)
(22.8145 28.3622 -1.06047e-14)
(23.4766 26.1873 0)
(24.0115 24.2541 6.76257e-15)
(24.4596 22.5371 -3.31378e-15)
(10.9415 46.8171 0)
(9.88486 47.4516 1.09094e-15)
(11.1148 44.0203 4.04978e-15)
(13.1589 41.1681 -3.89004e-15)
(15.1177 38.0917 -5.62971e-15)
(16.8938 35.0911 9.08147e-15)
(18.3867 32.2615 -1.50509e-18)
(19.596 29.6451 -3.46252e-15)
(20.5525 27.2604 3.38623e-15)
(21.3009 25.1079 -6.65856e-15)
(21.8883 23.1748 -9.81254e-15)
(22.3584 21.4442 9.66048e-15)
(4.77835 43.2861 -5.72812e-16)
(6.67475 41.9766 -4.13762e-15)
(7.80583 38.3796 9.51047e-16)
(9.80786 35.9402 0)
(11.8725 33.6642 0)
(13.7864 31.4084 2.84269e-18)
(15.4245 29.195 1.00872e-14)
(16.772 27.0554 6.59721e-15)
(17.8472 25.0274 0)
(18.6891 23.1373 6.39752e-15)
(19.3412 21.3961 0)
(19.8493 19.8049 3.77026e-18)
(41.3288 25.0069 -1.86523e-14)
(43.7472 24.6371 8.05465e-15)
(45.0501 23.1416 -8.13936e-15)
(45.9016 21.7269 -2.73274e-15)
(45.7233 19.7892 -2.70192e-15)
(45.0868 17.8702 0)
(43.394 15.766 0)
(41.0426 13.7523 5.35172e-15)
(37.6739 11.7956 -5.39957e-15)
(33.4069 9.69785 0)
(27.7871 6.35396 0)
(25.3103 -0.101079 -3.7048e-16)
(35.7841 30.0923 6.96524e-15)
(37.0391 29.5522 0)
(38.1785 28.552 -9.75783e-18)
(39.2587 27.1803 3.37847e-15)
(40.0577 25.4985 1.69543e-15)
(40.3928 23.7692 6.91024e-15)
(40.1539 22.0919 -1.06898e-14)
(39.3322 20.6166 1.87187e-15)
(37.9471 19.4792 0)
(35.2635 18.5664 0)
(31.8655 17.4508 0)
(31.872 14.2484 -4.03482e-23)
(36.225 26.8041 2.72156e-15)
(36.9214 25.9925 -7.945e-15)
(37.5861 25.0643 2.6179e-15)
(38.1322 24.0783 5.24743e-15)
(38.4476 23.092 -5.30707e-15)
(38.4654 22.1845 0)
(38.1464 21.4423 0)
(37.4875 20.9654 -1.59799e-18)
(36.5233 20.8888 1.60179e-15)
(34.849 21.102 0)
(32.2693 21.1646 0)
(33.5781 21.0266 0)
(34.4683 25.9929 3.17077e-18)
(34.952 25.1448 6.8198e-15)
(35.4343 24.2779 4.4641e-15)
(35.8546 23.425 -4.4345e-15)
(36.1495 22.6437 0)
(36.2767 22.01 2.25406e-15)
(36.2101 21.6136 0)
(35.9492 21.5021 3.74902e-15)
(35.5626 21.7948 -1.32708e-15)
(34.7616 22.6374 0)
(32.7207 23.889 -7.75527e-16)
(35.7467 25.8091 -1.03232e-15)
(32.8202 24.9858 -4.17815e-15)
(33.2737 24.0538 0)
(33.7187 23.1815 0)
(34.1239 22.3946 0)
(34.4612 21.7365 0)
(34.7144 21.2747 -3.81561e-15)
(34.8644 21.0923 -1.31317e-18)
(34.9496 21.2226 -2.15118e-15)
(34.9544 21.8232 0)
(34.8495 23.0054 -1.17483e-15)
(33.5224 24.9071 7.31428e-16)
(37.5252 28.0042 9.52378e-16)
(31.2481 24.1075 -2.22973e-18)
(31.6846 23.1209 -7.50444e-15)
(32.1239 22.2342 3.67907e-15)
(32.5522 21.4688 6.43914e-20)
(32.9604 20.8611 2.13978e-18)
(33.3503 20.4624 5.44893e-15)
(33.7394 20.3332 -1.3709e-18)
(34.1484 20.5416 -5.73993e-15)
(34.5958 21.2062 -2.04713e-15)
(35.1283 22.5033 1.15158e-15)
(34.6768 24.8796 -1.38139e-15)
(39.2776 29.0485 -4.41362e-16)
(29.7248 23.3155 1.08765e-14)
(30.162 22.2536 3.53851e-15)
(30.6088 21.3167 0)
(31.0672 20.5205 0)
(31.5457 19.8931 2.02884e-18)
(32.0627 19.4753 -3.39018e-15)
(32.6495 19.3173 5.11839e-15)
(33.3459 19.4806 -1.17813e-18)
(34.1873 20.0732 1.83428e-15)
(35.2761 21.2877 0)
(35.6593 23.6139 -2.09832e-18)
(40.5878 28.5384 4.11098e-16)
(28.2147 22.5832 -3.46151e-15)
(28.6433 21.4266 -3.38733e-15)
(29.0853 20.4122 3.33387e-15)
(29.5562 19.5488 -3.28774e-15)
(30.0796 18.8551 -6.32581e-20)
(30.6896 18.3597 6.45859e-15)
(31.4355 18.0994 -3.21734e-15)
(32.3814 18.1254 1.62386e-15)
(33.5903 18.5281 0)
(35.2347 19.511 9.2045e-16)
(36.5082 21.6362 5.57235e-16)
(41.5947 26.8613 -1.53532e-15)
(26.634 21.8543 3.34407e-15)
(27.0376 20.5923 -3.28414e-15)
(27.4546 19.4853 -3.23254e-15)
(27.9123 18.5336 -6.3853e-15)
(28.4464 17.7448 6.30969e-15)
(29.1048 17.1332 -6.23948e-15)
(29.9542 16.7177 0)
(31.0849 16.5296 -1.53844e-15)
(32.5941 16.6266 0)
(34.7255 17.1888 0)
(36.908 18.8135 0)
(42.0389 23.6477 1.4276e-15)
(24.8543 21.0137 3.2552e-15)
(25.2257 19.6646 -6.41041e-15)
(25.6052 18.476 6.32082e-15)
(26.0291 17.4401 6.24035e-15)
(26.543 16.5529 3.0828e-15)
(27.2044 15.814 0)
(28.095 15.2183 0)
(29.3255 14.77 2.96831e-15)
(31.0335 14.4782 0)
(33.5505 14.472 -7.78801e-16)
(36.4483 15.2109 4.62897e-16)
(41.7736 18.8697 -2.00648e-15)
(22.7492 19.9002 -6.34491e-15)
(23.0964 18.5245 6.25355e-15)
(23.4391 17.3016 -6.17495e-15)
(23.8194 16.2181 -1.52653e-14)
(24.2907 15.26 -1.76688e-18)
(24.9154 14.412 1.09571e-18)
(25.7864 13.6465 -2.94548e-15)
(27.0151 12.9335 -2.89516e-15)
(28.7784 12.2091 0)
(31.4863 11.5445 2.19608e-15)
(34.7138 10.9379 4.25244e-16)
(40.3326 12.0492 -3.27511e-19)
(20.2523 18.3628 -3.6422e-18)
(20.5889 17.059 0)
(20.9031 15.8808 0)
(21.2405 14.8143 2.98267e-15)
(21.6594 13.8416 8.86156e-15)
(22.2183 12.9367 -2.92361e-15)
(23.0185 12.0482 -1.59755e-18)
(24.1505 11.1175 -1.42359e-15)
(25.8153 9.99504 -1.39651e-15)
(28.3177 8.64293 -1.39566e-15)
(32.0505 6.35846 0)
(37.2683 -1.48046 5.50883e-16)
(21.7774 -0.641673 -3.82541e-16)
(18.8652 -1.15746 0)
(17.405 -2.78062 -4.7649e-19)
(16.2896 -4.25878 0)
(15.7273 -5.52402 6.10618e-15)
(15.4243 -6.62884 -5.7503e-15)
(16.6971 -7.47026 0)
(17.7372 -12.2315 -1.11732e-14)
(14.6474 -24.8916 1.99422e-14)
(19.6541 -31.9788 -1.41762e-14)
(22.505 -34.0236 -2.83878e-15)
(24.2153 -37.7047 -2.66918e-15)
(25.5912 5.38538 -1.66319e-15)
(22.1895 3.03722 -1.27684e-15)
(22.5438 -0.693894 3.91133e-15)
(22.0353 -3.74878 0)
(23.4978 -6.68163 -5.29197e-15)
(24.585 -11.9802 5.29633e-15)
(25.9971 -21.0519 0)
(28.3458 -28.316 4.58809e-15)
(28.0664 -31.6356 -1.28914e-14)
(28.9285 -32.7111 7.98558e-15)
(29.2342 -32.9312 8.06565e-15)
(29.3131 -34.3385 -1.11338e-14)
(28.973 5.15239 3.06559e-16)
(25.9355 1.68505 0)
(26.9482 -3.72909 -2.28567e-15)
(26.9972 -9.15595 0)
(28.3791 -16.1225 0)
(29.9437 -23.921 -4.60682e-15)
(30.353 -29.3182 1.77059e-14)
(30.2201 -32.3795 -1.09535e-14)
(28.9296 -33.7801 3.43698e-15)
(28.1983 -34.213 0)
(27.5341 -34.5688 5.90582e-15)
(26.8334 -35.2402 -2.84104e-15)
(32.6344 5.59377 -1.12697e-15)
(31.0102 0.393831 1.04898e-15)
(32.6837 -6.68783 2.06373e-15)
(32.8909 -13.9983 4.16421e-15)
(33.4647 -21.4109 -4.13733e-15)
(33.0814 -27.0734 -3.98401e-15)
(32.0416 -30.2155 0)
(30.7087 -31.9174 0)
(29.302 -32.8127 2.91717e-15)
(28.2275 -33.1547 0)
(27.2741 -33.4669 4.09551e-18)
(26.3456 -33.8606 2.47629e-15)
(34.7843 2.03753 1.5492e-15)
(35.0512 -2.79331 -9.52382e-16)
(36.5454 -10.0567 -1.87792e-15)
(36.4773 -17.2724 0)
(35.9102 -23.5616 0)
(34.439 -27.3851 3.33634e-15)
(32.6547 -29.5181 0)
(30.9261 -30.6307 -5.74744e-15)
(29.3 -31.1788 -2.70561e-15)
(27.918 -31.508 5.05045e-15)
(26.7055 -31.8356 -7.14523e-15)
(25.5912 -32.2081 4.53919e-15)
(37.3051 0.269253 -6.30618e-19)
(38.0509 -5.21873 -8.70492e-16)
(39.1306 -12.1589 1.6958e-15)
(38.5316 -18.5701 1.8176e-18)
(37.0714 -23.5629 3.20249e-15)
(35.0014 -26.4496 -5.82833e-15)
(32.93 -28.0266 5.54581e-15)
(30.9221 -28.9589 4.87678e-18)
(29.1111 -29.5282 0)
(27.5391 -29.9295 0)
(26.1571 -30.3033 8.68635e-15)
(24.9141 -30.6954 4.79617e-19)
(39.2632 -2.85717 -8.87889e-16)
(40.8545 -7.52561 -8.02577e-16)
(41.135 -13.5605 0)
(40.0762 -18.7644 -2.98616e-15)
(37.983 -22.6151 2.83261e-15)
(35.5554 -24.9077 7.94922e-15)
(33.1867 -26.3151 4.97133e-15)
(30.9846 -27.224 6.67437e-18)
(29.0065 -27.8545 -8.85744e-15)
(27.2627 -28.3455 4.21444e-15)
(25.7201 -28.79 4.04449e-15)
(24.3415 -29.2291 2.39913e-18)
(41.6461 -4.67168 -5.39668e-19)
(43.4773 -9.02341 1.46972e-15)
(42.9686 -14.0232 0)
(41.4895 -18.1011 -2.65377e-15)
(38.9523 -21.1747 -2.505e-15)
(36.2334 -23.1988 4.4937e-18)
(33.6077 -24.5593 -8.98416e-15)
(31.1913 -25.5204 3.35767e-18)
(29.0185 -26.2402 -2.29921e-18)
(27.0892 -26.8187 3.93997e-15)
(25.3767 -27.3266 -3.80121e-15)
(23.8496 -27.8039 2.04089e-18)
(43.2005 -7.18573 -3.87337e-16)
(45.8971 -10.2334 6.72142e-16)
(44.505 -13.8502 -3.74323e-15)
(42.7173 -16.9483 2.3509e-15)
(39.8957 -19.4672 0)
(36.9422 -21.3574 0)
(34.0827 -22.751 4.10871e-15)
(31.4472 -23.8032 7.92582e-15)
(29.0689 -24.6203 -3.83546e-15)
(26.947 -25.2782 -3.72341e-15)
(25.0593 -25.837 -3.62875e-15)
(23.3766 -26.3376 0)
(46.3741 -7.93379 -7.20095e-16)
(48.0248 -10.3574 1.77746e-15)
(45.5781 -12.8019 4.44452e-15)
(43.2769 -15.2782 0)
(40.2236 -17.4461 4.0899e-15)
(37.1138 -19.2639 0)
(34.1227 -20.7238 2.56009e-18)
(31.3559 -21.8862 -3.73306e-15)
(28.8442 -22.8097 3.65326e-15)
(26.5884 -23.5507 0)
(24.5711 -24.1606 0)
(22.7681 -24.6823 -6.88201e-15)
(46.8868 -10.8536 1.91205e-23)
(47.7374 -9.68277 1.10357e-15)
(44.4596 -10.8842 3.08546e-18)
(41.739 -12.8872 -3.96419e-15)
(38.7408 -14.8488 -1.91686e-15)
(35.7758 -16.6783 -1.86296e-15)
(32.9454 -18.2531 -3.63978e-15)
(30.2997 -19.5561 -1.06989e-14)
(27.8622 -20.6087 -3.49822e-15)
(25.6386 -21.451 -6.88912e-15)
(23.6224 -22.129 6.78124e-15)
(21.8008 -22.6866 6.67528e-15)
(43.5123 -4.80908 -1.15031e-15)
(42.3188 -6.63468 -5.20419e-16)
(38.8585 -7.63109 2.60786e-18)
(36.4918 -9.57686 3.74888e-15)
(34.3038 -11.6464 0)
(32.113 -13.6196 -3.54021e-15)
(29.9329 -15.3468 3.46596e-15)
(27.793 -16.7959 3.40446e-15)
(25.7333 -17.9754 -1.0079e-14)
(23.7836 -18.9195 6.62439e-15)
(21.961 -19.6713 -6.54e-15)
(20.2739 -20.2747 0)
(24.0976 -40.3334 8.04361e-15)
(23.7107 -42.7856 -2.16197e-14)
(22.4136 -44.1574 5.44333e-15)
(21.0195 -45.0452 1.37428e-14)
(19.2586 -44.9187 -1.36107e-14)
(17.3846 -44.3399 2.70148e-15)
(15.4176 -42.7253 -1.38822e-18)
(13.4475 -40.4511 -2.68809e-15)
(11.5719 -37.1859 -5.42459e-15)
(9.50976 -33.0447 0)
(6.17492 -27.517 0)
(-0.178384 -25.1423 -5.54829e-16)
(29.3276 -35.2431 -1.0911e-19)
(28.8267 -36.4613 7.02397e-15)
(27.9142 -37.5677 -9.69761e-18)
(26.6134 -38.6334 0)
(24.9698 -39.4646 5.25873e-15)
(23.2805 -39.839 0)
(21.6408 -39.6532 3.65808e-15)
(20.2019 -38.8882 5.74439e-15)
(19.1059 -37.5713 -4.09778e-15)
(18.219 -34.9991 0)
(17.0728 -31.645 0)
(13.6 -31.7503 -4.64355e-20)
(26.1341 -35.8358 2.81331e-15)
(25.3425 -36.5176 -2.75435e-15)
(24.4445 -37.1661 2.72335e-15)
(23.4888 -37.7178 0)
(22.5366 -38.0503 -2.75426e-15)
(21.6591 -38.0954 5.64711e-15)
(20.9477 -37.8124 -7.34912e-15)
(20.4929 -37.1974 -7.77289e-15)
(20.4356 -36.3007 4.88967e-15)
(20.6441 -34.7133 0)
(20.6773 -32.168 8.9941e-16)
(20.4911 -33.5687 1.02365e-20)
(25.4744 -34.1985 2.43632e-15)
(24.6249 -34.6521 -4.7488e-15)
(23.764 -35.1239 4.65643e-15)
(22.9162 -35.5507 -4.61978e-15)
(22.1379 -35.8656 0)
(21.5039 -36.0237 2.32496e-15)
(21.1155 -35.9944 2.39967e-15)
(20.9942 -35.7818 1.28618e-15)
(21.2833 -35.4376 -2.69239e-15)
(22.1363 -34.6861 0)
(23.3483 -32.6315 -7.94988e-16)
(25.0885 -35.743 1.29632e-15)
(24.5733 -32.6053 4.36717e-15)
(23.6226 -33.0579 -2.12176e-15)
(22.7343 -33.5134 0)
(21.9328 -33.9385 0)
(21.2606 -34.303 2.04847e-15)
(20.7818 -34.5906 -1.98403e-15)
(20.5894 -34.7721 -2.50249e-18)
(20.7068 -34.8938 0)
(21.2998 -34.9339 -1.193e-15)
(22.4867 -34.8501 1.20031e-15)
(24.3592 -33.5347 -1.49263e-15)
(27.3812 -37.6039 0)
(23.7948 -31.1125 -8.04038e-15)
(22.777 -31.5644 3.9119e-15)
(21.8608 -32.0274 7.67025e-15)
(21.0666 -32.4858 4.90049e-20)
(20.4303 -32.9277 -9.40894e-15)
(20.0034 -33.3518 -3.77694e-15)
(19.8488 -33.7731 -2.35998e-18)
(20.0338 -34.2098 0)
(20.6816 -34.6741 0)
(21.9662 -35.2283 -1.18221e-15)
(24.3308 -34.7173 -7.03176e-16)
(28.4341 -39.3828 4.43199e-16)
(23.1071 -29.6785 3.77913e-15)
(22.0004 -30.1474 -7.37579e-15)
(21.0208 -30.6309 -3.61437e-15)
(20.1828 -31.129 -1.91077e-18)
(19.5145 -31.6472 3.5307e-15)
(19.0575 -32.2011 3.51778e-15)
(18.8652 -32.8187 1.76927e-15)
(19.0006 -33.5362 1.80393e-15)
(19.5769 -34.3828 -1.89462e-15)
(20.7889 -35.4697 0)
(23.1217 -35.783 1.25728e-15)
(28.0684 -40.7559 -8.26255e-16)
(22.4862 -28.2726 0)
(21.2713 -28.7474 3.52581e-15)
(20.2012 -29.2378 0)
(19.2837 -29.7568 -1.89851e-18)
(18.5376 -30.3249 -4.76747e-20)
(17.9931 -30.9732 6.70225e-15)
(17.6905 -31.7469 -1.66621e-15)
(17.685 -32.7064 -3.35924e-15)
(18.0734 -33.9065 -1.73504e-15)
(19.0623 -35.5263 9.45631e-16)
(21.205 -36.705 -1.70642e-15)
(26.5262 -41.794 7.70326e-16)
(21.8763 -26.8084 3.47782e-15)
(20.5422 -27.2717 -3.41568e-15)
(19.3663 -27.7478 -3.36377e-15)
(18.3484 -28.2606 3.31777e-15)
(17.4963 -28.8431 3.27533e-15)
(16.8263 -29.5395 -9.7094e-15)
(16.3616 -30.4125 0)
(16.1399 -31.5485 1.59119e-15)
(16.2277 -33.0354 1.61379e-15)
(16.8124 -35.1212 0)
(18.4939 -37.2066 1.55153e-15)
(23.5156 -42.2721 -3.59201e-16)
(21.1576 -25.1503 0)
(19.7233 -25.5942 -6.66025e-15)
(18.453 -26.0427 -3.28517e-15)
(17.3392 -26.5279 -6.47542e-15)
(16.3786 -27.0925 3.19783e-15)
(15.5729 -27.7901 3.15481e-15)
(14.9223 -28.6976 0)
(14.4383 -29.9218 0)
(14.1421 -31.5908 0)
(14.1696 -34.0397 0)
(15.0132 -36.8409 -4.70969e-16)
(18.9678 -42.0259 -6.71199e-16)
(20.1598 -23.1638 3.29065e-15)
(18.6877 -23.5953 3.24257e-15)
(17.372 -24.0156 1.28112e-14)
(16.2006 -24.462 3.16551e-15)
(15.1603 -24.9845 1.25086e-14)
(14.239 -25.6419 -3.08898e-15)
(13.4143 -26.5197 -3.04509e-15)
(12.6653 -27.7258 0)
(11.9415 -29.4273 -2.94731e-15)
(11.3232 -32.043 -1.50129e-15)
(10.8635 -35.1543 -8.64301e-16)
(12.4024 -40.5929 0)
(18.7245 -20.7732 0)
(17.3134 -21.203 0)
(16.033 -21.602 -1.24802e-14)
(14.8712 -22.0092 -9.25355e-15)
(13.8107 -22.4778 -3.04931e-15)
(12.8282 -23.0601 0)
(11.8814 -23.8492 2.98263e-15)
(10.9174 -24.929 0)
(9.80042 -26.4924 -1.66237e-18)
(8.50283 -28.8654 1.42917e-15)
(6.41713 -32.4599 3.86515e-16)
(-0.910577 -37.3878 -1.63752e-19)
(-0.350274 -21.7238 -1.90819e-16)
(-0.950256 -18.6827 -2.98116e-15)
(-2.65488 -17.1408 3.03938e-15)
(-4.06002 -16.1421 -3.04088e-15)
(-5.39777 -15.468 0)
(-6.24488 -15.4562 2.8489e-15)
(-7.74452 -17.3999 0)
(-14.7648 -16.9246 2.7877e-15)
(-27.5749 -15.6998 -8.50629e-15)
(-32.7575 -21.5212 8.48918e-15)
(-35.1093 -23.5938 1.67568e-14)
(-38.7254 -25.4297 -5.28059e-15)
(5.71097 -25.6494 0)
(3.18785 -22.1393 -2.54447e-15)
(-0.741271 -22.5792 2.602e-15)
(-3.76752 -22.2807 2.60759e-15)
(-7.23885 -24.1704 -5.2967e-15)
(-13.9939 -24.9712 -7.79737e-19)
(-23.2118 -27.407 -4.91433e-15)
(-29.5559 -29.0562 -1.11139e-14)
(-32.1665 -28.964 1.29728e-14)
(-32.9086 -29.9019 -4.0426e-15)
(-33.3675 -30.0686 8.81796e-18)
(-34.7897 -30.2271 5.52247e-18)
(5.46438 -29.1695 0)
(1.58112 -26.1793 0)
(-4.25621 -27.4731 0)
(-10.3386 -27.6851 -2.29396e-15)
(-18.116 -29.5431 0)
(-25.5073 -30.7995 -2.27808e-15)
(-30.322 -31.1822 4.31587e-15)
(-32.9259 -30.6491 7.05402e-15)
(-34.1335 -29.5141 -3.30408e-15)
(-34.4462 -28.8532 -5.95925e-15)
(-34.9174 -28.1806 -8.53218e-15)
(-35.6107 -27.5216 8.32302e-15)
(5.32945 -32.7672 0)
(-0.305914 -31.4649 -1.04444e-15)
(-7.85791 -33.3286 2.05941e-15)
(-15.5041 -33.6318 2.06829e-15)
(-22.781 -34.1714 0)
(-27.8337 -33.5361 -7.75256e-15)
(-30.6111 -32.4984 6.74029e-15)
(-32.2953 -31.0323 0)
(-33.0597 -29.7233 5.59537e-15)
(-33.3573 -28.7013 -7.86853e-15)
(-33.7144 -27.763 4.96575e-15)
(-34.0866 -26.8528 4.13294e-18)
(1.52179 -34.8678 -6.14356e-23)
(-3.65484 -35.3864 1.89181e-15)
(-11.1553 -36.8605 3.02429e-18)
(-18.405 -36.728 0)
(-24.3309 -36.0344 -3.54843e-15)
(-27.7772 -34.5017 6.38914e-15)
(-29.8502 -32.7868 0)
(-30.8555 -31.0975 -2.77568e-15)
(-31.3563 -29.54 -2.59439e-15)
(-31.6744 -28.2267 4.83419e-15)
(-32.0237 -27.0567 0)
(-32.4045 -25.9784 -4.34142e-15)
(-0.499642 -37.2038 4.75282e-16)
(-6.14334 -38.151 1.89831e-18)
(-13.1247 -39.0709 -1.66493e-15)
(-19.4218 -38.3875 -6.53437e-15)
(-24.1012 -36.8787 -1.79847e-18)
(-26.7959 -34.865 5.60556e-15)
(-28.2965 -32.8692 0)
(-29.1575 -30.9327 7.45839e-15)
(-29.6863 -29.2065 -4.64763e-15)
(-30.0712 -27.7108 4.3775e-15)
(-30.4457 -26.3855 2.41702e-18)
(-30.8345 -25.1902 -4.48331e-19)
(-3.50032 -39.1205 -1.32789e-15)
(-8.32369 -40.7489 -7.91178e-16)
(-14.3382 -40.8483 0)
(-19.4447 -39.7065 5.83423e-15)
(-23.0891 -37.6168 -8.25769e-15)
(-25.2446 -35.2623 -1.29446e-18)
(-26.5705 -32.9726 -9.61888e-15)
(-27.4104 -30.8532 3.94142e-18)
(-27.996 -28.9621 -4.26327e-15)
(-28.4575 -27.2974 -4.05551e-15)
(-28.8821 -25.8212 3.88478e-15)
(-29.2997 -24.5004 -3.7387e-15)
(-5.24235 -41.4826 1.23775e-15)
(-9.67583 -43.2719 -7.28821e-16)
(-14.6614 -42.5794 0)
(-18.686 -41.007 2.60697e-15)
(-21.6172 -38.4657 2.45013e-15)
(-23.5247 -35.8014 2.30694e-15)
(-24.7983 -33.2481 -3.72618e-18)
(-25.6859 -30.9145 -9.1027e-19)
(-26.3486 -28.8284 -3.95888e-15)
(-26.8817 -26.9813 -4.87465e-18)
(-27.3506 -25.3432 2.05275e-18)
(-27.7882 -23.8842 0)
(-7.57384 -43.0467 3.86067e-16)
(-10.72 -45.6425 0)
(-14.3526 -44.0775 0)
(-17.428 -42.1717 -2.31717e-15)
(-19.8557 -39.3149 2.19147e-15)
(-21.6506 -36.3859 -4.17874e-15)
(-22.9591 -33.5831 0)
(-23.9329 -31.0222 3.84396e-15)
(-24.6805 -28.7277 -1.99326e-18)
(-25.2769 -26.6902 3.59634e-15)
(-25.7783 -24.8834 -3.50185e-15)
(-26.2217 -23.2791 6.8346e-15)
(-8.16965 -46.1912 -2.40546e-19)
(-10.6903 -47.7812 -5.89467e-16)
(-13.1792 -45.1429 -2.2048e-15)
(-15.6595 -42.7046 -4.18682e-15)
(-17.7751 -39.5858 0)
(-19.5199 -36.47 3.85077e-15)
(-20.8974 -33.5114 -7.4619e-15)
(-21.9742 -30.8011 3.62315e-15)
(-22.8145 -28.3622 3.53719e-15)
(-23.4766 -26.1873 0)
(-24.0115 -24.2541 -3.38433e-15)
(-24.4596 -22.537 -6.62457e-15)
(-10.9415 -46.8171 -6.40816e-16)
(-9.88484 -47.4517 5.44779e-16)
(-11.1148 -44.0203 2.02337e-15)
(-13.1589 -41.1681 1.94337e-15)
(-15.1177 -38.0918 -3.95348e-19)
(-16.8939 -35.0912 -5.45123e-15)
(-18.3867 -32.2615 7.07204e-15)
(-19.5961 -29.6451 1.38331e-14)
(-20.5525 -27.2605 -1.01652e-14)
(-21.3009 -25.1079 -6.65858e-15)
(-21.8884 -23.1748 6.54085e-15)
(-22.3585 -21.4442 0)
(-4.77836 -43.2861 1.14407e-15)
(-6.67475 -41.9766 5.18958e-16)
(-7.80582 -38.3796 9.48508e-16)
(-9.80785 -35.9402 3.67202e-15)
(-11.8725 -33.6643 0)
(-13.7864 -31.4084 3.43841e-15)
(-15.4245 -29.1951 -6.72647e-15)
(-16.772 -27.0554 -3.29738e-15)
(-17.8472 -25.0274 -3.24689e-15)
(-18.6892 -23.1373 6.39754e-15)
(-19.3412 -21.3961 3.15923e-15)
(-19.8493 -19.8049 9.35532e-15)
(-41.3288 -25.0069 -2.66303e-15)
(-43.7472 -24.637 2.69665e-15)
(-45.0501 -23.1416 -8.12956e-15)
(-45.9016 -21.7269 2.44953e-14)
(-45.7233 -19.7892 -1.07846e-14)
(-45.0868 -17.8702 0)
(-43.394 -15.766 -5.33325e-15)
(-41.0426 -13.7523 4.00989e-15)
(-37.6739 -11.7956 0)
(-33.4069 -9.69785 9.14362e-19)
(-27.7871 -6.35396 0)
(-25.3103 0.101079 3.7048e-16)
(-35.7841 -30.0923 -1.39421e-14)
(-37.0391 -29.5522 6.81786e-15)
(-38.1785 -28.552 6.75588e-15)
(-39.2587 -27.1803 -3.38309e-15)
(-40.0577 -25.4985 0)
(-40.3928 -23.7692 0)
(-40.1539 -22.0919 3.56398e-15)
(-39.3322 -20.6166 -3.74608e-15)
(-37.9471 -19.4792 0)
(-35.2635 -18.5664 1.03381e-15)
(-31.8655 -17.4508 -2.47817e-19)
(-31.872 -14.2484 -1.35452e-15)
(-36.225 -26.8041 2.72197e-15)
(-36.9214 -25.9924 -5.2959e-15)
(-37.5861 -25.0643 0)
(-38.1323 -24.0783 -5.24741e-15)
(-38.4476 -23.092 -5.30801e-15)
(-38.4654 -22.1845 1.08931e-14)
(-38.1464 -21.4423 -8.52881e-15)
(-37.4875 -20.9654 0)
(-36.5233 -20.8888 0)
(-34.849 -21.102 0)
(-32.2693 -21.1646 -8.85532e-16)
(-33.5781 -21.0266 0)
(-34.4684 -25.9929 -2.34429e-15)
(-34.952 -25.1448 -3.62174e-18)
(-35.4343 -24.2779 0)
(-35.8546 -23.425 -3.3998e-18)
(-36.1495 -22.6437 0)
(-36.2767 -22.01 0)
(-36.2101 -21.6136 2.3335e-15)
(-35.9492 -21.5021 -2.49869e-15)
(-35.5627 -21.7948 2.65566e-15)
(-34.7616 -22.6374 0)
(-32.7207 -23.889 -7.75527e-16)
(-35.7467 -25.8091 1.03232e-15)
(-32.8202 -24.9858 8.36567e-15)
(-33.2737 -24.0537 -2.03289e-15)
(-33.7187 -23.1815 3.9862e-15)
(-34.1239 -22.3946 1.97276e-15)
(-34.4612 -21.7365 -5.89442e-15)
(-34.7144 -21.2747 0)
(-34.8644 -21.0923 -1.96881e-15)
(-34.9496 -21.2227 0)
(-34.9544 -21.8232 0)
(-34.8495 -23.0054 1.17483e-15)
(-33.5224 -24.9071 3.94215e-19)
(-37.5252 -28.0042 1.27481e-18)
(-31.2481 -24.1075 -3.85073e-15)
(-31.6846 -23.1208 -2.38256e-18)
(-32.1239 -22.2342 0)
(-32.5522 -21.4688 0)
(-32.9604 -20.8611 -5.43044e-15)
(-33.3503 -20.4624 3.63351e-15)
(-33.7394 -20.3332 3.69348e-15)
(-34.1484 -20.5416 1.91308e-15)
(-34.5958 -21.2062 -4.09313e-15)
(-35.1283 -22.5033 -1.15158e-15)
(-34.6768 -24.8796 0)
(-39.2776 -29.0486 4.41362e-16)
(-29.7249 -23.3155 -7.25466e-15)
(-30.162 -22.2536 3.5345e-15)
(-30.6088 -21.3167 3.47321e-15)
(-31.0673 -20.5205 1.87567e-18)
(-31.5457 -19.8931 -3.892e-18)
(-32.0627 -19.4753 -3.39207e-15)
(-32.6495 -19.3173 -5.1174e-15)
(-33.3459 -19.4806 -1.74418e-15)
(-34.1873 -20.0732 1.83428e-15)
(-35.2761 -21.2877 0)
(-35.6593 -23.6139 1.85576e-15)
(-40.5878 -28.5384 -1.23472e-15)
(-28.2147 -22.5832 6.92123e-15)
(-28.6433 -21.4266 -3.39273e-15)
(-29.0853 -20.4122 -3.33388e-15)
(-29.5562 -19.5488 -6.57367e-15)
(-30.0796 -18.8551 6.50461e-15)
(-30.6897 -18.3597 -1.87352e-18)
(-31.4355 -18.0994 9.6576e-15)
(-32.3814 -18.1254 1.62187e-15)
(-33.5903 -18.5281 1.68116e-15)
(-35.2347 -19.511 0)
(-36.5082 -21.6362 -1.11617e-15)
(-41.5947 -26.8614 3.8398e-16)
(-26.634 -21.8543 0)
(-27.0376 -20.5923 3.28251e-15)
(-27.4547 -19.4853 3.23255e-15)
(-27.9123 -18.5336 -3.192e-15)
(-28.4464 -17.7448 -1.43249e-18)
(-29.1048 -17.1332 -3.12203e-15)
(-29.9542 -16.7177 -3.08906e-15)
(-31.0849 -16.5296 0)
(-32.5941 -16.6266 -1.56395e-15)
(-34.7255 -17.1888 -8.41538e-16)
(-36.908 -18.8135 2.53862e-15)
(-42.0389 -23.6477 -3.55479e-16)
(-24.8543 -21.0137 0)
(-25.2257 -19.6646 0)
(-25.6053 -18.476 0)
(-26.0291 -17.4401 -9.36164e-15)
(-26.543 -16.5529 6.16533e-15)
(-27.2044 -15.814 6.0893e-15)
(-28.095 -15.2183 0)
(-29.3255 -14.77 -2.96832e-15)
(-31.0335 -14.4782 0)
(-33.5505 -14.472 -1.55788e-15)
(-36.4482 -15.211 -4.62845e-16)
(-41.7736 -18.8697 -6.66794e-16)
(-22.7492 -19.9002 0)
(-23.0964 -18.5245 0)
(-23.4391 -17.3016 6.17923e-15)
(-23.8194 -16.2181 9.15718e-15)
(-24.2907 -15.26 3.08722e-18)
(-24.9154 -14.412 2.98596e-15)
(-25.7864 -13.6465 -1.47248e-15)
(-27.0151 -12.9335 4.3432e-15)
(-28.7784 -12.2091 2.86155e-15)
(-31.4863 -11.5445 1.46247e-15)
(-34.7138 -10.9379 -8.50471e-16)
(-40.3326 -12.0492 -1.24701e-15)
(-20.2523 -18.3628 0)
(-20.5889 -17.059 0)
(-20.9031 -15.8808 -6.02811e-15)
(-21.2405 -14.8143 2.98602e-15)
(-21.6594 -13.8416 -2.95274e-15)
(-22.2183 -12.9367 -2.92362e-15)
(-23.0185 -12.0482 2.89223e-15)
(-24.1505 -11.1175 0)
(-25.8153 -9.99505 -2.79263e-15)
(-28.3177 -8.64294 -1.39637e-15)
(-32.0505 -6.35847 1.1472e-15)
(-37.2683 1.48045 2.08437e-19)
(-21.7774 0.641674 -1.64608e-19)
(-18.8652 1.15746 0)
(-17.405 2.78062 0)
(-16.2896 4.25878 -6.08939e-15)
(-15.7273 5.52402 9.16037e-15)
(-15.4243 6.62884 0)
(-16.6971 7.47026 0)
(-17.7372 12.2315 2.79501e-15)
(-14.6474 24.8916 2.85505e-15)
(-19.6541 31.9788 8.51382e-15)
(-22.505 34.0236 1.4146e-14)
(-24.2153 37.7047 -2.65158e-15)
(-25.5912 -5.38538 -2.47401e-19)
(-22.1895 -3.03722 0)
(-22.5438 0.693894 0)
(-22.0353 3.74878 -2.61039e-15)
(-23.4978 6.68162 5.29392e-15)
(-24.585 11.9802 -1.58915e-14)
(-25.9971 21.0519 1.00587e-14)
(-28.3458 28.316 2.29736e-15)
(-28.0664 31.6356 -4.29066e-15)
(-28.9285 32.7111 7.15608e-18)
(-29.2342 32.9312 0)
(-29.3131 34.3386 -7.41261e-15)
(-28.973 -5.15239 3.06559e-16)
(-25.9355 -1.68506 0)
(-26.9482 3.72908 0)
(-26.9972 9.15594 -2.16968e-18)
(-28.3791 16.1225 2.67393e-18)
(-29.9437 23.921 -4.61224e-15)
(-30.353 29.3182 0)
(-30.22 32.3795 -1.09575e-14)
(-28.9296 33.7801 1.03174e-14)
(-28.1983 34.213 -3.08351e-15)
(-27.5341 34.5688 -5.90553e-15)
(-26.8334 35.2402 8.51431e-15)
(-32.6344 -5.59378 1.12697e-15)
(-31.0102 -0.393836 1.04898e-15)
(-32.6837 6.68782 0)
(-32.8909 13.9983 2.08021e-15)
(-33.4647 21.4109 -2.06751e-15)
(-33.0814 27.0734 3.98401e-15)
(-32.0416 30.2155 0)
(-30.7087 31.9174 -3.07691e-15)
(-29.302 32.8127 -8.74288e-15)
(-28.2275 33.1547 5.46779e-15)
(-27.2741 33.4669 5.17968e-15)
(-26.3456 33.8606 -9.91633e-15)
(-34.7843 -2.03754 -5.15807e-16)
(-35.0512 2.79331 -9.52926e-16)
(-36.5454 10.0567 1.87792e-15)
(-36.4773 17.2724 0)
(-35.9102 23.5616 -7.30689e-15)
(-34.439 27.3851 6.66876e-15)
(-32.6547 29.5181 3.13348e-15)
(-30.9261 30.6307 2.87063e-15)
(-29.3 31.1788 0)
(-27.9179 31.508 0)
(-26.7055 31.8357 0)
(-25.5912 32.2081 -6.55221e-18)
(-37.3051 -0.269257 6.30618e-19)
(-38.0509 5.21873 0)
(-39.1306 12.1589 -1.6958e-15)
(-38.5316 18.5701 3.35154e-15)
(-37.0714 23.5629 3.20229e-15)
(-35.0014 26.4496 -5.82833e-15)
(-32.93 28.0266 2.77323e-15)
(-30.9221 28.9589 -1.03407e-14)
(-29.1111 29.5282 -1.40153e-18)
(-27.5391 29.9295 -3.61885e-18)
(-26.1571 30.3033 2.49954e-18)
(-24.9141 30.6954 1.2485e-14)
(-39.2632 2.85717 4.44512e-16)
(-40.8545 7.52561 1.60392e-15)
(-41.135 13.5605 -3.08594e-15)
(-40.0762 18.7644 -2.98615e-15)
(-37.983 22.6151 -5.65911e-15)
(-35.5554 24.9077 -2.65384e-15)
(-33.1867 26.3151 -4.96863e-15)
(-30.9846 27.224 9.35171e-15)
(-29.0065 27.8545 0)
(-27.2627 28.3455 8.42938e-15)
(-25.7201 28.79 -1.21177e-14)
(-24.3415 29.2291 3.89785e-15)
(-41.6461 4.67167 -8.26649e-16)
(-43.4773 9.02341 -2.20549e-15)
(-42.9686 14.0232 4.17096e-15)
(-41.4895 18.1011 0)
(-38.9523 21.1747 -2.50889e-15)
(-36.2334 23.1988 4.73435e-15)
(-33.6077 24.5593 -2.36759e-18)
(-31.1912 25.5204 9.67799e-19)
(-29.0185 26.2402 -4.09516e-15)
(-27.0892 26.8187 -7.87529e-15)
(-25.3767 27.3266 3.80312e-15)
(-23.8496 27.8039 -3.69493e-15)
(-43.2005 7.18573 -7.73258e-16)
(-45.8971 10.2334 0)
(-44.505 13.8501 0)
(-42.7173 16.9483 0)
(-39.8957 19.4672 2.23311e-15)
(-36.9422 21.3574 0)
(-34.0827 22.751 -3.13838e-18)
(-31.4471 23.8032 7.92321e-15)
(-29.0689 24.6203 2.25621e-18)
(-26.947 25.2782 3.72341e-15)
(-25.0593 25.837 -3.63075e-15)
(-23.3766 26.3376 1.065e-14)
(-46.3741 7.93379 -1.44045e-15)
(-48.0248 10.3574 2.96526e-15)
(-45.5781 12.8019 -1.11091e-15)
(-43.2769 15.2782 0)
(-40.2236 17.4461 0)
(-37.1138 19.2639 0)
(-34.1227 20.7238 0)
(-31.3559 21.8862 3.73556e-15)
(-28.8442 22.8097 -1.46005e-14)
(-26.5883 23.5507 -7.14747e-15)
(-24.5711 24.1606 7.00794e-15)
(-22.7681 24.6823 3.44555e-15)
(-46.8868 10.8536 -6.42675e-16)
(-47.7374 9.68277 -1.65356e-15)
(-44.4596 10.8842 -1.02848e-15)
(-41.739 12.8872 0)
(-38.7408 14.8488 0)
(-35.7758 16.6783 3.72801e-15)
(-32.9454 18.2531 -7.27797e-15)
(-30.2997 19.5561 1.42643e-14)
(-27.8622 20.6087 1.0504e-14)
(-25.6386 21.451 6.88357e-15)
(-23.6224 22.129 -6.77603e-15)
(-21.8008 22.6866 4.93338e-18)
(-43.5123 4.80907 -1.15556e-18)
(-42.3188 6.63468 0)
(-38.8585 7.63109 1.92272e-15)
(-36.4918 9.57686 -5.62875e-15)
(-34.3038 11.6464 5.45074e-15)
(-32.113 13.6196 2.98178e-18)
(-29.9329 15.3468 3.46596e-15)