/*--------------------------------*- C++ -*----------------------------------*\
| =========                 |                                                 |
| \\      /  F ield         | OpenFOAM: The Open Source CFD Toolbox           |
|  \\    /   O peration     | Version:  2212                                  |
|   \\  /    A nd           | Website:  www.openfoam.com                      |
|    \\/     M anipulation  |                                                 |
\*---------------------------------------------------------------------------*/
FoamFile
{
    version     2.0;
    format      ascii;
    arch        "LSB;label=32;scalar=64";
    class       volVectorField;
    location    "0.05";
    object      U;
}
// * * * * * * * * * * * * * * * * * * * * * * * * * * * * * * * * * * * * * //

dimensions      [0 1 -1 0 0 0 0];

internalField   nonuniform List<vector> 
3072
(
(1.3453 21.9122 0)
(1.79831 19.2409 0)
(3.14857 18.0065 5.98165e-19)
(4.55074 16.6305 -8.79062e-15)
(5.77534 16.0633 1.40859e-14)
(6.97392 15.5139 -7.04942e-15)
(7.75788 15.3609 -3.27149e-15)
(9.64802 17.1903 -1.5517e-14)
(17.2122 15.288 2.5727e-14)
(28.6585 14.8594 -9.69001e-15)
(32.533 19.5779 6.58079e-15)
(35.099 21.3774 3.05562e-15)
(-4.70219 25.5622 -3.83777e-16)
(-2.67542 22.4766 -2.93325e-15)
(0.446413 22.4102 1.48501e-15)
(3.4578 21.9758 0)
(5.91111 22.2013 5.99529e-15)
(9.00235 23.6263 -9.15123e-15)
(15.268 23.9985 0)
(24.2277 25.6626 0)
(29.9632 26.4387 0)
(32.0899 26.3456 7.59244e-18)
(32.6865 27.2833 -1.35897e-14)
(33.3253 27.2386 4.41041e-18)
(-4.25694 28.7864 3.5047e-16)
(-1.72865 25.5659 0)
(2.80751 26.0199 0)
(7.08338 25.6973 -7.81221e-15)
(12.0814 26.2433 5.25476e-15)
(18.9871 27.4937 -7.93368e-15)
(26.3167 28.4007 1.04903e-14)
(31.1149 28.5989 0)
(33.3572 27.9358 0)
(34.2053 26.9229 -3.7905e-15)
(34.3465 26.3549 -3.45916e-15)
(34.7743 25.6623 9.96348e-15)
(-5.7611 32.2648 -1.29375e-15)
(-1.59935 30.0028 -2.40775e-15)
(4.26901 31.1645 2.35297e-15)
(10.3689 31.0392 -2.37373e-15)
(17.3732 31.5019 9.54589e-15)
(24.2711 31.6227 -9.46414e-15)
(29.3482 31.0047 -4.537e-15)
(31.7517 29.9305 -1.24036e-14)
(32.9015 28.5407 -3.30002e-18)
(33.382 27.3958 6.51206e-15)
(33.5688 26.4953 6.14497e-15)
(33.8842 25.6085 -5.83826e-15)
(-3.16034 34.7169 0)
(0.886375 33.9656 1.09613e-15)
(7.2759 35.3525 -2.15758e-15)
(14.0505 35.2944 4.34604e-15)
(21.0248 35.0866 4.70339e-18)
(26.518 34.0009 4.18129e-15)
(29.5968 32.4014 3.83248e-15)
(31.0128 30.6498 3.52607e-15)
(31.6806 29.0291 -6.54592e-15)
(32.0139 27.5983 6.07499e-15)
(32.2531 26.3962 -8.52239e-15)
(32.5623 25.297 1.07513e-14)
(-2.0037 37.5344 -1.10565e-15)
(2.93424 37.5671 1.00899e-15)
(9.56878 38.8825 3.96296e-15)
(16.1664 38.4882 0)
(22.2686 37.3663 -7.77527e-15)
(26.3255 35.3495 7.3523e-15)
(28.5276 33.1418 0)
(29.5989 31.0937 -6.27137e-15)
(30.2417 29.2307 5.83045e-15)
(30.6517 27.612 0)
(30.9838 26.2254 2.97746e-18)
(31.3358 24.9862 4.91561e-15)
(1.11468 39.6136 0)
(5.4316 40.9586 -1.85885e-15)
(11.4436 41.6716 1.81267e-15)
(17.0947 40.8742 0)
(21.9375 38.8878 -3.4475e-15)
(25.061 36.3199 5.3756e-18)
(26.9156 33.761 6.023e-15)
(27.9986 31.4539 5.64305e-15)
(28.729 29.4232 -5.31089e-15)
(29.2661 27.6525 5.03232e-15)
(29.7193 26.1146 -4.78913e-15)
(30.1554 24.7499 -1.37657e-14)
(3.16968 42.0118 0)
(7.31931 43.8792 1.68917e-15)
(12.333 43.8805 -3.22555e-15)
(16.8341 42.6543 3.13281e-15)
(20.6903 40.133 0)
(23.4203 37.2433 -5.66434e-15)
(25.2279 34.4205 5.38169e-15)
(26.425 31.8972 1.41288e-18)
(27.297 29.6882 -9.76713e-15)
(27.9751 27.7616 -4.67664e-15)
(28.5468 26.0793 -3.04878e-18)
(29.0663 24.5891 8.68311e-15)
(5.94041 43.6961 0)
(8.87582 46.3954 -1.52544e-15)
(12.5217 45.483 -2.83549e-15)
(15.979 43.9628 -2.69914e-15)
(19.1541 41.231 5.18301e-15)
(21.6866 38.1764 0)
(23.5511 35.1728 0)
(24.9131 32.4522 0)
(25.9537 30.0549 0)
(26.777 27.9593 4.37379e-15)
(27.4577 26.1249 -4.25236e-15)
(28.0468 24.5019 4.13981e-15)
(7.23577 46.6255 0)
(9.30621 48.3523 1.33892e-15)
(11.8159 46.4274 -3.91213e-18)
(14.6367 44.5025 2.39813e-15)
(17.3942 41.6869 2.33096e-15)
(19.8252 38.6246 -4.52164e-15)
(21.7938 35.5979 0)
(23.3484 32.8048 -2.11145e-18)
(24.579 30.3036 -1.26856e-14)
(25.5585 28.0929 0)
(26.3497 26.1417 8.12662e-15)
(27.003 24.4082 -3.98165e-15)
(9.96116 46.9282 0)
(8.87247 48.0616 1.25604e-15)
(10.3296 45.3384 4.60621e-15)
(12.7054 43.119 -4.43511e-15)
(15.2247 40.5041 -6.47313e-15)
(17.66 37.7481 1.05192e-14)
(19.7929 35.0072 -1.86906e-18)
(21.568 32.4108 -4.0673e-15)
(23.0125 30.0188 4.00288e-15)
(24.1683 27.8531 -7.91256e-15)
(25.0842 25.9027 -1.16996e-14)
(25.8085 24.144 1.15371e-14)
(4.62166 43.9002 -6.58669e-16)
(6.48361 43.1401 -4.74225e-15)
(7.75112 40.2809 1.08885e-15)
(10.0985 38.5226 0)
(12.7036 36.7878 0)
(15.2681 34.8842 3.741e-18)
(17.5824 32.8729 1.16895e-14)
(19.566 30.828 7.69334e-15)
(21.2132 28.8344 0)
(22.5404 26.9428 7.54854e-15)
(23.5818 25.1709 0)
(24.3755 23.528 6.01506e-18)
(38.4194 21.7454 -2.15302e-14)
(40.451 21.5193 9.32618e-15)
(42.1814 20.5404 -9.42888e-15)
(42.8479 19.3185 -3.19191e-15)
(42.9332 17.8537 -3.1515e-15)
(42.2619 16.1643 0)
(40.8641 14.4002 0)
(38.6297 12.5899 6.17289e-15)
(35.6402 10.7884 -6.22875e-15)
(31.7901 8.79243 0)
(26.629 5.24517 0)
(24.6848 -0.585831 -4.20752e-16)
(34.3758 27.6267 8.38626e-15)
(35.2885 27.2722 0)
(36.4018 26.56 -1.03261e-17)
(37.3524 25.4223 4.07265e-15)
(38.2002 23.8581 2.0236e-15)
(38.5773 22.269 8.23339e-15)
(38.449 20.6911 -1.2659e-14)
(37.7628 19.2944 2.19953e-15)
(36.5709 18.2101 0)
(34.262 17.264 0)
(31.0402 15.8742 0)
(31.5662 11.4811 -4.67883e-23)
(35.3081 25.0342 3.2233e-15)
(35.8721 24.3107 -9.55023e-15)
(36.4919 23.4987 3.16903e-15)
(36.9833 22.6204 6.35314e-15)
(37.3039 21.7331 -6.36696e-15)
(37.3501 20.8719 0)
(37.113 20.1511 0)
(36.5724 19.6536 -1.95984e-18)
(35.8064 19.4824 1.84336e-15)
(34.3411 19.4715 0)
(32.0139 19.3055 0)
(33.6589 18.8994 0)
(34.2025 24.7822 3.69982e-18)
(34.5471 23.9729 8.24264e-15)
(34.926 23.1505 5.41668e-15)
(35.279 22.3316 -5.35636e-15)
(35.5544 21.5546 0)
(35.6972 20.8903 2.71287e-15)
(35.6738 20.4084 0)
(35.5 20.185 4.31945e-15)
(35.1747 20.3138 -1.41551e-15)
(34.4458 20.9516 0)
(32.4725 21.8471 -9.27849e-16)
(35.7817 22.8651 -1.19332e-15)
(32.8912 24.29 -5.13079e-15)
(33.2582 23.3545 0)
(33.6483 22.4707 0)
(34.0218 21.6557 0)
(34.3494 20.9455 0)
(34.6121 20.3892 -4.61667e-15)
(34.785 20.0832 -1.53759e-18)
(34.8788 20.05 -2.4162e-15)
(34.9404 20.425 0)
(34.7915 21.3485 -1.3822e-15)
(33.564 22.884 8.53297e-16)
(37.7866 25.4429 1.09995e-15)
(31.7032 23.8674 -2.76424e-18)
(32.098 22.8494 -9.11493e-15)
(32.5112 21.9189 4.43669e-15)
(32.9241 21.0875 2.7197e-20)
(33.3239 20.3848 2.5536e-18)
(33.7047 19.8548 6.43928e-15)
(34.0768 19.5579 -1.7125e-18)
(34.4582 19.5594 -6.72297e-15)
(34.8651 19.972 -2.39247e-15)
(35.3368 20.9498 1.3447e-15)
(34.7681 22.902 -1.60435e-15)
(39.4967 26.3249 -5.10361e-16)
(30.5875 23.5243 1.32689e-14)
(31.0285 22.4155 4.28765e-15)
(31.4786 21.4128 0)
(31.9346 20.5233 0)
(32.4 19.7703 2.3818e-18)
(32.887 19.1906 -3.98969e-15)
(33.4219 18.8343 5.98847e-15)
(34.0435 18.7615 -1.4071e-18)
(34.7873 19.0772 2.13189e-15)
(35.7459 19.9713 0)
(35.9608 21.9084 -2.27013e-18)
(40.9441 26.2039 4.75153e-16)
(29.5548 23.2533 -4.20886e-15)
(30.0296 22.0453 -4.09289e-15)
(30.4991 20.953 3.99955e-15)
(30.9734 19.9772 -3.91352e-15)
(31.4708 19.1341 7.47071e-20)
(32.0204 18.4515 7.56572e-15)
(32.6687 17.9667 -3.74128e-15)
(33.4804 17.7305 1.87778e-15)
(34.5195 17.8338 0)
(35.949 18.4769 1.06143e-15)
(36.963 20.1888 6.42906e-16)
(41.9322 24.7117 -1.77563e-15)
(28.5702 23.0487 4.04008e-15)
(29.0521 21.7308 -3.95093e-15)
(29.5081 20.5348 -3.86618e-15)
(29.9593 19.4521 -7.58082e-15)
(30.4383 18.4903 7.42764e-15)
(30.9907 17.666 -7.27858e-15)
(31.6852 17.0003 0)
(32.6158 16.526 -1.76564e-15)
(33.8853 16.3049 0)
(35.7285 16.5231 0)
(37.5879 17.7691 0)
(42.4769 21.9878 1.64672e-15)
(27.543 22.8519 3.90542e-15)
(28.0042 21.4292 -7.67109e-15)
(28.4109 20.1299 7.53415e-15)
(28.7943 18.9352 7.38884e-15)
(29.1993 17.8441 3.61637e-15)
(29.6886 16.8596 0)
(30.3541 15.9817 0)
(31.3149 15.2174 3.37977e-15)
(32.7171 14.582 0)
(34.8751 14.2162 -8.83262e-16)
(37.3847 14.6091 5.26893e-16)
(42.2997 17.6994 -2.30819e-15)
(26.3546 22.5443 -7.56788e-15)
(26.7718 21.053 7.42705e-15)
(27.0934 19.6784 -7.30804e-15)
(27.3657 18.389 -1.79809e-14)
(27.6482 17.1798 -2.60329e-18)
(28.0172 16.0414 1.29312e-18)
(28.5879 14.9505 -3.35686e-15)
(29.4887 13.8809 -3.26494e-15)
(30.9062 12.7831 0)
(33.2146 11.7428 2.46098e-15)
(36.0318 10.841 4.80693e-16)
(41.1352 11.4607 -4.47805e-19)
(24.9043 21.9921 -5.87723e-18)
(25.2473 20.4961 0)
(25.4456 19.0958 0)
(25.5653 17.7523 3.4728e-15)
(25.6878 16.4608 1.02433e-14)
(25.9053 15.1999 -3.34014e-15)
(26.3472 13.9291 -2.15169e-18)
(27.1232 12.5911 -1.58922e-15)
(28.4411 11.0592 -1.54852e-15)
(30.5666 9.32117 -1.54625e-15)
(33.8396 6.83849 0)
(38.2721 -0.676771 6.30921e-16)
(21.9122 -1.34529 -4.42588e-16)
(19.2409 -1.79831 0)
(18.0065 -3.14857 -5.98165e-19)
(16.6305 -4.55074 0)
(16.0633 -5.77534 7.0429e-15)
(15.5139 -6.97392 -7.04942e-15)
(15.3609 -7.75788 0)
(17.1903 -9.64804 -1.24138e-14)
(15.288 -17.2123 2.25113e-14)
(14.8595 -28.6586 -1.61631e-14)
(19.5779 -32.533 -3.29478e-15)
(21.3774 -35.099 -3.05562e-15)
(25.5622 4.7022 -1.91817e-15)
(22.4766 2.67543 -1.4663e-15)
(22.4102 -0.446416 4.45262e-15)
(21.9758 -3.45781 0)
(22.2014 -5.91112 -5.99529e-15)
(23.6263 -9.00237 6.09995e-15)
(23.9985 -15.2681 0)
(25.6627 -24.2277 5.60392e-15)
(26.4388 -29.9632 -1.52043e-14)
(26.3456 -32.0899 9.51889e-15)
(27.2833 -32.6865 9.05603e-15)
(27.2387 -33.3253 -1.29841e-14)
(28.7864 4.25695 3.5047e-16)
(25.5659 1.72865 0)
(26.0199 -2.80752 -2.61532e-15)
(25.6973 -7.08339 0)
(26.2434 -12.0814 0)
(27.4937 -18.9872 -5.28531e-15)
(28.4007 -26.3167 2.09857e-14)
(28.5989 -31.1149 -1.49738e-14)
(27.9358 -33.3572 4.01976e-15)
(26.9229 -34.2053 0)
(26.355 -34.3465 6.92282e-15)
(25.6624 -34.7743 -3.32452e-15)
(32.2648 5.7611 -1.29481e-15)
(30.0029 1.59933 1.20445e-15)
(31.1645 -4.26905 2.35169e-15)
(31.0392 -10.369 4.74417e-15)
(31.502 -17.3733 -4.77198e-15)
(31.6227 -24.2711 -4.72721e-15)
(31.0047 -29.3482 0)
(29.9305 -31.7516 0)
(28.5407 -32.9015 3.4812e-15)
(27.3958 -33.3819 0)
(26.4953 -33.5688 4.74527e-18)
(25.6085 -33.8842 2.91723e-15)
(34.7169 3.16031 1.79335e-15)
(33.9657 -0.886414 -1.09559e-15)
(35.3526 -7.27595 -2.15758e-15)
(35.2945 -14.0506 0)
(35.0866 -21.0248 0)
(34.0009 -26.518 4.18844e-15)
(32.4014 -29.5968 0)
(30.6498 -31.0127 -7.05978e-15)
(29.0291 -31.6805 -3.27244e-15)
(27.5983 -32.0139 6.07497e-15)
(26.3963 -32.253 -8.52237e-15)
(25.297 -32.5623 5.37353e-15)
(37.5344 2.00366 -7.31374e-19)
(37.5671 -2.9343 -1.00807e-15)
(38.8825 -9.56883 1.97992e-15)
(38.4882 -16.1664 2.33797e-18)
(37.3663 -22.2686 3.88771e-15)
(35.3495 -26.3254 -7.35016e-15)
(33.1418 -28.5276 6.69321e-15)
(31.0937 -29.5989 6.32827e-18)
(29.2307 -30.2417 0)
(27.612 -30.6517 0)
(26.2254 -30.9838 1.03144e-14)
(24.9862 -31.3358 7.28849e-19)
(39.6136 -1.11473 -1.02824e-15)
(40.9586 -5.43165 -9.30081e-16)
(41.6716 -11.4436 0)
(40.8742 -17.0947 -3.57374e-15)
(38.8878 -21.9375 3.44936e-15)
(36.3199 -25.0609 9.6966e-15)
(33.761 -26.9155 6.02903e-15)
(31.4539 -27.9986 8.40273e-18)
(29.4232 -28.729 -1.06276e-14)
(27.6525 -29.2661 5.02848e-15)
(26.1147 -29.7193 4.79626e-15)
(24.7499 -30.1554 3.05252e-18)
(42.0118 -3.16972 -6.41762e-19)
(43.8792 -7.31935 1.68917e-15)
(43.8805 -12.333 0)
(42.6542 -16.8341 -3.1328e-15)
(40.133 -20.6903 -2.98763e-15)
(37.2433 -23.4203 5.77795e-18)
(34.4205 -25.2279 -1.07564e-14)
(31.8972 -26.4249 4.31175e-18)
(29.6882 -27.297 -2.76945e-18)
(27.7616 -27.9751 4.67928e-15)
(26.0793 -28.5468 -4.4913e-15)
(24.5891 -29.0663 2.4537e-18)
(43.6961 -5.94043 -4.46342e-16)
(46.3954 -8.87584 7.61076e-16)
(45.4829 -12.5217 -4.25192e-15)
(43.9628 -15.979 2.69914e-15)
(41.231 -19.1541 0)
(38.1764 -21.6866 0)
(35.1728 -23.5511 4.82191e-15)
(32.4522 -24.913 9.32545e-15)
(30.0549 -25.9537 -4.5123e-15)
(27.9593 -26.777 -4.37378e-15)
(26.1249 -27.4577 -4.24975e-15)
(24.5019 -28.0468 0)
(46.6254 -7.23578 -8.27895e-16)
(48.3523 -9.30622 2.0087e-15)
(46.4274 -11.8159 4.97402e-15)
(44.5024 -14.6367 0)
(41.6868 -17.3942 4.65265e-15)
(38.6246 -19.8252 0)
(35.5979 -21.7938 3.2126e-18)
(32.8048 -23.3484 -4.31224e-15)
(30.3036 -24.579 4.23174e-15)
(28.0929 -25.5585 0)
(26.1418 -26.3497 0)
(24.4083 -27.003 -7.96697e-15)
(46.9282 -9.96116 2.19625e-23)
(48.0616 -8.87248 1.25604e-15)
(45.3383 -10.3296 3.51695e-18)
(43.119 -12.7054 -4.44131e-15)
(40.5041 -15.2247 -2.15542e-15)
(37.7481 -17.66 -2.10377e-15)
(35.0072 -19.7929 -4.12669e-15)
(32.4108 -21.568 -1.21885e-14)
(30.0188 -23.0125 -4.00288e-15)
(27.8531 -24.1682 -7.91255e-15)
(25.9027 -25.0842 7.80565e-15)
(24.144 -25.8085 7.68557e-15)
(43.9002 -4.62166 -1.31687e-15)
(43.1401 -6.48362 -5.92089e-16)
(40.2809 -7.75112 2.94577e-18)
(38.5226 -10.0985 4.19965e-15)
(36.7878 -12.7036 0)
(34.8842 -15.2681 -3.96703e-15)
(32.8729 -17.5824 3.89418e-15)
(30.828 -19.566 3.84197e-15)
(28.8344 -21.2132 -1.14351e-14)
(26.9428 -22.5404 7.54853e-15)
(25.1709 -23.5818 -7.47695e-15)
(23.528 -24.3755 0)
(21.7454 -38.4194 9.22186e-15)
(21.5193 -40.451 -2.48683e-14)
(20.5404 -42.1814 6.266e-15)
(19.3185 -42.8479 1.59052e-14)
(17.8538 -42.9332 -1.57344e-14)
(16.1643 -42.2619 3.11543e-15)
(14.4002 -40.8641 -1.73951e-18)
(12.5899 -38.6297 -3.08475e-15)
(10.7884 -35.6402 -6.22875e-15)
(8.79243 -31.7901 0)
(5.24516 -26.629 0)
(-0.58583 -24.6848 -6.31254e-16)
(27.6267 -34.3758 -3.63746e-19)
(27.2722 -35.2885 8.19819e-15)
(26.56 -36.4018 -1.0326e-17)
(25.4223 -37.3524 0)
(23.8581 -38.2002 6.08027e-15)
(22.269 -38.5773 0)
(20.6911 -38.449 4.21834e-15)
(19.2944 -37.7628 6.60138e-15)
(18.2101 -36.5709 -4.71271e-15)
(17.264 -34.262 0)
(15.8742 -31.0402 0)
(11.4811 -31.5662 -1.19636e-19)
(25.0342 -35.3081 3.2191e-15)
(24.3107 -35.8721 -3.17989e-15)
(23.4987 -36.4919 3.16902e-15)
(22.6204 -36.9833 0)
(21.7331 -37.3039 -3.18156e-15)
(20.8719 -37.3501 6.52158e-15)
(20.1511 -37.113 -8.46904e-15)
(19.6536 -36.5724 -8.8513e-15)
(19.4824 -35.8064 5.52829e-15)
(19.4715 -34.3411 0)
(19.3055 -32.0139 1.03764e-15)
(18.8994 -33.6589 -3.81403e-20)
(24.7822 -34.2025 2.80625e-15)
(23.9729 -34.547 -5.49654e-15)
(23.1505 -34.926 5.41667e-15)
(22.3316 -35.279 -5.35635e-15)
(21.5546 -35.5544 0)
(20.8903 -35.6972 2.71287e-15)
(20.4084 -35.6738 2.75472e-15)
(20.185 -35.5 1.4383e-15)
(20.3138 -35.1747 -2.83123e-15)
(20.9516 -34.4458 0)
(21.8471 -32.4725 -9.2598e-16)
(22.8651 -35.7817 1.49204e-15)
(24.29 -32.8912 5.13487e-15)
(23.3545 -33.2582 -2.4784e-15)
(22.4707 -33.6483 0)
(21.6557 -34.0218 0)
(20.9455 -34.3494 2.35857e-15)
(20.3892 -34.6121 -2.30686e-15)
(20.0832 -34.785 -2.78889e-18)
(20.05 -34.8788 0)
(20.425 -34.9404 -1.27609e-15)
(21.3485 -34.7915 1.3822e-15)
(22.884 -33.564 -1.70748e-15)
(25.4429 -37.7866 0)
(23.8674 -31.7032 -9.42426e-15)
(22.8494 -32.098 4.55596e-15)
(21.9189 -32.5112 8.87601e-15)
(21.0875 -32.9241 2.71979e-20)
(20.3848 -33.3239 -1.07562e-14)
(19.8548 -33.7047 -4.29645e-15)
(19.5579 -34.0769 -2.68203e-18)
(19.5594 -34.4582 0)
(19.972 -34.8651 0)
(20.9498 -35.3368 -1.3447e-15)
(22.902 -34.7681 -8.0324e-16)
(26.3249 -39.4967 5.10361e-16)
(23.5243 -30.5874 4.42406e-15)
(22.4155 -31.0285 -8.57784e-15)
(21.4128 -31.4786 -4.17484e-15)
(20.5233 -31.9346 -2.33133e-18)
(19.7703 -32.4 4.02459e-15)
(19.1906 -32.887 3.98693e-15)
(18.8343 -33.4219 1.99637e-15)
(18.7615 -34.0435 2.03055e-15)
(19.0772 -34.7873 -2.1335e-15)
(19.9713 -35.7459 0)
(21.9084 -35.9608 1.43086e-15)
(26.2039 -40.9441 -9.51207e-16)
(23.2533 -29.5548 0)
(22.0453 -30.0296 4.09288e-15)
(20.953 -30.4991 0)
(19.9772 -30.9734 -2.22079e-18)
(19.1341 -31.4708 7.47055e-20)
(18.4515 -32.0204 7.56571e-15)
(17.9667 -32.6687 -1.86957e-15)
(17.7305 -33.4804 -3.7545e-15)
(17.8338 -34.5195 -1.93858e-15)
(18.4769 -35.949 1.06142e-15)
(20.1888 -36.963 -1.93311e-15)
(24.7117 -41.9322 8.86508e-16)
(23.0487 -28.5702 4.04007e-15)
(21.7308 -29.0521 -3.95092e-15)
(20.5348 -29.5081 -3.8701e-15)
(19.4521 -29.9593 3.79132e-15)
(18.4903 -30.4383 3.7138e-15)
(17.666 -30.9907 -1.09206e-14)
(17.0003 -31.6852 0)
(16.526 -32.6158 1.76563e-15)
(16.3049 -33.8853 1.78832e-15)
(16.5231 -35.7285 0)
(17.7691 -37.5879 1.74664e-15)
(21.9878 -42.4769 -4.12376e-16)
(22.8519 -27.543 0)
(21.4292 -28.0042 -7.67107e-15)
(20.1299 -28.4109 -3.77058e-15)
(18.9352 -28.7943 -7.38559e-15)
(17.8441 -29.1993 3.61637e-15)
(16.8596 -29.6886 3.53356e-15)
(15.9817 -30.3541 0)
(15.2174 -31.3149 0)
(14.582 -32.7171 0)
(14.2162 -34.8751 0)
(14.6091 -37.3847 -5.2688e-16)
(17.6995 -42.2997 -7.69314e-16)
(22.5443 -26.3546 3.78231e-15)
(21.053 -26.7718 3.71178e-15)
(19.6784 -27.0934 1.46222e-14)
(18.389 -27.3657 3.59907e-15)
(17.1798 -27.6482 1.40989e-14)
(16.0414 -28.0172 -3.44184e-15)
(14.9505 -28.588 -3.35685e-15)
(13.8809 -29.4887 0)
(12.7831 -30.9062 -3.20602e-15)
(11.7428 -33.2146 -1.6406e-15)
(10.8411 -36.0318 -9.61779e-16)
(11.4607 -41.1352 0)
(21.9921 -24.9043 0)
(20.4961 -25.2473 0)
(19.0958 -25.4456 -1.41026e-14)
(17.7523 -25.5653 -1.04236e-14)
(16.4608 -25.6878 -3.41261e-15)
(15.1999 -25.9053 0)
(13.9291 -26.3472 3.26177e-15)
(12.5911 -27.1232 0)
(11.0592 -28.4411 -1.94931e-18)
(9.32118 -30.5666 1.54625e-15)
(6.83849 -33.8396 4.27573e-16)
(-0.676761 -38.2721 -1.8819e-19)
(-1.34529 -21.9122 -2.21294e-16)
(-1.7983 -19.2409 -3.45583e-15)
(-3.14857 -18.0065 3.4959e-15)
(-4.55073 -16.6305 -3.51746e-15)
(-5.77534 -16.0632 0)
(-6.97393 -15.5139 3.52605e-15)
(-7.75788 -15.3609 0)
(-9.64804 -17.1903 3.10513e-15)
(-17.2123 -15.288 -9.64398e-15)
(-28.6586 -14.8595 9.69713e-15)
(-32.533 -19.5779 1.97222e-14)
(-35.099 -21.3774 -6.08437e-15)
(4.7022 -25.5622 0)
(2.67543 -22.4766 -2.93325e-15)
(-0.446417 -22.4102 2.96881e-15)
(-3.45781 -21.9758 2.9592e-15)
(-5.91112 -22.2014 -5.99529e-15)
(-9.00238 -23.6263 -1.68333e-19)
(-15.2681 -23.9985 -6.0387e-15)
(-24.2277 -25.6627 -1.40021e-14)
(-29.9632 -26.4388 1.52026e-14)
(-32.0899 -26.3456 -4.75519e-15)
(-32.6865 -27.2833 8.20157e-18)
(-33.3253 -27.2387 5.46394e-18)
(4.25696 -28.7864 0)
(1.72865 -25.5659 0)
(-2.80752 -26.0199 0)
(-7.0834 -25.6974 -2.60486e-15)
(-12.0814 -26.2434 0)
(-18.9872 -27.4937 -2.64837e-15)
(-26.3167 -28.4007 5.24345e-15)
(-31.1149 -28.5989 9.98916e-15)
(-33.3572 -27.9358 -4.02154e-15)
(-34.2053 -26.9229 -7.57779e-15)
(-34.3465 -26.355 -1.0382e-14)
(-34.7742 -25.6624 9.96347e-15)
(5.76109 -32.2648 0)
(1.59932 -30.0029 -1.20445e-15)
(-4.26906 -31.1645 2.35434e-15)
(-10.369 -31.0393 2.37044e-15)
(-17.3733 -31.502 0)
(-24.2711 -31.6227 -9.47179e-15)
(-29.3482 -31.0047 9.06363e-15)
(-31.7516 -29.9305 0)
(-32.9015 -28.5407 6.9525e-15)
(-33.3819 -27.3958 -9.76612e-15)
(-33.5688 -26.4953 6.14022e-15)
(-33.8841 -25.6085 5.05789e-18)
(3.1603 -34.7169 -7.13147e-23)
(-0.886424 -33.9657 2.1937e-15)
(-7.27595 -35.3526 3.02489e-18)
(-14.0506 -35.2945 0)
(-21.0248 -35.0866 -4.327e-15)
(-26.518 -34.0009 8.36479e-15)
(-29.5968 -32.4014 0)
(-31.0127 -30.6498 -3.53187e-15)
(-31.6805 -29.0291 -3.27628e-15)
(-32.0139 -27.5983 6.07497e-15)
(-32.253 -26.3963 0)
(-32.5623 -25.297 -5.37002e-15)
(2.00365 -37.5344 5.52371e-16)
(-2.93431 -37.5671 2.07774e-18)
(-9.56883 -38.8825 -1.97992e-15)
(-16.1664 -38.4882 -7.94169e-15)
(-22.2686 -37.3663 -2.25153e-18)
(-26.3254 -35.3495 7.35229e-15)
(-28.5276 -33.1418 0)
(-29.5989 -31.0937 9.4074e-15)
(-30.2416 -29.2307 -5.83248e-15)
(-30.6517 -27.612 5.45927e-15)
(-30.9838 -26.2254 2.97745e-18)
(-31.3358 -24.9862 -7.28847e-19)
(-1.11474 -39.6136 -1.54239e-15)
(-5.43166 -40.9586 -9.27214e-16)
(-11.4436 -41.6716 0)
(-17.0947 -40.8742 7.15162e-15)
(-21.9375 -38.8878 -1.03424e-14)
(-25.0609 -36.3199 -1.63859e-18)
(-26.9155 -33.761 -1.2052e-14)
(-27.9986 -31.4539 5.28541e-18)
(-28.729 -29.4232 -5.31087e-15)
(-29.2661 -27.6525 -5.03231e-15)
(-29.7193 -26.1147 4.79626e-15)
(-30.1553 -24.7499 -4.5893e-15)
(-3.16973 -42.0118 1.43416e-15)
(-7.31936 -43.8792 -8.45224e-16)
(-12.333 -43.8805 0)
(-16.8341 -42.6542 3.1328e-15)
(-20.6903 -40.133 2.98605e-15)
(-23.4203 -37.2433 2.83058e-15)
(-25.2279 -34.4205 -4.9599e-18)
(-26.4249 -31.8972 -1.41287e-18)
(-27.297 -29.6882 -4.88766e-15)
(-27.9751 -27.7617 -6.55022e-18)
(-28.5468 -26.0793 2.54573e-18)
(-29.0663 -24.5891 0)
(-5.94044 -43.6961 4.45592e-16)
(-8.87584 -46.3954 0)
(-12.5217 -45.4829 0)
(-15.979 -43.9628 -2.69914e-15)
(-19.1541 -41.231 2.58752e-15)
(-21.6866 -38.1764 -4.99213e-15)
(-23.5511 -35.1728 0)
(-24.913 -32.4522 4.66153e-15)
(-25.9537 -30.0549 -2.45299e-18)
(-26.777 -27.9593 4.37378e-15)
(-27.4576 -26.1249 -4.25446e-15)
(-28.0467 -24.5019 8.28408e-15)
(-7.23579 -46.6254 -3.52672e-19)
(-9.30622 -48.3523 -6.69787e-16)
(-11.8159 -46.4274 -2.48897e-15)
(-14.6367 -44.5024 -4.79364e-15)
(-17.3942 -41.6868 0)
(-19.8251 -38.6246 4.51564e-15)
(-21.7938 -35.5979 -8.82317e-15)
(-23.3484 -32.8048 4.313e-15)
(-24.5789 -30.3036 4.23174e-15)
(-25.5585 -28.0929 0)
(-26.3497 -26.1418 -4.06743e-15)
(-27.0029 -24.4083 -7.95909e-15)
(-9.96117 -46.9282 -7.38172e-16)
(-8.87248 -48.0616 6.27286e-16)
(-10.3296 -45.3383 2.30135e-15)
(-12.7054 -43.1189 2.21558e-15)
(-15.2247 -40.5041 -5.11922e-19)
(-17.66 -37.7481 -6.31462e-15)
(-19.7929 -35.0071 8.2466e-15)
(-21.568 -32.4108 1.62477e-14)
(-23.0125 -30.0188 -1.20166e-14)
(-24.1682 -27.8532 -7.91255e-15)
(-25.0841 -25.9027 7.79846e-15)
(-25.8085 -24.144 0)
(-4.62166 -43.9002 1.31563e-15)
(-6.48361 -43.1401 5.94647e-16)
(-7.75112 -40.2808 1.0859e-15)
(-10.0985 -38.5226 4.20451e-15)
(-12.7036 -36.7878 0)
(-15.2681 -34.8842 3.96329e-15)
(-17.5824 -32.8729 -7.79527e-15)
(-19.566 -30.828 -3.8448e-15)
(-21.2131 -28.8344 -3.81074e-15)
(-22.5404 -26.9428 7.54853e-15)
(-23.5818 -25.1709 3.74296e-15)
(-24.3755 -23.528 1.11038e-14)
(-38.4194 -21.7454 -3.07429e-15)
(-40.451 -21.5193 3.12013e-15)
(-42.1814 -20.5404 -9.41851e-15)
(-42.8478 -19.3185 2.86259e-14)
(-42.9331 -17.8538 -1.25829e-14)
(-42.2619 -16.1643 0)
(-40.8641 -14.4002 -6.18433e-15)
(-38.6296 -12.5899 4.62625e-15)
(-35.6402 -10.7884 0)
(-31.7901 -8.79242 1.07438e-18)
(-26.629 -5.24516 0)
(-24.6847 0.585835 4.20752e-16)
(-34.3758 -27.6267 -1.67834e-14)
(-35.2885 -27.2722 8.20854e-15)
(-36.4018 -26.56 8.09948e-15)
(-37.3524 -25.4223 -4.07747e-15)
(-38.2002 -23.8581 0)
(-38.5773 -22.269 0)
(-38.449 -20.6911 4.22022e-15)
(-37.7628 -19.2943 -4.40176e-15)
(-36.5708 -18.2101 0)
(-34.262 -17.264 1.22253e-15)
(-31.0402 -15.8741 -1.41548e-19)
(-31.5662 -11.4811 -1.57063e-15)
(-35.3081 -25.0342 3.22371e-15)
(-35.8721 -24.3107 -6.36596e-15)
(-36.4919 -23.4987 0)
(-36.9833 -22.6204 -6.35319e-15)
(-37.3039 -21.7331 -6.36769e-15)
(-37.3501 -20.8719 1.30424e-14)
(-37.113 -20.1511 -1.01638e-14)
(-36.5724 -19.6536 0)
(-35.8064 -19.4824 0)
(-34.3411 -19.4715 0)
(-32.0139 -19.3055 -1.03711e-15)
(-33.6589 -18.8993 0)
(-34.2024 -24.7822 -2.80625e-15)
(-34.547 -23.9729 -4.16331e-18)
(-34.926 -23.1505 0)
(-35.279 -22.3316 -3.97074e-18)
(-35.5544 -21.5546 0)
(-35.6972 -20.8903 0)
(-35.6738 -20.4084 2.7565e-15)
(-35.5 -20.185 -2.87882e-15)
(-35.1747 -20.3138 2.83274e-15)
(-34.4458 -20.9516 0)
(-32.4725 -21.8471 -9.27849e-16)
(-35.7817 -22.865 1.19332e-15)
(-32.8912 -24.29 1.02729e-14)
(-33.2582 -23.3545 -2.4784e-15)
(-33.6483 -22.4707 4.82473e-15)
(-34.0218 -21.6557 2.37057e-15)
(-34.3494 -20.9455 -7.0727e-15)
(-34.6121 -20.3892 0)
(-34.785 -20.0832 -2.25928e-15)
(-34.8788 -20.05 0)
(-34.9404 -20.425 0)
(-34.7915 -21.3485 1.3822e-15)
(-33.564 -22.884 3.76697e-19)
(-37.7866 -25.4428 1.40206e-18)
(-31.7031 -23.8674 -4.70943e-15)
(-32.098 -22.8494 -2.99937e-18)
(-32.5112 -21.9189 0)
(-32.9241 -21.0875 0)
(-33.3239 -20.3848 -6.45689e-15)
(-33.7047 -19.8548 4.29398e-15)
(-34.0768 -19.5579 4.3426e-15)
(-34.4582 -19.5594 2.24067e-15)
(-34.8651 -19.972 -4.78366e-15)
(-35.3368 -20.9498 -1.3447e-15)
(-34.7681 -22.902 0)
(-39.4967 -26.3249 5.10361e-16)
(-30.5874 -23.5243 -8.85057e-15)
(-31.0285 -22.4155 4.28246e-15)
(-31.4786 -21.4128 4.17745e-15)
(-31.9346 -20.5233 2.31642e-18)
(-32.4 -19.7703 -4.73032e-18)
(-32.887 -19.1906 -3.99188e-15)
(-33.4219 -18.8343 -5.98734e-15)
(-34.0435 -18.7615 -2.03199e-15)
(-34.7873 -19.0772 2.13189e-15)
(-35.7459 -19.9713 0)
(-35.9608 -21.9084 2.14854e-15)
(-40.9441 -26.2039 -1.42701e-15)
(-29.5548 -23.2534 8.41554e-15)
(-30.0296 -22.0453 -4.09978e-15)
(-30.4991 -20.953 -3.99954e-15)
(-30.9734 -19.9772 -7.82481e-15)
(-31.4708 -19.1341 7.68085e-15)
(-32.0204 -18.4515 -2.13089e-18)
(-32.6687 -17.9667 1.12305e-14)
(-33.4804 -17.7305 1.87549e-15)
(-34.5195 -17.8338 1.93858e-15)
(-35.949 -18.4769 0)
(-36.963 -20.1888 -1.28782e-15)
(-41.9322 -24.7117 4.44051e-16)
(-28.5701 -23.0487 0)
(-29.0521 -21.7308 3.94882e-15)
(-29.5081 -20.5348 3.86617e-15)
(-29.9593 -19.4521 -3.78949e-15)
(-30.4383 -18.4903 -1.75959e-18)
(-30.9907 -17.666 -3.64204e-15)
(-31.6852 -17.0003 -3.57147e-15)
(-32.6158 -16.526 0)
(-33.8853 -16.3049 -1.78832e-15)
(-35.7285 -16.523 -9.63134e-16)
(-37.5879 -17.7691 2.91037e-15)
(-42.4769 -21.9878 -4.10256e-16)
(-27.543 -22.8519 0)
(-28.0042 -21.4293 0)
(-28.4109 -20.1299 0)
(-28.7943 -18.9352 -1.10843e-14)
(-29.1993 -17.8441 7.23249e-15)
(-29.6886 -16.8596 7.06885e-15)
(-30.3541 -15.9817 0)
(-31.3149 -15.2174 -3.37976e-15)
(-32.7171 -14.582 0)
(-34.8751 -14.2161 -1.76703e-15)
(-37.3847 -14.6091 -5.2688e-16)
(-42.2997 -17.6994 -7.67288e-16)
(-26.3546 -22.5443 0)
(-26.7718 -21.053 0)
(-27.0934 -19.6784 7.3142e-15)
(-27.3657 -18.389 1.07856e-14)
(-27.6482 -17.1798 4.1665e-18)
(-28.0172 -16.0414 3.44314e-15)
(-28.588 -14.9505 -1.67792e-15)
(-29.4887 -13.8809 4.89807e-15)
(-30.9062 -12.783 3.20603e-15)
(-33.2146 -11.7428 1.63895e-15)
(-36.0318 -10.841 -9.61779e-16)
(-41.1352 -11.4607 -1.43454e-15)
(-24.9043 -21.9921 0)
(-25.2473 -20.4961 0)
(-25.4456 -19.0958 -7.04861e-15)
(-25.5653 -17.7523 3.47787e-15)
(-25.6878 -16.4608 -3.41262e-15)
(-25.9053 -15.1999 -3.34013e-15)
(-26.3472 -13.9291 3.26393e-15)
(-27.1232 -12.5911 0)
(-28.4411 -11.0592 -3.09622e-15)
(-30.5666 -9.32117 -1.54717e-15)
(-33.8397 -6.83848 1.28581e-15)
(-38.2721 0.676774 1.13707e-19)
(-21.9122 1.3453 -2.0172e-19)
(-19.2409 1.79831 0)
(-18.0065 3.14857 0)
(-16.6305 4.55074 -7.03248e-15)
(-16.0633 5.77534 1.05657e-14)
(-15.5139 6.97393 0)
(-15.3609 7.75789 0)
(-17.1903 9.64803 3.10512e-15)
(-15.288 17.2122 3.22098e-15)
(-14.8594 28.6585 9.70606e-15)
(-19.5779 32.533 1.64275e-14)
(-21.3774 35.099 -3.0385e-15)
(-25.5622 -4.7022 -2.96023e-19)
(-22.4766 -2.67543 0)
(-22.4102 0.446413 0)
(-21.9758 3.4578 -2.96094e-15)
(-22.2014 5.91111 5.99729e-15)
(-23.6263 9.00236 -1.83013e-14)
(-23.9985 15.268 1.207e-14)
(-25.6626 24.2277 2.80555e-15)
(-26.4387 29.9631 -5.06133e-15)
(-26.3456 32.0899 7.59244e-18)
(-27.2833 32.6865 0)
(-27.2386 33.3253 -8.64642e-15)
(-28.7864 -4.25695 3.5047e-16)
(-25.5659 -1.72865 0)
(-26.0199 2.80751 0)
(-25.6973 7.08338 -2.01305e-18)
(-26.2434 12.0814 2.40269e-18)
(-27.4937 18.9871 -5.29071e-15)
(-28.4007 26.3167 0)
(-28.5989 31.1149 -1.49791e-14)
(-27.9358 33.3572 1.20684e-14)
(-26.9229 34.2053 -3.7905e-15)
(-26.3549 34.3465 -6.92266e-15)
(-25.6623 34.7742 9.96348e-15)
(-32.2648 -5.7611 1.29481e-15)
(-30.0028 -1.59934 1.20445e-15)
(-31.1645 4.26903 0)
(-31.0392 10.369 2.37044e-15)
(-31.5019 17.3733 -2.38487e-15)
(-31.6227 24.2711 4.72721e-15)
(-31.0047 29.3482 0)
(-29.9305 31.7516 -4.13609e-15)
(-28.5407 32.9015 -1.04337e-14)
(-27.3958 33.3819 6.51205e-15)
(-26.4953 33.5688 6.14022e-15)
(-25.6085 33.8841 -1.16816e-14)
(-34.7169 -3.16032 -5.97165e-16)
(-33.9657 0.8864 -1.09613e-15)
(-35.3526 7.27592 2.15758e-15)
(-35.2945 14.0506 0)
(-35.0866 21.0248 -8.65643e-15)
(-34.0009 26.5179 8.37195e-15)
(-32.4014 29.5968 3.83898e-15)
(-30.6498 31.0127 3.52606e-15)
(-29.0291 31.6805 0)
(-27.5983 32.0139 0)
(-26.3962 32.253 0)
(-25.297 32.5623 -7.75184e-18)
(-37.5344 -2.00367 7.31374e-19)
(-37.5671 2.93428 0)
(-38.8825 9.56881 -1.97992e-15)
(-38.4882 16.1664 3.97202e-15)
(-37.3663 22.2686 3.88747e-15)
(-35.3495 26.3254 -7.35037e-15)
(-33.1418 28.5276 3.34669e-15)
(-31.0937 29.5989 -1.25463e-14)
(-29.2307 30.2417 -2.03824e-18)
(-27.612 30.6517 -4.60341e-18)
(-26.2254 30.9838 2.97745e-18)
(-24.9862 31.3358 1.47276e-14)
(-39.6136 1.11472 5.14842e-16)
(-40.9586 5.43163 1.85885e-15)
(-41.6716 11.4436 -3.61943e-15)
(-40.8742 17.0947 -3.57374e-15)
(-38.8878 21.9375 -6.89091e-15)
(-36.3199 25.0609 -3.23752e-15)
(-33.761 26.9155 -6.02572e-15)
(-31.4539 27.9986 1.12788e-14)
(-29.4232 28.729 0)
(-27.6525 29.2661 1.00579e-14)
(-26.1147 29.7193 -1.43692e-14)
(-24.7499 30.1554 4.59253e-15)
(-42.0118 3.16971 -9.55479e-16)
(-43.8792 7.31934 -2.53466e-15)
(-43.8805 12.333 4.83946e-15)
(-42.6543 16.8341 0)
(-40.133 20.6903 -2.99253e-15)
(-37.2433 23.4203 5.66433e-15)
(-34.4205 25.2279 -2.86307e-18)
(-31.8972 26.4249 1.41287e-18)
(-29.6882 27.297 -4.88305e-15)
(-27.7616 27.9751 -9.35273e-15)
(-26.0793 28.5468 4.49366e-15)
(-24.5891 29.0663 -4.34172e-15)
(-43.6961 5.94043 -8.91183e-16)
(-46.3954 8.87583 0)
(-45.4829 12.5217 0)
(-43.9628 15.979 0)
(-41.231 19.1541 2.58753e-15)
(-38.1764 21.6866 0)
(-35.1728 23.5511 -3.95247e-18)
(-32.4523 24.913 9.32211e-15)
(-30.0549 25.9537 2.95283e-18)
(-27.9593 26.777 4.37378e-15)
(-26.1249 27.4577 -4.25235e-15)
(-24.5019 28.0467 1.24239e-14)
(-46.6254 7.23578 -1.65614e-15)
(-48.3523 9.30622 3.351e-15)
(-46.4274 11.8159 -1.24331e-15)
(-44.5024 14.6367 0)
(-41.6869 17.3942 0)
(-38.6246 19.8252 0)
(-35.5979 21.7938 0)
(-32.8048 23.3484 4.31569e-15)
(-30.3036 24.5789 -1.69103e-14)
(-28.0929 25.5585 -8.29018e-15)
(-26.1418 26.3497 8.12661e-15)
(-24.4083 27.003 3.98953e-15)
(-46.9282 9.96116 -7.38172e-16)
(-48.0616 8.87248 -1.88196e-15)
(-45.3383 10.3296 -1.15343e-15)
(-43.119 12.7054 0)
(-40.5041 15.2247 0)
(-37.7481 17.66 4.21018e-15)
(-35.0072 19.7929 -8.25152e-15)
(-32.4108 21.568 1.62498e-14)
(-30.0188 23.0125 1.20205e-14)
(-27.8532 24.1682 7.90508e-15)
(-25.9027 25.0841 -7.79846e-15)
(-24.144 25.8085 6.94184e-18)
(-43.9002 4.62166 -1.24236e-18)
(-43.1401 6.48361 0)
(-40.2809 7.75112 2.17035e-15)
(-38.5226 10.0985 -6.30587e-15)
(-36.7878 12.7036 6.10277e-15)
(-34.8842 15.2681 3.741e-18)
(-32.8729 17.5824 3.89418e-15)
(-30.828 19.566 -3.8448e-15)
(-28.8344 21.2131 -1.90532e-14)
(-26.9428 22.5404 0)