/*--------------------------------*- C++ -*----------------------------------*\
| =========                 |                                                 |
| \\      /  F ield         | OpenFOAM: The Open Source CFD Toolbox           |
|  \\    /   O peration     | Version:  2212                                  |
|   \\  /    A nd           | Website:  www.openfoam.com                      |
|    \\/     M anipulation  |                                                 |
\*---------------------------------------------------------------------------*/
FoamFile
{
    version     2.0;
    format      ascii;
    arch        "LSB;label=32;scalar=64";
    class       volScalarField;
    location    "1000";
    object      p;
}
// * * * * * * * * * * * * * * * * * * * * * * * * * * * * * * * * * * * * * //

dimensions      [0 2 -2 0 0 0 0];

internalField   nonuniform List<scalar> 
50904
(
144251
148531
-261916
-253919
136583
141201
-258512
-249885
127351
132421
-254606
-245175
116056
121680
-249830
-239463
101882
108180
-243790
-232325
84166.7
91265.9
-236225
-223491
62431.5
70472.6
-227030
-212888
36158.5
45233.1
-216196
-200608
5178.5
15332.2
-204017
-187192
-28406.5
-17219.5
-191803
-174220
-63452.1
-51600.1
-180405
-162720
-96637.1
-84629.2
-171082
-154098
-122551
-111091
-165101
-149631
-137816
-127806
-161722
-148395
-139595
-131893
-159670
-148953
-130239
-125266
-158230
-149960
-119086
-116587
-157383
-151127
-108912
-108444
-157503
-152833
-100429
-101337
-158688
-155134
-95529.8
-96969.4
-161747
-158801
-93030.6
-94508.8
-165173
-162626
-91640.4
-93039.3
-168749
-166517
-89036.7
-90398.1
-171837
-169808
-87616.8
-88969.4
-173644
-171648
-87825.8
-89165.7
-174306
-172223
-89125.6
-90460.5
-174202
-171980
-90993
-92316.1
-173642
-171286
-93003.8
-94314.2
-172931
-170461
-94918.7
-96220
-172219
-169659
-96623.3
-97928.3
-171554
-168928
-98090.6
-99400.6
-170971
-168299
-99331.1
-100648
-170477
-167774
-100361
-101683
-170066
-167340
-101202
-102531
-169731
-166988
-101898
-103233
-169456
-166701
-102428
-103772
-169239
-166476
-104297
-94565.8
-159011
-161774
-155709
-167726
-162431
-177789
-165666
-182627
-168332
-185974
-170537
-188451
-104479
-93705.7
-157318
-158165
-154326
-164027
-160667
-173667
-163924
-178610
-166486
-182053
-168653
-184626
-104618
-92484.7
-155253
-153618
-152550
-159378
-158519
-168712
-161805
-173912
-164318
-177615
-166489
-180398
-105072
-91362.4
-152930
-148298
-150716
-154282
-156188
-163457
-159499
-169131
-161961
-173200
-164121
-176191
-106044
-90510.9
-150284
-141995
-148882
-148695
-153714
-157847
-156998
-164095
-159406
-168574
-161544
-171754
-107745
-90153.6
-147335
-134693
-147081
-142658
-151228
-151928
-154413
-158733
-156774
-163629
-158897
-166978
-110388
-90613.4
-144269
-126850
-145401
-136590
-148938
-146132
-151904
-153324
-154151
-158499
-156205
-161892
-114202
-92347.1
-141462
-119387
-144072
-131180
-147356
-141335
-150215
-148979
-152419
-154468
-154428
-157897
-119227
-95695
-139189
-113140
-142903
-126192
-145980
-136430
-148593
-143950
-150634
-149387
-152517
-152643
-125053
-100635
-138306
-110061
-142854
-123823
-146116
-134350
-148704
-141895
-150679
-147328
-152383
-150335
-131277
-107073
-138864
-110421
-143556
-123437
-146819
-133383
-149268
-140404
-151118
-145515
-152587
-148101
-137333
-114600
-141259
-114791
-145849
-126578
-149154
-135807
-151542
-142290
-153320
-147046
-154464
-149109
-142535
-122342
-145100
-122090
-149350
-132183
-152463
-140170
-154681
-145798
-156341
-149996
-156974
-151334
-146707
-129938
-149608
-131104
-153672
-139677
-156590
-146435
-158614
-151131
-160169
-154648
-161368
-156371
-149575
-136567
-153708
-140082
-157710
-147526
-160355
-153062
-162164
-156792
-163577
-159529
-164345
-160805
-150887
-140983
-156376
-146541
-160328
-153219
-162695
-157803
-164211
-160722
-165278
-162688
-165486
-163426
-151606
-144036
-158079
-150923
-162051
-157101
-164262
-161053
-165603
-163438
-166457
-164892
-166287
-165280
-152365
-146562
-159273
-154051
-163192
-159767
-165269
-163233
-166459
-165216
-167123
-166281
-166772
-166458
-153444
-148976
-160415
-156621
-164135
-161806
-166013
-164779
-166903
-166310
-167149
-166907
-167268
-167377
-154765
-151296
-161581
-158830
-165033
-163497
-166733
-166071
-167532
-167370
-167727
-167830
-167656
-168100
-155797
-153145
-162484
-160566
-165685
-164776
-167212
-167004
-167926
-168110
-168104
-168489
-168016
-168708
-156043
-154088
-162984
-161758
-165962
-165624
-167389
-167637
-168289
-168824
-168814
-169456
-167587
-168693
-154999
-153512
-163248
-162466
-165890
-165938
-167098
-167677
-167886
-168730
-168410
-169353
-167641
-168911
-153736
-152431
-163472
-162901
-165601
-165858
-166611
-167380
-167302
-168336
-167789
-168933
-167422
-168786
-152827
-151498
-163720
-163209
-165234
-165577
-166137
-166989
-166782
-167905
-167243
-168492
-167100
-168509
-152383
-150925
-163941
-163404
-164845
-165202
-165727
-166600
-166345
-167501
-166779
-168074
-166737
-168163
-152322
-150698
-164077
-163474
-164504
-164831
-165430
-166287
-166025
-167174
-166436
-167738
-166442
-167863
-152482
-150694
-164142
-163466
-164247
-164532
-165243
-166073
-165801
-166936
-166186
-167483
-166195
-167606
-152744
-150821
-164161
-163416
-164079
-164322
-165143
-165946
-165648
-166764
-166008
-167296
-166006
-167412
-153040
-151011
-164146
-163350
-163989
-164203
-165100
-165886
-165535
-166642
-165876
-167160
-165867
-167271
-153325
-151217
-164115
-163285
-163957
-164153
-165092
-165869
-165451
-166552
-165771
-167052
-165756
-167160
-153577
-151413
-164085
-163231
-163961
-164148
-165104
-165879
-165395
-166493
-165687
-166963
-165661
-167063
-153790
-151584
-164057
-163188
-163984
-164168
-165126
-165903
-165367
-166465
-165618
-166884
-165555
-166950
-153969
-151730
-164036
-163157
-164016
-164200
-165155
-165938
-165377
-166478
-165589
-166841
-165454
-166831
-154116
-151850
-164022
-163137
-164049
-164236
-165189
-165981
-165430
-166540
-165638
-166882
-165392
-166745
-154218
-151934
-164008
-163121
-164069
-164261
-165213
-166016
-165485
-166610
-165716
-166959
-165420
-166776
-172609
-190552
-174421
-192499
-175915
-193864
-177711
-195262
-180880
-197602
-188756
-204059
-170739
-186720
-172574
-188725
-174097
-190190
-175981
-191811
-179310
-194543
-187479
-201848
-168629
-182620
-170551
-184813
-172082
-186310
-173957
-187917
-177356
-190783
-185833
-198941
-166302
-178566
-168296
-180953
-169819
-182453
-171673
-183988
-175118
-186831
-183832
-195533
-163757
-174298
-165812
-176901
-167300
-178398
-169103
-179866
-172557
-182670
-181400
-191570
-161138
-169698
-163250
-172540
-164666
-174020
-166358
-175420
-169730
-178200
-178528
-187049
-158448
-164740
-160590
-167789
-161892
-169223
-163444
-170575
-166712
-173427
-175351
-182230
-156689
-160858
-158842
-164073
-159973
-165405
-161280
-166602
-164234
-169307
-172315
-177718
-154740
-155582
-156831
-158831
-157740
-160020
-158794
-161116
-161495
-163939
-169091
-172599
-154522
-153141
-156608
-156433
-157276
-157456
-158006
-158336
-160273
-160950
-166968
-169199
-154514
-150552
-156522
-153714
-156934
-154535
-157357
-155212
-159253
-157700
-165162
-165733
-156102
-151108
-158030
-154056
-158199
-154661
-158313
-155084
-159783
-157216
-164748
-164429
-158214
-152779
-160121
-155507
-160096
-155905
-159947
-156076
-161042
-157818
-165147
-164082
-162036
-157444
-162470
-158794
-162284
-158902
-162237
-159007
-163201
-160428
-166392
-165437
-164446
-161588
-164609
-162631
-164339
-162482
-164211
-162316
-164954
-163284
-167412
-167111
-165522
-164243
-165941
-165384
-165528
-164985
-165173
-164499
-165623
-165035
-167565
-167984
-166179
-166049
-166604
-167086
-166102
-166501
-165644
-165830
-165936
-166105
-167510
-168462
-166573
-167202
-166853
-168067
-166291
-167329
-165799
-166534
-165989
-166619
-167257
-168531
-167460
-168494
-167224
-168997
-166497
-167978
-165953
-166951
-165970
-166729
-166907
-168281
-167594
-169019
-167268
-169440
-166648
-168416
-166223
-167379
-166287
-167091
-167095
-168456
-167727
-169409
-167207
-169628
-166764
-168711
-166548
-167814
-166720
-167571
-167424
-168763
-166025
-168117
-165899
-168462
-166186
-168256
-166641
-168104
-167280
-168366
-167923
-169390
-166127
-168148
-165619
-168015
-166053
-168072
-166684
-168279
-167395
-168754
-167984
-169655
-166047
-167946
-165284
-167462
-165826
-167750
-166582
-168257
-167335
-168909
-167857
-169696
-165826
-167593
-164964
-166912
-165608
-167415
-166463
-168177
-167254
-168987
-167718
-169683
-165534
-167173
-164679
-166412
-165405
-167092
-166322
-168046
-167138
-168980
-167562
-169613
-165276
-166811
-164457
-166012
-165246
-166828
-166204
-167922
-167038
-168953
-167435
-169546
-165081
-166530
-164297
-165715
-165125
-166629
-166104
-167819
-166953
-168927
-167343
-169502
-164939
-166320
-164184
-165497
-165037
-166479
-166024
-167732
-166887
-168904
-167297
-169494
-164823
-166162
-164093
-165342
-164963
-166372
-165952
-167662
-166831
-168891
-167289
-169525
-164714
-166027
-164001
-165213
-164890
-166282
-165883
-167601
-166793
-168892
-167313
-169585
-164597
-165893
-163885
-165076
-164798
-166183
-165809
-167537
-166783
-168927
-167366
-169670
-164427
-165702
-163700
-164869
-164654
-166029
-165717
-167452
-166815
-169018
-167436
-169772
-164184
-165421
-163401
-164531
-164427
-165775
-165606
-167334
-166908
-169193
-167527
-169899
-163786
-164936
-162827
-163845
-164027
-165281
-165483
-167174
-167072
-169471
-167646
-170066
-163307
-164363
-162056
-162908
-163582
-164693
-165383
-167023
-167242
-169767
-167754
-170222
-199133
-211084
-205364
-216807
-207685
-219553
-208962
-221228
-210011
-222856
-211292
-225274
-198349
-210089
-204936
-216456
-207404
-219296
-208746
-220966
-209863
-222597
-211296
-225180
-197305
-208656
-204342
-215813
-207015
-218873
-208446
-220612
-209642
-222290
-211262
-225105
-195894
-206740
-203369
-214592
-206225
-217812
-207728
-219587
-209008
-221335
-210858
-224480
-193978
-204252
-201862
-212750
-204892
-216157
-206459
-217987
-207817
-219806
-209911
-223296
-191447
-201104
-199659
-210250
-202836
-213890
-204449
-215793
-205868
-217684
-208206
-221527
-188318
-197361
-196622
-206999
-199828
-210770
-201419
-212682
-202864
-214605
-205462
-218790
-184909
-193394
-193171
-203575
-196369
-207511
-197888
-209392
-199285
-211260
-202037
-215605
-180952
-188452
-188698
-198679
-191684
-202584
-193045
-204387
-194333
-206177
-197131
-210556
-177742
-184533
-184903
-194651
-187645
-198460
-188790
-200102
-189882
-201696
-192544
-205830
-174678
-180049
-180915
-189325
-183281
-192786
-184177
-194224
-185021
-195581
-187280
-199164
-172877
-177144
-178158
-185304
-180124
-188296
-180760
-189465
-181307
-190501
-182919
-193255
-171852
-174840
-176107
-181537
-177645
-183930
-178031
-184796
-178264
-185470
-179023
-187191
-171450
-173885
-174673
-179040
-175822
-180759
-175958
-181152
-175931
-181426
-176182
-182714
-171163
-173534
-173491
-177271
-174252
-178333
-174110
-178245
-173808
-178103
-173684
-178989
-170604
-173084
-172393
-175890
-172799
-176444
-172361
-175967
-171876
-175545
-172130
-176563
-170014
-172615
-171481
-174845
-171676
-175078
-171067
-174342
-170505
-173744
-171127
-174899
-169532
-172176
-170861
-174093
-170817
-174033
-170030
-173057
-169360
-172296
-170241
-173628
-169752
-172275
-171263
-174169
-170487
-173444
-169100
-171873
-167727
-170469
-167686
-171073
-169645
-172117
-171080
-173833
-170332
-173076
-168949
-171423
-167703
-170075
-168068
-171016
-169680
-172100
-171098
-173751
-170413
-172968
-169132
-171288
-168036
-170017
-168425
-171008
-168801
-171382
-169847
-172725
-170389
-172919
-170859
-172690
-171442
-172783
-172971
-174747
-168569
-171157
-169465
-172379
-170180
-172787
-170978
-172967
-171654
-173184
-171875
-173925
-168271
-170857
-169047
-171983
-169825
-172531
-170793
-173014
-171447
-173283
-170577
-172911
-167948
-170533
-168625
-171588
-169465
-172277
-170578
-173037
-171286
-173429
-169893
-172440
-167619
-170188
-168226
-171192
-169105
-171990
-170305
-172962
-171090
-173507
-169604
-172313
-167317
-169867
-167884
-170857
-168794
-171743
-170051
-172876
-170928
-173578
-169546
-172399
-167029
-169562
-167580
-170562
-168509
-171511
-169802
-172758
-170749
-173581
-169459
-172413
-166770
-169284
-167348
-170342
-168296
-171342
-169603
-172667
-170597
-173583
-169396
-172466
-166534
-169028
-167164
-170167
-168128
-171198
-169439
-172567
-170465
-173546
-169339
-172471
-166323
-168797
-167018
-170041
-168011
-171102
-169329
-172501
-170386
-173530
-169317
-172491
-166135
-168592
-166873
-169925
-167931
-171031
-169273
-172463
-170366
-173536
-169326
-172512
-165963
-168410
-166700
-169786
-167904
-171004
-169313
-172502
-170459
-173631
-169425
-172609
-165788
-168228
-166475
-169586
-167942
-171033
-169490
-172662
-170722
-173874
-169641
-172812
-165590
-168017
-166186
-169306
-168069
-171170
-169962
-173135
-171386
-174524
-170084
-173253
-165398
-167811
-165894
-169015
-168209
-171339
-170569
-173791
-172316
-175477
-170577
-173776
-212516
-227923
-213586
-229968
-214672
-231965
-215928
-234319
-217426
-237123
-219316
-240647
-213792
-226238
-212647
-228090
-213847
-230502
-215056
-232873
-216459
-235655
-218135
-238903
-220287
-242963
-214949
-228792
-212759
-228319
-214097
-231030
-215453
-233740
-217046
-237069
-218981
-241072
-221523
-246046
-216473
-232204
-212519
-228059
-213998
-231042
-215525
-234040
-217351
-237962
-219645
-243071
-222736
-249494
-218205
-236261
-211747
-227277
-213372
-230523
-215084
-233749
-217181
-238212
-219924
-244604
-223742
-253057
-220117
-241053
-210214
-225923
-211979
-229404
-213888
-232814
-216284
-237737
-219548
-245370
-224245
-256186
-222074
-246523
-207614
-223544
-209463
-227166
-211579
-230726
-214319
-236069
-218171
-244813
-223842
-257914
-223842
-252316
-204248
-220570
-206078
-224143
-208296
-227662
-211254
-233151
-215562
-242537
-222115
-257220
-224938
-257448
-199348
-215666
-201171
-219258
-203529
-222835
-206761
-228537
-211570
-238387
-218992
-253945
-224914
-260667
-194609
-210781
-196282
-214161
-198603
-217544
-201826
-223036
-206737
-232623
-214615
-248049
-223255
-260407
-189123
-203811
-190808
-207201
-193134
-210531
-196347
-215920
-201305
-225263
-209423
-240263
-219789
-255944
-184367
-197239
-186112
-200585
-188389
-203755
-191421
-208785
-196125
-217459
-203963
-231362
-214645
-247618
-180004
-190400
-181916
-193764
-184155
-196775
-186928
-201365
-191196
-209202
-198345
-221645
-208212
-236640
-176545
-185021
-177982
-187531
-180046
-190224
-182700
-194496
-186643
-201575
-193051
-212456
-201448
-225003
-173562
-180548
-174604
-182370
-176566
-184776
-178922
-188461
-182280
-194396
-187660
-203344
-194334
-213156
-172056
-177881
-172383
-178901
-173883
-180760
-175784
-183763
-178582
-188675
-183087
-196057
-188413
-203756
-170890
-175912
-170477
-176217
-171678
-177703
-173313
-180237
-175764
-184436
-179728
-190782
-184232
-197154
-170047
-174512
-169210
-174347
-170052
-175448
-171430
-177577
-173636
-181244
-177285
-186907
-181500
-192641
-169052
-173077
-169730
-174045
-169630
-174331
-170368
-175750
-172219
-178784
-175488
-183756
-179852
-189491
-169169
-172708
-169236
-173115
-169027
-173256
-169612
-174407
-171192
-176973
-174076
-181352
-178532
-187119
-169398
-172547
-169330
-172788
-169024
-172797
-169410
-173650
-170675
-175717
-173113
-179448
-177487
-185178
-170422
-173317
-166956
-170654
-167674
-171436
-168887
-172883
-170308
-174930
-172633
-178369
-176748
-183823
-169522
-172504
-167376
-170895
-168148
-171717
-169152
-172943
-170362
-174711
-172498
-177858
-176707
-183361
-168762
-171810
-167933
-171325
-168593
-172066
-169363
-173082
-170403
-174663
-172348
-177590
-176976
-183498
-168420
-171528
-168265
-171632
-168836
-172309
-169484
-173222
-170431
-174713
-172168
-177449
-177257
-183883
-168350
-171474
-168405
-171749
-168899
-172386
-169487
-173267
-170401
-174745
-171922
-177313
-177333
-184186
-168326
-171476
-168407
-171760
-168852
-172378
-169404
-173248
-170312
-174745
-171667
-177206
-177117
-184238
-168209
-171398
-168313
-171685
-168734
-172305
-169258
-173173
-170168
-174705
-171439
-177151
-176769
-184199
-168162
-171414
-168226
-171617
-168616
-172226
-169096
-173075
-169989
-174625
-171211
-177087
-176385
-184095
-168101
-171365
-168121
-171510
-168487
-172117
-168915
-172936
-169786
-174497
-170990
-177006
-176007
-183936
-168051
-171321
-168037
-171421
-168375
-172017
-168741
-172790
-169588
-174355
-170798
-176923
-175656
-183755
-168013
-171271
-167973
-171342
-168273
-171918
-168579
-172644
-169408
-174213
-170629
-176835
-175338
-183562
-168015
-171255
-167926
-171273
-168171
-171815
-168432
-172505
-169251
-174082
-170488
-176756
-175076
-183399
-168040
-171259
-167859
-171181
-168054
-171694
-168298
-172373
-169113
-173962
-170364
-176678
-174858
-183259
-168032
-171236
-167720
-171015
-167913
-171546
-168177
-172251
-168993
-173854
-170257
-176606
-174678
-183141
-167863
-171072
-167548
-170819
-167777
-171406
-168077
-172150
-168897
-173768
-170169
-176548
-174542
-183057
-199179
-211403
-195441
-204303
-142237
-150371
-195768
-204979
-200059
-213257
-196012
-205411
-142252
-150636
-196947
-206241
-201223
-215745
-196787
-206924
-142253
-150976
-198485
-207893
-202568
-218691
-197728
-208775
-142231
-151365
-200421
-209967
-204100
-222164
-198851
-211029
-142168
-151803
-202810
-212533
-205764
-226165
-200159
-213742
-142051
-152301
-205882
-215826
-207491
-230625
-201637
-216927
-141844
-152835
-209742
-219964
-209049
-235130
-203169
-220442
-141508
-153363
-214585
-225150
-210155
-238956
-204546
-223937
-141012
-153823
-220413
-231403
-210355
-240993
-205449
-226826
-140394
-154177
-227314
-238797
-209306
-240189
-205316
-228063
-139625
-154227
-234924
-246961
-206931
-236334
-203612
-226767
-138969
-154152
-243418
-256010
-203025
-229496
-199736
-222058
-139073
-154402
-252107
-265117
-198030
-220669
-194188
-214447
-141120
-155956
-258006
-271074
-192094
-210605
-187815
-205137
-144742
-158485
-259756
-272336
-186911
-202161
-183264
-197883
-147720
-160328
-262486
-273884
-183346
-196200
-180632
-193083
-150843
-162502
-263416
-273177
-181429
-192510
-179774
-190561
-153760
-164636
-263083
-270993
-181204
-190891
-181179
-190658
-155515
-165747
-264636
-270655
-180900
-189637
-183330
-191851
-155213
-165040
-268522
-272894
-180471
-188466
-186294
-194014
-154067
-163634
-273514
-276622
-179192
-186749
-189373
-196575
-151964
-161385
-279052
-281431
-177754
-185068
-192870
-199854
-147510
-156957
-289418
-291422
-176442
-183746
-195465
-202579
-143499
-153170
-297899
-299855
-175513
-182971
-196635
-204143
-141404
-151332
-302346
-304552
-174818
-182538
-196843
-204867
-140723
-150885
-304135
-306717
-174560
-182571
-196253
-204730
-141505
-151858
-303372
-306283
-174634
-182902
-195055
-203910
-143373
-153845
-300458
-303717
-174650
-183155
-193693
-202931
-145512
-156020
-296839
-300520
-174674
-183421
-192416
-201953
-147654
-158181
-293135
-297148
-174748
-183695
-191270
-201020
-149654
-160195
-289538
-293786
-174853
-183954
-190266
-200173
-151508
-162047
-286085
-290529
-174973
-184190
-189423
-199445
-153147
-163664
-282943
-287566
-175072
-184378
-188724
-198833
-154537
-165032
-280196
-284967
-175150
-184528
-188140
-198319
-155727
-166197
-277777
-282680
-175214
-184652
-187694
-197929
-156699
-167146
-275808
-280818
-770266
-795546
1.19897e+06
1.25924e+06
-2.518e+06
-2.62371e+06
-763531
-788663
1.19068e+06
1.25117e+06
-2.51645e+06
-2.62294e+06
-755371
-780305
1.18092e+06
1.24164e+06
-2.51359e+06
-2.62104e+06
-745135
-769774
1.16913e+06
1.23009e+06
-2.50999e+06
-2.61856e+06
-731864
-756057
1.15396e+06
1.21511e+06
-2.50526e+06
-2.61513e+06
-714416
-737947
1.13363e+06
1.19485e+06
-2.49803e+06
-2.6094e+06
-691546
-714153
1.10674e+06
1.16786e+06
-2.48578e+06
-2.59879e+06
-661734
-683070
1.0712e+06
1.13192e+06
-2.4677e+06
-2.58249e+06
-623570
-643136
1.02433e+06
1.08404e+06
-2.44217e+06
-2.5587e+06
-577000
-594237
962211
1.02013e+06
-2.40125e+06
-2.51899e+06
-519860
-534348
880220
935411
-2.33577e+06
-2.45422e+06
-453574
-465034
776159
827638
-2.23459e+06
-2.35247e+06
-384033
-392295
652827
699620
-2.08609e+06
-2.20143e+06
-315999
-321315
518210
559919
-1.88175e+06
-1.99231e+06
-262234
-265346
394011
431672
-1.64838e+06
-1.75219e+06
-235553
-237575
316280
352704
-1.45733e+06
-1.55538e+06
-221768
-223146
264037
300052
-1.29518e+06
-1.38669e+06
-215896
-217010
222904
258307
-1.1591e+06
-1.24348e+06
-216635
-217956
191925
226417
-1.04676e+06
-1.12482e+06
-220897
-222767
164962
197687
-955039
-1.02739e+06
-226421
-228801
142008
172730
-882143
-949538
-233310
-236087
126443
155473
-830335
-894166
-244674
-247818
128242
156562
-816686
-879419
-253737
-257025
134432
162514
-819907
-882973
-258666
-261883
138895
166860
-826854
-890827
-259947
-262909
140736
168560
-833670
-898619
-258434
-261029
140066
167697
-838816
-904600
-255286
-257443
137888
165260
-843002
-909418
-251370
-253054
134961
162015
-846480
-913273
-247184
-248400
131583
158297
-848930
-915936
-243106
-243892
128106
154502
-850460
-917603
-239336
-239741
124754
150849
-851401
-918584
-235983
-236062
121690
147513
-851976
-919125
-233081
-232886
118997
144583
-852335
-919422
-230536
-230105
116545
141917
-852347
-919343
-228476
-227856
114458
139646
-851796
-918669
-23533.7
31382.3
61501.2
87872.4
111265
125136
-207038
-207400
-223992
-241619
-254816
-264571
-27041.7
26772.1
55860.8
81319.5
104094
117647
-206411
-206009
-222330
-239614
-252424
-261754
-31326.4
21175.4
49022.5
73385.1
95420.1
108599
-205752
-204456
-220482
-237381
-249743
-258568
-36550.7
14327.7
40683.6
63715
84835.8
97551.2
-204862
-202537
-218189
-234603
-246408
-254609
-43052.4
5754.38
30281.6
51656.2
71611.6
83731.6
-203605
-200082
-215231
-231008
-242095
-249504
-51123.3
-4958.64
17347
36676.9
55158.9
66523.6
-201845
-196959
-211442
-226392
-236568
-242983
-61022.2
-18190.5
1483.3
18354
35024.2
45472.2
-199404
-193069
-206691
-220606
-229667
-234890
-72973.9
-34290
-17675.4
-3707.33
10764.4
20107.8
-196137
-188340
-200876
-213534
-221282
-225131
-87013.6
-53409.8
-40262
-29627.3
-17762.2
-9728.01
-191952
-182834
-194038
-205230
-211504
-213855
-102693
-74940.6
-65339
-58103.2
-48929.7
-42131.7
-186933
-176962
-186676
-196352
-201189
-202136
-118861
-97736.4
-91680.6
-87819
-81414.1
-75854
-181324
-171342
-179432
-187593
-191095
-190807
-133376
-119314
-116537
-115743
-111990
-107625
-175658
-166843
-173272
-180012
-182374
-181107
-142892
-135545
-135304
-136833
-135284
-132014
-170388
-164096
-169050
-174598
-176127
-174237
-144605
-142829
-144130
-147171
-147422
-145402
-164819
-162054
-165810
-170491
-171633
-169619
-139349
-141235
-142451
-145448
-146389
-145236
-158839
-160210
-163114
-166996
-167909
-166062
-129991
-133157
-132921
-134541
-135028
-134186
-153305
-157948
-160428
-163715
-164541
-163106
-120468
-124016
-122333
-122435
-122250
-121610
-148586
-155563
-158010
-160971
-161853
-160940
-111832
-115559
-112870
-111693
-110854
-110341
-144770
-153429
-156185
-159125
-160250
-159934
-104440
-108388
-105338
-103324
-101876
-101267
-142059
-151950
-155289
-158499
-160009
-160257
-97964.5
-102505
-99946.3
-97929.7
-96405.2
-95978.3
-140252
-151232
-155529
-159450
-161626
-162564
-93036.5
-98321.4
-96663
-95059.6
-93659.5
-93400.4
-138872
-150654
-156004
-160824
-163759
-165398
-89522.2
-95405.2
-94482.3
-93338.2
-92093.6
-92056.8
-137611
-150089
-156367
-162161
-165928
-168389
-85801.6
-91854.8
-91287.9
-90580.2
-89442.9
-89662.5
-136672
-149749
-156586
-163276
-167800
-171069
-83338.9
-89588.7
-89273.6
-88950.4
-87879.9
-88361.7
-135815
-149257
-156310
-163639
-168707
-172604
-82383.3
-88916.1
-88860.7
-88879.1
-87868.3
-88573.4
-134883
-148486
-155563
-163288
-168712
-173061
-82558.1
-89383.1
-89576.3
-89864.7
-88912
-89779.3
-133927
-147576
-154593
-162527
-168156
-172802
-83427.2
-90504.4
-90922.2
-91406.4
-90516.5
-91499.7
-133020
-146665
-153598
-161608
-167333
-172141
-84644.5
-91915.2
-92518.3
-93129.2
-92292.9
-93352.3
-132205
-145834
-152693
-160707
-166471
-171361
-85969.9
-93380.3
-94127.7
-94809.8
-94011.2
-95113.6
-131496
-145111
-151915
-159899
-165673
-170599
-87255.7
-94762.4
-95618.4
-96331.4
-95556.1
-96681.9
-130896
-144505
-151271
-159208
-164974
-169909
-88425.3
-95998.2
-96937.8
-97659.3
-96899.9
-98040.3
-130397
-144006
-150749
-158635
-164386
-169315
-89447.5
-97066.8
-98072.1
-98789.8
-98040.8
-99190.7
-129985
-143600
-150331
-158167
-163901
-168820
-90316.6
-97969.6
-99026.6
-99734.6
-98992.4
-100149
-129650
-143272
-149997
-157788
-163505
-168410
-91046.5
-98723.3
-99820.5
-100515
-99776.9
-100937
-129377
-143008
-149733
-157485
-163186
-168078
-91669.5
-99361.2
-100490
-101169
-100431
-101593
-129152
-142793
-149520
-157239
-162928
-167808
-92169.3
-99861.9
-101010
-101673
-100931
-102093
-128978
-142622
-149351
-157044
-162722
-167593
-133806
-128694
-128327
-128826
-124953
-122849
-152708
-154329
-158807
-166413
-170539
-176128
-151173
-148920
-151452
-158390
-162479
-168791
-150658
-150636
-153291
-160616
-165252
-172229
-154371
-150562
-153039
-160491
-165444
-172875
-171736
-150592
-153113
-160660
-165826
-173557
-137873
-150468
-153115
-160760
-166113
-174084
-134517
-129225
-129006
-129580
-125697
-123474
-152647
-154205
-158715
-166252
-170214
-175508
-151325
-149016
-151636
-158589
-162605
-168678
-150568
-150617
-153307
-160603
-165125
-171826
-154554
-150619
-153119
-160553
-165399
-172557
-175910
-150720
-153184
-160698
-165745
-173196
-151078
-150576
-153195
-160801
-166030
-173718
-135405
-129874
-129833
-130495
-126592
-124200
-152611
-154086
-158640
-166102
-169867
-174787
-151559
-149137
-151855
-158814
-162721
-168466
-150610
-150617
-153353
-160618
-164997
-171344
-155064
-150703
-153228
-160637
-165345
-172155
-178181
-150906
-153289
-160764
-165664
-172767
-158273
-150725
-153299
-160862
-165945
-173290
-136539
-130740
-130929
-131717
-127817
-125230
-152554
-153918
-158512
-165875
-169404
-173859
-151856
-149312
-152144
-159110
-162885
-168235
-150768
-150621
-153402
-160623
-164825
-170748
-156261
-150821
-153363
-160735
-165269
-171661
-178601
-151133
-153426
-160850
-165567
-172256
-160476
-150887
-153424
-160934
-165839
-172779
-138023
-131929
-132418
-133386
-129530
-126715
-152463
-153668
-158283
-165506
-168738
-172595
-152204
-149570
-152535
-159506
-163121
-167983
-151026
-150636
-153465
-160628
-164615
-170031
-157694
-150976
-153523
-160836
-165145
-171028
-178488
-151417
-153606
-160957
-165441
-171624
-161028
-151083
-153584
-161026
-165705
-172154
-139941
-133542
-134417
-135634
-131875
-128792
-152334
-153313
-157920
-164946
-167802
-170896
-152577
-149924
-153038
-159997
-163402
-167646
-151417
-150693
-153574
-160670
-164402
-169211
-158912
-151173
-153711
-160938
-164967
-170238
-178152
-151777
-153833
-161082
-165274
-170847
-161020
-151329
-153788
-161138
-165536
-171404
-142336
-135678
-137031
-138569
-134977
-131582
-152165
-152852
-157414
-164179
-166585
-168752
-152927
-150370
-153625
-160528
-163645
-167125
-151937
-150833
-153772
-160783
-164211
-168300
-159738
-151432
-153944
-161056
-164742
-169274
-177613
-152235
-154125
-161230
-165052
-169867
-160789
-151646
-154045
-161263
-165304
-170439
-145242
-138408
-140330
-142267
-138929
-135191
-152011
-152332
-156811
-163262
-165166
-166300
-153233
-150874
-154230
-161002
-163744
-166363
-152549
-151091
-154077
-160968
-164044
-167395
-160233
-151781
-154241
-161201
-164509
-168334
-176901
-152817
-154485
-161400
-164817
-168927
-160451
-152051
-154356
-161403
-165058
-169538
-148594
-141723
-144280
-146679
-143687
-139585
-151964
-151865
-156237
-162336
-163709
-163712
-153482
-151398
-154799
-161348
-163609
-165187
-153155
-151487
-154496
-161199
-163823
-166211
-160477
-152263
-154648
-161391
-164215
-167068
-176056
-153574
-154976
-161620
-164510
-167619
-160059
-152597
-154785
-161588
-164737
-168257
-152096
-145396
-148547
-151385
-148780
-144317
-152115
-151638
-155896
-161649
-162551
-161543
-153663
-151922
-155297
-161548
-163319
-163969
-153651
-152002
-154976
-161425
-163598
-165192
-160466
-152876
-155130
-161598
-163963
-166070
-174976
-154503
-155560
-161864
-164256
-166617
-159685
-153252
-155239
-161735
-164408
-167229
-155239
-149112
-152746
-155968
-153792
-149044
-152463
-151840
-155984
-161415
-161937
-160061
-153739
-152498
-155807
-161719
-163017
-162766
-153970
-152670
-155575
-161696
-163383
-164102
-160225
-153704
-155799
-161899
-163742
-164966
-173650
-155720
-156391
-162237
-164048
-165498
-159506
-154215
-155929
-162003
-164115
-166058
-157484
-152477
-156352
-159822
-158077
-153206
-152899
-152581
-156590
-161732
-162033
-159635
-153626
-153179
-156390
-161993
-163011
-162230
-153877
-153364
-156176
-162014
-163435
-163661
-159392
-154523
-156464
-162258
-163822
-164563
-171569
-156947
-157252
-162698
-164177
-165123
-158903
-155172
-156562
-162274
-164070
-165520
-158441
-155171
-158908
-162384
-160979
-156173
-153275
-153879
-157687
-162503
-162672
-160076
-153522
-154318
-157415
-162622
-163378
-162300
-153951
-154639
-157321
-162699
-163778
-163643
-158915
-156041
-157789
-163042
-164198
-164529
-169992
-158984
-158884
-163649
-164636
-165123
-159376
-157014
-157863
-162902
-164190
-165144
-157090
-156339
-159616
-163077
-162186
-157889
-152564
-154771
-158204
-162912
-163379
-161099
-152125
-154824
-157790
-162980
-164075
-163231
-152183
-154911
-157596
-163021
-164482
-164539
-155744
-155954
-157895
-163256
-164852
-165385
-164021
-158459
-158830
-163794
-165300
-166026
-155319
-157149
-158454
-163767
-165600
-166761
-153775
-156260
-158992
-162265
-161814
-158306
-150644
-155244
-158256
-162773
-163530
-161954
-149972
-155261
-158054
-163098
-164445
-164229
-149959
-155361
-157984
-163263
-164935
-165537
-152511
-156285
-158359
-163599
-165399
-166425
-158237
-158438
-159332
-164249
-165986
-167176
-150540
-156791
-158638
-163949
-165997
-167574
-149589
-154715
-157081
-160224
-160197
-157569
-147990
-154696
-157422
-161867
-162968
-162136
-147446
-154802