/*--------------------------------*- C++ -*----------------------------------*\
| =========                 |                                                 |
| \\      /  F ield         | OpenFOAM: The Open Source CFD Toolbox           |
|  \\    /   O peration     | Version:  2212                                  |
|   \\  /    A nd           | Website:  www.openfoam.com                      |
|    \\/     M anipulation  |                                                 |
\*---------------------------------------------------------------------------*/
FoamFile
{
    version     2.0;
    format      ascii;
    arch        "LSB;label=32;scalar=64";
    class       surfaceScalarField;
    location    "1000";
    object      phi;
}
// * * * * * * * * * * * * * * * * * * * * * * * * * * * * * * * * * * * * * //

dimensions      [0 3 -1 0 0 0 0];

oriented        oriented;

internalField   nonuniform List<scalar> 
146294
(
-4.53001e-06
1.08363e-05
-2.40886e-08
-1.2033e-05
5.75084e-06
9.51071e-06
-3.18608e-08
-1.08266e-05
-3.17663e-06
-3.11895e-06
-6.57245e-09
9.92042e-06
4.04136e-06
2.8109e-07
8.58936e-06
-2.18165e-06
-5.6752e-06
1.35655e-05
-5.95777e-08
-1.50457e-05
7.19092e-06
1.18861e-05
-7.34024e-08
-1.35196e-05
-4.00022e-06
-3.97925e-06
-2.38116e-08
1.24417e-05
5.12026e-06
2.68557e-07
1.07465e-05
-2.82705e-06
-7.10241e-06
1.69429e-05
-1.03448e-07
-1.87735e-05
8.97689e-06
1.48137e-05
-1.09067e-07
-1.68414e-05
-5.03902e-06
-5.08428e-06
-6.2101e-08
1.55764e-05
6.48898e-06
2.60838e-07
1.34133e-05
-3.67617e-06
-8.8789e-06
2.11024e-05
-1.63988e-07
-2.3349e-05
1.11861e-05
1.84006e-05
-1.33853e-07
-2.09031e-05
-6.35155e-06
-6.50375e-06
-1.31551e-07
1.94523e-05
8.22334e-06
2.66102e-07
1.66864e-05
-4.79485e-06
-1.10875e-05
2.61896e-05
-2.63354e-07
-2.89139e-05
1.39113e-05
2.27586e-05
-1.48566e-07
-2.58185e-05
-8.01294e-06
-8.3253e-06
-2.43463e-07
2.42107e-05
1.04161e-05
2.99448e-07
2.06679e-05
-6.26795e-06
-1.38291e-05
3.23544e-05
-4.56456e-07
-3.55947e-05
1.72625e-05
2.79967e-05
-1.7407e-07
-3.16819e-05
-1.01184e-05
-1.06561e-05
-4.08033e-07
2.99969e-05
1.31782e-05
3.87208e-07
2.54539e-05
-8.20099e-06
-1.74027e-05
4.01285e-05
-7.35252e-07
-4.40463e-05
2.15993e-05
3.45329e-05
-1.81743e-07
-3.90162e-05
-1.29117e-05
-1.37344e-05
-5.48885e-07
3.72308e-05
1.67729e-05
6.29432e-07
3.13636e-05
-1.08073e-05
-2.17468e-05
4.92854e-05
-1.39183e-06
-5.37059e-05
2.68239e-05
4.20951e-05
-3.604e-07
-4.72787e-05
-1.63845e-05
-1.75942e-05
-7.13833e-07
4.58179e-05
2.12266e-05
1.05406e-06
3.82128e-05
-1.41366e-05
-2.6881e-05
5.95081e-05
-2.84728e-06
-6.40467e-05
3.2875e-05
5.04672e-05
-1.05032e-06
-5.60382e-05
-2.06201e-05
-2.22801e-05
-9.01647e-07
5.54773e-05
2.64987e-05
1.69143e-06
4.58298e-05
-1.82801e-05
-3.23991e-05
7.00444e-05
-6.1344e-06
-7.38814e-05
3.95232e-05
5.84934e-05
-2.93264e-06
-6.38531e-05
-2.5157e-05
-2.75443e-05
-1.71504e-06
6.58196e-05
3.25825e-05
2.1489e-06
5.33307e-05
-2.28391e-05
-3.92505e-05
8.17928e-05
-1.15532e-05
-8.46151e-05
4.74917e-05
6.76542e-05
-6.40744e-06
-7.24388e-05
-3.09911e-05
-3.39291e-05
-2.83448e-06
7.72036e-05
3.96377e-05
2.57457e-06
6.18348e-05
-2.85354e-05
-4.81823e-05
9.56944e-05
-1.99836e-05
-9.69564e-05
5.78747e-05
7.83149e-05
-1.22408e-05
-8.20438e-05
-3.862e-05
-4.20543e-05
-4.57478e-06
9.08947e-05
4.85944e-05
2.63238e-06
7.19432e-05
-3.57404e-05
-5.74288e-05
0.000107516
-3.20379e-05
-0.000106804
6.87711e-05
8.66701e-05
-2.0629e-05
-8.92394e-05
-4.64712e-05
-5.0171e-05
-8.09621e-06
0.000103361
5.78472e-05
1.47926e-06
8.03222e-05
-4.26699e-05
-7.18679e-05
0.000123972
-4.63498e-05
-0.000123022
8.523e-05
9.90912e-05
-3.1649e-05
-0.00010174
-5.81989e-05
-6.16727e-05
-1.2327e-05
0.000119735
7.01406e-05
-1.16819e-06
9.21917e-05
-5.21257e-05
-8.9995e-05
0.000142512
-6.02792e-05
-0.000145556
0.000106969
0.000113099
-4.25847e-05
-0.000119767
-7.23918e-05
-7.42766e-05
-1.68955e-05
0.000136762
8.45952e-05
-4.49959e-06
0.000104538
-6.23833e-05
-9.13712e-05
0.000136247
-6.77619e-05
-0.000146652
0.000109259
0.000108575
-4.86476e-05
-0.000121361
-7.25217e-05
-7.26611e-05
-1.94186e-05
0.000128567
8.28636e-05
-6.59862e-06
9.87463e-05
-6.07335e-05
-9.25832e-05
0.000133635
-6.95392e-05
-0.000151292
0.000112017
0.000107255
-5.0279e-05
-0.000126242
-7.19642e-05
-7.14207e-05
-1.93694e-05
0.000123142
8.18655e-05
-6.81792e-06
9.52565e-05
-5.92027e-05
-9.21291e-05
0.000130664
-6.80479e-05
-0.000153265
0.000113239
0.000105617
-4.94146e-05
-0.000128944
-6.96658e-05
-6.93719e-05
-1.70949e-05
0.000117754
8.00083e-05
-5.42791e-06
9.19813e-05
-5.71264e-05
-9.14379e-05
0.000125614
-6.62007e-05
-0.000150418
0.000114395
0.000101517
-4.8222e-05
-0.000127662
-6.64852e-05
-6.42515e-05
-1.22959e-05
0.000110735
7.43327e-05
-2.54022e-06
8.78225e-05
-5.34442e-05
-8.89222e-05
0.000115089
-6.25378e-05
-0.000142971
0.000113141
9.34326e-05
-4.63966e-05
-0.000122456
-6.17239e-05
-5.69459e-05
-7.59178e-06
0.000101767
6.55645e-05
2.18859e-07
8.23045e-05
-4.85767e-05
-8.17805e-05
0.00010165
-5.76366e-05
-0.000130872
0.000106102
8.28948e-05
-4.42328e-05
-0.00011279
-5.40491e-05
-4.92607e-05
-3.3656e-06
9.04692e-05
5.62156e-05
2.54502e-06
7.46552e-05
-4.3347e-05
-6.89106e-05
8.55402e-05
-5.07141e-05
-0.000115256
9.1705e-05
7.06523e-05
-4.1056e-05
-9.95824e-05
-4.31568e-05
-4.24758e-05
-2.73708e-07
7.71022e-05
4.78221e-05
4.16163e-06
6.51721e-05
-3.86119e-05
-4.25937e-05
5.53046e-05
-4.15971e-05
-8.02905e-05
5.84632e-05
4.60838e-05
-3.50225e-05
-6.97128e-05
-2.49978e-05
-2.92981e-05
1.12124e-06
5.07552e-05
3.24527e-05
4.31831e-06
4.39604e-05
-2.73313e-05
-2.55624e-05
3.51902e-05
-3.16548e-05
-5.58277e-05
3.6258e-05
2.94248e-05
-2.74104e-05
-4.87303e-05
-1.38686e-05
-1.98207e-05
1.47265e-06
3.3057e-05
2.16026e-05
3.64034e-06
2.92274e-05
-1.89452e-05
-1.50875e-05
2.216e-05
-2.26445e-05
-3.82065e-05
2.21241e-05
1.85154e-05
-1.99936e-05
-3.35703e-05
-7.44915e-06
-1.31196e-05
1.27537e-06
2.13642e-05
1.41128e-05
2.67804e-06
1.91764e-05
-1.28183e-05
-8.74946e-06
1.36634e-05
-1.53866e-05
-2.54263e-05
1.32546e-05
1.13887e-05
-1.38073e-05
-2.24538e-05
-3.87035e-06
-8.38586e-06
9.42867e-07
1.3464e-05
8.91791e-06
1.80962e-06
1.22388e-05
-8.36753e-06
-5.18757e-06
8.60507e-06
-9.94056e-06
-1.69741e-05
8.11069e-06
7.14899e-06
-9.05505e-06
-1.50634e-05
-2.02529e-06
-5.39958e-06
6.33395e-07
8.62023e-06
5.69394e-06
1.14278e-06
7.90446e-06
-5.48817e-06
-3.01684e-06
5.32617e-06
-6.17389e-06
-1.09424e-05
4.8665e-06
4.40655e-06
-5.69256e-06
-9.76564e-06
-1.02013e-06
-3.38347e-06
3.69942e-07
5.42079e-06
3.55234e-06
6.63456e-07
4.99284e-06
-3.49041e-06
-1.70025e-06
3.18948e-06
-3.68448e-06
-6.81749e-06
2.83894e-06
2.6331e-06
-3.44562e-06
-6.09975e-06
-4.8046e-07
-2.029e-06
1.98054e-07
3.2699e-06
2.1205e-06
3.60501e-07
3.03171e-06
-2.12464e-06
-9.35973e-07
1.88291e-06
-2.10751e-06
-4.14929e-06
1.62544e-06
1.55289e-06
-2.00444e-06
-3.72176e-06
-2.08229e-07
-1.18766e-06
9.48043e-08
1.93589e-06
1.23796e-06
1.81231e-07
1.8043e-06
-1.25978e-06
-4.99718e-07
1.10047e-06
-1.1424e-06
-2.47972e-06
9.13908e-07
9.07658e-07
-1.1112e-06
-2.22706e-06
-7.35103e-08
-6.81317e-07
3.61341e-08
1.13071e-06
7.0976e-07
7.93363e-08
1.05893e-06
-7.30687e-07
-2.46601e-07
6.20738e-07
-5.76943e-07
-1.42788e-06
4.88324e-07
5.13167e-07
-5.79338e-07
-1.28377e-06
-7.83541e-09
-3.71583e-07
7.0739e-09
6.3373e-07
3.87661e-07
2.6782e-08
5.9666e-07
-4.02516e-07
-1.05261e-07
3.37083e-07
-2.61507e-07
-7.90101e-07
2.42867e-07
2.80055e-07
-2.76038e-07
-7.09919e-07
2.13244e-08
-1.90197e-07
-4.80926e-09
3.39681e-07
1.9949e-07
2.69744e-09
3.22025e-07
-2.08078e-07
-2.79299e-08
1.71207e-07
-9.75954e-08
-4.10118e-07
1.02947e-07
1.43738e-07
-1.12136e-07
-3.68037e-07
3.24831e-08
-8.59473e-08
-7.30282e-09
1.68158e-07
9.1495e-08
-5.38568e-09
1.61068e-07
-9.51912e-08
1.25528e-08
7.4796e-08
-2.35232e-08
-1.86578e-07
2.51695e-08
6.44111e-08
-3.20481e-08
-1.66711e-07
3.4776e-08
-2.69951e-08
-4.74531e-09
6.88973e-08
3.034e-08
-4.76028e-09
6.75972e-08
-3.08045e-08
3.16879e-08
2.05574e-08
-6.01544e-08
-1.56141e-08
1.96048e-08
-5.28767e-08
3.29117e-08
4.66207e-09
1.37704e-08
-2.6204e-09
1.54473e-08
4.05926e-09
-3.33044e-06
8.9128e-06
-1.34814e-08
4.35153e-06
7.45056e-06
1.07123e-08
-2.2154e-06
-8.62289e-07
8.64723e-06
-3.35649e-09
1.13122e-06
7.20673e-06
-4.04241e-08
-6.2891e-07
-4.06073e-07
8.51462e-06
-1.92597e-09
5.40614e-07
7.08117e-06
-2.59792e-08
-2.86493e-07
-2.22442e-07
8.43988e-06
-9.72775e-10
2.9815e-07
7.00765e-06
-1.57877e-08
-1.52784e-07
-1.39531e-07
8.39284e-06
-6.39225e-10
1.8721e-07
6.95898e-06
-1.04649e-08
-9.35013e-08
-9.94798e-08
8.35974e-06
-4.38992e-10
1.33022e-07
6.9224e-06
-7.63084e-09
-6.49828e-08
-8.0301e-08
-3.26984e-10
8.33374e-06
1.06629e-07
-6.23603e-09
6.89123e-06
-5.09793e-08
-4.26633e-06
1.1176e-05
7.15863e-09
5.51135e-06
9.30981e-06
1.00562e-07
-2.91952e-06
-1.11548e-06
1.08501e-05
2.50609e-09
1.43552e-06
9.01638e-06
-5.18335e-09
-8.57288e-07
-5.25533e-07
1.06875e-05
1.00204e-09
6.85228e-07
8.86496e-06
-5.59145e-09
-3.94495e-07
-2.87336e-07
1.05958e-05
6.84383e-10
3.77425e-07
8.77552e-06
-3.35018e-09
-2.10341e-07
-1.79759e-07
1.05379e-05
3.72835e-10
2.36635e-07
8.71574e-06
-2.27371e-09
-1.28162e-07
-1.27789e-07
1.04971e-05
2.79235e-10
1.67865e-07
8.67045e-06
-1.5884e-09
-8.85393e-08
-1.02836e-07
2.5788e-10
1.0465e-05
1.34323e-07
-1.24263e-09
8.63162e-06
-6.90016e-08
-5.48323e-06
1.39903e-05
8.79698e-08
6.98856e-06
1.16017e-05
3.01793e-07
-3.8728e-06
-1.44918e-06
1.35931e-05
2.45823e-08
1.8243e-06
1.12528e-05
7.12381e-08
-1.17677e-06
-6.83052e-07
1.33947e-05
1.27538e-08
8.69718e-07
1.10724e-05
3.81257e-08
-5.46396e-07
-3.72636e-07
1.32827e-05
7.06665e-09
4.78286e-07
1.09649e-05
2.24682e-08
-2.90883e-07
-2.3242e-07
1.32118e-05
4.32259e-09
2.99324e-07
1.08921e-05
1.43209e-08
-1.76272e-07
-1.64676e-07
1.31618e-05
3.04307e-09
2.11905e-07
1.08365e-05
1.03228e-08
-1.20966e-07
-1.32052e-07
2.45447e-09
1.31225e-05
1.69189e-07
8.36564e-09
1.07885e-05
-9.36222e-08
-7.07254e-06
1.74758e-05
2.62026e-07
8.87492e-06
1.44081e-05
6.77173e-07
-5.16962e-06
-1.89054e-06
1.69948e-05
7.36548e-08
2.3225e-06
1.39989e-05
2.13496e-07
-1.62365e-06
-8.91345e-07
1.67545e-05
3.86136e-08
1.1058e-06
1.37877e-05
1.17363e-07
-7.59303e-07
-4.8504e-07
1.66185e-05
2.11944e-08
6.06945e-07
1.36599e-05
6.81144e-08
-4.02962e-07
-3.01508e-07
1.65323e-05
1.30283e-08
3.78992e-07
1.35723e-05
4.30447e-08
-2.42626e-07
-2.12818e-07
1.64714e-05
9.11588e-09
2.67631e-07
1.35046e-05
3.0586e-08
-1.65332e-07
-1.69966e-07
7.23539e-09
1.64235e-05
2.13093e-07
2.44602e-08
1.34456e-05
-1.27073e-07
-9.15648e-06
2.17685e-05
5.70628e-07
1.129e-05
1.78151e-05
1.31053e-06
-6.93708e-06
-2.47558e-06
2.11895e-05
1.65526e-07
2.96272e-06
1.73424e-05
4.55801e-07
-2.24511e-06
-1.16716e-06
2.09006e-05
8.59092e-08
1.40875e-06
1.70995e-05
2.47679e-07
-1.05464e-06
-6.33305e-07
2.07365e-05
4.71913e-08
7.71445e-07
1.69499e-05
1.41458e-07
-5.57035e-07
-3.92175e-07
2.06323e-05
2.90122e-08
4.80393e-07
1.68454e-05
8.83962e-08
-3.33028e-07
-2.75615e-07
2.05587e-05
2.02027e-08
3.38179e-07
1.67636e-05
6.21259e-08
-2.25318e-07
-2.19091e-07
1.59099e-08
2.05007e-05
2.68337e-07
4.91948e-08
1.66917e-05
-1.71983e-07
-1.18959e-05
2.7017e-05
1.05674e-06
1.43897e-05
2.1907e-05
2.30165e-06
-9.34015e-06
-3.25094e-06
2.63244e-05
3.21229e-07
3.78782e-06
2.13701e-05
8.40695e-07
-3.0989e-06
-1.53199e-06
2.59795e-05
1.64178e-07
1.79863e-06
2.10964e-05
4.46776e-07
-1.45738e-06
-8.28539e-07
2.57828e-05
9.01737e-08
9.8226e-07
2.09233e-05
2.50937e-07
-7.64991e-07
-5.10846e-07
2.56577e-05
5.53597e-08
6.09641e-07
2.07998e-05
1.55059e-07
-4.54e-07
-3.57219e-07
2.55692e-05
3.83836e-08
4.27512e-07
2.07018e-05
1.07898e-07
-3.04978e-07
-2.82416e-07
3.00328e-08
2.54998e-05
3.37757e-07
8.46618e-08
2.06151e-05
-2.3117e-07
-1.55748e-05
3.34978e-05
1.90208e-06
1.84625e-05
2.68662e-05
3.86784e-06
-1.26436e-05
-4.28388e-06
3.26324e-05
6.07453e-07
4.86301e-06
2.62346e-05
1.4455e-06
-4.25701e-06
-2.01427e-06
3.22018e-05
3.05399e-07
2.30371e-06
2.59141e-05
7.4693e-07
-1.99396e-06
-1.08455e-06
3.19556e-05
1.67416e-07
1.25344e-06
2.57063e-05
4.12352e-07
-1.03812e-06
-6.65096e-07
3.17989e-05
1.02595e-07
7.74593e-07
2.55554e-05
2.52006e-07
-6.11166e-07
-4.6227e-07
3.16882e-05
7.08359e-08
5.40497e-07
2.54348e-05
1.73655e-07
-4.0744e-07
-3.63066e-07
5.50996e-08
3.16016e-05
4.24652e-07
1.34982e-07
2.53279e-05
-3.06506e-07
-2.03389e-05
4.13089e-05
3.10263e-06
2.36474e-05
3.26752e-05
6.05414e-06
-1.69876e-05
-5.61641e-06
4.0256e-05
1.04412e-06
6.23258e-06
3.19681e-05
2.29122e-06
-5.75508e-06
-2.63199e-06
3.97294e-05
5.19265e-07
2.94476e-06
3.16051e-05
1.15258e-06
-2.67458e-06
-1.40952e-06
3.94275e-05
2.8355e-07
1.59528e-06
3.13614e-05
6.26184e-07
-1.37972e-06
-8.58877e-07
3.9235e-05
1.73238e-07
9.80704e-07
3.11812e-05
3.78801e-07
-8.05452e-07
-5.92681e-07
3.90994e-05
1.19022e-07
6.80135e-07
3.10362e-05
2.58561e-07
-5.32557e-07
-4.61822e-07
9.19518e-08
3.89937e-05
5.30639e-07
1.99008e-07
3.09076e-05
-3.97227e-07
-2.63555e-05
5.03758e-05
4.52473e-06
3.00349e-05
3.92511e-05
8.81778e-06
-2.25403e-05
-7.29127e-06
4.91642e-05
1.61416e-06
7.93288e-06
3.85113e-05
3.35996e-06
-7.62022e-06
-3.40299e-06
4.8548e-05
7.98801e-07
3.73966e-06
3.8114e-05
1.65348e-06
-3.50663e-06
-1.81106e-06
4.81925e-05
4.33681e-07
2.01638e-06
3.78363e-05
8.85252e-07
-1.79237e-06
-1.09542e-06
4.79659e-05
2.63296e-07
1.23202e-06
3.76274e-05
5.29687e-07
-1.03742e-06
-7.49526e-07
4.78069e-05
1.79464e-07
8.48069e-07
3.74586e-05
3.57679e-07
-6.79831e-07
-5.78461e-07
1.37313e-07
4.76841e-05
6.55896e-07
2.72153e-07
3.73091e-05
-5.0215e-07
-3.34572e-05
6.04969e-05
5.5399e-06
3.77647e-05
4.61037e-05
1.14498e-05
-2.88622e-05
-9.2513e-06
5.92217e-05
2.1514e-06
9.98926e-06
4.54922e-05
4.40242e-06
-9.68224e-06
-4.29667e-06
5.85522e-05
1.06832e-06
4.69673e-06
4.51264e-05
2.1309e-06
-4.40832e-06
-2.27037e-06
5.816e-05
5.77648e-07
2.51855e-06
4.48473e-05
1.12636e-06
-2.23233e-06
-1.36156e-06
5.7909e-05
3.48329e-07
1.52755e-06
4.4629e-05
6.66541e-07
-1.28015e-06
-9.22278e-07
5.77338e-05
2.35159e-07
1.04183e-06
4.44499e-05
4.44798e-07
-8.30279e-07
-7.03476e-07
1.77751e-07
5.75999e-05
7.96866e-07
3.33968e-07
4.42907e-05
-6.06056e-07
-4.2054e-05
7.18146e-05
6.13838e-06
4.68446e-05
5.37694e-05
1.39948e-05
-3.65336e-05
-1.15208e-05
7.04842e-05
2.63349e-06
1.23692e-05
5.3266e-05
5.3906e-06
-1.20056e-05
-5.30767e-06
6.97521e-05
1.31511e-06
5.79299e-06
5.2905e-05
2.57516e-06
-5.3909e-06
-2.77846e-06
6.93154e-05
7.07435e-07
3.08538e-06
5.26076e-05
1.34471e-06
-2.69941e-06
-1.64861e-06
6.90351e-05
4.22785e-07
1.85438e-06
5.237e-05
7.86172e-07
-1.53063e-06
-1.10273e-06
6.8841e-05
2.81939e-07
1.25012e-06
5.21746e-05
5.17538e-07
-9.80108e-07
-8.28632e-07
2.0981e-07
6.86949e-05
9.42637e-07
3.82474e-07
5.20022e-05
-7.04742e-07
-5.27277e-05
8.52759e-05
6.39902e-06
5.80858e-05
6.28928e-05
1.61986e-05
-4.58811e-05
-1.4168e-05
8.38324e-05
3.07423e-06
1.51708e-05
6.25341e-05
6.22269e-06
-1.46413e-05
-6.44992e-06
8.29963e-05
1.54936e-06
7.05181e-06
6.21833e-05
2.94474e-06
-6.46874e-06
-3.33573e-06
8.24882e-05
8.30936e-07
3.72034e-06
6.18664e-05
1.52196e-06
-3.196e-06
-1.95295e-06
8.21619e-05
4.92372e-07
2.20959e-06
6.16077e-05
8.79096e-07
-1.78724e-06
-1.28566e-06
8.19383e-05
3.23954e-07
1.46733e-06
6.13957e-05
5.7009e-07
-1.1262e-06
-9.47623e-07
2.36662e-07
8.17732e-05
1.08583e-06
4.13501e-07
6.12113e-05
-7.9423e-07
-6.32025e-05
9.89872e-05
4.35094e-06
6.96249e-05
7.14933e-05
1.62847e-05
-5.44597e-05
-1.66383e-05
9.78622e-05
2.85194e-06
1.79857e-05
7.16432e-05
6.34372e-06
-1.69092e-05
-7.47809e-06
9.71315e-05
1.46736e-06
8.2908e-06
7.1487e-05
2.9783e-06
-7.35544e-06
-3.81508e-06
9.66672e-05
7.83925e-07
4.32637e-06
7.12553e-05
1.52016e-06
-3.58163e-06
-2.19872e-06
9.63663e-05
4.58833e-07
2.53313e-06
7.10421e-05
8.64437e-07
-1.97081e-06
-1.41954e-06
9.61626e-05
2.96368e-07
1.65089e-06
7.08603e-05
5.50226e-07
-1.21791e-06
-1.02079e-06
2.11127e-07
9.60168e-05
1.19213e-06
3.89955e-07
7.07011e-05
-8.38023e-07
-7.51592e-05
0.000115757
1.66762e-06
8.18214e-05
8.34211e-05
1.38679e-05
-6.39717e-05
-1.96844e-05
0.000114694
2.46811e-06
2.11309e-05
8.36826e-05
5.92807e-06
-1.95303e-05
-8.66462e-06
0.000113949
1.30774e-06
9.56966e-06
8.35503e-05
2.76424e-06
-8.31827e-06
-4.33366e-06
0.000113465
6.93262e-07
4.90805e-06
8.33218e-05
1.38793e-06
-3.97293e-06
-2.44736e-06
0.000113152
3.98194e-07
2.82134e-06
8.31089e-05
7.73395e-07
-2.14343e-06
-1.54478e-06
0.000112942
2.50971e-07
1.80022e-06
8.29298e-05
4.80741e-07
-1.29616e-06
-1.08186e-06
1.7375e-07
0.000112793
1.26735e-06
3.31802e-07
8.27757e-05
-8.69557e-07
-8.38592e-05
0.000133069
-2.56507e-06
9.17853e-05
9.61421e-05
9.58636e-06
-7.11821e-05
-2.2736e-05
0.000132417
1.31566e-06
2.45404e-05
9.65383e-05
4.80098e-06
-2.2005e-05
-9.74453e-06
0.000131857
7.7314e-07
1.08389e-05
9.64781e-05
2.22332e-06
-9.14334e-06
-4.74982e-06
0.000131464
4.05391e-07
5.43059e-06
9.62892e-05
1.09106e-06
-4.26404e-06
-2.61572e-06
0.000131201
2.25026e-07
3.05195e-06
9.6103e-05
5.91393e-07
-2.24752e-06
-1.60939e-06
0.000131023
1.3611e-07
1.9028e-06
9.59456e-05
3.56462e-07
-1.3277e-06
-1.09756e-06
9.01881e-08
0.000130896
1.30736e-06
2.38021e-07
9.58114e-05
-8.69646e-07
-7.38416e-05
0.000124102
-5.07817e-06
8.08205e-05
9.11933e-05
6.45504e-06
-6.31571e-05
-2.09627e-05
0.000123555
2.70265e-07
2.25553e-05
9.12873e-05
3.74342e-06
-1.9999e-05
-8.73548e-06
0.000123113
2.72225e-07
9.67845e-06
9.11678e-05
1.71757e-06
-8.11018e-06
-4.14073e-06
0.000122799
1.39891e-07
4.71963e-06
9.09855e-05
8.22802e-07
-3.69026e-06
-2.21749e-06
0.000122588
7.09534e-08
2.583e-06
9.08235e-05
4.3367e-07
-1.89773e-06
-1.32533e-06
0.000122444
3.87024e-08
1.56657e-06
9.06944e-05
2.53413e-07
-1.09318e-06
-8.76308e-07
2.31863e-08
0.000122343
1.04493e-06
1.63547e-07
9.05901e-05
-6.97549e-07
-6.46948e-05
0.00011762
-5.70081e-06
7.08389e-05
8.81863e-05
4.59627e-06
-5.57656e-05
-1.93938e-05
0.000116899
-3.97149e-07
2.07825e-05
8.78955e-05
2.91232e-06
-1.82718e-05
-7.90313e-06
0.000116443
-6.41101e-08
8.69602e-06
8.76744e-05
1.31518e-06
-7.27965e-06
-3.65679e-06
0.000116141
-3.7034e-08
4.13525e-06
8.74738e-05
6.13778e-07
-3.24712e-06
-1.90788e-06
0.000115945
-2.87706e-08
2.20424e-06
8.73195e-05
3.14397e-07
-1.63426e-06
-1.10738e-06
0.000115814
-2.16365e-08
1.29797e-06
8.72069e-05
1.77965e-07
-9.19354e-07
-7.07861e-07
-1.60007e-08
0.000115725
8.36708e-07
1.1075e-07
8.71231e-05
-5.71303e-07
-5.63406e-05
0.000111646
-5.00506e-06
6.1753e-05
8.55363e-05
3.60403e-06
-4.8903e-05
-1.79404e-05
0.000110651
-6.44814e-07
1.91832e-05
8.48936e-05
2.27737e-06
-1.66628e-05
-7.22198e-06
0.000110119
-2.132e-07
7.903e-06
8.4562e-05
1.00325e-06
-6.57833e-06
-3.28993e-06
0.000109796
-1.16092e-07
3.69212e-06
8.43296e-05
4.55996e-07
-2.89978e-06
-1.68296e-06
0.000109596
-7.17431e-08
1.92617e-06
8.41714e-05
2.27635e-07
-1.43801e-06
-9.52315e-07
0.000109469
-4.60619e-08
1.1036e-06
8.40657e-05
1.2527e-07
-7.93944e-07
-5.88906e-07
-3.0553e-08
0.000109386
6.86637e-07
7.5363e-08
8.39941e-05
-4.81867e-07
-4.92048e-05
0.000104711
-3.7409e-06
5.39642e-05
8.17266e-05
3.32033e-06
-4.28249e-05
-1.6265e-05
0.000103454
-5.53138e-07
1.74305e-05
8.08037e-05
1.81475e-06
-1.48795e-05
-6.5879e-06
0.000102814
-2.05081e-07
7.22032e-06
8.03346e-05
7.79591e-07
-5.89507e-06
-3.0158e-06
0.000102442
-1.13234e-07
3.3844e-06
8.00353e-05
3.51403e-07
-2.61189e-06
-1.54521e-06
0.00010222
-6.91619e-08
1.76488e-06
7.98427e-05
1.75232e-07
-1.30018e-06
-8.72112e-07
0.000102084
-4.39849e-08
1.00628e-06
7.97177e-05
9.679e-08
-7.18623e-07
-5.35167e-07
-2.91105e-08
0.000101998
6.19693e-07
5.863e-08
7.96344e-05
-4.35204e-07
-4.32026e-05
9.64045e-05
-2.46746e-06
4.72921e-05
7.68359e-05
3.18704e-06
-3.76004e-05
-1.45303e-05
9.51202e-05
-3.81108e-07
1.56428e-05
7.57605e-05
1.50665e-06
-1.31468e-05
-6.01105e-06
9.44468e-05
-1.49243e-07
6.62864e-06
7.51788e-05
6.38782e-07
-5.28846e-06
-2.80917e-06
9.40572e-05
-8.37307e-08
3.16931e-06
7.48181e-05
2.90603e-07
-2.38768e-06
-1.46558e-06
9.38249e-05
-5.11914e-08
1.67992e-06
7.45913e-05
1.47148e-07
-1.21067e-06
-8.40403e-07
9.36824e-05
-3.25334e-08
9.71373e-07
7.44457e-05
8.26229e-08
-6.80631e-07
-5.23383e-07
-2.15326e-08
9.35921e-05
6.06113e-07
5.0881e-08
7.43489e-05
-4.18856e-07
-3.74306e-05
8.64085e-05
-1.77556e-06
4.07998e-05
7.05171e-05
2.5665e-06
-3.26717e-05
-1.29034e-05
8.53199e-05
-2.9362e-07
1.39046e-05
6.95623e-05
1.1426e-06
-1.15845e-05
-5.46807e-06
8.47179e-05
-1.17548e-07
6.03848e-06
6.9002e-05
4.81862e-07
-4.75074e-06
-2.61059e-06
8.43642e-05
-6.44783e-08
2.94496e-06
6.86506e-05
2.21041e-07
-2.18965e-06
-1.38612e-06
8.41525e-05
-3.86068e-08
1.58535e-06
6.84296e-05
1.1338e-07
-1.13132e-06
-8.0659e-07
8.40223e-05
-2.42948e-08
9.2843e-07
6.82876e-05
6.45246e-08
-6.46579e-07
-5.08934e-07
-1.59958e-08
8.39398e-05
5.85985e-07
4.02998e-08
6.81932e-05
-4.03857e-07
-3.17929e-05
7.44758e-05
-1.73948e-06
3.43835e-05
6.25894e-05
1.44765e-06
-2.80911e-05
-1.11257e-05
7.36739e-05
-2.92368e-07
1.19265e-05
6.19186e-05
7.60398e-07
-1.00726e-05
-4.7765e-06
7.32044e-05
-1.19397e-07
5.24793e-06
6.14796e-05
3.21515e-07
-4.17715e-06
-2.30241e-06
7.29216e-05
-6.15401e-08
2.58222e-06
6.11945e-05
1.47446e-07
-1.94375e-06
-1.23011e-06
7.27502e-05
-3.46259e-08
1.39759e-06
6.10136e-05
7.54283e-08
-1.01121e-06
-7.18377e-07
7.2644e-05
-2.07326e-08
8.20925e-07
6.08976e-05
4.26061e-08
-5.80455e-07
-4.54289e-07
-1.30572e-08
7.25762e-05
5.19177e-07
2.63251e-08
6.08208e-05
-3.63551e-07
-2.12121e-05
4.94213e-05
-1.80209e-06
2.26089e-05
4.27648e-05
5.05711e-07
-1.90744e-05
-7.43328e-06
4.90131e-05
-3.01369e-07
7.8505e-06
4.24854e-05
4.65678e-07
-6.85917e-06
-3.18882e-06
4.87623e-05
-1.31376e-07
3.45167e-06
4.22682e-05
1.9338e-07
-2.84345e-06
-1.5316e-06
4.86053e-05
-6.56994e-08
1.69273e-06
4.21142e-05
8.81406e-08
-1.31832e-06
-8.13413e-07
4.85083e-05
-3.54376e-08
9.11195e-07
4.20128e-05
4.49809e-08
-6.815e-07
-4.71172e-07
4.84479e-05
-2.04166e-08
5.31314e-07
4.19467e-05
2.52886e-08
-3.87765e-07
-2.94975e-07
-1.24615e-08
4.84092e-05
3.32999e-07
1.54865e-08
4.19028e-05
-2.40217e-07
-1.40716e-05
3.23181e-05
-1.66353e-06
1.4672e-05
2.87118e-05
-6.806e-08
-1.29821e-05
-4.91155e-06
3.21291e-05
-2.58742e-07
5.05803e-06
2.86645e-05
2.75388e-07
-4.67386e-06
-2.09293e-06
3.20072e-05
-1.24681e-07
2.20811e-06
2.8588e-05
1.04581e-07
-1.92759e-06
-9.96798e-07
3.1926e-05
-6.18941e-08
1.07424e-06
2.85187e-05
4.69029e-08
-8.86309e-07
-5.24245e-07
3.18743e-05
-3.26412e-08
5.73066e-07
2.8469e-05
2.39862e-08
-4.53486e-07
-3.00267e-07
3.18419e-05
-1.83582e-08
3.30716e-07
2.84354e-05
1.35387e-08
-2.54929e-07
-1.85551e-07
-1.09614e-08
3.18211e-05
2.04819e-07
8.29523e-09
2.84127e-05
-1.55729e-07
-9.26156e-06
2.09247e-05
-1.39601e-06
9.43355e-06
1.89699e-05
-3.32826e-07
-8.7903e-06
-3.21283e-06
2.08652e-05
-2.03663e-07
3.21729e-06
1.90433e-05
1.55968e-07
-3.1667e-06
-1.35614e-06
2.08187e-05
-1.12754e-07
1.39076e-06
1.90433e-05
4.45725e-08
-1.29611e-06
-6.38989e-07
2.07819e-05
-5.59161e-08
6.69797e-07
1.90217e-05
1.91856e-08
-5.89678e-07
-3.32303e-07
2.07571e-05
-2.91025e-08
3.5362e-07
1.90015e-05
9.99056e-09
-2.98152e-07
-1.88048e-07
2.07411e-05
-1.61161e-08
2.01819e-07
1.89867e-05
5.804e-09
-1.65454e-07
-1.14659e-07
-9.47797e-09
2.07308e-05
1.23453e-07
3.64326e-09
1.89763e-05
-9.96298e-08
-5.94125e-06
1.31937e-05
-1.08209e-06
5.8976e-06
1.21998e-05
-4.13306e-07
-5.82175e-06
-2.05042e-06
1.32071e-05
-1.5294e-07
1.98635e-06
1.23376e-05
7.36123e-08
-2.10587e-06
-8.56868e-07
1.31996e-05
-9.74035e-08
8.49016e-07
1.2378e-05
2.99359e-09
-8.55679e-07
-3.99095e-07
1.31868e-05
-4.83144e-08
4.04295e-07
1.23834e-05
-2.06434e-10
-3.85029e-07
-2.05145e-07
1.31768e-05
-2.50239e-08
2.11125e-07
1.23805e-05
2.22211e-11
-1.9233e-07
-1.14712e-07
1.31699e-05
-1.37421e-08
1.1916e-07
1.23768e-05
2.49022e-10
-1.0538e-07
-6.90472e-08
-8.0057e-09
1.31655e-05
7.20173e-08
3.08144e-10
1.23736e-05
-6.25887e-08
-3.85356e-06
8.41036e-06
-7.58596e-07
3.73993e-06
7.88162e-06
-3.54774e-07
-3.88926e-06
-1.31866e-06
8.43445e-06
-9.90699e-08
1.24072e-06
8.00492e-06
3.88687e-08
-1.4072e-06
-5.44546e-07
8.43255e-06
-7.44465e-08
5.23515e-07
8.0423e-06
-1.24176e-08
-5.66491e-07
-2.50432e-07
8.4252e-06
-3.67625e-08
2.46235e-07
8.05034e-06
-6.81385e-09
-2.51866e-07
-1.27201e-07
8.41921e-06
-1.89681e-08
1.27148e-07
8.05075e-06
-3.30125e-09
-1.24279e-07
-7.03047e-08
8.4151e-06
-1.03202e-08
7.09851e-08
8.04952e-06
-1.56397e-09
-6.72631e-08
-4.18055e-08
-5.9462e-09
8.41244e-06
4.24131e-08
-7.60535e-10
8.04823e-06
-3.94393e-08
-2.44609e-06
5.26749e-06
-4.9131e-07
2.33209e-06
4.97575e-06
-2.52494e-07
-2.53128e-06
-8.31439e-07
5.29383e-06
-5.74192e-08
7.63447e-07
5.07469e-06
2.5944e-08
-9.17457e-07
-3.3957e-07
5.29315e-06
-5.22699e-08
3.18096e-07
5.10316e-06
-1.40717e-08
-3.66362e-07
-1.54296e-07
5.28858e-06
-2.57077e-08
1.47811e-07
5.11018e-06
-7.02515e-09
-1.6111e-07
-7.74988e-08
5.28495e-06
-1.3337e-08
7.55078e-08
5.11144e-06
-3.43678e-09
-7.86142e-08
-4.23767e-08
5.28248e-06
-7.20288e-09
4.17249e-08
5.11121e-06
-1.62977e-09
-4.20804e-08
-2.49209e-08
-4.10282e-09
5.2809e-06
2.46671e-08
-7.95409e-10
5.11072e-06
-2.43926e-08
-1.49221e-06
3.1789e-06
-3.01677e-07
1.39356e-06
3.04298e-06
-1.6882e-07
-1.58716e-06
-5.073e-07
3.2083e-06
-3.15341e-08
4.52009e-07
3.12761e-06
1.59162e-08
-5.819e-07
-2.056e-07
3.21025e-06
-3.48609e-08
1.86257e-07
3.15265e-06
-1.29749e-08
-2.31727e-07
-9.2532e-08
3.20883e-06
-1.73696e-08
8.56126e-08
3.16087e-06
-6.60849e-09
-1.01169e-07
-4.60489e-08
3.20755e-06
-9.32215e-09
4.33196e-08
3.16389e-06
-3.55034e-09
-4.89534e-08
-2.4951e-08
3.20664e-06
-5.05889e-09
2.37197e-08
3.16507e-06
-1.78065e-09
-2.59735e-08
-1.45338e-08
-2.86569e-09
3.20604e-06
1.38902e-08
-9.12131e-10
3.16556e-06
-1.49146e-08
-8.89757e-07
1.8829e-06
-1.76037e-07
8.171e-07
1.81902e-06
-1.05147e-07
-9.68153e-07
-3.02716e-07
1.90713e-06
-1.63502e-08
2.63291e-07
1.88068e-06
9.93407e-09
-3.58407e-07
-1.21862e-07
1.90867e-06
-2.1935e-08
1.0741e-07
1.89811e-06
-9.8558e-09
-1.42402e-07
-5.43957e-08
1.90812e-06
-1.13232e-08
4.88988e-08
1.90431e-06
-5.41268e-09
-6.17877e-08
-2.68604e-08
1.90767e-06
-6.5507e-09
2.45427e-08
1.90694e-06
-3.35228e-09
-2.96868e-08
-1.44408e-08
1.90738e-06
-3.66422e-09
1.33324e-08
1.90817e-06
-1.82161e-09
-1.56332e-08
-8.34264e-09
-2.09353e-09
1.90721e-06
7.74299e-09
-9.81655e-10
1.9088e-06
-8.90482e-09
-5.21157e-07
1.09902e-06
-9.51852e-08
4.71986e-07
1.07006e-06
-5.95377e-08
-5.77894e-07
-1.77544e-07
1.11589e-06
-7.05224e-09
1.51374e-07
1.11121e-06
7.0933e-09
-2.15868e-07
-7.10293e-08
1.11632e-06
-1.25155e-08
6.11836e-08
1.122e-06
-6.08483e-09
-8.55874e-08
-3.14832e-08
1.11569e-06
-6.83213e-09
2.76236e-08
1.1258e-06
-3.75263e-09
-3.69434e-08
-1.54477e-08
1.11529e-06
-4.47446e-09
1.37728e-08
1.12748e-06
-2.83019e-09
-1.76464e-08
-8.25252e-09
1.11515e-06
-2.70273e-09
7.4341e-09
1.12839e-06
-1.74952e-09
-9.23539e-09
-4.73505e-09
-1.60626e-09
1.1151e-06
4.28781e-09
-1.01928e-09
1.12892e-06
-5.22523e-09
-2.92238e-07
6.1735e-07
-4.76191e-08
2.61045e-07
6.06372e-07
-3.19552e-08
-3.29534e-07
-1.00217e-07
6.2901e-07
-2.28014e-09
8.37813e-08
6.33426e-07
4.717e-09
-1.24898e-07
-3.99768e-08
6.29308e-07
-6.48806e-09
3.36537e-08
6.4034e-07
-3.38129e-09
-4.95931e-08
-1.76388e-08
6.28821e-07
-3.80558e-09
1.51001e-08
6.427e-07
-2.39484e-09
-2.13551e-08
-8.61749e-09
6.28396e-07
-2.92291e-09
7.49233e-09
6.43651e-07
-2.23415e-09
-1.01641e-08
-4.58455e-09
6.28284e-07
-2.03258e-09
4.02679e-09
6.44277e-07
-1.66118e-09
-5.29853e-09
-2.61749e-09
-1.32564e-09
6.2831e-07
2.31104e-09
-1.09471e-09
6.44719e-07
-2.98332e-09
-1.5568e-07
3.31368e-07
-2.08371e-08
1.37204e-07
3.27902e-07
-1.54999e-08
-1.78014e-07
-5.38927e-08
3.38685e-07
1.71377e-12
4.42886e-08
3.44163e-07
3.08122e-09
-6.85331e-08
-2.14784e-08
3.38815e-07
-2.86223e-09
1.77233e-08
3.48133e-07
-1.53966e-09
-2.72897e-08
-9.44869e-09
3.38364e-07
-1.82103e-09
7.91529e-09
3.49303e-07
-1.27524e-09
-1.17394e-08
-4.60132e-09
3.37788e-07
-1.65594e-09
3.91134e-09
3.49506e-07
-1.462e-09
-5.57449e-09
-2.44255e-09
3.37519e-07
-1.41761e-09
2.09723e-09
3.49675e-07
-1.37307e-09
-2.90001e-09
-1.39097e-09
-1.09379e-09
3.37477e-07
1.2009e-09
-1.0812e-09
3.499e-07
-1.62829e-09
-7.56085e-08
1.64153e-07
-7.01286e-09
6.57844e-08
1.6341e-07
-6.14377e-09
-8.73084e-08
-2.66186e-08
1.68378e-07
8.05369e-10
2.1586e-08
1.72235e-07
1.95288e-09
-3.43264e-08
-1.06408e-08
1.68424e-07
-9.15563e-10
8.64782e-09
1.74244e-07
-4.4319e-10
-1.37463e-08
-4.67872e-09
1.68071e-07
-6.43903e-10
3.85465e-09
1.74683e-07
-4.7537e-10
-5.91891e-09
-2.27315e-09
1.67474e-07
-6.83037e-10
1.89784e-09
1.74431e-07
-6.75636e-10
-2.80696e-09
-1.20566e-09
1.67021e-07
-7.7527e-10
1.01623e-09
1.74164e-07
-8.51126e-10
-1.45942e-09
-6.87047e-10
-7.9205e-10
1.66824e-07
5.8278e-10
-8.75658e-10
1.7409e-07
-8.1934e-10
-2.92824e-08
6.7443e-08
-1.20663e-09
2.49273e-08
6.78357e-08
-1.60484e-09
-3.40608e-08
-1.08115e-08
6.97352e-08
6.81236e-10
8.64013e-09
7.20778e-08
9.70676e-10
-1.40796e-08
-4.393e-09
6.98086e-08
-1.14031e-10
3.51827e-09
7.29804e-08
-1.81519e-12
-5.73709e-09
-1.94471e-09
6.96335e-08
-1.01785e-10
1.57752e-09
7.31183e-08
-7.02825e-11
-2.48814e-09
-9.45748e-10
6.92406e-08
-1.20223e-10
7.76163e-10
7.28218e-08
-1.42741e-10
-1.18196e-09
-5.01633e-10
6.87658e-08
-2.13749e-10
4.15074e-10
7.23584e-08
-2.74283e-10
-6.14864e-10
-2.86844e-10
-3.69253e-10
6.83908e-08
2.39177e-10
-4.39123e-10
7.19811e-08
-3.4592e-10
-3.63127e-09
1.3655e-08
2.54001e-09
1.44414e-08
-4.23021e-09
-2.01677e-09
1.48163e-08
1.53675e-09
1.60145e-08
-2.61918e-09
-9.26997e-10
1.49093e-08
7.20015e-10
1.62852e-08
-1.19955e-09
-4.34567e-10
1.48989e-08
3.43141e-10
1.63287e-08
-5.48323e-10
-2.16847e-10
1.48226e-08
1.72959e-10
1.62358e-08
-2.6668e-10
-1.15703e-10
1.46319e-08
9.26741e-11
1.59854e-08
-1.39486e-10
-6.67313e-11
1.42754e-08
5.39857e-11
1.55584e-08
-7.88371e-11
-7.18149e-08
8.31037e-06
3.48814e-10
9.48336e-08
6.86571e-06
-5.28697e-09
-4.83106e-08
-5.01051e-08
8.2919e-06
2.35821e-10
6.83456e-08
6.84713e-06
-3.84706e-09
-3.28727e-08
-4.91368e-08
8.27241e-06
2.18184e-10
6.84079e-08
6.82847e-06
-3.9093e-09
-3.17466e-08
-6.72162e-08
8.24496e-06
2.62201e-10
9.44054e-08
6.8028e-06
-5.55821e-09
-4.31804e-08
-1.26475e-07
8.19386e-06
3.9957e-10
1.77171e-07
6.75509e-06
-1.10345e-08
-8.16143e-08