/*--------------------------------*- C++ -*----------------------------------*\
| =========                 |                                                 |
| \\      /  F ield         | OpenFOAM: The Open Source CFD Toolbox           |
|  \\    /   O peration     | Version:  2212                                  |
|   \\  /    A nd           | Website:  www.openfoam.com                      |
|    \\/     M anipulation  |                                                 |
\*---------------------------------------------------------------------------*/
FoamFile
{
    version     2.0;
    format      ascii;
    arch        "LSB;label=32;scalar=64";
    class       volVectorField;
    location    "1000";
    object      U;
}
// * * * * * * * * * * * * * * * * * * * * * * * * * * * * * * * * * * * * * //

dimensions      [0 1 -1 0 0 0 0];

internalField   nonuniform List<vector> 
50904
(
(-0.411023 2.84821 0.0398654)
(-0.29564 3.21969 0.0392954)
(0.387151 0.951617 -0.0182859)
(0.836236 1.48905 -0.0246527)
(-1.29151 9.05613 0.0428373)
(-0.919887 10.2486 0.0353472)
(1.18157 3.29291 -0.00331302)
(2.57123 5.03268 -0.0373598)
(-2.33561 16.5494 0.0715697)
(-1.64935 18.7487 0.0440273)
(2.06536 6.51176 0.0233126)
(4.53379 9.74313 -0.0726926)
(-3.56542 25.513 0.117773)
(-2.49927 28.9358 0.0472691)
(3.00906 10.9259 0.0848449)
(6.68172 15.9887 -0.128249)
(-5.00944 36.1278 0.192997)
(-3.4961 41.0191 0.0426815)
(3.95673 16.9395 0.198307)
(8.92588 24.2164 -0.21618)
(-6.71084 48.5613 0.332788)
(-4.69077 55.1854 0.0461593)
(4.81534 25.0392 0.377713)
(11.1126 34.934 -0.362731)
(-8.74947 63.0544 0.596757)
(-6.18051 71.6874 0.0893735)
(5.4517 35.8057 0.640201)
(13.0288 48.7146 -0.603318)
(-11.2244 79.7629 1.14224)
(-8.10182 90.6534 0.293419)
(5.66873 49.8281 0.982853)
(14.3604 66.0593 -1.00121)
(-14.2692 98.615 2.23361)
(-10.6663 111.924 0.88881)
(5.18012 67.5219 1.4068)
(14.6633 87.1702 -1.58646)
(-17.999 119.311 4.10912)
(-14.0702 134.944 2.09241)
(3.69597 88.7758 2.01098)
(13.5184 111.506 -2.23436)
(-22.4664 141.447 7.25572)
(-18.4272 159.113 4.37221)
(0.936332 113.213 2.91183)
(10.5882 138.335 -2.73933)
(-27.6411 164.566 12.0843)
(-23.7707 183.783 8.16111)
(-3.33684 140.188 4.42556)
(5.61645 166.735 -2.64767)
(-33.0774 186.97 18.529)
(-29.679 206.924 13.4547)
(-9.03337 167.712 6.87183)
(-1.19396 194.324 -1.42882)
(-38.2773 207.045 25.6786)
(-35.6402 226.801 19.4522)
(-15.7454 193.667 10.2343)
(-9.27662 218.981 1.07244)
(-43.0014 223.172 31.7969)
(-41.4478 241.835 24.6397)
(-22.9604 215.645 13.6149)
(-17.9433 238.564 4.10983)
(-47.5312 234.265 34.0914)
(-47.1895 251.204 26.6071)
(-29.6757 230.887 15.0636)
(-25.9037 250.971 5.8539)
(-52.5896 243.071 32.6632)
(-53.3226 257.969 25.4279)
(-35.8994 241.902 14.2766)
(-33.0316 259.126 5.76779)
(-58.916 252.956 29.367)
(-60.5227 265.459 22.7858)
(-42.2084 252.038 12.0538)
(-39.906 266.3 4.47508)
(-66.6463 266.09 25.526)
(-68.8997 275.804 19.8249)
(-48.7433 263.329 9.18682)
(-46.6783 274.462 2.63861)
(-75.4413 282.318 21.4614)
(-78.1107 289.051 16.8373)
(-55.6303 276.482 5.955)
(-53.5198 284.319 0.568966)
(-85.04 300.696 17.7989)
(-87.8767 304.433 14.29)
(-62.8973 291.254 3.12378)
(-60.5308 295.75 -1.09963)
(-95.2417 319.814 14.3429)
(-97.9611 320.689 11.9536)
(-70.7479 307.218 0.637466)
(-68.0262 308.435 -2.39267)
(-104.9 336.889 11.4403)
(-107.167 335.311 9.91925)
(-78.4744 322.32 -0.549413)
(-75.4262 320.741 -2.59744)
(-112.729 349.709 8.62879)
(-114.347 346.237 7.68781)
(-85.2999 334.914 -0.86163)
(-82.047 331.234 -2.19045)
(-118.97 358.994 6.12392)
(-119.849 354.016 5.55941)
(-91.3561 345.345 -0.780486)
(-88.0051 340.074 -1.606)
(-123.91 365.57 4.13685)
(-124.034 359.378 3.80828)
(-96.6628 353.881 -0.578846)
(-93.2845 347.396 -1.07382)
(-127.838 370.26 2.68153)
(-127.245 363.068 2.49921)
(-101.261 360.859 -0.385736)
(-97.8963 353.428 -0.673078)
(-130.993 373.689 1.6691)
(-129.743 365.652 1.57394)
(-105.239 366.62 -0.23753)
(-101.902 358.428 -0.398251)
(-133.527 376.188 1.00022)
(-131.689 367.455 0.955533)
(-108.603 371.304 -0.135742)
(-105.293 362.498 -0.222811)
(-135.539 378.023 0.578761)
(-133.199 368.721 0.561016)
(-111.377 375.049 -0.0715264)
(-108.095 365.757 -0.117172)
(-137.138 379.405 0.320061)
(-134.373 369.639 0.316151)
(-113.645 378.044 -0.0330034)
(-110.385 368.365 -0.0559094)
(-138.415 380.456 0.166965)
(-135.297 370.314 0.169281)
(-115.488 380.437 -0.0122399)
(-112.245 370.449 -0.0229406)
(-139.431 381.262 0.0801067)
(-136.023 370.816 0.0844565)
(-116.976 382.338 -0.00208917)
(-113.746 372.104 -0.00649026)
(-140.237 381.891 0.0334159)
(-136.594 371.199 0.0374826)
(-118.172 383.855 0.00186367)
(-114.953 373.424 0.000491145)
(-140.879 382.386 0.0109551)
(-137.043 371.497 0.0136819)
(-119.133 385.068 0.002171)
(-115.921 374.48 0.00201435)
(-141.39 382.777 0.00256544)
(-137.399 371.728 0.00362758)
(-119.902 386.038 0.000346719)
(-116.695 375.323 0.000472247)
(0.33333 1.715 0.0049562)
(1.03422 2.44476 -0.00789869)
(0.348822 1.2415 -0.00580432)
(1.5146 2.00231 -0.0307152)
(0.239149 1.16347 -0.00195746)
(1.48828 1.90556 -0.0310544)
(0.171001 1.07533 -0.00489314)
(1.35177 1.80254 -0.0339376)
(0.119465 1.03782 -0.00375439)
(1.20006 1.75017 -0.0317903)
(0.0817959 1.01152 -0.00386779)
(1.0603 1.71095 -0.0298809)
(0.0507912 0.993716 -0.00383416)
(0.928872 1.68024 -0.0272719)
(1.0852 5.53001 -0.035212)
(3.2661 7.89061 -0.102732)
(1.12979 4.11254 -0.0422688)
(4.7186 6.60231 -0.156288)
(0.796684 3.84175 -0.0384684)
(4.61813 6.2663 -0.179929)
(0.577345 3.58371 -0.0405148)
(4.18825 5.95114 -0.193748)
(0.415337 3.46046 -0.0382299)
(3.72639 5.77567 -0.195451)
(0.295647 3.37927 -0.0368316)
(3.30852 5.65097 -0.191865)
(0.197931 3.32286 -0.035913)
(2.92564 5.55441 -0.183974)
(2.02453 10.2579 -0.139281)
(5.91777 14.6399 -0.322768)
(2.09959 7.8209 -0.143472)
(8.4341 12.4873 -0.439802)
(1.5154 7.29534 -0.14356)
(8.21781 11.8313 -0.513923)
(1.1123 6.85298 -0.143898)
(7.43995 11.2692 -0.548895)
(0.818324 6.62578 -0.139451)
(6.62992 10.9394 -0.555875)
(0.600249 6.47926 -0.135955)
(5.90931 10.7108 -0.548275)
(0.422913 6.37641 -0.132956)
(5.26041 10.536 -0.531474)
(3.18178 16.1059 -0.34849)
(9.00055 22.9672 -0.746211)
(3.28915 12.6063 -0.347866)
(12.6253 19.976 -0.97189)
(2.42513 11.7599 -0.359682)
(12.2267 18.9079 -1.13118)
(1.80294 11.1165 -0.355284)
(11.0395 18.0584 -1.19248)
(1.35255 10.7684 -0.345878)
(9.84541 17.5453 -1.20014)
(1.01806 10.5455 -0.337522)
(8.80337 17.1968 -1.18092)
(0.747001 10.3881 -0.329725)
(7.88012 16.9328 -1.14747)
(4.5764 23.3268 -0.705264)
(12.4762 33.1814 -1.46346)
(4.71957 18.7641 -0.708132)
(17.1746 29.4234 -1.87229)
(3.54566 17.5345 -0.736868)
(16.4959 27.848 -2.14335)
(2.66744 16.6726 -0.725907)
(14.8363 26.672 -2.22562)
(2.03461 16.1883 -0.707558)
(13.2309 25.953 -2.21993)
(1.56494 15.8785 -0.690708)
(11.8588 25.4726 -2.17636)
(1.18575 15.6588 -0.674775)
(10.662 25.1114 -2.11579)
(6.19995 32.2265 -1.25291)
(16.224 45.6111 -2.57864)
(6.38496 26.6476 -1.29499)
(21.846 41.1931 -3.29161)
(4.87043 24.9837 -1.33894)
(20.7577 39.0255 -3.6763)
(3.69978 23.8894 -1.31959)
(18.569 37.4962 -3.75757)
(2.85903 23.257 -1.28746)
(16.5393 36.5594 -3.71526)
(2.2364 22.8515 -1.25722)
(14.8421 35.9412 -3.62934)
(1.73591 22.5636 -1.22873)
(13.3846 35.4789 -3.52787)
(7.99002 43.1932 -2.02608)
(20.0151 60.6099 -4.19308)
(8.21522 36.6635 -2.18689)
(26.2505 55.6053 -5.37317)
(6.32688 34.5263 -2.237)
(24.5902 52.775 -5.82705)
(4.82999 33.1918 -2.20402)
(21.826 50.8846 -5.86134)
(3.75874 32.4063 -2.15257)
(19.3742 49.7335 -5.75071)
(2.96876 31.9006 -2.10367)
(17.3711 48.9808 -5.60114)
(2.33751 31.5411 -2.05803)
(15.6798 48.4193 -5.44373)
(9.7819 56.6366 -3.01685)
(23.4563 78.4252 -6.35064)
(10.0074 49.2131 -3.43854)
(29.7969 72.8111 -8.17859)
(7.70812 46.5711 -3.47696)
(27.3875 69.263 -8.59009)
(5.85747 44.9913 -3.41369)
(24.0221 67.0181 -8.49519)
(4.53951 44.0547 -3.33123)
(21.1705 65.6686 -8.26886)
(3.57359 43.4516 -3.25507)
(18.8976 64.7957 -8.02733)
(2.8078 43.0235 -3.18571)
(17.0138 64.1472 -7.79576)
(11.2772 72.8971 -4.14208)
(25.9612 99.0705 -8.96338)
(11.4352 64.6578 -5.05079)
(31.7787 92.7877 -11.6166)
(8.70921 61.5054 -5.06868)
(28.5064 88.5305 -11.8614)
(6.49954 59.6897 -4.95467)
(24.5712 85.9657 -11.5557)
(4.93563 58.6126 -4.82748)
(21.3821 84.4414 -11.1713)
(3.79864 57.9187 -4.71553)
(18.904 83.4608 -10.815)
(2.9061 57.4266 -4.61699)
(16.8913 82.7333 -10.4966)
(12.0065 92.064 -5.23281)
(26.8379 122.03 -11.7369)
(11.977 83.0893 -6.85188)
(31.4708 114.967 -15.2175)
(8.83086 79.4499 -6.86681)
(27.3104 110.055 -15.1942)
(6.28461 77.4185 -6.69127)
(22.8902 107.216 -14.6256)
(4.49607 76.2256 -6.50972)
(19.4534 105.56 -14.061)
(3.20852 75.4624 -6.35546)
(16.8501 104.508 -13.5815)
(2.21059 74.9222 -6.22415)
(14.7818 103.731 -13.175)
(11.4229 113.977 -5.99862)
(25.4728 146.601 -14.1796)
(11.0188 104.341 -8.50541)
(28.3701 138.631 -18.317)
(7.49267 100.277 -8.54039)
(23.4095 133.181 -17.9704)
(4.67183 98.0607 -8.30114)
(18.6523 130.125 -17.1255)
(2.71071 96.7741 -8.06367)
(15.0926 128.367 -16.385)
(1.31585 95.9577 -7.86799)
(12.4644 127.261 -15.7936)
(0.251395 95.3821 -7.7066)
(10.4255 126.448 -15.3134)
(8.96474 138.327 -6.06757)
(21.4014 172.088 -15.6564)
(8.01058 128.038 -9.52992)
(22.3277 163.069 -20.1475)
(4.17939 123.618 -9.63493)
(16.7846 157.205 -19.5275)
(1.17379 121.25 -9.35998)
(11.8861 153.991 -18.4749)
(-0.88884 119.896 -9.08416)
(8.34244 152.169 -17.6116)
(-2.33473 119.047 -8.86)
(5.79053 151.04 -16.9494)
(-3.41675 118.45 -8.68027)
(3.86175 150.215 -16.4307)
(4.23835 163.833 -5.05743)
(14.5681 196.841 -15.5089)
(2.58048 153.07 -9.33445)
(13.6292 186.926 -19.9713)
(-1.44511 148.463 -9.53302)
(7.79546 180.904 -19.1612)
(-4.51559 146.028 -9.25649)
(2.97151 177.65 -18.005)
(-6.58769 144.653 -8.97057)
(-0.41256 175.828 -17.0988)
(-8.01483 143.804 -8.7405)
(-2.78955 174.714 -16.4264)
(-9.05653 143.205 -8.56244)
(-4.53466 173.902 -15.9187)
(-2.76665 189.103 -2.77508)
(5.33124 219.559 -13.3921)
(-5.04111 178.546 -7.58624)
(3.05111 209.421 -17.5642)
(-9.12541 173.902 -7.90638)
(-2.73472 203.474 -16.7224)
(-12.1634 171.473 -7.67357)
(-7.30841 200.293 -15.595)
(-14.1758 170.117 -7.41397)
(-10.4367 198.528 -14.7362)
(-15.5323 169.292 -7.20656)
(-12.582 197.465 -14.118)
(-16.5012 168.741 -7.04716)
(-14.1201 196.728 -13.6627)
(-11.6242 212.346 0.539703)
(-5.48557 238.941 -9.61633)
(-14.2044 202.836 -4.45806)
(-8.34053 229.452 -13.3766)
(-18.2178 198.443 -4.93171)
(-13.8345 223.917 -12.6404)
(-21.1353 196.169 -4.7808)
(-18.0492 220.982 -11.6427)
(-23.0284 194.92 -4.57618)
(-20.8688 219.373 -10.8966)
(-24.2733 194.178 -4.41128)
(-22.7563 218.422 -10.3748)
(-25.1339 193.689 -4.28988)
(-24.0724 217.781 -10.0046)
(-20.4882 230.288 3.21472)
(-15.7012 252.785 -6.03757)
(-23.0449 222.503 -1.45573)
(-18.5077 244.716 -9.2181)
(-26.8159 218.714 -2.02465)
(-23.5207 239.918 -8.62957)
(-29.509 216.764 -1.9592)
(-27.3025 237.384 -7.80748)
(-31.226 215.708 -1.81761)
(-29.791 236.008 -7.19919)
(-32.33 215.095 -1.69972)
(-31.4225 235.208 -6.78374)
(-33.0697 214.693 -1.61663)
(-32.5307 234.681 -6.499)
(-28.4765 243.918 4.30631)
(-24.52 262.651 -3.88715)
(-30.7493 237.969 0.375275)
(-26.9634 256.208 -6.30358)
(-34.1406 234.916 -0.172454)
(-31.4033 252.255 -5.78624)
(-36.5393 233.355 -0.148515)
(-34.7297 250.172 -5.09957)
(-38.0486 232.519 -0.0472089)
(-36.8928 249.052 -4.60108)
(-39.0014 232.045 0.0391831)
(-38.2865 248.41 -4.2687)
(-39.6219 231.733 0.0974021)
(-39.2115 247.994 -4.04837)
(-35.9411 255.901 4.0978)
(-32.4329 271.06 -2.97827)
(-37.686 251.473 1.0788)
(-34.3152 266.031 -4.5829)
(-40.5665 249.119 0.639444)
(-38.1021 262.883 -4.0718)
(-42.6067 247.922 0.659791)
(-40.9446 261.23 -3.48026)
(-43.8814 247.29 0.740878)
(-42.7806 260.348 -3.0642)
(-44.6757 246.937 0.808357)
(-43.9487 259.848 -2.794)
(-45.1824 246.705 0.851685)
(-44.7101 259.53 -2.62038)
(-43.1668 267.97 3.15376)
(-39.8101 279.597 -2.79415)
(-44.2097 264.426 1.026)
(-41.027 275.456 -3.67553)
(-46.4495 262.629 0.732683)
(-44.076 272.994 -3.16301)
(-48.0593 261.728 0.765043)
(-46.3857 271.714 -2.65624)
(-49.0684 261.254 0.832953)
(-47.8795 271.033 -2.31189)
(-49.6968 260.985 0.884221)
(-48.8287 270.642 -2.09342)
(-50.1033 260.832 0.91658)
(-49.4517 270.413 -1.95399)
(-50.3075 280.992 2.08171)
(-46.8813 289.089 -2.76687)
(-50.5288 277.798 0.703772)
(-47.3577 285.352 -3.10164)
(-52.0641 276.344 0.540132)
(-49.6323 283.367 -2.61222)
(-53.2182 275.631 0.579137)
(-51.4005 282.359 -2.19271)
(-53.954 275.259 0.632724)
(-52.5561 281.825 -1.91755)
(-54.4179 275.049 0.670204)
(-53.297 281.519 -1.74557)
(-54.7211 274.926 0.691923)
(-53.7879 281.338 -1.63704)
(-57.4814 295.236 1.37142)
(-53.8354 299.812 -2.45185)
(-56.7349 292.021 0.483791)
(-53.4344 296.126 -2.52124)
(-57.568 290.738 0.384491)
(-54.9493 294.429 -2.11254)
(-58.2864 290.122 0.411303)
(-56.2096 293.59 -1.78969)
(-58.7639 289.802 0.444291)
(-57.0522 293.148 -1.58358)
(-59.072 289.62 0.465646)
(-57.6003 292.894 -1.45652)
(-59.2772 289.514 0.476334)
(-57.9687 292.743 -1.3771)
(-64.809 310.699 1.1679)
(-60.876 311.823 -1.67342)
(-62.9996 307.343 0.459991)
(-59.4797 308.03 -1.78712)
(-63.1649 306.173 0.371228)
(-60.274 306.518 -1.50369)
(-63.4793 305.619 0.37074)
(-61.0686 305.788 -1.28704)
(-63.7172 305.336 0.3797)
(-61.6232 305.411 -1.15202)
(-63.8795 305.186 0.386288)
(-61.9902 305.204 -1.06971)
(-63.9804 305.06 0.385824)
(-62.23 305.051 -1.02119)
(-71.7103 325.658 1.23576)
(-67.5376 323.811 -0.746883)
(-68.8454 322.276 0.492653)
(-65.0918 319.961 -1.0901)
(-68.4178 321.273 0.411965)
(-65.2379 318.635 -0.91738)
(-68.3797 320.788 0.39075)
(-65.6275 317.989 -0.788438)
(-68.4102 320.538 0.380235)
(-65.9344 317.657 -0.711852)
(-68.446 320.406 0.372753)
(-66.1451 317.477 -0.667537)
(-68.4683 320.305 0.36418)
(-66.283 317.352 -0.64332)
(-77.6237 338.249 1.20834)
(-73.3248 334.181 -0.112832)
(-73.8254 335.079 0.455419)
(-69.9031 330.489 -0.613837)
(-72.8917 334.294 0.414344)
(-69.4868 329.374 -0.49271)
(-72.5557 333.889 0.389092)
(-69.5337 328.809 -0.419354)
(-72.4148 333.679 0.370596)
(-69.6369 328.52 -0.380482)
(-72.3485 333.57 0.356971)
(-69.7229 328.365 -0.360203)
(-72.31 333.493 0.345443)
(-69.7827 328.265 -0.350661)
(-82.7654 348.703 1.03937)
(-78.4501 342.994 0.203287)
(-78.1318 345.941 0.361898)
(-74.1302 339.67 -0.324921)
(-76.74 345.39 0.374122)
(-73.1988 338.783 -0.215208)
(-76.1374 345.075 0.352513)
(-72.9376 338.307 -0.175618)
(-75.8461 344.915 0.332684)
(-72.8623 338.066 -0.15978)
(-75.6924 344.833 0.31765)
(-72.8418 337.939 -0.153857)
(-75.6024 344.778 0.305903)
(-72.8362 337.861 -0.152768)
(-87.2138 357.237 0.800813)
(-82.9718 350.328 0.296076)
(-81.8378 354.996 0.259872)
(-77.8511 347.523 -0.160347)
(-80.0267 354.678 0.312794)
(-76.4441 346.877 -0.0515953)
(-79.1831 354.459 0.295495)
(-75.9019 346.501 -0.0330406)
(-78.7578 354.353 0.277628)
(-75.6664 346.317 -0.0302165)
(-78.5272 354.302 0.263774)
(-75.5518 346.223 -0.0320606)
(-78.3921 354.268 0.253274)
(-75.4893 346.167 -0.0353152)
(-91.0449 364.158 0.567734)
(-86.9417 356.371 0.276094)
(-85.0086 362.472 0.173499)
(-81.1156 354.157 -0.0721117)
(-82.815 362.367 0.244602)
(-79.2703 353.749 0.0300319)
(-81.7545 362.246 0.230485)
(-78.4716 353.483 0.0357652)
(-81.2095 362.196 0.216138)
(-78.0909 353.361 0.0325798)
(-80.9107 362.176 0.20463)
(-77.8918 353.301 0.0274393)
(-80.736 362.162 0.195966)
(-77.7788 353.266 0.0225599)
(-94.349 369.808 0.375217)
(-90.4149 361.35 0.214735)
(-87.724 368.656 0.108314)
(-83.971 359.732 -0.028297)
(-85.1817 368.736 0.179073)
(-81.7228 359.545 0.059298)
(-83.9262 368.707 0.16825)
(-80.6903 359.387 0.0588644)
(-83.2737 368.709 0.158521)
(-80.1776 359.324 0.0544993)
(-82.914 368.717 0.149854)
(-79.9021 359.298 0.0487185)
(-82.704 368.719 0.143151)
(-79.7436 359.282 0.0436613)
(-97.1282 374.342 0.233526)
(-93.3686 365.373 0.149153)
(-89.9991 373.682 0.0636376)
(-86.4113 364.324 -0.00924797)
(-87.1497 373.916 0.12276)
(-83.8071 364.335 0.0591578)
(-85.724 373.971 0.115997)
(-82.5681 364.281 0.0577596)
(-84.9777 374.018 0.11154)
(-81.9385 364.274 0.0555469)
(-84.565 374.05 0.105793)
(-81.5956 364.277 0.0508107)
(-84.3243 374.066 0.100906)
(-81.3972 364.278 0.0464379)
(-99.416 377.922 0.137934)
(-95.8281 368.572 0.0955504)
(-91.8679 377.706 0.0350666)
(-88.4566 368.052 -0.00256189)
(-88.7564 378.067 0.0785608)
(-85.5479 368.237 0.0463335)
(-87.1866 378.196 0.0759272)
(-84.1319 368.28 0.0466838)
(-86.3607 378.283 0.0766714)
(-83.4017 368.324 0.0482287)
(-85.9031 378.335 0.0738262)
(-83.0007 368.354 0.0453651)
(-85.6366 378.363 0.0705788)
(-82.7683 368.37 0.0419003)
(-101.285 380.751 0.0768596)
(-97.8535 371.111 0.0568784)
(-93.391 380.92 0.0176985)
(-90.1498 371.062 -0.00110205)
(-90.0586 381.381 0.0465713)
(-86.9843 371.395 0.0310067)
(-88.3682 381.573 0.0469655)
(-85.4188 371.524 0.0333414)
(-87.4758 381.694 0.0519249)
(-84.6033 371.613 0.0387926)
(-86.9808 381.763 0.0522903)
(-84.1533 371.666 0.0388384)
(-86.6929 381.801 0.050929)
(-83.8921 371.695 0.036903)
(-102.797 382.985 0.0400315)
(-99.5028 373.124 0.0315401)
(-94.6245 383.482 0.00742962)
(-91.5393 373.482 -0.00160232)
(-91.1084 384.019 0.0250266)
(-88.1606 373.935 0.0179198)
(-89.318 384.262 0.0267619)
(-86.4702 374.137 0.021075)
(-88.3707 384.41 0.0338726)
(-85.5835 374.264 0.0289578)
(-87.845 384.495 0.0376555)
(-85.0929 374.337 0.0327685)
(-87.5397 384.541 0.0387819)
(-84.8079 374.379 0.0333522)
(-104.018 384.745 0.0188916)
(-100.841 374.713 0.015992)
(-95.6188 385.52 0.00197356)
(-92.6725 375.419 -0.00213618)
(-91.9508 386.114 0.0117585)
(-89.1179 375.969 0.00870389)
(-90.0781 386.399 0.0134668)
(-87.3242 376.231 0.0114025)
(-89.0853 386.568 0.0200966)
(-86.3784 376.39 0.0190892)
(-88.5349 386.667 0.026516)
(-85.8544 376.483 0.0262797)
(-88.2158 386.722 0.0308769)
(-85.5502 376.536 0.0305766)
(-105.002 386.138 0.00756375)
(-101.924 375.972 0.00710399)
(-96.4189 387.143 -0.000447876)
(-93.5923 376.971 -0.00214957)
(-92.6262 387.781 0.00440385)
(-89.8936 377.598 0.00320214)
(-90.6862 388.098 0.00543684)
(-88.015 377.908 0.0048106)
(-89.6559 388.282 0.00961766)
(-87.0202 378.091 0.00996919)
(-89.0854 388.392 0.0163277)
(-86.469 378.201 0.0180106)
(-88.7555 388.456 0.023792)
(-86.1497 378.266 0.0262111)
(-105.79 387.243 0.00229142)
(-102.794 376.972 0.00259163)
(-97.0609 388.437 -0.00104116)
(-94.335 378.213 -0.00161975)
(-93.1668 389.107 0.000999244)
(-90.5191 378.9 0.000607851)
(-91.1723 389.448 0.00136342)
(-88.5716 379.248 0.00122037)
(-90.1109 389.642 0.00287598)
(-87.536 379.447 0.0033185)
(-89.5234 389.757 0.00710095)
(-86.9619 379.566 0.00871566)
(-89.1851 389.829 0.0148278)
(-86.6307 379.642 0.0175968)
(-106.421 388.119 0.000357508)
(-103.492 377.766 0.000578337)
(-97.5748 389.467 -0.00070796)
(-94.9323 379.204 -0.000781541)
(-93.5987 390.16 -0.000178226)
(-91.0218 379.937 -0.000196166)
(-91.5603 390.521 -0.000147736)
(-89.0185 380.317 -0.000105253)
(-90.4733 390.719 -0.000244477)
(-87.9493 380.525 -4.28542e-05)
(-89.8706 390.833 0.000112821)
(-87.3551 380.645 0.000608341)
(-89.524 390.905 0.00400437)
(-87.0126 380.724 0.00520515)
(0.0201984 0.979173 -0.00382615)
(0.792947 1.65259 -0.0247527)
(-0.00869161 0.967676 -0.00365674)
(0.66675 1.63122 -0.021572)
(-0.0331858 0.959221 -0.00350518)
(0.562698 1.61683 -0.0188274)
(-0.0629625 0.950155 -0.00355496)
(0.439993 1.60102 -0.0164152)
(-0.116147 0.936852 -0.00374249)
(0.230437 1.57475 -0.013033)
(-0.253262 0.918397 -0.00339732)
(-0.277312 1.52837 -0.00372945)
(0.101744 3.27552 -0.03477)
(2.53794 5.46911 -0.173731)
(0.010563 3.23657 -0.0329744)
(2.17367 5.39762 -0.160453)
(-0.0672551 3.20711 -0.0312078)
(1.86657 5.34497 -0.148172)
(-0.162031 3.17569 -0.0292649)
(1.49735 5.28793 -0.133842)
(-0.331286 3.13014 -0.0261979)
(0.856103 5.19898 -0.110598)
(-0.767747 3.0614 -0.0172583)
(-0.717298 5.03814 -0.055755)
(0.248858 6.28874 -0.128884)
(4.61228 10.3844 -0.510518)
(0.0835314 6.21545 -0.123123)
(4.00199 10.2541 -0.481816)
(-0.0580294 6.1595 -0.117428)
(3.48254 10.1556 -0.454534)
(-0.23053 6.099 -0.110451)
(2.85144 10.0467 -0.420858)
(-0.538479 6.0094 -0.0983333)
(1.74051 9.8745 -0.361875)
(-1.33357 5.86539 -0.0660994)
(-1.03295 9.55355 -0.215483)
(0.481959 10.2523 -0.319583)
(6.96873 16.7078 -1.10864)
(0.230184 10.1371 -0.306376)
(6.11207 16.5111 -1.05709)
(0.0142093 10.0482 -0.293904)
(5.37944 16.3604 -1.00906)
(-0.24912 9.95094 -0.278623)
(4.48349 16.1917 -0.94968)
(-0.719215 9.80396 -0.251126)
(2.89028 15.9192 -0.841981)
(-1.93415 9.55293 -0.175622)
(-1.15876 15.3856 -0.552825)
(0.81677 15.4677 -0.654794)
(9.49322 24.8077 -2.04988)
(0.466724 15.303 -0.629937)
(8.39894 24.5388 -1.96676)
(0.166133 15.1748 -0.606942)
(7.46136 24.3313 -1.89099)
(-0.200503 15.033 -0.578787)
(6.31066 24.0975 -1.7981)
(-0.854991 14.8145 -0.527548)
(4.25081 23.7141 -1.62818)
(-2.54689 14.4199 -0.384853)
(-1.05949 22.9232 -1.15089)
(1.25185 22.3117 -1.1942)
(11.9763 35.0949 -3.42298)
(0.793821 22.0918 -1.15261)
(10.6652 34.751 -3.29792)
(0.400226 21.9191 -1.11468)
(9.54172 34.4848 -3.18606)
(-0.0799573 21.7262 -1.06841)
(8.1609 34.1842 -3.05022)
(-0.936846 21.4235 -0.984182)
(5.68034 33.6866 -2.80262)
(-3.15022 20.8481 -0.748988)
(-0.77279 32.6142 -2.1)
(1.73175 31.2263 -2.00428)
(14.0643 47.9592 -5.28752)
(1.16074 30.9474 -1.94087)
(12.5706 47.5424 -5.11053)
(0.669871 30.727 -1.88355)
(11.2923 47.2189 -4.95452)
(0.0709091 30.4786 -1.81378)
(9.72139 46.8533 -4.76616)
(-0.997502 30.0828 -1.6867)
(6.89606 46.2457 -4.42451)
(-3.75268 29.299 -1.33255)
(-0.484635 44.8973 -3.46342)
(2.07997 42.6503 -3.10692)
(15.2367 63.6242 -7.57406)
(1.39769 42.3165 -3.01627)
(13.6069 63.1472 -7.33558)
(0.811261 42.0513 -2.93511)
(12.2155 62.7765 -7.12816)
(0.0958228 41.7502 -2.83676)
(10.5078 62.357 -6.87909)
(-1.17887 41.263 -2.65874)
(7.43943 61.656 -6.43141)
(-4.45508 40.2604 -2.16811)
(-0.574816 60.0624 -5.19597)
(2.06745 57.0008 -4.50923)
(15.0171 82.1556 -10.2007)
(1.28658 56.6164 -4.3882)
(13.3137 81.6258 -9.89664)
(0.61564 56.3094 -4.28106)
(11.8635 81.2129 -9.63515)
(-0.202889 55.9588 -4.15218)
(10.0866 80.7448 -9.32241)
(-1.65983 55.3857 -3.92037)
(6.89971 79.9622 -8.76409)
(-5.39041 54.1771 -3.28653)
(-1.40613 78.1738 -7.24703)
(1.28446 74.4635 -6.08621)
(12.8807 103.126 -12.8063)
(0.428581 74.0422 -5.93391)
(11.1688 102.566 -12.4399)
(-0.306569 73.7055 -5.79999)
(9.7155 102.129 -12.1271)
(-1.20323 73.3191 -5.63967)
(7.93878 101.633 -11.7534)
(-2.79657 72.6804 -5.35339)
(4.76127 100.8 -11.0898)
(-6.85366 71.2995 -4.58237)
(-3.48048 98.8778 -9.31685)
(-0.724466 94.9015 -7.54262)
(8.5747 125.826 -14.8863)
(-1.61919 94.4526 -7.36464)
(6.92274 125.244 -14.4739)
(-2.3874 94.0936 -7.20928)
(5.52411 124.79 -14.1239)
(-3.32428 93.6801 -7.0244)
(3.81792 124.273 -13.7062)
(-4.98642 92.9917 -6.69656)
(0.775542 123.403 -12.968)
(-9.19238 91.4825 -5.82446)
(-7.07122 121.401 -11.0212)
(-4.39775 117.966 -8.50188)
(2.1299 149.596 -15.9757)
(-5.28977 117.504 -8.31021)
(0.596531 149.013 -15.5449)
(-6.05534 117.136 -8.14363)
(-0.698501 148.558 -15.1806)
(-6.98872 116.71 -7.94628)
(-2.27509 148.038 -14.746)
(-8.64123 115.997 -7.59818)
(-5.07753 147.16 -13.9801)
(-12.7902 114.414 -6.68303)
(-12.2566 145.138 -11.9835)
(-9.99457 142.738 -8.38747)
(-6.08974 173.31 -15.4771)
(-10.8402 142.281 -8.20031)
(-7.45704 172.743 -15.0645)
(-11.5661 141.917 -8.0381)
(-8.60969 172.301 -14.7163)
(-12.4507 141.496 -7.84699)
(-10.0104 171.794 -14.3014)
(-14.0134 140.787 -7.51161)
(-12.493 170.937 -13.5722)
(-17.9014 139.206 -6.6385)
(-18.8076 168.968 -11.6893)
(-17.3452 168.28 -6.89441)
(-15.4527 196.161 -13.2737)
(-18.1148 167.868 -6.73027)
(-16.6334 195.65 -12.9106)
(-18.7735 167.527 -6.59053)
(-17.6261 195.241 -12.6062)
(-19.5762 167.128 -6.4266)
(-18.8305 194.77 -12.244)
(-20.9909 166.457 -6.1389)
(-20.9589 193.972 -11.6087)
(-24.4526 164.96 -5.39983)
(-26.3039 192.143 -9.99141)
(-25.8662 193.298 -4.17605)
(-25.1891 217.297 -9.69292)
(-26.5304 192.944 -4.04855)
(-26.1712 216.857 -9.40016)
(-27.1027 192.649 -3.94073)
(-27 216.503 -9.15493)
(-27.8017 192.302 -3.81664)
(-28.0062 216.094 -8.86495)
(-29.0308 191.717 -3.60167)
(-29.7794 215.4 -8.36018)
(-31.9644 190.43 -3.06416)
(-34.1485 213.829 -7.10548)
(-33.6912 214.395 -1.53783)
(-33.459 234.298 -6.2597)
(-34.2478 214.107 -1.44632)
(-34.2667 233.933 -6.03473)
(-34.7329 213.87 -1.36979)
(-34.9533 233.645 -5.84642)
(-35.3284 213.592 -1.28506)
(-35.7891 233.31 -5.62627)
(-36.374 213.121 -1.14241)
(-37.2598 232.74 -5.24754)
(-38.8091 212.109 -0.795181)
(-40.8158 231.473 -4.32936)
(-40.1408 231.519 0.151726)
(-39.9811 247.702 -3.86391)
(-40.6041 231.298 0.216534)
(-40.6502 247.412 -3.68995)
(-41.0124 231.119 0.2692)
(-41.2232 247.185 -3.54512)
(-41.5164 230.908 0.324108)
(-41.9233 246.922 -3.37822)
(-42.4013 230.553 0.412617)
(-43.1543 246.473 -3.09488)
(-44.4172 229.806 0.623041)
(-46.0795 245.495 -2.42458)
(-45.6049 246.556 0.889028)
(-45.3417 259.313 -2.47708)
(-45.9849 246.393 0.934944)
(-45.8946 259.088 -2.34074)
(-46.3234 246.263 0.970247)
(-46.3716 258.914 -2.22843)
(-46.7436 246.111 1.00349)
(-46.9565 258.713 -2.10151)
(-47.4823 245.855 1.05282)
(-47.9854 258.369 -1.88984)
(-49.1336 245.324 1.16693)
(-50.3953 257.632 -1.4024)
(-50.4309 260.711 0.94386)
(-49.9586 270.242 -1.8408)
(-50.7351 260.596 0.978015)
(-50.4096 270.07 -1.73108)
(-51.0071 260.502 1.00148)
(-50.7993 269.937 -1.64284)
(-51.3464 260.392 1.01962)
(-51.2782 269.785 -1.54614)
(-51.944 260.207 1.04124)
(-52.1211 269.521 -1.38925)
(-53.2642 259.818 1.08787)
(-54.089 268.962 -1.03768)
(-54.9692 274.833 0.708709)
(-54.1927 281.206 -1.54963)
(-55.2019 274.744 0.730931)
(-54.5533 281.068 -1.46413)
(-55.4108 274.671 0.743674)
(-54.8643 280.963 -1.39724)
(-55.6721 274.586 0.748999)
(-55.2455 280.845 -1.32682)
(-56.1336 274.444 0.748558)
(-55.917 280.64 -1.21616)
(-57.1483 274.147 0.745918)
(-57.4918 280.209 -0.973557)
(-59.447 289.43 0.483022)
(-58.2757 292.632 -1.31399)
(-59.6116 289.357 0.493446)
(-58.5523 292.518 -1.25181)
(-59.7593 289.294 0.495758)
(-58.7899 292.432 -1.20513)
(-59.9443 289.22 0.489189)
(-59.0805 292.335 -1.15872)
(-60.2729 289.1 0.469213)
(-59.5929 292.166 -1.089)
(-60.9945 288.846 0.425283)
(-60.8023 291.813 -0.939805)
(-64.0825 305.005 0.379692)
(-62.4485 304.972 -0.983966)
(-64.1795 304.935 0.375539)
(-62.6445 304.871 -0.947639)
(-64.2682 304.879 0.366453)
(-62.8144 304.797 -0.921842)
(-64.3789 304.81 0.348315)
(-63.0215 304.712 -0.898687)
(-64.5783 304.703 0.311532)
(-63.3879 304.57 -0.866452)
(-65.0145 304.475 0.236178)
(-64.2477 304.265 -0.799742)
(-68.4986 320.246 0.352633)
(-66.4105 317.275 -0.62613)
(-68.5361 320.192 0.341606)
(-66.5342 317.196 -0.608811)
(-68.5696 320.141 0.326776)
(-66.642 317.131 -0.598535)
(-68.6116 320.078 0.3028)
(-66.7745 317.055 -0.592415)
(-68.6915 319.983 0.257068)
(-67.0115 316.931 -0.587717)
(-68.8722 319.782 0.164344)
(-67.5641 316.664 -0.581182)
(-72.2847 333.434 0.332591)
(-69.8396 328.19 -0.345505)
(-72.2736 333.397 0.319446)
(-69.9043 328.13 -0.339979)
(-72.2608 333.355 0.303345)
(-69.9602 328.075 -0.339118)
(-72.2439 333.301 0.279009)
(-70.0292 328.009 -0.342896)
(-72.2209 333.222 0.233794)
(-70.1561 327.904 -0.353598)
(-72.1893 333.055 0.14374)
(-70.4552 327.673 -0.378782)
(-75.5324 344.727 0.293821)
(-72.8362 337.794 -0.154188)
(-75.4803 344.707 0.281176)
(-72.851 337.752 -0.155314)
(-75.4279 344.675 0.266358)
(-72.8622 337.709 -0.159437)
(-75.36 344.635 0.244697)
(-72.8759 337.655 -0.168011)
(-75.2475 344.58 0.205058)
(-72.9064 337.573 -0.185656)
(-75.036 344.458 0.127502)
(-72.99 337.384 -0.224001)
(-78.2853 354.23 0.242985)
(-75.4416 346.112 -0.0397579)
(-78.1983 354.224 0.232163)
(-75.4133 346.088 -0.0440235)
(-78.1117 354.205 0.219819)
(-75.3855 346.056 -0.0501474)
(-77.9994 354.18 0.20211)
(-75.3505 346.016 -0.0601872)
(-77.8088 354.151 0.170009)
(-75.2959 345.96 -0.0794186)
(-77.444 354.079 0.108344)
(-75.1935 345.819 -0.119684)
(-80.598 362.136 0.187752)
(-77.6901 353.224 0.0172607)
(-80.481 362.144 0.179154)
(-77.6244 353.217 0.011971)
(-80.365 362.136 0.16955)
(-77.5624 353.198 0.00557221)
(-80.2142 362.125 0.155935)
(-77.4845 353.172 -0.004015)
(-79.9557 362.122 0.131408)
(-77.3549 353.142 -0.0217131)
(-79.46 362.099 0.0852286)
(-77.0913 353.052 -0.0574922)
(-82.5395 368.706 0.136936)
(-79.6197 359.254 0.0386353)
(-82.3974 368.728 0.130511)
(-79.5217 359.262 0.0335931)
(-82.2565 368.732 0.123424)
(-79.4302 359.256 0.0278993)
(-82.0729 368.737 0.113371)
(-79.3148 359.246 0.0196511)
(-81.7564 368.761 0.0951872)
(-79.1198 359.243 0.00458564)
(-81.1506 368.789 0.061591)
(-78.7175 359.207 -0.0249633)
(-84.1377 374.065 0.0963643)
(-81.2431 364.263 0.0421357)
(-83.9746 374.098 0.0916918)
(-81.1176 364.285 0.0376268)
(-83.8128 374.113 0.0865479)
(-81.0006 364.29 0.0327256)
(-83.6015 374.132 0.0791464)
(-80.8531 364.294 0.0258234)
(-83.2364 374.18 0.0654721)
(-80.6016 364.316 0.0132783)
(-82.5395 374.257 0.0404836)
(-80.0818 364.33 -0.0106072)
(-85.4315 378.371 0.0674586)
(-82.5887 368.366 0.0384543)
(-85.2509 378.413 0.0642352)
(-82.4398 368.4 0.0347919)
(-85.0714 378.436 0.0604998)
(-82.3011 368.414 0.0307488)
(-84.837 378.465 0.0547095)
(-82.1261 368.428 0.0247987)
(-84.4311 378.532 0.0432924)
(-81.8267 368.471 0.0134625)
(-83.6591 378.648 0.0229128)
(-81.2082 368.53 -0.00732927)
(-86.4726 381.816 0.0491903)
(-83.6912 371.701 0.0344855)
(-86.2773 381.864 0.0469922)
(-83.5225 371.742 0.0313698)
(-86.0833 381.893 0.0439689)
(-83.3655 371.764 0.0276154)
(-85.8297 381.93 0.0386673)
(-83.1674 371.787 0.0217425)
(-85.3902 382.011 0.027269)
(-82.8277 371.847 0.0099478)
(-84.5568 382.159 0.00914921)
(-82.1272 371.944 -0.00913056)
(-87.3069 384.562 0.0388516)
(-84.5892 374.391 0.0325898)
(-87.0997 384.615 0.0377633)
(-84.404 374.439 0.030129)
(-86.8937 384.648 0.0350617)
(-84.2318 374.466 0.0262665)
(-86.6243 384.691 0.0291512)
(-84.0144 374.497 0.0194403)
(-86.1574 384.783 0.0153657)
(-83.6413 374.57 0.00485976)
(-85.2743 384.954 -0.00127602)
(-82.8734 374.697 -0.0128705)
(-87.9731 386.748 0.0336572)
(-85.3172 376.556 0.0327512)
(-87.7561 386.804 0.0340658)
(-85.1184 376.609 0.0315435)
(-87.5403 386.84 0.0313289)
(-84.9336 376.639 0.0273231)
(-87.2583 386.888 0.0237304)