/*--------------------------------*- C++ -*----------------------------------*\
| =========                 |                                                 |
| \\      /  F ield         | OpenFOAM: The Open Source CFD Toolbox           |
|  \\    /   O peration     | Version:  2212                                  |
|   \\  /    A nd           | Website:  www.openfoam.com                      |
|    \\/     M anipulation  |                                                 |
\*---------------------------------------------------------------------------*/
FoamFile
{
    version     2.0;
    format      ascii;
    arch        "LSB;label=32;scalar=64";
    class       volVectorField;
    location    "1000";
    object      Urel;
}
// * * * * * * * * * * * * * * * * * * * * * * * * * * * * * * * * * * * * * //

dimensions      [0 1 -1 0 0 0 0];

internalField   nonuniform List<vector> 
50904
(
(96.4783 -373.229 0.0398654)
(94.4663 -365.869 0.0392954)
(89.2436 -374.107 -0.0182859)
(87.9467 -367.232 -0.0246527)
(95.8131 -367.023 0.0428373)
(94.0505 -358.83 0.0353472)
(90.2164 -371.771 -0.00331302)
(89.8549 -363.683 -0.0373598)
(95.0405 -359.533 0.0715697)
(93.5838 -350.317 0.0440273)
(91.3251 -368.558 0.0233126)
(92.036 -358.965 -0.0726926)
(94.1531 -350.573 0.117773)
(93.0653 -340.114 0.0472691)
(92.5525 -364.153 0.0848449)
(94.4595 -352.71 -0.128249)
(93.141 -339.963 0.192997)
(92.4866 -328.011 0.0426815)
(93.858 -358.15 0.198307)
(97.0513 -344.471 -0.21618)
(91.9844 -327.535 0.332788)
(91.8193 -313.819 0.0461593)
(95.1679 -350.063 0.377713)
(99.6765 -333.739 -0.362731)
(90.6277 -313.05 0.596757)
(90.9888 -297.286 0.0893735)
(96.3673 -339.316 0.640201)
(102.139 -319.942 -0.603318)
(88.9953 -296.353 1.14224)
(89.8826 -278.28 0.293419)
(97.2781 -325.325 0.982853)
(104.144 -302.581 -1.00121)
(87.0028 -277.515 2.23361)
(88.3358 -256.96 0.88881)
(97.655 -307.672 1.4068)
(105.287 -281.452 -1.58646)
(84.5458 -256.843 4.10912)
(86.1619 -233.884 2.09241)
(97.2186 -286.484 2.01098)
(105.156 -257.106 -2.23436)
(81.614 -234.738 7.25572)
(83.2836 -209.646 4.37221)
(95.7156 -262.139 2.91183)
(103.438 -230.272 -2.73933)
(78.3143 -211.667 12.0843)
(79.7441 -184.898 8.16111)
(92.9672 -235.298 4.42556)
(99.9355 -201.882 -2.64767)
(75.1142 -189.342 18.529)
(75.9868 -161.678 13.4547)
(89.0719 -207.978 6.87183)
(94.8558 -174.338 -1.42882)
(72.5505 -169.4 25.6786)
(72.5523 -141.74 19.4522)
(84.4429 -182.326 10.2343)
(88.7672 -149.788 1.07244)
(70.8858 -153.52 31.7969)
(69.6664 -126.698 24.6397)
(79.5771 -160.819 13.6149)
(82.3378 -130.415 4.10983)
(69.4606 -142.795 34.0914)
(66.8765 -117.411 26.6071)
(75.144 -146.192 15.0636)
(76.5408 -118.33 5.8539)
(67.2226 -134.489 32.6632)
(63.4144 -110.853 25.4279)
(70.8588 -135.901 14.2766)
(71.2409 -110.607 5.76779)
(63.4159 -125.26 29.367)
(58.589 -103.719 22.7858)
(66.1117 -126.599 12.0538)
(65.8282 -103.98 4.47508)
(57.7434 -112.954 25.526)
(52.1666 -93.9059 19.8249)
(60.5778 -116.253 9.18682)
(60.0008 -96.4832 2.63861)
(50.634 -97.6745 21.4614)
(44.5772 -81.3228 16.8373)
(54.2604 -104.143 5.955)
(53.7082 -87.3974 0.568966)
(42.6591 -80.2744 17.7989)
(36.3692 -66.6376 14.29)
(47.4788 -90.4582 3.12378)
(47.1598 -76.7862 -1.09963)
(34.3419 -62.0565 14.3429)
(28.0695 -51.0043 11.9536)
(40.4213 -75.5824 0.637466)
(40.4049 -64.9127 -2.39267)
(26.6966 -45.6627 11.4403)
(20.7554 -36.822 9.91925)
(33.8028 -61.4133 -0.549413)
(34.0372 -53.2859 -2.59744)
(20.6299 -33.2632 8.62879)
(15.2394 -26.1372 7.68781)
(28.0895 -49.5249 -0.86163)
(28.4609 -43.2901 -2.19045)
(15.9035 -24.2102 6.12392)
(11.1807 -18.4573 5.55941)
(23.0998 -39.6225 -0.780486)
(23.5111 -34.8066 -1.606)
(12.2633 -17.7365 4.13685)
(8.2379 -13.1002 3.80828)
(18.7814 -31.4754 -0.578846)
(19.1696 -27.7328 -1.07382)
(9.4339 -13.0695 2.68153)
(6.08353 -9.36095 2.49921)
(15.0704 -24.7853 -0.385736)
(15.4031 -21.8736 -0.673078)
(7.19234 -9.6217 1.6691)
(4.47423 -6.70199 1.57394)
(11.8741 -19.2434 -0.23753)
(12.1443 -16.9973 -0.398251)
(5.43121 -7.08013 1.00022)
(3.27477 -4.81409 0.955533)
(9.18311 -14.7217 -0.135742)
(9.39499 -13.012 -0.222811)
(4.05168 -5.19083 0.578761)
(2.37833 -3.46186 0.561016)
(6.9736 -11.0961 -0.0715264)
(7.13249 -9.81034 -0.117172)
(2.96109 -3.75533 0.320061)
(1.69809 -2.46636 0.316151)
(5.16928 -8.19073 -0.0330034)
(5.28577 -7.24261 -0.0559094)
(2.09735 -2.65442 0.166965)
(1.17604 -1.72275 0.169281)
(3.70438 -5.8654 -0.0122399)
(3.78784 -5.18688 -0.0229406)
(1.41462 -1.80222 0.0801067)
(0.773531 -1.1607 0.0844565)
(2.52623 -4.01469 -0.00208917)
(2.58339 -3.55089 -0.00649026)
(0.871062 -1.13481 0.0334159)
(0.459327 -0.728125 0.0374826)
(1.57867 -2.5368 0.00186367)
(1.61453 -2.24511 0.000491145)
(0.43714 -0.609354 0.0109551)
(0.213934 -0.390804 0.0136819)
(0.814643 -1.3548 0.002171)
(0.835345 -1.20037 0.00201435)
(0.0911031 -0.19421 0.00256544)
(0.0193518 -0.128626 0.00362758)
(0.201819 -0.409365 0.000346719)
(0.211044 -0.366294 0.000472247)
(81.9823 -372.422 0.0049562)
(81.3781 -365.97 -0.00789869)
(76.7604 -372.334 -0.00580432)
(76.8382 -366.222 -0.0307152)
(74.8194 -372.281 -0.00195746)
(74.9568 -366.329 -0.0310544)
(73.7847 -372.31 -0.00489314)
(73.8433 -366.449 -0.0339376)
(73.1564 -372.314 -0.00375439)
(73.1107 -366.517 -0.0317903)
(72.7296 -372.317 -0.00386779)
(72.5814 -366.572 -0.0298809)
(72.4018 -372.316 -0.00383416)
(72.1551 -366.617 -0.0272719)
(82.8752 -368.613 -0.035212)
(83.748 -360.521 -0.102732)
(77.6525 -369.47 -0.0422688)
(80.1512 -361.621 -0.156288)
(75.4777 -369.611 -0.0384684)
(78.1849 -361.967 -0.179929)
(74.2864 -369.81 -0.0405148)
(76.7726 -362.3 -0.193748)
(73.5449 -369.9 -0.0382299)
(75.7271 -362.492 -0.195451)
(73.0347 -369.958 -0.0368316)
(74.9182 -362.632 -0.191865)
(72.6397 -369.995 -0.035913)
(74.2399 -362.744 -0.183974)
(83.9923 -363.894 -0.139281)
(86.5736 -353.768 -0.322768)
(78.7626 -365.771 -0.143472)
(84.0043 -355.734 -0.439802)
(76.3235 -366.167 -0.14356)
(81.9086 -356.402 -0.513923)
(74.9417 -366.551 -0.143898)
(80.1414 -356.982 -0.548895)
(74.0648 -366.745 -0.139451)
(78.7441 -357.329 -0.555875)
(73.4545 -366.869 -0.135955)
(77.6307 -357.573 -0.548275)
(72.9791 -366.953 -0.132956)
(76.6857 -357.763 -0.531474)
(85.3738 -358.057 -0.34849)
(89.8758 -345.435 -0.746211)
(80.129 -360.998 -0.347866)
(88.369 -348.244 -0.97189)
(77.3935 -361.715 -0.359682)
(86.0739 -349.325 -1.13118)
(75.7842 -362.301 -0.355284)
(83.8885 -350.193 -1.19248)
(74.7464 -362.616 -0.345878)
(82.1027 -350.723 -1.20014)
(74.0175 -362.816 -0.337522)
(80.6657 -351.088 -1.18092)
(73.4476 -362.954 -0.329725)
(79.4455 -351.367 -1.14747)
(87.0513 -350.849 -0.705264)
(93.6282 -335.215 -1.46346)
(81.7826 -354.855 -0.708132)
(93.1372 -338.794 -1.87229)
(78.7162 -355.957 -0.736868)
(90.5403 -340.384 -2.14335)
(76.8401 -356.761 -0.725907)
(87.8716 -341.58 -2.22562)
(75.6143 -357.212 -0.707558)
(85.6688 -342.316 -2.21993)
(74.7475 -357.5 -0.690708)
(83.8989 -342.813 -2.17636)
(74.0684 -357.701 -0.674775)
(82.404 -343.189 -2.11579)
(89.0316 -341.966 -1.25291)
(97.7251 -322.778 -2.57864)
(83.7293 -346.99 -1.29499)
(98.0846 -327.021 -3.29161)
(80.2959 -348.527 -1.33894)
(95.0509 -329.205 -3.6763)
(78.1138 -349.564 -1.31959)
(91.8391 -330.756 -3.75757)
(76.6732 -350.165 -1.28746)
(89.2049 -331.711 -3.71526)
(75.65 -350.548 -1.25722)
(87.1064 -332.345 -3.62934)
(74.8481 -350.817 -1.22873)
(85.3493 -332.823 -3.52787)
(91.2684 -331.025 -2.02608)
(101.952 -307.773 -4.19308)
(85.9107 -337.003 -2.18689)
(102.833 -312.609 -5.37317)
(82.0705 -339.014 -2.237)
(99.1934 -315.459 -5.82705)
(79.5455 -340.293 -2.20402)
(95.3889 -317.372 -5.86134)
(77.8657 -341.047 -2.15257)
(92.3237 -318.543 -5.75071)
(76.671 -341.531 -2.10367)
(89.915 -319.312 -5.60114)
(75.7367 -341.872 -2.05803)
(87.9225 -319.89 -5.44373)
(93.6085 -317.625 -3.01685)
(105.929 -289.958 -6.35064)
(88.1344 -324.505 -3.43854)
(106.802 -295.416 -8.17859)
(83.8428 -327.026 -3.47696)
(102.372 -298.989 -8.59009)
(80.9433 -328.551 -3.41369)
(97.9451 -301.259 -8.49519)
(79.0063 -329.458 -3.33123)
(94.4693 -302.63 -8.26886)
(77.6304 -330.04 -3.25507)
(91.7855 -303.521 -8.02733)
(76.5596 -330.451 -3.18571)
(89.5986 -304.186 -7.79576)
(95.7844 -301.427 -4.14208)
(109.1 -269.319 -8.96338)
(90.0988 -309.138 -5.05079)
(109.311 -275.463 -11.6166)
(85.3299 -312.175 -5.06868)
(103.966 -279.753 -11.8614)
(82.0455 -313.94 -4.95467)
(98.9424 -282.348 -11.5557)
(79.8494 -314.989 -4.82748)
(95.1156 -283.896 -11.1713)
(78.296 -315.664 -4.71553)
(92.2202 -284.896 -10.815)
(77.096 -316.14 -4.61699)
(89.902 -285.641 -10.4966)
(97.338 -282.357 -5.23281)
(110.778 -246.384 -11.7369)
(91.2956 -290.828 -6.85188)
(109.643 -253.334 -15.2175)
(86.0463 -294.361 -6.86681)
(103.348 -258.289 -15.1942)
(82.3946 -296.347 -6.69127)
(97.8087 -261.164 -14.6256)
(79.9582 -297.515 -6.50972)
(93.7184 -262.847 -14.061)
(78.2469 -298.261 -6.35546)
(90.6903 -263.921 -13.5815)
(76.939 -298.786 -6.22415)
(88.314 -264.717 -13.175)
(97.7432 -260.588 -5.99862)
(110.374 -221.861 -14.1796)
(91.1264 -269.759 -8.50541)
(107.31 -229.757 -18.317)
(85.4266 -273.732 -8.54039)
(100.144 -235.268 -17.9704)
(81.4644 -275.911 -8.30114)
(94.2305 -238.368 -17.1255)
(78.8374 -277.177 -8.06367)
(89.9991 -240.158 -16.385)
(77.0104 -277.979 -7.86799)
(86.9377 -241.289 -15.7936)
(75.6334 -278.543 -7.7066)
(84.5885 -242.124 -15.3134)
(96.4849 -236.447 -6.06757)
(107.466 -196.459 -15.6564)
(89.0738 -246.331 -9.52992)
(102.198 -205.461 -20.1475)
(82.9838 -250.682 -9.63493)
(94.3619 -211.408 -19.5275)
(78.7936 -253.025 -9.35998)
(88.2636 -214.68 -18.4749)
(76.0435 -254.366 -9.08416)
(84.0264 -216.541 -17.6116)
(74.1556 -255.206 -8.86)
(81.0316 -217.699 -16.9494)
(72.7584 -255.794 -8.68027)
(78.79 -218.549 -16.4307)
(93.1623 -211.261 -5.05743)
(101.989 -171.857 -15.5089)
(84.7752 -221.712 -9.33445)
(94.5961 -181.838 -19.9713)
(78.3932 -226.285 -9.53302)
(86.3716 -187.977 -19.1612)
(74.0885 -228.713 -9.25649)
(80.2981 -191.306 -18.005)
(71.3045 -230.086 -8.97057)
(76.1961 -193.177 -17.0988)
(69.4247 -230.933 -8.7405)
(73.3658 -194.327 -16.4264)
(68.0655 -231.528 -8.56244)
(71.3058 -195.168 -15.9187)
(87.8413 -186.451 -2.77508)
(94.3639 -149.387 -13.3921)
(78.5759 -196.831 -7.58624)
(85.3785 -159.708 -17.5642)
(71.9787 -201.495 -7.90638)
(77.0547 -165.822 -16.7224)
(67.6272 -203.946 -7.67357)
(71.1569 -169.104 -15.595)
(64.8633 -205.316 -7.41397)
(67.2735 -170.933 -14.7362)
(63.0358 -206.148 -7.20656)
(64.6578 -172.039 -14.118)
(61.7432 -206.701 -7.04716)
(62.7993 -172.81 -13.6627)
(80.9483 -163.884 0.539703)
(85.4045 -130.387 -9.61633)
(71.1564 -173.392 -4.45806)
(75.6253 -140.214 -13.3766)
(64.4017 -177.88 -4.93171)
(67.3867 -145.984 -12.6404)
(60.0556 -180.217 -4.7808)
(61.7435 -149.057 -11.6427)
(57.3538 -181.502 -4.57618)
(58.1166 -150.748 -10.8966)
(55.6108 -182.264 -4.41128)
(55.7336 -151.752 -10.3748)
(54.4158 -182.762 -4.28988)
(54.0868 -152.43 -10.0046)
(74.0074 -146.773 3.21472)
(76.9908 -117.042 -6.03757)
(64.0726 -154.735 -1.45573)
(67.0938 -125.603 -9.2181)
(57.3306 -158.7 -2.02465)
(59.1314 -130.708 -8.62957)
(53.094 -160.756 -1.9592)
(53.8185 -133.417 -7.80748)
(50.5127 -161.873 -1.81761)
(50.4729 -134.894 -7.19919)
(48.8863 -162.52 -1.69972)
(48.3236 -135.757 -6.78374)
(47.8048 -162.94 -1.61663)
(46.8774 -136.326 -6.499)
(67.6414 -134.044 4.30631)
(69.6758 -107.753 -3.88715)
(57.9199 -140.308 0.375275)
(60.0694 -114.801 -6.30358)
(51.3674 -143.601 -0.172454)
(52.5142 -119.117 -5.78624)
(47.3306 -145.303 -0.148515)
(47.5741 -121.404 -5.09957)
(44.9128 -146.22 -0.0472089)
(44.515 -122.641 -4.60108)
(43.42 -146.74 0.0391831)
(42.5879 -123.352 -4.2687)
(42.4547 -147.076 0.0974021)
(41.3219 -123.812 -4.04837)
(61.4894 -123.01 4.0978)
(62.9617 -99.985 -2.97827)
(52.3177 -127.824 1.0788)
(53.9362 -105.679 -4.5829)
(46.1414 -130.452 0.639444)
(46.9214 -109.219 -4.0718)
(42.3968 -131.81 0.659791)
(42.4096 -111.091 -3.48026)
(40.1841 -132.534 0.740878)
(39.6532 -112.098 -3.0642)
(38.8402 -132.939 0.808357)
(37.9438 -112.67 -2.794)
(37.99 -133.2 0.851685)
(36.8426 -113.032 -2.62038)
(55.2289 -111.929 3.15376)
(56.4545 -92.1549 -2.79415)
(46.8429 -115.855 1.026)
(48.1768 -96.9561 -3.67553)
(41.2818 -117.917 0.732683)
(41.8848 -99.8012 -3.16301)
(37.9555 -118.973 0.765043)
(37.8989 -101.295 -2.65624)
(36.0042 -119.536 0.832953)
(35.4827 -102.096 -2.31189)
(34.8267 -119.856 0.884221)
(33.9935 -102.558 -2.09342)
(34.0804 -120.039 0.91658)
(33.0341 -102.829 -1.95399)
(48.7831 -99.9277 2.08171)
(49.9939 -83.4266 -2.76687)
(41.3474 -103.446 0.703772)
(42.581 -87.7677 -3.10164)
(36.5486 -105.121 0.540132)
(37.1213 -90.0946 -2.61222)
(33.7063 -105.962 0.579137)
(33.7052 -91.2913 -2.19271)
(32.0414 -106.407 0.632724)
(31.6403 -91.9314 -1.91755)
(31.0336 -106.658 0.670204)
(30.3646 -92.2989 -1.74557)
(30.3916 -106.804 0.691923)
(29.5383 -92.5165 -1.63704)
(42.2182 -86.7396 1.37142)
(43.5584 -73.5105 -2.45185)
(35.8877 -90.199 0.483791)
(37.155 -77.7265 -2.52124)
(31.8529 -91.6474 0.384491)
(32.5162 -79.7158 -2.11254)
(29.4767 -92.3588 0.411303)
(29.6379 -80.7142 -1.78969)
(28.0843 -92.7323 0.444291)
(27.9 -81.2454 -1.58358)
(27.2381 -92.944 0.465646)
(26.8228 -81.5507 -1.45652)
(26.6956 -93.0656 0.476334)
(26.1203 -81.7319 -1.3771)
(35.5427 -72.377 1.1679)
(37.0739 -62.345 -1.67342)
(30.3431 -75.9217 0.459991)
(31.7297 -66.6182 -1.78712)
(27.0087 -77.2229 0.371228)
(27.8414 -68.3922 -1.50369)
(25.054 -77.8517 0.37074)
(25.4449 -69.2633 -1.28704)
(23.9123 -78.175 0.3797)
(24.0055 -69.7177 -1.15202)
(23.2197 -78.3453 0.386288)
(23.117 -69.9677 -1.06971)
(22.7871 -78.4796 0.385824)
(22.5489 -70.1443 -1.02119)
(29.3572 -58.4481 1.23576)
(31.0397 -51.1467 -0.746883)
(25.1691 -62.0253 0.492653)
(26.6976 -55.4843 -1.0901)
(22.4108 -63.1641 0.411965)
(23.4363 -57.0766 -0.91738)
(20.8037 -63.7264 0.39075)
(21.4375 -57.8656 -0.788438)
(19.8734 -64.0176 0.380235)
(20.2486 -58.2752 -0.711852)
(19.316 -64.1698 0.372753)
(19.5246 -58.4975 -0.667537)
(18.9727 -64.2785 0.36418)
(19.069 -58.6451 -0.64332)
(24.1755 -46.7129 1.20834)
(25.9097 -41.4221 -0.112832)
(20.7878 -50.1487 0.455419)
(22.4097 -45.6633 -0.613837)
(18.4781 -51.1039 0.414344)
(19.6497 -47.0743 -0.49271)
(17.1421 -51.6045 0.389092)
(17.9649 -47.7977 -0.419354)
(16.3739 -51.8655 0.370596)
(16.9694 -48.1724 -0.380482)
(15.9185 -52.0003 0.356971)
(16.3696 -48.374 -0.360203)
(15.6404 -52.0884 0.345443)
(15.9964 -48.499 -0.350661)
(19.7605 -36.9698 1.03937)
(21.4487 -33.1352 0.203287)
(17.0212 -40.1122 0.361898)
(18.6604 -37.1065 -0.324921)
(15.0864 -40.8874 0.374122)
(16.3297 -38.3358 -0.215208)
(13.9764 -41.3262 0.352513)
(14.911 -38.9942 -0.175618)
(13.3406 -41.5526 0.332684)
(14.0752 -39.3337 -0.15978)
(12.9662 -41.6692 0.31765)
(13.5751 -39.5145 -0.153857)
(12.7392 -41.7406 0.305903)
(13.2668 -39.6217 -0.152768)
(15.9989 -29.0182 0.800813)
(17.5602 -26.2255 0.296076)
(13.7921 -31.7763 0.259872)
(15.3655 -29.7959 -0.160347)
(12.1823 -32.382 0.312794)
(13.4144 -30.8396 -0.0515953)
(11.2663 -32.7578 0.295495)
(12.2286 -31.4266 -0.0330406)
(10.7422 -32.9482 0.277628)
(11.5301 -31.7245 -0.0302165)
(10.4351 -33.0441 0.263774)
(11.1141 -31.8811 -0.0320606)
(10.2501 -33.1008 0.253274)
(10.8594 -31.9715 -0.0353152)
(12.7988 -22.5749 0.567734)
(14.179 -20.5248 0.276094)
(11.0384 -24.9203 0.173499)
(12.4776 -23.6271 -0.0721117)
(9.71543 -25.3789 0.244602)
(10.8675 -24.4902 0.0300319)
(8.96846 -25.6909 0.230485)
(9.8895 -24.9968 0.0357652)
(8.54064 -25.8438 0.216138)
(9.31232 -25.2486 0.0325798)
(8.29091 -25.9192 0.20463)
(8.96974 -25.3801 0.0274393)
(8.14118 -25.9622 0.195966)
(8.76106 -25.4548 0.0225599)
(10.0608 -17.3212 0.375217)
(11.2363 -15.8256 0.214735)
(8.68552 -19.2696 0.108314)
(9.95104 -18.4487 -0.028297)
(7.61997 -19.6062 0.179073)
(8.65151 -19.1452 0.059298)
(7.02214 -19.8589 0.16825)
(7.86094 -19.5718 0.0588644)
(6.67907 -19.9775 0.158521)
(7.39269 -19.7796 0.0544993)
(6.47935 -20.0348 0.149854)
(7.11542 -19.8855 0.0487185)
(6.36017 -20.0677 0.143151)
(6.94738 -19.9462 0.0436613)
(7.76524 -13.1055 0.233526)
(8.7337 -12.0236 0.149153)
(6.71431 -14.6833 0.0636376)
(7.78672 -14.1794 -0.00924797)
(5.87415 -14.922 0.12276)
(6.76131 -14.7254 0.0591578)
(5.40521 -15.1197 0.115997)
(6.13574 -15.0725 0.0577596)
(5.13527 -15.2088 0.11154)
(5.76355 -15.2374 0.0555469)
(4.97846 -15.2509 0.105793)
(5.54346 -15.3216 0.0508107)
(4.88539 -15.275 0.100906)
(5.41064 -15.3696 0.0464379)
(5.88552 -9.78113 0.137934)
(6.65713 -9.0004 0.0955504)
(5.09777 -11.023 0.0350666)
(5.97191 -10.718 -0.00256189)
(4.44876 -11.1844 0.0785608)
(5.17989 -11.1323 0.0463335)
(4.08799 -11.3338 0.0759272)
(4.69523 -11.4042 0.0466838)
(3.87956 -11.3968 0.0766714)
(4.40544 -11.5298 0.0482287)
(3.75873 -11.4266 0.0738262)
(4.23444 -11.5935 0.0453651)
(3.68731 -11.4432 0.0705788)
(4.13141 -11.6302 0.0419003)
(4.35523 -7.15646 0.0768596)
(4.95029 -6.60226 0.0568784)
(3.78086 -8.10616 0.0176985)
(4.46754 -7.92885 -0.00110205)
(3.29279 -8.21015 0.0465713)
(3.87217 -8.23231 0.0310067)
(3.02228 -8.31855 0.0469655)
(3.50656 -8.43735 0.0333414)
(2.86507 -8.35933 0.0519249)
(3.28667 -8.52816 0.0387926)
(2.77407 -8.37875 0.0522903)
(3.15701 -8.57455 0.0388384)
(2.72048 -8.38923 0.050929)
(3.07916 -8.60162 0.036903)
(3.11661 -5.08453 0.0400315)
(3.55701 -4.70021 0.0315401)
(2.71332 -5.78173 0.00742962)
(3.23012 -5.68389 -0.00160232)
(2.35967 -5.8445 0.0250266)
(2.79879 -5.89736 0.0179198)
(2.16412 -5.91987 0.0267619)
(2.53301 -6.04487 0.021075)
(2.04915 -5.94328 0.0338726)
(2.3716 -6.10594 0.0289578)
(1.98254 -5.95207 0.0376555)
(2.27618 -6.13691 0.0327685)
(1.94336 -5.95768 0.0387819)
(2.21909 -6.15362 0.0333522)
(2.12118 -3.45331 0.0188916)
(2.43091 -3.19791 0.015992)
(1.85447 -3.93588 0.00197356)
(2.22166 -3.88642 -0.00213618)
(1.61152 -3.9708 0.0117585)
(1.92513 -4.02758 0.00870389)
(1.47735 -4.01925 0.0134668)
(1.74171 -4.12783 0.0114025)
(1.39727 -4.02972 0.0200966)
(1.62877 -4.16368 0.0190892)
(1.35007 -4.029 0.026516)
(1.56141 -4.1784 0.0262797)
(1.32215 -4.02821 0.0308769)
(1.52096 -4.18628 0.0305766)
(1.32065 -2.16326 0.00756375)
(1.52127 -2.00783 0.00710399)
(1.16372 -2.4681 -0.000447876)
(1.40285 -2.44675 -0.00214957)
(1.01192 -2.483 0.00440385)
(1.2169 -2.5311 0.00320214)
(0.928076 -2.51181 0.00543684)
(1.1014 -2.59371 0.0048106)
(0.876911 -2.51389 0.00961766)
(1.02885 -2.61109 0.00996919)
(0.845514 -2.50583 0.0163277)
(0.984372 -2.61186 0.0180106)
(0.826338 -2.49817 0.023792)
(0.956944 -2.60948 0.0262111)
(0.678124 -1.13992 0.00229142)
(0.788721 -1.0625 0.00259163)
(0.608405 -1.29722 -0.00104116)
(0.740222 -1.29384 -0.00161975)
(0.531411 -1.29913 0.000999244)
(0.644888 -1.3342 0.000607851)
(0.488601 -1.31374 0.00136342)
(0.584813 -1.36704 0.00122037)
(0.46173 -1.31106 0.00287598)
(0.546233 -1.3728 0.0033185)
(0.443936 -1.30091 0.00710095)
(0.521242 -1.36698 0.00871566)
(0.431536 -1.28691 0.0148278)
(0.504075 -1.35498 0.0175968)
(0.16247 -0.328678 0.000357508)
(0.199712 -0.311852 0.000578337)
(0.163235 -0.36486 -0.00070796)
(0.206405 -0.37351 -0.000781541)
(0.147147 -0.358859 -0.000178226)
(0.184588 -0.380567 -0.000196166)
(0.137562 -0.361246 -0.000147736)
(0.169631 -0.387934 -0.000105253)
(0.130896 -0.358715 -0.000244477)
(0.159241 -0.388157 -4.28542e-05)
(0.125613 -0.351856 0.000112821)
(0.151644 -0.383245 0.000608341)
(0.120231 -0.339188 0.00400437)
(0.144482 -0.36934 0.00520515)
(72.1062 -372.323 -0.00382615)
(71.754 -366.656 -0.0247527)
(71.8515 -372.345 -0.00365674)
(71.4037 -366.696 -0.021572)
(71.6356 -372.36 -0.00350518)
(71.1148 -366.724 -0.0188274)
(71.3729 -372.37 -0.00355496)
(70.7705 -366.753 -0.0164152)
(70.9151 -372.38 -0.00374249)
(70.1774 -366.798 -0.013033)
(69.8073 -372.394 -0.00339732)
(68.7308 -366.891 -0.00372945)
(72.2784 -370.036 -0.03477)
(73.587 -362.84 -0.173731)
(71.9614 -370.085 -0.0329744)
(72.9986 -362.93 -0.160453)
(71.6923 -370.121 -0.0312078)
(72.5067 -362.997 -0.148172)
(71.3646 -370.153 -0.0292649)
(71.9159 -363.067 -0.133842)
(70.7908 -370.196 -0.0261979)
(70.8912 -363.174 -0.110598)
(69.384 -370.26 -0.0172583)
(68.3793 -363.382 -0.055755)
(72.5398 -367.033 -0.128884)
(75.7722 -357.925 -0.510518)
(72.1488 -367.117 -0.123123)
(74.9379 -358.074 -0.481816)
(71.8159 -367.179 -0.117428)
(74.2337 -358.187 -0.454534)
(71.4106 -367.241 -0.110451)
(73.3811 -358.309 -0.420858)
(70.6982 -367.328 -0.0983333)
(71.8868 -358.5 -0.361875)
(68.9333 -367.467 -0.0660994)
(68.1752 -358.867 -0.215483)
(72.9171 -363.083 -0.319583)
(78.2686 -351.603 -1.10864)
(72.4397 -363.209 -0.306376)
(77.188 -351.818 -1.05709)
(72.0325 -363.304 -0.293904)
(76.2706 -351.983 -1.00906)
(71.5364 -363.403 -0.278623)
(75.1532 -352.165 -0.94968)
(70.662 -363.547 -0.251126)
(73.1767 -352.456 -0.841981)
(68.4779 -363.794 -0.175622)
(68.1901 -353.036 -0.552825)
(73.4337 -357.885 -0.654794)
(80.9695 -343.504 -2.04988)
(72.8582 -358.06 -0.629937)
(79.6514 -343.792 -1.96676)
(72.3665 -358.195 -0.606942)
(78.5291 -344.014 -1.89099)
(71.7671 -358.338 -0.578787)
(77.1571 -344.26 -1.7981)
(70.7085 -358.554 -0.527548)
(74.7141 -344.663 -1.62818)
(68.0482 -358.944 -0.384853)
(68.4668 -345.5 -1.15089)
(74.0982 -351.063 -1.1942)
(83.6751 -333.218 -3.42298)
(73.4148 -351.293 -1.15261)
(82.1403 -333.581 -3.29792)
(72.8301 -351.473 -1.11468)
(80.8322 -333.862 -3.18606)
(72.1174 -351.667 -1.06841)
(79.2302 -334.175 -3.05022)
(70.8565 -351.967 -0.984182)
(76.3666 -334.692 -2.80262)
(67.6758 -352.538 -0.748988)
(68.9774 -335.811 -2.1)
(74.8648 -342.18 -2.00428)
(86.0408 -320.361 -5.28752)
(74.0685 -342.47 -1.94087)
(84.3236 -320.797 -5.11053)
(73.3868 -342.698 -1.88355)
(82.8608 -321.135 -4.95452)
(72.5553 -342.948 -1.81378)
(81.0688 -321.514 -4.76616)
(71.0831 -343.341 -1.6867)
(77.8606 -322.14 -4.42451)
(67.3619 -344.121 -1.33255)
(69.5448 -323.535 -3.46342)
(75.5654 -330.818 -3.10692)
(87.5551 -304.72 -7.57406)
(74.6581 -331.163 -3.01627)
(85.7018 -305.217 -7.33558)
(73.8808 -331.436 -2.93511)
(84.1261 -305.603 -7.12816)
(72.933 -331.74 -2.83676)
(82.1974 -306.036 -6.87909)
(71.2547 -332.225 -2.65874)
(78.7464 -306.756 -6.43141)
(67.0139 -333.224 -2.16811)
(69.7982 -308.397 -5.19597)
(75.9906 -316.56 -4.50923)
(87.761 -286.231 -10.2007)
(74.9849 -316.957 -4.3882)
(85.8343 -286.781 -9.89664)
(74.1232 -317.272 -4.28106)
(84.1999 -287.209 -9.63515)
(73.0725 -317.626 -4.15218)
(82.2021 -287.691 -9.32241)
(71.2121 -318.199 -3.92037)
(78.6329 -288.494 -8.76409)
(66.5185 -319.406 -3.28653)
(69.3944 -290.331 -7.24703)
(75.746 -299.241 -6.08621)
(86.1462 -265.335 -12.8063)
(74.6654 -299.676 -5.93391)
(84.2111 -265.916 -12.4399)
(73.7397 -300.022 -5.79999)
(82.5737 -266.369 -12.1271)
(72.6109 -300.413 -5.63967)
(80.5762 -266.88 -11.7534)
(70.6142 -301.052 -5.35339)
(77.0165 -267.734 -11.0898)
(65.5959 -302.435 -4.58237)
(67.8436 -269.707 -9.31685)
(74.3909 -279.021 -7.54262)
(82.4712 -242.76 -14.8863)
(73.2716 -279.486 -7.36464)
(80.5961 -243.365 -14.4739)
(72.3128 -279.856 -7.20928)
(79.0134 -243.836 -14.1239)
(71.1438 -280.275 -7.0244)
(77.0866 -244.369 -13.7062)
(69.0782 -280.967 -6.69656)
(73.6622 -245.262 -12.968)
(63.9129 -282.483 -5.82446)
(64.8857 -247.319 -11.0212)
(71.5112 -256.279 -8.50188)
(76.7922 -219.185 -15.9757)
(70.3946 -256.76 -8.31021)
(75.0358 -219.793 -15.5449)
(69.4384 -257.141 -8.14363)
(73.5567 -220.266 -15.1806)
(68.2727 -257.576 -7.94628)
(71.7595 -220.804 -14.746)
(66.2165 -258.297 -7.59818)
(68.575 -221.709 -13.9801)
(61.11 -259.894 -6.68303)
(60.4678 -223.791 -11.9835)
(66.8625 -232.001 -8.38747)
(69.4863 -195.781 -15.4771)
(65.7921 -232.481 -8.20031)
(67.8959 -196.376 -15.0645)
(64.8754 -232.862 -8.0381)
(66.5592 -196.839 -14.7163)
(63.7582 -233.295 -7.84699)
(64.9378 -197.367 -14.3014)
(61.7911 -234.018 -7.51161)
(62.0729 -198.255 -13.5722)
(56.9468 -235.626 -6.6385)
(54.8316 -200.293 -11.6893)
(60.6312 -207.172 -6.89441)
(61.1995 -173.4 -13.2737)
(59.6375 -207.614 -6.73027)
(59.7963 -173.944 -12.9106)
(58.7877 -207.977 -6.59053)
(58.6194 -174.379 -12.6062)
(57.751 -208.394 -6.4266)
(57.1935 -174.875 -12.244)
(55.9289 -209.088 -6.1389)
(54.6809 -175.71 -11.6087)
(51.511 -210.629 -5.39983)
(48.4098 -177.621 -9.99141)
(53.4137 -183.169 -4.17605)
(52.7012 -152.942 -9.69292)
(52.526 -183.562 -4.04855)
(51.4971 -153.423 -9.40016)
(51.7613 -183.886 -3.94073)
(50.4832 -153.808 -9.15493)
(50.825 -184.26 -3.81664)
(49.2533 -154.247 -8.86495)
(49.182 -184.879 -3.60167)
(47.0916 -154.988 -8.36018)
(45.2925 -186.231 -3.06416)
(41.7976 -156.656 -7.10548)
(46.9145 -163.262 -1.53783)
(45.6809 -136.743 -6.2597)
(46.1341 -163.598 -1.44632)
(44.6512 -137.155 -6.03473)
(45.4543 -163.872 -1.36979)
(43.7781 -137.48 -5.84642)
(44.6173 -164.184 -1.28506)
(42.7158 -137.852 -5.62627)
(43.15 -164.703 -1.14241)
(40.8514 -138.477 -5.24754)
(39.7597 -165.802 -0.795181)
(36.3726 -139.856 -4.32936)
(41.6692 -147.32 0.151726)
(40.2863 -124.143 -3.86391)
(40.9818 -147.597 0.216534)
(39.3953 -124.487 -3.68995)
(40.3765 -147.819 0.2692)
(38.6346 -124.756 -3.54512)
(39.6266 -148.071 0.324108)
(37.7054 -125.06 -3.37822)
(38.3119 -148.483 0.412617)
(36.0757 -125.571 -3.09488)
(35.3411 -149.334 0.623041)
(32.23 -126.67 -2.42458)
(37.3039 -133.382 0.889028)
(35.9481 -113.29 -2.47708)
(36.6995 -133.606 0.934944)
(35.1738 -113.574 -2.34074)
(36.1617 -133.783 0.970247)
(34.5081 -113.793 -2.22843)
(35.4915 -133.979 1.00349)
(33.6919 -114.038 -2.10151)
(34.3154 -134.296 1.05282)
(32.2602 -114.447 -1.88984)
(31.7096 -134.937 1.16693)
(28.9333 -115.306 -1.4024)
(33.4886 -120.19 0.94386)
(32.264 -103.038 -1.8408)
(32.9596 -120.368 0.978015)
(31.592 -103.273 -1.73108)
(32.4868 -120.51 1.00148)
(31.0137 -103.453 -1.64284)
(31.8944 -120.664 1.01962)
(30.3033 -103.65 -1.54614)
(30.8539 -120.909 1.04124)
(29.0568 -103.976 -1.38925)
(28.5799 -121.4 1.08787)
(26.1756 -104.647 -1.03768)
(29.8793 -106.923 0.708709)
(28.8703 -92.6834 -1.54963)
(29.4223 -107.075 0.730931)
(28.2905 -92.8878 -1.46413)
(29.0119 -107.196 0.743674)
(27.7925 -93.0421 -1.39724)
(28.4957 -107.322 0.748999)
(27.1813 -93.2032 -1.32682)
(27.5873 -107.517 0.748558)
(26.1078 -93.4651 -1.21616)
(25.6175 -107.898 0.745918)
(23.6208 -93.9827 -0.973557)
(26.2612 -93.1702 0.483022)
(25.5497 -81.8733 -1.31399)
(25.8727 -93.3063 0.493446)
(25.0557 -82.0571 -1.25181)
(25.5227 -93.4158 0.495758)
(24.6328 -82.1938 -1.20513)
(25.0808 -93.5271 0.489189)
(24.1134 -82.3318 -1.15872)
(24.3008 -93.6913 0.469213)
(23.2004 -82.5502 -1.089)
(22.6218 -94.0046 0.425283)
(21.0787 -82.9604 -0.939805)
(22.4269 -78.5542 0.379692)
(22.0731 -70.2527 -0.983966)
(22.1079 -78.6883 0.375539)
(21.6631 -70.4276 -0.947639)
(21.816 -78.7909 0.366453)
(21.309 -70.5546 -0.921842)
(21.4442 -78.8948 0.348315)
(20.8722 -70.6798 -0.898687)
(20.7846 -79.039 0.311532)
(20.1015 -70.8655 -0.866452)
(19.3854 -79.3022 0.236178)
(18.3267 -71.2012 -0.799742)
(18.6896 -64.3541 0.352633)
(18.69 -58.7487 -0.62613)
(18.4308 -64.4726 0.341606)
(18.3542 -58.9043 -0.608811)
(18.191 -64.5705 0.326776)
(18.0607 -59.0241 -0.598535)
(17.8814 -64.6682 0.3028)
(17.6943 -59.1409 -0.592415)
(17.329 -64.7984 0.257068)
(17.0448 -59.3073 -0.587717)
(16.1801 -65.0227 0.164344)
(15.575 -59.5924 -0.581182)
(15.4156 -52.1639 0.332591)
(15.6909 -48.6005 -0.345505)
(15.2056 -52.2678 0.319446)
(15.415 -48.7407 -0.339979)
(15.0091 -52.3589 0.303345)
(15.1716 -48.8533 -0.339118)
(14.7523 -52.4495 0.279009)
(14.8644 -48.9622 -0.342896)
(14.2915 -52.566 0.233794)
(14.3169 -49.1114 -0.353598)
(13.3481 -52.755 0.14374)
(13.0962 -49.3571 -0.378782)
(12.5599 -41.8106 0.293821)
(13.0189 -39.7172 -0.154188)
(12.3906 -41.9018 0.281176)
(12.7932 -39.8441 -0.155314)
(12.2309 -41.9865 0.266358)
(12.5926 -39.9484 -0.159437)
(12.0197 -42.0671 0.244697)
(12.3367 -40.0487 -0.168011)
(11.6383 -42.1655 0.205058)
(11.8781 -40.1791 -0.185656)
(10.8672 -42.3164 0.127502)
(10.8669 -40.386 -0.224001)
(10.1069 -33.1616 0.242985)
(10.6586 -32.0579 -0.0397579)
(9.972 -33.2437 0.232163)
(10.4758 -32.1719 -0.0440235)
(9.84399 -33.3198 0.219819)
(10.3122 -32.2693 -0.0501474)
(9.67248 -33.3903 0.20211)
(10.1014 -32.3596 -0.0601872)
(9.36044 -33.4704 0.170009)
(9.72105 -32.4696 -0.0794186)
(8.73487 -33.5826 0.108344)
(8.88912 -32.6354 -0.119684)
(8.028 -26.0151 0.187752)
(8.59987 -25.5316 0.0172607)
(7.92238 -26.0884 0.179154)
(8.45395 -25.6336 0.011971)
(7.82151 -26.158 0.16955)
(8.32285 -25.722 0.00557221)
(7.68438 -26.2197 0.155935)
(8.15169 -25.8024 -0.004015)
(7.43262 -26.2821 0.131408)
(7.84019 -25.8924 -0.0217131)
(6.93052 -26.3581 0.0852286)
(7.16271 -26.0157 -0.0574922)
(6.27203 -20.1121 0.136936)
(6.81978 -20.0124 0.0386353)
(6.1909 -20.1767 0.130511)
(6.70567 -20.1044 0.0335931)
(6.11303 -20.2391 0.123424)
(6.60255 -20.1839 0.0278993)
(6.00525 -20.2905 0.113371)
(6.46613 -20.2527 0.0196511)
(5.80505 -20.3351 0.0951872)
(6.21484 -20.3222 0.00458564)
(5.40647 -20.3749 0.061591)
(5.67002 -20.4015 -0.0249633)
(4.81784 -15.3113 0.0963643)
(5.3116 -15.4259 0.0421357)
(4.75711 -15.3697 0.0916918)
(5.22448 -15.5082 0.0376268)
(4.6985 -15.4255 0.0865479)
(5.14552 -15.5802 0.0327256)
(4.61552 -15.4679 0.0791464)
(5.03885 -15.6387 0.0258234)
(4.45855 -15.4968 0.0654721)
(4.83967 -15.6888 0.0132783)
(4.14545 -15.5009 0.0404836)
(4.407 -15.7265 -0.0106072)
(3.63683 -11.474 0.0674586)
(4.05634 -11.6782 0.0384543)
(3.59304 -11.5275 0.0642352)
(3.99212 -11.7522 0.0347919)
(3.55075 -11.5791 0.0604998)
(3.93371 -11.8184 0.0307488)
(3.48845 -11.616 0.0547095)
(3.85256 -11.8702 0.0247987)
(3.36783 -11.6333 0.0432924)
(3.69761 -11.9043 0.0134625)
(3.12502 -11.6104 0.0229128)
(3.35906 -11.9048 -0.00732927)
(2.6839 -8.41583 0.0491903)
(3.02398 -8.64184 0.0344855)
(2.6543 -8.46687 0.0469922)
(2.97905 -8.71201 0.0313698)
(2.62535 -8.51561 0.0439689)
(2.93795 -8.77287 0.0276154)
(2.58025 -8.54835 0.0386673)
(2.87821 -8.81847 0.0217425)
(2.48954 -8.55786 0.027269)
(2.76043 -8.84002 0.0099478)
(2.304 -8.51323 0.00914921)
(2.49981 -8.8096 -0.00913056)
(1.91817 -5.98053 0.0388516)
(2.18052 -6.18964 0.0325898)
(1.90003 -6.02941 0.0377633)
(2.15168 -6.25535 0.030129)
(1.88213 -6.07672 0.0350617)
(2.12495 -6.31334 0.0262665)
(1.85121 -6.10655 0.0291512)
(2.08315 -6.35323 0.0194403)
(1.78492 -6.11012 0.0153657)
(1.99625 -6.36529 0.00485976)