/*--------------------------------*- C++ -*----------------------------------*\
| =========                 |                                                 |
| \\      /  F ield         | OpenFOAM: The Open Source CFD Toolbox           |
|  \\    /   O peration     | Version:  2206                                  |
|   \\  /    A nd           | Website:  www.openfoam.com                      |
|    \\/     M anipulation  |                                                 |
\*---------------------------------------------------------------------------*/
FoamFile
{
    version     2.0;
    format      ascii;
    arch        "LSB;label=32;scalar=64";
    class       volScalarField;
    location    "0.9";
    object      p;
}
// * * * * * * * * * * * * * * * * * * * * * * * * * * * * * * * * * * * * * //

dimensions      [0 2 -2 0 0 0 0];

internalField   nonuniform List<scalar> 
918
(
1.95551
0.942339
0.283046
1.97468
0.0484838
0.871655
-0.157718
1.40431
2.01384
0.339786
0.276591
1.65881
0.604429
0.441128
-0.09484
0.144454
1.65121
-0.310562
1.75115
0.183132
0.0829995
2.10014
1.87536
1.75399
1.62897
0.137336
0.610015
0.133632
-0.084091
-0.0115465
0.10152
0.134853
0.0780039
0.595202
0.798057
0.929804
1.69923
1.10033
0.118973
0.046261
-0.0448004
-0.290465
1.44263
1.47429
0.727033
1.34957
1.27673
1.7656
1.9493
2.02125
1.89792
1.95404
2.08321
0.650568
0.352012
0.296915
0.368633
0.350316
0.393912
0.295669
0.29308
0.305449
0.30105
1.58382
1.66187
1.66454
1.66618
1.65308
0.898028
0.861865
0.948293
0.517462
0.665158
0.581453
0.658482
0.4642
0.487287
0.487651
0.465942
-0.157962
-0.553899
0.218207
0.254039
-0.0109779
0.167286
0.170138
1.647
1.65697
1.62242
1.61298
1.11362
-0.108391
-0.343407
1.76723
1.79206
2.05442
1.91369
1.92774
1.84556
0.196418
0.188183
0.164398
0.200422
0.209527
0.445857
0.697367
1.76532
1.80532
1.64481
1.67326
1.66809
1.36723
1.7003
1.68138
0.421452
0.501825
0.247815
0.35709
0.567931
0.525781
0.626827
0.582897
-0.0637097
0.00878808
0.159253
0.0923163
0.148097
1.69944
1.67679
1.7211
1.7072
1.73204
0.994303
0.940177
1.16737
1.24152
0.350927
0.299241
-0.182804
-0.166669
-0.374137
1.3308
1.51408
1.54188
0.547963
0.739154
0.520424
0.831173
0.816994
1.73107
1.7717
1.74425
1.80169
1.79342
1.81139
1.95265
1.94538
2.04078
0.702025
0.762125
0.621444
0.581139
0.0420796
0.180125
0.0531465
0.326562
0.357487
0.42281
0.420517
0.388932
0.349752
0.342041
0.317927
0.336008
0.261554
0.236822
1.56701
1.55473
1.60959
1.62538
1.68958
1.68118
1.68037
1.69062
0.617635
0.675189
0.617661
0.555501
-1.02055
-3.02825
0.289155
0.342007
0.0202356
-0.0111711
0.00601104
0.0473999
0.012831
0.00891065
0.251783
0.218671
0.190646
0.241098
1.66252
1.68283
1.09752
1.16193
1.02488
1.01673
1.75934
1.77659
1.79502
1.78329
0.22845
0.224644
0.236504
1.20084
0.960994
1.07213
1.31479
1.22808
1.43046
1.46004
1.67586
1.66535
1.69028
0.386736
0.440004
0.831844
0.630511
0.74474
0.676492
0.664628
0.652768
0.545359
1.63553
1.65335
1.65736
1.73895
1.73683
1.75017
1.69614
1.71031
1.69904
0.779531
0.601965
1.35027
1.28657
1.23582
1.29809
1.32346
1.34096
1.59026
1.55218
1.57967
1.01124
0.97702
0.513963
0.494637
1.49586
1.54044
1.51683
0.601536
0.490491
0.636301
0.601804
0.546913
0.604144
0.483551
0.149483
0.256114
0.409608
0.391856
0.369024
0.319266
0.301118
0.300462
1.16627
1.22439
0.803758
0.920649
0.904235
0.283191
0.396395
0.492008
0.36135
0.442406
0.541368
0.490914
1.30892
1.3154
1.34837
1.27061
1.30249
1.19789
1.0515
1.05536
0.434198
0.470641
0.448643
1.20364
1.24831
1.24895
1.79097
1.86425
-0.0532551
0.0776383
1.93811
1.97135
-0.0349847
0.0361523
0.416042
0.429728
1.07746
1.80489
1.79273
1.88817
0.340188
0.613674
0.287581
0.378447
0.326435
1.64617
1.60392
1.53932
0.000662792
0.189079
0.197377
0.216944
1.86468
1.81398
1.92637
1.92108
1.92949
0.0486907
0.0039644
0.0264792
0.157148
0.156534
0.191022
1.73754
1.70447
0.426205
1.91393
1.9185
1.91603
1.84911
1.86445
1.79774
0.154698
0.110809
0.164757
1.35169
1.46162
0.511136
0.100317
0.592197
0.373366
0.207538
0.424608
0.453956
0.434022
0.375963
1.50809
1.3767
1.18746
0.975244
1.18757
1.17875
1.80368
1.79097
1.80394
1.74965
1.8307
1.73971
1.88576
1.82464
1.85997
1.8932
0.375628
0.409941
0.384809
0.236857
0.651987
0.740884
0.56939
0.605153
0.407384
0.261213
0.285766
0.273606
0.334358
0.321295
0.327691
0.365696
0.385183
0.354839
0.317662
0.27446
0.400528
0.332978
1.61198
1.6673
1.64201
1.67748
1.59525
1.64387
1.55935
1.58311
1.57607
1.4757
1.53838
1.5074
0.021788
0.0900531
0.112138
0.18119
0.194457
0.0767332
0.128525
0.10413
0.11533
0.10577
0.159231
0.184563
0.260297
0.0697243
1.10114
0.936173
0.533192
1.74762
1.82574
1.78643
1.84376
1.86422
1.88709
1.88201
1.82202
1.71296
1.74137
1.69765
1.70113
0.445325
0.278328
0.435491
0.54157
1.10397
1.65561
1.48429
1.37979
1.3672
1.53841
1.01077
0.81823
0.0152566
-0.528201
0.416939
0.136246
0.309111
0.544578
0.824489
0.38109
0.421823
0.509722
0.424958
0.424502
0.605097
1.43815
0.790416
0.739047
1.066
0.98439
0.75328
1.52595
1.54534
1.33368
1.24894
1.46797
1.43665
1.45258
1.44574
1.45268
1.48613
1.34184
1.24852
1.18962
1.60348
1.47444
1.49378
1.4972
1.76697
1.81028
1.74755
1.74028
1.79184
1.71611
1.71478
1.70446
1.77857
1.79817
1.7763
1.75206
0.419544
0.354811
0.456157
0.326854
0.401476
0.259075
0.442626
0.562546
0.476932
0.638102
0.796792
0.507959
0.394672
0.455946
0.455525
0.664074
0.616867
0.535972
0.430081
0.495107
0.512688
0.527097
0.495942
0.332135
0.357411
0.420881
0.278144
0.398918
0.3772
0.448383
0.273956
0.330698
0.272146
0.262016
0.32636
0.413301
0.34699
0.412735
0.13326
0.138911
0.0648952
0.168244
0.312798
0.364062
1.69313
1.6621
1.67148
1.65018
1.68875
1.65298
1.53472
1.7377
1.72137
1.67996
1.59371
1.56452
1.58829
1.57361
1.62672
1.60897
1.71707
1.70866
1.63239
1.61367
1.53416
1.59092
1.55671
1.5597
1.54442
0.0754508
0.152939
0.108894
0.11733
0.133602
0.163887
0.272637
0.184939
0.251432
0.239271
0.203112
0.157369
0.176517
0.425396
0.533349
0.350403
0.187899
0.115783
1.09316
1.14062
0.98284
0.878971
0.934191
1.04722
1.06855
0.821136
0.880294
0.934727
1.26785
1.19961
1.80203
1.78845
1.77521
1.83299
1.78602
0.606807
0.825649
0.767273
1.09236
1.12729
1.15219
1.00199
0.998625
1.03522
1.08205
1.6322
1.66671
1.62708
1.66392
1.64929
1.41443
1.53287
1.50522
1.6872
1.58318
1.57261
1.6321
1.60247
1.53543
1.51539
1.56235
1.53692
1.51678
1.51886
1.49772
1.62365
1.57539
1.61454
1.57137
1.60389
1.54408
1.64677
1.68493
1.66973
1.50999
1.51431
1.54666
1.56741
1.52656
1.5369
1.5312
1.03192
1.11053
1.03144
1.01667
1.04438
0.842714
0.862824
0.994514
1.00607
0.783022
0.568398
0.261178
1.35571
0.811175
0.631971
0.184721
1.19952
1.30107
1.20075
1.0443
1.04462
1.58048
1.55906
1.58272
1.47212
1.4227
1.37073
1.37238
1.62175
1.32814
1.26078
1.31348
1.10725
1.19782
1.41156
1.32909
1.27775
1.30925
1.55594
1.35101
1.38682
1.49198
1.33883
1.349
1.47162
1.53288
1.59252
1.54874
1.42535
1.45806
1.45268
1.47649
1.49422
1.48652
1.74548
1.74589
1.74418
1.76235
1.73137
1.73647
1.68479
1.73835
1.76732
1.75589
1.79588
0.269882
0.35844
0.378398
0.302463
0.389271
0.369626
0.496773
0.433222
0.414476
0.48116
0.4432
0.439583
0.449492
0.406609
0.490335
0.503167
0.451721
0.430068
0.747671
0.797981
0.804181
0.787127
0.731471
0.691774
0.755167
0.333482
0.410418
0.381334
0.318165
0.363191
0.243304
0.272466
0.217599
0.328301
0.322218
0.121014
0.219406
0.237378
0.176439
0.244677
0.236847
1.64489
1.6506
1.62948
1.62468
1.60519
1.64453
1.66763
1.72096
1.71086
1.69278
1.67863
1.68585
1.67707
0.217376
0.329307
0.320562
0.193189
0.197464
0.101374
0.0934973
0.952078
0.681306
0.714368
0.625645
0.414076
0.507433
1.16818
1.25334
1.25599
1.21052
1.13317
1.10681
1.21757
1.27054
0.951474
1.06899
1.02685
1.11436
1.15017
1.18213
1.10758
0.94438
1.20447
1.35471
0.957796
1.02453
1.1907
1.10572
1.19524
1.16945
1.31564
1.10614
1.07104
1.06074
1.05162
1.14502
1.13168
1.19292
1.2354
0.877856
0.955113
0.898579
1.59418
1.63305
1.63708
1.60729
1.62169
1.62623
1.57593
1.6417
1.65851
1.67478
0.407987
0.588608
0.110416
0.73675
0.993663
1.63725
1.30532
1.50854
1.55793
1.14888
1.39103
1.41635
1.41128
1.51324
1.39427
1.29587
1.36738
1.33296
1.37485
1.28624
1.25148
1.51894
1.46635
1.52698
1.51334
1.49632
1.54295
1.68715
1.7593
1.67832
1.73986
1.6994
1.72714
0.495655
0.420541
0.485046
0.462387
0.424479
0.369658
0.123029
0.189279
0.322953
0.284422
0.26519
0.268721
0.837346
0.869291
0.643783
0.799574
0.612754
0.466369
0.510754
0.596016
0.721639
0.758266
1.04137
1.04569
1.09348
1.08422
0.937889
1.10205
1.25218
1.24764
1.27389
1.16294
1.17617
1.18354
0.743825
0.938065
1.57908
1.85633
1.50121
1.33038
1.15664
1.29016
1.52332
1.42387
1.44138
1.53115
1.47548
1.08104
1.06668
1.17676
1.19942
1.12786
1.06155
1.03925
1.14939
1.19395
)
;

boundaryField
{
    wall-4
    {
        type            zeroGradient;
    }
    velocity-inlet-5
    {
        type            zeroGradient;
    }
    velocity-inlet-6
    {
        type            zeroGradient;
    }
    pressure-outlet-7
    {
        type            fixedValue;
        value           uniform 0;
    }
    wall-8
    {
        type            zeroGradient;
    }
    frontAndBackPlanes
    {
        type            empty;
    }
}


// ************************************************************************* //
