/*--------------------------------*- C++ -*----------------------------------*\
| =========                 |                                                 |
| \\      /  F ield         | OpenFOAM: The Open Source CFD Toolbox           |
|  \\    /   O peration     | Version:  2206                                  |
|   \\  /    A nd           | Website:  www.openfoam.com                      |
|    \\/     M anipulation  |                                                 |
\*---------------------------------------------------------------------------*/
FoamFile
{
    version     2.0;
    format      ascii;
    arch        "LSB;label=32;scalar=64";
    class       surfaceScalarField;
    location    "0.9";
    object      phi;
}
// * * * * * * * * * * * * * * * * * * * * * * * * * * * * * * * * * * * * * //

dimensions      [0 3 -1 0 0 0 0];

oriented        oriented;

internalField   nonuniform List<scalar> 
1300
(
3.75095
5.62643
-7.01702
3.75095
-6.46928
5.62643
-6.43783
6.43783
-1.42389
1.42389
1.90018
1.85077
-5.8541
5.8541
-5.68152
5.68152
-3.08774
3.08774
-5.32385
5.32385
-5.25495
5.25495
3.89571
-3.89571
-5.35337
5.35337
-2.12189
2.12189
-6.47809
6.47809
3.19929
-3.19929
-5.65885
5.65885
-1.70965
1.70965
-0.539109
4.29006
3.21184
3.21184
-2.7574
2.7574
-5.47766
5.47766
6.22027
-6.22027
9.89973
-9.89973
-2.88271
-3.25354
1.32227
-7.96862
-5.14701
-5.14701
-8.46192
8.46192
-2.83549
2.79094
3.21277
-3.21277
-2.65593
2.65593
-6.15802
-0.279805
-6.15802
6.60217
-0.164337
6.60217
-1.64225
0.218359
-1.64225
4.78066
-4.78066
1.21659
0.207306
1.21659
3.20123
-3.20123
-1.88092
3.7811
1.87003
-1.79063
6.0807
-1.96032
3.81109
-4.9701
4.9701
-5.99117
0.13707
-5.99117
5.87216
-0.0180605
5.87216
-5.55784
5.55784
-5.69121
0.00969507
-5.69121
5.58478
0.0967372
5.58478
3.32274
-3.32274
-3.13081
0.0430722
-3.13081
3.08524
0.00250195
3.08524
0.334834
5.2916
-5.96126
8.7522
-5.2916
-0.0322563
5.30424
0.0196141
5.30424
-5.24571
-0.00924033
-5.24571
5.21827
0.0366846
5.21827
3.64177
0.253935
3.64177
-4.23384
0.33814
-4.23384
-3.17703
-3.28532
-5.41432
0.0609555
-5.41432
-2.19261
0.0707166
-2.19261
2.07732
0.0445751
2.07732
-3.96087
3.96087
-6.66249
0.184404
-6.66249
3.16547
0.0338181
3.16547
1.82621
1.92474
5.57717
-5.57717
2.37788
-5.6613
0.00244907
-5.6613
-5.69048
-4.20925
5.69048
-0.0316279
-1.06029
-0.649361
-1.06029
3.25534
-0.0434951
3.25534
2.94186
0.14338
-2.94186
0.18446
3.72312
-3.72312
2.22406
0.533335
2.22406
-5.55353
5.55353
5.30321
-0.0849403
-5.30321
-0.174455
6.1908
0.0294701
6.1908
-6.15526
-0.0650057
-6.15526
3.29659
-6.55012
-3.32251
5.23652
0.116845
-5.23652
0.0895138
3.23361
-0.020847
3.23361
-3.18426
3.18426
-3.19482
-0.017951
-3.19482
-2.56858
-0.087347
-2.56858
2.72479
-0.0688641
2.72479
-5.70872
-0.449305
-5.70872
-6.69046
0.0279683
6.69046
-0.0882918
3.08724
-3.08724
-1.77271
0.130459
-1.77271
-5.20239
-0.506328
5.20239
-0.421728
-4.59684
-0.183822
-4.59684
-3.22557
0.0307545
3.22557
-0.0243396
3.17248
0.0828558
-3.17248
-0.0287474
-1.87674
3.80148
-1.87421
3.74424
-4.6875
-0.282597
-4.6875
5.18966
-0.219564
5.18966
6.35098
0.127108
-6.35098
0.359807
5.71899
0.153169
5.71899
-5.47394
-0.0839072
-5.47394
5.57414
-0.0162989
5.57414
5.64758
0.0714107
-5.64758
-0.0436315
5.73781
-0.153026
5.73781
3.32591
-0.00317065
3.32591
-3.20632
-0.116422
-3.20632
3.17606
-3.17606
3.08148
0.0945752
-3.08148
-0.0493312
-11.1394
11.0744
-0.0931511
-11.0462
5.21109
5.21109
3.0077
0.634071
3.0077
-4.70441
0.470568
-4.70441
3.31653
-6.63904
3.22212
-6.39916
3.22197
-11.1906
3.40238
-6.6877
5.58457
-5.58457
5.41444
0.170135
-5.41444
0.000112196
-2.19221
-0.000398075
-2.19221
-3.77217
-0.188699
-3.77217
4.32683
-0.365961
4.32683
-3.22552
3.22552
-3.18225
-0.0432665
3.18225
-0.0167767
5.61852
0.119289
-5.61852
-0.0427804
1.05246
0.164131
-1.05246
-0.0078305
3.85427
-0.13115
3.85427
-3.49257
-0.230556
-3.49257
-2.17284
-0.0193705
2.17284
0.051224
-5.90489
0.35136
-5.90489
-11.155
0.108737
-11.1353
-6.04653
-6.04653
2.4154
11.1676
-3.2253
0.0189844
3.2253
0.00831255
3.13757
0.0879447
-3.13757
-0.0466938
-3.19131
0.0152573
3.19131
-0.00705026
-2.43479
-0.133786
-2.43479
-2.87391
2.87391
-2.83466
-0.0392566
2.83466
-0.109866
3.2231
-0.135858
3.2231
1.95798
0.119336
-1.95798
0.18527
-4.19048
-0.406364
-4.19048
5.24868
-0.0590195
5.24868
-3.40878
-0.0837919
3.40878
-0.0828654
0.0171418
11.0572
-5.22823
-0.0174807
5.22823
-11.0867
11.0692
-2.50516
0.0703611
2.50516
0.502544
5.14204
0.411486
-5.14204
0.437628
5.54736
0.0267807
-5.54736
-0.0372102
-3.53998
-0.232193
-3.53998
-4.52069
-0.166809
4.52069
-0.193864
-11.2064
-0.176139
11.3826
-11.1697
6.08103
0.109772
-6.08103
11.179
-2.90464
-0.182602
2.90464
-0.0307235
3.33246
-0.109365
3.33246
4.13102
-0.276748
-4.13102
-0.0594575
-5.42938
-0.0445539
5.42938
-0.180698
-3.50772
-0.0322603
3.50772
-0.175254
-4.20345
4.15996
1.87724
-3.36258
-3.18754
-7.57183
1.85605
1.94543
4.23393
-7.08531
-4.10528
-6.9958
6.79472
-6.35709
-6.57268
6.82661
7.63079
-7.81461
-5.77737
5.76059
6.30209
-6.32643
1.85429
1.92681
10.7343
-10.5972
-10.1622
9.87963
10.0955
-10.0858
10.4114
-10.4953
-11.9788
12.0056
-5.58063
5.6237
-6.58644
6.47001
-6.6443
6.56144
-3.21457
-3.18458
8.79762
-8.73666
11.5123
-11.5098
-11.2008
11.3852
3.28594
0.874017
3.36879
-1.95943
3.81372
-1.85166
3.72891
3.32742
-6.542
3.31162
-6.49916
5.9095
5.6028
-5.87787
-1.69396
-5.81896
5.79811
-5.73489
5.72784
11.0281
-11.3079
-1.85432
3.78113
-1.88992
3.83535
-3.3656
-2.41177
3.33178
0.902145
5.46806
3.32956
-5.58491
-1.41089
-7.5746
7.29785
-7.69974
7.46919
0.0256831
5.50324
-5.52893
5.50334
-1.82546
7.3287
4.96927
5.43983
5.61984
-5.20836
0.73725
-6.26618
-6.44063
-2.33414
2.4646
2.10076
-1.89345
6.56314
1.06766
6.14141
-5.27349
-2.54112
-5.67985
3.80572
1.95487
3.76246
4.02657
2.27552
4.05732
2.97796
-3.07185
0.0938851
-3.03501
6.01298
0.709284
-5.44678
-4.54464
6.90435
3.82991
6.88629
-7.39096
-3.20623
-7.03115
-6.15321
-4.00901
-6.32002
6.53237
3.34726
6.31281
-7.76374
7.58305
6.62676
3.46872
6.7235
-6.64748
-3.4383
-6.69112
10.2634
-2.84523
-7.41817
-6.92015
-5.0587
6.93644
3.47496
7.37355
4.63208
7.33634
3.57052
6.69289
-7.04548
1.98677
-3.73556
-1.84507
-3.7849
3.56636
2.05735
3.56886
-4.21061
-2.37582
-4.19163
-4.20265
-2.44165
4.20582
2.26419
-4.25019
-3.44956
4.33398
2.22746
3.16007
-7.26535
3.52763
-6.71221
-6.18775
-2.54891
-6.18764
4.04518
2.62691
-6.67209
-2.49682
10.6899
-5.08714
8.99598
-7.22012
-4.28973
-7.2629
-8.81345
-2.38738
-8.78548
-5.18037
4.94817
-5.63426
5.2683
10.5086
-5.87208
-4.63647
-3.9944
-2.33203
4.02314
-0.654351
-3.64125
3.73514
0.172471
3.90138
4.77539
4.12104
-3.79
-1.94489
-3.8367
3.74637
1.98147
3.76162
8.54442
2.48364
8.38008
-7.63369
-3.67417
-8.083
5.46013
-5.54747
2.92032
-2.93969
5.07406
2.39513
-4.94291
-2.63169
5.85181
-3.06308
-2.78873
-12.0527
7.6255
4.42716
-4.72396
0.77938
2.48903
-4.60914
-1.96354
4.271
1.16884
8.79434
6.8308
-5.21907
5.57043
6.1635
6.07856
-0.362072
3.78335
-3.71299
6.036
-0.886791
-5.14921
5.76555
-6.27188
-2.31745
-5.9967
3.67926
-0.130471
0.0501431
-0.699505
-1.94025
-0.39389
-1.75498
1.16575
0.935003
1.32988
1.02321
1.44139
-2.50013
0.233695
2.26644
-1.47693
-1.65975
-3.98963
-0.208752
4.19839
5.48951
1.80834
-5.43005
-0.249802
2.62449
-2.57992
-1.56094
-2.42869
1.21043
-2.77137
-3.05776
-2.19631
5.25407
-3.31735
-0.519344
3.22941
0.533048
-3.78827
-2.0307
3.80622
0.251106
-2.95866
5.97771
-3.01905
-4.90355
2.5568
3.45618
4.51167
-4.61132
2.32052
2.2908
-1.15515
5.82106
1.06523
5.97423
-8.95845
5.75223
7.80937
3.57587
-7.93648
0.905329
-8.05312
9.34519
-8.34141
-1.00378
4.84278
4.50241
5.32547
5.18308
-3.37727
8.70274
-1.26022
-7.08119
9.31335
-5.73748
5.43159
-11.1691
-10.6147
3.53348
-6.70312
8.34625
-1.64312
-2.41549
-5.34825
9.11861
-0.905534
-8.21308
5.40727
-5.11072
-5.39298
10.5037
-7.95595
8.83128
-2.54941
-6.28186
-6.53795
-3.95737
6.5825
1.00055
-9.7041
11.6909
-3.01122
5.77472
0.948778
5.6217
3.90929
-5.93803
2.02875
4.04666
-6.59608
2.38323
-8.32127
-4.77069
9.43198
-4.66129
-7.3196
-6.66142
-0.658182
2.07624
9.61464
-6.70832
5.34258
1.36573
3.20279
0.558839
-3.29736
-0.487534
0.336604
4.39851
-4.73511
3.90546
4.04884
3.44702
0.95149
3.78148
2.01663
-3.78979
-0.401834
-3.84968
1.40803
-1.58549
-3.47862
4.88664
-3.92408
0.445465
-2.6038
-3.39006
5.99386
-4.44887
2.87227
3.10544
4.85374
-4.74031
1.35025
-2.35229
-2.38802
2.57383
-4.15932
1.84038
3.04627
4.06784
0.618281
4.62203
4.80994
-7.24895
0.536737
8.1395
-6.72861
1.55942
5.77692
-6.902
0.240586
-5.94706
1.11798
-6.20512
-5.55411
6.44071
-8.82809
-4.72837
8.10343
0.276654
-8.01514
-0.770343
-3.70496
-1.47541
-3.73722
-1.89333
-3.74093
-5.2706
-1.01854
-4.25205
3.92963
-4.21636
-2.10366
4.41022
0.858081
-4.45295
4.27035
-4.43112
4.32175
0.146941
3.5882
4.26798
1.93595
-2.43305
4.369
-6.61166
9.0953
-10.7016
4.08997
4.43795
-8.11213
-6.26368
3.36027
2.09985
3.29141
5.55477
-6.89736
1.34259
-6.25833
7.28078
-1.02246
-9.76381
3.50548
-4.20904
2.58693
0.333391
2.58653
0.670792
2.26211
-2.9329
-2.2689
-2.21768
-2.22093
-3.2739
5.49483
0.983801
-3.21877
2.23497
-3.27675
4.26055
-0.192163
-3.0266
4.94479
-2.68268
5.27818
-3.46891
1.80927
3.16913
5.24753
-2.0784
4.12745
-1.73232
1.77815
-3.85655
-1.49575
-2.91918
4.97652
-3.07468
3.52015
-0.24141
3.76156
-3.96263
0.899549
-0.51561
3.53323
3.71769
3.9688
-3.01731
2.67648
-4.40879
-1.18007
-3.79051
-0.744247
-0.852653
-5.02918
5.88184
4.8506
-5.70325
-2.7626
5.49734
-2.73474
4.6605
-3.2555
-1.405
-2.72349
-2.82398
2.85728
0.926075
5.58657
0.325001
-3.5805
-3.38799
-2.88545
4.71231
1.32369
-0.971035
5.39819
-1.51799
1.56814
0.53988
0.790003
1.11595
-0.576074
-0.0826679
1.19862
-0.782172
1.88139
0.743102
-2.00072
0.245741
-1.74665
2.95708
0.519786
-1.45479
0.878715
2.3403
-3.22709
4.8163
-1.54405
-3.27225
7.1566
1.85593
-3.39998
4.14077
-4.27124
2.81066
-3.01941
-0.589324
-4.86057
-3.79291
-2.15239
4.38735
-3.34244
5.15078
1.32959
-4.90098
6.23057
-3.45606
1.25976
-2.69109
3.43419
-0.804483
-1.8866
2.50611
2.74796
-2.80361
0.374912
-0.297496
1.98819
-2.28569
-0.783184
-2.26011
-4.45891
4.71002
-2.18561
4.50613
2.18339
-1.91262
6.41876
1.79016
-3.70278
-3.11339
-3.63273
-1.41198
3.09969
-0.747497
-5.94362
-7.02936
5.87221
0.102018
-9.02332
10.075
-1.05164
-5.19341
-0.558814
5.40159
-7.24494
0.648862
-4.86171
5.21325
6.27848
6.3805
-8.07194
-0.14114
-4.72468
1.25316
-5.97785
5.75557
-2.78949
6.32297
-6.77133
4.66767
-5.91325
5.31919
-0.658653
5.28566
-3.25691
2.13251
-6.08988
-5.08933
6.97927
-3.51055
7.92804
-3.98193
11.91
-6.99315
7.06021
4.84976
-1.29649
-5.96641
-6.83479
5.5383
0.225423
5.84712
4.86176
-2.84512
4.45992
2.07522
-4.42751
-2.0841
-6.33935
1.91184
-3.23391
-1.71537
3.62721
3.13837
3.69721
1.23919
-3.20967
6.62882
-7.287
-1.96753
-3.58658
6.75916
-1.22086
3.73569
-7.32227
-2.46943
5.09721
-0.534991
-4.56222
0.774868
-5.50323
2.54063
-8.04387
6.28746
-7.0578
1.23119
-5.44022
-3.22177
-3.25249
-1.28519
-3.14593
-4.49405
3.20886
-0.988564
3.28179
-5.39662
4.86163
-1.88417
5.09303
-3.30721
-0.430008
3.48246
0.839289
5.93232
-0.403195
-5.86049
-1.57555
5.6922
-4.11665
3.13675
-5.43238
0.259826
3.55035
3.60625
-7.22961
-0.882516
-6.743
-2.37764
4.47749
3.11969
7.97029
1.07293
4.98849
-0.511
6.06143
2.78041
2.67055
-3.80886
5.15145
2.07297
6.16295
-0.804587
2.61385
1.78195
1.85266
0.727252
2.21013
1.50756
3.10968
0.176779
-2.0409
3.03672
-5.92217
-0.543783
-5.2881
1.53851
3.9984
-2.45989
4.7375
-3.41381
0.620852
2.76015
-1.91254
-0.847604
-2.38906
-0.344407
0.854215
-1.04201
1.92073
1.91507
-2.77494
0.385881
-0.0908243
-3.70209
3.11024
-2.73533
0.0126367
6.24321
-2.33016
0.0444742
-1.07041
-2.21563
-2.60952
2.36378
6.00421
0.414547
2.98516
5.12456
3.09387
0.248744
4.22676
-5.86989
-4.0945
-6.01103
-0.255452
5.14614
1.74178
7.87286
6.59154
5.37068
-1.95159
-9.23859
7.34231
-2.19086
6.31985
-1.75763
-6.28624
6.5132
2.5821
-6.78985
-0.267951
-6.55419
-8.74505
-0.314424
5.17605
-5.61789
5.18788
3.71247
0.539579
-2.74544
-0.507053
2.7847
-0.114151
5.94727
-1.0932
-5.50769
6.60089
-2.90521
2.36142
5.01671
0.381482
4.16911
0.755298
-4.75239
-7.21228
-1.12009
-2.107
-4.39234
-0.193954
-1.72112
3.93667
-1.57524
2.53167
5.02565
5.6465
-1.59121
-4.11204
4.32595
-1.79428
3.85221
)
;

boundaryField
{
    wall-4
    {
        type            calculated;
        value           uniform 0;
    }
    velocity-inlet-5
    {
        type            calculated;
        value           uniform -3.75095;
    }
    velocity-inlet-6
    {
        type            calculated;
        value           uniform -5.62643;
    }
    pressure-outlet-7
    {
        type            calculated;
        value           nonuniform List<scalar> 8(7.01702 6.46928 6.13624 6.64635 6.46235 6.6191 6.53865 6.62435);
    }
    wall-8
    {
        type            calculated;
        value           uniform 0;
    }
    frontAndBackPlanes
    {
        type            empty;
        value           nonuniform List<scalar> 0();
    }
}


// ************************************************************************* //
