/*--------------------------------*- C++ -*----------------------------------*\
| =========                 |                                                 |
| \\      /  F ield         | OpenFOAM: The Open Source CFD Toolbox           |
|  \\    /   O peration     | Version:  2206                                  |
|   \\  /    A nd           | Website:  www.openfoam.com                      |
|    \\/     M anipulation  |                                                 |
\*---------------------------------------------------------------------------*/
FoamFile
{
    version     2.0;
    format      ascii;
    arch        "LSB;label=32;scalar=64";
    class       volVectorField;
    location    "0.9";
    object      U;
}
// * * * * * * * * * * * * * * * * * * * * * * * * * * * * * * * * * * * * * //

dimensions      [0 1 -1 0 0 0 0];

internalField   nonuniform List<vector> 
918
(
(0.82449 -0.226013 0)
(0.0240884 2.97168 0)
(-0.148116 1.80893 0)
(0.695742 0.233127 0)
(0.0618284 1.73266 -2.782e-20)
(-0.0874907 2.85548 -4.11057e-19)
(1.12503 1.78143 2.90661e-20)
(0.471643 0.280563 -6.36693e-21)
(0.918491 0.00320664 0)
(0.0317928 1.79022 0)
(0.0126481 1.7428 0)
(0.946163 0.00898834 0)
(-0.0608604 2.99686 0)
(0.0181976 2.94316 0)
(-0.0840535 2.692 -1.1705e-20)
(-0.0146194 1.72107 -2.9046e-20)
(0.682885 0.16136 5.14183e-19)
(0.222474 2.06468 3.15962e-20)
(1.00181 -0.00283609 0)
(0.02697 1.73516 0)
(0.762728 0.155118 8.56767e-21)
(0.727477 -0.0802291 0)
(0.884208 0.0123665 0)
(1.02822 0.0536616 0)
(0.858985 0.0448626 0)
(0.0142364 3.02685 0)
(-0.0229711 2.90237 1.30808e-19)
(-0.163647 1.7302 0)
(-0.0388925 1.66578 0)
(-0.186477 1.71205 0)
(0.0470242 1.7414 0)
(-0.0414778 1.69113 2.14013e-20)
(-0.0304309 1.72804 0)
(-0.0493039 3.02359 -1.1555e-23)
(-0.0394534 2.96243 3.34342e-19)
(0.0169336 3.01993 0)
(0.983807 -0.00612412 0)
(0.816585 1.28548 1.40707e-19)
(1.146 1.6797 7.59432e-20)
(1.26037 1.56352 -2.6023e-20)
(0.973581 1.88253 -7.45898e-21)
(0.926877 1.94813 6.17458e-20)
(0.523209 0.301781 6.18031e-21)
(0.538086 0.281491 0)
(1.37099 0.783137 0)
(0.45768 0.314929 2.58266e-20)
(0.415242 0.285002 -2.68225e-20)
(0.98281 -0.0147044 0)
(1.05436 -0.00380289 0)
(0.919991 -0.00918404 0)
(0.981583 -0.0969106 0)
(1.02824 -0.0224457 0)
(0.96247 0.00594664 0)
(0.0204456 1.62205 -2.54934e-19)
(0.0344502 1.8255 0)
(0.0433275 1.82556 0)
(-0.0206334 1.80324 0)
(-0.012305 1.80133 0)
(0.00601857 1.7196 0)
(0.0190703 1.75847 0)
(0.0111089 1.74525 0)
(-0.00297232 1.74695 0)
(-0.00864386 1.70402 0)
(1.01532 0.00445632 0)
(0.964368 0.0187498 0)
(0.959283 0.00205769 0)
(0.952666 -0.00394214 0)
(0.943126 -0.00148681 0)
(0.0150054 2.97382 1.39824e-19)
(0.0440945 2.95156 0)
(-0.00678243 2.95549 0)
(-0.0557561 3.03358 1.12171e-24)
(-0.0457011 2.93183 -2.13398e-19)
(-0.0171737 3.03142 0)
(0.0382269 2.95106 0)
(0.0239701 2.98245 2.51947e-25)
(0.0240778 2.93232 0)
(0.0568288 2.99328 0)
(0.067625 2.91308 0)
(0.115449 2.80294 0)
(-0.152003 2.81365 0)
(-0.0113362 2.74431 1.07664e-20)
(-0.123217 2.65452 0)
(-0.00425288 1.73371 0)
(-0.0103187 1.73911 2.86447e-20)
(-0.00124561 1.71498 -3.26907e-20)
(0.721387 0.162307 -1.78842e-19)
(0.726849 0.146159 -1.74553e-19)
(0.691413 0.214737 -5.31246e-19)
(0.66336 0.202988 -3.37964e-19)
(0.182698 1.38937 0)
(0.343827 2.11776 -3.86785e-20)
(0.459192 2.10143 7.25723e-20)
(0.993152 -0.0103579 0)
(0.965219 0.0017705 0)
(0.92886 0.006064 0)
(1.02398 0.0246063 0)
(0.923888 0.0645791 -1.94237e-18)
(0.974427 0.0986928 1.47183e-18)
(0.013256 1.75589 0)
(0.0106817 1.73433 0)
(0.0137283 1.70196 0)
(-0.0196548 1.74304 0)
(-0.0113008 1.7598 0)
(0.833296 0.147509 1.62329e-20)
(0.376149 0.331021 0)
(1.01447 0.0278427 0)
(0.989609 -0.00225053 0)
(0.940474 0.0341361 0)
(0.889535 0.0972695 0)
(0.886148 0.00642365 0)
(1.14416 -0.00603748 0)
(0.83734 0.0233956 0)
(0.817494 0.0220437 8.24797e-19)
(-0.057052 2.87766 1.02254e-19)
(-0.0349 2.99663 0)
(-0.0622069 3.09513 0)
(-0.0183682 2.94613 0)
(-0.00136416 2.97251 1.19188e-19)
(0.0355694 2.92486 0)
(0.010131 2.9706 -3.72257e-19)
(-0.0405033 2.93666 1.21346e-19)
(0.0356298 1.74712 0)
(-0.00759813 1.75316 0)
(-0.00442463 1.73346 -9.68995e-22)
(-0.0424178 1.74638 0)
(0.029894 1.70416 0)
(0.998695 0.000152607 0)
(0.992705 -0.0118698 0)
(0.973827 -0.000458752 0)
(0.997452 -0.00915507 0)
(0.973159 0.0187431 0)
(0.898026 1.35041 -1.75392e-19)
(0.890161 1.26109 0)
(0.818325 1.34382 2.14534e-20)
(0.776162 1.25126 0)
(1.20511 1.44194 1.64511e-20)
(1.3541 1.27111 -5.36855e-20)
(0.570757 2.11468 0)
(0.792589 2.02253 0)
(0.703159 2.06114 0)
(0.547382 1.27092 -1.2418e-19)
(0.561121 0.300693 0)
(0.567426 0.250168 9.04699e-20)
(1.23244 1.21932 0)
(1.2623 0.965027 0)
(1.37515 1.0222 9.4533e-20)
(1.32746 0.749383 0)
(1.38203 0.622684 1.74422e-20)
(0.990126 0.0197885 0)
(0.992576 -0.00658298 0)
(0.99009 -0.00846576 0)
(0.997312 0.00414696 0)
(0.99365 -0.0269269 0)
(0.963699 0.0127463 0)
(1.03174 0.00885991 0)
(0.995945 -0.000554777 0)
(0.930108 0.00530802 0)
(0.0142532 1.61696 1.34103e-19)
(-0.0170473 1.5541 0)
(0.0282076 1.67378 2.39777e-19)
(0.0289878 1.67034 -2.15413e-19)
(0.117475 2.02833 -2.34642e-20)
(0.0244648 1.92632 0)
(0.0334398 1.95313 0)
(-0.00616224 1.8027 0)
(-0.000808073 1.74641 0)
(-0.0105001 1.72209 -1.10814e-21)
(-0.0258801 1.7066 0)
(-0.00661498 1.74523 -6.38666e-20)
(-0.00502961 1.7252 1.21467e-19)
(0.0299033 1.75761 0)
(0.0159626 1.75687 0)
(0.00123132 1.72461 0)
(-0.00361999 1.74867 0)
(-0.0109004 1.75614 0)
(1.03261 0.00860059 0)
(1.0164 0.000753305 0)
(1.00739 0.0122686 0)
(0.978476 -0.0125042 0)
(0.971215 -0.005979 0)
(0.975252 0.00438205 0)
(0.963345 0.0121186 0)
(0.937254 -0.000787379 0)
(0.015872 3.06327 -1.1223e-21)
(0.0238603 3.04861 0)
(0.0555144 2.99502 0)
(0.0116635 2.92598 0)
(0.677388 3.01563 0)
(1.0149 2.35788 8.70107e-20)
(-0.0610347 2.81841 0)
(-0.0513646 2.75296 0)
(-0.00281711 1.78547 0)
(-0.0190078 1.69199 0)
(0.00276599 1.74082 0)
(0.0342191 1.7273 8.31055e-24)
(0.022637 1.7901 0)
(0.0225543 1.7697 0)
(0.0247943 1.73381 7.26342e-21)
(0.00895854 1.7535 4.11051e-20)
(-0.00782068 1.72682 3.34192e-20)
(0.00974447 1.68483 0)
(0.750564 0.149043 2.80393e-19)
(0.743865 0.0848364 -2.75533e-19)
(0.204837 1.42649 0)
(0.245228 1.35841 -7.36527e-20)
(0.144499 1.48664 -2.28101e-19)
(0.101698 1.48464 2.27844e-19)
(0.987061 -0.00815748 0)
(0.989374 -0.0166836 0)
(0.984666 0.000769442 0)
(0.971528 0.00717844 0)
(0.0104313 1.77042 0)
(0.0226281 1.74328 0)
(0.00930734 1.71677 0)
(0.420301 0.291139 2.21075e-19)
(0.463966 0.257092 -2.12608e-19)
(0.373217 0.284735 0)
(1.19451 0.0942705 2.82915e-20)
(1.23996 0.0370725 0)
(1.11903 0.0563226 0)
(1.06521 -0.00721976 0)
(0.7736 0.0962794 0)
(0.816513 0.0629796 -1.31668e-18)
(0.757819 0.0549671 4.91582e-19)
(-0.0329846 2.98234 9.16414e-20)
(0.0406111 2.94178 -2.55362e-21)
(0.0536641 3.01576 -2.75527e-21)
(0.0711934 3.03621 7.70775e-20)
(-0.0391914 2.95239 4.96044e-21)
(-0.114859 2.89488 -1.76247e-23)
(-0.0631693 3.05376 -7.4002e-20)
(0.0825008 3.05919 5.28953e-20)
(0.0791872 3.08299 -7.97386e-20)
(1.00706 -0.0023257 0)
(0.993051 0.0301119 0)
(0.980883 0.0253739 0)
(0.991818 -0.00623759 0)
(0.979656 0.000471645 0)
(0.95502 -0.000276295 0)
(0.982706 -0.00985271 0)
(0.988799 0.0077246 0)
(0.978108 0.00642321 0)
(0.977071 1.32175 -1.55334e-19)
(0.911352 1.29217 0)
(0.654042 1.24027 3.79542e-20)
(0.691269 1.33323 2.93971e-19)
(0.767339 1.33353 -1.76523e-19)
(0.723834 1.27186 3.40588e-19)
(0.511322 1.3296 6.05977e-19)
(0.494335 1.27942 1.13479e-19)
(0.661641 0.241261 3.56042e-19)
(0.609972 0.275181 9.06686e-20)
(0.622565 0.234358 1.72247e-19)
(1.28248 0.557645 -1.58285e-19)
(1.33576 0.372586 -1.80125e-19)
(-0.00248887 1.69581 1.0119e-19)
(-0.00307239 1.66314 0)
(1.07443 0.0187083 0)
(1.04446 0.0150624 0)
(1.03941 0.00149212 0)
(0.0109388 3.05898 0)
(-0.00406324 2.99446 1.53055e-19)
(-0.0211495 2.97023 0)
(-0.0296549 2.91453 -1.56634e-19)
(-0.0112768 3.04791 3.60714e-20)
(0.0112174 3.05339 0)
(0.97395 1.36957 1.94461e-20)
(0.953921 1.61887 -1.31586e-19)
(0.822586 1.42038 2.40214e-20)
(-0.0411281 2.92166 -9.42085e-20)
(-0.0324813 2.85359 0)
(-0.0647552 2.82146 0)
(-0.00609955 1.74181 -4.05417e-21)
(0.0213694 1.73536 -1.01648e-19)
(-0.0249771 1.71475 -1.57383e-21)
(0.257071 1.37186 2.38857e-19)
(0.263781 1.31247 -1.62161e-19)
(0.0127941 1.60066 1.78506e-19)
(0.0725243 1.54783 -2.02487e-19)
(0.0529175 1.52697 1.304e-20)
(-0.0774219 3.06799 -1.56633e-19)
(-0.0716515 3.07554 1.85804e-19)
(0.00554911 2.98222 9.60602e-20)
(0.0499869 2.99182 -8.69047e-20)
(0.081973 2.9374 -9.78856e-20)
(-0.0037817 3.04118 -2.68729e-19)
(-0.0607684 3.03187 2.79905e-19)
(0.544069 1.29654 0)
(0.587787 1.32341 -6.19609e-19)
(0.559464 1.23041 2.75317e-19)
(0.427977 1.35386 3.24128e-19)
(0.427434 1.29524 -5.06488e-19)
(1.24829 0.199841 1.06683e-19)
(1.30623 0.361248 0)
(1.32907 0.255934 -9.63453e-20)
(-0.00876907 1.73396 -1.21513e-21)
(-0.00159715 1.70029 0)
(0.023326 1.69921 0)
(0.297648 1.38934 -8.49383e-20)
(0.363762 1.36015 -1.94252e-19)
(0.383409 1.33484 3.62226e-19)
(0.975587 -0.00836673 0)
(0.999353 -0.0519899 3.64683e-19)
(0.0438766 1.75009 0)
(-0.0338515 1.74265 0)
(1.0314 -0.0213144 6.33361e-21)
(0.906373 -0.00341165 7.39842e-19)
(0.0161861 1.79535 -1.11723e-23)
(0.0707923 1.80861 0)
(-0.0825495 2.93598 8.81509e-20)
(-0.0746517 2.52929 0)
(1.17892 0.649011 -9.91998e-20)
(1.01476 -0.0147718 -4.85612e-21)
(0.976777 0.0326068 0)
(0.963681 0.000450533 -1.33988e-21)
(0.0331908 1.87511 0)
(0.136923 1.70689 0)
(-0.0271434 1.77658 0)
(0.0683249 1.7591 7.30531e-20)
(-0.00268471 1.7492 5.50519e-20)
(0.979904 -0.00234366 3.15206e-21)
(1.02088 0.0701732 0)
(1.04721 0.0382165 0)
(-0.0188677 1.70173 0)
(0.0266676 1.74535 0)
(-0.0249041 1.75516 0)
(0.235226 1.93961 4.20547e-20)
(0.984603 -0.0564281 0)
(0.997128 -0.0485448 0)
(0.958675 0.0360351 4.63217e-19)
(1.00107 0.0329864 -5.50443e-19)
(1.04137 -0.059743 0)
(0.0131758 1.7399 0)
(0.00790874 1.73339 0)
(-0.00725986 1.77797 0)
(-0.00839956 1.77877 0)
(-0.0559982 1.7749 0)
(0.00453099 1.73213 0)
(0.992328 0.014129 0)
(1.00855 -0.0192719 -1.61127e-21)
(0.862696 1.64427 -3.70259e-20)
(0.957098 -0.0578221 -4.61607e-19)
(1.03874 0.0230132 5.57248e-19)
(1.0382 0.0218692 0)
(0.984336 -0.000374722 4.42142e-19)
(1.02307 0.0668743 -5.49415e-19)
(0.996596 0.0280598 0)
(0.0248055 1.76104 0)
(0.0526065 1.77124 3.4246e-20)
(-0.0125399 1.74481 -2.48628e-20)
(1.12673 0.272465 6.03998e-19)
(1.07313 0.0764037 0)
(-0.295054 2.96394 -1.54385e-19)
(-0.0763438 3.17452 -5.92288e-21)
(-0.117479 2.92582 3.12021e-19)
(-0.0370953 2.92215 -3.74054e-20)
(-0.0425211 2.91768 0)
(-0.0540967 2.95838 4.30644e-20)
(-0.0772705 3.05442 1.43313e-19)
(-0.0826848 3.0025 -8.10992e-20)
(-0.100961 3.06324 0)
(0.626155 0.281165 0)
(0.477144 0.338984 0)
(1.0719 0.821947 2.93041e-19)
(1.15275 0.944868 -3.67789e-19)
(1.11324 0.584786 0)
(1.12562 0.601555 0)
(1.01947 0.0111061 -8.30207e-19)
(0.977924 -0.00659079 1.04648e-18)
(1.02462 -0.0573493 0)
(1.01256 -0.0426545 0)
(0.941731 0.0553003 0)
(1.02672 -0.0253777 0)
(1.02066 0.0125183 0)
(1.00781 -0.032376 0)
(0.998589 -0.0815514 0)
(0.971131 0.00230721 0)
(0.0391023 1.86905 0)
(0.0147675 1.80442 0)
(0.110013 1.86604 0)
(0.171109 1.91133 0)
(0.109935 1.66583 0)
(0.0286969 1.68893 -1.27993e-19)
(0.123547 1.7116 0)
(0.0414366 1.67965 8.50533e-20)
(0.087003 1.74793 -1.00022e-19)
(-0.0103072 1.7881 0)
(0.0594398 1.75059 0)
(-0.0274717 1.76862 0)
(-0.0407072 1.756 0)
(-0.00151209 1.7277 -4.90718e-20)
(-0.0506821 1.77553 7.50622e-20)
(0.0588905 1.77466 7.75512e-20)
(0.0114976 1.76264 0)
(0.00856463 1.74757 -1.40496e-19)
(0.0124757 1.73097 -7.74041e-20)
(0.0182199 1.77554 3.69172e-20)
(-0.108883 1.69864 -9.52762e-20)
(0.0506632 1.72121 -9.57551e-20)
(0.989482 -0.00836542 7.54277e-19)
(0.985161 -0.0414306 -9.60276e-19)
(0.980191 0.0279701 -7.67803e-19)
(0.920451 0.00631417 9.78084e-19)
(1.04918 0.0581589 0)
(1.0495 -0.00912093 0)
(1.05236 0.0274308 0)
(1.05446 0.0078601 0)
(1.0407 -0.00906788 0)
(1.08913 0.0636495 0)
(1.06248 0.0359011 0)
(1.06093 0.0273441 0)
(-0.1432 1.73089 -2.55946e-21)
(0.0348047 1.75293 0)
(-0.0149289 1.73213 0)
(0.0210715 1.74951 2.115e-20)
(0.043526 1.77762 -9.68714e-22)
(-0.00712054 1.79685 2.42382e-20)
(-0.0423872 1.7257 -2.41999e-20)
(-0.0347765 1.75832 0)
(-0.0204054 1.75285 0)
(0.0574789 1.708 0)
(-0.0256527 1.76188 0)
(-0.0571522 1.78967 0)
(0.413993 1.91511 -1.06387e-19)
(0.455636 1.99651 -1.51683e-20)
(0.31251 1.45105 -5.89775e-20)
(0.229313 1.5777 1.63613e-19)
(0.321214 1.72413 4.61311e-20)
(1.02977 0.016305 0)
(0.995623 0.0172793 0)
(1.02751 0.0501112 0)
(0.961541 -0.0340904 0)
(1.0187 0.0125247 0)
(0.965763 0.0272527 0)
(0.985859 0.0805355 0)
(0.991831 0.0664207 0)
(0.998092 -0.0203172 7.96988e-19)
(1.00596 -0.0265833 -1.01613e-18)
(1.00666 0.013497 -7.85059e-19)
(0.9817 0.0208719 9.92689e-19)
(0.871335 1.66936 0)
(0.803883 1.73395 -7.33153e-20)
(0.909365 1.56989 -8.58116e-20)
(1.0108 1.49269 1.1401e-19)
(0.855144 1.53187 5.76397e-19)
(0.845636 0.108492 3.19887e-19)
(1.09703 0.0892544 0)
(1.15538 0.226748 -4.90697e-19)
(1.13821 0.0963189 -2.0273e-20)
(0.960327 0.116986 0)
(-0.665823 2.76135 1.76762e-19)
(-0.470564 2.71889 -2.3238e-19)
(-0.492842 3.15069 7.38513e-20)
(-0.43757 1.43629 3.60298e-20)
(-0.152436 2.66513 4.95927e-20)
(-0.0176306 2.89122 0)
(0.0287744 2.75571 -6.49395e-20)
(-0.578363 2.75052 -4.41585e-19)
(-0.567137 2.56687 0)
(-0.056278 3.00897 6.13966e-21)
(-0.0795259 3.05342 -7.88992e-20)
(-0.0530567 3.05009 1.18336e-19)
(-0.0471927 3.07819 0)
(-0.075957 2.9968 0)
(1.02029 1.79255 0)
(0.256704 1.06095 -2.60893e-19)
(1.11377 1.16839 1.18062e-19)
(0.932794 1.40258 0)
(0.799317 1.15605 -1.17434e-19)
(1.04049 1.10253 1.15123e-20)
(0.23489 -0.125373 -1.772e-19)
(0.638508 0.287272 -3.74276e-21)
(0.635875 0.310638 1.948e-19)
(0.446712 0.386716 1.142e-20)
(0.399167 0.323364 -4.35537e-19)
(0.575373 0.393429 0)
(0.580898 0.463022 3.14134e-19)
(0.573449 0.375386 0)
(0.476088 0.382625 0)
(0.518263 0.353555 0)
(0.597183 0.720311 2.58405e-19)
(1.17956 0.242814 -4.884e-19)
(1.1663 0.441423 0)
(1.21986 0.29126 0)
(0.748641 0.206213 3.07892e-19)
(0.630028 0.663754 -1.96002e-19)
(0.553488 0.524774 3.68024e-19)
(0.835207 0.385083 -4.36656e-19)
(0.997201 0.000538084 5.48112e-19)
(1.00081 0.0804352 -5.60521e-19)
(1.00871 0.0519523 0)
(1.03708 -0.0152222 0)
(1.01393 -0.0305276 -5.24699e-19)
(1.01392 0.0218245 5.20584e-19)
(0.979205 0.0270034 0)
(0.962864 0.00284861 0)
(1.00633 -0.00317825 0)
(1.00344 -0.0172247 0)
(1.01204 0.00207966 0)
(0.965463 -0.0230611 0)
(0.0727592 1.80063 0)
(0.0907023 1.8006 0)
(0.10647 1.80561 -9.58936e-20)
(0.231461 1.9473 -3.10614e-20)
(0.202381 1.92372 -8.00071e-20)
(0.156645 1.93457 1.22578e-19)
(0.0545561 1.77115 0)
(0.21305 1.72439 -1.17e-19)
(0.0710219 1.77258 0)
(0.29821 1.69351 -6.59865e-20)
(0.250312 1.59808 2.17223e-19)
(0.234568 1.7429 1.02861e-19)
(0.189529 1.84348 -4.4921e-20)
(0.163645 1.79252 3.60672e-20)
(0.207447 1.80273 -1.39072e-19)
(0.210977 1.72858 0)
(0.240715 1.68596 1.05479e-19)
(0.0318219 1.68872 -4.49592e-20)
(0.0471528 1.71835 0)
(0.0115566 1.72383 1.11006e-19)
(-0.0144462 1.70981 0)
(0.0165304 1.70362 -9.53697e-20)
(-0.00939245 1.69372 0)
(0.0299285 1.74154 -6.26364e-20)
(0.069179 1.74715 0)
(0.0523097 1.74236 0)
(0.0257311 1.79105 7.12481e-20)
(0.0238722 1.74172 3.77953e-21)
(0.0662797 1.75584 1.19681e-19)
(0.00678901 1.71866 1.02717e-21)
(0.104763 1.67794 3.2482e-20)
(0.0493025 1.67451 2.21062e-20)
(0.0122301 1.74819 0)
(-0.0783713 1.74533 0)
(-0.0112936 1.75271 9.633e-20)
(-0.0460492 1.75918 1.08383e-19)
(0.0191845 1.78941 -1.31664e-19)
(0.00654513 1.75518 0)
(0.0445787 1.75361 -8.71442e-20)
(-0.0534818 1.71533 2.31601e-20)
(-0.0120223 1.78887 -6.30391e-21)
(0.107439 1.78034 -3.88102e-20)
(0.0384617 1.71259 -2.08749e-20)
(-0.0119447 1.72864 1.03608e-19)
(0.987556 0.0387492 -5.32623e-19)
(0.992429 -0.053772 5.17002e-19)
(0.996404 0.0469085 0)
(0.958453 -0.0311279 7.03373e-19)
(0.917496 0.101116 -7.77864e-19)
(0.950162 0.0434854 8.49354e-19)
(0.968063 0.00654323 -9.02441e-20)
(1.04115 -0.0626172 0)
(1.02751 -0.0121166 5.0789e-19)
(1.0227 -0.0391702 -5.0505e-19)
(0.984301 0.00250646 -2.88673e-20)
(0.992566 0.0417129 2.40361e-19)
(0.963061 0.0671975 0)
(0.98041 0.0838621 -8.60253e-20)
(0.981149 0.0232994 0)
(0.986089 0.0534517 0)
(1.02698 0.0755261 0)
(0.972054 0.0131112 0)
(1.00331 0.0466879 1.78168e-19)
(1.02936 0.0160433 -3.9531e-19)
(0.995441 -0.0037604 -1.88035e-19)
(1.01428 0.0181299 -2.09811e-19)
(1.04094 0.0437207 4.1044e-19)
(1.01727 0.04977 0)
(1.01722 0.0270174 0)
(0.0381434 1.79438 -2.60324e-20)
(0.107289 1.70352 -4.68462e-21)
(0.0294463 1.68354 0)
(0.0317166 1.79102 2.64526e-20)
(-0.0935906 1.70003 6.99889e-21)
(0.0239069 1.74089 -8.28429e-21)
(-0.0545009 1.76214 6.94663e-20)
(0.0124571 1.7683 -3.7719e-21)
(0.0965425 1.73378 1.89017e-20)
(-0.0354934 1.77 -3.1369e-20)
(-0.0747274 1.77995 3.80872e-20)
(0.0129044 1.72112 -3.16042e-21)
(-0.0268447 1.77122 5.47186e-20)
(0.469275 1.80831 6.41266e-20)
(0.374596 1.77429 1.52786e-19)
(0.753625 1.7869 7.07634e-20)
(0.597024 1.92047 1.45739e-20)
(0.648484 1.94375 0)
(0.274703 1.46698 6.91377e-20)
(0.260966 1.42824 8.62638e-20)
(0.21946 1.5124 1.10875e-20)
(0.340393 1.52992 -2.55702e-19)
(0.343271 1.48596 2.15044e-19)
(0.276161 1.47772 0)
(0.18008 1.48371 -1.40468e-19)
(0.0841239 1.6241 3.30626e-19)
(0.157093 1.60879 4.88036e-22)
(0.0425611 1.57695 -4.30139e-19)
(0.627268 1.38911 3.77352e-19)
(0.460597 1.44222 0)
(1.011 0.078572 1.76743e-20)
(0.993429 -0.0680213 -1.49688e-20)
(0.986458 -0.0872543 -2.69289e-19)
(1.03337 0.0142292 2.71732e-19)
(0.997011 0.0381436 0)
(0.794347 1.59969 0)
(0.765383 1.56397 0)
(0.899391 1.35286 0)
(0.641281 1.41894 0)
(0.84952 1.52223 1.74641e-22)
(0.825934 1.50707 0)
(0.569498 1.48353 3.25078e-21)
(0.467409 1.4793 0)
(0.57633 1.48356 -2.83075e-19)
(0.561732 1.46593 1.83171e-19)
(0.817572 0.122886 0)
(0.770942 0.122511 8.42973e-20)
(0.879315 0.111807 5.24855e-19)
(0.83599 0.0955003 -1.90038e-19)
(0.847766 0.120015 -5.94017e-19)
(1.04571 0.19378 -6.18957e-19)
(0.849602 0.339282 -9.80627e-21)
(0.888273 0.224173 4.67364e-19)
(0.926183 0.175865 4.5722e-19)
(0.863657 0.165996 -7.10624e-19)
(0.871456 0.25697 8.60415e-20)
(0.766978 0.272691 -2.09267e-19)
(0.799797 0.252343 0)
(0.950159 0.121293 3.52623e-19)
(0.987684 0.172893 0)
(0.93549 0.194289 0)
(1.03837 0.163427 2.02924e-19)
(0.971263 0.258338 -1.77826e-21)
(0.926838 0.158278 -1.14061e-19)
(1.01435 0.151706 0)
(1.00599 0.0496465 3.95805e-19)
(0.969861 -0.0183353 4.90162e-19)
(1.02088 0.0519228 -3.8437e-19)
(0.99631 0.0877875 -3.29493e-19)
(0.950841 0.0113161 -4.98115e-19)
(0.932208 0.178943 0)
(0.961843 0.0339021 0)
(0.90528 0.0723427 -2.98932e-19)
(0.882767 -0.0150066 1.11625e-19)
(1.00795 0.103067 4.40928e-19)
(1.02076 0.110243 -5.66881e-19)
(0.951465 0.116254 4.97462e-19)
(0.910507 0.157795 0)
(0.996997 0.128676 0)
(0.946715 0.0676567 -2.29602e-19)
(0.975829 0.0647154 -3.64194e-19)
(0.628849 1.51141 1.3771e-19)
(0.619486 1.56097 -1.49552e-19)
(0.742976 1.56109 -2.06813e-19)
(0.738226 1.75008 5.29772e-20)
(0.887303 1.58874 -5.48391e-19)
(1.03301 1.73066 1.56794e-19)
(1.03902 1.58089 -6.0747e-21)
(0.861683 1.6807 -2.2406e-19)
(0.820224 1.65361 3.33856e-19)
(0.891259 1.99544 6.68774e-20)
(0.994159 2.00198 -6.67905e-20)
(0.972141 2.0258 0)
(0.36164 1.32334 -2.83101e-20)
(-0.816909 1.7876 1.13125e-19)
(-0.384192 0.254247 1.41637e-19)
(-0.402312 0.548557 -8.60362e-21)
(0.347539 0.370704 2.47474e-19)
(0.294415 0.353332 -4.47142e-19)
(0.250091 0.364225 3.55753e-19)
(0.225302 0.290342 -9.3796e-20)
(0.338314 0.218517 2.29537e-19)
(0.721336 0.287156 -1.804e-19)
(0.653204 0.318571 0)
(0.682094 0.271017 5.80187e-22)
(0.503045 0.481038 1.6986e-19)
(0.396311 0.51605 -6.135e-19)
(0.34741 0.424835 -9.22332e-21)
(0.424195 0.392859 0)
(0.44968 1.02171 2.34216e-19)
(0.741488 0.96513 2.70322e-19)
(0.607132 1.11443 -3.11355e-19)
(0.719669 0.961731 -1.18377e-19)
(0.919054 0.941887 -3.99263e-20)
(0.907301 1.07071 4.11357e-20)
(0.705998 0.670776 -4.31412e-19)
(0.777699 0.920274 1.10702e-19)
(0.949345 0.848451 0)
(0.870199 0.765586 -1.57001e-19)
(0.84739 0.271589 1.51484e-19)
(1.0224 0.378716 2.59463e-19)
(0.991487 0.253221 2.44961e-19)
(0.895147 0.414155 -2.9051e-19)
(1.03336 0.378761 0)
(1.03762 0.377136 0)
(0.751695 0.445312 -9.00117e-21)
(0.76856 0.243574 0)
(0.704592 0.252943 2.14535e-19)
(0.838131 0.279317 -3.02402e-21)
(0.865411 0.473429 1.2167e-18)
(0.755726 0.553719 3.19203e-19)
(0.774583 0.476364 -3.09989e-19)
(0.709313 0.411255 3.31563e-19)
(0.675816 0.518835 1.85029e-19)
(0.625069 0.41662 -1.79113e-19)
(1.00056 0.0727237 4.36498e-19)
(0.961661 -0.0568603 0)
(0.991698 -0.0113218 2.90325e-19)
(0.906838 0.07425 -6.53009e-19)
(1.02239 -0.0206266 3.13734e-19)
(0.978737 0.0356384 -6.62918e-19)
(1.03183 -0.0122189 0)
(0.992082 -0.0217588 -1.37884e-19)
(1.01755 0.0420817 3.44063e-19)
(0.982283 0.00867377 -1.76124e-19)
(0.950011 -0.0596228 1.29694e-19)
(-0.0310026 1.80219 0)
(0.15345 1.72709 0)
(0.0304226 1.78665 0)
(0.00499565 1.83273 0)
(0.0422986 1.79358 1.74514e-19)
(0.0616546 1.8115 -4.83905e-20)
(0.0733253 1.68685 -5.14395e-20)
(0.125568 1.70604 5.62611e-20)
(-0.0353385 1.73872 -1.3661e-19)
(0.0560121 1.70221 1.02575e-19)
(0.0260781 1.78767 5.61581e-21)
(0.0211249 1.77419 -1.19879e-19)
(-0.0128324 1.78017 -1.7435e-20)
(0.0969888 1.77442 -1.52726e-20)
(0.0287288 1.68994 -1.19345e-19)
(0.0683909 1.68941 0)
(0.0979376 1.71286 6.29748e-20)
(0.0417396 1.76109 4.42045e-20)
(0.140458 1.64679 -5.6152e-20)
(0.136139 1.61799 0)
(0.152448 1.57458 -2.45822e-19)
(0.157919 1.59578 1.75279e-19)
(0.170448 1.64892 -1.50343e-19)
(0.178613 1.65806 9.6427e-20)
(0.0456932 1.53789 0)
(0.0399898 1.67641 -1.05952e-19)
(-0.0114364 1.70849 -1.4625e-19)
(-0.00348253 1.68387 0)
(0.0285765 1.79784 1.4454e-21)
(0.027199 1.74938 5.28398e-20)
(0.00753256 1.79269 9.42024e-21)
(0.0409293 1.77346 -1.50734e-19)
(-0.00752759 1.77239 3.97813e-20)
(-0.0162807 1.66154 5.52952e-20)
(0.0427526 1.78198 0)
(-0.0544015 1.80634 0)
(0.00812293 1.77412 5.14645e-20)
(0.0341582 1.76576 -1.61081e-20)
(-0.0624368 1.78221 0)
(-0.0338727 1.75984 3.97186e-20)
(0.0564561 1.76281 -7.7852e-20)
(0.95423 0.120316 0)
(1.0444 0.0756592 -4.66866e-20)
(0.965634 0.0344435 -3.21252e-19)
(0.932409 0.0174319 0)
(0.948349 -0.0560977 0)
(1.01992 -0.0600958 -1.01519e-20)
(0.970913 -0.0738136 5.29684e-19)
(0.974318 -0.01474 6.48105e-19)
(0.983472 0.00288326 0)
(1.02248 -0.00476499 0)
(0.983701 -0.0117141 3.1785e-19)
(0.9738 0.0280998 0)
(0.968187 0.0583772 0)
(-0.0865287 1.78864 0)
(-0.0245539 1.67167 1.05594e-20)
(-0.0327248 1.70277 1.33473e-20)
(0.00856704 1.7888 0)
(0.110261 1.73804 3.21002e-20)
(0.0637174 1.77334 -1.10523e-20)
(0.029551 1.75567 0)
(0.434593 1.62606 0)
(0.376771 1.57929 -2.77413e-19)
(0.377668 1.57891 0)
(0.457063 1.75479 3.17844e-19)
(0.544643 1.77215 0)
(0.506596 1.80423 -1.29679e-19)
(0.567725 1.50302 -8.52215e-21)
(0.56854 1.42766 -4.53984e-19)
(0.59324 1.42103 5.57857e-19)
(0.46743 1.42022 1.03977e-19)
(0.501944 1.45704 0)
(0.570027 1.47346 0)
(0.621109 1.40802 0)
(0.495311 1.3896 -3.75434e-19)
(0.401965 1.51792 -2.36618e-19)
(0.380632 1.47787 -5.44657e-20)
(0.461225 1.52556 4.39122e-20)
(0.361425 1.46474 0)
(0.459653 1.44304 0)
(0.427702 1.41848 -1.0277e-19)
(0.405421 1.43247 0)
(0.505187 1.49589 0)
(0.537874 1.44052 -3.10186e-19)
(0.441372 1.28927 -2.04919e-20)
(0.694187 1.51422 0)
(0.619476 1.57498 4.85363e-19)
(0.664842 1.26277 -1.05657e-19)
(0.894357 1.20896 0)
(0.737549 1.10842 1.80147e-19)
(0.445693 1.45493 0)
(0.479151 1.25437 0)
(0.738091 1.49658 -2.07001e-19)
(0.704516 1.53411 -1.49904e-19)
(0.692637 1.51238 2.62691e-19)
(0.70888 1.51697 -8.0293e-20)
(0.721344 1.46854 0)
(0.691556 1.48668 1.05302e-19)
(0.749928 1.48984 -1.7534e-19)
(0.752585 1.43814 -3.17327e-21)
(0.592075 1.53472 0)
(0.599308 1.55782 -1.20345e-19)
(0.636963 1.5401 0)
(0.80789 0.172001 0)
(0.7952 0.180523 0)
(0.737858 0.208789 0)
(0.788566 0.255573 -3.38722e-19)
(0.756046 0.210287 1.89649e-19)
(0.944117 -0.0184482 -2.31197e-19)
(0.901717 0.0756095 0)
(0.865077 0.0541474 9.83911e-20)
(0.854823 0.125291 3.93189e-19)
(0.837803 0.0222525 -2.51527e-19)
(0.851256 2.28529 4.83527e-20)
(0.851434 2.13466 0)
(0.747803 2.35892 1.05582e-19)
(0.142767 2.45464 -9.08703e-20)
(0.341642 2.0474 -1.78757e-19)
(0.223556 1.47238 3.46482e-19)
(0.298241 1.5607 0)
(-0.183615 0.868912 -5.44003e-20)
(-0.00533765 1.048 4.27087e-19)
(-0.248116 0.535281 -8.04966e-20)
(0.109422 0.489682 8.73599e-20)
(0.404521 0.546454 2.16636e-19)
(0.535446 0.529354 0)
(0.234636 0.763167 0)
(0.154272 0.734928 0)
(0.876857 0.748986 1.21876e-19)
(0.799596 0.572821 -3.06738e-19)
(0.852793 0.639631 2.65185e-19)
(0.834817 0.496753 -2.45409e-19)
(0.992293 0.601013 0)
(0.942065 0.637167 -7.88435e-20)
(0.729256 0.3635 -4.37766e-19)
(0.715654 0.330173 -5.40303e-19)
(0.627334 0.4249 3.39569e-19)
(0.666567 0.37104 -3.19413e-19)
(0.739991 0.342114 -2.60419e-19)
(0.720667 0.342916 3.23172e-19)
(1.00279 0.00351798 -3.35048e-19)
(1.03141 0.0197235 6.9903e-19)
(1.01414 0.0628867 4.18522e-19)
(1.05435 -0.0553463 -5.06162e-19)
(0.892097 -0.00910334 0)
(0.880028 0.00628517 -8.38723e-19)
(0.0851853 1.69812 3.05107e-20)
(0.00147585 1.72006 0)
(0.101918 1.75418 2.01924e-19)
(0.0533923 1.73081 -1.81462e-19)
(0.0660182 1.73624 9.58544e-20)
(0.0899239 1.79638 0)
(0.0638416 1.79359 0)
(0.0407902 1.6989 -1.67203e-20)
(0.000432717 1.62187 1.49976e-20)
(0.0542158 1.62168 4.34823e-21)
(-0.132156 1.75636 -3.17189e-20)
(0.0482431 1.75172 1.68988e-20)
(0.543106 1.58905 -3.44464e-19)
(0.575123 1.59197 3.63912e-19)
(0.468725 1.70699 -1.74245e-19)
(0.565404 1.62105 1.64643e-20)
(0.64874 1.71424 0)
(0.601134 1.772 -1.27018e-19)
(0.563707 1.75243 1.24045e-19)
(0.565805 1.70627 1.68874e-19)
(0.609542 1.70545 0)
(0.646306 1.64477 0)
(0.508611 1.44876 3.60009e-19)
(0.29638 1.51129 4.89717e-19)
(0.298866 1.47346 -3.33277e-19)
(0.242647 1.53178 -5.84284e-20)
(0.34394 1.51709 1.19347e-19)
(0.243601 1.43496 -2.83334e-19)
(0.60461 1.43844 -3.13685e-19)
(0.712066 1.44102 0)
(0.622547 1.41499 -3.52063e-19)
(0.686086 1.46105 0)
(0.694729 1.49421 0)
(0.450564 1.84096 -2.14391e-19)
(0.527787 2.01585 -1.74126e-19)
(0.417006 2.05608 2.01262e-19)
(-0.54467 1.53436 0)
(-0.379597 1.48172 -1.59353e-19)
(0.0931451 1.60474 -2.16861e-19)
(0.303887 1.79075 0)
(0.0470031 2.1022 1.27464e-19)
(-0.27169 2.15121 0)
(0.45484 0.910512 -4.93816e-19)
(0.604277 0.942783 6.60949e-19)
(0.656244 0.724611 -6.47237e-19)
(0.330327 0.748911 -5.89375e-20)
(0.42958 0.701877 -2.36582e-19)
(0.592086 1.77074 1.30559e-19)
(0.644808 1.70039 -2.76352e-19)
(0.486255 1.8122 3.82369e-19)
(0.491009 1.70856 -2.49146e-19)
(0.621333 1.59813 -3.52817e-19)
(0.653498 1.69468 -2.62844e-20)
(0.658846 1.65232 2.78257e-19)
(0.536923 1.68003 2.01962e-20)
(0.552795 1.57489 1.51195e-19)
)
;

boundaryField
{
    wall-4
    {
        type            noSlip;
    }
    velocity-inlet-5
    {
        type            fixedValue;
        value           uniform (1 0 0);
    }
    velocity-inlet-6
    {
        type            fixedValue;
        value           uniform (0 3 0);
    }
    pressure-outlet-7
    {
        type            zeroGradient;
    }
    wall-8
    {
        type            noSlip;
    }
    frontAndBackPlanes
    {
        type            empty;
    }
}


// ************************************************************************* //
