/*--------------------------------*- C++ -*----------------------------------*\
| =========                 |                                                 |
| \\      /  F ield         | OpenFOAM: The Open Source CFD Toolbox           |
|  \\    /   O peration     | Version:  2212                                  |
|   \\  /    A nd           | Website:  www.openfoam.com                      |
|    \\/     M anipulation  |                                                 |
\*---------------------------------------------------------------------------*/
FoamFile
{
    version     2.0;
    format      ascii;
    arch        "LSB;label=32;scalar=64";
    class       volScalarField;
    location    "0.02";
    object      k;
}
// * * * * * * * * * * * * * * * * * * * * * * * * * * * * * * * * * * * * * //

dimensions      [0 2 -2 0 0 0 0];

internalField   nonuniform List<scalar> 
3072
(
2.92323
4.02041
4.54456
4.51376
4.31692
3.9612
3.75673
4.6352
13.1994
23.415
27.4955
29.4993
5.99704
9.43575
9.80696
9.3011
9.14254
8.89046
13.4268
19.9888
22.6178
32.5125
39.2454
47.0333
7.90705
13.1086
14.9253
15.9302
20.1436
22.4106
22.4766
27.5724
35.9338
45.8878
53.7978
60.9979
10.2631
18.8516
20.6019
20.6437
22.8039
23.8415
27.6643
37.4646
47.0236
55.6585
62.6196
68.5454
11.8107
22.2292
23.9103
23.1384
24.0933
27.3305
36.0675
46.4873
55.2091
62.4227
68.2688
73.1868
12.9235
24.3716
25.6462
24.9808
27.3726
34.5742
44.5514
53.688
61.0222
66.863
71.6634
75.7427
13.5563
25.5837
27.7049
28.782
34.1856
43.0636
51.9551
59.4641
65.4088
70.1121
74.0191
77.4027
14.5084
28.3061
32.5242
37.3144
45.2411
53.2092
60.1883
65.7881
70.1978
73.6992
76.6553
79.3155
15.8128
33.7213
43.3986
53.4692
62.5672
68.8409
73.0975
75.9734
78.0781
79.7601
81.3031
82.9035
18.3185
42.869
62.7078
77.6796
87.2809
91.4635
92.4567
91.8662
90.8142
89.8648
89.3039
89.3243
21.0037
56.5251
91.4045
110.541
118.645
119.808
117.13
112.675
108.049
103.988
100.814
98.6566
53.1628
93.3501
130.821
146.507
149.425
147.502
141.352
133.911
126.437
119.731
114.182
109.938
31.0816
31.8631
32.3206
32.383
32.4163
31.3976
29.94
27.4885
24.3092
20.3704
15.1646
11.5944
53.8716
59.5589
63.4756
65.3463
65.355
64.6119
63.246
60.7955
56.2042
46.2898
33.2721
27.667
66.7887
70.9569
73.6118
74.9814
75.6022
75.8842
75.8872
75.2993
73.2154
67.2262
50.5583
39.8682
73.2659
76.8854
79.5465
81.428
82.8616
84.1785
85.623
87.0489
87.4655
84.9209
71.4553
49.419
77.1635
80.3588
82.9218
85.053
87.0645
89.3065
92.0972
95.4234
98.3263
98.7281
89.5164
58.082
79.1684
82.0977
84.6836
87.1352
89.765
92.9576
97.0752
102.218
107.861
111.359
107.208
66.4641
80.3854
83.1172
85.7584
88.5238
91.7263
95.7733
101.094
107.929
115.9
122.668
123.231
74.9549
81.8204
84.3078
86.9419
89.9371
93.5954
98.3361
104.664
113.009
123.249
133.036
137.048
84.6535
84.6664
86.688
89.1267
92.183
96.1167
101.313
108.317
117.817
130.141
143.062
149.46
95.882
89.9345
91.1689
93.1746
96.0915
100.097
105.473
112.679
122.675
136.49
152.754
163.069
107.854
97.8311
98.4014
99.7866
102.254
106.135
111.398
118.219
127.728
141.66
160.889
178.579
121.722
107.546
107.58
108.729
110.842
114.242
118.996
124.743
132.649
144.285
164.637
192.668
139.112
2.92348
4.02076
4.54501
4.51422
4.31737
3.96159
3.75714
4.63576
13.2011
23.4164
27.4967
29.5004
5.99757
9.43659
9.80796
9.3021
9.14348
8.89148
13.428
19.99
22.6194
32.5141
39.2474
47.0353
7.90774
13.1099
14.9269
15.932
20.1458
22.4122
22.4776
27.574
35.936
45.8899
53.8002
61.0003
10.2639
18.8533
20.604
20.6458
22.8061
23.8431
27.6657
37.4666
47.026
55.6609
62.6221
68.5479
11.8114
22.2311
23.9127
23.1407
24.0952
27.3319
36.0691
46.4894
55.2116
62.4252
68.2713
73.1894
12.9242
24.3734
25.6484
24.9828
27.3741
34.5753
44.5532
53.6902
61.0246
66.8655
71.666
75.7453
13.557
25.5852
27.7066
28.7833
34.1863
43.0647
51.9568
59.4663
65.4112
70.1145
74.0216
77.4052
14.5091
28.3073
32.5254
37.3148
45.2418
53.2103
60.1899
65.7901
70.1999
73.7015
76.6576
79.3178
15.8136
33.7229
43.4003
53.4711
62.5692
68.8428
73.0994
75.9754
78.0801
79.7622
81.3053
82.9056
18.3197
42.8718
62.7116
77.6838
87.2848
91.4669
92.4596
91.8687
90.8165
89.867
89.306
89.3263
21.005
56.5288
91.4099
110.547
118.651
119.814
117.134
112.678
108.051
103.991
100.816
98.6587
53.1647
93.3546
130.827
146.513
149.431
147.508
141.357
133.916
126.44
119.734
114.185
109.941
31.0827
31.8642
32.3216
32.384
32.4173
31.3985
29.9408
27.4892
24.3097
20.3709
15.165
11.5948
53.8739
59.5611
63.4777
65.3482
65.3567
64.6135
63.2474
60.7968
56.2055
46.2908
33.2728
27.6677
66.791
70.9591
73.6138
74.9832
75.6039
75.8857
75.8886
75.3005
73.2166
67.2273
50.5591
39.8688
73.2683
76.8877
79.5486
81.4299
82.8633
84.1799
85.6242
87.05
87.4665
84.9219
71.4562
49.4197
77.1659
80.3611
82.9238
85.0548
87.0661
89.3079
92.0983
95.4243
98.3273
98.729
89.5173
58.0827
79.1708
82.0999
84.6857
87.1371
89.7666
92.9589
97.0763
102.219
107.861
111.36
107.209
66.4647
80.3878
83.1195
85.7604
88.5256
91.7278
95.7746
101.095
107.93
115.901
122.669
123.231
74.9556
81.8227
84.3099
86.9438
89.9387
93.5968
98.3372
104.665
113.01
123.25
133.036
137.049
84.6541
84.6684
86.6899
89.1284
92.1846
96.118
101.314
108.318
117.818
130.142
143.062
149.461
95.8826
89.9364
91.1707
93.1762
96.0929
100.098
105.473
112.68
122.675
136.49
152.755
163.07
107.854
97.8329
98.403
99.7881
102.255
106.135
111.398
118.219
127.727
141.659
160.889
178.579
121.722
107.548
107.582
108.73
110.843
114.243
118.997
124.743
132.648
144.283
164.636
192.668
139.112
2.92323
4.02044
4.54466
4.51389
4.31706
3.96132
3.75687
4.63528
13.1991
23.4147
27.495
29.4986
5.99698
9.43587
9.80722
9.30145
9.1428
8.8909
13.4275
19.9887
22.617
32.5117
39.2442
47.0318
7.90683
13.1087
14.9256
15.9305
20.1445
22.4119
22.4771
27.5712
35.9324
45.886
53.7958
60.9957
10.2627
18.8515
20.6022
20.6444
22.8053
23.8419
27.6628
37.4622
47.0213
55.6561
62.6169
68.5425
11.8102
22.229
23.9108
23.1393
24.0938
27.3291
36.0641
46.4842
55.2062
62.4198
68.2657
73.1836
12.923
24.3711
25.6461
24.9805
27.3711
34.5699
44.5476
53.6847
61.019
66.8598
71.6602
75.7393
13.556
25.583
27.7038
28.7796
34.1809
43.059
51.9512
59.4606
65.4055
70.1088
74.0158
77.3992
14.5084
28.3054
32.5221
37.31
45.2366
53.2049
60.1845
65.7846
70.1943
73.6958
76.6518
79.3119
15.8132
33.7221
43.3981
53.4684
62.5659
68.8389
73.095
75.9706
78.0751
79.7569
81.2997
82.8999
18.3199
42.872
62.7113
77.6833
87.2838
91.4652
92.457
91.8654
90.8125
89.8625
89.3011
89.3211
21.0054
56.5294
91.4109
110.549
118.652
119.814
117.133
112.677
108.049
103.987
100.812
98.6543
53.1643
93.3547
130.828
146.515
149.433
147.51
141.358
133.915
126.439
119.732
114.182
109.937
31.0809
31.8624
32.3198
32.3823
32.4156
31.397
29.9395
27.488
24.3087
20.3702
15.1645
11.5943
53.8699
59.5571
63.4736
65.3442
65.3528
64.6097
63.244
60.7936
56.2027
46.2887
33.2715
27.6668
66.7861
70.9542
73.6088
74.9783
75.599
75.881
75.8841
75.2964
73.2128
67.224
50.5568
39.8674
73.2628
76.8821
79.543
81.4243
82.8577
84.1745
85.6189
87.045
87.4618
84.9177
71.4531
49.4179
77.1601
80.3551
82.9178
85.0487
87.06
89.3018
92.0923
95.4185
98.3218
98.724
89.5133
58.0805
79.1647
82.0937
84.6793
87.1306
89.7601
92.9524
97.0697
102.213
107.855
111.354
107.204
66.4622
80.3816
83.1132
85.754
88.5189
91.721
95.7677
101.088
107.923
115.894
122.662
123.226
74.9527
81.8166
84.3036
86.9374
89.932
93.5899
98.3301
104.657
113.002
123.243
133.029
137.043
84.6508
84.6625
86.6838
89.1221
92.178
96.1111
101.307
108.31
117.81
130.134
143.055
149.454
95.8789
89.9309
91.1649
93.1701
96.0865
100.091
105.466
112.672
122.667
136.482
152.747
163.063
107.85
97.8279
98.3978
99.7826
102.25
106.129
111.391
118.212
127.72
141.652
160.881
178.572
121.718
107.543
107.577
108.725
110.837
114.237
118.99
124.737
132.641
144.276
164.628
192.66
139.107
2.92351
4.02074
4.54481
4.51394
4.31709
3.96131
3.7569
4.63556
13.2011
23.4153
27.4951
29.4987
5.99765
9.43631
9.80729
9.30123
9.1428
8.89084
13.4271
19.9891
22.6191
32.5126
39.2457
47.0329
7.90797
13.1094
14.9261
15.9311
20.1444
22.4096
22.4752
27.5734
35.9351
45.888
53.798
60.9974
10.2642
18.8529
20.6027
20.644
22.8033
23.8411
27.6653
37.4668
47.0251
55.6591
62.6197
68.5449
11.8117
22.2306
23.9109
23.1384
24.0932
27.3316
36.0706
46.4898
55.2108
62.4234
68.2689
73.1864
12.9241
24.3729
25.6471
24.9814
27.3741
34.5781
44.5549
53.6904
61.0237
66.8637
71.6636
75.7424
13.5565
25.5844
27.7061
28.7839
34.1895
43.0673
51.958
59.4662
65.4101
70.1128
74.0194
77.4025
14.5079
28.3056
32.5246
37.3162
45.2431
53.2112
60.1901
65.7895
70.1987
73.6998
76.6555
79.3154
15.8114
33.7181
43.396
53.4666
62.5651
68.8395
73.0968
75.9732
78.0781
79.7602
81.3031
82.9033
18.3158
42.8642
62.7026
77.6738
87.2752
91.4587
92.4531
91.8638
90.8127
89.8639
89.3033
89.3238
21.0011
56.5203
91.3987
110.534
118.638
119.802
117.124
112.67
108.045
103.986
100.813
98.6553
53.1609
93.3472
130.817
146.501
149.419
147.496
141.346
133.906
126.433
119.728
114.179
109.936
31.0808
31.8622
32.3196
32.382
32.4153
31.3965
29.939
27.4875
24.3083
20.3697
15.164
11.5938
53.8711
59.5579
63.4741
65.3444
65.3529
64.6096
63.2437
60.7932
56.202
46.2881
33.2708
27.6659
66.7877
70.9555
73.6099
74.9792
75.5997
75.8814
75.8844
75.2964
73.2126
67.2235
50.5563
39.8668
73.265
76.884
79.5447
81.4258
82.859
84.1756
85.6199
87.0457
87.4622
84.9177
71.4526
49.4173
77.1626
80.3575
82.92
85.0507
87.0619
89.3036
92.0939
95.4198
98.3227
98.7244
89.5131
58.08
79.1676
82.0964
84.6819
87.1332
89.7625
92.9547
97.0719
102.215
107.857
111.355
107.204
66.4618
80.3848
83.1162
85.757
88.5219
91.7239
95.7705
101.091
107.925
115.896
122.664
123.226
74.9524
81.82
84.307
86.9407
89.9354
93.5932
98.3333
104.66
113.005
123.245
133.031
137.044
84.6507
84.666
86.6872
89.1256
92.1815
96.1146
101.31
108.313
117.813
130.137
143.057
149.455
95.8789
89.9338
91.168
93.1734
96.0899
100.095
105.47
112.676
122.671
136.486
152.749
163.064
107.85
97.8298
98.4
99.7849
102.252
106.132
111.394
118.215
127.723
141.655
160.884
178.573
121.718
107.544
107.578
108.726
110.839
114.239
118.993
124.739
132.644
144.279
164.631
192.662
139.107
164.053
161.682
162.352
163.376
162.726
159.974
154.341
147.279
139.611
132.276
125.82
120.55
162.465
156.549
154.08
154.021
154.408
153.803
151.9
148.166
143.159
137.797
132.582
128.064
149.174
145.677
142.799
141.548
141.523
141.86
141.878
141.142
139.742
137.24
134.51
132.18
136.032
134.618
133.106
131.864
131.571
131.964
132.692
133.364
133.856
133.861
133.588
133.445
117.546
117.529
118.67
120.605
123.448
127.003
130.762
135.797
143.836
159.826
189.932
182.238
126.173
126.726
127.915
129.448
130.893
132.05
133.443
135.868
139.995
148.771
169.443
169.445
132.35
133.176
133.767
133.645
132.985
131.99
131.19
131.317
132.824
136.861
148.573
151.533
134.534
134.091
132.446
130.183
127.477
125.495
124.309
124.263
125.369
127.554
133.604
136.779
164.056
161.687
162.358
163.382
162.733
159.98
154.347
147.284
139.615
132.28
125.823
120.553
162.468
156.556
154.087
154.028
154.416
153.81
151.907
148.172
143.164
137.802
132.586
128.067
149.18
145.687
142.809
141.557
141.532
141.868
141.885
141.148
139.748
137.245
134.514
132.183
136.04
134.629
133.118
131.874
131.58
131.972
132.699
133.37
133.861
133.863
133.591
133.447
117.548
117.531
118.671
120.606
123.449
127.003
130.761
135.796
143.834
159.824
189.931
182.237
126.175
126.727
127.916
129.448
130.893
132.05
133.442
135.866
139.992
148.768
169.44
169.443
132.352
133.178
133.768
133.644
132.984
131.989
131.188
131.314
132.821
136.857
148.569
151.528
134.535
134.091
132.445
130.181
127.474
125.492
124.306
124.259
125.365
127.549
133.599
136.773
164.055
161.686
162.358
163.382
162.733
159.981
154.347
147.284
139.614
132.278
125.82
120.549
162.466
156.553
154.084
154.026
154.414
153.808
151.905
148.171
143.162
137.8
132.583
128.064
149.176
145.683
142.805
141.553
141.528
141.864
141.882
141.145
139.744
137.242
134.51
132.179
136.035
134.624
133.113
131.869
131.575
131.967
132.694
133.366
133.857
133.859
133.587
133.443
117.545
117.527
118.667
120.601
123.443
126.998
130.756
135.79
143.828
159.817
189.924
182.231
126.171
126.723
127.912
129.444
130.889
132.045
133.437
135.861
139.987
148.762
169.434
169.437
132.348
133.174
133.764
133.64
132.98
131.984
131.184
131.31
132.816
136.852
148.563
151.523
134.531
134.087
132.442
130.177
127.471
125.488
124.302
124.255
125.361
127.545
133.594
136.768
164.051
161.68
162.351
163.374
162.723
159.969
154.336
147.274
139.606
132.272
125.816
120.547
162.46
156.549
154.079
154.02
154.406
153.799
151.896
148.162
143.154
137.793
132.578
128.06
149.171
145.678
142.8
141.548
141.523
141.858
141.875
141.138
139.737
137.235
134.505
132.175
136.03
134.62
133.109
131.865
131.57
131.962
132.688
133.36
133.851
133.853
133.582
133.439
117.543
117.525
118.666
120.601
123.444
126.999
130.757
135.792
143.831
159.82
189.926
182.232
126.168
126.721
127.91
129.442
130.888
132.045
133.438
135.863
139.989
148.765
169.437
169.438
132.344
133.171
133.762
133.639
132.98
131.985
131.185
131.311
132.818
136.855
148.567
151.524
134.528
134.085
132.44
130.177
127.471
125.49
124.304
124.258
125.364
127.548
133.597
136.77
125.772
125.209
124.969
125.194
125.865
126.593
127.204
127.516
127.366
126.645
125.738
125.085
119.664
119.854
120.269
120.835
121.324
121.417
120.637
118.898
116.156
112.852
109.879
108.641
114.263
114.577
114.865
114.991
114.502
113.072
110.5
106.799
102.198
97.5696
94.11
93.743
106.976
106.934
106.427
105.396
103.401
100.338
96.1639
91.135
85.7875
81.1823
78.667
78.5024
125.159
122.309
119.018
118.107
117.489
118.049
119.086
120.622
122.497
124.71
126.55
127.043
109.627
109.461
108.181
109.479
110.989
113.116
115.191
117.231
118.993
120.197
120.901
120.575
97.6056
100.12
100
102.831
105.478
108.323
110.825
112.781
114.11
114.919
115.193
114.661
85.1034
92.1814
92.8533
96.1657
99.2284
102.202
104.507
106.203
107.349
107.95
107.977
107.345
125.784
125.217
124.978
125.201
125.871
126.597
127.208
127.519
127.367
126.646
125.738
125.083
119.67
119.86
120.274
120.839
121.327
121.42
120.638
118.898
116.155
112.851
109.876
108.637
114.267
114.581
114.868
114.994
114.504
113.073
110.5
106.798
102.196
97.5663
94.1058
93.7384
106.978
106.937
106.429
105.397
103.401
100.338
96.1625
91.1327
85.7843
81.1784
78.6625
78.4977
125.156
122.305
119.014
118.103
117.484
118.044
119.081
120.616
122.491
124.704
126.544
127.037
109.622
109.456
108.176
109.473
110.984
113.11
115.185
117.225
118.987
120.191
120.895
120.569
97.6001
100.114
99.9947
102.825
105.472
108.317
110.819
112.775
114.105
114.913
115.187
114.655
85.098
92.1756
92.8476
96.16
99.2227
102.197
104.501
106.198
107.344
107.945
107.972
107.34
125.778
125.212
124.972
125.195
125.866
126.592
127.203
127.515
127.363
126.642
125.734
125.08
119.665
119.854
120.269
120.835
121.323
121.416
120.635
118.895
116.152
112.848
109.874
108.634
114.262
114.576
114.863
114.99
114.5
113.069
110.497
106.795
102.193
97.5641
94.1037
93.7362
106.974
106.933
106.425
105.394
103.398
100.335
96.1605
91.131
85.7828
81.177
78.6612
78.4964
125.153
122.302
119.011
118.099
117.481
118.041
119.077
120.613
122.488
124.7
126.54
127.033
109.62
109.453
108.173
109.47
110.981
113.108
115.182
117.222
118.984
120.187
120.892
120.566
97.5979
100.112
99.9925
102.823
105.47
108.315
110.816
112.772
114.102
114.91
115.185
114.653
85.0964
92.174
92.846
96.1583
99.221
102.195
104.499
106.196
107.342
107.943
107.97
107.338
125.774
125.208
124.968
125.192
125.861
126.588
127.199
127.511
127.36
126.639
125.732
125.079
119.661
119.851
120.265
120.831
121.319
121.412
120.631
118.892
116.15
112.847
109.874
108.636
114.259
114.573
114.861
114.987
114.497
113.067
110.495
106.794
102.193
97.5652
94.1059
93.739
106.972
106.931
106.423
105.392
103.396
100.334
96.16
91.1313
85.7841
81.1793
78.6643
78.4997
125.153
122.303
119.013
118.102
117.484
118.044
119.081
120.616
122.491
124.703
126.542
127.033
109.622
109.456
108.177
109.474
110.985
113.112
115.186
117.226
118.988
120.191
120.895
120.568
97.6016
100.116
99.9967
102.827
105.474
108.32
110.821
112.777
114.106
114.914
115.189
114.657
85.1003
92.1782
92.8503
96.1628
99.2255
102.199
104.504
106.2
107.346
107.947
107.974
107.343
96.4841
95.4407
93.568
90.8856
86.9796
81.848
75.4139
67.7979
59.0687
49.0211
37.1201
27.5065
82.2476
79.7286
76.0771
71.3255
65.0542
57.2088
47.5262
35.9293
22.4923
11.234
5.57366
4.2421
64.6361
60.4004
54.816
47.8943
39.2868
29.0773
17.2711
6.94944
2.04764
0.811216
0.697193
0.695057
44.7878
38.9501
31.7779
23.3605
13.7361
5.3266
1.22095
0.316815
0.294005
0.246923
0.260489
0.256483
24.5537
17.7847
10.375
4.08339
0.944483
0.285514
0.237471
0.237562
0.237622
0.236849
0.237132
0.236226
7.02881
2.76749
0.74496
0.249985
0.250498
0.233983
0.235688
0.236294
0.236916
0.23788
0.23872
0.239587
0.560683
0.224413
0.243804
0.232889
0.233682
0.234846
0.235421
0.236518
0.237034
0.238226
0.238937
0.239686
0.237483
0.231176
0.231983
0.233019
0.233606
0.23472
0.235346
0.236587
0.237254
0.238627
0.239481
0.240274
0.229355
0.230161
0.230985
0.231857
0.23279
0.233749
0.234746
0.235753
0.236798
0.237836
0.238875
0.239787
0.221744
0.222617
0.223502
0.224445
0.22539
0.226397
0.227418
0.228501
0.2296
0.230759
0.231962
0.23321
0.193238
0.194377
0.19552
0.196608
0.197741
0.198894
0.200102
0.201365
0.202692
0.204061
0.205453
0.206725
0.111371
0.110067
0.110323
0.109482
0.109663
0.109177
0.109351
0.109279
0.10948
0.10972
0.110178
0.110732
66.6819
83.1217
85.3313
88.5216
91.5281
94.0418
95.9803
97.4254
98.3621
98.6748
98.2794
97.367
57.879
73.0187
76.7625
79.5776
81.9781
83.9415
85.4767
86.57
87.0564
86.8024
85.728
84.1615
51.5783
63.553
66.9906
69.2199
70.9431
72.3935
73.3902
73.8462
73.6066
72.418
70.4906
67.92
45.7055
53.8073
56.3273
57.9729
59.1098
59.8247
60.0745
59.6078
58.3223
56.1569
53.2359
49.4924
39.7263
43.8582
45.4488
46.3913
46.7895
46.6329
45.8647
44.3302
42.0684
38.9512
35.0738
30.2918
33.2592
34.0746
34.7362
34.7867
34.3138
33.0983
31.4122
28.9407
25.925
22.0674
17.5551
12.3398
26.843
24.1004
24.472
23.1829
22.1583
19.9926
17.7213
14.5361
11.2335
7.42825
4.15464
1.55667
20.1948
14.6376
14.8231
12.2206
11.1749
8.26037
6.34839
3.65275
2.08011
0.689028
0.434843
0.216691
12.8766
6.03166
6.33222
3.65404
3.30095
1.31563
1.04266
0.330874
0.32484
0.221367
0.232051
0.22856
6.90726
1.24061
1.37972
0.505105
0.507778
0.22811
0.247419
0.215501
0.220277
0.219131
0.220236
0.220968
2.8535
0.210026
0.258642
0.177196
0.189867
0.181224
0.186098
0.187095
0.18828
0.189497
0.190763
0.191998
2.21116
0.145395
0.143252
0.128045
0.127643
0.11917
0.120357
0.114837
0.115814
0.112408
0.113049
0.110958
96.4853
95.4421
93.5688
90.8857
86.9791
81.8467
75.4119
67.7952
59.0656
49.0178
37.1171
27.5039
82.248
79.729
76.0772
71.325
65.0531
57.2072
47.5242
35.927
22.49
11.2321
5.57242
4.2408
64.6358
60.4002
54.8156
47.8935
39.2857
29.0759
17.2695
6.94809
2.04703
0.810773
0.696818
0.694557
44.7871
38.9496
31.7774
23.3597
13.7352
5.32582
1.22075
0.316779
0.294007
0.246953
0.260512
0.256516
24.5528
17.7841
10.3744
4.0828
0.944645
0.285283
0.237552
0.237547
0.237623
0.236848
0.237132
0.236226
7.02794
2.76767
0.744984
0.249486
0.250495
0.233986
0.235685
0.236293
0.236915
0.237877
0.238719
0.239586
0.560376
0.224377
0.243807
0.232905
0.233681
0.234846
0.235421
0.236518
0.237033
0.238225
0.238937
0.239686
0.237475
0.231174
0.231982
0.233016
0.233603
0.234717
0.235343
0.236584
0.237251
0.238624
0.239477
0.240271
0.229354
0.230159
0.230983
0.231856
0.232788
0.233748
0.234745
0.235751
0.236796
0.237834
0.238874
0.239785
0.221743
0.222616
0.223501
0.224444
0.225389
0.226397
0.227417
0.228501
0.2296
0.230758
0.231961
0.23321
0.193239
0.194378
0.195521
0.196608
0.197741
0.198894
0.200103
0.201365
0.202692
0.204062
0.205454
0.206725
0.111371
0.110067
0.110323
0.109482
0.109662
0.109177
0.109351
0.109279
0.10948
0.10972
0.110178
0.110732
66.6776
83.1163
85.3259
88.5163
91.5229
94.0367
95.9754
97.4205
98.3574
98.6703
98.2753
97.3633
57.8752
73.0139
76.7577
79.5728
81.9735
83.937
85.4723
86.5658
87.0524
86.7988
85.7249
84.1588
51.5749
63.5488
66.9864
69.2157
70.939
72.3896
73.3865
73.8427
73.6035
72.4153
70.4882
67.918
45.7025
53.8036
56.3237
57.9692
59.1063
59.8214
60.0714
59.6051
58.3199
56.1548
53.2342
49.491
39.7236
43.8551
45.4456
46.3882
46.7865
46.6302
45.8623
44.3281
42.0666
38.9497
35.0725
30.2908
33.2568
34.072
34.7336
34.7841
34.3114
33.0962
31.4104
28.9391
25.9237
22.0662
17.5542
12.3391
26.8409
24.0982
24.4698
23.1809
22.1565
19.991
17.7199
14.5349
11.2326
7.42753
4.1542
1.55647
20.193
14.6359
14.8215
12.219
11.1735
8.25924
6.34754
3.65216
2.07981
0.688909
0.434821
0.216691
12.8752
6.03055
6.3311
3.65328
3.30028
1.31533
1.04247
0.330836
0.324824
0.221369
0.232051
0.22856
6.90635
1.2403
1.37938
0.504991
0.507678
0.228102
0.24741
0.215502
0.220278
0.219132
0.220237
0.220969
2.8531
0.210008
0.258613
0.177196
0.189865
0.181226
0.186099
0.187096
0.188281
0.189498
0.190765
0.191999
2.21085
0.145392
0.143247
0.128042
0.127641
0.119169
0.120356
0.114836
0.115813
0.112407
0.113049
0.110958
96.482
95.4392
93.5664
90.8836
86.9774
81.8453
75.4108
67.7944
59.0649
49.0173
37.1166
27.5036
82.2455
79.727
76.0755
71.3236
65.0521
57.2065
47.5237
35.9267
22.4899
11.2322
5.57267
4.2411
64.6341
60.3989
54.8146
47.8927
39.2851
29.0755
17.2693
6.94812
2.04719
0.81096
0.696999
0.69478
44.786
38.9487
31.7767
23.3592
13.7349
5.32569
1.22073
0.316798
0.294023
0.246956
0.260521
0.256526
24.552
17.7835
10.3739
4.08259
0.944589
0.285294
0.237551
0.237546
0.237624
0.236849
0.237134
0.236228
7.02746
2.76743
0.744922
0.249482
0.250493
0.233986
0.235685
0.236293
0.236916
0.237878
0.23872
0.239586
0.560347
0.224373
0.243805
0.232905
0.233681
0.234846
0.235421
0.236518
0.237033
0.238225
0.238937
0.239686
0.237474
0.231175
0.231982
0.233017
0.233603
0.234718
0.235344
0.236585
0.237252
0.238625
0.239479
0.240272
0.229354
0.23016
0.230984
0.231856
0.232789
0.233749
0.234746
0.235752
0.236797
0.237835
0.238875
0.239786
0.221744
0.222617
0.223502
0.224445
0.22539
0.226398
0.227418
0.228502
0.229601
0.230759
0.231962
0.233211
0.19324
0.194379
0.195522
0.19661
0.197743
0.198896
0.200104
0.201367
0.202694
0.204063
0.205455
0.206727
0.11137
0.110067
0.110323
0.109482
0.109662
0.109177
0.109351
0.109279
0.10948
0.109721
0.110179
0.110732
66.6768
83.1152
85.3248
88.5151
91.5217
94.0356
95.9742
97.4193
98.3561
98.669
98.2739
97.3619
57.8748
73.0132
76.757
79.5721
81.9728
83.9362
85.4715
86.565
87.0516
86.7979
85.7239
84.1577
51.5747
63.5485
66.986
69.2153
70.9386
72.3891
73.3861
73.8422
73.603
72.4147
70.4876
67.9174
45.7025
53.8036
56.3236
57.9691
59.1061
59.8212
60.0712
59.6049
58.3196
56.1545
53.2339
49.4906
39.7239
43.8553
45.4457
46.3883
46.7866
46.6301
45.8622
44.328
42.0665
38.9495
35.0724
30.2906
33.2572
34.0724
34.7338
34.7843
34.3115
33.0962
31.4104
28.9391
25.9236
22.0662
17.5541
12.339
26.8414
24.0987
24.4702
23.1811
22.1566
19.9911
17.7199
14.5349
11.2326
7.42752
4.15422
1.55648
20.1936
14.6363
14.8218
12.2193
11.1737
8.25933
6.3476
3.65217
2.07982
0.688906
0.434837
0.216694
12.8758
6.03089
6.3314
3.65344
3.30041
1.31537
1.04249
0.330841
0.324827
0.221372
0.232053
0.228562
6.90693
1.24041
1.3795
0.505026
0.507706
0.228105
0.247413
0.215503
0.220279
0.219133
0.220238
0.22097
2.85339
0.210021
0.258629
0.177196
0.189866
0.181225
0.186099
0.187095
0.188281
0.189497
0.190764
0.191999
2.2113
0.145398
0.143254
0.128046
0.127644
0.119171
0.120358
0.114838
0.115815
0.112408
0.11305
0.110958
96.4805
95.4376
93.5648
90.8823
86.9764
81.8449
75.411
67.7953
59.0665
49.0193
37.1188
27.5054
82.2445
79.726
76.0746
71.3229
65.0517
57.2065
47.5242
35.9276
22.4912
11.2337
5.57389
4.24233
64.6335
60.3983
54.8141
47.8924
39.2851
29.0758
17.2699
6.94901
2.04788
0.811536
0.697513
0.695406
44.7856
38.9484
31.7765
23.3591
13.7351
5.32597
1.22092
0.316955
0.294068
0.247027
0.260599
0.256619
24.5518
17.7834
10.3739
4.08267
0.944663
0.285289
0.237538
0.237571
0.23763
0.236852
0.237139
0.236231
7.02746
2.76746
0.744935
0.249491
0.250498
0.233989
0.235688
0.236295
0.236919
0.237879
0.238722
0.239588
0.560365
0.224377
0.243809
0.232907
0.233683
0.234848
0.235423
0.23652
0.237035
0.238227
0.238939
0.239687
0.237477
0.231177
0.231984
0.233019
0.233605
0.23472
0.235346
0.236587
0.237253
0.238627
0.23948
0.240274
0.229356
0.230161
0.230985
0.231858
0.23279
0.23375
0.234747
0.235753
0.236798
0.237836
0.238876
0.239787
0.221745
0.222618
0.223503
0.224445
0.225391
0.226398
0.227419
0.228502
0.229601
0.23076
0.231963
0.233211
0.193239
0.194379
0.195521
0.196609
0.197742
0.198895
0.200103
0.201366
0.202693
0.204062
0.205454
0.206726
0.111371
0.110067
0.110323
0.109482
0.109663
0.109177
0.109351
0.109279
0.10948
0.10972
0.110178
0.110732
66.6799
83.1191
85.3287
88.5192
91.5258
94.0395
95.9781
97.4231
98.3599
98.6728
98.278
97.3664
57.8774
73.0165
76.7604
79.5756
81.9762
83.9396
85.4749
86.5683
87.0548
86.8011
85.7272
84.1612
51.5769
63.5512
66.9888
69.2182
70.9415
72.3919
73.3888
73.8449
73.6056
72.4172
70.49
67.9197
45.7044
53.8058
56.3258
57.9714
59.1084
59.8234
60.0733
59.6069
58.3216
56.1564
53.2356
49.4921
39.7255
43.8571
45.4476
46.3901
46.7883
46.6319
45.8639
44.3296
42.068
38.951
35.0736
30.2916
33.2586
34.0739
34.7354
34.7858
34.3129
33.0976
31.4117
28.9403
25.9248
22.0672
17.555
12.3398
26.8428
24.1001
24.4716
23.1824
22.1579
19.9923
17.721
14.5359
11.2333
7.42805
4.15461
1.55685
20.1949
14.6376
14.8231
12.2206
11.175
8.26045
6.34842
3.65267
2.07999
0.689034
0.434958
0.216741
12.8771
6.03202
6.33253
3.65431
3.30121
1.31574
1.04271
0.33091
0.324882
0.221436
0.232119
0.22863
6.90779
1.24077
1.37989
0.505167
0.50783
0.228122
0.247441
0.215548
0.220334
0.219221
0.220317
0.221053
2.85378
0.210039
0.258657
0.177193
0.189869
0.18124
0.18612
0.187132
0.188332
0.189561
0.190835
0.192074
2.21164
0.145401
0.143257
0.128049
0.127647
0.119177
0.120366
0.114854
0.115833
0.112436
0.113075
0.110985
)
;

boundaryField
{
    rotor
    {
        type            kqRWallFunction;
        value           nonuniform List<scalar> 
192
(
2.92323
4.02041
4.54456
4.51376
4.31692
3.9612
3.75673
4.6352
13.1994
23.415
27.4955
29.4993
31.0816
31.8631
32.3206
32.383
32.4163
31.3976
29.94
27.4885
24.3092
20.3704
15.1646
11.5944
2.92348
4.02076
4.54501
4.51422
4.31737
3.96159
3.75714
4.63576
13.2011
23.4164
27.4967
29.5004
31.0827
31.8642
32.3216
32.384
32.4173
31.3985
29.9408
27.4892
24.3097
20.3709
15.165
11.5948
2.92323
4.02044
4.54466
4.51389
4.31706
3.96132
3.75687
4.63528
13.1991
23.4147
27.495
29.4986
31.0809
31.8624
32.3198
32.3823
32.4156
31.397
29.9395
27.488
24.3087
20.3702
15.1645
11.5943
2.92351
4.02074
4.54481
4.51394
4.31709
3.96131
3.7569
4.63556
13.2011
23.4153
27.4951
29.4987
31.0808
31.8622
32.3196
32.382
32.4153
31.3965
29.939
27.4875
24.3083
20.3697
15.164
11.5938
2.92323
5.99704
7.90705
10.2631
11.8107
12.9235
13.5563
14.5084
15.8128
18.3185
21.0037
53.1628
11.5938
27.6659
39.8668
49.4173
58.08
66.4618
74.9524
84.6507
95.8789
107.85
121.718
139.107
2.92348
5.99757
7.90774
10.2639
11.8114
12.9242
13.557
14.5091
15.8136
18.3197
21.005
53.1647
11.5944
27.667
39.8682
49.419
58.082
66.4641
74.9549
84.6535
95.882
107.854
121.722
139.112
2.92323
5.99698
7.90683
10.2627
11.8102
12.923
13.556
14.5084
15.8132
18.3199
21.0054
53.1643
11.5948
27.6677
39.8688
49.4197
58.0827
66.4647
74.9556
84.6541
95.8826
107.854
121.722
139.112
2.92351
5.99765
7.90797
10.2642
11.8117
12.9241
13.5565
14.5079
15.8114
18.3158
21.0011
53.1609
11.5943
27.6668
39.8674
49.4179
58.0805
66.4622
74.9527
84.6508
95.8789
107.85
121.718
139.107
)
;
    }
    stator
    {
        type            kqRWallFunction;
        value           nonuniform List<scalar> 
192
(
0.111371
0.110067
0.110323
0.109482
0.109663
0.109177
0.109351
0.109279
0.10948
0.10972
0.110178
0.110732
2.21116
0.145395
0.143252
0.128045
0.127643
0.11917
0.120357
0.114837
0.115814
0.112408
0.113049
0.110958
0.111371
0.110067
0.110323
0.109482
0.109662
0.109177
0.109351
0.109279
0.10948
0.10972
0.110178
0.110732
2.21085
0.145392
0.143247
0.128042
0.127641
0.119169
0.120356
0.114836
0.115813
0.112407
0.113049
0.110958
0.11137
0.110067
0.110323
0.109482
0.109662
0.109177
0.109351
0.109279
0.10948
0.109721
0.110179
0.110732
2.2113
0.145398
0.143254
0.128046
0.127644
0.119171
0.120358
0.114838
0.115815
0.112408
0.11305
0.110958
0.111371
0.110067
0.110323
0.109482
0.109663
0.109177
0.109351
0.109279
0.10948
0.10972
0.110178
0.110732
2.21164
0.145401
0.143257
0.128049
0.127647
0.119177
0.120366
0.114854
0.115833
0.112436
0.113075
0.110985
66.6819
57.879
51.5783
45.7055
39.7263
33.2592
26.843
20.1948
12.8766
6.90726
2.8535
2.21116
27.5065
4.2421
0.695057
0.256483
0.236226
0.239587
0.239686
0.240274
0.239787
0.23321
0.206725
0.110732
66.6776
57.8752
51.5749
45.7025
39.7236
33.2568
26.8409
20.193
12.8752
6.90635
2.8531
2.21085
27.5039
4.2408
0.694557
0.256516
0.236226
0.239586
0.239686
0.240271
0.239785
0.23321
0.206725
0.110732
66.6768
57.8748
51.5747
45.7025
39.7239
33.2572
26.8414
20.1936
12.8758
6.90693
2.85339
2.2113
27.5036
4.2411
0.69478
0.256526
0.236228
0.239586
0.239686
0.240272
0.239786
0.233211
0.206727
0.110732
66.6799
57.8774
51.5769
45.7044
39.7255
33.2586
26.8428
20.1949
12.8771
6.90779
2.85378
2.21164
27.5054
4.24233
0.695406
0.256619
0.236231
0.239588
0.239687
0.240274
0.239787
0.233211
0.206726
0.110732
)
;
    }
    front
    {
        type            empty;
    }
    back
    {
        type            empty;
    }
}


// ************************************************************************* //
