/*--------------------------------*- C++ -*----------------------------------*\
| =========                 |                                                 |
| \\      /  F ield         | OpenFOAM: The Open Source CFD Toolbox           |
|  \\    /   O peration     | Version:  2212                                  |
|   \\  /    A nd           | Website:  www.openfoam.com                      |
|    \\/     M anipulation  |                                                 |
\*---------------------------------------------------------------------------*/
FoamFile
{
    version     2.0;
    format      ascii;
    arch        "LSB;label=32;scalar=64";
    class       volScalarField;
    location    "0.02";
    object      p;
}
// * * * * * * * * * * * * * * * * * * * * * * * * * * * * * * * * * * * * * //

dimensions      [1 -1 -2 0 0 0 0];

internalField   nonuniform List<scalar> 
3072
(
98032.8
98018.3
98008.1
97999.1
97998.3
97998.8
98001.6
98000.6
98017.7
98047
98039.9
97997.9
98119.4
98081.6
98069.3
98059.6
98064.1
98072.7
98094.7
98125.7
98182.8
98270.4
98310
98324.4
98177.5
98121.6
98109.2
98103.9
98121
98150.4
98195.6
98251.4
98304.5
98356.7
98392.9
98419.4
98280.2
98218.7
98208.4
98211
98243.7
98297.2
98361.6
98420.6
98472.6
98515.8
98546.7
98571.6
98392.9
98343.9
98339.8
98355.8
98402
98464.8
98530.6
98587.3
98635.4
98672.6
98699.6
98720.3
98528.8
98492
98498.1
98526.2
98579.9
98642.6
98701.1
98749.5
98788.2
98818.1
98840.6
98857.5
98658.5
98644.9
98660.6
98700
98756.8
98814.8
98864.5
98903.3
98933.7
98956.9
98974.2
98987
98793.6
98800.3
98824.4
98870.6
98924.6
98974.7
99015.1
99045.7
99068.8
99086
99098.6
99107.6
98923.9
98959.2
98986.6
99034.8
99081.5
99122.3
99153.5
99176.3
99193
99204.9
99213.4
99219.2
99054.7
99109.9
99142.9
99191
99229.2
99259.5
99281.3
99296.4
99307
99314.3
99319.3
99322.2
99195.8
99273.8
99299.3
99338.8
99366.4
99385.3
99397.7
99405.6
99410.8
99414.3
99416.5
99417.2
99308.5
99430.9
99446.6
99468.6
99483.1
99491.9
99497.1
99499.9
99501.9
99503.5
99504.3
99503.9
97963.1
97945.5
97948.5
97971.4
98011.3
98065.3
98129.8
98197.6
98258.2
98302.7
98331.1
98306.8
98332.6
98331.1
98332.6
98336.1
98345.6
98360.4
98379.8
98400.5
98417.3
98437.9
98451.2
98365.2
98434.7
98443.7
98451.8
98460.9
98472.6
98484.5
98495.4
98501.8
98500.1
98499.2
98488.5
98360
98589.1
98601.9
98611.9
98619.3
98624.3
98626.5
98625.2
98617.1
98598.8
98575.7
98546.9
98382
98734.8
98744.7
98751.3
98755.1
98755.9
98753.3
98746.2
98732.7
98708.2
98673.7
98634.2
98453.3
98869.4
98877.4
98882.1
98883.9
98882.7
98878.3
98869.3
98854.5
98830.5
98794
98750.7
98572.7
98995.8
99001.5
99004.4
99004.8
99002.9
98998.5
98990.9
98979
98960.3
98930.7
98896.4
98738.9
99113.6
99117
99118.4
99118
99116.2
99113.2
99108.9
99102.8
99093.7
99078.1
99064.5
98947.9
99222.6
99224.1
99224.2
99223.1
99221.6
99220.5
99220.2
99221.2
99224.2
99227.9
99245.1
99194.6
99323.4
99323
99321.7
99319.8
99318.2
99318.5
99321.9
99329.7
99344.3
99368.2
99425.9
99463.4
99416.6
99414.1
99411.1
99407.7
99405.3
99405.8
99411.1
99423.8
99446.6
99486.3
99587.7
99724
99502.1
99497.3
99492.1
99486.5
99482.1
99481
99485.5
99499.1
99523.8
99570.2
99687.3
99954.4
98032.8
98018.3
98008.1
97999.1
97998.3
97998.8
98001.6
98000.6
98017.7
98047
98039.9
97997.9
98119.4
98081.6
98069.3
98059.6
98064.1
98072.7
98094.7
98125.7
98182.8
98270.4
98310
98324.4
98177.5
98121.6
98109.2
98103.9
98121
98150.4
98195.6
98251.4
98304.5
98356.7
98392.9
98419.4
98280.2
98218.7
98208.4
98211
98243.7
98297.2
98361.6
98420.6
98472.6
98515.8
98546.7
98571.6
98392.9
98343.9
98339.8
98355.8
98402
98464.8
98530.6
98587.3
98635.4
98672.6
98699.6
98720.3
98528.8
98492
98498.1
98526.2
98579.9
98642.6
98701.1
98749.5
98788.2
98818.1
98840.6
98857.5
98658.5
98644.9
98660.6
98700
98756.8
98814.8
98864.5
98903.3
98933.7
98956.9
98974.2
98987
98793.6
98800.3
98824.4
98870.6
98924.6
98974.7
99015.1
99045.7
99068.8
99086
99098.6
99107.6
98923.9
98959.2
98986.6
99034.8
99081.5
99122.3
99153.5
99176.3
99193
99205
99213.4
99219.2
99054.7
99109.9
99142.9
99191
99229.2
99259.5
99281.3
99296.4
99307
99314.3
99319.3
99322.2
99195.8
99273.8
99299.3
99338.8
99366.4
99385.3
99397.7
99405.6
99410.8
99414.3
99416.5
99417.2
99308.5
99430.9
99446.6
99468.6
99483.1
99491.9
99497.1
99499.9
99501.9
99503.5
99504.3
99503.9
97963.1
97945.5
97948.5
97971.4
98011.3
98065.3
98129.8
98197.6
98258.3
98302.7
98331.1
98306.8
98332.6
98331.1
98332.6
98336.1
98345.6
98360.4
98379.8
98400.5
98417.3
98437.9
98451.3
98365.2
98434.7
98443.7
98451.8
98460.9
98472.6
98484.5
98495.5
98501.8
98500.1
98499.3
98488.5
98360
98589.1
98601.9
98611.9
98619.3
98624.3
98626.5
98625.2
98617.1
98598.8
98575.7
98546.9
98382
98734.8
98744.7
98751.3
98755.1
98755.9
98753.3
98746.2
98732.7
98708.2
98673.7
98634.2
98453.3
98869.4
98877.4
98882.1
98883.9
98882.7
98878.3
98869.3
98854.5
98830.5
98794
98750.7
98572.7
98995.8
99001.5
99004.4
99004.8
99002.9
98998.5
98990.9
98979
98960.3
98930.7
98896.4
98738.9
99113.6
99117
99118.4
99118
99116.2
99113.2
99108.9
99102.8
99093.7
99078.1
99064.5
98947.9
99222.6
99224.2
99224.2
99223.1
99221.6
99220.5
99220.2
99221.2
99224.2
99227.9
99245.1
99194.6
99323.4
99323.1
99321.7
99319.8
99318.2
99318.5
99321.9
99329.7
99344.3
99368.2
99425.9
99463.4
99416.6
99414.1
99411.1
99407.7
99405.3
99405.8
99411.1
99423.8
99446.6
99486.3
99587.7
99724
99502.1
99497.3
99492.1
99486.5
99482.1
99481
99485.5
99499.1
99523.8
99570.2
99687.3
99954.4
98032.8
98018.3
98008.1
97999.1
97998.3
97998.8
98001.6
98000.6
98017.7
98047
98039.9
97997.9
98119.4
98081.6
98069.3
98059.6
98064.1
98072.7
98094.7
98125.7
98182.8
98270.4
98310
98324.4
98177.5
98121.6
98109.2
98103.9
98121
98150.4
98195.6
98251.4
98304.5
98356.7
98392.9
98419.4
98280.2
98218.7
98208.4
98210.9
98243.6
98297.1
98361.6
98420.6
98472.6
98515.8
98546.7
98571.6
98392.9
98343.9
98339.8
98355.8
98402
98464.7
98530.6
98587.3
98635.4
98672.6
98699.6
98720.3
98528.7
98492
98498.1
98526.2
98579.9
98642.5
98701.1
98749.5
98788.2
98818.1
98840.6
98857.5
98658.5
98644.9
98660.5
98700
98756.7
98814.8
98864.5
98903.3
98933.7
98956.9
98974.2
98987
98793.6
98800.3
98824.4
98870.6
98924.6
98974.7
99015.1
99045.7
99068.8
99086
99098.6
99107.6
98923.9
98959.2
98986.6
99034.8
99081.5
99122.3
99153.5
99176.3
99193
99204.9
99213.4
99219.2
99054.7
99109.9
99142.9
99191
99229.2
99259.5
99281.3
99296.4
99307
99314.3
99319.3
99322.2
99195.8
99273.8
99299.3
99338.8
99366.4
99385.3
99397.7
99405.6
99410.8
99414.3
99416.5
99417.2
99308.5
99430.9
99446.6
99468.6
99483.1
99491.9
99497.1
99499.9
99501.9
99503.5
99504.3
99503.9
97963.1
97945.5
97948.5
97971.4
98011.3
98065.3
98129.8
98197.6
98258.2
98302.7
98331.1
98306.8
98332.5
98331.1
98332.5
98336.1
98345.6
98360.4
98379.7
98400.5
98417.3
98437.9
98451.2
98365.2
98434.7
98443.7
98451.8
98460.9
98472.6
98484.5
98495.4
98501.8
98500.1
98499.2
98488.5
98360
98589.1
98601.9
98611.9
98619.3
98624.3
98626.5
98625.2
98617.1
98598.8
98575.7
98546.9
98382
98734.7
98744.7
98751.3
98755
98755.9
98753.3
98746.2
98732.7
98708.2
98673.7
98634.2
98453.3
98869.4
98877.4
98882.1
98883.9
98882.7
98878.3
98869.2
98854.5
98830.5
98794
98750.7
98572.7
98995.8
99001.5
99004.4
99004.8
99002.9
98998.5
98990.9
98979
98960.3
98930.7
98896.4
98738.9
99113.6
99117
99118.4
99118
99116.2
99113.2
99108.9
99102.8
99093.7
99078.1
99064.5
98947.9
99222.6
99224.1
99224.2
99223.1
99221.6
99220.5
99220.2
99221.2
99224.2
99227.9
99245.1
99194.6
99323.4
99323
99321.7
99319.8
99318.2
99318.5
99321.9
99329.7
99344.3
99368.2
99425.9
99463.4
99416.6
99414.1
99411.1
99407.7
99405.3
99405.8
99411.1
99423.8
99446.6
99486.3
99587.7
99724
99502.1
99497.3
99492.1
99486.5
99482.1
99481
99485.5
99499.1
99523.8
99570.2
99687.3
99954.4
98032.8
98018.3
98008.1
97999.1
97998.3
97998.8
98001.6
98000.6
98017.7
98047
98039.9
97997.9
98119.4
98081.6
98069.3
98059.6
98064
98072.7
98094.7
98125.7
98182.8
98270.4
98310
98324.4
98177.5
98121.6
98109.2
98103.9
98121
98150.4
98195.6
98251.4
98304.5
98356.7
98392.9
98419.4
98280.2
98218.7
98208.4
98211
98243.7
98297.2
98361.6
98420.6
98472.6
98515.8
98546.7
98571.6
98392.9
98343.9
98339.8
98355.8
98402
98464.8
98530.6
98587.3
98635.4
98672.6
98699.6
98720.3
98528.8
98492
98498.1
98526.3
98579.9
98642.6
98701.1
98749.5
98788.2
98818.1
98840.6
98857.5
98658.5
98645
98660.6
98700
98756.8
98814.8
98864.5
98903.3
98933.7
98956.9
98974.2
98987
98793.6
98800.3
98824.4
98870.6
98924.6
98974.7
99015.1
99045.7
99068.8
99086
99098.6
99107.6
98923.9
98959.2
98986.7
99034.8
99081.5
99122.3
99153.5
99176.3
99193
99204.9
99213.4
99219.2
99054.7
99109.9
99142.9
99191
99229.2
99259.5
99281.3
99296.4
99307
99314.3
99319.3
99322.2
99195.8
99273.8
99299.3
99338.8
99366.4
99385.3
99397.7
99405.6
99410.8
99414.3
99416.5
99417.2
99308.5
99430.9
99446.6
99468.6
99483.1
99491.9
99497.1
99499.9
99501.9
99503.5
99504.3
99503.9
97963.1
97945.5
97948.5
97971.4
98011.3
98065.3
98129.8
98197.6
98258.2
98302.7
98331.1
98306.8
98332.5
98331.1
98332.6
98336.1
98345.6
98360.4
98379.8
98400.5
98417.3
98437.9
98451.2
98365.2
98434.7
98443.7
98451.8
98460.9
98472.6
98484.5
98495.4
98501.8
98500.1
98499.3
98488.5
98360
98589.1
98601.9
98611.9
98619.3
98624.3
98626.5
98625.2
98617.1
98598.8
98575.7
98546.9
98382
98734.8
98744.7
98751.3
98755.1
98755.9
98753.3
98746.2
98732.7
98708.2
98673.7
98634.2
98453.3
98869.4
98877.4
98882.1
98883.9
98882.7
98878.3
98869.3
98854.5
98830.5
98794
98750.7
98572.7
98995.8
99001.5
99004.4
99004.8
99002.9
98998.5
98990.9
98979
98960.3
98930.7
98896.4
98738.9
99113.6
99117
99118.4
99118
99116.2
99113.2
99108.9
99102.8
99093.7
99078.1
99064.5
98947.9
99222.6
99224.1
99224.2
99223.1
99221.6
99220.5
99220.2
99221.2
99224.2
99227.9
99245.1
99194.6
99323.4
99323
99321.7
99319.8
99318.2
99318.5
99321.9
99329.7
99344.3
99368.2
99425.9
99463.4
99416.6
99414.1
99411.1
99407.7
99405.3
99405.8
99411.1
99423.8
99446.6
99486.3
99587.7
99724
99502.1
99497.3
99492.1
99486.5
99482.1
99481
99485.5
99499.1
99523.8
99570.2
99687.3
99954.4
99572.1
99575
99568.2
99567.6
99569.9
99572.6
99574.4
99576.1
99578.2
99580.4
99581.9
99582.1
99608.2
99591.2
99598.9
99607.7
99615.9
99623
99628.7
99634.2
99639.9
99645.5
99649.8
99652.7
99622.7
99618
99626.5
99636
99646.1
99656.8
99667.6
99678.8
99690.3
99701.7
99711
99719.5
99633.1
99636.7
99643.9
99653.2
99664.9
99679.3
99695.9
99714.3
99734.3
99754.5
99774.2
99792.7
99580.2
99572.9
99564.8
99555.6
99547.7
99542.9
99543.7
99553.5
99572.3
99605.1
99643.7
99745.9
99651.5
99640.6
99629.3
99615.2
99602
99591.2
99585.5
99588.7
99599.7
99623.3
99637
99679.3
99718.5
99701.3
99686.3
99665.7
99645.3
99625.6
99610.6
99604.4
99606.1
99621.8
99628.7
99651.9
99791.4
99761.3
99740.9
99710.8
99681.4
99650.2
99622.7
99602.1
99591.5
99598.7
99605.7
99631.8
99572.1
99575
99568.2
99567.6
99569.9
99572.6
99574.4
99576.1
99578.2
99580.4
99581.9
99582.1
99608.2
99591.2
99598.9
99607.7
99615.9
99623
99628.7
99634.2
99639.9
99645.5
99649.8
99652.7
99622.7
99618
99626.5
99636
99646.1
99656.8
99667.6
99678.8
99690.3
99701.7
99711
99719.5
99633.1
99636.7
99643.9
99653.2
99664.9
99679.3
99695.9
99714.3
99734.3
99754.5
99774.2
99792.7
99580.2
99572.9
99564.8
99555.6
99547.7
99542.9
99543.7
99553.5
99572.3
99605.1
99643.7
99745.9
99651.5
99640.6
99629.3
99615.2
99602
99591.2
99585.5
99588.7
99599.7
99623.3
99637
99679.3
99718.5
99701.3
99686.3
99665.7
99645.3
99625.6
99610.6
99604.4
99606.1
99621.8
99628.7
99651.9
99791.4
99761.3
99740.9
99710.8
99681.4
99650.2
99622.7
99602.1
99591.5
99598.7
99605.7
99631.8
99572.1
99575
99568.2
99567.6
99569.9
99572.6
99574.4
99576.1
99578.2
99580.4
99581.9
99582.1
99608.2
99591.2
99598.9
99607.7
99615.9
99623
99628.7
99634.2
99639.9
99645.5
99649.8
99652.7
99622.7
99618
99626.5
99636
99646.1
99656.8
99667.6
99678.8
99690.3
99701.7
99711
99719.5
99633.1
99636.7
99643.9
99653.2
99664.9
99679.3
99695.8
99714.3
99734.3
99754.5
99774.2
99792.7
99580.2
99572.9
99564.8
99555.6
99547.7
99542.9
99543.7
99553.5
99572.3
99605.1
99643.7
99745.9
99651.5
99640.6
99629.3
99615.2
99602
99591.2
99585.5
99588.7
99599.7
99623.3
99637
99679.3
99718.5
99701.3
99686.3
99665.7
99645.3
99625.6
99610.6
99604.4
99606.1
99621.8
99628.7
99651.9
99791.4
99761.3
99740.9
99710.8
99681.4
99650.2
99622.7
99602.1
99591.5
99598.7
99605.7
99631.8
99572.1
99575
99568.2
99567.6
99569.9
99572.6
99574.4
99576.1
99578.2
99580.4
99581.9
99582.1
99608.2
99591.2
99598.9
99607.7
99615.9
99623
99628.7
99634.2
99639.9
99645.5
99649.8
99652.7
99622.7
99618
99626.5
99636
99646.1
99656.8
99667.6
99678.8
99690.3
99701.7
99711
99719.4
99633.1
99636.7
99643.9
99653.2
99664.9
99679.3
99695.8
99714.3
99734.3
99754.5
99774.2
99792.7
99580.2
99572.9
99564.8
99555.6
99547.7
99542.9
99543.7
99553.5
99572.3
99605.1
99643.7
99745.9
99651.5
99640.6
99629.3
99615.2
99602
99591.2
99585.5
99588.7
99599.7
99623.3
99637
99679.3
99718.5
99701.3
99686.3
99665.7
99645.3
99625.6
99610.6
99604.4
99606.1
99621.8
99628.7
99651.9
99791.4
99761.3
99740.9
99710.8
99681.4
99650.2
99622.7
99602.1
99591.5
99598.7
99605.7
99631.8
99650.7
99659.8
99666.7
99675
99685.4
99698.5
99713.7
99731
99749.6
99769.1
99788.7
99809.1
99678
99685.7
99692.3
99699.7
99708
99717.3
99727.1
99737.5
99747.5
99758.2
99768.3
99783.9
99700.2
99706
99711.3
99717.2
99723.3
99729.6
99735.6
99741.4
99746.1
99752.1
99757.5
99763.7
99716.7
99720.9
99724.6
99728.7
99732.4
99736.2
99739.3
99742
99743.4
99746.6
99744.3
99718.3
99823.6
99796.3
99775.5
99743
99713.3
99680.3
99650.4
99625.4
99609.8
99609.5
99612.9
99636.1
99820.8
99791.7
99780.8
99754.7
99733.3
99708.5
99687.2
99669.2
99657.8
99656.1
99657.4
99669.8
99841.3
99790.6
99789.1
99765.7
99749.4
99729.4
99713
99698.9
99690.1
99687.6
99688.2
99695.3
99885
99788
99795.7
99775.1
99762
99745.5
99732.3
99720.7
99713.3
99710.3
99709.8
99713.7
99650.7
99659.8
99666.7
99675
99685.4
99698.5
99713.7
99731
99749.6
99769.1
99788.7
99809.1
99678
99685.7
99692.3
99699.7
99708
99717.3
99727.1
99737.5
99747.5
99758.2
99768.3
99783.9
99700.2
99706
99711.3
99717.2
99723.3
99729.6
99735.6
99741.4
99746.1
99752.1
99757.5
99763.7
99716.7
99720.9
99724.6
99728.7
99732.4
99736.2
99739.3
99742
99743.4
99746.6
99744.3
99718.3
99823.6
99796.3
99775.5
99743
99713.3
99680.2
99650.4
99625.4
99609.8
99609.5
99612.9
99636.1
99820.8
99791.7
99780.8
99754.7
99733.3
99708.5
99687.2
99669.2
99657.8
99656.1
99657.4
99669.8
99841.3
99790.6
99789.1
99765.7
99749.4
99729.4
99713
99698.9
99690.1
99687.6
99688.2
99695.3
99885
99788
99795.7
99775.1
99762
99745.5
99732.3
99720.7
99713.3
99710.3
99709.8
99713.7
99650.7
99659.8
99666.7
99675
99685.4
99698.5
99713.7
99731
99749.6
99769.1
99788.7
99809.1
99678
99685.7
99692.3
99699.7
99708
99717.3
99727.1
99737.4
99747.5
99758.2
99768.3
99783.9
99700.1
99706
99711.3
99717.2
99723.2
99729.5
99735.6
99741.4
99746.1
99752.1
99757.5
99763.7
99716.7
99720.9
99724.6
99728.7
99732.4
99736.2
99739.3
99742
99743.4
99746.6
99744.3
99718.3
99823.6
99796.3
99775.5
99743
99713.3
99680.2
99650.4
99625.4
99609.8
99609.5
99612.9
99636.1
99820.8
99791.7
99780.8
99754.7
99733.3
99708.5
99687.2
99669.2
99657.8
99656.1
99657.4
99669.8
99841.3
99790.6
99789.1
99765.7
99749.4
99729.4
99713
99698.9
99690.1
99687.6
99688.2
99695.3
99885
99788
99795.7
99775.1
99762
99745.5
99732.3
99720.7
99713.3
99710.3
99709.8
99713.7
99650.7
99659.8
99666.7
99675
99685.4
99698.5
99713.7
99731
99749.6
99769.1
99788.7
99809.1
99678
99685.7
99692.3
99699.7
99708
99717.3
99727.1
99737.4
99747.5
99758.2
99768.3
99783.9
99700.1
99706
99711.3
99717.2
99723.2
99729.5
99735.6
99741.4
99746.1
99752.1
99757.5
99763.7
99716.7
99720.9
99724.6
99728.7
99732.4
99736.2
99739.3
99742
99743.4
99746.6
99744.3
99718.3
99823.6
99796.3
99775.5
99743
99713.3
99680.2
99650.4
99625.4
99609.8
99609.5
99612.9
99636.1
99820.8
99791.7
99780.8
99754.7
99733.3
99708.5
99687.2
99669.2
99657.8
99656.1
99657.4
99669.8
99841.3
99790.6
99789.1
99765.7
99749.4
99729.4
99713
99698.9
99690.1
99687.6
99688.2
99695.3
99885
99788
99795.7
99775.1
99762
99745.5
99732.3
99720.7
99713.3
99710.3
99709.8
99713.7
99728.4
99730.9
99732.9
99735.1
99736.8
99738.4
99738.9
99738.8
99735.7
99730.7
99720
99666.3
99735.7
99736.6
99737.2
99737.9
99738
99738
99736.6
99734.1
99729.5
99726.8
99722.6
99698.1
99739.7
99739.5
99738.9
99738.7
99737.6
99736.1
99733.5
99732.5
99730.4
99725.9
99720.6
99702
99741.6
99740.6
99739.2
99737.8
99736
99735.4
99734.6
99732.9
99730.2
99726.1
99722.1
99710
99742.3
99740.5
99738.6
99738
99737.3
99736.2
99734.3
99732.2
99729.4
99725.6
99721.7
99713.5
99742.3
99741
99739.8
99738.6
99737.1
99735.8
99734.2
99732.2
99729.5
99726.2
99722.9
99716.8
99743.4
99741.8
99739.9
99738.7
99737.1
99735.7
99733.7
99731.7
99729.1
99726
99723.1
99718.9
99743.7
99741.9
99740.2
99738.7
99737.1
99735.7
99733.8
99731.8
99729.2
99726.4
99723.7
99720.4
99744.1
99742.2
99740.3
99738.8
99737.1
99735.5
99733.5
99731.5
99729.1
99726.5
99724
99721.5
99744.5
99742.3
99740.5
99738.8
99737.2
99735.5
99733.6
99731.5
99729.2
99726.7
99724.4
99722.2
99744.5
99742.5
99740.5
99738.9
99737.1
99735.4
99733.5
99731.5
99729.1
99726.8
99724.5
99722.7
99744.8
99742.4
99740.7
99738.8
99737.2
99735.4
99733.5
99731.4
99729.2
99726.8
99724.6
99722.9
99982.6
99782.7
99799.2
99781.7
99771
99757.1
99746.3
99736.7
99730.2
99726.8
99725.3
99726.9
99955.9
99777.4
99799.8
99785.3
99776.9
99765
99756
99747.7
99741.8
99737.9
99735.6
99735.5
99938
99776.4
99799.9
99786.7
99780.4
99770.3
99762.4
99754.9
99749.1
99744.9
99741.9
99740.7
99902.3
99773
99798.6
99786.6
99782.1
99773.5
99766.2
99759.1
99753.3
99748.8
99745.4
99743.4
99869.1
99770.6
99797.4
99786.3
99782.5
99775.2
99768.1
99761.3
99755.5
99750.9
99747.2
99744.7
99839.6
99771
99796.4
99786.4
99782.1
99775.8
99768.8
99762.4
99756.5
99751.9
99747.7
99744.8
99812.2
99774.7
99795.3
99787.3
99782.1
99775.9
99768.8
99762.6
99756.7
99752.2
99748.2
99745.7
99789.8
99785.4
99794.8
99788.6
99781.9
99776.1
99768.7
99763
99757.3
99753
99749.2
99746.3
99768.6
99796
99794.1
99790.5
99782.4
99776.6
99769.3
99763.9
99758
99753.7
99749.6
99746.8
99764.8
99811.5
99796.5
99792.7
99784.1
99777.1
99770.1
99764.1
99758.6
99754.1
99750.2
99747
99718.8
99820.5
99797
99794.4
99785.2
99777.9
99770.6
99764.7
99758.9
99754.5
99750.3
99747.4
99793.3
99860.1
99803.3
99796.9
99786.9
99778
99771.2
99764.7
99759.3
99754.5
99750.6
99747.3
99728.4
99730.9
99732.9
99735.1
99736.8
99738.4
99738.9
99738.8
99735.7
99730.7
99720
99666.3
99735.7
99736.6
99737.2
99737.9
99738
99738
99736.6
99734.1
99729.5
99726.8
99722.6
99698.1
99739.7
99739.5
99738.9
99738.7
99737.6
99736.1
99733.5
99732.5
99730.4
99725.9
99720.6
99702
99741.6
99740.6
99739.2
99737.8
99736
99735.4
99734.6
99732.9
99730.2
99726.1
99722.1
99710
99742.3
99740.5
99738.6
99738
99737.3
99736.2
99734.3
99732.2
99729.4
99725.6
99721.7
99713.5
99742.3
99741
99739.8
99738.6
99737.1
99735.8
99734.2
99732.2
99729.5
99726.2
99722.9
99716.8
99743.4
99741.8
99739.9
99738.7
99737.1
99735.7
99733.7
99731.7
99729.1
99726
99723.1
99718.9
99743.7
99741.9
99740.2
99738.7
99737.1
99735.7
99733.8
99731.8
99729.2
99726.4
99723.7
99720.4
99744.1
99742.2
99740.3
99738.8
99737.1
99735.5
99733.5
99731.5
99729.1
99726.5
99724
99721.5
99744.5
99742.3
99740.5
99738.8
99737.2
99735.5
99733.6
99731.5
99729.2
99726.7
99724.4
99722.2
99744.5
99742.5
99740.5
99738.9
99737.1
99735.4
99733.5
99731.5
99729.1
99726.8
99724.5
99722.7
99744.8
99742.4
99740.7
99738.8
99737.2
99735.4
99733.6
99731.4
99729.2
99726.8
99724.6
99722.9
99982.6
99782.7
99799.2
99781.7
99771
99757.1
99746.3
99736.6
99730.2
99726.8
99725.2
99726.9
99955.9
99777.4
99799.8
99785.3
99776.9
99765
99756
99747.7
99741.8
99737.9
99735.6
99735.5
99938
99776.4
99799.9
99786.7
99780.4
99770.2
99762.4
99754.9
99749.1
99744.9
99741.9
99740.7
99902.3
99773
99798.6
99786.6
99782.1
99773.5
99766.2
99759.1
99753.3
99748.8
99745.4
99743.4
99869.1
99770.6
99797.4
99786.3
99782.5
99775.2
99768.1
99761.3
99755.5
99750.9
99747.2
99744.7
99839.6
99771
99796.4
99786.4
99782.1
99775.8
99768.8
99762.4
99756.5
99751.9
99747.7
99744.8
99812.2
99774.7
99795.2
99787.3
99782.1
99775.9
99768.8
99762.6
99756.7
99752.2
99748.2
99745.7
99789.8
99785.4
99794.8
99788.6
99781.9
99776.1
99768.7
99763
99757.3
99753
99749.2
99746.3
99768.6
99796
99794.1
99790.5
99782.4
99776.6
99769.3
99763.9
99758
99753.7
99749.6
99746.8
99764.7
99811.5
99796.5
99792.7
99784.1
99777.1
99770.1
99764.1
99758.6
99754.1
99750.2
99747
99718.8
99820.5
99797
99794.4
99785.2
99777.9
99770.6
99764.7
99758.9
99754.5
99750.3
99747.4
99793.3
99860.1
99803.3
99796.9
99786.9
99778
99771.2
99764.7
99759.3
99754.5
99750.6
99747.3
99728.4
99730.9
99732.9
99735.1
99736.8
99738.4
99738.9
99738.8
99735.7
99730.7
99720
99666.3
99735.7
99736.6
99737.2
99737.9
99738
99738
99736.6
99734.1
99729.5
99726.8
99722.6
99698.1
99739.7
99739.5
99738.9
99738.7
99737.6
99736.1
99733.5
99732.5
99730.4
99725.9
99720.6
99702
99741.6
99740.6
99739.2
99737.8
99736
99735.4
99734.6
99732.9
99730.2
99726.1
99722.1
99710
99742.3
99740.5
99738.6
99738
99737.3
99736.2
99734.3
99732.2
99729.4
99725.6
99721.7
99713.5
99742.3
99741
99739.8
99738.6
99737.1
99735.8
99734.2
99732.2
99729.5
99726.2
99722.9
99716.8
99743.4
99741.8
99739.9
99738.6
99737.1
99735.7
99733.7
99731.7
99729.1
99726
99723.1
99718.9
99743.7
99741.9
99740.2
99738.7
99737.1
99735.7
99733.8
99731.8
99729.2
99726.4
99723.7
99720.4
99744.1
99742.2
99740.2
99738.8
99737.1
99735.5
99733.5
99731.5
99729.1
99726.5
99724
99721.5
99744.5
99742.3
99740.5
99738.8
99737.2
99735.5
99733.6
99731.5
99729.2
99726.7
99724.4
99722.2
99744.5
99742.5
99740.5
99738.9
99737.1
99735.4
99733.5
99731.5
99729.1
99726.8
99724.5
99722.7
99744.8
99742.4
99740.7
99738.8
99737.2
99735.4
99733.5
99731.4
99729.2
99726.8
99724.6
99722.9
99982.6
99782.7
99799.2
99781.7
99771
99757.1
99746.3
99736.6
99730.2
99726.8
99725.2
99726.9
99955.9
99777.4
99799.8
99785.3
99776.9
99765
99756
99747.7
99741.8
99737.9
99735.6
99735.5
99938
99776.4
99799.9
99786.6
99780.4
99770.2
99762.4
99754.9
99749.1
99744.8
99741.9
99740.7
99902.3
99773
99798.6
99786.6
99782.1
99773.5
99766.2
99759.1
99753.3
99748.8
99745.4
99743.4
99869.1
99770.6
99797.4
99786.3
99782.5
99775.2
99768.1
99761.3
99755.5
99750.9
99747.2
99744.7
99839.6
99771
99796.4
99786.4
99782.1
99775.8
99768.8
99762.4
99756.5
99751.9
99747.7
99744.8
99812.2
99774.7
99795.2
99787.3
99782.1
99775.9
99768.8
99762.6
99756.7
99752.2
99748.2
99745.7
99789.8
99785.4
99794.8
99788.6
99781.9
99776.1
99768.7
99763
99757.3
99753
99749.2
99746.3
99768.6
99796
99794.1
99790.5
99782.4
99776.6
99769.3
99763.9
99758
99753.7
99749.6
99746.8
99764.7
99811.5
99796.5
99792.7
99784.1
99777.1
99770.1
99764.1
99758.6
99754.1
99750.2
99747
99718.8
99820.5
99797
99794.4
99785.2
99777.9
99770.6
99764.7
99758.9
99754.5
99750.3
99747.4
99793.3
99860.1
99803.3
99796.9
99786.9
99778
99771.2
99764.7
99759.3
99754.5
99750.6
99747.3
99728.4
99730.9
99732.9
99735.1
99736.8
99738.4
99738.9
99738.8
99735.7
99730.7
99720
99666.3
99735.7
99736.6
99737.2
99737.9
99738
99738
99736.6
99734.1
99729.5
99726.8
99722.6
99698.1
99739.7
99739.5
99738.9
99738.7
99737.6
99736.1
99733.5
99732.5
99730.4
99725.9
99720.6
99702
99741.6
99740.6
99739.2
99737.8
99736
99735.4
99734.6
99732.9
99730.2
99726.1
99722.1
99710
99742.3
99740.5
99738.6
99738
99737.3
99736.2
99734.3
99732.2
99729.4
99725.6
99721.7
99713.5
99742.3
99741
99739.8
99738.6
99737.1
99735.8
99734.2
99732.2
99729.5
99726.2
99722.9
99716.8
99743.4
99741.8
99739.9
99738.6
99737.1
99735.7
99733.7
99731.7
99729.1
99726
99723.1
99718.9
99743.7
99741.9
99740.2
99738.7
99737.1
99735.7
99733.8
99731.8
99729.2
99726.4
99723.7
99720.4
99744.1
99742.2
99740.2
99738.8
99737.1
99735.5
99733.5
99731.5
99729.1
99726.5
99724
99721.5
99744.5
99742.3
99740.5
99738.8
99737.2
99735.5
99733.6
99731.5
99729.2
99726.7
99724.4
99722.2
99744.5
99742.5
99740.5
99738.9
99737.1
99735.4
99733.5
99731.5
99729.1
99726.8
99724.5
99722.7
99744.8
99742.4
99740.7
99738.8
99737.2
99735.4
99733.5
99731.4
99729.2
99726.8
99724.6
99722.9
99982.6
99782.7
99799.2
99781.7
99771
99757.1
99746.3
99736.7
99730.2
99726.8
99725.3
99726.9
99955.9
99777.4
99799.8
99785.3
99776.9
99765
99756
99747.7
99741.8
99737.9
99735.6
99735.5
99938
99776.4
99799.9
99786.7
99780.4
99770.2
99762.4
99754.9
99749.1
99744.9
99741.9
99740.7
99902.3
99773
99798.6
99786.6
99782.1
99773.5
99766.2
99759.1
99753.3
99748.8
99745.4
99743.4
99869.1
99770.6
99797.4
99786.3
99782.5
99775.2
99768.1
99761.3
99755.5
99750.9
99747.2
99744.7
99839.6
99771
99796.4
99786.4
99782.1
99775.8
99768.8
99762.4
99756.5
99751.9
99747.7
99744.8
99812.2
99774.7
99795.2
99787.3
99782.1
99775.9
99768.8
99762.6
99756.7
99752.2
99748.2
99745.7
99789.8
99785.4
99794.8
99788.6
99781.9
99776.1
99768.7
99763
99757.3
99753
99749.2
99746.3
99768.6
99796
99794.1
99790.5
99782.4
99776.6
99769.3
99763.9
99758
99753.7
99749.6
99746.8
99764.7
99811.5
99796.5
99792.7
99784.1
99777.1
99770.1
99764.1
99758.6
99754.1
99750.2
99747
99718.8
99820.5
99797
99794.4
99785.2
99777.9
99770.6
99764.7
99758.9
99754.5
99750.3
99747.4
99793.3
99860.1
99803.3
99796.9
99786.9
99778
99771.2
99764.7
99759.3
99754.5
99750.6
99747.3
)
;

boundaryField
{
    rotor
    {
        type            zeroGradient;
    }
    stator
    {
        type            zeroGradient;
    }
    front
    {
        type            empty;
    }
    back
    {
        type            empty;
    }
}


// ************************************************************************* //
