/*--------------------------------*- C++ -*----------------------------------*\
| =========                 |                                                 |
| \\      /  F ield         | OpenFOAM: The Open Source CFD Toolbox           |
|  \\    /   O peration     | Version:  2212                                  |
|   \\  /    A nd           | Website:  www.openfoam.com                      |
|    \\/     M anipulation  |                                                 |
\*---------------------------------------------------------------------------*/
FoamFile
{
    version     2.0;
    format      ascii;
    arch        "LSB;label=32;scalar=64";
    class       volVectorField;
    location    "0.02";
    object      U;
}
// * * * * * * * * * * * * * * * * * * * * * * * * * * * * * * * * * * * * * //

dimensions      [0 1 -1 0 0 0 0];

internalField   nonuniform List<vector> 
3072
(
(0.9597 21.821 0)
(1.39135 18.966 0)
(2.77565 17.5262 5.09906e-19)
(4.29626 16.1803 -8.34238e-15)
(5.5895 15.6717 1.33732e-14)
(6.93838 15.2932 -6.67689e-15)
(7.69262 15.2186 -3.1109e-15)
(9.67947 17.1422 -1.47901e-14)
(17.6629 15.0949 2.45378e-14)
(29.1076 15.0051 -9.28128e-15)
(32.8005 19.9392 6.27863e-15)
(35.4799 21.6382 2.92254e-15)
(-5.22893 25.5575 -3.64165e-16)
(-3.12745 22.183 -2.78204e-15)
(0.23222 22.1013 1.4167e-15)
(3.60537 21.5374 0)
(6.26101 21.7958 5.71343e-15)
(9.25013 23.3648 -8.685e-15)
(15.5672 23.9729 0)
(24.7087 25.7728 0)
(30.4045 26.5498 0)
(32.4717 26.566 7.34392e-18)
(32.9871 27.502 -1.31723e-14)
(33.6427 27.4962 4.45952e-18)
(-5.05222 28.915 3.33699e-16)
(-2.30189 25.51 0)
(2.59602 26.0228 0)
(7.19559 25.6673 -7.44246e-15)
(12.47 26.179 5.01555e-15)
(19.5824 27.4511 -7.57353e-15)
(26.9938 28.4501 9.98916e-15)
(31.6576 28.6857 0)
(33.8014 28.0093 0)
(34.5771 27.041 -3.63386e-15)
(34.6583 26.4945 -3.3416e-15)
(35.0815 25.8186 9.646e-15)
(-6.35489 32.4451 -1.23199e-15)
(-1.98441 30.1576 -2.29041e-15)
(4.2662 31.3984 2.24159e-15)
(10.765 31.2368 -2.26422e-15)
(18.0564 31.6867 9.11425e-15)
(25.0097 31.7798 -9.03096e-15)
(29.924 31.1434 -4.3342e-15)
(32.1949 30.0424 -1.18123e-14)
(33.3005 28.6301 -3.23112e-18)
(33.706 27.5106 6.27777e-15)
(33.8435 26.6283 5.94209e-15)
(34.1371 25.7565 -5.65938e-15)
(-3.52143 34.8499 0)
(0.675569 34.276 1.04386e-15)
(7.40024 35.7213 -2.05461e-15)
(14.4863 35.6143 4.14163e-15)
(21.6385 35.3327 4.65735e-18)
(27.0784 34.1548 3.99634e-15)
(30.0124 32.5022 3.65573e-15)
(31.3848 30.7213 3.36282e-15)
(31.9986 29.0945 -6.28927e-15)
(32.279 27.6732 5.85697e-15)
(32.4835 26.4876 -8.24321e-15)
(32.7702 25.4035 1.04271e-14)
(-2.11254 37.609 -1.05107e-15)
(2.89331 37.8065 9.61168e-16)
(9.71742 39.1467 3.77189e-15)
(16.5156 38.695 0)
(22.7157 37.4776 -7.42332e-15)
(26.7028 35.387 7.01993e-15)
(28.8472 33.157 0)
(29.8859 31.1006 -6.01535e-15)
(30.496 29.2388 5.60892e-15)
(30.87 27.6374 0)
(31.175 26.2727 2.90661e-18)
(31.5065 25.0547 4.77255e-15)
(1.11576 39.6262 0)
(5.42107 41.0397 -1.77114e-15)
(11.5418 41.7328 1.72676e-15)
(17.3343 40.8853 0)
(22.245 38.8316 -3.29043e-15)
(25.3449 36.2382 5.20978e-18)
(27.1719 33.6796 5.77823e-15)
(28.2348 31.3802 5.42813e-15)
(28.9401 29.3667 -5.12251e-15)
(29.4489 27.6221 4.86817e-15)
(29.8791 26.1141 -4.64513e-15)
(30.2967 24.7786 -1.33837e-14)
(3.15877 41.9746 0)
(7.28391 43.8568 1.61621e-15)
(12.4075 43.8201 -3.09022e-15)
(17.0278 42.5494 3.00496e-15)
(20.9519 39.9701 0)
(23.6713 37.0583 -5.46267e-15)
(25.4526 34.2436 5.19895e-15)
(26.628 31.7396 1.34398e-18)
(27.4763 29.5587 -9.46854e-15)
(28.1298 27.6684 -4.54284e-15)
(28.6818 26.0255 -2.97606e-18)
(29.1856 24.5742 8.4655e-15)
(5.89961 43.6241 0)
(8.84213 46.3567 -1.4688e-15)
(12.5797 45.4032 -2.74018e-15)
(16.1311 43.8376 -2.61444e-15)
(19.3608 41.0286 5.03263e-15)
(21.8956 37.9358 0)
(23.7454 34.9279 0)
(25.0911 32.2251 0)
(26.1129 29.8602 0)
(26.9171 27.8085 4.26441e-15)
(27.5823 26.0227 -4.15032e-15)
(28.1596 24.4483 4.04397e-15)
(7.11204 46.6468 0)
(9.28312 48.3708 1.29332e-15)
(11.8519 46.3908 -3.79962e-18)
(14.7478 44.4184 2.32901e-15)
(17.5579 41.5218 2.26631e-15)
(20.0125 38.4092 -4.40245e-15)
(21.9854 35.3618 0)
(23.5345 32.5727 -2.06854e-18)
(24.7536 30.096 -1.23815e-14)
(25.7193 27.9257 0)
(26.4985 26.0235 7.94264e-15)
(27.1423 24.3421 -3.89396e-15)
(9.95123 46.9813 0)
(8.83253 48.0953 1.21051e-15)
(10.3388 45.335 4.45853e-15)
(12.7896 43.0932 -4.3055e-15)
(15.378 40.4241 -6.29557e-15)
(17.858 37.6225 1.02508e-14)
(20.0144 34.8543 -1.83512e-18)
(21.7983 32.248 -3.97571e-15)
(23.2411 29.8665 3.91583e-15)
(24.3889 27.7285 -7.74558e-15)
(25.296 25.8176 -1.14602e-14)
(26.0113 24.1058 1.13078e-14)
(4.5659 43.8954 -6.3167e-16)
(6.44765 43.1332 -4.56944e-15)
(7.75548 40.2624 1.05376e-15)
(10.1831 38.5236 0)
(12.8617 36.7715 0)
(15.4866 34.8468 3.6451e-18)
(17.8412 32.8202 1.14258e-14)
(19.8512 30.7676 7.53279e-15)
(21.5112 28.7781 0)
(22.8404 26.9034 7.40686e-15)
(23.8797 25.1595 0)
(24.665 23.5543 6.03026e-18)
(38.7973 22.1143 -2.06018e-14)
(40.8616 21.8225 8.92051e-15)
(42.6015 20.8789 -9.01974e-15)
(43.2706 19.6023 -3.05232e-15)
(43.3534 18.1426 -3.01332e-15)
(42.6704 16.3992 0)
(41.2515 14.6283 0)
(38.9809 12.7734 5.90804e-15)
(35.9444 10.9727 -5.95848e-15)
(32.0228 8.96344 0)
(26.7746 5.46733 0)
(24.7363 -0.502565 -4.02064e-16)
(34.6608 27.9182 8.09782e-15)
(35.5824 27.5563 0)
(36.693 26.8501 -1.01456e-17)
(37.6482 25.6919 3.94871e-15)
(38.497 24.1108 1.96331e-15)
(38.8626 22.5057 7.98713e-15)
(38.7158 20.9122 -1.22665e-14)
(37.9991 19.5064 2.12776e-15)
(36.774 18.418 0)
(34.4148 17.479 0)
(31.1371 16.1222 0)
(31.5817 11.811 -4.45428e-23)
(35.5938 25.207 3.12684e-15)
(36.155 24.4909 -9.27936e-15)
(36.7647 23.6854 3.08329e-15)
(37.2453 22.8111 6.18574e-15)
(37.5472 21.9279 -6.20332e-15)
(37.5697 21.0708 0)
(37.3046 20.3571 0)
(36.7302 19.8698 -1.89066e-18)
(35.9308 19.7201 1.78989e-15)
(34.4369 19.7373 0)
(32.0374 19.59 0)
(33.6419 19.1832 0)
(34.4304 24.9471 3.61975e-18)
(34.7606 24.1499 8.02123e-15)
(35.1252 23.3376 5.27818e-15)
(35.4654 22.5272 -5.22602e-15)
(35.7262 21.7596 0)
(35.8525 21.1076 2.65399e-15)
(35.8116 20.6398 0)
(35.6106 20.4249 4.27008e-15)
(35.2641 20.5816 -1.38022e-15)
(34.5297 21.2548 0)
(32.4916 22.182 -8.92921e-16)
(35.7795 23.2613 -1.13995e-15)
(33.0782 24.4134 -4.98744e-15)
(33.4308 23.4931 0)
(33.8083 22.6236 0)
(34.17 21.823 0)
(34.4851 21.1289 0)
(34.7342 20.5914 -4.49065e-15)
(34.8897 20.3123 -1.50045e-18)
(34.9663 20.2987 -2.36154e-15)
(35.0072 20.7013 0)
(34.8474 21.6579 -1.33163e-15)
(33.5616 23.2322 8.23731e-16)
(37.7723 25.8219 1.05109e-15)
(31.8558 23.9578 -2.71175e-18)
(32.2369 22.9604 -8.88726e-15)
(32.6385 22.0494 4.33274e-15)
(33.0411 21.2375 1.34035e-20)
(33.4303 20.5562 2.50292e-18)
(33.7991 20.0508 6.306e-15)
(34.1584 19.7825 -1.693e-18)
(34.5244 19.8146 -6.5833e-15)
(34.9118 20.2624 -2.33898e-15)
(35.3816 21.2793 1.30962e-15)
(34.7586 23.2705 -1.5507e-15)
(39.5016 26.7507 -4.87715e-16)
(30.7131 23.5814 1.29284e-14)
(31.142 22.4989 4.1856e-15)
(31.5821 21.5204 0)
(32.0295 20.6545 0)
(32.4861 19.9269 2.33565e-18)
(32.9627 19.3759 -3.9132e-15)
(33.4851 19.0529 5.87688e-15)
(34.0917 19.016 -1.3878e-18)
(34.8165 19.3701 2.0884e-15)
(35.7707 20.3024 0)
(35.9441 22.268 -2.1991e-18)
(40.9406 26.6184 4.54182e-16)
(29.6613 23.2757 -4.10951e-15)
(30.1266 22.1014 -4.00217e-15)
(30.5886 21.0392 3.91536e-15)
(31.0561 20.0916 -3.83441e-15)
(31.5456 19.2776 9.0713e-20)
(32.0847 18.6277 7.42648e-15)
(32.7193 18.1799 -3.67509e-15)
(33.5144 17.9847 1.84482e-15)
(34.5338 18.1307 0)
(35.9581 18.8134 1.03816e-15)
(36.9424 20.5485 6.23842e-16)
(41.9362 25.1431 -1.6982e-15)
(28.6739 23.0417 3.94954e-15)
(29.1489 21.7659 -3.86659e-15)
(29.5993 20.6063 -3.7881e-15)
(30.0441 19.5558 -7.43401e-15)
(30.5136 18.6262 7.28911e-15)
(31.0514 17.8371 -7.14939e-15)
(31.7268 17.211 0)
(32.6355 16.7806 -1.7365e-15)
(33.8815 16.6036 0)
(35.7154 16.8597 0)
(37.561 18.1216 0)
(42.4664 22.3946 1.57554e-15)
(27.6746 22.8366 3.82162e-15)
(28.1283 21.4603 -7.51297e-15)
(28.527 20.2014 7.38851e-15)
(28.899 19.0409 7.25281e-15)
(29.2868 17.9828 3.55205e-15)
(29.751 17.0341 0)
(30.3862 16.1959 0)
(31.3147 15.4757 3.32726e-15)
(32.6869 14.8832 0)
(34.8327 14.5517 -8.6674e-16)
(37.3432 14.9549 5.12552e-16)
(42.2814 18.0913 -2.20905e-15)
(26.5466 22.5533 -7.4213e-15)
(26.9505 21.1056 7.28702e-15)
(27.2557 19.7703 -7.17962e-15)
(27.5043 18.5137 -1.76771e-14)
(27.7531 17.3354 -2.60056e-18)
(28.0786 16.2306 1.27649e-18)
(28.6018 15.1762 -3.30484e-15)
(29.4557 14.1472 -3.21657e-15)
(30.8353 13.0865 0)
(33.1292 12.0739 2.41912e-15)
(35.9582 11.1774 4.68241e-16)
(41.0857 11.8297 -4.36283e-19)
(25.1761 22.0568 -5.90489e-18)
(25.4945 20.5949 0)
(25.6605 19.2274 0)
(25.7358 17.9113 3.41994e-15)
(25.8007 16.6459 1.00816e-14)
(25.9501 15.4139 -3.28651e-15)
(26.3238 14.1743 -2.14248e-18)
(27.0365 12.8704 -1.56652e-15)
(28.311 11.364 -1.52787e-15)
(30.4207 9.63688 -1.52264e-15)
(33.7388 7.14547 0)
(38.2165 -0.44479 6.05866e-16)
(21.821 -0.959609 -4.20221e-16)
(18.9659 -1.39124 0)
(17.526 -2.77554 -5.09887e-19)
(16.1802 -4.29617 0)
(15.6716 -5.58942 6.6866e-15)
(15.2931 -6.93832 -6.67688e-15)
(15.2186 -7.69249 0)
(17.1423 -9.67959 -1.18323e-14)
(15.0945 -17.664 2.14706e-14)
(15.0056 -29.1086 -1.54815e-14)
(19.9398 -32.8009 -3.14355e-15)
(21.6386 -35.4806 -2.92254e-15)
(25.5575 5.22908 -1.82012e-15)
(22.1829 3.12757 -1.39066e-15)
(22.1012 -0.232153 4.24793e-15)
(21.5372 -3.60538 0)
(21.7957 -6.26108 -5.71342e-15)
(23.3648 -9.25037 5.78914e-15)
(23.9731 -15.5678 0)
(25.7732 -24.7095 5.3285e-15)
(26.55 -30.405 -1.45295e-14)
(26.5664 -32.4721 9.23738e-15)
(27.5024 -32.9874 8.77787e-15)
(27.4967 -33.6431 -1.25079e-14)
(28.915 5.05244 3.33699e-16)
(25.5099 2.30203 0)
(26.0228 -2.59597 -2.48661e-15)
(25.6673 -7.19568 0)
(26.179 -12.4704 0)
(27.4512 -19.583 -5.04538e-15)
(28.4502 -26.9946 1.99833e-14)
(28.6859 -31.6582 -1.42206e-14)
(28.0094 -33.8019 3.83133e-15)
(27.0412 -34.5775 0)
(26.4948 -34.6586 6.68762e-15)
(25.8189 -35.0818 -3.21856e-15)
(32.4451 6.35508 -1.23307e-15)
(30.1575 1.9845 1.1458e-15)
(31.3984 -4.26623 2.24031e-15)
(31.2368 -10.7653 4.52516e-15)
(31.6867 -18.0569 -4.5561e-15)
(31.7798 -25.0104 -4.51074e-15)
(31.1434 -29.9246 0)
(30.0425 -32.1954 0)
(28.6302 -33.3009 3.34552e-15)
(27.5107 -33.7064 0)
(26.6285 -33.8438 4.62301e-18)
(25.7568 -34.1374 2.8278e-15)
(34.8499 3.5217 1.70432e-15)
(34.2759 -0.675431 -1.04334e-15)
(35.7212 -7.40028 -2.0546e-15)
(35.6142 -14.4866 0)
(35.3326 -21.639 0)
(34.1548 -27.0791 4.00334e-15)
(32.5022 -30.0129 0)
(30.7213 -31.3853 -6.73291e-15)
(29.0945 -31.999 -3.14409e-15)
(27.6734 -32.2793 5.8569e-15)
(26.4878 -32.4837 -8.24312e-15)
(25.4037 -32.7704 5.21141e-15)
(37.6091 2.11283 -7.08945e-19)
(37.8064 -2.89316 -9.60253e-16)
(39.1466 -9.7175 1.8844e-15)
(38.6949 -16.5159 2.26475e-18)
(37.4775 -22.7163 3.71175e-15)
(35.3869 -26.7035 -7.01783e-15)
(33.1569 -28.8477 6.38698e-15)
(31.1006 -29.8863 6.10058e-18)
(29.2388 -30.4963 0)
(27.6375 -30.8703 0)
(26.2728 -31.1752 9.98739e-15)
(25.0549 -31.5067 6.94881e-19)
(39.6263 -1.11546 -9.77518e-16)
(41.0397 -5.42093 -8.86199e-16)
(41.7328 -11.5419 0)
(40.8853 -17.3347 -3.40497e-15)
(38.8315 -22.2456 3.29224e-15)
(36.238 -25.3455 9.27369e-15)
(33.6795 -27.1724 5.78403e-15)
(31.3801 -28.2351 8.13234e-18)
(29.3666 -28.9404 -1.02506e-14)
(27.6221 -29.4491 4.86443e-15)
(26.1141 -29.8792 4.65204e-15)
(24.7787 -30.2968 2.97637e-18)
(41.9747 -3.15855 -6.11729e-19)
(43.8569 -7.28385 1.61621e-15)
(43.8203 -12.4077 0)
(42.5494 -17.0282 -3.00499e-15)
(39.97 -20.9524 -2.87488e-15)
(37.0581 -23.6718 5.58116e-18)
(34.2434 -25.4529 -1.03912e-14)
(31.7394 -26.6283 4.17991e-18)
(29.5585 -27.4765 -2.71233e-18)
(27.6682 -28.1299 4.54541e-15)
(26.0254 -28.6818 -4.37129e-15)
(24.5742 -29.1856 2.41243e-18)
(43.6242 -5.89953 -4.25419e-16)
(46.3569 -8.84213 7.32814e-16)
(45.4033 -12.5799 -4.10902e-15)
(43.8376 -16.1314 2.61445e-15)
(41.0284 -19.3612 0)
(37.9355 -21.896 0)
(34.9276 -23.7457 4.69028e-15)
(32.2247 -25.0913 9.07737e-15)
(29.8599 -26.113 -4.3956e-15)
(27.8082 -26.9171 -4.26439e-15)
(26.0225 -27.5822 -4.14776e-15)
(24.4482 -28.1595 0)
(46.6469 -7.11209 -7.90472e-16)
(48.3709 -9.28312 1.9403e-15)
(46.3909 -11.852 4.81877e-15)
(44.4183 -14.748 0)
(41.5216 -17.5582 4.52358e-15)
(38.4089 -20.0127 0)
(35.3614 -21.9856 3.12157e-18)
(32.5723 -23.5346 -4.20622e-15)
(30.0956 -24.7537 4.13029e-15)
(27.9253 -25.7193 0)
(26.0232 -26.4984 0)
(24.3418 -27.1422 -7.79152e-15)
(46.9814 -9.95131 2.1003e-23)
(48.0953 -8.83252 1.2105e-15)
(45.335 -10.3388 3.41135e-18)
(43.0931 -12.7897 -4.31149e-15)
(40.4239 -15.3781 -2.09629e-15)
(37.6222 -17.8582 -2.05008e-15)
(34.854 -20.0146 -4.02898e-15)
(32.2476 -21.7984 -1.19139e-14)
(29.8661 -23.2411 -3.9158e-15)
(27.7281 -24.3888 -7.74552e-15)
(25.8173 -25.2959 7.64596e-15)
(24.1055 -26.0111 7.53272e-15)
(43.8954 -4.56591 -1.2629e-15)
(43.133 -6.44755 -5.70517e-16)
(40.2623 -7.75544 2.84505e-18)
(38.5234 -10.1831 4.07472e-15)
(36.7713 -12.8618 0)
(34.8465 -15.4867 -3.86842e-15)
(32.8199 -17.8413 3.8063e-15)
(30.7672 -19.8513 3.76173e-15)
(28.7778 -21.5111 -1.12102e-14)
(26.9031 -22.8403 7.40679e-15)
(25.1591 -23.8796 -7.34214e-15)
(23.5541 -24.6648 0)
(22.1147 -38.7979 8.82407e-15)
(21.8228 -40.8622 -2.37864e-14)
(20.8793 -42.6021 5.99371e-15)
(19.6027 -43.2711 1.52085e-14)
(18.1429 -43.3539 -1.5044e-14)
(16.3994 -42.6708 2.98002e-15)
(14.6285 -41.2519 -1.6528e-18)
(12.7736 -38.9813 -2.95224e-15)
(10.9728 -35.9447 -5.95847e-15)
(8.96355 -32.023 0)
(5.46744 -26.7747 0)
(-0.502529 -24.7364 -6.03213e-16)
(27.9187 -34.6612 -2.75967e-19)
(27.5567 -35.5828 7.92926e-15)
(26.8505 -36.6934 -1.01457e-17)
(25.6923 -37.6486 0)
(24.1111 -38.4974 5.8992e-15)
(22.506 -38.863 0)
(20.9125 -38.7161 4.08748e-15)
(19.5067 -37.9994 6.38596e-15)
(18.4183 -36.7742 -4.54393e-15)
(17.4792 -34.4149 0)
(16.1224 -31.1372 0)
(11.8113 -31.5818 -1.03204e-19)
(25.2073 -35.5941 3.12274e-15)
(24.4912 -36.1554 -3.08965e-15)
(23.6857 -36.765 3.08327e-15)
(22.8115 -37.2455 0)
(21.9282 -37.5475 -3.09979e-15)
(21.0711 -37.5699 6.35238e-15)
(20.3574 -37.3048 -8.24111e-15)
(19.8701 -36.7304 -8.60093e-15)
(19.7204 -35.9309 5.36792e-15)
(19.7376 -34.437 0)
(19.5903 -32.0374 9.97322e-16)
(19.1835 -33.6419 -2.59443e-20)
(24.9474 -34.4306 2.72604e-15)
(24.1502 -34.7608 -5.34887e-15)
(23.3379 -35.1254 5.27813e-15)
(22.5275 -35.4656 -5.22597e-15)
(21.76 -35.7263 0)
(21.1079 -35.8526 2.65398e-15)
(20.6401 -35.8118 2.72886e-15)
(20.4252 -35.6107 1.42188e-15)
(20.5819 -35.2641 -2.76063e-15)
(21.2551 -34.5298 0)
(22.1823 -32.4916 -8.9112e-16)
(23.2617 -35.7796 1.42535e-15)
(24.4136 -33.0784 4.99138e-15)
(23.4934 -33.431 -2.41397e-15)
(22.6238 -33.8084 0)
(21.8233 -34.1701 0)
(21.1292 -34.4852 2.30615e-15)
(20.5917 -34.7343 -2.24387e-15)
(20.3126 -34.8897 -2.7147e-18)
(20.299 -34.9663 0)
(20.7017 -35.0073 -1.24486e-15)
(21.6582 -34.8474 1.3316e-15)
(23.2325 -33.5616 -1.6483e-15)
(25.8222 -37.7723 0)
(23.958 -31.8559 -9.17076e-15)
(22.9606 -32.2369 4.44213e-15)
(22.0496 -32.6385 8.66803e-15)
(21.2377 -33.0411 1.33978e-20)
(20.5565 -33.4303 -1.05267e-14)
(20.0511 -33.7991 -4.20753e-15)
(19.7828 -34.1584 -2.63363e-18)
(19.8149 -34.5244 0)
(20.2628 -34.9117 0)
(21.2796 -35.3816 -1.30961e-15)
(23.2708 -34.7586 -7.76376e-16)
(26.7511 -39.5016 4.87715e-16)
(23.5815 -30.7131 4.3105e-15)
(22.499 -31.142 -8.37369e-15)
(21.5205 -31.582 -4.08167e-15)
(20.6547 -32.0295 -2.30229e-18)
(19.9271 -32.486 3.94381e-15)
(19.3762 -32.9626 3.91046e-15)
(19.0531 -33.485 1.95917e-15)
(19.0163 -34.0916 1.99221e-15)
(19.3704 -34.8164 -2.08998e-15)
(20.3027 -35.7706 0)
(22.2683 -35.944 1.38593e-15)
(26.6187 -40.9406 -9.09226e-16)
(23.2757 -29.6613 0)
(22.1015 -30.1265 4.00215e-15)
(21.0393 -30.5884 0)
(20.0917 -31.056 -2.17926e-18)
(19.2778 -31.5455 9.07214e-20)
(18.6279 -32.0845 7.42647e-15)
(18.1801 -32.7191 -1.83649e-15)
(17.985 -33.5143 -3.68859e-15)
(18.131 -34.5337 -1.90253e-15)
(18.8137 -35.958 1.03816e-15)
(20.5488 -36.9424 -1.87582e-15)
(25.1433 -41.9362 8.4785e-16)
(23.0416 -28.6738 3.94952e-15)
(21.7658 -29.1488 -3.86657e-15)
(20.6063 -29.5991 -3.79197e-15)
(19.5559 -30.0439 3.71791e-15)
(18.6263 -30.5134 3.64453e-15)
(17.8373 -31.0512 -1.07268e-14)
(17.2112 -31.7266 0)
(16.7808 -32.6353 1.7365e-15)
(16.6039 -33.8813 1.75759e-15)
(16.86 -35.7153 0)
(18.1218 -37.5609 1.69715e-15)
(22.3948 -42.4664 -3.94565e-16)
(22.8364 -27.6744 0)
(21.4602 -28.1281 -7.51293e-15)
(20.2013 -28.5267 -3.69772e-15)
(19.0409 -28.8988 -7.24955e-15)
(17.9829 -29.2866 3.55204e-15)
(17.0342 -29.7507 3.47336e-15)
(16.1961 -30.386 0)
(15.4758 -31.3144 0)
(14.8834 -32.6867 0)
(14.5519 -34.8325 0)
(14.9551 -37.3431 -5.12542e-16)
(18.0915 -42.2813 -7.36274e-16)
(22.5531 -26.5463 3.709e-15)
(21.1054 -26.9502 3.64176e-15)
(19.7702 -27.2554 1.43653e-14)
(18.5136 -27.504 3.53831e-15)
(17.3354 -27.7528 1.3862e-14)
(16.2307 -28.0784 -3.38528e-15)
(15.1763 -28.6015 -3.30485e-15)
(14.1473 -29.4555 0)
(13.0866 -30.835 -3.15949e-15)
(12.0741 -33.1291 -1.6127e-15)
(11.1775 -35.958 -9.36889e-16)
(11.8298 -41.0856 0)
(22.0566 -25.1759 0)
(20.5947 -25.4942 0)
(19.2273 -25.6603 -1.38803e-14)
(17.9112 -25.7355 -1.02649e-14)
(16.6459 -25.8004 -3.35868e-15)
(15.4139 -25.9498 0)
(14.1743 -26.3235 3.21178e-15)
(12.8705 -27.0362 0)
(11.3641 -28.3108 -1.93449e-18)
(9.63701 -30.4205 1.52264e-15)
(7.14557 -33.7386 4.17346e-16)
(-0.444826 -38.2164 -1.83008e-19)
(-0.959736 -21.821 -2.10111e-16)
(-1.39142 -18.966 -3.27669e-15)
(-2.77569 -17.5262 3.32928e-15)
(-4.29625 -16.1804 -3.33797e-15)
(-5.58948 -15.6717 0)
(-6.9383 -15.2933 3.33969e-15)
(-7.69254 -15.2186 0)
(-9.67933 -17.1421 2.95965e-15)
(-17.6628 -15.0949 -9.19813e-15)
(-29.1078 -15.005 9.2882e-15)
(-32.8008 -19.9392 1.88163e-14)
(-35.4802 -21.6382 -5.81901e-15)
(5.22887 -25.5575 0)
(3.12738 -22.183 -2.78204e-15)
(-0.232217 -22.1012 2.83231e-15)
(-3.60533 -21.5373 2.81787e-15)
(-6.26104 -21.7957 -5.71341e-15)
(-9.25002 -23.3646 -2.71891e-19)
(-15.5669 -23.9729 -5.73294e-15)
(-24.7087 -25.7726 -1.33143e-14)
(-30.4047 -26.5497 1.45279e-14)
(-32.472 -26.5659 -4.61456e-15)
(-32.9874 -27.502 7.96621e-18)
(-33.6429 -27.4963 5.41447e-18)
(5.05216 -28.9149 0)
(2.30189 -25.5098 0)
(-2.59594 -26.0226 0)
(-7.19543 -25.667 -2.48155e-15)
(-12.4696 -26.1785 0)
(-19.5818 -27.4506 -2.52812e-15)
(-26.9937 -28.4497 4.99311e-15)
(-31.6579 -28.6854 9.48685e-15)
(-33.8018 -28.0091 -3.83287e-15)
(-34.5775 -27.0409 -7.26448e-15)
(-34.6586 -26.4945 -1.00294e-14)
(-35.0818 -25.8186 9.64612e-15)
(6.35512 -32.445 0)
(1.98473 -30.1571 -1.1458e-15)
(-4.26572 -31.3979 2.24295e-15)
(-10.7643 -31.2361 2.26096e-15)
(-18.0557 -31.686 0)
(-25.0095 -31.7792 -9.03858e-15)
(-29.9244 -31.143 8.65832e-15)
(-32.1955 -30.0421 0)
(-33.301 -28.6299 6.68159e-15)
(-33.7065 -27.5105 -9.4149e-15)
(-33.8439 -26.6282 5.93756e-15)
(-34.1374 -25.7566 4.92479e-18)
(3.52214 -34.8499 -6.77765e-23)
(-0.67488 -34.2754 2.08916e-15)
(-7.39957 -35.7206 3.02098e-18)
(-14.4857 -35.6136 0)
(-21.6383 -35.3321 -4.13344e-15)
(-27.0789 -34.1544 7.99498e-15)
(-30.0131 -32.5019 0)
(-31.3855 -30.721 -3.36852e-15)
(-31.9992 -29.0943 -3.14791e-15)
(-32.2795 -27.6732 5.85709e-15)
(-32.4838 -26.4876 0)
(-32.7705 -25.4035 -5.20814e-15)
(2.11356 -37.6092 5.25097e-16)
(-2.89242 -37.8062 2.02699e-18)
(-9.7168 -39.1464 -1.88442e-15)
(-16.5153 -38.6946 -7.56604e-15)
(-22.716 -37.4775 -2.19047e-18)
(-26.7037 -35.3868 7.02016e-15)
(-28.8481 -33.1568 0)
(-29.8866 -31.1005 9.02361e-15)
(-30.4966 -29.2387 -5.61099e-15)
(-30.8705 -27.6373 5.26965e-15)
(-31.1753 -26.2727 2.90669e-18)
(-31.5068 -25.0547 -6.94937e-19)
(-1.11474 -39.6265 -1.46632e-15)
(-5.42025 -41.0397 -8.83441e-16)
(-11.5414 -41.733 0)
(-17.3344 -40.8855 6.81412e-15)
(-22.2456 -38.8318 -9.87154e-15)
(-25.3457 -36.2382 -1.574e-18)
(-27.1727 -33.6795 -1.15626e-14)
(-28.2354 -31.3801 5.10283e-18)
(-28.9406 -29.3665 -5.12264e-15)
(-29.4493 -27.622 -4.86829e-15)
(-29.8793 -26.114 4.65219e-15)
(-30.2969 -24.7786 -4.46205e-15)
(-3.15794 -41.9749 1.36471e-15)
(-7.28335 -43.8572 -8.08727e-16)
(-12.4074 -43.8207 0)
(-17.028 -42.5499 3.00507e-15)
(-20.9524 -39.9704 2.87344e-15)
(-23.672 -37.0584 2.72989e-15)
(-25.4532 -34.2435 -4.80017e-18)
(-26.6285 -31.7395 -1.34405e-18)
(-27.4766 -29.5585 -4.73836e-15)
(-28.1301 -27.6682 -6.37435e-18)
(-28.682 -26.0254 2.49989e-18)
(-29.1857 -24.5741 0)
(-5.89918 -43.6245 4.24702e-16)
(-8.84183 -46.3572 0)
(-12.5796 -45.4038 0)
(-16.1312 -43.8381 -2.61449e-15)
(-19.3611 -41.0289 2.5125e-15)
(-21.8961 -37.9359 -4.85329e-15)
(-23.7458 -34.9278 0)
(-25.0915 -32.2249 4.53763e-15)
(-26.1132 -29.86 -2.41128e-18)
(-26.9172 -27.8082 4.2645e-15)
(-27.5823 -26.0225 -4.15249e-15)
(-28.1596 -24.4482 8.09253e-15)
(-7.11194 -46.6472 -3.37502e-19)
(-9.28295 -48.3712 -6.46978e-16)
(-11.8518 -46.3913 -2.41129e-15)
(-14.7478 -44.4188 -4.6555e-15)
(-17.5581 -41.5221 0)
(-20.0128 -38.4093 4.39667e-15)
(-21.9857 -35.3617 -8.59945e-15)
(-23.5348 -32.5725 4.20703e-15)
(-24.7538 -30.0958 4.13038e-15)
(-25.7194 -27.9254 0)
(-26.4985 -26.0232 -3.97546e-15)
(-27.1423 -24.3419 -7.78395e-15)
(-9.95135 -46.9814 -7.05921e-16)
(-8.83243 -48.0955 6.04541e-16)
(-10.3387 -45.3353 2.22755e-15)
(-12.7895 -43.0934 2.15082e-15)
(-15.378 -40.4243 -4.91679e-19)
(-17.8581 -37.6225 -6.15352e-15)
(-20.0146 -34.8542 8.05144e-15)
(-21.7985 -32.2478 1.58819e-14)
(-23.2412 -29.8663 -1.17555e-14)
(-24.3889 -27.7282 -7.74569e-15)
(-25.296 -25.8173 7.63902e-15)
(-26.0112 -24.1056 0)
(-4.56597 -43.8953 1.26171e-15)
(-6.44751 -43.133 5.72979e-16)
(-7.75532 -40.2623 1.05091e-15)
(-10.183 -38.5235 4.07944e-15)
(-12.8617 -36.7715 0)
(-15.4866 -34.8467 3.8648e-15)
(-17.8413 -32.8201 -7.61946e-15)
(-19.8513 -30.7674 -3.76456e-15)
(-21.5112 -28.7779 -3.73583e-15)
(-22.8404 -26.9032 7.40692e-15)
(-23.8797 -25.1592 3.67563e-15)
(-24.6649 -23.5541 1.09106e-14)
(-38.7977 -22.1143 -2.94172e-15)
(-40.862 -21.8225 2.98464e-15)
(-42.6019 -20.879 -9.00961e-15)
(-43.2709 -19.6024 2.73721e-14)
(-43.3537 -18.1427 -1.20307e-14)
(-42.6706 -16.3993 0)
(-41.2517 -14.6284 -5.91605e-15)
(-38.9811 -12.7735 4.42763e-15)
(-35.9446 -10.9728 0)
(-32.0229 -8.96353 1.02641e-18)
(-26.7746 -5.46741 0)
(-24.7364 0.502562 4.02064e-16)
(-34.6611 -27.9184 -1.62068e-14)
(-35.5826 -27.5565 7.93957e-15)
(-36.6933 -26.8504 7.84928e-15)
(-37.6484 -25.6921 -3.95363e-15)
(-38.4972 -24.111 0)
(-38.8629 -22.5059 0)
(-38.7159 -20.9124 4.08944e-15)
(-37.9993 -19.5066 -4.25816e-15)
(-36.7741 -18.4182 0)
(-34.4149 -17.4791 1.17311e-15)
(-31.1372 -16.1223 -1.47712e-19)
(-31.5818 -11.8111 -1.49526e-15)
(-35.5941 -25.2071 3.12736e-15)
(-36.1553 -24.491 -6.18554e-15)
(-36.7649 -23.6855 0)
(-37.2455 -22.8113 -6.18595e-15)
(-37.5474 -21.928 -6.20418e-15)
(-37.5699 -21.071 1.27043e-14)
(-37.3047 -20.3573 -9.8905e-15)
(-36.7303 -19.87 0)
(-35.9309 -19.7203 0)
(-34.4369 -19.7375 0)
(-32.0374 -19.5902 -9.96846e-16)
(-33.642 -19.1833 0)
(-34.4306 -24.9472 -2.72612e-15)
(-34.7608 -24.15 -4.08804e-18)
(-35.1254 -23.3377 0)
(-35.4656 -22.5273 -3.90408e-18)
(-35.7263 -21.7598 0)
(-35.8526 -21.1078 0)
(-35.8117 -20.6399 2.73068e-15)
(-35.6107 -20.4251 -2.846e-15)
(-35.2641 -20.5818 2.76213e-15)
(-34.5298 -21.255 0)
(-32.4916 -22.1822 -8.92923e-16)
(-35.7796 -23.2615 1.13995e-15)
(-33.0784 -24.4135 9.98618e-15)
(-33.431 -23.4932 -2.41404e-15)
(-33.8084 -22.6237 4.70714e-15)
(-34.1701 -21.8232 2.31576e-15)
(-34.4852 -21.129 -6.9157e-15)
(-34.7342 -20.5916 0)
(-34.8897 -20.3125 -2.19762e-15)
(-34.9663 -20.2989 0)
(-35.0072 -20.7015 0)
(-34.8474 -21.6581 1.33163e-15)
(-33.5616 -23.2324 3.85966e-19)
(-37.7724 -25.822 1.3517e-18)
(-31.856 -23.9579 -4.58287e-15)
(-32.237 -22.9605 -2.93294e-18)
(-32.6386 -22.0495 0)
(-33.0411 -21.2376 0)
(-33.4303 -20.5564 -6.3193e-15)
(-33.7991 -20.051 4.20523e-15)
(-34.1584 -19.7827 4.25404e-15)
(-34.5244 -19.8148 2.19416e-15)
(-34.9118 -20.2627 -4.67682e-15)
(-35.3816 -21.2795 -1.30964e-15)
(-34.7586 -23.2707 0)
(-39.5016 -26.7509 4.87716e-16)
(-30.7132 -23.5814 -8.62367e-15)
(-31.142 -22.499 4.18064e-15)
(-31.5821 -21.5204 4.08436e-15)
(-32.0295 -20.6546 2.27268e-18)
(-32.4861 -19.927 -4.65653e-18)
(-32.9627 -19.3761 -3.91547e-15)
(-33.4851 -19.053 -5.87595e-15)
(-34.0917 -19.0162 -1.99369e-15)
(-34.8164 -19.3704 2.08845e-15)
(-35.7706 -20.3026 0)
(-35.9441 -22.2682 2.08108e-15)
(-40.9406 -26.6185 -1.36405e-15)
(-29.6613 -23.2757 8.21708e-15)
(-30.1265 -22.1014 -4.00907e-15)
(-30.5885 -21.0393 -3.91547e-15)
(-31.0561 -20.0916 -7.66687e-15)
(-31.5456 -19.2777 7.5326e-15)
(-32.0846 -18.6278 -2.09195e-18)
(-32.7192 -18.18 1.10322e-14)
(-33.5144 -17.9849 1.84262e-15)
(-34.5338 -18.1309 1.90258e-15)
(-35.9581 -18.8136 0)
(-36.9424 -20.5487 -1.24968e-15)
(-41.9362 -25.1432 4.24688e-16)
(-28.6739 -23.0416 0)
(-29.1489 -21.7658 3.86461e-15)
(-29.5992 -20.6063 3.7882e-15)
(-30.044 -19.5558 -3.71621e-15)
(-30.5135 -18.6262 -1.73033e-18)
(-31.0513 -17.8372 -3.57753e-15)
(-31.7267 -17.2111 -3.51132e-15)
(-32.6354 -16.7807 0)
(-33.8814 -16.6038 -1.75764e-15)
(-35.7154 -16.8599 -9.43581e-16)
(-37.5609 -18.1218 2.82794e-15)
(-42.4665 -22.3948 -3.92519e-16)
(-27.6745 -22.8364 0)
(-28.1282 -21.4602 0)
(-28.5269 -20.2013 0)
(-28.8989 -19.0409 -1.08805e-14)
(-29.2867 -17.9829 7.10409e-15)
(-29.7509 -17.0342 6.94869e-15)
(-30.3861 -16.196 0)
(-31.3146 -15.4758 -3.32737e-15)
(-32.6868 -14.8834 0)
(-34.8326 -14.5519 -1.73404e-15)
(-37.3431 -14.955 -5.12548e-16)
(-42.2814 -18.0915 -7.34315e-16)
(-26.5465 -22.5531 0)
(-26.9504 -21.1055 0)
(-27.2556 -19.7702 7.18594e-15)
(-27.5041 -18.5136 1.06036e-14)
(-27.7529 -17.3354 4.14135e-18)
(-28.0785 -16.2306 3.38667e-15)
(-28.6017 -15.1763 -1.65197e-15)
(-29.4556 -14.1473 4.82569e-15)
(-30.8351 -13.0866 3.15958e-15)
(-33.1292 -12.0741 1.6111e-15)
(-35.9581 -11.1775 -9.36902e-16)
(-41.0857 -11.8298 -1.37341e-15)
(-25.1761 -22.0566 0)
(-25.4944 -20.5947 0)
(-25.6604 -19.2273 -6.93762e-15)
(-25.7357 -17.9112 3.42511e-15)
(-25.8006 -16.6459 -3.35878e-15)
(-25.95 -15.4139 -3.28662e-15)
(-26.3237 -14.1743 3.21402e-15)
(-27.0364 -12.8704 0)
(-28.3109 -11.3641 -3.05503e-15)
(-30.4206 -9.63699 -1.5236e-15)
(-33.7387 -7.14559 1.25514e-15)
(-38.2164 0.444729 1.05101e-19)
(-21.821 0.959484 -1.82165e-19)
(-18.9658 1.39107 0)
(-17.5258 2.77544 0)
(-16.18 4.29617 -6.6739e-15)
(-15.6715 5.58945 1.0031e-14)
(-15.293 6.93845 0)
(-15.2187 7.69264 0)
(-17.1426 9.67993 2.95969e-15)
(-15.0943 17.6647 3.07221e-15)
(-15.0061 29.1085 9.29695e-15)
(-19.9398 32.8004 1.56727e-14)
(-21.6385 35.4802 -2.906e-15)
(-25.5576 -5.22927 -2.69553e-19)
(-22.1828 -3.12774 0)
(-22.1012 0.232174 0)
(-21.5372 3.60556 -2.81941e-15)
(-21.7959 6.26111 5.71526e-15)
(-23.3652 9.25068 -1.73693e-14)
(-23.9732 15.5686 1.14588e-14)
(-25.7737 24.7098 2.66766e-15)
(-26.5502 30.4046 -4.83666e-15)
(-26.5667 32.4715 7.34432e-18)
(-27.5025 32.9867 0)
(-27.4966 33.6425 -8.32904e-15)
(-28.9151 -5.05268 3.337e-16)
(-25.5101 -2.30213 0)
(-26.0231 2.59611 0)
(-25.6678 7.19604 -1.90264e-18)
(-26.1797 12.4712 2.28387e-18)
(-27.452 19.5842 -5.05054e-15)
(-28.4509 26.9949 0)
(-28.6865 31.6578 -1.42261e-14)
(-28.0097 33.8012 1.15029e-14)
(-27.0414 34.5768 -3.6339e-15)
(-26.4949 34.6578 -6.68744e-15)
(-25.8189 35.0812 9.64599e-15)
(-32.4452 -6.35491 1.23307e-15)
(-30.1582 -1.98413 1.14581e-15)
(-31.3992 4.26703 0)
(-31.2378 10.7665 2.26098e-15)
(-31.6878 18.0581 -2.27701e-15)
(-31.7808 25.0109 4.51076e-15)
(-31.1441 29.9241 0)
(-30.0431 32.1945 -3.93881e-15)
(-28.6305 33.3001 -1.0027e-14)
(-27.511 33.7055 6.2777e-15)
(-26.6287 33.8431 5.93743e-15)
(-25.7569 34.1367 -1.13237e-14)
(-34.8499 -3.52081 -5.67502e-16)
(-34.2767 0.676372 -1.04386e-15)
(-35.7221 7.4014 2.05462e-15)
(-35.6152 14.4877 0)
(-35.3335 21.6395 -8.26918e-15)
(-34.1554 27.0786 8.00173e-15)
(-32.5026 30.0119 3.662e-15)
(-30.7217 31.3842 3.3627e-15)
(-29.0949 31.998 0)
(-27.6736 32.2785 0)
(-26.4879 32.483 0)
(-25.4038 32.7698 -7.55635e-18)
(-37.6089 -2.11152 7.08942e-19)
(-37.8069 2.89439 0)
(-39.147 9.71854 -1.8844e-15)
(-38.6953 16.5166 3.7841e-15)
(-37.4778 22.716 3.71142e-15)
(-35.3871 26.7024 -7.01778e-15)
(-33.1573 28.8464 3.19359e-15)
(-31.1009 29.8852 -1.20338e-14)
(-29.2391 30.4954 -1.94762e-18)
(-27.6377 30.8695 -4.45476e-18)
(-26.2731 31.1746 2.90656e-18)
(-25.055 31.5062 1.42988e-14)
(-39.6259 1.11679 4.89451e-16)
(-41.0396 5.42207 1.77114e-15)
(-41.7325 11.5427 -3.4478e-15)
(-40.8849 17.3349 -3.4049e-15)
(-38.8312 22.245 -6.57672e-15)
(-36.238 25.3444 -3.09624e-15)
(-33.6797 27.1713 -5.78067e-15)
(-31.3804 28.2342 1.0849e-14)
(-29.3669 28.9396 0)
(-27.6224 29.4485 9.72963e-15)
(-26.1144 29.8787 -1.39371e-14)
(-24.7789 30.2964 4.46508e-15)
(-41.9742 3.1596 -9.09212e-16)
(-43.8564 7.28465 -2.42519e-15)
(-43.8194 12.4082 4.63643e-15)
(-42.5487 17.0282 0)
(-39.9695 20.9519 -2.87953e-15)
(-37.058 23.6709 5.46255e-15)
(-34.2436 25.452 -2.79203e-18)
(-31.7398 26.6275 1.34387e-18)
(-29.5589 27.4758 -4.73372e-15)
(-27.6687 28.1295 -9.08508e-15)
(-26.0258 28.6815 4.37359e-15)
(-24.5745 29.1854 -4.23289e-15)
(-43.6236 5.90002 -8.49408e-16)
(-46.3563 8.84266 0)
(-45.4024 12.5803 0)
(-43.8368 16.1315 0)
(-41.0279 19.3609 2.51244e-15)
(-37.9353 21.8954 0)
(-34.9277 23.745 -3.84558e-18)
(-32.2251 25.0908 9.07406e-15)
(-29.8604 26.1125 2.8704e-18)
(-27.8087 26.9168 4.26438e-15)
(-26.0229 27.582 -4.1503e-15)
(-24.4486 28.1594 1.21363e-14)
(-46.6465 7.11213 -1.58129e-15)
(-48.3705 9.28349 3.23693e-15)
(-46.3902 11.8523 -1.20452e-15)
(-44.4177 14.7482 0)
(-41.5211 17.5581 0)
(-38.4087 20.0124 0)
(-35.3615 21.9852 0)
(-32.5726 23.5342 4.20957e-15)
(-30.0961 24.7533 -1.65049e-14)
(-27.9258 25.719 -8.09641e-15)
(-26.0237 26.4983 7.94264e-15)
(-24.3423 27.1421 3.90173e-15)
(-46.9812 9.95119 -7.05927e-16)
(-48.0951 8.83278 -1.81373e-15)
(-45.3346 10.3391 -1.11646e-15)
(-43.0927 12.7899 0)
(-40.4235 15.3781 0)
(-37.622 17.858 4.1028e-15)
(-34.854 20.0143 -8.05625e-15)
(-32.2478 21.7981 1.58839e-14)
(-29.8665 23.2409 1.17591e-14)
(-27.7286 24.3886 7.73823e-15)
(-25.8177 25.2958 -7.63892e-15)
(-24.106 26.0111 6.89122e-18)
(-43.8954 4.56581 -1.1914e-18)
(-43.1331 6.44778 0)
(-40.2622 7.75568 2.10044e-15)
(-38.5232 10.1833 -6.11841e-15)
(-36.7711 12.8619 5.93887e-15)
(-34.8463 15.4866 3.64508e-18)
(-32.8198 17.8411 3.80639e-15)
(-30.7673 19.851 -3.76459e-15)