/*--------------------------------*- C++ -*----------------------------------*\
| =========                 |                                                 |
| \\      /  F ield         | OpenFOAM: The Open Source CFD Toolbox           |
|  \\    /   O peration     | Version:  2212                                  |
|   \\  /    A nd           | Website:  www.openfoam.com                      |
|    \\/     M anipulation  |                                                 |
\*---------------------------------------------------------------------------*/
FoamFile
{
    version     2.0;
    format      ascii;
    arch        "LSB;label=32;scalar=64";
    class       volScalarField;
    location    "0.01";
    object      nut;
}
// * * * * * * * * * * * * * * * * * * * * * * * * * * * * * * * * * * * * * //

dimensions      [0 2 -1 0 0 0 0];

internalField   nonuniform List<scalar> 
3072
(
0.000357514
0.000724305
0.000762381
0.000743437
0.000706642
0.000733782
0.00104748
0.00154355
0.00173194
0.00180935
0.00186998
0.00190184
0.000571805
0.00134748
0.00171886
0.00102871
0.00107397
0.0015007
0.00201233
0.00291342
0.00406521
0.00564223
0.00733469
0.00900384
0.000758134
0.00270119
0.00241149
0.00211018
0.0025508
0.00368543
0.00525895
0.00738403
0.00997862
0.0125303
0.0148678
0.0168098
0.00091967
0.00354498
0.00367336
0.0038583
0.00514132
0.0071566
0.00952013
0.012377
0.0152901
0.0180309
0.0204046
0.0223423
0.00104519
0.00476285
0.00551382
0.00617333
0.00801457
0.0104859
0.0132367
0.0162714
0.0192035
0.0218863
0.0241852
0.0261524
0.00113374
0.00557728
0.00714701
0.00841192
0.0104577
0.0130504
0.0159657
0.0189264
0.021734
0.0242586
0.0264861
0.0284398
0.00118784
0.00618012
0.00825358
0.010016
0.0122772
0.0149341
0.0177601
0.0205527
0.0231551
0.0255618
0.0277384
0.0296447
0.00124352
0.00672358
0.00928592
0.0113413
0.0136614
0.0162303
0.018885
0.0214761
0.0239077
0.0261113
0.0280846
0.0298454
0.00128092
0.00718427
0.0101814
0.0125423
0.0149071
0.0172561
0.0195754
0.0218588
0.0239828
0.0259443
0.0277314
0.0293392
0.00136666
0.00756317
0.0113445
0.0140379
0.0163561
0.0183964
0.0202599
0.0220658
0.0237925
0.0254271
0.0268891
0.0282907
0.00152441
0.00741779
0.0122286
0.0151602
0.0174432
0.0191674
0.0206053
0.0219139
0.0231997
0.0245063
0.0257966
0.0270374
0.00272677
0.00795993
0.0135606
0.0160099
0.0178677
0.0190933
0.0201543
0.0211716
0.022194
0.0232103
0.0242417
0.0254239
0.00192238
0.00192577
0.00192542
0.00191827
0.001896
0.00185715
0.00180085
0.00171876
0.00160687
0.00146806
0.00127972
0.000622571
0.0104594
0.0114628
0.011988
0.0119653
0.0114556
0.0106561
0.00948167
0.00801369
0.00622471
0.00382579
0.00183405
0.00104526
0.0182643
0.0191767
0.019635
0.0195203
0.0188989
0.0177539
0.0160438
0.0137598
0.0108885
0.00742565
0.00326472
0.00135971
0.0238958
0.0249464
0.0255514
0.0255935
0.0251678
0.024088
0.0222413
0.0195681
0.0159548
0.0113396
0.00564541
0.00165041
0.027776
0.028987
0.0298051
0.030113
0.0300063
0.0292162
0.0276114
0.0250046
0.0209773
0.01549
0.0082461
0.00193244
0.0301018
0.0314471
0.0324637
0.0330611
0.0333122
0.0330203
0.0319128
0.0296785
0.0258538
0.0197377
0.0112592
0.0022255
0.0312747
0.0326385
0.0337534
0.0346195
0.0352249
0.0354336
0.035008
0.0335216
0.0302249
0.0240735
0.0145105
0.00252854
0.0313971
0.0327484
0.0339206
0.034959
0.0358504
0.0364684
0.0367281
0.0362151
0.0339428
0.0281511
0.0176316
0.00286506
0.0307834
0.0320667
0.0332142
0.0343788
0.0355163
0.0365174
0.0373937
0.0378691
0.0368524
0.0319509
0.020501
0.00323343
0.0296203
0.0307977
0.0319398
0.0332475
0.0345283
0.035704
0.0369756
0.0382988
0.0386719
0.0354424
0.0238453
0.00362338
0.0282165
0.0292168
0.0303342
0.0317677
0.0331553
0.0344269
0.0358612
0.0376879
0.0390415
0.0377874
0.0277754
0.00405034
0.0267556
0.027606
0.0287203
0.0303797
0.0318287
0.0331278
0.0345335
0.0363417
0.0383425
0.0391968
0.0319421
0.00453004
0.000357637
0.000724539
0.000762575
0.0007436
0.000706831
0.000734072
0.00104838
0.00154421
0.00173256
0.00180989
0.00187051
0.00190236
0.000571974
0.00134764
0.00171885
0.00102838
0.00107433
0.00150146
0.00201346
0.00291526
0.00406734
0.00564503
0.00733796
0.00900721
0.000758341
0.00270135
0.00241142
0.00211035
0.00255206
0.00368751
0.00526157
0.00738767
0.00998294
0.0125352
0.0148729
0.0168149
0.000919907
0.0035452
0.00367337
0.00385887
0.00514304
0.00715938
0.00952348
0.0123817
0.0152956
0.0180368
0.0204105
0.0223484
0.00104546
0.00476324
0.00551395
0.00617393
0.00801641
0.0104886
0.0132407
0.0162765
0.0192093
0.0218924
0.0241913
0.0261588
0.00113403
0.00557795
0.00714751
0.00841268
0.0104594
0.0130532
0.0159697
0.0189312
0.0217394
0.0242641
0.0264919
0.0284458
0.00118814
0.00618083
0.00825432
0.0100171
0.0122789
0.0149369
0.0177636
0.0205569
0.0231596
0.025567
0.0277438
0.0296503
0.00124382
0.0067243
0.00928639
0.0113424
0.013663
0.0162326
0.0188878
0.0214794
0.0239114
0.0261153
0.0280888
0.0298497
0.00128118
0.00718477
0.0101823
0.0125425
0.0149072
0.0172565
0.0195763
0.0218608
0.0239851
0.0259472
0.0277345
0.0293423
0.00136688
0.00756357
0.0113447
0.0140374
0.0163552
0.0183954
0.0202591
0.0220653
0.0237932
0.0254274
0.0268898
0.0282926
0.0015246
0.00741879
0.0122288
0.0151596
0.0174419
0.0191657
0.0206035
0.0219122
0.0231993
0.0245069
0.0257977
0.0270381
0.00272667
0.00796017
0.0135598
0.0160086
0.0178665
0.0190919
0.020153
0.0211705
0.0221929
0.0232099
0.0242419
0.0254252
0.00192289
0.00192627
0.00192591
0.00191875
0.00189647
0.00185761
0.00180129
0.00171918
0.00160726
0.0014684
0.00128006
0.000622758
0.0104629
0.0114663
0.0119911
0.011968
0.011458
0.0106582
0.00948344
0.00801518
0.00622599
0.00382677
0.00183451
0.00104551
0.0182695
0.0191816
0.0196401
0.0195251
0.0189032
0.0177579
0.0160473
0.0137628
0.0108908
0.00742715
0.00326547
0.00135998
0.023902
0.0249522
0.0255575
0.0255995
0.0251731
0.0240929
0.0222454
0.0195722
0.0159578
0.0113417
0.00564654
0.00165072
0.0277826
0.0289932
0.0298111
0.0301192
0.0300121
0.0292217
0.0276162
0.0250089
0.0209809
0.0154926
0.00824764
0.00193277
0.0301079
0.0314532
0.0324697
0.0330668
0.0333175
0.0330254
0.0319176
0.0296829
0.0258576
0.0197407
0.011261
0.00222586
0.0312802
0.032644
0.0337587
0.0346245
0.0352298
0.0354384
0.0350128
0.0335259
0.0302288
0.0240768
0.0145126
0.00252892
0.0314015
0.0327529
0.0339251
0.0349634
0.0358548
0.036473
0.0367321
0.0362191
0.0339465
0.0281543
0.0176339
0.00286548
0.0307867
0.0320701
0.0332177
0.0343819
0.0355193
0.0365205
0.0373966
0.0378717
0.0368551
0.031954
0.0205035
0.00323387
0.0296226
0.0308003
0.0319424
0.0332502
0.0345309
0.0357062
0.0369773
0.0383003
0.0386732
0.0354447
0.023848
0.00362384
0.0282174
0.0292182
0.0303362
0.0317698
0.033157
0.034428
0.0358616
0.0376881
0.0390421
0.0377884
0.0277783
0.00405081
0.0267562
0.0276061
0.0287216
0.0303811
0.0318291
0.0331275
0.0345325
0.0363408
0.0383412
0.0391968
0.0319453
0.00453049
0.000357592
0.000724449
0.000762501
0.000743538
0.000706758
0.00073396
0.00104803
0.00154398
0.00173234
0.0018097
0.00187033
0.00190218
0.000571913
0.00134758
0.00171886
0.00102851
0.00107419
0.00150117
0.00201301
0.00291453
0.00406649
0.00564391
0.00733665
0.00900585
0.000758268
0.00270129
0.00241144
0.00211028
0.00255156
0.00368668
0.00526053
0.00738623
0.00998123
0.0125332
0.0148709
0.0168128
0.000919827
0.00354513
0.00367335
0.00385866
0.00514238
0.00715831
0.0095222
0.0123799
0.0152935
0.0180345
0.0204082
0.022346
0.00104537
0.00476313
0.00551393
0.00617375
0.00801576
0.0104876
0.0132392
0.0162746
0.0192072
0.0218901
0.024189
0.0261564
0.00113394
0.00557775
0.00714738
0.0084125
0.0104589
0.0130523
0.0159683
0.0189295
0.0217375
0.0242622
0.0264899
0.0284436
0.00118804
0.00618064
0.00825414
0.0100168
0.0122784
0.014936
0.0177625
0.0205556
0.0231582
0.0255653
0.027742
0.0296484
0.00124372
0.00672414
0.00928635
0.0113422
0.0136626
0.016232
0.0188871
0.0214785
0.0239103
0.0261141
0.0280875
0.0298483
0.00128111
0.00718469
0.0101821
0.0125425
0.0149073
0.0172565
0.0195762
0.0218603
0.0239845
0.0259463
0.0277336
0.0293413
0.00136682
0.00756343
0.0113445
0.0140373
0.0163552
0.0183955
0.0202593
0.0220654
0.0237929
0.0254272
0.0268894
0.0282916
0.00152454
0.00741797
0.012228
0.0151585
0.017441
0.0191651
0.0206031
0.0219118
0.0231986
0.0245058
0.0257963
0.0270368
0.00272675
0.00795903
0.0135591
0.0160073
0.017865
0.0190905
0.0201514
0.0211688
0.0221912
0.023208
0.0242396
0.0254222
0.00192271
0.00192609
0.00192574
0.00191859
0.00189631
0.00185746
0.00180115
0.00171905
0.00160714
0.0014683
0.00127996
0.000622706
0.0104615
0.0114648
0.0119898
0.0119668
0.0114569
0.0106572
0.00948264
0.00801453
0.00622545
0.00382637
0.00183436
0.00104544
0.0182674
0.0191796
0.0196379
0.019523
0.0189013
0.0177561
0.0160457
0.0137615
0.0108899
0.00742655
0.00326517
0.00135991
0.0238995
0.0249498
0.025555
0.0255969
0.0251708
0.0240907
0.0222433
0.0195705
0.0159565
0.0113408
0.00564608
0.00165063
0.0277801
0.0289908
0.0298087
0.0301166
0.0300097
0.0292193
0.027614
0.025007
0.0209793
0.0154915
0.008247
0.00193268
0.0301057
0.0314509
0.0324674
0.0330645
0.0333152
0.0330231
0.0319154
0.0296809
0.0258559
0.0197393
0.0112602
0.00222576
0.0312783
0.032642
0.0337566
0.0346224
0.0352276
0.0354361
0.0350105
0.0335238
0.030227
0.0240753
0.0145117
0.00252881
0.0314
0.0327512
0.0339232
0.0349614
0.0358526
0.0364706
0.0367299
0.036217
0.0339446
0.0281529
0.017633
0.00286536
0.0307854
0.0320686
0.033216
0.0343801
0.0355173
0.0365184
0.0373946
0.03787
0.0368535
0.0319526
0.0205025
0.00323375
0.0296212
0.0307986
0.0319404
0.033248
0.0345286
0.0357041
0.0369755
0.0382988
0.0386722
0.0354436
0.023847
0.00362372
0.0282157
0.0292162
0.0303336
0.0317669
0.0331544
0.0344258
0.03586
0.0376869
0.0390412
0.0377879
0.0277775
0.0040507
0.0267535
0.0276035
0.0287181
0.0303777
0.0318265
0.0331256
0.0345314
0.0363401
0.0383413
0.039197
0.0319445
0.0045304
0.000357546
0.000724396
0.000762431
0.00074345
0.00070668
0.000733891
0.00104794
0.00154383
0.00173222
0.00180959
0.00187022
0.00190207
0.000571849
0.00134765
0.00171877
0.00102823
0.00107418
0.00150124
0.00201308
0.00291459
0.00406663
0.00564406
0.00733684
0.0090061
0.000758212
0.00270126
0.00241154
0.00211052
0.00255226
0.00368741
0.00526117
0.00738682
0.0099818
0.0125338
0.0148715
0.0168136
0.000919757
0.00354562
0.00367422
0.00385998
0.00514373
0.00715956
0.00952332
0.0123807
0.0152942
0.0180352
0.0204091
0.022347
0.0010453
0.00476375
0.00551533
0.00617577
0.00801745
0.0104891
0.0132404
0.0162755
0.0192079
0.0218909
0.02419
0.0261575
0.00113386
0.00557827
0.00714878
0.00841456
0.0104606
0.0130538
0.0159694
0.0189305
0.0217385
0.0242632
0.026491
0.028445
0.00118797
0.00618123
0.00825559
0.0100187
0.0122803
0.0149377
0.0177639
0.0205568
0.0231595
0.0255665
0.0277434
0.0296499
0.00124366
0.0067247
0.00928801
0.0113441
0.0136646
0.0162339
0.0188888
0.0214801
0.0239119
0.0261158
0.0280893
0.0298503
0.00128107
0.00718531
0.0101835
0.0125449
0.01491
0.0172593
0.0195789
0.0218625
0.0239866
0.0259484
0.0277358
0.0293437
0.00136679
0.00756396
0.0113461
0.0140398
0.0163583
0.0183988
0.0202626
0.0220687
0.0237957
0.0254304
0.0268926
0.0282945
0.00152453
0.00741788
0.012229
0.0151606
0.0174439
0.0191684
0.0206066
0.0219156
0.0232018
0.0245088
0.0257993
0.0270401
0.00272688
0.00795923
0.0135598
0.0160091
0.0178671
0.019093
0.0201543
0.0211719
0.0221946
0.0232113
0.024243
0.0254254
0.0019226
0.00192599
0.00192563
0.00191848
0.00189619
0.00185733
0.00180102
0.00171891
0.00160699
0.00146816
0.00127979
0.000622604
0.0104618
0.0114654
0.0119906
0.0119678
0.011458
0.0106583
0.00948351
0.00801512
0.00622574
0.00382634
0.00183423
0.00104531
0.0182683
0.0191807
0.019639
0.0195242
0.0189025
0.0177573
0.0160467
0.0137622
0.0108903
0.00742675
0.00326513
0.00135978
0.0239006
0.0249512
0.0255563
0.0255983
0.0251722
0.0240921
0.0222447
0.0195716
0.0159572
0.0113411
0.00564606
0.0016505
0.0277813
0.0289923
0.0298104
0.0301184
0.0300116
0.0292213
0.0276159
0.0250087
0.0209804
0.0154921
0.00824701
0.00193254
0.0301072
0.0314527
0.0324694
0.0330669
0.0333179
0.0330258
0.031918
0.0296831
0.0258575
0.0197403
0.0112603
0.00222562
0.0312801
0.0326442
0.0337592
0.0346253
0.0352308
0.0354396
0.0350139
0.0335268
0.0302292
0.0240765
0.0145118
0.00252866
0.0314023
0.0327538
0.0339262
0.0349648
0.0358565
0.0364748
0.0367343
0.036221
0.0339477
0.0281545
0.0176331
0.0028652
0.0307882
0.0320717
0.0332194
0.0343841
0.0355218
0.0365233
0.0373999
0.0378751
0.0368576
0.0319547
0.0205026
0.00323357
0.0296243
0.030802
0.0319443
0.0332522
0.0345333
0.0357095
0.0369815
0.0383049
0.0386775
0.0354465
0.023847
0.00362353
0.0282193
0.0292201
0.0303377
0.0317713
0.0331595
0.0344316
0.0358665
0.0376938
0.0390479
0.0377924
0.0277772
0.00405049
0.0267573
0.027608
0.0287225
0.0303822
0.0318318
0.0331315
0.0345379
0.0363474
0.0383488
0.0392027
0.0319445
0.0045302
0.0165632
0.0167157
0.0175493
0.0184231
0.0191324
0.0196529
0.0202047
0.0208208
0.0215046
0.0222607
0.0230552
0.0241554
0.0256392
0.0227878
0.021696
0.0212718
0.0208199
0.0208253
0.0212201
0.0214828
0.0217984
0.0222569
0.0228
0.023978
0.0317178
0.0286619
0.0264148
0.0249169
0.0239328
0.0233295
0.0228261
0.0224796
0.0227742
0.0231378
0.0236141
0.0249938
0.0335529
0.0312418
0.029186
0.027533
0.0262855
0.0254111
0.0249065
0.0246583
0.0244372
0.0246117
0.0254437
0.0265685
0.0256575
0.026498
0.0277559
0.0295406
0.0308829
0.0321297
0.0334101
0.0351572
0.0369728
0.0394685
0.0406822
0.0184086
0.0253847
0.0263539
0.0279401
0.0294501
0.0305848
0.0317259
0.0327511
0.0339511
0.0353971
0.0377551
0.0424261
0.0302744
0.0261662
0.0275924
0.0288095
0.0298391
0.0305964
0.0315027
0.0323695
0.0333114
0.0342449
0.0358593
0.0398054
0.0355572
0.0281683
0.0289806
0.0297427
0.0306805
0.0313003
0.0319251
0.0325976
0.0330709
0.0337223
0.0344623
0.0364373
0.0357509
0.0165612
0.0167133
0.0175465
0.0184199
0.0191289
0.0196492
0.020201
0.0208175
0.0215015
0.0222582
0.0230531
0.024155
0.0256352
0.0227829
0.0216909
0.0212667
0.0208146
0.0208209
0.0212151
0.0214779
0.0217935
0.0222526
0.022796
0.0239763
0.0317116
0.0286551
0.0264078
0.0249104
0.0239261
0.0233232
0.0228195
0.0224738
0.0227693
0.023133
0.0236096
0.0249912
0.0335456
0.0312345
0.0291791
0.0275263
0.0262789
0.0254046
0.0249004
0.0246525
0.0244311
0.0246078
0.0254398
0.0265647
0.025656
0.0264962
0.027756
0.0295407
0.0308817
0.0321281
0.0334084
0.0351549
0.0369699
0.0394664
0.0406845
0.0184083
0.0253815
0.0263511
0.0279391
0.0294483
0.0305824
0.0317235
0.032748
0.0339476
0.035393
0.0377516
0.0424253
0.0302734
0.0261624
0.0275893
0.0288068
0.029836
0.030593
0.0314993
0.0323655
0.0333075
0.0342404
0.035855
0.0398022
0.0355548
0.0281652
0.0289763
0.0297388
0.0306767
0.0312965
0.0319214
0.0325936
0.0330671
0.0337181
0.034458
0.0364331
0.0357475
0.0165613
0.0167127
0.0175454
0.0184184
0.0191274
0.0196474
0.020199
0.0208152
0.0214991
0.0222555
0.0230502
0.024151
0.0256338
0.0227809
0.0216886
0.0212641
0.0208127
0.0208177
0.0212122
0.0214748
0.0217905
0.0222492
0.0227925
0.0239715
0.0317083
0.0286517
0.0264041
0.0249065
0.0239222
0.0233194
0.0228167
0.02247
0.0227648
0.0231288
0.0236054
0.0249865
0.0335424
0.031231
0.0291752
0.0275222
0.0262746
0.0253999
0.0248956
0.024648
0.0244278
0.0246035
0.0254362
0.0265619
0.0256527
0.0264932
0.0277519
0.0295373
0.0308796
0.0321269
0.0334078
0.0351553
0.0369712
0.039468
0.0406851
0.0184102
0.0253779
0.0263476
0.0279354
0.0294462
0.0305815
0.0317232
0.032749
0.0339494
0.0353957
0.0377545
0.0424277
0.0302764
0.026159
0.0275869
0.0288052
0.0298359
0.0305936
0.0315008
0.0323684
0.0333109
0.0342447
0.0358595
0.0398064
0.0355589
0.0281634
0.0289772
0.0297401
0.0306792
0.0313001
0.0319256
0.0325988
0.0330726
0.0337239
0.034464
0.0364388
0.0357527
0.0165635
0.016715
0.0175477
0.0184211
0.0191305
0.019651
0.0202029
0.0208193
0.0215034
0.0222599
0.0230547
0.0241551
0.0256375
0.022785
0.0216927
0.0212684
0.0208169
0.0208217
0.0212167
0.0214797
0.0217957
0.0222545
0.0227978
0.023976
0.031713
0.0286567
0.0264094
0.0249117
0.0239277
0.0233248
0.0228222
0.0224755
0.0227701
0.0231342
0.0236109
0.0249911
0.0335473
0.031236
0.0291805
0.0275276
0.0262803
0.0254058
0.0249014
0.0246537
0.0244338
0.0246084
0.0254411
0.0265668
0.0256575
0.0264984
0.0277566
0.029542
0.0308851
0.0321327
0.0334142
0.0351621
0.036979
0.0394752
0.0406866
0.0184106
0.0253834
0.0263531
0.02794
0.0294511
0.0305868
0.0317286
0.032755
0.0339559
0.0354033
0.037762
0.0424327
0.0302787
0.0261644
0.0275919
0.0288098
0.0298408
0.0305988
0.031506
0.0323741
0.0333166
0.0342514
0.0358665
0.0398132
0.0355636
0.0281677
0.028982
0.0297449
0.0306837
0.0313047
0.0319301
0.0326038
0.0330773
0.0337295
0.0344701
0.0364456
0.0357581
0.0302942
0.028788
0.0275956
0.0267282
0.0262388
0.0259859
0.0258524
0.0258726
0.0260912
0.0266059
0.0278396
0.0293627
0.0286552
0.0277183
0.0270286
0.0266136
0.0263974
0.0261322
0.0258906
0.0257423
0.025674
0.0256197
0.0259225
0.0269564
0.0276132
0.0269448
0.0265347
0.0261053
0.0255561
0.024986
0.0242665
0.0233919
0.0223042
0.0210701
0.0201104
0.0203835
0.0264137
0.0258832
0.025211
0.0244442
0.0235029
0.0223679
0.0209062
0.0190778
0.0168669
0.014347
0.0124743
0.0114222
0.0309992
0.0317657
0.0317318
0.0319299
0.0321982
0.0324579
0.0327458
0.0329295
0.0331381
0.0333076
0.032955
0.031866
0.0287454
0.0313778
0.0315613
0.0316003
0.0318119
0.0318902
0.0319496
0.0319085
0.031786
0.0314174
0.0306383
0.0297506
0.0234872
0.0295306
0.030628
0.0304676
0.0307185
0.0307557
0.030757
0.0306236
0.0303035
0.0297746
0.0291094
0.0284091
0.0134095
0.0270222
0.0292497
0.0290306
0.0293249
0.0293511
0.0293312
0.0290848
0.0287061
0.0282377
0.0276894
0.0270532
0.0302868
0.0287814
0.0275894
0.0267217
0.0262327
0.0259804
0.0258472
0.0258674
0.0260865
0.0266017
0.0278362
0.0293592
0.0286489
0.0277126
0.0270231
0.0266081
0.0263924
0.0261274
0.0258864
0.0257385
0.02567
0.0256153
0.0259179
0.0269517
0.027608
0.0269399
0.02653
0.0261004
0.0255519
0.0249817
0.0242625
0.0233877
0.0222995
0.0210649
0.0201048
0.0203779
0.0264094
0.0258788
0.0252067
0.0244402
0.0234989
0.0223638
0.020902
0.0190732
0.0168617
0.0143411
0.012469
0.0114173
0.030996
0.0317621
0.0317278
0.0319261
0.0321949
0.0324543
0.0327422
0.0329257
0.0331338
0.0333034
0.032951
0.0318619
0.0287412
0.0313742
0.031558
0.0315972
0.031809
0.031887
0.0319461
0.0319047
0.0317821
0.0314135
0.0306343
0.0297464
0.0234828
0.0295274
0.0306257
0.030465
0.030716
0.0307529
0.0307539
0.0306203
0.0303001
0.0297713
0.0291059
0.0284055
0.0134065
0.0270197
0.029248
0.0290285
0.029323
0.0293489
0.0293288
0.0290824
0.0287036
0.0282353
0.0276872
0.0270508
0.0302829
0.0287773
0.0275852
0.0267173
0.0262284
0.0259763
0.0258435
0.0258648
0.0260845
0.0266007
0.0278361
0.029361
0.028645
0.0277087
0.0270195
0.0266043
0.026389
0.0261253
0.0258845
0.0257377
0.0256704
0.0256171
0.0259209
0.0269563
0.0276051
0.0269367
0.026527
0.0260986
0.0255504
0.0249814
0.0242627
0.0233892
0.0223021
0.0210685
0.0201094
0.020383
0.0264073
0.0258774
0.025206
0.0244401
0.0234994
0.0223652
0.0209042
0.0190764
0.0168657
0.0143456
0.0124728
0.0114205
0.0309993
0.0317674
0.0317341
0.0319329
0.0322019
0.0324616
0.0327494
0.0329328
0.0331406
0.0333101
0.0329573
0.0318683
0.0287469
0.0313821
0.0315665
0.031606
0.0318176
0.0318954
0.0319542
0.0319124
0.0317895
0.0314205
0.0306414
0.0297535
0.0234883
0.0295363
0.0306351
0.0304747
0.0307251
0.0307617
0.0307623
0.0306282
0.0303075
0.0297784
0.029113
0.0284124
0.013409
0.0270281
0.0292577
0.0290385
0.0293323
0.0293578
0.0293372
0.0290901
0.028711
0.0282425
0.0276943
0.0270572
0.0302888
0.0287832
0.027591
0.0267237
0.0262346
0.0259822
0.0258492
0.0258704
0.0260897
0.0266056
0.0278402
0.0293649
0.0286513
0.0277149
0.0270256
0.0266105
0.0263949
0.0261308
0.0258897
0.0257424
0.0256749
0.0256218
0.0259254
0.0269606
0.0276113
0.0269428
0.0265329
0.0261044
0.0255558
0.0249865
0.0242676
0.0233939
0.0223069
0.0210736
0.0201144
0.0203879
0.0264132
0.0258832
0.0252117
0.0244453
0.0235045
0.0223701
0.020909
0.0190812
0.0168706
0.014351
0.0124775
0.0114249
0.0310028
0.031771
0.031738
0.0319366
0.0322052
0.0324655
0.0327535
0.0329372
0.0331459
0.0333157
0.0329632
0.0318742
0.0287507
0.0313852
0.0315691
0.0316085
0.0318199
0.0318982
0.0319574
0.0319161
0.0317937
0.0314249
0.0306458
0.0297581
0.0234918
0.0295384
0.0306363
0.030476
0.0307264
0.0307634
0.0307643
0.0306306
0.0303101
0.029781
0.0291157
0.0284152
0.0134114
0.0270293
0.0292578
0.0290389
0.0293324
0.0293583
0.0293379
0.0290909
0.0287119
0.0282434
0.027695
0.0270581
0.0246378
0.0238463
0.02287
0.0217034
0.0202597
0.0184919
0.0163071
0.0137051
0.0107605
0.0076327
0.00481651
0.00243202
0.0220392
0.0209365
0.0195851
0.0179661
0.0160021
0.0136601
0.0108947
0.00776872
0.00440134
0.00193028
0.00104207
0.000879184
0.0186398
0.0171795
0.0154171
0.0133327
0.0108633
0.00801241
0.00471261
0.00169531
0.000593687
0.000435463
0.000391726
0.000449482
0.0144902
0.012646
0.0104564
0.00791416
0.00491515
0.00192752
0.000692689
0.000415799
0.000399272
0.00039494
0.000389736
0.000380189
0.00967826
0.00744813
0.00480527
0.0021168
0.000763076
0.000508486
0.000422342
0.000404527
0.000400657
0.000392414
0.00038821
0.000382883
0.00431104
0.00204956
0.00076851
0.000424539
0.000443629
0.000427452
0.000417143
0.000413149
0.000407169
0.000403045
0.000399146
0.000396632
0.000669658
0.000543054
0.000454839
0.00044758
0.000439388
0.000435238
0.000429737
0.000425421
0.00042061
0.000415897
0.000413504
0.000410216
0.000484221
0.00047033
0.000462164
0.000457913
0.000452341
0.00044739
0.000443292
0.000438057
0.000433724
0.000429651
0.000426519
0.000423375
0.000483093
0.000478501
0.000473942
0.000468749
0.000464504
0.000459465
0.000454966
0.000450558
0.000446071
0.000442011
0.000439469
0.000435564
0.000484653
0.000480337
0.000475763
0.000471429
0.000467601
0.000463915
0.000460348
0.000456891
0.000453655
0.000450789
0.000448524
0.000445317
0.000425751
0.000426121
0.0004259
0.000425485
0.000425381
0.000425623
0.000426305
0.000427654
0.000428968
0.000432079
0.000436404
0.000439318
0.000128152
0.000128414
0.000128699
0.000128976
0.000129244
0.000129503
0.000129765
0.000130054
0.000130374
0.000130726
0.000131152
0.00013164
0.00429359
0.0239572
0.0276703
0.0273563
0.02767
0.0276915
0.0275378
0.027229
0.0268825
0.0265482
0.0261098
0.025383
0.00417203
0.022257
0.0259435
0.025431
0.025703
0.0255742
0.0253372
0.0251452
0.0249427
0.0245627
0.0238844
0.0229578
0.00408042
0.0205308
0.0237301
0.0232326
0.0232429
0.023079
0.0229736
0.0228419
0.0224937
0.0218445
0.0208957
0.0198449
0.00396488
0.0185121
0.0210059
0.0205989
0.020547
0.0204836
0.0203299
0.019998
0.01937
0.0184195
0.0173268
0.0160284
0.00380122
0.0161425
0.0178524
0.0177775
0.0177693
0.0175601
0.0172184
0.016518
0.0156376
0.0144988
0.0131723
0.0115689
0.00356379
0.0134564
0.0147413
0.0147682
0.0146526
0.0142322
0.0134946
0.0125875
0.0114792
0.0101092
0.00850676
0.0065742
0.00323143
0.0105
0.0114756
0.0114422
0.0111912
0.0104109
0.00947842
0.00833279
0.00695081
0.00526285
0.00344125
0.00169302
0.00277767
0.00729335
0.00802119
0.00786577
0.0073764
0.00631316
0.0050667
0.00370918
0.0024274
0.00124413
0.000673077
0.000497571
0.0021073
0.00358816
0.00418015
0.0039081
0.00338987
0.00234512
0.00145835
0.000857571
0.000606332
0.000522228
0.000504583
0.000490304
0.00136173
0.00106237
0.00127857
0.0011698
0.000963079
0.000661793
0.000537828
0.000506762
0.000506952
0.000496569
0.000493969
0.000489378
0.000760789
0.000324607
0.000413947
0.000418908
0.000420515
0.000410144
0.00041621
0.00041731
0.000421442
0.000423359
0.000424522
0.000424492
0.000184861
0.00013703
0.000137396
0.000132992
0.000133276
0.000129449
0.000129349
0.000127496
0.00012805
0.000127689
0.000127848
0.000127934
0.0246334
0.0238424
0.0228661
0.0216995
0.0202557
0.0184876
0.0163025
0.0137001
0.0107551
0.00762764
0.00481331
0.00243138
0.0220352
0.0209327
0.0195812
0.0179619
0.0159977
0.0136553
0.0108896
0.00776324
0.00439654
0.00192867
0.00104192
0.000879577
0.0186358
0.0171755
0.0154127
0.0133281
0.0108583
0.00800714
0.00470733
0.00169277
0.000593145
0.000436025
0.000392022
0.0004501
0.014486
0.0126416
0.0104516
0.00790893
0.00490944
0.00192358
0.000691773
0.000414857
0.000399305
0.000394893
0.000389643
0.000380299
0.00967375
0.00744332
0.00480005
0.00211268
0.000762031
0.00050816
0.000422298
0.000404526
0.000400673
0.000392445
0.000388235
0.000382896
0.00430645
0.00204611
0.000767559
0.000424419
0.000443697
0.000427445
0.000417145
0.00041315
0.000407167
0.000403046
0.000399143
0.000396628
0.000668513
0.000543132
0.000455
0.00044758
0.000439384
0.000435237
0.000429734
0.000425417
0.000420609
0.000415895
0.000413502
0.000410216
0.000484153
0.000470334
0.000462153
0.000457909
0.000452333
0.000447398
0.000443281
0.000438056
0.000433727
0.000429644
0.000426521
0.000423374
0.000483079
0.000478504
0.000473936
0.000468744
0.0004645
0.000459469
0.000454957
0.000450561
0.000446065
0.000442011
0.000439467
0.000435563
0.000484651
0.000480336
0.000475759
0.000471427
0.000467599
0.000463914
0.000460346
0.00045689
0.000453653
0.000450787
0.000448522
0.000445315
0.000425765
0.000426136
0.000425914
0.000425498
0.000425397
0.000425636
0.000426311
0.000427658
0.000428972
0.000432079
0.000436403
0.000439317
0.000128148
0.000128411
0.000128696
0.000128974
0.000129242
0.000129502
0.000129764
0.000130054
0.000130374
0.000130726
0.000131151
0.00013164
0.00429306
0.0239557
0.0276692
0.0273548
0.0276688
0.0276901
0.0275365
0.0272278
0.0268808
0.0265465
0.0261086
0.0253823
0.00417161
0.0222563
0.0259432
0.0254302
0.0257027
0.0255743
0.025337
0.0251447
0.0249422
0.0245626
0.0238852
0.0229587
0.00408007
0.0205308
0.0237306
0.0232331
0.0232438
0.0230798
0.0229742
0.0228429
0.022495
0.0218466
0.020898
0.0198476
0.00396461
0.0185131
0.021008
0.0206003
0.0205482
0.020485
0.020332
0.0200006
0.0193735
0.0184231
0.0173308
0.016033
0.00380106
0.0161444
0.0178551
0.0177791
0.0177716
0.0175631
0.0172219
0.016523
0.0156424
0.0145042
0.0131781
0.0115752
0.00356378
0.0134591
0.0147441
0.0147709
0.0146558
0.0142371
0.0134999
0.0125938
0.0114856
0.0101161
0.00851428
0.0065823
0.00323163
0.0105035
0.0114793
0.0114461
0.011196
0.0104167
0.00948501
0.00834059
0.0069591
0.00527193
0.00344957
0.00169884
0.00277816
0.00729814
0.00802595
0.00787103
0.00738229
0.00632017
0.00507488
0.00371698
0.00243455
0.00124853
0.000674462
0.000497801
0.00210809
0.00359325
0.00418591
0.00391366
0.00339551
0.00235039
0.00146255
0.000859687
0.000607265
0.000522485
0.000504663
0.00049024
0.00136252
0.0010646
0.00128139
0.00117225
0.000964947
0.000662643
0.000538104
0.000506822
0.000506988
0.000496561
0.000493976
0.000489379
0.000761247
0.000324769
0.000414202
0.000419108
0.000420625
0.000410103
0.000416248
0.000417313
0.000421457
0.000423375
0.000424536
0.000424502
0.000184892
0.000137038
0.000137405
0.000132998
0.00013328
0.000129448
0.00012935
0.000127495
0.00012805
0.000127688
0.000127847
0.000127933
0.0246334
0.0238427
0.0228672
0.0217011
0.020258
0.0184907
0.0163062
0.0137044
0.0107595
0.00763147
0.00481546
0.00243185
0.0220368
0.0209348
0.0195839
0.0179653
0.0160017
0.0136599
0.0108946
0.00776836
0.00440081
0.00192994
0.00104225
0.000879353
0.0186392
0.0171794
0.0154173
0.0133332
0.010864
0.00801315
0.00471341
0.00169549
0.000593687
0.000435638
0.000392113
0.000449708
0.0144911
0.0126472
0.0104579
0.00791572
0.00491687
0.00192859
0.000693028
0.000416137
0.000399327
0.000394961
0.000389781
0.000380243
0.0096805
0.00745063
0.00480792
0.00211856
0.000763442
0.000508525
0.000422372
0.00040453
0.000400672
0.000392431
0.000388223
0.00038289
0.00431477
0.00205214
0.000769439
0.000424966
0.000443203
0.000427451
0.000417141
0.000413147
0.000407165
0.00040304
0.000399147
0.000396629
0.00067027
0.000542822
0.000454608
0.000447564
0.000439391
0.000435226
0.000429739
0.000425415
0.000420609
0.000415893
0.000413506
0.000410217
0.000484237
0.000470292
0.000462159
0.000457898
0.000452341
0.000447386
0.000443287
0.000438055
0.000433727
0.000429647
0.000426521
0.000423375
0.000483097
0.000478487
0.000473944
0.000468737
0.000464504
0.000459466
0.000454958
0.000450563
0.000446064
0.000442013
0.000439468
0.000435564
0.000484657
0.000480336
0.000475763
0.000471429
0.0004676
0.000463915
0.000460347
0.000456891
0.000453655
0.000450789
0.000448524
0.000445316
0.000425775
0.000426145
0.000425922
0.000425506
0.000425404
0.000425642
0.000426315
0.000427662
0.000428976
0.000432082
0.000436405
0.000439319
0.000128146
0.00012841
0.000128696
0.000128974
0.000129242
0.000129501
0.000129764
0.000130054
0.000130374
0.000130726
0.000131152
0.00013164
0.0042936
0.0239631
0.0276789
0.0273649
0.0276781
0.0276991
0.0275447
0.0272356
0.0268882
0.0265535
0.0261153
0.0253884
0.00417215
0.0222638
0.0259529
0.0254403
0.0257119
0.025583
0.0253452
0.0251525
0.0249494
0.0245696
0.0238918
0.0229648
0.00408065
0.0205385
0.0237405
0.0232428
0.023253
0.0230885
0.0229825
0.0228508
0.0225024
0.0218536
0.0209046
0.0198538
0.00396526
0.0185212
0.0210182
0.0206099
0.0205575
0.020494
0.0203406
0.0200088
0.0193812
0.0184304
0.0173377
0.0160396
0.0038018
0.0161526
0.0178654
0.0177886
0.0177811
0.0175725
0.0172308
0.0165316
0.0156504
0.0145118
0.0131854
0.0115823
0.00356466
0.0134675
0.0147539
0.0147805
0.0146653
0.0142475
0.013509
0.0126029
0.011494
0.0101242
0.00852218
0.00659006
0.00323272
0.0105124
0.0114891
0.0114558
0.0112059
0.0104269
0.00949424
0.00835022
0.00696819
0.00528097
0.00345734
0.00170404
0.00277961
0.00730744
0.0080358
0.0078812
0.00739244
0.0063306
0.00508511
0.00372575
0.0024417
0.00125263
0.000675727
0.000498066
0.00210985
0.00360143
0.00419553
0.00392288
0.00340424
0.00235772
0.00146762
0.000861945
0.00060812
0.000522669
0.000504721
0.000490252
0.00136414
0.00106778
0.00128555
0.00117591
0.000967686
0.000663814
0.000538406
0.000506864
0.00050702
0.000496552
0.000493984
0.000489379
0.000762216
0.000324876
0.00041451
0.000419383
0.000420763
0.000410043
0.000416263
0.00041729
0.000421437
0.00042335
0.000424513
0.000424484
0.000185047
0.000137038
0.000137407
0.000132999
0.000133283
0.000129453
0.000129356
0.000127502
0.000128056
0.000127693
0.000127852
0.000127937
0.0246394
0.0238483
0.0228726
0.0217063
0.020263
0.0184957
0.0163111
0.0137093
0.0107642
0.00763571
0.00481805
0.00243249