/*--------------------------------*- C++ -*----------------------------------*\
| =========                 |                                                 |
| \\      /  F ield         | OpenFOAM: The Open Source CFD Toolbox           |
|  \\    /   O peration     | Version:  2212                                  |
|   \\  /    A nd           | Website:  www.openfoam.com                      |
|    \\/     M anipulation  |                                                 |
\*---------------------------------------------------------------------------*/
FoamFile
{
    version     2.0;
    format      ascii;
    arch        "LSB;label=32;scalar=64";
    class       volScalarField;
    location    "0.01";
    object      p;
}
// * * * * * * * * * * * * * * * * * * * * * * * * * * * * * * * * * * * * * //

dimensions      [1 -1 -2 0 0 0 0];

internalField   nonuniform List<scalar> 
3072
(
98086.1
98057.7
98039.8
98024.7
98026.2
98026.6
98033.1
98063.7
98065.5
98017.4
97961.7
97912.8
98154.8
98102
98089.7
98081.6
98107.2
98135.7
98185.9
98294.2
98356.6
98374.9
98382.4
98382.3
98243.8
98187.1
98187.8
98199.2
98242.7
98294.1
98346.3
98403.4
98444.5
98471.6
98490.6
98498.1
98391.6
98356.5
98373.5
98405.1
98451.6
98498.7
98545.3
98585.1
98615.2
98639.4
98658.4
98672.6
98519.4
98513.3
98538.6
98579.9
98628.2
98673.4
98716.4
98752.3
98779.7
98800.9
98816.6
98828.1
98644.2
98661.9
98694.2
98741.8
98789.5
98834.2
98872.2
98903.2
98927.3
98945.9
98959.7
98969.6
98762.3
98804.3
98840.9
98894.5
98943.3
98985.4
99019.1
99045.6
99065.8
99081.1
99092.3
99100
98886.2
98945.3
98985.2
99042
99088.7
99127
99156.2
99178.2
99194.6
99206.6
99215
99220.5
99017.7
99092.9
99131.4
99187.1
99228.2
99260.9
99284.5
99301.6
99313.9
99322.7
99328.6
99332
99150.3
99240.9
99278.2
99329.8
99362.5
99387
99403.8
99415.6
99424.1
99430.1
99433.9
99435.6
99300.9
99401.1
99429.1
99468.9
99490.5
99504.7
99513.8
99520.4
99525.5
99529.3
99531.8
99532.3
99408.3
99559.9
99570.6
99593
99602.8
99608.1
99611.4
99614.5
99617.8
99620.8
99622.8
99623
97890
97888.8
97913.6
97958.5
98023.7
98104
98196.2
98290.8
98376.8
98444.7
98489.7
98461.1
98379.5
98380
98385.6
98398.5
98418.4
98445.6
98478.3
98512.1
98540.9
98576.3
98599.9
98499.2
98503.1
98509.5
98519.7
98534.7
98552.6
98572.1
98590.9
98604.7
98608.8
98613.7
98607.3
98460.2
98683.9
98693
98701.1
98708.5
98715
98720
98722
98716.9
98699.9
98676.2
98649.3
98461.1
98836.7
98842.8
98847.1
98849.6
98850.2
98848.2
98842.1
98829.1
98804.2
98766.6
98726.6
98523
98976.5
98980.7
98982.6
98982.5
98980.2
98975
98965.9
98951
98926.2
98887.1
98843
98643.5
99104.9
99107.2
99107.3
99105.6
99102.2
99096.8
99088.8
99076.7
99057.7
99026.4
98992.6
98820
99223.4
99224
99222.8
99220.2
99216.8
99212.9
99208.3
99202.8
99195.2
99180.9
99172.2
99047.6
99333.2
99332.2
99329.6
99326.3
99323.2
99321.1
99320.9
99323.4
99329.6
99338.1
99365.3
99319.7
99435.3
99432.5
99428.3
99423.9
99420.5
99419.7
99423.2
99433.3
99452.8
99484.8
99559.4
99617.2
99530.6
99525.8
99519.6
99513.2
99508.3
99507.1
99512.1
99527.1
99555.5
99605.1
99728.8
99899.9
99620.3
99612.9
99604.2
99594.6
99586.3
99582.1
99585.1
99600.1
99629.6
99686.3
99828.2
100154
98086
98057.6
98039.7
98024.6
98026
98026.5
98033
98063.7
98065.3
98017.2
97961.4
97912.5
98154.8
98101.9
98089.6
98081.5
98107.1
98135.6
98185.9
98294.3
98356.6
98374.8
98382.4
98382.2
98243.7
98187
98187.7
98199.2
98242.6
98294
98346.2
98403.4
98444.5
98471.6
98490.5
98498
98391.5
98356.4
98373.5
98405.1
98451.6
98498.7
98545.3
98585.1
98615.2
98639.3
98658.4
98672.5
98519.4
98513.3
98538.6
98579.9
98628.3
98673.4
98716.5
98752.3
98779.7
98800.9
98816.6
98828
98644.2
98661.9
98694.2
98741.8
98789.6
98834.2
98872.2
98903.2
98927.3
98945.9
98959.7
98969.6
98762.3
98804.3
98840.9
98894.5
98943.4
98985.5
99019.1
99045.6
99065.8
99081.1
99092.3
99100
98886.2
98945.4
98985.3
99042.1
99088.8
99127
99156.2
99178.2
99194.6
99206.6
99215
99220.5
99017.7
99092.9
99131.5
99187.1
99228.3
99261
99284.6
99301.6
99313.9
99322.7
99328.6
99332
99150.4
99240.9
99278.3
99329.8
99362.5
99387.1
99403.8
99415.6
99424.1
99430.1
99433.9
99435.6
99300.9
99401.1
99429.1
99469
99490.5
99504.7
99513.8
99520.4
99525.5
99529.4
99531.8
99532.3
99408.3
99559.9
99570.6
99593
99602.8
99608.1
99611.4
99614.5
99617.8
99620.8
99622.9
99623
97889.7
97888.5
97913.3
97958.3
98023.5
98103.9
98196.1
98290.8
98376.9
98444.8
98489.8
98461.3
98379.3
98379.9
98385.5
98398.4
98418.4
98445.6
98478.3
98512.1
98540.9
98576.4
98600
98499.3
98503
98509.4
98519.6
98534.6
98552.6
98572.1
98590.9
98604.7
98608.8
98613.8
98607.4
98460.2
98683.9
98693
98701.1
98708.5
98715
98720
98722
98716.9
98699.9
98676.2
98649.3
98461.1
98836.6
98842.8
98847
98849.6
98850.2
98848.1
98842
98829.1
98804.2
98766.5
98726.6
98523
98976.4
98980.6
98982.5
98982.4
98980.2
98975
98965.8
98951
98926.1
98887.1
98843
98643.4
99104.9
99107.2
99107.3
99105.6
99102.2
99096.8
99088.7
99076.7
99057.7
99026.4
98992.6
98819.9
99223.4
99224
99222.8
99220.2
99216.8
99212.8
99208.3
99202.8
99195.1
99180.9
99172.2
99047.6
99333.2
99332.2
99329.6
99326.2
99323.1
99321
99320.8
99323.4
99329.6
99338.2
99365.3
99319.8
99435.3
99432.5
99428.3
99423.8
99420.4
99419.6
99423.1
99433.3
99452.8
99484.8
99559.4
99617.4
99530.6
99525.8
99519.6
99513.2
99508.3
99507
99512.1
99527
99555.5
99605.2
99728.9
99900.1
99620.3
99612.9
99604.1
99594.6
99586.3
99582
99585.1
99600.1
99629.6
99686.4
99828.3
100154
98086
98057.6
98039.7
98024.6
98026
98026.5
98033
98063.7
98065.3
98017.3
97961.5
97912.6
98154.7
98101.8
98089.6
98081.5
98107.1
98135.6
98185.9
98294.2
98356.6
98374.8
98382.3
98382.2
98243.7
98187
98187.7
98199.1
98242.6
98294
98346.2
98403.3
98444.5
98471.6
98490.5
98498
98391.5
98356.4
98373.5
98405
98451.6
98498.6
98545.2
98585.1
98615.1
98639.3
98658.3
98672.5
98519.4
98513.3
98538.6
98579.9
98628.2
98673.4
98716.4
98752.3
98779.7
98800.9
98816.6
98828
98644.2
98661.9
98694.2
98741.7
98789.5
98834.1
98872.2
98903.2
98927.3
98945.8
98959.6
98969.5
98762.2
98804.3
98840.9
98894.4
98943.3
98985.4
99019
99045.5
99065.8
99081.1
99092.2
99100
98886.1
98945.3
98985.2
99042
99088.7
99127
99156.2
99178.2
99194.5
99206.5
99215
99220.5
99017.6
99092.8
99131.4
99187
99228.2
99260.9
99284.5
99301.6
99313.9
99322.7
99328.6
99332
99150.3
99240.8
99278.2
99329.7
99362.5
99387
99403.8
99415.6
99424.1
99430
99433.9
99435.6
99300.8
99401.1
99429.1
99468.9
99490.5
99504.7
99513.8
99520.4
99525.5
99529.3
99531.7
99532.2
99408.2
99559.8
99570.6
99593
99602.8
99608.1
99611.4
99614.5
99617.8
99620.8
99622.8
99622.9
97889.8
97888.6
97913.3
97958.3
98023.6
98103.9
98196.1
98290.8
98376.8
98444.7
98489.8
98461.2
98379.3
98379.9
98385.5
98398.4
98418.3
98445.6
98478.3
98512.1
98540.9
98576.3
98599.9
98499.2
98503
98509.4
98519.6
98534.6
98552.5
98572.1
98590.9
98604.6
98608.7
98613.7
98607.3
98460.1
98683.8
98693
98701
98708.5
98715
98720
98721.9
98716.9
98699.9
98676.2
98649.3
98461
98836.6
98842.7
98847
98849.6
98850.2
98848.1
98842
98829.1
98804.2
98766.5
98726.6
98522.9
98976.4
98980.6
98982.5
98982.4
98980.1
98975
98965.8
98951
98926.1
98887.1
98843
98643.4
99104.8
99107.1
99107.3
99105.6
99102.2
99096.8
99088.7
99076.7
99057.6
99026.4
98992.6
98819.9
99223.4
99224
99222.7
99220.2
99216.8
99212.8
99208.3
99202.7
99195.1
99180.9
99172.1
99047.6
99333.2
99332.1
99329.5
99326.2
99323.1
99321
99320.8
99323.3
99329.6
99338.1
99365.2
99319.7
99435.3
99432.5
99428.3
99423.8
99420.4
99419.6
99423.1
99433.2
99452.8
99484.7
99559.4
99617.3
99530.6
99525.8
99519.6
99513.2
99508.3
99507
99512.1
99527
99555.5
99605.1
99728.9
99900
99620.3
99612.9
99604.1
99594.5
99586.3
99582
99585.1
99600.1
99629.6
99686.3
99828.3
100154
98086
98057.7
98039.8
98024.7
98026.1
98026.6
98033.1
98063.7
98065.4
98017.4
97961.6
97912.7
98154.8
98101.9
98089.7
98081.6
98107.2
98135.6
98185.9
98294.2
98356.6
98374.8
98382.4
98382.3
98243.8
98187.1
98187.8
98199.3
98242.7
98294.1
98346.3
98403.4
98444.5
98471.6
98490.5
98498.1
98391.6
98356.5
98373.6
98405.1
98451.7
98498.7
98545.3
98585.1
98615.2
98639.3
98658.4
98672.5
98519.4
98513.3
98538.6
98579.9
98628.3
98673.4
98716.4
98752.3
98779.7
98800.9
98816.6
98828.1
98644.2
98661.9
98694.2
98741.8
98789.6
98834.2
98872.2
98903.2
98927.3
98945.9
98959.6
98969.6
98762.3
98804.3
98840.9
98894.5
98943.3
98985.4
99019.1
99045.5
99065.8
99081.1
99092.3
99100
98886.1
98945.3
98985.2
99042
99088.7
99127
99156.2
99178.2
99194.5
99206.5
99215
99220.5
99017.6
99092.8
99131.4
99187
99228.2
99260.9
99284.5
99301.6
99313.9
99322.7
99328.6
99332
99150.3
99240.9
99278.2
99329.7
99362.5
99387
99403.8
99415.6
99424.1
99430
99433.9
99435.6
99300.8
99401.1
99429.1
99468.9
99490.5
99504.7
99513.7
99520.3
99525.5
99529.3
99531.7
99532.2
99408.2
99559.9
99570.6
99592.9
99602.8
99608.1
99611.4
99614.5
99617.8
99620.8
99622.8
99623
97890
97888.8
97913.5
97958.5
98023.7
98104
98196.2
98290.8
98376.8
98444.7
98489.7
98461.1
98379.4
98380
98385.5
98398.5
98418.4
98445.6
98478.3
98512.1
98540.9
98576.3
98599.9
98499.2
98503.1
98509.5
98519.7
98534.7
98552.6
98572.1
98590.9
98604.7
98608.8
98613.7
98607.3
98460.2
98683.9
98693
98701.1
98708.5
98715
98720
98722
98716.9
98699.9
98676.2
98649.3
98461.1
98836.7
98842.8
98847.1
98849.6
98850.2
98848.1
98842
98829.1
98804.2
98766.5
98726.6
98523
98976.4
98980.6
98982.6
98982.4
98980.2
98975
98965.8
98951
98926.1
98887.1
98843
98643.5
99104.9
99107.2
99107.3
99105.6
99102.2
99096.8
99088.8
99076.7
99057.7
99026.4
98992.6
98819.9
99223.4
99224
99222.8
99220.2
99216.8
99212.9
99208.3
99202.8
99195.1
99180.9
99172.2
99047.6
99333.2
99332.2
99329.6
99326.3
99323.1
99321.1
99320.8
99323.4
99329.6
99338.1
99365.2
99319.7
99435.3
99432.5
99428.3
99423.8
99420.5
99419.6
99423.1
99433.3
99452.8
99484.7
99559.4
99617.2
99530.6
99525.8
99519.6
99513.2
99508.3
99507
99512.1
99527
99555.5
99605.1
99728.8
99899.9
99620.3
99612.9
99604.1
99594.6
99586.3
99582.1
99585.1
99600.1
99629.6
99686.3
99828.2
100154
99687.6
99703.9
99691.8
99689.8
99689.4
99689.8
99691.8
99695.2
99699.5
99703.8
99707.4
99708.7
99705
99694.7
99706.6
99720.2
99731.5
99741.5
99750.8
99759.9
99769.1
99777.6
99785.5
99790.1
99698.4
99705.2
99723.8
99742.8
99761
99778.7
99795.7
99812.3
99828.7
99843.2
99858.9
99868.4
99686.6
99705.9
99729.3
99754.7
99780.7
99807
99833.1
99860.1
99886.8
99914.4
99943.4
99961
99705.2
99694.3
99682.2
99667.9
99654.1
99643.8
99640.8
99649.7
99670.1
99709.3
99755.6
99881.9
99785.8
99769.8
99753.5
99732.5
99710.8
99691.6
99678.8
99677.1
99685.8
99712.5
99727.7
99783
99863.4
99839.5
99818.2
99788.2
99756
99724.3
99698.8
99683
99676.4
99689.9
99694.5
99725.7
99953.7
99914.1
99884.2
99841.8
99798.1
99748.9
99701.7
99663.6
99639
99638.9
99641.7
99676
99687.7
99703.9
99691.9
99689.9
99689.4
99689.9
99691.9
99695.2
99699.5
99703.8
99707.4
99708.7
99705.1
99694.7
99706.7
99720.3
99731.6
99741.6
99750.9
99759.9
99769.1
99777.7
99785.5
99790.1
99698.4
99705.3
99723.8
99742.8
99761
99778.8
99795.7
99812.4
99828.8
99843.2
99858.9
99868.4
99686.6
99705.9
99729.4
99754.7
99780.8
99807.1
99833.2
99860.2
99886.9
99914.4
99943.5
99961
99705.2
99694.3
99682.2
99667.9
99654
99643.8
99640.8
99649.6
99670.1
99709.3
99755.6
99881.9
99785.8
99769.8
99753.5
99732.5
99710.7
99691.6
99678.8
99677
99685.7
99712.5
99727.6
99783
99863.4
99839.4
99818.2
99788.1
99756
99724.3
99698.7
99682.9
99676.3
99689.8
99694.4
99725.6
99953.7
99914.1
99884.2
99841.7
99798
99748.9
99701.5
99663.5
99638.8
99638.7
99641.6
99675.9
99687.6
99703.9
99691.8
99689.8
99689.4
99689.8
99691.8
99695.2
99699.5
99703.7
99707.4
99708.6
99705
99694.6
99706.6
99720.2
99731.5
99741.5
99750.8
99759.9
99769.1
99777.6
99785.5
99790.1
99698.3
99705.2
99723.7
99742.7
99761
99778.7
99795.7
99812.3
99828.7
99843.2
99858.9
99868.4
99686.5
99705.8
99729.2
99754.6
99780.7
99807
99833.1
99860.1
99886.8
99914.4
99943.4
99961
99705.1
99694.2
99682.2
99667.9
99654
99643.8
99640.8
99649.6
99670.1
99709.3
99755.6
99881.9
99785.7
99769.7
99753.5
99732.5
99710.7
99691.6
99678.8
99677
99685.7
99712.5
99727.6
99783
99863.3
99839.4
99818.2
99788.1
99756
99724.3
99698.7
99682.9
99676.4
99689.9
99694.5
99725.6
99953.7
99914.1
99884.2
99841.7
99798
99748.9
99701.6
99663.5
99638.9
99638.8
99641.7
99676
99687.6
99703.8
99691.8
99689.8
99689.3
99689.8
99691.8
99695.2
99699.5
99703.7
99707.4
99708.6
99705
99694.6
99706.6
99720.2
99731.5
99741.5
99750.8
99759.9
99769.1
99777.6
99785.5
99790.1
99698.3
99705.2
99723.7
99742.7
99760.9
99778.7
99795.6
99812.3
99828.7
99843.1
99858.8
99868.3
99686.5
99705.8
99729.2
99754.6
99780.7
99806.9
99833.1
99860
99886.8
99914.3
99943.4
99961
99705.1
99694.3
99682.2
99667.9
99654
99643.8
99640.8
99649.7
99670.1
99709.3
99755.6
99881.9
99785.7
99769.7
99753.5
99732.5
99710.8
99691.6
99678.8
99677.1
99685.7
99712.5
99727.6
99783
99863.3
99839.4
99818.2
99788.2
99756
99724.3
99698.8
99683
99676.4
99689.9
99694.5
99725.7
99953.7
99914.1
99884.2
99841.7
99798.1
99748.9
99701.7
99663.6
99639
99638.9
99641.8
99676.1
99701.6
99726.1
99749.9
99775.3
99801.2
99826.8
99851.8
99877.1
99902
99929.4
99955
99978.8
99747.7
99766.9
99785.7
99805.1
99824
99842.6
99859.7
99875.3
99889.1
99904.2
99918.8
99936
99783.6
99798.1
99812.8
99827.7
99841.5
99854.3
99865.4
99874.9
99881.9
99890.5
99900.5
99904.9
99810.7
99821.3
99831.8
99842.4
99852
99860.3
99867
99872.3
99874.8
99879.1
99880.4
99845.8
99992.6
99957
99926
99879.1
99833.9
99782.2
99732.2
99688
99657.1
99647.9
99646.1
99675.8
99976.6
99942.4
99926.2
99889
99855.7
99816
99779.3
99746.4
99723.6
99715.3
99713.9
99731.2
99993.5
99940
99934.7
99900.8
99874.7
99841.9
99813.1
99787.2
99769.5
99762.1
99761.1
99772.4
100031
99936.8
99942.3
99911.1
99890.1
99862.9
99840
99819
99804.4
99797.5
99796
99802.9
99701.6
99726.1
99749.9
99775.4
99801.3
99826.9
99851.9
99877.2
99902.1
99929.5
99955.1
99978.8
99747.7
99766.9
99785.7
99805.1
99824.1
99842.6
99859.8
99875.4
99889.2
99904.3
99918.8
99936
99783.6
99798.2
99812.8
99827.8
99841.6
99854.3
99865.5
99875
99882
99890.6
99900.5
99904.9
99810.7
99821.3
99831.8
99842.5
99852
99860.4
99867.1
99872.3
99874.8
99879.1
99880.4
99845.9
99992.6
99957
99926
99879.1
99833.9
99782.1
99732.1
99687.9
99656.9
99647.8
99646
99675.7
99976.6
99942.4
99926.1
99889
99855.6
99816
99779.2
99746.3
99723.5
99715.1
99713.8
99731.1
99993.5
99939.9
99934.7
99900.8
99874.7
99841.9
99813
99787.1
99769.3
99761.9
99761
99772.2
100031
99936.7
99942.2
99911.1
99890.1
99862.8
99839.9
99818.9
99804.3
99797.3
99795.9
99802.8
99701.5
99725.9
99749.8
99775.3
99801.2
99826.8
99851.8
99877.1
99902
99929.4
99955
99978.8
99747.6
99766.8
99785.6
99805
99824
99842.5
99859.7
99875.3
99889.1
99904.2
99918.8
99936
99783.5
99798
99812.7
99827.7
99841.5
99854.2
99865.4
99874.9
99881.9
99890.5
99900.5
99904.9
99810.6
99821.2
99831.7
99842.4
99851.9
99860.3
99867
99872.2
99874.8
99879
99880.3
99845.8
99992.6
99957
99926
99879.1
99833.9
99782.1
99732.2
99687.9
99657
99647.8
99646
99675.7
99976.6
99942.4
99926.1
99889
99855.6
99816
99779.2
99746.3
99723.5
99715.2
99713.8
99731.1
99993.5
99939.9
99934.7
99900.8
99874.7
99841.9
99813.1
99787.2
99769.4
99762
99761
99772.2
100031
99936.7
99942.2
99911.1
99890.1
99862.8
99839.9
99818.9
99804.4
99797.4
99795.9
99802.8
99701.5
99726
99749.8
99775.3
99801.2
99826.7
99851.8
99877
99902
99929.3
99955
99978.8
99747.6
99766.8
99785.6
99805
99824
99842.5
99859.7
99875.3
99889.1
99904.2
99918.8
99936
99783.5
99798.1
99812.7
99827.7
99841.4
99854.2
99865.4
99874.9
99881.9
99890.5
99900.5
99904.8
99810.6
99821.2
99831.7
99842.4
99851.9
99860.3
99867
99872.2
99874.7
99879
99880.3
99845.8
99992.6
99956.9
99926
99879.1
99833.9
99782.2
99732.2
99688
99657.1
99648
99646.2
99675.9
99976.6
99942.4
99926.1
99889
99855.7
99816
99779.3
99746.4
99723.6
99715.3
99713.9
99731.2
99993.5
99939.9
99934.7
99900.8
99874.7
99841.9
99813.1
99787.2
99769.5
99762.1
99761.1
99772.3
100031
99936.7
99942.2
99911.1
99890.1
99862.9
99840
99819
99804.4
99797.5
99796
99802.9
99830.3
99837.4
99844.3
99851.4
99857.3
99862.2
99865.4
99867.2
99864.4
99860.8
99853.8
99794.1
99843.3
99847.5
99851.7
99855.9
99859.3
99861.9
99862.9
99862
99858.9
99857.9
99854.9
99830.1
99851.3
99853.4
99855.5
99858
99859.7
99860.1
99859.9
99861.1
99860
99856.4
99850.7
99831.7
99855.8
99856.5
99857.3
99858
99858.5
99860
99861.2
99860.7
99859.2
99856.2
99852.8
99840.5
99858.3
99857.7
99857.5
99858.8
99860.3
99860.6
99860.4
99859.7
99857.9
99854.9
99851.2
99843.2
99858.9
99858.7
99859.3
99859.7
99859.8
99860.2
99860.1
99859.4
99857.9
99855.3
99852.5
99846.4
99860.9
99860.2
99859.5
99859.7
99859.9
99859.9
99859.4
99858.6
99857
99854.7
99852.2
99848.2
99861.5
99860.6
99860
99859.9
99859.8
99859.8
99859.4
99858.5
99857.1
99855
99852.8
99849.6
99862.3
99861
99860.2
99860
99859.8
99859.5
99859
99858
99856.6
99854.7
99852.8
99850.5
99862.7
99861.3
99860.4
99860.1
99859.8
99859.6
99859
99858
99856.7
99854.9
99853.1
99851.1
99863
99861.6
99860.6
99860.2
99859.8
99859.4
99858.8
99857.8
99856.5
99854.8
99853.2
99851.5
99863.1
99861.6
99860.6
99860.2
99859.8
99859.4
99858.8
99857.8
99856.5
99854.8
99853.2
99851.6
100121
99933.8
99946.7
99918.9
99901.5
99878.6
99860
99842.7
99830.6
99824.1
99821.9
99825.5
100092
99927.8
99946.9
99923.6
99909.1
99889.6
99874.2
99859.7
99849.3
99843
99839.8
99840.9
100078
99927.6
99946.2
99926
99913.6
99896.9
99883.9
99871.3
99861.8
99855.3
99851.3
99850.7
100045
99923.9
99943.5
99926.5
99915.9
99901.5
99890.1
99878.7
99869.5
99862.9
99858.3
99856.5
100016
99922.5
99941.1
99926.2
99916.7
99904.2
99893.7
99883
99873.9
99867.4
99862.4
99859.9
99987.2
99924.3
99939.2
99926
99916.7
99905.4
99895.2
99885.4
99876.4
99869.9
99864.5
99861.2
99960.9
99928.8
99937.7
99926.4
99916.6
99905.9
99895.5
99886.4
99877.4
99870.9
99865.5
99862.6
99941.6
99938.1
99936.4
99927.5
99916.4
99906.3
99895.4
99886.7
99878.2
99872.1
99867.1
99863.9
99924.9
99948.4
99935.5
99928.8
99916.6
99906.8
99895.9
99887.7
99879.3
99873.3
99867.9
99864.8
99920.8
99965
99936.5
99930.3
99917.7
99907.2
99896.8
99888.2
99880
99873.8
99868.7
99865.3
99906.5
99973.7
99937
99931.7
99918.2
99907.9
99897.2
99888.8
99880.5
99874.4
99869.1
99865.7
99922.6
99993.2
99940.1
99932.9
99919.5
99907.9
99897.7
99888.8
99880.8
99874.5
99869.4
99865.8
99830.3
99837.4
99844.4
99851.4
99857.4
99862.2
99865.4
99867.2
99864.4
99860.8
99853.9
99794.2
99843.3
99847.6
99851.7
99856
99859.3
99861.9
99862.9
99862
99859
99858
99855
99830.2
99851.3
99853.4
99855.6
99858
99859.7
99860.2
99860
99861.2
99860
99856.4
99850.8
99831.7
99855.8
99856.5
99857.4
99858.1
99858.5
99860.1
99861.2
99860.8
99859.2
99856.3
99852.9
99840.5
99858.3
99857.7
99857.5
99858.8
99860.3
99860.7
99860.4
99859.7
99858
99854.9
99851.2
99843.2
99858.9
99858.7
99859.3
99859.7
99859.8
99860.3
99860.2
99859.4
99857.9
99855.4
99852.6
99846.5
99860.9
99860.2
99859.6
99859.8
99860
99859.9
99859.5
99858.6
99857
99854.7
99852.2
99848.2
99861.5
99860.6
99860
99860
99859.9
99859.9
99859.4
99858.6
99857.1
99855
99852.8
99849.6
99862.3
99861.1
99860.2
99860
99859.8
99859.6
99859
99858.1
99856.7
99854.8
99852.9
99850.5
99862.7
99861.4
99860.5
99860.2
99859.9
99859.6
99859
99858.1
99856.7
99854.9
99853.1
99851.1
99863
99861.6
99860.6
99860.2
99859.8
99859.4
99858.8
99857.9
99856.5
99854.9
99853.2
99851.5
99863.1
99861.7
99860.7
99860.2
99859.8
99859.5
99858.8
99857.9
99856.6
99854.9
99853.3
99851.7
100121
99933.8
99946.7
99918.9
99901.5
99878.5
99859.9
99842.6
99830.5
99824
99821.8
99825.4
100092
99927.8
99946.9
99923.6
99909.1
99889.5
99874.1
99859.6
99849.2
99842.8
99839.7
99840.8
100078
99927.6
99946.1
99926
99913.5
99896.8
99883.8
99871.2
99861.7
99855.2
99851.2
99850.6
100045
99923.9
99943.5
99926.5
99915.9
99901.5
99890
99878.7
99869.4
99862.8
99858.2
99856.4
100016
99922.4
99941
99926.2
99916.7
99904.1
99893.6
99882.9
99873.8
99867.3
99862.3
99859.8
99987.2
99924.2
99939.2
99925.9
99916.6
99905.3
99895.2
99885.4
99876.3
99869.8
99864.4
99861.1
99960.9
99928.8
99937.6
99926.4
99916.6
99905.9
99895.4
99886.3
99877.3
99870.8
99865.4
99862.6
99941.6
99938
99936.4
99927.5
99916.3
99906.3
99895.3
99886.6
99878.1
99872
99867
99863.9
99924.8
99948.4
99935.4
99928.7
99916.5
99906.8
99895.9
99887.6
99879.2
99873.2
99867.9
99864.7
99920.8
99964.9
99936.5
99930.2
99917.6
99907.2
99896.7
99888.1
99879.9
99873.8
99868.6
99865.2
99906.5
99973.7
99936.9
99931.6
99918.1
99907.9
99897.1
99888.7
99880.4
99874.3
99869
99865.6
99922.6
99993.2
99940
99932.8
99919.5
99907.9
99897.7
99888.7
99880.7
99874.4
99869.3
99865.7
99830.2
99837.3
99844.3
99851.3
99857.3
99862.1
99865.4
99867.1
99864.4
99860.7
99853.8
99794.1
99843.2
99847.5
99851.6
99855.9
99859.3
99861.8
99862.8
99862
99858.9
99857.9
99854.9
99830.1
99851.2
99853.3
99855.5
99857.9
99859.6
99860.1
99859.9
99861.1
99859.9
99856.3
99850.7
99831.7
99855.7
99856.5
99857.3
99858
99858.5
99860
99861.1
99860.7
99859.1
99856.2
99852.8
99840.5
99858.2
99857.6
99857.4
99858.7
99860.2
99860.6
99860.3
99859.6
99857.9
99854.9
99851.1
99843.1
99858.8
99858.6
99859.2
99859.6
99859.8
99860.2
99860.1
99859.3
99857.8
99855.3
99852.5
99846.4
99860.8
99860.1
99859.5
99859.7
99859.9
99859.8
99859.4
99858.5
99857
99854.6
99852.1
99848.1
99861.4
99860.5
99859.9
99859.9
99859.8
99859.8
99859.3
99858.5
99857
99855
99852.8
99849.5
99862.2
99861
99860.2
99860
99859.7
99859.5
99858.9
99858
99856.6
99854.7
99852.8
99850.5
99862.6
99861.3
99860.4
99860.1
99859.8
99859.5
99858.9
99858
99856.6
99854.9
99853.1
99851.1
99863
99861.5
99860.5
99860.1
99859.7
99859.4
99858.8
99857.8
99856.5
99854.8
99853.1
99851.4
99863.1
99861.6
99860.6
99860.1
99859.7
99859.4
99858.7
99857.8
99856.5
99854.8
99853.2
99851.6
100121
99933.8
99946.7
99918.9
99901.5
99878.5
99859.9
99842.6
99830.5
99824
99821.8
99825.4
100092
99927.8
99946.9
99923.6
99909.1
99889.5
99874.1
99859.6
99849.2
99842.9
99839.7
99840.8
100078
99927.6
99946.1
99926
99913.5
99896.8
99883.8
99871.2
99861.7
99855.2
99851.2
99850.6
100045
99923.9
99943.5
99926.5
99915.9
99901.5
99890
99878.7
99869.4
99862.8
99858.2
99856.4
100016
99922.4
99941
99926.2
99916.7
99904.2
99893.6
99883
99873.8
99867.3
99862.3
99859.8
99987.2
99924.2
99939.2
99925.9
99916.6
99905.3
99895.2
99885.4
99876.3
99869.8
99864.4
99861.1
99960.9
99928.8
99937.6
99926.4
99916.6
99905.9
99895.5
99886.3
99877.3
99870.8
99865.4
99862.6
99941.6
99938
99936.4
99927.5
99916.3
99906.3
99895.3
99886.6
99878.1
99872
99867
99863.9
99924.8
99948.4
99935.4
99928.7
99916.6
99906.8
99895.9
99887.6
99879.2
99873.2
99867.9
99864.7
99920.8
99964.9
99936.5
99930.2
99917.6
99907.2
99896.7
99888.1
99879.9
99873.8
99868.6
99865.2
99906.5
99973.7
99936.9
99931.6
99918.2
99907.9
99897.1
99888.7
99880.4
99874.3
99869
99865.6
99922.6
99993.2
99940
99932.8
99919.5
99907.9
99897.7
99888.7
99880.7
99874.4
99869.3
99865.7
99830.2
99837.3
99844.2
99851.3
99857.3
99862.1
99865.3
99867.1
99864.3
99860.7
99853.8
99794
99843.3
99847.5
99851.6
99855.9
99859.2
99861.8
99862.8
99861.9
99858.9
99857.9
99854.9
99830.1
99851.2
99853.3
99855.5
99857.9
99859.6
99860.1
99859.9
99861.1
99859.9
99856.3
99850.7
99831.6
99855.7
99856.4
99857.3
99858
99858.4
99860
99861.1
99860.7
99859.1
99856.2
99852.8
99840.4
99858.2
99857.6
99857.4
99858.7
99860.2
99860.6
99860.3
99859.6
99857.9
99854.9
99851.1
99843.1
99858.8
99858.6
99859.2
99859.6
99859.8
99860.2
99860.1
99859.3
99857.8
99855.3
99852.5
99846.4
99860.8
99860.1
99859.5
99859.7
99859.9
99859.8
99859.4
99858.5
99856.9
99854.6
99852.1
99848.1
99861.4
99860.5
99859.9
99859.9
99859.8
99859.8
99859.3
99858.5
99857
99854.9
99852.7
99849.5
99862.2
99861
99860.1
99860
99859.7
99859.5
99858.9
99858
99856.6
99854.7
99852.8
99850.4
99862.6
99861.3
99860.4
99860.1
99859.8
99859.5
99858.9
99858
99856.6
99854.8
99853
99851
99863
99861.5
99860.5
99860.1
99859.7
99859.4
99858.7
99857.8
99856.4
99854.8
99853.1
99851.4
99863.1
99861.6
99860.6
99860.1
99859.7
99859.4
99858.7
99857.8
99856.5
99854.8
99853.2
99851.6
100121
99933.8
99946.7
99918.9
99901.5
99878.6
99860
99842.7
99830.6
99824.1
99821.9
99825.5
100092
99927.8
99946.9
99923.6
99909.1
99889.6
99874.2
99859.7
99849.3
99842.9
99839.8
99840.9
100078
99927.6
99946.1
99926
99913.6
99896.9
99883.8
99871.3
99861.8
99855.3
99851.3
99850.7
100045
99923.9
99943.5
99926.5
99915.9
99901.5
99890.1
99878.7
99869.5
99862.9
99858.3
99856.5
100016
99922.4
99941.1
99926.2
99916.7
99904.2
99893.7
99883
99873.9
99867.4
99862.4
99859.9
99987.2
99924.2
99939.2
99926
99916.7
99905.3
99895.2
99885.4
99876.3
99869.9
99864.5
99861.2
99960.9
99928.8
99937.7
99926.4
99916.6
99905.9
99895.5
99886.4
99877.4
99870.9
99865.5
99862.6
99941.6
99938.1
99936.4
99927.5
99916.4
99906.3
99895.4
99886.7
99878.2
99872.1
99867.1
99863.9
99924.8
99948.4
99935.5
99928.8
99916.6
99906.8
99895.9
99887.7
99879.3
99873.2
99867.9
99864.7
99920.8
99964.9
99936.5
99930.3
99917.6
99907.2
99896.7
99888.1
99879.9
99873.8
99868.7
99865.2
99906.5
99973.7
99937
99931.6
99918.2
99907.9
99897.2
99888.8
99880.5
99874.4
99869.1
99865.7
99922.6
99993.3
99940
99932.8
99919.5
99907.9
99897.7
99888.7
99880.8
99874.4
99869.3
99865.7
)
;

boundaryField
{
    rotor
    {
        type            zeroGradient;
    }
    stator
    {
        type            zeroGradient;
    }
    front
    {
        type            empty;
    }
    back
    {
        type            empty;
    }
}


// ************************************************************************* //
