/*--------------------------------*- C++ -*----------------------------------*\
| =========                 |                                                 |
| \\      /  F ield         | OpenFOAM: The Open Source CFD Toolbox           |
|  \\    /   O peration     | Version:  2206                                  |
|   \\  /    A nd           | Website:  www.openfoam.com                      |
|    \\/     M anipulation  |                                                 |
\*---------------------------------------------------------------------------*/
FoamFile
{
    version     2.0;
    format      ascii;
    arch        "LSB;label=32;scalar=64";
    class       volScalarField;
    location    "80";
    object      epsilon;
}
// * * * * * * * * * * * * * * * * * * * * * * * * * * * * * * * * * * * * * //

dimensions      [0 2 -3 0 0 0 0];

internalField   nonuniform List<scalar> 
184166
(
4.20034
2.76164
2.56592
4.22683
3.32587
3.21068
2.22815
2.97295
4.26055
3.95635
4.10543
2.73831
2.76434
3.30778
3.46185
3.74925
3.91631
3.44711
2.63668
3.65189
2.58032
2.63459
3.06465
3.84506
3.55348
3.5571
3.37556
3.66407
3.54107
2.69729
3.71509
2.20035
5.32331
3.94451
3.83217
2.80739
2.68253
3.68576
3.06322
2.41002
3.55627
2.78915
3.55662
3.76472
3.83705
3.48869
2.33257
3.55343
3.56401
3.52054
2.24874
2.19697
2.36203
3.53208
3.76091
3.23043
3.57679
3.78744
4.20522
3.0921
2.66874
3.08848
3.96314
4.02045
4.8404
2.1349
2.43768
3.8486
2.19354
3.78511
2.54848
3.88476
3.80409
3.85695
2.77705
3.44204
3.08369
3.82662
2.84967
2.26536
2.25824
2.72572
3.96376
3.9099
3.6634
4.20288
2.87938
2.53164
3.31071
2.62549
2.15689
3.3107
3.7074
5.00468
3.2436
2.72749
3.78892
2.19888
2.55997
3.7361
2.72779
2.70929
3.74682
3.57857
2.13589
3.05196
3.73116
3.2654
2.17706
2.74072
2.40418
3.91432
2.14091
2.5153
3.69108
3.48494
3.06872
2.52311
2.22066
2.53544
3.91968
2.71025
3.53623
3.44892
3.40576
3.278
3.56296
3.50583
3.78741
3.69674
2.63976
3.48555
3.23616
3.27739
2.75634
2.76988
2.73799
3.20465
3.33454
2.42372
3.10818
2.23449
2.24788
2.70738
3.1222
3.68397
2.56675
3.51072
3.99473
4.97554
3.96168
4.40602
3.70977
3.81475
3.93524
4.67668
3.67978
4.10614
4.24872
2.38317
2.17852
2.30013
3.3623
2.8768
2.89094
3.55486
3.61884
3.73154
2.17511
3.66214
3.54105
2.99024
3.00443
4.07806
3.47159
2.27065
2.41756
4.24258
3.8291
3.23614
2.17309
3.44048
3.2902
3.53546
3.88306
2.8981
3.60747
4.5007
2.18824
3.68461
3.36541
3.79727
3.108
2.18066
4.34519
3.75924
3.47358
4.11582
4.1285
3.53795
3.77521
3.5457
2.18386
3.40153
2.31446
3.79345
2.78016
2.68956
3.00632
3.43818
4.82176
3.49115
2.82824
3.60605
2.64157
3.03222
3.611
3.44266
2.18697
2.18158
2.65669
2.92112
3.07625
3.46436
2.25973
2.71765
2.68736
3.74013
3.52334
4.37411
4.92473
2.50007
3.05792
3.58426
3.84091
3.14751
3.98743
3.90699
3.62241
2.19232
2.14109
3.76651
2.71259
3.72623
2.36871
3.41685
3.50203
2.76868
4.14103
3.98862
3.3101
4.75494
3.7805
2.7
3.26769
3.86129
3.32457
3.52675
3.55952
3.13384
3.32966
2.47468
3.72642
2.88006
3.7494
3.47661
3.67978
2.48489
3.56148
3.37772
3.50211
2.24975
3.2048
3.73654
2.72257
3.33426
2.15288
3.24912
2.89406
3.22582
2.64824
5.86603
3.2434
3.53141
2.43628
2.75864
4.67521
4.37051
3.34903
3.81722
3.60444
3.39207
3.51384
3.83815
4.37821
3.58039
3.22377
4.59457
3.58452
4.37055
3.46136
3.11374
2.23052
3.541
4.74789
3.18639
3.40785
3.8223
2.39211
2.12792
3.49792
3.8601
3.66378
3.75289
3.96542
3.26069
3.18568
3.53343
3.33248
3.45322
2.63866
2.75171
3.06228
3.75764
3.4377
2.12849
3.51704
3.16809
2.62625
3.48105
3.78572
2.38705
2.35439
3.6923
2.21997
3.54724
3.20659
2.98231
3.70692
3.14685
3.348
4.62658
4.93226
4.03262
3.74688
3.97999
2.47757
2.20044
2.87049
2.24856
2.2461
3.53661
4.15891
2.46473
2.63531
3.78993
3.68449
3.18201
3.7359
3.85388
2.90023
2.16154
3.7158
2.52983
3.66805
3.67521
2.14193
2.55851
2.51968
2.13061
2.16439
4.46137
5.03002
3.95037
4.14207
4.03614
3.69173
3.49745
2.67075
3.29505
3.37532
3.40653
3.63016
3.67922
3.34619
3.88859
3.81517
2.83837
2.92564
2.96116
3.28493
3.4996
3.54432
2.17916
3.05206
2.15754
3.97333
3.1178
2.90302
3.40453
4.15128
3.31637
4.68465
3.74741
2.36936
3.31605
3.76513
3.73963
3.35228
2.64686
3.30698
2.90189
2.92578
2.79184
2.79063
2.71408
3.62803
2.42622
2.38937
2.31693
4.95093
3.15507
3.16174
3.17409
3.11084
2.15207
2.17374
2.18986
2.61017
2.56946
2.61459
2.2398
5.26201
4.53475
4.95614
4.86938
4.34613
4.73823
3.57605
3.56609
3.6176
3.61337
3.89944
3.77997
3.84079
3.70686
4.55752
4.82094
3.51166
3.58875
3.43636
3.43417
3.47046
3.53944
3.33956
3.53977
3.45046
3.43434
3.46909
4.03761
3.77829
2.22866
2.18064
2.18148
2.16861
2.2695
2.12413
2.21535
3.56668
3.6562
3.67772
3.76462
4.04434
3.74833
3.10257
2.84625
3.01206
4.26284
3.77586
3.56214
3.67797
3.56752
2.16727
2.12341
2.76195
2.80409
2.75774
2.69624
2.66976
2.6937
3.50433
3.31824
3.21886
3.29261
3.23556
3.92665
3.78749
3.78373
3.86235
3.98775
3.87701
3.86736
3.85718
3.56906
3.58292
3.52706
3.81858
3.5758
2.60098
3.71468
4.07279
2.12425
2.17501
2.13218
3.69227
3.97105
3.8498
3.63308
3.72799
3.66688
3.7614
3.85057
4.08184
3.43358
3.51247
3.56276
3.56373
3.91823
3.94861
4.23848
4.14848
5.23354
4.63302
5.25792
4.25505
3.99663
4.07492
3.97403
4.6892
5.44984
5.13471
4.42064
4.76629
3.71908
3.6399
3.69435
3.58888
2.26465
3.1254
2.95696
2.82661
3.09138
2.94421
3.06635
3.07332
2.85844
2.97232
2.75069
2.60679
3.90647
3.80895
3.91911
3.87918
3.75723
3.83374
3.80302
3.80645
3.60114
3.4517
3.24826
3.21155
3.25972
3.32454
3.70492
5.72124
2.23998
2.39826
2.18092
2.17278
2.16871
2.17068
3.91022
3.92199
4.0886
4.06708
4.22544
4.14549
3.96144
4.23872
3.62421
3.65731
3.80728
4.0239
3.89184
2.13473
3.22347
3.10147
3.07534
4.00315
3.8147
3.79173
3.7826
4.0489
3.83026
3.83723
3.81669
4.04236
3.84333
4.12088
2.68333
2.85905
3.26677
2.96565
3.85689
3.91834
3.90302
3.87024
4.09677
3.92685
4.06952
3.98323
3.30624
3.5273
3.42061
3.52769
3.74676
3.82126
3.79798
3.32978
3.25233
3.2353
3.2617
3.24009
4.02273
4.04848
3.50964
3.50159
3.67731
4.54898
3.82324
3.09842
3.59761
3.99351
4.65466
3.96498
3.87213
4.05006
4.71661
4.06778
3.96722
2.21955
2.37362
3.5795
4.07478
4.37057
4.0011
3.21374
4.45553
4.08387
4.34856
4.28996
4.02449
4.26236
2.14993
4.13076
4.23297
4.14968
4.1413
2.87339
4.29283
4.53544
4.10855
5.40378
4.689
5.29673
2.30885
2.12963
2.13584
2.24246
2.2467
2.13545
3.15326
2.48206
2.63503
4.89136
4.27615
4.54199
2.95931
2.82115
2.95634
2.87604
2.821
2.88277
3.8384
4.42792
3.83168
3.73238
4.4145
4.92762
2.97335
2.94357
3.86576
3.43754
3.18095
3.21291
2.4776
3.12321
3.6491
3.63909
3.18182
3.22996
3.18291
2.82039
2.7476
2.81936
2.75032
2.79787
3.25105
3.68116
3.61518
3.63341
3.27242
3.44731
3.18136
3.21994
3.29809
2.9859
3.07748
3.15872
3.58491
3.7246
3.77416
3.76349
3.17946
3.2126
2.70177
2.80652
2.83132
3.83839
3.4757
3.83655
3.96875
2.76957
3.32011
2.19376
2.18422
2.17996
3.66093
2.77647
2.93908
2.69103
3.72232
3.27444
3.46923
3.34511
3.18675
3.22844
3.23251
3.21335
3.46536
3.12249
3.50944
3.23107
2.72105
2.67428
2.72385
2.69516
2.67346
2.6832
2.65055
2.6385
2.62518
3.23229
2.92642
2.69837
2.71574
2.67148
3.36497
3.2594
3.37245
3.33038
3.58842
3.65509
3.61517
3.98471
3.30051
3.27361
3.13916
2.58144
2.65917
2.18236
2.18765
2.19467
2.18781
3.05801
2.70801
2.71184
2.70567
2.81245
2.84956
3.35421
3.41829
3.69847
3.53223
3.59662
3.73572
3.21888
3.25455
3.33869
2.74762
2.66836
2.65804
2.66369
2.65936
2.16773
2.19104
3.79105
3.72452
2.18701
2.19879
2.17136
2.17834
3.74487
2.25988
2.48464
2.27728
2.35391
2.73343
2.83341
2.84107
2.76507
4.35979
3.42457
3.48841
3.37462
3.28477
3.37308
3.48153
3.68261
2.97352
2.86823
3.10138
2.91046
3.00027
2.65918
4.52072
4.85736
5.10604
5.16356
4.15823
4.10902
3.35001
3.09707
3.16044
3.35852
2.11692
2.07787
4.5068
3.60496
3.13109
3.44498
3.14312
3.3598
2.09414
2.07781
4.66796
4.7532
3.88183
3.96357
3.94432
2.49821
3.54302
2.77801
3.35878
2.19932
2.2055
3.68353
3.75429
3.58876
3.67803
3.61093
3.63227
2.17854
2.33077
2.70534
2.61548
3.47912
3.85555
3.39673
3.57665
2.28825
2.29462
3.88293
3.7962
3.43854
3.46929
3.41723
3.30739
3.37857
3.43224
3.76303
3.67185
3.73364
2.46381
2.85222
2.58353
3.20365
3.21292
3.40661
3.32287
4.23985
3.95825
3.7279
3.81927
4.02619
4.06347
3.92456
3.90508
3.85415
3.94159
3.80276
3.68085
3.74212
3.80978
4.31221
3.38781
3.22263
2.92344
2.99238
2.83633
2.73021
2.71935
2.75793
2.68429
2.74527
3.14157
3.87452
3.54132
3.44228
3.47245
3.30956
3.97117
3.98395
3.63361
3.33406
3.48537
2.92103
3.49702
3.54076
3.49084
3.47584
2.3638
2.30468
2.40074
2.36458
2.30439
3.45346
3.57315
3.5271
4.91509
4.95641
3.75026
3.83465
4.19477
4.18051
3.98814
4.87376
4.10695
3.67004
3.65213
2.92835
3.00715
2.80174
3.28237
3.16059
3.31901
3.38984
3.4085
3.83036
3.72782
3.6574
3.68859
3.81567
4.38037
4.71632
4.25665
5.93476
3.36939
3.28352
3.21638
2.83206
2.96145
2.97541
3.04787
2.81295
3.5589
3.58782
3.64316
3.59581
2.41992
2.53142
2.41578
2.33112
3.10642
3.07106
3.91948
4.26191
3.87149
3.74481
5.1564
4.83695
3.67457
3.55337
3.73218
3.79516
2.24403
2.18191
2.16309
2.10943
3.5409
3.58736
3.53062
3.53182
3.25322
3.23868
3.26729
4.25812
4.19001
4.15848
4.07378
4.07152
4.16769
3.01788
2.78457
2.9151
2.65997
2.99507
3.10086
3.10308
3.12985
4.16607
3.99108
4.05203
3.75921
3.99229
3.25101
3.13771
3.89561
3.40417
3.07163
3.16019
2.83925
2.8763
3.11287
3.53999
3.51683
5.35217
3.81026
3.85834
3.94742
3.89114
2.21525
2.11782
2.12197
2.64155
2.63051
3.12322
3.09064
3.11772
3.09221
3.19752
3.11429
2.45583
2.20977
2.81777
3.10394
3.21177
3.71027
3.69204
4.10434
3.65632
3.66741
2.19275
2.20307
2.19921
5.36267
5.3856
4.44613
4.42116
2.14916
2.12543
3.39893
3.44286
3.14805
2.64456
2.69373
5.25181
4.75165
3.76134
3.90968
3.73979
2.1866
2.19171
2.18826
2.16849
2.17736
3.21428
3.84774
3.42147
3.36783
3.23926
3.26528
4.63004
3.3587
3.36071
3.51298
3.4262
2.99704
3.70168
3.70146
3.56369
3.57937
2.58252
2.61077
2.58569
2.57702
4.49173
4.26661
3.79683
3.90944
3.75993
3.83368
3.11738
3.10012
3.02893
3.54096
3.61736
3.32333
2.73883
2.32942
2.36963
2.55014
2.29713
2.84825
2.44943
2.34618
2.62619
4.78487
4.93929
4.46179
3.16198
3.36956
3.1372
3.24537
3.51838
3.56976
3.52752
2.19541
2.18171
2.19595
2.20505
3.63078
3.34807
2.45056
2.27848
2.25581
2.0714
2.07049
2.91274
3.01528
3.02407
2.87718
2.9369
3.91475
2.65325
2.45158
2.17187
2.14845
2.16292
2.14139
2.15355
2.9301
2.85025
3.23313
3.21908
3.36241
3.27395
3.51377
3.56905
3.29009
3.36031
3.22809
2.21394
2.29882
2.79313
2.88887
2.44439
2.43919
2.43199
3.66189
3.5599
3.59128
3.85517
4.10049
3.93919
3.85845
4.01259
4.11572
2.20671
2.35011
2.23555
2.45366
2.40987
2.63676
2.66606
2.27752
2.27997
3.37915
3.54342
3.50993
3.62589
2.19411
2.16036
2.1992
2.21929
3.35352
3.3809
3.17814
3.31115
2.90512
3.21181
2.95034
3.1352
4.80977
4.85401
3.63096
3.41539
2.55868
3.13632
2.97195
3.01317
2.9123
2.27348
2.66299
2.56209
3.03729
2.76972
2.88275
2.63283
3.40909
3.4005
3.1711
3.30053
3.26552
3.31933
2.4202
2.489
3.30966
3.48249
3.27696
3.46793
3.27512
3.47062
3.1679
3.34464
3.51666
3.27143
3.25669
3.11816
4.04967
4.00975
4.17312
4.06709
3.80146
3.87113
2.98751
3.07733
2.19525
2.2075
2.19783
2.19231
2.1837
2.18481
2.19
2.16901
2.61624
2.60515
2.64882
2.69405
2.6869
3.4579
3.56969
3.58171
3.4404
3.49524
3.82472
3.84502
4.04274
3.87605
2.75702
2.7398
2.18115
2.17398
2.17211
2.17364
2.16977
4.96825
4.57586
3.1241
3.14948
3.18933
4.55909
4.15898
5.00911
3.95499
3.88835
3.15928
3.65311
3.7137
4.04875
3.78299
3.61801
3.8181
3.94175
3.77072
3.67393
3.87188
3.74396
3.80683
3.76782
3.86498
3.84831
3.24815
3.15469
2.97878
3.67924
3.67038
3.76591
3.91031
5.05954
2.07956
3.32689
3.39971
3.42924
3.37166
3.47975
3.54916
3.54245
3.60144
3.63042
2.09246
2.05938
2.08551
2.16706
2.18511
2.18166
2.16753
5.08647
4.4303
4.48253
3.94686
3.69636
3.50576
2.81914
4.24419
4.23879
2.42073
2.70409
2.44216
2.75907
2.75075
2.89141
2.89287
2.74904
2.91603
3.22606
3.21646
4.20493
2.20779
3.5321
3.1962
2.96123
2.37354
2.37472
2.38136
2.97208
3.00016
2.88598
3.03274
2.90802
3.31219
3.21168
2.67823
2.65037
2.61576
2.61404
2.68321
2.61266
3.73904
3.91001
3.91479
3.24813
3.34431
3.48544
3.12113
3.01498
3.89285
3.60325
3.66564
3.36289
2.07001
2.05396
4.07211
4.94693
3.31753
3.37321
3.38288
3.54175
3.32458
3.41888
2.17394
2.20583
2.19771
2.20373
2.185
4.86522
4.50765
2.05612
3.32442
2.57302
2.65877
3.05433
2.68273
3.04129
2.85117
2.6505
4.23284
3.76524
4.06729
5.38552
5.89105
4.67129
3.10743
3.09995
2.18731
2.19119
2.19215
2.19636
2.19839
2.20429
3.60374
2.27175
2.15763
2.05369
2.12424
2.08176
3.75561
3.72584
3.43575
3.17271
2.93928
2.65169
2.84071
2.51979
2.24153
2.56801
2.44304
3.66031
3.62905
3.75913
3.72543
3.66614
3.52562
3.44126
2.17587
2.23399
3.3856
3.36999
3.26169
3.32462
3.04714
3.38317
3.35863
3.38468
3.05239
3.16558
2.71291
2.90787
2.91038
2.69041
2.79228
2.95265
2.82728
2.85508
2.80937
2.92128
2.97433
3.65517
3.63151
3.62392
3.66506
3.63303
2.38075
2.32185
2.72689
2.50134
2.82669
2.61403
3.59154
3.66751
3.68268
3.71908
2.78731
2.93195
2.85404
3.07734
2.93173
2.74285
2.85637
2.20216
2.20504
5.16597
5.4995
3.43094
3.38416
3.40831
3.24568
2.14694
2.11324
2.05841
2.14824
2.11098
3.75335
3.74453
3.42083
3.37654
3.345
3.13796
3.21792
3.03475
2.54966
2.60288
2.52326
2.54344
2.17901
2.17496
2.17578
2.16945
3.16252
3.45427
3.45308
3.4052
3.01711
3.07979
3.02008
4.07488
4.40487
5.16023
4.14791
4.80754
5.00707
2.23076
2.42684
2.18488
2.25356
3.44733
3.45388
3.51081
3.47172
3.40352
2.19911
2.19187
2.19626
5.87286
5.80271
3.15859
3.04902
2.97664
2.35615
2.63264
2.68027
2.38184
3.8748
3.92078
3.92082
3.9971
3.96432
3.94909
3.32299
3.39002
3.42461
3.30606
5.06327
5.61341
2.62616
2.78472
2.40611
5.49734
3.51177
3.42048
3.15037
2.64152
4.98297
3.42774
3.49494
2.07506
2.45493
2.3729
2.41978
2.4434
2.38071
2.38736
2.15747
2.13801
2.28522
2.19004
2.46144
2.51446
2.45821
2.48255
2.46203
2.51738
2.45694
2.49308
2.92854
2.75974
3.34349
5.13885
5.62668
3.08871
2.17846
2.16123
2.17615
2.16724
4.25603
3.70227
3.71528
5.11515
4.51512
3.18679
2.64823
3.79639
3.73451
3.95322
2.43142
2.43497
2.26573
2.24914
3.09372
3.18759
3.47283
3.49935
3.52141
3.78353
3.41566
3.4243
4.52611
4.42102
4.95405
3.0241
3.37105
3.33505
2.94783
3.1795
3.94701
3.86033
3.80599
4.35637
5.15677
2.11349
2.04529
3.40361
3.4751
3.53965
3.53464
3.41132
3.45311
3.38024
3.43787
3.35245
3.3709
3.43974
3.4545
3.41014
3.48557
3.42919
3.47275
3.90775
3.83894
3.89882
3.87511
2.02451
2.00101
2.08396
2.12912
3.24883
3.24142
3.9433
4.02835
3.89164
3.17579
3.18788
3.19102
3.80002
3.69619
3.73411
3.74524
3.81442
3.08275
3.2053
2.8584
2.91756
2.83746
2.83085
2.59183
2.59965
2.60389
2.73835
3.12774
3.23789
3.47891
3.46884
5.6559
5.69311
2.19587
2.18928
3.65664
3.66337
2.70343
2.63571
2.63138
2.58065
2.63435
2.64319
2.2983
2.23208
2.29817
2.17815
2.19161
2.28453
2.1573
3.20385
3.1247
3.16415
3.05404
3.30786
3.27762
3.21144
3.26155
3.21459
3.2291
3.84259
3.88023
3.93096
3.86095
3.94483
3.41128
3.48654
2.92561
2.79436
2.80339
3.08763
3.333
3.36614
3.37616
3.00344
2.90546
2.06113
1.99613
2.54103
2.65109
3.02672
2.16878
2.12252
2.12795
2.24803
2.18702
3.64047
3.66408
3.64006
3.55735
3.61366
3.70987
3.90093
2.21705
2.27609
2.22087
2.22376
2.31755
2.12866
2.3598
2.50226
2.56958
2.38864
2.15311
2.15034
2.0834
4.18201
4.14361
4.16991
3.93671
4.23877
3.2209
3.12584
2.7112
3.33332
3.36731
3.29162
3.28421
2.34196
2.71923
2.47548
2.5214
2.35508
2.35375
2.24115
2.49489
2.45707
2.21628
2.23398
5.55699
5.19959
3.91262
3.93427
3.86741
3.34803
2.7715
3.11241
4.57116
5.39595
4.80374
3.5906
3.51202
3.55784
2.75599
2.64543
2.30227
2.25914
2.59733
2.3022
3.20869
3.29612
3.187
3.3566
3.05975
3.0819
2.99507
2.89816
2.89561
2.32926
2.22508
2.26924
2.88002
3.5283
2.89565
3.22441
3.57156
3.46839
3.19186
3.46936
3.26232
3.9166
4.42588
3.65992
3.08126
3.13491
3.24025
3.28435
2.14047
2.17142
2.21413
2.21105
3.49863
3.42974
2.1405
2.14174
3.75445
3.43101
3.6068
4.86941
2.005
2.02429
2.08219
2.23025
2.14494
2.14961
2.74061
2.64068
3.34157
3.32892
3.24352
3.20965
2.54772
2.62184
2.9151
2.03076
2.73217
2.66077
2.57434
2.70698
2.59937
2.5711
2.74445
2.66771
2.72966
2.60356
2.64432
2.64635
2.84964
3.74537
3.69073
2.17243
2.22118
2.12652
3.34925
3.29896
3.31969
3.17639
3.14761
3.10521
4.79227
4.17948
3.23389
3.43851
3.30694
3.6499
2.93927
3.14973
3.08715
3.01649
3.115
2.65446
2.64942
2.66309
2.67701
2.67514
3.09356
2.9912
2.95957
3.09183
3.04328
3.12183
3.07177
3.13509
3.12548
3.13058
3.11491
3.42169
3.37348
3.44428
3.41961
3.37804
3.94775
3.82917
3.84924
3.87513
3.88474
2.89714
2.98131
2.88372
3.00988
2.97095
3.99229
3.81283
2.07828
2.4378
2.53482
2.6103
3.20755
3.08671
2.35369
2.27332
2.27891
4.93093
4.46685
5.12515
5.87133
3.80244
3.70887
4.24027
4.28071
3.8828
4.14962
4.20343
4.04689
2.80098
2.93245
3.55723
3.54187
3.54305
3.57496
2.72749
2.57019
2.35864
2.93844
2.26002
2.55019
2.61522
2.40601
4.27374
4.9388
4.5316
6.37198
2.33303
2.5182
2.5772
2.97133
3.00115
2.76088
2.73691
3.19447
3.14939
9.25738
4.98329
4.49597
3.82193
3.8523
3.00218
3.23109
2.88705
2.59055
3.26483
3.31783
3.2904
3.31318
3.59772
3.62062
3.55896
3.55011
3.56731
3.64448
3.60887
3.55977
3.60207
2.69898
2.62681
3.20365
2.31612
2.30361
2.57776
2.50466
3.17985
3.06483
3.14699
3.19184
3.0915
3.01451
3.21429
3.27648
3.34718
3.15786
3.42678
3.89272
5.02125
5.87197
2.98594
2.99107
3.11236
3.05277
3.11237
3.07385
3.63825
3.61623
3.57272
3.56426
3.59096
3.5643
4.84216
4.08209
5.60467
4.89094
3.79529
3.66081
3.60517
3.62688
3.59662
3.82525
3.92819
3.25212
3.29304
3.28573
2.70638
2.27219
3.12032
3.18284
3.2896
3.2964
3.23018
3.18545
3.21587
2.67003
2.61586
2.62789
2.70282
2.68183
2.95928
2.87243
2.88735
3.00193
2.96217
2.19149
2.17773
2.19868
2.21313
2.17872
2.17815
2.48517
2.19536
2.19929
2.26904
2.25801
2.21788
6.9355
3.41737
3.4299
3.47629
3.46399
3.4756
2.00283
3.63346
3.67406
3.68367
3.63895
3.65554
3.10901
3.17013
3.15549
3.15891
3.12685
3.03209
2.88992
3.13812
3.00755
3.02457
2.52556
2.71632
3.1119
2.92774
2.12923
2.13893
2.18556
2.25075
2.14031
2.17051
2.60683
2.5309
2.44873
2.34452
2.40086
2.32147
3.57515
3.51609
2.12452
2.06712
2.07522
2.16572
2.17552
3.98323
3.84898
3.91648
3.85505
3.81995
3.6537
3.93555
3.79527
3.8122
3.88502
3.95398
3.91971
3.32587
3.27975
3.25412
3.05127
3.12062
3.12463
2.24981
2.21167
5.02057
5.36268
6.05024
3.70426
3.85628
2.03572
1.99819
2.61135
2.43667
2.35181
2.60365
2.25641
2.26017
3.34031
3.3249
3.36142
3.38784
3.38627
3.09017
3.12569
3.41116
3.33343
3.35142
3.48473
3.41073
4.37018
3.91437
3.64759
3.73116
4.16332
7.31
10.2004
2.60415
2.57393
2.50749
2.52115
2.47957
3.62348
4.14673
3.74492
5.26813
5.90857
6.06382
2.55052
2.6362
2.65371
2.76787
2.73403
2.65758
2.61083
2.66894
2.80479
2.73324
2.65193
2.64573
2.67831
2.64317
2.63639
2.67386
2.65273
3.08417
3.09053
3.09249
3.07957
3.09031
3.10249
3.09434
3.08272
3.11487
3.2418
3.41191
3.65269
4.29783
4.70947
4.17586
3.56196
3.70103
3.26769
3.28032
3.39912
3.35231
3.12446
3.1784
3.07399
2.94406
2.92756
2.90069
3.01397
3.08167
3.0459
3.65786
3.71755
3.69403
3.74693
3.67721
3.70465
3.52102
3.59613
3.3806
3.5299
3.3391
3.75497
3.65698
3.94532
3.96031
3.71933
2.15452
2.13461
2.09912
3.31031
3.27638
3.40011
3.49856
3.52208
3.70807
3.37142
3.3697
2.09515
2.13797
3.58382
3.52847
3.51969
3.5128
2.04718
2.08613
2.00031
3.2085
3.24461
3.51101
3.53718
3.55475
5.35643
4.98727
3.51097
3.56305
3.55668
3.55297
3.52013
2.36901
2.21762
2.59502
2.35465
2.43328
2.77882
2.54258
2.9542
2.87526
2.99582
3.24899
3.05547
3.68497
4.54591
5.35867
2.24675
2.26998
2.20703
2.40663
2.43981
2.64782
2.64778
2.85247
2.68004
2.65012
2.67543
2.64983
2.64088
5.88482
6.51965
8.03923
3.95662
4.06289
5.21356
3.08586
3.08408
3.06201
3.04559
3.0865
3.0978
2.16596
2.16748
2.17246
2.16521
2.17116
2.17045
2.90503
2.7157
2.77544
2.9343
2.54357
2.49936
3.19728
3.19747
3.13714
3.15879
3.14949
3.17399
4.73851
5.52463
5.03006
3.32107
3.18719
2.68303
2.14017
2.17757
2.13882
2.156
2.15578
2.18002
3.17048
3.14837
3.4232
3.62333
3.63258
3.22176
3.20379
2.17558
2.19511
2.28463
2.23564
2.34268
2.3867
2.2556
2.558
2.94434
2.70872
2.41045
2.19988
2.19486
2.36567
2.25049
2.01239
2.02533
2.69726
2.65776
2.53735
2.49961
2.47104
3.30496
3.35437
3.32408
3.37052
3.43953
3.50403
3.54197
3.53913
3.69136
3.49097
3.55013
3.69588
3.84906
3.89818
3.80771
3.8894
3.23267
3.18498
2.97106
3.01651
3.16999
3.02338
2.67005
2.67061
3.11178
3.11346
3.1621
3.13724
3.65206
3.63664
3.6591
3.74688
3.66482
2.52338
2.58522
2.45535
2.44723
2.4916
2.56256
3.40899
3.28083
3.36317
3.29501
3.10479
3.21049
3.1846
3.12281
3.44352
3.5338
2.73304
2.85604
2.91073
2.43841
2.37725
2.55688
2.60185
2.55223
3.02665
2.94684
2.58163
2.92766
2.5311
2.6682
2.77647
3.66207
3.63324
3.62125
3.53964
3.64618
3.70461
2.56756
2.33879
2.48111
3.63277
3.32577
3.46223
3.64584
3.7469
3.71842
3.71494
3.66356
4.01689
4.01563
3.9701
4.01999
3.96278
3.99579
3.89708
3.83111
3.80545
3.90039
2.32277
2.20269
2.1542
2.20489
2.16324
3.15126
3.25243
3.30733
3.80118
3.80497
3.75539
2.76112
2.78017
3.48374
3.37194
3.3239
3.44705
3.55477
2.0603
2.07085
2.15052
2.0993
2.15594
2.18062
2.17429
2.84139
2.88371
2.95261
2.90249
2.95365
3.55867
3.56139
3.93087
3.85378
3.82307
3.97852
3.97741
5.06805
3.2046
3.15604
3.11854
3.18433
3.08108
3.07438
2.81959
2.78499
3.00371
2.91262
3.65784
3.87057
3.97812
4.25283
3.1436
3.16058
3.14973
3.20986
3.13393
3.28037
3.24134
3.23496
3.1802
2.79993
2.71625
2.78964
2.7956
2.9257
2.72362
2.68238
2.62049
3.01742
2.96418
2.90999
3.06775
2.94681
3.88459
4.06109
4.57462
4.3598
3.95852
5.65941
6.48604
2.88
2.93937
2.86768
3.77872
3.78661
3.77403
2.74086
2.6162
2.82258
2.972
2.73364
2.63627
2.7078
2.54548
2.57242
2.53623
2.49248
2.56189
2.49069
2.54706
2.51118
2.54835
2.51011
2.54623
2.56842
2.92101
3.0468
2.94129
3.01201
3.03149
2.97039
3.81722
3.81693
3.79211
3.79203
3.81253
3.78457
3.79447
6.42203
7.50127
4.0328
4.35581
4.84445
4.03236
4.57576
2.54089
2.48905
2.52678
2.47885
2.50736
2.60936
2.63764
2.73374
2.6394
2.77453
2.74252
2.92262
2.91604
3.06492
3.06589
3.25302
3.10196
3.21681
3.22083
3.1221
3.18464
3.2594
3.2289
2.64371
2.67117
2.55175
2.53723
2.49339
2.48012
2.51068
2.96542
2.83161
2.92665
2.5833
2.56469
2.62345
2.72742
2.70635
2.65321
2.64782
2.70079
2.56339
2.52606
2.55501
4.25935
3.62513
4.19281
3.77346
5.84598
6.24737
2.8875
2.8396
2.77231
2.88116
2.8136
3.0828
2.984
3.0952
2.99845
3.0582
3.19503
3.15203
3.1926
3.15528
3.12084
3.12984
3.30058
3.05054
3.20661
3.07352
3.01022
4.24537
4.5709
3.07458
3.07744
2.28307
2.25361
2.21304
2.20657
3.38978
3.41301
2.65304
2.71012
3.15702
2.92161
2.82239
3.14876
4.20466
3.99359
3.43671
3.47744
3.94216
3.87022
3.91078
3.8561
3.85966
3.81455
3.77846
3.84134
3.82836
3.83143
3.36039
3.27335
3.21863
3.78141
4.08339
5.9445
6.15974
3.31888
3.25572
3.3515
2.4017
2.14992
2.20453
2.23653
2.11403
2.13493
4.992
4.4387
3.78774
5.16897
3.5946
4.21005
2.37958
2.31774
2.55289
3.12662
3.23122
3.14058
3.19591
3.2142
3.17614
3.42324
3.30589
3.37466
2.65949
2.77224
3.0027
3.14273
3.1209
2.97268
3.04071
3.20288
3.22444
3.0936
3.07427
3.1491
2.84558
2.79812
2.91888
3.91346
3.62066
3.87742
3.50347
3.42852
2.19938
2.11403
2.11759
2.12306
2.16299
2.20465
2.20931
2.13671
2.06955
2.16233
2.12841
2.15748
3.73941
3.81133
3.66791
3.85824
3.34633
3.41992
3.2134
2.51238
2.50633
2.53658
2.8048
2.84612
2.92991
3.86037
4.00768
3.95124
3.85685
3.82003
3.79876
3.68746
4.2505
3.99705
2.10723
5.71108
4.75813
5.59565
2.18367
2.13669
2.30469
2.2804
2.24913
3.7738
3.84866
3.30581
3.38856
3.28875
2.18919
2.19277
2.55547
2.25422
2.2245
2.2031
3.57007
3.53704
3.56248
3.55818
2.3396
2.3314
2.92145
2.86258
2.8193
3.28081
3.07582
3.03468
3.63413
3.4882
2.83958
2.77177
2.94151
2.87403
3.78365
3.68244
3.75633
5.31686
7.71843
11.7036
6.79223
6.32515
2.72885
3.35939
1.70597
2.6981
2.67923
7.50201
12.0387
3.36823
12.0451
2.95062
10.5172
9.41086
7.43725
7.72769
9.3106
7.04581
7.41841
7.95398
9.43807
11.8177
6.25064
5.72848
6.68148
6.20586
7.0906
7.76375
10.5777
9.00298
1.98372
7.33829
8.80693
6.40018
7.2124
9.40953
8.57399
9.0169
9.07324
7.08729
7.54689
1.70692
1.76841
5.79444
8.48837
6.22682
1.9483
8.81909
6.00278
8.82884
10.3856
9.49442
4.57554
8.55385
8.36848
9.27354
7.21017
6.49876
7.34865
7.99381
8.96354
8.08224
3.54675
3.43379
1.87341
1.79346
2.12208
6.69628
7.551
6.01892
10.1389
7.79854
7.72501
8.48716
4.19873
5.61909
3.22242
3.27873
2.67085
2.67868
6.45078
5.72021
6.4612
5.78608
4.47963
6.62876
4.52853
11.8293
8.25663
10.128
9.48047
7.91714
8.03645
8.68206
7.31674
7.81169
6.96214
8.68487
8.83777
7.82845
7.38912
7.95052
8.13579
7.67436
6.63702
3.73933
4.12504
6.24874
6.63741
5.93361
2.94544
4.63815
6.79817
4.43148
2.97241
2.64193
2.87267
1.69681
1.96126
1.65798
9.20511
8.71384
9.73264
8.92273
7.37266
8.29226
8.07423
2.80179
13.6386
10.3968
5.97752
5.75811
5.53484
6.31887
6.37288
6.47727
5.85088
6.1111
6.04597
2.82366
2.88284
6.59767
6.39779
5.6973
8.72034
7.03979
8.91802
9.58964
9.45182
1.64246
1.90758
7.45259
7.79433
6.79752
7.4262
4.62043
1.54642
2.15253
2.77081
2.69705
2.72736
4.46326
6.65598
4.21486
1.66478
1.99364
2.29589
2.41162
1.74497
2.13083
6.37322
6.89171
7.76173
6.71937
8.61772
6.71955
7.80389
8.61167
9.45333
10.67
4.42255
1.6404
1.89382
1.62958
1.92058
7.2915
6.6582
6.84339
8.59274
7.07446
13.6236
10.627
11.0122
8.31572
1.60328
1.75013
2.03796
1.96357
2.18277
2.45394
1.98921
2.2608
9.24521
7.71783
1.94205
2.04108
1.63704
1.94487
9.73894
8.30579
2.24239
8.1502
6.12992
6.8836
8.33615
1.9214
1.59734
1.89508
8.44985
2.8311
2.77597
2.89493
9.83675
7.30124
9.53001
4.73904
5.05617
1.66577
1.96516
12.5005
10.0963
16.4359
10.6607
10.4969
8.91276
9.31512
10.6791
1.64596
1.94832
1.88979
1.60974
1.90928
1.58179
8.37722
6.99766
9.7743
2.44565
2.6593
3.30665
3.24233
3.01083
3.08894
3.14181
1.58978
1.86401
5.64399
5.89951
5.71905
5.61309
13.092
8.29578
17.4704
10.3556
8.45091
7.10699
1.82651
1.61515
1.90199
10.2609
12.1784
10.9738
9.88138
1.86172
1.61314
1.88698
2.46857
2.93926
2.70491
2.34846
2.97741
2.51182
1.58894
2.5505
3.04782
2.70245
1.98632
2.35472
2.46227
12.606
8.43067
2.76105
2.87554
7.46464
8.3264
7.54177
9.56749
9.14232
11.3976
3.10679
3.02978
3.17645
12.2654
9.1649
10.4798
9.07217
8.60525
1.83855
2.22606
4.6924
7.47156
4.54803
5.1738
9.4823
7.70674
6.7665
7.7445
1.57246
12.3181
8.28016
3.0484
2.95065
3.06741
3.61436
3.46494
3.83344
1.62821
5.70016
6.93437
6.61589
1.61698
1.85502
8.55377
9.77094
9.14282
1.57316
1.82361
10.5851
5.14771
5.62321
9.1108
7.16919
8.47555
8.04548
6.05919
6.96476
1.57782
1.82037
1.81696
11.7704
1.58673
8.36533
8.52169
9.26125
11.6481
10.1622
20.8794
14.3354
1.86373
2.20412
8.66121
7.24623
8.12394
11.4186
2.05098
1.73522
14.8595
10.491
1.52839
1.81198
1.6285
1.87804
1.89079
12.0641
8.07374
9.29013
1.85836
1.53049
1.79118
21.2721
17.196
12.4562
9.18303
9.26004
3.04989
3.07988
1.57488
1.85546
1.83521
9.93212
8.04275
6.41417
17.4009
11.7195
14.8598
9.56302
8.73122
1.83216
1.51409
1.82345
5.32396
4.24911
1.58609
1.90128
1.87707
4.89033
7.58381
6.70471
8.56147
12.2015
7.0675
10.1895
11.5718
11.2094
12.3362
7.49797
9.2477
1.66561
1.95284
1.91137
12.28
8.1803
9.01242
1.78067
2.10252
9.08793
11.8366
4.68942
9.97121
5.84944
2.01853
8.37743
7.27687
10.3378
8.9307
9.24981
7.19953
8.47218
7.52394
6.57732
7.90395
1.75017
1.9601
9.38271
4.47647
4.55265
1.68806
1.89174
1.71653
1.8889
4.05412
2.7168
2.76556
2.243
2.12164
2.20867
3.57997
3.92913
3.61755
3.59198
2.22328
3.49583
3.43226
3.81942
2.70003
2.54885
3.5505
3.6581
4.00682
2.45351
3.2425
3.70873
3.21488
3.21312
3.31645
2.56576
2.99689
4.05861
3.91764
3.85225
2.75161
3.5342
3.48681
3.5282
3.33657
3.27436
3.26074
2.16706
3.98242
3.57417
2.84826
2.10861
2.18131
3.09353
3.65033
3.59759
3.60372
3.55449
3.46305
3.50038
3.73337
3.75098
4.0572
2.69582
3.19813
2.1769
3.79594
4.36764
5.37496
2.67415
4.19814
2.85281
3.06759
3.21889
2.97512
3.10417
2.20061
4.11487
2.46311
3.14618
2.77703
4.20826
2.96964
2.85012
2.44177
2.77734
2.87467
2.78762
2.39877
2.43355
3.05139
2.68504
2.12137
2.12085
2.85398
2.22451
2.45713
3.43863
2.72848
3.24026
3.53526
3.25028
3.18031
3.19874
2.78288
3.35756
3.66989
3.57528
3.49518
2.69087
2.54911
3.22841
3.21678
4.09523
3.39149
3.63766
3.73645
3.68382
3.75372
2.26185
2.2727
3.43377
2.75908
2.16356
3.45585
3.3827
3.08365
3.6043
3.54523
2.85342
2.97091
3.81146
3.74179
3.88815
3.4668
3.04552
3.8691
3.47354
3.53188
2.7942
3.52912
3.20593
2.82221
2.17643
3.29249
3.70921
3.21907
3.70764
3.65767
3.27421
3.26094
4.00932
2.68327
2.64088
2.69015
5.05184
3.75053
2.17863
4.89957
2.174
3.13562
2.96248
2.40452
3.82472
3.8125
3.93214
3.29944
4.17303
4.04794
3.95124
3.98923
4.35251
3.46295
4.2093
2.2237
2.23148
3.0812
3.13343
3.00049
2.92647
3.98406
3.90132
3.65834
3.68199
4.00956
4.06106
3.39457
2.92658
2.51355
3.46657
2.99729
4.02127
4.40215
3.45112
4.06536
4.0032
5.51225
3.38415
3.3524
3.66762
2.24061
2.63007
3.63075
3.6704
3.76974
3.6997
3.56404
3.61896
2.21165
3.97939
4.05428
4.0379
3.12711
3.3157
3.40256
3.1323
3.3252
3.42054
3.5316
3.03871
5.10896
5.56104
3.29467
4.63403
2.56808
2.63758
2.56846
3.06809
2.18301
4.63682
4.23907
3.82026
2.70711
2.72244
2.78921
2.80688
2.76894
4.7667
5.46219
2.75488
3.91766
3.37084
3.25855
3.20337
3.35158
3.30018
3.30943
2.71683
2.44811
2.45148
2.49882
2.44676
3.00757
3.21389
3.42962
2.41936
2.72069
3.32254
2.89025
2.98902
4.0261
3.60675
3.49523
3.55669
2.70942
3.28495
3.37011
4.28995
3.49349
3.57328
3.64314
3.61544
2.76684
2.83005
2.18856
2.23789
2.25473
2.93254
3.65373
3.78684
3.67598
3.71307
3.54928
3.52648
3.56498
2.85783
2.85311
2.94612
5.1203
4.3707
4.86412
4.30402
3.22646
3.16768
3.38661
3.59418
3.42625
3.47757
3.21717
3.93337
3.66229
5.25351
5.03327
6.00273
2.13123
3.40777
3.25223
3.37389
3.12426
3.22795
2.62657
2.64866
3.49198
3.714
3.70709
3.69531
3.67319
3.94453
3.73087
3.6652
3.66811
3.77546
3.25131
3.0287
3.13374
3.03447
3.25619
3.21817
3.47066
4.02115
3.92406
3.99975
2.08643
3.68516
2.8531
2.66975
3.64578
3.68844
2.75807
2.56043
4.61631
4.44698
2.23859
3.68101
3.35613
3.19262
2.923
3.89025
3.35236
3.30976
3.22271
3.49137
2.67005
2.91427
3.27123
3.53704
3.50129
3.77531
2.96681
3.0544
3.07141
2.15202
2.90471
2.92131
3.51986
3.70666
3.61384
3.68943
3.5903
3.5153
2.86102
2.79754
2.90257
2.67677
3.33729
3.74803
4.07501
3.70238
3.76943
3.85151
2.96566
3.33993
3.23909