/*--------------------------------*- C++ -*----------------------------------*\
| =========                 |                                                 |
| \\      /  F ield         | OpenFOAM: The Open Source CFD Toolbox           |
|  \\    /   O peration     | Version:  2206                                  |
|   \\  /    A nd           | Website:  www.openfoam.com                      |
|    \\/     M anipulation  |                                                 |
\*---------------------------------------------------------------------------*/
FoamFile
{
    version     2.0;
    format      ascii;
    arch        "LSB;label=32;scalar=64";
    class       volScalarField;
    location    "80";
    object      k;
}
// * * * * * * * * * * * * * * * * * * * * * * * * * * * * * * * * * * * * * //

dimensions      [0 2 -2 0 0 0 0];

internalField   nonuniform List<scalar> 
184166
(
2.83703
2.39276
2.30506
2.81671
2.61547
2.60924
2.11666
2.50611
2.84669
2.84318
2.77926
2.39203
2.4054
2.59614
2.67825
2.79093
2.85188
2.71706
2.34266
2.76843
2.3204
2.33991
2.54576
2.75114
2.7436
2.71646
2.64071
2.77876
2.73213
2.37291
2.80733
2.10255
3.12942
2.92374
2.84255
2.42634
2.3661
2.76903
2.50806
2.22927
2.75694
2.41742
2.73621
2.85058
2.82969
2.728
2.18903
2.70324
2.76809
2.72017
2.14424
2.1044
2.20249
2.73977
2.8424
2.62234
2.72354
2.85841
2.92535
2.52537
2.35844
2.51949
2.80422
2.80793
2.98574
2.06592
2.24596
2.80949
2.10529
2.84151
2.29513
2.89073
2.82194
2.80247
2.41354
2.67608
2.56165
2.80012
2.4561
2.15979
2.15199
2.39739
2.84792
2.79936
2.76952
2.79689
2.45895
2.29316
2.61548
2.34319
2.08165
2.61118
2.7503
2.83871
2.59591
2.3697
2.85839
2.10423
2.30775
2.81816
2.38831
2.37879
2.75405
2.74138
2.09271
2.54407
2.81669
2.58932
2.09637
2.39394
2.22603
2.84419
2.07481
2.28203
2.80301
2.72089
2.51075
2.28598
2.1112
2.29186
2.79837
2.37976
2.72287
2.70531
2.68835
2.60988
2.72473
2.7253
2.78062
2.76102
2.3442
2.71777
2.60089
2.63268
2.41234
2.40843
2.40265
2.58542
2.61796
2.24287
2.55939
2.11759
2.12467
2.37752
2.53389
2.78256
2.30538
2.72011
2.81612
3.00516
2.88235
2.8877
2.80562
2.74999
2.82867
2.96311
2.78754
2.78033
2.83757
2.21465
2.09356
2.15029
2.64799
2.47086
2.47008
2.72571
2.77013
2.7829
2.09161
2.78474
2.72838
2.47453
2.51817
2.95748
2.71371
2.14358
2.2075
2.84605
2.78643
2.60342
2.08993
2.66952
2.60259
2.71526
2.8452
2.44268
2.76031
2.78101
2.1053
2.77499
2.67723
2.82987
2.56764
2.09885
2.87956
2.79687
2.68553
2.79322
2.8318
2.71036
2.79931
2.73473
2.09106
2.6958
2.18009
2.74323
2.41296
2.36949
2.48634
2.71913
2.98718
2.66942
2.43563
2.63328
2.34668
2.5376
2.77756
2.65416
2.11592
2.11315
2.36175
2.48056
2.55323
2.67247
2.15038
2.38301
2.37628
2.83149
2.73347
2.87068
3.01562
2.2593
2.54953
2.69181
2.86409
2.58105
2.91054
2.80352
2.69718
2.10258
2.07356
2.81799
2.34835
2.76519
2.20556
2.65651
2.71277
2.40765
3.00371
2.90418
2.63083
2.90146
2.82134
2.37436
2.60538
2.86748
2.6183
2.7147
2.76149
2.57375
2.56147
2.2616
2.83124
2.42619
2.81936
2.7314
2.78681
2.25017
2.77048
2.64492
2.70356
2.1481
2.55828
2.81144
2.38565
2.61094
2.07754
2.58348
2.47257
2.57359
2.34882
3.26917
2.58206
2.73495
2.24205
2.40391
2.92859
2.89353
2.67704
2.79072
2.7418
2.6491
2.71978
2.87397
2.89024
2.73125
2.61855
2.85666
2.7678
2.8873
2.71035
2.5704
2.1333
2.72457
2.93959
2.58365
2.689
2.72289
2.22668
2.08738
2.72337
2.86723
2.76392
2.82546
2.85879
2.58907
2.60106
2.67718
2.66003
2.68794
2.34506
2.3995
2.51186
2.74463
2.71612
2.08903
2.75006
2.59369
2.33748
2.716
2.82507
2.22196
2.20357
2.79222
2.1137
2.75583
2.60569
2.51104
2.80635
2.54663
2.66772
2.91525
3.01784
2.92618
2.84551
2.92497
2.26845
2.10185
2.44804
2.14459
2.14299
2.72579
2.92248
2.25766
2.35044
2.8459
2.79542
2.57382
2.82259
2.80033
2.47165
2.08205
2.80268
2.27498
2.75478
2.80102
2.09275
2.30776
2.28613
2.06728
2.08376
2.917
3.04248
2.92376
3.00197
2.96134
2.77228
2.70415
2.35948
2.60484
2.63899
2.65324
2.76955
2.76959
2.63624
2.90012
2.86606
2.44371
2.48143
2.48486
2.62077
2.7098
2.73458
2.0948
2.54111
2.09271
2.9072
2.55422
2.47125
2.63225
2.9205
2.637
2.97402
2.75257
2.2073
2.63753
2.81947
2.80411
2.62847
2.33671
2.65878
2.47596
2.48701
2.42205
2.4213
2.37675
2.78659
2.21499
2.19563
2.16067
3.06151
2.56777
2.5615
2.57099
2.53679
2.0927
2.10262
2.11653
2.32848
2.30786
2.33034
2.12059
3.08841
2.92667
3.0214
2.98686
2.87361
2.94813
2.73477
2.73843
2.76011
2.76245
2.80436
2.78913
2.79626
2.78679
2.89964
2.94697
2.70155
2.73994
2.66857
2.66578
2.68807
2.72168
2.62199
2.72173
2.70445
2.69974
2.71129
2.9556
2.72106
2.11682
2.09132
2.09257
2.08584
2.15385
2.08347
2.13365
2.75038
2.76914
2.75654
2.78408
2.76788
2.73136
2.56108
2.44442
2.52296
2.80306
2.77568
2.74094
2.75828
2.74013
2.08717
2.06415
2.40526
2.42522
2.40294
2.37148
2.35849
2.37002
2.63421
2.63991
2.60495
2.63188
2.55596
2.90599
2.85749
2.85324
2.88233
2.93611
2.89324
2.88929
2.74306
2.72233
2.72497
2.71813
2.74268
2.71998
2.32928
2.73555
2.77947
2.06472
2.08958
2.06983
2.81824
2.92156
2.87169
2.75689
2.79811
2.76639
2.80713
2.87276
2.96718
2.70083
2.71869
2.73788
2.74855
2.91062
2.92401
3.03615
3.00246
3.10805
2.97824
3.10821
3.02898
2.93009
2.96173
2.79815
2.92022
3.07532
3.00845
2.86782
2.93751
2.82282
2.78609
2.82285
2.78005
2.15998
2.56325
2.48463
2.42973
2.55262
2.48209
2.5392
2.54737
2.44676
2.49948
2.39234
2.32295
2.89447
2.83586
2.90417
2.88479
2.81482
2.86737
2.85906
2.8575
2.76874
2.70975
2.58549
2.56988
2.58961
2.61594
2.75835
3.02491
2.12293
2.20309
2.09672
2.09476
2.09416
2.09632
2.88805
2.89719
2.97747
2.96935
3.03235
3.00077
2.92205
3.03564
2.75126
2.73784
2.79223
2.82065
2.79094
2.06929
2.60834
2.55701
2.5457
2.79646
2.82204
2.81305
2.82639
2.81493
2.8217
2.82875
2.83635
2.78259
2.74614
2.79578
2.36653
2.42585
2.56399
2.45761
2.843
2.8998
2.89622
2.87781
2.97591
2.87459
2.96794
2.92765
2.64923
2.73302
2.69403
2.73101
2.80695
2.83205
2.69511
2.63851
2.61597
2.60848
2.62345
2.61008
2.95038
2.96023
2.70495
2.68774
2.72099
2.82814
2.73672
2.52193
2.66743
2.87378
2.9847
2.86188
2.85161
2.89532
2.98528
2.90184
2.89278
2.13166
2.2132
2.68168
2.74851
2.81398
2.74686
2.60204
2.8784
2.81682
2.86443
2.85265
2.8098
2.83718
2.09472
2.98708
3.03176
2.99733
2.99398
2.45778
2.8428
2.86907
2.79965
3.14513
2.99282
3.12395
2.18666
2.08564
2.08989
2.14956
2.15039
2.08897
2.54312
2.26474
2.33875
2.90042
2.79753
2.85864
2.49775
2.4335
2.49633
2.45932
2.43335
2.46235
2.80859
2.91353
2.80504
2.7885
2.91045
3.01993
2.5044
2.49026
2.87163
2.69985
2.59105
2.60092
2.27051
2.58028
2.78406
2.77822
2.55724
2.57394
2.55487
2.43154
2.3972
2.4303
2.39825
2.42231
2.62402
2.78622
2.75837
2.76357
2.58314
2.64326
2.58922
2.60545
2.63203
2.47739
2.55612
2.59433
2.74102
2.77378
2.83224
2.80071
2.55333
2.55208
2.37391
2.42226
2.43494
2.85116
2.71575
2.85847
2.90886
2.40863
2.60191
2.10096
2.09473
2.09389
2.77211
2.38795
2.48514
2.36204
2.80793
2.62192
2.68434
2.62736
2.56973
2.59647
2.60703
2.59588
2.72285
2.5723
2.74311
2.62231
2.38522
2.36147
2.38646
2.37203
2.36125
2.36646
2.34994
2.34374
2.3373
2.57593
2.48307
2.37366
2.3825
2.36
2.63606
2.58863
2.64001
2.62054
2.74895
2.77387
2.75557
2.92204
2.6467
2.63479
2.57695
2.32336
2.36401
2.09618
2.09852
2.1026
2.09923
2.54225
2.37873
2.37713
2.37573
2.41038
2.42157
2.66694
2.69268
2.78068
2.70642
2.73523
2.79443
2.60417
2.61925
2.65746
2.36902
2.3579
2.35267
2.35638
2.35422
2.08516
2.0967
2.7797
2.7848
2.09692
2.10485
2.09179
2.09451
2.82612
2.15055
2.26952
2.16031
2.20223
2.38994
2.4389
2.44374
2.40659
2.82659
2.69924
2.72635
2.67607
2.63478
2.67337
2.70276
2.81006
2.50154
2.45279
2.55942
2.47341
2.4833
2.32557
2.82813
2.89573
2.9366
2.87361
2.83503
2.77459
2.66946
2.55968
2.58939
2.67502
2.05967
2.03853
2.766
2.63345
2.53773
2.66713
2.5411
2.63261
2.04899
2.04022
2.85736
2.87387
2.88387
2.9126
2.90581
2.27465
2.75577
2.40881
2.67094
2.10325
2.10687
2.76193
2.77077
2.74852
2.75933
2.76181
2.76838
2.11542
2.19483
2.37637
2.33612
2.69617
2.84498
2.66637
2.74055
2.14693
2.151
2.88595
2.84295
2.6697
2.68514
2.68859
2.65019
2.67714
2.69511
2.822
2.78189
2.81648
2.23411
2.41932
2.29372
2.6091
2.61215
2.69161
2.65749
2.80786
2.7886
2.83177
2.86656
2.95225
2.96513
2.89769
2.90109
2.87213
2.89474
2.84171
2.78871
2.81946
2.79611
2.84013
2.68169
2.6122
2.48024
2.51203
2.43856
2.38853
2.38264
2.40208
2.36584
2.39603
2.54268
2.73058
2.67923
2.664
2.67009
2.64298
2.91557
2.91816
2.78905
2.65988
2.7299
2.48609
2.69359
2.70837
2.68688
2.6815
2.20398
2.17238
2.22667
2.20697
2.17251
2.69778
2.71506
2.71168
2.93175
2.93465
2.83926
2.87967
3.01059
3.00074
2.80438
2.88456
2.81242
2.78855
2.77998
2.4828
2.51818
2.42134
2.62981
2.58386
2.64994
2.66781
2.67745
2.83748
2.79554
2.76353
2.77548
2.75626
2.83018
2.88811
2.80417
3.20148
2.58527
2.60957
2.58869
2.43729
2.49881
2.50515
2.53832
2.42837
2.74782
2.75138
2.78049
2.75314
2.22887
2.28867
2.22682
2.19661
2.52533
2.51174
2.75097
2.80906
2.86807
2.81976
2.92938
2.86978
2.73373
2.72123
2.72741
2.74128
2.12181
2.09503
2.08623
2.05524
2.73211
2.74944
2.71887
2.72603
2.5862
2.57962
2.59254
3.03105
2.99948
2.9805
2.95249
2.94597
2.98937
2.49218
2.38694
2.44335
2.32525
2.5109
2.55586
2.55785
2.56907
3.00683
2.94312
2.96266
2.84465
2.93977
2.63417
2.58425
2.89998
2.70248
2.51145
2.54866
2.40714
2.42319
2.52951
2.70085
2.69156
3.03968
2.83867
2.86026
2.8919
2.87093
2.11408
2.07848
2.07803
2.34265
2.33617
2.53743
2.53275
2.53099
2.52116
2.59639
2.56252
2.24337
2.11731
2.40398
2.56201
2.60732
2.80744
2.79146
2.78068
2.7306
2.72226
2.10124
2.10583
2.10386
3.16021
3.15196
2.97624
2.9735
2.07303
2.0594
2.6917
2.71293
2.58574
2.35365
2.37885
3.07446
2.96001
2.77329
2.8051
2.77597
2.09764
2.10112
2.09926
2.0884
2.09374
2.61523
2.79189
2.69886
2.67447
2.61908
2.62887
2.88571
2.65191
2.65338
2.67077
2.65669
2.48398
2.78498
2.78043
2.72391
2.72785
2.31364
2.32802
2.31597
2.31176
2.8534
2.80599
2.82538
2.87335
2.81515
2.85174
2.53068
2.52408
2.49265
2.75963
2.7904
2.66544
2.36134
2.16505
2.18408
2.27188
2.16568
2.44183
2.24324
2.19655
2.33871
2.94659
2.9924
2.90118
2.59022
2.67672
2.57821
2.62516
2.75052
2.77344
2.75393
2.10104
2.09225
2.10196
2.10609
2.71967
2.66628
2.22218
2.13645
2.12653
2.0356
2.03496
2.47538
2.52219
2.52595
2.45842
2.4862
2.68692
2.35479
2.25439
2.09825
2.08994
2.09835
2.08336
2.08735
2.44703
2.40971
2.61838
2.61271
2.66904
2.63492
2.70533
2.72663
2.63258
2.65095
2.61037
2.11081
2.15626
2.41963
2.4641
2.24011
2.23766
2.23487
2.75431
2.74084
2.75418
2.87245
2.96767
2.9064
2.87151
2.92713
2.97232
2.10718
2.20276
2.13931
2.22706
2.20714
2.3167
2.32967
2.13935
2.14292
2.64843
2.66869
2.66754
2.68235
2.11656
2.10031
2.11945
2.13028
2.66679
2.6791
2.59387
2.65014
2.47089
2.60751
2.49224
2.57402
2.91753
2.91658
2.69399
2.61906
2.27709
2.54325
2.47066
2.48571
2.44223
2.13559
2.32697
2.27814
2.49692
2.37584
2.42956
2.31207
2.68892
2.68445
2.55368
2.63891
2.62434
2.65004
2.22988
2.26863
2.61186
2.68414
2.57998
2.60906
2.57453
2.58429
2.55976
2.6227
2.67017
2.63321
2.6281
2.56851
2.95443
2.94058
3.00653
2.96602
2.77281
2.78297
2.50721
2.54659
2.09975
2.10704
2.102
2.09262
2.08884
2.09875
2.10427
2.09354
2.33161
2.32636
2.34811
2.37001
2.36719
2.71187
2.74355
2.76308
2.70175
2.71516
2.85896
2.86532
2.87527
2.84546
2.40212
2.39371
2.09457
2.0914
2.08956
2.09079
2.09029
2.8923
2.81741
2.53064
2.54154
2.55804
2.83483
2.78364
2.90226
2.75381
2.75005
2.54995
2.72463
2.72637
2.74855
2.6922
2.66538
2.69889
2.91896
2.85257
2.80929
2.89001
2.83787
2.84921
2.80399
2.87925
2.8677
2.58819
2.55153
2.4708
2.76663
2.76668
2.75479
2.76754
2.80997
2.03904
2.6503
2.67037
2.68596
2.66957
2.68494
2.71894
2.71144
2.74239
2.75172
2.04392
2.02539
2.04379
2.09232
2.10057
2.09713
2.09185
2.99577
2.79963
2.81654
2.92553
2.82093
2.74354
2.43105
2.76165
2.75937
2.21173
2.34597
2.22083
2.39035
2.38861
2.45219
2.44683
2.37948
2.45168
2.62613
2.6215
2.7734
2.10955
2.7385
2.60173
2.49605
2.20683
2.2079
2.21157
2.49813
2.51315
2.45867
2.50185
2.44734
2.6429
2.60653
2.36348
2.34959
2.33194
2.33144
2.36529
2.33004
2.7251
2.75076
2.75895
2.58632
2.62872
2.6871
2.56868
2.52247
2.87738
2.7633
2.7789
2.65672
2.03284
2.02519
2.77488
2.82049
2.61386
2.63934
2.64342
2.74447
2.66097
2.69755
2.09185
2.10735
2.10352
2.10602
2.09734
2.91353
2.84803
2.02532
2.6684
2.32015
2.32285
2.53866
2.36901
2.53306
2.44745
2.35243
2.79344
2.73354
2.77397
3.05959
3.08902
2.87585
2.52684
2.524
2.0994
2.1014
2.10041
2.10192
2.10232
2.10733
2.75741
2.13463
2.07754
2.02653
2.06621
2.0434
2.84615
2.82964
2.69991
2.59025
2.46144
2.35123
2.44136
2.28508
2.14677
2.30749
2.24787
2.79983
2.78475
2.84001
2.81942
2.79145
2.71596
2.69442
2.10843
2.14045
2.66255
2.66527
2.60625
2.64468
2.53595
2.67969
2.66994
2.67946
2.53867
2.58712
2.37985
2.47183
2.47287
2.36769
2.41675
2.49239
2.43538
2.44772
2.42629
2.47863
2.50297
2.73671
2.75569
2.75881
2.73698
2.75156
2.18912
2.15935
2.35362
2.24699
2.40126
2.30197
2.77352
2.80834
2.81218
2.82858
2.41718
2.48601
2.44859
2.52733
2.46256
2.36609
2.42233
2.1037
2.10705
2.9125
2.96178
2.69819
2.67892
2.689
2.621
2.07526
2.0573
2.02686
2.07556
2.05567
2.82612
2.82292
2.65614
2.63666
2.62279
2.54257
2.57714
2.50621
2.29741
2.32288
2.28399
2.29284
2.09604
2.09585
2.09412
2.09095
2.58682
2.70964
2.7084
2.69098
2.52404
2.55198
2.50509
2.82157
2.84671
2.93105
2.8174
2.87538
2.94136
2.12649
2.22455
2.10648
2.14267
2.67504
2.70309
2.71358
2.71172
2.67196
2.10369
2.09957
2.10197
3.2188
3.205
2.58368
2.53726
2.4862
2.19404
2.32905
2.34573
2.20272
2.88292
2.90397
2.9005
2.92974
2.92005
2.91501
2.62512
2.64899
2.66486
2.61553
2.89678
2.99418
2.32753
2.39939
2.21656
3.09664
2.67127
2.62974
2.55992
2.32782
2.91906
2.7131
2.74314
2.03685
2.2493
2.20631
2.22931
2.24313
2.20913
2.21268
2.0771
2.06808
2.14188
2.0939
2.24844
2.27649
2.24696
2.2599
2.24883
2.27854
2.24672
2.26576
2.44825
2.37026
2.6623
2.91267
2.98916
2.53742
2.08886
2.08006
2.0898
2.08468
2.78798
2.68924
2.67768
2.91468
2.78343
2.6055
2.35194
2.77346
2.75899
2.78094
2.24782
2.24777
2.1576
2.14882
2.56422
2.60421
2.72663
2.7369
2.68547
2.71827
2.65714
2.65908
2.85906
2.83744
2.9304
2.49795
2.64804
2.63213
2.46588
2.57013
2.89333
2.86226
2.83976
2.89502
3.0586
2.05685
2.01891
2.65477
2.68818
2.72126
2.7195
2.65774
2.67838
2.67671
2.69529
2.66585
2.67192
2.69501
2.69817
2.65774
2.69937
2.66682
2.68957
2.87127
2.84382
2.86854
2.86013
2.00691
1.99415
2.04113
2.06342
2.58183
2.57793
2.89079
2.92947
2.8758
2.55318
2.55948
2.55877
2.83888
2.79633
2.81441
2.81889
2.84618
2.52137
2.60724
2.45192
2.48236
2.44038
2.43584
2.32196
2.32434
2.32575
2.39047
2.574
2.62443
2.72589
2.72242
3.00735
2.99743
2.09976
2.09695
2.76938
2.75002
2.36402
2.33413
2.3347
2.3097
2.33228
2.33879
2.17848
2.14107
2.17889
2.10708
2.1142
2.16397
2.09755
2.59474
2.55356
2.56623
2.52007
2.61182
2.59803
2.57275
2.59352
2.57301
2.5775
2.86503
2.87468
2.89506
2.8732
2.90553
2.65742
2.67308
2.47495
2.41352
2.41431
2.51585
2.61884
2.63289
2.63798
2.51762
2.47156
2.0267
1.98918
2.27365
2.33111
2.5038
2.10502
2.07951
2.08229
2.15027
2.11649
2.77537
2.7581
2.76382
2.72683
2.75311
2.71437
2.749
2.1119
2.14206
2.11435
2.11536
2.16357
2.08876
2.18113
2.25234
2.28279
2.19424
2.07599
2.07483
2.03903
3.00514
2.99813
3.00277
2.91095
3.0277
2.6216
2.57875
2.38588
2.62015
2.63611
2.60049
2.5971
2.1768
2.36144
2.24338
2.26455
2.18211
2.17935
2.1234
2.24946
2.23197
2.11117
2.12047
3.01169
2.95148
2.89272
2.89961
2.8753
2.63393
2.3797
2.53305
2.8871
3.04014
2.93252
2.73804
2.70113
2.72027
2.40833
2.35516
2.17966
2.15331
2.32797
2.17617
2.57474
2.59852
2.56382
2.60752
2.54302
2.55295
2.51321
2.46838
2.46693
2.16701
2.11344
2.13738
2.43117
2.71582
2.44041
2.59036
2.72641
2.68341
2.56748
2.68769
2.60033
2.74109
2.8264
2.69444
2.51379
2.53951
2.58383
2.60042
2.06981
2.08473
2.10579
2.1048
2.67866
2.66471
2.09004
2.09015
2.59772
2.55817
2.59718
2.96092
1.99588
2.00709
2.04013
2.13258
2.08554
2.08622
2.39267
2.34351
2.64344
2.64113
2.6138
2.60121
2.27228
2.30645
2.44257
2.01211
2.38773
2.35145
2.30759
2.37542
2.32132
2.30662
2.39377
2.35556
2.38595
2.32373
2.34793
2.34872
2.44532
2.73917
2.72909
2.08618
2.11111
2.06235
2.66693
2.64538
2.65444
2.59274
2.58024
2.56062
2.74874
2.6692
2.54803
2.57727
2.56229
2.59342
2.45223
2.54441
2.51836
2.48679
2.52899
2.34999
2.34753
2.35416
2.36116
2.36029
2.54825
2.4989
2.48719
2.545
2.51965
2.53328
2.51191
2.53631
2.53325
2.534
2.52948
2.66102
2.63693
2.66987
2.65653
2.63748
2.88838
2.83997
2.8425
2.86117
2.86335
2.46661
2.50471
2.46069
2.51743
2.49966
2.86076
2.82543
2.03763
2.24885
2.29581
2.33729
2.61459
2.56135
2.19833
2.15575
2.15877
2.99195
2.90086
3.01452
3.23987
2.86385
2.82751
3.02568
3.04497
2.8947
2.9977
3.0176
2.96434
2.42469
2.48659
2.73436
2.7234
2.72048
2.73562
2.35579
2.28097
2.17791
2.45369
2.13568
2.27968
2.30891
2.20764
2.83604
2.94098
2.8601
3.36671
2.16558
2.25583
2.28384
2.47281
2.48334
2.37407
2.36373
2.57042
2.54887
3.82483
2.98037
2.8963
2.83178
2.84351
2.48636
2.58648
2.43177
2.29393
2.58889
2.61203
2.59937
2.60976
2.75759
2.76696
2.73859
2.7336
2.74359
2.75729
2.75987
2.73961
2.74509
2.34169
2.31077
2.56933
2.17954
2.17417
2.31564
2.2785
2.58994
2.54294
2.57763
2.59527
2.55506
2.52204
2.61057
2.63635
2.66707
2.58552
2.70309
2.77929
2.90751
3.02662
2.50747
2.50915
2.56177
2.53688
2.56141
2.54508
2.72885
2.73196
2.73702
2.73818
2.72015
2.73103
2.95513
2.82031
3.11067
2.97049
2.76839
2.75606
2.75489
2.74268
2.74971
2.77512
2.79173
2.58325
2.59969
2.59686
2.37776
2.13501
2.52993
2.55531
2.62973
2.63116
2.60918
2.59118
2.60339
2.35589
2.32954
2.33577
2.37282
2.36263
2.49316
2.45434
2.46178
2.51293
2.4955
2.09963
2.09232
2.10102
2.10937
2.09021
2.09095
2.24252
2.10433
2.10399
2.14147
2.13887
2.11784
3.18043
2.66177
2.66866
2.69418
2.68647
2.69589
1.99623
2.76217
2.78746
2.79169
2.75607
2.77237
2.52328
2.54916
2.54388
2.54428
2.53131
2.52708
2.46271
2.57716
2.51698
2.52642
2.27501
2.37477
2.55485
2.46561
2.08162
2.08924
2.11691
2.15043
2.08577
2.10373
2.32961
2.29124
2.2503
2.19487
2.22376
2.18203
2.71587
2.70939
2.06322
2.03117
2.03746
2.08678
2.09114
2.90809
2.85327
2.88183
2.84884
2.83612
2.75768
2.81409
2.82459
2.80986
2.87763
2.91994
2.90108
2.61883
2.59734
2.58587
2.50272
2.53296
2.5339
2.13383
2.11277
2.88563
2.93727
3.05906
2.6863
2.70547
2.01405
1.99326
2.30025
2.21581
2.17306
2.2963
2.12683
2.12866
2.62239
2.61548
2.63317
2.64552
2.6451
2.5521
2.56752
2.69182
2.65533
2.66046
2.7231
2.69239
2.8198
2.73773
2.69142
2.70794
2.77966
3.44925
3.97165
2.32452
2.30851
2.27391
2.28263
2.25973
2.7144
2.76587
2.72387
2.93376
3.03624
3.0681
2.29625
2.3399
2.34944
2.40531
2.38926
2.35092
2.32718
2.35745
2.42398
2.38931
2.34911
2.34618
2.36292
2.34556
2.34162
2.36035
2.34957
2.51881
2.51844
2.52493
2.52504
2.53162
2.54206
2.52934
2.52979
2.57208
2.62978
2.70309
2.68336
2.77277
2.85221
2.75767
2.66813
2.68662
2.6183
2.62237
2.6494
2.64146
2.5651
2.58617
2.54242
2.47079
2.45805
2.45576
2.52199
2.55255
2.5356
2.78901
2.81168
2.80522
2.82602
2.79556
2.80568
2.73384
2.76424
2.6777
2.73791
2.65911
2.73076
2.72436
2.74893
2.74713
2.72914
2.07652
2.06836
2.04682
2.6551
2.63934
2.69075
2.62809
2.66439
2.68228
2.63367
2.63698
2.04681
2.07049
2.75393
2.72644
2.72426
2.71929
2.01843
2.03944
1.99173
2.56418
2.57957
2.72846
2.73687
2.74093
2.95102
2.89352
2.7287
2.74896
2.74252
2.74173
2.73113
2.21317
2.13506
2.32318
2.20551
2.24716
2.41435
2.3007
2.49606
2.45959
2.47285
2.56267
2.50077
2.62813
2.7736
2.91015
2.13376
2.14936
2.11458
2.21955
2.23364
2.34727
2.3469
2.44606
2.36394
2.34829
2.36115
2.34898
2.3438
3.17221
3.29832
3.56605
2.79916
2.81648
3.05281
2.5178
2.52426
2.51355
2.51314
2.51774
2.5203
2.09639
2.09289
2.09991
2.0983
2.09513
2.09364
2.43652
2.34918
2.3778
2.45066
2.26708
2.24483
2.5622
2.56304
2.53825
2.54745
2.54226
2.55195
2.99821
3.15459
3.06324
2.66904
2.60921
2.37556
2.06972
2.08684
2.06761
2.07565
2.07647
2.08866
2.59806
2.586
2.69771
2.78039
2.7835
2.61187
2.60513
2.09719
2.10933
2.15296
2.12512
2.17951
2.2202
2.14941
2.30867
2.49583
2.38362
2.23438
2.12301
2.11694
2.20952
2.1468
2.00278
2.00952
2.37372
2.35416
2.2917
2.27413
2.2574
2.6469
2.66486
2.65475
2.67363
2.70135
2.71802
2.7309
2.71798
2.75655
2.70988
2.73031
2.76011
2.86315
2.88169
2.84621
2.88313
2.61558
2.59449
2.50069
2.52152
2.58847
2.52461
2.35945
2.36015
2.52529
2.52507
2.54414
2.53529
2.78365
2.77517
2.76952
2.77215
2.78138
2.28357
2.31561
2.24708
2.24236
2.26557
2.30261
2.64983
2.62255
2.64196
2.62622
2.55519
2.59802
2.58847
2.56316
2.70933
2.7402
2.39194
2.45054
2.47638
2.24341
2.21161
2.30359
2.32655
2.30096
2.53073
2.49343
2.3246
2.48719
2.29785
2.36877
2.42047
2.78327
2.76918
2.7669
2.75875
2.80141
2.82659
2.31869
2.20229
2.27553
2.79724
2.66609
2.72503
2.77716
2.81752
2.80572
2.80585
2.78167
2.94987
2.94835
2.91393
2.94812
2.91572
2.83066
2.8417
2.83697
2.81754
2.81508
2.18197
2.12063
2.09805
2.10282
2.08339
2.57615
2.62108
2.64669
2.81873
2.84682
2.81522
2.40302
2.41275
2.68604
2.64332
2.6197
2.66961
2.71529
2.02516
2.02916
2.07809
2.05064
2.08186
2.09469
2.09102
2.44035
2.45939
2.49095
2.46922
2.49202
2.73521
2.72875
2.9113
2.88232
2.86767
2.92888
2.92788
2.96516
2.59219
2.55979
2.54605
2.58672
2.53754
2.52864
2.43
2.41345
2.52792
2.4845
2.80728
2.86688
2.8716
2.93268
2.54018
2.5466
2.54622
2.56919
2.53823
2.59739
2.57981
2.57863
2.55704
2.42204
2.3808
2.41664
2.41618
2.47742
2.38143
2.3616
2.33152
2.51784
2.49476
2.47031
2.53973
2.48623
2.77397
2.78934
2.84641
2.8123
2.77723
3.01756
3.13376
2.45848
2.48706
2.453
2.81835
2.7909
2.82835
2.39074
2.32906
2.42948
2.49935
2.38621
2.3388
2.37361
2.29407
2.30768
2.28864
2.26487
2.30148
2.26398
2.29376
2.27489
2.29392
2.27408
2.29326
2.30488
2.47547
2.53046
2.48451
2.51524
2.52381
2.49745
2.847
2.80188
2.83005
2.80714
2.8637
2.84414
2.85958
3.12192
3.27057
2.81305
2.84691
2.89885
2.79641
2.84825
2.29021
2.26295
2.28257
2.25744
2.27246
2.32552
2.34036
2.38771
2.34115
2.40815
2.39187
2.47839
2.47418
2.54331
2.5419
2.62232
2.55906
2.60855
2.60822
2.56638
2.59744
2.62942
2.616
2.34402
2.35899
2.29589
2.28804
2.26517
2.2582
2.27435
2.49638
2.43378
2.47821
2.31372
2.30395
2.33254
2.38337
2.3728
2.34689
2.34474
2.37021
2.30265
2.28325
2.29834
2.78037
2.70208
2.7761
2.72393
3.04182
3.0882
2.45909
2.43717
2.40466
2.45611
2.42455
2.54811
2.50336
2.55268
2.50957
2.53574
2.55805
2.54078
2.55702
2.54102
2.5276
2.5311
2.58213
2.49862
2.56246
2.51544
2.49637
2.851
2.91741
2.54749
2.54877
2.14678
2.13207
2.10997
2.10591
2.64642
2.65626
2.32327
2.34951
2.5503
2.44567
2.402
2.54681
2.80431
2.7589
2.7062
2.72035
2.83779
2.866
2.85923
2.82871
2.85628
2.86564
2.85379
2.86846
2.86585
2.87336
2.65336
2.62748
2.60734
2.75645
2.80642
3.14575
3.15628
2.64315
2.621
2.65652
2.19889
2.09664
2.12882
2.14317
2.07637
2.08719
2.80769
2.73537
2.59149
2.78643
2.65314
2.74759
2.19381
2.16534
2.27751
2.5646
2.60617
2.57041
2.59236
2.5992
2.58582
2.65006
2.62935
2.64338
2.35409
2.40903
2.51502
2.57757
2.56832
2.50041
2.5313
2.60402
2.61362
2.55519
2.54665
2.58118
2.44419
2.42189
2.47784
2.72178
2.69404
2.71948
2.67502
2.66922
2.12335
2.07877
2.07968
2.0801
2.10234
2.1057
2.10816
2.07083
2.03232
2.08371
2.06608
2.08048
2.82102
2.84956
2.76283
2.79111
2.67066
2.65826
2.57139
2.27562
2.27255
2.28834
2.42045
2.4404
2.47949
2.87027
2.91855
2.90398
2.87014
2.85356
2.84527
2.7193
2.78167
2.74326
2.05461
3.18324
2.99517
3.15326
2.11578
2.09131
2.17572
2.14136
2.12694
2.83626
2.86854
2.63189
2.64597
2.62702
2.09747
2.09954
2.30143
2.15155
2.11558
2.10411
2.77149
2.73122
2.74494
2.73647
2.16722
2.16408
2.47891
2.45213
2.43075
2.63711
2.54606
2.52534
2.74911
2.68865
2.44061
2.4083
2.48645
2.45629
2.7397
2.73482
2.74031
2.90777
3.36768
3.74954
3.49229
3.19092
2.38924
2.65444
1.80445
2.37388
2.36463
3.38886
4.34818
2.65305
3.87079
2.49336
4.02674
3.67941
3.64337
3.68614
3.69594
3.30548
3.35334
3.41537
3.67666
3.93644
3.11714
3.06362
3.23986
3.10184
3.28434
3.46222
4.00443
3.81191
1.99157
3.34853
3.63373
3.40961
3.36499
3.8447
3.6702
3.55514
3.83125
3.40653
3.34938
1.80907
1.86059
3.10236
3.64199
3.36412
1.96703
3.69125
3.29898
3.4524
3.56271
3.48003
3.01181
3.65502
3.60493
3.65387
3.38603
3.26189
3.43977
3.61276
3.69204
3.62324
2.68721
2.66961
1.92774
1.87577
2.06174
3.31703
3.50768
3.3191
4.05065
3.61851
3.58478
3.66533
2.90914
3.22293
2.61021
2.63046
2.35988
2.36417
3.27566
3.15517
3.21269
3.09147
2.98708
3.45042
3.01351
4.44574
3.71661
4.09997
3.9852
3.63192
3.65098
3.69283
3.37436
3.36063
3.27563
3.8075
3.77085
3.6231
3.47814
3.60743
3.52832
3.46357
3.26393
2.71402
2.77534
3.1884
3.24508
3.13615
2.49168
3.02417
3.48925
2.96395
2.55765
2.39312
2.45438
1.79914
1.97137
1.7719
3.79588
3.82418
3.84797
3.74051
3.45302
3.55549
3.57903
2.45569
4.32117
3.79505
3.18597
3.03016
3.08732
3.25685
3.12938
3.27283
3.13216
3.10461
3.20012
2.43508
2.46257
3.28371
3.16089
3.10377
3.54326
3.26367
3.87937
3.88366
3.97372
1.75951
1.94018
3.37353
3.41546
3.3018
3.63477
3.02493
1.70752
2.1055
2.40938
2.37315
2.38843
2.98002
3.45374
2.91279
1.79145
2.0065
2.1523
2.2171
1.84932
2.06461
3.19291
3.27776
3.4091
3.2461
3.56205
3.26666
3.40401
3.52796
3.53171
3.67181
2.81744
1.76052
1.93192
1.75271
1.94979
3.31211
3.22951
3.32489
3.60054
3.31366
4.63186
4.11705
3.96409
3.43966
1.73924
1.84743
2.01636
1.97501
2.11877
2.23793
2.00204
2.13599
3.69549
3.52722
1.99121
2.01847
1.77722
1.96268
3.92222
3.69722
2.1652
3.62164
3.17983
3.37504
3.69113
1.95013
1.73125
1.93368
3.82654
2.43782
2.41132
2.46731
3.8166
3.34186
4.00321
3.04827
3.11594
1.79752
1.97575
4.04258
3.66887
4.17048
3.52376
3.89753
3.29606
3.81593
3.74131
1.76749
1.96529
1.93005
1.75413
1.94314
1.71961
3.67012
3.32909
3.77128
2.2733
2.34702
2.63975
2.61705
2.52061
2.5554
2.57765
1.72638
1.91359
3.13105
3.09672
3.09452
3.17739
4.15265
3.55631
4.29451
3.44602
3.60681
3.32754
1.89159
1.74836
1.93641
4.01167
4.25558
4.01158
3.78954
1.91372
1.7426
1.93011
2.2812
2.4849
2.36716
2.21223
2.49011
2.27095
1.73782
2.33965
2.53011
2.37562
2.0136
2.18598
2.2497
4.24997
3.39157
2.447
2.45942
3.43262
3.47882
3.41729
3.98491
3.93215
4.28165
2.56254
2.52853
2.59131
4.20737
3.57655
4.0398
3.77497
3.69795
1.9054
2.11491
3.0598
3.64131
3.0137
2.9466
3.77541
3.38177
3.25675
3.40222
1.72079
4.21779
3.41229
2.5438
2.52999
2.54
2.69367
2.67147
2.72313
1.75349
3.11445
3.32907
3.25223
1.75183
1.90924
3.51164
3.62562
3.52967
1.71682
1.88706
4.2045
3.15832
3.25754
3.57617
3.30001
3.53009
3.54119
3.2343
3.36686
1.72155
1.8862
1.88304
4.31776
1.73989
3.64703
3.64674
3.66281
4.37848
4.11674
5.65772
4.6842
1.9322
2.11163
3.56494
3.30838
3.44155
3.85819
2.02264
1.84164
4.36222
3.70296
1.68335
1.8805
1.75629
1.92237
1.93156
4.19299
3.3585
3.56524
1.91213
1.69507
1.87026
5.82834
5.078
4.22137
3.51968
3.56755
2.54928
2.54937
1.73194
1.91034
1.89765
3.78626
3.39354
3.14061
5.16385
4.20444
4.67477
3.86885
3.82258
1.89515
1.67522
1.89049
3.14553
2.93563
1.74382
1.93787
1.92302
2.9118
3.48512
3.21911
3.6123
4.12105
3.29682
3.68996
3.84558
3.77547
4.23824
3.34624
3.50732
1.78517
1.97013
1.9442
4.37667
3.58399
3.60874
1.87428
2.05313
3.44807
3.95328
3.02148
4.09464
3.25084
2.0062
3.53499
3.40616
4.07499
3.84424
3.90662
3.19327
3.43329
3.32552
3.17932
3.39433
1.8453
1.97382
3.57117
2.79945
2.80745
1.80212
1.93055
1.80941
1.92864
2.93295
2.3825
2.40614
2.1241
2.06483
2.11208
2.73606
2.90389
2.76544
2.76161
2.11745
2.72119
2.68685
2.79328
2.37421
2.28844
2.75325
2.80312
2.89853
2.25914
2.60195
2.77446
2.6188
2.61018
2.61191
2.27845
2.52005
2.89764
2.8996
2.69301
2.40193
2.74245
2.72072
2.73546
2.62323
2.60763
2.5715
2.08533
2.8278
2.75746
2.41253
2.0763
2.09443
2.56102
2.74704
2.73148
2.72735
2.72655
2.69221
2.69779
2.73697
2.81669
2.93751
2.37206
2.60225
2.09161
2.82654
2.8556
2.99645
2.36302
2.94406
2.42922
2.5471
2.61703
2.50757
2.56597
2.10148
2.83007
2.24175
2.58063
2.4115
2.84312
2.50746
2.45404
2.24958
2.41537
2.46325
2.42138
2.22517
2.2439
2.50823
2.34313
2.08532
2.08484
2.45496
2.14185
2.26282
2.66806
2.38852
2.56957
2.72268
2.61455
2.58201
2.58584
2.39755
2.67456
2.79851
2.76051
2.72965
2.36904
2.29566
2.5755
2.57077
2.79857
2.68491
2.73806
2.7725
2.76812
2.76776
2.15512
2.1642
2.68571
2.40405
2.08441
2.67744
2.65479
2.55456
2.77711
2.74919
2.44587
2.46569
2.84718
2.82098
2.88068
2.68418
2.53677
2.74209
2.67858
2.69098
2.38954
2.67963
2.57193
2.4264
2.09488
2.65202
2.82337
2.59882
2.76696
2.76355
2.60628
2.58806
2.80635
2.36629
2.3447
2.36968
3.0262
2.80987
2.11145
3.07165
2.08946
2.56389
2.48971
2.22474
2.84059
2.82409
2.89473
2.63678
2.93241
2.90986
2.90863
2.91953
2.86726
2.65893
2.81089
2.11457
2.11739
2.53162
2.53889
2.50123
2.46055
2.81488
2.79878
2.77715
2.77491
2.92975
2.91952
2.64846
2.45477
2.26374
2.68724
2.51112
2.85577
2.87693
2.67371
2.90088
2.8487
2.98982
2.6421
2.62798
2.76532
2.13996
2.33826
2.77905
2.77696
2.80132
2.78609
2.75129
2.76088
2.12086
2.90508
2.94285
2.93157
2.57186
2.65371
2.69213
2.57572
2.66252
2.66088
2.70561
2.53722
3.11409
3.22359
2.6037
2.92067
2.30641
2.34162
2.30649
2.51119
2.0929
2.96461
2.80067
2.75231
2.3772
2.38542
2.41733
2.42598
2.40788
3.02065
3.19056
2.41162
2.876
2.63533
2.62141
2.56732
2.63005
2.61112
2.61091
2.35033
2.24745
2.25096
2.2734
2.24866
2.5194
2.58343
2.65141
2.20835
2.36403
2.58992
2.43908
2.46737
2.76152
2.69632
2.67925
2.69257
2.37917
2.60971
2.59825
2.87082
2.72717
2.75707
2.78633
2.77094
2.40654
2.43652
2.09337
2.11985
2.12865
2.48704
2.79924
2.84941
2.80261
2.81673
2.747
2.73825
2.75202
2.45397
2.45011
2.49434
2.96971
2.90405
2.96527
2.90028
2.58826
2.5484
2.63309
2.73524
2.66555
2.68553
2.61533
2.90355
2.78918
3.14019
3.08407
3.28767
2.06654
2.62929
2.57345
2.57758
2.56964
2.61121
2.33749
2.34876
2.68254
2.77833
2.80499
2.77441
2.80513
2.91645
2.82318
2.79664
2.79046
2.83874
2.62249
2.52605
2.56784
2.52559
2.58706
2.57094
2.6796
2.93821
2.87191
2.91076
2.04461
2.81071
2.43928
2.35883
2.77678
2.7918
2.39984
2.30347
2.86836
2.83713
2.12081
2.76961
2.63875
2.60509
2.48421
2.78498
2.62526
2.6013
2.58243
2.69898
2.36817
2.4627
2.61472
2.73129
2.71091
2.83781
2.50301
2.54184
2.55065
2.08703
2.47186
2.48038
2.70322
2.78787
2.74818
2.78381
2.73434
2.69994
2.44974
2.41771
2.47108
2.36373
2.64591
2.75235
2.7877
2.81848
2.84564
2.88052
2.49792
2.66389
2.62879