/*--------------------------------*- C++ -*----------------------------------*\
| =========                 |                                                 |
| \\      /  F ield         | OpenFOAM: The Open Source CFD Toolbox           |
|  \\    /   O peration     | Version:  2206                                  |
|   \\  /    A nd           | Website:  www.openfoam.com                      |
|    \\/     M anipulation  |                                                 |
\*---------------------------------------------------------------------------*/
FoamFile
{
    version     2.0;
    format      ascii;
    arch        "LSB;label=32;scalar=64";
    class       volScalarField;
    location    "80";
    object      nut;
}
// * * * * * * * * * * * * * * * * * * * * * * * * * * * * * * * * * * * * * //

dimensions      [0 2 -1 0 0 0 0];

internalField   nonuniform List<scalar> 
184166
(
0.172459
0.186583
0.186364
0.168932
0.185112
0.190842
0.180968
0.190132
0.171182
0.183889
0.169334
0.188058
0.188377
0.183384
0.186482
0.18698
0.186909
0.192747
0.187328
0.188882
0.1878
0.187037
0.190325
0.177159
0.190647
0.186703
0.185925
0.189662
0.189718
0.187879
0.190924
0.180818
0.165573
0.195041
0.189764
0.18873
0.18783
0.187228
0.184817
0.185586
0.192354
0.188571
0.189454
0.194257
0.187812
0.191985
0.18489
0.185081
0.193493
0.189159
0.184013
0.181415
0.184834
0.191267
0.193339
0.191585
0.186645
0.194154
0.183151
0.185626
0.18758
0.18498
0.178578
0.176499
0.165754
0.179925
0.186238
0.184584
0.181853
0.191983
0.186027
0.193594
0.188402
0.183265
0.188786
0.187252
0.191518
0.184408
0.19052
0.185322
0.184566
0.189775
0.184158
0.180382
0.188437
0.167512
0.188991
0.186942
0.185963
0.188212
0.180814
0.185351
0.183625
0.144914
0.18698
0.185297
0.194076
0.181229
0.187234
0.191318
0.188198
0.187975
0.182189
0.189004
0.184536
0.190863
0.191371
0.18479
0.181681
0.188194
0.185497
0.185996
0.180967
0.186336
0.191575
0.191192
0.184881
0.186403
0.180643
0.186452
0.179805
0.188062
0.188693
0.190983
0.190985
0.187014
0.187533
0.190669
0.183732
0.185594
0.187356
0.19072
0.18813
0.190332
0.190015
0.188473
0.189755
0.187726
0.184983
0.186796
0.189674
0.180612
0.18074
0.187907
0.185079
0.189153
0.186356
0.189678
0.178673
0.163357
0.188737
0.170334
0.190965
0.178418
0.182993
0.168967
0.190048
0.169434
0.17056
0.185224
0.181073
0.180919
0.187689
0.190999
0.189944
0.188095
0.190842
0.186788
0.181018
0.190581
0.1892
0.184299
0.189955
0.193034
0.190916
0.182126
0.181412
0.17183
0.182491
0.188497
0.180896
0.186419
0.185282
0.18768
0.187626
0.185294
0.190088
0.154656
0.182296
0.188093
0.19168
0.189804
0.19091
0.181811
0.171746
0.187278
0.186863
0.170607
0.174814
0.186872
0.186811
0.189832
0.180198
0.192284
0.184817
0.178538
0.188484
0.187876
0.185066
0.193541
0.166556
0.183699
0.188777
0.173063
0.187624
0.19113
0.192284
0.184163
0.184247
0.184218
0.18896
0.18958
0.190722
0.185543
0.184169
0.188062
0.189109
0.192923
0.190861
0.16956
0.166193
0.183755
0.19131
0.181941
0.192212
0.190488
0.191203
0.181054
0.180744
0.181487
0.180735
0.189751
0.182972
0.184682
0.184829
0.185883
0.189125
0.188433
0.196087
0.190312
0.188186
0.159343
0.189498
0.187919
0.186957
0.191651
0.185586
0.188066
0.192814
0.190239
0.177346
0.186019
0.193599
0.183946
0.190802
0.193134
0.189949
0.183385
0.193964
0.186399
0.187839
0.184594
0.183796
0.190384
0.188137
0.184008
0.180435
0.184879
0.190121
0.18479
0.187492
0.163973
0.185001
0.190631
0.185698
0.188532
0.165104
0.172412
0.19259
0.183623
0.187706
0.186198
0.189464
0.19368
0.171717
0.187515
0.191425
0.15985
0.192345
0.171668
0.191006
0.190968
0.183628
0.188674
0.1638
0.188544
0.190962
0.174573
0.186543
0.184285
0.190829
0.191676
0.187656
0.19145
0.18549
0.185021
0.191135
0.182558
0.191095
0.188303
0.187571
0.188314
0.185433
0.180425
0.19314
0.184528
0.19353
0.191108
0.187241
0.190718
0.189737
0.186145
0.185617
0.19004
0.181127
0.192688
0.190565
0.190282
0.191212
0.18548
0.19131
0.165323
0.166184
0.191099
0.194488
0.193466
0.186929
0.180692
0.187899
0.184089
0.184015
0.189078
0.184827
0.186119
0.188673
0.192332
0.190879
0.187369
0.19193
0.183131
0.189575
0.180494
0.190255
0.184123
0.186201
0.192129
0.184022
0.187342
0.186681
0.180525
0.180553
0.171651
0.165626
0.194754
0.195812
0.195547
0.187364
0.188171
0.187604
0.185329
0.185696
0.185988
0.190167
0.187636
0.186923
0.194662
0.193776
0.189354
0.189419
0.187665
0.18818
0.188842
0.189886
0.181235
0.190413
0.182684
0.191442
0.188327
0.189333
0.183164
0.184916
0.188712
0.169924
0.181966
0.185069
0.188806
0.190019
0.189235
0.185485
0.185662
0.192386
0.190129
0.190263
0.189111
0.189077
0.187321
0.192627
0.181993
0.181584
0.181346
0.170383
0.188081
0.186768
0.187423
0.18618
0.183148
0.183045
0.184109
0.186947
0.18656
0.186929
0.180695
0.16314
0.169995
0.165774
0.164891
0.171
0.165089
0.188227
0.189257
0.189528
0.190072
0.181513
0.185222
0.183222
0.188558
0.166036
0.16213
0.18705
0.188271
0.18651
0.186238
0.187386
0.188357
0.185275
0.188346
0.190775
0.191004
0.190712
0.194719
0.176369
0.180953
0.18051
0.180655
0.180559
0.183969
0.183923
0.184947
0.190881
0.188757
0.185948
0.185304
0.170487
0.179128
0.190269
0.188938
0.190194
0.165885
0.183639
0.189814
0.18617
0.189417
0.180903
0.180589
0.188517
0.188778
0.188441
0.187726
0.187516
0.187671
0.178213
0.189023
0.189732
0.189336
0.181719
0.193557
0.194025
0.193642
0.193587
0.194563
0.194318
0.194273
0.175567
0.186883
0.186521
0.188526
0.177292
0.18621
0.187736
0.181306
0.170716
0.180617
0.180676
0.180837
0.1936
0.19345
0.192787
0.18828
0.189015
0.187834
0.188546
0.192894
0.194122
0.191201
0.189386
0.189358
0.190785
0.194591
0.194875
0.19574
0.195572
0.166121
0.172304
0.165367
0.194058
0.193335
0.193738
0.177318
0.163672
0.156185
0.15864
0.167441
0.162938
0.19283
0.191931
0.194125
0.193816
0.185413
0.1892
0.187897
0.187972
0.189698
0.188325
0.18924
0.190028
0.188494
0.189167
0.187261
0.186301
0.193018
0.190024
0.193686
0.193078
0.189791
0.193014
0.193446
0.193061
0.191587
0.191455
0.185215
0.185078
0.185152
0.185254
0.184826
0.143939
0.18108
0.182143
0.18142
0.181759
0.181996
0.182206
0.191978
0.192616
0.195147
0.195111
0.195853
0.195494
0.193983
0.195663
0.187971
0.184458
0.184302
0.177948
0.180131
0.180528
0.189953
0.189732
0.189655
0.175815
0.187892
0.187828
0.190071
0.176134
0.187084
0.187678
0.189704
0.172388
0.176596
0.17071
0.187841
0.185245
0.181116
0.183294
0.188607
0.193142
0.193421
0.192587
0.194554
0.189387
0.19481
0.193663
0.19105
0.190585
0.190961
0.190282
0.189259
0.188902
0.172125
0.188168
0.189371
0.189279
0.189909
0.189231
0.19475
0.194806
0.187628
0.185674
0.181204
0.158245
0.176307
0.184743
0.177997
0.186121
0.172248
0.185911
0.189005
0.186283
0.170052
0.186308
0.18984
0.184253
0.185726
0.180815
0.166852
0.16306
0.169722
0.18961
0.167358
0.174859
0.169814
0.170721
0.176556
0.169967
0.183684
0.194404
0.195428
0.194849
0.194807
0.189206
0.16943
0.163344
0.171696
0.164749
0.171919
0.165823
0.186385
0.183831
0.184043
0.185446
0.185239
0.183915
0.184594
0.185981
0.18682
0.154787
0.164717
0.161925
0.189736
0.18892
0.189712
0.189268
0.188907
0.189292
0.184957
0.172536
0.184813
0.187498
0.172696
0.16657
0.189847
0.189608
0.191984
0.190842
0.189949
0.189495
0.187266
0.191856
0.191167
0.19089
0.184973
0.184604
0.184567
0.188667
0.188234
0.188544
0.188213
0.188745
0.190613
0.189797
0.189416
0.189177
0.183515
0.182407
0.189656
0.189741
0.189044
0.184994
0.191078
0.19177
0.188621
0.185912
0.191286
0.18758
0.184545
0.182464
0.187725
0.188156
0.188465
0.190606
0.190976
0.191677
0.191883
0.188526
0.183516
0.181087
0.180801
0.181009
0.188917
0.184842
0.189118
0.186594
0.190635
0.188948
0.186933
0.185726
0.186496
0.187938
0.189232
0.188735
0.192549
0.190714
0.192971
0.191543
0.188175
0.187672
0.188177
0.187887
0.187695
0.187841
0.187508
0.187372
0.187289
0.184756
0.189621
0.187922
0.188113
0.187636
0.185855
0.185031
0.185998
0.18558
0.189528
0.189459
0.189033
0.192849
0.191017
0.190857
0.190388
0.188198
0.189145
0.181207
0.181172
0.181295
0.181282
0.190212
0.188054
0.187535
0.187743
0.185921
0.185207
0.190845
0.190899
0.188158
0.186632
0.187213
0.188128
0.189616
0.189716
0.19037
0.183833
0.18752
0.187414
0.187608
0.187568
0.180515
0.180579
0.183434
0.187396
0.180949
0.181343
0.181363
0.181251
0.191949
0.184185
0.186572
0.184442
0.185429
0.188065
0.188939
0.189178
0.188513
0.164931
0.191478
0.191768
0.190991
0.190207
0.190692
0.188838
0.192983
0.189404
0.188778
0.190095
0.189179
0.184986
0.183043
0.159234
0.155367
0.152001
0.143929
0.17396
0.168617
0.191444
0.190397
0.190937
0.191756
0.180357
0.179994
0.152784
0.173138
0.185114
0.185842
0.184895
0.185653
0.180434
0.180297
0.157415
0.156383
0.192822
0.192627
0.192666
0.186399
0.19291
0.187981
0.191156
0.181025
0.181139
0.186382
0.184041
0.18945
0.186309
0.190113
0.189896
0.184872
0.186014
0.187867
0.187793
0.188048
0.188936
0.188374
0.188991
0.181291
0.181473
0.193046
0.191615
0.186549
0.18704
0.190379
0.191123
0.19092
0.190467
0.190467
0.189687
0.191215
0.182324
0.184692
0.183278
0.19124
0.191134
0.191401
0.191282
0.167357
0.176812
0.193595
0.193636
0.194829
0.19473
0.192556
0.19397
0.192629
0.191334
0.191118
0.190151
0.191187
0.184693
0.168353
0.191047
0.190567
0.189381
0.189791
0.188692
0.188065
0.187886
0.188293
0.187665
0.18821
0.185216
0.173195
0.182431
0.185551
0.184782
0.18996
0.192651
0.192374
0.192672
0.190982
0.192437
0.190432
0.186728
0.186449
0.186127
0.186183
0.184947
0.184291
0.18587
0.185388
0.184336
0.189671
0.185674
0.18763
0.157385
0.156382
0.193461
0.194626
0.194463
0.193851
0.177479
0.153652
0.173334
0.19069
0.19045
0.189454
0.189785
0.188333
0.189629
0.190114
0.190417
0.188961
0.189287
0.189178
0.188677
0.187931
0.187957
0.17919
0.164573
0.159172
0.166258
0.155432
0.178527
0.186655
0.187514
0.188778
0.18976
0.189829
0.190256
0.188673
0.190942
0.189895
0.190989
0.189716
0.184762
0.186228
0.184739
0.186287
0.184765
0.184886
0.173774
0.166633
0.191225
0.191089
0.149778
0.153239
0.18304
0.187556
0.179382
0.178205
0.180563
0.181045
0.181089
0.18022
0.189725
0.189651
0.188439
0.189368
0.185035
0.18492
0.185142
0.194183
0.19325
0.192259
0.192585
0.191842
0.192977
0.185225
0.184148
0.184316
0.182939
0.18945
0.189598
0.189758
0.18979
0.195314
0.19533
0.194954
0.193733
0.194826
0.192092
0.191557
0.194293
0.193088
0.184809
0.184993
0.183671
0.183732
0.184993
0.185457
0.185396
0.15537
0.190334
0.190832
0.190676
0.190638
0.181577
0.183588
0.183149
0.186982
0.186729
0.185537
0.186801
0.18492
0.185001
0.189744
0.189766
0.184437
0.182584
0.184586
0.190323
0.190497
0.191186
0.189949
0.169551
0.183533
0.181862
0.18122
0.181161
0.181137
0.167607
0.166024
0.179307
0.179988
0.179963
0.179588
0.191846
0.192398
0.191149
0.188526
0.18907
0.161983
0.165953
0.184031
0.181133
0.185449
0.181107
0.181285
0.181249
0.181013
0.1812
0.191504
0.18232
0.191598
0.191148
0.190587
0.190485
0.161868
0.188446
0.188543
0.182742
0.185401
0.185288
0.188576
0.187973
0.187382
0.187101
0.186548
0.186831
0.186694
0.186642
0.163138
0.166085
0.189224
0.190066
0.1897
0.190917
0.184895
0.184957
0.184619
0.193563
0.193724
0.1924
0.183229
0.181105
0.181176
0.182158
0.183758
0.188407
0.184897
0.185081
0.187443
0.16331
0.163161
0.169779
0.190967
0.191371
0.190694
0.191113
0.193521
0.193929
0.193498
0.180966
0.180582
0.18108
0.181041
0.183347
0.1911
0.181357
0.180294
0.180419
0.180037
0.180003
0.189332
0.189876
0.18989
0.189056
0.189419
0.165976
0.188091
0.186575
0.182442
0.182971
0.183214
0.18242
0.182087
0.183924
0.183354
0.190847
0.19085
0.190679
0.190855
0.18746
0.187475
0.189582
0.18822
0.189977
0.181124
0.182028
0.188646
0.189161
0.184761
0.18475
0.184835
0.18645
0.189921
0.190098
0.192622
0.193303
0.192995
0.192331
0.192177
0.193191
0.181093
0.185819
0.184249
0.181924
0.181932
0.183194
0.183216
0.18086
0.181269
0.186816
0.180891
0.182459
0.178591
0.183757
0.183773
0.183832
0.184035
0.190861
0.191068
0.19053
0.190898
0.18914
0.190522
0.189474
0.190196
0.159276
0.157721
0.179893
0.180756
0.182384
0.18561
0.184853
0.184552
0.184323
0.180546
0.183002
0.18231
0.184741
0.183417
0.184286
0.182734
0.19088
0.190726
0.185082
0.189892
0.189814
0.190412
0.184907
0.186099
0.185506
0.186193
0.182812
0.176661
0.182143
0.173189
0.186153
0.185093
0.182469
0.190756
0.190876
0.190418
0.193986
0.194084
0.194945
0.194674
0.182025
0.180061
0.189372
0.189665
0.180757
0.181003
0.180932
0.179773
0.179828
0.181447
0.181971
0.181863
0.187015
0.186967
0.187338
0.187645
0.187697
0.191411
0.189775
0.191841
0.190951
0.189826
0.192335
0.192173
0.184045
0.188
0.188362
0.18822
0.181028
0.181076
0.180912
0.180999
0.181236
0.151539
0.156124
0.184492
0.184585
0.184654
0.158642
0.16768
0.151341
0.17257
0.175049
0.185233
0.182892
0.180138
0.16793
0.172433
0.176722
0.171698
0.194541
0.194219
0.193332
0.194142
0.193596
0.191923
0.187804
0.193043
0.192327
0.185609
0.185732
0.184449
0.187234
0.187694
0.181363
0.176286
0.140454
0.179937
0.190018
0.188774
0.18934
0.190231
0.186451
0.187463
0.186784
0.187943
0.187713
0.179686
0.179277
0.180262
0.181815
0.181738
0.181428
0.181694
0.158797
0.159224
0.159277
0.195164
0.193755
0.193234
0.188675
0.161728
0.161667
0.18187
0.183175
0.181761
0.186382
0.186673
0.187172
0.186261
0.185364
0.185514
0.192399
0.192293
0.16463
0.181412
0.191088
0.190605
0.189356
0.184664
0.184752
0.18485
0.188979
0.189467
0.188517
0.18575
0.185368
0.189797
0.190385
0.187714
0.187465
0.187103
0.187145
0.187654
0.187019
0.178751
0.174168
0.174993
0.185343
0.185963
0.186446
0.190261
0.189938
0.191413
0.190724
0.1896
0.188895
0.179671
0.179715
0.170182
0.144729
0.185349
0.185862
0.185903
0.191399
0.191683
0.191557
0.181158
0.181194
0.181204
0.181138
0.181188
0.157028
0.16195
0.179549
0.192765
0.188292
0.182643
0.189904
0.188278
0.189879
0.18908
0.18791
0.165916
0.178608
0.170271
0.156438
0.145778
0.159345
0.184926
0.184956
0.181351
0.181377
0.181127
0.181038
0.180941
0.181317
0.189886
0.180521
0.180039
0.179977
0.180879
0.180518
0.194124
0.193411
0.190951
0.190325
0.185516
0.187633
0.188834
0.186502
0.185042
0.186605
0.186147
0.192747
0.192319
0.193105
0.192037
0.19129
0.188301
0.18987
0.183878
0.184575
0.188452
0.189712
0.187427
0.189342
0.189946
0.191024
0.191022
0.190906
0.190026
0.190293
0.18789
0.189106
0.189102
0.187532
0.188255
0.189349
0.188802
0.188864
0.18859
0.189276
0.189567
0.184413
0.188199
0.18902
0.183953
0.187557
0.181163
0.180739
0.182829
0.181666
0.183587
0.182444
0.192763
0.19354
0.193271
0.193616
0.188658
0.189711
0.189067
0.186806
0.186162
0.183697
0.184882
0.180867
0.181208
0.147783
0.143557
0.190974
0.190858
0.190935
0.19049
0.180538
0.180255
0.179621
0.18048
0.180164
0.191516
0.191532
0.185615
0.185302
0.185086
0.185414
0.185756
0.186275
0.18631
0.186569
0.186067
0.186025
0.18146
0.181765
0.181398
0.181377
0.190433
0.191298
0.191188
0.19139
0.19004
0.190316
0.187012
0.175837
0.165575
0.149837
0.17223
0.154779
0.155509
0.182438
0.183522
0.18278
0.183352
0.186818
0.190395
0.188765
0.190628
0.188788
0.181117
0.181004
0.181055
0.158774
0.159319
0.190208
0.190025
0.186891
0.183878
0.185442
0.184764
0.183337
0.193045
0.193577
0.193112
0.193267
0.193577
0.193654
0.186643
0.186295
0.186629
0.186231
0.149156
0.143738
0.185657
0.186064
0.183774
0.15699
0.182874
0.181963
0.187212
0.184623
0.153901
0.193271
0.193776
0.179941
0.18548
0.184628
0.184845
0.185335
0.184493
0.18457
0.179976
0.180039
0.180677
0.180179
0.184849
0.185493
0.184848
0.18515
0.184868
0.185613
0.184903
0.185324
0.184206
0.183217
0.19079
0.14858
0.142919
0.187607
0.180265
0.180176
0.180618
0.180475
0.164368
0.175807
0.173687
0.149474
0.154431
0.191722
0.187992
0.182354
0.183446
0.176066
0.187027
0.186746
0.184917
0.184768
0.191281
0.191483
0.192669
0.192652
0.184317
0.175764
0.186036
0.185837
0.162541
0.163898
0.156004
0.185701
0.187209
0.186962
0.185646
0.186979
0.190884
0.191001
0.190695
0.173149
0.163271
0.180155
0.179358
0.186361
0.187151
0.188288
0.188312
0.186357
0.186972
0.190765
0.190179
0.190788
0.190609
0.190037
0.189669
0.186421
0.188145
0.186655
0.187471
0.189873
0.189599
0.189946
0.18999
0.179051
0.178858
0.179926
0.179978
0.184659
0.184522
0.190729
0.191731
0.191261
0.184737
0.184945
0.184661
0.190876
0.190399
0.19091
0.19095
0.191135
0.185599
0.190869
0.189292
0.190086
0.188898
0.188636
0.187217
0.187037
0.186959
0.187811
0.190647
0.191447
0.192228
0.192296
0.143916
0.142034
0.180708
0.180767
0.188766
0.185795
0.186049
0.186036
0.186433
0.186048
0.185836
0.18625
0.185841
0.184839
0.185922
0.18345
0.183557
0.18448
0.183552
0.189129
0.187813
0.187316
0.187152
0.185602
0.185342
0.185498
0.185608
0.185353
0.185164
0.192255
0.191675
0.191893
0.192434
0.192604
0.186314
0.184447
0.188434
0.187613
0.187131
0.184496
0.185193
0.185343
0.185508
0.189934
0.189221
0.179357
0.178403
0.183096
0.184478
0.18641
0.183882
0.183364
0.183385
0.185108
0.184341
0.190426
0.186852
0.188866
0.188118
0.188775
0.17874
0.174351
0.181056
0.181433
0.181164
0.181103
0.181783
0.184464
0.181439
0.182464
0.18252
0.181409
0.180147
0.180178
0.179605
0.194351
0.195238
0.194608
0.193722
0.194639
0.192043
0.191467
0.188964
0.185361
0.185731
0.184903
0.184837
0.182095
0.184565
0.182973
0.183048
0.181967
0.181609
0.181066
0.182535
0.182474
0.180994
0.181145
0.146901
0.150783
0.19248
0.192334
0.192392
0.186493
0.183896
0.185538
0.164112
0.154157
0.161118
0.187913
0.186972
0.187188
0.189407
0.188706
0.185722
0.184719
0.187789
0.185134
0.185944
0.184371
0.185625
0.182305
0.19022
0.190331
0.189799
0.189211
0.189154
0.181446
0.180667
0.181187
0.184705
0.188139
0.185106
0.187289
0.187313
0.186848
0.185871
0.187392
0.18654
0.172655
0.162446
0.178528
0.184575
0.185147
0.185435
0.185301
0.180133
0.180135
0.180248
0.180329
0.184578
0.186329
0.183669
0.183582
0.161764
0.171664
0.168316
0.162039
0.178811
0.179103
0.179903
0.183526
0.182501
0.182223
0.188001
0.18718
0.188205
0.188589
0.18957
0.189729
0.182395
0.18261
0.184197
0.179427
0.187804
0.187028
0.186163
0.187602
0.186571
0.186241
0.187912
0.187194
0.187697
0.186658
0.187629
0.18761
0.188853
0.180295
0.181622
0.180302
0.180584
0.180011
0.191126
0.190915
0.191025
0.190469
0.190363
0.190038
0.141896
0.15342
0.180687
0.173857
0.178678
0.165847
0.18413
0.184988
0.184893
0.18451
0.18479
0.18724
0.187203
0.187297
0.187432
0.187425
0.188915
0.187885
0.188118
0.18854
0.18775
0.185012
0.184869
0.18467
0.184791
0.184599
0.184867
0.18625
0.185507
0.186262
0.185736
0.185335
0.190196
0.189568
0.188915
0.190126
0.189945
0.189005
0.189387
0.188974
0.1895
0.189282
0.184495
0.188436
0.179799
0.186709
0.187141
0.188356
0.191813
0.191286
0.184791
0.183984
0.184047
0.163388
0.169548
0.159578
0.160902
0.194125
0.194003
0.19431
0.194936
0.194225
0.194899
0.194967
0.195423
0.188906
0.189767
0.189165
0.188465
0.188
0.188401
0.183127
0.182187
0.180992
0.184402
0.181636
0.183408
0.183463
0.182306
0.169378
0.157618
0.162462
0.160096
0.180913
0.181872
0.182149
0.185214
0.184938
0.18373
0.183729
0.186145
0.185658
0.142226
0.160423
0.167921
0.188833
0.1889
0.185325
0.186343
0.184345
0.182814
0.18476
0.185074
0.184813
0.185011
0.190228
0.190311
0.18966
0.18944
0.189907
0.187747
0.189954
0.189757
0.18828
0.182853
0.182948
0.185454
0.184592
0.18468
0.187215
0.186548
0.189852
0.189893
0.190015
0.189918
0.190053
0.189902
0.190822
0.190915
0.191263
0.190523
0.191901
0.17859
0.151521
0.140402
0.189511
0.189438
0.189771
0.189736
0.189718
0.189654
0.184209
0.185753
0.188712
0.18932
0.185447
0.18833
0.162315
0.175369
0.155381
0.16237
0.18174
0.186742
0.189464
0.186663
0.189201
0.181195
0.178565
0.184675
0.184709
0.184718
0.188014
0.180551
0.184611
0.184635
0.1892
0.189015
0.189682
0.1897
0.189681
0.187083
0.186711
0.186851
0.18748
0.187328
0.189041
0.188739
0.188904
0.189322
0.189212
0.181046
0.180924
0.180692
0.180943
0.180476
0.180651
0.18212
0.181537
0.181154
0.181896
0.182341
0.182008
0.131261
0.186591
0.186874
0.187923
0.187513
0.188199
0.179068
0.188983
0.190333
0.190412
0.187866
0.189231
0.184312
0.184484
0.184573
0.184431
0.184428
0.189556
0.18888
0.190483
0.189579
0.189928
0.184439
0.186855
0.188777
0.186878
0.183157
0.183664
0.184537
0.184912
0.182935
0.183511
0.187368
0.186685
0.186115
0.18493
0.185376
0.184588
0.18568
0.187899
0.180331
0.179625
0.180034
0.180965
0.180903
0.191084
0.190363
0.190846
0.189474
0.18951
0.187325
0.181098
0.189195
0.186396
0.191831
0.194069
0.193245
0.185589
0.185123
0.184936
0.184752
0.185037
0.184937
0.182144
0.181646
0.149269
0.144794
0.139202
0.175328
0.170828
0.179335
0.17895
0.182359
0.181347
0.180711
0.182271
0.180421
0.180432
0.18529
0.185169
0.185643
0.185927
0.185953
0.189696
0.189811
0.191175
0.190366
0.190076
0.191515
0.19128
0.16375
0.17233
0.178731
0.176879
0.167027
0.146478
0.139177
0.186743
0.186341
0.185588
0.186001
0.185344
0.183005
0.166035
0.178308
0.14704
0.140421
0.139712
0.186059
0.186921
0.187206
0.188121
0.187917
0.187168
0.186691
0.187408
0.188538
0.187979
0.187278
0.18725
0.187621
0.187331
0.187183
0.187524
0.187295
0.185138
0.184702
0.185538
0.186333
0.186654
0.187459
0.186076
0.186843
0.191148
0.191998
0.192738
0.177414
0.160998
0.155465
0.163901
0.179873
0.175523
0.188816
0.188675
0.185854
0.187321
0.18953
0.189386
0.18925
0.186624
0.185746
0.187116
0.189928
0.190285
0.189972
0.191388
0.19139
0.191724
0.19183
0.191276
0.191237
0.191038
0.191231
0.190885
0.191126
0.190584
0.178733
0.182663
0.172381
0.171503
0.180231
0.180122
0.180376
0.179625
0.191661
0.191354
0.191645
0.177679
0.181401
0.174624
0.185162
0.185722
0.179963
0.180462
0.190459
0.189605
0.189773
0.189451
0.179108
0.179443
0.178486
0.184432
0.184576
0.190829
0.190587
0.190208
0.146322
0.151089
0.190866
0.190879
0.190326
0.190414
0.190708
0.186083
0.185002
0.187183
0.185924
0.186775
0.188791
0.187364
0.189808
0.189361
0.183706
0.18192
0.18421
0.168695
0.152303
0.142239
0.182381
0.183164
0.18234
0.184231
0.184039
0.187275
0.187219
0.18878
0.187661
0.187275
0.187541
0.187406
0.187212
0.153898
0.150177
0.142365
0.178227
0.175719
0.160882
0.184889
0.185946
0.185699
0.186639
0.184841
0.184542
0.182614
0.181879
0.18268
0.183012
0.181959
0.181759
0.183921
0.182892
0.183342
0.184207
0.181858
0.18146
0.184794
0.184904
0.184832
0.184899
0.18469
0.184664
0.170736
0.162115
0.167893
0.193053
0.192244
0.1893
0.180143
0.17999
0.179889
0.179846
0.180007
0.180101
0.191609
0.191167
0.191338
0.19202
0.19196
0.190569
0.19065
0.181946
0.182422
0.182599
0.181805
0.182493
0.185878
0.18434
0.187529
0.190407
0.188779
0.186405
0.184395
0.18376
0.185731
0.184311
0.179389
0.179446
0.188009
0.187671
0.186284
0.18621
0.1856
0.190788
0.190538
0.190817
0.190875
0.190943
0.18975
0.1895
0.187862
0.185262
0.18932
0.188984
0.185514
0.19168
0.191723
0.191475
0.192348
0.190466
0.190212
0.18943
0.189698
0.190227
0.189732
0.187648
0.18772
0.184441
0.184309
0.184226
0.184396
0.190956
0.190599
0.188659
0.184589
0.189981
0.185989
0.186671
0.185082
0.184918
0.185404
0.186213
0.185376
0.188671
0.186786
0.188386
0.18926
0.189215
0.189354
0.189342
0.191851
0.191235
0.188407
0.189236
0.189615
0.18576
0.185176
0.186786
0.187234
0.186697
0.190445
0.18988
0.188385
0.190168
0.187748
0.189264
0.18991
0.190382
0.189955
0.19027
0.193512
0.193713
0.194099
0.188454
0.186639
0.187828
0.193849
0.192353
0.193032
0.190391
0.19068
0.190534
0.190731
0.190086
0.194966
0.194826
0.192486
0.194584
0.193079
0.180474
0.186492
0.189072
0.187749
0.182859
0.184473
0.183746
0.183902
0.180493
0.180585
0.18954
0.190106
0.190621
0.188119
0.191696
0.189938
0.188223
0.188449
0.186389
0.186492
0.185823
0.186076
0.186666
0.179156
0.178947
0.18073
0.180281
0.180929
0.181093
0.180985
0.188633
0.188776
0.189133
0.189057
0.189229
0.189207
0.18817
0.194056
0.194018
0.193593
0.194055
0.193976
0.156134
0.188713
0.186856
0.187079
0.189113
0.18809
0.18718
0.188482
0.188232
0.191475
0.190738
0.193905
0.191111
0.186557
0.182009
0.184733
0.184671
0.185251
0.185076
0.185018
0.185094
0.184797
0.184992
0.185039
0.188564
0.18781
0.188416
0.187943
0.188804
0.1874
0.187126
0.186697
0.189087
0.188971
0.188735
0.189233
0.188787
0.178279
0.172426
0.159398
0.163267
0.175361
0.144805
0.136268
0.188879
0.189392
0.188846
0.189185
0.185132
0.190768
0.187681
0.18661
0.188202
0.189168
0.187465
0.186741
0.18726
0.186075
0.186316
0.185869
0.185224
0.186079
0.185211
0.185909
0.185475
0.18584
0.185421
0.185887
0.186154
0.18881
0.189146
0.188881
0.189036
0.189104
0.188983
0.191104
0.185109
0.190086
0.187025
0.193591
0.192366
0.193953
0.136588
0.128338
0.1766
0.167464
0.156117
0.174536
0.159564
0.185783
0.185164
0.185577
0.185023
0.18536
0.186529
0.186892
0.187693
0.186895
0.188114
0.187744
0.189152
0.188935
0.189942
0.189672
0.190251
0.190005
0.190377
0.190092
0.189863
0.190667
0.190908
0.190749
0.187048
0.187497
0.185911
0.1857
0.185205
0.185052
0.185424
0.189137
0.188266
0.188863
0.186503
0.186275
0.18665
0.187444
0.187233
0.186834
0.186871
0.187209
0.186158
0.185741
0.186071
0.163345
0.181265
0.165427
0.176967
0.142446
0.13739
0.188482
0.188259
0.187719
0.188439
0.188036
0.189554
0.189012
0.189473
0.189036
0.189228
0.184325
0.184326
0.184317
0.18417
0.184242
0.184222
0.181806
0.18419
0.184293
0.185282
0.186322
0.172314
0.167585
0.189968
0.189983
0.181676
0.181537
0.181053
0.180886
0.185947
0.186057
0.183105
0.183319
0.185416
0.184253
0.18398
0.185395
0.168331
0.171535
0.191787
0.191528
0.183852
0.191011
0.188138
0.186754
0.190236
0.193751
0.193987
0.192778
0.19308
0.193937
0.188559
0.189815
0.190094
0.180838
0.17359
0.149822
0.145556
0.18945
0.189902
0.189509
0.181188
0.184022
0.185014
0.184833
0.183544
0.183647
0.142124
0.151712
0.159574
0.135187
0.176244
0.161384
0.182029
0.182066
0.182865
0.189325
0.189183
0.189337
0.189251
0.189168
0.18947
0.184636
0.188213
0.186352
0.187538
0.188406
0.18959
0.190264
0.190222
0.189286
0.189651
0.190542
0.190666
0.189944
0.189862
0.190411
0.188948
0.188662
0.18931
0.170367
0.180411
0.171661
0.183822
0.187028
0.184495
0.18397
0.18382
0.183421
0.183906
0.181007
0.181047
0.180628
0.179619
0.180715
0.180502
0.18056
0.191537
0.191743
0.187297
0.181722
0.191827
0.18596
0.185188
0.185505
0.185452
0.185795
0.187989
0.188326
0.188848
0.19207
0.191286
0.192086
0.192228
0.191844
0.1918
0.18048
0.163838
0.169448
0.180297
0.159684
0.169687
0.159923
0.1845
0.184221
0.184857
0.180971
0.181025
0.191848
0.192422
0.188581
0.18595
0.18886
0.180863
0.180925
0.186538
0.184821
0.181079
0.180861
0.193639
0.189808
0.190351
0.189407
0.180678
0.180789
0.189306
0.189048
0.188618
0.190774
0.189679
0.189133
0.187165
0.186513
0.188793
0.188324
0.189161
0.188934
0.178541
0.182795
0.17992
0.143122
0.132244
0.108113
0.161604
0.144879
0.18827
0.188768
0.171776
0.187976
0.187827
0.137775
0.141344
0.188075
0.111952
0.189626
0.138755
0.12947
0.160634
0.158248
0.132043
0.139567
0.136423
0.131988
0.128904
0.11801
0.139904
0.14746
0.141391
0.139534
0.136917
0.138957
0.136438
0.145259
0.179951
0.137517
0.134935
0.163478
0.141296
0.141383
0.141397
0.126153
0.1456
0.147362
0.133784
0.17256
0.176183
0.149491
0.140636
0.163576
0.178734
0.139048
0.163173
0.121502
0.109994
0.114799
0.178424
0.140559
0.139762
0.129569
0.143113
0.14735
0.144908
0.146949
0.136866
0.146186
0.183238
0.186795
0.178528
0.176566
0.18028
0.147879
0.146648
0.164727
0.145647
0.151109
0.149716
0.142464
0.181406
0.166371
0.190288
0.189933
0.187661
0.187794
0.149702
0.15663
0.14377
0.148658
0.179265
0.161642
0.180481
0.150374
0.150568
0.149376
0.150769
0.14995
0.149279
0.141364
0.140058
0.130119
0.138704
0.150231
0.144803
0.150913
0.147348
0.147314
0.137715
0.140685
0.144461
0.177286
0.168053
0.146419
0.142789
0.149182
0.189704
0.177464
0.161181
0.178417
0.198069
0.195097
0.188729
0.171688
0.178337
0.170429
0.140876
0.151046
0.136923
0.141126
0.145552
0.137205
0.142782
0.19371
0.123218
0.124674
0.152828
0.143514
0.154989
0.151077
0.138301
0.148833
0.150907
0.141951
0.152444
0.188998
0.189321
0.14709
0.14055
0.152178
0.129573
0.136175
0.151878
0.141554
0.150356
0.169642
0.177601
0.137437
0.134698
0.144342
0.160114
0.178234
0.169686
0.185356
0.188559
0.187933
0.188246
0.179072
0.161291
0.181167
0.173498
0.181751
0.181593
0.183444
0.176392
0.180041
0.143965
0.140304
0.13476
0.141136
0.13251
0.142926
0.133633
0.130078
0.118748
0.11372
0.16154
0.170049
0.17737
0.169664
0.178151
0.135405
0.14098
0.145387
0.135784
0.13969
0.14173
0.143551
0.128426
0.128048
0.169807
0.175512
0.179549
0.178786
0.185098
0.183684
0.181347
0.181626
0.132944
0.145082
0.183746
0.17965
0.173647
0.178259
0.142166
0.148119
0.18816
0.144838
0.148455
0.148931
0.147094
0.178136
0.168875
0.177577
0.155957
0.188925
0.188512
0.189257
0.133273
0.137664
0.151344
0.176466
0.172822
0.174572
0.178776
0.117661
0.119989
0.0952408
0.104826
0.130245
0.109703
0.140687
0.117966
0.17082
0.178416
0.177405
0.172033
0.177985
0.16825
0.144711
0.142541
0.130959
0.190178
0.186427
0.189662
0.190111
0.189919
0.190261
0.190331
0.168724
0.176805
0.156328
0.146295
0.150697
0.161876
0.118546
0.137209
0.0950092
0.103205
0.138543
0.140217
0.17631
0.17033
0.17743
0.141159
0.133835
0.131982
0.130797
0.177046
0.169421
0.17768
0.189724
0.18907
0.186443
0.187551
0.187431
0.184786
0.171059
0.19316
0.189031
0.187948
0.183712
0.182639
0.184993
0.128954
0.122795
0.19518
0.189317
0.142064
0.130813
0.139358
0.149376
0.152211
0.14476
0.190226
0.189919
0.190256
0.129892
0.125616
0.140156
0.141371
0.143022
0.177722
0.180838
0.17957
0.159715
0.17973
0.151034
0.135287
0.133555
0.141074
0.134516
0.16948
0.129978
0.12656
0.191046
0.195237
0.189295
0.180676
0.185373
0.174096
0.169957
0.15315
0.143841
0.143886
0.170814
0.176854
0.129749
0.12108
0.122639
0.168624
0.175745
0.150306
0.174397
0.169839
0.126335
0.136711
0.132326
0.140278
0.155377
0.146482
0.169054
0.175896
0.175637
0.14255
0.171705
0.1431
0.140452
0.130377
0.148127
0.150094
0.137977
0.137754
0.180287
0.182071
0.132059
0.135944
0.131215
0.117327
0.179521
0.175913
0.115253
0.117631
0.166862
0.175645
0.17047
0.177096
0.177588
0.131158
0.125736
0.12314
0.177071
0.168962
0.175755
0.143721
0.134959
0.128755
0.121412
0.1237
0.191776
0.189921
0.17142
0.177016
0.1766
0.129904
0.128868
0.138398
0.137917
0.135753
0.132358
0.140868
0.150619
0.176426
0.166814
0.176399
0.167261
0.182535
0.172551
0.177766
0.177309
0.156037
0.144142
0.139103
0.137171
0.12527