/*--------------------------------*- C++ -*----------------------------------*\
| =========                 |                                                 |
| \\      /  F ield         | OpenFOAM: The Open Source CFD Toolbox           |
|  \\    /   O peration     | Version:  2206                                  |
|   \\  /    A nd           | Website:  www.openfoam.com                      |
|    \\/     M anipulation  |                                                 |
\*---------------------------------------------------------------------------*/
FoamFile
{
    version     2.0;
    format      ascii;
    arch        "LSB;label=32;scalar=64";
    class       volScalarField;
    location    "80";
    object      p;
}
// * * * * * * * * * * * * * * * * * * * * * * * * * * * * * * * * * * * * * //

dimensions      [0 2 -2 0 0 0 0];

internalField   nonuniform List<scalar> 
184166
(
40.1538
117.491
8.6594
30.8048
55.8661
14.8229
11.8514
9.77405
39.3279
59.8411
21.5504
4.17185
6.07728
69.9178
52.1754
40.1842
26.7956
86.8152
17.0097
56.7047
17.9502
10.0409
15.2678
61.9531
30.686
50.5286
59.0415
11.8312
49.3473
6.21194
39.3049
121.586
46.9063
70.4076
25.9484
1.85982
5.84559
22.6459
64.3258
120.492
74.3576
2.38957
48.4906
81.0186
25.0057
75.2659
121.228
61.8773
24.7094
50.2564
13.7303
122.614
13.6307
33.7477
26.2919
10.5457
23.681
27.03
48.2323
60.671
3.20618
59.3187
38.4187
13.594
54.6988
9.94213
116.792
54.9486
11.7827
56.4301
9.45922
63.0651
47.4782
37.3451
18.2445
19.4999
97.01
38.382
99.6912
115.559
116.888
103.145
58.7396
12.1666
41.0053
32.6019
17.5452
16.4086
82.6248
18.4752
10.9076
54.3645
40.0629
63.4734
37.9809
121.823
33.2361
123.084
16.6293
38.6314
6.08175
3.19412
39.2058
49.2868
12.2339
22.018
39.4242
55.7349
11.221
3.69982
119.484
47.7406
123.693
15.6474
54.6509
67.1403
50.5711
16.0703
117.797
118.807
39.4372
2.62142
24.556
23.91
21.0216
37.4654
25.1744
27.6668
46.3817
47.374
6.23778
26.1639
75.7073
85.0088
22.0864
1.32903
21.2092
67.3953
82.3955
16.9816
30.5495
12.3482
11.9325
2.7205
67.0033
55.4618
9.19919
50.8054
11.3522
55.6827
60.0654
56.2895
40.1672
34.0352
47.0406
49.1635
41.2324
38.3939
36.7573
15.2267
123.592
13.8566
9.55211
23.5851
100.813
26.7003
53.0932
52.1857
10.9804
53.3863
27.5763
39.6962
12.5538
65.7751
26.7949
117.859
19.6371
43.3425
47.516
67.6382
10.9213
1.72874
72.7046
55.1912
58.6797
31.9483
51.1811
62.9886
122.095
12.4571
85.1968
47.5217
8.93022
123.205
6.50388
54.734
51.4651
34.1173
12.6888
58.2414
23.2977
48.3331
10.8407
87.9297
120.653
33.0142
5.13264
6.47428
78.8485
29.2329
47.939
9.37411
7.04039
63.9747
111.147
23.7622
69.6264
16.2106
14.3413
120.146
102.107
10.7285
10.9061
3.57527
121.29
5.4028
20.2417
24.4992
29.8141
9.60512
51.1734
105.724
24.2208
2.06283
40.1783
4.14311
50.2141
48.6011
2.9362
122.641
123.801
39.2785
32.0262
48.4465
13.9519
58.0866
50.9173
5.50576
69.2477
60.4145
65.4461
59.3329
47.8486
5.66508
65.2049
44.2863
52.2044
51.7106
79.8044
2.0448
65.2532
120.13
25.3574
77.8814
45.7
30.9718
40.0894
20.6154
31.6964
63.6197
50.8691
15.1927
66.8181
48.7256
2.23886
90.6659
122.395
52.2857
102.782
55.0649
5.84456
48.0304
50.2823
29.1067
121.077
7.35397
8.77199
54.2022
90.1132
8.0647
62.1522
62.4997
49.1534
28.0789
45.7361
63.5579
11.35
38.5225
67.7451
55.3146
25.3583
9.76413
14.595
51.5724
60.8884
73.8056
27.8554
4.43844
19.1052
11.2861
28.2884
49.6234
47.3879
56.2856
54.2651
54.6072
93.7082
63.2573
22.1389
64.1636
18.6323
20.3733
69.9181
61.7951
88.7408
12.1051
85.917
94.5737
5.94123
24.6998
24.2818
15.8918
15.4317
47.0661
11.3914
78.903
5.85556
9.12682
54.7883
60.4369
84.6044
42.7131
53.4772
62.5756
81.0549
59.8765
113.243
11.3436
28.2626
13.4928
121.22
26.0444
49.3156
118.247
19.4504
57.6366
44.5598
81.171
56.1822
51.184
102.424
10.7348
46.6821
104.182
39.1054
64.9827
11.6404
113.503
116.336
11.034
122.087
50.5555
49.8521
63.7798
67.2776
67.4324
7.40616
50.9698
0.836008
57.4336
57.0706
56.4177
46.8518
46.7813
40.4256
69.5053
65.6989
105.694
28.6958
29.9393
35.7937
40.3353
38.6252
123.375
11.4203
10.8816
65.6255
86.4563
11.173
80.1168
51.1899
6.53582
46.5675
15.1387
13.8473
79.1328
68.5237
66.3671
50.9271
100.815
92.5143
21.5041
21.8481
19.3892
19.4506
115.118
23.4708
19.727
17.9399
14.9791
47.8638
69.9885
73.1043
69.9067
65.9746
11.2289
12.1802
13.544
7.54628
8.28337
8.69308
116.257
47.0399
46.9188
46.0492
45.0078
44.5938
43.8094
29.6451
30.5057
9.33931
9.99882
9.81477
9.04836
10.6384
10.8452
11.1554
10.2939
56.7488
56.2806
55.5083
56.5431
54.85
55.0231
53.4695
23.1052
21.8757
22.5332
23.321
73.6164
1.59293
119.434
120.921
121.623
121.35
116.655
122.124
119.183
13.4317
13.134
14.673
13.9363
22.6099
23.464
3.48704
6.45895
8.10178
9.04572
45.1308
46.9573
46.195
46.9694
10.9408
10.9753
2.03536
3.09618
2.62604
4.60001
3.73602
4.06823
62.0589
5.05851
5.78319
5.75427
122.232
37.6539
33.539
32.0572
34.9033
36.1011
34.6104
34.6808
21.9012
20.9629
22.3433
21.7253
19.3895
19.5908
21.6476
35.3457
34.9217
11.1224
11.0331
122.83
81.6574
72.1271
72.2848
49.7691
48.3973
49.4962
49.0135
56.4978
60.0661
14.9828
15.8347
15.1033
14.6286
77.6449
76.0628
67.4326
72.5095
54.0836
53.6286
53.0185
62.3272
58.399
60.076
42.5545
42.1484
42.1582
41.2378
41.2407
40.3285
37.2711
36.8167
28.2902
26.8953
16.1011
91.1921
104.21
109.206
96.2288
103.852
96.86
99.4169
107.892
100.633
114.908
118.415
36.8471
34.7781
36.2837
35.5006
32.1336
34.1473
33.4983
32.9513
37.9933
35.5475
50.7347
51.6494
51.9233
59.8323
38.3629
62.2364
118.498
109.072
10.9087
10.8183
11.3149
10.966
43.5277
40.7289
63.3301
69.8643
66.7215
70.6466
59.7261
64.0512
34.0448
32.9795
46.6082
45.6058
45.2752
120.62
17.031
16.0593
16.3861
31.6958
33.7485
32.4833
33.5391
34.2312
36.2044
34.9628
36.0714
19.9864
20.7029
21.3088
2.25699
122.067
122.476
122.191
55.1874
58.109
58.1358
56.7252
61.1043
57.5825
61.3074
59.4159
7.41561
8.47722
7.078
7.84496
64.2038
60.73
14.8387
10.3157
10.5103
11.1784
80.5299
73.0289
67.3798
62.9644
3.19331
1.77405
24.9887
23.9922
24.2436
53.1732
14.4623
56.5857
54.6984
55.4355
56.3816
58.9338
56.9025
57.7676
58.9571
14.3981
17.124
9.94458
11.0718
10.3545
9.83995
9.85438
35.7783
35.4778
34.6567
33.4431
33.0361
32.1174
122.152
62.1679
68.0212
61.908
64.6124
3.02698
13.9666
15.1278
14.8984
56.1813
55.7766
55.1927
113.288
122.494
121.833
116.087
117.334
121.787
56.4147
120.684
118.441
36.0981
36.0091
35.1549
1.55958
1.93671
2.19774
2.36153
1.32478
1.17581
53.769
51.9022
52.5647
53.5218
53.0497
52.403
19.0279
19.1494
41.3387
36.21
32.5727
33.7855
18.9202
26.567
35.9447
35.5532
58.037
56.434
56.57
7.54063
7.05526
8.74826
7.66328
23.7863
30.5215
54.3245
53.0653
54.0847
95.2581
89.7608
15.4141
16.3476
16.4769
46.001
21.2262
22.6647
63.4447
61.553
63.165
61.5753
65.6222
65.2966
8.47879
10.6974
10.6025
43.2478
36.0193
40.3881
43.0091
1.04166
105.537
123.005
122.29
122.738
42.1191
28.5313
19.7755
26.1884
40.5863
34.4341
54.9338
54.3016
82.1238
76.699
80.7805
76.9174
23.0989
20.6693
23.4804
21.9707
1.70695
0.978935
1.17438
0.966824
1.52174
1.70764
5.34695
5.347
5.38209
54.183
28.3689
0.968194
1.29176
0.990012
56.045
55.238
55.2141
55.0898
48.6435
48.1008
48.8646
58.2433
20.7383
21.0454
20.1642
107.497
104.945
10.8217
10.9085
10.8856
10.8951
99.9603
109.254
111.42
113.009
117.156
119.987
19.6452
20.5424
57.6924
58.1649
59.3786
59.2214
81.9158
75.7047
74.2377
34.8054
2.62948
3.00318
2.25734
2.35129
120.204
121.068
40.9139
41.0751
11.2004
12.1073
11.5035
11.0606
38.8844
14.1249
18.7636
14.6752
16.4633
8.6302
9.58844
9.00245
7.99234
31.6177
79.1057
74.4967
79.318
75.7458
20.8409
21.079
35.8502
19.7831
17.9722
20.1032
18.0348
79.7241
93.8519
11.5621
22.4571
23.1846
60.5249
4.67343
1.5393
21.7371
19.6405
20.679
22.1404
10.9399
10.8874
61.3625
62.0725
40.2083
49.2726
43.3217
48.8769
123.216
123.649
20.6264
21.2467
40.4345
42.6899
41.4986
106.82
81.4286
96.6851
83.318
122.9
121.967
43.9297
44.0127
45.7382
44.9681
45.9142
44.753
13.5427
17.24
24.9851
23.6304
40.6629
46.4529
37.6573
40.7318
115.042
115.655
38.3234
39.3943
52.4376
52.5393
16.9712
15.9932
15.6581
16.3929
57.1315
56.2567
56.1506
104.71
86.0207
98.3903
9.03125
8.29409
8.83843
8.21358
22.4769
22.9559
74.9875
68.1121
66.6505
63.2269
61.7535
65.9266
63.3968
44.1606
42.0353
41.4494
40.4186
60.6613
59.3572
31.5791
29.8913
25.0775
26.3676
4.29151
3.123
3.49069
4.05139
4.08716
4.47885
95.7425
8.48732
8.62628
7.9545
7.21912
81.5547
67.5961
67.8506
77.6749
85.1275
82.144
95.0332
51.094
49.8937
50.3661
51.2948
13.9516
13.0731
15.3464
14.8447
13.5534
17.5193
18.2016
18.8678
33.5885
32.7479
76.6895
78.0534
67.5894
64.9321
24.5856
23.5858
23.8724
37.039
36.0377
3.61155
3.58844
18.2454
4.41235
3.45639
3.21073
2.08664
2.70656
61.8936
58.3608
58.882
60.9262
40.0902
40.2386
39.5847
39.3976
59.7116
65.4146
67.919
69.7628
12.8176
14.8028
15.4331
16.9743
14.0322
33.9228
33.3331
34.8738
34.0818
12.4811
14.7593
12.3549
114.022
55.2431
53.2076
17.1766
15.9213
43.6335
42.1552
24.3548
25.0806
15.9006
16.3285
16.953
16.2575
114.157
122.608
123.087
122.422
47.7829
47.9285
49.6909
48.9622
56.8409
55.9451
56.2251
66.1873
62.4732
62.2829
66.9737
60.171
60.6319
47.0076
35.0806
40.4553
28.7638
8.60175
10.3241
9.07935
9.80527
69.5702
76.8956
70.0956
81.0457
75.3333
89.6201
92.8222
77.2391
86.1113
43.6318
47.9355
36.5371
38.2726
46.1367
20.7977
19.9994
38.8253
45.9988
45.1102
45.0625
44.8126
12.6806
123.136
123.467
14.0754
13.8154
58.7987
61.7538
57.2842
56.4503
6.39792
7.37923
108.08
120.18
81.7602
2.78912
2.51584
43.7201
41.8852
2.23442
2.9149
2.44086
123.353
123.19
122.995
48.947
50.0327
50.3808
49.6022
119.146
118.981
32.9842
33.3202
28.8716
22.4234
23.635
45.6679
45.2971
49.5006
49.8404
50.8619
10.8496
10.85
10.8491
10.8825
10.9115
92.1707
5.15124
80.2829
80.0751
89.7608
85.1816
26.7366
17.391
18.138
17.7336
17.0675
69.5111
48.97
49.6077
50.5365
50.0093
8.16506
7.49109
7.96062
7.32288
2.42778
1.76899
57.5318
58.597
56.08
55.7642
48.9037
51.1993
45.669
29.362
29.5469
26.5478
29.8965
15.0277
16.6214
23.9881
115.018
96.5919
107.898
112.634
102.013
4.97018
5.66452
59.5494
12.5297
14.1842
13.1223
14.2428
26.0412
25.9746
24.6714
11.0863
11.0457
11.0376
11.0863
27.8423
24.7536
19.0799
13.514
12.5985
10.9154
10.969
1.51138
1.66625
2.40272
1.96317
2.45413
65.2943
22.7381
19.391
122.404
123.222
121.94
123.937
123.741
78.1349
80.6266
17.6501
16.8247
17.3991
16.5964
65.6569
60.9424
3.78642
3.27944
3.29313
121.084
115.172
0.936662
1.12828
12.0209
11.957
12.3755
45.7322
47.4298
46.8082
57.9626
61.4675
59.6847
57.8594
60.2544
61.7176
122.278
16.156
13.8424
105.441
108.531
96.4752
94.7858
114.602
115.972
10.9275
11.9679
10.673
11.2301
13.3669
13.2121
13.8468
13.9231
26.6833
26.4017
24.0492
25.0721
21.7507
25.5682
21.8716
24.0363
3.43237
2.62669
101.94
108.068
95.5681
69.056
77.2762
73.8338
79.8357
112.404
90.7912
96.0224
46.7556
34.6866
40.3933
28.0425
71.6664
71.9495
49.6794
69.9815
73.0964
76.5332
12.994
14.9371
50.9461
50.7624
64.0734
62.6467
64.2689
63.003
73.8485
75.6326
73.8806
20.2821
20.6864
19.5181
61.6752
61.0673
66.3112
63.1961
42.4414
41.7687
6.57926
6.79838
122.146
121.917
122.509
11.2275
11.0756
122.686
121.905
122.965
7.1438
6.70457
6.74461
7.89074
7.40172
22.2619
22.3393
23.1086
21.6451
21.7711
54.8873
55.4222
53.1052
54.0523
17.2852
17.2624
10.921
10.9129
11.0002
11.0548
11.0545
13.6936
14.4377
54.6724
54.5604
54.2193
36.7281
37.7207
37.2368
36.955
37.7287
64.7654
29.2887
28.3768
28.1089
15.4301
16.0514
16.5812
72.8553
81.5852
80.1932
71.696
75.7526
57.6493
56.0722
59.1788
58.9249
65.1825
71.236
77.6774
42.0425
43.0292
41.0381
40.9316
63.6118
122.123
19.5326
19.7109
20.4277
20.2903
56.4933
55.7711
57.2368
56.0887
57.1561
10.3578
9.86367
123.731
123.94
123.773
123.599
123.799
11.7934
28.6592
28.0748
75.6178
79.6878
85.725
12.106
15.5678
16.2088
19.2124
28.2934
20.1127
119.289
115.631
110.257
110.251
119.708
116.33
26.7791
26.3976
27.268
123.526
35.1854
30.3174
24.3062
13.2858
13.365
13.1947
103.3
99.2339
105.913
51.342
42.5434
1.48278
1.80587
7.07252
6.34991
6.71629
6.05474
7.59436
7.04118
18.309
17.7561
18.8332
47.9751
47.8904
49.3214
1.57104
1.21667
66.8206
74.7676
69.6021
76.4109
11.0256
10.9357
5.08754
65.4377
53.7743
53.5418
52.9766
10.1851
9.83525
9.55139
123.588
123.161
123.742
123.495
123.18
16.1071
16.7656
11.0311
86.2709
105.763
27.632
28.0186
23.1727
28.21
24.7651
21.5228
30.3298
31.42
31.3163
60.9058
61.6944
61.853
45.6224
46.1678
123.873
123.86
123.696
123.808
123.925
123.825
51.9115
12.4932
10.6652
123.607
123.329
123.156
33.9063
35.4096
30.4784
27.1557
43.7731
19.1068
22.7143
17.5215
15.1542
22.285
20.1387
70.8019
69.1678
67.6055
65.1881
65.2733
20.3242
20.1171
13.7316
15.1325
67.1459
69.5525
67.9558
70.1358
26.8499
30.1113
30.8919
31.1919
26.2286
27.7826
18.0629
20.6032
20.6117
17.0739
18.444
3.91278
2.83868
3.84581
3.33847
2.96718
3.43827
35.2763
36.0226
35.624
34.5
34.6545
108.241
109.522
89.4695
99.64
84.4643
96.6546
75.7579
78.6843
72.0946
72.9032
6.70832
7.84382
6.96837
63.625
71.62
85.3601
79.107
123.878
123.841
18.9353
18.0294
29.3155
28.1088
29.468
27.9491
10.8815
10.8999
10.8566
10.9166
10.9221
42.2492
43.5199
51.6806
51.9486
52.5014
93.0692
100.624
102.844
120.276
119.087
121.192
121.134
10.8115
10.7851
10.863
10.9043
30.5762
34.0649
34.971
34.1177
28.3593
29.3835
50.3745
26.0432
26.1546
25.7291
25.129
24.8814
40.3842
13.2179
19.2988
11.8908
14.8087
64.5406
67.6759
64.9134
68.8913
66.8438
123.651
123.69
123.886
47.9833
48.6073
1.42736
1.26352
30.9055
17.8831
24.7685
25.631
19.313
39.058
38.6894
40.2309
40.937
39.468
38.685
66.6776
61.0324
62.0017
63.3389
15.2744
14.6754
24.5185
26.6562
19.3859
44.2149
75.4756
79.5794
81.4547
98.8272
1.44546
29.8287
29.469
11.0085
14.1541
12.9589
12.8327
13.5934
12.535
12.8949
10.868
9.60501
13.3434
9.94937
11.4357
12.5784
11.8312
12.3051
11.4256
12.7051
11.8747
12.5612
38.5117
33.3889
76.4175
26.7175
26.9672
54.7354
11.1082
11.1641
11.0514
11.0996
60.0223
60.8446
61.2241
59.8481
60.6449
95.8841
106.587
42.8953
42.4707
41.5679
18.595
17.5803
15.3501
14.6954
27.0279
29.3161
31.7213
32.5489
1.29199
1.16177
59.3903
58.3537
18.3937
17.7753
17.1262
79.5728
68.9377
69.1525
85.4082
78.3632
45.2287
45.2117
45.7874
59.1258
58.3684
121.625
121.422
53.9688
54.1633
52.7305
53.1544
53.5088
52.9884
19.1108
19.3315
18.4419
17.981
18.1167
18.7471
53.449
52.1075
52.7942
52.1098
45.5479
47.5133
45.735
46.638
10.7068
10.9844
10.9895
10.9467
55.338
54.1155
58.2096
58.9789
56.4439
53.3668
52.6852
53.1509
44.3589
42.9151
43.8696
42.9212
43.6305
36.506
32.0156
26.3875
27.7134
106.303
105.297
114.149
116.993
115.653
110.665
95.3621
90.7686
82.1683
83.385
24.1465
24.7088
121.46
121.4
38.0398
37.8332
121.736
120.376
120.478
121.696
121.383
121.012
16.4906
15.3141
17.0088
121.775
121.644
118.937
121.602
85.0829
84.75
90.9145
96.7828
59.317
58.3392
63.5451
61.8539
61.3248
59.2859
55.1094
56.3231
57.4877
55.7633
57.374
6.51591
5.79828
105.349
112.142
113.413
55.8786
56.4865
56.7209
57.4543
7.5414
6.64183
11.14
11.0219
103.086
98.9122
86.269
13.8209
12.8955
12.7513
15.7332
14.7252
44.2397
43.1902
43.2954
49.8001
48.8986
68.9691
67.3732
120.606
115.938
120.674
119.647
114.641
12.5052
109.804
101.612
97.8975
105.717
120.665
120.524
121.43
64.0419
72.6098
67.1354
72.8297
65.6057
90.6539
93.8577
102.68
53.7942
54.0366
54.7401
54.3318
113.789
94.6781
105.608
103.767
111.856
16.9609
12.5953
21.6425
20.7745
12.11
12.9402
23.1599
22.4689
54.2408
53.3094
54.5252
43.735
29.6523
37.5597
37.8938
38.0029
36.9168
50.2631
51.3928
51.1808
102.627
105.987
114.826
117.979
108.435
116.168
70.8823
70.315
68.8128
68.5428
14.4647
14.3547
12.8944
12.7241
12.1144
15.9583
11.6193
14.154
87.5439
70.0997
88.5333
79.1892
62.2812
62.8904
72.7593
68.6425
73.8552
7.86487
7.52889
7.20218
70.862
68.793
64.4428
61.421
10.8302
10.4609
11.0828
10.9875
4.39489
5.07335
10.975
11.013
63.2023
63.9216
62.9337
12.7195
11.1224
11.12
11.1448
119.553
123.737
123.064
10.8385
9.73509
8.15396
8.99481
9.10955
8.51075
23.2864
26.4942
36.9182
123.865
15.9249
14.4993
13.5564
16.0334
14.5066
13.6816
16.554
14.806
16.7722
14.9887
20.5857
20.1887
23.1554
21.6682
21.1252
10.6093
11.1846
10.5536
23.5344
22.4263
23.7937
22.59
21.2227
21.1801
64.5431
64.4341
66.8116
65.3036
66.566
65.131
41.5334
50.5568
48.635
44.8505
48.4396
3.48965
3.10633
2.98546
3.30481
3.65791
94.5609
103.274
102.198
92.0262
97.0419
51.4589
49.9082
53.6237
52.2371
53.873
53.2687
52.6281
52.9107
52.0017
51.9541
52.5425
45.3183
47.1887
46.4188
46.4521
45.6597
6.65515
8.00545
7.18123
7.64282
6.8793
59.4847
60.7112
120.196
110.241
105.12
103.916
89.7133
90.697
14.9537
13.3444
13.7304
56.7109
57.3335
57.4135
50.2933
74.9668
79.9124
65.3412
64.8612
77.1253
70.7473
68.7366
74.7464
7.415
8.48518
49.4961
50.9953
51.0826
50.1998
30.5939
24.7372
15.372
34.3142
14.9015
23.4905
25.2474
19.6259
42.188
41.5981
41.1129
48.9904
15.4616
22.4871
25.289
80.4872
75.339
87.673
89.982
70.7147
69.5691
56.4754
58.4373
58.3026
46.9
46.871
33.7265
38.9928
32.1417
24.8051
57.0385
58.4239
57.0461
57.6886
49.5708
48.6527
49.149
50.0815
48.3367
46.8137
47.989
47.324
46.4991
86.6743
90.8228
41.1482
119.884
117.972
109.568
111.931
5.13765
4.23133
4.05395
4.66476
2.66052
2.79201
94.7833
89.41
84.4275
93.1194
85.57
29.1425
28.5932
29.153
5.07714
5.5829
5.35543
4.85008
5.95359
6.21771
31.8106
32.3368
32.6503
32.0102
31.1603
31.2251
43.0453
44.4323
43.0413
44.0284
43.4206
43.8637
44.8068
45.1835
45.4894
44.2616
43.6681
52.9562
52.9455
53.2679
1.83994
111.304
57.8444
56.1602
7.04379
7.66753
7.96343
7.40054
6.84285
9.29497
8.24978
8.00807
9.41668
8.63498
10.0088
9.00471
8.50597
9.85665
8.8502
11.6203
11.2166
11.4804
12.1608
11.156
11.1158
103.321
121.776
120.96
116.634
117.41
119.48
25.538
54.1337
53.5254
52.6771
54.1291
53.1069
123.875
36.5646
37.2532
38.0087
36.8193
37.5148
56.2338
55.1917
55.1973
55.9283
56.5357
5.82046
4.94809
7.7359
6.82983
7.30157
102.784
98.3218
85.8015
89.0748
123.609
122.425
119.729
117.141
123.002
120.67
20.2777
18.9341
17.7419
15.5702
16.2535
14.8902
17.4785
17.0683
122.199
122.015
122.633
11.004
10.9848
61.8055
58.531
59.6607
60.7482
59.1353
49.9716
55.8845
57.4246
56.2224
59.2934
61.8037
59.9842
52.9918
53.8619
53.1615
68.8012
62.4955
64.1909
119.006
121.654
16.1288
16.6574
15.5255
17.6239
17.0495
10.8049
10.8769
27.5736
19.9377
15.635
26.6949
12.423
12.6809
55.3511
54.9029
54.5877
55.2611
54.6039
7.91323
8.55792
73.2996
70.2815
67.6407
68.9007
72.7212
6.22109
5.66289
6.04901
6.67815
6.79644
57.3893
56.2828
15.6056
14.7055
13.2483
14.2863
13.1209
26.553
25.7461
25.7252
25.8066
25.8527
24.9264
9.95432
11.8794
10.8266
12.9983
12.0977
11.7633
10.6965
12.9583
14.4496
9.0141
8.7574
8.23491
5.17827
4.9342
4.55804
4.64681
4.32858
55.7645
56.6749
57.6494
55.848
58.6211
59.1295
57.3141
55.7725
23.7093
24.5043
26.0178
12.4786
13.4169
12.6868
12.2559
13.1886
13.6541
12.5699
11.8339
12.1912
11.6334
10.9722
11.4165
11.3117
108.306
112.751
108.576
17.1631
18.5112
18.6109
36.8364
38.3055
37.2248
38.3333
36.8135
37.405
34.0546
35.1731
32.5304
34.8371
32.7384
30.6622
30.5515
30.2453
29.5412
29.7561
11.1372
11.1477
11.1224
12.0902
12.7465
13.5867
63.9499
63.5485
62.7687
65.8234
65.6602
121.562
121.671
53.7053
53.415
51.5141
52.7593
120.917
120.454
121.16
53.5944
53.6256
31.3789
31.2808
31.9975
28.4694
29.4828
32.4993
33.4011
33.1379
32.5479
32.1676
18.6452
14.663
23.8839
17.6788
19.7602
25.0262
21.189
27.9382
26.507
119.378
116.188
111.512
62.1732
61.6429
60.997
118.416
116.587
120.518
109.202
109.16
3.87407
3.79985
6.07556
4.97349
4.17112
4.38888
4.89638
4.5914
58.652
58.5855
57.4388
60.6418
60.8057
59.8807
53.2692
55.1104
51.607
50.4932
55.3247
54.819
10.8009
11.0299
11.2176
10.9531
10.795
10.8556
39.3116
31.8915
34.5464
41.1473
25.1325
22.6503
57.4133
58.5902
60.0939
60.1444
58.2061
57.2327
52.5589
51.7956
51.4296
88.2318
90.5927
100.508
11.1485
11.0902
11.1653
11.166
10.9872
10.8477
21.9286
21.323
34.5576
37.3707
37.8482
32.8214
31.8524
12.1354
13.0766
16.2746
14.1382
17.8647
114.906
119.271
110.487
98.8804
105.328
113.587
119.14
120.757
114.695
118.612
123.183
122.828
17.7216
17.0709
14.8482
14.9397
13.9619
4.40847
3.71633
5.74442
5.1065
6.47589
5.19104
5.91322
3.69644
4.0184
4.01525
4.81154
4.76278
41.9427
42.9797
42.263
41.105
26.8361
26.569
23.3147
24.3034
25.436
23.8851
1.46476
1.74776
53.6574
54.8108
54.115
53.5843
54.5117
54.6547
42.5232
41.6719
42.6656
14.2623
15.0717
12.8023
12.3932
12.9811
14.1932
13.4653
13.7931
12.9172
13.1521
12.6891
12.7054
12.1993
12.1755
11.6594
11.3673
108.518
101.559
102.122
117.61
118.135
112.052
109.385
113.187
96.5368
97.9209
21.2034
25.3822
20.1188
21.3189
22.3428
46.3837
47.2896
45.1708
29.4142
31.6195
31.7971
105.404
111.14
109.68
28.5375
26.3944
27.2706
44.7737
45.7146
45.9459
44.233
43.8694
63.7353
62.6972
60.6168
62.1497
60.5081
56.8655
57.8375
58.1702
57.3569
56.6257
17.5798
13.6596
11.7143
119.248
120.429
92.7399
85.5944
84.2952
37.3004
38.2095
40.3222
5.18143
5.67922
46.7659
43.4895
43.6982
47.3541
48.9104
10.1043
9.25341
123.848
123.93
123.792
123.848
123.87
5.33791
5.2535
5.79575
6.19885
6.26999
28.9625
28.1575
36.5062
35.5738
36.3766
37.6516
38.0006
1.42234
84.8569
91.8956
85.9845
90.7861
96.6915
97.0404
9.34045
9.35656
95.0129
96.536
83.0393
53.5758
52.8102
51.8148
52.4326
51.753
64.2007
59.7532
67.6181
59.2238
58.478
61.8263
64.3972
10.2047
9.94764
10.6282
12.4576
13.9409
10.7065
9.67537
9.22438
11.2767
10.4705
10.4188
13.8248
12.8877
30.452
30.515
29.5615
29.0629
29.4348
29.912
29.2768
16.6486
17.9814
17.2722
31.5694
30.8982
31.1344
13.8003
11.5752
14.8005
16.512
12.7945
11.5708
12.8664
8.82255
9.72542
9.31259
10.7046
11.7949
10.6928
11.515
10.0329
11.1205
10.5159
10.1949
11.0609
11.4717
12.5496
11.2232
11.8211
13.0299
12.5392
29.5435
29.383
30.259
30.2122
31.7166
31.2108
30.5942
26.5341
26.1403
27.8866
27.2529
27.5967
28.4484
28.41
12.2709
11.0279
11.5606
11.3347
12.0566
12.514
13.6492
13.9468
12.5822
15.0589
15.1135
16.8119
16.1674
18.4374
17.4334
18.9965
18.4102
19.346
18.2317
17.4031
17.9308
19.2488
19.5562
12.9551
14.1902
12.4367
11.7126
11.0961
11.3448
12.071
15.3761
13.4286
14.3986
8.71268
8.99775
10.3219
11.6929
11.8524
11.1798
10.1427
10.8602
10.6511
9.60353
10.0044
19.2671
19.7416
20.1515
20.3563
19.9449
19.1145
12.4334
11.4418
11.1552
12.9325
12.2602
15.3674
14.2994
15.0585
13.8087
14.2233
54.6624
55.6346
55.1814
54.6253
55.6995
54.8142
118.987
115.453
108.46
103.883
104.321
7.94216
7.18762
22.1598
21.9012
116.995
117.978
121.275
121.295
52.1443
51.3495
27.4823
29.9034
42.1898
37.1471
32.2435
40.8423
3.79207
3.09962
12.2382
13.0533
27.8829
27.9086
27.2924
28.8404
28.9096
28.5283
28.8104
29.6159
30.2754
30.0653
2.29999
1.93152
2.43057
3.50574
3.74697
4.50145
3.8043
18.4942
17.8658
19.2081
103.82
121.463
117.61
117.935
123.316
122.494
62.2328
62.1745
63.831
62.823
65.9391
64.8501
18.2446
16.0008
22.7283
13.9791
13.9432
13.3804
13.397
14.6728
14.8158
14.7779
14.3726
14.1773
17.6651
19.7777
4.44439
5.29552
4.61718
4.92687
5.39458
6.41803
7.04409
6.32455
6.74485
7.22954
4.35319
3.71998
4.38798
18.2106
19.0692
18.7974
18.5339
18.7733
13.8507
12.1077
12.3747
12.5664
13.5134
122.394
122.465
11.0781
11.0498
11.0869
11.0625
11.064
50.5169
52.0316
6.50135
6.10187
10.5115
47.2131
42.5231
9.96658
10.3425
10.7863
13.643
14.5425
15.4858
53.5936
51.9736
51.4518
52.1445
41.3138
40.8786
27.1362
26.3412
26.9619
120.784
56.8566
57.4138
57.561
13.1577
11.8244
16.4661
115.384
116.316
41.5033
41.6481
15.6062
15.5182
15.0677
11.0689
11.0652
22.019
15.8626
120.104
121.154
87.4402
50.5249
51.785
50.6605
14.8622
15.6673
17.4677
15.7057
15.8854
88.7639
94.6208
97.121
47.9495
46.9103
4.96054
4.72752
5.81969
5.6222
36.3835
36.1393
36.9423
61.3934
35.2293
60.333
128.754
7.90415
0.293908
0.493827
10.9911
0.444905
0.246663
14.4551
57.1538
0.367884
57.2269
0.312511
40.0772
22.6767
135.103
130.562
22.9746
10.3153
29.8445
36.4514
51.7967
59.7359
19.9512
17.7897
29.3866
30.4931
32.8939
36.3833
50.9406
45.9948
111.831
39.3863
50.2303
83.7721
31.6819
49.2282
47.5616
53.7461
43.6439
43.4241
38.5951
121.379
118.718
4.10402
41.8832
97.596
10.308
49.0691
97.378
62.9367
59.9031
63.2198
115.388
58.2832
59.3027
52.5443
8.8561
8.31318
7.66443
55.4273
49.9858
54.3254
0.385133
0.870097
9.34672
8.99937
10.1258
7.07263
6.32684
83.1023
44.2086
49.7275
51.1165
46.8812
68.7429
78.1508
0.553244
1.01807
0.384964
0.243264
3.07944
3.69002
6.49912
7.48954
73.1377
90.2341
80.3065
45.7065
45.2664
44.5805
45.9551
52.3303
53.3354
48.192
39.2186
35.7611
38.2299
46.3336
42.8023
45.7149
44.5114
45.2478
40.6102
10.2043
9.75013
0.785048
0.411496
10.0918
9.12844
8.8039
0.296871
121.863
134.283
120.397
62.8018
82.0837
72.2767
11.0482
11.0492
10.8519
48.383
54.2148
38.9571
40.7807
40.0652
37.6751
40.3953
44.1491
58.7882
61.0225
21.5373
18.8535
20.1576
35.2413
31.7277
35.9922
32.2303
29.8244
33.9845
0.27181
0.583185
14.8709
13.4106
13.3108
33.8259
36.3012
55.2959
50.02
56.1042
10.8698
10.8563
35.0457
32.7089
34.5022
109.52
89.1163
11.0679
15.622
0.500397
0.390016
0.267487
113.594
119.507
102.999
10.1743
10.3742
16.5782
23.0497
8.00301
12.3223
30.6685
29.214
11.5651
11.323
21.3098
21.9061
22.2638
59.3685
59.1904
55.373
0.35458
10.8767
10.8679
123.646
123.729
20.4806
21.3405
32.7888
30.8607
31.2476
57.1929
58.1083
24.7783
22.9592
122.778
9.53423
8.44838
9.72263
17.1658
24.2888
10.953
15.2487
35.1514
38.6108
112.8
118.476
120.964
120.226
42.3795
44.3805
100.158
1.64103
2.29374
5.49793
5.14269
10.9667
10.8777
10.885
79.5118
0.178354
0.530446
0.531981
2.92247
2.49293
122.77
110.67
100.667
9.5193
8.35908
58.7825
59.4575
63.0507
61.2929
14.3267
62.909
74.819
62.5128
122.096
121.506
122.327
10.827
10.4943
123.782
11.9553
11.1848
27.802
28.0639
34.4932
0.815952
0.346916
0.618169
0.232538
0.803737
10.9423
10.9085
4.96219
5.12379
6.14747
64.8333
66.7821
74.4575
63.2258
64.0106
16.0828
15.568
11.1198
11.0358
11.1289
59.6162
57.7123
60.2603
18.1949
123.616
123.432
123.228
28.4158
46.5367
35.6903
95.676
74.6799
92.9886
121.386
84.46
66.1619
81.0845
112.862
102.344
95.027
19.9706
16.901
43.013
44.7891
41.8796
37.4314
40.2599
46.6999
48.1754
45.0633
0.240103
0.69185
0.664637
15.9714
14.188
41.2122
41.4297
42.6437
118.283
108.326
80.4271
91.1166
73.583
0.794468
0.948843
0.7057
2.08962
1.26515
11.1057
27.5329
25.4222
53.3108
62.5007
61.9414
0.244498
0.772689
0.547475
122.995
18.2625
16.827
16.4868
121.924
121.607
23.5939
23.688
24.699
11.0332
10.9879
84.7027
69.1111
66.3035
21.3861
21.7292
22.7786
37.0671
12.9976
12.3652
11.1101
11.1149
11.0916
55.4963
120.761
56.3335
57.2517
51.0785
46.6275
47.2038
54.8091
53.6589
115.264
107.845
12.8791
12.4331
13.3497
27.8761
117.127
120.61
26.1391
24.753
123.995
123.859
122.501
122.147
122.73
17.4961
15.7663
14.9128
10.6873
10.9663
11.0852
57.0397
53.7398
26.3841
24.0499
23.6086
59.5824
55.2419
120.999
120.732
121.1
28.972
26.8945
28.6075
58.02
55.7805
54.5588
47.6693
53.1322
122.836
123.288
123.395
106.142
90.4989
10.4652
10.2291
9.61811
0.799891
1.53653
0.450827
1.17004
29.765
29.6073
28.148
26.4941
25.3442
21.2606
19.4694
17.7964
120.793
121.02
120.916
4.45911
4.29185
3.67898
117.808
113.609
60.6015
59.2983
65.4575
80.674
63.3423
120.379
34.3591
36.5817
47.0734
51.3619
48.8374
26.0351
27.6001
28.2222
27.2213
26.3367
119.817
119.238
59.5147
17.191
17.8865
10.822
10.7277
123.857
123.907
59.7408
5.37753
5.47707
116.657
122.571
12.1785
26.3531
55.7797
47.9068
30.5634
119.9
24.7832
50.9166
8.07308
5.6842
103.444
70.6263
79.6573
37.4649
17.4404
67.6849
22.7265
30.4932
14.838
81.2868
95.4478
97.4443
54.2271
55.6132
60.6481
108.087
27.4101
25.5529
26.5111
54.5995
85.6544
116.192
11.0368
39.6002
28.2378
79.9354
11.3582
11.0919
8.86781
27.1019
25.39
23.7305
24.6664
49.6434
49.8278
49.1141
46.58
63.136
6.21878
5.86019
123.709
57.0101
39.4305
38.5878
114.109
48.5875
115.485
15.2737
10.5409
9.08513
9.72003
11.1929
12.6617
106.914
4.15507
5.12333
41.7733
25.2218
23.7867
114.659
109.044
103.549
106.092
118.427
117.267
77.786
94.0076
12.4059
11.8996
26.2792
15.5939
19.8072
59.2818
6.06395
66.1161
55.3793
80.0266
91.6245
86.0696
117.235
29.5822
29.9352
29.1169
28.7628
17.627
9.48087
52.0295
49.6099
38.1637
74.1557
59.714
39.8678
38.9478
38.9318
116.876
115.353
50.921
7.36655
10.8768
4.85665
9.54391
30.5106
36.4122
35.8322
17.4352
39.6472
52.3271
50.3681
49.5775
19.4606
25.4488
5.70116
6.46564
5.60398
84.0661
9.36139
67.4733
111.25
11.0849
89.8688
36.6868
70.9259
23.3737
26.3238
37.4239
55.4311
13.5798
5.85359
6.24912
6.4643
43.7623
47.7204
120.159
48.0211
10.9656
91.8314
104.858
14.1935
47.5814
47.7884
66.2831
81.4126
50.0626
49.5299
51.6114
50.425
9.60916
16.245
21.4936
11.4914
11.8094
98.6269
110.367
105.475
111.811
11.3394
12.15
11.8328
12.4532
52.0012
51.1344
58.4662
33.25
21.8945
55.0845
29.0279
59.6192
59.9488
53.4194
37.8966
39.1529
60.9537
53.631
54.2762
47.2489
121.448
17.0539
24.2275
25.6971
24.972
24.0319
27.2969
27.2651
120.556
62.45
65.1959
62.0456
93.1899
84.948
78.7356
94.9551
89.2419
52.4167
51.082
96.8658
49.4993
48.1452
54.8916
8.77933
8.68228
10.0329
9.20318
50.6763
121.483
31.2068
34.1678
32.9992
2.74444
2.24
2.37934
1.85037
1.31961
46.7605
47.0391
103.001
60.4903
53.464
2.23928
62.4843
59.3928
61.3723
52.4876
32.2021
120.967
119.511
120.695
119.28
12.5511
37.9967
80.8016
19.3777
122.063
123.182
120.61
120.296
8.48897
8.60635
7.90158
7.17089
2.60851
65.5847
63.6796
6.52512
24.8929
26.6368
25.2731
25.9147
6.05689
7.05488
10.8636
12.6025
12.2199
23.2758
33.703
35.4198
33.8198
34.8933
29.5922
27.9126
28.9129
23.1406
22.313
24.0859
37.8374
38.2957
36.7602
37.3638
67.2757
67.1839
72.1324
58.154
61.8402
58.8309
11.2993
60.0102
56.1701
50.9839
52.3792
51.7947
10.9543
69.7727
66.8674
65.5093
1.92304
1.74348
5.97185
5.78556
4.0541
42.6921
44.0641
7.36246
69.5033
66.5414
62.486
64.1429
61.9106
59.1457
85.7386
99.3981
92.39
98.9013
54.8684
55.0889
58.1954
39.9771
39.6085
39.2479
121.099
36.2522
28.2009
0.837492
46.6768
46.8947
110.26
119.242
57.9996
58.5299
115.868
46.9641
40.4647
94.3999
27.7897
42.177
91.4028
103.609
98.0157
48.6885
103.239
29.9891
36.2912
38.6
40.1467
39.3079
9.77044
11.4094
10.824
10.9003
11.1608
10.7284
55.5396
56.3613
54.7882
55.0391
57.0287
56.4785
105.897
111.916
106.583
113.35
6.51014
15.1304
4.99439
70.9476
67.645
69.409
22.1229
26.9358
92.4935