/*--------------------------------*- C++ -*----------------------------------*\
| =========                 |                                                 |
| \\      /  F ield         | OpenFOAM: The Open Source CFD Toolbox           |
|  \\    /   O peration     | Version:  2206                                  |
|   \\  /    A nd           | Website:  www.openfoam.com                      |
|    \\/     M anipulation  |                                                 |
\*---------------------------------------------------------------------------*/
FoamFile
{
    version     2.0;
    format      ascii;
    arch        "LSB;label=32;scalar=64";
    class       volScalarField;
    location    "60";
    object      epsilon;
}
// * * * * * * * * * * * * * * * * * * * * * * * * * * * * * * * * * * * * * //

dimensions      [0 2 -3 0 0 0 0];

internalField   nonuniform List<scalar> 
184166
(
3.47973
2.6252
2.5161
3.49933
3.00782
2.8744
2.24067
2.74294
3.51353
3.41143
3.39408
2.61898
2.62994
2.96775
3.0956
3.2249
3.31082
3.02746
2.53346
3.18035
2.48741
2.55377
2.78816
3.36272
3.08552
3.15115
3.02168
3.1418
3.12148
2.59424
3.21196
2.22818
4.18262
3.35638
3.25552
2.65483
2.58632
3.16312
2.8761
2.37648
3.11155
2.64603
3.1308
3.22782
3.25574
3.06304
2.32013
3.1614
3.08303
3.11786
2.27344
2.22822
2.35541
3.06594
3.20669
2.88422
3.08937
3.23128
3.51797
2.89436
2.58172
2.88082
3.34145
3.33472
4.07164
2.15351
2.39182
3.35161
2.21358
3.27154
2.50289
3.35095
3.29213
3.28298
2.61263
3.01009
2.79563
3.26447
2.64773
2.25727
2.27068
2.57698
3.44609
3.27281
3.18377
3.44832
2.68391
2.46336
2.97564
2.51003
2.19153
3.00526
3.20536
4.17431
2.91312
2.60253
3.22853
2.23187
2.47619
3.21335
2.61075
2.60437
3.23158
3.14263
2.16689
2.77203
3.20789
2.97479
2.2079
2.61893
2.37153
3.33511
2.17375
2.45628
3.21776
3.0809
2.87945
2.46491
2.23269
2.46111
3.31621
2.60443
3.06663
3.01329
2.98772
2.95764
3.08292
3.0497
3.25588
3.20471
2.5615
3.03442
2.93573
2.94148
2.5714
2.63604
2.57383
2.92144
2.99046
2.37467
2.79922
2.25285
2.25871
2.60376
2.86756
3.1991
2.51232
3.10849
3.32268
4.17603
3.41096
3.79186
3.20564
3.23979
3.3362
3.85773
3.19107
3.46597
3.51181
2.36539
2.21018
2.29404
2.95419
2.64763
2.66824
3.08112
3.17226
3.25342
2.20529
3.20338
3.07531
2.81542
2.75713
3.4229
3.02638
2.26834
2.38455
3.52213
3.28365
2.93495
2.20665
2.99911
2.96645
3.1177
3.37954
2.70171
3.16595
3.8565
2.22022
3.14642
2.97659
3.28367
2.81364
2.21601
3.5221
3.28202
3.09758
3.4141
3.39606
3.11749
3.21388
3.12664
2.21051
2.99277
2.30855
3.22012
2.63896
2.59059
2.8186
3.00712
3.91921
3.02426
2.66272
3.22124
2.52292
2.75947
3.15963
3.00036
2.20411
2.21122
2.53804
2.71187
2.79885
3.01038
2.26803
2.60485
2.5403
3.19674
3.06397
3.55225
4.05875
2.44005
2.76872
3.07526
3.27826
2.83432
3.40415
3.34153
3.09445
2.2254
2.17384
3.24209
2.632
3.22863
2.36699
3.03843
3.10617
2.6323
3.49393
3.37739
2.98837
4.0156
3.27283
2.59502
2.9653
3.3057
3.01933
3.12485
3.0978
2.82858
3.00374
2.42273
3.19024
2.75107
3.24584
3.01879
3.19524
2.41307
3.07747
3.03863
3.10788
2.25668
2.92212
3.2367
2.61063
2.97616
2.18408
2.97748
2.68426
2.95389
2.5662
4.53153
2.97225
3.0682
2.39573
2.62666
3.73142
3.74625
2.96101
3.21867
3.18854
3.04398
3.10884
3.26489
3.61135
3.16392
2.88329
3.77929
3.14013
3.75434
3.02132
2.81821
2.22745
3.12786
3.98556
2.89356
2.98414
3.20204
2.32721
2.16468
3.04599
3.32634
3.20183
3.26435
3.39286
2.97964
2.862
3.15187
2.94242
3.08228
2.52928
2.59185
2.89598
3.29803
3.02967
2.16626
3.07026
2.85182
2.55614
3.03262
3.22531
2.35705
2.34133
3.20885
2.23921
3.09424
2.86821
2.74558
3.23289
2.92823
2.96596
3.76211
4.11475
3.4005
3.21839
3.39426
2.4075
2.21974
2.64679
2.26907
2.26149
3.06904
3.4954
2.40895
2.51491
3.28161
3.19784
2.89146
3.24587
3.32946
2.68416
2.18891
3.22294
2.47098
3.17949
3.21082
2.17305
2.46796
2.45001
2.16613
2.19524
3.74311
4.09903
3.38665
3.48948
3.4235
3.14927
3.10837
2.58548
2.9786
3.02123
3.03916
3.17779
3.22104
3.00423
3.32665
3.29703
2.65314
2.67572
2.70608
2.94761
3.05973
3.09932
2.21131
2.78607
2.19476
3.36872
2.85317
2.70196
3.02043
3.50306
2.92872
3.78956
3.17734
2.35926
2.98512
3.25604
3.24257
3.03757
2.54352
2.94697
2.68467
2.69411
2.61484
2.62146
2.5844
3.12845
2.38791
2.36533
2.30429
3.96217
2.88
2.88186
2.90092
2.92738
2.18564
2.19153
2.19927
2.54366
2.51644
2.5427
2.24657
4.17317
3.71957
3.96906
3.90638
3.58826
3.82097
3.09871
3.09456
3.10583
3.10536
3.2672
3.19944
3.23459
3.16099
3.66036
3.82275
3.10219
3.14629
3.06651
3.0597
3.08057
3.11875
3.02212
3.06693
3.01298
3.00467
3.02406
3.39611
3.18034
2.24578
2.20541
2.20988
2.19835
2.26591
2.16303
2.23703
3.08264
3.13263
3.14204
3.19508
3.35588
3.1874
2.81312
2.67361
2.76232
3.4567
3.24546
3.13291
3.19122
3.13495
2.20026
2.15819
2.63157
2.65295
2.6294
2.59457
2.58277
2.59399
3.1463
2.93021
2.8749
2.91735
2.92073
3.33649
3.22535
3.23596
3.28689
3.36582
3.28208
3.27731
3.24377
3.07839
3.08869
3.05826
3.21575
3.08146
2.48946
3.19242
3.39865
2.15804
2.20789
2.1659
3.1779
3.35224
3.30603
3.18983
3.2333
3.20827
3.26664
3.31123
3.45255
3.0047
3.04995
3.07925
3.086
3.32671
3.3447
3.54381
3.476
4.23092
3.84284
4.24279
3.54402
3.39732
3.43804
3.34203
3.77648
4.24123
4.04015
3.60762
3.81461
3.18303
3.13195
3.16738
3.10156
2.25341
2.83865
2.7408
2.65315
2.81566
2.72945
2.80194
2.80603
2.67226
2.73374
2.61308
2.50993
3.32697
3.26031
3.32932
3.30331
3.22523
3.2708
3.24355
3.25193
3.10352
3.02183
2.9737
2.95617
2.9785
3.00542
3.20332
4.65078
2.25721
2.36862
2.21627
2.20931
2.19724
2.20683
3.32232
3.31605
3.46527
3.43273
3.5402
3.48197
3.38333
3.55099
3.13705
3.14658
3.25981
3.38252
3.30428
2.16446
2.87883
2.80507
2.79244
3.36858
3.26064
3.24478
3.24294
3.39683
3.27584
3.27679
3.26539
3.34289
3.23342
3.39177
2.59151
2.69651
2.93665
2.75618
3.3232
3.36322
3.34453
3.33063
3.48299
3.37408
3.45326
3.40478
2.9244
3.05467
2.99229
3.05299
3.2472
3.27296
3.19421
2.93681
2.89406
2.88369
2.93323
2.93433
3.39426
3.44072
3.03593
3.02989
3.1484
3.66348
3.22822
2.89277
3.08304
3.41529
3.85722
3.39486
3.33466
3.46409
3.90274
3.47163
3.4051
2.23506
2.34353
3.07116
3.35165
3.51808
3.30748
2.87081
3.64036
3.41429
3.57776
3.54139
3.38189
3.52436
2.18994
3.4714
3.52973
3.49554
3.47306
2.69023
3.48843
3.6265
3.38016
4.33392
3.87912
4.26661
2.28472
2.17452
2.17374
2.25215
2.25647
2.17222
2.91326
2.4264
2.53739
3.923
3.53863
3.68112
2.73527
2.66283
2.7337
2.69066
2.66223
2.69457
3.33619
3.74733
3.32475
3.25819
3.75941
4.08886
2.73431
2.7156
3.28816
3.00136
2.84684
2.86049
2.40828
2.81004
3.14273
3.14086
2.93616
2.9531
2.92887
2.65816
2.61876
2.65744
2.62097
2.61233
2.89222
3.20102
3.16941
3.17865
2.94065
3.04804
2.85429
2.8724
2.92039
2.85257
2.79619
2.84017
3.15779
3.2599
3.27407
3.27947
2.9117
2.93773
2.5913
2.64827
2.65984
3.2637
3.04028
3.26448
3.3548
2.63591
2.97184
2.22524
2.2142
2.21169
3.18212
2.60222
2.71187
2.52593
3.2131
2.90402
3.0818
3.02126
2.89416
2.92812
2.91928
2.91235
3.01896
2.81628
3.05848
2.8774
2.6105
2.58635
2.61181
2.59731
2.58626
2.5907
2.57055
2.56368
2.55441
2.96238
2.67678
2.59996
2.60725
2.58482
3.0216
2.96855
3.026
3.00949
3.15385
3.19567
3.16829
3.38163
2.92276
2.9085
2.8269
2.48278
2.52648
2.21765
2.22141
2.22852
2.2231
2.79544
2.56058
2.56973
2.57621
2.65765
2.68642
2.95605
2.99304
3.19793
3.1084
3.14151
3.22516
2.90523
2.93482
2.9906
2.66036
2.58232
2.57696
2.58104
2.57726
2.19693
2.2166
3.24204
3.21082
2.21449
2.20876
2.19719
2.21016
3.20587
2.27451
2.42012
2.28977
2.33266
2.60955
2.66516
2.66842
2.63055
3.53975
3.02438
3.06989
2.99751
2.93597
2.97065
3.0332
3.15545
2.73291
2.67107
2.80906
2.69283
2.81652
2.57559
3.60684
3.83526
3.98982
4.26158
3.39888
3.36663
2.95026
2.8062
2.83741
2.96041
2.15486
2.11799
3.84804
3.2205
2.91131
3.08932
2.90892
3.04376
2.12962
2.11528
3.71181
3.76514
3.3132
3.35556
3.33315
2.43186
3.10714
2.61477
2.98359
2.22984
2.23353
3.19124
3.23059
3.14466
3.18835
3.15891
3.17259
2.19184
2.29937
2.5358
2.47788
3.06972
3.32057
3.01221
3.1046
2.28393
2.29763
3.31394
3.25751
3.08211
3.09388
2.99413
2.93208
2.96942
3.0023
3.24605
3.18995
3.23198
2.42795
2.70386
2.51216
2.86629
2.87242
2.98259
2.93572
3.48095
3.31934
3.2114
3.28102
3.42025
3.45818
3.36789
3.34567
3.32318
3.34234
3.23731
3.16492
3.21415
3.33871
3.72977
2.97512
2.86986
2.69289
2.73517
2.66947
2.61373
2.60888
2.62736
2.58891
2.6217
2.86138
3.23523
3.04983
2.99763
3.014
2.95762
3.35515
3.38599
3.16532
2.99576
3.06611
2.71412
3.10897
3.13493
3.11223
3.10442
2.36083
2.31666
2.37236
2.35448
2.31757
3.01349
3.077
3.05514
3.87586
3.89583
3.21571
3.28551
3.50809
3.4903
3.34552
3.88287
3.4118
3.16498
3.15856
2.71848
2.76063
2.6314
2.91253
2.84406
2.93107
2.96887
2.98043
3.28855
3.22317
3.18821
3.20661
3.27221
3.63075
3.84714
3.55941
4.72839
3.04974
2.97378
2.92561
2.6618
2.72904
2.7416
2.7761
2.64391
3.08402
3.11012
3.14515
3.11215
2.40947
2.47603
2.40537
2.31662
2.89774
2.88412
3.26544
3.46475
3.29552
3.23413
4.03238
3.84256
3.13475
3.07181
3.16254
3.19772
2.24787
2.21312
2.19524
2.14666
3.12451
3.14999
3.12632
3.12042
2.95708
2.95253
2.96438
3.54495
3.49287
3.477
3.41866
3.41764
3.49166
2.87268
2.69111
2.79556
2.58643
2.74952
2.80923
2.81021
2.82237
3.49518
3.37556
3.40778
3.22085
3.37241
2.89211
2.83088
3.31432
2.99959
2.87755
2.932
2.717
2.74237
2.91381
3.06611
3.05284
4.17847
3.27354
3.30351
3.3531
3.30686
2.22691
2.16223
2.16478
2.54625
2.54105
2.91257
2.91432
2.89895
2.88491
2.86516
2.81579
2.40906
2.22762
2.72924
2.80985
2.87016
3.2175
3.19846
3.3618
3.11498
3.11782
2.22567
2.23527
2.23037
4.23463
4.27793
3.67955
3.65739
2.16921
2.14667
2.97942
3.00362
2.82147
2.50369
2.52456
4.13378
3.82776
3.25903
3.35671
3.25254
2.22089
2.2274
2.22258
2.20178
2.21115
2.8744
3.2316
3.02217
2.99137
2.90685
2.92455
3.75223
2.95782
2.95977
3.04391
2.99356
2.85527
3.22064
3.23013
3.15268
3.15751
2.52467
2.54473
2.52965
2.52136
3.58824
3.45278
3.26064
3.32633
3.24101
3.29181
2.90821
2.8995
2.85726
3.06661
3.10943
2.93779
2.61992
2.31696
2.35211
2.4907
2.29252
2.67192
2.39061
2.32486
2.50695
3.75983
3.86019
3.76382
2.84749
2.96712
2.83318
2.89534
3.05335
3.08176
3.06707
2.22578
2.2123
2.22879
2.23272
3.12599
2.94818
2.41863
2.27048
2.25763
2.11173
2.11174
2.70936
2.76393
2.76762
2.69066
2.72231
3.37673
2.51347
2.38212
2.20863
2.1909
2.19364
2.18354
2.19424
2.79518
2.7239
2.88383
2.87888
2.96315
2.90591
3.09443
3.13783
2.91579
2.95318
2.88179
2.24151
2.28945
2.64795
2.69876
2.42959
2.42533
2.41711
3.17377
3.12809
3.14676
3.31412
3.44728
3.35509
3.30835
3.39281
3.46251
2.23713
2.32505
2.25274
2.41583
2.37573
2.54868
2.56988
2.27433
2.27908
2.96445
3.05335
3.03405
3.09632
2.22308
2.18994
2.23228
2.24495
2.95227
2.96789
2.84912
2.92566
2.68714
2.86712
2.71546
2.82404
3.76855
3.79111
3.15599
3.01862
2.49568
2.92449
2.80291
2.83501
2.79313
2.27089
2.57772
2.50785
2.85743
2.67238
2.77059
2.56391
3.02198
3.0263
2.93392
2.97132
2.94292
2.97335
2.40668
2.44397
3.00857
3.10598
2.98163
3.12968
2.98599
3.13744
2.88211
2.99986
3.09602
2.90526
2.8969
2.81311
3.43229
3.41477
3.49819
3.44755
3.2444
3.28275
2.74702
2.79794
2.22384
2.2342
2.22666
2.20343
2.19439
2.21737
2.21988
2.20554
2.54613
2.54054
2.56845
2.59244
2.58515
3.02032
3.08757
3.09554
3.00988
3.04302
3.29732
3.31439
3.44117
3.33313
2.59962
2.59745
2.21605
2.20893
2.20657
2.20629
2.20287
3.86849
3.64059
2.90161
2.91364
2.93877
3.73478
3.49449
4.02924
3.35323
3.31857
2.93491
3.13874
3.17251
3.37026
3.18792
3.09461
3.21163
3.35113
3.2438
3.15654
3.3045
3.21248
3.30271
3.29156
3.33455
3.33128
2.97134
2.92942
2.80725
3.19428
3.18567
3.24081
3.32903
4.08283
2.11814
2.94352
2.98529
3.00629
2.96859
3.07766
3.12287
3.11008
3.14518
3.16413
2.12939
2.09869
2.12219
2.2076
2.22393
2.21856
2.20641
3.97687
3.5952
3.63089
3.35687
3.18083
3.05717
2.65318
3.44913
3.44931
2.37858
2.59602
2.39474
2.62778
2.6109
2.70732
2.7037
2.61353
2.72681
2.86604
2.86811
3.46323
2.24185
3.06279
2.85718
2.71368
2.3731
2.37239
2.37253
2.74449
2.74846
2.68452
2.8749
2.79509
2.927
2.86961
2.57982
2.56872
2.54909
2.54644
2.58585
2.54351
3.16756
3.26093
3.26626
2.96987
3.03495
3.11729
2.82379
2.76348
3.33396
3.14306
3.19381
3.03003
2.10896
2.0962
3.34421
4.00187
3.00935
3.04372
3.0501
3.06768
2.93711
2.99007
2.20493
2.23748
2.22907
2.23495
2.21557
3.81996
3.60402
2.09681
2.96081
2.47846
2.59463
2.77778
2.52727
2.7559
2.64874
2.52268
3.4669
3.1968
3.37211
4.39785
4.75915
3.95492
2.89084
2.89013
2.22392
2.22796
2.22669
2.2299
2.23134
2.2394
3.16341
2.27382
2.18312
2.09321
2.1585
2.11924
3.21928
3.18872
3.00515
2.84769
2.81131
2.53602
2.64586
2.44957
2.23599
2.45425
2.35766
3.17075
3.16319
3.24722
3.23775
3.20323
3.05785
3.00385
2.20198
2.24264
3.03208
3.01317
2.94973
2.98577
2.76349
2.97644
2.95683
2.96579
2.77446
2.83393
2.57644
2.69957
2.6911
2.56789
2.62711
2.7315
2.66456
2.67877
2.65592
2.71465
2.74133
3.1584
3.14773
3.14015
3.1569
3.14216
2.35959
2.30944
2.63321
2.46248
2.71363
2.54132
3.12984
3.16628
3.18886
3.20505
2.6421
2.71787
2.67817
2.91503
2.80876
2.66418
2.76285
2.23399
2.23776
4.00626
4.20714
2.99973
2.97194
2.98926
2.88552
2.18166
2.15022
2.09925
2.18297
2.14855
3.23851
3.23265
3.06829
3.04469
3.02824
2.85325
2.91596
2.79259
2.47703
2.51152
2.45943
2.47106
2.21584
2.21279
2.21249
2.2052
2.82663
3.02095
3.0039
2.98585
2.74562
2.78182
2.87341
3.39957
3.61044
4.0811
3.44536
3.85286
4.02187
2.23444
2.38448
2.20063
2.25075
3.07769
3.05398
3.11684
3.07767
3.03829
2.23151
2.22329
2.2281
4.59722
4.56491
2.84151
2.78036
2.74025
2.30443
2.49244
2.53574
2.32034
3.28248
3.31361
3.32517
3.36665
3.35698
3.33727
3.00197
3.03587
3.05369
3.00289
3.92706
4.24849
2.48509
2.61085
2.33978
4.28332
3.0958
3.02425
2.89668
2.54159
3.8915
2.97964
3.04481
2.11349
2.4278
2.36901
2.4091
2.41783
2.37732
2.38562
2.18224
2.15997
2.28976
2.20723
2.44238
2.47096
2.43841
2.45135
2.44284
2.47307
2.43728
2.45946
2.76819
2.65171
2.98006
4.03632
4.3328
2.92418
2.20895
2.1935
2.21136
2.19959
3.67457
3.27864
3.29131
4.23445
3.85013
2.87689
2.50951
3.25712
3.22084
3.3529
2.35778
2.3808
2.26529
2.25008
2.77819
2.84065
3.02218
3.04531
3.03895
3.18454
3.05718
3.05031
3.61663
3.55384
3.86887
2.81226
3.02465
3.01684
2.7647
2.90954
3.35772
3.29853
3.27811
3.68807
4.21333
2.14904
2.08698
3.0511
3.0892
3.13223
3.1235
3.05806
3.0811
2.97168
3.00479
2.95717
2.96436
3.00798
3.0128
3.06094
3.10033
3.07006
3.09147
3.34564
3.30557
3.3227
3.31565
2.0678
2.04799
2.12243
2.16024
2.96678
2.96499
3.34652
3.41001
3.3289
2.93245
2.93939
2.9359
3.26404
3.20629
3.23549
3.23292
3.27546
2.84118
2.85767
2.63656
2.66737
2.6548
2.63972
2.49125
2.50904
2.50345
2.58975
2.8293
2.88953
3.04612
3.03729
4.37639
4.40532
2.22581
2.21841
3.17056
3.17594
2.59203
2.53626
2.53851
2.50003
2.53614
2.54766
2.28557
2.2426
2.2681
2.21049
2.21484
2.28765
2.19008
2.90461
2.84711
2.88193
2.80234
2.98854
2.97012
2.94975
2.969
2.95201
2.95061
3.30475
3.32148
3.3469
3.3149
3.36481
2.98061
3.02136
2.71629
2.63557
2.64536
2.87555
3.00976
3.02072
3.03027
2.75844
2.70468
2.1044
2.04178
2.46123
2.54814
2.79734
2.19833
2.15863
2.16529
2.24078
2.20035
3.17306
3.17331
3.16298
3.13881
3.17449
3.20721
3.32057
2.24092
2.2804
2.24137
2.23586
2.31613
2.16012
2.34391
2.45456
2.51076
2.362
2.17717
2.17709
2.11984
3.49999
3.47955
3.48896
3.32157
3.53822
2.87498
2.82646
2.54714
3.01828
3.03617
2.99189
2.98839
2.32705
2.61734
2.41453
2.46397
2.33649
2.33026
2.24838
2.42871
2.41624
2.23247
2.23419
4.28934
4.06113
3.35887
3.37477
3.32255
3.03584
2.63381
2.86468
3.70424
4.20906
3.84684
3.16538
3.12414
3.1539
2.58306
2.52274
2.28365
2.26703
2.49105
2.28523
2.91786
2.96932
2.90712
3.00586
2.79142
2.79684
2.75312
2.69647
2.69809
2.32084
2.2334
2.26045
2.70877
3.13155
2.72676
2.94356
3.14744
3.0965
2.9235
3.09154
2.98036
3.25895
3.5533
3.11394
2.88221
2.91922
2.97121
2.99299
2.17324
2.19796
2.23238
2.2325
3.02642
2.9902
2.17709
2.17845
3.3255
3.10451
3.23204
3.83521
2.04975
2.06815
2.12184
2.25516
2.18711
2.18312
2.61369
2.55283
2.94223
2.93715
2.88724
2.86924
2.48623
2.54213
2.76544
2.07301
2.59356
2.55812
2.50405
2.58066
2.51628
2.50062
2.59945
2.56135
2.59431
2.5165
2.52178
2.52656
2.65177
3.1862
3.15703
2.19508
2.23395
2.16025
2.95073
2.92305
2.9365
2.85057
2.83159
2.80675
3.96707
3.61132
2.94652
3.0953
2.9903
3.22001
2.7896
2.92315
2.89291
2.84635
2.89926
2.57531
2.57137
2.58008
2.5856
2.58615
2.82465
2.76564
2.73551
2.82265
2.79676
2.91404
2.8875
2.90673
2.90123
2.9087
2.91043
3.06791
3.04067
3.07857
3.0695
3.04405
3.37542
3.29131
3.29102
3.31694
3.30684
2.69974
2.74539
2.68948
2.75735
2.73846
3.46816
3.32808
2.11152
2.39132
2.43808
2.49843
2.90373
2.80902
2.34796
2.29091
2.29805
4.15332
3.84043
4.29622
4.59015
3.23932
3.17962
3.52705
3.55978
3.30748
3.47319
3.50598
3.41358
2.64679
2.7227
3.1348
3.13564
3.13756
3.15407
2.63213
2.50561
2.34004
2.75247
2.2527
2.45328
2.5022
2.35524
3.54778
3.97442
3.71944
4.86479
2.31663
2.46991
2.51401
2.79529
2.82083
2.6499
2.63407
2.93812
2.9027
6.82785
4.1941
3.86465
3.30319
3.29992
2.78499
2.95448
2.71512
2.49844
2.97447
3.00303
2.98414
2.99473
3.16063
3.16434
3.13597
3.13023
3.13433
3.16549
3.1577
3.12737
3.14126
2.62696
2.56092
2.94136
2.3089
2.28838
2.46897
2.4296
2.85472
2.79151
2.83688
2.86047
2.80406
2.76267
2.89418
2.92814
2.96463
2.8396
3.02486
3.29314
3.99017
4.54523
2.74894
2.75104
2.81708
2.78433
2.81464
2.79434
3.13051
3.12296
3.09831
3.09514
3.10584
3.09362
3.87446
3.41174
4.34343
3.91013
3.24272
3.16864
3.14886
3.1512
3.13844
3.26126
3.31917
2.9708
2.99157
2.98926
2.6037
2.26411
2.89285
2.92248
2.91584
2.91895
2.88079
2.85543
2.87314
2.57424
2.54491
2.55228
2.59033
2.58231
2.73201
2.68342
2.69385
2.75277
2.7318
2.21253
2.20677
2.21838
2.22668
2.20635
2.20929
2.44364
2.22211
2.22018
2.27763
2.25589
2.23655
5.23303
3.05737
3.06836
3.09292
3.08272
3.08619
2.04598
3.15055
3.17658
3.17501
3.15574
3.16882
2.88505
2.91905
2.91685
2.91057
2.89359
2.77373
2.69678
2.83104
2.75923
2.7645
2.4426
2.57857
2.84891
2.7172
2.17319
2.17965
2.20377
2.25776
2.17992
2.19394
2.50273
2.45162
2.39606
2.33611
2.37533
2.31941
3.082
3.0483
2.16007
2.10755
2.11392
2.20069
2.21007
3.37357
3.29503
3.32338
3.29009
3.27706
3.21
3.42499
3.30889
3.33077
3.36093
3.38248
3.38055
3.02198
2.99319
2.97425
2.87229
2.91515
2.90613
2.26444
2.23769
3.91033
4.11724
4.51644
3.14862
3.23432
2.08244
2.04239
2.53664
2.40466
2.32977
2.53947
2.26041
2.26169
3.01587
3.00977
3.03271
3.04259
3.04095
2.8031
2.82001
3.03251
2.98536
3.00008
3.08719
3.01681
3.5194
3.25593
3.10534
3.15308
3.40101
5.60863
7.42612
2.51917
2.50102
2.46534
2.46843
2.44748
3.11957
3.4246
3.18685
4.1167
4.51326
4.6004
2.50067
2.5497
2.56128
2.62738
2.60071
2.55979
2.53489
2.56258
2.644
2.61212
2.56498
2.56083
2.58609
2.56605
2.56239
2.58258
2.573
2.87993
2.87805
2.88811
2.89253
2.90313
2.9237
2.90235
2.90498
2.80489
2.89433
2.98459
3.11242
3.48107
3.71768
3.41008
3.06363
3.13963
2.90377
2.90974
2.97524
2.95005
2.82315
2.85048
2.7911
2.73845
2.73158
2.70738
2.75931
2.79432
2.77253
3.14715
3.19014
3.18091
3.20546
3.16315
3.18484
3.05671
3.11149
2.96948
3.0653
2.93562
3.19402
3.14005
3.30142
3.31112
3.1782
2.18835
2.16872
2.13509
2.93292
2.91051
2.98591
3.14515
3.15191
3.28458
3.03843
3.02924
2.13107
2.1717
3.14878
3.1119
3.11064
3.10634
2.08197
2.11903
2.04321
2.94469
2.96698
3.05788
3.07101
3.08835
4.15999
3.92637
3.05808
3.08807
3.08632
3.08373
3.06027
2.31685
2.21408
2.4574
2.3144
2.35999
2.59631
2.44039
2.70446
2.65538
2.77416
2.92421
2.80782
3.28352
3.87206
4.38744
2.24875
2.27058
2.22221
2.35963
2.40542
2.56964
2.57085
2.67587
2.58622
2.5715
2.58509
2.56981
2.56559
4.7048
5.11139
6.07312
3.42579
3.49848
4.27285
2.89114
2.8989
2.89275
2.88942
2.88363
2.88902
2.20505
2.20113
2.20482
2.20327
2.20954
2.2076
2.76637
2.63295
2.66619
2.78407
2.48412
2.44639
2.92767
2.93355
2.90745
2.91973
2.9095
2.91756
3.90452
4.39657
4.07484
2.96159
2.86888
2.53974
2.17562
2.20846
2.17403
2.18884
2.18789
2.20896
2.84316
2.83843
2.99519
3.13297
3.12349
2.8638
2.85681
2.19061
2.20487
2.25957
2.22961
2.30578
2.34693
2.25896
2.4715
2.70252
2.56059
2.37105
2.20951
2.21834
2.32908
2.25451
2.0546
2.06964
2.57113
2.53883
2.47445
2.44354
2.43476
2.92624
2.95185
2.93649
2.96437
3.00491
3.0394
3.06195
3.05415
3.14292
3.03141
3.06451
3.14587
3.26712
3.31794
3.25786
3.30385
2.87776
2.85022
2.73217
2.75332
2.84374
2.75755
2.58483
2.58429
2.89233
2.89286
2.91688
2.90549
3.18702
3.17836
3.17571
3.21633
3.18263
2.46853
2.50418
2.43295
2.42639
2.45395
2.49607
2.98079
2.91067
2.95594
2.91778
2.80997
2.87022
2.85779
2.82056
3.00607
3.05905
2.58575
2.64486
2.69571
2.39303
2.3448
2.47073
2.4838
2.46035
2.75052
2.69949
2.45567
2.67486
2.43736
2.51788
2.59171
3.19605
3.17354
3.15921
3.06999
3.13013
3.17356
2.45447
2.30832
2.43182
3.12862
2.93498
3.0182
3.1807
3.24562
3.22776
3.22157
3.18883
3.42001
3.43695
3.4192
3.4382
3.41144
3.47258
3.39472
3.33328
3.32119
3.40259
2.28099
2.20683
2.18478
2.21816
2.18932
2.85918
2.9234
2.95453
3.25203
3.26558
3.2324
2.63092
2.63782
3.08208
3.03594
3.00494
3.08491
3.15353
2.09585
2.1044
2.18368
2.13196
2.1903
2.21166
2.20455
2.6688
2.69347
2.73004
2.70412
2.73008
3.08807
3.08686
3.31821
3.27106
3.24663
3.36681
3.35854
3.93226
2.90388
2.87498
2.84338
2.88702
2.82295
2.81824
2.65443
2.6366
2.7519
2.69345
3.16549
3.3307
3.39812
3.57282
2.91592
2.92428
2.93322
2.95682
2.93002
2.99199
2.96346
2.9669
2.9459
2.64591
2.59656
2.63922
2.64065
2.70831
2.60225
2.58185
2.5432
2.76084
2.73345
2.70384
2.78811
2.72301
3.29361
3.40351
3.7141
3.57881
3.33523
4.40891
4.93271
2.68059
2.71266
2.67275
3.23658
3.23177
3.23352
2.60418
2.53815
2.65061
2.7345
2.60361
2.54694
2.5898
2.50131
2.51508
2.49567
2.46478
2.50388
2.46382
2.49497
2.47729
2.4987
2.47561
2.49986
2.50928
2.70952
2.7772
2.71992
2.75906
2.76932
2.73696
3.25556
3.25093
3.24268
3.23918
3.25036
3.22872
3.24539
4.91354
5.61542
3.37592
3.57844
3.88194
3.37583
3.71427
2.48832
2.46071
2.48332
2.45366
2.46826
2.5313
2.54
2.60379
2.5479
2.62344
2.60277
2.70309
2.70509
2.78757
2.78744
2.89646
2.80576
2.87477
2.87814
2.81967
2.85485
2.89841
2.8812
2.55186
2.55941
2.49582
2.4897
2.46369
2.45441
2.47101
2.73089
2.65822
2.71229
2.52469
2.51331
2.54514
2.60239
2.59046
2.56158
2.56004
2.58918
2.50801
2.48786
2.50538
3.46695
3.10982
3.43326
3.19092
4.41751
4.66573
2.69036
2.66827
2.62599
2.68807
2.64942
2.79953
2.73994
2.80182
2.75215
2.78362
2.93689
2.90938
2.93258
2.91279
2.89395
2.89951
2.95779
2.80713
2.90962
2.81844
2.78117
3.46876
3.65764
2.79168
2.79115
2.28895
2.26541
2.23531
2.23204
3.05553
3.07323
2.55996
2.60329
2.91465
2.75736
2.67315
2.90389
3.41949
3.2984
3.00505
3.02884
3.33006
3.28338
3.30722
3.27597
3.28252
3.24131
3.21941
3.27117
3.25974
3.2617
2.95592
2.90642
2.87555
3.18339
3.35039
4.44939
4.57547
2.93627
2.89738
2.95788
2.37417
2.18824
2.20948
2.25988
2.15667
2.17287
4.12962
3.79635
3.33353
4.20145
3.14093
3.51262
2.34687
2.29755
2.46488
2.82072
2.88237
2.82918
2.86154
2.86876
2.84732
2.98782
2.92294
2.9623
2.54868
2.61237
2.75695
2.83524
2.82301
2.74092
2.77768
2.87004
2.87965
2.80656
2.79539
2.83652
2.67335
2.65007
2.71303
3.26846
3.10471
3.24616
3.04024
3.00162
2.2244
2.14821
2.14435
2.16012
2.18842
2.23552
2.24013
2.17252
2.10797
2.19421
2.16348
2.18998
3.25283
3.30242
3.1322
3.23675
2.95159
3.08007
2.94115
2.47938
2.47379
2.4917
2.64389
2.66604
2.71072
3.32469
3.42201
3.38113
3.3216
3.27542
3.23971
3.15594
3.48861
3.33789
2.13644
4.52064
3.94629
4.48821
2.19242
2.16626
2.27089
2.2761
2.26666
3.25572
3.28754
2.92289
2.97088
2.91694
2.22087
2.22228
2.45561
2.23249
2.24091
2.22759
3.11098
3.12008
3.13618
3.13242
2.3276
2.30786
2.70545
2.67207
2.64638
2.93223
2.79462
2.77334
3.19813
3.10684
2.67163
2.63369
2.72215
2.68718
3.24176
3.17896
3.22835
4.36026
5.83198
8.29958
5.37936
4.75025
2.61431
2.95686
1.75647
2.5987
2.58938
5.53849
8.63552
2.95587
8.62983
2.72885
7.55468
6.82606
5.83458
6.0024
6.71595
5.19105
5.46342
5.9765
7.20267
8.51344
4.71147
4.37251
5.10106
4.78112
5.32581
5.71596
7.6148
6.70189
1.9809
5.48208
6.7481
5.12942
5.32518
6.95496
6.49786
6.7348
6.60164
5.35719
5.67138
1.75537
1.8049
4.40388
6.21241
5.0218
1.95585
6.71474
4.86201
6.66206
7.51879
6.88944
3.80546
6.66224
6.43816
7.02666
5.41127
4.89949
5.49096
6.26885
6.83201
6.28701
3.05765
2.99702
1.88608
1.82523
2.13829
5.00323
5.57913
4.85629
7.32821
5.94074
5.94585
6.39484
3.57298
4.59043
2.87898
2.91026
2.58498
2.58933
4.83935
4.34131
4.87165
4.39097
3.74829
5.28694
3.77648
8.40756
6.03847
7.28104
6.8077
6.1088
6.22318
6.59726
5.56777
5.90812
5.35531
6.33507
6.43438
5.78449
5.51203
5.85788
5.96992
5.72324
4.99415
3.15934
3.37979
4.66304
4.94085
4.47374
2.72748
3.84987
5.39363
3.70843
2.85424
2.54552
2.74247
1.74839
2.01268
1.71102
6.8466
6.54245
7.01643
6.4559
5.45566
6.05729
5.90428
2.69268
9.66892
7.63109
4.53799
4.39715
4.25562
4.86499
4.88177
4.9424
4.55335
4.72081
4.68762
2.66462
2.6947
4.91876
4.8031
4.34055
6.442
5.35366
6.6629
7.03938
6.96067
1.69578
1.961
5.54908
5.75076
5.07212
5.83178
3.83542
1.60144
2.12626
2.63676
2.59864
2.61427
3.72186
5.28055
3.57416
1.71493
1.99316
2.294
2.39975
1.77997
2.14791
4.77176
5.12777
5.64606
4.94939
6.29371
5.00389
5.6809
6.49277
7.00329
7.71585
3.57786
1.69375
1.94731
1.68192
1.96836
5.37895
4.93235
5.06687
6.23784
5.2124
9.71232
7.71745
7.90308
6.01954
1.65254
1.79121
2.07007
2.00973
2.14975
2.43699
1.98413
2.26349
6.72961
5.6893
1.92992
2.07044
1.68245
1.99298
7.03448
6.07632
2.20635
5.99384
4.60048
5.07955
6.05567
1.97322
1.65015
1.94956
6.50876
2.6682
2.63875
2.70008
7.01014
5.2939
7.24293
3.88982
4.09134
1.71137
2.00731
8.90271
7.38806
11.1277
7.56775
7.40456
6.40433
6.97751
7.46627
1.69722
2.00024
1.94487
1.65884
1.96699
1.63373
6.18672
5.20839
7.09125
2.38484
2.61934
2.92339
2.88854
2.76204
2.80521
2.83196
1.64351
1.91889
4.30769
4.48898
4.36128
4.41313
8.86422
6.31246
11.4874
7.32726
6.19551
5.24466
1.89018
1.66863
1.95749
7.49047
8.70909
7.9658
7.04555
1.91592
1.66391
1.9397
2.40177
2.84402
2.65402
2.28831
2.87178
2.48221
1.64046
2.47172
2.92185
2.65183
1.97736
2.34746
2.44547
8.97128
6.04534
2.65818
2.79733
5.65055
6.20643
5.70097
6.97769
6.76809
8.25638
2.81455
2.77085
2.85149
8.61263
6.46073
7.53711
6.56181
6.26087
1.8619
2.22825
3.86315
5.84652
3.77226
4.03245
6.97452
5.71005
4.98308
5.71761
1.62544
8.86661
6.03627
2.92961
2.82473
2.91099
3.09332
3.00827
3.21487
1.67972
4.34131
5.17346
4.92559
1.67156
1.91413
6.25776
7.13716
6.6665
1.62762
1.88242
7.95971
4.15257
4.44338
6.63414
5.28888
6.15839
5.91687
4.57126
5.21637
1.63142
1.88203
1.87752
8.37903
1.63411
6.5226
6.66548
7.064
8.33384
7.28605
14.6012
10.0858
1.87509
2.21355
6.21112
5.27019
5.80345
8.38931
2.0795
1.77705
10.8618
7.61564
1.58133
1.87037
1.6802
1.93456
1.94408
8.51849
5.78937
6.55868
1.91992
1.57772
1.85224
14.8318
11.9646
8.95376
6.63758
6.66747
2.91057
2.9454
1.6231
1.91148
1.89569
7.2159
5.88223
4.81277
12.2589
8.43653
10.4678
7.05068
6.55947
1.89265
1.5621
1.87976
4.38171
3.60003
1.63861
1.95597
1.93307
3.82884
5.55575
4.96968
6.26953
8.90958
5.33595
7.42786
8.56293
8.21071
8.84612
5.4742
6.60851
1.71365
2.00215
1.96783
8.77058
5.88032
6.41015
1.80613
2.12452
6.69993
8.44086
3.86709
7.52266
4.5404
2.05419
6.14954
5.42915
7.49404
6.62268
6.74878
5.4273
6.2581
5.60881
5.00995
5.89547
1.78886
2.00898
6.90273
3.59401
3.64137
1.7322
1.94763
1.76569
1.93939
3.41872
2.60451
2.63056
2.2489
2.15573
2.22953
3.09713
3.35934
3.16162
3.11098
2.24229
3.04296
3.05401
3.22061
2.59499
2.46764
3.11515
3.15267
3.39376
2.39844
2.94121
3.16893
2.85821
2.87588
2.9722
2.50558
2.73726
3.45504
3.35767
3.37513
2.58674
3.07239
3.03953
3.06257
3.0179
2.95029
2.93624
2.19478
3.37519
3.09694
2.73789
2.14651
2.21147
2.80564
3.14104
3.10478
3.10518
3.07836
3.06525
3.08508
3.22457
3.24735
3.41191
2.59316
2.86375
2.20781
3.26366
3.61629
4.27044
2.55305
3.52205
2.68327
2.78928
2.87813
2.74178
2.81315
2.22156
3.38903
2.41369
2.83395
2.63741
3.49022
2.71094
2.64018
2.3834
2.61604
2.66475
2.61423
2.36815
2.38174
2.85036
2.58839
2.16116
2.15258
2.62762
2.20996
2.37104
3.06742
2.61149
2.95583
3.10734
2.93352
2.88422
2.89833
2.63595
2.96293
3.16277
3.0966
3.04585
2.56291
2.50321
2.96522
2.95593
3.41474
3.01115
3.20082
3.21203
3.18117
3.21996
2.2725
2.26075
3.05657
2.62685
2.19871
3.00663
2.96491
2.77768
3.10713
3.07297
2.66692
2.80461
3.30281
3.25014
3.34432
3.02094
2.76743
3.2314
3.01643
3.04616
2.6971
3.04414
2.94737
2.65378
2.20698
2.92391
3.18098
2.91917
3.15951
3.14487
2.9549
2.97586
3.32855
2.58673
2.56224
2.59082
4.01385
3.25352
2.20844
3.94366
2.20763
2.85461
2.74489
2.39242
3.30137
3.29698
3.36863
2.94873
3.50807
3.43078
3.38014
3.40872
3.54092
3.01047
3.45051
2.24276
2.24454
2.8202
2.86222
2.77225
2.72804
3.31767
3.26882
3.1392
3.14554
3.4243
3.45036
3.04092
2.72164
2.43384
3.07297
2.72579
3.4591
3.73133
3.08076
3.43496
3.39012
4.48185
3.04614
3.02923
3.2063
2.25646
2.52967
3.12178
3.15102
3.21399
3.16631
3.08313
3.12692
2.23942
3.36299
3.40666
3.39825
2.82678
2.95568
3.00567
2.83258
2.95594
3.06622
3.13949
2.77307
4.10081
4.35827
2.99657
3.70759
2.51717
2.55538
2.51315
2.88094
2.21103
3.73014
3.50866
3.24634
2.60383
2.6106
2.6461
2.65457
2.63548
3.85088
4.28403
2.59851
3.32959
3.04369
2.89741
2.94589
3.02121
3.00802
3.00741
2.63711
2.40048
2.40941
2.44359
2.39403
2.75904
2.89777
3.04763
2.38756
2.5975
2.98233
2.71639
2.76928
3.31851
3.08506
3.02672
3.05953
2.60402
2.97573
3.05366
3.4888
3.0388
3.09095
3.13378
3.11074
2.63164
2.66385
2.2152
2.25524
2.26452
2.69867
3.13915
3.23703
3.16259
3.18268
3.07946
3.05977
3.08901
2.64715
2.65177
2.70485
4.09811
3.6227
3.92145
3.57617
2.93705
2.89426
3.02395
3.15044
3.06548
3.0891
2.88011
3.36075
3.19543
4.22406
4.10322
4.72423
2.16682
3.02768
2.94864
3.02702
2.82239
2.88176
2.55625
2.56624
3.02343
3.21031
3.21703
3.15154
3.18614
3.36368
3.23912
3.19593
3.20391
3.27397
2.92185
2.77755
2.84896
2.78211
2.97648
2.95616
3.0771
3.40987
3.34928
3.3992
2.12156
3.15527
2.63636
2.58496
3.18433
3.20779
2.60036
2.48252
3.89722
3.77849
2.24682
3.22441
3.01251
2.864
2.67154
3.30874
2.99437
2.96676
2.91443
3.0806
2.55417
2.67099
2.94325
3.09525
3.06526
3.2439
2.73949
2.78815
2.79605
2.1908
2.70288
2.71224
3.11039
3.21503
3.16871
3.20874
3.14693
3.10615
2.66546
2.63761
2.6969
2.54699
2.94051
3.17843
3.34699
3.20043
3.24977
3.29742
2.722
2.9471