/*--------------------------------*- C++ -*----------------------------------*\
| =========                 |                                                 |
| \\      /  F ield         | OpenFOAM: The Open Source CFD Toolbox           |
|  \\    /   O peration     | Version:  2206                                  |
|   \\  /    A nd           | Website:  www.openfoam.com                      |
|    \\/     M anipulation  |                                                 |
\*---------------------------------------------------------------------------*/
FoamFile
{
    version     2.0;
    format      ascii;
    arch        "LSB;label=32;scalar=64";
    class       volScalarField;
    location    "60";
    object      k;
}
// * * * * * * * * * * * * * * * * * * * * * * * * * * * * * * * * * * * * * //

dimensions      [0 2 -2 0 0 0 0];

internalField   nonuniform List<scalar> 
184166
(
2.62676
2.32861
2.27571
2.61242
2.49247
2.44831
2.13104
2.38893
2.63323
2.65486
2.5759
2.3275
2.33366
2.47087
2.53559
2.58917
2.61835
2.52096
2.28539
2.57698
2.26516
2.2947
2.40943
2.61091
2.53991
2.55935
2.50063
2.55934
2.5577
2.31618
2.59592
2.12427
2.84863
2.6653
2.60667
2.34573
2.31236
2.5605
2.43386
2.20638
2.55688
2.34146
2.5615
2.60935
2.5996
2.53451
2.17716
2.55643
2.54519
2.55328
2.15189
2.12648
2.19423
2.53269
2.59834
2.45495
2.52889
2.61098
2.69611
2.44558
2.30971
2.43716
2.60113
2.58547
2.81257
2.08504
2.2157
2.63401
2.12142
2.62541
2.26824
2.66231
2.62267
2.59717
2.32542
2.49698
2.41657
2.59409
2.34883
2.15125
2.15671
2.31546
2.66608
2.57729
2.57731
2.58994
2.35836
2.25115
2.4827
2.27657
2.10873
2.49298
2.568
2.71557
2.46143
2.31539
2.60885
2.12796
2.25783
2.59614
2.32429
2.32108
2.57267
2.56506
2.10717
2.40251
2.59444
2.47755
2.11836
2.32802
2.20354
2.6343
2.10106
2.24656
2.60301
2.54189
2.43561
2.25095
2.12566
2.2495
2.59637
2.32147
2.52614
2.50979
2.49878
2.47976
2.52946
2.5248
2.59387
2.57958
2.29956
2.51834
2.47258
2.47894
2.31073
2.33669
2.3113
2.46478
2.48584
2.20886
2.41786
2.13526
2.13864
2.32066
2.43365
2.58534
2.27355
2.5515
2.58964
2.83161
2.67282
2.73228
2.59358
2.56022
2.62359
2.75806
2.58512
2.60316
2.62656
2.20006
2.11834
2.15651
2.47549
2.34884
2.35437
2.53098
2.58212
2.60368
2.11581
2.5948
2.53189
2.40802
2.39404
2.68637
2.51527
2.14754
2.20239
2.64243
2.60103
2.47252
2.11599
2.49058
2.477
2.54804
2.65301
2.36264
2.57641
2.671
2.1255
2.55609
2.49655
2.62348
2.42238
2.12265
2.63299
2.61583
2.53731
2.59338
2.60149
2.54459
2.57911
2.5603
2.11301
2.50436
2.17144
2.55321
2.33771
2.31437
2.41065
2.51464
2.76557
2.49205
2.34938
2.53145
2.28136
2.39912
2.57784
2.48404
2.11894
2.1239
2.29588
2.37302
2.41498
2.49278
2.14969
2.32125
2.29356
2.59243
2.53117
2.63188
2.81269
2.23393
2.40328
2.50697
2.62612
2.43015
2.67969
2.61913
2.51021
2.12556
2.09967
2.60548
2.32182
2.58648
2.19994
2.50751
2.54841
2.33456
2.72468
2.66106
2.49451
2.75386
2.61842
2.31663
2.48076
2.63733
2.50101
2.55234
2.5512
2.42734
2.46233
2.22991
2.59193
2.37713
2.61071
2.51717
2.58684
2.22318
2.54554
2.51024
2.54477
2.14644
2.45305
2.60881
2.32445
2.47569
2.10236
2.479
2.36273
2.46871
2.30231
2.95484
2.47732
2.5325
2.21607
2.33253
2.67238
2.7314
2.49183
2.56886
2.57702
2.51115
2.55069
2.62291
2.67823
2.56801
2.45378
2.66444
2.5699
2.72849
2.51346
2.4245
2.1345
2.55549
2.77753
2.45511
2.49671
2.52885
2.18953
2.10622
2.52338
2.6492
2.58417
2.62173
2.656
2.48102
2.44499
2.54587
2.47917
2.53469
2.28423
2.31486
2.44698
2.59843
2.52417
2.10624
2.54179
2.44027
2.29698
2.51762
2.594
2.19862
2.18962
2.59301
2.13126
2.54973
2.44484
2.3906
2.60873
2.45994
2.49088
2.69529
2.83274
2.67223
2.60733
2.67821
2.225
2.12009
2.34512
2.14998
2.14617
2.5287
2.69286
2.22328
2.28089
2.63045
2.59105
2.45076
2.61516
2.62145
2.36061
2.10469
2.59941
2.25083
2.56657
2.59939
2.10977
2.25471
2.24449
2.09547
2.10829
2.72901
2.82515
2.67941
2.72195
2.6946
2.55455
2.54625
2.31136
2.48096
2.50021
2.50907
2.58134
2.59125
2.49901
2.65273
2.63967
2.34616
2.36009
2.37155
2.48061
2.52824
2.54874
2.11999
2.4084
2.11678
2.66068
2.43541
2.36779
2.49147
2.69561
2.46722
2.73492
2.54725
2.1964
2.49374
2.61006
2.60219
2.50767
2.28877
2.48586
2.36227
2.36633
2.32697
2.33012
2.31032
2.56258
2.20554
2.19321
2.163
2.79994
2.44778
2.44506
2.45553
2.4634
2.11363
2.11529
2.12232
2.29009
2.27653
2.28934
2.13273
2.83363
2.71151
2.77692
2.74719
2.66435
2.71708
2.53905
2.54031
2.54387
2.54512
2.57961
2.56689
2.57335
2.5632
2.65274
2.6872
2.53891
2.56133
2.52237
2.51832
2.53095
2.55044
2.49943
2.52496
2.50933
2.50612
2.51374
2.67922
2.52743
2.13311
2.11221
2.11535
2.10975
2.1517
2.10042
2.13965
2.53807
2.55248
2.54684
2.56605
2.56683
2.54039
2.42012
2.35418
2.39746
2.58453
2.58824
2.56247
2.57552
2.56271
2.11301
2.09184
2.33488
2.34519
2.33363
2.31551
2.30985
2.31499
2.52322
2.4689
2.44586
2.46383
2.44498
2.65384
2.60736
2.61158
2.63291
2.66716
2.63174
2.62942
2.54692
2.52495
2.52796
2.52195
2.54404
2.524
2.26673
2.5531
2.58716
2.09182
2.11489
2.09663
2.58615
2.65912
2.6402
2.58032
2.59972
2.58642
2.61286
2.64502
2.70353
2.50528
2.52004
2.53203
2.53872
2.65086
2.65892
2.7425
2.71443
2.87278
2.76866
2.87042
2.73791
2.67923
2.69584
2.59916
2.69125
2.8033
2.75118
2.64992
2.69837
2.58885
2.56529
2.58214
2.55349
2.14928
2.43073
2.38406
2.34387
2.421
2.3796
2.41416
2.4168
2.35338
2.38232
2.32401
2.27283
2.64858
2.6119
2.65092
2.63849
2.5961
2.62477
2.61402
2.61681
2.55148
2.51802
2.47941
2.47111
2.481
2.49102
2.57101
2.86181
2.13922
2.19484
2.1222
2.12032
2.11467
2.12083
2.64437
2.64327
2.71179
2.69557
2.74153
2.7164
2.677
2.74622
2.55457
2.54614
2.59716
2.61959
2.59788
2.09392
2.44871
2.4154
2.40942
2.59661
2.60445
2.59752
2.60475
2.60901
2.60871
2.6105
2.61311
2.57194
2.54761
2.58179
2.31515
2.35842
2.44975
2.37922
2.63865
2.66767
2.65985
2.6529
2.7189
2.66139
2.7068
2.68544
2.47098
2.52571
2.50027
2.52406
2.60498
2.61369
2.51482
2.46927
2.45395
2.44881
2.47456
2.47433
2.67914
2.70022
2.50804
2.50003
2.53354
2.61357
2.54471
2.44033
2.49478
2.66762
2.77472
2.65871
2.64467
2.6855
2.77959
2.68968
2.6744
2.13445
2.19147
2.50113
2.54983
2.59224
2.54721
2.44427
2.65738
2.61015
2.64649
2.63765
2.60519
2.62725
2.11186
2.71058
2.73566
2.7224
2.7115
2.36307
2.61141
2.63007
2.58176
2.90284
2.78226
2.88446
2.16677
2.10601
2.10642
2.14877
2.14934
2.10417
2.45017
2.23155
2.28681
2.68529
2.60776
2.64534
2.38453
2.34995
2.38389
2.36335
2.34952
2.36502
2.63056
2.73413
2.6258
2.60773
2.73929
2.82563
2.38314
2.37388
2.63034
2.50735
2.43926
2.44403
2.227
2.42406
2.56469
2.56401
2.46121
2.46712
2.45648
2.34699
2.32811
2.34626
2.32909
2.32569
2.45588
2.58871
2.57543
2.57806
2.45939
2.50044
2.43704
2.4455
2.46483
2.42544
2.41464
2.43563
2.56832
2.60248
2.62372
2.61552
2.44987
2.45374
2.31402
2.34061
2.34684
2.61583
2.52632
2.61992
2.65735
2.33666
2.47246
2.12529
2.11832
2.1187
2.57808
2.31556
2.37141
2.28579
2.59772
2.46176
2.53056
2.50117
2.44918
2.46844
2.46716
2.46326
2.5153
2.42164
2.53282
2.45016
2.32443
2.31196
2.32489
2.31755
2.31214
2.31461
2.30441
2.3009
2.29636
2.47204
2.36024
2.31901
2.32282
2.31111
2.50171
2.47599
2.50389
2.49549
2.56906
2.58627
2.57323
2.67067
2.47031
2.4635
2.42624
2.26493
2.28833
2.12218
2.12427
2.12805
2.12508
2.41323
2.3002
2.30319
2.3069
2.34216
2.3535
2.48415
2.50054
2.58113
2.53974
2.555
2.59226
2.46203
2.47589
2.50165
2.33729
2.30969
2.30696
2.30972
2.30776
2.10876
2.11762
2.58338
2.585
2.11819
2.11662
2.1115
2.1179
2.59461
2.15286
2.23006
2.16134
2.18496
2.32279
2.35042
2.35288
2.3341
2.61077
2.51699
2.53747
2.50447
2.476
2.48973
2.51148
2.57599
2.3816
2.35216
2.41757
2.3631
2.40984
2.29558
2.60286
2.65509
2.6855
2.73459
2.59815
2.56247
2.48267
2.41708
2.43201
2.48791
2.08941
2.07054
2.6547
2.53165
2.45348
2.53007
2.45086
2.51129
2.07757
2.07033
2.62855
2.6389
2.64341
2.65949
2.64984
2.23856
2.55847
2.32828
2.5003
2.12664
2.12791
2.57462
2.58286
2.5663
2.57401
2.57355
2.57892
2.1193
2.17456
2.29282
2.26503
2.52995
2.63575
2.50702
2.54638
2.15239
2.15997
2.64394
2.61712
2.5303
2.53602
2.49877
2.47426
2.48953
2.5025
2.6087
2.58299
2.60568
2.2247
2.35882
2.26692
2.44627
2.44857
2.4972
2.47655
2.59704
2.58042
2.60114
2.63055
2.69115
2.70796
2.66601
2.6588
2.64723
2.65014
2.60643
2.5749
2.59888
2.62718
2.70072
2.49336
2.4459
2.36416
2.38437
2.35181
2.32533
2.3225
2.33205
2.31294
2.32938
2.43045
2.53519
2.4983
2.48716
2.49158
2.48511
2.65774
2.67115
2.58181
2.50601
2.53942
2.38112
2.54167
2.55131
2.54113
2.53825
2.19691
2.17383
2.20491
2.19525
2.17438
2.50522
2.52018
2.51749
2.68512
2.68642
2.60385
2.63711
2.72541
2.71511
2.59219
2.6591
2.59974
2.57341
2.57062
2.37631
2.39598
2.3328
2.46262
2.43356
2.47228
2.48463
2.49004
2.62088
2.59318
2.57762
2.58407
2.577
2.6416
2.68659
2.62337
2.97162
2.48482
2.48393
2.46633
2.34859
2.38158
2.38762
2.40403
2.34003
2.53967
2.5484
2.56625
2.54886
2.21993
2.25568
2.21771
2.18285
2.44275
2.43626
2.54921
2.58942
2.63022
2.60595
2.68501
2.64491
2.53408
2.52385
2.53173
2.54116
2.13339
2.11943
2.11163
2.08452
2.55808
2.56791
2.5546
2.55499
2.47064
2.46857
2.47439
2.73909
2.71465
2.7059
2.68309
2.68054
2.71439
2.43507
2.35249
2.39893
2.30136
2.3898
2.41676
2.41775
2.42327
2.7218
2.67351
2.6847
2.60424
2.67002
2.46022
2.43252
2.64541
2.51098
2.43702
2.46016
2.36245
2.37308
2.45297
2.51402
2.50891
2.7705
2.61974
2.63345
2.65329
2.63333
2.12649
2.09987
2.10077
2.29036
2.28688
2.45314
2.45998
2.44456
2.43839
2.44142
2.41989
2.22166
2.12904
2.37255
2.41901
2.44613
2.60037
2.5886
2.56444
2.52703
2.52248
2.12502
2.13001
2.12689
2.87868
2.88479
2.73992
2.73558
2.09301
2.08052
2.5
2.51104
2.42824
2.27813
2.28827
2.8094
2.7268
2.59679
2.62515
2.59895
2.12327
2.1279
2.12532
2.11439
2.11988
2.4506
2.56911
2.51585
2.5019
2.46314
2.47112
2.66279
2.47935
2.47997
2.49713
2.4852
2.42786
2.59363
2.59649
2.56241
2.56348
2.2801
2.29015
2.2832
2.27891
2.61785
2.58436
2.61018
2.63928
2.60369
2.62864
2.44937
2.44511
2.42585
2.53905
2.55689
2.4802
2.31752
2.16804
2.18498
2.25419
2.16364
2.35573
2.21358
2.18363
2.27633
2.67385
2.70672
2.72532
2.43678
2.48941
2.42968
2.45799
2.53233
2.54657
2.53854
2.1242
2.11586
2.12682
2.12801
2.53335
2.48182
2.21791
2.14276
2.13747
2.06777
2.06744
2.37161
2.39737
2.399
2.3624
2.3774
2.55982
2.27917
2.21292
2.12044
2.11349
2.11521
2.10839
2.11267
2.39662
2.36198
2.45284
2.45063
2.48611
2.46196
2.53471
2.55413
2.46403
2.47652
2.44995
2.13128
2.15598
2.34235
2.36637
2.22938
2.22737
2.2237
2.56844
2.55982
2.56808
2.64398
2.69722
2.66026
2.64066
2.67327
2.70455
2.13045
2.18172
2.1421
2.21709
2.19756
2.28287
2.2927
2.14549
2.14986
2.47713
2.49372
2.49156
2.50257
2.12649
2.1102
2.13169
2.13784
2.4826
2.49015
2.43677
2.47127
2.36041
2.44447
2.37425
2.42459
2.65481
2.65455
2.53585
2.4825
2.2576
2.45988
2.40433
2.41636
2.39893
2.14426
2.29668
2.26296
2.4271
2.34187
2.38836
2.29034
2.51495
2.51686
2.46133
2.49174
2.4791
2.49331
2.21863
2.23954
2.49546
2.53895
2.47329
2.51063
2.47301
2.49797
2.44287
2.49013
2.52059
2.46151
2.45797
2.41998
2.69431
2.68805
2.72176
2.70246
2.57969
2.58685
2.388
2.41149
2.12208
2.1276
2.12427
2.10895
2.10539
2.12097
2.12393
2.11663
2.29121
2.28876
2.30252
2.31396
2.31083
2.5128
2.5371
2.54623
2.50727
2.51852
2.63784
2.64525
2.66868
2.6402
2.31782
2.31676
2.12084
2.1174
2.11524
2.11486
2.11413
2.64617
2.5968
2.44346
2.45026
2.46138
2.64256
2.6061
2.69553
2.5769
2.5741
2.46234
2.5372
2.54011
2.56126
2.51349
2.49408
2.51952
2.66075
2.61622
2.57557
2.64048
2.60052
2.63834
2.62085
2.65394
2.65047
2.47767
2.4615
2.4034
2.57771
2.57554
2.5733
2.58689
2.65647
2.06987
2.47609
2.49064
2.50135
2.48745
2.52602
2.549
2.54046
2.5588
2.56617
2.07335
2.05692
2.07331
2.11865
2.12671
2.12214
2.11728
2.7198
2.59821
2.61184
2.66564
2.58803
2.53442
2.3442
2.56016
2.55941
2.2007
2.30691
2.20768
2.3294
2.32186
2.36746
2.36357
2.32055
2.37246
2.44968
2.45066
2.57961
2.13434
2.53021
2.44091
2.37275
2.20214
2.20184
2.20199
2.38725
2.38945
2.35822
2.43728
2.40212
2.46912
2.44562
2.30902
2.30338
2.29342
2.2922
2.31163
2.2903
2.53103
2.54881
2.55478
2.47835
2.50865
2.54488
2.42514
2.3974
2.64706
2.56606
2.58395
2.51395
2.06401
2.05889
2.56417
2.66163
2.49446
2.51129
2.51421
2.53304
2.47813
2.50041
2.11617
2.1312
2.1275
2.12942
2.1211
2.66157
2.61601
2.05776
2.49532
2.26554
2.30458
2.40393
2.28517
2.39354
2.34337
2.28211
2.58927
2.54317
2.57528
2.87437
2.9106
2.73795
2.44272
2.44261
2.12501
2.12709
2.12526
2.12666
2.12673
2.13264
2.57641
2.14442
2.09981
2.0585
2.09351
2.07356
2.60506
2.5906
2.50555
2.43516
2.41
2.28741
2.34094
2.24368
2.14186
2.25213
2.20375
2.58212
2.57892
2.6156
2.61016
2.59396
2.52109
2.50231
2.11746
2.14
2.51335
2.5088
2.47549
2.49635
2.39742
2.49359
2.48523
2.48845
2.40245
2.42904
2.30659
2.3661
2.36194
2.30154
2.33055
2.38107
2.35016
2.35638
2.34558
2.3736
2.38605
2.55069
2.55936
2.55875
2.54858
2.55504
2.18856
2.16375
2.32049
2.2388
2.35951
2.27745
2.56508
2.58151
2.59145
2.59861
2.33949
2.37621
2.35656
2.46009
2.41217
2.33912
2.388
2.12752
2.13178
2.66565
2.69948
2.50341
2.49093
2.49858
2.45201
2.10242
2.08648
2.05947
2.10273
2.08515
2.6097
2.60721
2.52019
2.50924
2.50122
2.42753
2.45609
2.40324
2.25692
2.27436
2.24768
2.25318
2.12259
2.12222
2.1207
2.11632
2.42698
2.51384
2.50594
2.4997
2.39069
2.4078
2.44345
2.60454
2.63335
2.6972
2.60601
2.65493
2.72463
2.13358
2.21007
2.11874
2.14512
2.52837
2.52782
2.55134
2.53878
2.51693
2.12812
2.12368
2.12628
2.94641
2.94024
2.43256
2.40499
2.38493
2.17242
2.26648
2.28467
2.17776
2.62947
2.64327
2.64787
2.66473
2.66206
2.65314
2.49453
2.50798
2.51621
2.49425
2.65037
2.71379
2.26452
2.32494
2.18927
2.82665
2.52254
2.48889
2.45111
2.28485
2.66431
2.50087
2.5312
2.06761
2.23074
2.19991
2.21991
2.22555
2.20331
2.20751
2.09969
2.08947
2.15348
2.11164
2.2358
2.25054
2.23369
2.24036
2.2361
2.25221
2.23349
2.24505
2.3871
2.33134
2.49652
2.67967
2.73143
2.46779
2.11288
2.10534
2.11662
2.10932
2.66084
2.56614
2.5622
2.76619
2.66502
2.45299
2.27527
2.58523
2.5748
2.59472
2.20105
2.21133
2.15004
2.14195
2.40723
2.43647
2.51714
2.52775
2.49914
2.52436
2.51624
2.51212
2.62294
2.60877
2.6723
2.40935
2.50488
2.50182
2.38865
2.45558
2.65569
2.63163
2.62329
2.71428
2.84714
2.08509
2.0522
2.51593
2.53459
2.55658
2.55293
2.51868
2.53027
2.49052
2.50332
2.48412
2.48641
2.50398
2.50532
2.51968
2.54219
2.52455
2.53585
2.64908
2.63197
2.63853
2.63591
2.04119
2.03152
2.0717
2.0887
2.47348
2.47186
2.64862
2.67849
2.64438
2.45926
2.4633
2.46022
2.61691
2.59249
2.60648
2.60468
2.62251
2.42452
2.44634
2.34267
2.35806
2.34551
2.33765
2.26526
2.27357
2.27091
2.31316
2.42833
2.45681
2.52679
2.52302
2.75052
2.74381
2.12316
2.12017
2.57129
2.56326
2.31202
2.28555
2.28703
2.26741
2.28483
2.29065
2.16722
2.14134
2.1575
2.11995
2.12192
2.16022
2.11054
2.46076
2.43201
2.44593
2.40965
2.48583
2.47716
2.46899
2.47718
2.46957
2.46806
2.63907
2.64234
2.65295
2.6435
2.66366
2.48226
2.49339
2.37357
2.33508
2.33873
2.43198
2.49372
2.49809
2.50317
2.39453
2.36853
2.06074
2.026
2.24105
2.2865
2.40388
2.11536
2.09419
2.09755
2.14022
2.11794
2.58001
2.56872
2.57071
2.55854
2.57565
2.5531
2.57972
2.13103
2.14971
2.13094
2.12805
2.16905
2.10163
2.18204
2.23764
2.26426
2.19031
2.09721
2.09746
2.06817
2.72051
2.71564
2.71638
2.64579
2.73699
2.45262
2.42973
2.29587
2.49825
2.5066
2.48498
2.48323
2.17561
2.31972
2.21894
2.24373
2.17947
2.17635
2.1346
2.22695
2.221
2.12669
2.12761
2.74535
2.70062
2.66282
2.66974
2.64688
2.51105
2.32668
2.43416
2.66312
2.77322
2.69603
2.56874
2.54873
2.56236
2.31479
2.28559
2.16291
2.15167
2.26699
2.16093
2.45821
2.47512
2.45226
2.48363
2.41028
2.41258
2.39166
2.36489
2.36538
2.1715
2.12534
2.14049
2.35977
2.55278
2.36931
2.47107
2.55655
2.53528
2.45786
2.5335
2.48461
2.54248
2.60085
2.50908
2.43597
2.4545
2.47739
2.48568
2.09613
2.10712
2.12358
2.12417
2.49625
2.4865
2.11136
2.11185
2.51618
2.47612
2.5133
2.6921
2.03222
2.04233
2.07167
2.14615
2.11021
2.10652
2.32454
2.29437
2.47172
2.4706
2.45139
2.44367
2.25301
2.27929
2.38594
2.04592
2.31358
2.29529
2.26757
2.30705
2.27432
2.2667
2.31713
2.29771
2.31415
2.27513
2.2806
2.28265
2.34376
2.54329
2.53767
2.1071
2.1263
2.08969
2.48288
2.47006
2.4764
2.437
2.42823
2.41609
2.62952
2.5775
2.451
2.48377
2.46198
2.49806
2.3956
2.45616
2.44298
2.42174
2.44501
2.3054
2.30341
2.30758
2.31035
2.31073
2.42332
2.39477
2.38123
2.42195
2.40836
2.45195
2.43903
2.44716
2.44539
2.44699
2.44847
2.52241
2.50771
2.52657
2.52094
2.50831
2.66178
2.62499
2.62163
2.63657
2.63098
2.36609
2.38765
2.3615
2.39307
2.38385
2.67654
2.63648
2.06516
2.22019
2.2427
2.27459
2.46855
2.42414
2.19022
2.16024
2.16394
2.82082
2.74358
2.84368
2.9559
2.61286
2.58783
2.73127
2.74636
2.64389
2.71268
2.72469
2.69057
2.34237
2.37885
2.5598
2.55841
2.55758
2.56535
2.32286
2.26114
2.17862
2.3808
2.13886
2.24166
2.26474
2.19072
2.63837
2.72135
2.66213
3.03487
2.16727
2.24339
2.2649
2.40127
2.41155
2.33158
2.3244
2.4663
2.44913
3.4352
2.81718
2.74469
2.62997
2.62628
2.39888
2.47625
2.36427
2.26002
2.47678
2.48938
2.48072
2.48585
2.57477
2.57731
2.56212
2.55889
2.56245
2.5697
2.57352
2.55946
2.56082
2.31848
2.28992
2.46647
2.17037
2.16036
2.25369
2.2335
2.43714
2.40975
2.43004
2.44006
2.41579
2.39717
2.45757
2.47266
2.48903
2.43203
2.51696
2.57844
2.6817
2.77328
2.38972
2.39016
2.42022
2.40583
2.41889
2.40971
2.53859
2.54107
2.54004
2.54043
2.53263
2.53711
2.71945
2.61929
2.83329
2.73428
2.57868
2.56617
2.56757
2.55992
2.56199
2.58438
2.59658
2.47538
2.48367
2.48276
2.32108
2.1411
2.44063
2.45416
2.46261
2.46353
2.44847
2.43712
2.44479
2.30375
2.28946
2.29321
2.31231
2.30837
2.38053
2.35807
2.3633
2.39063
2.38097
2.11728
2.11447
2.1187
2.12347
2.11219
2.11478
2.23127
2.12328
2.11988
2.15032
2.14086
2.13109
2.88418
2.51807
2.52405
2.53817
2.53244
2.5361
2.03155
2.56291
2.5776
2.57684
2.56182
2.57173
2.43524
2.45181
2.45147
2.4478
2.44026
2.39959
2.36395
2.42798
2.39322
2.39667
2.2373
2.30807
2.4355
2.37065
2.10486
2.10906
2.12279
2.15082
2.10731
2.11514
2.2711
2.24489
2.21697
2.18481
2.2049
2.17553
2.52227
2.51492
2.09125
2.06336
2.06842
2.11394
2.11764
2.66174
2.62802
2.63996
2.62179
2.61769
2.5858
2.64721
2.6314
2.63113
2.66023
2.67459
2.67307
2.50202
2.48717
2.47805
2.43334
2.4524
2.4483
2.14642
2.13207
2.64562
2.68061
2.75898
2.50994
2.52392
2.05063
2.02902
2.27604
2.21113
2.17216
2.27722
2.13878
2.14003
2.49619
2.49317
2.50469
2.50993
2.5087
2.41408
2.42204
2.52043
2.49845
2.50413
2.5454
2.51313
2.59632
2.53968
2.50674
2.51853
2.56924
3.15263
3.54366
2.27683
2.26708
2.24843
2.25119
2.23941
2.5293
2.57134
2.53733
2.69362
2.76585
2.78364
2.26706
2.29198
2.29825
2.33088
2.31799
2.29711
2.28446
2.29929
2.33982
2.32371
2.3004
2.2984
2.31158
2.30162
2.29935
2.30949
2.30453
2.43712
2.43368
2.44277
2.44789
2.45422
2.46689
2.45029
2.45558
2.41752
2.45925
2.49932
2.50446
2.56742
2.61959
2.55674
2.49414
2.50763
2.45616
2.45853
2.47855
2.47225
2.42253
2.4341
2.40721
2.38023
2.37509
2.36688
2.39559
2.41189
2.40104
2.56685
2.58585
2.5829
2.59342
2.57363
2.58298
2.52746
2.5515
2.48977
2.53127
2.4739
2.54305
2.53649
2.55787
2.55741
2.54304
2.10293
2.09552
2.07556
2.47555
2.46481
2.49804
2.52129
2.54043
2.56688
2.5058
2.5036
2.0754
2.09717
2.57056
2.55216
2.55249
2.5495
2.04754
2.06673
2.0261
2.46284
2.473
2.52772
2.53275
2.53942
2.70539
2.66221
2.52798
2.54079
2.5387
2.53753
2.52806
2.18385
2.13131
2.25451
2.17913
2.20432
2.32129
2.2433
2.37249
2.34866
2.38824
2.44702
2.40443
2.53649
2.66322
2.7645
2.13811
2.15095
2.12545
2.19692
2.21913
2.30305
2.30336
2.35487
2.31161
2.30378
2.31073
2.30351
2.30086
2.94499
3.04228
3.24051
2.63938
2.65794
2.85694
2.4395
2.44822
2.44467
2.44792
2.43643
2.43735
2.1217
2.11583
2.12122
2.12214
2.12109
2.11906
2.38477
2.32197
2.33863
2.39369
2.24985
2.23044
2.45698
2.45971
2.44818
2.45365
2.44833
2.45198
2.78139
2.90086
2.82568
2.49695
2.45276
2.2969
2.09759
2.11131
2.09515
2.10148
2.1019
2.11217
2.43596
2.43239
2.50377
2.56522
2.55991
2.44528
2.44209
2.11007
2.11885
2.14569
2.12816
2.16795
2.19263
2.14551
2.25698
2.37124
2.30189
2.20674
2.12224
2.12435
2.18343
2.14307
2.0371
2.04502
2.30388
2.28778
2.25404
2.23924
2.23358
2.47104
2.48128
2.47548
2.48762
2.50553
2.51618
2.52529
2.51591
2.54388
2.51104
2.52418
2.54591
2.6196
2.64129
2.61583
2.63714
2.44871
2.4357
2.38149
2.39154
2.43314
2.39347
2.31132
2.31147
2.43909
2.43844
2.44934
2.44497
2.58711
2.5827
2.5755
2.57759
2.58219
2.25051
2.26916
2.23163
2.22803
2.24225
2.26407
2.47942
2.45877
2.47308
2.46108
2.41558
2.44232
2.43712
2.42046
2.50834
2.52902
2.31238
2.34148
2.36575
2.21399
2.18888
2.2533
2.26045
2.24823
2.39252
2.36748
2.25276
2.35829
2.2433
2.28374
2.32017
2.58932
2.57811
2.57357
2.54083
2.56635
2.58615
2.25327
2.17889
2.24269
2.5648
2.47785
2.51501
2.58334
2.61024
2.60241
2.60024
2.58524
2.69229
2.70046
2.68586
2.69944
2.68432
2.66098
2.65605
2.63981
2.63102
2.64464
2.1633
2.12509
2.11564
2.11731
2.10546
2.43994
2.47013
2.48472
2.60242
2.62073
2.60197
2.3334
2.33713
2.52811
2.51027
2.49381
2.52826
2.55998
2.05476
2.05809
2.1042
2.07742
2.10868
2.11893
2.11489
2.35071
2.36179
2.37889
2.36763
2.37923
2.53735
2.53364
2.645
2.62561
2.6144
2.66648
2.66228
2.69331
2.45918
2.44133
2.42807
2.45248
2.42147
2.41685
2.34456
2.33592
2.39965
2.37097
2.58414
2.64862
2.66046
2.71101
2.45144
2.45459
2.46129
2.47046
2.45919
2.48528
2.47169
2.47345
2.46499
2.3405
2.31597
2.33695
2.33615
2.36912
2.31706
2.3072
2.28851
2.39317
2.38078
2.36704
2.40578
2.37555
2.5771
2.59437
2.63707
2.61117
2.58105
2.7641
2.85022
2.35667
2.3723
2.35256
2.5982
2.5806
2.60126
2.31864
2.28577
2.34106
2.38159
2.31764
2.28975
2.31075
2.26774
2.27475
2.26438
2.24774
2.26814
2.24728
2.26359
2.2543
2.26504
2.25317
2.26607
2.27088
2.36992
2.40057
2.3745
2.39214
2.39702
2.38244
2.61049
2.58818
2.60247
2.59052
2.61651
2.60323
2.61512
2.8431
2.95452
2.60074
2.6319
2.6753
2.59248
2.63788
2.25971
2.2454
2.25695
2.24155
2.24901
2.28205
2.28665
2.31881
2.29086
2.32869
2.31776
2.36756
2.3678
2.40751
2.40671
2.45639
2.41571
2.44713
2.44816
2.42176
2.4397
2.45934
2.45131
2.29338
2.29804
2.26365
2.26026
2.24686
2.242
2.25058
2.38035
2.34502
2.37123
2.2799
2.27397
2.28916
2.31722
2.31107
2.29684
2.29656
2.31054
2.27079
2.26031
2.26947
2.57488
2.51795
2.57243
2.53314
2.75274
2.78656
2.35992
2.34957
2.32858
2.3588
2.34011
2.4122
2.38371
2.41276
2.38916
2.40366
2.45892
2.44706
2.45692
2.44742
2.43922
2.44156
2.46092
2.40416
2.44888
2.41186
2.39829
2.61514
2.66017
2.40965
2.4092
2.15623
2.14422
2.12811
2.1263
2.51748
2.52559
2.28975
2.31005
2.45549
2.38196
2.34404
2.45042
2.5834
2.55298
2.50741
2.5167
2.61396
2.62133
2.62102
2.60373
2.61847
2.61208
2.6032
2.62169
2.61777
2.62089
2.47885
2.46082
2.44763
2.54403
2.57874
2.80847
2.8162
2.47197
2.45633
2.48101
2.19608
2.11346
2.12619
2.15174
2.09684
2.10563
2.68361
2.63322
2.50665
2.65759
2.51548
2.58818
2.18593
2.16248
2.24489
2.42059
2.44765
2.42434
2.43845
2.44172
2.43304
2.48014
2.46297
2.47454
2.29304
2.32455
2.39282
2.4293
2.42389
2.38462
2.40171
2.44523
2.44976
2.41519
2.40994
2.42988
2.35468
2.34347
2.37335
2.53532
2.51317
2.53223
2.49904
2.4932
2.13226
2.09282
2.08926
2.0954
2.11122
2.1284
2.13123
2.09897
2.06289
2.10879
2.09383
2.1059
2.61825
2.639
2.54768
2.56841
2.48461
2.52685
2.46468
2.25551
2.25271
2.26198
2.3375
2.34841
2.37002
2.64811
2.68646
2.67197
2.64753
2.62483
2.60862
2.53452
2.5841
2.55652
2.07969
2.93099
2.79108
2.91872
2.11955
2.10664
2.15903
2.14763
2.14477
2.61825
2.63161
2.4646
2.47735
2.46234
2.12197
2.12265
2.25302
2.14014
2.13107
2.1242
2.55897
2.55758
2.56591
2.56225
2.17251
2.16334
2.36943
2.35389
2.34098
2.47489
2.41091
2.4001
2.58028
2.53989
2.35326
2.3347
2.37639
2.36031
2.56116
2.55277
2.56072
2.76647
3.05758
3.37385
3.19523
2.87365
2.32662
2.47993
1.85142
2.31862
2.31417
3.02442
3.8571
2.47681
3.47042
2.38137
3.53249
3.24937
3.32661
3.35593
3.24935
2.95272
2.99894
3.09784
3.37566
3.54717
2.81892
2.77981
2.94207
2.83884
2.96712
3.08732
3.57132
3.43666
2.00394
3.0269
3.3426
3.13262
3.00613
3.45912
3.34979
3.2583
3.39221
3.07241
3.03988
1.85414
1.89739
2.80516
3.24609
3.09905
1.98646
3.38793
3.04552
3.19
3.24653
3.17324
2.78231
3.3698
3.31665
3.3505
3.03449
2.92267
3.07046
3.33826
3.39029
3.34033
2.50434
2.49096
1.94955
1.90983
2.0818
2.95499
3.10832
3.05332
3.57601
3.28919
3.27797
3.3354
2.70758
2.97846
2.45011
2.46286
2.31138
2.31399
2.93672
2.83342
2.90133
2.7924
2.76394
3.16821
2.78022
3.86783
3.28996
3.59504
3.48957
3.32576
3.35429
3.38009
3.06162
3.05863
2.98874
3.37009
3.34684
3.22689
3.11877
3.21095
3.15679
3.09292
2.92544
2.52285
2.56595
2.85615
2.91104
2.82044
2.38108
2.79469
3.19728
2.74712
2.51134
2.35597
2.398
1.84695
2.01273
1.82202
3.42627
3.44643
3.38744
3.29524
3.07529
3.16084
3.17131
2.4102
3.8473
3.4435
2.86403
2.75722
2.79344
2.95096
2.85734
2.95636
2.85587
2.84073
2.90867
2.35117
2.36518
2.93156
2.85201
2.79759
3.18047
2.96844
3.48726
3.48538
3.55499
1.81012
1.98447
3.03101
3.06089
2.96067
3.32117
2.79024
1.76204
2.10337
2.33719
2.31837
2.32643
2.75542
3.16301
2.70762
1.83889
2.02077
2.16274
2.22035
1.88597
2.08588
2.86986
2.94437
3.02768
2.89521
3.15978
2.92135
3.01647
3.24077
3.2278
3.32771
2.60052
1.81108
1.97647
1.80242
1.98988
2.96761
2.88864
2.96578
3.18493
2.95687
4.07158
3.66465
3.46117
3.04315
1.78757
1.88694
2.04528
2.0127
2.11428
2.23929
2.01388
2.14846
3.27459
3.13261
2.00064
2.04581
1.82036
2.00169
3.46268
3.27833
2.15786
3.20319
2.85126
2.98458
3.23377
1.99291
1.7824
1.979
3.48515
2.35241
2.33785
2.36718
3.32681
2.95254
3.64056
2.80525
2.85752
1.84186
2.01153
3.61282
3.3257
3.66113
3.19296
3.37916
3.00668
3.48924
3.32877
1.8162
2.00705
1.97545
1.80169
1.98914
1.7701
3.24431
2.96603
3.32757
2.25178
2.33402
2.46735
2.45343
2.39669
2.41711
2.42899
1.77823
1.95973
2.8209
2.80861
2.79817
2.90985
3.64539
3.29399
3.72602
3.13759
3.19586
2.96339
1.94383
1.79939
1.98169
3.59704
3.79049
3.60576
3.31193
1.95959
1.79153
1.97429
2.25725
2.44454
2.34969
2.19341
2.44923
2.2663
1.78767
2.30916
2.47744
2.35637
2.02346
2.19337
2.24958
3.67913
2.99772
2.40529
2.42598
3.10693
3.14659
3.09543
3.53011
3.51311
3.79199
2.42101
2.40053
2.43704
3.61755
3.11814
3.55224
3.32912
3.27718
1.93346
2.12742
2.80996
3.32066
2.77742
2.68988
3.33586
3.01697
2.90133
3.03915
1.77222
3.67497
3.03517
2.49107
2.47659
2.472
2.50788
2.48985
2.52883
1.8027
2.80898
2.98376
2.90926
1.80389
1.95755
3.12191
3.23305
3.14235
1.76968
1.93669
3.8138
2.889
2.96419
3.17906
2.9474
3.12262
3.14609
2.89025
3.01011
1.77349
1.93743
1.93383
3.80561
1.78657
3.36137
3.36721
3.36483
3.83503
3.604
4.92288
4.09575
1.95461
2.12764
3.13669
2.93691
3.02447
3.4445
2.04951
1.88222
3.8453
3.27935
1.73601
1.93048
1.80569
1.96883
1.97587
3.61703
2.96836
3.11339
1.96184
1.74222
1.92137
5.02574
4.40133
3.67145
3.11328
3.14222
2.48696
2.49084
1.77849
1.9556
1.94674
3.34744
3.0255
2.83861
4.4929
3.72238
4.08241
3.47102
3.44345
1.94591
1.72427
1.93888
2.91269
2.72196
1.79488
1.98173
1.96829
2.65893
3.07794
2.88214
3.20228
3.63785
2.97601
3.27768
3.44425
3.35862
3.68481
2.97378
3.0876
1.83053
2.00978
1.98927
3.76876
3.12602
3.14445
1.90496
2.07642
3.15828
3.54502
2.79054
3.71433
2.95533
2.03671
3.14962
3.0479
3.61101
3.44031
3.46393
2.91201
3.07827
2.99456
2.88973
3.05106
1.8831
2.01352
3.25635
2.58892
2.59443
1.8439
1.97554
1.85501
1.97136
2.67942
2.32103
2.3337
2.13507
2.09212
2.12886
2.53745
2.66446
2.57573
2.55166
2.13326
2.52182
2.52769
2.57068
2.31653
2.25132
2.55847
2.57507
2.65977
2.22212
2.47326
2.5603
2.44814
2.44896
2.47834
2.25962
2.38811
2.68323
2.66527
2.57762
2.31394
2.53711
2.52153
2.53091
2.49988
2.47479
2.45419
2.10815
2.62152
2.5473
2.37193
2.09556
2.11856
2.41855
2.5484
2.53544
2.53215
2.52951
2.53008
2.53523
2.56997
2.61011
2.6772
2.31557
2.4429
2.11567
2.61272
2.65068
2.76095
2.29667
2.70771
2.35473
2.40998
2.45202
2.38872
2.42206
2.12048
2.60024
2.22188
2.43005
2.33697
2.63555
2.37545
2.34267
2.21238
2.32877
2.35337
2.32862
2.20303
2.21065
2.42695
2.30572
2.1032
2.09938
2.33977
2.12843
2.21227
2.52238
2.32459
2.46532
2.54655
2.47445
2.45074
2.45577
2.33256
2.49002
2.57644
2.54762
2.52591
2.29958
2.26852
2.47345
2.46936
2.60014
2.51197
2.5753
2.57704
2.57138
2.57468
2.15862
2.15352
2.52754
2.33259
2.11181
2.49487
2.47949
2.41023
2.55659
2.54096
2.35013
2.40239
2.63816
2.61623
2.65722
2.50028
2.39979
2.54135
2.49635
2.50432
2.35457
2.49815
2.46984
2.34469
2.1169
2.47472
2.5897
2.4672
2.55265
2.55531
2.47766
2.47826
2.58419
2.31246
2.29991
2.31445
2.7734
2.61022
2.1224
2.80728
2.11556
2.43752
2.38762
2.21348
2.63107
2.62425
2.66285
2.48104
2.70098
2.68039
2.67275
2.68449
2.62984
2.48676
2.59369
2.13213
2.13214
2.41873
2.43139
2.39877
2.37518
2.58896
2.5769
2.5585
2.5561
2.69139
2.6904
2.50982
2.37079
2.23308
2.52844
2.3846
2.66872
2.71119
2.52815
2.66644
2.63411
2.82507
2.51102
2.50306
2.58576
2.14345
2.28288
2.55598
2.56086
2.58023
2.56627
2.5392
2.55365
2.13792
2.65678
2.67753
2.67235
2.4278
2.48679
2.50967
2.43081
2.48804
2.52277
2.55396
2.40378
2.84966
2.92269
2.48897
2.66717
2.27638
2.29563
2.2741
2.4368
2.1149
2.70212
2.605
2.56163
2.3206
2.32435
2.34143
2.34554
2.33637
2.76751
2.89329
2.3256
2.6411
2.50912
2.45649
2.46633
2.50091
2.49637
2.49472
2.32405
2.21812
2.22352
2.24026
2.21596
2.39485
2.4539
2.50838
2.2037
2.31214
2.4707
2.36743
2.38483
2.55486
2.50899
2.49696
2.50602
2.32116
2.48404
2.49416
2.62671
2.52007
2.54285
2.56084
2.54972
2.33446
2.34993
2.11525
2.13695
2.14206
2.3678
2.56872
2.60987
2.57665
2.5851
2.53886
2.52992
2.54254
2.34379
2.34519
2.37116
2.73717
2.67906
2.7243
2.67336
2.46843
2.44325
2.49805
2.56019
2.52178
2.53215
2.45216
2.663
2.59199
2.88086
2.84629
3.00316
2.09477
2.49337
2.46263
2.47157
2.42459
2.45048
2.29695
2.30219
2.49794
2.58436
2.60001
2.55592
2.58919
2.6665
2.61204
2.59319
2.59408
2.62684
2.47099
2.40482
2.43649
2.40603
2.4798
2.47028
2.52557
2.68326
2.64535
2.67007
2.07308
2.57601
2.33946
2.31103
2.58438
2.59321
2.31883
2.25942
2.72039
2.69698
2.13377
2.59253
2.50189
2.44581
2.3601
2.5933
2.48725
2.47213
2.45716
2.53526
2.30381
2.35398
2.4779
2.54636
2.53048
2.6121
2.38716
2.4092
2.41346
2.11234
2.36815
2.37306
2.54162
2.59116
2.57029
2.58971
2.55924
2.53928
2.35149
2.33746
2.36689
2.29374
2.47271
2.54739
2.57175
2.59552
2.61741
2.63831
2.37681
2.48165
2.4652
2.34834
2.65742
2.39052
2.59454
2.47914
2.30965