/*--------------------------------*- C++ -*----------------------------------*\
| =========                 |                                                 |
| \\      /  F ield         | OpenFOAM: The Open Source CFD Toolbox           |
|  \\    /   O peration     | Version:  2206                                  |
|   \\  /    A nd           | Website:  www.openfoam.com                      |
|    \\/     M anipulation  |                                                 |
\*---------------------------------------------------------------------------*/
FoamFile
{
    version     2.0;
    format      ascii;
    arch        "LSB;label=32;scalar=64";
    class       volScalarField;
    location    "60";
    object      p;
}
// * * * * * * * * * * * * * * * * * * * * * * * * * * * * * * * * * * * * * //

dimensions      [0 2 -2 0 0 0 0];

internalField   nonuniform List<scalar> 
184166
(
38.9854
111.558
8.03188
29.9141
53.1297
14.1877
10.6625
9.26333
38.1888
58.2731
20.8728
3.89889
5.70471
67.911
49.6454
38.8664
25.9125
82.7113
15.9227
54.0076
16.7628
9.36373
14.5387
60.5455
29.5047
48.0305
56.2721
11.4182
47.6776
5.79201
37.8483
114.995
45.7585
67.2841
25.0435
1.75404
5.44614
21.878
61.1796
114.266
71.1741
2.24532
46.9159
77.1639
24.1654
71.9876
114.943
60.1522
23.604
48.2284
12.7341
116.093
12.6658
32.147
25.2874
10.0901
22.8793
25.9359
46.9103
57.6988
2.97677
56.5423
37.2351
13.1033
53.6628
8.75344
110.798
53.5235
10.6388
54.047
8.78509
60.7578
45.0687
36.1545
17.116
18.8072
92.2318
37.13
94.7703
109.561
110.833
98.0106
57.1186
11.7315
39.6589
31.612
16.5163
15.3029
79.2339
17.2785
9.9712
51.7025
38.8388
62.3753
35.8333
115.632
31.6437
116.529
15.5254
37.0777
5.68969
2.97119
38.0388
47.7622
11.2128
20.7643
37.8194
53.0546
10.1381
3.46164
113.327
46.3397
117.108
14.6005
52.6356
64.6495
48.0316
14.9849
111.303
112.717
38.2035
2.44172
23.7131
22.9963
20.22
35.3541
24.3179
26.6297
45.1157
46.0447
5.79611
25.1864
72.8699
81.1716
20.7094
1.24816
19.8536
65.3023
78.9681
15.8127
28.7398
11.1766
10.7289
2.5356
65.1775
52.923
8.55164
48.852
10.9534
54.6676
58.2889
55.1226
38.6423
32.9859
45.7012
48.1257
39.7626
37.2975
35.6656
14.1682
116.969
12.6037
9.21699
22.1315
95.8108
25.7928
51.2111
50.7379
9.93252
51.5901
26.6184
37.5729
11.918
62.5853
25.7477
111.551
18.0797
42.1981
46.2749
65.4199
10.0166
1.6635
70.1994
52.5909
56.9539
30.006
49.1119
61.8354
115.661
12.0409
81.2492
45.3291
8.52756
116.69
6.27533
53.1614
49.0235
33.1214
12.2427
55.3508
22.51
46.6759
9.76905
83.7339
114.404
32.0055
4.81983
6.03126
75.1514
27.597
46.8744
9.03482
6.64106
62.5618
105.546
22.3602
66.8323
15.6552
13.2814
113.895
96.9994
10.1463
10.3739
3.45426
114.986
5.05403
18.9585
23.5751
28.6272
9.26437
50.1849
100.319
22.8244
1.99683
38.371
3.97088
48.6173
47.3992
2.81497
116.128
117.218
37.9143
30.2801
47.1244
12.9567
55.2671
48.8733
5.17379
66.1099
57.447
63.3902
58.1792
45.6464
5.28977
63.2656
42.3314
49.5981
49.4162
76.1425
1.9616
63.8316
113.943
24.3381
73.9889
43.758
29.2764
38.7013
19.0626
29.9977
61.7906
48.5842
14.0865
65.0717
47.122
2.09492
86.7306
115.828
49.611
97.6771
52.4279
5.43208
46.8994
47.7095
28.0011
114.822
6.89675
8.45419
53.0755
85.7857
7.79831
60.2965
59.6164
47.2768
26.9828
44.6038
61.6462
10.8499
37.4808
65.0897
54.1746
24.3788
9.31358
13.3668
49.3576
59.7417
71.1031
26.6495
4.26227
17.7599
10.2983
27.1761
47.9039
44.9478
54.3081
52.7807
51.9713
89.2135
61.6325
21.2147
62.134
17.439
19.1428
66.3494
60.2974
84.4701
11.1111
81.8179
89.9974
5.50376
23.7894
23.4395
14.7886
14.3439
45.106
10.2536
75.3494
5.6266
8.65793
52.9043
57.5246
80.7374
41.5855
52.4818
59.5531
77.2168
57.2754
107.469
10.2335
26.4632
12.5147
114.922
25.1422
47.918
112.175
18.1808
55.436
42.8072
77.8641
54.0675
49.9209
97.3406
9.67165
44.6801
98.8884
37.8609
62.6008
10.6109
107.723
110.39
10.1021
115.479
49.5015
48.8608
61.2775
64.2649
64.5178
7.15901
48.7403
0.770012
54.6782
54.3058
53.6692
45.0338
44.3353
38.212
66.5185
63.1368
100.414
26.939
28.0814
33.7189
38.1353
36.4742
116.782
10.8592
9.86421
62.4578
82.3438
10.5672
77.0645
49.745
6.30898
45.3569
14.6212
12.8663
75.4423
65.3371
63.2548
48.2877
95.7856
88.0515
20.2006
20.5495
18.1962
18.2367
109.3
22.5331
18.2335
16.5213
13.6566
46.661
67.6223
70.5141
67.6196
62.7552
10.1852
11.0442
12.3783
7.00373
7.69055
8.08856
109.943
46.0016
45.819
44.9732
43.9033
43.4496
42.6922
28.6318
29.4417
9.03558
9.66483
9.48017
8.74518
10.271
10.4931
10.7527
9.91179
53.9794
53.5978
52.825
53.7683
52.2824
52.4716
50.835
22.3174
21.0786
21.6739
22.4653
70.1506
1.52015
112.846
114.179
114.914
114.663
110.581
115.725
112.986
12.9801
12.6821
14.1671
13.4589
21.8453
22.7003
3.33557
6.09437
7.71099
8.68536
43.8701
45.3505
44.8622
45.4551
10.0007
10.0397
1.90636
2.91174
2.45729
4.2894
3.46647
3.78759
60.5633
4.88479
5.57509
5.55621
116.138
36.1118
32.012
30.7299
33.4569
34.4302
33.0155
33.0034
21.1823
20.2632
21.5946
20.9827
18.7245
18.9418
20.2388
34.2708
33.8898
10.1015
10.081
116.201
77.8124
68.6951
68.9033
47.4609
46.1692
47.1096
46.6121
54.3596
57.4665
14.4359
15.2918
14.5997
14.1186
73.9808
72.5117
64.3799
69.132
52.9128
52.3841
51.8401
59.3921
55.8944
57.386
41.3415
40.9845
41.0314
40.1059
40.0726
39.1867
35.2897
34.8424
27.0128
25.609
14.9025
86.9398
99.1427
103.775
91.602
98.7741
92.2319
94.5606
102.524
95.7227
109.117
112.385
35.4056
33.5581
34.7874
34.1098
31.006
32.8145
32.1162
31.6537
35.9897
33.5495
48.1628
49.0564
49.3086
57.0426
37.1713
61.1939
112.013
103.379
9.91774
9.82727
10.2157
9.93578
41.5259
38.6529
60.7925
66.7593
63.7794
67.4277
57.3841
61.2372
32.8978
31.9207
45.2425
44.3276
43.983
113.974
16.3243
15.3302
15.605
30.7369
32.6285
31.4076
32.3579
33.1973
35.002
33.8049
34.8065
19.3103
20.012
20.5883
2.08863
115.897
116.383
116.008
53.5492
55.9939
55.8853
54.7019
58.8176
55.8299
58.8734
57.2363
7.14576
8.19188
6.82995
7.59723
61.1812
57.7883
14.3146
9.95206
10.1267
10.7681
77.0482
70.274
64.3168
60.2325
3.08961
1.70698
24.1665
23.1981
23.4506
50.4885
13.9461
55.0322
53.4478
53.9199
54.6887
57.2922
55.6176
56.1697
57.1512
13.3437
15.9259
9.58245
10.6434
9.9459
9.45686
9.48578
34.728
34.4095
33.6369
32.4637
32.0383
31.1822
115.763
59.3672
64.8584
59.2078
61.6967
2.86252
13.4697
14.5768
14.3656
55.0157
54.5148
54.0254
107.483
116.078
115.46
110.103
111.275
115.414
53.7395
114.463
112.409
35.0808
34.9664
34.1422
1.48451
1.82069
2.09356
2.23122
1.24559
1.11268
52.3793
50.8303
51.2204
51.994
51.959
51.4123
17.9564
18.0429
39.2082
34.2022
30.6504
31.8281
17.6254
24.981
34.3587
34.1136
55.3622
53.7483
53.9132
7.11662
6.61684
8.24269
7.19091
22.3128
28.8554
51.9281
50.7485
51.6764
90.8688
85.8797
14.7816
15.7004
15.8642
43.7236
20.0126
21.4163
61.4489
59.8498
60.9994
59.7573
63.8228
63.6645
7.94531
10.0885
10.0115
41.0617
34.0203
38.2924
40.8541
0.974632
100.555
116.386
115.656
116.126
40.6827
26.7152
18.6959
24.5067
38.4027
32.4672
52.3255
51.6709
78.7146
73.7023
77.3392
73.8352
22.0752
19.5837
22.3867
20.8597
1.58836
0.906597
1.09736
0.893377
1.40278
1.58443
4.95861
4.95199
4.99057
51.55
26.6329
0.897462
1.20856
0.920351
53.3199
52.577
52.5404
52.4161
46.658
46.0211
46.7447
55.6645
19.8672
20.1292
19.2084
102.096
99.6746
9.8692
9.98898
9.93618
9.93712
95.0705
103.768
105.823
107.306
111.281
113.942
18.8723
19.7856
54.9042
55.3075
56.5116
56.3096
78.407
72.7336
71.359
32.9004
2.44302
2.77984
2.08978
2.18146
113.573
114.385
39.6634
39.7099
10.1281
10.8995
10.406
10.0011
37.0197
13.1067
17.4905
13.6178
15.3114
8.0846
9.03587
8.48495
7.49594
30.6595
75.6451
71.3664
75.9015
72.6467
19.9871
20.3257
33.9722
18.7262
16.9622
19.1095
17.0537
75.9643
89.106
11.1141
21.6955
22.4138
59.4444
4.53285
1.50238
20.7791
18.626
19.6408
21.1165
10.0267
9.9518
60.1995
60.6901
38.0087
46.7023
41.0183
46.3086
116.605
117.07
19.9736
20.5873
38.785
40.7574
39.513
101.416
77.5488
91.9201
79.3273
116.305
115.392
42.6031
42.7502
44.2394
43.6458
44.296
43.2325
12.439
15.978
23.3492
22.0611
38.4493
44.0488
35.5444
38.5562
108.833
109.358
36.7737
37.9102
49.9409
50.078
16.3658
15.344
15.0797
15.8131
54.4865
53.6665
53.7045
99.2086
81.87
93.4459
8.6574
7.95544
8.52047
7.8996
21.7601
22.2361
71.6337
65.2593
63.8411
60.7623
59.6221
63.2714
61.1177
42.0322
39.8941
39.2586
38.251
59.0251
58.0931
29.9891
28.2554
23.5825
24.8201
4.05604
2.92371
3.26081
3.80268
3.80897
4.19654
91.3371
8.15399
8.32435
7.67241
6.9667
77.6619
64.365
64.6132
73.9668
81.0883
78.2476
90.357
48.6294
47.3405
47.7735
48.7057
12.9557
12.1315
14.2766
13.7937
12.5747
16.9193
17.597
18.2347
32.6156
31.7673
72.9984
74.353
64.3665
61.8203
23.8093
22.8648
23.1287
35.5659
34.6567
3.42735
3.42633
17.1723
4.25252
3.32222
3.09643
2.02122
2.61029
58.9258
55.4855
55.9979
57.996
38.9125
39.145
38.5118
38.3046
58.6958
63.8007
65.8744
67.5401
12.0766
14.0389
14.6282
16.1417
13.2293
32.4492
32.106
33.4779
32.8197
11.5949
13.7618
11.4734
108.165
52.5836
50.5637
16.563
15.3544
41.6525
40.5233
23.5529
24.2707
15.3495
15.786
16.3599
15.6958
108.08
115.985
116.492
115.814
45.9756
46.0149
47.543
47.0114
54.1386
53.2682
53.5132
63.0409
59.4865
59.2666
63.7654
57.287
57.7581
44.6594
33.1333
38.3868
26.9926
8.19998
9.88838
8.69605
9.40476
66.312
73.2421
66.8463
77.1829
71.7714
85.2728
88.2945
73.5587
81.9591
41.3181
45.4028
34.6162
36.2169
43.7357
20.0754
19.3214
37.7399
43.9435
43.0876
42.7937
42.6751
11.4606
116.677
116.986
13.1761
12.9108
55.9767
58.5235
54.5726
53.7087
6.15719
7.07755
102.559
113.843
77.6
2.67322
2.41975
42.0369
40.4248
2.16607
2.82627
2.37177
116.804
116.607
116.437
47.776
48.8549
49.0437
48.2792
112.59
112.572
31.1391
31.4689
27.1789
20.9585
22.1372
44.5123
44.1095
48.1953
48.6169
49.4922
9.91611
9.89384
9.91804
9.97412
9.99522
87.6948
4.99499
76.6489
76.515
85.5411
81.2769
25.9398
16.7689
17.4781
17.1352
16.4769
65.8901
46.6889
47.1401
48.1088
47.539
7.58265
6.95261
7.37932
6.79215
2.32438
1.68278
54.7679
55.7775
53.5073
53.286
46.3671
48.611
43.3318
27.9157
28.1847
25.1326
28.0829
13.6932
15.2492
22.4239
109.039
91.8595
102.386
106.821
96.9059
4.81078
5.50357
58.2885
11.9579
13.6365
12.5211
13.6397
24.7759
24.7805
23.4871
10.0445
10.0808
10.0533
10.0066
26.9237
23.6878
17.7265
12.1969
11.3862
9.98889
10.0237
1.43302
1.59314
2.29063
1.85948
2.33064
64.041
21.2683
18.0676
115.958
116.75
115.543
117.437
117.236
74.2388
76.6406
16.9031
16.0935
16.7397
15.9315
62.5809
58.0761
3.65951
3.16002
3.16632
114.58
109.072
0.883859
1.06567
11.1627
11.1065
11.5
44.2932
45.6516
45.0719
55.508
58.5758
57.0197
55.2981
57.3754
58.7488
115.678
15.0286
12.8389
99.9239
102.842
91.6374
90.0906
108.398
109.681
10.5468
11.5344
10.2911
10.8167
12.3837
12.2268
12.8284
12.9102
25.4804
25.2649
22.8663
23.9407
20.5127
24.307
20.6458
22.8054
3.33799
2.54968
97.2227
102.912
90.8443
65.8962
73.6361
70.292
75.7322
106.422
86.2662
91.0888
44.3697
32.8395
38.3755
26.3522
68.8357
69.1507
47.1084
67.4282
70.2716
73.3467
12.0691
13.909
48.3532
48.2025
62.3823
61.2033
62.6449
61.6151
71.2654
72.8862
71.5094
19.3927
19.737
18.5551
58.8999
58.4417
63.235
60.3926
41.1762
40.5389
6.27437
6.50916
115.521
115.323
115.907
9.99394
9.73117
116.168
115.48
116.481
6.63416
6.21729
6.26359
7.35847
6.91127
21.3456
21.5254
22.2171
20.7843
20.9683
52.8866
53.4645
51.6581
52.4655
16.229
16.1803
9.9749
9.93821
10.0082
10.0138
10.0255
13.1823
13.9183
52.0401
51.9717
51.6163
35.6948
36.6643
36.1973
35.8748
36.6126
61.8022
28.3314
27.456
27.1965
14.8838
15.5024
16.0168
69.543
77.7684
76.4212
68.5171
72.2954
55.57
54.4359
56.8801
56.7797
62.2897
68.0165
73.9597
40.6855
41.6143
39.8082
39.7573
62.5164
115.561
18.7472
18.9947
19.6624
19.4865
53.7373
53.1367
54.459
53.4395
54.3905
9.29233
8.66976
117.117
117.42
117.249
117.063
117.283
11.3468
27.7615
27.1941
72.1159
75.9506
81.6275
11.4041
15.0142
15.6448
17.7178
26.5363
18.5935
113.253
109.818
104.8
104.825
113.66
110.529
25.2856
24.8898
26.3912
116.994
33.4242
28.5861
22.9298
12.3334
12.406
12.2557
98.2461
94.4231
100.669
48.7129
40.3705
1.42602
1.74061
6.60669
5.89511
6.22342
5.61455
7.08324
6.54158
17.6759
17.1351
18.2094
45.5015
45.4061
46.7632
1.50544
1.16848
63.6948
71.237
66.3616
72.9337
10.1126
9.98144
4.87283
64.4038
51.1699
50.9485
50.3937
9.82857
9.45252
9.20009
117.012
116.589
117.177
116.908
116.584
15.511
16.1664
9.98807
82.1269
100.452
26.0055
26.3623
21.7017
26.5721
23.2392
20.1189
29.4008
30.4324
30.3291
59.828
60.6493
60.7014
43.2621
43.7687
117.338
117.314
117.132
117.24
117.343
117.261
50.2413
11.2649
9.55605
117.038
116.708
116.568
32.1094
33.5495
29.0914
25.7121
41.5123
17.8861
21.362
16.3467
13.967
20.7262
18.6833
67.7893
66.3839
64.8621
62.7757
62.9358
19.6352
19.4103
12.6994
14.0124
64.9273
67.06
65.8059
67.6626
25.3445
28.6292
29.3277
29.6998
24.7439
26.3213
16.9539
19.4164
19.4604
16.0036
17.3483
3.72319
2.67894
3.6348
3.14451
2.81533
3.26957
34.1445
34.8025
34.3668
33.4186
33.4848
102.561
103.926
84.9338
94.4903
80.256
91.7335
72.3902
75.0423
68.9886
69.6732
6.29868
7.43765
6.5768
60.4092
67.9006
80.9225
74.9906
117.29
117.24
18.3252
17.4171
28.0285
26.8282
28.0989
26.5426
9.96804
10.0076
9.90501
10.021
10.0291
40.6262
41.7612
49.0978
49.2731
49.8901
88.861
95.8899
97.936
114.104
113.003
114.955
114.911
9.84989
9.79064
9.87375
9.90747
28.8411
32.2409
33.1343
32.247
26.6616
27.6522
47.8051
25.2355
25.3611
24.9626
24.3454
24.1337
39.3111
11.9957
17.8101
10.7528
13.5542
62.6165
65.1795
62.8296
66.3131
64.5987
117.063
117.091
117.292
46.9961
47.6229
1.36935
1.21211
29.0285
16.4741
23.1174
23.932
17.8424
37.111
36.7679
38.462
39.001
37.7382
36.8665
63.6764
58.1895
59.1335
60.5212
14.7386
14.1302
22.8366
24.886
17.886
43.0867
72.7824
76.4883
77.6435
93.9075
1.42043
28.2336
27.8641
9.93894
13.1671
12.0341
11.9209
12.6511
11.6356
11.9669
9.69846
8.38164
12.1014
8.7855
10.6191
11.7099
10.99
11.4421
10.6117
11.8366
11.034
11.6885
36.4391
31.5665
73.1759
25.8741
26.1325
51.8722
10.0734
10.1647
10.0807
10.0938
58.785
59.4155
59.8471
58.7815
59.4876
91.235
101.256
41.6306
41.2114
40.3862
17.3278
16.3665
14.2466
13.6341
25.4349
27.6164
29.9708
30.7604
1.26001
1.11927
56.6471
55.5484
17.737
17.1435
16.4985
75.892
65.8109
66.0195
81.3592
74.7617
43.0159
43.1583
43.7373
57.81
57.1467
114.964
114.824
51.3944
51.6094
50.3709
50.7752
50.9591
50.5355
18.3921
18.6505
17.7307
17.3151
17.4826
18.1026
50.9252
49.8374
50.3032
49.7567
43.1663
45.2407
43.4563
44.4371
9.53424
9.85285
9.93282
9.84846
52.637
51.4767
55.4542
56.1894
53.9154
50.7721
50.0498
50.5433
42.4736
41.3329
42.1698
41.2314
41.7776
34.4545
30.1613
24.7456
26.0336
101.004
100.065
108.346
111.029
109.768
105.106
90.7189
86.3802
78.3422
79.4548
23.407
23.9714
114.822
114.789
36.7358
36.6271
115.534
114.24
114.326
115.443
115.183
114.835
15.2774
14.1831
15.7832
115.423
115.297
112.786
115.25
81.3802
81.1049
86.8415
92.2784
56.5328
55.6318
60.6814
59.0377
58.5883
56.5901
52.8783
53.8774
54.9008
53.5425
54.8841
6.29522
5.57698
100.191
106.53
107.749
53.2197
53.7281
53.9346
54.6544
7.17778
6.29414
10.1992
10.0461
97.826
93.9931
82.1517
12.7941
11.9059
11.7761
14.5901
13.6337
42.6346
41.8145
41.8362
47.5571
46.7567
67.2804
66.0365
114.048
109.756
114.16
113.099
108.521
11.5032
103.93
96.4001
92.8319
100.253
113.956
113.834
114.678
61.0501
69.1622
63.9801
69.3514
62.4946
86.251
89.2724
97.5569
51.166
51.4096
52.0717
51.6721
107.748
90.0618
100.159
98.3985
105.917
15.5548
11.3626
20.0742
19.2471
10.9234
11.6893
22.4395
21.7651
52.0126
51.4544
52.4019
41.3844
27.8609
35.4591
36.7919
36.9231
35.8476
47.9444
48.9607
48.674
97.542
100.686
108.924
111.88
102.984
110.188
68.6725
68.2165
66.7948
66.7607
13.7595
13.6847
12.2419
12.0352
11.4438
14.5755
10.4212
12.8331
83.3655
66.9053
84.2643
75.5588
59.4019
60.0013
69.4325
65.4819
70.4692
7.56893
7.22212
6.92423
67.514
65.6475
61.5614
58.6957
9.76332
9.40564
9.94777
9.90452
4.23526
4.90331
9.9662
9.99375
61.971
62.505
61.6114
12.2522
10.0928
10.0472
10.1186
113.326
117.246
116.583
10.1605
9.09039
7.87809
8.6729
8.77736
8.19114
21.7397
24.8542
34.8978
117.276
14.9393
13.5586
12.6443
15.0167
13.55
12.7778
15.5637
13.8665
15.7461
14.0244
19.2661
18.8871
21.7645
20.9514
20.4321
9.51524
10.0134
9.47943
22.5476
21.4469
22.7381
21.5064
20.2056
20.1346
63.3869
63.213
65.1518
63.8337
65.0145
63.8651
39.3672
47.9206
46.1647
42.5167
45.9599
3.23361
2.87688
2.76733
3.07694
3.39749
90.1359
98.2932
97.2586
87.8038
92.4952
48.8257
47.4295
51.001
49.6209
51.227
50.5824
50.0957
50.3223
49.5097
49.3747
49.935
42.9713
44.9323
44.0772
44.2448
43.3985
6.30509
7.62113
6.81349
7.29975
6.55615
57.8532
58.888
113.567
104.636
99.7994
98.6923
85.3646
86.2753
13.8987
12.381
12.7376
55.6187
56.1347
56.3567
49.1558
71.4666
76.1233
62.238
61.8281
73.4533
67.3995
65.4965
71.2289
6.98017
8.02525
47.4451
48.7544
48.7732
47.9876
28.8335
23.1157
14.0707
32.3069
13.5915
21.8566
23.5391
18.1226
41.0495
40.4916
39.9923
47.8944
14.1092
21.0098
23.6963
76.7565
71.8087
83.4208
85.4913
67.5053
66.4126
55.4869
57.3056
57.0752
44.4476
44.493
31.7239
36.7928
30.2366
23.1156
54.3534
55.7251
54.2834
54.9719
47.6564
46.9456
47.2048
48.0506
46.551
45.3292
46.3536
45.6399
44.998
82.2062
86.3522
38.894
113.681
111.881
104.04
106.254
4.94453
4.04571
3.89459
4.4879
2.5552
2.66606
90.2071
85.1828
80.5034
88.6166
81.5439
28.242
27.7597
28.3336
4.83393
5.32447
5.13351
4.64301
5.71769
5.95717
30.8161
31.2856
31.4993
30.8644
30.1286
30.1481
41.8871
43.1989
41.9168
42.8636
42.1369
42.4698
43.2797
43.7598
43.9154
42.9809
42.4131
50.2724
50.3238
50.6174
1.71306
105.61
55.1766
53.529
6.80093
7.39394
7.67378
7.11946
6.59197
8.69339
7.67477
7.45118
8.82924
8.0704
9.51993
8.53375
8.05117
9.40422
8.4244
10.4866
10.1245
10.351
10.9563
10.0694
10.0686
97.9659
115.294
114.475
110.466
111.2
113.148
24.7832
51.5891
51.0304
50.3523
51.6296
50.771
117.31
35.2904
35.8341
36.5505
35.5955
36.2183
53.6084
52.5888
52.5958
53.2952
53.9462
5.56164
4.68478
7.41146
6.50398
6.9713
97.6061
93.4494
81.7182
84.7591
117.125
116.016
113.49
111.074
116.55
114.353
18.9433
17.6746
16.5296
14.4686
15.1239
13.8356
16.8922
16.4897
115.571
115.441
116.066
10.0793
10.0276
58.8005
55.7056
56.7765
57.77
56.2311
47.4533
54.5285
55.6193
54.6514
57.2338
59.2758
57.7029
50.3751
51.2089
50.5887
65.4746
59.5743
61.2475
112.678
115.147
15.5632
16.0919
14.9748
17.0403
16.4704
9.71813
9.73409
25.88
18.5165
14.2531
25.0793
11.1724
11.3331
52.6612
52.1991
51.9429
52.5592
51.9788
7.58021
8.21235
70.2984
67.6225
65.2262
66.2474
69.7027
5.96037
5.44265
5.81378
6.42423
6.52737
56.388
55.378
14.5905
13.7439
12.3408
13.3201
12.211
25.6753
24.9076
24.8775
24.9761
25.0363
24.1172
9.25706
11.0992
10.1165
12.2073
11.3676
11.004
9.97835
12.1413
13.6021
8.43838
8.16435
7.67029
4.81405
4.57599
4.22139
4.3267
4.01205
53.0575
53.996
54.9046
53.0476
55.6195
56.1254
54.442
52.9612
22.3829
23.1686
24.6856
12.0259
12.9196
12.2031
11.7901
12.7153
13.1624
12.1155
11.4134
11.7603
11.2248
10.5141
10.9789
10.8281
103.022
107.185
103.239
16.2862
17.6029
17.6801
35.0922
36.6447
35.4119
36.5365
35.1739
35.8127
32.4155
33.52
30.8261
33.0864
31.0067
29.6852
29.5731
29.2822
28.6085
28.7775
10.1761
10.2317
10.1248
11.5895
12.2184
13.0641
62.43
61.9449
61.4206
63.9473
63.7141
114.998
115.033
51.5094
51.1541
49.5274
50.5732
114.226
113.792
114.551
50.9673
50.9865
30.0442
30.0464
30.78
27.5772
28.5821
31.0605
31.9787
31.8295
31.2604
30.8072
17.3076
13.4862
22.3177
16.4217
18.3928
23.4213
19.7705
26.239
24.8612
113.385
110.486
106.045
60.8898
60.4979
59.9186
112.139
110.501
114.165
103.613
103.577
3.59066
3.51866
5.74476
4.63111
3.86897
4.08365
4.5468
4.25376
57.605
57.5946
56.4934
59.2226
59.4597
58.792
50.6094
52.3423
48.9975
47.9046
52.5992
52.1485
9.78844
9.99831
10.1486
9.93519
9.80029
9.83659
37.229
30.1659
32.6324
39.0472
23.5921
21.1004
54.7547
55.9499
57.3767
57.4571
55.5809
54.5844
51.3254
50.6294
50.2121
83.938
86.1789
95.4851
10.1111
10.068
10.1838
10.1592
9.97988
9.7914
20.7599
20.1585
32.6746
35.388
35.8859
30.9503
30.0234
10.9899
11.8908
14.9162
12.8567
16.4268
109.027
113.096
104.91
93.9967
100.063
107.801
112.95
114.471
108.823
112.485
116.616
116.275
16.5795
15.9771
13.8447
13.9235
12.9909
4.24718
3.58425
5.53749
4.92312
6.26027
5.02345
5.71246
3.57471
3.8899
3.8831
4.65803
4.593
39.9
41.0218
40.472
39.0853
25.5018
25.1956
21.987
22.9437
24.129
22.5775
1.3546
1.62177
51.0281
52.1271
51.458
50.9125
52.3228
52.3353
41.1161
40.3771
41.1533
13.2878
14.0743
11.896
11.5153
12.0804
13.2357
12.9947
13.2953
12.4642
12.6836
12.155
12.2229
11.723
11.6734
11.2388
10.9673
103.072
96.5469
97.0835
111.574
112.048
106.377
103.875
107.434
91.832
93.1339
19.8188
23.827
18.7683
19.9516
20.9116
44.5087
45.3596
43.4808
27.9441
30.086
30.3002
100.101
105.47
104.122
27.1875
25.0028
25.9047
43.1645
43.81
44.0838
42.525
42.3399
61.0804
60.2775
58.4949
59.6458
58.2869
55.4725
56.2318
56.3414
55.6736
55.1684
16.2114
12.4522
10.6601
112.679
113.713
88.4074
81.7627
80.5298
36.024
36.8007
38.8956
4.85384
5.33684
44.3235
41.128
41.3499
44.8578
46.3374
8.94407
8.04401
117.238
117.38
117.152
117.247
117.284
5.04797
4.9767
5.50667
5.87071
5.96445
27.9515
27.2022
34.7807
33.7744
34.547
35.9536
36.201
1.3776
81.1318
87.7088
82.2199
86.6137
92.129
92.4899
8.8179
8.80905
90.3721
91.7831
79.0725
51.8036
51.2878
50.4235
49.7908
49.1384
61.211
56.9967
64.3962
56.5244
55.7813
59.0761
61.4787
9.59468
9.32513
9.99712
11.7318
13.2202
10.0494
9.04891
8.60573
10.7647
9.96793
9.87732
13.2101
12.2399
29.5014
29.6019
28.7232
28.221
28.5453
29.07
28.4537
15.7019
16.9895
16.2712
30.5111
29.9085
30.01
12.9622
10.8059
13.9486
15.6528
12.0162
10.8213
12.0593
8.18986
9.05369
8.64397
9.94247
10.9912
9.92849
10.7237
9.31523
10.3478
9.76796
9.4748
10.3059
10.8826
11.9867
10.66
11.2745
12.429
11.9171
28.499
28.4374
29.2107
29.2167
30.4449
30.0334
29.2822
25.7616
25.3912
27.0218
26.439
26.7963
27.5864
27.5762
11.4317
10.2426
10.7539
10.5288
11.2172
11.6789
12.7691
13.0758
11.766
14.145
14.1803
15.899
15.272
17.4954
16.5715
18.1848
17.5216
18.4736
17.4395
16.5926
17.1354
18.4315
18.6939
12.113
13.306
11.5942
10.904
10.3094
10.5409
11.2356
14.5851
12.667
13.6362
8.1011
8.3601
9.63434
10.9767
11.1115
10.4455
9.47376
10.1778
9.91855
8.91842
9.30319
18.652
19.0929
19.5009
19.7058
19.3241
18.4884
11.7711
10.7947
10.5058
12.232
11.5622
14.6546
13.6016
14.3949
13.1377
13.5774
52.0107
53.0121
52.5297
51.9636
53.0129
52.1778
113.109
109.715
103.2
98.9149
99.2903
7.66802
6.95146
21.0153
20.7799
110.673
111.605
114.674
114.654
49.5548
48.7593
25.7917
28.1235
39.9167
35.1489
30.3605
38.6551
3.6227
2.95998
11.7852
12.5775
26.9724
26.9433
26.3913
27.8921
27.9194
27.3908
27.5973
28.5059
29.1036
28.8393
2.23163
1.86347
2.34606
3.3814
3.64395
4.37668
3.67264
17.7922
17.1398
18.4754
98.647
115.114
111.496
111.83
116.847
116.075
61.1227
61.0106
62.5838
61.7133
64.5804
63.755
16.7805
14.6163
21.1009
13.3951
13.413
12.8313
12.8751
14.1096
14.2246
14.2672
13.865
13.68
16.5391
18.5728
4.2353
5.07406
4.42415
4.69439
5.15044
6.16622
6.76783
6.05454
6.45568
6.93399
4.11437
3.49899
4.16891
17.6272
18.4519
18.1883
17.9008
18.1169
12.7878
11.141
11.4038
11.5946
12.4756
115.829
115.87
10.103
9.98942
10.0862
10.1033
10.0943
48.5588
49.94
6.30985
5.90057
10.0977
44.6804
40.2324
9.25183
9.60596
10.0316
12.8488
13.7169
14.6603
51.3856
50.2713
49.6953
50.1309
39.5833
39.0182
26.2437
25.4941
26.0839
114.19
55.6695
56.1342
56.3801
12.0411
10.7878
15.162
109.151
109.915
39.9195
39.9206
15.0403
14.974
14.5171
10.0803
10.0348
20.4909
14.6123
113.496
114.504
83.2226
48.822
49.9826
49.0278
13.5821
14.1642
16.4974
14.8267
14.9678
84.6353
90.1053
92.4789
45.479
44.4662
4.68327
4.4442
5.5346
5.32176
35.2951
35.0055
35.8276
60.3154
34.3042
59.3881
123.367
7.57686
0.274249
0.471572
9.98306
0.417209
0.225579
13.9068
56.3773
0.35398
56.3799
0.302227
39.087
21.9809
129.438
125.215
22.2028
9.90427
28.9605
35.5257
51.0602
58.9244
19.2643
17.161
28.592
29.665
32.0083
35.4356
50.1195
45.1528
106.745
38.449
49.5148
81.9346
30.7986
48.3376
46.8314
52.9344
42.6533
42.3203
37.6563
114.877
112.486
3.92657
40.9614
94.3177
8.65365
48.3569
94.1392
61.9981
59.0506
62.236
109.604
57.3663
58.3603
51.7866
8.54841
8.02229
7.4157
54.5763
49.2727
53.4802
0.368313
0.848249
7.68694
7.55782
8.72224
6.83518
6.12876
81.1559
43.3341
48.8214
50.2445
46.0876
66.7094
76.7582
0.528551
0.987433
0.359935
0.222622
2.94804
3.50826
6.22182
7.1643
70.6325
87.7624
77.0658
44.7332
44.2501
43.5999
44.963
51.4856
52.5011
47.4761
38.1831
34.8485
37.2144
45.4061
41.9142
44.7175
43.4245
44.2128
39.6849
9.83482
9.39578
0.757679
0.39646
9.68594
8.75836
8.44252
0.284393
115.616
128.554
114.26
59.5055
78.2529
68.7232
9.96902
10.0595
9.88154
47.4743
53.1577
37.9822
39.755
39.0014
36.7056
39.3553
41.4967
58.0124
60.1347
20.7872
18.2003
19.4289
34.2391
30.8732
34.9806
31.3043
29.0123
33.0124
0.256613
0.548996
14.3137
12.8884
12.8313
32.9286
35.3054
54.2679
49.1751
55.1112
9.92016
9.89475
34.1006
31.8213
33.5493
105.562
85.1158
9.89977
13.5204
0.469849
0.364368
0.24834
107.905
114.746
98.0509
8.93207
8.49084
15.0919
21.429
6.58132
10.887
29.7581
28.343
11.1135
10.8765
20.5792
21.1655
21.5124
58.4322
58.2574
54.5589
0.341925
9.8986
9.89666
117.136
117.18
19.8415
20.6524
31.8436
29.9834
30.3381
56.4307
57.2804
23.9633
22.2072
116.298
8.23619
7.11097
8.45358
15.1449
22.6429
9.12002
13.7727
34.2343
37.5589
107.937
112.387
114.393
113.775
41.3862
43.3343
95.9253
1.57957
2.18038
5.32384
4.99291
9.99235
9.86748
9.91747
78.9371
0.169709
0.494589
0.506176
2.8185
2.42822
118.354
105.214
95.8339
8.2094
6.98073
57.9207
58.5289
62.1133
60.3136
13.7802
61.9481
74.6405
61.5574
115.602
114.994
115.826
9.62279
9.275
117.242
11.5148
10.7678
26.9263
25.7818
32.6114
0.794294
0.332404
0.586585
0.223309
0.772134
9.95886
9.92097
4.74353
4.90087
5.88413
63.7004
65.8655
74.3218
62.3384
63.0609
15.4934
14.9818
10.0196
9.91828
10.0592
58.7645
56.9292
59.4052
17.5502
117.083
116.899
116.71
26.1832
44.1697
33.7567
91.3431
70.6293
88.441
114.852
80.5774
62.5298
76.8388
108.174
97.2988
90.3173
19.2788
16.3343
40.3621
42.5208
40.7825
36.4966
39.2008
45.7997
47.2726
44.2168
0.233716
0.656208
0.644192
15.3778
13.6631
40.2127
40.402
41.6026
112.369
102.909
77.1047
88.6628
70.914
0.760715
0.909086
0.679084
2.00335
1.24553
9.96658
26.6561
24.6158
50.5078
59.1865
58.8653
0.230001
0.741052
0.538106
116.455
17.5739
16.2232
15.8716
115.395
115.059
22.8694
22.9779
23.9465
10.033
9.98038
83.9176
67.1491
64.8298
20.7102
21.0505
22.0639
36.0604
12.4979
11.9339
10.0437
9.97304
10.053
54.5828
114.236
55.4547
56.3586
50.3485
45.6771
46.2212
53.9747
52.8214
109.898
102.595
12.3798
11.9518
12.8473
27.0843
111.114
114.212
25.3788
24.0241
117.527
117.338
115.971
115.62
116.208
16.8657
15.2151
14.3767
9.49508
9.76551
9.92128
56.2397
52.9659
25.5357
23.2811
22.8487
56.2048
52.477
114.457
114.154
114.512
28.0784
26.0559
27.723
57.2608
54.9851
53.7981
46.7278
52.0512
116.348
116.788
116.849
101.998
86.4464
9.19206
9.09359
8.30202
0.750155
1.46254
0.429395
1.09488
28.9414
28.765
27.3443
25.7584
24.6177
20.5509
18.8387
17.2112
114.305
114.449
114.217
4.3176
4.15921
3.56295
111.931
107.998
59.6168
58.4044
63.9389
80.2213
62.1143
113.934
33.4374
35.5659
46.123
50.289
47.8169
25.3134
26.8196
27.4084
26.4471
25.594
113.314
112.75
58.5657
16.6142
17.2877
9.56213
9.59072
117.301
117.358
56.8093
5.02952
5.14721
110.308
116.005
11.0366
25.4428
53.5549
46.2026
29.3483
113.472
23.8813
49.0004
7.8017
5.3091
98.2301
67.7653
75.8882
36.2083
16.2423
65.4838
21.9557
28.7356
14.2025
78.0563
90.6918
92.6611
52.72
53.583
59.2904
102.663
26.3528
24.5807
25.5423
51.9413
81.9915
110.504
9.97771
38.3961
27.1739
75.9194
10.3654
10.0363
8.46927
26.2059
24.531
22.9305
23.8244
48.0143
48.3113
47.8244
44.589
60.0883
5.79978
5.63062
117.104
54.2835
38.3019
37.5067
108.319
47.2117
109.716
14.5455
10.0832
8.61857
9.27389
10.1059
12.2266
101.431
3.98337
4.812
40.6011
23.7539
22.3466
108.796
103.558
98.3919
100.782
112.337
111.237
74.1704
89.373
11.398
10.8958
24.6584
14.4242
18.4545
56.4989
5.67242
64.4133
52.8673
76.7308
87.4576
82.3288
111.343
28.0133
28.8099
27.9678
27.5215
16.5269
8.80432
49.4039
47.1167
37.031
71.1106
57.9161
38.581
37.6341
37.7067
110.824
109.367
48.9047
6.90832
9.95163
4.68444
9.2107
28.6763
34.4147
33.8391
16.4074
37.5419
50.146
48.4099
47.8391
18.7647
24.0234
5.47522
6.23825
5.40832
79.8526
9.02457
64.3972
105.709
10.0194
85.5648
34.7397
68.476
22.5775
25.4303
35.2885
52.7717
13.0974
5.45329
5.80629
6.02228
42.605
45.5257
113.907
46.8055
10.06
87.5971
99.7327
13.1878
45.3698
45.3401
63.2121
77.5244
48.6701
48.0578
49.7556
48.7224
9.26991
15.6848
20.8127
10.3559
10.6262
93.9963
104.974
100.371
106.293
10.9446
11.7224
11.42
12.0386
50.1876
49.6243
55.6799
31.2941
20.3107
52.4977
27.2265
58.0834
58.6889
50.8964
36.6581
37.9576
59.8463
51.0405
51.6434
44.8412
115.129
15.9647
23.2984
24.8021
24.1214
23.1935
26.2138
26.2963
114.229
59.4214
62.0499
59.0142
88.7675
81.076
75.2798
90.3994
85.0304
49.8622
48.5126
92.1383
48.2611
46.9811
52.1974
8.46165
8.05352
9.3569
8.55526
48.1348
114.877
30.2626
33.1475
31.9911
2.557
2.09496
2.2368
1.74531
1.23929
45.557
45.8847
97.8767
57.5074
50.8496
2.1585
59.5978
56.6165
58.6306
49.8645
30.4719
114.719
113.365
114.485
113.136
11.917
35.8827
77.5234
17.8706
115.868
117.052
114.541
114.238
8.1602
8.29129
7.62368
6.91185
2.43102
63.6194
62.0664
6.29154
23.7973
25.5533
24.2591
24.9245
5.6857
6.65282
9.79427
11.4289
11.0177
21.9216
32.0209
33.7975
32.3107
33.3793
28.3668
26.7494
27.7705
21.7527
20.9707
22.6768
36.7614
37.1508
35.7015
36.2384
65.2059
65.3376
69.7167
55.31
58.9744
56.0319
10.8045
57.3967
54.0517
49.7849
51.1628
50.6522
10.0178
67.8081
65.1203
64.0542
1.84644
1.67809
5.53154
5.37775
3.92512
41.3678
42.4318
7.11403
66.5063
63.5957
60.0146
61.6074
59.625
56.8591
81.8511
94.5739
88.0715
94.1472
52.1827
52.4386
55.3713
38.4196
38.2756
37.9032
114.454
34.3306
26.4426
0.771734
44.8247
44.9149
104.746
113.123
56.7872
57.3415
109.585
44.4674
38.2188
89.8026
26.1062
40.9654
87.3801
98.7387
93.4569
47.1765
98.0814
28.1694
34.2353
36.4881
37.9881
37.7767
9.2585
10.8472
10.2963
9.88156
10.5576
10.1469
52.8835
53.6639
52.2409
52.4937
54.2667
53.7112
100.654
106.307
101.279
107.61
6.28435
14.6145
4.78831
67.7812