/*--------------------------------*- C++ -*----------------------------------*\
| =========                 |                                                 |
| \\      /  F ield         | OpenFOAM: The Open Source CFD Toolbox           |
|  \\    /   O peration     | Version:  2212                                  |
|   \\  /    A nd           | Website:  www.openfoam.com                      |
|    \\/     M anipulation  |                                                 |
\*---------------------------------------------------------------------------*/
FoamFile
{
    version     2.0;
    format      ascii;
    arch        "LSB;label=32;scalar=64";
    class       volScalarField;
    location    "0.08";
    object      epsilon;
}
// * * * * * * * * * * * * * * * * * * * * * * * * * * * * * * * * * * * * * //

dimensions      [0 2 -3 0 0 0 0];

internalField   nonuniform List<scalar> 
3072
(
2065.67
1838.18
2285.51
2280.57
2230.43
1966.15
1822.65
2605.57
13621.7
34142.1
44102.7
49196.2
5593.73
5057.29
4033.13
3411.05
4130.13
6560.09
16694.9
23510.9
25198.2
32830.3
35431.4
36680.4
7935.73
6204.13
6227.61
7498.84
14952.8
20408.8
20929
22322.1
24836.9
27836.6
28838.7
29989
11148.9
8616.34
10004.8
12501.1
16965.3
18609.8
18904.2
21083.1
23695.3
25157.9
25959.5
26795.4
13163.3
10539
12646.4
13826.7
15778.8
16556.5
18660.4
21142.6
23017.7
23978.5
24548.4
25089.6
14521.3
11449.7
12806.6
13433
15129.4
16873.6
19277.3
21552.5
22850.4
23387.3
23697.1
24000.1
14957
11444.5
12397.1
13557.9
15859
18235.4
20661.2
22325.7
23139.3
23449.1
23548.7
23653.1
16162.4
11764.3
12996
15373.4
18731.1
21365.1
23222.4
24155.6
24411.7
24365.5
24247.3
24211.8
18130.9
13313.7
16806.2
21635
26087.2
28411.1
29148.1
28901.2
28207.5
27450.7
26817.5
26405.6
22311.7
18393.1
28437.8
37027.6
42321.5
43419.3
42016.9
39475.2
36828.7
34506.1
32662.2
31320.5
25790.9
34164.1
55916.4
68001.3
71078.2
68812.9
63196.4
56913.4
51068.9
46124.3
42193.2
39206.3
97188.9
97957.3
107960
110238
106230
97090.3
86666.5
76532.6
67449.6
59773.4
53578.9
48728.5
53411
55551
56824
57018.8
57089.4
54453.8
50623.4
44536
37018.8
28211.8
17933.9
21727.7
37781.4
38651.7
39447.1
40197.6
41088.8
42449
44984.9
48586.7
53430.4
59071.4
61803.3
72980.3
30945.7
31650.4
32242.6
32863.4
33931.9
35837.1
39094.1
44294.9
52340.9
64144.4
81130.9
115788
27466
28051.4
28649.5
29381.7
30531.4
32487.9
35834.6
41388.9
50497
65647.3
92722.5
146667
25527
25941
26414.2
27071.9
28157.3
30054.5
33359.2
38991
48554.4
65493.3
99439.3
172779
24286.6
24619.6
25071
25759.3
26901.6
28837.2
32117.2
37673
47300.3
64956.3
103238
196409
23827.1
24119.1
24588.8
25341.5
26555
28523.1
31774.4
37250.3
46778
64516.3
105577
219657
24309
24573.7
25070.6
25891.4
27166
29147.7
32317.4
37601.3
46923.8
64674.9
107017
247185
26272.4
26434.2
26877.1
27684.7
28977.2
30938.6
33985
39005.5
48005
65682.6
109279
280286
30508.2
30246.4
30484.1
31119.2
32255.5
34084.6
36906.2
41506.1
49972.3
67178.1
111505
315647
37181.1
36076.6
35856
36293.2
37163.5
38661.9
41050.1
44998.2
52502.1
68593.6
113985
358196
45320.7
43303.6
42457.7
42606.3
43237.6
44282.7
45973.9
48866
54483.6
68724.9
114808
416070
2065.69
1838.2
2285.53
2280.58
2230.44
1966.16
1822.66
2605.59
13621.9
34142.3
44102.9
49196.4
5593.8
5057.33
4033.17
3411.07
4130.15
6560.15
16695
23511
25198.4
32830.4
35431.5
36680.5
7935.82
6204.18
6227.66
7498.92
14953
20408.8
20929
22322.2
24837
27836.7
28838.8
29989.1
11149
8616.43
10004.9
12501.2
16965.4
18609.8
18904.3
21083.2
23695.4
25158
25959.6
26795.5
13163.4
10539.1
12646.5
13826.7
15778.8
16556.6
18660.5
21142.7
23017.8
23978.6
24548.5
25089.8
14521.5
11449.8
12806.7
13433
15129.5
16873.7
19277.4
21552.7
22850.5
23387.4
23697.2
24000.2
14957.1
11444.6
12397.2
13558
15859.1
18235.5
20661.3
22325.8
23139.4
23449.2
23548.8
23653.2
16162.4
11764.4
12996.1
15373.5
18731.2
21365.2
23222.5
24155.7
24411.9
24365.6
24247.4
24211.9
18131
13313.8
16806.3
21635.1
26087.2
28411.2
29148.2
28901.3
28207.6
27450.8
26817.7
26405.7
22311.7
18393.1
28437.8
37027.6
42321.5
43419.4
42016.9
39475.3
36828.8
34506.2
32662.3
31320.6
25790.9
34164.2
55916.4
68001.2
71078.1
68812.8
63196.4
56913.4
51068.9
46124.4
42193.2
39206.3
97188.9
97957.5
107960
110238
106230
97090.4
86666.5
76532.6
67449.6
59773.5
53578.9
48728.5
53411.2
55551.2
56824.2
57019
57089.6
54453.9
50623.5
44536.1
37018.9
28211.9
17933.9
21727.7
37781.5
38651.9
39447.2
40197.7
41088.9
42449.1
44984.9
48586.8
53430.5
59071.5
61803.4
72980.4
30945.8
31650.5
32242.7
32863.5
33932
35837.2
39094.2
44295
52341
64144.5
81131.1
115788
27466.1
28051.5
28649.7
29381.8
30531.5
32488
35834.7
41389
50497.1
65647.4
92722.7
146667
25527.1
25941.1
26414.4
27072
28157.4
30054.6
33359.3
38991.1
48554.5
65493.4
99439.5
172779
24286.7
24619.7
25071.1
25759.4
26901.7
28837.3
32117.3
37673.2
47300.5
64956.4
103239
196409
23827.2
24119.2
24588.9
25341.6
26555.1
28523.2
31774.5
37250.5
46778.2
64516.5
105577
219657
24309.2
24573.8
25070.7
25891.5
27166.1
29147.8
32317.6
37601.4
46923.9
64675.1
107017
247186
26272.5
26434.3
26877.2
27684.8
28977.3
30938.7
33985.1
39005.6
48005.2
65682.7
109279
280286
30508.3
30246.5
30484.1
31119.3
32255.6
34084.7
36906.3
41506.1
49972.4
67178.3
111505
315647
37181.2
36076.7
35856.1
36293.2
37163.5
38662
41050.2
44998.3
52502.2
68593.7
113985
358197
45320.8
43303.6
42457.8
42606.3
43237.6
44282.8
45973.9
48866.1
54483.7
68725
114808
416071
2065.7
1838.21
2285.55
2280.61
2230.46
1966.19
1822.68
2605.61
13621.9
34142.3
44102.9
49196.3
5593.83
5057.36
4033.19
3411.1
4130.19
6560.18
16695
23511
25198.3
32830.4
35431.4
36680.5
7935.87
6204.22
6227.7
7498.98
14953
20408.8
20929
22322.2
24836.9
27836.7
28838.8
29989
11149.1
8616.48
10004.9
12501.3
16965.4
18609.7
18904.2
21083.2
23695.4
25157.9
25959.6
26795.5
13163.5
10539.2
12646.5
13826.8
15778.8
16556.6
18660.4
21142.7
23017.8
23978.5
24548.5
25089.7
14521.5
11449.9
12806.7
13433.1
15129.5
16873.7
19277.4
21552.6
22850.5
23387.4
23697.2
24000.2
14957.2
11444.6
12397.2
13558
15859.1
18235.5
20661.3
22325.8
23139.4
23449.2
23548.8
23653.2
16162.5
11764.4
12996.1
15373.5
18731.2
21365.2
23222.5
24155.7
24411.9
24365.7
24247.4
24212
18131.1
13313.8
16806.3
21635.1
26087.3
28411.2
29148.3
28901.4
28207.6
27450.9
26817.7
26405.8
22311.8
18393.2
28437.8
37027.7
42321.6
43419.4
42017
39475.4
36828.9
34506.2
32662.4
31320.6
25791
34164.2
55916.5
68001.3
71078.2
68812.9
63196.5
56913.6
51069
46124.5
42193.3
39206.4
97189.2
97957.6
107960
110238
106230
97090.4
86666.6
76532.7
67449.7
59773.6
53579
48728.6
53411.2
55551.1
56824.1
57019
57089.5
54453.9
50623.4
44536
37018.8
28211.8
17933.8
21727.6
37781.5
38651.8
39447.1
40197.7
41088.8
42449
44984.9
48586.7
53430.4
59071.4
61803.3
72980.2
30945.8
31650.4
32242.6
32863.5
33932
35837.2
39094.1
44295
52340.9
64144.4
81130.9
115788
27466.1
28051.5
28649.6
29381.7
30531.4
32488
35834.7
41388.9
50497
65647.3
92722.5
146667
25527.1
25941.1
26414.3
27072
28157.3
30054.6
33359.3
38991.1
48554.4
65493.3
99439.3
172779
24286.7
24619.7
25071.1
25759.4
26901.7
28837.3
32117.3
37673.1
47300.4
64956.4
103238
196409
23827.2
24119.2
24588.9
25341.6
26555.1
28523.2
31774.5
37250.4
46778.1
64516.4
105577
219657
24309.2
24573.8
25070.8
25891.5
27166.1
29147.8
32317.6
37601.4
46923.8
64675
107017
247185
26272.6
26434.3
26877.3
27684.9
28977.3
30938.7
33985.1
39005.6
48005.1
65682.7
109279
280286
30508.3
30246.6
30484.2
31119.3
32255.7
34084.7
36906.3
41506.2
49972.4
67178.2
111505
315647
37181.3
36076.8
35856.2
36293.3
37163.6
38662
41050.2
44998.3
52502.2
68593.6
113985
358196
45320.9
43303.7
42457.9
42606.4
43237.6
44282.8
45974
48866.1
54483.7
68725
114808
416070
2065.68
1838.19
2285.52
2280.57
2230.43
1966.16
1822.65
2605.57
13621.7
34142.1
44102.7
49196.2
5593.76
5057.31
4033.14
3411.06
4130.13
6560.09
16694.9
23510.9
25198.2
32830.3
35431.3
36680.4
7935.77
6204.15
6227.62
7498.86
14952.9
20408.7
20929
22322.1
24836.8
27836.6
28838.7
29988.9
11148.9
8616.38
10004.8
12501.1
16965.3
18609.7
18904.2
21083.1
23695.3
25157.9
25959.5
26795.4
13163.4
10539.1
12646.4
13826.7
15778.8
16556.5
18660.4
21142.6
23017.7
23978.5
24548.4
25089.7
14521.4
11449.8
12806.6
13433
15129.4
16873.6
19277.3
21552.6
22850.4
23387.3
23697.1
24000.1
14957
11444.6
12397.1
13557.9
15859
18235.4
20661.2
22325.7
23139.3
23449.1
23548.8
23653.1
16162.4
11764.3
12996
15373.4
18731.1
21365.2
23222.4
24155.6
24411.8
24365.6
24247.3
24211.9
18130.9
13313.7
16806.2
21635.1
26087.2
28411.1
29148.2
28901.3
28207.6
27450.8
26817.6
26405.7
22311.7
18393.1
28437.8
37027.6
42321.5
43419.4
42016.9
39475.3
36828.8
34506.2
32662.3
31320.6
25790.9
34164.1
55916.4
68001.2
71078.1
68812.9
63196.4
56913.5
51069
46124.4
42193.3
39206.4
97188.9
97957.5
107960
110238
106230
97090.4
86666.5
76532.7
67449.7
59773.5
53579
48728.6
53411
55550.9
56823.9
57018.8
57089.4
54453.7
50623.3
44535.9
37018.8
28211.8
17933.8
21727.6
37781.4
38651.7
39447.1
40197.6
41088.8
42449
44984.8
48586.7
53430.3
59071.4
61803.2
72980.1
30945.7
31650.4
32242.6
32863.4
33931.9
35837.1
39094.1
44294.9
52340.9
64144.3
81130.8
115788
27466
28051.4
28649.6
29381.7
30531.4
32487.9
35834.6
41388.9
50497
65647.3
92722.5
146666
25527
25941
26414.3
27071.9
28157.3
30054.5
33359.2
38991
48554.4
65493.3
99439.2
172779
24286.6
24619.7
25071
25759.3
26901.6
28837.2
32117.3
37673.1
47300.3
64956.3
103238
196409
23827.2
24119.1
24588.8
25341.5
26555
28523.1
31774.4
37250.4
46778.1
64516.3
105577
219657
24309.1
24573.8
25070.7
25891.5
27166.1
29147.7
32317.5
37601.3
46923.8
64674.9
107017
247185
26272.5
26434.3
26877.2
27684.8
28977.3
30938.7
33985
39005.5
48005.1
65682.6
109279
280286
30508.3
30246.5
30484.1
31119.3
32255.6
34084.6
36906.2
41506.1
49972.4
67178.2
111505
315646
37181.2
36076.7
35856.1
36293.3
37163.5
38662
41050.2
44998.2
52502.2
68593.6
113985
358196
45320.8
43303.7
42457.8
42606.4
43237.6
44282.8
45973.9
48866.1
54483.6
68724.9
114808
416070
155240
144541
133849
125120
116656
107364
97595.8
87739.2
78335
69918
62784.9
56937.7
96464.8
97630
97351.6
96796.6
95604.7
93428.8
89996.1
84588.5
78121.4
71936.8
66167.1
61076.1
65691.6
67744.6
69173.5
70516
71779.5
72731.4
72686
71757.8
70112
67577.1
64155.5
60937.9
51866.6
53419.9
54694.9
55894.7
57142.3
58429.6
59497
60248.7
60256.2
59764.8
58822.2
57575.7
52788
50368.4
49184
48994
49212
49594.7
50179.2
51502.7
54712.3
63301.2
87271.1
172901
57501.7
55569.9
54398.1
53631.3
52831.1
52131.3
51611.1
51743.5
52787.3
56273.2
65949
90638.1
58799.8
57616
56189.3
54598.4
52732.8
50910.7
49331.1
48386.9
48357.2
49431
53298.4
61762.4
56322.2
54627.8
52211.8
49635.7
47124.8
45180.9
43842.7
43256.1
43377.9
44075.9
46159.9
49639.4
155240
144542
133850
125121
116657
107364
97595.9
87739.3
78335.1
69918
62784.9
56937.8
96465
97630.6
97352.2
96797
95605.1
93429.1
89996.3
84588.7
78121.4
71936.9
66167.2
61076.2
65691.8
67745
69173.9
70516.4
71779.9
72731.7
72686.2
71758
70112.1
67577.2
64155.5
60937.9
51866.8
53420.3
54695.2
55895
57142.5
58429.8
59497.2
60248.9
60256.3
59764.9
58822.2
57575.7
52788
50368.5
49184
48994
49212.1
49594.7
50179.3
51502.8
54712.3
63301.3
87271.2
172901
57501.7
55569.9
54398.2
53631.3
52831.1
52131.3
51611.2
51743.6
52787.3
56273.2
65949.1
90638.3
58799.8
57616.1
56189.3
54598.4
52732.8
50910.8
49331.2
48387
48357.3
49431.1
53298.5
61762.5
56322.3
54627.8
52211.8
49635.8
47124.9
45181
43842.8
43256.2
43378
44076
46160
49639.5
155240
144542
133850
125121
116656
107364
97595.9
87739.3
78335.1
69918.1
62785
56937.9
96465.1
97630.7
97352.2
96797.1
95605.1
93429.1
89996.3
84588.7
78121.5
71936.9
66167.2
61076.2
65691.9
67745.1
69174
70516.5
71779.9
72731.7
72686.2
71758
70112.1
67577.2
64155.5
60937.9
51866.9
53420.3
54695.3
55895
57142.6
58429.9
59497.2
60248.9
60256.3
59764.9
58822.2
57575.7
52788.1
50368.5
49184.1
48994
49212.1
49594.7
50179.3
51502.7
54712.3
63301.2
87271.2
172901
57501.8
55569.9
54398.2
53631.3
52831.1
52131.3
51611.1
51743.6
52787.3
56273.2
65949
90638.2
58799.8
57616.1
56189.3
54598.4
52732.8
50910.7
49331.1
48386.9
48357.2
49431.1
53298.4
61762.4
56322.3
54627.8
52211.8
49635.7
47124.8
45180.9
43842.7
43256.1
43378
44075.9
46159.9
49639.4
155240
144542
133850
125120
116656
107364
97595.9
87739.3
78335.1
69918.1
62785
56937.8
96465
97630.6
97352.2
96797
95605
93429
89996.3
84588.6
78121.5
71936.9
66167.2
61076.2
65691.8
67745
69173.9
70516.4
71779.9
72731.6
72686.2
71757.9
70112.1
67577.2
64155.5
60937.9
51866.8
53420.3
54695.2
55895
57142.5
58429.8
59497.2
60248.9
60256.3
59764.8
58822.2
57575.7
52788.1
50368.5
49184.1
48994
49212.1
49594.7
50179.3
51502.7
54712.3
63301.2
87271.1
172901
57501.8
55569.9
54398.2
53631.3
52831.1
52131.3
51611.1
51743.6
52787.3
56273.2
65949
90638.3
58799.8
57616.1
56189.3
54598.4
52732.8
50910.7
49331.1
48386.9
48357.2
49431
53298.4
61762.4
56322.3
54627.8
52211.8
49635.7
47124.8
45180.9
43842.7
43256.1
43377.9
44075.9
46159.9
49639.4
47271.9
48392
49502.1
50584.7
51529.6
52266.7
52775.7
52831.3
52055.8
50748.6
48939.6
46929.4
44210.1
45289.8
46325.1
47158.3
47756
48105.2
47894.9
46824.2
44991.6
42701.1
40236.4
38191.5
41576.8
42532.1
43297
43867.8
44234.9
44217.2
43439.6
42081.3
40308.8
38561.3
37107.5
36091.5
38244.2
38852.5
39371.4
39701.1
39769.9
39384.3
38600.6
37750.4
37219.9
37730.6
39873.8
42517
45177
42398.2
40272.4
39509.3
39005.8
39178
39699.5
40563.8
41689.8
43044.9
44862.4
46311
36893.8
34196.6
33596.4
34304.5
35159.9
36411.6
37708
39091.1
40456.9
41752.6
42882.8
43603.1
35262.5
30229.8
29658.9
31191.4
32675.3
34355.8
35924.5
37408.1
38679.5
39658.1
40378.5
40952.8
46520.5
28120.2
26742.5
28481.6
30150.9
31891.8
33446.5
34818.3
35841.6
36596.3
37167.5
37675.1
47272.1
48392.2
49502.2
50584.8
51529.8
52266.8
52775.8
52831.4
52055.9
50748.6
48939.7
46929.4
44210.2
45289.9
46325.2
47158.4
47756
48105.3
47895
46824.2
44991.7
42701.1
40236.4
38191.5
41576.9
42532.2
43297.1
43867.9
44235
44217.3
43439.6
42081.3
40308.8
38561.3
37107.5
36091.5
38244.3
38852.5
39371.4
39701.1
39770
39384.4
38600.6
37750.5
37220
37730.6
39873.8
42517
45177
42398.2
40272.5
39509.3
39005.9
39178.1
39699.5
40563.8
41689.8
43045
44862.4
46311
36893.8
34196.6
33596.4
34304.6
35159.9
36411.6
37708.1
39091.2
40457
41752.6
42882.9
43603.1
35262.6
30229.8
29658.9
31191.4
32675.3
34355.8
35924.5
37408.1
38679.5
39658.1
40378.5
40952.8
46520.5
28120.1
26742.5
28481.6
30150.9
31891.8
33446.4
34818.3
35841.6
36596.3
37167.4
37675.1
47272.2
48392.3
49502.3
50584.8
51529.8
52266.8
52775.8
52831.4
52055.8
50748.6
48939.6
46929.4
44210.2
45289.9
46325.2
47158.4
47756
48105.3
47894.9
46824.2
44991.6
42701.1
40236.4
38191.4
41576.9
42532.2
43297.1
43867.9
44234.9
44217.2
43439.6
42081.2
40308.8
38561.3
37107.5
36091.5
38244.2
38852.5
39371.4
39701
39769.9
39384.3
38600.5
37750.4
37219.9
37730.6
39873.7
42517
45177
42398.2
40272.4
39509.3
39005.8
39178
39699.5
40563.8
41689.8
43045
44862.4
46311
36893.8
34196.6
33596.4
34304.5
35159.9
36411.6
37708
39091.1
40457
41752.6
42882.8
43603.1
35262.5
30229.8
29658.9
31191.4
32675.3
34355.8
35924.5
37408.1
38679.5
39658.1
40378.5
40952.8
46520.4
28120.1
26742.5
28481.6
30150.9
31891.8
33446.4
34818.3
35841.6
36596.3
37167.4
37675.1
47272.1
48392.2
49502.2
50584.8
51529.7
52266.7
52775.8
52831.4
52055.8
50748.6
48939.6
46929.4
44210.2
45289.9
46325.2
47158.3
47756
48105.3
47894.9
46824.2
44991.6
42701.1
40236.3
38191.4
41576.9
42532.1
43297
43867.9
44234.9
44217.2
43439.6
42081.2
40308.7
38561.3
37107.4
36091.5
38244.2
38852.5
39371.4
39701
39769.9
39384.3
38600.5
37750.4
37219.9
37730.5
39873.7
42517
45177
42398.2
40272.4
39509.3
39005.8
39178
39699.5
40563.7
41689.7
43044.9
44862.3
46310.8
36893.8
34196.6
33596.3
34304.5
35159.9
36411.5
37708
39091.1
40456.9
41752.5
42882.8
43603
35262.5
30229.7
29658.9
31191.3
32675.3
34355.7
35924.5
37408.1
38679.4
39658
40378.5
40952.8
46520.4
28120.1
26742.4
28481.6
30150.9
31891.7
33446.4
34818.2
35841.5
36596.3
37167.5
37675.1
33550.9
33805.6
33879.2
33650.6
33013
31964
30585.8
29064.5
27531.1
25812.8
24969.3
27118
27489.4
27145.8
26407.6
25244.3
23496.4
21111.5
17964.8
13906
9020.09
4992.58
2798.1
1805.73
20269.9
19168.4
17545.7
15398.1
12586.3
9131.26
5221.57
2095.88
647.551
218.935
150.44
123.382
12665.8
10943.4
8749
6154.88
3348.6
1195.26
247.463
30.7947
20.0533
10.9584
13.2381
12.404
5799.54
3945.81
2077.47
715.751
129.795
9.77715
8.58766
4.85433
5.58629
5.47305
5.51966
5.43207
1152.79
376.155
76.0061
3.157
6.65333
4.84642
5.00522
5.01703
5.04573
5.09795
5.14021
5.17959
44.9459
1.24701
5.53336
4.68674
4.72593
4.75724
4.79314
4.83824
4.88757
4.93958
4.97744
5.01348
4.81705
4.40059
4.48939
4.51097
4.54042
4.57604
4.61603
4.66531
4.722
4.77738
4.82051
4.86203
4.20325
4.23504
4.26496
4.29523
4.32609
4.35955
4.39526
4.43495
4.47951
4.52972
4.58261
4.6298
3.76826
3.79473
3.81921
3.8452
3.87066
3.90016
3.93225
3.97117
4.0139
4.06326
4.11457
4.1586
3.13672
3.13963
3.13746
3.13859
3.13658
3.13925
3.14254
3.14981
3.15914
3.17084
3.18183
3.18985
3.42963
3.29009
3.30602
3.19963
3.21164
3.13215
3.14322
3.09259
3.10443
3.08896
3.10173
3.1126
96911.8
26170.4
23840.4
25545.6
27133.9
28720.5
30056
31118.9
31915.2
32513.3
32946.2
33265.5
75226.7
21792.9
20562.7
22236.6
23583.6
24794.1
25768.9
26529.8
27125
27494.5
27652.4
27659.2
60843.3
17889.1
17202.4
18541
19508.6
20316.7
20972.9
21466.1
21744.1
21783.4
21528.3
21038
48845.2
14210.9
13778
14636.2
15241.8
15730.5
16063.3
16196
16097.2
15672.7
14985.4
13997.7
38167.2
10739.5
10385.6
10856.8
11157.3
11297.3
11297.1
11011.9
10519.5
9735.34
8717.77
7401.27
28218.9
7579.06
7185.74
7410.71
7422.42
7220.81
6878.33
6306.12
5577.31
4611.12
3509.07
2274.66
19798.8
4776.17
4472.99
4404.19
4163.83
3723.31
3220.11
2540.45
1863.36
1116.48
550.088
155.894
12490.3
2450.91
2293.73
1892.67
1682.51
1176.18
851.172
417.682
217.264
35.7367
29.2032
1.50038
6054.97
763.489
771.096
388.531
352.797
99.8975
82.0924
6.24442
10.5726
3.39811
4.35267
4.13589
2232.42
94.2741
105.638
20.2624
24.2472
2.78846
5.1289
3.62427
3.73214
3.69684
3.71681
3.74431
554.183
5.73632
8.266
3.28943
3.66681
3.32634
3.19957
3.20788
3.16865
3.15201
3.14091
3.14299
948.944
6.14895
5.64143
4.79544
4.66919
4.183
4.18715
3.77637
3.83415
3.55831
3.5964
3.40527
33550.9
33805.7
33879.3
33650.7
33013.1
31964.1
30585.8
29064.6
27531.2
25812.8
24969.3
27118.1
27489.4
27145.9
26407.6
25244.4
23496.5
21111.6
17964.8
13906
9020.13
4992.6
2798.11
1805.74
20270
19168.5
17545.7
15398.1
12586.3
9131.31
5221.61
2095.9
647.556
218.938
150.442
123.384
12665.8
10943.4
8749.05
6154.92
3348.63
1195.27
247.467
30.7955
20.0538
10.959
13.2386
12.4046
5799.58
3945.84
2077.5
715.763
129.798
9.77759
8.58786
4.85446
5.58645
5.47324
5.51986
5.43231
1152.8
376.158
76.0095
3.1567
6.65337
4.84638
5.0052
5.01702
5.04569
5.09791
5.14018
5.17957
44.9455
1.24673
5.53333
4.68668
4.72587
4.75718
4.79308
4.83817
4.8875
4.93952
4.97738
5.01342
4.81702
4.40054
4.48935
4.51093
4.54038
4.576
4.61599
4.66527
4.72196
4.77734
4.82046
4.86198
4.20323
4.23502
4.26494
4.29521
4.32607
4.35953
4.39524
4.43492
4.47948
4.52969
4.58259
4.62978
3.76825
3.79473
3.8192
3.84519
3.87066
3.90015
3.93224
3.97116
4.01389
4.06325
4.11456
4.15859
3.13679
3.13963
3.13746
3.13859
3.13658
3.13925
3.14254
3.1498
3.15914
3.17084
3.18183
3.18985
3.42962
3.29009
3.30602
3.19964
3.21164
3.13215
3.14322
3.09259
3.10443
3.08896
3.10173
3.1126
96911.7
26170.4
23840.4
25545.6
27133.8
28720.5
30056
31118.9
31915.2
32513.3
32946.1
33265.4
75226.6
21792.9
20562.7
22236.6
23583.6
24794.1
25768.8
26529.8
27125
27494.5
27652.3
27659.1
60843.2
17889.1
17202.4
18541
19508.6
20316.7
20972.8
21466.1
21744.1
21783.4
21528.3
21037.9
48845.1
14210.9
13778
14636.1
15241.8
15730.5
16063.2
16195.9
16097.2
15672.6
14985.3
13997.6
38167.1
10739.4
10385.5
10856.8
11157.2
11297.3
11297
11011.8
10519.4
9735.28
8717.71
7401.21
28218.7
7579.02
7185.7
7410.66
7422.37
7220.76
6878.28
6306.06
5577.26
4611.07
3509.03
2274.62
19798.7
4776.13
4472.96
4404.15
4163.79
3723.27
3220.07
2540.41
1863.33
1116.46
550.075
155.889
12490.2
2450.88
2293.7
1892.64
1682.48
1176.16
851.151
417.668
217.257
35.7349
29.2026
1.50043
6054.88
763.472
771.078
388.518
352.785
99.8925
82.089
6.24398
10.5723
3.39818
4.35269
4.13591
2232.38
94.2704
105.634
20.2612
24.246
2.78846
5.12881
3.6243
3.73216
3.69686
3.71683
3.74433
554.171
5.73625
8.2658
3.28946
3.66681
3.32635
3.19958
3.20789
3.16867
3.15203
3.14092
3.14301
948.919
6.14897
5.6414
4.79544
4.66919
4.183
4.18715
3.77638
3.83416
3.55832
3.5964
3.40528
33550.9
33805.6
33879.2
33650.6
33013
31964
30585.8
29064.5
27531.1
25812.8
24969.3
27118
27489.3
27145.8
26407.6
25244.3
23496.4
21111.5
17964.7
13905.9
9020.09
4992.58
2798.11
1805.73
20269.9
19168.4
17545.7
15398.1
12586.3
9131.25
5221.57
2095.88
647.552
218.937
150.441
123.383
12665.8
10943.4
8748.99
6154.86
3348.59
1195.25
247.464
30.7958
20.0535
10.959
13.2386
12.4045
5799.53
3945.8
2077.46
715.749
129.794
9.77743
8.58794
4.85449
5.58648
5.47327
5.51989
5.43234
1152.78
376.149
76.0076
3.1566
6.65334
4.84642
5.00523
5.01705
5.04573
5.09795
5.14022
5.1796
44.9443
1.24671
5.53333
4.68671
4.7259
4.75721
4.79311
4.8382
4.88754
4.93955
4.97741
5.01345
4.81702
4.40057
4.48938
4.51095
4.54041
4.57603
4.61602
4.66529
4.72198
4.77737
4.82049
4.86201
4.20325
4.23504
4.26496
4.29523
4.32609
4.35955
4.39526
4.43495
4.47951
4.52972
4.58261
4.62981
3.76827
3.79475
3.81923
3.84521
3.87068
3.90017
3.93227
3.97118
4.01392
4.06328
4.11459
4.15861
3.1368
3.13965
3.13748
3.13861
3.1366
3.13927
3.14256
3.14982
3.15916
3.17086
3.18185
3.18987
3.42964
3.2901
3.30603
3.19965
3.21165
3.13217
3.14324
3.0926
3.10444
3.08898
3.10175
3.11262
96911.7
26170.4
23840.4
25545.6
27133.8
28720.5
30056
31118.9
31915.1
32513.3
32946.1
33265.4
75226.5
21792.9
20562.7
22236.6
23583.6
24794.1
25768.8
26529.8
27124.9
27494.5
27652.3
27659.1
60843.2
17889.1
17202.4
18541
19508.6
20316.7
20972.8
21466.1
21744.1
21783.3
21528.3
21037.9
48845.1
14210.9
13778
14636.1
15241.8
15730.5
16063.2
16195.9
16097.2
15672.6
14985.3
13997.6
38167.1
10739.4
10385.5
10856.8
11157.2
11297.3
11297
11011.8
10519.4
9735.28
8717.71
7401.21
28218.8
7579.02
7185.7
7410.67
7422.38
7220.76
6878.28
6306.07
5577.26
4611.07
3509.03
2274.62
19798.7
4776.14
4472.96
4404.16
4163.8
3723.27
3220.07
2540.41
1863.33
1116.46
550.076
155.889
12490.2
2450.88
2293.71
1892.64
1682.48
1176.16
851.151
417.668
217.258
35.7351
29.2027
1.50046
6054.9
763.473
771.079
388.518
352.785
99.8927
82.0891
6.24404
10.5723
3.39819
4.3527
4.13592
2232.39
94.2703
105.634
20.2612
24.246
2.78846
5.12882
3.6243
3.73216
3.69686
3.71683
3.74433
554.176
5.73627
8.26579
3.28946
3.66681
3.32635
3.19958
3.20789
3.16867
3.15202
3.14092
3.143
948.937
6.14902
5.64141
4.79546
4.6692
4.18301
4.18716
3.77639
3.83417
3.55832
3.59641
3.40528
33550.8
33805.6
33879.2
33650.6
33013
31964
30585.8
29064.5
27531.1
25812.8
24969.3
27118
27489.3
27145.8
26407.5
25244.3
23496.4
21111.5
17964.7
13905.9
9020.08
4992.58
2798.11
1805.73
20269.9
19168.4
17545.7
15398
12586.2
9131.24
5221.56
2095.88
647.553
218.938
150.442
123.384
12665.8
10943.4
8748.98
6154.86
3348.59
1195.25
247.464
30.7965
20.0539
10.9594
13.239
12.405
5799.52
3945.79
2077.46
715.749
129.795
9.77767
8.58805
4.85462
5.58664
5.47344
5.52006
5.43253
1152.78
376.149
76.008
3.1566
6.6534
4.84647
5.00528
5.01711
5.04578
5.098
5.14027
5.17966
44.9447
1.24671
5.53337
4.68674
4.72593
4.75724
4.79313
4.83823
4.88756
4.93958
4.97744
5.01348
4.81705
4.40059
4.4894
4.51098
4.54043
4.57605
4.61604
4.66532
4.72201
4.77739
4.82051
4.86203
4.20327
4.23505
4.26497
4.29524
4.3261
4.35956
4.39527
4.43496
4.47952
4.52973
4.58262
4.62982
3.76827
3.79475
3.81923
3.84522
3.87068
3.90017
3.93227
3.97119
4.01392
4.06328
4.11459
4.15862
3.1368
3.13964
3.13747
3.13861
3.1366
3.13926
3.14255
3.14982
3.15916
3.17085
3.18185
3.18987
3.42964
3.2901
3.30603
3.19965
3.21165
3.13217
3.14323
3.0926
3.10444
3.08897
3.10174
3.11262
96911.6
26170.4
23840.4
25545.6
27133.8
28720.5
30055.9
31118.9
31915.1
32513.3
32946.2
33265.5
75226.5
21792.8
20562.7
22236.6
23583.5
24794.1
25768.8
26529.8
27125
27494.5
27652.3
27659.1
60843.1
17889.1
17202.4
18541
19508.6
20316.7
20972.8
21466.1
21744.1
21783.4
21528.3
21037.9
48845.1
14210.9
13778
14636.1
15241.8
15730.5
16063.2
16196
16097.2
15672.6
14985.3
13997.6
38167
10739.4
10385.5
10856.8
11157.2
11297.3
11297
11011.8
10519.4
9735.29
8717.72
7401.21
28218.8
7579.02
7185.7
7410.67
7422.38
7220.77
6878.29
6306.08
5577.28
4611.09
3509.04
2274.62
19798.7
4776.14
4472.96
4404.16
4163.8
3723.28
3220.09
2540.43
1863.35
1116.47
550.082
155.89
12490.2
2450.88
2293.71
1892.65
1682.49
1176.17
851.163
417.678
217.264
35.7382
29.2046
1.50134
6054.92
763.481
771.086
388.526
352.794
99.8983
82.0936
6.2465
10.5746
3.4
4.35456
4.13782
2232.41
94.2755
105.639
20.2642
24.2488
2.79014
5.13055
3.62585
3.73378
3.69852
3.71855
3.74611
554.183
5.73768
8.2676
3.29071
3.66812
3.3276
3.20087
3.2091
3.16964
3.15295
3.14164
3.14378
948.943
6.14977
5.64275
4.79632
4.67012
4.18378
4.18799
3.77716
3.83494
3.55905
3.59714
3.40597
)
;

boundaryField
{
    rotor
    {
        type            epsilonWallFunction;
        blending        stepwise;
        value           nonuniform List<scalar> 
192
(
2065.67
1838.18
2285.51
2280.57
2230.43
1966.15
1822.65
2605.57
13621.7
34142.1
44102.7
49196.2
53411
55551
56824
57018.8
57089.4
54453.8
50623.4
44536
37018.8
28211.8
17933.9
21727.7
2065.69
1838.2
2285.53
2280.58
2230.44
1966.16
1822.66
2605.59
13621.9
34142.3
44102.9
49196.4
53411.2
55551.2
56824.2
57019
57089.6
54453.9
50623.5
44536.1
37018.9
28211.9
17933.9
21727.7
2065.7
1838.21
2285.55
2280.61
2230.46
1966.19
1822.68
2605.61
13621.9
34142.3
44102.9
49196.3
53411.2
55551.1
56824.1
57019
57089.5
54453.9
50623.4
44536
37018.8
28211.8
17933.8
21727.6
2065.68
1838.19
2285.52
2280.57
2230.43
1966.16
1822.65
2605.57
13621.7
34142.1
44102.7
49196.2
53411
55550.9
56823.9
57018.8
57089.4
54453.7
50623.3
44535.9
37018.8
28211.8
17933.8
21727.6
2065.67
5593.73
7935.73
11148.9
13163.3
14521.3
14957
16162.4
18130.9
22311.7
25790.9
97188.9
21727.6
72980.1
115788
146666
172779
196409
219657
247185
280286
315646
358196
416070
2065.69
5593.8
7935.82
11149
13163.4
14521.5
14957.1
16162.4
18131
22311.7
25790.9
97188.9
21727.7
72980.3
115788
146667
172779
196409
219657
247185
280286
315647
358196
416070
2065.7
5593.83
7935.87
11149.1
13163.5
14521.5
14957.2
16162.5
18131.1
22311.8
25791
97189.2
21727.7
72980.4
115788
146667
172779
196409
219657
247186
280286
315647
358197
416071
2065.68
5593.76
7935.77
11148.9
13163.4
14521.4
14957
16162.4
18130.9
22311.7
25790.9
97188.9
21727.6
72980.2
115788
146667
172779
196409
219657
247185
280286
315647
358196
416070
)
;
    }
    stator
    {
        type            epsilonWallFunction;
        blending        stepwise;
        value           nonuniform List<scalar> 
192
(
3.42963
3.29009
3.30602
3.19963
3.21164
3.13215
3.14322
3.09259
3.10443
3.08896
3.10173
3.1126
948.944
6.14895
5.64143
4.79544
4.66919
4.183
4.18715
3.77637
3.83415
3.55831
3.5964
3.40527
3.42962
3.29009
3.30602
3.19964
3.21164
3.13215
3.14322
3.09259
3.10443
3.08896
3.10173
3.1126
948.919
6.14897
5.6414
4.79544
4.66919
4.183
4.18715
3.77638
3.83416
3.55832
3.5964
3.40528
3.42964
3.2901
3.30603
3.19965
3.21165
3.13217
3.14324
3.0926
3.10444
3.08898
3.10175
3.11262
948.937
6.14902
5.64141
4.79546
4.6692
4.18301
4.18716
3.77639
3.83417
3.55832
3.59641
3.40528
3.42964
3.2901
3.30603
3.19965
3.21165
3.13217
3.14323
3.0926
3.10444
3.08897
3.10174
3.11262
948.943
6.14977
5.64275
4.79632
4.67012
4.18378
4.18799
3.77716
3.83494
3.55905
3.59714
3.40597
96911.8
75226.7
60843.3
48845.2
38167.2
28218.9
19798.8
12490.3
6054.97
2232.42
554.183
948.944
27118
1805.73
123.382
12.404
5.43207
5.17959
5.01348
4.86203
4.6298
4.1586
3.18985
3.1126
96911.7
75226.6
60843.2
48845.1
38167.1
28218.7
19798.7
12490.2
6054.88
2232.38
554.171
948.919
27118.1
1805.74
123.384
12.4046
5.43231
5.17957
5.01342
4.86198
4.62978
4.15859
3.18985
3.1126
96911.7
75226.5
60843.2
48845.1
38167.1
28218.8
19798.7
12490.2
6054.9
2232.39
554.176
948.937
27118
1805.73
123.383
12.4045
5.43234
5.1796
5.01345
4.86201
4.62981
4.15861
3.18987
3.11262
96911.6
75226.5
60843.1
48845.1
38167
28218.8
19798.7
12490.2
6054.92
2232.41
554.183
948.943
27118
1805.73
123.384
12.405
5.43253
5.17966
5.01348
4.86203
4.62982
4.15862
3.18987
3.11262
)
;
    }
    front
    {
        type            empty;
    }
    back
    {
        type            empty;
    }
}


// ************************************************************************* //
