/*--------------------------------*- C++ -*----------------------------------*\
| =========                 |                                                 |
| \\      /  F ield         | OpenFOAM: The Open Source CFD Toolbox           |
|  \\    /   O peration     | Version:  2212                                  |
|   \\  /    A nd           | Website:  www.openfoam.com                      |
|    \\/     M anipulation  |                                                 |
\*---------------------------------------------------------------------------*/
FoamFile
{
    version     2.0;
    format      ascii;
    arch        "LSB;label=32;scalar=64";
    class       volScalarField;
    location    "0.08";
    object      nut;
}
// * * * * * * * * * * * * * * * * * * * * * * * * * * * * * * * * * * * * * //

dimensions      [0 2 -1 0 0 0 0];

internalField   nonuniform List<scalar> 
3072
(
0.000239131
0.000515215
0.000554013
0.000553614
0.000549527
0.000526904
0.00051376
0.000578753
0.00100447
0.00136444
0.00148598
0.00154112
0.000386476
0.00111766
0.0015858
0.0017773
0.00152269
0.000885857
0.000794075
0.00140839
0.00172262
0.00276131
0.00377362
0.00526305
0.000496145
0.00184203
0.00248517
0.002593
0.00224353
0.00207509
0.00206054
0.00292775
0.00445722
0.00654199
0.00874366
0.0108726
0.000627233
0.00289592
0.00315608
0.00274386
0.00260239
0.0026225
0.00349166
0.0056587
0.00801192
0.0106696
0.0131862
0.0154124
0.000740798
0.00343578
0.00347043
0.00314134
0.003138
0.00384928
0.00585005
0.00864453
0.0113448
0.0140765
0.0165936
0.0188136
0.000848076
0.00388715
0.00394129
0.00372562
0.00415707
0.00586822
0.00856477
0.0112962
0.0139647
0.0165879
0.0190027
0.0211613
0.000942016
0.00440036
0.00478189
0.00486364
0.00599097
0.00839813
0.0109638
0.0134901
0.0159736
0.0183408
0.0205794
0.0226347
0.0010565
0.0055475
0.00659683
0.00749295
0.00934109
0.0114398
0.0135662
0.0157103
0.0178657
0.0199196
0.0218551
0.0236422
0.00119312
0.00751392
0.00987645
0.0118477
0.0136052
0.0152014
0.0167464
0.0182929
0.0198693
0.021409
0.0228984
0.0243216
0.00138285
0.00903756
0.0125431
0.0149535
0.0166979
0.0180347
0.0191841
0.0202598
0.0213051
0.0223468
0.0234084
0.0245029
0.00156284
0.00842769
0.0135225
0.0164561
0.01839
0.0195829
0.0206669
0.021441
0.022146
0.022851
0.0235952
0.0244072
0.00260877
0.00793694
0.0142308
0.0176396
0.0193146
0.0207968
0.0217329
0.0224005
0.022935
0.0234388
0.023972
0.0245776
0.00158393
0.00160481
0.00161697
0.00161882
0.00161949
0.00159417
0.00155588
0.00149084
0.00140174
0.00128037
0.00110091
0.000523947
0.00673605
0.00808893
0.00903509
0.00943985
0.00925912
0.00877095
0.00792994
0.00677406
0.00524176
0.00320448
0.00156714
0.000909824
0.0127059
0.0141057
0.0149819
0.0153215
0.0151341
0.014464
0.0132651
0.011522
0.0092005
0.00630404
0.00280964
0.00121237
0.0172974
0.0187746
0.019801
0.020346
0.0203694
0.0198181
0.0186128
0.0166472
0.0137492
0.00992995
0.00495063
0.00148068
0.0207242
0.0222922
0.023488
0.024276
0.024596
0.0243404
0.0233583
0.0214376
0.0182094
0.0135567
0.00729436
0.00174747
0.0230602
0.0246828
0.0260081
0.0270038
0.0276115
0.027738
0.027203
0.0256811
0.022678
0.0175035
0.0101234
0.00202063
0.0244739
0.0260923
0.0274841
0.0286328
0.0295146
0.0300704
0.0301067
0.0292101
0.0266836
0.0215081
0.0131302
0.00230688
0.0252775
0.0267718
0.0281211
0.0293266
0.0304134
0.0313651
0.0320362
0.0319943
0.0302954
0.0253704
0.0160599
0.00262245
0.0256469
0.0268795
0.0280953
0.0292955
0.0304901
0.0317222
0.032928
0.0337746
0.0332186
0.0290131
0.0187546
0.00297221
0.0255772
0.0265887
0.0276201
0.0287957
0.0300937
0.0315019
0.0330377
0.0345925
0.0352577
0.0324367
0.021895
0.0033445
0.0253602
0.026444
0.0273468
0.0282928
0.0295937
0.0311108
0.0327649
0.0346398
0.0362249
0.0353171
0.0256648
0.00375664
0.0253512
0.0264963
0.0275354
0.0283669
0.0294351
0.0308911
0.0324531
0.0343013
0.0362202
0.0369706
0.029649
0.00423596
0.000239132
0.000515217
0.000554015
0.000553615
0.000549528
0.000526905
0.000513761
0.000578755
0.00100447
0.00136445
0.00148599
0.00154112
0.000386478
0.00111766
0.0015858
0.0017773
0.00152268
0.000885852
0.000794079
0.0014084
0.00172263
0.00276132
0.00377364
0.00526308
0.000496147
0.00184204
0.00248517
0.00259298
0.00224351
0.00207508
0.00206054
0.00292777
0.00445725
0.00654204
0.0087437
0.0108727
0.000627236
0.00289592
0.00315607
0.00274385
0.00260239
0.00262251
0.00349169
0.00565875
0.00801198
0.0106696
0.0131863
0.0154124
0.000740801
0.00343579
0.00347043
0.00314135
0.00313801
0.0038493
0.00585012
0.0086446
0.0113448
0.0140766
0.0165937
0.0188137
0.000848079
0.00388716
0.00394131
0.00372564
0.0041571
0.0058683
0.00856485
0.0112962
0.0139647
0.016588
0.0190028
0.0211614
0.000942018
0.00440038
0.00478192
0.00486369
0.00599106
0.00839823
0.0109639
0.0134902
0.0159737
0.0183409
0.0205795
0.0226348
0.0010565
0.00554752
0.00659688
0.00749303
0.0093412
0.0114399
0.0135663
0.0157104
0.0178658
0.0199197
0.0218552
0.0236423
0.00119313
0.00751393
0.0098765
0.0118478
0.0136053
0.0152015
0.0167465
0.018293
0.0198694
0.0214091
0.0228985
0.0243217
0.00138285
0.00903757
0.0125431
0.0149535
0.016698
0.0180348
0.0191842
0.0202599
0.0213051
0.0223468
0.0234085
0.024503
0.00156284
0.00842769
0.0135225
0.0164561
0.0183901
0.0195829
0.020667
0.021441
0.0221461
0.022851
0.0235953
0.0244072
0.00260877
0.00793694
0.0142308
0.0176397
0.0193146
0.0207968
0.0217329
0.0224006
0.022935
0.0234388
0.023972
0.0245776
0.00158393
0.00160481
0.00161698
0.00161882
0.00161949
0.00159417
0.00155588
0.00149084
0.00140174
0.00128037
0.00110091
0.000523947
0.00673608
0.00808896
0.00903512
0.00943988
0.00925914
0.00877097
0.00792996
0.00677407
0.00524177
0.00320448
0.00156714
0.000909825
0.012706
0.0141057
0.0149819
0.0153215
0.0151342
0.014464
0.0132651
0.011522
0.00920052
0.00630406
0.00280964
0.00121237
0.0172975
0.0187747
0.019801
0.0203461
0.0203694
0.0198182
0.0186129
0.0166472
0.0137492
0.00992996
0.00495064
0.00148068
0.0207242
0.0222923
0.0234881
0.0242761
0.0245961
0.0243405
0.0233584
0.0214376
0.0182095
0.0135567
0.00729437
0.00174747
0.0230603
0.0246829
0.0260082
0.0270039
0.0276116
0.0277381
0.0272031
0.0256812
0.022678
0.0175035
0.0101234
0.00202063
0.024474
0.0260924
0.0274842
0.0286329
0.0295147
0.0300705
0.0301068
0.0292102
0.0266837
0.0215082
0.0131302
0.00230688
0.0252776
0.0267719
0.0281212
0.0293267
0.0304135
0.0313652
0.0320363
0.0319943
0.0302955
0.0253705
0.0160599
0.00262245
0.025647
0.0268796
0.0280954
0.0292956
0.0304902
0.0317223
0.0329281
0.0337747
0.0332186
0.0290131
0.0187547
0.00297221
0.0255773
0.0265888
0.0276202
0.0287958
0.0300938
0.031502
0.0330378
0.0345926
0.0352578
0.0324367
0.0218951
0.00334451
0.0253602
0.0264441
0.0273469
0.0282928
0.0295938
0.0311109
0.032765
0.0346399
0.036225
0.0353172
0.0256649
0.00375665
0.0253512
0.0264964
0.0275354
0.028367
0.0294351
0.0308912
0.0324532
0.0343014
0.0362202
0.0369706
0.029649
0.00423596
0.000239133
0.000515218
0.000554017
0.000553617
0.000549529
0.000526907
0.000513762
0.000578756
0.00100447
0.00136445
0.00148599
0.00154112
0.000386479
0.00111767
0.00158582
0.00177731
0.0015227
0.000885857
0.00079408
0.0014084
0.00172263
0.00276133
0.00377364
0.00526308
0.000496148
0.00184205
0.00248518
0.002593
0.00224353
0.00207509
0.00206054
0.00292778
0.00445725
0.00654204
0.00874371
0.0108727
0.000627237
0.00289593
0.00315609
0.00274387
0.0026024
0.00262252
0.00349169
0.00565875
0.00801198
0.0106696
0.0131863
0.0154124
0.000740803
0.0034358
0.00347045
0.00314137
0.00313801
0.00384931
0.00585012
0.00864461
0.0113448
0.0140766
0.0165937
0.0188137
0.00084808
0.00388717
0.00394132
0.00372566
0.00415711
0.0058683
0.00856486
0.0112963
0.0139647
0.016588
0.0190028
0.0211614
0.00094202
0.00440039
0.00478193
0.0048637
0.00599106
0.00839824
0.0109639
0.0134902
0.0159737
0.0183409
0.0205795
0.0226348
0.0010565
0.00554753
0.0065969
0.00749305
0.00934121
0.0114399
0.0135663
0.0157104
0.0178658
0.0199197
0.0218552
0.0236423
0.00119313
0.00751394
0.00987652
0.0118478
0.0136053
0.0152015
0.0167465
0.018293
0.0198694
0.0214092
0.0228985
0.0243217
0.00138285
0.00903758
0.0125431
0.0149535
0.016698
0.0180348
0.0191842
0.0202599
0.0213052
0.0223468
0.0234085
0.024503
0.00156284
0.0084277
0.0135225
0.0164562
0.0183901
0.019583
0.020667
0.021441
0.0221461
0.022851
0.0235953
0.0244072
0.00260877
0.00793695
0.0142308
0.0176397
0.0193146
0.0207968
0.0217329
0.0224006
0.022935
0.0234388
0.023972
0.0245776
0.00158393
0.00160481
0.00161698
0.00161882
0.00161949
0.00159417
0.00155588
0.00149084
0.00140174
0.00128037
0.00110091
0.000523946
0.00673608
0.00808896
0.00903512
0.00943988
0.00925914
0.00877097
0.00792996
0.00677407
0.00524177
0.00320448
0.00156714
0.000909824
0.012706
0.0141057
0.0149819
0.0153215
0.0151341
0.014464
0.0132651
0.011522
0.00920052
0.00630405
0.00280964
0.00121237
0.0172975
0.0187747
0.019801
0.0203461
0.0203694
0.0198182
0.0186128
0.0166472
0.0137492
0.00992996
0.00495064
0.00148068
0.0207242
0.0222923
0.0234881
0.024276
0.024596
0.0243405
0.0233584
0.0214376
0.0182095
0.0135567
0.00729436
0.00174747
0.0230603
0.0246829
0.0260082
0.0270038
0.0276116
0.0277381
0.0272031
0.0256812
0.022678
0.0175035
0.0101234
0.00202063
0.024474
0.0260924
0.0274842
0.0286329
0.0295147
0.0300705
0.0301068
0.0292102
0.0266837
0.0215082
0.0131302
0.00230688
0.0252776
0.0267719
0.0281211
0.0293267
0.0304135
0.0313651
0.0320363
0.0319943
0.0302955
0.0253705
0.0160599
0.00262245
0.025647
0.0268796
0.0280954
0.0292956
0.0304902
0.0317223
0.0329281
0.0337747
0.0332186
0.0290131
0.0187547
0.00297221
0.0255773
0.0265888
0.0276202
0.0287958
0.0300937
0.031502
0.0330378
0.0345926
0.0352577
0.0324367
0.021895
0.00334451
0.0253602
0.0264441
0.0273469
0.0282928
0.0295938
0.0311109
0.0327649
0.0346399
0.0362249
0.0353171
0.0256648
0.00375664
0.0253512
0.0264964
0.0275355
0.028367
0.0294351
0.0308912
0.0324532
0.0343014
0.0362202
0.0369706
0.029649
0.00423596
0.000239132
0.000515216
0.000554014
0.000553614
0.000549527
0.000526905
0.00051376
0.000578753
0.00100447
0.00136444
0.00148598
0.00154112
0.000386477
0.00111766
0.0015858
0.0017773
0.00152269
0.000885854
0.000794075
0.00140839
0.00172262
0.00276131
0.00377363
0.00526306
0.000496146
0.00184203
0.00248517
0.00259299
0.00224352
0.00207508
0.00206054
0.00292776
0.00445723
0.00654201
0.00874368
0.0108726
0.000627234
0.00289592
0.00315607
0.00274385
0.00260239
0.00262251
0.00349167
0.00565872
0.00801195
0.0106696
0.0131862
0.0154124
0.0007408
0.00343578
0.00347043
0.00314135
0.003138
0.00384929
0.00585009
0.00864456
0.0113448
0.0140765
0.0165937
0.0188136
0.000848078
0.00388715
0.0039413
0.00372563
0.00415709
0.00586826
0.00856481
0.0112962
0.0139647
0.016588
0.0190028
0.0211614
0.000942017
0.00440037
0.00478191
0.00486368
0.00599103
0.00839819
0.0109638
0.0134901
0.0159736
0.0183409
0.0205794
0.0226347
0.0010565
0.00554751
0.00659687
0.00749301
0.00934117
0.0114398
0.0135662
0.0157104
0.0178657
0.0199196
0.0218552
0.0236422
0.00119312
0.00751393
0.00987649
0.0118477
0.0136053
0.0152015
0.0167465
0.018293
0.0198693
0.0214091
0.0228984
0.0243216
0.00138285
0.00903756
0.0125431
0.0149535
0.016698
0.0180347
0.0191842
0.0202598
0.0213051
0.0223468
0.0234084
0.024503
0.00156284
0.00842769
0.0135225
0.0164561
0.0183901
0.0195829
0.020667
0.021441
0.0221461
0.022851
0.0235953
0.0244072
0.00260877
0.00793694
0.0142308
0.0176397
0.0193146
0.0207968
0.0217329
0.0224006
0.022935
0.0234388
0.023972
0.0245776
0.00158393
0.00160481
0.00161697
0.00161882
0.00161949
0.00159417
0.00155588
0.00149083
0.00140174
0.00128037
0.00110091
0.000523946
0.00673606
0.00808894
0.0090351
0.00943986
0.00925913
0.00877096
0.00792995
0.00677406
0.00524176
0.00320448
0.00156714
0.000909824
0.012706
0.0141057
0.0149819
0.0153215
0.0151341
0.014464
0.0132651
0.011522
0.00920051
0.00630405
0.00280964
0.00121237
0.0172974
0.0187746
0.019801
0.0203461
0.0203694
0.0198182
0.0186128
0.0166472
0.0137492
0.00992995
0.00495063
0.00148068
0.0207242
0.0222923
0.023488
0.024276
0.024596
0.0243404
0.0233584
0.0214376
0.0182094
0.0135567
0.00729436
0.00174747
0.0230603
0.0246828
0.0260082
0.0270038
0.0276116
0.027738
0.0272031
0.0256811
0.022678
0.0175035
0.0101234
0.00202063
0.024474
0.0260924
0.0274841
0.0286328
0.0295146
0.0300705
0.0301067
0.0292101
0.0266836
0.0215081
0.0131302
0.00230688
0.0252775
0.0267719
0.0281211
0.0293267
0.0304135
0.0313651
0.0320362
0.0319943
0.0302954
0.0253704
0.0160599
0.00262245
0.025647
0.0268796
0.0280954
0.0292956
0.0304901
0.0317222
0.032928
0.0337746
0.0332186
0.0290131
0.0187546
0.00297221
0.0255773
0.0265888
0.0276202
0.0287957
0.0300937
0.031502
0.0330378
0.0345926
0.0352577
0.0324367
0.021895
0.0033445
0.0253602
0.0264441
0.0273468
0.0282928
0.0295938
0.0311109
0.0327649
0.0346399
0.0362249
0.0353171
0.0256648
0.00375664
0.0253512
0.0264963
0.0275354
0.0283669
0.0294351
0.0308911
0.0324531
0.0343013
0.0362202
0.0369706
0.029649
0.00423596
0.0157
0.0162853
0.0177471
0.0192996
0.0206539
0.0219141
0.022748
0.0233567
0.0238142
0.0242303
0.0246591
0.025146
0.0253475
0.0231151
0.022395
0.0224639
0.0229048
0.0233533
0.0237865
0.0243429
0.0248455
0.0252492
0.0256437
0.0260811
0.0320013
0.0294583
0.0276096
0.026515
0.0259859
0.0257649
0.0258364
0.0259951
0.0261725
0.0263881
0.0268042
0.0273063
0.034002
0.0322419
0.0306294
0.0292909
0.02842
0.0278933
0.0276577
0.0275767
0.0277496
0.0279767
0.0283068
0.0288188
0.0258581
0.0269891
0.0280681
0.028913
0.0298779
0.0311061
0.0324128
0.0339579
0.0358001
0.0379736
0.0381171
0.0175936
0.0268891
0.0279582
0.0289451
0.0298454
0.0307979
0.0316651
0.0326351
0.0337298
0.0351551
0.037188
0.0407556
0.0294866
0.0282925
0.029129
0.0299916
0.0307655
0.0315317
0.0321969
0.0329782
0.0337617
0.0347023
0.0361081
0.039389
0.0351782
0.0298559
0.030594
0.0312777
0.0319058
0.032401
0.0329033
0.0334699
0.0339772
0.0346073
0.0353291
0.0370883
0.0360251
0.0157001
0.0162853
0.0177471
0.0192996
0.0206539
0.0219141
0.022748
0.0233567
0.0238142
0.0242304
0.0246591
0.0251461
0.0253474
0.0231151
0.022395
0.022464
0.0229048
0.0233534
0.0237865
0.0243429
0.0248455
0.0252492
0.0256437
0.0260811
0.0320013
0.0294583
0.0276097
0.026515
0.0259859
0.025765
0.0258364
0.0259951
0.0261725
0.0263881
0.0268042
0.0273063
0.034002
0.0322419
0.0306295
0.029291
0.0284201
0.0278933
0.0276577
0.0275767
0.0277496
0.0279767
0.0283068
0.0288188
0.0258581
0.0269891
0.0280682
0.0289131
0.0298779
0.0311061
0.0324128
0.0339579
0.0358002
0.0379737
0.0381171
0.0175936
0.0268891
0.0279583
0.0289452
0.0298454
0.0307979
0.0316651
0.0326352
0.0337298
0.0351552
0.037188
0.0407557
0.0294866
0.0282925
0.029129
0.0299916
0.0307656
0.0315318
0.0321969
0.0329782
0.0337618
0.0347024
0.0361081
0.039389
0.0351783
0.0298559
0.0305941
0.0312777
0.0319058
0.032401
0.0329033
0.0334699
0.0339772
0.0346074
0.0353291
0.0370884
0.0360251
0.0157001
0.0162853
0.0177471
0.0192996
0.0206539
0.0219142
0.022748
0.0233567
0.0238142
0.0242304
0.0246591
0.0251461
0.0253475
0.0231151
0.022395
0.022464
0.0229048
0.0233534
0.0237865
0.024343
0.0248455
0.0252493
0.0256437
0.0260811
0.0320013
0.0294584
0.0276097
0.0265151
0.0259859
0.025765
0.0258364
0.0259952
0.0261725
0.0263881
0.0268042
0.0273063
0.034002
0.0322419
0.0306295
0.0292911
0.0284201
0.0278933
0.0276578
0.0275767
0.0277496
0.0279767
0.0283068
0.0288188
0.0258581
0.0269891
0.0280682
0.0289131
0.0298779
0.0311061
0.0324128
0.0339579
0.0358001
0.0379736
0.0381171
0.0175936
0.0268891
0.0279583
0.0289452
0.0298454
0.0307979
0.0316651
0.0326351
0.0337298
0.0351552
0.037188
0.0407556
0.0294866
0.0282925
0.029129
0.0299916
0.0307655
0.0315318
0.0321969
0.0329782
0.0337617
0.0347024
0.0361081
0.039389
0.0351783
0.0298559
0.030594
0.0312777
0.0319058
0.032401
0.0329033
0.0334699
0.0339772
0.0346073
0.0353291
0.0370884
0.0360251
0.0157001
0.0162853
0.0177471
0.0192996
0.0206539
0.0219141
0.022748
0.0233567
0.0238142
0.0242304
0.0246591
0.0251461
0.0253474
0.0231151
0.022395
0.022464
0.0229048
0.0233534
0.0237865
0.024343
0.0248455
0.0252493
0.0256437
0.0260811
0.0320013
0.0294583
0.0276097
0.026515
0.0259859
0.025765
0.0258364
0.0259951
0.0261725
0.0263881
0.0268042
0.0273063
0.034002
0.0322419
0.0306295
0.029291
0.0284201
0.0278933
0.0276577
0.0275767
0.0277496
0.0279767
0.0283068
0.0288188
0.0258581
0.0269891
0.0280682
0.028913
0.0298779
0.0311061
0.0324128
0.0339579
0.0358001
0.0379736
0.0381171
0.0175936
0.0268891
0.0279582
0.0289452
0.0298454
0.0307979
0.0316651
0.0326351
0.0337298
0.0351551
0.037188
0.0407556
0.0294865
0.0282925
0.029129
0.0299916
0.0307655
0.0315317
0.0321969
0.0329782
0.0337617
0.0347023
0.0361081
0.0393889
0.0351781
0.0298558
0.030594
0.0312777
0.0319058
0.0324009
0.0329032
0.0334699
0.0339771
0.0346073
0.035329
0.0370883
0.036025
0.0316498
0.0305075
0.0295513
0.0289179
0.0285606
0.0284216
0.0283652
0.0284251
0.0287264
0.0291319
0.0298318
0.0308989
0.0301015
0.0293687
0.028779
0.0284383
0.028228
0.0280313
0.0277904
0.0276678
0.0275967
0.0276332
0.0280266
0.0290708
0.0286065
0.0280391
0.0275911
0.0272374
0.0267588
0.0261587
0.0255401
0.0248126
0.0239716
0.0231305
0.0226076
0.0231367
0.0267621
0.0262565
0.0256179
0.0249213
0.024002
0.022945
0.021687
0.020155
0.0183828
0.0165005
0.0148323
0.0138789
0.0322262
0.0331072
0.0331835
0.0334266
0.0335965
0.0338023
0.0339974
0.0341624
0.0343272
0.0344918
0.0340835
0.0331686
0.0307502
0.0332508
0.0330905
0.0331508
0.0332043
0.0332574
0.0332871
0.0332596
0.0330732
0.032659
0.0321341
0.0312136
0.0256659
0.0315053
0.0319604
0.0320011
0.0320262
0.0320256
0.0319712
0.0317072
0.0313251
0.0309248
0.030392
0.0294294
0.0147564
0.0285576
0.0303173
0.0304026
0.0304229
0.0303251
0.0300975
0.0297437
0.0294527
0.0290498
0.0283921
0.0274843
0.0316499
0.0305075
0.0295514
0.0289179
0.0285606
0.0284216
0.0283652
0.0284251
0.0287264
0.0291319
0.0298318
0.0308989
0.0301015
0.0293687
0.028779
0.0284383
0.0282281
0.0280313
0.0277904
0.0276678
0.0275967
0.0276332
0.0280266
0.0290708
0.0286066
0.0280391
0.0275911
0.0272374
0.0267588
0.0261587
0.0255401
0.0248126
0.0239716
0.0231305
0.0226076
0.0231367
0.0267622
0.0262565
0.0256179
0.0249213
0.0240021
0.022945
0.021687
0.0201551
0.0183828
0.0165005
0.0148323
0.0138789
0.0322262
0.0331072
0.0331835
0.0334266
0.0335966
0.0338024
0.0339974
0.0341624
0.0343272
0.0344918
0.0340835
0.0331686
0.0307502
0.0332508
0.0330905
0.0331508
0.0332043
0.0332574
0.0332871
0.0332596
0.0330733
0.0326591
0.0321341
0.0312136
0.0256659
0.0315054
0.0319604
0.0320011
0.0320262
0.0320256
0.0319712
0.0317072
0.0313252
0.0309248
0.030392
0.0294294
0.0147564
0.0285576
0.0303173
0.0304026
0.0304229
0.0303251
0.0300975
0.0297437
0.0294527
0.0290498
0.0283921
0.0274843
0.0316499
0.0305076
0.0295514
0.028918
0.0285606
0.0284217
0.0283652
0.0284251
0.0287264
0.0291319
0.0298318
0.0308989
0.0301016
0.0293687
0.028779
0.0284383
0.0282281
0.0280313
0.0277904
0.0276678
0.0275967
0.0276332
0.0280266
0.0290708
0.0286066
0.0280391
0.0275911
0.0272374
0.0267588
0.0261587
0.0255401
0.0248126
0.0239716
0.0231305
0.0226076
0.0231367
0.0267621
0.0262565
0.0256179
0.0249213
0.024002
0.022945
0.021687
0.020155
0.0183828
0.0165005
0.0148323
0.0138789
0.0322262
0.0331072
0.0331835
0.0334266
0.0335965
0.0338023
0.0339974
0.0341624
0.0343272
0.0344918
0.0340835
0.0331686
0.0307502
0.0332507
0.0330905
0.0331508
0.0332042
0.0332574
0.0332871
0.0332596
0.0330732
0.032659
0.0321341
0.0312136
0.0256659
0.0315053
0.0319604
0.032001
0.0320262
0.0320256
0.0319711
0.0317072
0.0313251
0.0309248
0.030392
0.0294294
0.0147564
0.0285576
0.0303172
0.0304025
0.0304228
0.0303251
0.0300975
0.0297437
0.0294527
0.0290498
0.0283921
0.0274843
0.0316499
0.0305075
0.0295514
0.0289179
0.0285606
0.0284216
0.0283652
0.0284251
0.0287264
0.0291319
0.0298318
0.0308989
0.0301015
0.0293687
0.028779
0.0284383
0.0282281
0.0280313
0.0277904
0.0276678
0.0275966
0.0276332
0.0280266
0.0290708
0.0286066
0.0280391
0.0275911
0.0272374
0.0267588
0.0261587
0.0255401
0.0248126
0.0239716
0.0231305
0.0226076
0.0231367
0.0267621
0.0262565
0.0256179
0.0249213
0.024002
0.022945
0.021687
0.020155
0.0183828
0.0165005
0.0148323
0.0138789
0.0322262
0.0331072
0.0331835
0.0334265
0.0335965
0.0338023
0.0339974
0.0341624
0.0343271
0.0344917
0.0340835
0.0331686
0.0307502
0.0332507
0.0330905
0.0331508
0.0332042
0.0332574
0.0332871
0.0332595
0.0330732
0.032659
0.0321341
0.0312136
0.0256659
0.0315053
0.0319603
0.032001
0.0320262
0.0320256
0.0319711
0.0317072
0.0313251
0.0309247
0.0303919
0.0294294
0.0147564
0.0285576
0.0303172
0.0304025
0.0304228
0.030325
0.0300974
0.0297436
0.0294527
0.0290498
0.0283921
0.0274843
0.0244099
0.023668
0.022697
0.0216099
0.0202771
0.0186983
0.0167912
0.0145118
0.0118657
0.00893539
0.00545864
0.00282702
0.0213422
0.0202951
0.0190211
0.01756
0.015811
0.0137647
0.0113626
0.00861213
0.00548888
0.00266702
0.00123257
0.00119975
0.0176373
0.0162825
0.0146835
0.0128406
0.0106809
0.00820621
0.00529096
0.00238325
0.000746388
0.000379772
0.000403535
0.000512773
0.0133441
0.0116668
0.0097282
0.00749692
0.00483971
0.00214414
0.000531602
0.000198191
0.000168991
0.000266375
0.000228511
0.000248908
0.00852181
0.00648688
0.00411634
0.00179364
0.000461795
0.000185169
0.000172576
0.000220957
0.000205634
0.000204407
0.000200325
0.000197062
0.00313788
0.00130896
0.000398421
0.000293951
0.00019715
0.00021453
0.00021115
0.000209252
0.000207979
0.000205075
0.000203528
0.000201956
0.000309273
0.000784772
0.000211192
0.000218654
0.000217859
0.000216802
0.000215686
0.000214006
0.000211998
0.000209974
0.000208877
0.000207763
0.00022163
0.000226171
0.000222705
0.000222733
0.000222263
0.000221491
0.000220411
0.000218973
0.000217178
0.000215575
0.000214599
0.000213635
0.00022644
0.00022589
0.000225505
0.000225192
0.000224844
0.000224399
0.000223744
0.000222849
0.000221688
0.000220279
0.000218948
0.000218108
0.000223886
0.000223733
0.000223642
0.000223652
0.000223581
0.000223425
0.000223016
0.000222351
0.000221373
0.000220166
0.000218918
0.000218163
0.000190882
0.000192361
0.000194123
0.000195708
0.000197502
0.000199064
0.000200606
0.000201964
0.000203245
0.000204422
0.000205648
0.000206836
6.14585e-05
6.06135e-05
6.07111e-05
6.00528e-05
6.01278e-05
5.96276e-05
5.96978e-05
5.93755e-05
5.94512e-05
5.93523e-05
5.9434e-05
5.95033e-05
0.00432216
0.02469
0.028451
0.0284628
0.0284007
0.0281446
0.0278648
0.0276377
0.0273328
0.0268366
0.0260279
0.0251621
0.00415909
0.0226778
0.0264204
0.026094
0.0259147
0.0256916
0.0255113
0.0252711
0.0248284
0.024117
0.0232141
0.0222674
0.00405116
0.0207181
0.0238013
0.0234376
0.0232813
0.023131
0.0228695
0.0224551
0.0217846
0.020861
0.0198729
0.0188033
0.00393061
0.01853
0.0208374
0.0207077
0.0205315
0.0202193
0.019805
0.0190973
0.0182048
0.0171817
0.0160528
0.014785
0.00377436
0.0161845
0.0179064
0.0177661
0.0174441
0.0169055
0.0161782
0.0152986
0.0142691
0.0130849
0.011759
0.0102492
0.00355363
0.0137863
0.0150342
0.0145151
0.0139166
0.0131362
0.0122458
0.0111682
0.00999352
0.00860989
0.00703003
0.00518169
0.00328399
0.0108323
0.0118764
0.0106803
0.010159
0.00909286
0.00806965
0.00670407
0.00528564
0.00362981
0.00210501
0.000825679
0.00292588
0.00761927
0.00831887
0.00664709
0.00614602
0.00457596
0.00353645
0.00210289
0.00117322
0.000440787
0.00024435
0.000483746
0.00238518
0.00376366
0.0041505
0.00247533
0.00215759
0.000902583
0.000638665
0.000349399
0.000234686
0.000242001
0.000225349
0.000228184
0.00177306
0.000878759
0.00101641
0.000403466
0.000366662
0.000281061
0.000221184
0.000219439
0.000224926
0.000224344
0.000224768
0.000224273
0.00115413
0.000154618
0.000187428
0.000156424
0.000169433
0.000166384
0.000179487
0.00017994
0.000182946
0.000185256
0.000187337
0.000188833
0.000400479
7.46621e-05
7.25487e-05
6.87242e-05
6.81157e-05
6.56643e-05
6.5686e-05
6.34636e-05
6.37857e-05
6.22178e-05
6.2439e-05
6.13127e-05
0.0244099
0.0236681
0.022697
0.0216099
0.0202772
0.0186984
0.0167913
0.0145118
0.0118657
0.0089354
0.00545865
0.00282702
0.0213422
0.0202951
0.0190211
0.01756
0.015811
0.0137648
0.0113626
0.00861215
0.00548889
0.00266702
0.00123257
0.00119976
0.0176373
0.0162825
0.0146835
0.0128406
0.0106809
0.00820624
0.00529099
0.00238327
0.000746394
0.000379776
0.000403538
0.000512776
0.0133442
0.0116669
0.00972823
0.00749695
0.00483974
0.00214417
0.000531611
0.000198196
0.000168995
0.00026638
0.000228515
0.000248912
0.00852185
0.00648691
0.00411638
0.00179367
0.000461803
0.000185172
0.000172576
0.000220959
0.000205636
0.000204409
0.000200328
0.000197064
0.00313791
0.00130897
0.000398427
0.000293972
0.000197149
0.00021453
0.000211149
0.00020925
0.000207979
0.000205075
0.000203528
0.000201956
0.000309263
0.000784895
0.000211191
0.000218654
0.000217858
0.000216801
0.000215685
0.000214006
0.000211997
0.000209974
0.000208876
0.000207763
0.000221629
0.00022617
0.000222705
0.000222732
0.000222262
0.00022149
0.00022041
0.000218972
0.000217178
0.000215574
0.000214599
0.000213634
0.00022644
0.00022589
0.000225505
0.000225192
0.000224843
0.000224398
0.000223744
0.000222849
0.000221688
0.000220279
0.000218948
0.000218107
0.000223885
0.000223733
0.000223642
0.000223652
0.000223581
0.000223425
0.000223016
0.000222351
0.000221373
0.000220166
0.000218918
0.000218163
0.000190878
0.000192361
0.000194123
0.000195708
0.000197502
0.000199064
0.000200606
0.000201964
0.000203245
0.000204422
0.000205648
0.000206836
6.14585e-05
6.06135e-05
6.07111e-05
6.00528e-05
6.01278e-05
5.96276e-05
5.96978e-05
5.93755e-05
5.94512e-05
5.93523e-05
5.9434e-05
5.95033e-05
0.00432216
0.02469
0.028451
0.0284627
0.0284007
0.0281446
0.0278648
0.0276377
0.0273328
0.0268365
0.0260279
0.0251621
0.00415909
0.0226778
0.0264204
0.026094
0.0259147
0.0256916
0.0255113
0.0252711
0.0248284
0.024117
0.0232141
0.0222674
0.00405115
0.0207181
0.0238013
0.0234376
0.0232813
0.0231309
0.0228694
0.022455
0.0217846
0.020861
0.0198729
0.0188033
0.00393061
0.01853
0.0208373
0.0207076
0.0205315
0.0202193
0.019805
0.0190972
0.0182048
0.0171817
0.0160528
0.014785
0.00377436
0.0161845
0.0179064
0.017766
0.0174441
0.0169055
0.0161782
0.0152986
0.0142691
0.0130849
0.011759
0.0102491
0.00355363
0.0137863
0.0150342
0.014515
0.0139165
0.0131362
0.0122458
0.0111681
0.00999347
0.00860985
0.00702998
0.00518164
0.00328399
0.0108323
0.0118764
0.0106802
0.0101589
0.0090928
0.00806958
0.00670401
0.00528558
0.00362976
0.00210497
0.000825662
0.00292587
0.00761922
0.00831882
0.00664702
0.00614595
0.00457589
0.00353639
0.00210284
0.00117319
0.000440772
0.000244351
0.000483731
0.00238517
0.0037636
0.00415043
0.00247527
0.00215753
0.000902554
0.000638645
0.0003494
0.000234684
0.000242
0.00022535
0.000228184
0.00177305
0.000878738
0.00101638
0.000403456
0.000366653
0.000281058
0.000221185
0.000219439
0.000224927
0.000224345
0.000224768
0.000224273
0.00115412
0.000154617
0.000187426
0.000156424
0.000169434
0.000166385
0.000179488
0.00017994
0.000182946
0.000185256
0.000187337
0.000188834
0.000400476
7.46622e-05
7.25486e-05
6.87242e-05
6.81157e-05
6.56643e-05
6.5686e-05
6.34637e-05
6.37857e-05
6.22178e-05
6.2439e-05
6.13128e-05
0.0244099
0.023668
0.022697
0.0216099
0.0202771
0.0186983
0.0167912
0.0145118
0.0118657
0.00893539
0.00545864
0.00282702
0.0213422
0.0202951
0.0190211
0.01756
0.015811
0.0137647
0.0113626
0.00861213
0.00548888
0.00266702
0.00123257
0.00119975
0.0176373
0.0162825
0.0146835
0.0128406
0.0106809
0.00820621
0.00529096
0.00238325
0.000746392
0.000379776
0.000403538
0.000512774
0.0133442
0.0116668
0.00972819
0.00749691
0.00483971
0.00214414
0.000531605
0.000198196
0.000168996
0.000266377
0.000228516
0.000248912
0.00852181
0.00648687
0.00411634
0.00179364
0.000461796
0.00018517
0.000172579
0.00022096
0.000205637
0.000204409
0.000200328
0.000197065
0.00313787
0.00130895
0.000398422
0.000293976
0.00019715
0.00021453
0.000211149
0.000209251
0.000207979
0.000205076
0.000203528
0.000201957
0.000309259
0.000784895
0.000211192
0.000218654
0.000217859
0.000216801
0.000215686
0.000214006
0.000211997
0.000209974
0.000208876
0.000207763
0.000221629
0.000226171
0.000222705
0.000222733
0.000222263
0.000221491
0.000220411
0.000218972
0.000217178
0.000215575
0.000214599
0.000213634
0.00022644
0.00022589
0.000225505
0.000225192
0.000224844
0.000224399
0.000223744
0.000222849
0.000221688
0.000220279
0.000218948
0.000218108
0.000223886
0.000223734
0.000223642
0.000223652
0.000223582
0.000223425
0.000223016
0.000222351
0.000221373
0.000220167
0.000218918
0.000218164
0.000190879
0.000192362
0.000194123
0.000195709
0.000197502
0.000199065
0.000200606
0.000201965
0.000203246
0.000204422
0.000205649
0.000206837
6.14586e-05
6.06135e-05
6.07112e-05
6.00529e-05
6.01279e-05
5.96277e-05
5.96979e-05
5.93756e-05
5.94513e-05
5.93524e-05
5.94341e-05
5.95034e-05
0.00432216
0.02469
0.028451
0.0284627
0.0284006
0.0281446
0.0278648
0.0276377
0.0273328
0.0268365
0.0260279
0.0251621
0.00415909
0.0226778
0.0264204
0.026094
0.0259147
0.0256915
0.0255113
0.0252711
0.0248284
0.024117
0.0232141
0.0222674
0.00405115
0.0207181
0.0238012
0.0234376
0.0232813
0.0231309
0.0228694
0.022455
0.0217846
0.020861
0.0198728
0.0188032
0.00393061
0.01853
0.0208373
0.0207076
0.0205315
0.0202193
0.0198049
0.0190972
0.0182048
0.0171817
0.0160528
0.014785
0.00377436
0.0161845
0.0179064
0.017766
0.0174441
0.0169055
0.0161782
0.0152985
0.0142691
0.0130849
0.011759
0.0102491
0.00355363
0.0137863
0.0150342
0.014515
0.0139165
0.0131362
0.0122458
0.0111681
0.00999347
0.00860985
0.00702998
0.00518164
0.00328399
0.0108323
0.0118764
0.0106802
0.0101589
0.0090928
0.00806958
0.00670401
0.00528559
0.00362977
0.00210497
0.000825664
0.00292587
0.00761922
0.00831881
0.00664702
0.00614595
0.00457589
0.00353639
0.00210284
0.0011732
0.000440768
0.000244355
0.000483726
0.00238517
0.0037636
0.00415043
0.00247527
0.00215753
0.000902553
0.000638646
0.000349399
0.000234685
0.000242001
0.00022535
0.000228185
0.00177306
0.000878735
0.00101638
0.000403455
0.000366652
0.000281058
0.000221185
0.000219439
0.000224927
0.000224345
0.000224768
0.000224274
0.00115412
0.000154616
0.000187426
0.000156423
0.000169434
0.000166385
0.000179487
0.00017994
0.000182946
0.000185256
0.000187337
0.000188833
0.000400478
7.46624e-05
7.25486e-05
6.87243e-05
6.81157e-05
6.56643e-05
6.56861e-05
6.34637e-05
6.37857e-05
6.22178e-05
6.2439e-05
6.13128e-05