/*--------------------------------*- C++ -*----------------------------------*\
| =========                 |                                                 |
| \\      /  F ield         | OpenFOAM: The Open Source CFD Toolbox           |
|  \\    /   O peration     | Version:  2212                                  |
|   \\  /    A nd           | Website:  www.openfoam.com                      |
|    \\/     M anipulation  |                                                 |
\*---------------------------------------------------------------------------*/
FoamFile
{
    version     2.0;
    format      ascii;
    arch        "LSB;label=32;scalar=64";
    class       volScalarField;
    location    "0.08";
    object      p;
}
// * * * * * * * * * * * * * * * * * * * * * * * * * * * * * * * * * * * * * //

dimensions      [1 -1 -2 0 0 0 0];

internalField   nonuniform List<scalar> 
3072
(
97366.4
97354.7
97346.3
97338.2
97336.4
97335.5
97337.6
97336.9
97352.7
97380
97375.2
97336.9
97456.8
97424.2
97414.2
97405
97406.9
97411.6
97430.3
97459.5
97512.7
97598.6
97640
97654.6
97516.1
97467.4
97457.1
97452.2
97466.2
97491.7
97533.4
97586.7
97637.5
97688.7
97725
97751.6
97617.1
97562.5
97554.1
97556.5
97585.9
97635
97695.8
97752.9
97803.3
97845.7
97876.5
97901.2
97725
97680.3
97677.9
97693
97736.5
97796.6
97860.6
97916.3
97963.4
98000.4
98027.5
98048.2
97856.4
97821.8
97828.4
97855.8
97907.8
97969.2
98027.4
98075.6
98114.1
98144.2
98166.8
98183.8
97983.8
97970.7
97986.6
98025.1
98080.7
98138.4
98188.3
98227.2
98257.8
98281.3
98298.8
98311.8
98117.6
98124.2
98148.3
98193.4
98246.5
98296.5
98337.1
98367.9
98391.4
98408.9
98421.7
98430.9
98246.9
98281.5
98309
98356
98402
98442.6
98474
98497.2
98514.2
98526.5
98535.2
98541.1
98376.8
98431.2
98463.9
98510.8
98548.6
98578.9
98601
98616.5
98627.3
98634.8
98639.8
98642.8
98516.3
98593.4
98618.7
98657.2
98684.8
98704
98716.7
98724.8
98730.1
98733.6
98735.6
98736.2
98629.5
98749
98765
98786.1
98800.9
98809.9
98815.2
98818.1
98819.9
98821.2
98821.7
98821
97304.3
97288.5
97291.8
97314.4
97353.1
97405.3
97467.2
97532
97589.5
97631.2
97657.3
97634
97663.8
97663.1
97665.2
97668.8
97678.3
97692.6
97711.1
97730.7
97746.4
97765.6
97777.2
97693.6
97767.5
97776.7
97785
97793.9
97805.2
97816.6
97826.9
97832.7
97830.6
97829.4
97817.5
97692.4
97919
97931.9
97942
97949.4
97954.4
97956.7
97955.5
97947.4
97929.3
97907
97877.3
97717
98062.9
98073.1
98079.9
98083.9
98084.9
98082.5
98075.7
98062.5
98038.7
98005.5
97965.3
97789.6
98196
98204.2
98209.1
98211.2
98210.4
98206.3
98197.7
98183.5
98160.2
98125
98081.8
97909.2
98320.9
98326.7
98329.9
98330.7
98329.2
98325.3
98318.2
98306.9
98289
98260.8
98226.9
98074.3
98437.1
98440.9
98442.5
98442.6
98441.2
98438.7
98435
98429.4
98421
98406.6
98393.4
98281.1
98544.8
98546.5
98546.9
98546.2
98545.3
98544.7
98545
98546.5
98549.9
98554.6
98572.2
98524.4
98644.1
98643.9
98643
98641.5
98640.6
98641.5
98645.3
98653.6
98668.4
98692.8
98750.7
98788.7
98735.5
98733.2
98730.6
98727.9
98726.2
98727.4
98733.3
98746.3
98769.1
98808.9
98910
99044.5
98819
98814.5
98809.7
98804.7
98801.2
98801.1
98806.4
98820.4
98845.1
98890.9
99006.7
99266.6
97366.4
97354.7
97346.3
97338.2
97336.4
97335.5
97337.6
97336.9
97352.7
97380
97375.2
97336.9
97456.8
97424.2
97414.2
97405
97406.9
97411.6
97430.3
97459.5
97512.7
97598.6
97640
97654.6
97516.1
97467.4
97457.1
97452.2
97466.2
97491.7
97533.4
97586.7
97637.5
97688.7
97725
97751.6
97617.1
97562.5
97554.1
97556.5
97585.9
97635
97695.8
97752.9
97803.3
97845.7
97876.5
97901.2
97725
97680.3
97677.9
97693
97736.5
97796.6
97860.6
97916.3
97963.4
98000.4
98027.5
98048.2
97856.4
97821.8
97828.4
97855.8
97907.8
97969.2
98027.4
98075.6
98114.1
98144.2
98166.8
98183.8
97983.8
97970.7
97986.6
98025.1
98080.7
98138.4
98188.3
98227.2
98257.8
98281.3
98298.8
98311.8
98117.6
98124.2
98148.3
98193.4
98246.5
98296.5
98337.1
98367.9
98391.4
98408.9
98421.7
98430.9
98246.9
98281.5
98309
98356
98402
98442.6
98474
98497.2
98514.2
98526.5
98535.2
98541.1
98376.8
98431.2
98463.9
98510.8
98548.6
98578.9
98601
98616.5
98627.3
98634.8
98639.8
98642.8
98516.3
98593.4
98618.7
98657.2
98684.8
98704
98716.7
98724.8
98730.1
98733.6
98735.6
98736.2
98629.5
98749
98765
98786.1
98800.9
98809.9
98815.2
98818.1
98819.9
98821.2
98821.7
98821
97304.3
97288.5
97291.8
97314.4
97353.1
97405.3
97467.2
97532
97589.5
97631.2
97657.3
97634
97663.8
97663.1
97665.2
97668.8
97678.3
97692.6
97711.1
97730.7
97746.4
97765.6
97777.2
97693.7
97767.5
97776.7
97785
97793.9
97805.2
97816.6
97826.9
97832.7
97830.6
97829.4
97817.5
97692.4
97919
97931.9
97942
97949.4
97954.4
97956.7
97955.5
97947.4
97929.3
97907
97877.3
97717
98062.9
98073.1
98079.9
98083.9
98084.9
98082.5
98075.7
98062.5
98038.7
98005.5
97965.3
97789.6
98196
98204.2
98209.1
98211.2
98210.4
98206.3
98197.7
98183.5
98160.2
98125.1
98081.8
97909.2
98320.9
98326.7
98329.9
98330.7
98329.2
98325.3
98318.2
98306.9
98289
98260.8
98226.9
98074.3
98437.1
98440.9
98442.5
98442.6
98441.2
98438.7
98435
98429.4
98421
98406.7
98393.4
98281.1
98544.8
98546.5
98546.9
98546.2
98545.3
98544.7
98545
98546.5
98549.9
98554.6
98572.2
98524.4
98644.1
98643.9
98643
98641.5
98640.6
98641.5
98645.3
98653.6
98668.4
98692.8
98750.7
98788.7
98735.5
98733.2
98730.6
98727.9
98726.2
98727.4
98733.3
98746.3
98769.1
98808.9
98910
99044.5
98819
98814.5
98809.7
98804.7
98801.2
98801.1
98806.4
98820.4
98845.1
98890.9
99006.7
99266.6
97366.4
97354.7
97346.3
97338.2
97336.4
97335.5
97337.6
97336.9
97352.7
97380
97375.2
97336.9
97456.8
97424.2
97414.2
97405
97406.9
97411.6
97430.3
97459.5
97512.7
97598.6
97640
97654.6
97516.1
97467.4
97457.1
97452.2
97466.2
97491.7
97533.4
97586.7
97637.6
97688.7
97725
97751.6
97617.1
97562.5
97554.1
97556.5
97585.9
97635
97695.8
97752.9
97803.3
97845.7
97876.5
97901.2
97725
97680.3
97677.9
97693
97736.5
97796.6
97860.6
97916.3
97963.4
98000.4
98027.5
98048.2
97856.4
97821.8
97828.4
97855.8
97907.8
97969.2
98027.4
98075.6
98114.1
98144.2
98166.8
98183.8
97983.8
97970.7
97986.6
98025.1
98080.7
98138.4
98188.3
98227.2
98257.8
98281.3
98298.8
98311.8
98117.6
98124.2
98148.3
98193.4
98246.5
98296.5
98337.1
98367.9
98391.4
98408.9
98421.7
98430.9
98246.9
98281.5
98309
98356
98402
98442.6
98474
98497.2
98514.2
98526.5
98535.2
98541.1
98376.8
98431.2
98463.9
98510.8
98548.6
98578.9
98601
98616.5
98627.3
98634.8
98639.8
98642.8
98516.4
98593.4
98618.7
98657.2
98684.8
98704
98716.7
98724.8
98730.1
98733.6
98735.6
98736.2
98629.5
98749
98765
98786.1
98800.9
98809.9
98815.2
98818.1
98819.9
98821.2
98821.7
98821
97304.3
97288.5
97291.8
97314.4
97353.1
97405.3
97467.2
97532
97589.5
97631.2
97657.3
97634
97663.8
97663.1
97665.2
97668.8
97678.3
97692.6
97711.1
97730.7
97746.4
97765.6
97777.2
97693.7
97767.5
97776.7
97785
97793.9
97805.2
97816.6
97826.9
97832.7
97830.6
97829.4
97817.5
97692.4
97919
97931.9
97942
97949.4
97954.4
97956.7
97955.5
97947.4
97929.3
97907
97877.3
97717
98062.9
98073.1
98079.9
98083.9
98084.9
98082.5
98075.7
98062.5
98038.7
98005.5
97965.3
97789.6
98196
98204.2
98209.1
98211.2
98210.4
98206.3
98197.7
98183.5
98160.2
98125.1
98081.8
97909.2
98320.9
98326.7
98329.9
98330.7
98329.2
98325.3
98318.2
98306.9
98289
98260.8
98226.9
98074.3
98437.1
98440.9
98442.5
98442.6
98441.2
98438.7
98435
98429.4
98421.1
98406.7
98393.4
98281.1
98544.8
98546.5
98546.9
98546.2
98545.3
98544.7
98545
98546.5
98549.9
98554.6
98572.2
98524.4
98644.1
98643.9
98643
98641.5
98640.6
98641.5
98645.3
98653.6
98668.4
98692.8
98750.7
98788.7
98735.5
98733.2
98730.6
98727.9
98726.2
98727.4
98733.3
98746.3
98769.1
98808.9
98910
99044.5
98819
98814.5
98809.7
98804.7
98801.2
98801.1
98806.4
98820.4
98845.1
98890.9
99006.7
99266.6
97366.4
97354.7
97346.3
97338.2
97336.4
97335.5
97337.6
97336.9
97352.7
97380
97375.2
97336.9
97456.8
97424.2
97414.2
97405
97406.9
97411.6
97430.3
97459.5
97512.7
97598.6
97640
97654.6
97516.1
97467.4
97457.1
97452.2
97466.2
97491.7
97533.4
97586.7
97637.5
97688.7
97725
97751.6
97617.1
97562.5
97554.1
97556.5
97585.9
97635
97695.8
97752.9
97803.3
97845.7
97876.5
97901.2
97725
97680.3
97677.9
97693
97736.5
97796.6
97860.6
97916.3
97963.4
98000.4
98027.5
98048.2
97856.4
97821.8
97828.4
97855.8
97907.8
97969.2
98027.4
98075.6
98114.1
98144.2
98166.8
98183.8
97983.8
97970.7
97986.6
98025.1
98080.7
98138.4
98188.3
98227.2
98257.8
98281.3
98298.8
98311.8
98117.6
98124.2
98148.3
98193.4
98246.5
98296.5
98337.1
98367.9
98391.4
98408.9
98421.7
98430.9
98246.9
98281.5
98309
98356
98402
98442.6
98474
98497.2
98514.2
98526.5
98535.2
98541.1
98376.8
98431.2
98463.9
98510.8
98548.6
98578.9
98601
98616.5
98627.3
98634.8
98639.8
98642.8
98516.3
98593.4
98618.7
98657.2
98684.8
98704
98716.7
98724.8
98730.1
98733.6
98735.6
98736.2
98629.5
98749
98765
98786.1
98800.9
98809.9
98815.2
98818.1
98819.9
98821.2
98821.7
98821
97304.3
97288.5
97291.8
97314.4
97353.1
97405.3
97467.2
97532
97589.5
97631.2
97657.3
97634
97663.8
97663.1
97665.2
97668.8
97678.3
97692.6
97711.1
97730.7
97746.4
97765.6
97777.2
97693.7
97767.5
97776.7
97785
97793.9
97805.2
97816.6
97826.9
97832.7
97830.6
97829.4
97817.5
97692.4
97919
97931.9
97942
97949.4
97954.4
97956.7
97955.5
97947.4
97929.3
97907
97877.3
97717
98062.9
98073.1
98079.9
98083.9
98084.9
98082.5
98075.7
98062.5
98038.7
98005.5
97965.3
97789.6
98196
98204.2
98209.1
98211.2
98210.4
98206.3
98197.7
98183.5
98160.2
98125.1
98081.8
97909.2
98320.9
98326.7
98329.9
98330.7
98329.2
98325.3
98318.2
98306.9
98289
98260.8
98226.9
98074.3
98437.1
98440.9
98442.5
98442.6
98441.2
98438.7
98435
98429.4
98421
98406.7
98393.4
98281.1
98544.8
98546.5
98546.9
98546.2
98545.3
98544.7
98545
98546.5
98549.9
98554.6
98572.2
98524.4
98644.1
98643.9
98643
98641.5
98640.6
98641.5
98645.3
98653.6
98668.4
98692.8
98750.7
98788.7
98735.5
98733.2
98730.6
98727.9
98726.2
98727.4
98733.3
98746.3
98769.1
98808.9
98910
99044.5
98819
98814.5
98809.7
98804.7
98801.2
98801.1
98806.4
98820.4
98845.1
98890.9
99006.7
99266.6
98890.2
98892.9
98886.4
98885.3
98887.5
98890.2
98891.8
98893.2
98894.7
98896.3
98897.2
98896.8
98930.1
98912.9
98919.8
98927.4
98934.8
98941
98945.8
98950.3
98954.8
98959.4
98962.7
98964.5
98947
98941.7
98949.3
98957.4
98966
98975.1
98984.3
98993.8
99003.6
99013.5
99021.4
99027.9
98960.4
98963.3
98969.3
98976.8
98986.3
98998.3
99012.2
99028
99045.4
99063.4
99080.3
99096.1
98894.6
98887.6
98880.1
98871.8
98865
98861.5
98863.5
98874.2
98893.3
98925.5
98964.2
99064.2
98962.9
98952.6
98942.1
98929.1
98917.5
98908.4
98904.4
98909.1
98921
98944.3
98958.1
98999.8
99026.6
99010.5
98996.5
98977.3
98958.9
98941.6
98929.1
98925
98928.5
98944.8
98952.2
98975.6
99095.1
99066.6
99047.7
99019.6
98992.7
98964.7
98940.7
98923.7
98916.3
98925.3
98933.3
98959.2
98890.2
98892.9
98886.4
98885.3
98887.5
98890.2
98891.8
98893.2
98894.7
98896.3
98897.2
98896.8
98930.1
98912.9
98919.8
98927.4
98934.8
98941
98945.8
98950.3
98954.8
98959.4
98962.7
98964.5
98947
98941.7
98949.3
98957.4
98966
98975.1
98984.3
98993.8
99003.6
99013.5
99021.4
99027.9
98960.4
98963.3
98969.3
98976.8
98986.3
98998.3
99012.2
99028
99045.4
99063.4
99080.3
99096.1
98894.6
98887.6
98880.1
98871.8
98865
98861.5
98863.5
98874.2
98893.3
98925.5
98964.2
99064.2
98962.9
98952.6
98942.1
98929.1
98917.5
98908.4
98904.4
98909.1
98921
98944.3
98958.1
98999.8
99026.6
99010.5
98996.5
98977.3
98958.9
98941.6
98929.1
98925
98928.5
98944.8
98952.2
98975.6
99095.1
99066.6
99047.7
99019.6
98992.7
98964.7
98940.7
98923.7
98916.3
98925.3
98933.3
98959.2
98890.2
98892.9
98886.4
98885.3
98887.5
98890.2
98891.8
98893.2
98894.7
98896.3
98897.2
98896.8
98930.1
98912.9
98919.8
98927.4
98934.8
98941
98945.8
98950.3
98954.8
98959.4
98962.7
98964.5
98947
98941.7
98949.3
98957.4
98966
98975.1
98984.3
98993.8
99003.6
99013.5
99021.4
99027.9
98960.4
98963.3
98969.3
98976.8
98986.3
98998.3
99012.2
99028
99045.4
99063.4
99080.3
99096.1
98894.6
98887.6
98880.1
98871.8
98865
98861.5
98863.5
98874.2
98893.3
98925.5
98964.2
99064.2
98962.9
98952.6
98942.1
98929.1
98917.5
98908.4
98904.4
98909.1
98921
98944.3
98958.1
98999.8
99026.6
99010.5
98996.5
98977.3
98958.9
98941.6
98929.1
98925
98928.5
98944.8
98952.2
98975.6
99095.1
99066.6
99047.7
99019.6
98992.7
98964.7
98940.7
98923.7
98916.3
98925.3
98933.3
98959.2
98890.2
98892.9
98886.4
98885.3
98887.5
98890.2
98891.8
98893.2
98894.7
98896.3
98897.2
98896.8
98930.1
98912.9
98919.8
98927.4
98934.8
98941
98945.8
98950.3
98954.8
98959.4
98962.7
98964.5
98947
98941.7
98949.3
98957.4
98966
98975.1
98984.3
98993.8
99003.6
99013.5
99021.4
99027.9
98960.4
98963.3
98969.3
98976.8
98986.3
98998.3
99012.2
99028
99045.4
99063.4
99080.3
99096.1
98894.6
98887.6
98880.1
98871.8
98865
98861.5
98863.5
98874.2
98893.3
98925.5
98964.2
99064.2
98962.9
98952.6
98942.1
98929.1
98917.5
98908.4
98904.4
98909.1
98921
98944.3
98958.1
98999.8
99026.6
99010.5
98996.5
98977.3
98958.9
98941.6
98929.1
98925
98928.5
98944.8
98952.2
98975.6
99095.1
99066.6
99047.7
99019.6
98992.7
98964.7
98940.7
98923.7
98916.3
98925.3
98933.3
98959.2
98977.5
98985.9
98991.7
98998.2
99006.4
99017.1
99029.8
99044.4
99060.6
99077.9
99095
99113.2
99001.3
99008.4
99013.9
99020
99026.6
99034.2
99042.3
99050.9
99059.5
99068.9
99077.3
99091.5
99020.8
99026.1
99030.6
99035.4
99040.2
99045.3
99050.1
99054.8
99058.5
99063.8
99067.9
99073.2
99035.3
99039
99042.1
99045.3
99048.2
99051.1
99053.4
99055.5
99056.2
99059.1
99055.7
99030.3
99126.4
99099.9
99081.1
99050.7
99023.5
98993.6
98967.2
98946.1
98933.9
98935.8
98940.5
98963.4
99126.3
99097.9
99088.1
99063.7
99044.1
99021.8
99003
98987.8
98978.9
98978.8
98981
98993.4
99147.2
99098
99096.8
99075
99060.3
99042.4
99028
99016.1
99009.1
99008
99009.1
99016.1
99191.8
99096.3
99103.7
99084.6
99072.8
99057.9
99046.3
99036.5
99030.5
99028.5
99028.5
99032.3
98977.5
98985.9
98991.7
98998.2
99006.4
99017.1
99029.8
99044.4
99060.6
99077.9
99095
99113.2
99001.3
99008.4
99013.9
99020
99026.6
99034.2
99042.3
99050.9
99059.5
99068.9
99077.3
99091.5
99020.8
99026.1
99030.6
99035.4
99040.2
99045.3
99050.1
99054.8
99058.5
99063.8
99067.9
99073.2
99035.3
99039
99042.1
99045.3
99048.2
99051.1
99053.4
99055.5
99056.2
99059.1
99055.7
99030.3
99126.4
99099.9
99081.1
99050.7
99023.5
98993.6
98967.3
98946.1
98933.9
98935.8
98940.5
98963.4
99126.3
99097.9
99088.1
99063.7
99044.1
99021.8
99003
98987.8
98978.9
98978.8
98981
98993.4
99147.2
99098
99096.8
99075
99060.3
99042.4
99028
99016.1
99009.1
99008
99009.1
99016.1
99191.8
99096.3
99103.7
99084.6
99072.8
99057.9
99046.3
99036.5
99030.5
99028.5
99028.5
99032.3
98977.5
98985.9
98991.7
98998.2
99006.4
99017.1
99029.8
99044.4
99060.6
99077.9
99095
99113.2
99001.3
99008.4
99013.9
99020
99026.6
99034.2
99042.3
99050.9
99059.5
99068.9
99077.3
99091.5
99020.8
99026.1
99030.6
99035.4
99040.2
99045.3
99050.1
99054.8
99058.5
99063.8
99067.9
99073.2
99035.3
99039
99042.1
99045.3
99048.2
99051.1
99053.4
99055.5
99056.2
99059.1
99055.7
99030.3
99126.4
99099.9
99081.1
99050.7
99023.5
98993.6
98967.3
98946.1
98933.9
98935.8
98940.5
98963.4
99126.3
99097.9
99088.1
99063.7
99044.1
99021.8
99003
98987.8
98978.9
98978.8
98981
98993.4
99147.2
99098
99096.8
99075
99060.3
99042.4
99028
99016.1
99009.1
99008
99009.1
99016.1
99191.8
99096.3
99103.7
99084.6
99072.8
99057.9
99046.3
99036.5
99030.5
99028.5
99028.5
99032.3
98977.5
98985.9
98991.7
98998.2
99006.4
99017.1
99029.8
99044.4
99060.6
99077.9
99095
99113.2
99001.3
99008.4
99013.9
99020
99026.6
99034.2
99042.3
99050.9
99059.5
99068.9
99077.3
99091.5
99020.8
99026.1
99030.6
99035.4
99040.2
99045.3
99050.1
99054.8
99058.5
99063.8
99067.9
99073.2
99035.3
99039
99042.1
99045.3
99048.2
99051.1
99053.4
99055.5
99056.2
99059.1
99055.7
99030.3
99126.4
99099.9
99081.1
99050.7
99023.5
98993.6
98967.3
98946.1
98933.9
98935.8
98940.5
98963.4
99126.3
99097.9
99088.1
99063.7
99044.1
99021.8
99003
98987.8
98978.9
98978.8
98981
98993.4
99147.2
99098
99096.8
99075
99060.3
99042.4
99028
99016.1
99009.1
99008
99009.1
99016.1
99191.8
99096.3
99103.7
99084.6
99072.8
99057.9
99046.3
99036.5
99030.5
99028.5
99028.5
99032.3
99045.3
99047.5
99049.1
99050.7
99051.8
99052.8
99052.8
99052.3
99048.7
99043.7
99032.4
98979.2
99051.5
99052.2
99052.5
99052.8
99052.5
99052.1
99050.3
99047.5
99042.6
99039.6
99034.8
99010.2
99054.7
99054.4
99053.7
99053.2
99051.8
99050.1
99047.2
99045.9
99043.3
99038.7
99033.3
99014.7
99056.2
99055.2
99053.7
99052.2
99050.1
99049.3
99048.2
99046.3
99043.3
99039
99034.7
99022.5
99056.5
99054.8
99052.9
99052.3
99051.3
99050
99047.9
99045.5
99042.5
99038.6
99034.6
99026.2
99056.5
99055.3
99054
99052.7
99051.1
99049.6
99047.8
99045.6
99042.7
99039.1
99035.7
99029.5
99057.5
99055.9
99054.1
99052.7
99051.1
99049.5
99047.4
99045.1
99042.3
99039.1
99036
99031.7
99057.7
99056
99054.3
99052.8
99051.1
99049.4
99047.4
99045.2
99042.5
99039.5
99036.7
99033.3
99058.1
99056.3
99054.3
99052.8
99051
99049.3
99047.1
99045
99042.3
99039.6
99037
99034.4
99058.4
99056.3
99054.6
99052.8
99051.1
99049.2
99047.2
99044.9
99042.4
99039.8
99037.4
99035.2
99058.4
99056.5
99054.5
99052.9
99051
99049.2
99047.1
99044.9
99042.3
99040
99037.5
99035.7
99058.7
99056.4
99054.7
99052.8
99051.1
99049.1
99047.2
99044.8
99042.4
99039.9
99037.6
99035.8
99289
99091.1
99107.3
99091.3
99081.6
99069.1
99059.5
99051.3
99045.9
99043.3
99042.1
99043.8
99263.3
99086.4
99108.3
99095
99087.4
99076.7
99068.7
99061.5
99056.4
99053.1
99051.1
99051.2
99244.8
99085.8
99108.8
99096.5
99091
99081.8
99074.6
99068
99062.8
99059.1
99056.5
99055.6
99209.6
99082.9
99107.8
99096.7
99092.8
99084.9
99078
99071.8
99066.5
99062.6
99059.5
99057.7
99176.6
99080.7
99106.8
99096.6
99093.3
99086.5
99079.7
99073.7
99068.4
99064.4
99061
99058.8
99147.8
99081.3
99106
99096.9
99093
99087.1
99080.4
99074.7
99069.3
99065.1
99061.4
99058.7
99121
99085.2
99105.1
99097.8
99092.9
99087.2
99080.5
99074.9
99069.5
99065.4
99061.9
99059.6
99099.2
99095.9
99104.9
99099.2
99092.8
99087.3
99080.6
99075.2
99070.1
99066.2
99062.8
99060.1
99078.7
99106.7
99104.5
99101
99093.3
99087.9
99081.3
99076.2
99070.8
99066.9
99063.1
99060.6
99074.6
99121.7
99106.8
99103.3
99095.1
99088.5
99082
99076.4
99071.4
99067.2
99063.7
99060.7
99029.6
99130.8
99107.5
99105
99096.2
99089.2
99082.5
99077
99071.6
99067.6
99063.8
99061.1
99103.4
99170.1
99113.7
99107.5
99097.9
99089.4
99083.1
99077
99072.1
99067.6
99064.2
99061
99045.3
99047.5
99049.1
99050.7
99051.8
99052.8
99052.8
99052.3
99048.7
99043.7
99032.4
98979.2
99051.5
99052.2
99052.5
99052.8
99052.5
99052.1
99050.3
99047.5
99042.6
99039.6
99034.8
99010.2
99054.7
99054.4
99053.7
99053.2
99051.8
99050.1
99047.2
99045.9
99043.3
99038.7
99033.3
99014.7
99056.2
99055.2
99053.7
99052.2
99050.1
99049.3
99048.2
99046.3
99043.3
99039
99034.7
99022.5
99056.5
99054.8
99052.9
99052.3
99051.3
99050
99047.9
99045.5
99042.5
99038.6
99034.6
99026.2
99056.5
99055.3
99054
99052.7
99051.1
99049.6
99047.8
99045.6
99042.7
99039.1
99035.7
99029.5
99057.5
99055.9
99054.1
99052.7
99051.1
99049.5
99047.4
99045.1
99042.3
99039.1
99036
99031.7
99057.7
99056
99054.3
99052.8
99051.1
99049.4
99047.4
99045.2
99042.5
99039.5
99036.7
99033.3
99058.1
99056.3
99054.3
99052.8
99051
99049.3
99047.1
99045
99042.3
99039.6
99037
99034.4
99058.4
99056.3
99054.6
99052.8
99051.1
99049.2
99047.2
99044.9
99042.4
99039.8
99037.4
99035.2
99058.4
99056.5
99054.5
99052.9
99051
99049.2
99047.1
99044.9
99042.3
99040
99037.5
99035.7
99058.7
99056.4
99054.7
99052.8
99051.1
99049.1
99047.2
99044.8
99042.4
99039.9
99037.6
99035.8
99289
99091.1
99107.3
99091.3
99081.6
99069.1
99059.5
99051.3
99045.9
99043.3
99042.1
99043.8
99263.3
99086.4
99108.3
99095
99087.4
99076.7
99068.7
99061.5
99056.4
99053.1
99051.1
99051.3
99244.8
99085.8
99108.8
99096.5
99091
99081.8
99074.6
99068
99062.8
99059.1
99056.5
99055.6
99209.6
99082.9
99107.8
99096.7
99092.8
99084.9
99078
99071.8
99066.5
99062.6
99059.5
99057.7
99176.6
99080.7
99106.8
99096.6
99093.3
99086.5
99079.7
99073.7
99068.4
99064.4
99061
99058.8
99147.8
99081.3
99106
99096.9
99093
99087.1
99080.4
99074.7
99069.3
99065.1
99061.4
99058.7
99121
99085.2
99105.1
99097.8
99092.9
99087.2
99080.5
99074.9
99069.5
99065.4
99061.9
99059.6
99099.2
99095.9
99104.9
99099.2
99092.8
99087.3
99080.6
99075.2
99070.1
99066.2
99062.8
99060.1
99078.7
99106.7
99104.5
99101
99093.3
99087.9
99081.3
99076.2
99070.8
99066.9
99063.1
99060.6
99074.6
99121.7
99106.8
99103.3
99095.1
99088.5
99082
99076.4
99071.4
99067.2
99063.7
99060.7
99029.6
99130.8
99107.5
99105
99096.2
99089.2
99082.5
99077
99071.6
99067.6
99063.8
99061.1
99103.4
99170.1
99113.7
99107.5
99097.9
99089.4
99083.1
99077
99072.1
99067.6
99064.2
99061
99045.3
99047.5
99049.1
99050.7
99051.8
99052.8
99052.8
99052.3
99048.7
99043.7
99032.4
98979.2
99051.5
99052.2
99052.5
99052.8
99052.5
99052.1
99050.3
99047.5
99042.6
99039.6
99034.8
99010.2
99054.7
99054.4
99053.7
99053.2
99051.8
99050.1
99047.2
99045.9
99043.3
99038.7
99033.3
99014.7
99056.2
99055.2
99053.7
99052.2
99050.1
99049.3
99048.2
99046.3
99043.3
99039
99034.7
99022.5
99056.5
99054.8
99052.9
99052.3
99051.3
99050
99048
99045.5
99042.5
99038.6
99034.6
99026.2
99056.5
99055.3
99054
99052.7
99051.1
99049.6
99047.8
99045.6
99042.7
99039.1
99035.7
99029.5
99057.5
99055.9
99054.1
99052.7
99051.1
99049.5
99047.4
99045.1
99042.3
99039.1
99036
99031.7
99057.7
99056
99054.3
99052.8
99051.1
99049.4
99047.4
99045.2
99042.5
99039.5
99036.7
99033.3
99058.1
99056.3
99054.3
99052.8
99051
99049.3
99047.1
99045
99042.3
99039.6
99037
99034.4
99058.4
99056.3
99054.6
99052.8
99051.1
99049.2
99047.2
99044.9
99042.4
99039.8
99037.4
99035.2
99058.4
99056.5
99054.5
99052.9
99051
99049.2
99047.1
99044.9
99042.3
99040
99037.5
99035.7
99058.7
99056.4
99054.7
99052.8
99051.1
99049.1
99047.2
99044.8
99042.4
99039.9
99037.6
99035.8
99289
99091.1
99107.3
99091.3
99081.6
99069.1
99059.5
99051.3
99045.9
99043.3
99042.1
99043.8
99263.3
99086.4
99108.3
99095
99087.4
99076.7
99068.7
99061.5
99056.4
99053.1
99051.1
99051.3
99244.8
99085.8
99108.8
99096.5
99091
99081.8
99074.6
99068
99062.8
99059.1
99056.5
99055.6
99209.6
99082.9
99107.8
99096.7
99092.8
99084.9
99078
99071.8
99066.5
99062.6
99059.5
99057.7
99176.6
99080.7
99106.8
99096.6
99093.3
99086.5
99079.7
99073.7
99068.4
99064.4
99061
99058.8
99147.8
99081.3
99106
99096.9
99093
99087.1
99080.4
99074.7
99069.3
99065.1
99061.4
99058.7
99121
99085.2
99105.1
99097.8
99092.9
99087.2
99080.5
99074.9
99069.5
99065.4
99061.9
99059.6
99099.2
99095.9
99104.9
99099.2
99092.8
99087.3
99080.6
99075.2
99070.1
99066.2
99062.8
99060.1
99078.7
99106.7
99104.5
99101
99093.3
99087.9
99081.3
99076.2
99070.8
99066.9
99063.1
99060.6
99074.6
99121.7
99106.8
99103.3
99095.1
99088.5
99082
99076.4
99071.4
99067.2
99063.7
99060.7
99029.6
99130.8
99107.5
99105
99096.2
99089.2
99082.5
99077
99071.6
99067.6
99063.8
99061.1
99103.4
99170.1
99113.7
99107.5
99097.9
99089.4
99083.1
99077
99072.1
99067.6
99064.2
99061
99045.3
99047.5
99049.1
99050.7
99051.8
99052.8
99052.8
99052.3
99048.7
99043.7
99032.4
98979.2
99051.5
99052.2
99052.5
99052.8
99052.5
99052.1
99050.3
99047.5
99042.6
99039.6
99034.8
99010.2
99054.7
99054.4
99053.7
99053.2
99051.8
99050.1
99047.2
99045.9
99043.3
99038.7
99033.3
99014.7
99056.2
99055.2
99053.7
99052.2
99050.1
99049.3
99048.2
99046.3
99043.3
99039
99034.7
99022.5
99056.5
99054.8
99052.9
99052.3
99051.3
99050
99047.9
99045.5
99042.5
99038.6
99034.6
99026.2
99056.5
99055.3
99054
99052.7
99051.1
99049.6
99047.8
99045.6
99042.7
99039.1
99035.7
99029.5
99057.5
99055.9
99054.1
99052.7
99051.1
99049.5
99047.4
99045.1
99042.3
99039.1
99036
99031.7
99057.7
99056
99054.3
99052.8
99051.1
99049.4
99047.4
99045.2
99042.5
99039.5
99036.7
99033.3
99058.1
99056.3
99054.3
99052.8
99051
99049.3
99047.1
99045
99042.3
99039.6
99037
99034.4
99058.4
99056.3
99054.6
99052.8
99051.1
99049.2
99047.2
99044.9
99042.4
99039.8
99037.4
99035.2
99058.4
99056.5
99054.5
99052.9
99051
99049.2
99047.1
99044.9
99042.3
99040
99037.5
99035.7
99058.7
99056.4
99054.7
99052.8
99051.1
99049.1
99047.2
99044.8
99042.4
99039.9
99037.6
99035.8
99289
99091.1
99107.3
99091.3
99081.6
99069.1
99059.5
99051.3
99045.9
99043.3
99042.1
99043.8
99263.3
99086.4
99108.3
99095
99087.4
99076.7
99068.7
99061.5
99056.4
99053.1
99051.1
99051.3
99244.8
99085.8
99108.8
99096.5
99091
99081.8
99074.6
99068
99062.8
99059.1
99056.5
99055.6
99209.6
99082.9
99107.8
99096.7
99092.8
99084.9
99078
99071.8
99066.5
99062.6
99059.5
99057.7
99176.6
99080.7
99106.8
99096.6
99093.3
99086.5
99079.7
99073.7
99068.4
99064.4
99061
99058.8
99147.8
99081.3
99106
99096.9
99093
99087.1
99080.4
99074.7
99069.3
99065.1
99061.4
99058.7
99121
99085.2
99105.1
99097.8
99092.9
99087.2
99080.5
99074.9
99069.5
99065.4
99061.9
99059.6
99099.2
99095.9
99104.9
99099.2
99092.8
99087.3
99080.6
99075.2
99070.1
99066.2
99062.8
99060.1
99078.7
99106.7
99104.5
99101
99093.3
99087.9
99081.3
99076.2
99070.8
99066.9
99063.1
99060.6
99074.6
99121.7
99106.8
99103.3
99095.1
99088.5
99082
99076.4
99071.4
99067.2
99063.7
99060.7
99029.6
99130.8
99107.5
99105
99096.2
99089.2
99082.5
99077
99071.6
99067.6
99063.8
99061.1
99103.4
99170.1
99113.7
99107.5
99097.9
99089.4
99083.1
99077
99072.1
99067.6
99064.2
99061
)
;

boundaryField
{
    rotor
    {
        type            zeroGradient;
    }
    stator
    {
        type            zeroGradient;
    }
    front
    {
        type            empty;
    }
    back
    {
        type            empty;
    }
}


// ************************************************************************* //
