/*--------------------------------*- C++ -*----------------------------------*\
| =========                 |                                                 |
| \\      /  F ield         | OpenFOAM: The Open Source CFD Toolbox           |
|  \\    /   O peration     | Version:  2212                                  |
|   \\  /    A nd           | Website:  www.openfoam.com                      |
|    \\/     M anipulation  |                                                 |
\*---------------------------------------------------------------------------*/
FoamFile
{
    version     2.0;
    format      ascii;
    arch        "LSB;label=32;scalar=64";
    class       volScalarField;
    location    "30";
    object      p;
}
// * * * * * * * * * * * * * * * * * * * * * * * * * * * * * * * * * * * * * //

dimensions      [0 2 -2 0 0 0 0];

internalField   nonuniform List<scalar> 
2000
(
111.019
108.573
107.43
107.066
106.965
106.96
106.993
107.032
107.061
107.071
107.056
107.015
106.946
106.85
106.726
106.574
106.394
106.187
105.952
105.691
105.402
105.087
104.744
104.375
103.978
103.555
103.104
102.626
102.121
101.589
101.029
100.442
99.8269
99.1846
98.5147
97.817
97.0918
96.3388
95.5582
94.7499
93.9141
93.0507
92.1598
91.2415
90.2959
89.3231
88.3232
87.2963
86.2426
85.1623
84.0555
82.9223
81.763
80.5778
79.3668
78.1303
76.8685
75.5816
74.2698
72.9334
71.5727
70.1878
68.779
67.3466
65.8909
64.412
62.9103
61.3861
59.8396
58.2711
56.6808
55.0691
53.4363
51.7826
50.1083
48.4137
46.6992
44.9651
43.2117
41.4395
39.6489
37.8404
36.0148
34.1727
32.3152
30.4438
28.5602
26.6669
24.7673
22.8661
20.9698
19.0872
17.2298
15.4118
13.647
11.9432
10.2897
7.73889
5.37173
2.31222
109.131
108.109
107.469
107.167
107.016
106.939
106.903
106.886
106.869
106.844
106.803
106.742
106.659
106.552
106.42
106.262
106.078
105.869
105.632
105.37
105.081
104.765
104.423
104.055
103.659
103.237
102.787
102.311
101.807
101.276
100.718
100.133
99.5202
98.8798
98.2119
97.5165
96.7934
96.0427
95.2645
94.4587
93.6253
92.7645
91.8762
90.9606
90.0177
89.0476
88.0506
87.0266
85.9758
84.8984
83.7945
82.6643
81.508
80.3258
79.1179
77.8844
76.6257
75.3419
74.0332
72.6999
71.3422
69.9604
68.5548
67.1255
65.6728
64.1971
62.6985
61.1773
59.6339
58.0684
56.4812
54.8726
53.2427
51.592
49.9208
48.2292
46.5177
44.7865
43.0361
41.2668
39.479
37.6732
35.85
34.01
32.1542
30.2837
28.3997
26.5042
24.5995
22.689
20.777
18.8693
16.9737
15.1002
13.2578
11.4513
9.71356
6.60497
3.44246
1.36558
107.942
107.601
107.292
107.086
106.952
106.86
106.796
106.749
106.706
106.658
106.599
106.525
106.431
106.316
106.178
106.016
105.83
105.619
105.382
105.119
104.831
104.516
104.175
103.807
103.413
102.992
102.544
102.07
101.568
101.039
100.483
99.8991
99.2881
98.6497
97.9837
97.2902
96.5692
95.8206
95.0444
94.2407
93.4094
92.5507
91.6646
90.7512
89.8106
88.8428
87.8479
86.8262
85.7777
84.7026
83.6011
82.4732
81.3193
80.1395
78.9339
77.7028
76.4464
75.1649
73.8586
72.5277
71.1724
69.7929
68.3896
66.9627
65.5124
64.0389
62.5427
61.0238
59.4827
57.9195
56.3346
54.7282
53.1006
51.4522
49.7831
48.0937
46.3843
44.6553
42.9069
41.1394
39.3534
37.5491
35.7272
33.888
32.0323
30.1608
28.2746
26.3748
24.4629
22.541
20.6115
18.6782
16.7459
14.8218
12.9132
11.0184
9.12509
6.09969
2.16662
0.422151
107.265
107.176
107.038
106.915
106.818
106.735
106.664
106.601
106.542
106.478
106.405
106.318
106.215
106.093
105.949
105.784
105.595
105.383
105.146
104.883
104.596
104.282
103.943
103.577
103.185
102.766
102.321
101.849
101.349
100.823
100.269
99.6883
99.0799
98.444
97.7807
97.0898
96.3713
95.6253
94.8517
94.0505
93.2218
92.3656
91.482
90.5711
89.633
88.6676
87.6753
86.656
85.6099
84.5372
83.4381
82.3126
81.1611
79.9835
78.7803
77.5515
76.2974
75.0182
73.7142
72.3855
71.0324
69.6552
68.254
66.8292
65.381
63.9097
62.4156
60.8988
59.3597
57.7986
56.2157
54.6113
52.9857
51.3391
49.6719
47.9844
46.2768
44.5495
42.8027
41.0368
39.2521
37.4489
35.6277
33.7888
31.9327
30.0598
28.1709
26.2665
24.3475
22.4147
20.4696
18.514
16.5508
14.5852
12.6228
10.6573
8.64862
5.84375
2.15064
0.269913
106.802
106.823
106.783
106.727
106.668
106.6
106.53
106.459
106.388
106.311
106.226
106.128
106.015
105.884
105.735
105.565
105.373
105.158
104.92
104.657
104.37
104.058
103.72
103.356
102.966
102.55
102.107
101.637
101.141
100.618
100.067
99.4889
98.8836
98.2508
97.5905
96.9026
96.1872
95.4441
94.6735
93.8753
93.0495
92.1962
91.3154
90.4073
89.4719
88.5093
87.5197
86.503
85.4596
84.3895
83.2929
82.1699
81.0208
79.8458
78.6449
77.4185
76.1668
74.8899
73.5881
72.2616
70.9107
69.5356
68.1366
66.7139
65.2678
63.7985
62.3064
60.7916
59.2545
57.6952
56.1142
54.5117
52.8879
51.2431
49.5777
47.8918
46.1859
44.4601
42.7148
40.9502
39.1667
37.3646
35.5441
33.7055
31.8492
29.9754
28.0844
26.1766
24.2522
22.3115
20.355
18.3832
16.3978
14.402
12.4003
10.3873
8.32312
5.73441
2.37297
0.313729
106.454
106.534
106.556
106.551
106.525
106.474
106.409
106.336
106.257
106.17
106.074
105.966
105.843
105.705
105.548
105.372
105.176
104.958
104.717
104.454
104.166
103.854
103.516
103.154
102.765
102.351
101.911
101.443
100.95
100.429
99.881
99.3059
98.7036
98.0738
97.4166
96.7317
96.0193
95.2793
94.5117
93.7164
92.8936
92.0432
91.1653
90.2601
89.3275
88.3676
87.3807
86.3667
85.3259
84.2584
83.1643
82.0438
80.8972
79.7245
78.526
77.3019
76.0524
74.7778
73.4781
72.1538
70.805
69.432
68.035
66.6143
65.1701
63.7028
62.2125
60.6996
59.1642
57.6068
56.0275
54.4266
52.8045
51.1613
49.4975
47.8132
46.1087
44.3844
42.6405
40.8772
39.0948
37.2936
35.4739
33.6359
31.7797
29.9055
28.0135
26.1037
24.1761
22.2306
20.267
18.2852
16.2856
14.27
12.242
10.2003
8.11648
5.69842
2.62405
0.432253
106.189
106.305
106.367
106.399
106.398
106.363
106.304
106.231
106.148
106.055
105.95
105.833
105.703
105.556
105.393
105.211
105.01
104.788
104.544
104.278
103.989
103.676
103.339
102.977
102.59
102.177
101.738
101.273
100.781
100.262
99.7171
99.1446
98.545
97.918
97.2635
96.5815
95.872
95.1348
94.37
93.5776
92.7575
91.9099
91.0348
90.1322
89.2023
88.2451
87.2607
86.2493
85.2109
84.1458
83.0541
81.936
80.7917
79.6212
78.4249
77.203
75.9556
74.683
73.3854
72.063
70.7162
69.345
67.9499
66.531
65.0886
63.623
62.1344
60.6231
59.0893
57.5335
55.9557
54.3564
52.7357
51.094
49.4315
47.7486
46.0454
44.3224
42.5796
40.8174
39.0361
37.2359
35.4169
33.5795
31.7236
29.8495
27.9572
26.0465
24.1174
22.1693
20.202
18.2147
16.2069
14.1793
12.1348
10.0761
7.98745
5.68661
2.83252
0.558845
105.991
106.133
106.221
106.277
106.296
106.273
106.221
106.15
106.064
105.966
105.856
105.732
105.595
105.442
105.272
105.085
104.879
104.654
104.407
104.139
103.848
103.534
103.196
102.834
102.447
102.035
101.597
101.134
100.643
100.127
99.5835
99.0131
98.4157
97.7909
97.1388
96.4592
95.752
95.0173
94.2549
93.4649
92.6473
91.802
90.9293
90.029
89.1014
88.1464
87.1642
86.155
85.1188
84.0558
82.9661
81.85
80.7076
79.5391
78.3447
77.1246
75.879
74.6081
73.3122
71.9915
70.6463
69.2767
67.8831
66.4657
65.0248
63.5606
62.0734
60.5635
59.0311
57.4765
55.9
54.3019
52.6825
51.0419
49.3806
47.6988
45.9967
44.2746
42.5328
40.7716
38.9911
37.1917
35.3734
33.5365
31.6811
29.8073
27.915
26.0041
24.0743
22.1253
20.1562
18.1661
16.1541
14.1198
12.0656
9.99693
7.90748
5.67839
2.97937
0.663308
105.858
106.018
106.122
106.193
106.224
106.21
106.163
106.093
106.007
105.906
105.792
105.664
105.522
105.364
105.19
104.999
104.79
104.561
104.312
104.042
103.749
103.435
103.096
102.734
102.347
101.935
101.498
101.035
100.546
100.031
99.4886
98.9198
98.3238
97.7007
97.0502
96.3723
95.6669
94.9339
94.1733
93.385
92.5692
91.7257
90.8547
89.9561
89.0301
88.0768
87.0963
86.0886
85.054
83.9926
82.9044
81.7898
80.6488
79.4817
78.2887
77.0699
75.8256
74.556
73.2614
71.9419
70.5978
69.2294
67.837
66.4207
64.9808
63.5176
62.0314
60.5225
58.9911
57.4374
55.8619
54.2646
52.646
51.0063
49.3458
47.6647
45.9634
44.2421
42.501
40.7404
38.9605
37.1616
35.3439
33.5075
31.6525
29.7789
27.8868
25.976
24.0461
22.0967
20.1269
18.1356
16.1216
14.084
12.0246
9.95016
7.86044
5.67008
3.06873
0.734901
105.791
105.959
106.071
106.15
106.188
106.178
106.133
106.064
105.978
105.876
105.76
105.629
105.485
105.325
105.149
104.955
104.744
104.514
104.263
103.992
103.699
103.383
103.045
102.682
102.295
101.884
101.447
100.984
100.496
99.9807
99.4394
98.8712
98.2761
97.6538
97.0042
96.3272
95.6227
94.8906
94.1309
93.3436
92.5286
91.6861
90.816
89.9183
88.9932
88.0408
87.0611
86.0543
85.0205
83.9599
82.8726
81.7587
80.6185
79.4521
78.2598
77.0418
75.7982
74.5292
73.2353
71.9164
70.573
69.2052
67.8133
66.3976
64.9583
63.4957
62.01
60.5016
58.9707
57.4175
55.8424
54.2456
52.6275
50.9882
49.3281
47.6475
45.9465
44.2256
42.4848
40.7246
38.9451
37.1465
35.329
33.4928
31.638
29.7646
27.8727
25.9619
24.0321
22.0826
20.1126
18.1209
16.1061
14.0671
12.0055
9.92842
7.83847
5.66451
3.11018
0.770844
105.791
105.959
106.071
106.15
106.188
106.178
106.133
106.064
105.978
105.876
105.76
105.629
105.485
105.325
105.149
104.955
104.744
104.514
104.263
103.992
103.699
103.383
103.045
102.682
102.295
101.884
101.447
100.984
100.496
99.9807
99.4394
98.8712
98.2761
97.6538
97.0042
96.3272
95.6227
94.8906
94.1309
93.3436
92.5286
91.6861
90.816
89.9183
88.9932
88.0408
87.0611
86.0543
85.0205
83.9599
82.8726
81.7587
80.6185
79.4521
78.2598
77.0418
75.7982
74.5292
73.2353
71.9164
70.573
69.2052
67.8133
66.3976
64.9583
63.4957
62.01
60.5016
58.9707
57.4175
55.8424
54.2457
52.6275
50.9882
49.3281
47.6475
45.9465
44.2256
42.4849
40.7246
38.9451
37.1465
35.329
33.4928
31.638
29.7647
27.8727
25.9619
24.0321
22.0826
20.1126
18.1209
16.1061
14.0671
12.0055
9.92845
7.83849
5.66453
3.1102
0.770859
105.858
106.018
106.122
106.193
106.224
106.21
106.163
106.093
106.007
105.906
105.792
105.664
105.521
105.364
105.19
104.999
104.79
104.561
104.312
104.042
103.749
103.434
103.096
102.734
102.347
101.935
101.498
101.035
100.546
100.031
99.4886
98.9198
98.3238
97.7007
97.0503
96.3724
95.6669
94.9339
94.1733
93.3851
92.5692
91.7257
90.8547
89.9561
89.0302
88.0768
87.0963
86.0887
85.054
83.9926
82.9044
81.7898
80.6488
79.4817
78.2887
77.0699
75.8256
74.556
73.2614
71.9419
70.5979
69.2295
67.837
66.4207
64.9809
63.5177
62.0315
60.5226
58.9911
57.4375
55.8619
54.2647
52.6461
51.0064
49.3459
47.6648
45.9635
44.2421
42.501
40.7405
38.9606
37.1617
35.344
33.5075
31.6525
29.779
27.8869
25.976
24.0462
22.0967
20.127
18.1357
16.1217
14.084
12.0247
9.95023
7.86051
5.67014
3.06881
0.734924
105.991
106.133
106.221
106.277
106.296
106.273
106.221
106.15
106.064
105.966
105.856
105.732
105.595
105.442
105.272
105.085
104.879
104.653
104.407
104.139
103.848
103.534
103.196
102.834
102.447
102.035
101.597
101.134
100.643
100.127
99.5835
99.0131
98.4157
97.791
97.1388
96.4592
95.7521
95.0173
94.2549
93.4649
92.6473
91.8021
90.9293
90.029
89.1014
88.1464
87.1642
86.155
85.1188
84.0558
82.9661
81.85
80.7076
79.5391
78.3447
77.1246
75.879
74.6081
73.3122
71.9916
70.6463
69.2768
67.8832
66.4658
65.0249
63.5607
62.0735
60.5636
59.0312
57.4766
55.9002
54.3021
52.6826
51.0421
49.3807
47.6989
45.9968
44.2747
42.5329
40.7717
38.9912
37.1918
35.3735
33.5366
31.6812
29.8074
27.9151
26.0042
24.0744
22.1254
20.1563
18.1662
16.1542
14.1199
12.0658
9.99703
7.90757
5.67849
2.97949
0.663338
106.189
106.305
106.367
106.398
106.398
106.363
106.304
106.231
106.148
106.055
105.95
105.833
105.702
105.556
105.393
105.211
105.009
104.788
104.544
104.278
103.989
103.676
103.339
102.977
102.59
102.177
101.738
101.272
100.781
100.262
99.7171
99.1447
98.545
97.918
97.2636
96.5816
95.872
95.1348
94.37
93.5776
92.7576
91.91
91.0348
90.1323
89.2023
88.2451
87.2607
86.2492
85.2109
84.1458
83.0541
81.936
80.7916
79.6212
78.4249
77.203
75.9556
74.683
73.3854
72.0631
70.7163
69.3451
67.95
66.5311
65.0887
63.6231
62.1345
60.6232
59.0895
57.5336
55.9559
54.3565
52.7359
51.0942
49.4317
47.7487
46.0456
44.3225
42.5797
40.8176
39.0363
37.236
35.4171
33.5796
31.7238
29.8496
27.9573
26.0466
24.1174
22.1694
20.2021
18.2147
16.207
14.1794
12.1349
10.0762
7.98754
5.68672
2.83267
0.558864
106.454
106.534
106.556
106.551
106.525
106.474
106.408
106.335
106.257
106.17
106.074
105.966
105.843
105.705
105.548
105.372
105.176
104.958
104.717
104.453
104.166
103.853
103.516
103.154
102.765
102.351
101.91
101.443
100.95
100.429
99.881
99.306
98.7036
98.0738
97.4166
96.7318
96.0194
95.2794
94.5117
93.7165
92.8936
92.0432
91.1654
90.2601
89.3275
88.3676
87.3806
86.3667
85.3259
84.2583
83.1642
82.0438
80.8971
79.7245
78.526
77.3019
76.0524
74.7778
73.4782
72.1539
70.8051
69.4321
68.0351
66.6145
65.1703
63.703
62.2127
60.6997
59.1644
57.607
56.0277
54.4268
52.8047
51.1615
49.4977
47.8134
46.1089
44.3845
42.6406
40.8773
39.0949
37.2938
35.474
33.636
31.7798
29.9056
28.0136
26.1038
24.1762
22.2306
20.267
18.2853
16.2857
14.27
12.242
10.2003
8.11652
5.6985
2.62418
0.43224
106.801
106.822
106.783
106.727
106.668
106.6
106.529
106.459
106.388
106.311
106.225
106.128
106.015
105.884
105.735
105.565
105.373
105.158
104.92
104.657
104.37
104.058
103.72
103.356
102.966
102.55
102.107
101.637
101.141
100.617
100.067
99.4889
98.8836
98.2508
97.5905
96.9027
96.1872
95.4442
94.6735
93.8753
93.0495
92.1962
91.3155
90.4073
89.4719
88.5093
87.5196
86.503
85.4595
84.3894
83.2928
82.1699
81.0208
79.8457
78.6449
77.4185
76.1668
74.8899
73.5881
72.2617
70.9108
69.5357
68.1368
66.7141
65.268
63.7987
62.3066
60.7918
59.2547
57.6954
56.1144
54.5119
52.888
51.2433
49.5778
47.892
46.186
44.4602
42.7149
40.9503
39.1668
37.3647
35.5441
33.7056
31.8492
29.9754
28.0844
26.1766
24.2522
22.3115
20.3549
18.3831
16.3977
14.4019
12.4002
10.3872
8.32305
5.73441
2.37307
0.313672
107.265
107.176
107.038
106.915
106.818
106.735
106.664
106.601
106.541
106.478
106.405
106.318
106.215
106.092
105.949
105.784
105.595
105.383
105.145
104.883
104.596
104.282
103.943
103.577
103.185
102.766
102.321
101.849
101.349
100.823
100.269
99.6883
99.0799
98.4441
97.7807
97.0898
96.3714
95.6253
94.8517
94.0505
93.2218
92.3657
91.4821
90.5711
89.6329
88.6676
87.6752
86.6559
85.6099
84.5372
83.438
82.3126
81.161
79.9835
78.7803
77.5515
76.2974
75.0183
73.7142
72.3856
71.0325
69.6553
68.2541
66.8294
65.3812
63.9099
62.4158
60.899
59.3599
57.7988
56.2159
54.6114
52.9858
51.3393
49.6721
47.9845
46.2769
44.5496
42.8028
41.0368
39.2521
37.4489
35.6277
33.7887
31.9326
30.0598
28.1708
26.2664
24.3473
22.4146
20.4694
18.5137
16.5506
14.585
12.6226
10.657
8.64836
5.84363
2.15066
0.269787
107.942
107.601
107.292
107.086
106.952
106.86
106.796
106.749
106.706
106.658
106.599
106.524
106.431
106.316
106.178
106.016
105.83
105.619
105.382
105.119
104.831
104.516
104.175
103.807
103.413
102.992
102.544
102.07
101.568
101.039
100.483
99.8991
99.2881
98.6497
97.9838
97.2903
96.5692
95.8206
95.0444
94.2407
93.4095
92.5508
91.6646
90.7512
89.8105
88.8427
87.8479
86.8261
85.7777
84.7026
83.601
82.4732
81.3192
80.1394
78.9339
77.7028
76.4464
75.165
73.8587
72.5278
71.1725
69.793
68.3897
66.9628
65.5125
64.0391
62.5428
61.024
59.4829
57.9197
56.3348
54.7284
53.1008
51.4523
49.7832
48.0938
46.3844
44.6553
42.9069
41.1394
39.3534
37.5491
35.7271
33.8879
32.0321
30.1606
28.2744
26.3745
24.4626
22.5406
20.6112
18.6778
16.7454
14.8213
12.9128
11.0179
9.12457
6.09937
2.1665
0.421944
109.131
108.108
107.469
107.167
107.016
106.939
106.903
106.885
106.869
106.844
106.803
106.742
106.659
106.552
106.42
106.262
106.078
105.868
105.632
105.37
105.081
104.765
104.423
104.054
103.659
103.236
102.787
102.311
101.807
101.276
100.718
100.133
99.5202
98.8798
98.212
97.5165
96.7934
96.0428
95.2645
94.4587
93.6253
92.7645
91.8762
90.9605
90.0176
89.0476
88.0505
87.0265
85.9757
84.8983
83.7944
82.6642
81.508
80.3258
79.1179
77.8844
76.6257
75.3419
74.0332
72.6999
71.3423
69.9605
68.5549
67.1256
65.6729
64.1972
62.6986
61.1775
59.634
58.0686
56.4814
54.8727
53.2428
51.5921
49.9208
48.2292
46.5177
44.7865
43.036
41.2667
39.4789
37.673
35.8498
34.0098
32.154
30.2834
28.3993
26.5037
24.599
22.6885
20.7764
18.8687
16.9731
15.0995
13.2571
11.4505
9.71273
6.60436
3.44194
1.36517
111.019
108.572
107.43
107.066
106.965
106.96
106.993
107.032
107.061
107.071
107.056
107.015
106.946
106.85
106.726
106.574
106.394
106.187
105.952
105.691
105.402
105.086
104.744
104.374
103.978
103.554
103.104
102.626
102.121
101.589
101.029
100.442
99.827
99.1846
98.5147
97.8171
97.0918
96.3388
95.5582
94.75
93.9141
93.0507
92.1598
91.2415
90.2958
89.323
88.3231
87.2962
86.2426
85.1622
84.0554
82.9223
81.763
80.5778
79.3668
78.1303
76.8685
75.5816
74.2699
72.9335
71.5727
70.1879
68.7791
67.3467
65.891
64.4121
62.9105
61.3862
59.8397
58.2712
56.6809
55.0692
53.4363
51.7826
50.1082
48.4137
46.6991
44.965
43.2116
41.4393
39.6487
37.8402
36.0145
34.1724
32.3149
30.4434
28.5597
26.6663
24.7667
22.8654
20.969
19.0863
17.2288
15.4108
13.646
11.942
10.2885
7.73776
5.37068
2.31159
)
;

boundaryField
{
    inlet
    {
        type            zeroGradient;
    }
    outlet
    {
        type            fixedValue;
        value           uniform 0;
    }
    frontAndBack
    {
        type            empty;
    }
    walls
    {
        type            zeroGradient;
    }
}


// ************************************************************************* //
