/*--------------------------------*- C++ -*----------------------------------*\
| =========                 |                                                 |
| \\      /  F ield         | OpenFOAM: The Open Source CFD Toolbox           |
|  \\    /   O peration     | Version:  2212                                  |
|   \\  /    A nd           | Website:  www.openfoam.com                      |
|    \\/     M anipulation  |                                                 |
\*---------------------------------------------------------------------------*/
FoamFile
{
    version     2.0;
    format      ascii;
    arch        "LSB;label=32;scalar=64";
    class       surfaceScalarField;
    location    "30";
    object      phi;
}
// * * * * * * * * * * * * * * * * * * * * * * * * * * * * * * * * * * * * * //

dimensions      [0 3 -1 0 0 0 0];

oriented        oriented;

internalField   nonuniform List<scalar> 
3880
(
3.64687e-05
1.35313e-05
2.35897e-05
1.28789e-05
1.53518e-05
8.23796e-06
1.04937e-05
4.85801e-06
7.85809e-06
2.63569e-06
6.69893e-06
1.15919e-06
6.53776e-06
1.61146e-07
7.07068e-06
-5.32985e-07
8.10218e-06
-1.03142e-06
9.50118e-06
-1.39897e-06
1.11766e-05
-1.67539e-06
1.30632e-05
-1.88651e-06
1.5113e-05
-2.04996e-06
1.7291e-05
-2.17796e-06
1.95705e-05
-2.27947e-06
2.19316e-05
-2.36101e-06
2.43589e-05
-2.42732e-06
2.68408e-05
-2.48191e-06
2.93682e-05
-2.52739e-06
3.19339e-05
-2.56567e-06
3.4532e-05
-2.59816e-06
3.71579e-05
-2.6259e-06
3.98076e-05
-2.64965e-06
4.24776e-05
-2.66998e-06
4.51649e-05
-2.68727e-06
4.78668e-05
-2.70186e-06
5.05807e-05
-2.71396e-06
5.33045e-05
-2.72375e-06
5.60359e-05
-2.73136e-06
5.87728e-05
-2.73691e-06
6.15133e-05
-2.74049e-06
6.42554e-05
-2.74217e-06
6.69975e-05
-2.74204e-06
6.97376e-05
-2.74015e-06
7.24742e-05
-2.73658e-06
7.52056e-05
-2.73139e-06
7.79302e-05
-2.72465e-06
8.06467e-05
-2.71642e-06
8.33534e-05
-2.70677e-06
8.60492e-05
-2.69575e-06
8.87326e-05
-2.68343e-06
9.14025e-05
-2.66988e-06
9.40577e-05
-2.65516e-06
9.6697e-05
-2.63934e-06
9.93195e-05
-2.62247e-06
0.000101924
-2.60462e-06
0.00010451
-2.58583e-06
0.000107076
-2.56617e-06
0.000109622
-2.54569e-06
0.000112146
-2.52445e-06
0.000114649
-2.50251e-06
0.000117129
-2.47991e-06
0.000119585
-2.45671e-06
0.000122018
-2.43294e-06
0.000124427
-2.40865e-06
0.000126811
-2.38389e-06
0.00012917
-2.3587e-06
0.000131503
-2.33313e-06
0.00013381
-2.3072e-06
0.000136091
-2.28096e-06
0.000138345
-2.25442e-06
0.000140573
-2.22763e-06
0.000142774
-2.20062e-06
0.000144947
-2.17342e-06
0.000147093
-2.14603e-06
0.000149211
-2.1185e-06
0.000151302
-2.09082e-06
0.000153365
-2.06302e-06
0.0001554
-2.03509e-06
0.000157407
-2.00703e-06
0.000159386
-1.97884e-06
0.000161337
-1.95052e-06
0.000163259
-1.92204e-06
0.000165152
-1.89335e-06
0.000167016
-1.86439e-06
0.000168852
-1.8351e-06
0.000170657
-1.80538e-06
0.000172432
-1.77513e-06
0.000174176
-1.74419e-06
0.000175889
-1.71241e-06
0.000177568
-1.67964e-06
0.000179214
-1.6457e-06
0.000180825
-1.61052e-06
0.000182399
-1.57412e-06
0.000183935
-1.53676e-06
0.000185435
-1.49914e-06
0.000186897
-1.46268e-06
0.000188327
-1.43003e-06
0.000189733
-1.40579e-06
0.000191131
-1.39758e-06
0.000192548
-1.41741e-06
0.000194031
-1.48302e-06
0.000195649
-1.61803e-06
0.000197497
-1.84755e-06
0.000199677
-2.17992e-06
0.000202248
-2.571e-06
0.000205369
-3.12137e-06
0.000205764
-3.95018e-07
0.000202476
3.28821e-06
3.19403e-07
4.99066e-05
1.36248e-05
4.34799e-05
1.93055e-05
3.60618e-05
1.5656e-05
2.99334e-05
1.09864e-05
2.55312e-05
7.03783e-06
2.27568e-05
3.93372e-06
2.13431e-05
1.57489e-06
2.10115e-05
-2.01349e-07
2.15242e-05
-1.54411e-06
2.2692e-05
-2.56685e-06
2.43688e-05
-3.35222e-06
2.64427e-05
-3.9604e-06
2.88284e-05
-4.43562e-06
3.14609e-05
-4.81049e-06
3.42907e-05
-5.10932e-06
3.72799e-05
-5.35029e-06
4.03996e-05
-5.54698e-06
4.36272e-05
-5.70955e-06
4.69455e-05
-5.8456e-06
5.03406e-05
-5.96076e-06
5.38017e-05
-6.05925e-06
5.732e-05
-6.14417e-06
6.08882e-05
-6.21783e-06
6.45001e-05
-6.28194e-06
6.81506e-05
-6.33775e-06
7.1835e-05
-6.38621e-06
7.55491e-05
-6.42802e-06
7.9289e-05
-6.4637e-06
8.30513e-05
-6.49367e-06
8.68326e-05
-6.51822e-06
9.06297e-05
-6.53764e-06
9.44397e-05
-6.55213e-06
9.82596e-05
-6.56191e-06
0.000102087
-6.56714e-06
0.000105918
-6.56799e-06
0.000109751
-6.56463e-06
0.000113584
-6.5572e-06
0.000117413
-6.54586e-06
0.000121237
-6.53076e-06
0.000125053
-6.51205e-06
0.00012886
-6.4899e-06
0.000132655
-6.46447e-06
0.000136435
-6.43592e-06
0.0001402
-6.40438e-06
0.000143948
-6.37002e-06
0.000147676
-6.33296e-06
0.000151384
-6.29337e-06
0.000155069
-6.25138e-06
0.000158731
-6.20714e-06
0.000162367
-6.1608e-06
0.000165977
-6.11247e-06
0.000169559
-6.06229e-06
0.000173113
-6.01038e-06
0.000176637
-5.95686e-06
0.00018013
-5.90185e-06
0.000183592
-5.84547e-06
0.000187021
-5.78782e-06
0.000190417
-5.72901e-06
0.000193779
-5.66913e-06
0.000197106
-5.60827e-06
0.000200398
-5.54653e-06
0.000203654
-5.48399e-06
0.000206875
-5.42073e-06
0.000210058
-5.35682e-06
0.000213204
-5.29231e-06
0.000216313
-5.22727e-06
0.000219384
-5.16173e-06
0.000222417
-5.09572e-06
0.000225411
-5.02927e-06
0.000228366
-4.96241e-06
0.000231282
-4.89512e-06
0.000234159
-4.82739e-06
0.000236996
-4.75915e-06
0.000239793
-4.69031e-06
0.00024255
-4.62077e-06
0.000245265
-4.55037e-06
0.000247939
-4.47893e-06
0.00025057
-4.40619e-06
0.000253157
-4.33185e-06
0.000255701
-4.25559e-06
0.000258198
-4.17708e-06
0.000260648
-4.09604e-06
0.00026305
-4.01229e-06
0.000265402
-3.92599e-06
0.000267703
-3.83783e-06
0.000269953
-3.74953e-06
0.000272155
-3.66452e-06
0.000274314
-3.58914e-06
0.000276443
-3.53433e-06
0.000278564
-3.51838e-06
0.000280717
-3.57083e-06
0.000282972
-3.73735e-06
0.000285438
-4.08488e-06
0.000288293
-4.70251e-06
0.000291802
-5.68829e-06
0.000296304
-7.07362e-06
0.000301791
-8.6085e-06
0.000313565
-1.21684e-05
0.000325721
-8.86819e-06
-7.60481e-06
5.18221e-05
1.18028e-05
5.0836e-05
2.02916e-05
4.7751e-05
1.8741e-05
4.39974e-05
1.474e-05
4.04293e-05
1.06059e-05
3.74678e-05
6.89524e-06
3.52552e-05
3.78755e-06
3.37791e-05
1.27486e-06
3.29583e-05
-7.2332e-07
3.26923e-05
-2.30087e-06
3.28839e-05
-3.54377e-06
3.34479e-05
-4.52442e-06
3.43136e-05
-5.30125e-06
3.54237e-05
-5.9205e-06
3.67325e-05
-6.41817e-06
3.82043e-05
-6.82207e-06
3.98109e-05
-7.15356e-06
4.15303e-05
-7.42892e-06
4.33453e-05
-7.66052e-06
4.52422e-05
-7.85768e-06
4.72104e-05
-8.02743e-06
4.92413e-05
-8.17503e-06
5.13279e-05
-8.3044e-06
5.34645e-05
-8.41848e-06
5.56462e-05
-8.51945e-06
5.7869e-05
-8.60895e-06
6.01292e-05
-8.68817e-06
6.24235e-05
-8.75803e-06
6.4749e-05
-8.81922e-06
6.71031e-05
-8.87226e-06
6.94831e-05
-8.91759e-06
7.18865e-05
-8.95556e-06
7.43111e-05
-8.98647e-06
7.67546e-05
-9.01057e-06
7.92147e-05
-9.02811e-06
8.16894e-05
-9.0393e-06
8.41765e-05
-9.04436e-06
8.66742e-05
-9.04348e-06
8.91803e-05
-9.03689e-06
9.16931e-05
-9.0248e-06
9.42106e-05
-9.00744e-06
9.67312e-05
-8.98501e-06
9.9253e-05
-8.95773e-06
0.000101774
-8.92581e-06
0.000104294
-8.88944e-06
0.00010681
-8.84885e-06
0.000109321
-8.80424e-06
0.000111825
-8.75583e-06
0.000114322
-8.70382e-06
0.000116809
-8.6484e-06
0.000119287
-8.58977e-06
0.000121753
-8.52811e-06
0.000124206
-8.4636e-06
0.000126645
-8.39643e-06
0.00012907
-8.32677e-06
0.00013148
-8.2548e-06
0.000133872
-8.18067e-06
0.000136248
-8.10453e-06
0.000138605
-8.02653e-06
0.000140944
-7.94681e-06
0.000143263
-7.86553e-06
0.000145562
-7.78281e-06
0.00014784
-7.69876e-06
0.000150096
-7.6135e-06
0.000152331
-7.52712e-06
0.000154544
-7.43969e-06
0.000156733
-7.3513e-06
0.000158899
-7.262e-06
0.000161042
-7.17186e-06
0.000163161
-7.0809e-06
0.000165255
-6.98914e-06
0.000167324
-6.89656e-06
0.000169368
-6.80309e-06
0.000171386
-6.70863e-06
0.000173378
-6.61305e-06
0.000175344
-6.51618e-06
0.000177283
-6.41779e-06
0.000179194
-6.31757e-06
0.000181078
-6.21517e-06
0.000182932
-6.11019e-06
0.000184757
-6.00222e-06
0.000186552
-5.89094e-06
0.000188316
-5.77617e-06
0.000190048
-5.65811e-06
0.000191748
-5.53767e-06
0.000193416
-5.41702e-06
0.000195052
-5.30047e-06
0.000196658
-5.19591e-06
0.000198241
-5.11706e-06
0.00019981
-5.08705e-06
0.000201383
-5.14396e-06
0.000202994
-5.34879e-06
0.000204706
-5.79622e-06
0.000206628
-6.62495e-06
0.000208959
-8.01881e-06
0.000212046
-1.01614e-05
0.000216542
-1.31041e-05
0.000224062
-1.96885e-05
0.00023909
-2.38962e-05
-2.20728e-05
5.17908e-05
1.00119e-05
5.31986e-05
1.88838e-05
5.3243e-05
1.86967e-05
5.21427e-05
1.58402e-05
5.03865e-05
1.2362e-05
4.84095e-05
8.87228e-06
4.6505e-05
5.69187e-06
4.48324e-05
2.94754e-06
4.34552e-05
6.53931e-07
4.23812e-05
-1.2269e-06
4.15899e-05
-2.75251e-06
4.10491e-05
-3.98359e-06
4.07238e-05
-4.976e-06
4.05814e-05
-5.778e-06
4.05927e-05
-6.42952e-06
4.07335e-05
-6.96284e-06
4.09835e-05
-7.40357e-06
4.13264e-05
-7.77177e-06
4.17489e-05
-8.083e-06
4.22405e-05
-8.34922e-06
4.27926e-05
-8.57958e-06
4.33987e-05
-8.78101e-06
4.4053e-05
-8.95876e-06
4.47514e-05
-9.11678e-06
4.54899e-05
-9.25804e-06
4.62657e-05
-9.38476e-06
4.70762e-05
-9.49861e-06
4.7919e-05
-9.60083e-06
4.87922e-05
-9.69238e-06
4.96939e-05
-9.77398e-06
5.06225e-05
-9.84621e-06
5.15765e-05
-9.90951e-06
5.25543e-05
-9.96426e-06
5.35545e-05
-1.00108e-05
5.45757e-05
-1.00494e-05
5.56167e-05
-1.00802e-05
5.66759e-05
-1.01036e-05
5.77523e-05
-1.01198e-05
5.88445e-05
-1.0129e-05
5.99512e-05
-1.01315e-05
6.10712e-05
-1.01275e-05
6.22034e-05
-1.01172e-05
6.33465e-05
-1.01009e-05
6.44994e-05
-1.00787e-05
6.5661e-05
-1.00511e-05
6.68303e-05
-1.00181e-05
6.80061e-05
-9.98001e-06
6.91874e-05
-9.93712e-06
7.03732e-05
-9.88964e-06
7.15626e-05
-9.83779e-06
7.27546e-05
-9.78179e-06
7.39484e-05
-9.72187e-06
7.5143e-05
-9.65823e-06
7.63377e-05
-9.59111e-06
7.75316e-05
-9.52071e-06
7.87241e-05
-9.44724e-06
7.99143e-05
-9.37087e-06
8.11015e-05
-9.2918e-06
8.22852e-05
-9.2102e-06
8.34646e-05
-9.12626e-06
8.46393e-05
-9.04015e-06
8.58085e-05
-8.95203e-06
8.69717e-05
-8.86205e-06
8.81285e-05
-8.77033e-06
8.92784e-05
-8.677e-06
9.04208e-05
-8.58217e-06
9.15554e-05
-8.48592e-06
9.26818e-05
-8.38836e-06
9.37995e-05
-8.28956e-06
9.49082e-05
-8.18956e-06
9.60074e-05
-8.08841e-06
9.70969e-05
-7.98607e-06
9.81764e-05
-7.88252e-06
9.92454e-05
-7.77767e-06
0.000100304
-7.67141e-06
0.000101351
-7.56356e-06
0.000102387
-7.4539e-06
0.000103412
-7.34214e-06
0.000104425
-7.22798e-06
0.000105426
-7.11104e-06
0.000106414
-6.99097e-06
0.000107391
-6.86749e-06
0.000108355
-6.74054e-06
0.000109308
-6.61045e-06
0.000110248
-6.47834e-06
0.000111178
-6.34666e-06
0.000112097
-6.22009e-06
0.000113008
-6.10691e-06
0.000113913
-6.02135e-06
0.000114813
-5.98708e-06
0.000115712
-6.04294e-06
0.000116615
-6.25164e-06
0.000117531
-6.71276e-06
0.000118486
-7.57959e-06
0.000119543
-9.07563e-06
0.000120863
-1.14821e-05
0.000122797
-1.5038e-05
0.0001248
-2.16911e-05
0.000128371
-2.74677e-05
-2.59488e-05
5.15681e-05
8.44373e-06
5.39347e-05
1.65172e-05
5.57449e-05
1.68865e-05
5.66059e-05
1.49792e-05
5.66045e-05
1.23635e-05
5.59827e-05
9.49407e-06
5.49888e-05
6.68581e-06
5.38165e-05
4.11972e-06
5.25958e-05
1.87469e-06
5.14039e-05
-3.49635e-08
5.02815e-05
-1.63015e-06
4.9246e-05
-2.94805e-06
4.83009e-05
-4.03087e-06
4.74423e-05
-4.9194e-06
4.66629e-05
-5.65013e-06
4.59543e-05
-6.25421e-06
4.53081e-05
-6.75736e-06
4.47167e-05
-7.18036e-06
4.41735e-05
-7.53976e-06
4.36728e-05
-7.84853e-06
4.321e-05
-8.11676e-06
4.27813e-05
-8.35223e-06
4.23834e-05
-8.56091e-06
4.2014e-05
-8.74735e-06
4.16709e-05
-8.915e-06
4.13526e-05
-9.06646e-06
4.10576e-05
-9.20369e-06
4.0785e-05
-9.32818e-06
4.05337e-05
-9.44107e-06
4.03029e-05
-9.54323e-06
4.0092e-05
-9.63531e-06
3.99003e-05
-9.71785e-06
3.97273e-05
-9.79126e-06
3.95724e-05
-9.8559e-06
3.94352e-05
-9.91208e-06
3.9315e-05
-9.96005e-06
3.92115e-05
-1.00001e-05
3.9124e-05
-1.00324e-05
3.90522e-05
-1.00572e-05
3.89955e-05
-1.00748e-05
3.89534e-05
-1.00854e-05
3.89255e-05
-1.00893e-05
3.89112e-05
-1.00866e-05
3.89101e-05
-1.00776e-05
3.89216e-05
-1.00626e-05
3.89453e-05
-1.00417e-05
3.89806e-05
-1.00153e-05
3.9027e-05
-9.98359e-06
3.90842e-05
-9.94679e-06
3.91515e-05
-9.90513e-06
3.92286e-05
-9.85885e-06
3.93149e-05
-9.80818e-06
3.941e-05
-9.75334e-06
3.95135e-05
-9.69457e-06
3.96249e-05
-9.63208e-06
3.97437e-05
-9.56609e-06
3.98697e-05
-9.49678e-06
4.00022e-05
-9.42436e-06
4.01411e-05
-9.34902e-06
4.02858e-05
-9.27095e-06
4.04359e-05
-9.19034e-06
4.05912e-05
-9.10736e-06
4.07513e-05
-9.02216e-06
4.09159e-05
-8.93489e-06
4.10845e-05
-8.84567e-06
4.1257e-05
-8.75464e-06
4.14329e-05
-8.66191e-06
4.16121e-05
-8.56757e-06
4.17943e-05
-8.47171e-06
4.19791e-05
-8.3744e-06
4.21664e-05
-8.27568e-06
4.23558e-05
-8.17554e-06
4.25473e-05
-8.07398e-06
4.27406e-05
-7.97095e-06
4.29355e-05
-7.86635e-06
4.3132e-05
-7.76004e-06
4.333e-05
-7.65183e-06
4.35294e-05
-7.54151e-06
4.37302e-05
-7.42881e-06
4.39327e-05
-7.3135e-06
4.41371e-05
-7.19533e-06
4.43437e-05
-7.07416e-06
4.45532e-05
-6.95009e-06
4.47665e-05
-6.82368e-06
4.49844e-05
-6.69629e-06
4.52084e-05
-6.5706e-06
4.54397e-05
-6.4514e-06
4.56797e-05
-6.34692e-06
4.59291e-05
-6.27074e-06
4.61868e-05
-6.24484e-06
4.64483e-05
-6.30438e-06
4.67019e-05
-6.50517e-06
4.69243e-05
-6.93525e-06
4.70773e-05
-7.73254e-06
4.711e-05
-9.10826e-06
4.6983e-05
-1.13552e-05
4.66964e-05
-1.47514e-05
4.54069e-05
-2.04017e-05
4.35312e-05
-2.5592e-05
-2.41298e-05
5.14959e-05
6.94788e-06
5.43142e-05
1.36989e-05
5.70515e-05
1.41493e-05
5.91456e-05
1.2885e-05
6.04666e-05
1.10425e-05
6.10744e-05
8.88636e-06
6.11075e-05
6.65276e-06
6.07156e-05
4.51155e-06
6.0028e-05
2.56233e-06
5.91439e-05
8.49053e-07
5.81352e-05
-6.21391e-07
5.70509e-05
-1.86371e-06
5.59234e-05
-2.90341e-06
5.47736e-05
-3.76958e-06
5.36143e-05
-4.49083e-06
5.24532e-05
-5.09311e-06
5.12947e-05
-5.59883e-06
5.01411e-05
-6.02676e-06
4.89935e-05
-6.3922e-06
4.78525e-05
-6.70745e-06
4.67179e-05
-6.98224e-06
4.55899e-05
-7.22421e-06
4.44683e-05
-7.43929e-06
4.33529e-05
-7.63205e-06
4.22439e-05
-7.806e-06
4.11412e-05
-7.9638e-06
4.00451e-05
-8.10751e-06
3.89556e-05
-8.23868e-06
3.7873e-05
-8.3585e-06
3.67977e-05
-8.46788e-06
3.57298e-05
-8.5675e-06
3.46699e-05
-8.65791e-06
3.36182e-05
-8.73956e-06
3.2575e-05
-8.81279e-06
3.15409e-05
-8.87791e-06
3.0516e-05
-8.93517e-06
2.95007e-05
-8.98482e-06
2.84954e-05
-9.02708e-06
2.75003e-05
-9.06218e-06
2.65158e-05
-9.09032e-06
2.5542e-05
-9.11173e-06
2.45793e-05
-9.1266e-06
2.36278e-05
-9.13514e-06
2.26878e-05
-9.13758e-06
2.17593e-05
-9.13414e-06
2.08426e-05
-9.12504e-06
1.99378e-05
-9.11052e-06
1.9045e-05
-9.09079e-06
1.81642e-05
-9.06606e-06
1.72956e-05
-9.03656e-06
1.64393e-05
-9.00249e-06
1.55952e-05
-8.96406e-06
1.47633e-05
-8.92149e-06
1.39438e-05
-8.87501e-06
1.31365e-05
-8.82481e-06
1.23415e-05
-8.77108e-06
1.15588e-05
-8.71402e-06
1.07883e-05
-8.65381e-06
1.00299e-05
-8.59063e-06
9.28359e-06
-8.52468e-06
8.54935e-06
-8.45611e-06
7.82707e-06
-8.38511e-06
7.11669e-06
-8.3118e-06
6.41813e-06
-8.23634e-06
5.73131e-06
-8.15886e-06
5.05613e-06
-8.07948e-06
4.39253e-06
-7.99832e-06
3.74042e-06
-7.91547e-06
3.09971e-06
-7.83101e-06
2.47031e-06
-7.74502e-06
1.85217e-06
-7.65753e-06
1.24522e-06
-7.56858e-06
6.49422e-07
-7.47818e-06
6.47526e-08
-7.3863e-06
-5.08757e-07
-7.29286e-06
-1.07104e-06
-7.19775e-06
-1.62199e-06
-7.10085e-06
-2.16146e-06
-7.00201e-06
-2.68918e-06
-6.90107e-06
-3.2048e-06
-6.79788e-06
-3.70783e-06
-6.69233e-06
-4.19759e-06
-6.58442e-06
-4.67326e-06
-6.47442e-06
-5.13387e-06
-6.36306e-06
-5.5783e-06
-6.25187e-06
-6.00535e-06
-6.14355e-06
-6.41402e-06
-6.04277e-06
-6.80381e-06
-5.95714e-06
-7.17562e-06
-5.89889e-06
-7.53342e-06
-5.88702e-06
-7.88688e-06
-5.95092e-06
-8.25634e-06
-6.13566e-06
-8.68115e-06
-6.51045e-06
-9.23125e-06
-7.18245e-06
-1.00211e-05
-8.31833e-06
-1.12141e-05
-1.01622e-05
-1.30051e-05
-1.29605e-05
-1.61048e-05
-1.73019e-05
-2.02679e-05
-2.14288e-05
-2.00436e-05
5.15643e-05
5.38362e-06
5.46852e-05
1.0578e-05
5.79137e-05
1.09209e-05
6.07183e-05
1.00803e-05
6.2911e-05
8.84981e-06
6.44456e-05
7.35181e-06
6.53644e-05
5.73393e-06
6.57523e-05
4.1238e-06
6.57045e-05
2.6101e-06
6.53106e-05
1.2429e-06
6.4647e-05
4.22877e-08
6.37751e-05
-9.91883e-07
6.27433e-05
-1.87151e-06
6.1588e-05
-2.61428e-06
6.03369e-05
-3.23975e-06
5.90107e-05
-3.76687e-06
5.76246e-05
-4.2128e-06
5.61903e-05
-4.59239e-06
5.47162e-05
-4.91808e-06
5.32088e-05
-5.20009e-06
5.16733e-05
-5.44663e-06
5.01133e-05
-5.66425e-06
4.85321e-05
-5.85811e-06
4.69323e-05
-6.03221e-06
4.53159e-05
-6.18967e-06
4.3685e-05
-6.33288e-06
4.20413e-05
-6.4637e-06
4.03862e-05
-6.58354e-06
3.87212e-05
-6.69349e-06
3.70477e-05
-6.79438e-06
3.53671e-05
-6.88683e-06
3.36805e-05
-6.97136e-06
3.19893e-05
-7.04836e-06
3.02947e-05
-7.11815e-06
2.85979e-05
-7.181e-06
2.68999e-05
-7.23714e-06
2.52018e-05
-7.28678e-06
2.35049e-05
-7.3301e-06
2.181e-05
-7.3673e-06
2.01182e-05
-7.39855e-06
1.84305e-05
-7.42402e-06
1.67478e-05
-7.44388e-06
1.5071e-05
-7.45831e-06
1.34009e-05
-7.46749e-06
1.17384e-05
-7.4716e-06
1.00842e-05
-7.47083e-06
8.43907e-06
-7.46538e-06
6.80368e-06
-7.4554e-06
5.17872e-06
-7.44109e-06
3.56479e-06
-7.42262e-06
1.96249e-06
-7.40016e-06
3.72365e-07
-7.3739e-06
-1.20508e-06
-7.34402e-06
-2.76938e-06
-7.3107e-06
-4.32006e-06
-7.2741e-06
-5.85672e-06
-7.2344e-06
-7.37897e-06
-7.19174e-06
-8.88646e-06
-7.14629e-06
-1.03789e-05
-7.09822e-06
-1.18559e-05
-7.04766e-06
-1.33172e-05
-6.99477e-06
-1.47627e-05
-6.93968e-06
-1.6192e-05
-6.88251e-06
-1.76049e-05
-6.8234e-06
-1.90013e-05
-6.76247e-06
-2.0381e-05
-6.69982e-06
-2.17438e-05
-6.63554e-06
-2.30896e-05
-6.56972e-06
-2.44182e-05
-6.50243e-06
-2.57294e-05
-6.43373e-06
-2.70233e-05
-6.36367e-06
-2.82996e-05
-6.2923e-06
-2.95582e-05
-6.21963e-06
-3.07989e-05
-6.14564e-06
-3.20215e-05
-6.07028e-06
-3.32257e-05
-5.99347e-06
-3.44114e-05
-5.91516e-06
-3.55781e-05
-5.83525e-06
-3.67255e-05
-5.75366e-06
-3.78531e-05
-5.67031e-06
-3.89603e-05
-5.58519e-06
-4.00464e-05
-5.49839e-06
-4.11105e-05
-5.41028e-06
-4.2152e-05
-5.32163e-06
-4.317e-05
-5.23388e-06
-4.4164e-05
-5.14951e-06
-4.51342e-05
-5.0726e-06
-4.60818e-05
-5.00962e-06
-4.701e-05
-4.97059e-06
-4.79263e-05
-4.97072e-06
-4.88447e-05
-5.03259e-06
-4.97907e-05
-5.18961e-06
-5.08099e-05
-5.49117e-06
-5.19811e-05
-6.01126e-06
-5.34357e-05
-6.8638e-06
-5.53769e-05
-8.22097e-06
-5.80679e-05
-1.02695e-05
-6.20526e-05
-1.33172e-05
-6.7145e-05
-1.63364e-05
-1.51533e-05
5.16921e-05
3.69153e-06
5.50596e-05
7.2105e-06
5.85663e-05
7.41426e-06
6.17613e-05
6.88521e-06
6.44785e-05
6.13263e-06
6.66311e-05
5.19917e-06
6.82018e-05
4.1632e-06
6.92211e-05
3.10457e-06
6.97456e-05
2.08559e-06
6.98422e-05
1.14626e-06
6.95776e-05
3.06872e-07
6.90127e-05
-4.26968e-07
6.82002e-05
-1.05904e-06
6.71844e-05
-1.59848e-06
6.60015e-05
-2.05679e-06
6.46805e-05
-2.44588e-06
6.32448e-05
-2.77703e-06
6.17126e-05
-3.06027e-06
6.00988e-05
-3.30423e-06
5.84148e-05
-3.5161e-06
5.667e-05
-3.70177e-06
5.48717e-05
-3.86596e-06
5.3026e-05
-4.01244e-06
5.1138e-05
-4.14418e-06
4.92119e-05
-4.2635e-06
4.72512e-05
-4.37219e-06
4.52592e-05
-4.47166e-06
4.32386e-05
-4.56297e-06
4.1192e-05
-4.64696e-06
3.91219e-05
-4.72425e-06
3.70304e-05
-4.79534e-06
3.49196e-05
-4.86061e-06
3.27916e-05
-4.92037e-06
3.06483e-05
-4.97486e-06
2.84916e-05
-5.02429e-06
2.63233e-05
-5.06882e-06
2.41451e-05
-5.1086e-06
2.19587e-05
-5.14379e-06
1.97659e-05
-5.17452e-06
1.75682e-05
-5.20091e-06
1.53673e-05
-5.22308e-06
1.31645e-05
-5.24115e-06
1.09615e-05
-5.25525e-06
8.75953e-06
-5.26552e-06
6.56e-06
-5.27208e-06
4.36421e-06
-5.27507e-06
2.17344e-06
-5.27462e-06
-1.11303e-08
-5.27085e-06
-2.18834e-06
-5.26388e-06
-4.35709e-06
-5.25385e-06
-6.51635e-06
-5.24089e-06
-8.66511e-06
-5.22511e-06
-1.08025e-05
-5.20667e-06
-1.29275e-05
-5.18567e-06
-1.50393e-05
-5.16225e-06
-1.71372e-05
-5.13651e-06
-1.92203e-05
-5.10857e-06
-2.12881e-05
-5.07856e-06
-2.33397e-05
-5.04659e-06
-2.53746e-05
-5.01275e-06
-2.73922e-05
-4.97716e-06
-2.9392e-05
-4.93991e-06
-3.13734e-05
-4.9011e-06
-3.3336e-05
-4.86082e-06
-3.52793e-05
-4.81918e-06
-3.72029e-05
-4.77624e-06
-3.91064e-05
-4.73205e-06
-4.09895e-05
-4.68669e-06
-4.28517e-05
-4.6402e-06
-4.46927e-05
-4.59264e-06
-4.65124e-05
-4.54406e-06
-4.83102e-05
-4.4945e-06
-5.00859e-05
-4.44395e-06
-5.18392e-05
-4.39242e-06
-5.35696e-05
-4.33986e-06
-5.52768e-05
-4.28624e-06
-5.69604e-05
-4.23155e-06
-5.862e-05
-4.17573e-06
-6.02549e-05
-4.11875e-06
-6.18647e-05
-4.06057e-06
-6.34486e-05
-4.00122e-06
-6.50062e-05
-3.94084e-06
-6.65367e-05
-3.87976e-06
-6.80397e-05
-3.81862e-06
-6.95151e-05
-3.75852e-06
-7.09632e-05
-3.70137e-06
-7.23855e-05
-3.65024e-06
-7.37853e-05
-3.60984e-06
-7.51686e-05
-3.58731e-06
-7.65461e-05
-3.59325e-06
-7.79358e-05
-3.64294e-06
-7.9367e-05
-3.75834e-06
-8.08875e-05
-3.97064e-06
-8.25739e-05
-4.32483e-06
-8.45496e-05
-4.88821e-06
-8.70063e-05
-5.76421e-06
-9.02025e-05
-7.07328e-06
-9.45488e-05
-8.97092e-06
-9.99523e-05
-1.0933e-05
-1.00733e-05
5.18113e-05
1.88023e-06
5.53657e-05
3.65613e-06
5.90342e-05
3.74576e-06
6.2433e-05
3.48635e-06
6.5437e-05
3.12875e-06
6.79536e-05
2.68254e-06
6.99368e-05
2.17999e-06
7.1383e-05
1.65834e-06
7.23196e-05
1.14898e-06
7.27924e-05
6.73504e-07
7.28553e-05
2.43914e-07
7.25635e-05
-1.35165e-07
7.19688e-05
-4.64293e-07
7.11175e-05
-7.47116e-07
7.00495e-05
-9.88769e-07
6.87985e-05
-1.1949e-06
6.73925e-05
-1.37101e-06
6.58543e-05
-1.52213e-06
6.42027e-05
-1.65262e-06
6.24528e-05
-1.76617e-06
6.06168e-05
-1.86582e-06
5.87049e-05
-1.95406e-06
5.67254e-05
-2.03286e-06
5.4685e-05
-2.10379e-06
5.25895e-05
-2.16808e-06
5.0444e-05
-2.2267e-06
4.82528e-05
-2.28039e-06
4.60195e-05
-2.32974e-06
4.37477e-05
-2.37518e-06
4.14405e-05
-2.41706e-06
3.91008e-05
-2.45566e-06
3.67313e-05
-2.49118e-06
3.43347e-05
-2.52378e-06
3.19134e-05
-2.5536e-06
2.94699e-05
-2.58074e-06
2.70063e-05
-2.6053e-06
2.4525e-05
-2.62735e-06
2.20282e-05
-2.64698e-06
1.95179e-05
-2.66427e-06
1.69962e-05
-2.67926e-06
1.44652e-05
-2.69203e-06
1.19267e-05
-2.70264e-06
9.38258e-06
-2.71116e-06
6.83473e-06
-2.71766e-06
4.28486e-06
-2.72222e-06
1.73466e-06
-2.72489e-06
-8.14213e-07
-2.72575e-06
-3.36021e-06
-2.72486e-06
-5.90181e-06
-2.72228e-06
-8.43757e-06
-2.71808e-06
-1.09661e-05
-2.71232e-06
-1.34861e-05
-2.70509e-06
-1.59964e-05
-2.69644e-06
-1.84956e-05
-2.68644e-06
-2.09827e-05
-2.67515e-06
-2.34565e-05
-2.66263e-06
-2.59161e-05
-2.64895e-06
-2.83605e-05
-2.63416e-06
-3.07888e-05
-2.61833e-06
-3.32e-05
-2.6015e-06
-3.55935e-05
-2.58373e-06
-3.79683e-05
-2.56507e-06
-4.03238e-05
-2.54558e-06
-4.26593e-05
-2.52531e-06
-4.49742e-05
-2.50432e-06
-4.72678e-05
-2.48263e-06
-4.95396e-05
-2.46026e-06
-5.1789e-05
-2.43725e-06
-5.40156e-05
-2.41363e-06
-5.62188e-05
-2.38944e-06
-5.83982e-05
-2.36471e-06
-6.05532e-05
-2.33946e-06
-6.26836e-05
-2.31368e-06
-6.47886e-05
-2.28736e-06
-6.6868e-05
-2.26051e-06
-6.89211e-05
-2.23312e-06
-7.09475e-05
-2.20517e-06
-7.29466e-05
-2.17665e-06
-7.49178e-05
-2.14755e-06
-7.68606e-05
-2.11786e-06
-7.87742e-05
-2.08761e-06
-8.06582e-05
-2.05689e-06
-8.25121e-05
-2.02589e-06
-8.43357e-05
-1.99496e-06
-8.61295e-05
-1.96473e-06
-8.78946e-05
-1.93622e-06
-8.96337e-05
-1.91111e-06
-9.13518e-05
-1.89185e-06
-9.30569e-05
-1.88216e-06
-9.47626e-05
-1.88749e-06
-9.649e-05
-1.91557e-06
-9.8271e-05
-1.97727e-06
-0.000100154
-2.08758e-06
-0.000102211
-2.26744e-06
-0.000104552
-2.54735e-06
-0.000107342
-2.97448e-06
-0.000110808
-3.60668e-06
-0.00011527
-4.50914e-06
-0.00012073
-5.47285e-06
-5.02172e-06
5.18804e-05
-1.44283e-10
5.55368e-05
-2.87288e-10
5.92827e-05
-2.22031e-10
6.27692e-05
-1.31945e-10
6.58981e-05
-6.21693e-11
6.85807e-05
-3.68717e-11
7.07606e-05
5.6719e-12
7.24189e-05
3.24658e-11
7.35678e-05
5.70503e-11
7.42412e-05
9.9342e-11
7.4485e-05
1.13631e-10
7.43498e-05
1.32929e-10
7.38853e-05
1.40333e-10
7.3138e-05
1.41961e-10
7.21491e-05
1.52865e-10
7.09541e-05
1.60174e-10
6.95829e-05
1.577e-10
6.80606e-05
1.55356e-10
6.64078e-05
1.52785e-10
6.46415e-05
1.40835e-10
6.27756e-05
1.18139e-10
6.08215e-05
9.04739e-11
5.87886e-05
6.18981e-11
5.66847e-05
3.25284e-11
5.45167e-05
1.5235e-12
5.229e-05
-2.9637e-11
5.00097e-05
-5.63827e-11
4.768e-05
-7.43594e-11
4.5305e-05
-8.39607e-11
4.2888e-05
-9.03629e-11
4.04324e-05
-9.80975e-11
3.79414e-05
-1.05859e-10
3.54177e-05
-1.07063e-10
3.28642e-05
-9.54498e-11
3.02836e-05
-7.02538e-11
2.76783e-05
-3.65032e-11
2.5051e-05
-7.08316e-13
2.2404e-05
3.40299e-11
1.97396e-05
6.9453e-11
1.70603e-05
1.09233e-10
1.43681e-05
1.54379e-10
1.16653e-05
2.00798e-10
8.95393e-06
2.40893e-10
6.23602e-06
2.6778e-10
3.51354e-06
2.7876e-10
7.8838e-07
2.75629e-10
-1.93762e-06
2.62102e-10
-4.6627e-06
2.40633e-10
-7.38516e-06
2.10836e-10
-1.01034e-05
1.7015e-10
-1.28158e-05
1.15918e-10
-1.55209e-05
4.74773e-11
-1.82173e-05
-3.30678e-11
-2.09036e-05
-1.22152e-10
-2.35785e-05
-2.17464e-10
-2.62408e-05
-3.19733e-10
-2.88893e-05
-4.31266e-10
-3.15229e-05
-5.51994e-10
-3.41406e-05
-6.7743e-10
-3.67412e-05
-8.02286e-10
-3.9324e-05
-9.27358e-10
-4.18879e-05
-1.06184e-09
-4.44323e-05
-1.2164e-09
-4.69562e-05
-1.39254e-09
-4.9459e-05
-1.57934e-09
-5.19398e-05
-1.76174e-09
-5.43981e-05
-1.93247e-09
-5.68332e-05
-2.09652e-09
-5.92446e-05
-2.2659e-09
-6.16316e-05
-2.45035e-09
-6.39937e-05
-2.65006e-09
-6.63304e-05
-2.85534e-09
-6.8641e-05
-3.05684e-09
-7.09251e-05
-3.25986e-09
-7.31822e-05
-3.48294e-09
-7.54116e-05
-3.736e-09
-7.76128e-05
-4.01198e-09
-7.97851e-05
-4.31159e-09
-8.1928e-05
-4.65292e-09
-8.40408e-05
-5.03994e-09
-8.6123e-05
-5.46039e-09
-8.8174e-05
-5.91613e-09
-9.01935e-05
-6.4031e-09
-9.21815e-05
-6.90882e-09
-9.41388e-05
-7.45756e-09
-9.60669e-05
-8.06842e-09
-9.79692e-05
-8.73439e-09
-9.98516e-05
-9.48317e-09
-0.000101723
-1.02984e-08
-0.0001036
-1.11878e-08
-0.000105503
-1.22043e-08
-0.000107467
-1.33048e-08
-0.00010954
-1.45156e-08
-0.000111792
-1.58379e-08
-0.000114322
-1.72496e-08
-0.000117278
-1.87184e-08
-0.000120864
-2.0269e-08
-0.000125351
-2.18647e-08
-0.000130801
-2.34601e-08
-2.43292e-08
5.18804e-05
-1.88051e-06
5.55368e-05
-3.65668e-06
5.92827e-05
-3.74619e-06
6.27692e-05
-3.48663e-06
6.5898e-05
-3.12891e-06
6.85806e-05
-2.6826e-06
7.07606e-05
-2.18e-06
7.24189e-05
-1.65827e-06
7.35678e-05
-1.14885e-06
7.42412e-05
-6.73322e-07
7.4485e-05
-2.43705e-07
7.43497e-05
1.35421e-07
7.38852e-05
4.64583e-07
7.3138e-05
7.47418e-07
7.21491e-05
9.89082e-07
7.0954e-05
1.19521e-06
6.95828e-05
1.37133e-06
6.80606e-05
1.52244e-06
6.64078e-05
1.6529e-06
6.46415e-05
1.76641e-06
6.27756e-05
1.86602e-06
6.08214e-05
1.9542e-06
5.87885e-05
2.03293e-06
5.66847e-05
2.10379e-06
5.45167e-05
2.16802e-06
5.229e-05
2.22658e-06
5.00097e-05
2.28022e-06
4.768e-05
2.32954e-06
4.5305e-05
2.37495e-06
4.2888e-05
2.41682e-06
4.04324e-05
2.4554e-06
3.79413e-05
2.49091e-06
3.54177e-05
2.52352e-06
3.28642e-05
2.55337e-06
3.02835e-05
2.58056e-06
2.76783e-05
2.60518e-06
2.50509e-05
2.62731e-06
2.24039e-05
2.64701e-06
1.97396e-05
2.66437e-06
1.70602e-05
2.67945e-06
1.4368e-05
2.69231e-06
1.16652e-05
2.70301e-06
8.95383e-06
2.71161e-06
6.23591e-06
2.71816e-06
3.51343e-06
2.72274e-06
7.88271e-07
2.72541e-06
-1.93773e-06
2.72625e-06
-4.66281e-06
2.72531e-06
-7.38527e-06
2.72267e-06
-1.01035e-05
2.71838e-06
-1.28159e-05
2.71252e-06
-1.5521e-05
2.70515e-06
-1.82174e-05
2.69635e-06
-2.09037e-05
2.68617e-06
-2.35786e-05
2.67469e-06
-2.62409e-05
2.66198e-06
-2.88894e-05
2.64808e-06
-3.15231e-05
2.63306e-06
-3.41407e-05
2.61699e-06
-3.67414e-05
2.59992e-06
-3.93242e-05
2.58189e-06
-4.18882e-05
2.56296e-06
-4.44326e-05
2.54317e-06
-4.69565e-05
2.52256e-06
-4.94593e-05
2.50121e-06
-5.19402e-05
2.47916e-06
-5.43986e-05
2.45646e-06
-5.68338e-05
2.43311e-06
-5.92452e-05
2.40916e-06
-6.16323e-05
2.38461e-06
-6.39945e-05
2.35951e-06
-6.63313e-05
2.33387e-06
-6.8642e-05
2.30769e-06
-7.09263e-05
2.28096e-06
-7.31835e-05
2.25367e-06
-7.54131e-05
2.22579e-06
-7.76144e-05
2.19732e-06
-7.97869e-05
2.16821e-06
-8.193e-05
2.13843e-06
-8.4043e-05
2.10798e-06
-8.61254e-05
2.07691e-06
-8.81766e-05
2.0453e-06
-9.01963e-05
2.01333e-06
-9.21846e-05
1.98138e-06
-9.41422e-05
1.95005e-06
-9.60706e-05
1.92036e-06
-9.79733e-05
1.89396e-06
-9.9856e-05
1.87322e-06
-0.000101728
1.8619e-06
-0.000103605
1.86546e-06
-0.000105509
1.89158e-06
-0.000107473
1.95113e-06
-0.000109547
2.05907e-06
-0.000111799
2.23636e-06
-0.00011433
2.51348e-06
-0.000117286
2.93762e-06
-0.000120873
3.56664e-06
-0.00012536
4.46581e-06
-0.00013081
5.42637e-06
4.97352e-06
5.18112e-05
-3.6918e-06
5.53656e-05
-7.21099e-06
5.90341e-05
-7.41464e-06
6.2433e-05
-6.88548e-06
6.54368e-05
-6.13281e-06
6.79534e-05
-5.19922e-06
6.99366e-05
-4.16319e-06
7.13829e-05
-3.10448e-06
7.23194e-05
-2.08546e-06
7.27922e-05
-1.1461e-06
7.28552e-05
-3.06656e-07
7.25634e-05
4.27208e-07
7.19686e-05
1.05931e-06
7.11173e-05
1.59878e-06
7.00493e-05
2.0571e-06
6.87983e-05
2.44619e-06
6.73923e-05
2.77733e-06
6.58542e-05
3.06057e-06
6.42026e-05
3.3045e-06
6.24526e-05
3.51633e-06
6.06167e-05
3.70194e-06
5.87048e-05
3.86608e-06
5.67252e-05
4.01249e-06
5.46849e-05
4.14417e-06
5.25895e-05
4.26342e-06
5.0444e-05
4.37207e-06
4.82527e-05
4.47151e-06
4.60195e-05
4.5628e-06
4.37477e-05
4.64676e-06
4.14405e-05
4.72403e-06
3.91008e-05
4.79511e-06
3.67313e-05
4.86039e-06
3.43347e-05
4.92017e-06
3.19134e-05
4.97471e-06
2.94698e-05
5.02419e-06
2.70062e-05
5.06878e-06
2.45249e-05
5.10863e-06
2.2028e-05
5.14389e-06
1.95177e-05
5.17469e-06
1.6996e-05
5.20116e-06
1.44649e-05
5.22341e-06
1.19264e-05
5.24156e-06
9.3823e-06
5.25573e-06
6.83443e-06
5.26605e-06
4.28455e-06
5.27263e-06
1.73435e-06
5.27562e-06
-8.14523e-07
5.27514e-06
-3.36051e-06
5.27131e-06
-5.90211e-06
5.26427e-06
-8.43786e-06
5.25415e-06
-1.09664e-05
5.24106e-06
-1.34864e-05
5.22516e-06
-1.59966e-05
5.20656e-06
-1.84958e-05
5.1854e-06
-2.0983e-05
5.16179e-06
-2.34568e-05
5.13586e-06
-2.59165e-05
5.10773e-06
-2.83609e-05
5.07752e-06
-3.07893e-05
5.04533e-06
-3.32006e-05
5.01127e-06
-3.55941e-05
4.97543e-06
-3.7969e-05
4.93791e-06
-4.03246e-05
4.8988e-06
-4.26603e-05
4.85821e-06
-4.49753e-05
4.81623e-06
-4.72691e-05
4.77296e-06
-4.95411e-05
4.72845e-06
-5.17907e-05
4.68276e-06
-5.40175e-05
4.63595e-06
-5.6221e-05
4.58807e-06
-5.84007e-05
4.53917e-06
-6.05561e-05
4.48926e-06
-6.26867e-05
4.43834e-06
-6.47922e-05
4.38641e-06
-6.6872e-05
4.33343e-06
-6.89256e-05
4.27938e-06
-7.09525e-05
4.22419e-06
-7.29521e-05
4.1678e-06