/*--------------------------------*- C++ -*----------------------------------*\
| =========                 |                                                 |
| \\      /  F ield         | OpenFOAM: The Open Source CFD Toolbox           |
|  \\    /   O peration     | Version:  2212                                  |
|   \\  /    A nd           | Website:  www.openfoam.com                      |
|    \\/     M anipulation  |                                                 |
\*---------------------------------------------------------------------------*/
FoamFile
{
    version     2.0;
    format      ascii;
    arch        "LSB;label=32;scalar=64";
    class       volVectorField;
    location    "30";
    object      U;
}
// * * * * * * * * * * * * * * * * * * * * * * * * * * * * * * * * * * * * * //

dimensions      [0 1 -1 0 0 0 0];

internalField   nonuniform List<vector> 
2000
(
(0.714296 0.144595 0)
(0.581409 0.144254 0)
(0.388432 0.0876784 0)
(0.251463 0.0458036 0)
(0.176583 0.0193551 0)
(0.140656 0.00267449 0)
(0.12887 -0.00806805 0)
(0.133499 -0.0152356 0)
(0.149776 -0.020211 0)
(0.17454 -0.0237754 0)
(0.205622 -0.0263831 0)
(0.241495 -0.0283163 0)
(0.281051 -0.0297615 0)
(0.323475 -0.030846 0)
(0.368161 -0.0316619 0)
(0.414652 -0.032276 0)
(0.462601 -0.0327368 0)
(0.511745 -0.0330803 0)
(0.561879 -0.0333334 0)
(0.612843 -0.0335156 0)
(0.664508 -0.0336418 0)
(0.716772 -0.0337226 0)
(0.769546 -0.0337662 0)
(0.82276 -0.0337784 0)
(0.876347 -0.0337636 0)
(0.930252 -0.033725 0)
(0.984422 -0.0336651 0)
(1.03881 -0.0335858 0)
(1.09337 -0.0334887 0)
(1.14807 -0.0333749 0)
(1.20285 -0.0332453 0)
(1.25768 -0.0331008 0)
(1.31254 -0.0329422 0)
(1.36737 -0.0327701 0)
(1.42214 -0.0325852 0)
(1.47683 -0.0323882 0)
(1.5314 -0.0321797 0)
(1.58581 -0.0319602 0)
(1.64005 -0.0317303 0)
(1.69408 -0.0314905 0)
(1.74788 -0.0312415 0)
(1.80142 -0.0309838 0)
(1.85468 -0.030718 0)
(1.90763 -0.0304447 0)
(1.96025 -0.0301643 0)
(2.01252 -0.0298773 0)
(2.06443 -0.0295843 0)
(2.11596 -0.0292856 0)
(2.16708 -0.0289818 0)
(2.21778 -0.0286734 0)
(2.26806 -0.0283608 0)
(2.31789 -0.0280444 0)
(2.36725 -0.0277246 0)
(2.41615 -0.0274018 0)
(2.46457 -0.0270764 0)
(2.5125 -0.0267487 0)
(2.55993 -0.0264192 0)
(2.60685 -0.026088 0)
(2.65325 -0.0257555 0)
(2.69913 -0.0254221 0)
(2.74449 -0.0250878 0)
(2.78931 -0.024753 0)
(2.83359 -0.0244179 0)
(2.87733 -0.0240827 0)
(2.92053 -0.0237476 0)
(2.96318 -0.0234127 0)
(3.00527 -0.0230781 0)
(3.04681 -0.0227439 0)
(3.08779 -0.02241 0)
(3.12821 -0.0220765 0)
(3.16807 -0.0217432 0)
(3.20736 -0.02141 0)
(3.24609 -0.0210768 0)
(3.28425 -0.0207429 0)
(3.32182 -0.020408 0)
(3.35882 -0.0200714 0)
(3.39523 -0.0197322 0)
(3.43103 -0.0193896 0)
(3.46623 -0.0190423 0)
(3.5008 -0.0186894 0)
(3.53472 -0.0183297 0)
(3.56798 -0.0179627 0)
(3.60054 -0.0175889 0)
(3.63239 -0.0172106 0)
(3.66349 -0.0168336 0)
(3.69384 -0.016469 0)
(3.72342 -0.0161377 0)
(3.7523 -0.0158755 0)
(3.78056 -0.0157421 0)
(3.80844 -0.0158327 0)
(3.83635 -0.0162924 0)
(3.865 -0.0173285 0)
(3.89554 -0.019202 0)
(3.92975 -0.0221563 0)
(3.96974 -0.0261559 0)
(4.01785 -0.0303016 0)
(4.11944 -0.0336075 0)
(4.04127 0.00240123 0)
(4.23309 0.0370984 0)
(3.93723 0.00854789 0)
(0.980595 0.287862 0)
(0.943055 0.350444 0)
(0.798988 0.257273 0)
(0.655096 0.164884 0)
(0.547108 0.0958663 0)
(0.476171 0.046331 0)
(0.435546 0.0111588 0)
(0.419204 -0.0140256 0)
(0.421925 -0.0323891 0)
(0.439458 -0.0460272 0)
(0.468479 -0.0563147 0)
(0.506433 -0.06418 0)
(0.551374 -0.0702695 0)
(0.601822 -0.0750405 0)
(0.656651 -0.0788261 0)
(0.715 -0.0818697 0)
(0.776212 -0.0843496 0)
(0.839781 -0.0863975 0)
(0.905315 -0.0881106 0)
(0.972508 -0.08956 0)
(1.04112 -0.0907982 0)
(1.11095 -0.0918639 0)
(1.18185 -0.092785 0)
(1.25368 -0.0935819 0)
(1.32633 -0.0942698 0)
(1.3997 -0.0948598 0)
(1.4737 -0.09536 0)
(1.54826 -0.0957768 0)
(1.6233 -0.0961149 0)
(1.69875 -0.096378 0)
(1.77455 -0.0965694 0)
(1.85064 -0.0966919 0)
(1.92695 -0.096748 0)
(2.00343 -0.0967402 0)
(2.08003 -0.0966708 0)
(2.15669 -0.096542 0)
(2.23336 -0.0963561 0)
(2.30999 -0.0961153 0)
(2.38654 -0.0958218 0)
(2.46295 -0.0954779 0)
(2.53919 -0.0950858 0)
(2.61521 -0.0946481 0)
(2.69097 -0.094167 0)
(2.76644 -0.0936447 0)
(2.84157 -0.0930833 0)
(2.91634 -0.092485 0)
(2.99071 -0.0918518 0)
(3.06464 -0.0911859 0)
(3.13812 -0.0904893 0)
(3.2111 -0.0897641 0)
(3.28357 -0.0890123 0)
(3.3555 -0.0882356 0)
(3.42686 -0.0874357 0)
(3.49765 -0.0866144 0)
(3.56782 -0.0857734 0)
(3.63737 -0.0849143 0)
(3.70628 -0.0840387 0)
(3.77454 -0.083148 0)
(3.84212 -0.0822436 0)
(3.90901 -0.0813267 0)
(3.97521 -0.0803986 0)
(4.0407 -0.0794605 0)
(4.10546 -0.0785135 0)
(4.1695 -0.0775585 0)
(4.2328 -0.0765964 0)
(4.29535 -0.0756278 0)
(4.35715 -0.0746533 0)
(4.41819 -0.0736735 0)
(4.47846 -0.0726884 0)
(4.53795 -0.0716983 0)
(4.59667 -0.070703 0)
(4.65461 -0.0697022 0)
(4.71175 -0.068695 0)
(4.76809 -0.0676799 0)
(4.82363 -0.066655 0)
(4.87834 -0.065618 0)
(4.93224 -0.0645658 0)
(4.98528 -0.0634948 0)
(5.03748 -0.0624002 0)
(5.08879 -0.061277 0)
(5.1392 -0.0601203 0)
(5.18868 -0.0589259 0)
(5.23721 -0.0576918 0)
(5.28474 -0.0564212 0)
(5.33127 -0.0551264 0)
(5.37677 -0.0538363 0)
(5.42126 -0.0526081 0)
(5.4648 -0.0515457 0)
(5.50757 -0.0508267 0)
(5.54988 -0.050744 0)
(5.59231 -0.0517591 0)
(5.63589 -0.0545588 0)
(5.68235 -0.0600806 0)
(5.73461 -0.0694063 0)
(5.79684 -0.0832927 0)
(5.87317 -0.100822 0)
(6.06897 -0.119285 0)
(5.92038 -0.114182 0)
(6.55099 -0.0428646 0)
(6.6093 -0.0601416 0)
(1.01791 0.266046 0)
(1.03667 0.413819 0)
(0.992453 0.360329 0)
(0.919441 0.268832 0)
(0.842342 0.182747 0)
(0.775699 0.110194 0)
(0.723772 0.0523041 0)
(0.687153 0.00723348 0)
(0.66459 -0.0275869 0)
(0.654157 -0.0544804 0)
(0.653821 -0.075317 0)
(0.661731 -0.091546 0)
(0.676322 -0.104274 0)
(0.696317 -0.11434 0)
(0.720695 -0.122378 0)
(0.748652 -0.12887 0)
(0.779554 -0.134176 0)
(0.812906 -0.138569 0)
(0.848323 -0.142252 0)
(0.885501 -0.145379 0)
(0.9242 -0.148063 0)
(0.964228 -0.150388 0)
(1.00543 -0.152417 0)
(1.04769 -0.154196 0)
(1.0909 -0.155759 0)
(1.13496 -0.157133 0)
(1.17981 -0.158334 0)
(1.22537 -0.159379 0)
(1.27158 -0.160277 0)
(1.31839 -0.161037 0)
(1.36574 -0.161665 0)
(1.41359 -0.162167 0)
(1.46188 -0.162548 0)
(1.51057 -0.162812 0)
(1.55962 -0.162964 0)
(1.60897 -0.163007 0)
(1.6586 -0.162945 0)
(1.70846 -0.162782 0)
(1.75851 -0.162521 0)
(1.8087 -0.162166 0)
(1.85902 -0.161721 0)
(1.90941 -0.161191 0)
(1.95984 -0.160578 0)
(2.01028 -0.159887 0)
(2.06069 -0.159121 0)
(2.11105 -0.158284 0)
(2.16133 -0.15738 0)
(2.21149 -0.156412 0)
(2.26151 -0.155385 0)
(2.31136 -0.1543 0)
(2.36101 -0.153163 0)
(2.41045 -0.151976 0)
(2.45964 -0.150742 0)
(2.50858 -0.149464 0)
(2.55723 -0.148146 0)
(2.60557 -0.14679 0)
(2.6536 -0.1454 0)
(2.70129 -0.143977 0)
(2.74862 -0.142524 0)
(2.79558 -0.141045 0)
(2.84216 -0.13954 0)
(2.88834 -0.138014 0)
(2.93411 -0.136466 0)
(2.97946 -0.1349 0)
(3.02438 -0.133317 0)
(3.06885 -0.131717 0)
(3.11287 -0.130104 0)
(3.15643 -0.128476 0)
(3.19953 -0.126836 0)
(3.24214 -0.125184 0)
(3.28427 -0.123519 0)
(3.3259 -0.121842 0)
(3.36703 -0.120151 0)
(3.40766 -0.118443 0)
(3.44776 -0.116718 0)
(3.48735 -0.11497 0)
(3.5264 -0.113196 0)
(3.5649 -0.11139 0)
(3.60285 -0.109545 0)
(3.64023 -0.107654 0)
(3.67703 -0.105709 0)
(3.71323 -0.103704 0)
(3.74882 -0.101636 0)
(3.78378 -0.09951 0)
(3.8181 -0.0973428 0)
(3.85177 -0.0951774 0)
(3.88478 -0.093098 0)
(3.91718 -0.0912579 0)
(3.94903 -0.0899228 0)
(3.98045 -0.0895385 0)
(4.01172 -0.0908308 0)
(4.04329 -0.0949431 0)
(4.07604 -0.103601 0)
(4.11173 -0.119227 0)
(4.15351 -0.144831 0)
(4.2056 -0.182912 0)
(4.34709 -0.232824 0)
(4.30057 -0.348851 0)
(4.46842 -0.349762 0)
(5.15157 -0.31441 0)
(1.01676 0.220238 0)
(1.05378 0.398645 0)
(1.07008 0.384502 0)
(1.05901 0.316235 0)
(1.02742 0.238195 0)
(0.988177 0.163394 0)
(0.948394 0.0977278 0)
(0.912186 0.0427716 0)
(0.881525 -0.00203634 0)
(0.857025 -0.0380546 0)
(0.838482 -0.0668039 0)
(0.82531 -0.0897016 0)
(0.816801 -0.107964 0)
(0.812264 -0.122591 0)
(0.811074 -0.134386 0)
(0.812698 -0.143981 0)
(0.81669 -0.151866 0)
(0.822687 -0.158421 0)
(0.830396 -0.163938 0)
(0.839582 -0.168638 0)
(0.850055 -0.172687 0)
(0.861666 -0.176213 0)
(0.874294 -0.17931 0)
(0.88784 -0.182049 0)
(0.902225 -0.184483 0)
(0.917382 -0.186652 0)
(0.933256 -0.188585 0)
(0.949799 -0.190304 0)
(0.966968 -0.191826 0)
(0.984725 -0.193164 0)
(1.00304 -0.194328 0)
(1.02187 -0.195326 0)
(1.04119 -0.196165 0)
(1.06098 -0.196851 0)
(1.0812 -0.197388 0)
(1.10183 -0.197783 0)
(1.12284 -0.198039 0)
(1.1442 -0.198161 0)
(1.16589 -0.198153 0)
(1.18789 -0.198021 0)
(1.21016 -0.197768 0)
(1.23269 -0.1974 0)
(1.25544 -0.196921 0)
(1.27841 -0.196335 0)
(1.30156 -0.195648 0)
(1.32487 -0.194863 0)
(1.34833 -0.193985 0)
(1.3719 -0.19302 0)
(1.39558 -0.191971 0)
(1.41934 -0.190843 0)
(1.44316 -0.18964 0)
(1.46702 -0.188366 0)
(1.49091 -0.187026 0)
(1.5148 -0.185622 0)
(1.53869 -0.184161 0)
(1.56256 -0.182644 0)
(1.58639 -0.181076 0)
(1.61017 -0.179461 0)
(1.63388 -0.1778 0)
(1.65751 -0.176099 0)
(1.68106 -0.17436 0)
(1.7045 -0.172586 0)
(1.72782 -0.170779 0)
(1.75103 -0.168943 0)
(1.7741 -0.167079 0)
(1.79702 -0.16519 0)
(1.81979 -0.163276 0)
(1.84241 -0.16134 0)
(1.86485 -0.159383 0)
(1.88711 -0.157406 0)
(1.9092 -0.155409 0)
(1.93108 -0.153392 0)
(1.95277 -0.151354 0)
(1.97426 -0.149293 0)
(1.99554 -0.147206 0)
(2.0166 -0.145089 0)
(2.03743 -0.142939 0)
(2.05804 -0.140749 0)
(2.07841 -0.138512 0)
(2.09855 -0.13622 0)
(2.11845 -0.133865 0)
(2.1381 -0.131441 0)
(2.15751 -0.128946 0)
(2.17667 -0.126384 0)
(2.1956 -0.123777 0)
(2.21429 -0.121171 0)
(2.23278 -0.118659 0)
(2.25107 -0.116405 0)
(2.26921 -0.114697 0)
(2.28722 -0.114017 0)
(2.30517 -0.115162 0)
(2.32311 -0.119419 0)
(2.34116 -0.12883 0)
(2.35974 -0.146494 0)
(2.38009 -0.176781 0)
(2.40411 -0.224767 0)
(2.47749 -0.293775 0)
(2.44014 -0.432268 0)
(2.38307 -0.542245 0)
(2.75499 -0.513922 0)
(1.01314 0.184905 0)
(1.05436 0.357046 0)
(1.10026 0.361562 0)
(1.12876 0.315564 0)
(1.13574 0.254806 0)
(1.12812 0.190328 0)
(1.11099 0.12901 0)
(1.08866 0.074325 0)
(1.06425 0.0274433 0)
(1.03983 -0.0117668 0)
(1.01654 -0.0440638 0)
(0.994897 -0.0704396 0)
(0.975084 -0.0919032 0)
(0.957066 -0.109377 0)
(0.940718 -0.123654 0)
(0.925873 -0.135393 0)
(0.912359 -0.145128 0)
(0.900014 -0.153282 0)
(0.888695 -0.16019 0)
(0.878279 -0.166108 0)
(0.868663 -0.171238 0)
(0.859762 -0.175731 0)
(0.851508 -0.179704 0)
(0.843846 -0.183244 0)
(0.836728 -0.186418 0)
(0.830121 -0.189277 0)
(0.823994 -0.191856 0)
(0.818322 -0.194186 0)
(0.813086 -0.196287 0)
(0.808269 -0.198175 0)
(0.803855 -0.199865 0)
(0.799832 -0.201364 0)
(0.796187 -0.202682 0)
(0.79291 -0.203826 0)
(0.789991 -0.204802 0)
(0.787418 -0.205614 0)
(0.785183 -0.206268 0)
(0.783275 -0.206769 0)
(0.781684 -0.207122 0)
(0.780401 -0.207331 0)
(0.779415 -0.207402 0)
(0.778717 -0.207339 0)
(0.778298 -0.207147 0)
(0.778146 -0.206831 0)
(0.778252 -0.206395 0)
(0.778605 -0.205845 0)
(0.779197 -0.205187 0)
(0.780017 -0.204423 0)
(0.781055 -0.203561 0)
(0.782302 -0.202604 0)
(0.783748 -0.201556 0)
(0.785384 -0.200423 0)
(0.787201 -0.199209 0)
(0.789189 -0.197919 0)
(0.791339 -0.196557 0)
(0.793643 -0.195128 0)
(0.796093 -0.193634 0)
(0.798679 -0.192081 0)
(0.801395 -0.190472 0)
(0.804232 -0.188811 0)
(0.807183 -0.187101 0)
(0.810239 -0.185346 0)
(0.813395 -0.183549 0)
(0.816642 -0.181713 0)
(0.819976 -0.179841 0)
(0.823388 -0.177934 0)
(0.826874 -0.175995 0)
(0.830427 -0.174027 0)
(0.834042 -0.17203 0)
(0.837713 -0.170005 0)
(0.841435 -0.167955 0)
(0.845203 -0.165877 0)
(0.849013 -0.163773 0)
(0.852862 -0.16164 0)
(0.856744 -0.159476 0)
(0.860659 -0.157279 0)
(0.864604 -0.155043 0)
(0.868577 -0.152765 0)
(0.872579 -0.150437 0)
(0.876611 -0.148054 0)
(0.880678 -0.145609 0)
(0.884785 -0.143098 0)
(0.888944 -0.140522 0)
(0.893167 -0.137888 0)
(0.897473 -0.135221 0)
(0.901886 -0.132573 0)
(0.906431 -0.130039 0)
(0.911138 -0.127784 0)
(0.916031 -0.126091 0)
(0.921109 -0.125419 0)
(0.926322 -0.126519 0)
(0.931514 -0.130604 0)
(0.936352 -0.139605 0)
(0.940347 -0.156555 0)
(0.94308 -0.186015 0)
(0.94381 -0.234003 0)
(0.965099 -0.30574 0)
(0.918266 -0.430798 0)
(0.76834 -0.543366 0)
(0.944266 -0.513681 0)
(1.01193 0.154497 0)
(1.05526 0.303982 0)
(1.11547 0.313319 0)
(1.16622 0.282895 0)
(1.19973 0.239145 0)
(1.21836 0.189041 0)
(1.22417 0.138213 0)
(1.22002 0.0903823 0)
(1.2087 0.0475294 0)
(1.19256 0.0103708 0)
(1.17334 -0.0211566 0)
(1.1522 -0.0475363 0)
(1.12995 -0.0694352 0)
(1.10709 -0.087556 0)
(1.08394 -0.10256 0)
(1.06071 -0.115031 0)
(1.03749 -0.125463 0)
(1.01436 -0.134262 0)
(0.991336 -0.141757 0)
(0.968446 -0.148209 0)
(0.945687 -0.153823 0)
(0.92306 -0.158757 0)
(0.900562 -0.163136 0)
(0.878191 -0.167053 0)
(0.855946 -0.170581 0)
(0.833827 -0.173776 0)
(0.811837 -0.176677 0)
(0.789979 -0.179318 0)
(0.768256 -0.181722 0)
(0.746674 -0.183908 0)
(0.72524 -0.18589 0)
(0.70396 -0.187679 0)
(0.682841 -0.189284 0)
(0.66189 -0.190712 0)
(0.641115 -0.19197 0)
(0.620522 -0.193063 0)
(0.600119 -0.193997 0)
(0.579911 -0.194776 0)
(0.559905 -0.195404 0)
(0.540107 -0.195887 0)
(0.520522 -0.196229 0)
(0.501155 -0.196434 0)
(0.482012 -0.196508 0)
(0.463095 -0.196454 0)
(0.444409 -0.196277 0)
(0.425956 -0.195983 0)
(0.40774 -0.195576 0)
(0.389763 -0.195061 0)
(0.372026 -0.194443 0)
(0.354533 -0.193725 0)
(0.337283 -0.192914 0)
(0.320277 -0.192012 0)
(0.303518 -0.191025 0)
(0.287004 -0.189957 0)
(0.270735 -0.188813 0)
(0.254713 -0.187596 0)
(0.238935 -0.186312 0)
(0.223402 -0.184962 0)
(0.208113 -0.183552 0)
(0.193067 -0.182086 0)
(0.178262 -0.180566 0)
(0.163697 -0.178997 0)
(0.14937 -0.177381 0)
(0.135281 -0.175722 0)
(0.121428 -0.174022 0)
(0.107808 -0.172284 0)
(0.0944206 -0.17051 0)
(0.0812638 -0.168701 0)
(0.0683359 -0.166861 0)
(0.0556352 -0.16499 0)
(0.0431601 -0.163088 0)
(0.0309094 -0.161157 0)
(0.018882 -0.159197 0)
(0.00707725 -0.157206 0)
(-0.0045047 -0.155183 0)
(-0.015863 -0.153126 0)
(-0.0269959 -0.151031 0)
(-0.037901 -0.148894 0)
(-0.0485743 -0.146712 0)
(-0.0590097 -0.14448 0)
(-0.0691987 -0.142195 0)
(-0.0791298 -0.139855 0)
(-0.088788 -0.137465 0)
(-0.0981551 -0.135037 0)
(-0.10721 -0.132601 0)
(-0.115929 -0.130211 0)
(-0.124289 -0.127962 0)
(-0.132271 -0.126014 0)
(-0.139874 -0.124628 0)
(-0.14714 -0.124215 0)
(-0.154191 -0.125423 0)
(-0.161308 -0.129269 0)
(-0.169058 -0.137341 0)
(-0.178415 -0.152128 0)
(-0.190755 -0.177497 0)
(-0.208315 -0.218948 0)
(-0.22199 -0.281739 0)
(-0.278089 -0.382195 0)
(-0.462274 -0.475855 0)
(-0.390183 -0.446359 0)
(1.01258 0.124057 0)
(1.05893 0.244166 0)
(1.12702 0.252318 0)
(1.18958 0.231979 0)
(1.23931 0.20204 0)
(1.27645 0.166002 0)
(1.30079 0.127611 0)
(1.31354 0.089899 0)
(1.31653 0.0548508 0)
(1.31171 0.0235081 0)
(1.3008 -0.00378296 0)
(1.28517 -0.0271205 0)
(1.26593 -0.04685 0)
(1.24389 -0.0634253 0)
(1.21971 -0.0773237 0)
(1.19384 -0.0889962 0)
(1.16665 -0.0988427 0)
(1.13839 -0.107205 0)
(1.10927 -0.114366 0)
(1.07942 -0.120557 0)
(1.04897 -0.125963 0)
(1.01799 -0.130728 0)
(0.986567 -0.134968 0)
(0.954743 -0.138772 0)
(0.92257 -0.142207 0)
(0.890088 -0.145328 0)
(0.857332 -0.148173 0)
(0.824334 -0.150775 0)
(0.791126 -0.153157 0)
(0.757733 -0.155337 0)
(0.724185 -0.157329 0)
(0.690506 -0.159145 0)
(0.656722 -0.160792 0)
(0.622857 -0.162279 0)
(0.588936 -0.16361 0)
(0.554981 -0.164792 0)
(0.521015 -0.165829 0)
(0.487059 -0.166725 0)
(0.453135 -0.167484 0)
(0.419263 -0.168111 0)
(0.385463 -0.16861 0)
(0.351753 -0.168984 0)
(0.318154 -0.169237 0)
(0.28468 -0.169373 0)
(0.25135 -0.169397 0)
(0.218179 -0.169313 0)
(0.185182 -0.169125 0)
(0.152373 -0.168838 0)
(0.119766 -0.168454 0)
(0.0873733 -0.167979 0)
(0.0552079 -0.167416 0)
(0.0232807 -0.166769 0)
(-0.00839792 -0.166042 0)
(-0.0398179 -0.165239 0)
(-0.0709701 -0.164365 0)
(-0.101846 -0.163423 0)
(-0.132437 -0.162415 0)
(-0.162736 -0.161347 0)
(-0.192737 -0.160221 0)
(-0.222433 -0.159041 0)
(-0.251818 -0.15781 0)
(-0.280887 -0.156531 0)
(-0.309636 -0.155207 0)
(-0.338059 -0.153841 0)
(-0.366154 -0.152435 0)
(-0.393916 -0.150992 0)
(-0.421341 -0.149514 0)
(-0.448428 -0.148002 0)
(-0.475172 -0.146459 0)
(-0.501571 -0.144885 0)
(-0.527623 -0.143282 0)
(-0.553326 -0.14165 0)
(-0.578675 -0.13999 0)
(-0.603669 -0.138301 0)
(-0.628303 -0.136582 0)
(-0.652572 -0.134831 0)
(-0.676473 -0.133047 0)
(-0.699999 -0.131226 0)
(-0.723142 -0.129367 0)
(-0.745895 -0.127468 0)
(-0.768245 -0.125527 0)
(-0.79018 -0.123545 0)
(-0.811685 -0.121529 0)
(-0.832744 -0.119496 0)
(-0.85334 -0.117474 0)
(-0.87346 -0.115518 0)
(-0.893097 -0.113716 0)
(-0.91226 -0.112211 0)
(-0.930989 -0.111227 0)
(-0.949381 -0.11111 0)
(-0.967633 -0.112379 0)
(-0.986124 -0.115818 0)
(-1.00554 -0.122605 0)
(-1.02705 -0.13454 0)
(-1.05237 -0.154418 0)
(-1.08407 -0.18642 0)
(-1.11962 -0.234896 0)
(-1.18178 -0.308596 0)
(-1.37117 -0.380109 0)
(-1.35953 -0.35324 0)
(1.01395 0.0914329 0)
(1.06389 0.178975 0)
(1.13711 0.184291 0)
(1.20589 0.170876 0)
(1.26479 0.151578 0)
(1.31363 0.127745 0)
(1.35097 0.101495 0)
(1.37679 0.0748757 0)
(1.39197 0.049431 0)
(1.39786 0.0261171 0)
(1.39587 0.00539157 0)
(1.3873 -0.0126485 0)
(1.37328 -0.02813 0)
(1.3548 -0.0413023 0)
(1.33265 -0.0524657 0)
(1.30748 -0.0619241 0)
(1.27981 -0.0699609 0)
(1.25004 -0.0768265 0)
(1.21852 -0.0827338 0)
(1.18548 -0.0878597 0)
(1.15115 -0.0923483 0)
(1.11569 -0.0963149 0)
(1.07922 -0.0998513 0)
(1.04186 -0.103029 0)
(1.00369 -0.105905 0)
(0.964806 -0.108523 0)
(0.925263 -0.110915 0)
(0.885122 -0.113109 0)
(0.844437 -0.115124 0)
(0.803258 -0.116975 0)
(0.76163 -0.118675 0)
(0.719596 -0.120232 0)
(0.677198 -0.121655 0)
(0.634474 -0.122949 0)
(0.591464 -0.124119 0)
(0.548204 -0.12517 0)
(0.50473 -0.126105 0)
(0.461075 -0.126927 0)
(0.417275 -0.127641 0)
(0.373361 -0.128249 0)
(0.329367 -0.128754 0)
(0.285322 -0.129159 0)
(0.241256 -0.129468 0)
(0.197199 -0.129684 0)
(0.153177 -0.12981 0)
(0.109217 -0.129848 0)
(0.0653444 -0.129804 0)
(0.0215847 -0.129679 0)
(-0.022039 -0.129476 0)
(-0.0655043 -0.1292 0)
(-0.10879 -0.128852 0)
(-0.151875 -0.128436 0)
(-0.194741 -0.127956 0)
(-0.237369 -0.127414 0)
(-0.279742 -0.126813 0)
(-0.321843 -0.126157 0)
(-0.363658 -0.125448 0)
(-0.40517 -0.124689 0)
(-0.446367 -0.123882 0)
(-0.487236 -0.123031 0)
(-0.527764 -0.122137 0)
(-0.567941 -0.121204 0)
(-0.607755 -0.120233 0)
(-0.647197 -0.119228 0)
(-0.686258 -0.118189 0)
(-0.72493 -0.117119 0)
(-0.763203 -0.116019 0)
(-0.80107 -0.114892 0)
(-0.838525 -0.113737 0)
(-0.875559 -0.112557 0)
(-0.912168 -0.111353 0)
(-0.948344 -0.110125 0)
(-0.984081 -0.108873 0)
(-1.01937 -0.107598 0)
(-1.05421 -0.106298 0)
(-1.08859 -0.104972 0)
(-1.1225 -0.10362 0)
(-1.15593 -0.102241 0)
(-1.18888 -0.100832 0)
(-1.22133 -0.0993938 0)
(-1.25327 -0.097926 0)
(-1.28469 -0.0964314 0)
(-1.31557 -0.0949173 0)
(-1.34591 -0.0933985 0)
(-1.37569 -0.0919014 0)
(-1.40492 -0.0904709 0)
(-1.43361 -0.0891801 0)
(-1.4618 -0.088143 0)
(-1.48958 -0.0875335 0)
(-1.51712 -0.087612 0)
(-1.54467 -0.0887578 0)
(-1.5727 -0.0915207 0)
(-1.60196 -0.0966933 0)
(-1.63368 -0.105436 0)
(-1.66961 -0.119512 0)
(-1.71199 -0.141635 0)
(-1.76083 -0.174878 0)
(-1.82663 -0.223864 0)
(-2.00862 -0.273605 0)
(-2.03309 -0.252203 0)
(1.01522 0.0561862 0)
(1.06827 0.10938 0)
(1.14493 0.112118 0)
(1.21695 0.1043 0)
(1.28065 0.0934782 0)
(1.3361 0.0799939 0)
(1.38136 0.0648468 0)
(1.41574 0.0491652 0)
(1.43944 0.0338882 0)
(1.4533 0.0196541 0)
(1.4584 0.00681497 0)
(1.45585 -0.00450082 0)
(1.44674 -0.0143159 0)
(1.43207 -0.0227436 0)
(1.41269 -0.029941 0)
(1.38935 -0.0360783 0)
(1.36265 -0.0413211 0)
(1.33311 -0.0458191 0)
(1.30112 -0.0497029 0)
(1.26704 -0.0530821 0)
(1.23112 -0.0560476 0)
(1.19359 -0.0586728 0)
(1.15464 -0.0610165 0)
(1.11441 -0.0631253 0)
(1.07302 -0.0650358 0)
(1.03059 -0.0667767 0)
(0.987198 -0.0683703 0)
(0.942933 -0.0698337 0)
(0.897865 -0.0711802 0)
(0.852059 -0.0724202 0)
(0.805575 -0.0735615 0)
(0.758469 -0.0746107 0)
(0.710795 -0.0755726 0)
(0.662602 -0.0764512 0)
(0.613941 -0.0772498 0)
(0.564858 -0.0779712 0)
(0.515398 -0.0786179 0)
(0.465606 -0.0791923 0)
(0.415523 -0.0796966 0)
(0.365192 -0.0801328 0)
(0.314655 -0.0805028 0)
(0.263949 -0.0808085 0)
(0.213114 -0.0810518 0)
(0.162185 -0.0812351 0)
(0.111198 -0.0813603 0)
(0.0601891 -0.0814295 0)
(0.00918998 -0.0814447 0)
(-0.0417668 -0.0814079 0)
(-0.0926505 -0.0813209 0)
(-0.143432 -0.0811858 0)
(-0.194082 -0.0810046 0)
(-0.244574 -0.0807794 0)
(-0.294883 -0.0805121 0)
(-0.344983 -0.0802048 0)
(-0.394852 -0.0798592 0)
(-0.444467 -0.0794772 0)
(-0.493807 -0.0790607 0)
(-0.542852 -0.0786114 0)
(-0.591584 -0.0781311 0)
(-0.639983 -0.0776215 0)
(-0.688034 -0.077084 0)
(-0.73572 -0.0765203 0)
(-0.783027 -0.0759319 0)
(-0.829941 -0.0753205 0)
(-0.876448 -0.0746875 0)
(-0.922536 -0.0740337 0)
(-0.968193 -0.0733603 0)
(-1.01341 -0.072668 0)
(-1.05817 -0.0719578 0)
(-1.10247 -0.0712307 0)
(-1.1463 -0.0704875 0)
(-1.18965 -0.0697288 0)
(-1.2325 -0.0689545 0)
(-1.27486 -0.0681645 0)
(-1.3167 -0.0673585 0)
(-1.35803 -0.0665362 0)
(-1.39883 -0.0656972 0)
(-1.43909 -0.064841 0)
(-1.47879 -0.063967 0)
(-1.51794 -0.0630751 0)
(-1.5565 -0.0621658 0)
(-1.59448 -0.061242 0)
(-1.63186 -0.0603089 0)
(-1.66863 -0.0593769 0)
(-1.7048 -0.0584641 0)
(-1.74038 -0.0576006 0)
(-1.7754 -0.056835 0)
(-1.80993 -0.0562407 0)
(-1.84411 -0.0559277 0)
(-1.87812 -0.0560583 0)
(-1.91231 -0.0568632 0)
(-1.9472 -0.0586679 0)
(-1.98359 -0.0619242 0)
(-2.02269 -0.0672671 0)
(-2.06618 -0.0756312 0)
(-2.1159 -0.0884724 0)
(-2.17244 -0.107562 0)
(-2.2405 -0.135149 0)
(-2.41271 -0.164314 0)
(-2.45771 -0.150583 0)
(1.01595 0.018967 0)
(1.07077 0.0368083 0)
(1.14923 0.0376243 0)
(1.22267 0.0350356 0)
(1.2884 0.0315445 0)
(1.34678 0.0271883 0)
(1.39575 0.0222516 0)
(1.43429 0.0170885 0)
(1.46231 0.0120103 0)
(1.48035 0.00723856 0)
(1.48929 0.00290164 0)
(1.49013 -0.000945245 0)
(1.4839 -0.00430066 0)
(1.47157 -0.0071957 0)
(1.45402 -0.00967793 0)
(1.43201 -0.0118017 0)
(1.40621 -0.0136212 0)
(1.37716 -0.0151858 0)
(1.34532 -0.0165391 0)
(1.31105 -0.0177185 0)
(1.27466 -0.0187549 0)
(1.23641 -0.0196732 0)
(1.19649 -0.0204938 0)
(1.15509 -0.0212325 0)
(1.11233 -0.0219023 0)
(1.06836 -0.0225129 0)
(1.02327 -0.0230723 0)
(0.977144 -0.0235862 0)
(0.930077 -0.0240594 0)
(0.882138 -0.0244955 0)
(0.833396 -0.0248974 0)
(0.783914 -0.0252674 0)
(0.733751 -0.0256072 0)
(0.682965 -0.0259179 0)
(0.63161 -0.0262009 0)
(0.579738 -0.026457 0)
(0.527399 -0.0266873 0)
(0.474643 -0.0268927 0)
(0.421517 -0.0270739 0)
(0.368068 -0.0272315 0)
(0.314341 -0.0273662 0)
(0.260381 -0.0274787 0)
(0.206228 -0.0275697 0)
(0.151925 -0.0276401 0)
(0.0975105 -0.0276907 0)
(0.0430244 -0.0277221 0)
(-0.0114966 -0.027735 0)
(-0.0660164 -0.0277299 0)
(-0.120501 -0.0277076 0)
(-0.174916 -0.0276688 0)
(-0.22923 -0.0276141 0)
(-0.283413 -0.0275444 0)
(-0.337435 -0.0274604 0)
(-0.391269 -0.0273625 0)
(-0.444888 -0.0272513 0)
(-0.498266 -0.0271277 0)
(-0.55138 -0.0269921 0)
(-0.604207 -0.0268453 0)
(-0.656725 -0.0266878 0)
(-0.708913 -0.02652 0)
(-0.760752 -0.0263425 0)
(-0.812223 -0.0261559 0)
(-0.86331 -0.025961 0)
(-0.913997 -0.0257583 0)
(-0.964268 -0.0255482 0)
(-1.01411 -0.0253309 0)
(-1.0635 -0.0251064 0)
(-1.11244 -0.0248753 0)
(-1.16091 -0.0246379 0)
(-1.20889 -0.0243948 0)
(-1.25639 -0.0241464 0)
(-1.30338 -0.0238925 0)
(-1.34985 -0.0236332 0)
(-1.3958 -0.0233684 0)
(-1.44122 -0.0230983 0)
(-1.48609 -0.0228229 0)
(-1.53039 -0.0225421 0)
(-1.57413 -0.0222557 0)
(-1.61729 -0.0219639 0)
(-1.65985 -0.0216666 0)
(-1.7018 -0.021364 0)
(-1.74313 -0.0210572 0)
(-1.78384 -0.0207482 0)
(-1.82391 -0.0204406 0)
(-1.86335 -0.0201408 0)
(-1.90219 -0.01986 0)
(-1.94047 -0.019615 0)
(-1.97828 -0.0194314 0)
(-2.01575 -0.0193468 0)
(-2.05313 -0.0194162 0)
(-2.09078 -0.0197178 0)
(-2.12925 -0.0203589 0)
(-2.16937 -0.021486 0)
(-2.21234 -0.0232996 0)
(-2.25977 -0.0260881 0)
(-2.31326 -0.0303022 0)
(-2.3734 -0.0365136 0)
(-2.44264 -0.0453939 0)
(-2.60862 -0.0550059 0)
(-2.66297 -0.050289 0)
(1.01595 -0.0189728 0)
(1.07077 -0.0368197 0)
(1.14923 -0.0376331 0)
(1.22267 -0.0350411 0)
(1.2884 -0.0315474 0)
(1.34678 -0.0271897 0)
(1.39574 -0.0222516 0)
(1.43429 -0.0170872 0)
(1.46231 -0.0120078 0)
(1.48035 -0.00723474 0)
(1.48929 -0.00289729 0)
(1.49013 0.000950458 0)
(1.4839 0.00430637 0)
(1.47157 0.00720154 0)
(1.45401 0.00968411 0)
(1.43201 0.0118081 0)
(1.40621 0.0136275 0)
(1.37716 0.0151919 0)
(1.34532 0.0165451 0)
(1.31105 0.0177239 0)
(1.27466 0.0187593 0)
(1.2364 0.0196765 0)
(1.19649 0.0204958 0)
(1.15508 0.0212333 0)
(1.11233 0.0219018 0)
(1.06836 0.0225112 0)
(1.02326 0.0230695 0)
(0.977144 0.0235827 0)
(0.930077 0.0240555 0)
(0.882138 0.0244913 0)
(0.833396 0.0248929 0)
(0.783913 0.0252626 0)
(0.733751 0.0256024 0)
(0.682965 0.0259137 0)
(0.631609 0.0261976 0)
(0.579737 0.0264551 0)
(0.527398 0.0266869 0)
(0.474642 0.0268937 0)
(0.421516 0.0270763 0)
(0.368067 0.0272355 0)
(0.31434 0.027372 0)
(0.260379 0.0274863 0)
(0.206226 0.0275789 0)
(0.151923 0.0276504 0)
(0.0975084 0.0277015 0)
(0.0430222 0.0277329 0)
(-0.0114988 0.0277452 0)
(-0.0660186 0.0277393 0)
(-0.120503 0.0277158 0)
(-0.174918 0.0276753 0)
(-0.229232 0.0276185 0)
(-0.283415 0.0275461 0)
(-0.337437 0.0274588 0)
(-0.391271 0.0273573 0)
(-0.44489 0.0272424 0)
(-0.498268 0.0271147 0)
(-0.551383 0.0269747 0)
(-0.60421 0.0268231 0)
(-0.656728 0.0266606 0)
(-0.708916 0.0264879 0)
(-0.760755 0.0263053 0)
(-0.812228 0.0261133 0)
(-0.863316 0.0259122 0)
(-0.914003 0.0257026 0)
(-0.964275 0.0254851 0)
(-1.01412 0.0252605 0)
(-1.06351 0.0250292 0)
(-1.11245 0.0247913 0)
(-1.16092 0.0245472 0)
(-1.20891 0.0242968 0)
(-1.2564 0.0240404 0)
(-1.3034 0.0237785 0)
(-1.34987 0.023511 0)
(-1.39583 0.023238 0)
(-1.44124 0.0229589 0)
(-1.48611 0.0226736 0)
(-1.53043 0.0223819 0)
(-1.57417 0.0220836 0)
(-1.61733 0.021778 0)
(-1.65989 0.0214652 0)
(-1.70185 0.0211459 0)
(-1.74318 0.020821 0)
(-1.78389 0.0204924 0)
(-1.82397 0.0201641 0)
(-1.86342 0.0198423 0)
(-1.90226 0.0195372 0)
(-1.94055 0.0192658 0)
(-1.97836 0.0190523 0)
(-2.01584 0.0189347 0)
(-2.05323 0.0189683 0)
(-2.09089 0.0192297 0)
(-2.12937 0.019827 0)
(-2.16949 0.020906 0)
(-2.21248 0.0226673 0)
(-2.25992 0.0253995 0)
(-2.31342 0.0295542 0)
(-2.37357 0.0357029 0)
(-2.44282 0.0445189 0)
(-2.6088 0.0540678 0)
(-2.66317 0.0493172 0)
(1.01522 -0.0561917 0)
(1.06827 -0.109391 0)
(1.14493 -0.112127 0)
(1.21695 -0.104306 0)
(1.28064 -0.0934815 0)
(1.33609 -0.0799951 0)
(1.38136 -0.0648467 0)
(1.41574 -0.0491637 0)
(1.43944 -0.0338855 0)
(1.4533 -0.0196508 0)
(1.45839 -0.00681071 0)
(1.45585 0.00450573 0)
(1.44674 0.0143214 0)
(1.43207 0.0227496 0)
(1.41269 0.0299472 0)
(1.38935 0.0360846 0)
(1.36265 0.0413273 0)
(1.3331 0.0458252 0)
(1.30112 0.0497084 0)
(1.26703 0.0530869 0)
(1.23112 0.0560513 0)
(1.19359 0.0586753 0)
(1.15464 0.0610177 0)
(1.1144 0.0631252 0)
(1.07302 0.0650345 0)
(1.03059 0.0667744 0)
(0.987197 0.0683671 0)
(0.942933 0.0698299 0)
(0.897865 0.071176 0)
(0.852059 0.0724155 0)
(0.805574 0.0735566 0)
(0.758468 0.0746057 0)
(0.710793 0.0755679 0)
(0.662601 0.0764472 0)
(0.61394 0.0772469 0)
(0.564856 0.0779695 0)
(0.515396 0.0786176 0)
(0.465602 0.0791935 0)
(0.41552 0.0796994 0)
(0.365189 0.0801372 0)
(0.314651 0.0805089 0)
(0.263944 0.0808162 0)
(0.213108 0.0810611 0)
(0.162179 0.0812454 0)
(0.111192 0.0813711 0)
(0.0601829 0.0814403 0)
(0.00918381 0.081455 0)
(-0.041773 0.0814171 0)
(-0.0926567 0.0813288 0)
(-0.143438 0.0811919 0)
(-0.194088 0.0810084 0)
(-0.24458 0.0807805 0)
(-0.294888 0.0805102 0)
(-0.344989 0.0801994 0)
(-0.394858 0.0798501 0)
(-0.444473 0.0794641 0)
(-0.493814 0.0790434 0)
(-0.54286 0.0785897 0)
(-0.591592 0.0781049 0)
(-0.639993 0.0775906 0)
(-0.688045 0.0770481 0)
(-0.735733 0.0764789 0)
(-0.783043 0.0758845 0)
(-0.829959 0.0752664 0)
(-0.876469 0.0746264 0)
(-0.92256 0.0739658 0)
(-0.96822 0.0732856 0)
(-1.01344 0.0725867 0)
(-1.05821 0.0718699 0)
(-1.10251 0.071136 0)
(-1.14635 0.0703857 0)
(-1.1897 0.0696195 0)
(-1.23256 0.0688374 0)
(-1.27493 0.0680392 0)
(-1.31678 0.0672246 0)
(-1.35812 0.066393 0)
(-1.39892 0.0655437 0)
(-1.43919 0.0646757 0)
(-1.47891 0.0637884 0)
(-1.51806 0.0628816 0)
(-1.55664 0.0619562 0)
(-1.59463 0.0610149 0)
(-1.63202 0.0600627 0)
(-1.66881 0.0591107 0)
(-1.705 0.0581765 0)
(-1.74059 0.0572898 0)
(-1.77563 0.0564988 0)
(-1.81019 0.0558757 0)
(-1.84438 0.0555311 0)
(-1.87842 0.0556268 0)
(-1.91264 0.0563931 0)
(-1.94755 0.0581549 0)
(-1.98397 0.061364 0)
(-2.0231 0.0666561 0)
(-2.06662 0.0749646 0)
(-2.11637 0.0877461 0)
(-2.17295 0.106772 0)
(-2.24104 0.134292 0)
(-2.41327 0.163393 0)
(-2.45831 0.149625 0)
(1.01395 -0.0914376 0)
(1.06389 -0.178984 0)
(1.13711 -0.184299 0)
(1.20588 -0.170881 0)
(1.26478 -0.151581 0)
(1.31363 -0.127746 0)
(1.35096 -0.101494 0)
(1.37678 -0.0748737 0)
(1.39196 -0.0494284 0)
(1.39785 -0.0261139 0)
(1.39586 -0.00538701 0)
(1.38729 0.0126534 0)
(1.37328 0.0281353 0)
(1.3548 0.0413083 0)
(1.33265 0.0524718 0)
(1.30747 0.0619301 0)
(1.2798 0.0699669 0)
(1.25004 0.0768321 0)
(1.21851 0.0827388 0)
(1.18548 0.0878639 0)
(1.15115 0.0923515 0)
(1.11568 0.0963169 0)
(1.07921 0.0998519 0)
(1.04185 0.103029 0)
(1.00369 0.105903 0)
(0.964804 0.10852 0)
(0.925262 0.110912 0)
(0.885121 0.113105 0)
(0.844437 0.11512 0)
(0.803257 0.116971 0)
(0.761629 0.118671 0)
(0.719595 0.120228 0)
(0.677196 0.121652 0)
(0.634472 0.122947 0)
(0.591462 0.124118 0)
(0.548201 0.12517 0)
(0.504725 0.126106 0)
(0.46107 0.12693 0)
(0.417269 0.127645 0)
(0.373355 0.128254 0)
(0.32936 0.128761 0)
(0.285314 0.129168 0)
(0.241248 0.129478 0)
(0.19719 0.129695 0)
(0.153167 0.129821 0)
(0.109207 0.12986 0)
(0.0653352 0.129814 0)
(0.0215757 0.129688 0)
(-0.0220478 0.129484 0)
(-0.0655127 0.129205 0)
(-0.108798 0.128855 0)
(-0.151883 0.128437 0)
(-0.194749 0.127954 0)
(-0.237377 0.127408 0)
(-0.279751 0.126804 0)
(-0.321853 0.126144 0)
(-0.363668 0.125431 0)
(-0.405182 0.124668 0)
(-0.446381 0.123858 0)
(-0.487252 0.123002 0)
(-0.527783 0.122104 0)
(-0.567963 0.121165 0)
(-0.607781 0.120189 0)
(-0.647228 0.119177 0)
(-0.686294 0.118132 0)
(-0.72497 0.117056 0)
(-0.763249 0.11595 0)
(-0.801124 0.114816 0)
(-0.838587 0.113656 0)
(-0.87563 0.11247 0)
(-0.912248 0.111259 0)
(-0.948435 0.110025 0)
(-0.984183 0.108766 0)