/*--------------------------------*- C++ -*----------------------------------*\
| =========                 |                                                 |
| \\      /  F ield         | OpenFOAM: The Open Source CFD Toolbox           |
|  \\    /   O peration     | Version:  2206                                  |
|   \\  /    A nd           | Website:  www.openfoam.com                      |
|    \\/     M anipulation  |                                                 |
\*---------------------------------------------------------------------------*/
FoamFile
{
    version     2.0;
    format      ascii;
    arch        "LSB;label=32;scalar=64";
    class       volScalarField;
    location    "400";
    object      alphat;
}
// * * * * * * * * * * * * * * * * * * * * * * * * * * * * * * * * * * * * * //

dimensions      [1 -1 -1 0 0 0 0];

internalField   nonuniform List<scalar> 
50904
(
9.3131926e-08
1.2131068e-07
2.6203809e-07
3.5267446e-07
1.3166188e-06
1.4308513e-06
2.9689105e-06
3.4612625e-06
1.8731735e-05
1.915157e-05
3.2404873e-05
3.337078e-05
7.2383595e-05
7.139369e-05
0.0001053199
0.00010521744
0.00018416598
0.00017847803
0.00022677901
0.00022353385
0.00036671041
0.0003513424
0.00040180053
0.00038976425
0.00061805067
0.00058722251
0.00063200491
0.00060358915
0.00092733101
0.00087565041
0.00091015916
0.00085791663
0.0012767888
0.0012006362
0.0012199047
0.0011384103
0.0016413931
0.0015376512
0.0015393067
0.0014224861
0.0019962068
0.0018643455
0.0018468777
0.001691389
0.0023197455
0.0021639084
0.0021273274
0.0019342914
0.0025794313
0.0024095453
0.0023493146
0.0021318312
0.0027603095
0.0025947467
0.0025014469
0.0022819673
0.0028061479
0.0026851169
0.0026063126
0.0024065596
0.002527989
0.002496774
0.0026537895
0.0025134295
0.0021013407
0.0020790011
0.0025862058
0.0025393809
0.0017220884
0.0016997583
0.0023530668
0.0023897533
0.0014344764
0.0014147718
0.0020324192
0.0020972367
0.0012403579
0.001223927
0.0017467812
0.0017608428
0.0011223357
0.0011173999
0.0014956477
0.0014878834
0.0010553448
0.0010706864
0.0012885163
0.0012634681
0.0010140358
0.0010447461
0.0011431355
0.0011069247
0.00098138239
0.0010253076
0.0010372493
0.00099810163
0.00094570741
0.0010007118
0.00093560244
0.00089506943
0.00089131111
0.00095084036
0.00081833842
0.00078023114
0.00080454564
0.0008650537
0.00068627752
0.00065105046
0.00068675695
0.00074706177
0.00054064242
0.00050904781
0.00054674557
0.00060403809
0.00039479902
0.00036822823
0.00039878523
0.00044926599
0.00026616882
0.00024611932
0.00025954048
0.00029806732
0.00016382184
0.0001512244
0.00014384895
0.00016676207
8.9210043e-05
8.348728e-05
6.4139228e-05
7.2739094e-05
3.8889537e-05
3.7593516e-05
1.9356832e-05
2.1950562e-05
1.0531337e-05
1.104279e-05
1.4450957e-06
1.6991908e-06
6.0265967e-07
6.5874184e-07
2.4903318e-08
3.5615607e-08
4.8869543e-08
4.1243573e-08
2.2450217e-07
2.6753719e-07
3.2612248e-07
2.8716633e-07
3.2119471e-07
2.2189489e-07
3.5446942e-07
2.3568156e-07
3.5154118e-07
2.3240591e-07
3.4654924e-07
2.277796e-07
3.380532e-07
2.1735629e-07
3.6624977e-06
3.7511745e-06
5.4445482e-06
4.0655918e-06
5.0196912e-06
2.390578e-06
5.4519002e-06
1.852495e-06
5.402034e-06
1.5041178e-06
5.1505405e-06
1.3149405e-06
4.9064501e-06
1.1940483e-06
3.8081589e-05
3.7797241e-05
5.8910621e-05
4.5043576e-05
5.9897039e-05
3.1760959e-05
5.9997874e-05
2.3710784e-05
5.7153372e-05
1.7836509e-05
5.4253044e-05
1.432681e-05
5.1718162e-05
1.2213029e-05
0.00011196844
0.00011007552
0.00015644916
0.00013416118
0.0001434149
0.00011389027
0.00013655198
8.8204862e-05
0.00013449761
6.6472125e-05
0.00013653942
5.2071503e-05
0.00013905901
4.2969668e-05
0.00021708996
0.00021214461
0.00026862688
0.00023013555
0.00024013337
0.00020369822
0.00020998364
0.00016835342
0.00018571057
0.00013507456
0.00016546512
0.00010450982
0.00014992452
8.9669099e-05
0.0003583104
0.00034666669
0.00036775063
0.00031854035
0.00035967094
0.00027483749
0.00034559626
0.00023459242
0.00031416327
0.00020311653
0.00022159387
0.00014593954
0.00016192888
9.5109518e-05
0.00054701335
0.00052120025
0.00047921341
0.00041765085
0.00043243964
0.00034432362
0.00040251123
0.00029569841
0.0003826577
0.00026334592
0.00036791872
0.0002399963
0.00027330832
0.00016614072
0.00078341614
0.00073496429
0.00062951095
0.00055004045
0.00054079543
0.00044677305
0.00049161241
0.00038767701
0.00046373799
0.00035151001
0.00044578317
0.00032678479
0.00043227736
0.00030749712
0.0010495487
0.00097105277
0.00081018409
0.00070710699
0.00068323697
0.00058130682
0.00061535116
0.00051712064
0.00057835407
0.0004815144
0.00055593878
0.00045826742
0.00054054225
0.00044048714
0.0013201479
0.0012019617
0.00099057312
0.00085130964
0.00082586848
0.00070089494
0.00073834826
0.00062959575
0.00069046731
0.00059258964
0.00066109942
0.00057007951
0.0006405853
0.00055361387
0.0015794199
0.0014143875
0.0011777804
0.00098768285
0.00098867939
0.00081830227
0.00088712712
0.00073815301
0.00082906432
0.00069686638
0.00079129273
0.00067213598
0.0007629921
0.00065438119
0.0018245886
0.0016095294
0.0013984128
0.0011369443
0.0012073838
0.00094978085
0.0011010001
0.00085716284
0.0010359945
0.00080689859
0.00098993918
0.00077525069
0.00095231624
0.00075205501
0.0020259795
0.0017708543
0.0016126398
0.0012771903
0.0014337389
0.0010743271
0.0013301764
0.00096659359
0.0012621351
0.00090392231
0.0012096797
0.00086215994
0.0011633549
0.00083035032
0.0021655241
0.001897835
0.0017766749
0.0014133988
0.001607655
0.0012007629
0.0015067645
0.0010801733
0.0014390078
0.0010064104
0.0013859385
0.00095523127
0.0013383616
0.00091484135
0.0022709079
0.0020159866
0.001909332
0.0015577234
0.0017328733
0.0013254228
0.0016248558
0.001182753
0.0015542299
0.0010928097
0.0015018589
0.0010307028
0.0011257889
0.00075407014
0.002386467
0.0021949527
0.0021117609
0.0018357271
0.0019593717
0.0016086093
0.0018653244
0.001452069
0.001805157
0.0013487069
0.0017618597
0.0012781887
0.0017256415
0.001225736
0.0024378908
0.0023548341
0.0023144523
0.0021904135
0.0022577212
0.0020673986
0.0022211935
0.0019595556
0.0021950786
0.0018786186
0.0021749873
0.0018232927
0.0021563711
0.0017823064
0.0024138134
0.0024038121
0.00242592
0.002357798
0.0024788128
0.0023756426
0.0025110406
0.002371119
0.0025255513
0.0023496629
0.0025312722
0.0023269006
0.0025320191
0.0023089053
0.0023522279
0.0023704787
0.0024652826
0.0023947994
0.0026114916
0.0025125337
0.0027037631
0.0025696029
0.0027545414
0.0025872642
0.0027831807
0.0025910104
0.0027999303
0.0025934523
0.0022123159
0.0022475891
0.0024146435
0.0023345383
0.0026278666
0.0024910293
0.0027577107
0.0025609102
0.0028317246
0.0025862664
0.0028759126
0.0026008187
0.0029034205
0.002610303
0.0019322335
0.0019923177
0.0022093697
0.0021409542
0.0024309356
0.0022794402
0.0025730196
0.0023296928
0.0026592483
0.0023467044
0.0027129504
0.0023579948
0.0027473516
0.002364628
0.0015776102
0.0016022496
0.0018307272
0.0017844398
0.002010276
0.0018608141
0.0021379466
0.0018913096
0.0022228972
0.0019052234
0.0022788982
0.0019128636
0.0023154976
0.0019167455
0.0013356901
0.0013036969
0.0014575994
0.0013974897
0.0015218356
0.0014225755
0.001566509
0.0014316887
0.0015967297
0.0014369591
0.0016159978
0.0014398497
0.0016271344
0.0014393928
0.0012069458
0.0011579151
0.0012565058
0.0011747099
0.0012613084
0.0011586571
0.0012640472
0.0011468566
0.0012667877
0.0011389773
0.0012682061
0.0011316001
0.0012680962
0.0011229565
0.0011201671
0.0010696205
0.0011658866
0.0010716438
0.0011525323
0.0010296781
0.001136877
0.00099373751
0.0011256466
0.00096723334
0.00098508891
0.00085771951
0.00062321567
0.00055272797
0.0010363521
0.00098904511
0.0011220541
0.0010282608
0.0011194323
0.00099824795
0.0011014051
0.00096299079
0.00090044231
0.00078905687
0.00056892033
0.00050878723
0.00039427118
0.00035229135
0.00092863516
0.00088625994
0.0010779993
0.00098910567
0.0011124111
0.0009922416
0.001109247
0.00097376714
0.00076505022
0.0007032628
0.00050579951
0.00045956893
0.00036704159
0.0003315333
0.0007803037
0.00074424447
0.00099021763
0.00090991316
0.00108312
0.00096584815
0.0011172421
0.00098095157
0.00078258065
0.00072844111
0.00053704581
0.00049309662
0.00039062298
0.00036337507
0.00059730506
0.00056869777
0.0008264612
0.00076068554
0.00096558661
0.00086139409
0.0010422789
0.0009152928
0.00085337668
0.00079249067
0.00059343535
0.00055540191
0.00042627299
0.00041054869
0.00041197424
0.00039108847
0.00061087503
0.00056279862
0.00075545944
0.00067348284
0.00084962464
0.00074444782
0.00089503101
0.00078762855
0.00062585336
0.00060297013
0.00044499987
0.00044056108
0.00025464051
0.00024164655
0.00039510562
0.00036480181
0.00051044647
0.00045473725
0.00059249739
0.00051677744
0.00064465571
0.00055724957
0.00060328985
0.00058285132
0.00043758375
0.00043435552
0.00014008944
0.00013419775
0.00021821103
0.00020266994
0.00029040781
0.00025912474
0.00034612008
0.00030058235
0.00038217161
0.00032789764
0.00040408614
0.000345072
0.00038925928
0.00035629909
6.7557072e-05
6.6524444e-05
9.7824762e-05
9.2396969e-05
0.00012957363
0.00011694309
0.00015889992
0.00013825202
0.00017864065
0.00015230147
0.00018925807
0.00015996454
0.00019508827
0.00016420464
2.3958824e-05
2.4864068e-05
3.2104988e-05
3.189095e-05
3.908473e-05
3.7610385e-05
4.7929239e-05
4.4974716e-05
5.6168604e-05
5.0653271e-05
6.0488756e-05
5.3030089e-05
6.1957237e-05
5.3552601e-05
2.1129556e-06
2.3035803e-06
3.8231279e-06
3.9987365e-06
5.3463772e-06
5.4686643e-06
7.2587911e-06
7.2970188e-06
9.332732e-06
8.8956419e-06
1.0663294e-05
9.6764769e-06
1.1071753e-05
9.8172553e-06
7.3827688e-08
7.2667833e-08
1.1305865e-07
1.0787071e-07
2.3309316e-07
1.9506451e-07
4.2853155e-07
3.289893e-07
5.7534961e-07
4.1227299e-07
6.2572432e-07
4.3812743e-07
6.4146099e-07
4.4694878e-07
3.2859956e-07
2.0301214e-07
3.182508e-07
1.8537665e-07
3.0791172e-07
1.6813093e-07
2.9822949e-07
1.531544e-07
2.9001868e-07
1.4285822e-07
2.9044525e-07
1.5256131e-07
4.6838623e-06
1.1044161e-06
4.4671303e-06
1.0261862e-06
4.2951852e-06
9.6636601e-07
4.1282997e-06
9.0956474e-07
3.9257525e-06
8.4373135e-07
3.6046691e-06
7.636691e-07
4.9448214e-05
1.0764174e-05
4.7238655e-05
9.6007549e-06
4.5511295e-05
8.8491257e-06
4.3874462e-05
8.2148288e-06
4.2094403e-05
7.5508786e-06
3.9733684e-05
6.7927916e-06
0.00014256644
3.7011507e-05
0.00013573741
3.2597394e-05
0.00013391966
2.9879115e-05
0.00012865509
2.7756652e-05
0.00012237723
2.5767739e-05
0.00011465182
2.3765122e-05
0.00014385789
8.3479116e-05
0.00013164422
7.3428183e-05
0.00012861162
6.6859019e-05
0.00017186613
6.1603558e-05
0.00020594835
5.7069295e-05
0.0001902908
5.2880877e-05
0.00013802807
8.1472838e-05
0.00012222263
7.8297239e-05
0.00012064242
8.6509949e-05
0.00016497648
0.00010667914
0.00027480177
9.8079085e-05
0.00025242019
9.0352097e-05
0.00015432856
9.9114158e-05
0.00011717407
7.2779154e-05
0.00011364507
7.3325213e-05
0.00015399263
0.00011479581
0.00028602434
0.00015046403
0.00031014587
0.00013629542
0.0003624616
0.00027414077
0.00018034183
0.00012642109
0.00012909943
8.8186026e-05
0.0001497841
0.000103842
0.00026025703
0.00020708415
0.00037685358
0.00020270107
0.00052849231
0.00042470372
0.00051812106
0.00041005127
0.00033950604
0.00023965806
0.00023645234
0.00017210759
0.00028007811
0.00022391321
0.00046086037
0.00031939163
0.00062407773
0.00053902034
0.00060996237
0.00052570288
0.00059871107
0.00051512906
0.00058773375
0.00050480168
0.00057404013
0.00048351067
0.00055061308
0.00046222286
0.00073842679
0.00063843685
0.00071592506
0.00062214029
0.00069535841
0.00060737833
0.00067202896
0.00059079089
0.00064543788
0.00057166445
0.00062033902
0.00055400889
0.00091730347
0.00073182619
0.00088433209
0.0007133058
0.00085342116
0.00062057585
0.00081669366
0.00067483066
0.00077096299
0.00064838298
0.00072790494
0.00062015107
0.0011171202
0.00080190224
0.0010712222
0.00077615962
0.0010269262
0.00075365517
0.00097386847
0.00072795405
0.00090747717
0.00069497239
0.00084137563
0.00065774934
0.0012895512
0.00087693778
0.0012396337
0.00084128889
0.0011894769
0.0008093748
0.0011264732
0.00077279439
0.0010417536
0.00072650579
0.00094614665
0.0006739608
0.00082573274
0.00061647975
0.00083037187
0.0007036298
0.0010880865
0.00084442647
0.001252863
0.00080703078
0.0011816489
0.00075227627
0.0010734251
0.00067825229
0.0011948409
0.00076364287
0.00078208936
0.00049341155
0.00069608433
0.00045158574
0.00085892271
0.00059619572
0.0013382717
0.00092285992
0.0013074502
0.00081302293
0.0021368995
0.0017462944
0.0013691804
0.0015178563
0.00096391449
0.00088325248
0.00096389036
0.0007093088
0.0013325984
0.00086422473
0.0017848263
0.0012946439
0.0025309646
0.0022920786
0.0022431795
0.0022721176
0.0014797949
0.0019842972
0.0012957069
0.0014063775
0.0016191093
0.0013401808
0.0023426702
0.0016930389
0.002811792
0.0025947461
0.0028179602
0.0025945235
0.0018518921
0.0025752651
0.001569637
0.0018127365
0.0018992459
0.0016455922
0.0027790995
0.0019804168
0.0029246194
0.0026179675
0.0027987663
0.0026246799
0.0018989219
0.0021669221
0.0016696622
0.0016077484
0.0020627295
0.0015792954
0.0029918444
0.0020089919
0.0027738847
0.0023696582
0.0025233284
0.0021761903
0.001803231
0.0014230239
0.0016826579
0.0011995334
0.0021401028
0.0013914356
0.0028332987
0.0019456072
0.002340564
0.0019153637
0.0020946948
0.001176291
0.0016812738
0.00091554624
0.0017727534
0.0009705952
0.0023840779
0.0013255708
0.0023189576
0.0018312099
0.0015297508
0.0011474659
0.0013089302
0.00086063407
0.001402278
0.00082889194
0.0016243518
0.00099761254
0.001607942
0.0013563079
0.0015725107
0.0012832247
0.0012050935
0.00096920623
0.00097248568
0.00077258371
0.00093344977
0.00069963944
0.0010896585
0.00078331283
0.0012379105
0.0010165
0.0012125418
0.00096603275
0.00049747531
0.00043507078
0.00049137293
0.00040827539
0.00055368091
0.00043654465
0.00074539235
0.00058839402
0.0011301632
0.0008644547
0.0011206582
0.00083655407
0.00036062522
0.00031439417
0.00039179955
0.00032756015
0.00046159088
0.0003989004
0.00067360772
0.00058763677
0.0011248281
0.00091169938
0.0011577047
0.00089766619
0.0003409572
0.0003073725
0.0003651056
0.00033109015
0.00042434139
0.00042124092
0.00064335431
0.00063025931
0.0011984815
0.00097725106
0.0012093405
0.00096681352
0.00035202172
0.00033456524
0.00036085474
0.00035723277
0.00040593284
0.00046594971
0.00059706314
0.00061551724
0.0010750082
0.00093732209
0.0012409598
0.0010084213
0.00037530591
0.00037031399
0.00037527021
0.00037545335
0.00041220824
0.00048134609
0.00058048096
0.00063507077
0.00096709185
0.00088788783
0.0012431631
0.0010133182
0.00039057563
0.00039086294
0.00039064161
0.00039202784
0.00042661971
0.00049116079
0.00058580625
0.00066447452
0.00092488831
0.00086629162
0.0011243753
0.00093686722
0.00038478226
0.00038379558
0.00038827227
0.00041007705
0.00042523849
0.00050692853
0.00057545726
0.00061263798
0.00081327332
0.00068588723
0.00086115751
0.00072694443
0.00035315902
0.00035707116
0.00035784724
0.00037537626
0.00039159174
0.00038528379
0.00047283264
0.00039700843
0.00049513401
0.00041410245
0.0005360463
0.0004489364
0.000199286
0.000167042
0.00020400278
0.00017029173
0.0002090619
0.00017351005
0.00021549858
0.00017763325
0.00022549048
0.00018481951
0.00024810417
0.00020266875
6.2583982e-05
5.3595373e-05
6.3080738e-05
5.3591948e-05
6.3695995e-05
5.3691156e-05
6.4721299e-05
5.4128639e-05
6.6883222e-05
5.540711e-05
7.3056631e-05
5.9884107e-05
1.1265748e-05
9.891525e-06
1.1438934e-05
9.9512029e-06
1.1587622e-05
9.9942282e-06
1.172024e-05
1.0032167e-05
1.1811236e-05
1.0036502e-05
1.2232564e-05
1.0412073e-05
6.4176533e-07
4.4169606e-07
6.3023887e-07
4.3008433e-07
6.1525894e-07
4.1300489e-07
6.0462644e-07
4.0490718e-07
6.4083066e-07
4.4282945e-07
8.7666252e-07
6.5003684e-07
3.2376619e-07
2.4360126e-07
3.6550349e-07
3.6074725e-07
3.7490124e-07
3.8480808e-07
3.6859872e-07
3.8898645e-07
3.5861854e-07
3.9552651e-07
3.4720837e-07
4.0246083e-07
3.0865028e-06
7.7261781e-07
2.8126613e-06
9.521018e-07
2.6737338e-06
1.1001908e-06
2.554573e-06
1.2032968e-06
2.45705e-06
1.2989916e-06
2.3643564e-06
1.4163563e-06
3.5728607e-05
6.681654e-06
3.1536118e-05
8.402662e-06
2.9401508e-05
1.0054731e-05
2.8240136e-05
1.1307001e-05
2.7426513e-05
1.2492157e-05
2.6590414e-05
1.3836773e-05
0.0001039901
2.3714347e-05
9.5090717e-05
2.8004998e-05
9.0834996e-05
3.1048889e-05
8.6622433e-05
3.3088612e-05
8.5994669e-05
3.4790413e-05
8.3753374e-05
2.5241832e-05
0.00016990244
5.1278285e-05
0.00015669577
5.5664156e-05
0.00015186963
5.8949472e-05
0.00012498425
6.1234759e-05
0.00012075246
5.0739604e-05
0.00014265729
3.6291196e-05
0.00022225736
8.634314e-05
0.00020429506
9.085553e-05
0.000198454
9.500763e-05
0.00018772238
9.8194496e-05
0.00015966486
7.9685416e-05
0.00018735462
5.7278943e-05
0.00027046349
0.00012843969
0.00024790994
0.00013449075
0.00024109016
0.00014048954
0.00023720317
0.00014455051
0.00018237384
0.00014818962
0.00018643955
9.7735021e-05
0.00032770405
0.00018543739
0.00030069566
0.00019338692
0.00029294443
0.0002018536
0.00028525234
0.00020842058
0.00018616091
0.00021340684
0.00017403851
0.00017890859
0.0004024803
0.00028376122
0.0003699464
0.00029318325
0.00036024533
0.0003039053
0.00031146212
0.00031007116
0.00019608062
0.00031270658
0.00017728304
0.00029595246
0.0004978019
0.0004296016
0.00046402887
0.00044913747
0.00045247481
0.00046643141
0.00032787142
0.00047526566
0.00024303304
0.00042393358
0.0002281538
0.00040804684
0.0005923771
0.00054372031
0.0005747534
0.00056960559
0.00056713006
0.00058862841
0.00040423419
0.00059993974
0.00032540293
0.00052547616
0.00032106625
0.00047982594
0.0007018123
0.00060410563
0.000695346
0.00061315008
0.00069571507
0.00062320051
0.00069436309
0.00063020752
0.00051010494
0.00054638651
0.00046257116
0.00047214977
0.00080210008
0.00062516677
0.00078848828
0.00061351046
0.00078626035
0.00061381667
0.00078480975
0.00061560789
0.00068254458
0.00055049958
0.00057200154
0.0004564328
0.00088105869
0.00062558234
0.00085039649
0.0005991314
0.00083932253
0.00059253777
0.00083098049
0.00059004783
0.00067473567
0.00058714934
0.00057919233
0.00047881962
0.00098192039
0.00061089412
0.00093919299
0.00057801224
0.0009231195
0.00057003833
0.0008690822
0.00056596163
0.00065882294
0.00056087778
0.00066588238
0.00055022033
0.0011602335
0.00069871029
0.0010987419
0.00065612264
0.0010779065
0.00064843529
0.0010623237
0.000644726
0.00066669694
0.00058330532
0.00062579984
0.00057915428
0.0015835924
0.0010776127
0.0014749889
0.0009744656
0.0014374192
0.00094407058
0.0014125489
0.00092615621
0.0010416812
0.00063950864
0.00079356838
0.00052472845
0.0021300133
0.0017350293
0.0019762466
0.0015701517
0.0019185455
0.0015064622
0.0018838708
0.0014687374
0.0017472164
0.0013039617
0.0011415046
0.00078281551
0.0025910915
0.0023272223
0.0024165465
0.0021542044
0.0023480441
0.0020823638
0.0023083763
0.0020397187
0.0022731892
0.0020016639
0.0015297575
0.0014572512
0.0028245969
0.0025320012
0.0026547935
0.0023814363
0.0025911751
0.0023214042
0.0025546779
0.0022860357
0.0025233844
0.0022558761
0.0018017161
0.0019787749
0.0026760763
0.0022725811
0.0025460475
0.0021635413
0.0025062529
0.0021269881
0.002485835
0.0021060774
0.0024697689
0.0020879512
0.0018240962
0.0017331562
0.0021912813
0.001718356
0.0021545581
0.001656861
0.0021582667
0.0016442569
0.0021665911
0.0016383144
0.002176629
0.0016327923
0.0017056773
0.0010351847
0.0015504337
0.001216537
0.0015849865
0.0012397161
0.0016045561
0.0012557111
0.0016179042
0.0012653421
0.0012020609
0.0010408526
0.00094572742
0.00074762643
0.0012014104
0.00095265285
0.0012110322
0.00098719225
0.0012127743
0.00099762131
0.000628897
0.00085050744
0.00046878375
0.00053181525
0.00048020691
0.0004790254
0.0011196527
0.00081523107
0.0010383856
0.00080925367
0.00046959088
0.00040302377
0.00030879077
0.00024563261
0.00029999426
0.00023214792
0.0003870244
0.0003247659
0.001164149
0.00088638077
0.00085688327
0.00059052799
0.00039708681
0.00025977623
0.00028014368
0.0001916562
0.00028892658
0.00022691973
0.00038509013
0.00038835022
0.0012164256
0.00096159401
0.00083757678
0.00056154997
0.00037938115
0.00024425202
0.00026293188
0.000183846
0.00027170699
0.00022312392
0.00036820429
0.00038732486
0.0012435171
0.0010045025
0.0010210782
0.00070335321
0.00042474458
0.00025283455
0.00025497059
0.0001686003
0.00024483609
0.00019220136
0.00033385287
0.00034033657
0.0012639702
0.0010228428
0.0012827317
0.0010266316
0.00076857304
0.00042455784
0.00034532007
0.00018937669
0.00025275622
0.00016661727
0.00029211692
0.00025011173
0.0011850325
0.00099222316
0.0012504165
0.0010487942
0.0012698916
0.0010594663
0.00080790033
0.00043578034
0.00043727625
0.00023073404
0.0003509259
0.00022822759
0.00094514364
0.00081358114
0.0010439208
0.00091898683
0.0010785192
0.00095013463
0.0010967563
0.00096498658
0.00096394723
0.00060061525
0.00066774798
0.00037935111
0.00061683796
0.00053288936
0.00072538555
0.00065405438
0.00076481965
0.00069206812
0.00078544993
0.00071087247
0.00079988334
0.00072372818
0.00081278831
0.00073117402
0.00030199077
0.00025567092
0.0003914236
0.00035452895
0.00042863117
0.0003908637
0.00044799818
0.00040909213
0.00046131384
0.00042167559
0.00047208789
0.00043296615
9.214503e-05
7.6862328e-05
0.00013225406
0.00011818905
0.00015328456
0.00013736935
0.00016534438
0.00014797041
0.00017421439
0.00015600374
0.0001824416
0.00016416403
1.4535266e-05
1.2569206e-05
2.0342209e-05
1.7875201e-05
2.3674214e-05
2.0449282e-05
2.5677196e-05
2.1866806e-05
2.7258491e-05
2.3006736e-05
2.8914194e-05
2.4322173e-05
1.5002561e-06
1.2983866e-06
2.256719e-06
2.1151297e-06
2.5664402e-06
2.4200978e-06
2.7343274e-06
2.5940154e-06
2.8543643e-06
2.7258267e-06
2.9609181e-06
2.8539072e-06
3.3251378e-07
3.9793773e-07
3.1541554e-07
3.7901037e-07
2.9325522e-07
3.4059154e-07
2.6442862e-07
2.8240996e-07
2.2763958e-07
2.0666682e-07
1.9041671e-07
1.3967491e-07
1.7479095e-07
1.166626e-07
2.2552922e-06
1.591865e-06
2.1525878e-06
1.7620729e-06
2.0369204e-06
1.8944782e-06
1.8964094e-06
2.0365918e-06
1.7141065e-06
1.9954742e-06
1.5212762e-06
1.8071157e-06
1.4664385e-06
2.3884161e-06
2.5526882e-05
1.5587354e-05
2.4385002e-05
1.5669552e-05
2.3002173e-05
1.7061005e-05
2.1292053e-05
2.099692e-05
1.9241112e-05
2.2747883e-05
1.7276599e-05
2.4462736e-05
1.7092532e-05
2.7872905e-05
8.1079855e-05
2.4855584e-05
7.8387877e-05
2.8007144e-05
7.5121868e-05
3.3509514e-05
7.1147046e-05
3.9232195e-05
6.6236046e-05
5.6997668e-05
6.1315258e-05
6.8713822e-05
6.0808122e-05
7.3975698e-05
0.00013879499
3.7674858e-05
0.00013662476
5.0878751e-05
0.00013537542
6.9369305e-05
0.00013398987
6.8527198e-05
0.00013109854
8.3212256e-05
0.00012581866
0.00012005163
0.00012482254
0.00013218837
0.0001840581
5.6385729e-05
0.00018450997
7.587756e-05
0.00018677849
0.00012694503
0.00018980014
0.00011608727
0.00019269446
0.00012301096
0.00019332269
0.00015196854
0.00019567206
0.00017470312
0.00021513065
8.5312398e-05
0.00022908436
9.0856944e-05
0.00023370013
0.00017477706
0.00020893581
0.00019407192
0.00022840903
0.0002038273
0.0002582603
0.00019406368
0.00023353445
0.00022320184
0.00017636462
0.0001417062
0.00017477089
0.00012123776
0.00020303178
0.00019518149
0.00024307148
0.0002561864
0.00024990526
0.00028490501
0.00026202818
0.00026886533
0.00027471124
0.00034454371
0.00017985462
0.00025405661
0.00018347971
0.00020308789
0.00022507832
0.0002288122
0.00031357877
0.00031271091
0.00034101276
0.0003609868
0.00033083027
0.00040987273
0.00039189373
0.00048790801
0.00021507005
0.00039697532
0.00020885835
0.00035222615
0.00025158566
0.00032555536
0.00037150341
0.00035808935
0.00045026934
0.0004310721
0.0004889011
0.00050921145
0.00055173436
0.0006095718
0.0002934225
0.00045648376
0.0002615559
0.00041925988
0.00028496751
0.00040672622
0.00041786071
0.00039991576
0.00052053203
0.00047616508
0.00057826194
0.00059588851
0.00066890662
0.00040953499
0.00043229607
0.00044211703
0.00039011608
0.00042163668
0.00039278928
0.00042457905
0.00052465587
0.00042233914
0.00057987109
0.00047667065
0.00065788641
0.0004556373
0.00050697817
0.00040880398
0.00051932683
0.00042412137
0.00049188794
0.00042555506
0.00051514735
0.00045857122
0.0005905119
0.00040736628
0.0006078323
0.00043817576
0.00063300661
0.0004087059
0.00064633752
0.00052239263
0.00053373386
0.00043780923
0.00052153274
0.00045235288
0.0005857985
0.00042789316
0.00059820779
0.00036468066
0.00060145341
0.00038461533
0.0006506422
0.00043803492
0.00080125848
0.00056941764
0.00067740565
0.00052391356
0.00063062335
0.00048236967
0.00065703251
0.00041058671
0.00063284675
0.00033594026
0.000607938
0.0003570123
0.00069282995
0.00046967819
0.00087607973
0.00062974035
0.00080852484
0.00060024738
0.00089255983
0.00056127915
0.00081538005
0.00049253168
0.00071279721
0.00038496739
0.00063918839
0.0003496049
0.00072752798
0.00049830778
0.00087462513
0.00068753189
0.00081938404
0.00059458078
0.0010898841
0.00075713199
0.0010120971
0.00067927709
0.00084963405
0.00056811318
0.00073283211
0.00047362318
0.00081076588
0.00058465114
0.001002488
0.0008506136
0.00097818031
0.00064199575
0.0011361733
0.00076124454
0.0013736488
0.0010283824
0.0010979375
0.00086222151
0.00087852334
0.00070318337
0.00093544375
0.0007451054
0.0011272928
0.00091844907
0.0012073565
0.0010013576
0.0012823283
0.00091940036
0.0016485534
0.0011232748
0.00148558
0.0012960016
0.0010890417
0.0010284076
0.0010592573
0.00095146135
0.0011917465
0.0010105957
0.0013874226
0.0013670266
0.0013999926
0.0011426687
0.0016963007
0.0012301005
0.0018261578
0.0015851404
0.0013529854
0.0013950031
0.0011859297
0.0011728581
0.0012658774
0.0011045765
0.0014268221
0.0012298253
0.0014294121
0.0010731243
0.0017079084
0.0011871579
0.001992964
0.0015426634
0.0015617877
0.0015845587
0.0013014186
0.0013070106
0.001263707
0.0011461334
0.0013912064
0.00079485575
0.0014120445
0.00082293893
0.0016844213
0.0010472032
0.0018691016
0.0014769206
0.0015455555
0.0014232354
0.0013631888
0.0012450176
0.0011810737
0.0010747303
0.00087550225
0.00067345294
0.00093698203
0.00076821042
0.0011897802
0.0010754938
0.0014880731
0.0011794629
0.0014187359
0.0011315993
0.001381987
0.0010622442
0.0011219526
0.0010391347
0.00052069331
0.00051910199
0.00065397505
0.00067394047
0.0013561233
0.00097566028
0.0013900967
0.0010025056
0.001404844
0.0010269168
0.0014374483
0.0009366417
0.0012203928
0.0011234045
0.00050026825
0.00051901956
0.00070634368
0.00083562519
0.001407282
0.001011741
0.0014391356
0.0010401747
0.0014715356
0.00094084374
0.00099888474
0.00088655986
0.001269387
0.0011549289
0.0004898436
0.0005783442
0.00066863306
0.00080307756
0.0012210246
0.0011093468
0.0012819525
0.00094518098
0.00094878214
0.00079771449
0.00085898228
0.00081555957
0.0011995733
0.0010666285
0.00047100536
0.00055910447
0.00063047961
0.00074741369
0.00096692437
0.00098109462
0.00088966005
0.00075805517
0.00075534134
0.00066673207
0.0007723219
0.00072070322
0.0010833355
0.00093572691
0.00044362232
0.00053997144
0.00058512723
0.00071472819
0.00075585641
0.00079477269
0.00069322703
0.00062399833
0.00066045964
0.00060056718
0.00072544825
0.00065243205
0.0010106257
0.00086000573
0.00037828408
0.00038330603
0.00050124816
0.00050927417
0.00061128229
0.00055158482
0.00059664577
0.00050484014
0.00061458875
0.00053452131
0.00069805278
0.0006194743
0.00093934876
0.0008362266
0.00036084565
0.00029812241
0.00043564876
0.00039617038
0.00051725199
0.00046154729
0.00053692847
0.00046489041
0.00057428577
0.00050313944
0.00064319665
0.00058957791
0.00078327315
0.00077954651
0.00050755788
0.00033321138
0.00047063924
0.0003666494
0.00048140056
0.00040668049
0.00049217639
0.0004213514
0.00052083835
0.0004548545
0.00056255285
0.00051472379
0.00063948627
0.00064805924
0.00078493617
0.00052150109
0.00058728346
0.00043473226
0.00050427364
0.0004075127
0.00048567232
0.00040213399
0.00049845258
0.00041775438
0.00052831433
0.00045544719
0.00059512184
0.00055064815
0.00048162071
0.00044341729
0.00048845382
0.00045026201
0.00049438001
0.00044697698
0.00049587098
0.00042544549
0.00048663574
0.00042889799
0.00046018888
0.00042844034
0.00041661257
0.00039446124
0.00019053177
0.00017453162
0.00019581859
0.00018222948
0.0002010678
0.00018732617
0.00020224758
0.00018868625
0.00019617738
0.00018344406
0.00018068416
0.00016957305
0.00015535798
0.00014702453
3.1157825e-05
2.6406275e-05
3.3337137e-05
2.860041e-05
3.564742e-05
3.201766e-05
3.6347826e-05
3.3018067e-05
3.6287782e-05
3.2944012e-05
3.1071371e-05
2.7622523e-05
2.3184875e-05
2.0168722e-05
3.0588672e-06
2.9935508e-06
3.1271639e-06
3.0960192e-06
3.1527774e-06
3.1570589e-06
2.9962956e-06
3.0198889e-06
2.4540038e-06
2.4376234e-06
1.4713301e-06
1.37126e-06
5.9998338e-07
4.1386499e-07
2.0318242e-07
8.890908e-08
2.0325664e-07
5.2561584e-08
1.2989143e-07
5.7837236e-08
2.9990561e-08
6.0961253e-08
2.0394331e-06
3.8140293e-06
3.1592784e-06
3.9290203e-06
5.5245313e-06
4.3876293e-06
3.7457632e-06
3.8867466e-06
2.5083609e-05
3.4543249e-05
3.8625635e-05
3.590072e-05
5.6970941e-05
4.1785877e-05
4.4729947e-05
4.2157317e-05
8.107537e-05
8.6557373e-05
0.00010809917
8.7727475e-05
0.00012848241
8.5987064e-05
0.00012136755
9.6197912e-05
0.00015472253
0.00014740594
0.00015425259
0.00015580597
0.00017228963
0.0001605567
0.00020920819
0.00017975726
0.00019687475
0.00021749216
0.00020040113
0.00028563083
0.00025000136
0.0003090765
0.00031665566
0.00029257675
0.00024409714
0.0003621193
0.00029135694
0.00043091888
0.00044566368
0.0004890343
0.00045937056
0.00045548573
0.0003493657
0.00050832851
0.00051554158
0.00060449142
0.00061794011
0.00072683424
0.00062315659
0.00067595086
0.00057009335
0.00062837385
0.00069075013
0.00051211963
0.00084873604
0.00070860207
0.0007482914
0.00094755411
0.00067548921
0.00041522005
0.00058749026
0.00054616543
0.00098287419
0.00090273937
0.0008108059
0.0012477888
0.00047512921
0.0004387679
0.00069752763
0.00090031457
0.001304049
0.0014648419
0.00096221503
0.0015643214
0.00058580729
0.00062681533
0.001269877
0.001188113
0.0016698696
0.001801231
0.0011197172
0.00187609
0.00087503625
0.00076806372
0.0012959453
0.001132748
0.0015383431
0.0016192114
0.001194714
0.0019367077
0.0010018638
0.00088090103
0.0010848982
0.0011076751
0.001267301
0.0014199379
0.0013007576
0.0015064607
0.0010186741
0.0010203164
0.0010296442
0.0011541918
0.001206503
0.0013247407
0.0015183893
0.0013479269