/*--------------------------------*- C++ -*----------------------------------*\
| =========                 |                                                 |
| \\      /  F ield         | OpenFOAM: The Open Source CFD Toolbox           |
|  \\    /   O peration     | Version:  2206                                  |
|   \\  /    A nd           | Website:  www.openfoam.com                      |
|    \\/     M anipulation  |                                                 |
\*---------------------------------------------------------------------------*/
FoamFile
{
    version     2.0;
    format      ascii;
    arch        "LSB;label=32;scalar=64";
    class       volScalarField;
    location    "400";
    object      k;
}
// * * * * * * * * * * * * * * * * * * * * * * * * * * * * * * * * * * * * * //

dimensions      [0 2 -2 0 0 0 0];

internalField   nonuniform List<scalar> 
50904
(
0.40379855
0.51555751
1.1249587
1.4755382
1.0159825
1.0831778
2.2225131
2.5710916
5.4297887
5.4024842
8.3627336
8.4065472
10.053016
9.5618798
13.344434
12.824895
14.925775
13.97971
18.101953
17.18278
20.33873
19.052155
23.212481
22.026635
26.017635
24.520581
28.804772
27.420319
31.583817
29.996838
34.623275
33.088642
36.567098
34.990429
40.14003
38.469314
40.478919
38.950607
44.7957
42.928689
42.946489
41.444805
48.219684
46.070792
43.756121
42.266352
50.306663
47.756625
42.756309
41.357537
50.726301
48.09525
40.080093
38.881976
49.469929
47.163519
36.106342
35.092622
46.332103
44.586184
31.784086
30.844285
41.604809
40.189593
28.688703
27.874505
37.326604
35.990947
26.082139
25.597666
34.375386
33.271996
24.174813
23.851604
32.954265
31.589141
23.156284
22.785012
32.437872
30.584286
23.425897
23.057609
32.287856
30.407657
24.856368
24.706813
32.561228
30.700117
27.147059
26.903707
33.506982
31.676176
29.230319
28.770019
34.215166
32.621927
30.786856
29.893069
33.755937
32.450516
31.500837
30.155632
31.693999
30.819481
30.994895
29.490642
28.605957
28.031564
29.186433
28.004631
24.638177
24.278457
26.091132
25.496851
20.253434
20.043218
22.05134
22.121144
15.968049
15.887799
17.640524
18.203829
12.076887
12.139122
13.314154
14.03003
8.6633373
8.8689535
9.5157937
10.016289
5.6057865
5.9089879
5.6042905
6.2839734
2.8191898
3.1173097
1.0788592
1.2860151
0.43503995
0.47551076
0.11083613
0.15860297
0.21816631
0.18340732
0.95154041
1.0976518
1.3678504
1.1626924
1.3429397
0.89495271
1.4802152
0.94933017
1.467041
0.93571152
1.4459227
0.9170969
1.4105317
0.87535203
2.8331537
2.8463296
4.0737226
3.0470864
3.6837035
1.8224072
3.6746946
1.3617913
3.4913067
1.0931403
3.2946666
0.9462217
3.1311401
0.85522905
11.001137
10.57045
15.286471
11.919819
13.907872
8.1744569
12.455583
5.7711508
11.288496
4.3873035
10.507525
3.648736
9.9638853
3.2351496
17.038076
15.723879
24.303175
19.522644
23.863577
16.283513
21.717608
12.429596
19.765874
9.6142404
18.29217
7.8692439
17.183596
6.8165637
20.989569
19.247723
28.593293
23.713377
30.078407
22.448252
29.035122
19.456086
27.394273
16.534899
25.741957
14.095592
24.25219
12.199838
24.702743
22.982176
29.927516
25.793077
32.341189
26.013825
33.352251
25.035396
33.492034
23.657939
32.965389
21.953994
31.907885
19.772728
29.57659
27.817746
31.85175
28.663495
33.458611
28.984299
35.165375
29.345987
36.584964
29.599324
37.649184
29.648749
38.374395
29.207656
35.721423
33.753616
36.533213
33.555337
36.915171
33.422935
37.996649
34.008567
39.354172
34.828319
40.722543
35.711878
42.025062
36.582296
42.116415
39.743983
42.765531
39.385623
42.257881
38.959719
42.415858
39.425914
42.95554
40.248941
43.658676
41.139923
44.468675
42.068036
47.66869
44.701081
48.775569
44.519743
48.317527
44.529682
48.398383
45.523511
48.782068
46.734116
49.259606
47.831028
49.755054
48.728824
51.831837
48.210559
54.151841
48.7877
54.774454
49.930259
55.635397
51.881283
56.502096
53.856707
57.269992
55.568906
57.940036
56.974471
54.561921
50.29272
58.648229
51.897264
60.398994
53.626845
61.822228
55.774233
62.924161
57.763367
63.761628
59.464388
64.438786
60.940598
56.036481
51.133983
62.082062
53.676018
64.695605
55.354618
66.385107
56.972515
67.414414
58.319436
68.010956
59.407309
68.35674
60.339067
56.774158
51.554689
65.805808
55.943827
69.884839
57.845635
72.213002
59.027959
73.393256
59.710059
73.843649
60.03315
73.829827
60.123686
57.08012
52.28308
71.886846
61.676313
79.623819
65.543899
84.27627
67.25828
86.851897
67.900364
87.999321
67.825655
88.102139
67.00571
55.336645
51.467611
78.463849
70.204013
93.959729
81.154481
104.55597
87.309503
111.3898
90.729363
115.59667
92.54311
117.9295
93.208703
51.745333
48.139514
81.252156
74.835846
104.79356
95.264152
121.73645
108.16571
132.93794
115.69672
140.1294
120.56095
144.65568
123.51233
48.943043
45.713469
82.017743
75.872752
112.69799
103.84075
135.20354
122.63302
150.01698
133.86521
159.49156
140.56226
165.50993
144.89562
48.527705
45.243214
85.348837
79.111712
121.75361
112.30681
149.19226
135.27679
167.10684
149.29117
178.55155
157.83719
185.88713
163.50825
48.886825
45.577897
90.468566
83.597166
131.65227
120.0802
162.08263
145.21806
182.17507
160.86271
195.15312
171.11654
203.55716
177.827
48.667487
45.003279
90.711705
84.391964
132.20879
120.5855
163.53482
145.43052
184.63313
161.34805
198.46486
172.12093
207.49161
179.11529
47.75294
44.036145
81.974867
76.50679
117.05689
106.01778
145.07747
127.55975
164.74113
142.48311
177.95326
152.49315
186.65372
159.00814
48.084245
43.549331
70.271968
63.972381
90.154838
81.860726
105.6957
95.124178
116.50841
104.28251
123.64173
110.35251
128.19699
114.11763
50.321198
45.779436
67.316467
59.582508
79.29652
69.71102
87.868453
76.558192
93.640613
80.785754
97.4199
83.218195
99.923069
84.473905
51.456541
47.9035
67.686015
60.352752
76.93894
67.278574
82.740693
71.3162
86.282861
73.491541
88.275383
74.342541
89.038554
73.976348
50.440013
47.804599
67.17554
60.827165
74.953523
66.552622
78.474217
68.653386
79.592235
68.731141
79.147784
67.452372
77.85357
65.437866
47.342583
45.27157
65.380676
59.820638
73.4958
65.719789
76.413625
67.530467
76.358045
66.964679
75.033892
65.2156
73.291417
63.055346
42.472244
40.847675
61.740439
56.831221
71.386456
64.165421
75.216886
66.917887
75.611098
66.925191
74.638458
65.61896
73.216602
63.885923
36.418643
35.205474
55.898503
51.78691
66.8862
60.579687
72.03735
64.639439
73.698299
65.799632
73.706921
65.437245
72.99951
64.456994
30.021856
29.162423
48.431829
45.112857
59.862584
54.596344
65.808842
59.52794
68.449058
61.658828
69.302276
62.218891
69.334309
62.044573
23.95707
23.434457
40.010701
37.411112
50.966828
46.613876
57.059298
51.825346
60.081859
54.48382
61.415836
55.670667
61.926162
56.036548
18.633475
18.494672
30.932737
29.026889
40.386584
36.84922
46.154185
41.823891
49.268205
44.678344
50.838411
46.194927
51.620768
46.92352
14.006273
14.305625
21.623456
20.5473
28.107543
25.706225
32.892205
29.755133
35.86154
32.393983
37.496403
33.919091
38.387116
34.781137
8.6570116
9.2286851
12.991029
12.908689
15.868706
15.254467
18.411268
17.818966
20.71354
19.843743
22.214829
20.969042
23.087654
21.594061
1.6709841
1.8239007
3.446566
3.5425695
5.2746433
5.2229361
7.3074674
7.0947043
9.1697686
8.5745569
10.332555
9.3769135
10.927644
9.771663
0.32900482
0.32125369
0.50093383
0.47162546
1.0305558
0.84882979
1.8937351
1.4286317
2.5418843
1.787955
2.7629355
1.8981073
2.8307998
1.9347334
1.3710807
0.81766974
1.3276888
0.74652896
1.2843498
0.67696445
1.2437022
0.61652899
1.2090554
0.57490466
1.2101505
0.6136887
2.9919231
0.79036853
2.8632852
0.73843164
2.7659739
0.70378569
2.6749402
0.67674278
2.5687191
0.65321588
2.414384
0.63691722
9.5463774
2.9660557
9.1881495
2.7645964
8.9311786
2.6475112
8.707661
2.5586381
8.4975085
2.478891
8.2549378
2.4148837
16.283116
6.1564302
15.490779
5.7002803
14.864068
5.4399427
14.247813
5.2638803
13.678413
5.1379937
13.234459
5.1099117
22.888776
10.785923
21.599166
9.7715998
20.55026
9.1564403
19.515487
8.7231322
18.436343
8.4922309
17.462145
8.5559749
30.376611
17.465182
28.553043
15.454493
26.957305
14.214845
25.367203
13.307749
23.771713
12.72646
22.181072
12.853844
38.1689
27.547065
36.626133
24.634758
34.665546
22.053346
32.480756
19.951627
30.238155
18.426289
28.022485
18.07792
43.212363
37.393063
43.818024
37.259367
43.268839
35.458859
41.357076
31.9713
38.66806
28.222413
35.869154
25.773215
45.444937
43.15354
46.623346
44.47917
47.815008
45.92015
48.72961
46.525529
48.290047
44.392891
46.216133
40.125345
50.284575
49.501527
50.893659
50.302282
51.606441
51.272424
52.754217
52.860226
54.770103
55.432489
56.742663
57.248297
58.569626
58.128952
59.138849
58.94032
59.548249
59.414535
59.982884
59.976121
61.161624
61.694554
65.181103
67.268236
65.104919
62.353224
65.821462
63.690066
66.474988
64.769132
67.185987
65.786877
68.265249
67.13293
71.944632
71.899308
68.633192
61.273835
68.964391
62.319342
69.323686
63.33226
69.848996
64.559342
70.809257
66.347353
73.630156
70.54188
73.589763
60.093037
73.28124
60.133155
72.929953
60.258977
72.541191
60.584417
72.250583
61.417077
72.974118
64.006688
87.162279
65.324632
85.231919
63.288793
83.218318
61.674855
80.960456
60.038222
78.089122
58.158313
74.907169
57.079339
119.24454
92.896832
119.08074
90.592497
116.67375
86.333977
111.60536
80.322108
103.66316
72.814389
92.369153
63.657439
147.88481
125.48802
150.51558
126.72017
152.07983
126.95577
151.27622
125.07159
145.35944
117.45873
131.72509
100.68815
170.07768
148.2142
173.96974
150.88186
177.31843
152.76418
180.67843
154.40767
181.77446
155.11075
175.71473
148.82433
191.5122
167.92211
196.2822
171.71566
200.58865
174.63147
206.01166
177.88566
211.38967
182.8654
211.73393
186.37972
210.05659
183.05924
215.71418
187.51151
220.89129
191.13931
227.21851
195.47995
233.34075
201.54522
234.05014
204.32393
214.43727
184.48621
220.46164
189.06993
225.69683
192.82258
231.02922
196.63547
234.23299
198.34128
230.22868
190.48039
193.0958
163.6101
198.49371
167.57633
202.44979
169.94592
204.96173
169.44389
204.11642
163.46446
196.66356
148.55825
131.50163
116.62865
133.97965
117.82667
135.44234
117.13979
136.34766
114.52971
136.9599
109.34265
139.03005
100.41134
101.93614
85.048175
103.75209
84.960959
105.16107
84.169807
106.26664
82.465479
107.13907
79.491814
109.61791
76.515113
88.907456
72.600297
87.860044
70.251377
86.771426
67.879365
85.862043
65.480387
85.394195
63.272608
86.113945
62.490177
76.230115
63.142546
74.453725
60.708611
73.144591
58.728986
72.167909
57.059915
71.633041
55.670693
71.848319
54.936007
71.543036
60.902513
69.726434
58.746464
68.307294
57.00667
67.125945
55.48911
66.290705
54.148009
66.038968
53.090433
71.721256
62.107021
70.06359
60.252383
68.649425
58.750751
67.362893
57.42831
66.322692
56.122701
65.769359
54.918821
72.009781
63.248576
70.780622
61.880609
69.656117
60.675858
68.578061
59.626944
67.690958
58.620837
67.31776
57.753661
68.926365
61.477707
68.264133
60.712743
67.626871
59.991749
67.016336
59.400852
66.621137
58.954101
66.889578
58.835281
62.01783
56.006034
61.90211
55.819471
61.770755
55.661266
61.688076
55.604243
61.881743
55.709211
62.885658
56.379473
52.019484
47.25173
52.320977
47.501211
52.594471
47.771113
52.93644
48.109195
53.616171
48.64029
55.300744
49.977271
38.939136
35.294239
39.496368
35.823344
40.048297
36.300075
40.717989
36.816124
41.760505
37.634963
43.954181
39.490682
23.671322
22.004106
24.279107
22.461198
24.873184
22.875806
25.59862
23.383112
26.73089
24.203075
28.808898
25.965449
11.337586
10.053124
11.756446
10.352441
12.146058
10.61623
12.566904
10.927139
13.086117
11.353906
13.953564
12.222858
2.8307738
1.9105828
2.7827209
1.8616111
2.7188367
1.7885479
2.6743852
1.7543775
2.8397351
1.9207134
3.9008305
2.8266786
1.3472306
0.97968564
1.5192009
1.450659
1.557576
1.546716
1.5309362
1.5630444
1.4890854
1.5889715
1.4412454
1.6163857
2.158186
0.68693047
1.9486151
0.82848992
1.8313553
0.90667889
1.7555863
0.95608674
1.6973079
0.99460457
1.639168
1.0295325
7.7732019
2.5716338
7.0361061
3.1826304
6.6814489
3.6996129
6.4976867
4.0904406
6.3560998
4.4517245
6.1930715
4.8302152
12.956426
5.7206619
12.638358
7.4266164
12.326256
8.766136
12.017822
9.8034987
11.68272
10.775863
11.332186
11.494507
17.02103
9.8787164
17.19483
13.136684
17.287914
15.612365
17.174785
17.495464
16.875673
19.171898
16.521933
19.370878
21.452627
15.244094
21.958791
20.706927
22.327544
24.696063
22.445952
27.717136
22.293599
30.35768
22.037183
30.191665
26.968582
21.501405
27.897397
29.532667
28.60867
35.221066
29.005215
39.129623
29.093205
42.509919
28.950837
43.775856
34.470673
29.53342
36.160239
40.286127
37.459941
47.685892
38.336658
52.974309
38.761381
57.057024
38.580468
58.572106
44.755004
43.32627
47.356018
57.774151
49.261758
67.175145
50.565844
73.179705
51.150205
77.271857
50.327269
78.11628
58.85663
65.561389
63.288298
88.184531
65.633603
102.43334
66.677294
111.33249
66.51418
116.39043
64.121958
115.26681
74.741788
83.498711
85.684967
112.04501
90.526921
129.17769
91.826313
140.08159
90.026758
147.22065
84.299919
147.15936
83.155554
88.202427
97.261607
112.71196
104.66804
126.82134
109.0995
136.09391
110.9856
142.80406
107.68247
143.81177
82.403924
82.904391
93.22447
100.10838
99.06314
109.77524
103.06086
116.27778
106.05779
121.26328
106.20727
122.25698
77.991749
71.801778
84.656017
82.237788
88.222432
88.055789
90.575612
92.04461
92.211238
95.287384
92.055541
96.677988
75.84436
60.502516
79.516791
67.02244
81.517077
71.048169
82.542645
73.793066
82.594327
75.992717
81.030849
77.468798
87.09084
60.717247
90.072268
65.171372
92.275649
68.609833
93.299382
70.90427
92.909478
72.432891
89.275034
72.695684
121.94765
88.351435
124.03853
90.182572
126.82581
92.910149
128.32383
94.654911
128.6321
95.602608
125.9573
94.497247
167.80291
138.31136
169.16253
137.17949
172.10707
138.0429
174.06522
138.71961
175.17952
138.92496
174.73654
137.90124
207.49169
181.94887
209.30871
179.27513
211.96061
178.74064
213.96875
178.60007
215.59344
178.25468
216.8389
177.19641
229.41871
196.61436
231.95415
191.76501
234.55289
190.46488
236.67283
189.83527
238.70441
189.27405
241.09987
188.38501
222.70641
175.83565
228.11108
171.9473
232.23657
171.50109
235.60154
171.5135
239.03399
171.60028
243.68037
171.70984
193.45433
135.48212
209.71416
139.17432
218.36845
142.00841
224.7053
144.08783
230.77983
145.95468
238.21207
148.33197
153.03493
100.35006
179.90929
116.51414
191.62233
123.51397
199.05194
127.80136
205.10096
131.24343
208.40346
133.92832
120.55995
85.428794
136.51002
104.31105
142.26811
111.38155
143.78267
114.96182
140.3027
115.48841
129.89782
109.22753
90.466499
67.65075
95.106566
75.21451
94.52973
76.23084
91.471657
73.620892
87.098904
68.506932
81.963064
62.522278
74.039564
56.544868
75.587397
58.825394
74.407348
57.88695
72.22043
55.615888
69.728732
52.996799
67.103165
50.475867
67.35795
53.524413
68.509194
54.49702
67.795164
53.437002
66.283073
51.598872
64.521595
49.701807
62.727885
47.982539
66.484184
54.808804
67.63593
55.423223
67.447893
54.535589
66.419454
52.806385
64.880758
50.911542
63.246912
49.183252
68.09639
57.79015
69.462342
58.517418
69.835203
58.373884
69.631003
57.220263
68.671929
55.308341
67.159426
53.327296
68.530073
59.878225
70.872792
61.518852
71.67313
61.798544
72.106898
61.661094
72.237517
60.733586
71.779885
58.987168
65.546238
58.623186
69.048808
61.572291
70.320008
62.343245
71.008409
62.606796
71.539871
62.617791
72.030719
62.191304
58.829178
53.304292
63.316611
57.436758
64.931941
58.584598
65.785852
59.077072
66.406897
59.339004
67.022941
59.502356
48.265557
43.784937
53.831209
49.312003
55.769184
50.82715
56.77259
51.497697
57.489363
51.906719
58.134274
52.233425
32.959395
29.920258
39.415323
36.439119
41.854095
38.414934
43.096668
39.313747
43.964114
39.895452
44.743022
40.397875
15.773333
14.267339
20.115025
18.058213
22.164385
19.537798
23.224049
20.229254
23.9499
20.694856
24.595937
21.128682
6.7298293
5.6838253
10.206749
9.326208
11.641789
10.696396
12.420869
11.478629
12.976285
12.070265
13.467345
12.643862
1.3820375
1.6006724
1.3105821
1.5241047
1.2183443
1.3692712
1.0988531
1.1353601
0.94694772
0.83141367
0.79441091
0.56337944
0.73566654
0.47501192
1.5657714
1.0709045
1.4966719
1.1151648
1.4237777
1.1761166
1.3432453
1.2475757
1.2512599
1.2367741
1.1613633
1.1610148
1.139291
1.5574803
6.0006884
5.1965869
5.8104622
5.4416143
5.6012359
5.5312254
5.3699186
5.5118857
5.1232694
5.5195074
4.9243939
6.0820689
5.0780634
8.088433
11.014628
11.442605
10.802012
11.585544
10.586057
12.098117
10.347129
12.799887
10.118639
13.134864
10.043945
13.426873
10.768017
16.17729
16.209729
17.812847
16.095024
17.232456
16.014344
17.931316
15.907146
19.405726
15.778746
20.535789
15.959998
21.69808
17.691883
24.470628
21.817129
25.959224
21.865639
23.4125
22.022305
23.333491
22.264761
25.040159
22.534628
26.845055
23.147909
28.872415
25.877453
31.699294
28.631397
37.556106
28.468884
31.089084
28.599593
28.156519
29.205613
28.742925
30.015349
31.261293
31.38662
34.148408
34.727852
36.643269
37.636386
52.84577
36.529729
42.929879
35.472024
34.718344
35.186386
32.545849
36.023433
33.874177
37.647546
36.712429
39.892556
38.55095
47.470704
72.44623
44.264121
60.939108
40.920875
45.239543
38.642511
36.801892
38.326096
35.325418
39.284642
36.378921
39.850497
37.436886
58.657456
103.83253
52.495422
87.071735
45.932695
64.217643
40.561401
43.627013
37.90377
36.68879
37.582775
36.277006
37.177839
37.538827
74.207443
131.82872
63.195553
108.43411
51.561079
78.487642
42.292648
50.619699
37.188281
37.92549
36.232801
37.078792
37.181574
37.591952
94.970652
129.72662
78.652582
106.72299
60.233322
78.038014
45.467211
51.780443
37.756961
38.32733
36.661874
37.437903
36.667267
34.555984
97.944408
111.16803
83.297504
91.942139
64.01164
68.413138
46.921274
46.701599
37.880518
35.551742
36.479551
35.111479
32.320716
29.326737
86.428696
90.730765
75.767313
77.571177
60.326836
58.430136
44.97017
39.766297
36.451594
30.880971
33.939889
31.677648
27.337242
25.114725
76.969793
75.505659
70.569375
68.214705
59.778378
52.691681
45.634261
34.091677
35.415694
26.309421
31.658752
28.815396
25.350791
22.455818
81.795671
70.42326
73.11677
65.210898
62.328867
54.372137
48.562949
35.728241
35.360886
23.717488
29.915216
24.406002
26.164987
21.544603
116.22521
88.137867
101.00927
78.122261
79.75107
65.243652
56.240141
47.46367
38.260992
29.72286
31.065464
26.146704
28.366297
22.988593
168.12934
131.96882
151.59047
118.53487
120.83429
96.335149
78.448376
69.840244
45.376249
42.939611
34.752725
32.222736
32.021523
27.609505
214.60357
173.70285
202.70325
163.98086
172.64912
141.57376
120.42342
106.00351
62.295757
65.350789
40.448588
43.196458
35.963592
32.271673
241.73743
186.46973
234.68058
181.0752
209.54555
165.91942
158.70685
136.49296
86.795899
91.666057
47.235064
56.075498
39.862811
37.207011
247.56859
171.57696
244.23169
169.10182
223.32648
159.34426
177.84457
138.32173
106.5866
103.98677
54.559911
64.002977
43.243964
39.380276
242.66815
150.31701
237.37158
147.23642
212.69376
135.48047
164.7636
115.72624
100.58777
89.145537
56.041647
60.013174
44.310348
36.939013
199.42189
130.73378
179.79617
120.60814
147.38462
103.24881
109.79148
82.8936
76.661579
63.9415
52.167505
47.920253
43.427152
33.41335
115.27785
94.861607
102.00766
80.909385
88.776989
67.709884
75.702405
56.836918
61.286397
47.942847
48.887054
39.69901
42.650207
32.206039
76.55863
57.450012
72.042399
53.654336
67.217973
49.688324
61.619357
45.513988
54.919135
41.14458
47.936774
36.43146
42.664862
32.718287
64.510106
48.386329
62.320923
46.596155
59.826831
44.547665
57.00179
42.278812
53.287154
39.448759
48.496621
36.387099
43.824141
34.361746
61.027532
46.594498
59.632313
45.407453
58.097715
44.121775
56.433128
42.678406
54.033707
40.652599
50.387787
38.259526
46.041179
36.830769
61.825779
47.938096
60.734338
46.973057
59.598431
45.995163
58.413232
44.967947
56.549816
43.433684
53.419242
41.523744
49.23618
40.083038
65.625599
51.814325
64.471563
50.76576
63.372449
49.831472
62.271102
48.854576
60.503807
47.34185
57.506115
45.40503
53.17104
43.567045
70.67977
57.093577
69.555509
55.716799
68.335576
54.528288
67.062722
53.34333
65.123077
51.626221
61.950857
49.278448
57.020786
46.599269
72.270831
61.178383
72.100208
59.97651
71.390127
58.637405
70.168607
57.174003
68.040043
55.119275
64.434292
52.185351
58.508869
48.198154
67.689151
59.534631
68.207932
59.20179
68.278988
58.432266
67.479507
57.162718
65.454455
55.025885
61.577089
51.570643
55.102857
46.526972
58.764596
52.496011
59.246061
52.537127
59.482357
52.322446
59.013897
51.516625
57.274816
49.668592
53.344352
46.036056
47.117637
40.725421
45.495099
40.936665
46.029071
41.223496
46.541014
41.121416
46.1475
40.547949
44.920269
39.249485
41.299097
35.826139
35.599149
30.720746
25.315775
21.677893
25.885577
22.097208
26.302096
22.632369
26.428626
22.780346
27.440312
23.504767
23.38317
19.434481
17.554663
14.102188
13.95972
13.309932
14.309818
13.808001
14.478934
14.138577
13.828129
13.599866
11.411035
11.067761
6.9458479
6.3268427
2.9346627
1.9815697
0.86335516
0.36636868
0.87747691
0.22109392
0.57480216
0.25135313
0.13761149
0.27647848
1.5085862
2.6264696
2.20694
2.8841811
3.7080831
3.2463733
2.5135982
2.83763
7.2361053
12.219732
10.948651
13.709421
15.77336
16.22663
10.089773
14.385326
15.817577
21.432132
22.84901
23.436009
27.856744
25.922147
16.455551
22.385143
26.430262
29.26651
33.022063
30.580655
35.887055
31.482085
20.990338
26.340649
35.455952
35.258571
39.649726
35.697347
38.399849
34.26771
24.951242
28.618551
41.005072
38.935449
41.215133
38.284446
37.590078
37.020548
28.787181
31.447896
41.633206
39.657694
39.556016
40.026214
37.162823
40.429428
32.740328
35.026893
39.488821
40.208739
38.560472
39.565813
38.023977
40.34606
36.412041
37.7491
38.621926
37.80481
37.080113
33.390635
37.164945
35.75879
38.77418
37.861222
35.306103
30.93807
31.053626
27.760816
34.43666
31.353222
39.632684
36.034441
28.604699
25.728389
27.549408
25.690769
32.436306
29.401929
40.573585
34.083253
26.217192
24.069084
27.367602
25.302004
32.822591
29.121773
42.83033
33.778266
26.010553
23.443753
28.840717
25.57694
35.28466
29.913756
45.884316
35.016789
27.153065
23.227574
31.581098
26.168059
39.062277
31.544549
48.821847
37.212214
29.592702
23.93129
34.724084
27.275099
42.472945
33.376835
50.594873
39.009842
32.482483
25.613614
37.629505
28.992461
44.985276
34.934587
50.110264
40.173269
35.058687
27.982503
39.876045
30.723913
46.685382
36.319785
47.859674
40.825233
36.713159
29.784324
41.022497
31.77426
46.926214
37.213505
45.274447
40.831569
37.879458
30.639639
41.143599
32.751322
46.329769
37.874882
43.051957
40.775145
38.694276
31.158344
40.502336
33.642028
45.567635
38.747193
42.300905
41.363693
39.147948
31.845739
41.182359
36.857012
45.385797
39.881257
43.787479
43.483155
39.754628
33.471295
41.98169
38.617107
46.395146
41.203412
46.389459
46.476155
40.195735
34.6029
42.726289
39.557443
48.078604
42.563004
49.566132
49.065145
40.832539
35.630304
44.039903
40.628525
50.193788
45.192624
52.709231
51.42101
42.507802
37.385072
46.427071
42.892885
53.102974
49.663262
55.96386
55.221601
44.942229
39.623054
49.422658
45.467602
57.09539
54.892486
60.227468
60.998334
47.923009
42.130112
52.626891
47.590326
61.843158
59.64578
65.818466
66.859168
51.058162
44.295878
55.209773
48.427497
65.445449
61.139379
69.610819
66.496693
53.332247
45.487334
55.719081
47.735246
64.860841
57.729176
66.460462
59.394028
52.819116
45.014396
53.14098
45.306786
59.723033
51.572166
58.644136
49.896226
48.503299
42.070643
47.571359
40.77264
51.719876
43.901023
49.184379
40.208341
40.896368
36.147364
39.648025
33.851219
41.9521
34.685309
38.622128
30.160808
29.752087
26.220161
28.482596
23.608709
29.465484
23.127119
26.171323
18.664614
12.594341
10.374753
11.654828
8.5570978
11.821639
7.866429
9.6506468
5.4599494
1.526499
0.72577031
1.2605116
0.81966748
1.3076444
0.87387532
1.3485487
0.69578674
1.6773532
1.2971324
0.18599106
0.24737566
3.373046
2.7285345
3.2432341
3.0179519
0.36212559
0.4481042
4.5554931
3.643778
9.0511221
9.1211844
2.1723258
2.7446705
10.174077
9.4291834
13.823223
14.224524
5.0278384
6.1241475
14.323501
14.128218
18.494473
19.144021
7.7044971
9.242383
18.405456
18.363802
23.108685
23.946424
10.400007
12.400332
22.041731
22.154993
27.571947
28.552261
13.375774
15.892775
25.341362
25.667042
31.634576
32.729317
16.578246
19.580418
28.36411
28.966424
34.941402
36.125271
19.721754
23.072509
31.116942
32.035024
37.167419
38.390985
22.523321
25.944674
33.571586
34.895031
37.920275
39.172724
24.871301
28.127966
35.633542
37.359634
37.029295
38.37055
26.650825
29.578476
37.093838
38.878534
34.881725
36.248309
27.826589
30.35548
37.561841
39.039139
32.002922
33.35288
28.456744
30.518354
36.812125
37.833781
28.810348
30.135307
28.450544
30.082083
34.806893
35.468861
26.164106
27.348298
26.862703
28.088769
31.772926
32.404016
24.067457
24.988257
24.567756
25.001794
28.981142
29.491274
22.335413
23.140888
22.279201
22.818366
27.362614
28.180493
21.854117
22.792949
20.961561
22.021797
26.843444
28.557029
22.758737
23.904608
20.749397
22.277971
27.156946
29.963458
25.02946
26.450036
21.58429
23.585986
28.527923
32.227026
28.586944
30.632423
23.237381
25.784357
31.868997
35.826598
33.026511
36.541215
25.363029
29.005146
35.590383
39.99714
36.423697
41.836497
29.024357
34.703059
39.76031
44.866877
40.065073
46.896892
34.623072
42.110635
44.469055
50.86192
44.169598
51.599627
41.292046
50.499107
49.757546
57.75045
47.976409
55.070534
49.060595
59.635466
55.643971
64.9917
49.596573
55.483346
56.33419
67.134356
61.711361
71.840753
47.819751
52.231227
58.956239
68.832066
66.617912
76.770991
43.482723
46.081351
55.735248
63.732844
67.977636
77.376733
37.72504
39.028407
50.613867
55.407882
63.9683
72.207494
31.002902
31.513782
43.267707
46.391497
56.132066
63.059044
23.703426
23.219104
34.256668
36.224783
45.990795
51.40682
15.83245
14.297312
23.373102
23.738443
32.803676
36.574974
5.8245391
5.724471
9.5441739
10.249302
14.965324
17.216122
1.6856095
1.7244674
3.7831575
4.2698724
2.7199558
3.4848413
1.0284948
0.91346157
0.65802176
0.52205831
0.39169319
0.36770507
1.6352494
1.4508086
1.0282201
0.834088
0.75728219
0.92322524
4.9795357
4.6757926
3.5222168
2.3461424
1.5408994
1.1318956
7.4085558
6.8385757
5.0106109
3.1132451
2.2149712
2.0588279
16.854111
15.500142
13.290775
10.278528
7.6970785
6.0586892
21.475231
19.537682
16.133815
11.67503
9.1245458
8.3769907
27.010383
25.016603
21.905142
17.982097
14.13282
11.379128
32.534144
29.880725
25.689011
20.19304
15.833375
13.992149
34.986914
32.774051
29.518097
25.213845
20.639425
16.974057
41.049523
38.236837
33.931484
27.960725
22.504798
19.521028
41.585443
39.381019
36.313209
31.927905
27.067721
22.889198
48.011777
45.327158
41.244505
35.183021
29.185875
25.296733
47.128766
45.148443
42.32737
38.051801
33.187561
28.82784
53.831496
51.462364
47.751439
41.853348
35.777016
31.339903
51.64356
50.112637
47.443214
43.366649
38.700157
34.439814
58.583446
56.691119
53.328005
47.767666
41.982442
37.389329
55.03508
53.919356
51.37251
47.512035
43.199
39.280107
62.135508
60.835985
57.679068
52.563229
47.359124
42.977318
57.143042
56.291559
53.808606
50.145378
46.295761
42.904786
64.260495
63.511822
60.485641
55.876871
51.452474
47.612717
57.820623
57.116645
54.579534
51.112525
47.769438
45.005118
64.775016
64.48183
61.558036
57.501704
53.941178
50.910439
56.982943
56.361105
53.670557
50.401627
47.557489
45.408348
63.580311
63.74912
60.914824
57.439564
54.78377
52.594649
54.751472
54.151755
51.262767
48.164459
45.730928
44.083246
60.897279
61.530666
58.776851
55.837055
53.902844
52.528967
51.346283
50.782535
47.663489
44.649227
42.454351
41.153882
57.093349
58.237968
55.492302
52.911278
51.488758
50.794759
47.626746
46.900487
43.479278
40.384725
38.070666
36.928365
53.219075
54.566924
51.499215
48.829959
47.540571
47.206782
44.626466
43.450165
39.889283
36.801239
34.458466
32.862927
50.195857
51.051732
47.630104
44.702135
43.063
42.470735
43.137292
41.006949
37.364206
34.272433
31.720362
29.865639
48.321724
48.230972
44.756069
41.888969
39.694255
38.475955
42.839155
39.109844
35.122594
31.855011
29.123069
27.148456
47.09347
45.804871
42.672513
40.331897
38.111484
36.033212
43.179055
37.387372
32.920825
29.462401
26.725771
24.969423
46.045427
43.229958
40.548607
38.910109
37.283223
35.205255
43.481839
36.033881
31.293399
27.686007
25.229361
23.861732
45.230487
40.776572
38.349267
37.1608
36.2282
34.722444
43.066226
35.317488
30.170432
26.615648
24.730187
23.948678
44.505628
38.643636
36.301307
35.309515
35.008592
34.200836
39.426357
33.834718
28.962414
25.974578
25.011706
25.021514
43.940344
37.091707
34.751415
33.846711
34.175666
34.025146
34.443114
29.69948
26.74669
25.519498
25.925323
26.876052
43.770262
35.69717
33.330712
32.565629
33.488119
34.301283
28.188501
25.112516
24.975646
25.456338
27.044247
28.786461
41.984853
34.819994
31.951847
31.106318
32.433018
34.177156
23.724634
22.684979
23.946857
25.840383
28.167021
30.394347
38.69944
32.673405
29.322139
28.686221
30.514728
33.001425
21.883537
21.448515
22.729904
25.502642
28.489476
31.1617
34.34918
29.00258
25.719027
25.43837
27.642846
30.556521
20.614358
20.335787
21.181525
24.191765
27.582162
30.526273
29.69569
24.801803
21.652828
21.64058
24.027112
27.154963
18.779903
18.571455
19.102897
21.979759
25.378618
28.44953
25.285158
20.669806
17.585936
17.66585
19.986523
23.056431
16.487147
16.214629
16.566812
19.108534
22.151556
25.078397
20.909704
16.572804
13.788715
13.848154
15.908934
18.693709
13.900289
13.610059
13.824524
15.871118
18.354192
20.851687
16.670386
12.826851
10.49469
10.42565
12.133008
14.52409
11.105825
11.06454
11.109876
12.539096
14.457395
16.406541
12.749373
9.5752457
7.6621067
7.4703126
8.7968968
10.772726
8.1648244
8.7802556
8.4985651
9.2857018
10.764546
12.211897
9.170279
6.774501
5.1751973
4.941567
5.9109659
7.4878643
5.3125879
6.6141326
5.758493
6.1423655
7.343553
8.4963429
5.7970091
4.1721355
2.9227867
2.7763247
3.4262336
4.5900614
3.0346273
3.6146607
2.6208806
2.8551773
3.6547479
4.6469482
2.4293891
1.6383966
1.057452
1.0310547
1.3354074
2.0958906
0.5087481
0.55709047
0.36235703
0.42186921
0.59657154
0.81127523