/*--------------------------------*- C++ -*----------------------------------*\
| =========                 |                                                 |
| \\      /  F ield         | OpenFOAM: The Open Source CFD Toolbox           |
|  \\    /   O peration     | Version:  2206                                  |
|   \\  /    A nd           | Website:  www.openfoam.com                      |
|    \\/     M anipulation  |                                                 |
\*---------------------------------------------------------------------------*/
FoamFile
{
    version     2.0;
    format      ascii;
    arch        "LSB;label=32;scalar=64";
    class       volScalarField;
    location    "400";
    object      nut;
}
// * * * * * * * * * * * * * * * * * * * * * * * * * * * * * * * * * * * * * //

dimensions      [0 2 -1 0 0 0 0];

internalField   nonuniform List<scalar> 
50904
(
7.8737086e-08
1.0255603e-07
2.2118506e-07
2.9766321e-07
1.1130584e-06
1.2095709e-06
2.5061586e-06
2.9214153e-06
1.5834858e-05
1.6189246e-05
2.7359226e-05
2.8171495e-05
6.1186304e-05
6.0349392e-05
8.893767e-05
8.8845123e-05
0.00015566841
0.00015086461
0.00019153555
0.00018879211
0.00030996006
0.0002969838
0.00033941958
0.00032926079
0.00052240701
0.00049637703
0.00053399208
0.00051001303
0.00078384312
0.00074020251
0.00076918443
0.00072509465
0.0010792663
0.0010149516
0.0010312386
0.00096244418
0.001387533
0.0012998984
0.001301699
0.0012030369
0.0016875622
0.001576146
0.0015624302
0.001431046
0.001961123
0.0018294343
0.0018004611
0.0016372821
0.0021804749
0.002036913
0.0019889748
0.0018050527
0.0023326436
0.0021927393
0.0021177354
0.0019320952
0.0023698386
0.0022675276
0.0022051637
0.0020362739
0.0021330396
0.0021064841
0.0022426543
0.00212412
0.0017716104
0.0017524594
0.0021824973
0.0021429986
0.0014510684
0.0014318812
0.0019830762
0.0020138796
0.0012083882
0.0011913974
0.0017108299
0.0017650622
0.001044761
0.0010305669
0.0014689454
0.0014802122
0.00094528877
0.00094085561
0.0012567446
0.001249494
0.00088880328
0.00090153907
0.0010820336
0.0010602409
0.00085398096
0.00087978634
0.00095961879
0.00092858556
0.00082652833
0.00086359611
0.00087069648
0.00083736381
0.00079658321
0.00084308398
0.00078547421
0.00075110128
0.00075089023
0.00080128166
0.00068716405
0.00065492041
0.00067792287
0.00072919056
0.00057639609
0.00054663994
0.00057877077
0.00062988207
0.00045416696
0.00042751294
0.00046084752
0.00050940105
0.00033170422
0.00030930752
0.00033617772
0.00037894621
0.00022366024
0.00020676904
0.00021881627
0.00025144921
0.00013767482
0.0001270637
0.00012128659
0.00014069522
7.4980677e-05
7.0158805e-05
5.4081623e-05
6.1373453e-05
3.2691137e-05
3.1597343e-05
1.6321879e-05
1.8521301e-05
8.8541999e-06
9.2833753e-06
1.2185405e-06
1.4337228e-06
5.0675204e-07
5.5389301e-07
2.0999588e-08
3.0051269e-08
4.1094736e-08
3.4682278e-08
1.893238e-07
2.2560692e-07
2.7472299e-07
2.4191593e-07
2.705558e-07
1.8692621e-07
2.9857133e-07
1.9854543e-07
2.9610133e-07
1.9579694e-07
2.9189774e-07
1.9190829e-07
2.8474555e-07
1.8313272e-07
3.0889871e-06
3.1635047e-06
4.586947e-06
3.4251838e-06
4.2285388e-06
2.0139071e-06
4.592345e-06
1.5606147e-06
4.5502724e-06
1.2671868e-06
4.33846e-06
1.1078575e-06
4.132921e-06
1.0060362e-06
3.2130413e-05
3.1886995e-05
4.9647454e-05
3.7959401e-05
5.046842e-05
2.6762462e-05
5.05491e-05
1.997889e-05
4.8151147e-05
1.502956e-05
4.5707155e-05
1.2072481e-05
4.3571479e-05
1.0291501e-05
9.4513567e-05
9.2906635e-05
0.00013191534
0.00011311572
0.00012089032
9.600389e-05
0.00011508991
7.434659e-05
0.00011335104
5.6027117e-05
0.00011506694
4.3888966e-05
0.00011718681
3.6217311e-05
0.00018333294
0.00017914422
0.00022663908
0.00019414828
0.00020253091
0.00017179498
0.00017706739
0.0001419641
0.00015658164
0.00011389259
0.00013950074
8.8116798e-05
0.00012639163
7.5602095e-05
0.00030273511
0.000292887
0.00031047999
0.00026890833
0.00030356055
0.00023194278
0.00029161572
0.00019793836
0.00026505165
0.00017135983
0.0001869325
0.00012311313
0.00013658938
8.022956e-05
0.00046238755
0.00044056799
0.00040488925
0.00035284403
0.00036528427
0.00029081926
0.00033993583
0.00024969947
0.00032312136
0.00022235211
0.00031064009
0.00020261872
0.0002307347
0.00014025371
0.00066255402
0.00062159994
0.00053232486
0.00046509105
0.00045726582
0.0003777157
0.00041562977
0.00032770283
0.00039202391
0.00029709712
0.00037680958
0.00027617163
0.00036535315
0.00025984307
0.00088815751
0.00082178516
0.00068576169
0.00059847762
0.00057834897
0.00049198319
0.00052086995
0.00043761045
0.00048952744
0.00040743665
0.000470521
0.0003877272
0.00045744297
0.00037264071
0.0011179557
0.0010179421
0.00083935282
0.00072128166
0.00069990154
0.00059383939
0.00062573378
0.00053336691
0.00058512992
0.00050195788
0.00056020386
0.00048283979
0.00054276618
0.00046884021
0.0013386584
0.0011988716
0.00099919247
0.00083779724
0.00083890705
0.00069409503
0.00075272568
0.00062600921
0.00070340803
0.00059090529
0.00067129908
0.00056986588
0.00064722118
0.0005547503
0.0015480779
0.0013657285
0.0011882242
0.00096586845
0.0010261145
0.00080682629
0.00093566332
0.00072799102
0.00088032473
0.00068516435
0.00084108139
0.00065818804
0.00080900707
0.00063840727
0.0017207886
0.0015042136
0.0013729176
0.0010870098
0.0012212136
0.00091448061
0.0011331122
0.00082262784
0.0010750886
0.00076912379
0.0010302767
0.00073344435
0.0009906602
0.00070624526
0.0018402431
0.0016127823
0.0015142262
0.0012040289
0.0013710143
0.0010230378
0.0012850868
0.00092006264
0.0012271952
0.00085698227
0.0011817472
0.00081318355
0.00114093
0.00077858743
0.0019289302
0.0017123236
0.0016269367
0.0013265726
0.0014774705
0.0011288457
0.0013853735
0.0010069709
0.0013249519
0.00093004449
0.001280052
0.00087690085
0.00095929046
0.0006413427
0.0020240047
0.0018614944
0.001796381
0.0015608109
0.0016677087
0.0013678474
0.0015876064
0.0012342655
0.001536156
0.0011459779
0.0014990703
0.0010857478
0.0014680306
0.0010409592
0.0020632425
0.0019928647
0.0019630276
0.0018568586
0.0019151203
0.0017517897
0.0018834593
0.0016590972
0.001860686
0.0015895847
0.0018432332
0.0015421651
0.0018272218
0.0015071708
0.002037879
0.0020292302
0.0020498301
0.0019908449
0.0020928424
0.0020026802
0.0021179193
0.0019955892
0.0021285934
0.0019752583
0.0021324811
0.0019547684
0.0021326789
0.0019389623
0.001980934
0.0019957428
0.0020747132
0.0020130734
0.0021936479
0.0021059083
0.0022673275
0.0021485628
0.0023073144
0.0021599601
0.0023298103
0.0021611438
0.0023431653
0.0021622275
0.0018588327
0.0018872539
0.0020246316
0.0019538138
0.0021974322
0.0020768744
0.0023011434
0.0021294776
0.002359835
0.0021472552
0.0023950133
0.0021576249
0.0024173012
0.0021648238
0.001620632
0.0016691494
0.0018479633
0.0017861363
0.0020272208
0.0018944394
0.0021411337
0.0019318692
0.0022101842
0.0019438193
0.0022535039
0.0019523369
0.0022817558
0.0019578054
0.0013219149
0.001340652
0.0015301102
0.0014873242
0.0016759451
0.001546472
0.0017793858
0.0015696726
0.0018484281
0.0015805268
0.001894314
0.0015869103
0.0019247557
0.0015905819
0.0011191436
0.001091042
0.0012194778
0.0011667745
0.0012715382
0.0011857861
0.0013078066
0.0011926127
0.0013325566
0.0011968682
0.0013485583
0.0011994547
0.0013580306
0.0011994248
0.0010118443
0.00097001831
0.0010529847
0.00098324148
0.0010567079
0.00096927447
0.0010588571
0.00095923587
0.001061136
0.00095267646
0.0010624014
0.00094662593
0.0010624724
0.00093956379
0.00093969811
0.00089691039
0.00097832083
0.00089863167
0.00096737509
0.00086353091
0.00095444125
0.0008335013
0.00094515817
0.00081137944
0.00082724192
0.00071960095
0.00052341992
0.00046378195
0.00086987555
0.00082996439
0.00094238903
0.00086323113
0.00094061
0.00083830681
0.00092575874
0.00080887359
0.00075698476
0.00066286274
0.00047832998
0.00042744824
0.00033151002
0.00029598544
0.0007798096
0.00074411615
0.00090594078
0.00083093901
0.00093528067
0.00083386015
0.00093290971
0.00081850631
0.00064353714
0.00059119317
0.00042549253
0.00038634483
0.00030876671
0.00027870544
0.00065546136
0.00062511589
0.00083252534
0.00076476084
0.00091100517
0.00081201742
0.00093994954
0.00082485898
0.00065848235
0.00061257732
0.00045189915
0.0004146663
0.00032867885
0.00030556154
0.00050184918
0.00047779211
0.00069505708
0.00063954498
0.00081237258
0.00072440762
0.00087708418
0.00076984195
0.00071819638
0.00066659665
0.00049943714
0.00046716573
0.00035873126
0.00034530096
0.00034618515
0.00032863155
0.00051385339
0.00047327942
0.00063570754
0.00056649897
0.00071507823
0.00062626429
0.00075336038
0.0006626277
0.00052679143
0.00050726952
0.00037453939
0.00037061121
0.00021399977
0.00020308322
0.00033240161
0.00030682666
0.00042958792
0.00038256055
0.00049872149
0.0004347971
0.00054266725
0.00046887509
0.00050785042
0.00049041639
0.00036833781
0.0003654491
0.00011774472
0.00011279693
0.00018360484
0.00017048571
0.00024443124
0.0002180236
0.00029136262
0.0002529261
0.00032173164
0.00027592442
0.00034018602
0.00029038008
0.00032769093
0.00029981657
5.6789315e-05
5.5923688e-05
8.2322714e-05
7.7735981e-05
0.0001090732
9.8407333e-05
0.00013377382
0.00011634577
0.00015039998
0.00012817352
0.00015934184
0.00013462485
0.00016424707
0.00013819078
2.0142561e-05
2.0904365e-05
2.7021285e-05
2.6834849e-05
3.2906095e-05
3.1654742e-05
4.0355859e-05
3.785435e-05
4.7294305e-05
4.2634132e-05
5.093227e-05
4.4634988e-05
5.2168146e-05
4.5074534e-05
1.7765013e-06
1.9368378e-06
3.2180229e-06
3.3651475e-06
4.5018571e-06
4.6036182e-06
6.112645e-06
6.1429795e-06
7.8588804e-06
7.4884585e-06
8.9790556e-06
8.1455445e-06
9.3228385e-06
8.2639659e-06
6.2072163e-08
6.1099517e-08
9.5164447e-08
9.0780614e-08
1.9627963e-07
1.6422056e-07
3.6089112e-07
2.769935e-07
4.845218e-07
3.4710364e-07
5.2692076e-07
3.6885623e-07
5.401574e-07
3.7627467e-07
2.7678786e-07
1.7105122e-07
2.6807592e-07
1.5619464e-07
2.5937062e-07
1.4166493e-07
2.5121781e-07
1.2904643e-07
2.4430571e-07
1.2037182e-07
2.4467597e-07
1.2855217e-07
3.9454968e-06
9.3053893e-07
3.7629789e-06
8.646379e-07
3.6181673e-06
8.1424238e-07
3.4776273e-06
7.6639005e-07
3.3070888e-06
7.1093213e-07
3.0367527e-06
6.4349407e-07
4.1659232e-05
9.0707425e-06
3.9797751e-05
8.0904095e-06
3.8342492e-05
7.4570431e-06
3.6963856e-05
6.9225638e-06
3.5464966e-05
6.3631299e-06
3.3476623e-05
5.7243352e-06
0.00012014
3.1195474e-05
0.00011438323
2.7474976e-05
0.00011284985
2.5183765e-05
0.00010841319
2.339476e-05
0.00010312394
2.1718373e-05
9.6612765e-05
2.0030308e-05
0.00012127233
7.0382331e-05
0.00011097262
6.1907745e-05
0.00010841296
5.636857e-05
0.00014487032
5.193661e-05
0.00017359426
4.8112324e-05
0.00016038798
4.4579788e-05
0.00011642135
6.8723888e-05
0.00010308441
6.6043403e-05
0.00010174584
7.2968516e-05
0.00013912626
8.9975724e-05
0.00023172215
8.2714548e-05
0.00021282385
7.6190591e-05
0.0001302746
8.3663587e-05
9.8901231e-05
6.1429608e-05
9.5913053e-05
6.1886596e-05
0.00012994947
9.6878683e-05
0.00024132447
0.00012695793
0.00026161621
0.00011497797
0.00030630401
0.00023162556
0.00015237736
0.00010680093
0.00010906318
7.4490154e-05
0.0001265131
8.7699848e-05
0.00021975997
0.00017484782
0.00031808785
0.000171086
0.00044718113
0.00035923408
0.00043832922
0.00034678127
0.00028716381
0.00020264114
0.00019994451
0.00014548697
0.000236737
0.00018921057
0.00038931401
0.0002697507
0.00052870359
0.00045641269
0.00051665333
0.00044505943
0.00050701731
0.00043602439
0.00049757725
0.00042716559
0.00048575412
0.00040896824
0.00046557583
0.00039068471
0.00062629743
0.00054115925
0.0006071105
0.00052726768
0.00058955665
0.00051467557
0.00056963335
0.00050050129
0.00054684076
0.00048407974
0.00052510601
0.0004687284
0.00077914837
0.00062114399
0.00075101833
0.00060534432
0.00072463952
0.00052658542
0.00069330457
0.00057251229
0.0006541928
0.00054981768
0.00061704534
0.00052536321
0.00095110078
0.00068189205
0.00091182213
0.00065985752
0.00087391035
0.00064059841
0.00082848751
0.00061857713
0.00077153744
0.00059020952
0.00071454713
0.00055798527
0.0010990009
0.00074606835
0.0010561395
0.0007154972
0.0010131043
0.00068815802
0.00095906186
0.00065682329
0.00088635131
0.00061710943
0.00080408815
0.00057187014
0.00070338092
0.00052411444
0.00070703946
0.00059794088
0.00092611123
0.00071732141
0.0010658755
0.00068528726
0.0010046456
0.00063843563
0.00091170899
0.00057508666
0.0010162777
0.0006483577
0.00066504526
0.00041878399
0.00059173961
0.00038315466
0.00072988172
0.00050566191
0.0011365272
0.00078231898
0.0011092978
0.00068861531
0.0018105206
0.0014764555
0.0011599341
0.0012830974
0.00081652664
0.00074654925
0.00081639172
0.00059946197
0.0011283076
0.00073021114
0.0015101611
0.0010931802
0.0021315515
0.0019243926
0.0018890946
0.0019073614
0.001246216
0.001665635
0.0010911992
0.001180522
0.0013633927
0.0011248646
0.0019717346
0.0014202702
0.0023528587
0.002162829
0.0023580674
0.0021624863
0.0015498302
0.0021465355
0.0013138324
0.0015111671
0.0015898648
0.0013719276
0.002325825
0.0016503059
0.0024348868
0.0021710337
0.0023304704
0.0021768922
0.0015816854
0.0017977936
0.0013914415
0.0013346108
0.0017200791
0.0013119365
0.0024959787
0.0016695495
0.0023040451
0.0019623868
0.002096636
0.0018029917
0.0014991562
0.0011798339
0.0014002736
0.00099569404
0.0017834227
0.0011569198
0.002364513
0.0016204475
0.0019460785
0.0015901831
0.0017424833
0.00097730009
0.0013995639
0.0007614294
0.0014774896
0.00080841675
0.0019906464
0.0011063709
0.0019401754
0.0015317623
0.0012771044
0.0009565611
0.001093296
0.000717889
0.0011721022
0.00069197588
0.0013591637
0.00083381923
0.0013472687
0.0011354227
0.001319033
0.0010758607
0.001009945
0.0008111342
0.00081533617
0.00064685588
0.00078299152
0.00058609762
0.00091457538
0.00065664984
0.0010396595
0.00085280013
0.0010187363
0.00081094499
0.00041788291
0.00036511971
0.00041284482
0.00034271072
0.00046529475
0.0003665263
0.00062654972
0.00049414859
0.00095021477
0.00072618828
0.00094245728
0.0007029395
0.00030323998
0.00026416189
0.00032947492
0.00027524242
0.00038817801
0.0003352
0.00056650406
0.0004938168
0.00094611213
0.00076622192
0.00097403467
0.0007546176
0.00028682304
0.0002583921
0.0003071306
0.00027832317
0.00035694209
0.00035408466
0.00054115898
0.00052975709
0.0010082104
0.00082146549
0.0010176268
0.00081289432
0.00029618614
0.00028132161
0.00030359971
0.00030036174
0.0003414973
0.00039173247
0.00050226929
0.00051744079
0.00090440934
0.00078800436
0.0010442761
0.00084797164
0.0003158203
0.00031144061
0.00031576728
0.00031573772
0.00034681851
0.00040474543
0.00048837949
0.00053397
0.00081370787
0.00074657174
0.0010461885
0.00085220539
0.00032871202
0.00032878279
0.00032874559
0.0003297381
0.000358996
0.00041308037
0.00049293558
0.00055881091
0.00077830824
0.00072856577
0.00094631076
0.00078804502
0.00032387377
0.00032289173
0.0003267933
0.00034498148
0.00035788421
0.00042642579
0.00048429925
0.00051532662
0.00068447566
0.00057696194
0.00072484892
0.00061157315
0.00029728796
0.00030045421
0.00030122088
0.00031584069
0.00032960894
0.00032415645
0.00039798385
0.0003340104
0.0004167688
0.00034840274
0.00045123495
0.00037774313
0.0001677774
0.00014057603
0.00017174323
0.00014330641
0.00017599533
0.00014600813
0.00018141021
0.00014947431
0.00018982195
0.00015552314
0.00020886335
0.00017054998
5.269517e-05
4.5110302e-05
5.3112216e-05
4.5106624e-05
5.3628542e-05
4.5188902e-05
5.4490152e-05
4.5556031e-05
5.6308895e-05
4.663124e-05
6.1506012e-05
5.0399381e-05
9.4860951e-06
8.3264703e-06
9.6318115e-06
8.3766706e-06
9.7568897e-06
8.4128576e-06
9.8683955e-06
8.4447119e-06
9.9447867e-06
8.4481824e-06
1.0299436e-05
8.7642337e-06
5.4040396e-07
3.7184805e-07
5.306891e-07
3.6206854e-07
5.1806731e-07
3.4768731e-07
5.0910278e-07
3.4086429e-07
5.3957128e-07
3.7277758e-07
7.3813993e-07
5.4720539e-07
2.7274564e-07
2.0527485e-07
3.0788674e-07
3.0398767e-07
3.1579516e-07
3.2426178e-07
3.1048625e-07
3.2778592e-07
3.020815e-07
3.3330044e-07
2.92472e-07
3.3914662e-07
2.6001748e-06
6.5104273e-07
2.3693148e-06
8.0225879e-07
2.2522256e-06
9.2703372e-07
2.1518374e-06
1.0139157e-06
2.0696878e-06
1.0945549e-06
1.9916092e-06
1.1934568e-06
3.0100962e-05
5.6305696e-06
2.6567036e-05
7.0805844e-06
2.4768123e-05
8.4725946e-06
2.3789422e-05
9.5277052e-06
2.3103794e-05
1.052626e-05
2.2399401e-05
1.165927e-05
8.7621965e-05
1.9986935e-05
8.0117175e-05
2.3602417e-05
7.6529084e-05
2.6167379e-05
7.2978637e-05
2.7885992e-05
7.2449069e-05
2.9319806e-05
7.0560906e-05
2.1272661e-05
0.00014318818
4.3227566e-05
0.00013204656
4.6924259e-05
0.00012797488
4.969355e-05
0.00010531739
5.1619583e-05
0.00010175048
4.2772021e-05
0.0001202085
3.059237e-05
0.00018736479
7.2806559e-05
0.00017220402
7.6611138e-05
0.00016727284
8.0112589e-05
0.00015822292
8.2799845e-05
0.00013457199
6.7192306e-05
0.0001579094
4.8298703e-05
0.00022809539
0.00010833929
0.00020904566
0.00011344118
0.00020328284
0.00011850139
0.00019999687
0.00012192677
0.00015376157
0.00012499488
0.00015718467
8.2435798e-05
0.00027652082
0.00015648181
0.00025368395
0.00016317935
0.00024712352
0.00017032162
0.0002406181
0.00017586147
0.00015701935
0.00018006322
0.00014678161
0.0001509443
0.00033985876
0.00023957536
0.00031231634
0.00024749943
0.00030409397
0.00025654388
0.00026289075
0.00026174662
0.00016548305
0.00026396247
0.00014959308
0.00024979106
0.00042069037
0.00036292585
0.00039204016
0.00037934844
0.00038222819
0.00039393324
0.00027693861
0.00040138607
0.00020525059
0.00035802015
0.00019264174
0.00034456753
0.00050108099
0.00045971971
0.00048600441
0.00048147018
0.00047947564
0.00049750872
0.00034170265
0.00050704444
0.00027500988
0.00044406347
0.00027126315
0.00040540489
0.00059445358
0.00051138613
0.00058874835
0.00051887878
0.00058894436
0.00052732202
0.00058768147
0.00053319725
0.00043159843
0.00046219064
0.00039119021
0.00039926445
0.00068066166
0.00052992514
0.00066890052
0.00051986926
0.00066688983
0.00052004956
0.00066552174
0.00052148459
0.00057862925
0.00046620002
0.00048468013
0.00038635419
0.00074808308
0.00053037323
0.00072171788
0.00050774387
0.00071213696
0.00050206001
0.00070486409
0.00049985209
0.00057209792
0.00049724353
0.00049073472
0.00040530136
0.00083323388
0.00051756775
0.0007965723
0.0004894991
0.00078272974
0.00048265191
0.00073670615
0.0004791201
0.00055824236
0.00047468832
0.00056383817
0.00046543231
0.00098355618
0.0005913028
0.00093099684
0.00055499442
0.00091315119
0.00054838481
0.00089978354
0.00054517751
0.00056453476
0.00049314836
0.00052964711
0.00048945073
0.0013389057
0.00090908671
0.0012465859
0.00082157582
0.0012146914
0.00079580029
0.0011936206
0.00078066456
0.00088017641
0.00053903869
0.00067045788
0.00044227203
0.0017915379
0.001453882
0.001661626
0.0013146533
0.0016130507
0.0012610351
0.0015840347
0.0012294575
0.0014693287
0.0010916299
0.00096016726
0.00065549106
0.0021672274
0.0019370059
0.0020206865
0.0017914085
0.0019634402
0.0017312286
0.0019306114
0.0016957638
0.0019016724
0.0016642596
0.0012801843
0.0012118791
0.0023563077
0.0021029207
0.0022143865
0.0019764081
0.0021615474
0.0019263306
0.0021316822
0.0018971578
0.0021063225
0.0018724277
0.0015045292
0.0016427065
0.0022349368
0.0018936789
0.0021266145
0.0018023842
0.0020937982
0.0017720566
0.0020775177
0.0017550878
0.0020650898
0.0017405675
0.0015259621
0.001445226
0.0018354423
0.0014389945
0.0018053139
0.0013878842
0.001808896
0.0013776314
0.0018166001
0.0013731261
0.0018259427
0.0013690587
0.0014315784
0.00086827379
0.0013011388
0.0010206947
0.0013304728
0.0010404615
0.0013472043
0.0010541274
0.0013588293
0.0010625534
0.0010099074
0.0008743432
0.00079480605
0.00062818275
0.0010096104
0.00079998094
0.0010179403
0.00082918307
0.0010195427
0.00083807491
0.00052875954
0.00071460692
0.00039419992
0.00044690991
0.00040388079
0.00040261127
0.00094187829
0.00068523234
0.00087367482
0.00068035176
0.00039511626
0.0003388453
0.00025981755
0.00020652253
0.00025242479
0.00019519695
0.00032568993
0.00027310631
0.0009797862
0.00074539712
0.00072129251
0.0004966927
0.00033424476
0.00021849486
0.00023579078
0.00016119049
0.00024317462
0.00019084506
0.00032411982
0.00032662635
0.0010239341
0.00080879422
0.00070512511
0.00047238514
0.00031936848
0.00020545583
0.00022131315
0.00015462518
0.00022867708
0.00018764409
0.00030987675
0.00032572828
0.0010467388
0.00084495583
0.00085958158
0.00059169665
0.0003575359
0.00021267563
0.00021459394
0.00014179678
0.00020603613
0.00016162393
0.00028091873
0.00028617232
0.001063949
0.00086046888
0.0010798076
0.00086372566
0.00064691536
0.00035714422
0.00029060897
0.00015927473
0.00021267561
0.00014010774
0.00024576336
0.00021029182
0.00099753414
0.00083481466
0.0010526043
0.00088247095
0.0010688574
0.00089132372
0.00067987363
0.00036653956
0.00036791437
0.00019403185
0.00029521759
0.00019189269
0.00079563661
0.00068459271
0.00087879786
0.00077332578
0.00090780231
0.00079942124
0.00092297752
0.00081174028
0.00081106413
0.00050512735
0.00056175908
0.00031898755
0.00051928148
0.00044844383
0.0006106539
0.00055042087
0.00064377508
0.00058233691
0.00066102227
0.00059803677
0.00067305044
0.0006087287
0.00068381012
0.00061489466
0.00025423385
0.00021516916
0.00032950451
0.00029835716
0.0003607887
0.00032889728
0.00037703352
0.00034417594
0.00038817791
0.00035469893
0.00039718714
0.00036414235
7.7575499e-05
6.468997e-05
0.0001113297
9.9461448e-05
0.00012901862
0.00011558928
0.00013915105
0.00012449178
0.00014659668
0.00013123225
0.00015350065
0.00013808035
1.2237853e-05
1.0579876e-05
1.7123743e-05
1.504328e-05
1.992623e-05
1.7207732e-05
2.1609713e-05
1.8398562e-05
2.2938086e-05
1.935573e-05
2.4328908e-05
2.0460507e-05
1.2631909e-06
1.0930047e-06
1.8997279e-06
1.7801638e-06
2.1601673e-06
2.0365964e-06
2.301257e-06
2.1827703e-06
2.402077e-06
2.2935101e-06
2.4915293e-06
2.401083e-06
2.8009468e-07
3.3533779e-07
2.656916e-07
3.1938971e-07
2.4702212e-07
2.8701378e-07
2.2273342e-07
2.3798019e-07
1.9173379e-07
1.741454e-07
1.6036382e-07
1.1768247e-07
1.4716057e-07
9.8247268e-08
1.8997423e-06
1.3413565e-06
1.8132282e-06
1.4847901e-06
1.7157821e-06
1.5963656e-06
1.5973857e-06
1.7161064e-06
1.4437568e-06
1.6814266e-06
1.281206e-06
1.5226136e-06
1.2346578e-06
2.0115719e-06
2.1503505e-05
1.3134467e-05
2.054153e-05
1.3203797e-05
1.937653e-05
1.4376353e-05
1.7935715e-05
1.7693074e-05
1.6207529e-05
1.9168912e-05
1.4551411e-05
2.0613934e-05
1.4392276e-05
2.3479477e-05
6.830853e-05
2.0947267e-05
6.604033e-05
2.3603287e-05
6.3288587e-05
2.8240481e-05
5.9939604e-05
3.3063772e-05
5.5801049e-05
4.8037994e-05
5.1651336e-05
5.7913452e-05
5.1210458e-05
6.2325722e-05
0.00011695385
3.1758738e-05
0.00011512458
4.2888788e-05
0.00011407173
5.8474777e-05
0.0001129044
5.77649e-05
0.00011046674
7.0145801e-05
0.00010601038
0.00010120004
0.00010514494
0.00011138695
0.00015513094
4.7545528e-05
0.00015551146
6.3980486e-05
0.00015742355
0.0001070377
0.0001599702
9.7879149e-05
0.0001624073
0.00010371417
0.00016292554
0.0001281216
0.00016486855
0.00014722911
0.00018137132
7.1956742e-05
0.00019313395
7.6631627e-05
0.00019702423
0.00014740563
0.00017614391
0.00016366646
0.00019255398
0.00017187603
0.00021770088
0.00016361988
0.00019682238
0.0001881115
0.00014873457
0.00011954831
0.00014738546
0.00010227502
0.00017121268
0.00016464144
0.00020496765
0.00021607599
0.00021071402
0.00024025812
0.00022091085
0.00022667862
0.00023157556
0.00029036636
0.00015173776
0.00021439675
0.00015477756
0.00017136255
0.00018984978
0.00019304329
0.00026446946
0.00026378159
0.0002875672
0.00030443097
0.00027893685
0.00034554009
0.00033039601
0.00041115054
0.00018154594
0.00033516277
0.00017625872
0.00029732583
0.00021226664
0.00027474771
0.00031337179
0.00030211961
0.00037972706
0.00036356425
0.00041221443
0.00042926328
0.00046513686
0.0005136226
0.00024782263
0.00038559688
0.0002208329
0.00035407254
0.00024050961
0.00034338165
0.00035253615
0.00033748678
0.00043899691
0.00040162133
0.00048751237
0.00050230079
0.00056382492
0.0003450574
0.00036539144
0.00037373836
0.00032956939
0.00035629998
0.00033165043
0.00035862382
0.00044275484
0.00035652093
0.00048909334
0.00040210613
0.0005546253
0.00038409673
0.00042730879
0.00034448991
0.00043973284
0.00035881078
0.00041613202
0.00035982227
0.00043539251
0.00038748857
0.00049864918
0.00034397185
0.00051288293
0.00036970082
0.00053380704
0.00034460419
0.00054491738
0.00044034504
0.00045182818
0.00037037612
0.00044114069
0.0003824589
0.00049511409
0.00036154302
0.00050522656
0.00030790664
0.00050762074
0.00032449711
0.00054884534
0.00036936354
0.0006757618
0.00048008831
0.00057318782
0.0004429507
0.00053326283
0.00040762804
0.00055525252
0.0003467724
0.00053449012
0.00028353913
0.00051316179
0.00030112548
0.00058457562
0.00039599982
0.00073916279
0.0005310378
0.00068392688
0.00050706247
0.00075461754
0.00047395106
0.00068900569
0.00041572028
0.00060201099
0.00032477691
0.00053958305
0.00029480004
0.00061397001
0.00042008245
0.00073823552
0.00057985605
0.00069217832
0.00050113422
0.00092051552
0.00063810438
0.00085460531
0.00057243318
0.00071719724
0.00047868527
0.00061842509
0.00039905145
0.0006841585
0.00049274233
0.00084632418
0.00071743841
0.00082309797
0.00053784565
0.0009564407
0.0006381462
0.0011568801
0.0008627538
0.0009250693
0.00072401275
0.0007404748
0.00059114886
0.00078893233
0.00062743544
0.00095161568
0.00077453722
0.0010109323
0.00083316247
0.0010745238
0.00076560339
0.001382804
0.00093657047
0.0012476572
0.0010825273
0.00091594998
0.00086118473
0.00089233164
0.00079969379
0.0010055562
0.00085169805
0.0011591426
0.0011351257
0.0011703893
0.00094920567
0.0014193381
0.0010225595
0.0015298448
0.0013193844
0.0011353955
0.0011639652
0.00099742216
0.00098274082
0.0010670728
0.00092949302
0.0011940883
0.0010256504
0.0011967169
0.00089501639
0.0014304921
0.00099012131
0.0016702028
0.0012866702
0.0013101137
0.0013223369
0.0010933964
0.0010931746
0.0010639491
0.00096252122
0.0011679607
0.00066671146
0.0011857202
0.0006902176
0.0014147161
0.00087811186
0.0015701374
0.0012380234
0.0012987354
0.0011926784
0.0011460475
0.0010435875
0.00099363547
0.00090196209
0.00073593542
0.0005658812
0.00078775436
0.00064549601
0.0010004688
0.00090364443
0.001251475
0.0009908738
0.0011932543
0.00095044372
0.0011622788
0.00089188405
0.00094343016
0.00087233399
0.0004380025
0.00043634463
0.00055020486
0.00056656014
0.0011411022
0.00082026926
0.0011697403
0.00084280902
0.0011820463
0.00086316719
0.0012091294
0.00078697938
0.0010260736
0.00094340218
0.00042103309
0.00043650718
0.00059451804
0.00070283351
0.0011845493
0.00085099142
0.0012113324
0.00087486974
0.0012384747
0.00079122034
0.00084046238
0.00074538055
0.0010675637
0.00097050942
0.00041229574
0.00048644219
0.00056277219
0.00067547041
0.0010276759
0.00093306278
0.0010788968
0.00079496046
0.00079842407
0.00067091097
0.00072267823
0.00068585175
0.0010086687
0.00089657897
0.00039637259
0.00047018384
0.00053054
0.00062852242
0.00081360945
0.00082501001
0.00074855826
0.00063744513
0.00063547995
0.00056064826
0.00064959419
0.00060598496
0.00091059277
0.00078638493
0.00037324999
0.00045400784
0.00049226288
0.00060089895
0.00063586751
0.0006681723
0.00058315748
0.00052459856
0.00055553095
0.00050490254
0.00061001704
0.00054846612
0.00084920376
0.00072255313
0.00031822424
0.00032224659
0.00042162825
0.00042810491
0.00051416893
0.0004636592
0.00050183329
0.00042436748
0.00051685312
0.0004493162
0.0005868561
0.00052067634
0.00078911218
0.00070240662
0.00030352886
0.00025062788
0.00036641663
0.00033301866
0.00043503584
0.00038796565
0.0004515502
0.00039077135
0.00048288496
0.00042290672
0.00054064084
0.00049548933
0.0006578703
0.00065467201
0.00042694409
0.00028015246
0.00039584554
0.00030822953
0.00040487114
0.00034186904
0.00041388732
0.00035418484
0.00043790046
0.00038231585
0.00047279246
0.00043254685
0.00053702141
0.0005441656
0.00066029593
0.00043850854
0.00049396789
0.00036550274
0.00042411171
0.00034259897
0.00040840957
0.00033805075
0.00041905954
0.00035113961
0.00044398275
0.00038271915
0.00049971358
0.00046232427
0.00040515715
0.00037288652
0.00041085531
0.00037859864
0.00041579901
0.00037581079
0.00041698492
0.00035766985
0.00040911495
0.00036051709
0.0003867136
0.00036002049
0.00034979699
0.00033116988
0.00016028939
0.00014678491
0.00016471669
0.00015324197
0.00016911276
0.00015751446
0.00017007488
0.00015863839
0.00016492597
0.00015420369
0.00015183241
0.00014249448
0.00013043693
0.0001234309
2.6214131e-05
2.2211618e-05
2.8044461e-05
2.4054686e-05
2.9984296e-05
2.6926098e-05
3.0567605e-05
2.7763378e-05
3.0508492e-05
2.7695601e-05
2.6110639e-05
2.3213115e-05
1.9466156e-05
1.6932606e-05
2.5737101e-06
2.5183408e-06
2.6308882e-06
2.6042772e-06
2.6521002e-06
2.6553328e-06
2.5199857e-06
2.5395836e-06
2.0633166e-06
2.0495121e-06
1.2364962e-06
1.1524714e-06
5.0377365e-07
3.4747749e-07
1.710179e-07
7.4826393e-08
1.7109303e-07
4.4241789e-08
1.0939178e-07
4.8700005e-08
2.529206e-08
5.139886e-08
1.7166018e-06
3.2099879e-06
2.65941e-06
3.3071204e-06
4.6528984e-06
3.6945713e-06
3.158976e-06
3.2771247e-06
2.1114927e-05
2.9075638e-05
3.2518353e-05
3.022102e-05
4.7989999e-05
3.5190192e-05
3.7725045e-05
3.5547769e-05
6.8260961e-05
7.2870119e-05
9.102718e-05
7.3863408e-05
0.00010824994
7.24292e-05
0.00010236825
8.1125501e-05
0.0001303015
0.00012412566
0.00012992677
0.0001312176
0.00014518988
0.00013527267
0.00017647117
0.00015161356
0.00016585287
0.00018319118
0.00016885044
0.00024062649
0.00021072614
0.00026046393
0.00026712525
0.00024680279
0.00020570797
0.00030507999
0.00024557122
0.00036312664
0.00037573359
0.00041220599
0.00038754467
0.00038427251
0.00029451456
0.00042831145
0.00043466437
0.00050949162
0.00052109593
0.00061280181
0.00052576194
0.00057034806
0.00048066603
0.00052946977
0.00058250704
0.00043168563
0.00071590455
0.00059760881
0.00063139975
0.00079967156
0.00056952317
0.0003498609
0.00049547644
0.00046042532
0.00082921125
0.00076150987
0.00068422791
0.0010533319
0.00040054805
0.00036971656
0.00058826374
0.00075899255
0.0011002045
0.0012357113
0.0008120476
0.001320702
0.0004938528
0.00052828235
0.0010709187
0.0010017171
0.0014087165
0.00151948
0.00094491645
0.0015839391
0.00073789114
0.00064755155
0.0010931626
0.00095531689
0.0012980511
0.0013662576
0.0010084556
0.0016355485
0.00084515213
0.00074291569
0.00091549028
0.0009345099
0.0010697891
0.0011985504