/*--------------------------------*- C++ -*----------------------------------*\
| =========                 |                                                 |
| \\      /  F ield         | OpenFOAM: The Open Source CFD Toolbox           |
|  \\    /   O peration     | Version:  2206                                  |
|   \\  /    A nd           | Website:  www.openfoam.com                      |
|    \\/     M anipulation  |                                                 |
\*---------------------------------------------------------------------------*/
FoamFile
{
    version     2.0;
    format      ascii;
    arch        "LSB;label=32;scalar=64";
    class       volScalarField;
    location    "400";
    object      omega;
}
// * * * * * * * * * * * * * * * * * * * * * * * * * * * * * * * * * * * * * //

dimensions      [0 0 -1 0 0 0 0];

internalField   nonuniform List<scalar> 
50904
(
5128441.6
5027081.4
5086052
4957072.9
912784.5
895505.86
886820.63
880084.25
342901.01
333708.2
305664.12
298406.15
164301.74
158442.02
150042.55
144351.15
95881.846
92663.941
94509.624
91014.292
65617.262
64152.167
68388.75
66897.229
49803.38
49399.106
53942.321
53763.958
40293.544
40525.177
45012.969
45633.549
33881.441
34474.975
38924.097
39970.437
29173.302
29964.347
34413.255
35683.602
25448.832
26295.029
30861.977
32193.788
22311.767
23103.509
27940.989
29168.232
19608.714
20304.027
25503.743
26644.789
17182.262
17732.147
23359.825
24410.557
15235.781
15476.161
21010.731
21895.966
14900.842
14642.543
18551.593
18920.585
16193.573
15905.934
17102.704
16794.667
17974.439
17876.948
17334.375
16521.343
20005.834
20019.855
19262.151
17896.899
22164.192
22109.202
22082.421
20662.096
24781.736
24507.064
25691.661
24335.977
27966.108
27405.15
30092.622
28955.793
31788.834
30579.819
34916.971
34112.286
35365.175
33314.206
39296.319
38957.89
38648.638
35456.811
42975.233
43203.915
41951.321
37634.248
46122.9
47058.361
45720.385
40442.984
49628.993
51279.759
50428.312
44460.118
54249.162
56789.992
56615.542
50052.607
61058.717
64800.292
65594.292
58375.418
71394.222
76838.384
80617.974
72395.648
87720.379
95535.715
109774.33
99719.302
115540.93
126412.55
175952.44
163202.3
171477.26
187009.01
343360.61
339283.58
318401.41
335794.86
885370
896976.09
858486.82
858488.45
5278014.3
5277746.1
5308862.6
5288214.4
5025994.7
4865328.5
4979017
4806183.5
4963633.1
4787732.5
4957660.2
4781425.5
4954523.6
4778989.4
4953524.7
4778828.9
4953656.7
4779877.8
917178.88
899739.31
888111.99
889612.53
871152.81
904911.26
800178.26
872599.31
767274.23
862651.25
759409.22
854100.56
757609.48
850097.66
342390.16
331497.23
307900.41
314014.93
275575.73
305444.88
246405.63
288862.44
234438.77
291911.64
229887.98
302235.81
228679.07
314351.58
180271.22
169243.88
177696.98
172590.01
163463.08
169613.06
149575.15
167184.48
141173.58
171599.77
136416.83
179298.91
133777.62
188212.86
114488.8
107442.61
126162.24
122140.55
127506.71
130668.85
125595.58
137049.34
122990.73
142516.96
120149.59
146738.2
117202.24
149948.36
81598.54
78467.723
96391.125
95917.735
106539.5
112156.22
114370.55
126480.77
119835.25
138060.01
123119.42
146340.41
123736.21
150258.51
63964.936
63140.642
78667.81
81235.597
91596.091
99664.303
103447.1
117525.23
113223.6
133119.15
121198.73
146327.79
127929.97
157261.9
53914.732
54301.19
68629.546
72147.888
80730.221
88487.016
91419.459
103778.68
100387.17
117228.73
108071.94
129310.45
115025.86
140786.11
47419.984
48362.985
62362.089
65809.684
73066.406
79189.126
81432.723
90093.629
87748.993
98785.766
92787.945
106105.33
97211.408
112891.68
42639.157
43913.187
58110.925
61723.104
69034.749
74986.07
77346.605
85351.211
83369.635
93103.661
87931.573
99061.902
91669.406
103934.82
38719.24
40213.279
54195.605
58233.302
65292.637
71935.768
73911.916
82876.228
80326.203
91142.706
85312.186
97512.253
89521.229
102702.91
35244.944
36824.83
49357.879
53731.192
58861.848
66466.407
66073.156
76613.902
71478.352
84305.855
75809.106
90345.591
79651.697
95457.244
32564.418
33993.832
45219.074
49379.515
52976.484
60531.21
58586.524
69256.731
62705.912
75825.812
66012.319
80997.704
69001.198
85436.421
30851.445
31966.305
43458.375
46463.856
50973.093
56543.009
56193.093
64156.457
59805.689
69674.789
62486.841
73824.845
64710.215
77221.496
29591.595
30533.411
44185.398
46492.98
53891.988
58062.764
60832.888
66792.678
65550.983
73007.652
68746.679
77347.005
71170.963
80646.789
27340.176
27648.545
43678.845
44979.191
56340.613
59330.069
65857.612
70738.022
72512.035
79172
77112.24
85234.44
80331.771
89541.166
25079.618
24155.937
41391.244
40302.394
54719.05
54381.045
64634.501
65195.526
71445.661
72784.246
76023.695
78176.424
79167.006
81949.793
24016.659
22527.493
40011.972
38110.831
53849.247
51850.889
63837.907
61452.038
70477.047
67770.988
74791.548
71907.37
77606.589
74728.438
24497.386
22669.863
41137.656
39298.969
55502.804
53329.391
65800.93
62961.524
72424.825
69117.56
76637.804
73034.102
79331.633
75620.279
26299.744
24150.379
44683.964
42786.661
59911.867
57817.746
70435.694
68194.22
77198.221
74915.507
81483.106
79307.825
84208.44
82143.867
30029.944
26961.805
49087.394
47248.333
65216.768
63652.339
76377.679
75279.694
83537.441
83005.685
88069.453
88161.488
90935.065
91487.79
36124.064
32846.811
53574.484
51439.215
69845.298
68554.611
81532.327
81265.195
89124.989
90149.126
93940.737
96094.372
96975.279
99968.533
42965.215
39915.359
57624.637
54828.4
70902.186
69034.985
80819.061
79761.166
87432.242
87129.482
91684.38
92002.234
94399.189
95143.633
49732.156
47194.403
63929.194
60598.041
75041.095
71920.825
82984.245
79811.644
88245.627
84798.73
91697.831
87910.327
94047.683
89907.579
54758.587
53409.46
69185.908
67160.723
79533.721
77911.02
86690.189
85562.193
91289.335
90576.045
94130.837
93685.274
95716.65
95419.069
57985.321
57598.374
71282.175
70464.517
79686.079
79389.337
84767.46
84875.297
87419.416
87772.342
88150.67
88629.322
86893.514
87411.2
60710.438
60839.386
72168.818
71991.611
78581.544
78813.922
81908.918
82504.516
82975.659
83793.298
82134.69
83062.57
79663.499
80531.06
64797.479
65344.164
74160.432
74312.41
78360.1
79019.759
80022.259
81126.457
80032.341
81384.828
78790.589
80181.56
76573.613
77817.497
72568.902
73683.665
80422.896
80974.618
82334.389
83626.519
82132.767
83964.559
81074.619
83098.519
79493.834
81504.867
77486.788
79411.783
86721.965
88738.963
94252.232
95319.71
94166.861
96375.012
92030.269
95052.425
89792.257
93051.993
87582.121
90869.844
85312.797
88549.183
111949.05
115393.37
120368.55
121929.15
118641.2
121847.05
114411.15
119194.32
110715.84
116201.14
107756.02
113517.14
104983.44
110834.87
158253.16
163964.31
168474.51
170259.95
165226.77
169014.82
158408.05
165360.13
153134.47
161922.4
149442.98
159084.35
146376.76
156507.42
246635.71
255806.19
262666.95
264321.62
257694.31
261222.66
245879.23
255747.45
238441.13
252735.38
235320.5
251952.68
233715.69
251689.27
429787.05
441471.69
480770.23
481041.98
482242.15
481901.48
456222.93
470724.4
437971.13
465442.66
436164.13
469789.35
442562.29
479074.52
940603.9
941689.94
1071019.7
1052723.4
1171659.4
1134528.5
1195467.3
1154928.9
1166803.4
1145036.3
1150739.7
1151170.9
1172137
1182442.3
5300360.1
5257876
5263875.8
5195222.2
5250446.8
5168840.1
5247386.3
5157636.2
5246171.1
5151069.7
5243550.3
5145927.3
5240694.3
5141811.5
4953543.4
4780262.4
4952659.6
4779478.6
4951793.9
4778631.3
4950692.6
4777574.9
4948944.4
4776073.5
4945931.3
4773849.3
758313.38
849366.43
760909.18
854035.71
764468.22
864344.21
769185.43
883026.57
776731.21
918816.09
795054.52
989779.48
229153.94
326991.5
230871.07
341712.78
232931.62
355034.99
235572.31
369608.46
239602.89
389571.02
246588.13
421862.74
132324.44
197350.11
131589.06
207471.71
131360.79
216009.91
131421.4
225002.53
132640.53
236573.6
136984.58
255108.99
114185.01
153247.59
111236.06
157841.32
108909.38
162438.75
106849.74
167957.29
106203.64
176508.43
108874.4
191924.98
121108.65
149406.91
115874.16
147070.98
110560.7
146401.08
105379.15
147903.77
102587.14
153860
104222.68
168706.45
132427.1
164158.01
129997.5
162032.8
122411.74
153516.53
113093.02
145529.6
106894.76
145136.97
107112.95
157229.42
121725
152597.36
127979.09
164398.99
129364.4
168140.72
122837.68
157870.73
114373.72
146229.16
112764.93
150644.79
101625.34
120126.52
106366.05
128262.9
111129.2
137113.6
115980.9
146077.18
117782.79
147705.99
118711.71
148749.73
95109.199
108457.82
98506.398
113023.74
101784.38
117590.73
106022.16
123746.45
112449.44
133155.84
121876.31
146533.24
93517.27
107415.61
97410.354
111784.44
101005.13
115440.75
105300.86
119832.1
111845.4
127447.09
124129.42
143512.18
83559.078
100384.49
87642.95
105212.96
91735.251
109753.41
96906.886
114909.11
104350.35
122100.35
116595.37
136856.38
72161.85
89858.556
75633.601
94443.635
79325.855
98864.217
84309.052
104367.49
91776.825
112413.22
103044.51
126422.48
66960.604
80546.288
69385.948
84043.872
71986.619
87565.611
75637.656
92238.534
81514.612
99523.802
90753.879
111925.21
73198.442
83220.189
74460.16
84827.937
75149.152
85979.387
75956.769
87610.299
77728.027
91095.029
82161.27
99253.458
83171.292
93429.516
85847.448
96977.428
87124.645
97813.827
86543.366
95979.969
84562.971
93075.063
83268.131
92442.672
81680.821
84992.759
84252.274
87787.998
86849.044
90548.407
88812.098
93713.636
88719.49
94618.096
87225.853
92105.722
79790.559
77018.689
81755.82
79105.019
83699.704
80895.549
86092.909
83161.554
88082.864
86590.871
89116.829
89759.083
81395.54
77640.032
83141.61
79406.588
84804.358
80857.717
86983.122
82676.381
89245.484
85803.259
91036.056
89660.039
86269.55
84318.928
88009.675
86137.252
89621.95
87622.305
91534.469
89454.72
93097.278
91963.777
93770.886
93049.555
93069.909
94011.136
94876.407
96137.488
96466.048
97973.602
97935.139
99849.439
98362.261
100238.23
97368.33
96225.365
99223.026
102887.59
101050.32
105683.93
102391.13
107704.89
103071.87
107804.62
102537.76
104404.54
101363.81
96985.185
96508.352
97630.568
98245.968
99508.055
99388.698
99913.521
100317.32
98836.412
101657.44
96301.272
105403.01
93331.172
96058.725
91537.612
98062.416
92917.917
99720.441
93683.911
101187.07
93758.246
103052.07
93212.713
107601.85
94353.024
95900.572
95615.125
94344.354
93818.294
92406.332
91363.001
90651.394
88784.472
89868.31
87129.757
91371.723
88898.372
84000.064
84433.158
80067.747
80372.781
77036.458
76981.455
74676.508
74273.495
73480.222
72656.095
73763.616
72799.795
76213.414
76920.649
72103.549
72862.904
68977.374
69751.903
66520.281
67394.196
65129.496
65916.353
64895.077
65310.376
73737.008
74825.593
70229.535
71347.102
67370.919
68776.781
64976.264
66995.369
63471.012
65648.773
62980.813
64764.927
75091.656
77016.34
72057.605
74179.226
69441.257
71907.761
67094.996
70254.613
65377.839
68935.423
64345.727
67769.649
82900.278
86150.263
79967.558
83317.041
77377.196
80929.698
74927.256
78947.569
72773.385
77044.457
70684.58
74659.796
102265.54
108111.67
99113.779
104881.07
96270.348
102146.96
93416.069
99581.219
90407.515
96556.128
86756.917
92187.62
143404.5
153763.73
139936.85
150396.11
136624.28
147370.54
133011.53
144035.02
128647.28
139609.38
122554.21
132304.91
232088.09
251068.68
229973.37
249977.26
227553.18
248616.81
224452.57
246304.02
219998.3
241989.47
210444.68
231549.03
449212.37
487784.5
457128.48
497957.86
463804.97
506226.2
469784.35
513282.45
474718.78
519031.35
468391.59
515193.8
1195179.5
1207369.2
1220585.1
1235865.9
1244869.8
1261905.4
1273449.6
1293962.3
1315877.1
1343946.6
1354789.1
1394629.4
5238255.1
5138073.9
5243599.1
5141598.6
5248037.5
5144127.7
5253134.1
5146850.3
5262947.1
5152438.2
5284676.2
5165662.9
4939512.9
4772555.6
4934285
4772098
4932235.3
4769960.9
4930769.7
4768491.6
4929416.3
4767384.9
4927806.5
4766037.9
830015.74
1055123.5
822438.23
1032696.6
813131.37
978043.06
815854.55
942964.71
820079.2
908684.05
823036.95
862647.52
258237.66
456727.11
264843.48
449486.97
269760
436656.43
273133.44
429320.66
275110.65
422916.07
276483.8
414281.11
147867.33
286220.08
157748.42
314654.91
161066.3
335002.45
161810.44
351556.39
161254.25
367528.45
160601.48
378770.05
118871.75
228528.17
130217.94
279955.07
135088.34
314172.88
137191.99
338930.75
137513.46
359972.29
137443.97
366871.81
114496.58
209378.03
127516.13
270286.12
133479.79
308266.94
136737.22
334748.64
138477.37
356422.5
139555.87
361136.38
118233.79
198463.6
133451.21
260334.62
140733.33
297220.7
145028.34
320927.25
147932.27
340093.29
149705.54
349845.64
124658.51
188733.88
142540.51
246882.5
151583.88
279975.57
157415.32
301227.5
161885.66
316872.18
163706.49
324527.41
131687.07
180846.1
151628.37
233431.45
161995.18
261846.61
168989.54
279582.23
174518.05
292738.05
175221.02
300051.74
139904.87
180646.79
161433.2
232463.15
171713.14
260027.16
178062.4
277370.1
181681.99
289725.24
179336.18
294712.52
149161.09
181629.61
176304.92
232714.32
188804.01
259649.09
195436.01
276270.84
196705.36
288593.15
190047.34
294417.4
139885.7
172477.16
165200.65
217222.14
177721.43
240500.74
185643.93
255241.21
191495
267193.86
191741.98
274473.07
121064.44
156445.48
139369.71
192564.53
148544.99
211086.11
154857.24
222974.53
160480.1
232793.95
164381.13
239590.9
104255.46
135379.72
117297.94
161967.07
123884.08
175388.97
128500.82
184143.69
132866.02
191631.22
136491.34
198393.21
91024.095
116897.77
99823.695
136920.45
104144.6
147203.74
107021.09
154017.89
109423.38
160089.71
110874.57
166444.82
88546.889
102683.85
96748.2
117427.08
101051.88
125112.57
103690.92
130057.22
105825.41
134224.35
106113.42
137731.36
91080.095
97187.027
99502.597
109767.8
104409.91
116750.58
107508.06
121249.15
110275.52
125485.22
112833.26
129628.81
93664.169
95132.45
101805.41
104346.51
106696.63
109467.93
109887.25
112829.93
112664.49
115882.12
116091.04
120114.58
95740.616
93933.049
103582.97
100074.96
107953.69
103244.97
110829.53
105321.31
113370.45
107107.49
116726.65
109486.12
97363.646
93495.849
104748.72
97027.027
108511.57
98874.45
111026.32
100062.98
113327.57
101084.84
116502.13
102398.35
99647.743
92853.994
107264.89
95399.912
110916.41
96780.817
113405.31
97723.6
115749.92
98588.699
119047.83
99774.62
105399.3
94150.551
116164.93
100278.05
120719.18
103081.57
123695.52
104934.16
126389.41
106609.52
129835.12
109028.14
117616.15
98315.455
135222.08
111983.13
142237.02
117171.77
146487.82
120277.58
150102.48
122938.39
152518.28
125630.16
119412.35
106788.54
134104.15
125799.78
139541.11
132901.66
142168.93
136987.59
139880.95
139180.84
128760.77
134537.01
96049.033
98726.732
100410.87
110552.38
100231.4
113254.47
96159.953
109951.01
88507.707
99269.822
78966.068
84688.823
75567.062
75858.716
75903.124
79155.839
73936.297
77811.011
69770.099
72702.443
64487.269
65441.722
58945.482
58665.784
65783.483
66178.035
65963.711
67405.601
64576.516
65593.238
61170.124
60627.51
56763.82
55016.182
52510.647
50309.316
63515.542
64865.88
64343.984
65663.766
64130.521
64711.441
62110.446
60599.574
57737.921
54789.381
52905.683
49608.56
64003.435
67161.231
64328.442
67750.005
64599.97
68010.731
64480.904
66932
62646.043
62114.283
58635.252
55494.729
68699.477
71726.369
67330.895
69712.042
67055.839
69333.445
67037.668
69197.341
66933.188
68414.951
65944.102
65122.963
82382.13
85632.209
78571.889
79620.119
77461.807
77985.474
76934.061
77126.635
76577.602
76369.023
76188.587
75302.785
113289.57
118865.03
103686.57
104350.62
100861.22
100602.58
99521.385
98785.017
98665.558
97480.215
98013.964
96207.989
189847.09
203490.76
163370.17
165278.43
154575.75
154538.07
150577.04
149626.08
148100.55
146340.22
146364.94
143442.32
424868.62
462517.73
354041.39
366364.25
324403.53
332339.92
309711.41
315793.91
299898.44
304006.46
291484.26
292567.89
1288897.1
1348535.6
1174686.2
1200417.2
1112322
1135408.1
1074704.2
1099501.9
1044110.6
1069185
1010975.8
1032656.8
5327642.5
5200183.6
5372742.8
5238960.6
5389299.7
5252094.3
5397427.9
5258743.5
5402110.3
5262791.3
5405252.6
5265899.6
4934179.8
4773313.6
4932719.3
4771927.9
4932126.5
4770750.7
4933490.1
4770817.7
4938867.2
4774250
4953804
4787284.4
4999073.8
4834861.3
824201.97
798374.24
825418.43
751058.86
829812.67
736746.39
840902.32
726980.39
866669.43
735550.49
906461.05
762514.4
922758.51
774260.3
279056.3
395645.04
282864.14
370136.08
289073.22
341194.85
299398.09
311527.87
316104.29
287940.56
338413.49
295046.49
352832.53
344489.49
161248.21
364180.41
163566.9
330566.03
167266.45
302828.52
172625.92
278704.04
181334.21
245237.26
194456.64
231843.76
210269.88
259560.42
138599.36
330042.55
139805.28
279473.71
140388.37
254866.7
140890.4
247071.33
142837.08
230873.63
150551.27
214407.83
168261.86
219690.27
140636.87
311545.58
140604.68
249174.56
139892.06
217993.21
139180.68
212069.85
138753.79
206165.69
142076.61
195256.45
156958.09
187535.68
149417.14
309676.31
147404.87
239755.07
145157.75
191013.87
144036.16
175618.91
142663.01
172568.54
142942.33
168071.95
149853.74
154286.37
160792.46
304449.11
154996.46
246855.07
146705.9
182267.9
140146.98
150622.24
137220.11
140990.77
135293.26
135772.49
131685.02
120332.26
167118.69
291436.17
155523.98
256996.37
140623.26
192472.63
127302.36
139516.53
119679.48
116037.53
114657.92
105281.33
104486.29
91053.964
168016.32
284194.11
152522.2
259848.02
132848.73
210675.45
113609
144403.12
99818.458
100914.19
91172.875
84509.919
79928.816
73086.4
174440.25
283364.1
154348.07
258527.64
128502.32
213377.21
103276.22
149990.17
84711.943
94430.964
74321.808
73817.904
65945.248
64028.016
179168.03
264373.19
158478.7
239550.3
128753.56
198235.19
98639.546
145238.16
77197.862
95316.454
66102.059
71536.351
58067.263
58205.854
159600.51
231963.05
145449.66
210406.25
121140.87
176555.24
94096.764
135771.57
73858.021
96163.546
62558.513
73159.099
50034.055
53530.494
134792.97
197274.82
126392.36
185154.12
109602.36
161613.23
89009.908
129150.5
71808.717
95165.626
59195.803
73433.42
40453.962
44683.942
110126.77
170054.05
107348.44
167345.47
99591.086
151948.89
85379.053
120236.23
69014.674
87370.291
54156.812
66926.527
31601.301
33087.89
102100.46
138884.78
96892.487
137589.94
90462.049
130790.2
80667.878
110008.56
65533.723
80452.799
48724.229
56822.035
28732.989
29251.28
111102.43
128362.74
104485.33
122428.65
93319.184
113976.01
78416.561
99154.231
61868.435
74483.78
45406.823
53063.646
29567.56
32042.601
118339.46
124047.05
115352.75
121514.51
104448.42
111660.07
84802.702
96462.728
61279.938
72637.56
44050.324
51356.258
31138.632
35646.453
120426.82
112829.08
120724.1
115007.36
113690.77
110605.75
96519.632
97922.257
68012.183
75884.752
45329.097
54016.247
32824.61
37890.98
120443.77
104272.9
122277.72
106025.06
117743.36
104533.9
103740.49
96179.647
76445.52
78753.263
47357.144
57060.312
34321.671
40029.36
123013.25
101411.46
124590.65
102486.67
119830.38
100233.53
106480.82
92425.525
81356.758
78638.636
49899.481
58547.806
35561.73
40913.671
132538.72
111488.15
131492.09
110555.54
122877.35
103076.17
104935.79
90445.577
77450.548
74743.988
48899.933
57506.607
35787.835
40954.063
147443.23
123842.5
135474.29
116047.22
113658.32
101255.95
87729.663
83657.071
64245.802
67275.419
44883.815
53729.241
34409.118
38303.391
110464.52
118971.37
93432.164
101009.88
77799.334
82545.923
64717.278
67437.482
51847.712
55542.944
40431.615
45620.715
32227.488
34138.186
69657.031
72750.178
62800.739
65063.689
56745.609
58388.749
50869.073
52023.731
44342.584
45896.671
37650.517
39420.567
30292.81
30972.032
54167.871
53963.734
50761.605
50779.297
47566.003
47743.481
44666.643
44763.188
41250.833
41234.926
36464.978
36397.045
29409.819
29530.721
48994.906
47226.671
46694.657
45386.28
44772.143
43881.986
43209.326
42391.922
41015.36
40002.94
36839.217
35854.707
29759.518
29697.14
49425.418
46585.828
47484.68
45099.427
45988.995
44053.825
44873.024
43080.799
42899.582
41033.208
38651.053
37161.17
31360.346
31164.734
54605.925
51213.578
52248.049
49274.305
50536.833
48038.053
49263.13
46906.402
46963.612
44475.905
42420.739
40249.849
35033.458
34032.796
63523.555
60299.395
61219.67
57414.044
59051.61
55365.096
57251.222
53610.818
54515.448
50678.544
49948.476
46076.875
43008.664
39835.67
75517.576
73248.291
74481.529
70927.818
72875.237
68455.09
70994.885
66054.952
68253.116
62721.238
64233.229
58112.712
58375.725
52118.257
97434.541
94787.712
96803.2
93283.709
95851.19
91347.915
94428.319
88953.901
92252.126
85814.951
89189.756
81764.707
84533.211
76030.566
145041.49
140782.81
144201.76
138767.34
143055.55
136391.81
141525.26
133679.77
139996.88
131016.43
137942.79
127870.65
134699.95
122974.41
283831.02
278888.78
279443.88
269009.19
275206.99
261064.39
271336.36
255599.84
272366.26
254530.13
272004.49
251421.24
272922.31
248890.23
965730.06
975970.94
923019.23
918623.87
877195.73
840536.55
864595.89
820517.79
899431.93
848682.33
895541.82
837219.85
901804.25
832842.17
5423967.6
5285199
5439158.4
5302047.4
5459422
5324597.2
5487384.1
5355155.9
5530433.5
5400192.9
5617363
5489804.6
5825359.6
5702728.3
5048332.2
4896249.3
5128653.6
4997400.1
5254528.1
5161254.6
5440896.9
5379078
878821.24
818217.92
829860.77
872112.54
796940.48
878687.43
795700.32
865890.18
342700.95
420273.92
336691.42
453638.58
328680.15
461112.29
267455.55
404675.9
231722.16
294114.13
251013.05
302671.76
246824.15
309633.9
160748.59
260849.97
202839.28
220647.43
215920.72
211788.63
202006.25
204417.14
118944.86
172972.55
180063.14
166990.21
177908.92
148351.69
147095.18
131564.13
93406.53
115957.16
150090.43
124839.31
131372.6
105430.01
100044.5
89810.796
74280.936
81837.485
113521.73
92590.788
91003.585
78561.083
71316.663
65974.72
62272.152
61413.188
82154.384
72378.943
66197.435
59456.028
53113.194
47198.031
53825.784
47205.756
63599.459
58686.34
48866.658
39841.285
39144.14
31001.864
47143.528
35944.248
50036.877
44062.422
32004.104
28109.021
28756.922
22306.956
41102.69
27284.309
35552.561
34638.398
24333.134
23794.41
23025.432
18819.996
37031.073
21518.032
29161.597
30118.854
22011.014
21366.561
21035.905
17291.23
35305.221
18664.783
25431.13
25626.973
21290.271
19366.662
21443.084
16678.255
34524.639
18017.302
22715.655
21499.816
21293.548
17900.627
22789.891
16682.832
33567.79
18497.936
22418.07
20409.308
21877.61
17645.691
23725.658
16894.92
32251.601
18702.417
23567.708
21906.102
22546.312
18261.109
23779.442
17072.515
30353.802
18447.227
25095.312
24918.466
23015.851
19275.329
23269.036
17109.407
28079.503
17851.549
26589.833
28010.273
23161.556
20261.058
22456.252
16796.059
25740.3
17074.575
27147.376
28939.288
22827.61
20647.025
21452.513
16322.916
23657.583
16370.443
27069.287
28947.879
21907.34
20316.994
20385.874
15859.183
22180.949
16018.547
26015.353
28112.078
20817.364
19808.777
19884.785
15775.758
21846.219
16595.895
24505.113
25863.984
20034.9
19028.59
20203.374
16146.099
22529.672
17929.588
23054.505
23844.663
19688.024
18463.138
20893.72
16814.582
23643.054
19167.413
22064.331
22426.824
19797.42
18461.786
21698.926
18087.709
24627.832
20558.59
21901.909
22072.409
20563.194
19372.729
23043.936
20605.217
25898.773
23402.78
22691.364
22757.066
22182.384
21141.956
25726.59
24931.961
28930.245
29633.986
24674.591
24500.483
25165.513
23867.924
30685.892
31366.199
35707.172
40149.933
28842.484
27748.86
30406.315
28181.737
38511.035
39473.192
46140.729
50238.488
37456.324
34162.171
39400.84
35742.717
49103.244
48209.309
56582.221
57621.815
53567.14
46969.413
54314.186
48206.306
63166.87
60009.72
68145.815
67246.862
79747.406
70330.268
78755.826
70144.335
85638.216
80810.416
88067.203
86400.986
129019.88
116014.26
126852.49
116416.58
132491.71
126766.3
133722.36
130937.73
269624.81
244766.4
264433.36
247054.51
267373.26
259022.29
266055.77
260368.22
898734.51
833553
875956.93
837069.7
863550.3
849012.02
846843.6
843724.5
5903710.9
5799931.2
5766573.4
5692145.4
5613019.9
5568752.6
5463075
5444377.8
5061049.2
5126663.1
5027479.2
5073390.1
4964787.2
4974174.3
857383.68
855658.14
825721.18
849077.95
932001.49
874039.05
258186.5
260017.24
293407.47
316109.01
268424.73
247738.82
116077.12
118095.76
151663.11
165261.13
108513.68
104455.42
70437.175
71744.811
93196.391
101386.21
61706.833
61265.795
50677.16
51362.494
64036.997
68148.802
42796.201
43249.834
39948.485
40173.094
47023.189
49032.074
33298.699
33956.916
33074.717
32991.681
36414.854
37465.442
27845.671
28510.003
28070.117
27822.393
29170.908
29816.39
24426.776
25057.332
24100.066
23797.999
23858.109
24306.403
22152.231
22820.727
20731.722
20450.885
19812.436
20169.281
20529.619
21323.297
17815.025
17619.964
16708.713
17020.644
19320.73
20156.652
15475.892
15404.751
14476.89
14789.06
18258.182
18973.512
14012.042
14087.264
13120.258
13415.047
17089.245
17609.448
13703.891
13914.296
12751.725
13036.118
15899.459
16259.998
14347.864
14596.352
13096.374
13387.402
14874.069
15239.354
15406.644
15574.297
13618.377
13721.794
14251.78
14623.97
16569.866
16661.363
14148.337
14255.756
14057.256
14529.298
17928.318
18020.431
14738.605
14907.459
14141.787
14829.86
19388.793
19551.425
15303.256
15522.701
14339.789
15353.17
20761.836
21080.946
15616.483
15853.027
14562.891
15780.533
21660.987
22314.877
15306.745
15463.295
15080.389
16326.038
21390.622
22673.98
14465.781
14714.776
15762.614
17007.703
19828.523
21987.563
14585.565
15444.542
16810.053
18156.721
20166.354
23015.781
16005.917
17592.395
18375.91
20102.721
22985.202
26704.09
18961.807
21569.127
20715.849
23032.211
27923.44
32374.644
24395.417
28303.158
24349.465
27317.169
34302.153
39050.337
32895.62
37864.235
30054.529
33684.125
41028.515
45792.331
42343.334
47970.125
38645.044
42871.394
48967.695
53748.945
50152.622
56401.164
50443.1
55176.412
61703.02
67313.274
61935.203
67441.207
65371.146
70755.451
86614.535
93905.204
82978.384
88464.658
86535.34
93110.922
145611.19
154057.64
129382.17
136020.99
127800.88
136503.43
324324.74
332172.2
266422.99
274810.26
247451.1
260464.96
1003400.7
1047441.7
870210.29
921963.42
790245.68
815759.46
5241262.6
5238958
5180779
5195422.4
5095728
5124588.3
5053577.7
5083468.2
5105895.4
5127258.2
5143545.2
5156412
5052308.8
5079818.9
5095511.3
5110133.2
5119295.2
5125952.4
806149.42
885437.11
879286.6
891148.22
904481.41
915148.57
769232.01
835648.7
835509.25
848031.19
863683.48
882136.27
242938.92
274852.28
284039.21
298074.23
320335.19
338798.07
237272.79
256587.12
258736.63
265017.72
293031.88
305352.65
118981
128304.92
132005.32
137812.3
149532.61
161216.01
118195.76
124535.62
124802.9
128674.3
143812.94
152022.11
74409.806
77780.269
79418.18
82183.54
87986.248
94246.718
74476.494
77434.264
77968.931
80647.5
89309.825
95078.511
52699.006
54348.588
55525.316
57290.772
60700.908
64472.178
53033.571
54963.059
55914.545
58022.232
63574.904
67908.364
40205.872
41346.291
42436.863
43720.326
46068.805
48725.158
40729.598
42326.385
43468.946
45202.432
49186.304
52756.806
32272.705
33362.389
34284.823
35233.631
37030.022
39154.304
33001.642
34546.725
35633.929
37040.404
40151.277
43359.268
26940.924
28053.966
28760.199
29415.592
30841.555
32675.686
27875.671
29506.911
30345.68
31421.646
33962.918
36992.595
23238.396
24334.597
24784.938
25188.936
26295.298
27931.244
24355.118
26089.992
26592.134
27352.642
29441.322
32347.875
20629.315
21636.153
21791.472
21958.674
22777.152
24222.329
21891.713
23657.611
23810.69
24307.762
26005.335
28761.318
18787.391
19605.349
19462.418
19408.711
19961.751
21174.456
20147.67
21783.092
21644.853
21966.953
23377.764
25872.15
17544.807
18080.943
17687.275
17434.679
17728.405
18656.271
18956.141
20244.149
19914.622
20147.807
21357.556
23572.565
16751.838
17016.889
16443.218
15988.875
15953.202
16506.038
18205.186
19065.708
18599.831
18697.439
19695.092
21619.609
16579.261
16696.754
16047.614
15432.886
15010.956
15003.014
18118.106
18667.66
18022.597
17732.861
18220.358
19637.356
17011.32
17218.706
16700.798
16119.319
15614.626
15225.551
18695.169
19238.743
18480.479
17740.339
17441.714
17948.917
17877.596
18260.914
17958.239
17464.275
16948.881
16513.905
19620.781
20372.144
19703.401
18794.515
17983.279
17428.793
19100.583
19596.927
19417.381
18932.377
18440.092
18105.788
20762.557
21820.235
21452.599
20596.183
19655.481
18527.188
20676.207
21067.91
20891.612
20363.411
19934.752
19850.045
22089.116
23438.456
23467.889
22734.017
21891.718
20711.523
22549.347
22658.919
22463.256
21898.533
21652.097
21871.091
23636.841
25208.171
25658.79
25070.735
24454.022
23506.368
24562.832
24404.925
24137.534
23665.57
23794.38
24420.134
25207.121
26924.275
27890.516
27573.855
27325.227
26827.322
25823.1
26041.714
25899.46
25774.366
26469.697
27581.743
26646.684
28432.843
30082.725
30317.275
30633.653
30728.421
27265.664
27194.889
27623.937
28385.776
29884.993
31529.557
27964.746
29583.837
31899.986
32979.626
34031.423
34945.387
28038.227
28209.24
29711.393
31277.757
33444.709
35496.376
29785.256
31346.55
33485.567
35065.035
36802.582
38589.84
29047.744
30281.459
32335.233
34555.352
37102.644
39399.823
31654.886
33385.299
34822.658
36599.499
38957.119
41539.404
31606.058
33654.297
35781.698
38516.566
41261.465
43411.923
33194.49
35357.488
36163.565
37991.24
40850.636
44079.584
35240.761
38075.576
40210.717
43252.356
46089.885
47893.114
34875.601
37486.195
37643.665
39483.376
42868.332
46843.124
39782.754
43442.075
45771.238
49112.285
51873.711
53231.509
37489.005
40192.156
39681.475
41486.821
45539.188
50505.88
45963.48
50381.546
53122.256
56773.779
59284.366
60035.687
41116.795
43708.726
42747.244
44598.925
49562.173
55938.156
54891.501
60537.409
63680.787
67534.415
69759.002
69651.528
46281.32
49067.205
47860.016
49793.357
55931.517
64284.394
68801.621
77352.771
80360.261
84056.445
86409.62
85383.694
54602.113
58263.937
56736.351
59049.099
66601.494
77695.724
93382.896
108533.99
109089.77
112187.97
116264.32
115166.88
70148.619
75894.054
73724.304
77394.496
86405.266
101161.23
148143.98
172900.5
164346.3
167546.89
176767.53
179410.24
105760.24
114938.29
113099.35
120856.64
130199.21
150059.94
311195.91
316944.28
293159.65
299100.06
316024.52
334958.46
217211.26
231146.14
238463.05
254741.61
260288.86
289287.82
838242.83
817212.34
802556.5
815390.61
835858.67
858646.64
757464.44
772843.12
794230.34
815662.11
826561.04
844623.45
5056791.4
5085328.8
5127341.6