/*--------------------------------*- C++ -*----------------------------------*\
| =========                 |                                                 |
| \\      /  F ield         | OpenFOAM: The Open Source CFD Toolbox           |
|  \\    /   O peration     | Version:  2206                                  |
|   \\  /    A nd           | Website:  www.openfoam.com                      |
|    \\/     M anipulation  |                                                 |
\*---------------------------------------------------------------------------*/
FoamFile
{
    version     2.0;
    format      ascii;
    arch        "LSB;label=32;scalar=64";
    class       volScalarField;
    location    "400";
    object      p;
}
// * * * * * * * * * * * * * * * * * * * * * * * * * * * * * * * * * * * * * //

dimensions      [1 -1 -2 0 0 0 0];

internalField   nonuniform List<scalar> 
50904
(
99825.948
99812.716
99930.786
99902.012
99828.069
99814.881
99930.536
99902.084
99830.118
99817.007
99930.46
99902.377
99832.833
99819.894
99930.552
99903.032
99836.305
99823.644
99930.764
99904.1
99840.448
99828.312
99930.969
99905.503
99845.24
99833.922
99931.205
99907.257
99850.682
99840.398
99931.467
99909.276
99856.954
99847.718
99931.586
99911.522
99863.79
99855.419
99931.658
99914.007
99871.03
99863.253
99931.91
99916.453
99877.99
99870.738
99932.19
99918.794
99883.541
99877.031
99931.587
99921.022
99888.171
99881.782
99928.717
99921.909
99893.868
99887.431
99923.439
99920.308
99900.596
99895.162
99915.31
99914.15
99905.868
99900.768
99906.989
99907.071
99905.166
99900.715
99899.351
99900.248
99901.464
99896.966
99893.742
99895.235
99891.783
99884.463
99887.017
99889.652
99882.692
99868.579
99882.061
99885.116
99887.334
99868.352
99878.985
99879.312
99901.118
99877.147
99890.408
99883.335
99915.901
99889.415
99910.882
99897.185
99930.36
99902.801
99934.436
99917.721
99940.337
99912.598
99955.809
99938.579
99946.704
99918.515
99971.594
99954.754
99949.837
99921.288
99982.516
99966.054
99950.08
99921.702
99989.28
99973.283
99948.523
99920.44
99993.152
99977.568
99946.294
99918.467
99995.232
99979.906
99943.998
99916.406
99996.324
99981.113
99941.965
99914.652
99996.988
99981.748
99940.43
99913.358
99997.475
99982.149
99939.345
99912.43
99997.858
99982.455
99938.311
99911.497
99998.302
99982.826
99830.945
99799.266
99812.64
99785.134
99798.942
99774.245
99798.831
99774.697
99798.308
99774.838
99798.432
99775.801
99798.5
99776.76
99832.71
99801.167
99813.474
99785.89
99799.128
99774.536
99798.421
99774.526
99797.788
99774.422
99797.91
99775.219
99798.049
99776.107
99834.324
99802.947
99814.157
99786.737
99798.4
99774.463
99796.626
99773.868
99795.686
99773.664
99795.81
99774.525
99796.129
99775.528
99836.619
99805.595
99814.928
99787.687
99796.978
99773.543
99793.791
99772.089
99792.246
99771.933
99792.116
99773.246
99792.45
99774.829
99839.662
99809.155
99816.228
99788.971
99795.457
99772.03
99790.274
99769.039
99787.799
99768.603
99787.432
99770.086
99787.797
99772.041
99843.538
99813.658
99818.25
99790.827
99794.481
99770.498
99786.49
99764.835
99783.063
99763.233
99782.592
99764.462
99782.581
99766.32
99848.278
99819.099
99821.645
99793.317
99795.457
99769.782
99784.242
99760.608
99778.744
99756.463
99777.564
99756.292
99778.415
99757.854
99853.875
99825.355
99825.967
99796.819
99799.432
99770.6
99787.467
99759.114
99781.013
99752.879
99778.71
99750.919
99779.171
99751.524
99860.211
99832.635
99831.85
99801.405
99806.309
99773.672
99794.388
99760.697
99788.284
99753.445
99786.569
99750.398
99787.59
99749.727
99866.998
99840.92
99839.765
99807.861
99817.057
99780.306
99806.599
99766.49
99801.459
99758.091
99800.311
99753.16
99801.825
99750.097
99873.985
99850.289
99849.498
99817.133
99830.633
99791.206
99822.587
99777.431
99819.373
99768.308
99819.748
99761.613
99822.578
99755.883
99881.116
99860.734
99860.704
99830.472
99845.745
99807.863
99840.279
99795.086
99839.052
99785.615
99840.418
99777.507
99843.642
99769.52
99887.54
99870.708
99871.277
99845.518
99859.944
99826.533
99856.642
99815.432
99856.899
99806.946
99859.431
99799.339
99863.443
99791.397
99891.474
99879.388
99879.459
99860.244
99871.272
99845.075
99868.627
99836.329
99868.591
99829.632
99870.675
99823.454
99874.399
99816.634
99891.883
99886.151
99881.589
99872.98
99875.805
99860.778
99874.827
99853.263
99876.425
99847.696
99880.24
99842.624
99885.358
99837.429
99886.614
99885.761
99872.516
99873.89
99863.963
99861.436
99861.159
99852.132
99861.973
99844.476
99865.842
99837.966
99873.116
99832.856
99881.028
99883.257
99865.079
99872.35
99853.079
99859.682
99846.876
99850.607
99844.377
99844.111
99845.042
99837.796
99848.222
99831.443
99874.414
99879.594
99859.907
99872.883
99845.886
99863.063
99837.091
99854.561
99831.729
99847.214
99828.36
99840.27
99825.662
99831.625
99866.143
99873.362
99854.567
99872.008
99840.002
99864.45
99829.851
99856.018
99822.409
99847.422
99815.591
99837.657
99807.757
99824.873
99856.182
99863.798
99846.693
99866.941
99832.395
99860.051
99821.56
99851.573
99812.102
99841.167
99801.948
99827.873
99788.685
99812.315
99845.247
99851.495
99834.767
99854.868
99820.507
99846.017
99808.783
99836.941
99797.151
99825.907
99783.19
99810.552
99763.356
99791.151
99833.151
99837.269
99815.647
99835.779
99799.817
99825.711
99786.841
99814.236
99773.221
99800.281
99755.017
99782.239
99727.788
99756.875
99825.75
99825.86
99792.223
99811.058
99767.318
99794.92
99748.724
99780.331
99731.172
99764.271
99708.864
99742.777
99676.409
99712.163
99826.923
99820.885
99777.156
99787.794
99742.068
99760.425
99716.788
99739.226
99694.386
99719.107
99668.43
99694.227
99632.823
99659.397
99833.601
99821.527
99766.117
99768.542
99717.05
99725.98
99682.367
99693.901
99655.483
99667.016
99632.035
99640.91
99608.983
99612.775
99843.879
99825.941
99763.356
99758.638
99705.245
99705.249
99666.429
99668.393
99643.136
99643.698
99629.611
99626.194
99619.448
99610.519
99854.122
99832.222
99764.639
99753.417
99699.958
99690.689
99659.238
99649.665
99638.298
99625.872
99629.674
99613.252
99627.744
99606.093
99863.128
99839.188
99768.678
99752.278
99701.997
99685.283
99662.291
99642.904
99642.707
99619
99638.03
99609.68
99642.67
99609.011
99869.998
99844.848
99772.89
99753.114
99706.87
99684.727
99669.726
99643.258
99651.625
99619.804
99649.655
99612.293
99658.02
99615.016
99874.938
99849.11
99776.431
99754.562
99711.702
99685.84
99677.166
99646.281
99660.934
99624.293
99660.728
99617.828
99670.696
99621.736
99878.336
99852.193
99779.02
99755.798
99715.286
99686.857
99683.448
99649.115
99667.81
99626.992
99666.755
99620.04
99676.928
99624.316
99880.677
99854.313
99780.792
99756.621
99717.844
99687.706
99688.644
99651.697
99674.247
99629.958
99671.815
99621.255
99680.663
99623.762
99882.443
99855.926
99781.998
99757.2
99719.701
99688.32
99692.747
99653.949
99680.398
99633.259
99677.237
99622.904
99683.588
99623.005
99883.783
99857.126
99782.756
99757.49
99720.714
99688.646
99695.68
99656.154
99686.85
99638.44
99685.575
99628.922
99690.015
99626.482
99884.89
99858.123
99783.397
99757.842
99721.355
99688.911
99698.286
99658.019
99693.5
99643.732
99694.179
99636.12
99696.219
99631.214
99886.201
99859.352
99784.424
99758.513
99722.411
99689.296
99699.785
99658.533
99696.167
99644.903
99698.023
99637.899
99699.908
99632.933
99798.772
99777.769
99799.185
99778.835
99799.525
99779.705
99799.977
99780.58
99800.801
99781.844
99802.068
99783.355
99798.388
99777.069
99798.875
99778.272
99799.278
99779.462
99799.821
99780.684
99800.764
99782.125
99801.917
99783.219
99796.691
99776.639
99797.546
99778.403
99798.383
99780.228
99799.267
99781.771
99800.376
99782.938
99801.358
99783.083
99793.055
99776.407
99794.051
99778.916
99795.126
99781.758
99796.435
99783.931
99798.271
99784.607
99799.743
99783.077
99788.387
99774.093
99789.209
99776.79
99790.088
99779.875
99791.473
99782.927
99794.107
99784.78
99796.796
99783.072
99782.912
99768.145
99783.54
99770.405
99784.205
99773.154
99785.406
99776.536
99788.148
99780.162
99791.788
99780.389
99779.152
99759.115
99779.526
99760.496
99780.145
99762.549
99781.22
99765.665
99783.393
99770.495
99786.259
99774.017
99780.857
99752.965
99783.852
99754.933
99785.541
99756.38
99785.739
99758.008
99786.414
99761.591
99785.853
99766.329
99789.428
99749.652
99793.725
99751.728
99799.394
99755.023
99802.021
99756.05
99799.8
99755.737
99792.933
99757.097
99804.135
99747.678
99808.749
99746.588
99814.723
99746.427
99817.383
99744.639
99813.495
99740.157
99802.509
99734.693
99826.15
99750.592
99831.948
99745.428
99838.775
99740.051
99842.666
99734.104
99840.268
99725.068
99825.023
99708.491
99847.487
99761.634
99853.083
99753.151
99859.523
99744.126
99863.607
99735.223
99862.11
99725.442
99848.981
99706.208
99867.897
99783.53
99873.755
99774.793
99880.224
99765.055
99884.591
99755.818
99884.011
99746.786
99874.017
99730.311
99878.501
99809.498
99884.096
99801.798
99890.548
99793.573
99895.354
99785.965
99895.473
99778.817
99887.857
99767.292
99889.884
99832.782
99894.275
99827.765
99899.038
99821.499
99903.003
99815.332
99904.518
99810.425
99900.981
99804.872
99881.827
99829.866
99889.6
99826.971
99895.017
99822.695
99898.318
99817.114
99899.106
99811.931
99896.683
99809.774
99854.482
99827.193
99864.259
99826.862
99871.221
99827.349
99874.401
99825.276
99875.204
99818.278
99874.716
99806.123
99824.184
99823.215
99826.635
99817.201
99830.322
99813.79
99831.403
99812.731
99829.993
99808.561
99829.981
99797.842
99799.4
99812.872
99793.182
99801.259
99790.458
99790.423
99787.928
99785.189
99784.048
99780.214
99782.997
99769.986
99773.856
99797.646
99760.295
99782.389
99750.068
99767.99
99742.677
99758.675
99736.658
99750.501
99735.18
99739.678
99740.757
99771.277
99718.359
99751.59
99699.099
99734.16
99685.663
99721.315
99677.275
99710.345
99674.575
99701.848
99696.215
99730.608
99663.028
99706.776
99632.002
99685.354
99608.196
99667.873
99592.324
99654.72
99584.351
99648.875
99641.765
99682.26
99606.199
99653.943
99567.861
99625.277
99533.61
99599.862
99509.931
99581.611
99494.876
99573.183
99594.798
99623.738
99555.824
99586.362
99517.215
99548.827
99482.885
99517.398
99455.085
99494.321
99434.36
99477.355
99588.32
99587.652
99567.245
99561.146
99543.991
99532.211
99518.205
99502.395
99489.94
99471.913
99463.36
99440.069
99609.434
99595.548
99599.246
99579.288
99588.256
99561.429
99572.857
99539.072
99550.413
99508.785
99527.709
99473.062
99626.36
99599.619
99626.107
99594.198
99626.4
99589.28
99621.455
99578.732
99607.006
99556.221
99590.318
99524.655
99647.749
99609.171
99654.171
99611.793
99661.342
99616.095
99662.761
99614.224
99653.209
99598.192
99637.719
99568.055
99666.328
99618.589
99675.875
99624.764
99685.997
99632.711
99690.017
99634.317
99682.476
99621.542
99665.382
99591.595
99680.264
99626.517
99691.121
99633.791
99702.473
99642.729
99707.294
99645.333
99699.967
99633.56
99680.594
99602.537
99687.08
99629.346
99698.43
99636.747
99710.176
99645.931
99715.169
99649.049
99708.001
99637.457
99687.698
99604.963
99690.544
99628.301
99701.89
99636.844
99713.635
99647.226
99718.564
99649.505
99710.618
99635.543
99689.856
99602.114
99691.196
99625.594
99700.565
99631.532
99710.469
99638.593
99714.047
99639.081
99707.251
99626.831
99689.434
99596.825
99695.179
99626.228
99701.816
99627.923
99707.929
99630.744
99709.835
99628.737
99704.235
99617.897
99688.108
99591.638
99698.037
99627.352
99700.417
99624.03
99702.687
99620.833
99702.805
99616.732
99699.025
99608.494
99686.64
99587.716
99700.795
99628.479
99701.63
99624.37
99701.99
99620.138
99701.691
99615.476
99698.663
99607.358
99687.747
99587.675
99804.21
99789.35
99811.95
99808.08
99817.603
99821.692
99821.91
99832.044
99825.747
99841.368
99829.773
99851.383
99803.406
99787.474
99809.934
99802.631
99815.065
99814.378
99819.398
99824.85
99823.409
99834.739
99827.702
99845.252
99802.064
99785.361
99807.147
99797.513
99812.294
99808.438
99817.798
99818.501
99822.762
99827.793
99827.183
99838.564
99799.73
99782.724
99803.789
99791.454
99809.111
99801.047
99815.75
99810.217
99822.152
99818.202
99827.698
99828.716
99796.35
99780.475
99800.81
99787.057
99806.873
99796.084
99814.263
99805.581
99821.246
99813.77
99827.524
99823.634
99791.344
99776.763
99795.543
99780.789
99801.525
99789.474
99808.503
99800.513
99815.244
99810.486
99821.626
99820.529
99785.134
99771.408
99787.674
99776.139
99791.671
99785.604
99796.285
99798.605
99800.62
99811.341
99805.173
99822.546
99781.253
99765.756
99780.606
99772.431
99781.35
99782.111
99781.702
99795.447
99782.098
99809.97
99783.465
99822.803
99782.39
99755.646
99775.746
99760.106
99771.863
99766.058
99766.517
99774.096
99761.738
99783.412
99760.237
99792.959
99783.948
99725.996
99771.242
99717.661
99765.807
99712.934
99760.56
99708.246
99754.976
99704.373
99751.503
99703.903
99801.089
99688.857
99786.591
99667.427
99784.032
99653.963
99783.875
99640.502
99782.511
99628.485
99780.828
99621.599
99829.65
99680.111
99820.368
99657.947
99821.803
99643.793
99827.139
99629.292
99832.603
99615.918
99835.46
99605.819
99860.533
99707.529
99855.767
99689.669
99858.461
99676.913
99864.326
99662.123
99870.916
99647.542
99875.56
99636.484
99878.498
99752.666
99874.484
99739.491
99875.339
99728.166
99877.969
99713.342
99880.537
99697.491
99881.85
99684.961
99895.433
99799.554
99893.35
99794.463
99893.905
99788.471
99895.726
99779.459
99897.243
99769.281
99897.516
99760.774
99893.868
99809.142
99893.766
99808.569
99896.338
99805.493
99901.016
99799.01
99905.237
99791.513
99907.496
99785.745
99874.576
99802.96
99876.489
99803.092
99878.643
99800.11
99882.086
99793.047
99886.023
99784.619
99888.962
99779.228
99832.772
99792.116
99836.244
99796.224
99836.448
99795.478
99834.829
99787.551
99832.86
99776.973
99831.808
99769.542
99786.425
99764.576
99790.089
99773.103
99788.111
99775.902
99782.053
99768.379
99774.56
99756.845
99769.989
99749.219
99737.974
99739.521
99740.636
99755.645
99736.362
99756.282
99726.106
99746.47
99714.228
99734.363
99706.927
99726.188
99674.535
99708.395
99674.662
99719.372
99667.174
99716.705
99651.354
99705.18
99633.806
99691.835
99623.206
99682.311
99581.407
99653.717
99575.554
99657.084
99564.179
99649.907
99543.899
99633.283
99521.872
99615.351
99507.039
99604.204
99481.573
99570.301
99464.852
99566.401
99449.166
99554.71
99430.484
99534.72
99416.911
99515.86
99409.739
99504.741
99411.689
99458.446
99383.546
99437.425
99371.875
99422.077
99369.615
99409.191
99365.446
99402.979
99359.136
99399.789
99436.373
99402.862
99422.161
99375.439
99418.633
99368.354
99413.758
99362.215
99408.452
99355.18
99405.372
99350.434
99516.428
99442.009
99511.744
99420.378
99506.69
99409.17
99501.027
99398.835
99495.925
99390.442
99492.819
99385.495
99593.586
99508.933
99595.902
99494.081
99586.444
99476.741
99574.543
99457.984
99564.333
99441.741
99556.978
99429.056
99645.206
99556.452
99651.97
99543.108
99638.153
99517.993
99620.427
99491.561
99605.491
99468.86
99594.847
99451.22
99664.814
99570.312
99670.545
99554.139
99656.295
99525.724
99632.472
99492.852
99613.874
99467.751
99603.347
99450.475
99669.644
99568.076
99663.62
99536.93
99652.76
99513.243
99633.319
99483.086
99614.063
99457.404
99601.878
99442.329
99670.999
99563.127
99656.479
99520.544
99645.915
99498.491
99632.997
99476.962
99620.736
99458.645
99612.24
99446.736
99671.979
99559.685
99656.949
99517.478
99647.443
99498.052
99638.043
99481.901
99628.328
99466.179
99620.587
99455.076
99673.394
99558.206
99661.517
99522.702
99654.182
99506.582
99648.539
99493.677
99643.614
99481.005
99639.69
99469.462
99674.209
99558.166
99668.812
99532.933
99667.266
99522.136
99666.102
99513.695
99664.829
99505.645
99664.163
99498.36
99675.62
99559.999
99674.157
99541.966
99674.365
99532.405
99674.912
99525.011
99675.629
99518.27
99676.668
99512.756
99677.848
99561.381
99678.133
99545.786
99679.817
99537.895
99681.699
99531.723
99684.285
99526.941
99687.222
99523.477
99834.099
99862.552
99838.463
99873.522
99843.088
99884.41
99848.814
99896.428
99856.764
99909.414
99868.949
99919.081
99897.59
99947.476
99832.172
99856.547
99836.656
99868.27
99841.491
99880.629
99847.569
99894.352
99855.876
99908.224
99868.199
99918.377
99896.828
99946.936
99831.664
99850.983
99836.235
99864.307
99841.115
99878.925
99847.303
99895.921
99855.614
99910.119
99867.517
99918.896
99895.806
99947.045
99832.6
99842.328
99837.351
99857.244
99842.207
99875.31
99848.284
99896.543
99856.072
99912.91
99866.688
99920.514
99894.039
99947.704
99833.362
99837.464
99838.364
99853.887
99843.058
99872.731
99849.303
99894.371
99856.94
99913.312
99865.55
99921.967
99891.129
99948.03
99827.904
99832.901
99833.353
99848.953
99838.386
99868.188
99845.484
99888.912
99854.633
99909.149
99862.704
99920.867
99886.298
99945.776
99810.821
99834.197
99816.562
99847.825
99822.693
99863.336
99832.297
99880.786
99845.644
99900.626
99855.794
99915.781
99879.114
99938.96
99786.468
99833.902
99791.218
99845.635
99798.944
99857.666
99810.971
99870.435
99828.36
99886.216
99844.031
99902.477
99871.992
99926.788
99760.707
99803.459
99763.004
99814.681
99770.374
99827.351
99784.59
99840.294
99807.131
99853.956
99832.545
99872.656
99873.228
99914.111
99750.227
99707.974
99750.283
99715.191
99754.829
99730.046
99768.091
99755.449
99793.405
99786.435
99832.642
99826.121
99892.629
99900.463
99780.758
99620.465
99781.502
99622.709
99784.009
99633.226
99794.3
99663.016
99821.303
99712.812
99863.092
99771.189
99920.887
99879.41
99838.008
99600.349
99841.041
99597.892
99842.64
99599.95
99848.429
99617.764
99873.246
99668.1
99904.709
99737.396
99943.342
99863.431
99879.054
99629.299
99882.397
99624.247
99885.878
99623.464
99890.79
99633.413
99895.636
99662.909
99903.049
99715.426
99944.251
99852.066
99883.206
99675.875
99884.904
99668.957
99887.063
99666.57
99888.845
99669.693
99889.041
99684.544
99899.168
99730.121
99943.903
99856.586
99897.689
99754.953
99898.307
99750.758
99900.195
99749.096
99903.451
99751.836
99906.18
99763.752
99918.102
99802.571
99946.522
99872.19
99908.722
99781.394
99909.923
99777.418
99910.057
99773.942
99910.026
99772.348
99912.681
99780.825
99920.412
99815.16
99929.11
99859.962
99889.703
99776.295
99889.103
99773.398
99886.878
99769.472
99882.377
99764.139
99879.912
99758.292
99884.471
99774.065
99897.766
99826.093
99830.463
99765.98
99828.335
99764.711
99826.656
99764.609
99823.033
99761.963
99820.066
99752.793
99827.844
99747.082
99854.405
99787.725
99768.078
99746.227
99766.651
99745.86
99765.29
99748.301
99765.086
99751.315
99765.222
99748.086
99772.448
99733.494
99809.161
99762.665
99703.475
99721.1
99700.721
99718.791
99698.707
99720.804
99700.022
99725.42
99703.108
99729.248
99709.894
99719.541
99759.465
99740.221
99617.982
99675.573
99613.523
99671.664
99609.899
99671.434
99610.05
99674.661
99622.152
99682.241
99654.019
99693.252
99716.138
99722.418
99501.834
99599.465
99494.023
99594.403
99487.115
99591.309
99491.68
99592.336
99520.516
99602.096
99580.015
99633.345
99668.949
99689.527
99405.59
99499.865
99399.791
99493.335
99397.93
99490.069
99409.049
99494.504
99448.761
99515.783
99536.911
99574.165
99648.944
99662.951
99355.235
99396.491
99353.139
99394.256
99358.715
99398.256
99381.127
99415.313
99433.163
99455.424
99549.166
99533.549
99670.765
99649.969
99404.728
99347.9
99406.859
99348.531
99417.547
99357.971
99441.581
99380.05
99496.499
99429.069
99619.923
99528.951
99726.548
99669.553
99490.634
99379.87
99490.532
99375.215
99500.049
99382.245
99523.752
99402.634
99584.689
99453.743
99706.992
99563.497
99794.008
99710.977
99550.294
99414.662
99545.815
99400.145
99554.625
99402
99582.988
99425.347
99656.933
99490.432
99783.858
99613.432
99856.097
99758.363
99585.207
99432.42
99578.424
99413.777
99590.812
99417.938
99629.828
99452.358
99716.887
99533.452
99848.302
99666.627
99906.216
99802.234
99594.058
99433.566
99590
99419.888
99611.204
99434.21
99664.679
99482.421
99764.051
99576.226
99898.225
99714.119
99943.956
99837.391
99592.742
99429.468
99594.781
99424.578
99625.406
99448.806
99691.619
99508.041
99799.313
99610.8
99935.1
99752.493
99971.998
99865.155
99601.913
99431.545
99604.754
99430.349
99639.507
99460.872
99712.683
99528.827
99824.462
99637.561
99960.645
99782.157
99990.771
99886.683
99614.846
99445.415
99620.099
99445.556
99654.429
99474.694
99726.861
99542.802
99839.699
99654.28
99976.614
99801.558
100003.05
99902.015
99633.415
99458.681
99636.566
99459.764
99670.183
99489.012
99741.371
99555.445
99853.592
99667.84
99991.29
99817.943
100015.1
99915.653
99665.897
99491.596
99670.605
99490.597
99695.662
99513.276
99761.693
99574.568
99871.566
99685.496
100007.12
99835.412
100026.33
99927.972
99678.739
99508.607
99686.198
99509.347
99712.218
99529.743
99775.178
99587.503
99883.389
99697.068
100016.55
99846.122
100032.06
99934.541
99691.511
99521.979
99698.202
99521.663
99721.389
99538.946
99782.927
99595.127
99890.766
99704.956
100021.5
99852.623
100034.32
99937.75
99936.405
99978.004
99993.11
100000.35
100068.31
100015.66
100156.85
100036.98
99935.723
99977.907
99992.913
100000.6
100068.21
100016.09
100156.71
100037.27
99934.918
99978.422
99992.81
100001.22
100068.09
100016.77
100156.43
100037.74
99933.691
99979.359
99992.889
100002.41
100068.3
100017.7
100156.39
100038.53
99931.752
99979.232
99993.13
100003.2
100069.38
100018.69
100157.33
100039.46
99928.776
99976.082
99994.185
100003.6
100071.65
100019.56
100159.8
100040.49
99926.246
99970.933
99997.993
100005.05
100075.19
100020.41
100163.84
100041.19
99929.384
99966.607
100005.84
100006.76
100078.35
100020.5
100168.01
100040.39
99944.852
99964.741
100016.96
100008.44
100078.46
100019.14
100168.7
100038
99968.115
99964.263
100023.1
100004.6
100074.92
100015.43
100162.53
100033.1
99980.417
99953.268
100021.88
99996.174
100069.25
100008.03
100148.46
100024.77
99979.285
99937.285
100017.58
99985.03
100061.3
100000.84
100123.99
100014.94
99977.892
99928.552
100014.88
99974.863
100051.09
99994.722
100089.64
100001.91
99980.452
99927.446
100007.33
99963.137
100034.69
99984.488
100046.19
99984.149
99973.58
99921.67
99990.879
99947.894
100006.4
99964.301
99993.092
99956.871
99950.639
99899.037
99963.097
99923.803
99966.971
99932.604
99935.058
99921.942
99919.981
99865.842
99930.303
99894.246
99923.519
99894.807
99882.792
99885.632
99884.563
99831.197
99895.583
99862.656
99879.321
99855.749
99843.587
99850.739
99842.818
99797.675
99859.086
99827.446
99837.206
99817.594
99820.291
99821.645
99799.381
99772.534
99826.418
99799.19
99811.735
99787.048
99817.278
99804.385
99763.675
99756.325
99793.355
99782.079
99793.051
99762.997
99834.142
99801.705
99734.99
99742.055
99770.631
99776.766
99792.514
99755.036
99876.143
99817.823
99723.854
99733.876
99775.658
99777.325
99817.417
99765.413
99927.467
99844.792
99741.961
99736.986
99802.36
99786.151
99854.056
99785.213
99968.768
99870.504
99781.69
99757.527
99837.971
99802.423
99887.677
99804.409
99995.125
99888.803
99828.443
99787.835
99874.402
99821.852
99916.366
99823.077
100010.71
99904.383
99873.054
99820.724
99907.066
99840.821
99941.445
99838.369
100023.56
99918.197
99909.838
99849.284
99933.453
99856.117
99961.944
99849.464
100035.41
99927.813
99938.416
99871.323
99954.256
99867.488
99977.594
99858.258
100043.85
99933.949
99960.32
99889.297
99970.158
99876.806
99988.439
99865.419
100047.7
99938.132
99974.238
99903.619
99981.636
99886.636
99996.638
99872.49
100050.13
99942.033
99984.236
99915.274
99991.898
99896.989
100005.42
99880.501
100054.6
99945.828
99995.489
99926.559
100002.38
99905.466
100014.38
99887.267
100059.02
99948.604
100004.01
99934.573
100009.92
99910.437
100020.71
99891.557
100061.66
99950.28
100007.73
99937.785
100013.34
99912.207
100023.74
99893.602
100062.59
99951.152
100009.02
99938.505
100015
99912.494
100025.32
99894.834
100062.6
99951.776
100036.73
100065.11
99709.948
99683.834
100240.44
100352.52
100036.44
100064.53
99710.759
99685.065
100241.87
100354.23
100036.25
100064.06
99711.525
99686.248
100242.87
100355.36
100036.17
100063.57
99712.556
99687.801
100243.92
100356.44
100036.23
100063.05
99713.989
99689.893
100244.93
100357.49
100036.22
100062.3
99715.895
99692.565
100246.26
100358.99
100035.99
100061.11
99718.397
99695.932
100247.98
100360.99
100035.37
100059.3
99721.775
99700.256
100250.07
100363.61
100034.16
100056.72
99726.185
99705.545
100252.67
100367.45
100032.12
100053.42
99732.196
99712.435
100255.33
100372.26
100028.56
100048.4
99740.83
99722.227
100256.99
100375.94
100023.69
100041.42
99751.988
99735.33
100257.65
100376.29
100017.84
100033.2
99766.034
99752.836
100256.65
100368.88
100010.44
100023.25
99782.531
99773.471
100250.31
100346.27
100000.73
100011.02
99798.534
99791.483
100235.64
100308.94
99989.849
99997.819
99807.602
99799.657
100213.68
100266.52
99973.113
99978.559
99803.823
99796.785
100189.22
100224.22
99952.082
99954.953
99783.346
99776.951
100164.67
100185.51
99931.502
99934.464
99746.862
99737.456
100138.58
100149.59
99903.082
99907.592
99702.615
99693.522
100114.33
100119.59
99864.093
99870.555
99661.86
99655.343
100098.3
100097.78
99829.536
99839.739
99635.43
99631.54
100091.63
100085.55
99810.73
99822.164
99627.267
99622.927
100098.08
100089.75
99806.842
99816.433
99635.218
99628.505
100110.74
100097.71
99809.53
99816.408
99649.246
99639.818
100125.25
100105.58
99811.457
99816.24
99665.495
99653.647
100139.57
100114.76
99813.256
99816.591
99681.571
99667.883
100153.18
100125.15
99815.09
99817.536
99696.2
99681.45
100165.72
100136.05
99816.82
99818.204
99706.946
99692.881
100176.79
100146.09
99817.74
99817.618
99714.607
99701.447
100186.04
100154.58
99817.915
99816.138
99722.511
99708.501
100192.7
100160.98
99817.849
99814.463
99730.078
99714.73
100199.15
100167.28
99817.57
99812.81
99735.992
99719.531
100207.51
100175.16
99817.008
99811.369
99740.122
99722.85
100214.54
100181.78
99816.185
99810.185
99742.304
99724.617
100218.11
100185.19
99815.22
99808.936
99743.915
99726.028
100219.82
100186.86
100024.05
99900.243
99905.096
99868.219
99858.215
99845.083
100098.77
99950.957
99981.565
99960.298
99971.063
99960.316
100024.33
99901.843
99906.502
99869.821
99859.936
99846.979
100097.75
99950.772
99981.053
99959.523
99970.154
99959.611
100024.34
99903.183
99907.701
99871.259
99861.551
99848.788
100096.34
99950.323
99980.463
99958.813
99969.435
99959.133
100023.84
99904.579
99909.047
99872.962
99863.562
99851.092
100093.79
99949.266
99979.438
99957.757
99968.515
99958.64
100022.87
99905.992
99910.458
99874.897
99865.976
99853.959
100090.27
99947.659
99977.934
99956.261
99967.228
99958.038
100021.54
99907.583
99911.999
99877.123
99868.79
99857.324
100085.92
99945.633
99975.945
99954.251
99965.529
99957.046
100020.03
99909.413
99913.768
99879.762
99872.045
99861.216
100080.78
99943.243
99973.511
99951.789
99963.422
99955.644
100018.66
99911.549
99915.88
99882.937
99875.761
99865.736
100074.91
99940.533
99970.711
99949.049
99960.75
99953.876
100017.57
99914.538
99918.593
99886.844
99880.066
99871.078
100068.54
99937.786
99967.727
99946.177
99957.536
99951.764
100016.8
99918.708
99921.833
99891.392
99884.772
99876.924
100061.92
99935.489
99964.729
99943.361
99953.901
99949.653
100016.23
99923.973
99925.641
99896.661
99889.91
99883.046
100054.98
99933.954
99961.792
99940.685
99949.825
99947.454
100015.48
99930.223
99929.997
99902.581
99895.512
99889.1
100047.49
99933.176
99958.926
99938.196
99945.588
99944.65
100014.34
99937.603
99934.905
99908.759
99901.136
99894.559
100039.49
99933.733
99956.504
99936.05
99941.126
99940.807
100011.1
99944.327
99939.603
99915.037
99906.537
99899.456
100029.49
99934.391
99954.012
99933.826
99936.017
99935.526
100007.85
99950.571
99944.525
99921.56
99911.718
99904.35
100020.8
99935.495
99951.707
99931.151
99930.209
99928.72
100004.88
99956.985
99949.592
99927.605
99917.327
99909.779
100013.04
99937.132
99949.935
99928.321
99924.298
99920.656
100003.27
99963.282
99953.61
99932.038
99921.694
99914.238
100008.27
99939.588
99948.295
99925.306
99918.971
99912.926
100002.99
99968.145
99955.272
99933.5
99921.39
99913.162
100005.89
99943.413
99947.963
99923.327
99914.619
99906.103
100004.7
99971.369
99954.052
99932.031
99918.468
99909.275
100006.29
99948.816
99949.715
99923.591
99912.548
99901.355
100011.22
99976.388
99955.533
99933.148
99916.286
99902.771
100013.05
99957.199
99953.874
99925.373
99910.591
99895.853
100021.69
99985.275
99961.482
99940.897
99919.958
99900.976
100030.42
99975.112
99964.437
99932.966
99913.049
99893.182
100026.71
99998.568
99971.365
99950.635
99930.734
99908.386
100053.67
100003.01
99980.712
99946.804
99922.148
99895.641
100031.31
100009.72
99982.758
99965.725
99947.288
99925.313
100081.3
100032.21
100002.34
99967.764
99942.862
99913.409
100032.97
100016.37
99991.07
99976.211
99960.601
99941.247
100099.17
100053.21
100019.52
99987.045
99965.318
99936.69
100034.26
100021.27
99996.935
99982.914
99969.847
99953.755
100108.4
100067.16
100030.72
100002.95
99985.055
99960.311
100034.79
100024.39
99999.936
99986.377
99975.436
99962.501
100113.54
100073.58
100036.46
100013.59
100000.19
99980.132
100034.93
100025.49
100000.99
99987.6
99978.2
99967.821
100115.97
100076.62
100038.79
100019.99
100010.59
99994.33
100034.2
100024.89
100000.66
99987.549
99978.92
99970.129
100116.1
100077.69
100039.32
100023.38
100017.11
100003.73
100032.65
100023.21
99999.442
99986.568
99978.142
99969.957
100114.91
100077.62
100039
100024.84
100020.72
100009.32
100030.6
100021.05
99997.82
99985.07
99976.465
99968.307
100113.32
100077.01
100038.48
100025.27
100022.41
100012.32
100028.29
100018.85
99996.14
99983.377
99974.424
99966.05
100111.71
100076.27
100038.03
100025.27
100023.01
100013.75
100026.02
100016.87
99994.592
99981.708
99972.35
99963.692
100110.3
100075.65
100037.71
100025.13
100023.11
100014.38
100024.1
100015.21
99993.282
99980.253
99970.483
99961.578
100109.26
100075.26
100037.53
100025.03
100023.09
100014.71
100022.65
100013.95
99992.316
99979.177
99969.081
99959.986
100108.64
100075.11
100037.47
100025
100023.1
100014.97
100021.58
100013.05
99991.637
99978.413
99968.088
99958.849
100108.31
100075.08
100037.47
100025
100023.15
100015.21
100020.57
100012.2
99990.997
99977.689