/*--------------------------------*- C++ -*----------------------------------*\
| =========                 |                                                 |
| \\      /  F ield         | OpenFOAM: The Open Source CFD Toolbox           |
|  \\    /   O peration     | Version:  2206                                  |
|   \\  /    A nd           | Website:  www.openfoam.com                      |
|    \\/     M anipulation  |                                                 |
\*---------------------------------------------------------------------------*/
FoamFile
{
    version     2.0;
    format      ascii;
    arch        "LSB;label=32;scalar=64";
    class       surfaceScalarField;
    location    "400";
    object      phi;
}
// * * * * * * * * * * * * * * * * * * * * * * * * * * * * * * * * * * * * * //

dimensions      [1 0 -1 0 0 0 0];

oriented        oriented;

internalField   nonuniform List<scalar> 
146294
(
1.291189e-07
-8.9066351e-08
9.4516979e-08
-1.3072205e-08
-1.2279655e-07
-7.3523536e-08
6.1998729e-08
-1.29392e-08
1.5365167e-07
1.703133e-07
-3.6156977e-08
-6.4728834e-08
-1.5848869e-07
-4.7338871e-08
-4.2716365e-08
1.8685246e-07
5.2087402e-07
-2.8304303e-07
2.5182078e-07
1.130457e-07
-5.091892e-07
-2.41809e-07
1.4985429e-07
9.8254709e-08
5.766826e-07
5.5216995e-07
-3.3363188e-08
-3.0859131e-07
-5.2937926e-07
-8.3540674e-08
-2.3842621e-07
5.850061e-07
1.0323352e-06
-4.6561741e-07
4.2750726e-07
2.7641949e-07
-1.0193033e-06
-4.0363382e-07
2.4714531e-07
2.4180079e-07
1.09688e-06
9.3454719e-07
7.6657274e-09
-5.2959442e-07
-9.1161382e-07
-9.3099999e-08
-4.2753901e-07
9.6801249e-07
1.54828e-06
-6.1138971e-07
5.9876757e-07
4.1879781e-07
-1.5272078e-06
-5.3558679e-07
3.5055585e-07
3.6512196e-07
1.6154111e-06
1.3017348e-06
6.4659141e-08
-6.9612474e-07
-1.2739727e-06
-8.6663537e-08
-5.7559211e-07
1.3353196e-06
2.0762592e-06
-7.5027276e-07
7.5954629e-07
5.5276287e-07
-2.0396509e-06
-6.6363309e-07
4.5680238e-07
4.7911657e-07
2.154504e-06
1.6955728e-06
1.2800874e-07
-8.538925e-07
-1.6553251e-06
-6.867505e-08
-7.19423e-07
1.733371e-06
2.6529912e-06
-9.0470321e-07
9.1350378e-07
6.9219917e-07
-2.5944768e-06
-8.0742692e-07
5.6631294e-07
5.9855645e-07
2.7524111e-06
2.1365598e-06
1.9383036e-07
-1.0282596e-06
-2.0788093e-06
-4.5959411e-08
-8.7668984e-07
2.1831231e-06
3.3387906e-06
-1.1031719e-06
1.0685356e-06
8.6013965e-07
-3.2508196e-06
-9.8874798e-07
6.8335296e-07
7.4179183e-07
3.4686844e-06
2.6614635e-06
2.5597682e-07
-1.247411e-06
-2.5793873e-06
-2.3481045e-08
-1.0690846e-06
2.7193171e-06
4.108568e-06
-1.3439795e-06
1.2380178e-06
1.0491222e-06
-3.9831705e-06
-1.2059077e-06
8.1957039e-07
9.0176875e-07
4.2765283e-06
3.2546133e-06
3.1856026e-07
-1.5150539e-06
-3.1461104e-06
-6.1143963e-11
-1.297954e-06
3.3232532e-06
4.9385196e-06
-1.6223755e-06
1.4295735e-06
1.2500771e-06
-4.7577644e-06
-1.4587533e-06
9.8425702e-07
1.0718711e-06
5.1607087e-06
3.8984334e-06
3.8347801e-07
-1.8343639e-06
-3.7513659e-06
2.6051669e-08
-1.5715101e-06
3.9850771e-06
5.7391541e-06
-1.9269151e-06
1.6975247e-06
1.448133e-06
-5.5283156e-06
-1.7199614e-06
1.227102e-06
1.2302798e-06
5.9859999e-06
4.5358419e-06
5.183998e-07
-2.2173664e-06
-4.3803109e-06
1.1439353e-07
-1.880817e-06
4.6083603e-06
6.6593027e-06
-2.2790205e-06
2.0433565e-06
1.6481585e-06
-6.3742471e-06
-2.0322953e-06
1.551107e-06
1.398434e-06
6.9691661e-06
5.2449807e-06
7.2298985e-07
-2.6885096e-06
-5.0400744e-06
2.7159316e-07
-2.2800506e-06
5.3355397e-06
7.7748079e-06
-2.6782179e-06
2.4792837e-06
1.8675605e-06
-7.4000867e-06
-2.3920677e-06
1.9739689e-06
1.5888592e-06
8.155147e-06
6.0934537e-06
1.0591708e-06
-3.2858101e-06
-5.8220462e-06
5.5979936e-07
-2.797498e-06
6.2106765e-06
8.7552718e-06
-2.8750651e-06
2.9051852e-06
2.0298826e-06
-8.3359935e-06
-2.6069577e-06
2.4505958e-06
1.7293166e-06
9.1562796e-06
6.8233081e-06
1.6536367e-06
-3.7708986e-06
-6.5219421e-06
1.0813144e-06
-3.2383371e-06
6.9331685e-06
1.027807e-05
-2.8442645e-06
2.8230653e-06
2.4108194e-06
-9.7625161e-06
-2.628617e-06
2.7108622e-06
2.005088e-06
1.0641327e-05
7.8631616e-06
2.4520897e-06
-4.0739032e-06
-7.4319806e-06
1.9372735e-06
-3.5688729e-06
7.9474532e-06
1.2231713e-05
-2.2611552e-06
1.1299561e-06
3.513699e-06
-1.1791169e-05
-2.046248e-06
1.6812771e-06
2.7998689e-06
1.2507658e-05
8.8715399e-06
3.3553104e-06
-3.564785e-06
-8.4711384e-06
3.0577516e-06
-3.187594e-06
8.8924046e-06
1.2777418e-05
-1.3678377e-06
-3.1111764e-06
5.2582088e-06
-1.2426691e-05
-1.051936e-06
-1.6713522e-06
4.2767085e-06
1.2905244e-05
8.4565501e-06
3.5293664e-06
-1.7684042e-06
-8.2300522e-06
3.6701056e-06
-1.5237573e-06
8.3160197e-06
1.4490246e-05
-1.5680442e-06
-9.8405942e-06
8.0240163e-06
-1.4216829e-05
-9.8157318e-07
-7.5679318e-06
6.8872189e-06
1.4481138e-05
8.6485071e-06
2.4695984e-06
-5.5049116e-07
-8.6063061e-06
3.2553893e-06
-2.2043228e-07
8.3020692e-06
1.7361153e-05
-2.566346e-06
-1.8673878e-05
1.0913012e-05
-1.6874573e-05
-1.7652772e-06
-1.5875355e-05
9.9795612e-06
1.7454264e-05
9.2594777e-06
7.18566e-08
-1.1775502e-07
-9.3103363e-06
1.6256675e-06
3.3662751e-07
8.7872775e-06
2.0841258e-05
-3.3788498e-06
-2.9540878e-05
1.334976e-05
-1.9945186e-05
-2.5445232e-06
-2.6559239e-05
1.2911787e-05
2.1157842e-05
9.6634613e-06
-2.8932369e-06
-3.5167538e-07
-9.7255696e-06
-8.2462272e-07
2.6691012e-07
9.3022905e-06
2.434001e-05
-4.5370772e-06
-4.1344878e-05
1.5049006e-05
-2.3047954e-05
-3.4889845e-06
-3.8311298e-05
1.5108831e-05
2.4472186e-05
9.828217e-06
-6.2872077e-06
-1.0625348e-06
-9.9088083e-06
-3.8793117e-06
-2.5888212e-07
9.652769e-06
2.6756198e-05
-5.9469023e-06
-5.2580307e-05
1.5513194e-05
-2.5087104e-05
-4.6462426e-06
-4.9356098e-05
1.5752973e-05
2.6694263e-05
1.044818e-05
-9.8914937e-06
-2.2551295e-06
-1.053572e-05
-7.4904361e-06
-1.2397597e-06
1.065278e-05
2.6128703e-05
-9.1053969e-06
-5.8011868e-05
1.3447032e-05
-2.5038787e-05
-7.1387153e-06
-5.4239775e-05
1.3252982e-05
2.4898089e-05
1.2629633e-05
-1.4255966e-05
-4.6258131e-06
-1.2744797e-05
-1.2255888e-05
-3.2604533e-06
1.3516738e-05
1.691274e-05
-9.1510609e-06
-5.6234673e-05
6.8238515e-06
-1.6362796e-05
-7.3724951e-06
-5.1998463e-05
6.3839281e-06
1.5660044e-05
1.3244e-05
-1.6677705e-05
-6.7015827e-06
-1.3271797e-05
-1.5511016e-05
-5.2957026e-06
1.4422328e-05
8.8897482e-06
-8.172944e-06
-5.0179199e-05
1.9300819e-06
-8.7024021e-06
-6.7235526e-06
-4.567215e-05
1.3170601e-06
7.9698813e-06
1.3377554e-05
-1.7074077e-05
-7.9214517e-06
-1.3232764e-05
-1.6694057e-05
-6.7456781e-06
1.4582555e-05
3.0417317e-06
-6.7928871e-06
-4.2487819e-05
-1.0649079e-06
-2.8753951e-06
-5.6718273e-06
-3.8021303e-05
-1.6423163e-06
2.7050823e-06
1.2582259e-05
-1.601462e-05
-8.1075506e-06
-1.2327022e-05
-1.6173912e-05
-7.2668165e-06
1.365721e-05
-7.3854245e-07
-5.1966372e-06
-3.4765018e-05
-2.75024e-06
9.6250393e-07
-4.3977612e-06
-3.0573246e-05
-3.2519654e-06
-5.3690032e-07
1.0817034e-05
-1.4062725e-05
-7.3777028e-06
-1.058799e-05
-1.4580938e-05
-6.902284e-06
1.1728367e-05
-3.0162477e-06
-3.9096605e-06
-2.7462456e-05
-3.6576591e-06
3.2809448e-06
-3.3099205e-06
-2.3731318e-05
-4.064952e-06
-2.4832671e-06
9.2963288e-06
-1.1713893e-05
-6.4897324e-06
-9.0649953e-06
-1.242259e-05
-6.2416187e-06
1.0069863e-05
-4.2253172e-06
-2.8085048e-06
-2.0920073e-05
-3.9720054e-06
4.463304e-06
-2.3582451e-06
-1.7753774e-05
-4.293687e-06
-3.550901e-06
7.7503703e-06
-9.2515293e-06
-5.464286e-06
-7.5570661e-06
-1.0046211e-05
-5.3573093e-06
8.3728911e-06
-4.576591e-06
-1.9079485e-06
-1.5385331e-05
-3.822719e-06
4.7724402e-06
-1.5747342e-06
-1.2809981e-05
-4.0666394e-06
-3.8789549e-06
6.1775548e-06
-6.9639735e-06
-4.3486017e-06
-6.0243279e-06
-7.7638218e-06
-4.3384602e-06
6.6591499e-06
-4.4013521e-06
-1.2453595e-06
-1.0870227e-05
-3.4206747e-06
4.5521441e-06
-9.9147451e-07
-8.8769538e-06
-3.6054211e-06
-3.7374021e-06
4.8020685e-06
-4.9491773e-06
-3.3624365e-06
-4.6998312e-06
-5.6903812e-06
-3.3969011e-06
5.1340402e-06
-3.9706485e-06
-7.6619324e-07
-7.2684137e-06
-2.9411069e-06
4.0759853e-06
-5.5885316e-07
-5.8384594e-06
-3.0845029e-06
-3.3656596e-06
3.6690964e-06
-3.2313662e-06
-2.5347398e-06
-3.6182065e-06
-3.8507468e-06
-2.5786849e-06
3.8496526e-06
-3.3376268e-06
-4.2231257e-07
-4.4885345e-06
-2.4040846e-06
3.3839861e-06
-2.4418638e-07
-3.5823702e-06
-2.5235024e-06
-2.8258958e-06
2.6942237e-06
-1.8599402e-06
-1.8042149e-06
-2.6836826e-06
-2.2982002e-06
-1.8356928e-06
2.7333951e-06
-2.6007102e-06
-1.852656e-07
-2.4130712e-06
-1.8744183e-06
2.5846994e-06
-2.9248264e-08
-1.9601069e-06
-1.9756307e-06
-2.2178936e-06
1.8784668e-06
-8.5439926e-07
-1.1707841e-06
-1.8982948e-06
-1.1004747e-06
-1.1792673e-06
1.8312444e-06
-1.7547196e-06
-4.141577e-08
-9.750102e-07
-1.3413554e-06
1.6991095e-06
8.2283876e-08
-8.3963695e-07
-1.4284516e-06
-1.5287424e-06
1.1608748e-06
-2.3457551e-07
-6.2290115e-07
-1.1989466e-06
-3.3522789e-07
-6.0990358e-07
1.0884698e-06
-8.1982173e-07
3.8493883e-09
-1.8076269e-07
-7.4670734e-07
7.6806405e-07
7.5059569e-08
-1.7203248e-07
-8.1952537e-07
-7.4263542e-07
5.6542279e-07
-9.0418542e-09
-1.9741101e-07
-5.894098e-07
-2.8289807e-08
-1.7879244e-07
5.1304583e-07
-1.4979276e-07
-2.4469977e-09
-1.6860961e-07
1.4008704e-07
1.7250724e-08
-1.9714949e-07
-1.4192715e-07
1.4801853e-07
-3.5973295e-09
-1.5590957e-07
6.0761828e-09
1.3090363e-07
1.8071649e-07
-9.5518755e-08
2.6477159e-08
-1.7640148e-07
-4.4203329e-08
1.2912698e-08
1.6929983e-07
5.7577152e-08
-1.0357426e-07
1.0557416e-08
-6.0084621e-08
-4.8028872e-08
1.0367051e-08
5.0993892e-08
2.6372051e-08
-1.1636634e-07
1.5404362e-08
-2.8981083e-08
-5.657045e-08
1.604038e-08
1.8816233e-08
1.5623522e-08
-1.1880198e-07
3.5506191e-09
-1.6739507e-08
-5.8940514e-08
7.4455326e-09
1.0522353e-08
1.0078638e-08
-1.1846859e-07
1.7651255e-10
-1.0586628e-08
-6.0362487e-08
4.9733312e-09
6.5118663e-09
7.2896347e-09
-1.1718777e-07
-1.0173725e-09
-7.5525707e-09
-6.095264e-08
3.3445915e-09
4.5262309e-09
5.8716476e-09
-1.2095413e-09
-1.1579062e-07
-6.0583782e-09
2.568823e-09
-6.1092641e-08
3.4369255e-09
6.2590942e-07
-3.7574569e-07
6.8996299e-08
-6.0126352e-07
-2.2149239e-07
1.4762625e-08
6.071018e-07
1.8195004e-07
-3.7775342e-07
2.4464382e-09
-1.7182243e-07
-2.2335259e-07
7.4840001e-09
1.8664453e-07
8.0453372e-08
-3.7432078e-07
5.7187575e-09
-7.4201236e-08
-2.2081287e-07
2.004763e-08
7.3865184e-08
4.3818592e-08
-3.6758727e-07
-8.4405254e-09
-3.8561246e-08
-2.1594906e-07
7.1230591e-09
3.9260502e-08
2.6969565e-08
-3.6117175e-07
-1.026433e-08
-2.2944983e-08
-2.1139495e-07
3.8460978e-09
2.3534433e-08
1.8847916e-08
-3.5593095e-07
-9.4217253e-09
-1.5681751e-08
-2.0806058e-07
3.0262088e-09
1.5823691e-08
1.484282e-08
-8.3469215e-09
-3.5144957e-07
-1.2188625e-08
3.0409498e-09
-2.0536522e-07
1.1675379e-08
1.1219678e-06
-5.8820333e-07
9.9713973e-08
-1.0940872e-06
-3.7741593e-07
-7.8524141e-09
1.0944656e-06
3.1712144e-07
-5.7271719e-07
-2.8468536e-08
-3.017005e-07
-3.8064331e-07
-1.6875961e-08
3.4470191e-07
1.3655898e-07
-5.542977e-07
-2.2637184e-08
-1.2662218e-07
-3.7399051e-07
6.3220582e-09
1.4361789e-07
7.0406369e-08
-5.4072403e-07
-2.924922e-08
-6.3170136e-08
-3.6678258e-07
-2.8962826e-09
7.3207791e-08
4.1713399e-08
-5.3082442e-07
-2.5697933e-08
-3.6178721e-08
-3.6098119e-07
-2.7377772e-09
4.2490286e-08
2.8288832e-08
-5.2341181e-07
-2.1398038e-08
-2.3724958e-08
-3.5680133e-07
-5.7452648e-10
2.7705522e-08
2.1765778e-08
-1.8494259e-08
-5.173588e-07
-1.7671875e-08
1.633186e-09
-3.5365791e-07
2.0027097e-08
1.6660386e-06
-7.6704313e-07
1.4506674e-07
-1.6404678e-06
-4.9899334e-07
-3.0362359e-08
1.6119439e-06
4.8880716e-07
-7.5040285e-07
-5.7704639e-08
-4.7620636e-07
-5.1008105e-07
-4.8500037e-08
5.3150517e-07
2.1607578e-07
-7.2919682e-07
-5.1791832e-08
-2.0812582e-07
-5.071095e-07
-1.3655807e-08
2.3307149e-07
1.1034283e-07
-7.1401115e-07
-5.0347399e-08
-1.044315e-07
-5.0261705e-07
-1.5172398e-08
1.1812005e-07
6.3918645e-08
-7.0201108e-07
-4.2136108e-08
-5.9478079e-08
-4.9733759e-07
-1.1039726e-08
6.6933661e-08
4.2045848e-08
-6.9245025e-07
-3.4613447e-08
-3.8392818e-08
-4.9240518e-07
-5.7256491e-09
4.226446e-08
3.1368017e-08
-3.0099692e-08
-6.8425804e-07
-2.7953396e-08
-9.4399967e-10
-4.8816627e-07
2.9700901e-08
2.2904882e-06
-9.5410809e-07
2.1354692e-07
-2.2587678e-06
-6.1916281e-07
-3.5805263e-08
2.1956673e-06
7.111371e-07
-9.4566358e-07
-7.3368705e-08
-7.039215e-07
-6.4404048e-07
-7.4974228e-08
7.6248765e-07
3.3058322e-07
-9.2836599e-07
-7.1173513e-08
-3.2849911e-07
-6.4845792e-07
-3.0608182e-08
3.5194546e-07
1.7307792e-07
-9.1749108e-07
-6.3371905e-08
-1.7092723e-07
-6.4942535e-07
-2.4479245e-08
1.8334744e-07
1.0065409e-07
-9.0814585e-07
-5.3276438e-08
-9.8859958e-08
-6.4634419e-07
-1.8459583e-08
1.0498953e-07
6.5002638e-08
-8.9889756e-07
-4.5219372e-08
-6.3643888e-08
-6.4046637e-07
-1.2149399e-08
6.5543895e-08
4.6888844e-08
-4.0686668e-08
-8.895804e-07
-4.5620295e-08
-6.1727771e-09
-6.3296954e-07
4.4620906e-08
2.9960084e-06
-1.1582239e-06
2.9939265e-07
-2.9518785e-06
-7.4450258e-07
-2.8344481e-08
2.8563702e-06
9.7947878e-07
-1.160407e-06
-7.3951587e-08
-9.7670594e-07
-7.8497626e-07
-9.1339785e-08
1.036317e-06
4.7670079e-07
-1.1499922e-06
-7.812253e-08
-4.8016862e-07
-7.9831016e-07
-4.0371368e-08
4.9979428e-07
2.5910791e-07
-1.1480188e-06
-6.3843219e-08
-2.6060951e-07
-8.0713433e-07
-2.6755508e-08
2.7020195e-07
1.5573473e-07
-1.1482929e-06
-5.225955e-08
-1.5647787e-07
-8.1047513e-07
-1.9954378e-08
1.6056991e-07
1.0244776e-07
-1.1467811e-06
-4.575295e-08
-1.0342622e-07
-8.0849113e-07
-1.4996188e-08
1.0330446e-07
7.3148816e-08
-4.3420663e-08
-1.1424172e-06
-7.4779727e-08
-1.0656311e-08
-8.0154917e-07
7.0692616e-08
3.7973324e-06
-1.3913326e-06
3.759961e-07
-3.7300265e-06
-8.8134403e-07
-2.7100908e-08
3.6083439e-06
1.2738075e-06
-1.4000938e-06
-6.2452385e-08
-1.2765507e-06
-9.3209102e-07
-1.009066e-07
1.3341203e-06
6.375496e-07
-1.3930114e-06
-7.5531226e-08
-6.4722244e-07
-9.5089617e-07
-4.412624e-08
6.6010455e-07
3.5479388e-07
-1.395898e-06
-5.5660928e-08
-3.6009189e-07
-9.6513117e-07
-2.3260876e-08
3.6553109e-07
2.2015969e-07
-1.4045681e-06
-4.1240781e-08
-2.2250904e-07
-9.7475217e-07
-1.4565578e-08
2.2438721e-07
1.5130734e-07
-1.414642e-06
-3.4280775e-08
-1.5270623e-07
-9.7939484e-07
-1.046909e-08
1.5142306e-07
1.1362408e-07
-3.3001923e-08
-1.4232228e-06
-1.1546321e-07
-8.3031583e-09
-9.7907014e-07
1.1093803e-07
4.6514697e-06
-1.664367e-06
4.3435059e-07
-4.5604977e-06
-1.0440974e-06
-3.7041641e-08
4.4075667e-06
1.5702967e-06
-1.6754464e-06
-4.9241715e-08
-1.572426e-06
-1.0992717e-06
-1.0557268e-07
1.630137e-06
7.8962176e-07
-1.6725493e-06
-6.3603027e-08
-8.0445457e-07
-1.1194308e-06
-4.2839488e-08
8.084904e-07
4.4375803e-07
-1.6775037e-06
-4.1383574e-08
-4.5307784e-07
-1.1334679e-06
-1.5683936e-08
4.5021764e-07
2.7924551e-07
-1.6877595e-06
-2.6399809e-08
-2.8383605e-07
-1.143731e-06
-5.3671206e-09
2.8030417e-07
1.963867e-07
-1.7012539e-06
-1.915836e-08
-1.9801165e-07
-1.150774e-06
-1.403431e-09
1.9436516e-07
1.535616e-07
-1.6899292e-08
-1.7174588e-06
-1.5346323e-07
3.7337231e-12
-1.1546084e-06
1.4907809e-07
5.5232303e-06
-1.996145e-06
4.7018618e-07
-5.3972881e-06
-1.2463778e-06
-6.6047121e-08
5.2271051e-06
1.834999e-06
-2.0107787e-06
-3.1890634e-08
-1.8377214e-06
-1.2996471e-06
-1.0755049e-07
1.8902401e-06
9.1639439e-07
-2.0117743e-06
-4.3388444e-08
-9.3561475e-07
-1.3172538e-06
-3.347464e-08
9.2463373e-07
5.1406667e-07
-2.0185221e-06
-2.2964998e-08
-5.2574338e-07
-1.3280933e-06
-2.7975832e-09
5.1201527e-07
3.2460045e-07
-2.0294685e-06
-1.0577009e-08
-3.2947185e-07
-1.3352502e-06
6.625515e-09
3.1976457e-07
2.3011788e-07
-2.0430043e-06
-4.9484691e-09
-2.3079641e-07
-1.3392033e-06
8.7803844e-09
2.2387584e-07
1.8264091e-07
-2.7101759e-09
-2.0591392e-06
-1.8069165e-07
9.0136877e-09
-1.3404405e-06
1.7486785e-07
6.3553282e-06
-2.4259516e-06
5.5750586e-07
-6.2340566e-06
-1.5180381e-06
-4.2157014e-08
5.9686628e-06
2.0631563e-06
-2.4539432e-06
7.744722e-09
-2.0748137e-06
-1.5751392e-06
-8.4549549e-08
2.0972489e-06
1.0168643e-06
-2.4627521e-06
-7.2687007e-09
-1.0441751e-06
-1.5892893e-06
-4.0868566e-09
1.0016216e-06
5.6399542e-07
-2.4724411e-06
3.7896107e-09
-5.8107203e-07
-1.5943584e-06
2.218191e-08
5.4408107e-07
3.5357475e-07
-2.4842961e-06
9.1517937e-09
-3.6144419e-07
-1.5959107e-06
2.5574953e-08
3.3618084e-07
2.5014403e-07
-2.4979989e-06
1.0534198e-08
-2.5193173e-07
-1.5948355e-06
2.3021598e-08
2.3481768e-07
1.9937574e-07
1.0720653e-08
-2.5138663e-06
-1.9693619e-07
2.0171484e-08
-1.5911779e-06
1.8456526e-07
7.2259908e-06
-3.0163279e-06
7.1883385e-07
-7.0595036e-06
-1.9306815e-06
5.5720421e-08
6.7787362e-06
2.2901971e-06
-3.0788072e-06
7.6747216e-08
-2.2967291e-06
-2.0084475e-06
-2.4605e-08
2.3080108e-06
1.1147399e-06
-3.1028488e-06
4.7515219e-08
-1.1454841e-06
-2.0251971e-06
5.2608493e-08
1.0747904e-06
6.084417e-07
-3.1175833e-06
4.0710912e-08
-6.3063959e-07
-2.0269156e-06
6.4528593e-08
5.6780407e-07
3.7464668e-07
-3.1300038e-06
3.4168396e-08
-3.8723573e-07
-2.0239946e-06
5.5632188e-08
3.4167594e-07
2.6021594e-07
-3.1424407e-06
2.8647314e-08
-2.659031e-07
-2.0185259e-06
4.4777884e-08
2.3297727e-07
2.0396994e-07
2.5076349e-08
-3.1562125e-06
-2.0454816e-07
3.6736866e-08
-2.0105883e-06
1.7947538e-07
8.2502027e-06
-3.8438007e-06
1.0333982e-06
-8.0067843e-06
-2.5500411e-06
3.0652217e-07
7.7519381e-06
2.5593374e-06
-3.9672002e-06
1.8312095e-07
-2.542345e-06
-2.6797777e-06
8.6577344e-08
2.5778546e-06
1.2345587e-06
-4.0126074e-06
1.1506799e-07
-1.256697e-06
-2.7087559e-06
1.3484242e-07
1.1813125e-06
6.6429122e-07
-4.0348049e-06
8.2586966e-08
-6.8399121e-07
-2.7093816e-06
1.1959326e-07
6.0982805e-07
4.0079986e-07
-4.0489104e-06
6.0975109e-08
-4.134882e-07
-2.7021461e-06
9.265145e-08
3.5655945e-07
2.7112248e-07
-4.0603219e-06
4.7036453e-08
-2.7810901e-07
-2.6922107e-06
7.0939693e-08
2.3501256e-07
2.0584779e-07
3.8778654e-08
-4.0713971e-06
-2.0846511e-07
5.6515543e-08
-2.6802959e-06
1.7416624e-07
9.1701283e-06
-4.749069e-06
1.7312067e-06
-8.889783e-06
-3.2177618e-06
8.6467526e-07
8.5913783e-06
2.8116877e-06
-4.9787237e-06
3.7914219e-07
-2.7780587e-06
-3.425931e-06
2.7059063e-07
2.8358419e-06
1.3455319e-06
-5.0645991e-06
2.1334024e-07
-1.3579466e-06
-3.4720397e-06
2.4276709e-07
1.2836957e-06
7.1325974e-07
-5.1049292e-06
1.377043e-07
-7.2803334e-07
-3.4736039e-06
1.8752488e-07
6.4690588e-07
4.2080404e-07
-5.1281429e-06
9.4785083e-08
-4.3141469e-07
-3.4640199e-06
1.3803347e-07
3.6582283e-07
2.7623868e-07
-5.1442539e-06
6.9706997e-08
-2.8278594e-07
-3.4515305e-06
1.0327781e-07
2.3142372e-07
2.0192947e-07
5.5315435e-08
-5.1575064e-06
-2.0522109e-07
8.1113499e-08
-3.4376068e-06
1.6339964e-07
1.0472482e-05
-5.5347977e-06
2.6625097e-06
-9.9429153e-06
-3.8741794e-06
1.8146919e-06
9.8277536e-06
3.3816347e-06
-5.947645e-06
6.5670065e-07
-3.2463577e-06
-4.1638616e-06
5.4594883e-07
3.3959502e-06
1.6239808e-06
-6.092687e-06
3.3159336e-07
-1.5972103e-06
-4.1997527e-06
3.7645371e-07
1.5261657e-06
8.4587135e-07
-6.1497595e-06
1.9688955e-07
-8.4797531e-07
-4.1765558e-06
2.6705443e-07
7.4315108e-07
4.8280179e-07
-6.1763121e-06
1.2954192e-07
-4.9102311e-07
-4.1459596e-06
1.9096523e-07
3.992582e-07
3.0253881e-07
-6.1916256e-06
9.3358449e-08
-3.1086629e-07
-4.1190353e-06
1.4195585e-07
2.3694477e-07
2.087661e-07
7.4257738e-08
-6.2036458e-06
-2.1569978e-07
1.1282396e-07
-4.0973652e-06
1.5537478e-07
1.1709118e-05
-5.5503622e-06
3.9415168e-06
-1.1002581e-05
-4.0577937e-06
3.2008028e-06
1.1193186e-05
4.526276e-06
-6.347011e-06
1.0886286e-06
-4.1615617e-06
-4.6177977e-06
9.4948696e-07
4.6827378e-06
2.332909e-06
-6.6844042e-06
4.9324088e-07
-2.1571907e-06
-4.7676817e-06
5.102235e-07
2.3489976e-06
1.2509659e-06
-6.829925e-06
2.6113358e-07
-1.1696744e-06
-4.789391e-06
3.1660255e-07
1.2231363e-06
7.1099761e-07
-6.8958407e-06
1.5811938e-07
-6.7367858e-07
-4.7734906e-06
2.1167788e-07
6.7436465e-07
4.3097116e-07
-6.9264648e-06
1.0782975e-07
-4.1480333e-07
-4.7462522e-06
1.5183517e-07
3.9386443e-07
2.776641e-07
8.2858315e-08
-6.940108e-06
-2.7263466e-07
1.1861924e-07
-4.7173266e-06
2.429282e-07
1.0430576e-05
-3.1951921e-06
4.7664632e-06
-9.8287664e-06
-2.270046e-06
4.2782887e-06
1.009935e-05
4.8652679e-06
-4.1026812e-06
1.4190333e-06
-4.2881967e-06
-2.9252005e-06
1.2886647e-06
5.1812389e-06
2.7631854e-06
-4.6251982e-06
6.04925e-07
-2.3523758e-06
-3.2282909e-06
5.8240254e-07
2.9940695e-06
1.582559e-06
-4.9197779e-06
2.9335471e-07
-1.3201886e-06
-3.3984832e-06
3.1225985e-07
1.7571043e-06
9.377654e-07
-5.0896479e-06
1.625736e-07
-7.7236622e-07
-3.514386e-06
1.883616e-07
1.0769667e-06
5.8384148e-07
-5.1915777e-06
1.0224369e-07
-4.7631432e-07
-3.5963376e-06
1.2499427e-07
6.9264512e-07
3.848655e-07
7.2367987e-08
-5.2543813e-06
-3.1158177e-07
9.0880669e-08
-3.652742e-06
4.6899609e-07
9.3537517e-06
-1.0692697e-06
4.9358374e-06
-9.0043816e-06
-3.7710081e-07
4.7932336e-06
8.9954527e-06
4.8915178e-06
-1.8152465e-06
1.5761886e-06
-4.3027054e-06
-8.3269566e-07
1.5027307e-06
5.1330377e-06
2.959341e-06
-2.3703553e-06
6.422934e-07
-2.4416189e-06
-1.0913752e-06
6.098958e-07
3.1905108e-06
1.7752537e-06
-2.744237e-06
2.9186307e-07
-1.3998701e-06
-1.2697257e-06
2.9242735e-07
1.973443e-06
1.0804419e-06
-2.9870732e-06
1.5039317e-07
-8.2543667e-07
-1.4125166e-06
1.5989739e-07
1.2516854e-06
6.8074242e-07
-3.1462512e-06
8.7907657e-08
-5.0722081e-07
-1.5280569e-06
9.6909434e-08
8.2437356e-07
4.5004988e-07
5.7815135e-08
-3.2541109e-06
-3.2764166e-07
6.4706794e-08
-1.6159769e-06
5.6413872e-07
8.6158083e-06
2.1726924e-07
4.4090977e-06
-8.4241309e-06
7.9149889e-07
4.7103961e-06
8.2437437e-06
4.764016e-06
-2.6627352e-07
1.5174508e-06
-4.2217485e-06
5.9315683e-07
1.5626155e-06
4.9024574e-06
2.9935081e-06
-7.6922615e-07
5.8225176e-07
-2.4305242e-06
4.6935261e-07
5.7999662e-07
3.1472028e-06
1.8435108e-06
-1.1582085e-06
2.4415639e-07
-1.4068178e-06
3.8407715e-07
2.4450682e-07
1.9767061e-06
1.1335039e-06
-1.4276236e-06
1.1531359e-07
-8.2901264e-07
2.9625611e-07
1.174528e-07
1.2637659e-06
7.118668e-07
-1.6095506e-06
6.1821877e-08
-5.038508e-07
2.0072955e-07
6.3184417e-08
8.4112032e-07
4.6368381e-07
3.7562652e-08
-1.7342335e-06
-3.1874907e-07
3.79698e-08
1.1136218e-07
5.7978608e-07
8.2027415e-06
5.0037709e-07
3.3305835e-06
-7.9763246e-06
1.0906724e-06
4.1844698e-06
7.9048665e-06
4.6655108e-06
2.6898299e-07
1.1753783e-06
-4.0920645e-06
1.1383479e-06
1.4066653e-06
4.7737687e-06
3.0068115e-06
-1.4959108e-07
3.9644709e-07
-2.4024334e-06
1.1452806e-06
4.6328623e-07
3.1165855e-06
1.8817262e-06
-5.1292913e-07
1.3659239e-07
-1.4108285e-06
1.1311015e-06
1.5412219e-07
1.9862866e-06
1.1637623e-06
-7.7507395e-07
4.9916332e-08
-8.3621648e-07
1.0747617e-06
5.1991833e-08
1.2855642e-06
7.3026067e-07
-9.5570957e-07
1.9814567e-08
-5.0761931e-07
9.8892966e-07
1.7031261e-08
8.6224546e-07
4.728276e-07
8.9448401e-09
-1.0810312e-06
-3.1888739e-07
5.0929538e-09
9.0180325e-07
5.9283093e-07
7.960746e-06
1.314579e-07
1.5827397e-06
-7.406956e-06
8.1498525e-07
3.1495287e-06
7.9217536e-06
4.6144926e-06
-3.9308157e-08
6.0433246e-07
-3.8727019e-06
9.2055903e-07
1.0631901e-06
4.8523734e-06
3.0160307e-06
-4.2417515e-07
1.0230716e-07
-2.3370234e-06
9.3982128e-07
2.5960234e-07
3.2004523e-06
1.8908208e-06
-7.5634125e-07
-2.8000544e-08
-1.3940615e-06
8.985728e-07
2.0701488e-08
2.065485e-06
1.1681745e-06
-9.9404227e-07
-4.7942435e-08
-8.3260989e-07
8.052301e-07
-3.6201159e-08
1.3497158e-06
7.3279194e-07
-1.1574606e-06
-4.2042379e-08
-5.0751665e-07
7.0092062e-07
-4.2253362e-08
8.9638353e-07
4.7541462e-07
-3.2707068e-08
-1.2714819e-06
-3.197392e-07
-3.6333592e-08
6.1197561e-07
6.0578936e-07
7.535774e-06
-7.5807271e-07
-1.0226411e-06
-6.4275258e-06
5.2646881e-08
1.34563e-06
8.0472429e-06
4.4652407e-06
-9.2636705e-07
-3.1073837e-07
-3.3819031e-06
1.697364e-07
4.308615e-07
4.9804532e-06
2.9684084e-06
-1.3010011e-06
-3.750761e-07
-2.1164005e-06
1.8032604e-07
-9.416662e-08
3.311586e-06
1.8667443e-06
-1.608961e-06
-2.9394642e-07
-1.2928346e-06
1.2364294e-07
-1.875159e-07
2.1316425e-06
1.1513662e-06
-1.8229138e-06
-2.0469755e-07
-7.8066021e-07
3.7739559e-08
-1.6510893e-07
1.3661812e-06
7.2033383e-07
-1.9672988e-06
-1.4051745e-07
-4.7747127e-07
-4.6579327e-08
-1.2653185e-07
8.8893061e-07
4.6640272e-07
-9.8830815e-08
-2.0671295e-06
-3.0044792e-07
-9.4866444e-08
-1.191012e-07
5.9745971e-07
6.9137717e-06
-2.6604741e-06
-4.3363439e-06
-5.5655583e-06
-1.5815316e-06
-1.400406e-06
7.9806723e-06
3.8035994e-06
-2.7529924e-06
-1.6195716e-06
-2.4022738e-06
-1.4635014e-06
-5.6881482e-07
4.6852364e-06
2.5118812e-06
-3.1229894e-06
-1.075365e-06
-1.4416125e-06
-1.4298737e-06
-6.4802765e-07
3.032102e-06
1.5738381e-06
-3.417589e-06
-6.9408498e-07
-8.7908275e-07
-1.4294101e-06
-5.1310208e-07
1.8989731e-06
9.5998736e-07
-3.6157543e-06
-4.4074838e-07
-5.2577897e-07
-1.4595108e-06
-3.5992814e-07
1.1849037e-06
5.8979945e-07
-3.74719e-06
-2.8549496e-07
-3.1337529e-07
-1.5009662e-06
-2.4746753e-07
7.5219613e-07
3.722555e-07
-1.9229519e-07
-3.8371276e-06
-1.8885661e-07
-1.7386816e-07
-1.5427357e-06
4.9302592e-07
5.6412381e-06
-4.9540633e-06
-6.6521934e-06
-5.0729599e-06
-3.5394922e-06
-3.7915653e-06
6.2762594e-06
2.2233293e-06
-4.7357731e-06
-2.701539e-06
-1.3597455e-06
-3.3302255e-06
-1.5331933e-06
2.9783513e-06
1.2195405e-06
-4.8483119e-06
-1.6684732e-06
-5.1393419e-07
-3.2710311e-06
-1.1889789e-06
1.7012901e-06
6.9142819e-07
-4.9788172e-06
-1.0372657e-06
-2.1773225e-07
-3.2433748e-06
-8.4252629e-07
9.9319852e-07
3.9077953e-07
-5.0749026e-06
-6.4303186e-07
-9.2430187e-08
-3.2397471e-06
-5.6157603e-07
5.8879933e-07
2.2096169e-07
-5.1394232e-06
-4.0751182e-07
-3.4412131e-08
-3.2480079e-06
-3.7295144e-07
3.5470963e-07
1.2558023e-07
-2.6813184e-07
-5.1825062e-06
-6.6701011e-09
-2.5427835e-07
-3.2602444e-06
2.1822489e-07
5.8590285e-06
-6.9988306e-06
-7.6344977e-06
-5.7995521e-06
-5.3705507e-06
-5.3082979e-06
6.0003441e-06
1.8230714e-06
-6.8293943e-06
-3.2120528e-06
-1.482026e-06
-5.154602e-06
-2.2115574e-06
2.2855031e-06
7.4535619e-07
-6.8342959e-06
-1.9557614e-06
-4.5320077e-07
-5.1107308e-06
-1.5573619e-06
1.0698379e-06
3.3006653e-07
-6.8501185e-06
-1.2158337e-06
-1.3571094e-07
-5.0844525e-06
-1.0658561e-06
5.2711431e-07
1.5323252e-07
-6.8583105e-06
-7.5650773e-07
-3.1570627e-08
-5.0604838e-06
-7.0305203e-07
2.707339e-07
7.2857143e-08
-6.8609782e-06
-4.819227e-07
4.1986395e-09
-5.0372441e-06
-4.6715806e-07
1.4381759e-07
3.4081979e-08
-3.1986325e-07
-6.8607941e-06
1.7465354e-08
-3.2241219e-07
-5.0132122e-06
7.8180749e-08
6.5594875e-06
-7.9694769e-06
-7.7962734e-06
-6.5356827e-06
-6.5210515e-06
-6.0281576e-06
6.5337612e-06
2.1429869e-06
-8.0291457e-06
-3.3647773e-06
-1.9307101e-06
-6.4273756e-06
-2.5881792e-06
2.4258092e-06
8.7454859e-07
-8.1273327e-06
-2.0529374e-06
-6.7921752e-07
-6.4277308e-06
-1.7647931e-06
1.0823253e-06
3.8090425e-07
-8.1971694e-06
-1.2887513e-06
-2.3816884e-07
-6.425543e-06
-1.1954109e-06
5.082699e-07
1.7168932e-07
-8.2379091e-06
-8.1565214e-07
-7.1816207e-08
-6.4097134e-06
-7.9588561e-07
2.4869799e-07
7.5622135e-08
-8.2635018e-06
-5.2926547e-07
-2.7203571e-09
-6.3854269e-06
-5.3982822e-07
1.2399767e-07
2.7494476e-08
-3.5218235e-07
-8.2861466e-06
2.745631e-08
-3.7683184e-07
-6.3635905e-06
6.0079894e-08
6.6912445e-06
-7.8744895e-06
-7.421128e-06
-6.5697755e-06
-6.8404313e-06
-6.0941184e-06
6.6951204e-06
2.3432749e-06
-8.1973699e-06
-3.2457841e-06
-2.1393428e-06
-7.0102715e-06
-2.6511253e-06
2.576186e-06
9.8033209e-07
-8.4498313e-06
-1.975692e-06
-8.0513919e-07
-7.1736123e-06
-1.7706964e-06
1.1495476e-06
4.2334628e-07
-8.6192696e-06
-1.2502297e-06
-2.9246978e-07
-7.2753217e-06
-1.2016646e-06
5.3128306e-07
1.8020165e-07
-8.7280087e-06
-8.0178171e-07
-8.5311503e-08
-7.328669e-06
-8.1176816e-07
2.4943716e-07
6.8358037e-08
-8.8045318e-06
-5.2158607e-07
4.8172597e-10
-7.3593014e-06
-5.5562776e-07
1.147814e-07
1.7489467e-08
-3.4015279e-07
-8.8652099e-06
3.1182053e-08
-3.8236197e-07
-7.3855276e-06
4.9256914e-08
6.4201298e-06
-7.329033e-06
-6.7576419e-06
-6.2441633e-06
-6.5854834e-06
-5.7987173e-06
6.4688099e-06
2.347056e-06
-7.7815299e-06
-2.9837723e-06
-2.1567261e-06
-6.8890388e-06
-2.5471601e-06
2.5464553e-06
9.949614e-07
-8.1169912e-06
-1.7898585e-06
-8.4534589e-07
-7.1462501e-06
-1.6504455e-06
1.1319203e-06
4.2671119e-07
-8.3588036e-06
-1.1179371e-06
-3.171912e-07
-7.3368034e-06
-1.0994907e-06
5.1508808e-07
1.7724254e-07
-8.5272816e-06
-7.1115582e-07
-9.9409613e-08
-7.4705126e-06
-7.3562475e-07
2.347928e-07
6.6350991e-08
-8.6464665e-06
-4.5679792e-07
-1.1936963e-08
-7.5675037e-06
-4.967705e-07
1.0449396e-07
1.913416e-08
-2.9283845e-07
-8.7310556e-06
1.8144725e-08
-3.3473555e-07
-7.6406255e-06
4.4636751e-08
5.7524596e-06
-6.4813956e-06
-5.9064034e-06
-5.5866842e-06
-5.9375697e-06
-5.2704925e-06
5.8043584e-06
2.1423437e-06
-6.9822326e-06
-2.6383442e-06
-1.9867814e-06
-6.2954088e-06
-2.33859e-06
2.2917558e-06
9.0841606e-07
-7.3372032e-06
-1.5463364e-06
-7.9700899e-07
-6.5736014e-06
-1.4645224e-06
1.0006505e-06
3.8929528e-07
-7.5950763e-06
-9.3826954e-07
-3.1107726e-07
-6.7863118e-06
-9.4450884e-07
4.4702961e-07
1.6398129e-07
-7.7772818e-06
-5.828721e-07
-1.1008199e-07
-6.9449713e-06
-6.1408279e-07
2.0108795e-07
6.5431222e-08
-7.9005748e-06
-3.7063905e-07
-2.8277946e-08
-7.059544e-06
-4.0685507e-07
9.0101864e-08
2.3484128e-08
-2.371693e-07
-7.9819461e-06
2.2142934e-09
-2.7079911e-07
-7.1403869e-06
4.0398159e-08
4.8097755e-06
-5.4268408e-06
-4.9824665e-06
-4.6553012e-06
-5.0774964e-06
-4.5786559e-06
4.8571971e-06
1.8030798e-06
-5.9238195e-06
-2.2742352e-06
-1.6703423e-06
-5.4577197e-06
-2.0688656e-06
1.9133532e-06
7.6071802e-07
-6.2559954e-06
-1.298462e-06
-6.763947e-07
-5.7291251e-06
-1.2482874e-06
8.159063e-07
3.2773274e-07
-6.4876466e-06
-7.6185037e-07
-2.7250965e-07
-5.9294256e-06
-7.7644248e-07
3.5996327e-07
1.425641e-07
-6.6483307e-06
-4.5875118e-07
-1.0599415e-07
-6.077207e-06
-4.8718784e-07
1.6345354e-07
6.1103086e-08
-6.7550982e-06
-2.8893788e-07
-3.6042943e-08
-6.1820936e-06
-3.1687245e-07
7.6006622e-08
2.5268546e-08
-1.8610629e-07
-6.8237029e-06
-7.7173534e-09
-2.1063707e-07
-6.2532512e-06
3.6269386e-08
3.8454178e-06
-4.4234737e-06
-4.0361202e-06
-3.7307304e-06
-4.201801e-06
-3.8035769e-06
3.8752215e-06
1.4298778e-06
-4.8834336e-06
-1.9166381e-06
-1.327438e-06
-4.5653508e-06
-1.7698854e-06
1.4943814e-06
5.9348225e-07
-5.1693506e-06
-1.0723771e-06