/*--------------------------------*- C++ -*----------------------------------*\
| =========                 |                                                 |
| \\      /  F ield         | OpenFOAM: The Open Source CFD Toolbox           |
|  \\    /   O peration     | Version:  2206                                  |
|   \\  /    A nd           | Website:  www.openfoam.com                      |
|    \\/     M anipulation  |                                                 |
\*---------------------------------------------------------------------------*/
FoamFile
{
    version     2.0;
    format      ascii;
    arch        "LSB;label=32;scalar=64";
    class       volScalarField;
    location    "400";
    object      rho;
}
// * * * * * * * * * * * * * * * * * * * * * * * * * * * * * * * * * * * * * //

dimensions      [1 -3 0 0 0 0 0];

internalField   nonuniform List<scalar> 
50904
(
1.1828216
1.1828723
1.1847006
1.1848104
1.1828838
1.1829412
1.1846459
1.1847896
1.1829431
1.182981
1.1844222
1.1845584
1.1830032
1.183006
1.184199
1.1842793
1.1830658
1.1830344
1.1840048
1.1840212
1.1830892
1.1830355
1.1837871
1.1837554
1.1830827
1.1830171
1.1835474
1.1834779
1.1830569
1.1829876
1.1832782
1.1831788
1.1830156
1.1829493
1.182951
1.1828325
1.1829579
1.182901
1.1825366
1.1824127
1.1828938
1.1828508
1.1820545
1.181925
1.1828659
1.1828292
1.1815459
1.1814039
1.1829676
1.1829397
1.1811686
1.1810354
1.1833396
1.1833357
1.1811895
1.1810843
1.1841093
1.1841606
1.1819134
1.1818447
1.185158
1.1852802
1.1833253
1.1832803
1.186119
1.1863334
1.1849755
1.1849662
1.1867727
1.1870805
1.1865741
1.1866416
1.1870991
1.1874894
1.1879727
1.1881942
1.1872168
1.187625
1.1891396
1.1895881
1.187294
1.1876423
1.1900968
1.1907888
1.1873773
1.1876206
1.1908284
1.1916801
1.1874221
1.1874998
1.1912392
1.1920547
1.1873548
1.1872536
1.1912869
1.191957
1.1872048
1.1869657
1.1911307
1.1916761
1.1870059
1.1866493
1.1908924
1.1913373
1.1867805
1.1863205
1.1906353
1.1910042
1.1865785
1.1860344
1.1904046
1.1907191
1.1863915
1.185781
1.190214
1.1904923
1.1862333
1.1855667
1.1900587
1.1903103
1.1861114
1.1853977
1.1899187
1.1901463
1.1860252
1.1852717
1.1897738
1.1899758
1.1859709
1.1851882
1.1896049
1.1897683
1.1859438
1.1851523
1.1894172
1.1895232
1.1859234
1.1851599
1.1892595
1.1892944
1.1858956
1.1851615
1.1891923
1.1891829
1.1858106
1.1858554
1.1870957
1.1870501
1.1871662
1.1870721
1.1872185
1.187041
1.1872327
1.1869742
1.1872282
1.186919
1.1872115
1.1868785
1.185663
1.1857654
1.1869656
1.1869704
1.1870983
1.1870349
1.1871713
1.187029
1.1871891
1.186974
1.1871817
1.1869221
1.1871628
1.186884
1.1852194
1.1853498
1.1865789
1.186625
1.1868222
1.1867727
1.1869227
1.1867919
1.1869576
1.1867619
1.1869705
1.1867329
1.1869729
1.1867102
1.1846812
1.1847972
1.1859815
1.1860525
1.1863225
1.1863089
1.1864809
1.1864009
1.1865582
1.1864277
1.1866086
1.1864372
1.1866439
1.18644
1.1841296
1.1842113
1.1852629
1.1853597
1.1856629
1.1857053
1.1858967
1.1858873
1.1860303
1.185982
1.1861236
1.1860375
1.1861902
1.1860663
1.1835773
1.1836192
1.1844584
1.1845686
1.1848409
1.1849366
1.1851085
1.1851791
1.1852907
1.1853218
1.1854219
1.1854101
1.1855159
1.1854673
1.1830192
1.1830189
1.1835666
1.1836699
1.1838441
1.1839781
1.1840801
1.1842172
1.1842538
1.1843644
1.1843891
1.1844725
1.1845133
1.1845728
1.1824185
1.1823751
1.1825691
1.1826511
1.1826719
1.1828289
1.1828133
1.1830139
1.1829329
1.1831485
1.1830463
1.183267
1.1831768
1.1833955
1.1817146
1.1816382
1.1814368
1.1815095
1.1813576
1.1815583
1.1813912
1.1816917
1.1814538
1.1818142
1.1815387
1.1819326
1.1816604
1.1820693
1.1808588
1.1807761
1.180163
1.1802735
1.1799781
1.1802769
1.1799719
1.1804177
1.1800239
1.1805565
1.1801051
1.1806805
1.1802233
1.1808157
1.1798528
1.1797656
1.1787323
1.1789044
1.1785327
1.1789485
1.178553
1.1791408
1.1786393
1.1793199
1.1787484
1.1794634
1.1788738
1.1795959
1.1786154
1.1785135
1.176893
1.1771213
1.1766561
1.1771813
1.1767054
1.177436
1.1768322
1.1776716
1.1769838
1.1778559
1.177142
1.1780176
1.1773552
1.1772625
1.1746079
1.1749575
1.1740279
1.1747948
1.173914
1.1750071
1.1739824
1.1752624
1.1741309
1.1754947
1.1743228
1.1757252
1.1767598
1.1767459
1.173322
1.173891
1.1726027
1.1737229
1.1725002
1.1740215
1.1725989
1.1743654
1.1727877
1.174681
1.1730444
1.1750014
1.1772888
1.1773397
1.1735749
1.1742466
1.172865
1.17414
1.1728648
1.1745653
1.1730463
1.1750079
1.1732797
1.1753926
1.1735641
1.1757679
1.1790817
1.1791347
1.175564
1.1761368
1.1748885
1.1760152
1.1749288
1.176464
1.175113
1.1769048
1.1753016
1.1772427
1.1754806
1.1775063
1.1815823
1.1816327
1.1790218
1.179634
1.1788927
1.1801637
1.1793159
1.1810975
1.1797147
1.1818298
1.1799849
1.1822942
1.1801364
1.182551
1.1844734
1.1845931
1.1834737
1.1843203
1.184424
1.1862316
1.1856168
1.1881799
1.1864884
1.1895471
1.187008
1.1903715
1.1872482
1.1907943
1.1874338
1.1877677
1.1882523
1.1896234
1.1904789
1.1930879
1.192489
1.1959636
1.1938301
1.1978296
1.1945954
1.198907
1.194935
1.1994354
1.1901641
1.190931
1.1926335
1.1948622
1.1958806
1.1994125
1.1984089
1.2026002
1.1999672
1.2044522
1.2007919
1.2054082
1.2011
1.2057808
1.1922716
1.1936126
1.1955701
1.1986511
1.1991469
1.2032268
1.201709
1.2059268
1.2031795
1.2072647
1.2038809
1.2077807
1.2040516
1.2077952
1.1934279
1.1951271
1.1964675
1.1997652
1.1994879
1.2032641
1.2015082
1.2049071
1.2025879
1.2054357
1.2030203
1.2054012
1.2030086
1.2050593
1.193493
1.1949099
1.1952652
1.1977376
1.1968462
1.1996898
1.197814
1.2004641
1.1982453
1.2005993
1.1983152
1.2004203
1.1981574
1.2000693
1.1928177
1.1937044
1.1932802
1.1947319
1.1936207
1.195386
1.1937845
1.1955939
1.1938033
1.1955551
1.1937166
1.1954037
1.1935333
1.1951892
1.1920499
1.1925612
1.1917222
1.1925284
1.1914017
1.1924044
1.1911441
1.1922447
1.1909611
1.1920851
1.1908112
1.1919377
1.190661
1.1917841
1.1913798
1.1916717
1.1906485
1.1911767
1.1901131
1.1907907
1.1897324
1.1905331
1.1895118
1.1903775
1.1893888
1.1902897
1.189319
1.190232
1.1908486
1.1910237
1.1899225
1.1903469
1.1893875
1.1899377
1.1890186
1.189688
1.1888206
1.1895652
1.1887389
1.1895304
1.1887343
1.1895473
1.1904648
1.1905704
1.1894144
1.1898009
1.1889285
1.1894426
1.1886192
1.1892355
1.1884611
1.1891415
1.1884196
1.1891408
1.188464
1.1892042
1.1902083
1.190262
1.1890551
1.1894168
1.1886007
1.1891014
1.1883454
1.188936
1.1882219
1.1888609
1.1882083
1.1888755
1.1882794
1.188959
1.1900402
1.1900515
1.1888119
1.1891466
1.1883758
1.188851
1.1881562
1.1887119
1.1880516
1.1886442
1.1880477
1.1886583
1.1881257
1.1887419
1.1899102
1.1898893
1.1886393
1.1889508
1.1882235
1.1886674
1.1880326
1.1885485
1.1879392
1.1884819
1.1879282
1.1884825
1.1879958
1.1885527
1.1897725
1.1897287
1.1884819
1.1887796
1.1880962
1.1885169
1.1879358
1.1884197
1.1878583
1.1883604
1.1878388
1.188346
1.1878854
1.1883902
1.1896088
1.1895575
1.1883083
1.1885998
1.1879511
1.1883575
1.1878252
1.1882858
1.1877705
1.1882444
1.1877487
1.1882245
1.1877733
1.1882459
1.1894627
1.1894199
1.188137
1.1884155
1.1877656
1.1881438
1.1876649
1.188099
1.1876399
1.188092
1.1876312
1.1880834
1.187645
1.1880899
1.1893915
1.1893512
1.1880362
1.1882797
1.1875937
1.1879057
1.1875041
1.1878631
1.1875396
1.1879136
1.1875741
1.1879472
1.1875946
1.1879593
1.1893848
1.1893356
1.1880346
1.1882571
1.1875565
1.1878203
1.1874261
1.1877149
1.1874587
1.1877519
1.1875112
1.1878
1.1875446
1.1878259
1.1871892
1.1868499
1.1871667
1.186831
1.1871496
1.1868212
1.1871351
1.1868162
1.1871138
1.1868079
1.1870608
1.1867657
1.1871413
1.1868564
1.187126
1.1868393
1.1871163
1.1868284
1.1871024
1.186817
1.187072
1.1867959
1.1870144
1.1867539
1.1869689
1.1866917
1.1869679
1.1866834
1.1869676
1.1866802
1.1869558
1.1866743
1.1869292
1.1866611
1.1869084
1.1866516
1.1866692
1.1864384
1.1866898
1.1864394
1.1867065
1.1864435
1.1867107
1.1864474
1.1867006
1.1864488
1.186715
1.1864581
1.1862383
1.1860806
1.1862766
1.1860904
1.1863122
1.1861046
1.1863446
1.1861297
1.1863777
1.1861679
1.1864405
1.1862075
1.1855907
1.1855097
1.1856558
1.1855422
1.1857234
1.1855791
1.185804
1.1856436
1.1859107
1.1857537
1.1860522
1.1858695
1.1846405
1.184675
1.1847585
1.1847569
1.184876
1.1848319
1.1850193
1.184944
1.1852272
1.1851487
1.1854994
1.1854047
1.1833394
1.1835514
1.1835212
1.1837077
1.1837122
1.1838615
1.1839415
1.1840613
1.1842786
1.1843679
1.1847468
1.1847905
1.1818305
1.1822478
1.1820363
1.1824493
1.1822731
1.1826723
1.1825899
1.182976
1.183077
1.1834075
1.1837755
1.1840252
1.1803925
1.1809933
1.1806028
1.181197
1.1808494
1.1814226
1.181191
1.1817471
1.1817504
1.1822695
1.1826496
1.1831097
1.1790353
1.1797578
1.1792335
1.1799325
1.1794599
1.1801188
1.1797571
1.1803983
1.1803032
1.1809303
1.1813596
1.1819401
1.1773155
1.1781909
1.1775107
1.1783472
1.1777182
1.1784904
1.1779724
1.1787182
1.1784951
1.1792691
1.179662
1.1804235
1.174555
1.1759959
1.1748149
1.1762534
1.1750933
1.1764862
1.1754776
1.1768202
1.1761933
1.1775011
1.1774949
1.1787934
1.1733851
1.1754121
1.1737405
1.1758102
1.1740912
1.1761467
1.1745574
1.1765636
1.1753281
1.1772722
1.1766703
1.1785207
1.1739482
1.1762312
1.174435
1.1767548
1.1748983
1.177194
1.175431
1.1776533
1.1761848
1.1783118
1.1773769
1.1793915
1.1757032
1.1778111
1.1759942
1.1782006
1.1763355
1.1785991
1.1767971
1.1790402
1.1775096
1.1796466
1.1786287
1.1806634
1.180268
1.1827613
1.180395
1.1829627
1.1805059
1.1831135
1.1806714
1.1832424
1.1810595
1.1835272
1.181878
1.1842914
1.1873814
1.191066
1.1874363
1.191236
1.1874306
1.1913157
1.1874156
1.1913183
1.187559
1.1914152
1.1881266
1.192054
1.1950535
1.1997001
1.1950295
1.1997872
1.1949
1.199731
1.1947011
1.1995606
1.1945959
1.1994745
1.1948876
1.2000301
1.2011316
1.2058622
1.2009448
1.2057004
1.2005687
1.2053231
1.1999514
1.2046572
1.1992062
1.2037895
1.1986658
1.2033138
1.2039194
1.2075388
1.2035129
1.2069885
1.2028307
1.2061222
1.2016637
1.2047209
1.1999975
1.202707
1.1982589
1.2006604
1.2027079
1.2044926
1.202132
1.2036129
1.201284
1.2024046
1.1998415
1.2006124
1.1976401
1.1981252
1.1952309
1.1954922
1.1978276
1.1995741
1.1972331
1.19884
1.1963785
1.1978625
1.1951112
1.1964374
1.1934828
1.19454
1.1921693
1.1927425
1.1932268
1.1948778
1.192742
1.1943676
1.1921582
1.1937251
1.1914365
1.1928928
1.1906884
1.1919557
1.1902412
1.1912432
1.1904658
1.1915839
1.1902122
1.191312
1.1899573
1.1910323
1.1896779
1.1907229
1.1893766
1.1904002
1.1890811
1.1900798
1.1892403
1.1901572
1.1891635
1.1900788
1.1891216
1.190037
1.1890607
1.1899894
1.1888951
1.1898633
1.1885662
1.1895643
1.1887372
1.1895585
1.1887633
1.1895889
1.1888242
1.1896616
1.1888453
1.1897138
1.1887216
1.1896435
1.188393
1.1893471
1.1885151
1.1892625
1.1885872
1.1893418
1.1886854
1.189459
1.1887311
1.1895414
1.1886301
1.1894885
1.1883445
1.1892159
1.1883527
1.1890357
1.1884392
1.1891305
1.1885417
1.1892564
1.1885859
1.1893379
1.1885001
1.1892867
1.1882783
1.189054
1.1882
1.1888181
1.1882794
1.1889067
1.188369
1.1890199
1.1884032
1.1890865
1.1883317
1.1890369
1.1881671
1.1888499
1.1880624
1.18862
1.188128
1.1886929
1.1882013
1.1887849
1.1882266
1.1888343
1.1881698
1.1887911
1.188051
1.1886468
1.1879358
1.1884379
1.1879895
1.1884988
1.1880495
1.1885736
1.1880699
1.188611
1.1880304
1.188574
1.1879539
1.1884701
1.1878
1.1882679
1.187836
1.188305
1.1878833
1.1883588
1.1879076
1.1883865
1.1879052
1.188373
1.1878779
1.1883247
1.1876607
1.1880961
1.1876879
1.188117
1.1877257
1.1881492
1.1877614
1.1881772
1.1877914
1.1881972
1.1877966
1.1881913
1.1876065
1.1879614
1.1876202
1.1879664
1.1876348
1.1879707
1.187654
1.1879821
1.1876811
1.1880073
1.1876926
1.1880186
1.1875659
1.1878402
1.1875859
1.1878534
1.1876042
1.187863
1.1876314
1.1878838
1.1876664
1.1879187
1.1876644
1.1879211
1.1870628
1.1867078
1.1871362
1.1867167
1.1871659
1.1867204
1.187166
1.1867088
1.1871582
1.1866967
1.1871508
1.1866868
1.1870367
1.186739
1.1871201
1.1867764
1.1871518
1.1867862
1.1871589
1.1867819
1.1871597
1.1867762
1.1871588
1.186768
1.186959
1.1866746
1.1870394
1.1867187
1.1870705
1.1867358
1.1870879
1.1867497
1.1871
1.1867612
1.1871038
1.1867616
1.186804
1.1864925
1.1868955
1.1865309
1.1869343
1.1865494
1.186956
1.1865675
1.1869672
1.186584
1.1869657
1.1865856
1.1865675
1.1862404
1.1866706
1.1862554
1.1867144
1.18626
1.1867389
1.1862699
1.1867508
1.1862803
1.1867488
1.1862826
1.186228
1.1859253
1.1863547
1.1859311
1.186409
1.1859263
1.1864424
1.1859261
1.1864643
1.1859307
1.1864691
1.1859313
1.1857473
1.185532
1.1859129
1.1855549
1.1859838
1.1855518
1.1860344
1.1855518
1.1860821
1.1855656
1.1861179
1.1855896
1.1850972
1.1850412
1.1853161
1.1851188
1.185417
1.185132
1.1854983
1.1851407
1.1855921
1.1851773
1.185697
1.1852624
1.1842575
1.1844341
1.1845246
1.1845815
1.1846513
1.1846133
1.1847588
1.1846233
1.1848985
1.1846631
1.1851019
1.1848
1.1832976
1.1837173
1.1836259
1.1839708
1.1837819
1.1840367
1.1839137
1.1840612
1.1840797
1.1841053
1.1843425
1.1842289
1.1821983
1.1827213
1.1826094
1.1830548
1.1828131
1.1831519
1.1829999
1.1832094
1.1832409
1.1833357
1.183597
1.1835722
1.1806007
1.1813101
1.1810581
1.1816827
1.1812917
1.1818215
1.1815297
1.1819407
1.1818971
1.182167
1.1824712
1.182549
1.1784123
1.1797266
1.1787826
1.1801245
1.1789959
1.1803042
1.1792398
1.1804911
1.1795888
1.1808227
1.180163
1.1813843
1.1777551
1.1795134
1.1782949
1.1799875
1.1785971
1.180213
1.178923
1.1804449
1.1794059
1.1808084
1.1802555
1.1813916
1.1784451
1.1803172
1.179043
1.1808239
1.1793592
1.1810547
1.1796864
1.1812521
1.1801737
1.1815706
1.1809814
1.1821705
1.1796311
1.1816455
1.1801779
1.1822148
1.180425
1.1824458
1.1806436
1.1825983
1.180967
1.1828192
1.1815411
1.1832739
1.1827513
1.1853794
1.1832228
1.1860933
1.1833616
1.1863159
1.1834153
1.186369
1.1834914
1.1863873
1.1836215
1.1864383
1.1889301
1.193377
1.189345
1.1943466
1.1893895
1.1946235
1.1892863
1.1946223
1.1891256
1.194509
1.1888602
1.1942428
1.195579
1.2014534
1.1959037
1.20252
1.1958827
1.2028243
1.1956711
1.2028319
1.1953633
1.2027354
1.194951
1.2024724
1.1987385
1.2040403
1.1988844
1.2049315
1.1987593
1.2050913
1.1984328
1.2049792
1.1980048
1.2047868
1.1975282
1.2045821
1.1973834
1.2000879
1.1972303
1.2003774
1.1969888
1.2002936
1.1965409
1.1999841
1.1959619
1.1995807
1.1953745
1.1992285
1.193871
1.1941366
1.1934535
1.1938035
1.1931402
1.1935391
1.1926626
1.1931274
1.1920577
1.1926386
1.1914662
1.1922331
1.1915975
1.1918715
1.1912957
1.191506
1.1910265
1.1912328
1.1906604
1.1908503
1.1902684
1.1904395
1.1898845
1.1901416
1.1899743
1.1908444
1.1896889
1.1905601
1.1895277
1.1903725
1.1893818
1.1901752
1.189203
1.1899831
1.1889818
1.1897963
1.1887446
1.1897148
1.1885264
1.1894636
1.1884879
1.1894034
1.1884908
1.1893744
1.1884501
1.189301
1.1883217
1.1891556
1.1881663
1.189139
1.187983
1.1889202
1.1880121
1.1889352
1.1881028
1.1890044
1.1881445
1.189026
1.1881104
1.1889739
1.1879921
1.188923
1.1878414
1.1887545
1.1879105
1.1888299
1.1880536
1.1889784
1.1881689
1.1890805
1.1882282
1.1891042
1.1879918
1.1888225
1.1878781
1.1887058
1.1879774
1.1888271
1.1881537
1.1890278
1.1883163
1.1891887
1.1884322
1.1892715
1.1879989
1.188704
1.1879261
1.1886084
1.1880581
1.1887574
1.1882636
1.1889939
1.1884589
1.1892082
1.1886105
1.1893555
1.1879619
1.188555
1.1879264
1.1884745
1.1880833
1.1886437
1.1883096
1.188904
1.1885272
1.1891555
1.1887026
1.1893501
1.1879087
1.1884163
1.1878964
1.1883566
1.1880552
1.1885281
1.1882807
1.1887874
1.1884969
1.1890373
1.1886732
1.1892348
1.1878682
1.1883079
1.1878833
1.1882805
1.1880231
1.1884325
1.1882352
1.1886769
1.1884449
1.1889175
1.188617
1.1891045
1.1878464
1.1882322
1.1879157
1.1882703
1.1880393
1.1884066
1.1882184
1.1886134
1.1884083
1.1888268
1.188578
1.1890025
1.187811
1.1881645
1.1879494
1.1882901
1.1880809
1.1884263
1.1882367
1.1885958
1.1883925
1.1887607
1.1885396
1.1889022
1.1877301
1.1880296
1.1879534
1.1882515
1.188093
1.1883775
1.1882247
1.1885063
1.1883507
1.1886267
1.1884707
1.1887376
1.1876717
1.1879058
1.187917
1.1881657
1.1880747
1.1883051
1.1881886
1.1884051
1.1882901
1.1884956
1.1883939
1.1885916
1.1871478
1.1866773
1.1871491
1.1866706
1.1871618
1.1866732
1.1871978
1.1866953
1.187269
1.1867487
1.1874044
1.1868795
1.1877567
1.1874386
1.1871569
1.1867576
1.1871577
1.1867489
1.1871673
1.1867446
1.1871957
1.1867515
1.1872543
1.1867745
1.1873783
1.1868511
1.1877287
1.1873382
1.1871033
1.1867519
1.1871074
1.1867459
1.1871152
1.1867408
1.1871316
1.186731
1.1871712
1.186707
1.18728
1.1867088
1.1876184
1.1871178
1.1869653
1.1865789
1.1869698
1.1865781
1.1869734
1.1865773
1.1869789
1.1865614
1.1870036
1.1865122
1.1870992
1.1864916
1.1874161
1.1869208
1.1867501
1.1862832
1.1867558
1.1862949
1.186757
1.1863116
1.1867551
1.1863121
1.1867694
1.1862757
1.1868523
1.1862805
1.1871474
1.1867492
1.1864693
1.1859313
1.1864718
1.1859485
1.186471
1.1859843
1.1864719
1.1860265
1.1864889
1.1860575
1.1865708
1.1861274
1.1868368
1.1866072
1.1861338
1.1856067
1.1861424
1.1856325
1.1861492
1.1856878
1.1861654
1.185777
1.1862078
1.1858972
1.186308
1.1860642
1.1865238
1.1865401
1.1857676
1.1853468
1.1858083
1.1854093
1.1858454
1.1854943
1.1859017
1.1856311
1.1859925
1.1858288
1.1861264
1.186108
1.1862705
1.1865827
1.185299
1.1849835
1.1854413
1.1851358
1.1855601
1.1852896
1.1856899
1.1854918
1.1858541
1.1857756
1.1860401
1.18618
1.1861334
1.1866895
1.1846591
1.1844255
1.1849533
1.184647
1.1852341
1.1849248
1.1855037
1.1852569
1.185771
1.1856834
1.1860359
1.1862451
1.1861764
1.1868088
1.184002
1.1838367
1.1844064
1.1841073
1.1848487
1.1844728
1.1852989
1.184982
1.1857305
1.1856071
1.1861483
1.1863181
1.1863729
1.1868605
1.183104
1.1829587
1.1837145
1.1833755
1.1843473
1.183912
1.1849806
1.1846125
1.1856041
1.1854349
1.1861818
1.1862566
1.1864445
1.1866936
1.1810053
1.1820196
1.1820478
1.1826813
1.1831791
1.1834445
1.1842231
1.1843012
1.1851287
1.1852172
1.1858341
1.1860155
1.1861202
1.1863257
1.1812762
1.1820666
1.1822368
1.182749
1.1831586
1.1835193
1.1840387
1.1843871
1.184848
1.1852658
1.1854746
1.1859181
1.1857114
1.1860685
1.1818214
1.1827807
1.1825751
1.1833574
1.183304
1.1840236
1.1840195
1.1848109
1.1846907
1.1855931
1.1851845
1.1860566
1.1852325
1.1858673
1.1821802
1.183774
1.1827976
1.1842555
1.1834155
1.184767
1.1840269
1.1853287
1.1845969
1.1859052
1.1849569
1.1862142
1.1847508
1.1856941
1.1837759
1.1864701
1.1839932
1.1865331
1.184286
1.1866487
1.1846588
1.1868199
1.1849974
1.1868725
1.1850556
1.1865251
1.1845201
1.1856259
1.188413
1.1936431
1.1879182
1.1928999
1.1873736
1.1919767
1.1868705
1.1908927
1.1864325
1.18952
1.1857085
1.1875411
1.1846093
1.1858037
1.1943
1.2018755
1.1933922
1.2008833
1.1921815
1.199349
1.1906956
1.1972
1.1889751
1.1941777
1.1870668
1.1897821
1.1851616
1.1865657
1.1969387
1.2042954
1.1961769
1.2038157
1.195135
1.2029623
1.1936882
1.2014242
1.1916424
1.1984921
1.1889947
1.1934562
1.1863084
1.1883645
1.194905
1.1990687
1.1944447
1.1989996
1.1939307
1.1990025
1.1932467
1.1989579
1.1921009
1.1983019
1.1902533
1.1956101
1.1877513
1.1907617
1.1911415
1.1922035
1.1908749
1.1922891
1.1906426
1.1925624
1.1904064
1.1929666
1.1900465
1.1933103
1.1894697
1.193017
1.1886388
1.191547
1.1896455
1.190096
1.1894343
1.1901087
1.1892228
1.1901736
1.1890554
1.1903261
1.1889636
1.190601
1.1890323
1.1910115
1.189227
1.191212
1.1887907
1.1896606
1.1886028
1.1895303
1.1884328
1.189439
1.1883806
1.1894813
1.1884848
1.1897079
1.1888292
1.1901731
1.1893813
1.1908012
1.1881923
1.1890287
1.1880946
1.1889376
1.1880316
1.1888969
1.18806
1.188948
1.1881838
1.1891046
1.1884943
1.1894057
1.1890504
1.1900234
1.188088
1.1889269
1.1881061
1.188916
1.1881417
1.1889305
1.1882068
1.188966
1.1883186
1.189002
1.1886096
1.1891193
1.1892638
1.1896649
1.1882894
1.1891188
1.1883734
1.1891599
1.188438
1.1891912
1.1884981
1.1892085
1.1886155
1.1892163
1.1889298
1.1893088
1.1897036
1.1899095
1.1885394
1.1893439
1.1886479
1.1894316
1.1887011
1.1894727
1.1887476
1.1894778
1.18888
1.1894715
1.1892262
1.1895576
1.1900862
1.1902318
1.1887343
1.1894805
1.1888391
1.1896013
1.1888744
1.1896342
1.1889322
1.1896297
1.1890975
1.1896328
1.1894786
1.1897493
1.1903869
1.1905164
1.1888347
1.1895022
1.1889437
1.1896342
1.1889871
1.1896602
1.1890781
1.1896737
1.1892807
1.1897173
1.189693
1.1898902
1.1906194
1.1907436
1.1888158
1.189393
1.1889467
1.1895337
1.1890217
1.1895798
1.1891555
1.189637
1.1893989
1.1897349
1.1898516
1.1899839
1.1908022
1.1909228
1.1887642
1.189261
1.1889102
1.189409
1.1890114
1.1894744
1.1891796
1.1895669
1.1894553
1.1897102
1.1899434
1.1900298
1.1909259
1.1910431
1.1887257
1.1891481
1.1888706
1.1892859
1.1889879
1.1893671
1.189182
1.1894922
1.1894841
1.1896745
1.1899992
1.1900443
1.1910125
1.1911145
1.1886736
1.1890297
1.1888206
1.1891617
1.188957
1.1892633
1.1891678
1.189411
1.1894875
1.1896218
1.1900237
1.1900324
1.1910582
1.1911485
1.1885889
1.1888497
1.1887245
1.1889746
1.1888697
1.1890939
1.1890963
1.1892669
1.1894321
1.1895034
1.1899889
1.1899533
1.1910351
1.1911174
1.188505
1.1886996
1.1886343
1.1888209
1.1887852
1.1889504
1.1890129
1.1891276
1.1893491
1.1893676
1.1899188
1.189843
1.1909781
1.1910556
1.1880769
1.1882048
1.187989
1.1880529
1.1873966
1.1876228
1.1857698
1.1860429
1.1880642
1.1881756
1.1879621
1.1880488
1.1873312
1.1875882
1.1857523
1.1860234
1.1879563
1.1880479
1.1878103
1.1879388
1.187142
1.1874296
1.1856831
1.1859342
1.1877268
1.1878308
1.1875483
1.1876987
1.1869051
1.1871878
1.1855976
1.1857913
1.1874194
1.1875541
1.1872272
1.1873861
1.1866504
1.1869116
1.1855092
1.1856279
1.1870445
1.1872415
1.1868559
1.1870299
1.1863804
1.1866384
1.1854202
1.1854677
1.1866197
1.1869651
1.1864458
1.1866904
1.1861162
1.1863833
1.1853358
1.1853196
1.1862426
1.1868198
1.1860682
1.18646
1.1858471
1.1860837
1.1852448
1.185155
1.1860488
1.1867984
1.1858228
1.1863254
1.1855436
1.185729
1.185131
1.1849291
1.186061
1.1868147
1.1857078
1.1862194
1.1853122
1.1854598
1.1849939
1.1846113
1.1861978
1.1867683
1.1857396
1.1861968
1.1852787
1.1854241
1.1849244
1.1844621
1.1861982
1.1865157
1.1857829
1.1860764
1.1853837
1.1854259
1.1849907
1.1844458
1.1858609
1.1861044
1.185501
1.1857301
1.1851175
1.1851436
1.1846966
1.1841335
1.1854242
1.1857349
1.1850461
1.1853005
1.1846269
1.1847127
1.1841662
1.1836854
1.1848214
1.1853168
1.1843668
1.1847195
1.1839426
1.1840734
1.1834394
1.1831193
1.1841853
1.1849013
1.1836355
1.1841329
1.1832268
1.1834312
1.1827487
1.1826402
1.1838535
1.1847281
1.1832456
1.1838932
1.182835
1.1831846
1.1824394
1.1825943
1.1838666
1.1848991
1.1832565
1.184081
1.1828556
1.1834343
1.1825607
1.1830515
1.1843211
1.1855514
1.1837087
1.1847258
1.1833286
1.1841513
1.1831141
1.1839444
1.1852529
1.1868108
1.1845829
1.1857972
1.1842817
1.1852554
1.184154
1.1851725
1.1865807
1.1885261
1.1857842
1.1870989
1.1856142
1.1865734
1.1856066
1.1864652
1.1878585
1.1898332
1.1870945
1.1882797
1.1872254
1.187911
1.187281
1.1876747
1.1888373
1.1903788
1.1883771
1.189223
1.1888338
1.1891613
1.1887366
1.1887746
1.1893368
1.1905777
1.1892357
1.1898525
1.1900471
1.1900673
1.1896777
1.1895538
1.1893141
1.1901379
1.1896772
1.1899215
1.190819
1.190544
1.1901721
1.1899929
1.1898335
1.1900194
1.1904164
1.1902199
1.191438
1.1909555
1.1904378
1.1902566
1.1904374
1.1904538
1.1910221
1.1907663
1.1918615
1.1913514
1.1906484
1.1905232
1.1908669
1.1908563
1.1913703
1.1911272
1.1920513
1.1915669
1.1907773
1.1906646
1.1911403
1.1911621
1.1915189
1.191331
1.1920666
1.191609
1.1908241
1.1906643
1.1913045
1.1913753
1.1915457
1.1914272
1.1919669
1.1915362
1.1907337
1.190559
1.1914351
1.1915491
1.1915656
1.1915078
1.1918438
1.1914459
1.1905636
1.1903818
1.1915391
1.1916748
1.1916122
1.1915753
1.1917827
1.1913898
1.1904207
1.1902112
1.1916226
1.1917593
1.1916711
1.1916304
1.1917719
1.191357
1.1903497
1.1900968
1.1916687
1.191813
1.1917003
1.1916618
1.1917557
1.1913229
1.1903044
1.1900141
1.1916487
1.1918107
1.1916718
1.191651
1.1917039
1.1912719
1.1902475
1.1899409
1.1915939
1.1917755
1.1916173
1.1916162
1.1916456
1.1912227
1.1902013
1.1899007
1.1847153
1.1850693
1.181181
1.180747
1.186502
1.1878775
1.184835
1.1851496
1.1812091
1.1807892
1.1866512
1.1880089
1.1849994
1.1852746
1.1812952
1.1808923
1.1868596
1.1881713
1.18513
1.1853799
1.1814078
1.1810078
1.1869986
1.1882868
1.1852214
1.1854566
1.1815183
1.1811068
1.1871088
1.1883907
1.1852541
1.1854807
1.1816166
1.1811936
1.18723
1.1885125
1.1852465
1.1854664
1.1817163
1.1812875
1.1873739
1.1886593
1.1852179
1.1854299
1.1818393
1.181411
1.1875346
1.1888317
1.1851783
1.1853778
1.1820005
1.1815751
1.1877279
1.1890481
1.1851383
1.1853152
1.1822094
1.1817843
1.1879657
1.1893196
1.1851139
1.1852551
1.1824698
1.1820445
1.1882346
1.1896307
1.1851382
1.1852353
1.1827885
1.1823756
1.1884941
1.189946
1.1852617
1.1853151
1.1832046
1.1828212
1.188699
1.1901752
1.1855796
1.1855691
1.1837421
1.1833798
1.1887474
1.1901622
1.1861051
1.1860191
1.1842668
1.1839355
1.188617
1.1897957
1.1865693
1.1864151
1.1844742
1.1841636
1.1880936
1.1889677
1.1866715
1.1864476
1.1843482
1.1840355
1.1873172
1.1878907
1.1864462
1.1861529
1.1839778
1.1836544
1.1864889
1.186799
1.1859834
1.1856829
1.183522
1.1832187
1.1858836
1.1859515
1.1853261
1.1851238
1.1831242
1.182859
1.1855353
1.1853903
1.1845088
1.1845255
1.1826339
1.1824798
1.1850416
1.1847501
1.1837645
1.1840391
1.1822455
1.1821981
1.1846751
1.1842649
1.1833599
1.1837954
1.1822447
1.1821964
1.1845969
1.1841026
1.1833365
1.1837811
1.1826692
1.1825652
1.1848234
1.1842501
1.1834997
1.1838682
1.1833577
1.1831809
1.1852361
1.1846015
1.1836026
1.1838931
1.1840923
1.1838395
1.1857116
1.1850333
1.1836235
1.1838719
1.1845502
1.1842658
1.1861536
1.1854541
1.1836413
1.1838493
1.1849369
1.1846093
1.1865636
1.1858661
1.1836383
1.1838051
1.1852838
1.1849039
1.186939
1.1862493
1.1836182
1.183749
1.185564
1.1851427
1.1872757
1.1865955
1.1836111
1.1837121
1.1857846
1.1853306
1.1875498
1.1868632
1.1836265
1.1837072
1.18597
1.1854815
1.1877569
1.187025
1.1836599
1.1837264
1.1861255
1.1856024
1.1879352
1.1871528
1.1837143
1.1837792
1.1862492
1.1856956
1.1880764
1.1872528
1.1837688
1.1838316
1.1863125
1.1857343
1.1881278
1.187292
1.183821
1.1838812
1.1863081
1.1857247
1.1880824
1.1872651
1.1847054
1.1842058
1.1839626
1.1832977
1.1829551
1.1828703
1.1857948
1.18443
1.1842416
1.1837819
1.1839728
1.184481
1.1847611
1.1842497
1.1840224
1.1833686
1.1830302
1.1829359
1.1858981
1.1844891
1.1842731
1.1837931
1.1839495
1.1844197
1.1848674
1.1843432
1.1841236
1.1834808
1.1831417
1.1830188
1.1860526
1.1846157
1.184366
1.1838309
1.1838936
1.1842508
1.1849241
1.1844247
1.1842175
1.183593
1.183259
1.1831129
1.1861337
1.1847243
1.1844771
1.183912
1.1838883
1.1841219
1.184963
1.1844906
1.1842901
1.1836795
1.1833539
1.1831982
1.1861798
1.1847912
1.184535
1.1839516
1.1838674
1.1840104
1.1850094
1.184559
1.1843448
1.1837282
1.183401
1.1832354
1.1862301
1.1848378
1.1845413
1.1839177
1.183783
1.1838536
1.1850758
1.1846466
1.1843938
1.1837537
1.1834147
1.183238
1.1863014
1.1848904
1.1845199
1.1838333
1.1836488
1.1836588
1.1851595
1.1847504
1.1844356
1.1837616
1.1834057
1.1832176
1.1863951
1.1849455
1.1844608
1.1836928
1.183457
1.1834204
1.1852573
1.1848701
1.1844643
1.1837444
1.1833713
1.1831759
1.1865053
1.1849813
1.1843315
1.1834593
1.1831727
1.1831047
1.18536
1.185002
1.1844767
1.183698
1.1833042
1.1831095
1.1866132
1.1849897
1.1841419
1.1831386
1.1827844
1.1826885
1.1854578
1.1851373
1.1844737
1.1836347
1.1832195
1.1830315
1.1867021
1.184986
1.1839254
1.1827816
1.1823473
1.1822087
1.1855159
1.185245
1.1844724
1.1836011
1.1831721
1.1829859
1.186748
1.1849713
1.183713
1.1824453
1.1819177
1.1817149
1.1854925
1.1853237
1.1845246
1.1836727
1.183256
1.1830727
1.1867177
1.1849758
1.1835874
1.1822432
1.1816367
1.181358
1.1853634
1.1853994
1.1846775
1.1839271
1.1835694
1.1834208
1.1866122
1.185057
1.1836624
1.1823457
1.181715
1.1813975
1.1851762
1.1855405
1.1850005
1.1844486
1.1842054
1.1841341
1.1865513
1.1853591
1.184116
1.1829682
1.1824092
1.182118
1.1849666
1.1857431
1.1854631
1.185127
1.1850468
1.1850842
1.1865439
1.1858875
1.1849415
1.1840785
1.1836917
1.1834844
1.1848826
1.1859749
1.1858811
1.1857161
1.1857601
1.1859286
1.1866411
1.1865121
1.1858615
1.1852817
1.1851108
1.1850523
1.184915
1.186227
1.1861795
1.1861141
1.1862123
1.1864751
1.1868335
1.1871662
1.1867166
1.1863578
1.1863923
1.1865232
1.1849468
1.1864163
1.1863679
1.1863177
1.1864293
1.1867305
1.1870971
1.1878221
1.1874858
1.1872678
1.1874524
1.1877591
1.1849356
1.1864793
1.1864437
1.186381
1.1865057
1.1868287
1.1873866
1.1884574
1.1881953
1.18805
1.1883118
1.1887554
1.1847966
1.1863515
1.186358
1.1863235
1.1865206
1.1869057
1.1875576
1.1890085
1.188851
1.1887479
1.1890406
1.1895653
1.1845902
1.1861209
1.1861344
1.1861605
1.186489
1.1869889
1.1874261
1.1892763
1.1892938
1.1893098
1.1896522
1.1902289
1.184499
1.1859033
1.1858749
1.1859178
1.1863871
1.1870217
1.1869236
1.189195
1.1893951
1.189595
1.1900401
1.1906573
1.1846675
1.1859197
1.185753
1.185712
1.1862576
1.1869856
1.1862503
1.1888912
1.1892569
1.1896072
1.1901609
1.1907874
1.1848733
1.186057
1.1857248
1.1855458
1.186099
1.1868772
1.185555
1.1884845
1.1889926
1.1894653
1.1900975
1.1907094
1.184974
1.1861792
1.1857236
1.1854138
1.1859326
1.1867242
1.1849108
1.1880551
1.188671
1.1892418
1.1899202
1.1905344
1.1849727
1.1862444
1.1857185
1.1853103
1.1857702
1.1865461
1.1843464
1.1876552
1.1883417
1.1889832
1.1896952
1.1903202
1.1848932
1.1862631
1.1856995
1.1852321
1.1856435
1.1863869
1.1838551
1.1873065
1.1880422
1.1887251
1.1894614
1.1901072
1.184775
1.1862551
1.185672
1.1851754
1.1855512
1.1862506
1.1834288
1.1870072
1.1877851
1.1884938
1.1892479
1.1899209
1.1846527
1.1862375
1.185654
1.1851474
1.1854993
1.1861463
1.1830727
1.1867629
1.1875775
1.1883034
1.1890719
1.1897663
1.1845487
1.1862272
1.1856575
1.1851522
1.1854929
1.1860781
1.1827855
1.1865759
1.1874262
1.1881604
1.1889328
1.1896286
1.1844631
1.1862363
1.1856931
1.1851935
1.1855262
1.1860479
1.1825561
1.1864396
1.1873283
1.1880592
1.1888172
1.1894905
1.1843914
1.1862679
1.1857572
1.1852617
1.1855866
1.1860522
1.1823741
1.186342
1.1872609
1.1879726
1.1886973
1.189329
1.1843175
1.1862998
1.1858162
1.185323
1.1856521
1.1860804
1.1822159
1.1862458
1.1871822
1.1878646
1.188544
1.1891374
1.1842056
1.1862868
1.185826
1.1853408
1.1856834
1.1860974
1.1820354
1.1861102
1.1870689
1.187733
1.1883806
1.1889672
1.1841044
1.1862521
1.1858121
1.1853293
1.1856734