/*--------------------------------*- C++ -*----------------------------------*\
| =========                 |                                                 |
| \\      /  F ield         | OpenFOAM: The Open Source CFD Toolbox           |
|  \\    /   O peration     | Version:  2206                                  |
|   \\  /    A nd           | Website:  www.openfoam.com                      |
|    \\/     M anipulation  |                                                 |
\*---------------------------------------------------------------------------*/
FoamFile
{
    version     2.0;
    format      ascii;
    arch        "LSB;label=32;scalar=64";
    class       volScalarField;
    location    "400";
    object      T;
}
// * * * * * * * * * * * * * * * * * * * * * * * * * * * * * * * * * * * * * //

dimensions      [0 0 0 1 0 0 0];

internalField   nonuniform List<scalar> 
50904
(
291.9658
291.79719
290.65802
290.43468
291.99941
291.82643
290.71037
290.47601
292.12195
291.95815
290.92507
290.66183
292.29372
292.16297
291.23746
290.96048
292.44761
292.35316
291.54317
291.2839
292.57358
292.51024
291.82203
291.59146
292.6826
292.64538
292.07896
291.88581
292.78203
292.76975
292.31955
292.16853
292.88097
292.89121
292.55295
292.4445
292.97889
293.0113
292.78376
292.71415
293.07559
293.12912
293.01717
292.98201
293.16854
293.24122
293.25692
293.2534
293.23326
293.32809
293.48554
293.51217
293.2358
293.35
293.66164
293.71582
293.09133
293.22232
293.68956
293.77894
292.74998
292.88279
293.50285
293.63382
292.28527
292.3982
293.14178
293.29812
291.84803
291.92583
292.6805
292.84174
291.55006
291.58968
292.22211
292.3531
291.4184
291.43975
291.88372
291.9434
291.39277
291.41504
291.74026
291.72769
291.41242
291.45257
291.77702
291.71512
291.44175
291.49782
291.86745
291.79255
291.4642
291.5204
291.91245
291.84188
291.4698
291.51317
291.87613
291.83394
291.46042
291.48826
291.80515
291.79588
291.43925
291.45453
291.72547
291.73873
291.41503
291.41924
291.6474
291.67617
291.39153
291.38548
291.57604
291.61346
291.36977
291.35561
291.51223
291.55498
291.34962
291.33023
291.45195
291.4966
291.32946
291.30776
291.3917
291.43665
291.30823
291.28707
291.33
291.37638
291.28491
291.26762
291.2678
291.3192
291.26101
291.24848
291.21452
291.27163
291.25071
291.23911
291.19246
291.25317
289.96368
289.85875
290.13262
290.14338
290.39586
290.47778
290.53224
290.60839
290.62989
290.67723
290.70647
290.72598
290.77505
290.77486
289.97347
289.86224
290.06398
290.09538
290.31979
290.44547
290.46416
290.59715
290.57506
290.68485
290.66417
290.74293
290.74341
290.79739
290.02034
289.88999
289.89982
289.92261
290.12404
290.27582
290.2749
290.48454
290.38977
290.61557
290.48568
290.70712
290.57464
290.78229
290.15623
289.98683
289.79689
289.77535
289.93876
290.04582
290.08588
290.2706
290.20429
290.43824
290.30465
290.56558
290.39723
290.66811
290.39066
290.17854
289.79549
289.72202
289.79774
289.85774
289.91316
290.04042
290.03287
290.21092
290.15163
290.36517
290.266
290.49936
290.69681
290.46183
289.91153
289.78546
289.77971
289.75992
289.79063
289.85679
289.87231
289.9833
289.97631
290.13062
290.10731
290.29806
291.05149
290.81319
290.17495
289.98976
289.90216
289.80136
289.82331
289.79393
289.81898
289.84567
289.86134
289.92243
289.9371
290.03814
291.4322
291.20487
290.57265
290.33569
290.22367
290.02932
290.05988
289.9208
289.98628
289.89181
289.95886
289.89917
289.9621
289.93464
291.8228
291.61666
291.05678
290.78186
290.69663
290.42257
290.49085
290.25146
290.37052
290.16602
290.29463
290.12036
290.24518
290.09823
292.21093
292.0283
291.56801
291.26575
291.23919
290.89655
291.02911
290.69582
290.88931
290.57976
290.78599
290.50342
290.70213
290.448
292.59154
292.42769
292.0581
291.73365
291.77637
291.38016
291.58651
291.1754
291.44895
291.04629
291.33565
290.95119
291.23129
290.87128
292.96955
292.81694
292.50112
292.15233
292.25007
291.81371
292.08101
291.61726
291.95422
291.48862
291.84386
291.38693
291.73538
291.29394
293.34516
293.19742
292.91042
292.52724
292.65896
292.17644
292.48714
291.9718
292.35729
291.83589
292.24318
291.7264
292.1297
291.62412
293.69042
293.55299
293.28926
292.86069
293.00692
292.45762
292.81459
292.21687
292.67244
292.06166
292.55324
291.94324
292.44066
291.83863
293.91939
293.84965
293.62301
293.21453
293.30286
292.72466
293.05776
292.39599
292.86984
292.17711
292.71328
292.01069
292.55552
291.85411
293.89441
293.91773
293.81807
293.64899
293.67868
293.38134
293.54979
293.17638
293.44155
293.02211
293.3451
292.89455
293.25076
292.77555
293.63434
293.74436
293.57042
293.59389
293.46161
293.44821
293.38494
293.36549
293.33415
293.31812
293.29614
293.28452
293.26312
293.25441
293.18048
293.34679
292.97315
293.07857
292.70255
292.72235
292.50752
292.45956
292.38636
292.29264
292.31492
292.19248
292.27469
292.1355
292.63986
292.83222
292.25797
292.36477
291.78375
291.72159
291.42175
291.2037
291.18721
290.85369
291.0445
290.63288
290.96135
290.49911
292.11984
292.29795
291.66765
291.72822
291.15891
291.01539
290.77308
290.44907
290.52052
290.06637
290.3645
289.82284
290.27143
289.67283
291.76289
291.85943
291.43523
291.43224
291.12162
290.98193
290.88929
290.64798
290.73712
290.42756
290.64263
290.28947
290.58576
290.20507
291.68939
291.61068
291.50336
291.41956
291.41205
291.30048
291.35802
291.22806
291.32374
291.18403
291.30148
291.1553
291.28637
291.13444
291.84196
291.55966
291.61485
291.34533
291.54119
291.29613
291.51391
291.28109
291.50033
291.2703
291.49058
291.2573
291.48243
291.24129
292.01651
291.59914
291.73058
291.17751
291.57363
290.9846
291.48055
290.87762
291.42576
290.8131
291.39379
290.77158
291.37604
290.74396
292.10409
291.66225
291.84352
291.12628
291.67935
290.83745
291.57555
290.67108
291.51273
290.5764
291.47088
290.51801
291.43558
290.4754
292.09297
291.68617
291.84764
291.11893
291.69494
290.79702
291.59563
290.60488
291.52698
290.4846
291.4688
290.40154
291.41588
290.34336
292.03928
291.67607
291.78724
291.11815
291.64439
290.8101
291.55581
290.6259
291.49069
290.5065
291.43383
290.42097
291.38231
290.35877
291.97835
291.65129
291.72089
291.11802
291.58192
290.8455
291.50083
290.69057
291.44197
290.59175
291.39076
290.51864
291.3427
290.46009
291.92235
291.62142
291.6685
291.11599
291.53342
290.88229
291.45473
290.7573
291.39831
290.68002
291.35013
290.61995
291.30455
290.56779
291.87318
291.58986
291.62905
291.1107
291.50215
290.91367
291.42681
290.81175
291.37337
290.74856
291.32663
290.69748
291.28212
290.65033
291.82937
291.55627
291.59518
291.09979
291.47988
290.93643
291.40844
290.85257
291.35684
290.79816
291.31195
290.75378
291.26833
290.71058
291.78625
291.51978
291.56447
291.08072
291.45686
290.94506
291.39131
290.87546
291.33861
290.82636
291.29165
290.78413
291.2467
290.74296
291.74233
291.48439
291.52334
291.04856
291.41497
290.92882
291.35257
290.87001
291.29851
290.82394
291.24653
290.77981
291.19555
290.73525
291.69978
291.45924
291.46623
291.00764
291.33308
290.87491
291.26638
290.81483
291.21387
290.76963
291.16107
290.72621
291.10977
290.68362
291.66794
291.45651
291.41735
290.98585
291.22891
290.81096
291.13089
290.72697
291.07129
290.67936
291.02747
290.64591
290.99064
290.61964
291.66113
291.46935
291.41747
291.00041
291.19721
290.80201
291.07713
290.70593
291.00852
290.65838
290.96307
290.63063
290.92816
290.60921
290.84402
290.82722
290.90505
290.87933
290.96929
290.93673
291.03994
291.00216
291.11549
291.06839
291.20393
291.13082
290.82155
290.85295
290.88978
290.90724
290.95782
290.96324
291.0281
291.02099
291.10352
291.07684
291.20091
291.13267
290.66615
290.84878
290.74949
290.90184
290.83386
290.95575
290.92512
291.01046
291.02378
291.06301
291.15377
291.1145
290.49315
290.76085
290.58248
290.83492
290.67673
290.90413
290.78739
290.97136
290.91174
291.02492
291.06215
291.07365
290.38128
290.61757
290.48259
290.70929
290.58281
290.79616
290.69308
290.88686
290.81506
290.96907
290.96526
291.02636
290.2567
290.46926
290.38622
290.59227
290.50333
290.69141
290.62255
290.78873
290.7438
290.88971
290.88461
290.98487
290.0708
290.2186
290.24142
290.41348
290.39702
290.57029
290.54733
290.70296
290.69056
290.82437
290.83694
290.95009
289.99461
290.00507
290.08406
290.12987
290.23222
290.3206
290.42517
290.54749
290.62608
290.74768
290.81882
290.92324
290.21536
290.09606
290.21011
290.11632
290.2317
290.16861
290.31655
290.30521
290.5231
290.57148
290.80268
290.86824
290.62763
290.40449
290.57106
290.37902
290.53292
290.37345
290.51243
290.39508
290.55076
290.49063
290.76822
290.75791
291.12365
290.79397
291.02346
290.72653
290.93164
290.67548
290.83085
290.63345
290.73253
290.61463
290.75515
290.71366
291.61424
291.19469
291.48996
291.09814
291.36341
291.00169
291.19826
290.88753
290.96666
290.75894
290.76636
290.6867
291.99928
291.51077
291.85864
291.39527
291.70858
291.27945
291.50185
291.12832
291.18499
290.91103
290.82526
290.70681
292.31488
291.72582
292.18057
291.61124
292.0356
291.49429
291.83058
291.33613
291.49354
291.09023
291.01207
290.78504
292.36319
291.68537
292.17249
291.54565
292.02229
291.44187
291.86374
291.32149
291.62605
291.13034
291.2321
290.86325
293.12872
292.6221
292.94911
292.40035
292.73698
292.16713
292.48694
291.92334
292.18918
291.66054
291.79216
291.33139
293.22476
293.21781
293.17047
293.17097
293.08915
293.1043
292.95923
292.97307
292.76367
292.74353
292.48201
292.42816
292.24517
292.09491
292.22479
292.07053
292.20836
292.05922
292.18827
292.05589
292.15835
292.05974
292.1027
292.05826
290.90832
290.40811
290.87562
290.34617
290.85463
290.31189
290.83669
290.28817
290.81927
290.2624
290.78563
290.1978
290.20879
289.56646
290.1662
289.49014
290.13294
289.43663
290.09434
289.37885
290.0384
289.28146
289.93575
289.06156
290.54657
290.14509
290.5184
290.09925
290.4943
290.06098
290.46281
290.01069
290.40845
289.92322
290.29444
289.72809
291.27587
291.11775
291.26433
291.09473
291.24893
291.06163
291.2208
291.00762
291.16278
290.90945
291.02935
290.7136
291.47269
291.21581
291.45818
291.17493
291.43703
291.12338
291.4008
291.05125
291.32109
290.93476
291.15188
290.72111
291.36225
290.71619
291.34736
290.68457
291.32485
290.65045
291.28626
290.60575
291.21786
290.53975
291.13301
290.44064
291.39346
290.43538
291.34809
290.40035
291.30254
290.37414
291.25407
290.35335
291.20919
290.33961
291.19373
290.33392
291.35968
290.29765
291.31025
290.2659
291.26424
290.24381
291.21966
290.22894
291.1829
290.22239
291.16765
290.21769
291.32548
290.30465
291.27269
290.26394
291.21786
290.22925
291.15872
290.19765
291.09928
290.1666
291.04564
290.12273
291.28735
290.3996
291.23228
290.34546
291.17104
290.29277
291.10031
290.23822
291.02099
290.17835
290.93562
290.09182
291.25218
290.51059
291.19847
290.45553
291.13697
290.39555
291.06295
290.32521
290.97457
290.24498
290.87451
290.13995
291.23131
290.59695
291.17834
290.54452
291.11679
290.48641
291.04034
290.41625
290.94783
290.32493
290.84241
290.21425
291.21652
290.65893
291.16206
290.60722
291.09878
290.54926
291.02166
290.47762
290.92637
290.38496
290.81592
290.27261
291.19241
290.69364
291.13561
290.642
291.06997
290.57962
290.99135
290.50214
290.8948
290.41152
290.78536
290.31046
291.13688
290.68252
291.07848
290.62985
291.01181
290.57031
290.93573
290.50388
290.8485
290.42739
290.75094
290.33481
291.05318
290.63665
291.0009
290.59463
290.94339
290.54843
290.88103
290.49897
290.8062
290.44079
290.71918
290.36889
290.95245
290.59386
290.91875
290.57385
290.8806
290.55173
290.83934
290.52807
290.79091
290.5015
290.72937
290.46583
290.89287
290.58601
290.86087
290.56558
290.82588
290.54301
290.78858
290.52135
290.75102
290.50661
290.72188
290.50313
291.27671
291.18304
291.30822
291.21751
291.33572
291.25442
291.36838
291.29468
291.40787
291.33991
291.45407
291.39011
291.28905
291.18145
291.33547
291.20745
291.36486
291.2408
291.3934
291.27869
291.42558
291.32117
291.46519
291.36716
291.28606
291.16223
291.36328
291.16843
291.4017
291.1855
291.42861
291.21405
291.4568
291.25486
291.48921
291.30611
291.21264
291.11289
291.31021
291.11363
291.36532
291.13259
291.41057
291.16431
291.45271
291.20665
291.49252
291.26292
291.11042
291.06418
291.21122
291.08338
291.27479
291.11415
291.3349
291.15397
291.39598
291.2049
291.45766
291.23375
291.0085
291.04145
291.09537
291.08526
291.15803
291.12774
291.22328
291.17446
291.3009
291.23322
291.38719
291.27736
290.94123
291.03906
291.01242
291.10471
291.07078
291.15454
291.13735
291.20704
291.22463
291.2749
291.33206
291.34993
290.92857
291.037
290.99231
291.11164
291.04884
291.16153
291.11825
291.21318
291.21733
291.28013
291.35042
291.37207
290.96523
291.01624
291.038
291.09263
291.09482
291.13995
291.16578
291.18875
291.27288
291.25199
291.41942
291.34303
291.02627
290.97089
291.14702
291.05591
291.21711
291.10831
291.29405
291.16233
291.39592
291.23427
291.51832
291.34085
290.98192
290.88179
291.12667
290.95529
291.21313
291.00473
291.30544
291.06231
291.42214
291.14439
291.55627
291.26901
290.85436
290.76139
290.95357
290.81424
291.01847
290.85527
291.08786
290.90571
291.18989
290.98184
291.35067
291.11013
290.76902
290.67585
290.81201
290.70251
290.84838
290.73067
290.89087
290.76759
290.95384
290.82471
291.06143
290.92506
290.83716
290.68552
290.83272
290.68979
290.84672
290.705
290.86864
290.72638
290.90615
290.75941
290.97967
290.8189
291.00973
290.75438
290.96698
290.74822
290.96067
290.75602
290.96203
290.76581
290.97047
290.78037
290.99527
290.80944
291.50359
291.15498
291.41767
291.15172
291.38638
291.15632
291.36075
291.15404
291.32596
291.14668
291.27108
291.13693
292.24812
292.2654
292.13597
292.24587
292.0874
292.23971
292.05067
292.22683
292.0045
292.2021
291.9222
292.1499
292.01718
292.00784
291.95196
291.96671
291.92947
291.9587
291.92407
291.9684
291.92812
291.99453
291.94291
292.05447
290.70791
290.01155
290.67355
289.87582
290.67642
289.83648
290.70076
289.8451
290.74614
289.89013
290.84099
290.00198
289.78938
288.70134
289.72056
288.41829
289.7186
288.33057
289.74081
288.30649
289.78487
288.31807
289.8802
288.37582
290.13334
289.39637
290.03913
289.08849
290.02195
288.99084
290.02478
288.9444
290.04078
288.91699
290.08192
288.89543
290.83611
290.43812
290.74882
290.2304
290.72644
290.16001
290.716
290.11474
290.70819
290.06984
290.69982
289.99512
291.00426
290.45048
290.99298
290.29482
290.99644
290.24345
290.99763
290.21106
290.9948
290.17642
290.98392
290.11605
291.14626
290.33013
291.22601
290.24528
291.25145
290.22149
291.25381
290.21313
291.22523
290.21115
291.14693
290.21191
291.25422
290.32127
291.31293
290.29285
291.30838
290.28705
291.26284
290.28696
291.18192
290.2791
291.0649
290.25652
291.1988
290.19794
291.22491
290.17916
291.20291
290.17795
291.15201
290.18026
291.07687
290.17857
290.97441
290.17609
291.02847
290.06352
291.04439
290.03893
291.03673
290.05856
291.01047
290.08993
290.96323
290.11468
290.89191
290.13451
290.8681
289.9891
290.8593
289.93789
290.86094
289.95329
290.86429
290.00565
290.8537
290.05713
290.82026
290.09654
290.77925
290.0165
290.74058
289.93694
290.72168
289.92226
290.71725
289.95054
290.72591
290.01384
290.73361
290.07531
290.7385
290.1039
290.69328
290.0353
290.6645
290.00883
290.637
289.99604
290.60825
290.00485
290.59587
290.04783
290.70999
290.17608
290.66786
290.13331
290.63956
290.11387
290.61228
290.09939
290.5778
290.08361
290.53228
290.07348
290.67845
290.21867
290.63634
290.1791
290.6055
290.15899
290.57659
290.14619
290.54312
290.13632
290.50318
290.12936
290.64421
290.2489
290.59841
290.20476
290.56478
290.18283
290.53468
290.17181
290.50313
290.16701
290.46938
290.16971
290.62451
290.30097
290.57225
290.25579
290.53574
290.23549
290.50931
290.23002
290.48687
290.23332
290.46934
290.24557
290.65656
290.41345
290.61121
290.38705
290.58384
290.38207
290.56691
290.38698
290.55588
290.39825
290.55179
290.4167
290.71279
290.52128
290.73061
290.56706
290.73649
290.59481
290.73723
290.61505
290.73547
290.63375
290.7349
290.65545
291.49355
291.43443
291.53347
291.48027
291.57442
291.52932
291.61578
291.58469
291.65866
291.64843
291.70962
291.72691
291.79841
291.86403
291.50206
291.41187
291.54071
291.46278
291.58163
291.51974
291.62339
291.58254
291.66568
291.66149
291.71549
291.74399
291.80451
291.8808
291.52698
291.35401
291.56791
291.40955
291.6129
291.47768
291.65934
291.56503
291.70188
291.67939
291.74717
291.78592
291.83297
291.93791
291.53315
291.27137
291.58171
291.27276
291.63458
291.31819
291.69057
291.45026
291.74765
291.6424
291.79682
291.81305
291.88411
292.00986
291.50681
291.19247
291.56385
291.13318
291.63305
291.12805
291.70811
291.26539
291.78186
291.53599
291.848
291.81411
291.9509
292.07376
291.45655
291.22173
291.52599
291.10555
291.60652
291.04316
291.69935
291.12714
291.80116
291.41391
291.89906
291.78828
292.0334
292.12127
291.41509
291.33951
291.49048
291.22156
291.57251
291.11699
291.67084
291.12621
291.80037
291.33872
291.94383
291.74626
292.12264
292.10653
291.44544
291.42238
291.51545
291.37467
291.57389
291.24957
291.64034
291.19786
291.75952
291.31862
291.95306
291.65143
292.18229
292.0008
291.51597
291.42618
291.57173
291.46431
291.59623
291.39836
291.61494
291.29122
291.68675
291.32186
291.88671
291.55576
292.13492
291.89854
291.60215
291.43529
291.6425
291.50053
291.639
291.50179
291.61694
291.39805
291.6345
291.31911
291.76854
291.47891
292.00645
291.87609
291.64624
291.39418
291.68875
291.48186
291.66571
291.5085
291.60408
291.43521
291.56711
291.31932
291.63666
291.45342
291.94121
291.99097
291.49573
291.24356
291.58928
291.34023
291.60298
291.38348
291.54121
291.35939
291.48192
291.31367
291.56705
291.49622
291.98576
292.12284
291.18669
291.03945
291.29464
291.12951
291.36116
291.18739
291.35546
291.22466
291.37462
291.2964
291.57154
291.58933
292.03038
292.07076
291.07965
290.89717
291.17856
290.96943
291.24654
291.03225
291.27854
291.10909
291.35609
291.27826
291.61473
291.62119
291.96167
291.97831
291.03834
290.85451
291.09445
290.91026
291.15431
290.9752
291.20538
291.05246
291.30937
291.22311
291.5662
291.59897
291.83955
291.86653
291.22712
291.13625
291.2004
291.15334
291.18686
291.2018
291.19025
291.28503
291.26821
291.40183
291.503
291.63499
291.76256
291.80881
291.80723
292.07798
291.68559
292.01189
291.54728
291.957
291.4046
291.94778
291.3857
292.01928
291.57435
292.09423
291.76246
291.89346
291.9671
292.16816
291.97969
292.29249
291.95683
292.40418
291.85581
292.48455
291.67995
292.50597
291.71525
292.3688
291.75417
291.89531
291.02782
290.24387
291.29468
290.65757
291.60441
291.22217
291.87035
291.78324
291.95788
292.18453
291.83919
292.09935
291.65344
291.38323
290.08202
288.51903
290.39324
288.7997
290.82295
289.29466
291.32868
289.96657
291.78816
290.7467
291.81318
291.12759
291.42275
290.38946
290.17598
288.88243
290.32518
288.88782
290.54947
288.93905
290.861
289.08594
291.27604
289.40095
291.49158
289.82613
291.03204
289.45177
290.69433
289.86022
290.7003
289.70028
290.71467
289.50504
290.7512
289.3163
290.83473
289.17541
290.87812
289.14248
290.60854
289.27143
290.96399
290.03323
290.92394
289.94452
290.83943
289.83354
290.71892
289.69385
290.5863
289.5329
290.44357
289.477
290.50392
289.84069
291.05066
290.19975
290.92652
290.17679
290.78175
290.13678
290.62313
290.07929
290.43705
290.01658
290.3113
290.05158
290.66257
290.54615
290.95992
290.24118
290.83558
290.23977
290.69367
290.24656
290.53142
290.25966
290.36861
290.28893
290.31441
290.43546
290.90832
291.02029
290.88547
290.18323
290.77702
290.20751
290.65064
290.24885
290.51551
290.31148
290.41349
290.41932
290.4688
290.6663
291.19179
291.33502
290.8293
290.15661
290.74847
290.19524
290.64934
290.24802
290.55131
290.32294
290.50688
290.45486
290.6646
290.81995
291.41078
291.53964
290.78773
290.1341
290.74001
290.18768
290.67556
290.24844
290.62131
290.33532
290.63772
290.50697
290.85659
290.92849
291.55991
291.66002
290.73748
290.12557
290.72775
290.19021
290.70174
290.2597
290.69068
290.36464
290.75252
290.58028
290.98905
290.99459
291.62744
291.69453
290.62238
290.12116
290.65375
290.19933
290.67377
290.28264
290.70199
290.40803
290.7918
290.62973
291.02713
291.01093
291.61256
291.66895
290.51401
290.10768
290.531
290.18733
290.58061
290.28881
290.64508
290.42305
290.75632
290.63582
290.99196
290.99117
291.54928
291.61746
290.48189
290.14699
290.47757
290.19889
290.51175
290.29268
290.58513
290.4264
290.70566
290.62689
290.94124
290.95957
291.4864
291.56589
290.45653
290.19655
290.46473
290.2481
290.50109
290.328
290.56767
290.44742
290.68497
290.6331
290.91594
290.94771
291.45105
291.53765
290.46915
290.27254
290.4788
290.31884
290.51802
290.38982
290.57944
290.49446
290.68995
290.66519
290.91452
290.96228
291.43644
291.53059
290.56111
290.44455
290.57898
290.48505
290.60779
290.53535
290.63837
290.59874
290.73329
290.74912
290.94322
291.01498
291.4388
291.54048
290.74047
290.6796
290.74791
290.71005
290.76019
290.74331
290.7799
290.79436
290.84176
290.89729
291.00647
291.09901
291.4579
291.56164
291.88998
291.98982
291.94716
292.0168
291.92459
292.02819
291.77755
291.9552
291.90256
292.01751
291.96524
292.05037
291.95498
292.0607
291.8178
291.98775
291.94497
292.10366
292.0194
292.14229
292.01739
292.1442
291.89568
292.07526
292.01272
292.19307
292.09608
292.22355
292.09692
292.2244
291.98087
292.18029
292.09806
292.25427
292.19349
292.27443
292.19887
292.28021
292.07734
292.28685
292.19656
292.26916
292.28749
292.25698
292.2965
292.31534
292.1809
292.38964
292.28178
292.2118
292.33248
292.25203
292.36203
292.37087
292.27722
292.48413
292.29606
292.1564
292.30943
292.29726
292.40809
292.45367
292.35798
292.58432
292.21876
292.17233
292.32958
292.40496
292.46616
292.55748
292.42115
292.69327
292.19249
292.29881
292.36849
292.50499
292.5221
292.63448
292.46763
292.78831
292.24876
292.39614
292.39808
292.49859
292.54577
292.64943
292.49276
292.85118
292.28146
292.32876
292.37918
292.4239
292.52494
292.62204
292.4422
292.86876
292.18425
292.17792
292.30771
292.31294
292.45185
292.5504
292.28506
292.82481
292.06609
292.04693
292.21249
292.19734
292.32898
292.44099
292.06497
292.72573
291.97121
291.95384
292.10103
292.09914
292.16409
292.32042
291.83839
292.58461
291.90234
291.91116
291.98629
292.0431
292.00532
292.2382
291.67529
292.47192
291.84258
291.8886
291.91588
292.0283
291.90005
292.22098
291.61249
292.42926
291.79877
291.78902
291.8974
292.03132
291.87312
292.27048
291.63235
292.46856
291.71638
291.46245
291.91663
292.00632
291.93725
292.37497
291.7412
292.57474
291.54422
290.87149
291.95508
291.93736
292.08323
292.52061
291.94489
292.72403
291.32468
290.42371
292.03159
291.94518
292.29905
292.68279
292.18646
292.87714
291.31379
290.59276
292.23541
292.19786
292.54588
292.87073
292.44483
293.02416
291.55768
291.16829
292.47324
292.52273
292.76826
293.02522
292.68041
293.13589
291.8272
291.68694
292.63299
292.72488
292.91591
293.09986
292.8454
293.17641
292.03769
292.00374
292.72691
292.80621
292.99447
293.11442
292.93603
293.15798
292.20685
292.19853
292.78005
292.838
293.01904
293.09675
292.9533
293.09856
292.29585
292.30533
292.77687
292.82269
292.99146
293.04537
292.91061
293.0012
292.31612
292.33261
292.72374
292.75422
292.91678
292.93517
292.81225
292.85039
292.27847
292.29652
292.62741
292.65252
292.78498
292.78954
292.65756
292.67569
292.19737
292.23208
292.51156
292.55316
292.63671
292.65914
292.49842
292.5394
292.09773
292.16318
292.40465
292.47579
292.52046
292.57187
292.3916
292.44973
292.02189
292.10808
292.3272
292.4163
292.44284
292.51156
292.32296
292.38688
291.97553
292.07169
292.27446
292.36912
292.38914
292.4654
292.27328
292.33933
291.94317
292.04499
292.2332
292.32814
292.34818
292.42807
292.23567
292.30065
291.9198
292.0205
292.1982
292.28688
292.31453
292.39515
292.20547
292.26626
291.91373
292.00735
292.18138
292.26558
292.2976
292.37965
292.19139
292.25024
292.51348
292.46885
292.48533
292.36533
291.20389
291.30266
292.51322
292.4741
292.49549
292.37222
291.17734
291.28295
292.53392
292.49847
292.50588
292.37391
291.13975
291.25806
292.57406
292.53717
292.51014
292.37525
291.12922
291.24883
292.61606
292.57687
292.5134
292.38175
291.13775
291.2497
292.65808
292.61383
292.51594
292.39017
291.15817
291.25638
292.70008
292.64789
292.51787
292.39817
291.18769
291.26679
292.74078
292.67957
292.51703
292.40266
291.22527
291.27886
292.7776
292.70699
292.51076
292.4009
291.26584
291.29046
292.80682
292.72815
292.49589
292.39019
291.30158
291.30113
292.8232
292.73774
292.46868
292.36857
291.33059
291.30505
292.81399
292.72347
292.42043
292.32852
291.34587
291.28972
292.75063
292.6586
292.33499
292.25332
291.32857
291.2508
292.60066
292.51271
292.19498
292.12779
291.26652
291.1757
292.30943
292.23392
291.97729
291.92885
291.16037
291.06368
291.89883
291.84361
291.70233
291.67239
291.04674
290.93052
291.50064
291.46796
291.44635
291.4266
290.9488
290.84486
291.23311
291.21388
291.28571
291.26708
290.90549
290.81557
291.11727
291.10077
291.22197
291.2033
290.91402
290.83268
291.09714
291.0771
291.20585
291.1885
290.95396
290.87739
291.13641
291.0953
291.19945
291.18383
290.99977
290.93556
291.17335
291.13752
291.18501
291.18357
291.07931
291.02362
291.18719
291.17235
291.2136
291.23625
291.18134
291.1425
291.18418
291.18476
291.29399
291.32333
291.28831
291.26806
291.17642
291.17593
291.38194
291.40225
291.37855
291.36278
291.16208
291.14894
291.4377
291.44538
291.43702
291.41049
291.12765
291.10273
291.45383
291.4425
291.46524
291.41989
291.08317
291.04808
291.4422
291.40704
291.47226
291.4028
291.04483
291.00325
291.41771
291.35896
291.46228
291.36597
291.01839
290.97181
291.39965
291.32081
291.44095
291.31895
291.0007
290.95167
291.39124
291.29767
291.41921
291.2761
290.9927
290.94265
291.38788
291.28565
291.4066
291.24761
290.9943
290.944
291.39291
291.28416
291.40268
291.23035
291.00774
290.95435
291.40981
291.2972
291.40694
291.22049
291.03156
290.97453
291.44685
291.33425
291.42217
291.21854
291.03863
290.97745
291.48411
291.37147
291.4401
291.22414
291.56012
291.65525
291.91786
292.15908
292.26398
292.1325
291.57683
291.62653
291.80584
291.82515
291.49647
291.00673
291.55209
291.65809
291.92743
292.16971
292.28392
292.16688
291.55953
291.63402
291.83421
291.87447
291.56688
291.07572
291.53327
291.66872
291.95919
292.20944
292.34178
292.2689
291.53569
291.65621
291.89635
292.00319
291.7603
291.31122
291.52048
291.68056
291.99058
292.25588
292.41139
292.39603
291.52177
291.68419
291.95279
292.11893
291.96454
291.59918
291.51194
291.6899
292.01655
292.29646
292.47077
292.5068
291.51329
291.70653
292.00113
292.20793
292.13439
291.85548
291.50578
291.69766
292.03836
292.33325
292.52485
292.59551
291.50789
291.72627
292.0458
292.28079
292.27689
292.07952
291.50043
291.70543
292.05929
292.36873
292.57585
292.67156
291.50413
291.74554
292.09095
292.34897
292.40366
292.27891
291.49736
291.71475
292.08165
292.4057
292.62798
292.74614
291.50299
291.7663
292.13827
292.42075
292.52361
292.46268
291.49785
291.72769
292.10784
292.44667
292.68375
292.82173
291.50557
291.79075
292.19133
292.50171
292.64621
292.64166
291.50409
291.74625
292.13999
292.49289
292.74384
292.89969
291.5133
291.8217
292.25408
292.59473
292.77741
292.82293
291.51409
291.77178
292.17826
292.54255
292.80542
292.97786
291.52555
291.86301
292.32957
292.70106
292.92013
293.01202
291.52798
291.80305
292.21899
292.58908
292.86054
293.04837
291.5422
291.91771
292.41728
292.81705
293.07147
293.20952
291.54439
291.83229
292.24949
292.61542
292.88977
293.09313
291.56392
291.98229
292.50468
292.9235
293.21019
293.39536
291.56676
291.85013
292.25199
292.59726
292.86384
293.07584
291.59719
292.04564
292.56971
292.98828
293.29666
293.52561
291.57132
291.8384
292.1974
292.49406
292.72687
292.92797
291.62006
292.08501
292.57858
292.96219
293.26319
293.52442
291.55339
291.77342
292.06353
292.28335
292.4492
292.60463
291.62453
292.07384
292.5006
292.81269
293.06337
293.3095
291.521
291.67083
291.86779
292.00829
292.09597
292.1853
291.60905
292.02354
292.36799
292.58905
292.75951
292.9552
291.49747
291.54371
291.63326
291.70571
291.74621
291.79072
291.583
291.94894
292.20963
292.33885
292.4148
292.53315
291.5087
291.39845
291.40907
291.45319
291.48858
291.52068
291.55277
291.85042
292.03905
292.10497
292.10692
292.14206
291.56168
291.28301
291.25194
291.29385
291.34496
291.39092
291.52803
291.72462
291.8682
291.92133
291.89911
291.87441
291.65641
291.2518
291.18084
291.21917
291.28222
291.34899
291.51263
291.56145
291.69431
291.78657
291.80234
291.77039
291.76053
291.32214
291.17943
291.19492
291.25888
291.34705
291.51318
291.39436
291.52078
291.67726
291.77481
291.7946
291.82984
291.35169
291.23022
291.18159
291.24347
291.34586
291.53923
291.28134
291.38017
291.55523
291.73678
291.85654
291.8441
291.36348
291.24396
291.18951
291.23883
291.35157
291.58359
291.24096
291.29082
291.45229
291.66757
291.8453
291.84332
291.36775
291.25191
291.20041
291.24135
291.35598
291.63673
291.25056
291.22911
291.36566
291.57688
291.78495
291.83859
291.37225
291.26148
291.20386
291.24653
291.35288
291.69495
291.28545
291.18522
291.29595
291.49211
291.69668
291.83187
291.37049
291.26734
291.20469
291.24591
291.34499
291.75147
291.31153
291.15814
291.23878
291.41461
291.60542
291.82383
291.36125
291.26788
291.2033
291.24181
291.33435
291.80605
291.32765
291.14109
291.18813
291.34037
291.52348
291.81713
291.3465
291.26224
291.19919
291.23559
291.32188
291.85861
291.33748
291.12992
291.14116
291.27155
291.44975
291.81325
291.3291
291.25152
291.19106
291.22689
291.30879
291.90771
291.34437
291.12332
291.09755
291.21009
291.38541
291.81437
291.31181
291.23681
291.17747
291.21503
291.29537
291.95536
291.35041
291.11695
291.06095
291.15688
291.3282
291.82322
291.29731
291.21896
291.15727
291.19838
291.28095
292.00687
291.35892
291.1109
291.03134
291.11121
291.27392
291.84197
291.28731
291.19893
291.1304
291.17441
291.26252
292.06774
291.3729
291.10674
291.00648
291.0699
291.21942
291.87249
291.28023
291.17878
291.09947
291.14341
291.23887
292.14658
291.39384
291.10548
290.9849
291.03058
291.16431
291.89932
291.2725
291.16458
291.07566
291.11405
291.2128
292.22789
291.41428
291.10493
290.96968
290.99866
291.11637
291.91271
291.27048