/*--------------------------------*- C++ -*----------------------------------*\
| =========                 |                                                 |
| \\      /  F ield         | OpenFOAM: The Open Source CFD Toolbox           |
|  \\    /   O peration     | Version:  2206                                  |
|   \\  /    A nd           | Website:  www.openfoam.com                      |
|    \\/     M anipulation  |                                                 |
\*---------------------------------------------------------------------------*/
FoamFile
{
    version     2.0;
    format      ascii;
    arch        "LSB;label=32;scalar=64";
    class       volVectorField;
    location    "400";
    object      U;
}
// * * * * * * * * * * * * * * * * * * * * * * * * * * * * * * * * * * * * * //

dimensions      [0 1 -1 0 0 0 0];

internalField   nonuniform List<vector> 
50904
(
(-2.9655233 -1.0593354 -0.30025306)
(-3.3620494 -1.3440285 -0.29475551)
(-5.1679609 1.8214474 0.089692983)
(-6.1954302 1.2697201 0.073701483)
(-9.3339214 -1.0671057 -0.1689338)
(-10.262339 -1.6775784 -0.12245664)
(-13.451198 5.0529706 0.074373987)
(-15.475148 3.9824482 0.13783151)
(-14.656591 -0.45532105 -0.34250927)
(-15.749359 -1.200457 -0.25661079)
(-18.277282 6.2728258 0.022107796)
(-20.415684 5.0619854 0.13485819)
(-17.366372 -0.25362024 -0.47706863)
(-18.488794 -1.1287079 -0.35363536)
(-20.263632 6.011039 -0.062207026)
(-22.34262 4.874404 0.098084426)
(-18.316558 -0.29499573 -0.59891621)
(-19.476305 -1.2812323 -0.457017)
(-20.85257 5.4590016 -0.15131883)
(-22.894205 4.4470421 0.036559069)
(-18.341024 -0.38968258 -0.71667386)
(-19.539495 -1.4209939 -0.56865628)
(-20.657646 5.0036514 -0.24675613)
(-22.64278 4.0941337 -0.043734057)
(-17.818416 -0.44208518 -0.82839653)
(-19.050757 -1.4880423 -0.68089735)
(-19.949123 4.737649 -0.34132875)
(-21.88594 3.8631369 -0.13224376)
(-16.910769 -0.42712208 -0.94038341)
(-18.166598 -1.4699077 -0.80164992)
(-18.863949 4.6018939 -0.42819286)
(-20.733965 3.7358505 -0.22314247)
(-15.713407 -0.3658301 -1.0587814)
(-16.970802 -1.3919467 -0.9350803)
(-17.489731 4.5490343 -0.50849826)
(-19.277627 3.6826449 -0.31414431)
(-14.315246 -0.29199039 -1.1781765)
(-15.550109 -1.2925834 -1.0801988)
(-15.907317 4.5507129 -0.59861606)
(-17.608903 3.6859599 -0.41980759)
(-12.798605 -0.26067338 -1.3243243)
(-13.98478 -1.2137646 -1.2563205)
(-14.196352 4.5774467 -0.73116547)
(-15.806739 3.7044885 -0.5705555)
(-11.236816 -0.3501929 -1.4962908)
(-12.336715 -1.2043651 -1.466745)
(-12.425825 4.5099735 -0.93985605)
(-13.927555 3.6689574 -0.81979975)
(-9.7570541 -0.67141408 -1.6658288)
(-10.727308 -1.3906828 -1.6878382)
(-10.717914 4.1286966 -1.2721668)
(-12.089657 3.4857335 -1.2118259)
(-8.4646804 -1.3199674 -1.6833505)
(-9.2359229 -1.9201883 -1.806454)
(-9.134824 3.2895159 -1.7454968)
(-10.334381 2.8555483 -1.745545)
(-7.5454238 -2.0353588 -1.2453314)
(-8.0708301 -2.6342115 -1.5574668)
(-7.7446987 1.8702163 -2.3189427)
(-8.6888253 1.5987581 -2.4274347)
(-7.4073592 -2.1130754 0.16466797)
(-7.765841 -2.7683135 -0.34762736)
(-6.8959231 0.24797845 -2.5198104)
(-7.517164 -0.0011009341 -2.8783202)
(-8.0729617 -1.1285551 2.3974391)
(-8.3113861 -1.9007951 1.7346291)
(-6.6414622 -0.81066688 -2.021479)
(-6.9663039 -1.1954883 -2.6424185)
(-9.3448371 0.071764437 4.9968214)
(-9.6570643 -0.65656952 4.3284623)
(-6.8403699 -1.0537179 -0.79809548)
(-6.974493 -1.6225061 -1.6595401)
(-10.560783 1.1273726 7.4695851)
(-11.108852 0.56279835 6.9738431)
(-7.2074826 -0.58248218 0.7462168)
(-7.2550523 -1.3525863 -0.27110822)
(-11.356513 2.0456294 9.5796103)
(-12.048627 1.6487726 9.3442814)
(-7.6493379 0.33756949 2.3473891)
(-7.626737 -0.53794079 1.2479579)
(-11.48668 2.5977324 11.234317)
(-12.262593 2.1145989 11.142906)
(-8.4352651 1.5595438 4.1249974)
(-8.4630568 0.68361239 2.9934673)
(-10.794341 2.4006681 11.998665)
(-10.997318 1.5356165 11.891365)
(-10.057251 3.1822857 5.9277283)
(-10.28512 2.3246321 4.9844614)
(-8.6426303 1.481161 11.691071)
(-8.5056013 0.3650867 11.374559)
(-12.492394 4.920198 7.0309849)
(-12.956582 4.1728805 6.4551399)
(-5.7690258 0.21201554 10.219153)
(-5.3408493 -0.93031531 9.7608641)
(-15.032975 6.1892426 7.1263512)
(-15.691894 5.6015205 6.9195538)
(-2.6742808 -1.2772617 8.5949018)
(-2.170746 -2.2711061 8.0293453)
(-17.037791 7.0402819 6.6232111)
(-17.921967 6.5797022 6.6248023)
(0.32431683 -2.7938113 6.9631036)
(0.79371415 -3.7644227 6.3779562)
(-18.184945 7.4474281 5.7886434)
(-19.16046 7.2553459 5.9237675)
(3.1556042 -4.2470345 5.5078158)
(3.5380042 -5.2205157 4.9535166)
(-18.97326 7.544775 4.8050196)
(-20.064118 7.5028458 5.0260143)
(5.7433021 -5.5672436 4.2190231)
(6.0834371 -6.5617488 3.7189085)
(-19.390707 7.3938914 3.823036)
(-20.548995 7.4883584 4.0738762)
(8.0019133 -6.6678213 3.1294926)
(8.3072093 -7.7019374 2.7024522)
(-19.439232 7.0183687 2.9113731)
(-20.598087 7.2122225 3.1691392)
(9.8524889 -7.4708712 2.2429673)
(10.121286 -8.5647768 1.8983485)
(-19.109559 6.4179955 2.1124957)
(-20.164838 6.6427319 2.3607285)
(11.228345 -7.917314 1.5351084)
(11.476008 -9.0939263 1.2738614)
(-18.36124 5.5326231 1.439763)
(-19.178783 5.6850841 1.6616072)
(11.962784 -7.8949406 0.98804158)
(12.256558 -9.1884164 0.8091495)
(-17.099832 4.2607883 0.88786121)
(-17.577357 4.2288338 1.0609335)
(11.67305 -7.1692518 0.57883858)
(12.148715 -8.6086798 0.47306663)
(-15.068341 2.5404657 0.46682092)
(-15.103209 2.2729652 0.57758392)
(9.726832 -5.3853279 0.27586219)
(10.371504 -6.8749309 0.23234499)
(-11.739739 0.5599321 0.17837344)
(-11.222093 0.16073142 0.23127577)
(5.5465464 -2.5774679 0.052157488)
(6.1535509 -3.7992736 0.048126475)
(-7.1410587 -0.82109898 0.045771925)
(-6.5412094 -1.1039088 0.060320457)
(1.2163202 -0.2992436 0.10751007)
(1.4027402 -0.77804965 0.099093361)
(-2.3252313 -0.65805406 -0.055077239)
(-2.0326503 -0.73903602 -0.049068598)
(-4.7364389 0.9526281 -0.1828606)
(-5.2523903 -0.11679483 -0.16593324)
(-5.063239 2.7347741 -0.081950404)
(-5.1922798 1.279737 -0.017771574)
(-4.7770937 3.0949016 -0.14372002)
(-4.5723951 1.3257789 -0.057020551)
(-4.9473286 3.5533202 -0.099863698)
(-4.7387543 1.6842074 -0.020566972)
(-4.958148 3.5461591 -0.08339417)
(-4.7418987 1.7012696 -0.031739209)
(-4.947077 3.5347318 -0.058803402)
(-4.7106464 1.7703039 -0.017801441)
(-4.9069201 3.4929132 -0.047069912)
(-4.5990367 1.8112751 -0.0065471451)
(-12.490464 5.7344069 -0.046749943)
(-14.164994 3.3270178 0.061095269)
(-11.68838 8.9652563 -0.053531862)
(-13.373021 5.7640694 0.041267942)
(-10.10242 9.115791 -0.1265079)
(-11.842972 5.4512658 -0.11344646)
(-9.4192704 9.3187092 0.0099714558)
(-11.519936 5.5224496 -0.063915208)
(-8.8917027 9.2239815 0.09559128)
(-11.145786 5.3462413 -0.050695951)
(-8.5229307 9.1647406 0.14418457)
(-10.795145 5.2996559 -0.046522467)
(-8.2186457 9.1045422 0.1613078)
(-10.403878 5.2964789 -0.051099821)
(-17.855831 7.6713874 -0.1236687)
(-19.777887 5.3067452 0.037114239)
(-16.153267 10.422515 0.045955703)
(-18.298696 7.4774939 0.1296481)
(-13.480696 10.425281 0.063955051)
(-15.844441 7.3706526 -0.015335139)
(-11.963955 10.553001 0.26031581)
(-14.539833 7.495301 0.073518665)
(-10.830999 10.537456 0.39011043)
(-13.598192 7.4690016 0.089405147)
(-9.9578204 10.556469 0.46606412)
(-12.912794 7.5111717 0.055231949)
(-9.2133099 10.581736 0.50326821)
(-12.340264 7.5838565 -0.0069846104)
(-21.213665 7.3773285 -0.17341062)
(-22.941959 5.3234408 0.045721881)
(-20.096361 9.9223332 0.15498453)
(-21.874997 7.2780659 0.24885956)
(-17.359018 9.9991237 0.29279618)
(-19.306425 7.2934414 0.15057955)
(-15.383849 10.259231 0.56250954)
(-17.464688 7.6108616 0.2646628)
(-13.785955 10.368098 0.74991041)
(-15.874937 7.8139211 0.28034607)
(-12.456569 10.479405 0.86152077)
(-14.550807 8.035236 0.19476683)
(-11.281681 10.587096 0.92059489)
(-13.469542 8.2500024 0.046800134)
(-23.146854 6.5607586 -0.25383126)
(-24.677199 4.7858797 0.0092964537)
(-23.44506 8.9503622 0.21355035)
(-24.672918 6.5791704 0.31877749)
(-21.513224 9.0206725 0.45553316)
(-22.707429 6.5821159 0.2729222)
(-19.677434 9.370076 0.77925619)
(-20.988891 6.9550423 0.40512706)
(-17.828733 9.6424337 1.0464876)
(-19.117531 7.2993865 0.45910744)
(-15.98405 9.9186627 1.2178249)
(-17.151689 7.696624 0.38297089)
(-14.193362 10.172512 1.3391478)
(-15.289589 8.0836369 0.18880053)
(-23.875349 5.7967123 -0.36409249)
(-25.203454 4.1954683 -0.080577021)
(-25.646627 7.8842605 0.20273717)
(-26.367943 5.7367838 0.31473036)
(-24.746779 7.8983048 0.5007332)
(-25.301243 5.6416713 0.29985375)
(-23.607505 8.2183139 0.8159828)
(-24.242124 5.9268363 0.41974789)
(-22.233047 8.5270279 1.1170786)
(-22.819643 6.2448455 0.52847173)
(-20.483007 8.8947537 1.4025973)
(-20.845797 6.7012703 0.54666075)
(-18.291227 9.3185768 1.6418674)
(-18.307812 7.2843105 0.43569242)
(-23.546039 5.2546738 -0.47856172)
(-24.756908 3.7373363 -0.18358993)
(-26.238111 6.984382 0.11756375)
(-26.463949 4.9701304 0.22781336)
(-26.097747 6.954589 0.44195554)
(-26.099628 4.7729861 0.20110404)
(-25.530417 7.2101399 0.65924717)
(-25.665024 4.9349254 0.2330266)
(-24.867375 7.4589818 0.85656938)
(-25.063993 5.1197892 0.29210581)
(-24.003152 7.7396002 1.0854996)
(-24.075332 5.3951056 0.35431949)
(-22.663058 8.0840853 1.379077)
(-22.386011 5.8221901 0.38592561)
(-22.315946 4.9679439 -0.5746574)
(-23.454519 3.4856129 -0.29096303)
(-25.111591 6.4257546 0.020339751)
(-25.264819 4.4696035 0.099724035)
(-25.15403 6.4338436 0.32271506)
(-25.004334 4.2454236 0.058652883)
(-24.976537 6.6583358 0.43627592)
(-24.826066 4.3336275 -0.010447026)
(-24.785915 6.8441516 0.48473338)
(-24.671624 4.4184358 -0.068593864)
(-24.529975 7.0308989 0.54835518)
(-24.46638 4.5305963 -0.11331324)
(-24.058858 7.2406305 0.67935643)
(-24.053765 4.6920382 -0.1267484)
(-20.472815 4.9184345 -0.63987548)
(-21.544452 3.4511228 -0.37859965)
(-22.741023 6.2523864 -0.087519079)
(-22.815447 4.2972843 -0.040780365)
(-22.642365 6.3689916 0.13893097)
(-22.409323 4.1185194 -0.14571661)
(-22.471313 6.6161946 0.15997836)
(-22.284889 4.1796564 -0.32255811)
(-22.40911 6.7873694 0.11701451)
(-22.388815 4.1950971 -0.4841304)
(-22.442388 6.9153563 0.076568634)
(-22.590941 4.1973183 -0.60924605)
(-22.504165 7.0183152 0.066032277)
(-22.770033 4.2056585 -0.69826461)
(-18.292169 5.0717513 -0.68077144)
(-19.325217 3.6249017 -0.44500412)
(-19.845488 6.4460013 -0.19785734)
(-19.936535 4.4958542 -0.18350001)
(-19.501326 6.7079937 -0.075764776)
(-19.284941 4.4240429 -0.38934256)
(-19.187038 7.0081573 -0.13465332)
(-18.992658 4.5089522 -0.66455622)
(-19.080109 7.1949215 -0.24437496)
(-19.053341 4.5148812 -0.89894522)
(-19.179922 7.30506 -0.34905917)
(-19.375039 4.4664697 -1.0737037)
(-19.454305 7.3577192 -0.43415946)
(-19.87647 4.3754841 -1.2012399)
(-16.011875 5.3558929 -0.73250069)
(-17.033291 3.9611778 -0.53900675)
(-16.978348 6.924498 -0.34058136)
(-17.188503 5.0339938 -0.39449216)
(-16.492249 7.3447163 -0.34804791)
(-16.408124 5.1302496 -0.76194018)
(-16.048696 7.7045145 -0.47901413)
(-15.927435 5.2928932 -1.1529186)
(-15.803945 7.9255237 -0.63010027)
(-15.772922 5.3591096 -1.4554671)
(-15.765791 8.0559938 -0.76298737)
(-15.892818 5.3549502 -1.6606243)
(-15.926544 8.1197208 -0.8756514)
(-16.260999 5.284527 -1.7910473)
(-13.772866 5.6356829 -0.87945262)
(-14.801895 4.3539767 -0.74429024)
(-14.320484 7.5086519 -0.58567747)
(-14.748002 5.759718 -0.75860292)
(-13.773696 8.0726474 -0.71716131)
(-13.987387 6.0333541 -1.3154878)
(-13.269123 8.4687181 -0.90687368)
(-13.432762 6.2672289 -1.8232916)
(-12.921621 8.7182718 -1.0826412)
(-13.118148 6.3880958 -2.1932558)
(-12.728063 8.8783103 -1.2314052)
(-13.008335 6.4427872 -2.439789)
(-12.684715 8.9762825 -1.3586694)
(-13.086977 6.4440498 -2.5959814)
(-11.733609 5.6525812 -1.1756195)
(-12.78276 4.5258528 -1.1070938)
(-11.984425 7.8022514 -0.91660552)
(-12.668944 6.199214 -1.2279525)
(-11.373589 8.4542865 -1.0756156)
(-11.946105 6.5687159 -1.8800472)
(-10.809542 8.8832701 -1.2788386)
(-11.356598 6.8239351 -2.4358186)
(-10.375376 9.1565649 -1.4559477)
(-10.938929 6.9716403 -2.8354868)
(-10.061944 9.3402658 -1.6021087)
(-10.669001 7.0673601 -3.1115969)
(-9.861887 9.4696978 -1.7288512)
(-10.53434 7.1270663 -3.3015709)
(-10.083541 5.01763 -1.684214)
(-11.148071 4.1260872 -1.6507755)
(-10.550899 7.2411731 -1.4063163)
(-11.390805 5.882663 -1.7638024)
(-10.087327 7.922699 -1.5177016)
(-10.756317 6.2260801 -2.4313953)
(-9.5102905 8.3437694 -1.698353)
(-10.065552 6.4463547 -3.0511668)
(-8.9622871 8.6210985 -1.8790072)
(-9.4475627 6.6026873 -3.5420985)
(-8.4643497 8.829929 -2.052315)
(-8.9107808 6.7410668 -3.9264892)
(-8.034489 8.9998705 -2.2228701)
(-8.4636985 6.8718514 -4.2320127)
(-8.7571017 3.4029443 -2.3965677)
(-9.8703414 2.8111419 -2.4392556)
(-10.0719 5.4992365 -2.0162505)
(-11.419475 4.5060064 -2.3661926)
(-10.2673 6.2131721 -1.957392)
(-11.644578 4.861471 -2.8532432)
(-10.019886 6.6396054 -2.0315305)
(-11.318791 5.0837372 -3.4091232)
(-9.5452455 6.9359611 -2.1801492)
(-10.723564 5.2776224 -3.9176264)
(-8.9237903 7.189288 -2.3921809)
(-9.9549 5.4985695 -4.3978001)
(-8.1177732 7.4632115 -2.710447)
(-9.0067741 5.7781941 -4.9449265)
(-7.611473 1.0888944 -3.0209393)
(-8.6049501 0.63665169 -3.2264275)
(-9.5152013 2.5511956 -2.5026058)
(-11.422001 1.6610863 -2.8487168)
(-10.499848 3.1789495 -2.2071295)
(-13.084188 1.8132028 -2.8846658)
(-10.908482 3.6007395 -2.0603603)
(-13.858244 1.9376128 -3.0744168)
(-10.916926 3.8992033 -2.035258)
(-14.044371 2.1111212 -3.311838)
(-10.653103 4.1469299 -2.1052143)
(-13.843998 2.3342815 -3.5819205)
(-10.178297 4.3790109 -2.2628883)
(-13.348539 2.598237 -3.896926)
(-6.790637 -0.75153774 -3.2336607)
(-7.5062407 -1.2488236 -3.6169109)
(-8.7115214 -0.034351574 -2.6059051)
(-10.560947 -1.0556123 -2.9905124)
(-10.101922 0.36424426 -2.1758561)
(-13.062576 -1.2783936 -2.6907351)
(-10.947101 0.71432822 -1.9009223)
(-14.732022 -1.4186648 -2.6100664)
(-11.325775 0.99204013 -1.7615663)
(-15.659927 -1.4276375 -2.6206637)
(-11.365777 1.2181606 -1.7284172)
(-16.051571 -1.3321838 -2.6747487)
(-11.161102 1.4310627 -1.7770127)
(-16.077316 -1.1857574 -2.772674)
(-6.337633 -1.8037629 -3.0381047)
(-6.8716606 -2.3311265 -3.5898695)
(-7.9699768 -1.5827834 -2.4521841)
(-9.673536 -2.6423372 -2.905378)
(-9.4831639 -1.4074731 -1.9297084)
(-12.544558 -3.1700915 -2.385153)
(-10.553239 -1.1433377 -1.5702973)
(-14.640468 -3.5352139 -2.1205995)
(-11.128006 -0.90884676 -1.35922)
(-15.916299 -3.7342975 -1.9958501)
(-11.315374 -0.70326745 -1.2571622)
(-16.569102 -3.7699454 -1.9342751)
(-11.225577 -0.51184582 -1.2353656)
(-16.78797 -3.6941152 -1.9168684)
(-6.1758192 -2.1130589 -2.467987)
(-6.6594878 -2.7097891 -3.225361)
(-7.6780385 -2.1271212 -2.046765)
(-9.4181727 -3.2314139 -2.6321447)
(-9.3532745 -2.1232353 -1.4858839)
(-12.506246 -3.9766858 -1.9679052)
(-10.61464 -1.9557251 -1.0870905)
(-14.809175 -4.4944591 -1.5253262)
(-11.320677 -1.7784328 -0.83683)
(-16.206302 -4.7979332 -1.2428833)
(-11.581852 -1.6050529 -0.6902601)
(-16.921131 -4.8798579 -1.0552552)
(-11.527416 -1.4347574 -0.61689672)
(-17.162755 -4.8330548 -0.93826861)
(-6.084561 -1.8328318 -1.5963521)
(-6.7579139 -2.5699017 -2.6121075)
(-7.6962955 -1.901168 -1.3573295)
(-9.6855214 -3.0929255 -2.1254946)
(-9.6111188 -2.0043602 -0.76716582)
(-12.870394 -3.9138664 -1.3316479)
(-11.001823 -1.9243528 -0.32776574)
(-15.127188 -4.4479767 -0.708705)
(-11.743096 -1.7979448 -0.03882601)
(-16.421066 -4.6922202 -0.27189763)
(-11.985649 -1.657199 0.14466196)
(-17.017561 -4.7244312 0.025420919)
(-11.886059 -1.4958271 0.25732029)
(-17.163443 -4.6621207 0.21896064)
(-5.8115629 -1.0232785 -0.30938459)
(-6.920595 -2.0365491 -1.6767032)
(-7.4609266 -1.1159475 -0.36857833)
(-9.9734191 -2.4570212 -1.3394716)
(-9.6521857 -1.2961945 0.23963409)
(-13.205224 -3.3023261 -0.43127147)
(-11.220289 -1.2999451 0.71542951)
(-15.365055 -3.8383246 0.31963927)
(-12.02035 -1.226372 1.0382728)
(-16.487366 -4.029071 0.85916793)
(-12.244003 -1.1138923 1.2571668)
(-16.882988 -4.0528346 1.2347071)
(-12.079587 -0.95449556 1.4081727)
(-16.841153 -3.9709712 1.4952112)
(-5.5291083 0.88316667 1.6298615)
(-6.9445778 -0.56248406 -0.069585543)
(-6.2008497 0.7424116 1.3036157)
(-9.4020982 -0.8217186 -0.0035244066)
(-8.046219 0.62718097 1.959253)
(-12.21013 -1.5875592 1.0284311)
(-9.5504777 0.62578585 2.487406)
(-13.966967 -2.0398361 1.8886788)
(-10.331561 0.67401333 2.8448766)
(-14.725836 -2.2304965 2.5145049)
(-10.501943 0.78296898 3.0939241)
(-14.813974 -2.2368814 2.9627911)
(-10.236315 0.95338388 3.2789401)
(-14.476838 -2.117109 3.2899598)
(-6.3327129 3.9932674 3.4217397)
(-7.2514778 2.1563827 1.7355003)
(-4.8030675 4.0281488 3.1735472)
(-7.7111352 2.088142 1.588045)
(-4.7752268 4.1075174 3.9661571)
(-8.9508443 1.677783 2.7394834)
(-4.8964246 4.2750765 4.6658362)
(-9.7561875 1.4390317 3.7619413)
(-4.7784828 4.4411978 5.1567261)
(-10.000444 1.3471987 4.4888011)
(-4.3884064 4.6302013 5.5068696)
(-9.7843505 1.3974314 5.0100556)
(-3.7788449 4.8577757 5.7726588)
(-9.228306 1.558285 5.4112425)
(-8.7033362 7.2095966 4.196692)
(-9.1455234 5.2633621 2.8649312)
(-5.9817869 7.9822891 4.1630731)
(-7.7641556 5.6023516 2.7777249)
(-4.695426 8.3874572 5.0652746)
(-7.4648025 5.6479184 4.0602142)
(-3.9153707 8.6944098 5.9005787)
(-7.1889796 5.7363602 5.3143653)
(-3.3016761 8.8886934 6.4992879)
(-6.8215873 5.8015726 6.2546952)
(-2.7442802 9.0499133 6.9246972)
(-6.3696001 5.8884482 6.9457188)
(-2.1662951 9.229502 7.239857)
(-5.8392513 6.0163689 7.4718528)
(-12.005407 9.7230767 4.2571364)
(-12.437389 7.88974 3.3420455)
(-9.2502781 11.358157 4.3302987)
(-10.581241 8.8355067 3.3285497)
(-7.6455626 12.211143 5.2405686)
(-9.8592324 9.2081698 4.5575126)
(-6.5358129 12.812439 6.1604319)
(-9.2895127 9.5070114 5.8100886)
(-5.5740278 13.222744 6.9084868)
(-8.6805265 9.7048825 6.8382631)
(-4.5360136 13.567211 7.561855)
(-7.9505742 9.8756487 7.7529369)
(-3.2249055 13.958205 8.2229452)
(-6.9790504 10.099159 8.7366716)
(-15.059883 11.575538 3.9906485)
(-15.781788 9.9763148 3.3848597)
(-12.602358 14.143641 4.1432685)
(-14.08063 11.828445 3.4274686)
(-10.781761 15.65296 5.0481707)
(-13.181409 12.811953 4.6584687)
(-9.2262443 16.759415 6.0409874)
(-12.312214 13.578512 5.9964806)
(-7.5971287 17.568217 6.9627101)
(-11.245504 14.111216 7.2610826)
(-5.6879506 18.294057 7.8299007)
(-9.8818341 14.587109 8.5353228)
(-3.5749841 19.00317 8.4687257)
(-8.25033 15.087012 9.6788369)
(-17.400592 12.883235 3.5404421)
(-18.415458 11.522517 3.1244882)
(-15.314805 16.227296 3.6957121)
(-17.00057 14.105925 3.2018521)
(-13.308464 18.292682 4.4583407)
(-15.919057 15.615207 4.2109439)
(-11.33534 19.865155 5.3441885)
(-14.726876 16.846284 5.3994397)
(-9.202266 21.099977 6.2109219)
(-13.235001 17.811979 6.5993276)
(-6.9155325 22.144265 6.9372993)
(-11.451859 18.659276 7.7461693)
(-4.6864149 23.01392 7.3625339)
(-9.5710771 19.407721 8.6387436)
(-18.948551 13.807704 3.0302611)
(-20.201506 12.682201 2.7779446)
(-17.118078 17.845515 3.1881064)
(-18.991472 15.913069 2.8609421)
(-14.970252 20.337973 3.7632436)
(-17.683857 17.842754 3.6430011)
(-12.810527 22.220083 4.4064527)
(-16.225128 19.398502 4.5454852)
(-10.599933 23.697464 5.0361058)
(-14.530128 20.653545 5.4475021)
(-8.3956575 24.856241 5.5723514)
(-12.677727 21.694708 6.2963652)
(-6.332068 25.748921 5.8960782)
(-10.873285 22.532844 6.9331864)
(-19.747542 14.410984 2.5117456)
(-21.159377 13.517838 2.376681)
(-18.015648 19.091411 2.6761173)
(-20.024468 17.369177 2.4700111)
(-15.770443 21.875801 3.0699863)
(-18.452459 19.614996 3.0283962)
(-13.629536 23.904622 3.4738142)
(-16.842613 21.365124 3.6429923)
(-11.607014 25.417203 3.8632125)
(-15.182788 22.714021 4.2212255)
(-9.6511131 26.556818 4.257263)
(-13.499901 23.7803 4.8027248)
(-7.8001689 27.416075 4.5466186)
(-11.899678 24.601966 5.2804004)
(-19.847487 14.713075 2.0192825)
(-21.320106 14.050621 1.9543867)
(-18.08469 20.063529 2.2095854)
(-20.193283 18.554625 2.0769618)
(-15.743689 23.030539 2.4694991)
(-18.348872 21.017777 2.4491535)
(-13.671529 25.102797 2.7071136)
(-16.69474 22.869004 2.8430388)
(-11.867801 26.541741 2.9105951)
(-15.188458 24.195966 3.1781926)
(-10.147797 27.62234 3.1749327)
(-13.73933 25.208843 3.5621442)
(-8.4772195 28.44472 3.4332806)
(-12.33708 25.9841 3.9496089)
(-19.239464 14.631727 1.5629026)
(-20.657353 14.190927 1.5452172)
(-17.354761 20.830204 1.7959162)
(-19.52745 19.515511 1.6996606)
(-14.906082 23.9454 1.9761003)
(-17.4509 22.124291 1.9407399)
(-12.864921 26.019995 2.1128601)
(-15.806811 24.005453 2.1839402)
(-11.204258 27.421012 2.2002934)
(-14.456535 25.312679 2.3757567)
(-9.6995752 28.438551 2.3362173)
(-13.2253 26.263363 2.6131586)
(-8.2471162 29.213667 2.5196554)
(-12.016683 26.996028 2.8992822)
(-17.847329 13.88916 1.1266998)
(-19.083034 13.624776 1.1279362)
(-15.797474 21.287591 1.413175)
(-17.89861 20.128881 1.3334735)
(-13.269773 24.671147 1.5664769)
(-15.806047 22.957005 1.5080977)
(-11.260933 26.779866 1.6342981)
(-14.218136 24.87964 1.6431512)
(-9.710303 28.187791 1.6262762)
(-13.002825 26.206945 1.7204379)
(-8.3882095 29.190227 1.6511258)
(-11.948909 27.177711 1.844372)
(-7.1712732 29.928565 1.7344751)
(-10.949965 27.900472 2.0158679)
(-15.576696 11.960494 0.72221278)
(-16.495687 11.769904 0.72797527)
(-13.37172 20.881012 1.0310359)
(-15.353325 19.808899 0.96305231)
(-10.876341 24.916771 1.2016046)
(-13.442596 23.199745 1.129764)
(-8.9735114 27.149851 1.239312)
(-12.02145 25.279927 1.2003153)
(-7.5425487 28.622863 1.1632061)
(-10.948809 26.704891 1.1704541)
(-6.3789274 29.688549 1.0829873)
(-10.062935 27.772199 1.1543574)
(-5.3692334 30.461091 1.0703209)
(-9.2936636 28.566728 1.2033995)
(-12.31507 8.218944 0.37045732)
(-12.81075 7.9946585 0.37501016)
(-10.168854 18.065512 0.63580602)
(-11.836847 17.017152 0.58685065)
(-7.9712052 23.341672 0.84912577)
(-10.465426 21.474846 0.76628185)
(-6.386692 26.057109 0.88857676)
(-9.502013 24.030529 0.79177355)
(-5.2234356 27.599318 0.71365309)
(-8.7623128 25.598429 0.63981031)
(-4.3235274 28.658156 0.48165423)
(-8.1874381 26.660925 0.43775443)
(-3.5948085 29.413396 0.35840943)
(-7.7287348 27.413293 0.32636265)
(-7.8470401 2.8538303 0.13270356)
(-7.8821786 2.5900278 0.13200017)
(-6.4577772 10.609563 0.24985569)
(-7.3378161 9.7807732 0.22068731)
(-5.1175325 16.069535 0.42661338)
(-6.8371738 14.499414 0.35691947)
(-4.2038094 19.512145 0.48500359)
(-6.6677953 17.554874 0.37003538)
(-3.4888785 21.202514 0.31496308)
(-6.4189549 19.066983 0.20154743)
(-2.926839 21.971764 0.054913616)
(-6.1313455 19.781714 -0.025382706)
(-2.4988795 22.380792 -0.09937841)
(-5.8621196 20.144092 -0.16543941)
(-2.5913345 -0.42409469 -0.15434769)
(-2.4526079 -0.58839094 -0.15033925)
(-2.2989374 1.7659304 -0.13118364)
(-2.2983182 1.4090487 -0.099703086)
(-2.0887078 3.8930003 -0.075092883)
(-2.1994226 3.0748269 -0.03921247)
(-2.0522473 6.0810273 0.049156478)
(-2.4504498 4.6454393 0.037970254)
(-1.9717398 7.4610699 0.087608738)
(-2.643744 5.4308025 0.055731972)
(-1.7991472 7.9048605 -0.015037887)
(-2.6563154 5.6055619 -0.012937685)
(-1.6289706 7.9048859 -0.15181878)
(-2.5712136 5.5376398 -0.10024852)
(-4.8465745 3.4564461 -0.036253734)
(-4.4165724 1.8617309 0.013653062)
(-4.7848387 3.4227201 -0.028181325)
(-4.2035833 1.8817873 0.037427734)
(-4.6819757 3.3973877 -0.022557592)
(-3.9336065 1.9077556 0.057505696)
(-4.5791493 3.3606435 -0.016250314)
(-3.6719358 1.9189357 0.068207478)
(-4.5402824 3.2626935 -0.02019466)
(-3.4642994 1.91793 0.059539097)
(-4.7233148 3.1007166 -0.049328776)
(-3.3575318 2.3351376 0.00082685309)
(-7.9417245 9.0525984 0.16092524)
(-9.9354997 5.3407902 -0.049696644)
(-7.7350525 9.002444 0.15421874)
(-9.4734848 5.3859742 -0.046606348)
(-7.5996518 8.9506756 0.13948824)
(-9.0020903 5.4688517 -0.062982487)
(-7.5835293 8.8645637 0.12272489)
(-8.6404952 5.5512958 -0.10980422)
(-7.7819026 8.6960468 0.091734881)
(-8.488694 5.6929179 -0.23363103)
(-8.5320491 8.3947275 0.014737154)
(-8.7252939 6.3962947 -0.53397541)
(-8.4965796 10.620458 0.51623472)
(-11.813882 7.6891821 -0.082618)
(-7.8851445 10.655169 0.51086726)
(-11.475615 7.7660243 -0.15996338)
(-7.3386471 10.703361 0.48088106)
(-11.19784 7.8747796 -0.25850867)
(-6.8814783 10.736367 0.43139782)
(-10.954867 8.0144184 -0.39920632)
(-6.649021 10.709402 0.36215814)
(-10.824573 8.2744137 -0.64476249)
(-6.9993855 10.597413 0.24888936)
(-10.882136 9.0667211 -1.139708)
(-10.127862 10.704884 0.94671716)
(-12.548416 8.477641 -0.13775515)
(-9.1157213 10.812349 0.9489364)
(-11.887424 8.6457486 -0.32235886)
(-8.1135577 10.946633 0.91712786)
(-11.390835 8.8293997 -0.53046914)
(-7.066274 11.090627 0.84882657)
(-11.057916 9.0337612 -0.78010407)
(-6.1294113 11.18335 0.74258124)
(-10.842974 9.3700083 -1.1269051)
(-5.5768358 11.201732 0.5797482)
(-10.758082 10.184748 -1.7621688)
(-12.388259 10.426832 1.4137875)
(-13.650023 8.4406463 -0.089006477)
(-10.839325 10.641464 1.4488198)
(-12.492315 8.6910293 -0.37953618)
(-9.3382016 10.872134 1.4348656)
(-11.513869 8.9517805 -0.71467)
(-7.8103986 11.100125 1.3675845)
(-10.775438 9.2045126 -1.1211559)
(-6.3400099 11.261591 1.2384401)
(-10.432382 9.4849596 -1.617657)
(-5.1716517 11.345826 1.015728)
(-10.252203 10.107782 -2.2907599)
(-15.734382 9.7827418 1.8101138)
(-15.505248 7.9190565 0.16917426)
(-13.468332 10.157249 1.9203985)
(-13.432784 8.3575323 -0.18006121)
(-11.323209 10.516427 1.9676195)
(-11.792213 8.7310405 -0.61054312)
(-9.2100765 10.85452 1.9375521)
(-10.526881 9.0202907 -1.1445853)
(-7.2074299 11.105081 1.812405)
(-9.7473475 9.2090988 -1.8278862)
(-5.201816 11.260747 1.5545268)
(-9.3630618 9.4911706 -2.7185636)
(-20.2506 8.6108907 1.7792446)
(-19.491794 6.5379023 0.32778866)
(-17.29384 9.2031927 2.1170674)
(-16.153819 7.3212172 0.12018605)
(-14.399412 9.7691514 2.3015572)
(-13.127115 8.0389776 -0.24815255)
(-11.521408 10.293591 2.364604)
(-10.659031 8.5824566 -0.81315132)
(-8.7571941 10.700432 2.3064444)
(-8.9167231 8.8508895 -1.6227204)
(-5.8419384 10.971741 2.0749014)
(-7.7342292 8.9285084 -2.8039238)
(-23.166725 7.5372807 0.93423726)
(-22.983311 5.0034361 -0.099736417)
(-21.519508 7.9345582 1.3323812)
(-20.90154 5.5270276 -0.099882367)
(-18.79653 8.5185673 1.8729306)
(-17.452171 6.3867943 -0.20792741)
(-15.195634 9.2510732 2.2860875)
(-13.134988 7.4236109 -0.55456753)
(-11.3915 9.9684418 2.4281392)
(-9.3739422 8.1888306 -1.2944424)
(-7.2242583 10.543168 2.3005451)
(-6.4346121 8.4920169 -2.6638576)
(-22.48672 7.1472333 0.11953557)
(-22.77883 4.2670574 -0.75718962)
(-22.229151 7.2862233 0.2544193)
(-22.451576 4.3813107 -0.79137727)
(-21.489681 7.5074455 0.53121644)
(-21.38392 4.6724128 -0.81821492)
(-19.554743 7.9822488 1.0699208)
(-18.604805 5.4089808 -0.93735033)
(-15.562523 8.8601003 1.7574162)
(-13.459088 6.6396953 -1.4175441)
(-9.9055936 9.9527214 1.9313758)
(-7.6585456 7.6139219 -2.6274627)
(-19.871376 7.3902395 -0.48900825)
(-20.475584 4.2630361 -1.30046)
(-20.258263 7.3947532 -0.49624816)
(-20.902222 4.1827795 -1.3687312)
(-20.489018 7.4180312 -0.41774784)
(-20.966122 4.1884827 -1.4275208)
(-20.320858 7.5471795 -0.19543916)
(-20.393544 4.3711082 -1.5298756)
(-18.786927 8.0359055 0.25391831)
(-18.020004 4.9854666 -1.7999498)
(-14.013401 9.328046 0.77411347)
(-12.372883 6.1565584 -2.6204928)
(-16.308671 8.1451217 -0.97563013)
(-16.897462 5.1356039 -1.8800964)
(-16.851877 8.1096773 -1.0597977)
(-17.690948 4.956419 -1.9337686)
(-17.533966 8.0450008 -1.1091361)
(-18.419095 4.7856419 -1.9705195)
(-18.298822 7.9909407 -1.1119634)
(-18.920758 4.6703087 -2.0355663)
(-18.647549 8.1209061 -1.0426736)
(-18.762419 4.7492708 -2.2499373)
(-16.910764 9.0715176 -0.95591093)
(-15.991429 5.3607493 -2.9270274)
(-12.804856 9.0430699 -1.4807942)
(-13.368737 6.3754122 -2.7013195)
(-13.097041 9.0523936 -1.6002551)
(-13.85818 6.2700846 -2.7506672)
(-13.605603 9.0173099 -1.7155734)
(-14.577461 6.094891 -2.7680558)
(-14.464261 8.9450845 -1.8699207)
(-15.546153 5.8544618 -2.7957314)
(-15.603876 8.929115 -2.1243815)
(-16.338773 5.6595383 -2.9454111)
(-15.514199 9.5639603 -2.5621926)
(-15.567809 5.8987603 -3.5737524)
(-9.7666745 9.576822 -1.8573569)
(-10.524969 7.1371316 -3.4523693)
(-9.813182 9.6373895 -1.9905508)
(-10.686383 7.1241921 -3.5485636)
(-10.052423 9.6586652 -2.14076)
(-11.037511 7.0502441 -3.6024371)
(-10.596303 9.6542898 -2.3839089)
(-11.683056 6.8994443 -3.6557063)
(-11.52974 9.6871673 -2.8631908)
(-12.616144 6.6933593 -3.8205973)
(-11.884876 10.229988 -3.7270659)
(-12.581812 6.8147154 -4.5100415)
(-7.6641398 9.1642892 -2.4079791)
(-8.0858538 6.9825082 -4.5086477)
(-7.4042428 9.2956034 -2.5971699)
(-7.8678316 7.0781733 -4.724959)
(-7.3266304 9.3950931 -2.8032132)
(-7.8538241 7.1135368 -4.8815915)
(-7.4579116 9.4903593 -3.1319384)
(-8.0729951 7.093596 -5.0426082)
(-7.8726377 9.6585772 -3.7782004)
(-8.5557095 7.0375651 -5.3207346)
(-8.0446972 10.219565 -4.9824258)
(-8.4377118 7.2276135 -6.1263889)
(-7.0145286 7.8280135 -3.2040349)
(-7.8344154 6.126719 -5.6285602)
(-5.9163784 8.1835788 -3.7589751)
(-6.8724609 6.4464231 -6.2053103)
(-5.1903717 8.447381 -4.2144288)
(-6.3014062 6.6483839 -6.5816589)
(-4.7041974 8.686454 -4.6890572)
(-5.8942774 6.8150804 -6.9378368)
(-4.2989483 9.0088994 -5.40973)
(-5.525134 7.0192429 -7.4573815)
(-3.6708267 9.7070858 -6.7222057)
(-4.6342313 7.4241323 -8.4436011)
(-9.3773376 4.6859754 -2.5750413)
(-12.462038 2.9561498 -4.4063785)
(-8.060126 5.1189381 -3.1621834)
(-11.027603 3.5063562 -5.2632104)
(-6.4959161 5.6206027 -3.9559533)
(-9.4548321 4.100914 -6.2509425)
(-4.7788685 6.1950749 -4.9555908)
(-7.8955376 4.732347 -7.3156721)
(-3.0165881 6.8527942 -6.1429769)
(-6.4582977 5.3960534 -8.4283842)
(-0.98212622 7.7847111 -7.5960165)
(-4.6810433 6.2300905 -9.8038861)
(-10.723745 1.6687426 -1.904766)
(-15.835483 -0.99416233 -2.9228109)
(-9.9340449 1.9812284 -2.1772749)
(-15.325324 -0.73795678 -3.1560665)
(-8.6877777 2.4142058 -2.6847436)
(-14.491307 -0.40583838 -3.5561673)
(-6.7458999 3.0565132 -3.5688681)
(-12.835219 0.20560474 -4.4260646)
(-4.0807397 3.9478696 -4.8789892)
(-10.088532 1.2561408 -5.9438908)
(-0.73097917 5.1198252 -6.4821101)
(-6.5125938 2.82952 -7.812805)
(-10.903017 -0.29758485 -1.2742527)
(-16.727375 -3.5646463 -1.9379126)
(-10.321006 -0.034559866 -1.385407)
(-16.430943 -3.3660139 -2.0025886)
(-9.4284691 0.29510444 -1.6129279)