/*--------------------------------*- C++ -*----------------------------------*\
| =========                 |                                                 |
| \\      /  F ield         | OpenFOAM: The Open Source CFD Toolbox           |
|  \\    /   O peration     | Version:  2206                                  |
|   \\  /    A nd           | Website:  www.openfoam.com                      |
|    \\/     M anipulation  |                                                 |
\*---------------------------------------------------------------------------*/
FoamFile
{
    version     2.0;
    format      ascii;
    arch        "LSB;label=32;scalar=64";
    class       volVectorField;
    location    "400";
    object      Urel;
}
// * * * * * * * * * * * * * * * * * * * * * * * * * * * * * * * * * * * * * //

dimensions      [0 1 -1 0 0 0 0];

internalField   nonuniform List<vector> 
50904
(
(-2.9667273 -1.054662 -0.30025306)
(-3.363227 -1.339442 -0.29475551)
(-5.1690651 1.8261081 0.089692983)
(-6.1965127 1.2743021 0.073701483)
(-9.3351281 -1.0624323 -0.1689338)
(-10.263519 -1.672992 -0.12245664)
(-13.452304 5.0576314 0.074373987)
(-15.476233 3.9870301 0.13783151)
(-14.657801 -0.4506476 -0.34250927)
(-15.750542 -1.1958707 -0.25661079)
(-18.278391 6.2774867 0.022107796)
(-20.416771 5.0665672 0.13485819)
(-17.367586 -0.24894674 -0.47706863)
(-18.489982 -1.1241218 -0.35363536)
(-20.264745 6.0157 -0.062207026)
(-22.343711 4.8789857 0.098084426)
(-18.317778 -0.29032217 -0.59891621)
(-19.477498 -1.2766465 -0.457017)
(-20.853687 5.4636627 -0.15131883)
(-22.8953 4.4516237 0.036559069)
(-18.34225 -0.38500895 -0.71667386)
(-19.540694 -1.4164084 -0.56865628)
(-20.658769 5.0083127 -0.24675613)
(-22.643881 4.0987151 -0.043734057)
(-17.819651 -0.43741145 -0.82839653)
(-19.051964 -1.4834572 -0.68089735)
(-19.950253 4.7423105 -0.34132875)
(-21.887047 3.8677181 -0.13224376)
(-16.912014 -0.4224482 -0.94038341)
(-18.167816 -1.4653231 -0.80164992)
(-18.865087 4.6065558 -0.42819286)
(-20.735081 3.7404315 -0.22314247)
(-15.714665 -0.36115605 -1.0587814)
(-16.972032 -1.3873627 -0.9350803)
(-17.49088 4.5536967 -0.50849826)
(-19.278753 3.6872257 -0.31414431)
(-14.31652 -0.28731605 -1.1781765)
(-15.551355 -1.2880001 -1.0801988)
(-15.908479 4.5553761 -0.59861606)
(-17.610042 3.6905405 -0.41980759)
(-12.799898 -0.25599865 -1.3243243)
(-13.986044 -1.2091821 -1.2563205)
(-14.19753 4.5821111 -0.73116547)
(-15.807893 3.7090691 -0.5705555)
(-11.238133 -0.34551757 -1.4962908)
(-12.338001 -1.1997836 -1.466745)
(-12.427022 4.5146395 -0.93985605)
(-13.928727 3.6735381 -0.81979975)
(-9.7583986 -0.66673776 -1.6658288)
(-10.728621 -1.3861023 -1.6878382)
(-10.719133 4.1333652 -1.2721668)
(-12.090851 3.4903147 -1.2118259)
(-8.4660576 -1.3152894 -1.6833505)
(-9.2372674 -1.9156086 -1.806454)
(-9.136069 3.2941882 -1.7454968)
(-10.335599 2.8601309 -1.745545)
(-7.546839 -2.0306778 -1.2453314)
(-8.0722109 -2.6296319 -1.5574668)
(-7.7459729 1.8748945 -2.3189427)
(-8.6900715 1.6033433 -2.4274347)
(-7.408813 -2.1083898 0.16466797)
(-7.7672585 -2.7637328 -0.34762736)
(-6.8972257 0.25266429 -2.5198104)
(-7.518437 0.0034882502 -2.8783202)
(-8.0744506 -1.1238633 2.3974391)
(-8.3128368 -1.8962119 1.7346291)
(-6.6427888 -0.80597205 -2.021479)
(-6.9675997 -1.1908937 -2.6424185)
(-9.3463573 0.076464404 4.9968214)
(-9.6585445 -0.65198186 4.3284623)
(-6.841716 -1.0490127 -0.79809548)
(-6.9758069 -1.6179047 -1.6595401)
(-10.562329 1.1320829 7.4695851)
(-11.110356 0.56739262 6.9738431)
(-7.2088411 -0.57776524 0.7462168)
(-7.256378 -1.3479767 -0.27110822)
(-11.35808 2.0503514 9.5796103)
(-12.050152 1.6533751 9.3442814)
(-7.6507035 0.34229939 2.3473891)
(-7.6280695 -0.53332159 1.2479579)
(-11.488267 2.6024666 11.234317)
(-12.264137 2.1192101 11.142906)
(-8.4366367 1.5642872 4.1249974)
(-8.464395 0.68824178 2.9934673)
(-10.795951 2.4054135 11.998665)
(-10.998884 1.5402354 11.891365)
(-10.058632 3.1870426 5.9277283)
(-10.286467 2.3292716 4.9844614)
(-8.6442656 1.4859148 11.691071)
(-8.507191 0.36971108 11.374559)
(-12.493789 4.9249665 7.0309849)
(-12.957942 4.1775284 6.4551399)
(-5.770683 0.21677461 10.219153)
(-5.3424596 -0.92568793 9.7608641)
(-15.034384 6.1940199 7.1263512)
(-15.693267 5.6061746 6.9195538)
(-2.6759568 -1.2724997 8.5949018)
(-2.1723743 -2.2664775 8.0293453)
(-17.039213 7.0450658 6.6232111)
(-17.923353 6.5843607 6.6248023)
(0.32262465 -2.7890481 6.9631036)
(0.79207045 -3.759794 6.3779562)
(-18.18638 7.4522168 5.7886434)
(-19.161857 7.2600075 5.9237675)
(3.1538984 -4.242271 5.5078158)
(3.5363474 -5.2158876 4.9535166)
(-18.974706 7.5495673 4.8050196)
(-20.065526 7.5075096 5.0260143)
(5.7415849 -5.5624803 4.2190231)
(6.0817692 -6.5571217 3.7189085)
(-19.392162 7.3986864 3.823036)
(-20.550412 7.4930237 4.0738762)
(8.0001865 -6.6630585 3.1294926)
(8.3055321 -7.6973113 2.7024522)
(-19.440696 7.0231657 2.9113731)
(-20.599512 7.2168888 3.1691392)
(9.8507543 -7.4661091 2.2429673)
(10.119601 -8.5601518 1.8983485)
(-19.11103 6.422794 2.1124957)
(-20.16627 6.647399 2.3607285)
(11.226604 -7.9125526 1.5351084)
(11.474317 -9.0893023 1.2738614)
(-18.362716 5.5374227 1.439763)
(-19.18022 5.6897517 1.6616072)
(11.961038 -7.8901798 0.98804158)
(12.254862 -9.1837932 0.8091495)
(-17.101313 4.2655888 0.88786121)
(-17.578799 4.2335017 1.0609335)
(11.6713 -7.1644916 0.57883858)
(12.147015 -8.6040574 0.47306663)
(-15.069826 2.5452668 0.46682092)
(-15.104655 2.2776333 0.57758392)
(9.7250785 -5.3805682 0.27586219)
(10.369801 -6.8703091 0.23234499)
(-11.741227 0.56473367 0.17837344)
(-11.223542 0.16539974 0.23127577)
(5.5447903 -2.5727085 0.052157488)
(6.1518453 -3.7946523 0.048126475)
(-7.1425493 -0.81629703 0.045771925)
(-6.5426603 -1.0992403 0.060320457)
(1.2145621 -0.29448454 0.10751007)
(1.4010325 -0.77342871 0.099093361)
(-2.3267238 -0.6532518 -0.055077239)
(-2.0341031 -0.73436745 -0.049068598)
(-4.7374535 0.95727738 -0.1828606)
(-5.2533887 -0.11221666 -0.16593324)
(-5.0641885 2.7394164 -0.081950404)
(-5.1932158 1.2843128 -0.017771574)
(-4.7780205 3.0995423 -0.14372002)
(-4.5733081 1.3303548 -0.057020551)
(-4.9482434 3.5579601 -0.099863698)
(-4.7396551 1.6887835 -0.020566972)
(-4.9590556 3.5507986 -0.08339417)
(-4.7427923 1.7058459 -0.031739209)
(-4.9479798 3.539371 -0.058803402)
(-4.7115352 1.7748804 -0.017801441)
(-4.9078192 3.4975522 -0.047069912)
(-4.5999218 1.8158518 -0.0065471451)
(-12.49148 5.7390563 -0.046749943)
(-14.165994 3.3315959 0.061095269)
(-11.689331 8.9698987 -0.053531862)
(-13.373958 5.7686452 0.041267942)
(-10.103348 9.1204318 -0.1265079)
(-11.843886 5.4558417 -0.11344646)
(-9.4201864 9.3233492 0.0099714558)
(-11.520838 5.5270257 -0.063915208)
(-8.8926115 9.2286211 0.09559128)
(-11.146681 5.3508176 -0.050695951)
(-8.5238346 9.1693799 0.14418457)
(-10.796035 5.3042324 -0.046522467)
(-8.2195459 9.1091813 0.1613078)
(-10.404764 5.3010556 -0.051099821)
(-17.85685 7.6760369 -0.1236687)
(-19.778889 5.3113233 0.037114239)
(-16.15422 10.427158 0.045955703)
(-18.299635 7.4820697 0.1296481)
(-13.481626 10.429922 0.063955051)
(-15.845357 7.3752285 -0.015335139)
(-11.964872 10.557641 0.26031581)
(-14.540736 7.4998771 0.073518665)
(-10.831909 10.542096 0.39011043)
(-13.599088 7.473578 0.089405147)
(-9.9587257 10.561108 0.46606412)
(-12.913685 7.5157482 0.055231949)
(-9.2142115 10.586375 0.50326821)
(-12.341152 7.5884332 -0.0069846104)
(-21.214686 7.3819781 -0.17341062)
(-22.942964 5.3280188 0.045721881)
(-20.097316 9.9269759 0.15498453)
(-21.875938 7.2826416 0.24885956)
(-17.35995 10.003765 0.29279618)
(-19.307343 7.2980173 0.15057955)
(-15.384768 10.263871 0.56250954)
(-17.465593 7.6154377 0.2646628)
(-13.786867 10.372738 0.74991041)
(-15.875835 7.8184975 0.28034607)
(-12.457476 10.484045 0.86152077)
(-14.5517 8.0398126 0.19476683)
(-11.282584 10.591735 0.92059489)
(-13.470431 8.2545791 0.046800134)
(-23.147879 6.5654084 -0.25383126)
(-24.678207 4.7904576 0.0092964537)
(-23.446018 8.955005 0.21355035)
(-24.673862 6.5837461 0.31877749)
(-21.514158 9.0253138 0.45553316)
(-22.708349 6.5866918 0.2729222)
(-19.678356 9.3747165 0.77925619)
(-20.989799 6.9596184 0.40512706)
(-17.829647 9.6470738 1.0464876)
(-19.118431 7.3039629 0.45910744)
(-15.984959 9.9233026 1.2178249)
(-17.152584 7.7012006 0.38297089)
(-14.194268 10.177152 1.3391478)
(-15.290481 8.0882137 0.18880053)
(-23.876378 5.8013623 -0.36409249)
(-25.204467 4.2000461 -0.080577021)
(-25.647588 7.8889036 0.20273717)
(-26.36889 5.7413595 0.31473036)
(-24.747716 7.9029463 0.5007332)
(-25.302166 5.6462472 0.29985375)
(-23.60843 8.2229547 0.8159828)
(-24.243035 5.9314124 0.41974789)
(-22.233964 8.5316683 1.1170786)
(-22.820546 6.2494219 0.52847173)
(-20.483919 8.8993938 1.4025973)
(-20.846695 6.7058469 0.54666075)
(-18.292136 9.3232167 1.6418674)
(-18.308706 7.2888873 0.43569242)
(-23.547074 5.2593241 -0.47856172)
(-24.757926 3.7419141 -0.18358993)
(-26.239076 6.9890254 0.11756375)
(-26.464901 4.9747061 0.22781336)
(-26.098688 6.9592309 0.44195554)
(-26.100555 4.777562 0.20110404)
(-25.531345 7.2147811 0.65924717)
(-25.665938 4.9395016 0.2330266)
(-24.868296 7.4636226 0.85656938)
(-25.0649 5.1243656 0.29210581)
(-24.004068 7.7442407 1.0854996)
(-24.076233 5.3996823 0.35431949)
(-22.66397 8.0887256 1.379077)
(-22.386909 5.826767 0.38592561)
(-22.316988 4.9725947 -0.5746574)
(-23.455544 3.4901907 -0.29096303)
(-25.112562 6.4303987 0.020339751)
(-25.265776 4.4741793 0.099724035)
(-25.154976 6.4384862 0.32271506)
(-25.005266 4.2499997 0.058652883)
(-24.97747 6.6629777 0.43627592)
(-24.826985 4.338204 -0.010447026)
(-24.78684 6.8487931 0.48473338)
(-24.672535 4.4230125 -0.068593864)
(-24.530895 7.0355402 0.54835518)
(-24.467286 4.5351733 -0.11331324)
(-24.059774 7.2452715 0.67935643)
(-24.054667 4.6966154 -0.1267484)
(-20.473865 4.9230861 -0.63987548)
(-21.545485 3.4557007 -0.37859965)
(-22.742001 6.2570314 -0.087519079)
(-22.81641 4.3018604 -0.040780365)
(-22.643317 6.3736352 0.13893097)
(-22.410261 4.1230959 -0.14571661)
(-22.472252 6.6208376 0.15997836)
(-22.285813 4.1842333 -0.32255811)
(-22.410041 6.792012 0.11701451)
(-22.389731 4.1996743 -0.4841304)
(-22.443314 6.9199987 0.076568634)
(-22.591852 4.2018957 -0.60924605)
(-22.505087 7.0229574 0.066032277)
(-22.77094 4.2102362 -0.69826461)
(-18.293229 5.0764041 -0.68077144)
(-19.32626 3.6294799 -0.44500412)
(-19.846474 6.4506478 -0.19785734)
(-19.937506 4.500431 -0.18350001)
(-19.502286 6.7126389 -0.075764776)
(-19.285886 4.4286202 -0.38934256)
(-19.187984 7.012802 -0.13465332)
(-18.993589 4.5135299 -0.66455622)
(-19.081047 7.1995659 -0.24437496)
(-19.054264 4.5194593 -0.89894522)
(-19.180854 7.3097041 -0.34905917)
(-19.375957 4.471048 -1.0737037)
(-19.455234 7.3623632 -0.43415946)
(-19.877384 4.3800627 -1.2012399)
(-16.012948 5.3605475 -0.73250069)
(-17.034346 3.9657566 -0.53900675)
(-16.979343 6.9291468 -0.34058136)
(-17.189484 5.0385716 -0.39449216)
(-16.493217 7.349364 -0.34804791)
(-16.409078 5.1348282 -0.76194018)
(-16.04965 7.7091617 -0.47901413)
(-15.928374 5.2974723 -1.1529186)
(-15.804891 7.9301707 -0.63010027)
(-15.773853 5.3636891 -1.4554671)
(-15.766732 8.0606406 -0.76298737)
(-15.893743 5.3595301 -1.6606243)
(-15.927481 8.1243674 -0.8756514)
(-16.261921 5.2891071 -1.7910473)
(-13.773954 5.6403401 -0.87945262)
(-14.802964 4.3585565 -0.74429024)
(-14.321491 7.5133041 -0.58567747)
(-14.748995 5.7642976 -0.75860292)
(-13.774675 8.0772987 -0.71716131)
(-13.988351 6.0379347 -1.3154878)
(-13.270088 8.4733691 -0.90687368)
(-13.433711 6.2718103 -1.8232916)
(-12.922577 8.7229226 -1.0826412)
(-13.119089 6.3926776 -2.1932558)
(-12.729014 8.882961 -1.2314052)
(-13.00927 6.4473694 -2.439789)
(-12.685662 8.9809331 -1.3586694)
(-13.087908 6.4486323 -2.5959814)
(-11.734714 5.6572424 -1.1756195)
(-12.783846 4.5304345 -1.1070938)
(-11.985446 7.8069087 -0.91660552)
(-12.66995 6.2037965 -1.2279525)
(-11.374581 8.4589434 -1.0756156)
(-11.947081 6.5732999 -1.8800472)
(-10.810519 8.8879269 -1.2788386)
(-11.357559 6.82852 -2.4358186)
(-10.376344 9.1612217 -1.4559477)
(-10.939881 6.9762258 -2.8354868)
(-10.062906 9.3449225 -1.6021087)
(-10.669947 7.0719461 -3.1115969)
(-9.8628454 9.4743545 -1.7288512)
(-10.535282 7.1316526 -3.3015709)
(-10.084667 5.0222969 -1.684214)
(-11.149177 4.130672 -1.6507755)
(-10.551938 7.2458378 -1.4063163)
(-11.391828 5.8872501 -1.7638024)
(-10.088335 7.9273639 -1.5177016)
(-10.757309 6.2306692 -2.4313953)
(-9.511282 8.3484346 -1.698353)
(-10.066527 6.4509451 -3.0511668)
(-8.9632693 8.6257639 -1.8790072)
(-9.4485284 6.6072785 -3.5420985)
(-8.465326 8.8345945 -2.052315)
(-8.9117406 6.7456585 -3.9264892)
(-8.0354613 9.004536 -2.2228701)
(-8.4646544 6.8764435 -4.2320127)
(-8.7582521 3.4076196 -2.3965677)
(-9.8714709 2.8157314 -2.4392556)
(-10.072961 5.5039118 -2.0162505)
(-11.420518 4.5106001 -2.3661926)
(-10.268327 6.2178485 -1.957392)
(-11.645587 4.8660676 -2.8532432)
(-10.020895 6.6442826 -2.0315305)
(-11.319783 5.0883356 -3.4091232)
(-9.5462444 6.9406388 -2.1801492)
(-10.724546 5.2822218 -3.9176264)
(-8.924783 7.1939659 -2.3921809)
(-9.9558754 5.5031695 -4.3978001)
(-8.1187617 7.4678895 -2.710447)
(-9.0077454 5.7827946 -4.9449265)
(-7.6126473 1.09358 -3.0209393)
(-8.606102 0.64124742 -3.2264275)
(-9.5162839 2.5558834 -2.5026058)
(-11.423065 1.6656881 -2.8487168)
(-10.500894 3.1836395 -2.2071295)
(-13.085215 1.8178085 -2.8846658)
(-10.909508 3.6054308 -2.0603603)
(-13.859252 1.9422206 -3.0744168)
(-10.917942 3.9038954 -2.035258)
(-14.045368 2.1157303 -3.311838)
(-10.654112 4.1516224 -2.1052143)
(-13.844989 2.3388914 -3.5819205)
(-10.179302 4.3837036 -2.2628883)
(-13.349526 2.6028474 -3.896926)
(-6.7918314 -0.74684092 -3.2336607)
(-7.5074112 -1.2442207 -3.6169109)
(-8.7126233 -0.029650851 -2.6059051)
(-10.562029 -1.0510019 -2.9905124)
(-10.102985 0.36894797 -2.1758561)
(-13.063619 -1.2737787 -2.6907351)
(-10.948143 0.71903369 -1.9009223)
(-14.733045 -1.4140473 -2.6100664)
(-11.326806 0.9967466 -1.7615663)
(-15.660939 -1.4230186 -2.6206637)
(-11.366801 1.2228676 -1.7284172)
(-16.052576 -1.327564 -2.6747487)
(-11.162122 1.43577 -1.7770127)
(-16.078317 -1.1811371 -2.772674)
(-6.3388437 -1.7990543 -3.0381047)
(-6.872846 -2.3265156 -3.5898695)
(-7.9710952 -1.57807 -2.4521841)
(-9.6746327 -2.6377181 -2.905378)
(-9.4842414 -1.4027563 -1.9297084)
(-12.545615 -3.1654675 -2.385153)
(-10.554295 -1.1386189 -1.5702973)
(-14.641504 -3.5305872 -2.1205995)
(-11.129051 -0.90412681 -1.35922)
(-15.917323 -3.7296692 -1.9958501)
(-11.316412 -0.69854685 -1.2571622)
(-16.57012 -3.7653162 -1.9342751)
(-11.226611 -0.50712486 -1.2353656)
(-16.788983 -3.6894855 -1.9168684)
(-6.1770419 -2.108338 -2.467987)
(-6.660684 -2.7051695 -3.225361)
(-7.67917 -2.1223956 -2.046765)
(-9.4192812 -3.2267861 -2.6321447)
(-9.3543647 -2.1185064 -1.4858839)
(-12.507314 -3.9720532 -1.9679052)
(-10.615709 -1.9509942 -1.0870905)
(-14.810222 -4.4898238 -1.5253262)
(-11.321734 -1.7737008 -0.83683)
(-16.207338 -4.7932964 -1.2428833)
(-11.582902 -1.6003203 -0.6902601)
(-16.92216 -4.8752203 -1.0552552)
(-11.528462 -1.4300244 -0.61689672)
(-17.16378 -4.8284166 -0.93826861)
(-6.0857924 -1.8280982 -1.5963521)
(-6.7591177 -2.5652726 -2.6121075)
(-7.6974372 -1.8964304 -1.3573295)
(-9.686639 -3.0882889 -2.1254946)
(-9.61222 -1.9996199 -0.76716582)
(-12.871472 -3.9092255 -1.3316479)
(-11.002903 -1.9196109 -0.32776574)
(-15.128246 -4.4433335 -0.708705)
(-11.744165 -1.793202 -0.03882601)
(-16.422112 -4.6875756 -0.27189763)
(-11.986711 -1.6524556 0.14466196)
(-17.018601 -4.7197859 0.025420919)
(-11.887117 -1.4910835 0.25732029)
(-17.164478 -4.6574749 0.21896064)
(-5.8128018 -1.0185318 -0.30938459)
(-6.9218053 -2.0319099 -1.6767032)
(-7.4620776 -1.1111978 -0.36857833)
(-9.9745448 -2.4523755 -1.3394716)
(-9.6532969 -1.2914427 0.23963409)
(-13.206311 -3.2976767 -0.43127147)
(-11.22138 -1.2951921 0.71542951)
(-15.366122 -3.8336732 0.31963927)
(-12.021429 -1.2216184 1.0382728)
(-16.488422 -4.0244185 0.85916793)
(-12.245076 -1.1091383 1.2571668)
(-16.884037 -4.0481815 1.2347071)
(-12.080655 -0.94974136 1.4081727)
(-16.842198 -3.9663177 1.4952112)
(-5.5303553 0.88792703 1.6298615)
(-6.945795 -0.55783439 -0.069585543)
(-6.2020096 0.74717431 1.3036157)
(-9.4032316 -0.81706297 -0.0035244066)
(-8.0473396 0.63194531 1.959253)
(-12.211225 -1.5829003 1.0284311)
(-9.5515779 0.63055112 2.487406)
(-13.968042 -2.0351755 1.8886788)
(-10.33265 0.6787791 2.8448766)
(-14.7269 -2.2258349 2.5145049)
(-10.503025 0.787735 3.0939241)
(-14.815032 -2.2322193 2.9627911)
(-10.237393 0.95815 3.2789401)
(-14.477892 -2.1124466 3.2899598)
(-6.3339688 3.9980406 3.4217397)
(-7.2527028 2.1610422 1.7355003)
(-4.8042358 4.0329244 3.1735472)
(-7.7122758 2.0928075 1.588045)
(-4.7763555 4.1122947 3.9661571)
(-8.9519462 1.6824518 2.7394834)
(-4.8975329 4.2798547 4.6658362)
(-9.7572694 1.4437023 3.7619413)
(-4.7795799 4.4459766 5.1567261)
(-10.001515 1.3518703 4.4888011)
(-4.389497 4.6349803 5.5068696)
(-9.7854151 1.4021035 5.0100556)
(-3.7799315 4.8625548 5.7726588)
(-9.2293666 1.5629574 5.4112425)
(-8.7046012 7.2143804 4.196692)
(-9.1467566 5.2680296 2.8649312)
(-5.9829626 7.9870762 4.1630731)
(-7.7653027 5.6070259 2.7777249)
(-4.6965614 8.3922464 5.0652746)
(-7.4659102 5.6525964 4.0602142)
(-3.9164853 8.6992002 5.9005787)
(-7.1900669 5.7410402 5.3143653)
(-3.3027794 8.8934844 6.4992879)
(-6.8226635 5.8062536 6.2546952)
(-2.7453771 9.0547047 6.9246972)
(-6.3706699 5.8931298 6.9457188)
(-2.167388 9.2342935 7.239857)
(-5.8403172 6.0210508 7.4718528)
(-12.006681 9.7278693 4.2571364)
(-12.43863 7.894414 3.3420455)
(-9.2514605 11.362954 4.3302987)
(-10.582394 8.8401888 3.3285497)
(-7.6467037 12.215943 5.2405686)
(-9.8603449 9.2128561 4.5575126)
(-6.5369327 12.817241 6.1604319)
(-9.2906044 9.5117 5.8100886)
(-5.5751361 13.227547 6.9084868)
(-8.6816068 9.7095723 6.8382631)
(-4.5371153 13.572014 7.561855)
(-7.9516481 9.8803392 7.7529369)
(-3.2260033 13.963008 8.2229452)
(-6.9801204 10.10385 8.7366716)
(-15.061166 11.580338 3.9906485)
(-15.783037 9.9809941 3.3848597)
(-12.603546 14.148447 4.1432685)
(-14.081788 11.833134 3.4274686)
(-10.782907 15.65777 5.0481707)
(-13.182526 12.816647 4.6584687)
(-9.2273683 16.764227 6.0409874)
(-12.313309 13.583208 5.9964806)
(-7.5982409 17.57303 6.9627101)
(-11.246588 14.115914 7.2610826)
(-5.6890561 18.29887 7.8299007)
(-9.8829111 14.591808 8.5353228)
(-3.5760856 19.007984 8.4687257)
(-8.251403 15.091711 9.6788369)
(-17.401882 12.888041 3.5404421)
(-18.416715 11.527201 3.1244882)
(-15.315999 16.23211 3.6957121)
(-17.001733 14.11062 3.2018521)
(-13.309614 18.2975 4.4583407)
(-15.920177 15.619907 4.2109439)
(-11.336467 19.869976 5.3441885)
(-14.727974 16.850987 5.3994397)
(-9.2033813 21.104799 6.2109219)
(-13.236087 17.816684 6.5993276)
(-6.916641 22.149088 6.9372993)
(-11.452938 18.663982 7.7461693)
(-4.6875193 23.018743 7.3625339)
(-9.5721525 19.412427 8.6387436)
(-18.949848 13.812515 3.0302611)
(-20.202769 12.686888 2.7779446)
(-17.119276 17.850336 3.1881064)
(-18.992639 15.917769 2.8609421)
(-14.971405 20.342799 3.7632436)
(-17.68498 17.84746 3.6430011)
(-12.811657 22.224912 4.4064527)
(-16.226228 19.403211 4.5454852)
(-10.601051 23.702294 5.0361058)
(-14.531216 20.658256 5.4475021)
(-8.3967684 24.861072 5.5723514)
(-12.678808 21.69942 6.2963652)
(-6.3331748 25.753752 5.8960782)
(-10.874362 22.537557 6.9331864)
(-19.748845 14.415799 2.5117456)
(-21.160646 13.522528 2.376681)
(-18.01685 19.096237 2.6761173)
(-20.025639 17.373881 2.4700111)
(-15.771599 21.880633 3.0699863)
(-18.453584 19.619706 3.0283962)
(-13.630668 23.909457 3.4738142)
(-16.843715 21.369838 3.6429923)
(-11.608134 25.42204 3.8632125)
(-15.183878 22.718737 4.2212255)
(-9.6522258 26.561656 4.257263)
(-13.500984 23.785017 4.8027248)
(-7.8012775 27.420913 4.5466186)
(-11.900757 24.606684 5.2804004)
(-19.848796 14.717893 2.0192825)
(-21.32138 14.055313 1.9543867)
(-18.085895 20.06836 2.2095854)
(-20.194456 18.559332 2.0769618)
(-15.744847 23.035376 2.4694991)
(-18.349999 21.022491 2.4491535)
(-13.672663 25.107638 2.7071136)
(-16.695844 22.873722 2.8430388)
(-11.868922 26.546583 2.9105951)
(-15.189549 24.200686 3.1781926)
(-10.148911 27.627183 3.1749327)
(-13.740414 25.213564 3.5621442)
(-8.4783295 28.449564 3.4332806)
(-12.33816 25.988822 3.9496089)
(-19.240777 14.636547 1.5629026)
(-20.658631 14.195621 1.5452172)
(-17.355969 20.835038 1.7959162)
(-19.528626 19.520221 1.6996606)
(-14.907242 23.950241 1.9761003)
(-17.452029 22.129009 1.9407399)
(-12.866057 26.02484 2.1128601)
(-15.807916 24.010175 2.1839402)
(-11.205381 27.425859 2.2002934)
(-14.457627 25.317403 2.3757567)
(-9.7006906 28.443399 2.3362173)
(-13.226385 26.268088 2.6131586)
(-8.2482273 29.218516 2.5196554)
(-12.017764 27.000754 2.8992822)
(-17.848645 13.893982 1.1266998)
(-19.084315 13.629471 1.1279362)
(-15.798684 21.292428 1.413175)
(-17.899788 20.133593 1.3334735)
(-13.270934 24.675992 1.5664769)
(-15.807177 22.961725 1.5080977)
(-11.26207 26.784715 1.6342981)
(-14.219242 24.884364 1.6431512)
(-9.7114266 28.192642 1.6262762)
(-13.003918 26.211672 1.7204379)
(-8.3893258 29.195079 1.6511258)
(-11.949995 27.182439 1.844372)
(-7.1723852 29.933418 1.7344751)
(-10.951046 27.905201 2.0158679)
(-15.578015 11.965318 0.72221278)
(-16.49697 11.7746 0.72797527)
(-13.372931 20.885852 1.0310359)
(-15.354504 19.813613 0.96305231)
(-10.877504 24.921618 1.2016046)
(-13.443727 23.204467 1.129764)
(-8.9746491 27.154703 1.239312)
(-12.022557 25.284654 1.2003153)
(-7.5436731 28.627717 1.1632061)
(-10.949903 26.70962 1.1704541)
(-6.3800444 29.693404 1.0829873)
(-10.064021 27.776929 1.1543574)
(-5.3703461 30.465947 1.0703209)
(-9.2947456 28.571459 1.2033995)
(-12.316391 8.2237693 0.37045732)
(-12.812035 7.9993555 0.37501016)
(-10.170067 18.070354 0.63580602)
(-11.838027 17.021867 0.58685065)
(-7.9723688 23.346522 0.84912577)
(-10.466558 21.47957 0.76628185)
(-6.3878305 26.061963 0.88857676)
(-9.5031204 24.035257 0.79177355)
(-5.2245606 27.604174 0.71365309)
(-8.763407 25.60316 0.63981031)
(-4.3246449 28.663014 0.48165423)
(-8.1885249 26.665657 0.43775443)
(-3.5959217 29.418254 0.35840943)
(-7.7298172 27.418026 0.32636265)
(-7.8483631 2.8586566 0.13270356)
(-7.8834658 2.5947255 0.13200017)
(-6.4589909 10.614406 0.24985569)
(-7.3389976 9.7854892 0.22068731)
(-5.1186969 16.074386 0.42661338)
(-6.8383067 14.504139 0.35691947)
(-4.2049484 19.517001 0.48500359)
(-6.6689032 17.559604 0.37003538)
(-3.490004 21.207372 0.31496308)
(-6.4200495 19.071715 0.20154743)
(-2.927957 21.976624 0.054913616)
(-6.1324326 19.786448 -0.025382706)
(-2.4999931 22.385652 -0.09937841)
(-5.8632024 20.148827 -0.16543941)
(-2.592659 -0.41926757 -0.15434769)
(-2.4538964 -0.58369269 -0.15033925)
(-2.300152 1.7707747 -0.13118364)
(-2.2995005 1.4137656 -0.099703086)
(-2.0898727 3.8978532 -0.075092883)
(-2.200556 3.079553 -0.03921247)
(-2.0533868 6.0858847 0.049156478)
(-2.4515581 4.6501702 0.037970254)
(-1.9728657 7.4659297 0.087608738)
(-2.6448389 5.435536 0.055731972)
(-1.8002656 7.9097216 -0.015037887)
(-2.6574028 5.6102968 -0.012937685)
(-1.6300846 7.9097478 -0.15181878)
(-2.5722967 5.5423755 -0.10024852)
(-4.8474703 3.461085 -0.036253734)
(-4.4174542 1.8663077 0.013653062)
(-4.7857317 3.4273591 -0.028181325)
(-4.2044623 1.8863644 0.037427734)
(-4.6828663 3.4020268 -0.022557592)
(-3.9344832 1.9123329 0.057505696)
(-4.580037 3.3652826 -0.016250314)
(-3.6728098 1.9235131 0.068207478)
(-4.5411651 3.2673326 -0.02019466)
(-3.4651686 1.9225076 0.059539097)
(-4.7241854 3.1053556 -0.049328776)
(-3.3583893 2.3397158 0.00082685309)
(-7.9426214 9.0572374 0.16092524)
(-9.9363826 5.3453671 -0.049696644)
(-7.7359466 9.0070831 0.15421874)
(-9.4743649 5.3905513 -0.046606348)
(-7.6005435 8.9553148 0.13948824)
(-9.0029681 5.473429 -0.062982487)
(-7.5844181 8.8692029 0.12272489)
(-8.6413703 5.5558732 -0.10980422)
(-7.7827864 8.700686 0.091734881)
(-8.4895643 5.6974956 -0.23363103)
(-8.5329209 8.3993666 0.014737154)
(-8.7261525 6.4008729 -0.53397541)
(-8.4974779 10.625097 0.51623472)
(-11.814766 7.693759 -0.082618)
(-7.88604 10.659808 0.51086726)
(-11.476496 7.7706014 -0.15996338)
(-7.3395403 10.708 0.48088106)
(-11.198719 7.8793569 -0.25850867)
(-6.8823686 10.741006 0.43139782)
(-10.955743 8.0189958 -0.39920632)
(-6.6499062 10.714041 0.36215814)
(-10.825445 8.2789914 -0.64476249)
(-7.0002587 10.602052 0.24888936)
(-10.882996 9.0712993 -1.139708)
(-10.128762 10.709523 0.94671716)
(-12.549302 8.4822179 -0.13775515)
(-9.1166186 10.816988 0.9489364)
(-11.888307 8.6503257 -0.32235886)
(-8.1144526 10.951273 0.91712786)
(-11.391716 8.833977 -0.53046914)
(-7.0671661 11.095267 0.84882657)
(-11.058794 9.0383386 -0.78010407)
(-6.1302983 11.18799 0.74258124)
(-10.843847 9.374586 -1.1269051)
(-5.5777108 11.206371 0.5797482)
(-10.758944 10.189326 -1.7621688)
(-12.389161 10.431472 1.4137875)
(-13.650911 8.4452232 -0.089006477)
(-10.840225 10.646104 1.4488198)
(-12.4932 8.6956064 -0.37953618)
(-9.3390988 10.876774 1.4348656)
(-11.514752 8.9563578 -0.71467)
(-7.8112929 11.104765 1.3675845)
(-10.776318 9.2090901 -1.1211559)
(-6.3408992 11.266231 1.2384401)
(-10.433258 9.4895373 -1.617657)
(-5.172529 11.350466 1.015728)
(-10.253067 10.11236 -2.2907599)
(-15.735287 9.7873816 1.8101138)
(-15.506139 7.9236334 0.16917426)
(-13.469234 10.161889 1.9203985)
(-13.433672 8.3621094 -0.18006121)
(-11.324109 10.521067 1.9676195)
(-11.793099 8.7356178 -0.61054312)
(-9.2109737 10.85916 1.9375521)
(-10.527764 9.0248682 -1.1445853)
(-7.2083221 11.109721 1.812405)
(-9.7482259 9.2136765 -1.8278862)
(-5.2026961 11.265387 1.5545268)
(-9.3639286 9.4957489 -2.7185636)
(-20.251509 8.6155309 1.7792446)
(-19.492688 6.5424793 0.32778866)
(-17.294746 9.207833 2.1170674)
(-16.154711 7.3257944 0.12018605)
(-14.400316 9.7737918 2.3015572)
(-13.128004 8.043555 -0.24815255)
(-11.522309 10.298231 2.364604)
(-10.659918 8.5870342 -0.81315132)
(-8.7580898 10.705072 2.3064444)
(-8.917605 8.8554673 -1.6227204)
(-5.8428221 10.976381 2.0749014)
(-7.7350994 8.9330868 -2.8039238)
(-23.167638 7.5419217 0.93423726)
(-22.98421 5.0080134 -0.099736417)
(-21.520418 7.9391993 1.3323812)
(-20.902436 5.5316051 -0.099882367)
(-18.797438 8.5232085 1.8729306)
(-17.453065 6.391372 -0.20792741)
(-15.196539 9.2557144 2.2860875)
(-13.135879 7.4281888 -0.55456753)
(-11.3924 9.973083 2.4281392)
(-9.3748283 8.1934087 -1.2944424)
(-7.2251464 10.547809 2.3005451)
(-6.4354866 8.4965956 -2.6638576)
(-22.487639 7.1518754 0.11953557)
(-22.779734 4.2716352 -0.75718962)
(-22.230067 7.2908656 0.2544193)
(-22.452477 4.3858888 -0.79137727)
(-21.490594 7.5120879 0.53121644)
(-21.384819 4.6769911 -0.81821492)
(-19.555654 7.9868912 1.0699208)
(-18.605701 5.4135592 -0.93735033)
(-15.563429 8.8647427 1.7574162)
(-13.459979 6.644274 -1.4175441)
(-9.9064872 9.9573638 1.9313758)
(-7.6594254 7.6185012 -2.6274627)
(-19.872301 7.3948834 -0.48900825)
(-20.476494 4.2676148 -1.30046)
(-20.259186 7.3993973 -0.49624816)
(-20.90313 4.1873585 -1.3687312)
(-20.489938 7.4226754 -0.41774784)
(-20.967027 4.1930619 -1.4275208)
(-20.321775 7.5518237 -0.19543916)
(-20.394447 4.3756876 -1.5298756)
(-18.787839 8.0405498 0.25391831)
(-18.020902 4.9900463 -1.7999498)
(-14.014301 9.3326903 0.77411347)
(-12.373769 6.1611387 -2.6204928)
(-16.309604 8.1497683 -0.97563013)
(-16.89838 5.1401842 -1.8800964)
(-16.852808 8.1143241 -1.0597977)
(-17.691864 4.9609996 -1.9337686)
(-17.534894 8.0496478 -1.1091361)
(-18.420008 4.7902227 -1.9705195)
(-18.299747 7.9955877 -1.1119634)
(-18.921668 4.6748897 -2.0355663)
(-18.648469 8.1255532 -1.0426736)
(-18.763325 4.7538521 -2.2499373)
(-16.911672 9.0761648 -0.95591093)
(-15.992323 5.3653313 -2.9270274)
(-12.805799 9.0477205 -1.4807942)
(-13.369665 6.3799949 -2.7013195)
(-13.097982 9.0570445 -1.6002551)
(-13.859105 6.2746676 -2.7506672)
(-13.606541 9.0219609 -1.7155734)
(-14.578384 6.0994743 -2.7680558)
(-14.465196 8.9497356 -1.8699207)
(-15.547073 5.8590453 -2.7957314)
(-15.604806 8.9337662 -2.1243815)
(-16.339688 5.6641221 -2.9454111)
(-15.515117 9.5686117 -2.5621926)
(-15.568713 5.9033449 -3.5737524)
(-9.7676296 9.5814788 -1.8573569)
(-10.525908 7.1417182 -3.4523693)
(-9.8141343 9.6420466 -1.9905508)
(-10.687319 7.128779 -3.5485636)
(-10.053373 9.6633225 -2.14076)
(-11.038445 7.0548313 -3.6024371)
(-10.59725 9.6589472 -2.3839089)
(-11.683987 6.9040317 -3.6557063)
(-11.530682 9.6918249 -2.8631908)
(-12.617071 6.6979471 -3.8205973)
(-11.885806 10.234646 -3.7270659)
(-12.582727 6.8193041 -4.5100415)
(-7.6651088 9.1689548 -2.4079791)
(-8.0868063 6.9871006 -4.5086477)
(-7.405209 9.3002694 -2.5971699)
(-7.8687814 7.0827661 -4.724959)
(-7.3275942 9.3997594 -2.8032132)
(-7.8547716 7.1181299 -4.8815915)
(-7.4588725 9.4950258 -3.1319384)
(-8.0739398 7.0981895 -5.0426082)
(-7.8735936 9.663244 -3.7782004)
(-8.5566495 7.042159 -5.3207346)
(-8.0456412 10.224232 -4.9824258)
(-8.4386402 7.2322084 -6.1263889)
(-7.0155138 7.8326917 -3.2040349)
(-7.8353833 6.1313198 -5.6285602)
(-5.9173608 8.1882575 -3.7589751)
(-6.8734261 6.4510244 -6.2053103)
(-5.1913517 8.4520601 -4.2144288)
(-6.3023691 6.6529856 -6.5816589)
(-4.7051745 8.6911334 -4.6890572)
(-5.8952375 6.8196825 -6.9378368)
(-4.2999202 9.0135792 -5.40973)
(-5.5260893 7.0238456 -7.4573815)
(-3.6717867 9.7117665 -6.7222057)
(-4.6351751 7.4287362 -8.4436011)
(-9.3783393 4.6906684 -2.5750413)
(-12.463021 2.9607606 -4.4063785)
(-8.0611249 5.1236317 -3.1621834)
(-11.028584 3.5109676 -5.2632104)
(-6.4969126 5.6252968 -3.9559533)
(-9.4558105 4.1055259 -6.2509425)
(-4.779862 6.1997694 -4.9555908)
(-7.8965132 4.7369593 -7.3156721)
(-3.0175763 6.8574893 -6.1429769)
(-6.4592684 5.4006664 -8.4283842)
(-0.98310257 7.7894073 -7.5960165)
(-4.6820025 6.2347049 -9.8038861)
(-10.724762 1.6734503 -1.904766)
(-15.83648 -0.98954154 -2.9228109)
(-9.9350587 1.9859368 -2.1772749)
(-15.326319 -0.73333531 -3.1560665)
(-8.6887891 2.4189147 -2.6847436)
(-14.492299 -0.40121639 -3.5561673)
(-6.7469082 3.0612226 -3.5688681)
(-12.836209 0.21022724 -4.4260646)
(-4.0817427 3.9525798 -4.8789892)
(-10.089517 1.2607641 -5.9438908)
(-0.7319703 5.1245366 -6.4821101)
(-6.5135669 2.8341448 -7.812805)
(-10.904047 -0.29286348 -1.2742527)
(-16.728385 -3.5600161 -1.9379126)
(-10.322033 -0.029837741 -1.385407)
(-16.43195 -3.361383 -2.0025886)
(-9.4294941 0.29982715 -1.6129279)