/*--------------------------------*- C++ -*----------------------------------*\
| =========                 |                                                 |
| \\      /  F ield         | OpenFOAM: The Open Source CFD Toolbox           |
|  \\    /   O peration     | Version:  2206                                  |
|   \\  /    A nd           | Website:  www.openfoam.com                      |
|    \\/     M anipulation  |                                                 |
\*---------------------------------------------------------------------------*/
FoamFile
{
    version     2.0;
    format      ascii;
    arch        "LSB;label=32;scalar=64";
    class       volScalarField;
    location    "0.3";
    object      p;
}
// * * * * * * * * * * * * * * * * * * * * * * * * * * * * * * * * * * * * * //

dimensions      [0 2 -2 0 0 0 0];

internalField   nonuniform List<scalar> 
918
(
3.66739
4.0168
0.610001
3.62397
0.171236
3.77044
0.747533
2.65802
3.88106
1.07488
0.658382
3.15637
2.4143
2.14009
1.82551
0.369071
3.01735
0.585115
3.28147
0.423928
-0.548446
4.00907
3.36146
3.21773
3.08606
1.31657
2.36936
0.23734
-0.174615
-0.0271132
0.365965
0.345596
0.306431
2.26424
3.3651
4.3914
3.18354
2.31657
1.03732
1.09945
0.790331
0.570979
2.71399
2.76616
1.9764
2.5935
2.47729
3.2889
3.45225
3.8911
3.20771
3.37839
3.94698
1.22858
1.09906
1.02417
1.07169
1.00302
0.796919
0.711252
0.744909
0.620262
0.659818
3.03584
3.15597
3.16298
3.15779
3.14096
3.55147
4.08655
4.80064
1.98944
2.40621
2.53448
2.3309
2.42115
2.3924
2.1227
1.90272
1.79266
1.27787
2.02721
2.0694
-0.0556798
0.409388
0.43947
3.01562
3.03624
2.99016
2.95604
1.85122
0.707703
0.47769
3.29018
3.32077
3.90146
3.34398
3.6466
3.39996
0.455059
0.480335
0.11609
0.408024
0.391029
1.11145
1.4285
3.27852
3.30771
3.12539
3.20879
3.11642
2.77878
3.14983
3.10679
2.28815
1.68803
1.99003
1.85643
2.33167
2.24868
2.49603
2.3494
-0.0972487
0.028072
0.357069
0.322964
0.350674
3.18471
3.15097
3.23428
3.19733
3.22126
2.24631
2.21223
2.32755
2.40439
1.43473
1.46833
0.619504
0.676338
0.465268
2.25627
2.82504
2.84496
1.74711
2.00284
1.78633
2.10866
2.15788
3.21444
3.29227
3.2449
3.29665
3.3332
3.32152
3.39822
3.37283
3.9047
1.32761
1.38241
1.12942
1.08707
0.820078
0.865675
0.814942
0.919101
0.947961
0.873867
0.847576
0.730494
0.704544
0.902867
0.823309
0.85727
0.639691
0.539022
2.99429
2.98807
3.08441
3.08559
3.17177
3.15002
3.19006
3.17673
2.58605
2.57288
2.46523
2.4895
0.853554
-1.18091
2.28357
2.31566
0.0416761
-0.0472457
0.00546818
0.0549766
0.0545333
0.0194793
0.555975
0.446049
0.499622
0.507875
3.0638
3.08745
1.83456
1.93464
1.77091
1.70413
3.27959
3.31251
3.33779
3.32262
0.487318
0.564307
0.546129
2.36606
1.93258
2.14728
2.70948
2.6146
2.84689
2.88101
3.08311
3.0605
3.08311
2.31576
2.0531
2.51018
2.58135
2.29575
2.32167
3.12038
2.71863
2.25721
3.09499
3.12772
3.1345
3.23669
3.25519
3.25234
3.18248
3.22254
3.19977
2.10456
1.96143
2.35753
2.29471
2.35994
2.3482
2.18057
2.20288
2.91233
2.85301
2.88971
2.33792
2.29694
1.00916
0.999423
2.91784
2.97663
2.9462
2.43005
2.49592
2.41579
2.47179
2.42522
2.38402
1.87631
1.39519
1.83339
2.26879
2.32754
2.22801
0.677668
0.602835
0.62509
1.97845
2.01113
1.44717
1.56928
1.54875
2.09266
2.41616
2.20621
1.95022
2.24099
2.32632
2.44813
2.28132
2.30496
2.32075
2.15721
2.15478
2.58859
2.37206
2.42759
0.871105
0.992762
0.941846
1.97379
2.08142
2.05632
3.33862
3.54356
-0.057133
0.220915
3.54602
3.63102
-0.20424
0.148038
2.33823
2.01304
2.47839
3.33144
3.25053
3.37314
1.07881
1.20561
0.608178
0.771567
0.65482
3.09766
3.03601
2.96937
0.128457
0.351991
0.318187
0.99172
3.49006
3.36014
3.5397
3.58728
3.57975
0.155643
0.0791387
0.0152166
0.426058
0.329756
0.439364
3.17194
3.18949
1.40844
3.54007
3.5281
3.59873
3.40127
3.47415
3.36839
0.392379
0.150429
0.372036
2.74831
2.86464
2.36064
1.25392
2.55034
2.34376
2.33771
2.29792
1.86128
2.25184
1.73552
2.78531
2.62807
2.57035
2.28826
2.61333
2.53425
3.44404
3.32624
3.41162
3.2683
3.40878
3.17378
3.49113
3.37472
3.47833
3.3907
1.16457
1.1977
1.09816
0.934059
1.07993
1.44657
1.11759
1.13879
0.879306
0.628069
0.642523
0.596517
0.774416
0.672436
0.542628
0.819002
0.719212
0.787594
0.628268
0.840559
0.881062
1.00717
2.98215
3.17367
3.12404
3.1595
2.92667
3.13012
2.93455
3.07815
3.00432
2.79926
3.04564
2.9209
0.0557706
0.217827
0.298829
0.251605
0.479636
0.284394
0.474064
0.317037
0.275239
0.522459
0.198966
0.501017
1.06097
1.01068
1.82381
1.62178
1.00231
3.15271
3.39571
3.3293
3.40765
3.41455
3.3512
3.50095
3.22429
3.15312
3.26944
3.24252
3.20316
1.51281
1.29673
1.36686
1.69106
2.14884
3.0644
2.99185
2.67694
2.78086
2.90129
3.26218
3.18043
0.292986
-0.527759
2.19225
2.05493
2.16953
2.12766
2.34746
2.31664
2.11447
1.77425
1.94515
2.31968
1.98403
2.66685
1.99643
1.86751
2.22671
2.2307
1.9667
2.77536
2.84361
2.62422
2.48129
2.76418
2.69313
2.72825
2.71738
2.74232
2.82184
2.86457
2.60405
2.59688
2.96093
2.80062
2.76497
2.84773
3.30733
3.44219
3.28304
3.19213
3.33657
3.20497
3.24221
3.1459
3.34273
3.43451
3.35081
3.2182
1.22136
1.01682
1.2873
1.25663
1.32721
1.01923
1.38485
1.21017
1.32522
1.44479
1.45734
1.13489
1.40216
1.10209
1.24094
1.47657
1.34486
1.22571
0.772129
1.05408
1.13793
1.04302
0.97241
0.639704
0.752063
1.03999
0.715026
0.680589
0.879611
0.944546
0.664011
0.639369
0.529939
0.556639
0.797556
0.845243
0.680146
1.09397
0.302969
0.315386
0.367165
0.580535
0.538179
0.936241
3.22686
3.07598
3.17563
3.27024
3.20698
3.14186
2.89185
3.35728
3.25119
3.18309
3.03901
3.08593
2.99312
2.94131
3.0324
3.00167
3.27496
3.25918
3.17974
3.02269
2.90845
3.13243
2.99912
3.09632
2.96402
0.397538
0.415039
0.342857
0.482298
0.495077
0.323672
0.76317
0.315291
0.722588
0.503069
0.512163
0.334922
0.297423
1.2495
1.17957
1.42218
1.1431
1.10712
1.79263
1.87516
1.71736
1.52291
1.65819
1.8296
1.799
1.60567
1.63216
1.58916
2.13217
2.04484
3.41503
3.37983
3.23652
3.38888
3.3088
1.82025
2.0327
1.86744
2.2136
2.2886
2.3226
2.12309
2.04285
2.04776
2.16107
3.00668
3.0458
2.97615
3.05819
3.04982
2.66206
2.78984
2.70895
3.35388
2.94197
2.91881
3.16404
3.0624
2.91844
2.85958
2.96464
3.06003
2.93134
2.96489
2.83806
3.1548
3.01131
3.13447
2.95125
2.97083
2.8141
3.17628
3.17607
3.15344
2.84646
2.9516
2.98303
2.96976
2.9181
2.94522
2.9426
2.08437
2.04285
2.23265
2.27169
2.18929
2.07786
2.12973
2.08763
2.23283
2.02166
1.90937
1.55582
2.63067
2.83422
2.83078
2.77957
2.44986
2.61417
2.56465
2.28022
2.2204
2.94171
2.86842
2.904
2.80374
2.72543
2.69077
2.65369
3.0455
2.67475
2.25352
2.64593
2.35339
2.46136
2.71316
2.70895
2.67877
2.56317
3.04619
2.81119
2.77404
2.85691
2.62071
2.51956
2.72904
2.84267
2.9532
3.03501
2.78387
2.81521
2.77993
2.73964
2.7522
2.71802
3.21301
3.22677
3.16273
3.28277
3.17997
3.21257
3.12444
3.1816
3.34689
3.18754
3.40349
0.54453
0.653172
1.05236
0.862832
0.898489
0.947943
1.50834
1.35661
1.09646
1.14457
1.23624
1.31107
0.837431
1.05314
1.12859
1.04702
0.98139
1.04666
1.65665
1.63157
1.6029
1.52275
1.55393
1.53148
1.55739
0.808118
0.891995
0.830485
0.973389
0.90755
0.684
0.532087
0.386799
0.697168
0.77832
0.37139
0.40665
0.436758
0.649394
0.547062
0.508769
3.05674
3.15214
3.1857
3.269
3.0996
3.22775
3.0831
3.31659
3.24123
3.25715
3.15739
3.26635
3.09756
0.678376
0.863799
0.81582
0.477863
0.637989
0.233234
0.130253
1.98655
1.48065
1.388
1.65385
1.3409
1.45212
2.09393
2.05883
2.22704
2.09588
2.0954
2.08725
2.10364
2.17985
1.65666
2.07809
2.02841
1.84195
1.99136
1.97984
1.95116
2.01656
2.38586
2.48529
1.96038
2.20298
2.4914
2.45157
2.4226
2.45932
2.45399
2.2649
2.21301
2.009
2.11678
2.29534
2.15319
2.33866
2.31856
1.93772
2.13785
2.19455
2.99821
3.03049
3.01764
2.98706
2.94893
3.15278
2.8544
3.03213
3.0997
3.18342
1.6271
1.5938
1.64322
2.22239
2.70363
2.82529
2.54382
2.93042
2.84838
2.92627
2.83541
2.7691
2.75793
2.86417
2.70411
2.54453
2.59085
2.55272
2.62984
2.5577
2.75595
2.81412
2.70948
2.88528
2.76425
2.8497
2.88565
3.1477
3.39602
3.13972
3.29829
3.1331
3.16591
1.06587
0.906538
1.18906
1.01987
0.917498
0.853893
0.695587
0.644193
0.559805
0.837042
0.8354
0.522874
1.76868
1.88882
1.31157
1.75303
1.68978
1.52459
1.67661
1.5666
1.67781
1.5464
2.12305
1.88254
2.14403
1.97819
1.6533
1.94753
2.28428
2.32598
2.27812
2.14585
2.11889
2.36057
1.68481
2.14535
3.1949
3.264
2.55778
2.37115
2.57941
2.54907
2.89843
2.77761
2.81919
2.8744
2.82029
2.15657
2.20976
2.33652
2.38872
2.25167
2.17361
2.23237
2.30063
2.39164
)
;

boundaryField
{
    wall-4
    {
        type            zeroGradient;
    }
    velocity-inlet-5
    {
        type            zeroGradient;
    }
    velocity-inlet-6
    {
        type            zeroGradient;
    }
    pressure-outlet-7
    {
        type            fixedValue;
        value           uniform 0;
    }
    wall-8
    {
        type            zeroGradient;
    }
    frontAndBackPlanes
    {
        type            empty;
    }
}


// ************************************************************************* //
