/*--------------------------------*- C++ -*----------------------------------*\
| =========                 |                                                 |
| \\      /  F ield         | OpenFOAM: The Open Source CFD Toolbox           |
|  \\    /   O peration     | Version:  2206                                  |
|   \\  /    A nd           | Website:  www.openfoam.com                      |
|    \\/     M anipulation  |                                                 |
\*---------------------------------------------------------------------------*/
FoamFile
{
    version     2.0;
    format      ascii;
    arch        "LSB;label=32;scalar=64";
    class       surfaceScalarField;
    location    "0.3";
    object      phi;
}
// * * * * * * * * * * * * * * * * * * * * * * * * * * * * * * * * * * * * * //

dimensions      [0 3 -1 0 0 0 0];

oriented        oriented;

internalField   nonuniform List<scalar> 
1300
(
3.75095
5.62643
-7.01241
3.75095
-6.42794
5.62643
-6.46768
6.46768
-1.29916
1.29916
1.93152
1.81943
-5.86851
5.86851
-5.66892
5.66892
-3.09826
3.09826
-5.44223
5.44223
-5.27804
5.27804
3.6968
-3.6968
-5.34776
5.34776
-2.08812
2.08812
-6.48254
6.48254
3.24051
-3.24051
-5.67882
5.67882
-0.282287
0.282287
-0.447939
4.19889
3.30301
3.30301
-2.71866
2.71866
-5.68731
5.68731
6.2278
-6.2278
9.9939
-9.9939
-2.98149
-3.24705
1.22345
-7.88546
-5.20448
-5.20448
-8.66903
8.66903
-3.0426
2.58383
3.22121
-3.22121
-2.74515
2.74515
-6.19795
-0.269732
-6.19795
6.64518
-0.177496
6.64518
-1.54938
0.250221
-1.54938
4.82844
-4.82844
1.01721
0.281951
1.01721
3.18944
-3.18944
-1.89113
3.82265
1.85983
-1.77836
5.97725
-1.9726
3.79203
-4.9882
4.9882
-5.96241
0.0939068
-5.96241
5.84155
0.0269564
5.84155
-5.5792
5.5792
-5.68035
0.0114278
-5.68035
5.59496
0.0739552
5.59496
3.30883
-3.30883
-3.13109
0.0328307
-3.13109
3.06862
0.0296389
3.06862
0.166421
5.46001
-5.79285
8.37668
-5.46001
0.0177801
5.28573
0.156499
5.28573
-5.2804
0.00235378
-5.2804
5.37559
-0.0975512
5.37559
3.54605
0.150746
3.54605
-4.13916
0.442365
-4.13916
-3.21665
-3.22325
-5.43591
0.0881531
-5.43591
-2.16413
0.0760152
-2.16413
2.02619
0.0619307
2.02619
-3.96674
3.96674
-6.70324
0.220694
-6.70324
3.18929
0.0512234
3.18929
1.81675
1.93421
5.5677
-5.5677
2.32719
-5.67785
-0.000972198
-5.67785
-5.76929
-4.2246
5.76929
-0.0904726
-0.419043
0.136756
-0.419043
3.25309
0.0499212
3.25309
2.94508
0.12354
-2.94508
0.226421
3.71104
-3.71104
2.19027
0.528387
2.19027
-5.47839
5.47839
5.35152
0.0240766
-5.35152
-0.335798
6.23125
-0.00344991
6.23125
-6.17098
-0.0568123
-6.17098
3.28111
-6.52817
-3.28575
5.25075
0.0970063
-5.25075
0.0462661
3.20076
0.0204484
3.20076
-3.18164
3.18164
-3.19554
-0.0256695
-3.19554
-2.71342
-0.0317307
-2.71342
2.74923
-0.00407773
2.74923
-5.73595
-0.462
-5.73595
-6.75206
0.048821
6.75206
-0.106881
3.12809
-3.12809
-1.72395
0.174567
-1.72395
-5.26017
-0.475777
5.26017
-0.431732
-4.60004
-0.228405
-4.60004
-3.1937
-0.00183908
3.1937
-0.00425818
3.18443
0.0686593
-3.18443
-0.00500604
-1.87258
3.80679
-1.87837
3.7382
-4.64063
-0.347569
-4.64063
5.14413
-0.155931
5.14413
6.3632
0.11934
-6.3632
0.400789
5.6328
0.208752
5.6328
-5.44494
-0.134262
-5.44494
5.52956
0.049634
5.52956
5.64861
-0.0158149
-5.64861
-0.031734
5.76699
-0.172027
5.76699
3.32711
-0.0182825
3.32711
-3.20332
-0.105508
-3.20332
3.16357
-3.16357
3.09775
0.0658119
-3.09775
-0.0333374
-10.9988
10.942
0.0501625
-11.049
5.33589
5.33589
3.0142
0.531851
3.0142
-4.50759
0.368428
-4.50759
3.28317
-6.56892
3.24197
-6.45862
3.28707
-11.1725
3.36348
-6.58673
5.53871
-5.53871
5.39355
0.145164
-5.39355
-0.0423608
-2.18043
0.016303
-2.18043
-3.78558
-0.181155
-3.78558
4.31904
-0.352296
4.31904
-3.1971
3.1971
-3.18301
-0.0140959
3.18301
0.00627817
5.58092
0.186069
-5.58092
-0.0969279
0.720881
0.296326
-0.720881
0.301838
3.84912
-0.138082
3.84912
-3.48876
-0.222275
-3.48876
-2.16472
-0.0157125
2.16472
0.0255523
-5.88973
0.41134
-5.88973
-11.1486
0.0995767
-10.9921
-6.07141
-6.07141
2.59762
10.9743
-3.21901
0.0156866
3.21901
-0.0182519
3.14511
0.0519922
-3.14511
-0.0365255
-3.18479
0.0212272
3.18479
-0.00315583
-2.72098
0.00755751
-2.72098
-2.82443
2.82443
-2.85754
0.0331068
2.85754
-0.108308
3.18461
-0.0565291
3.18461
1.90439
0.121795
-1.90439
0.180444
-4.26115
-0.338882
-4.26115
5.23517
-0.0910447
5.23517
-3.40548
-0.0832832
3.40548
-0.0783638
-0.0140283
10.9561
-5.32186
0.0414691
5.32186
-10.9526
10.9941
-2.76054
0.0395598
2.76054
0.253657
5.04694
0.431452
-5.04694
0.539354
5.52451
0.00505072
-5.52451
-0.0141986
-3.50221
-0.283371
-3.50221
-4.45945
-0.181176
4.45945
-0.140416
-10.9673
-0.273083
11.2404
-11.0649
6.16282
0.0684293
-6.16282
11.0625
-2.89718
-0.230906
2.89718
-0.0727469
3.33062
-0.146008
3.33062
4.10253
-0.253413
-4.10253
-0.158623
-5.47734
0.0323985
5.47734
-0.242163
-3.46857
-0.0336484
3.46857
-0.137942
-4.17846
4.22838
1.79879
-3.31936
-3.2088
-7.54397
1.93815
1.86864
4.26534
-7.00174
-4.17079
-6.95547
6.48727
-5.94791
-6.24277
6.39352
7.66816
-7.89657
-5.69669
5.70297
6.35572
-6.35998
1.87856
1.94409
10.6133
-10.5194
-10.1247
9.77713
9.99628
-9.98485
10.4146
-10.5488
-11.8859
11.891
-5.55812
5.59096
-6.54397
6.43846
-6.58142
6.50306
-3.21621
-3.2424
8.74217
-8.65402
11.4445
-11.4455
-11.2639
11.4846
3.28169
0.946685
3.35035
-1.92697
3.80552
-1.86506
3.66385
3.23682
-6.45303
3.3321
-6.5409
5.81761
5.62694
-5.72713
-1.81683
-5.76107
5.78152
-5.68602
5.68286
11.0652
-11.3349
-1.82958
3.77367
-1.90862
3.77726
-3.33452
-2.36217
3.28329
0.982049
5.41815
3.32402
-5.51516
-1.44031
-7.49693
7.24351
-7.66495
7.44267
0.718681
5.10487
-5.82355
6.40599
-1.99536
7.10023
4.49191
4.86034
5.49282
-5.06137
0.455087
-6.27864
-6.61444
-2.22203
2.3966
1.93443
-1.65247
6.5666
1.10156
6.13487
-5.36308
-2.53349
-5.70196
3.76712
1.93585
3.75303
4.01163
2.34409
4.00979
2.95353
-3.11952
0.16599
-3.05128
6.00481
0.654143
-5.41345
-4.4314
6.78122
3.83208
6.80818
-7.3047
-3.21469
-6.90392
-6.09605
-4.02865
-6.27723
6.39585
3.38128
6.23992
-7.84351
7.60135
6.53214
3.46414
6.6061
-6.56207
-3.42278
-6.59381
10.4215
-2.88082
-7.54067
-6.92245
-4.96347
6.87281
3.54177
7.30917
4.58179
7.29497
3.49921
6.92229
-7.04098
2.07751
-3.72006
-1.83806
-3.7534
3.58917
2.00178
3.61881
-4.15339
-2.39058
-4.1377
-4.18561
-2.39581
4.20389
2.23457
-4.2389
-3.42605
4.32218
2.18087
3.07329
-7.24408
3.51344
-6.75584
-6.13829
-2.51573
-6.18065
4.14702
2.63563
-6.78265
-2.30601
10.6637
-5.03681
8.84692
-7.22185
-4.22367
-7.31878
-8.78524
-2.47865
-8.73642
-5.1592
4.87583
-5.66435
5.31206
10.3301
-5.74853
-4.58161
-3.98387
-2.37611
3.98888
-0.638523
-3.65748
3.82347
0.148038
3.81189
4.75858
4.12005
-3.77027
-1.91575
-3.8068
3.71793
1.96493
3.73916
8.65975
2.40541
8.48225
-7.53581
-3.79908
-7.99781
5.32332
-5.35505
2.87358
-2.88929
5.08723
2.35544
-4.94915
-2.54778
5.80455
-3.00639
-2.79816
-10.5479
6.55367
3.99424
-3.44768
2.95832
3.2406
-4.23149
-2.01128
3.78912
1.07122
7.62488
5.6136
-5.21037
5.62171
6.03003
6.0541
-0.560334
3.58721
-3.54765
6.46969
-1.11704
-5.35265
5.76315
-6.23892
-2.23466
-6.12877
3.89411
-0.104053
0.202964
-0.0662077
-1.8868
-0.335231
-1.70636
0.900264
1.03416
1.19659
1.07735
1.31925
-2.43133
0.0830062
2.34832
-1.35398
-1.56947
-4.1636
-0.148
4.3116
5.48875
1.75477
-5.33012
-0.371834
2.5463
-2.48437
-1.71548
-2.44813
1.12583
-2.8413
-3.09505
-2.20177
5.29683
-3.25527
-0.551529
3.20328
0.549751
-3.74924
-2.01183
3.77491
0.234875
-2.92055
5.97604
-3.0555
-4.83629
2.54925
3.45556
4.4851
-4.631
2.3684
2.2626
-1.17545
5.66603
1.14215
5.87478
-9.07293
5.85824
7.83219
3.65239
-7.95153
1.04761
-8.02532
9.30267
-8.34615
-0.956525
4.90477
4.3979
5.18095
5.14919
-3.46652
8.64747
-1.2477
-7.09845
9.27302
-5.62063
5.49784
-11.1185
-10.647
3.54859
-6.59428
8.36792
-1.77363
-2.58972
-5.25379
9.18401
-0.895091
-8.28892
5.34483
-5.05636
-5.3765
10.4329
-7.93718
8.79928
-2.59612
-6.20317
-6.61856
-3.93029
6.58616
1.01519
-9.72991
11.8074
-2.80762
5.87759
0.728507
5.70557
3.81987
-5.90773
2.08786
4.11731
-6.71343
2.44846
-8.35619
-4.76198
9.48059
-4.71861
-7.27771
-6.61192
-0.665784
2.05471
9.75271
-6.6365
5.35243
1.28407
3.17541
0.563755
-3.24122
-0.51218
0.302378
4.4188
-4.72118
3.92119
4.04473
3.40486
1.01394
3.76491
2.01661
-3.74665
-0.391046
-3.87743
1.48162
-1.64286
-3.45321
4.93483
-3.95611
0.502898
-2.58901
-3.38314
5.97215
-4.42707
2.85913
3.11692
4.82406
-4.68906
1.30592
-2.35934
-2.32972
2.65019
-4.29305
1.81959
3.11525
4.00046
0.574408
4.69234
4.78825
-7.32797
0.572131
8.11226
-6.67195
1.56899
5.72598
-6.92142
0.309501
-5.87115
1.11521
-6.15201
-5.66745
6.26663
-8.74527
-4.85185
8.11025
0.372004
-8.00337
-0.73305
-3.59877
-1.56043
-3.63242
-1.94749
-3.71686
-5.41402
-0.977815
-4.4362
3.89801
-4.14224
-2.13499
4.28265
1.02941
-4.44034
4.20943
-4.36185
4.21585
0.19421
3.62926
4.31426
1.93815
-2.45382
4.39197
-6.66437
9.06978
-10.7816
4.11726
4.61086
-8.40995
-6.17076
3.22862
2.0947
3.22454
5.52754
-6.78823
1.26069
-6.31441
7.48682
-1.17241
-9.697
3.38259
-4.16945
2.53739
0.336191
2.55369
0.651648
2.33427
-2.98591
-2.23764
-2.21209
-2.23246
-3.38611
5.61857
0.881387
-3.18542
2.30403
-3.33381
4.2152
-0.120975
-3.06444
4.92455
-2.59029
5.26075
-3.45478
1.80596
3.21426
5.2969
-2.08264
4.09585
-1.74041
1.83804
-3.92068
-1.54807
-2.95805
4.95983
-3.0141
3.51699
-0.238652
3.75565
-3.88877
0.882375
-0.483909
3.56082
3.78724
3.99934
-2.9854
2.71949
-4.4599
-1.20118
-3.88549
-0.770248
-0.833679
-5.07
5.90368
4.83374
-5.66742
-2.6653
5.39299
-2.72769
4.42558
-2.96431
-1.46127
-2.65645
-2.6986
2.64889
0.938316
5.3639
0.31443
-3.27874
-3.23322
-2.97956
4.93576
1.53392
-0.959241
4.95348
-2.28136
2.48433
0.793524
0.403066
1.02703
-0.233502
-0.638695
1.66572
-0.704903
1.8071
0.739201
-1.92889
0.222532
-1.93877
3.0646
0.409553
-1.44371
1.21021
2.45149
-3.56853
5.06568
-1.64237
-3.42331
7.51717
1.86204
-3.50441
4.26673
-4.37079
2.94284
-3.09084
-0.561566
-4.93235
-3.83079
-2.18767
4.4917
-3.4309
5.18567
1.39664
-4.81384
6.21048
-3.53097
1.3292
-2.63553
3.37473
-0.684222
-1.9513
2.46279
2.83404
-2.85873
0.410606
-0.395947
1.96191
-2.35786
-0.879392
-2.23337
-4.58225
4.81712
-2.15382
4.52222
2.23815
-1.90963
6.43185
1.72379
-3.63342
-3.1125
-3.66403
-1.37082
3.11428
-0.779999
-5.81381
-6.98316
5.82962
0.0451532
-9.016
10.0608
-1.04483
-5.18393
-0.674316
5.57909
-7.36337
0.649941
-4.91491
5.14592
6.28807
6.33322
-8.06741
-0.22151
-4.68613
1.41917
-6.1053
5.81707
-2.77064
6.31923
-6.90624
4.77124
-5.87683
5.3627
-0.742593
5.36125
-3.27339
2.17942
-6.10971
-5.09452
6.96576
-3.50163
7.69427
-4.12361
11.8179
-6.93124
6.90974
4.90814
-1.43313
-5.88565
-6.91572
5.4826
-0.00598435
5.69958
4.95693
-2.94032
4.56588
2.11775
-4.47709
-2.1753
-6.35825
1.88116
-3.24133
-1.70253
3.58369
3.12153
3.68528
1.25397
-3.1731
6.65467
-7.32045
-1.93605
-3.73139
6.61635
-1.13375
3.75934
-7.49073
-2.39268
5.08337
-0.527703
-4.55566
0.665163
-5.51701
2.4799
-7.99691
6.26537
-6.99842
1.34732
-5.51677
-3.09302
-3.16577
-1.27953
-3.08232
-4.45317
3.17363
-1.07058
3.13885
-5.62512
5.09741
-1.86171
5.03534
-3.24931
-0.38311
3.38725
0.828594
5.86393
-0.147385
-6.02338
-1.91372
5.75464
-3.84092
3.02205
-5.21738
0.537252
3.66244
3.85472
-7.55655
-0.853391
-6.87677
-2.31312
4.40782
3.07987
7.91361
1.12538
4.89037
-0.482552
6.01575
2.74199
2.63368
-3.83816
5.09885
2.06551
6.18277
-0.815513
2.62148
1.73818
1.81419
0.670171
2.28914
1.4981
3.17152
0.185604
-2.02649
2.71938
-5.69894
-0.559366
-5.16709
1.22643
3.79153
-2.5651
4.59526
-3.06134
0.754342
2.55249
-2.94448
0.391981
-2.80015
-0.460149
1.20557
-0.828545
2.03876
2.23605
-3.24433
0.444178
-0.115872
-3.71492
3.20672
-2.79611
0.0379314
6.24841
-2.37049
0.0126257
-1.04129
-2.22074
-2.55597
2.33344
6.10299
0.32886
3.04749
5.14598
3.13416
0.193839
4.18315
-5.95679
-4.17303
-6.1783
-0.361228
5.21786
1.77545
7.97726
6.6836
5.54985
-1.94088
-9.26133
7.4367
-2.33785
6.26429
-1.70863
-6.28828
6.43933
2.63045
-6.81134
-0.187088
-6.47536
-8.81322
-0.208681
5.30609
-5.65525
5.27214
3.71171
0.724487
-2.65853
-0.50724
2.62542
0.00825896
6.02401
-1.09469
-5.33262
6.42731
-2.69684
2.13747
3.7534
1.20008
4.14538
1.08404
-4.24858
-6.81368
-1.26654
-2.30198
-4.68985
-0.378251
-1.8578
3.88901
-1.75154
2.42774
4.67578
5.43012
-1.4976
-4.16981
4.2253
-1.79756
3.63256
)
;

boundaryField
{
    wall-4
    {
        type            calculated;
        value           uniform 0;
    }
    velocity-inlet-5
    {
        type            calculated;
        value           uniform -3.75095;
    }
    velocity-inlet-6
    {
        type            calculated;
        value           uniform -5.62643;
    }
    pressure-outlet-7
    {
        type            calculated;
        value           nonuniform List<scalar> 8(7.01241 6.42794 6.22854 6.662 6.43989 6.56686 6.52514 6.65056);
    }
    wall-8
    {
        type            calculated;
        value           uniform 0;
    }
    frontAndBackPlanes
    {
        type            empty;
        value           nonuniform List<scalar> 0();
    }
}


// ************************************************************************* //
