/*--------------------------------*- C++ -*----------------------------------*\
| =========                 |                                                 |
| \\      /  F ield         | OpenFOAM: The Open Source CFD Toolbox           |
|  \\    /   O peration     | Version:  2206                                  |
|   \\  /    A nd           | Website:  www.openfoam.com                      |
|    \\/     M anipulation  |                                                 |
\*---------------------------------------------------------------------------*/
FoamFile
{
    version     2.0;
    format      ascii;
    arch        "LSB;label=32;scalar=64";
    class       volVectorField;
    location    "0.3";
    object      U;
}
// * * * * * * * * * * * * * * * * * * * * * * * * * * * * * * * * * * * * * //

dimensions      [0 1 -1 0 0 0 0];

internalField   nonuniform List<vector> 
918
(
(0.636435 -0.372485 0)
(0.358366 2.72893 0)
(-0.228039 1.7728 0)
(0.545602 0.304476 0)
(0.277398 1.72793 -7.99227e-20)
(-0.460869 2.19185 -1.75903e-18)
(1.09735 1.82774 -1.36342e-19)
(0.436938 0.257931 -1.19724e-20)
(0.75142 0.00185517 0)
(0.00892227 1.80116 0)
(0.00571393 1.74245 0)
(0.951157 0.00161916 0)
(0.187171 3.00601 0)
(0.180567 2.94766 0)
(-0.121358 2.59401 -4.1024e-19)
(-0.00956705 1.72412 -7.25439e-20)
(0.678031 0.16727 9.42597e-19)
(0.161707 2.07789 -1.37203e-19)
(1.01194 -0.00650203 0)
(0.00951612 1.74307 0)
(0.00940427 -0.198074 5.62123e-20)
(0.489774 -0.135585 0)
(0.923752 0.0644769 0)
(1.05072 0.0331031 0)
(0.855557 0.0270225 0)
(0.234738 3.08147 0)
(-0.0249775 2.94145 4.98175e-19)
(-0.443664 1.72046 0)
(-0.0334679 1.68726 0)
(-0.180595 1.73816 0)
(0.0943782 1.698 0)
(-0.127478 1.59998 6.15092e-20)
(-0.0180069 1.75249 0)
(-0.294887 3.14796 -4.32458e-23)
(-0.0515892 3.0669 1.44896e-18)
(0.0751938 3.01346 0)
(0.989857 -0.00333839 0)
(0.841308 1.35113 3.07061e-19)
(1.1233 1.6882 3.96275e-19)
(1.24487 1.60599 -3.11832e-19)
(0.945694 1.89048 2.91705e-20)
(0.896193 1.99871 -1.35668e-19)
(0.467981 0.302772 1.16651e-20)
(0.509497 0.263853 0)
(1.37272 0.820523 0)
(0.375018 0.31214 4.95672e-20)
(0.351649 0.237882 -5.15383e-20)
(0.981862 -0.00813332 0)
(1.14523 -0.00705166 0)
(0.750172 -0.0111878 0)
(1.04878 -0.0731662 0)
(1.0834 -0.0367153 0)
(0.811004 0.0183924 0)
(0.0170861 1.63585 -4.79179e-19)
(0.0293669 1.82136 0)
(0.0291716 1.82475 0)
(-0.0136569 1.80445 0)
(-0.000174963 1.79387 0)
(0.00440315 1.73306 0)
(0.0189672 1.75075 0)
(0.00835746 1.74522 0)
(-0.0259667 1.73586 0)
(-0.0103519 1.71677 0)
(1.01534 0.0015336 0)
(0.96174 0.0135079 0)
(0.961746 0.00256473 0)
(0.951397 -0.00121856 0)
(0.94087 -0.000223274 0)
(-0.0152147 2.57337 5.28466e-19)
(0.330652 2.67094 0)
(-0.0122411 2.35484 0)
(0.00402727 3.24498 4.50729e-24)
(-0.247845 3.18029 -8.24894e-19)
(0.124255 2.99111 0)
(-0.00945085 2.97166 0)
(0.0912059 3.02824 1.32979e-24)
(0.0495426 2.96164 0)
(-0.00521263 2.94206 0)
(-0.280819 3.01356 0)
(0.131904 2.62637 0)
(-0.0534538 2.78623 0)
(-0.0153309 2.64047 3.65062e-19)
(-0.0498336 2.64312 0)
(3.87177e-05 1.73419 0)
(-0.0186696 1.73573 7.15367e-20)
(-0.00413322 1.72714 -8.50851e-20)
(0.706726 0.16593 -3.27149e-19)
(0.718133 0.141296 -3.19036e-19)
(0.672582 0.210802 -9.7663e-19)
(0.649741 0.203954 -6.16711e-19)
(0.162414 1.4044 0)
(0.346907 2.10746 9.92832e-20)
(0.414922 2.14799 -1.49856e-19)
(0.994854 0.00467467 0)
(0.97923 0.00235116 0)
(0.757606 0.00854676 0)
(1.09954 -0.0197938 0)
(0.891978 0.0779492 -3.62948e-18)
(0.946346 0.207271 2.74603e-18)
(0.0116031 1.75437 0)
(0.00791872 1.74379 0)
(-0.00807699 1.61283 0)
(-0.044037 1.76113 0)
(-0.00442905 1.78601 0)
(0.234058 0.1486 1.59384e-20)
(0.148283 0.123874 0)
(1.01897 0.00117762 0)
(0.996877 -0.00557126 0)
(0.931734 0.0555955 0)
(0.877456 0.167636 0)
(0.889851 0.00222682 0)
(1.15011 -0.00658018 0)
(0.826882 0.0222768 0)
(0.801936 0.0236764 1.51457e-18)
(-0.046132 2.85579 5.65839e-19)
(0.00611421 3.13261 0)
(-0.0408058 3.20804 0)
(0.0750549 2.98462 0)
(0.0589254 2.97288 4.68637e-19)
(0.00107806 2.96309 0)
(0.00453039 2.94918 -1.41395e-18)
(-0.0339798 2.9504 4.75447e-19)
(0.0380353 1.74455 0)
(-0.00469592 1.73707 0)
(0.0115189 1.72857 -2.16032e-21)
(-0.0463918 1.74545 0)
(0.00939558 1.71785 0)
(0.991843 -0.0135803 0)
(0.984367 -0.00827396 0)
(0.97687 0.00119196 0)
(0.992846 -0.0186683 0)
(0.979204 0.00874971 0)
(0.874599 1.41804 -3.78948e-19)
(0.92176 1.39097 0)
(0.835239 1.34578 4.33228e-20)
(0.78321 1.28894 0)
(1.19711 1.45991 1.07206e-19)
(1.33292 1.32064 -2.63218e-19)
(0.571686 2.10386 0)
(0.769609 2.02668 0)
(0.667295 2.11538 0)
(0.541236 1.29865 -2.08433e-19)
(0.529179 0.298318 0)
(0.556166 0.249179 1.65981e-19)
(1.24337 1.22087 0)
(1.2703 0.987104 0)
(1.36619 1.06448 3.2397e-19)
(1.3146 0.756015 0)
(1.38702 0.628805 1.60477e-20)
(0.983516 0.0321247 0)
(0.984192 -0.0151739 0)
(0.981484 -0.00607872 0)
(0.99156 0.00421014 0)
(0.986118 -0.0451596 0)
(0.975335 0.00563197 0)
(1.1069 0.0102986 0)
(1.05128 0.00358546 0)
(0.757468 0.00917822 0)
(0.0482618 1.60862 2.5455e-19)
(-0.00537624 1.55231 0)
(0.0342373 1.6645 4.43149e-19)
(0.0144421 1.6609 -4.04298e-19)
(0.0668601 2.02479 1.17586e-19)
(0.0588081 1.91208 0)
(0.00667293 1.96459 0)
(-0.00155319 1.77622 0)
(0.00299973 1.72674 0)
(0.00454545 1.71903 -2.2875e-21)
(-0.0221532 1.70099 0)
(-0.011069 1.73405 -1.24072e-19)
(-0.00238036 1.71489 2.43107e-19)
(0.0147251 1.73943 0)
(0.033614 1.74984 0)
(-0.00130346 1.73346 0)
(0.000300514 1.75304 0)
(-0.00243405 1.77099 0)
(1.02502 0.0111956 0)
(1.02091 0.000657618 0)
(1.0036 0.0151352 0)
(0.983539 -0.00549632 0)
(0.97115 -0.00187749 0)
(0.967391 0.0010485 0)
(0.962148 0.0146596 0)
(0.950014 -0.000917718 0)
(0.0169789 2.99155 -4.63355e-21)
(0.0125431 3.03025 0)
(-0.0389426 3.01364 0)
(-0.0549453 2.99611 0)
(0.630412 2.93965 0)
(1.13788 2.28308 -4.65361e-21)
(-0.0587299 2.67034 0)
(-0.0895119 2.64647 0)
(-0.00499581 1.75467 0)
(-0.0153093 1.72378 0)
(-0.00313847 1.7387 0)
(0.10917 1.70498 -1.60021e-20)
(0.0440455 1.75742 0)
(-0.0227128 1.78403 0)
(0.0115665 1.72816 1.35985e-20)
(0.0231687 1.72178 8.61021e-20)
(-0.0147049 1.72213 8.69213e-20)
(0.00991944 1.69261 0)
(0.737117 0.162349 5.14443e-19)
(0.74251 0.0950052 -5.07023e-19)
(0.2047 1.41976 0)
(0.224857 1.37533 -1.22633e-19)
(0.137026 1.48085 -3.88062e-19)
(0.0781797 1.49189 3.88005e-19)
(0.981699 -0.00265331 0)
(0.983381 -0.0155018 0)
(0.983319 0.00726127 0)
(0.9771 0.00228995 0)
(0.0250001 1.75639 0)
(0.0259464 1.73733 0)
(0.00537903 1.71088 0)
(0.281304 0.279837 4.37213e-19)
(0.167991 0.236255 -4.41113e-19)
(0.258291 0.19585 0)
(1.18026 0.0926722 5.81656e-20)
(1.24557 0.0583394 0)
(1.11186 0.0555648 0)
(1.06945 -0.00408964 0)
(0.767332 0.0942473 0)
(0.801032 0.0664107 -2.42636e-18)
(0.764851 0.0562102 8.99435e-19)
(-0.0818918 2.92132 4.73352e-19)
(-0.0993625 2.95176 -4.00073e-20)
(0.0114391 3.05555 -8.42212e-21)
(-0.0355742 3.06616 3.25634e-19)
(-0.0293223 3.00584 1.51586e-20)
(-0.0219529 2.91781 -5.90495e-23)
(-0.165202 2.86306 -3.2107e-19)
(0.186386 3.10308 2.31923e-19)
(0.0377963 3.0629 -3.25875e-19)
(0.994767 -0.0155113 0)
(0.986966 0.0467181 0)
(0.986033 0.0111804 0)
(0.97955 -0.00357025 0)
(0.976833 0.00794028 0)
(0.964933 -0.00123928 0)
(0.978888 -0.0123453 0)
(0.982798 0.00669095 0)
(0.978178 0.00122504 0)
(0.977725 1.44609 -3.89621e-19)
(1.01622 1.4649 0)
(0.627369 1.24281 6.65386e-20)
(0.66307 1.32593 5.19735e-19)
(0.746527 1.34239 -3.22949e-19)
(0.713452 1.30704 6.24322e-19)
(0.493959 1.324 1.00301e-18)
(0.470839 1.28616 1.87803e-19)
(0.638361 0.237772 6.49061e-19)
(0.58503 0.275151 1.65843e-19)
(0.609271 0.23076 3.13697e-19)
(1.30678 0.558726 -3.91258e-19)
(1.34737 0.420456 -4.24754e-19)
(0.0042375 1.6769 1.93655e-19)
(0.000528898 1.66463 0)
(1.06564 0.0199512 0)
(1.03978 0.0151318 0)
(1.04508 0.000372226 0)
(-0.0361546 3.05139 0)
(0.0860715 3.01083 6.936e-19)
(0.0303667 3.03252 0)
(0.0100857 2.99162 -6.93299e-19)
(-0.12478 3.02826 1.62353e-19)
(-0.0521754 2.97844 0)
(1.0563 1.55979 9.71071e-20)
(1.18731 1.59653 -3.67367e-19)
(1.04859 1.45696 2.51928e-19)
(-0.0901949 2.86228 -5.19846e-19)
(-0.0989931 2.77351 0)
(-0.0686843 2.78223 0)
(-0.0118463 1.72388 -6.45306e-21)
(0.0409693 1.7242 -2.0829e-19)
(-0.0114372 1.71564 -6.51454e-21)
(0.271012 1.36559 3.99374e-19)
(0.26618 1.3072 -2.70682e-19)
(0.00681879 1.56034 3.1314e-19)
(0.0680146 1.52954 -3.4603e-19)
(0.0236611 1.51892 1.41343e-20)
(0.0349729 3.02746 -1.03238e-18)
(-0.145937 3.06456 1.19681e-18)
(0.0993192 2.97313 4.65423e-19)
(-0.0876599 3.04576 -4.30515e-19)
(0.177634 2.97398 -4.74423e-19)
(-0.125222 2.97209 -1.25555e-18)
(-0.191183 2.98026 1.28905e-18)
(0.547592 1.302 0)
(0.572794 1.2908 -1.08402e-18)
(0.566387 1.24031 4.78255e-19)
(0.439171 1.32801 5.45411e-19)
(0.411678 1.30739 -8.49508e-19)
(1.24428 0.208258 2.25817e-19)
(1.28283 0.395033 0)
(1.32926 0.247831 -2.21061e-19)
(-0.0477365 1.72863 -2.49467e-21)
(0.0179485 1.70259 0)
(0.0162143 1.72238 0)
(0.285576 1.3598 -1.39498e-19)
(0.370088 1.34841 -3.21362e-19)
(0.359235 1.32919 6.02191e-19)
(0.964267 -0.0285532 0)
(0.984921 -0.059149 6.81659e-19)
(0.0994118 1.72309 0)
(-0.0338279 1.62845 0)
(1.00821 -0.0645613 1.18037e-20)
(0.859112 -0.028892 1.38791e-18)
(0.113324 1.83269 2.14336e-20)
(0.10279 1.74738 0)
(-0.113068 2.79287 5.32035e-19)
(0.110935 2.46718 0)
(1.20397 0.665036 -2.20219e-19)
(1.02454 -0.00987037 4.35388e-21)
(0.978069 0.0342239 0)
(0.897966 0.00369658 3.97979e-23)
(0.0100714 1.88097 0)
(0.119697 1.69417 0)
(-0.0272866 1.79111 0)
(0.0842332 1.75091 1.34562e-19)
(0.0287175 1.74291 1.16013e-19)
(0.995099 -0.00122219 1.49559e-20)
(1.00055 0.0581042 0)
(1.03993 0.0358634 0)
(-0.0434657 1.6215 0)
(0.0260238 1.76034 0)
(-0.0250917 1.77663 0)
(0.255977 1.97212 1.80108e-19)
(1.01144 -0.132709 0)
(0.981062 -0.0430622 0)
(0.917844 0.0915061 8.40856e-19)
(0.966408 0.0699924 -1.0321e-18)
(1.04354 -0.0761343 0)
(0.110009 1.71457 0)
(-0.0557323 1.74061 0)
(-0.00489768 1.81995 0)
(-0.00200354 1.81004 0)
(-0.17562 1.83358 0)
(0.00134209 1.61458 0)
(0.992663 0.0121961 0)
(1.01523 -0.0148751 9.42172e-21)
(0.942719 1.64475 -1.96652e-19)
(0.929926 -0.112627 -8.41598e-19)
(1.0194 0.0397934 1.02009e-18)
(1.05027 0.0281085 0)
(0.98756 -0.00501045 8.16911e-19)
(1.06948 0.138515 -1.01882e-18)
(0.947236 0.0253018 0)
(0.00937473 1.76724 0)
(0.172918 1.79003 6.24762e-20)
(-0.0217756 1.68678 -4.72911e-20)
(1.11706 0.238831 1.20768e-18)
(1.07138 0.0667487 0)
(-0.800822 2.76582 -6.76003e-19)
(-0.257209 3.47045 -3.55277e-20)
(-0.416354 2.65895 1.24763e-18)
(-0.00937754 2.73884 -2.89988e-19)
(0.00703359 2.60304 0)
(-0.0284522 2.90563 2.20736e-19)
(-0.302776 3.06333 6.42892e-19)
(-0.080904 2.84948 -4.04263e-19)
(-0.359504 3.03962 0)
(0.596736 0.287748 0)
(0.42409 0.324147 0)
(1.05569 0.860408 6.59689e-19)
(1.15102 0.918587 -8.34568e-19)
(1.15574 0.535694 0)
(1.13047 0.569308 0)
(1.01675 0.0479169 -1.5614e-18)
(0.953256 0.00791944 1.96705e-18)
(1.05791 -0.156911 0)
(0.98487 -0.0381932 0)
(0.85261 0.0901104 0)
(1.06465 -0.0721932 0)
(1.03993 0.0648178 0)
(0.972659 -0.00247171 0)
(0.989985 -0.132458 0)
(0.917672 -0.0243569 0)
(0.0607381 1.86942 0)
(0.0345455 1.72695 0)
(-0.000972364 1.86431 0)
(0.153029 1.86217 0)
(0.270518 1.70948 0)
(0.0408986 1.63074 -2.49949e-19)
(0.0885033 1.67119 0)
(-0.00745799 1.63968 1.63919e-19)
(0.101428 1.76223 -2.24258e-19)
(0.0655184 1.77434 0)
(0.0780707 1.72604 0)
(-0.0517039 1.75912 0)
(-0.0543588 1.70948 0)
(-0.0128244 1.73585 -1.29951e-19)
(0.0142154 1.7885 1.48472e-19)
(-0.0138187 1.79648 2.06696e-19)
(-0.0248175 1.71488 0)
(-0.0524051 1.76048 -3.16242e-19)
(-0.0271718 1.69418 -1.84081e-19)
(0.0909741 1.87393 9.89428e-20)
(-0.236484 1.67604 -1.89286e-19)
(-0.0173185 1.63266 -2.5427e-19)
(0.991411 -0.0366404 1.41239e-18)
(0.956014 -0.0334762 -1.80377e-18)
(0.980135 0.0359821 -1.4559e-18)
(0.917141 0.0178283 1.84925e-18)
(1.07567 0.145759 0)
(1.00671 0.00777461 0)
(1.06834 0.0580965 0)
(1.08014 -0.0524005 0)
(1.00345 -0.00437989 0)
(1.11378 0.0919522 0)
(1.07869 0.00899288 0)
(1.01773 0.026762 0)
(-0.233438 1.68879 -9.05046e-21)
(-0.0471436 1.71823 0)
(0.0715962 1.73059 0)
(0.0540793 1.74415 3.73802e-20)
(0.0733245 1.73898 -2.45513e-21)
(-0.0367675 1.74428 8.96575e-20)
(-0.169298 1.66946 -8.98354e-20)
(-0.108037 1.748 0)
(0.0814939 1.73143 0)
(0.121372 1.64163 0)
(-0.0634933 1.77371 0)
(-0.0880946 1.75727 0)
(0.341457 1.92344 -3.96383e-19)
(0.465449 1.97102 -1.27831e-19)
(0.340174 1.4173 -9.90172e-20)
(0.239218 1.5842 2.96384e-19)
(0.354759 1.78937 9.81034e-20)
(1.05073 0.0529609 0)
(0.998355 0.0666816 0)
(0.994127 0.0570828 0)
(0.921272 -0.0550162 0)
(1.03271 -0.0212256 0)
(0.935171 0.0445116 0)
(0.96214 0.126421 0)
(0.96155 0.0150327 0)
(1.00103 -0.0373656 1.48016e-18)
(0.981508 -0.0286162 -1.89746e-18)
(1.00666 0.0487271 -1.49234e-18)
(0.962629 0.0269558 1.86881e-18)
(0.907888 1.65141 0)
(0.852737 1.73343 -3.16202e-19)
(0.868183 1.60065 -2.68188e-19)
(0.998965 1.43861 3.53745e-19)
(0.889161 1.51395 1.16461e-18)
(0.839732 0.113022 5.89925e-19)
(1.11697 0.0665274 0)
(1.16784 0.269031 -9.67577e-19)
(1.1114 0.0962787 -4.12594e-20)
(0.994083 0.0831413 0)
(-0.795498 2.37677 6.35443e-19)
(-1.04954 2.28501 -9.56859e-19)
(-1.20327 3.33561 3.22013e-19)
(-1.59712 1.15406 -2.1588e-19)
(-0.112052 2.3585 3.08555e-19)
(-0.135477 2.5865 0)
(-0.130906 2.5093 -3.93463e-19)
(-0.311463 2.27454 -1.58046e-18)
(-0.105523 2.25179 0)
(-0.0709652 2.98037 3.66056e-20)
(0.0148964 3.0666 -3.15972e-19)
(0.0244553 3.04904 4.73382e-19)
(-0.236593 2.99643 0)
(-0.0835497 2.96342 0)
(1.03847 1.67001 0)
(0.315692 1.11375 -4.7807e-19)
(1.10198 1.14574 2.8196e-19)
(0.921102 1.44761 0)
(0.790663 1.07225 -2.40642e-19)
(1.0252 1.10928 1.78732e-20)
(-0.00284193 0.146293 -6.53394e-19)
(0.62932 0.250768 -9.50754e-21)
(0.619184 0.291846 3.54816e-19)
(0.355301 0.436615 2.25516e-20)
(0.286259 0.31811 -8.68133e-19)
(0.528927 0.439769 0)
(0.535074 0.544296 5.95752e-19)
(0.552413 0.343678 0)
(0.423122 0.362542 0)
(0.469268 0.334859 0)
(0.598246 0.705197 4.9781e-19)
(1.19469 0.190121 -1.02003e-18)
(1.12862 0.536775 0)
(1.20666 0.286047 0)
(0.727468 0.210377 5.72823e-19)
(0.613906 0.724141 -3.61692e-19)
(0.508447 0.521558 6.88134e-19)
(0.806316 0.354154 -8.45156e-19)
(0.994871 -0.0450314 1.02596e-18)
(1.0078 0.158982 -1.05347e-18)
(0.985604 0.0299541 0)
(1.02289 -0.0215903 0)
(1.00335 -0.0269832 -9.77936e-19)
(0.984831 0.0376628 9.70936e-19)
(0.960095 0.0739447 0)
(0.917178 0.0233834 0)
(1.00002 -0.00210274 0)
(0.968111 -0.0553135 0)
(1.06605 0.0185448 0)
(0.948782 -0.0324221 0)
(0.18893 1.79541 0)
(0.119773 1.76989 0)
(0.276105 1.85167 -2.83702e-19)
(0.314555 1.97618 -1.20137e-19)
(0.33237 1.90235 -2.86417e-19)
(0.213554 1.90652 4.51404e-19)
(-0.0156363 1.75588 0)
(0.0953272 1.74577 -2.56496e-19)
(-0.0814016 1.77579 0)
(0.261227 1.66188 -1.40704e-19)
(0.169575 1.60145 3.85687e-19)
(0.321904 1.68028 2.23694e-19)
(0.156616 1.77582 -1.34946e-19)
(0.0940379 1.77246 1.08454e-19)
(0.16502 1.79092 -3.32495e-19)
(0.22604 1.80987 0)
(0.301263 1.65548 2.53283e-19)
(0.106 1.60652 -9.98115e-20)
(0.187343 1.74527 0)
(0.00202327 1.79437 2.44761e-19)
(-0.136018 1.66076 0)
(0.0276176 1.68599 -1.81454e-19)
(0.000290727 1.63711 0)
(0.00159891 1.70597 -1.40315e-19)
(0.0894827 1.6944 0)
(-0.0162231 1.76636 0)
(0.058639 1.7395 1.57791e-19)
(0.141753 1.7956 1.90117e-20)
(0.0163662 1.75539 2.81077e-19)
(0.00526058 1.69142 2.1263e-21)
(0.193321 1.68984 9.31578e-20)
(0.112595 1.59815 5.7377e-20)
(-0.15638 1.73882 0)
(-0.100427 1.73831 0)
(-0.00607858 1.67289 2.22214e-19)
(-0.0439715 1.70887 2.21396e-19)
(0.0743562 1.81553 -2.70591e-19)
(-0.0230237 1.79706 0)
(0.112514 1.79353 -2.05519e-19)
(-0.0957981 1.64934 7.0963e-20)
(-0.0429702 1.75984 -2.03413e-20)
(0.152115 1.8386 -1.11422e-19)
(0.165739 1.66179 -3.77374e-20)
(-0.0162861 1.65034 2.52484e-19)
(0.987079 0.0572725 -9.98782e-19)
(0.997255 -0.14742 9.72208e-19)
(0.977266 0.03811 0)
(0.937361 -0.0658375 1.35652e-18)
(0.90786 0.153399 -1.47538e-18)
(0.97032 0.0036315 1.61104e-18)
(0.958098 -0.0219839 -1.71072e-19)
(1.0626 -0.132213 0)
(1.01981 0.00666352 9.66196e-19)
(0.986916 -0.0414789 -9.55574e-19)
(0.978194 -0.0661507 -5.58959e-20)
(0.968785 0.119465 4.65564e-19)
(0.950061 0.0817479 0)
(0.955506 0.115797 -1.62713e-19)
(0.974241 0.0113941 0)
(0.956622 0.0829203 0)
(1.05729 0.084492 0)
(0.924746 -0.0186739 0)
(0.978926 0.0731707 3.49089e-19)
(1.06777 -0.00398139 -7.41442e-19)
(1.03094 -0.0324028 -3.64905e-19)
(1.01123 -0.00956165 -4.1084e-19)
(1.10807 0.0299471 7.90551e-19)
(0.969263 0.0651161 0)
(0.9841 -0.0155659 0)
(-0.0151151 1.85331 -1.17249e-19)
(0.246779 1.78424 -1.47827e-20)
(0.0785984 1.56392 0)
(0.0276749 1.74994 1.20843e-19)
(-0.195163 1.64132 2.3059e-20)
(-0.0825305 1.67255 -1.40043e-20)
(-0.146146 1.77151 1.55251e-19)
(-0.10492 1.7496 -7.28539e-21)
(0.163537 1.67466 5.33234e-20)
(0.113543 1.7544 -7.3467e-20)
(-0.0854708 1.75816 8.69853e-20)
(-0.0514414 1.63239 -2.73572e-21)
(0.0276543 1.90574 1.16571e-19)
(0.468708 1.73207 2.14996e-19)
(0.245715 1.86197 3.40979e-19)
(0.76145 1.80381 3.07512e-19)
(0.575168 1.91258 1.22795e-19)
(0.671177 1.92237 0)
(0.399718 1.44583 1.1805e-19)
(0.260142 1.37742 1.42112e-19)
(0.277763 1.54025 1.59316e-20)
(0.313078 1.52825 -4.51972e-19)
(0.5292 1.53304 3.76346e-19)
(0.181709 1.49691 0)
(0.175819 1.44525 -2.38868e-19)
(0.104777 1.64094 6.1429e-19)
(-0.0213448 1.61017 -3.84374e-21)
(0.0255976 1.52038 -7.62481e-19)
(0.681624 1.34887 6.23646e-19)
(0.472788 1.42976 0)
(1.04159 0.172872 3.34434e-20)
(0.984535 -0.143853 -2.82817e-20)
(0.975882 -0.122938 -4.91448e-19)
(1.06263 0.0482093 4.97845e-19)
(0.974243 0.0184251 0)
(0.721793 1.59535 0)
(0.899255 1.59162 0)
(0.881069 1.32654 0)
(0.716331 1.41947 0)
(0.796218 1.54584 1.12147e-20)
(0.708181 1.47931 0)
(0.518322 1.40847 6.65526e-21)
(0.407412 1.4305 0)
(0.57377 1.55 -5.61074e-19)
(0.634964 1.40369 3.62308e-19)
(0.790026 0.0998697 0)
(0.763266 0.114304 1.55023e-19)
(0.864037 0.159758 9.64185e-19)
(0.834375 0.0543658 -3.49962e-19)
(0.837799 0.0982395 -1.10433e-18)
(1.1314 0.192805 -1.18861e-18)
(0.724776 0.439333 -2.55216e-20)
(0.927299 0.140243 8.71472e-19)
(0.907899 0.130366 8.86666e-19)
(0.849361 0.195359 -1.32468e-18)
(0.898249 0.28804 1.59782e-19)
(0.732751 0.282581 -4.11572e-19)
(0.762379 0.27658 0)
(0.930651 0.141642 6.62406e-19)
(1.0279 0.134916 0)
(0.951373 0.116948 0)
(1.00814 0.208441 3.98853e-19)
(0.974506 0.365151 -7.88258e-22)
(0.848202 0.109748 -2.24284e-19)
(0.983443 0.0931195 0)
(0.9722 0.0279281 7.70204e-19)
(0.912942 -0.0891018 9.29046e-19)
(1.06421 0.070123 -7.4657e-19)
(1.0086 0.139172 -6.2476e-19)
(0.949307 -0.0537539 -9.62854e-19)
(0.879036 0.223969 0)
(0.940672 0.0171549 0)
(0.882646 0.0900458 -5.65983e-19)
(0.84528 -0.0859874 2.13951e-19)
(1.02623 0.148879 8.33227e-19)
(1.04193 0.0838044 -1.10328e-18)
(0.929897 0.115797 9.63395e-19)
(0.879338 0.18704 0)
(1.03648 0.186708 0)
(0.885481 0.0833315 -4.41533e-19)
(0.946467 0.0523683 -6.92844e-19)
(0.563112 1.55423 2.89699e-19)
(0.631799 1.42482 -2.79961e-19)
(0.743451 1.48317 -4.44763e-19)
(0.686328 1.62203 1.12589e-19)
(0.837164 1.55537 -1.11891e-18)
(0.986071 1.68839 3.86217e-19)
(0.870231 1.49469 2.58031e-21)
(0.845173 1.65432 -4.66053e-19)
(0.744923 1.60943 7.11411e-19)
(0.699772 1.81109 1.90289e-19)
(1.02469 1.79089 -1.95193e-19)
(1.03782 2.00071 0)
(0.496306 1.43763 -5.34483e-20)
(-0.565986 1.67989 3.79351e-19)
(-0.578604 0.433241 3.71545e-19)
(-0.507335 0.390346 2.8186e-19)
(0.190651 0.441149 4.96783e-19)
(0.191981 0.393258 -9.01752e-19)
(0.125251 0.597899 7.33148e-19)
(-0.0502648 0.342248 -2.20467e-19)
(0.166775 0.28058 4.75919e-19)
(0.692845 0.301562 -3.35887e-19)
(0.628642 0.324842 0)
(0.646668 0.25781 -1.74838e-21)
(0.517079 0.473038 3.24405e-19)
(0.2952 0.563577 -1.16799e-18)
(0.254313 0.516596 -1.23115e-20)
(0.430308 0.392808 0)
(0.470771 0.989033 4.40774e-19)
(0.754017 0.899666 5.09385e-19)
(0.628017 1.21749 -5.91297e-19)
(0.718714 0.913313 -2.38386e-19)
(0.917578 0.90888 -8.33538e-20)
(0.981156 1.15869 8.55211e-20)
(0.687057 0.686293 -8.25216e-19)
(0.784951 1.01003 2.23133e-19)
(1.01324 0.8627 0)
(0.881898 0.744845 -3.06922e-19)
(0.865081 0.219685 3.03034e-19)
(0.965347 0.431175 5.46663e-19)
(0.967326 0.274767 4.70426e-19)
(0.909911 0.436351 -5.62109e-19)
(1.02468 0.385754 0)
(1.04927 0.334562 0)
(0.704315 0.475456 -3.55017e-20)
(0.792478 0.205905 0)
(0.640923 0.23751 3.98023e-19)
(0.800194 0.314747 6.24682e-21)
(0.886975 0.564314 2.34391e-18)
(0.767137 0.56624 6.07853e-19)
(0.725259 0.4901 -5.80399e-19)
(0.67801 0.430938 6.23894e-19)
(0.675892 0.594345 3.38413e-19)
(0.582573 0.408412 -3.29129e-19)
(1.04376 0.0843471 8.07812e-19)
(0.924394 -0.096445 0)
(0.920719 -0.0158743 5.34124e-19)
(0.847095 0.160845 -1.20488e-18)
(1.05602 -0.0103414 5.78854e-19)
(0.919862 0.0390462 -1.23288e-18)
(1.04988 -0.0238342 0)
(0.991928 -0.00327376 -2.56109e-19)
(0.994363 0.0668706 6.42109e-19)
(0.963733 -0.00142491 -3.27533e-19)
(0.918961 -0.125645 2.41456e-19)
(-0.128938 1.78563 0)
(0.231195 1.70325 0)
(-0.0715187 1.7631 0)
(-0.0220107 1.78608 0)
(-0.00185559 1.82473 4.30731e-19)
(-0.020631 1.84068 -9.59113e-20)
(0.0879987 1.55979 -1.28644e-19)
(0.159595 1.55948 1.72936e-19)
(-0.238561 1.81802 -3.3771e-19)
(0.0913591 1.60472 2.58283e-19)
(0.0251764 1.80942 4.77056e-20)
(-0.0213327 1.70387 -3.52795e-19)
(0.0547107 1.74695 -4.20788e-20)
(0.287476 1.68995 -3.99638e-20)
(-0.0150008 1.70396 -2.62677e-19)
(0.0735666 1.65876 0)
(-0.0485344 1.75903 1.3267e-19)
(0.0703877 1.731 1.01405e-19)
(0.128996 1.59593 -1.21052e-19)
(0.0669681 1.73569 0)
(0.24372 1.53638 -4.79769e-19)
(0.119715 1.61224 3.41987e-19)
(0.292247 1.62341 -3.24553e-19)
(0.212817 1.54628 2.07156e-19)
(-0.0546354 1.36005 0)
(0.111711 1.5814 -2.59448e-19)
(-0.0797738 1.56678 -3.02028e-19)
(-0.0122767 1.73438 0)
(0.0304183 1.81794 1.69936e-22)
(-0.0224048 1.85041 1.28919e-19)
(-0.0267503 1.76472 2.22635e-20)
(0.100821 1.70752 -2.89745e-19)
(-0.103935 1.81162 6.98064e-20)
(-0.0785634 1.45932 1.10344e-19)
(0.11488 1.88113 0)
(-0.0443411 1.82297 0)
(-0.176152 1.78939 1.00094e-19)
(0.158253 1.73845 -2.9674e-20)
(-0.0785131 1.7669 0)
(0.0992457 1.76857 8.66477e-20)
(0.0824501 1.73559 -1.63026e-19)
(0.926725 0.240536 0)
(1.11259 0.037687 -8.86601e-20)
(0.920532 0.0902113 -6.28371e-19)
(0.897638 0.0223913 0)
(0.870715 -0.14728 0)
(1.05978 -0.0446901 -1.40692e-20)
(0.968947 -0.151247 9.71251e-19)
(0.931302 -0.0139448 1.24993e-18)
(1.02198 0.0151726 0)
(1.00837 -0.00994507 0)
(0.96246 -0.0428132 5.93599e-19)
(0.956237 0.022027 0)
(0.918126 0.131596 0)
(-0.049188 1.83021 0)
(-0.0412147 1.54167 3.82335e-20)
(-0.072573 1.59792 2.81356e-20)
(-0.0207021 1.76158 0)
(0.242101 1.82074 9.79047e-20)
(0.0495899 1.79299 -2.42758e-20)
(0.0569486 1.65236 0)
(0.336777 1.57253 0)
(0.347953 1.41866 -6.39015e-19)
(0.32192 1.48972 0)
(0.510749 1.77694 8.08955e-19)
(0.546966 1.72844 0)
(0.549092 1.81103 -3.52464e-19)
(0.409928 1.40204 -1.4423e-20)
(0.72997 1.3375 -7.40029e-19)
(0.605292 1.36067 9.77892e-19)
(0.52047 1.38202 1.76353e-19)
(0.422873 1.4485 0)
(0.55389 1.42126 0)
(0.49771 1.42897 0)
(0.42882 1.347 -6.34245e-19)
(0.449437 1.4397 -4.56888e-19)
(0.299948 1.4072 -1.06613e-19)
(0.546665 1.63563 8.58918e-20)
(0.291692 1.4451 0)
(0.477146 1.40629 0)
(0.376742 1.35493 -1.73318e-19)
(0.399796 1.4351 0)
(0.504158 1.46643 0)
(0.711693 1.3773 -6.47438e-19)
(0.42714 1.2039 -3.94724e-20)
(0.77675 1.44407 0)
(0.700987 1.5163 9.91315e-19)
(0.739802 1.36942 -2.18401e-19)
(1.09501 1.19814 0)
(0.790431 0.965898 3.70967e-19)
(0.383664 1.56224 0)
(0.395769 1.2205 0)
(0.735097 1.39693 -4.13645e-19)
(0.690472 1.53299 -2.93826e-19)
(0.767015 1.45361 4.99233e-19)
(0.707158 1.54873 -1.55439e-19)
(0.734909 1.46795 0)
(0.699422 1.43701 2.02624e-19)
(0.738204 1.4343 -3.35334e-19)
(0.764666 1.39301 -1.45823e-21)
(0.613823 1.49418 0)
(0.570437 1.54668 -2.53592e-19)
(0.557317 1.41062 0)
(0.813374 0.129538 0)
(0.790931 0.217971 0)
(0.70348 0.201019 0)
(0.769122 0.330697 -6.27894e-19)
(0.749519 0.18297 3.45694e-19)
(1.02424 -0.0420866 -4.4238e-19)
(0.859601 0.0230344 0)
(0.900714 -0.00109914 1.81554e-19)
(0.858373 0.170997 7.34398e-19)
(0.752651 0.0467406 -4.7171e-19)
(0.966339 2.19976 2.58224e-19)
(0.78976 1.95938 0)
(0.912946 2.14692 5.36792e-19)
(0.228797 2.2795 -4.6922e-19)
(0.261133 1.81295 -4.36493e-19)
(0.208712 1.38472 5.87767e-19)
(0.353606 1.51912 0)
(0.054378 0.968502 -1.22841e-19)
(0.0164936 1.15462 7.80655e-19)
(-0.272631 0.987016 -1.80434e-19)
(0.0540093 0.59911 2.10752e-19)
(0.279772 0.649706 4.24726e-19)
(0.53202 0.652227 0)
(0.27094 0.887221 0)
(0.114596 0.886051 0)
(0.850849 0.787348 2.5506e-19)
(0.836028 0.602028 -5.84276e-19)
(0.913813 0.642237 5.13705e-19)
(0.802328 0.431085 -4.70583e-19)
(0.969104 0.694426 0)
(0.916313 0.643771 -1.60793e-19)
(0.765431 0.378067 -8.17043e-19)
(0.731694 0.247064 -9.99482e-19)
(0.602824 0.438057 6.35993e-19)
(0.610554 0.41429 -5.79475e-19)
(0.717649 0.401768 -4.89094e-19)
(0.709507 0.306821 6.03536e-19)
(1.01598 -0.00146157 -6.3776e-19)
(1.09092 0.0362039 1.32668e-18)
(1.04767 0.0252819 7.90882e-19)
(1.09286 -0.104194 -9.57351e-19)
(0.794835 0.00993432 0)
(0.788011 -0.00615819 -1.55298e-18)
(0.117513 1.59328 6.42716e-20)
(-0.0877091 1.69944 0)
(0.163911 1.824 4.68318e-19)
(0.135006 1.73833 -4.24209e-19)
(0.0513108 1.84461 2.37309e-19)
(0.141553 1.79759 0)
(-0.0685614 1.8278 0)
(0.141168 1.61717 -3.98873e-20)
(0.0227024 1.64038 3.57877e-20)
(0.212629 1.58649 1.23871e-20)
(-0.276315 1.76081 -9.67428e-20)
(-0.0897642 1.74559 3.07275e-20)
(0.561708 1.56567 -7.37556e-19)
(0.678821 1.58174 7.79377e-19)
(0.431568 1.75229 -3.99908e-19)
(0.676097 1.59458 3.5948e-20)
(0.552185 1.77141 0)
(0.684332 1.75355 -4.16066e-19)
(0.583607 1.67111 4.03333e-19)
(0.504167 1.6654 3.94198e-19)
(0.601307 1.68819 0)
(0.7262 1.7025 0)
(0.666066 1.38295 6.96054e-19)
(0.336115 1.5534 8.91714e-19)
(0.160952 1.49699 -6.15862e-19)
(0.121445 1.57878 -9.97231e-20)
(0.33958 1.46693 2.10668e-19)
(0.291413 1.26253 -5.00954e-19)
(0.647245 1.36822 -5.51131e-19)
(0.571553 1.45398 0)
(0.564521 1.38573 -6.1349e-19)
(0.769546 1.42201 0)
(0.624873 1.61996 0)
(0.474268 1.79844 -4.37032e-19)
(0.548718 1.84472 -3.65568e-19)
(0.332008 1.96212 4.16299e-19)
(-0.335992 1.43883 0)
(-0.0341505 1.39281 -2.75708e-19)
(0.196782 1.52054 -3.6892e-19)
(0.409023 1.68589 0)
(0.416965 1.86791 3.15062e-19)
(0.0901836 1.92031 0)
(0.579222 1.0037 -9.30806e-19)
(0.587267 1.06376 1.27841e-18)
(0.717006 0.776073 -1.26089e-18)
(0.375331 0.814586 -1.10633e-19)
(0.379952 0.828952 -4.53923e-19)
(0.723459 1.69428 2.71881e-19)
(0.699896 1.65275 -5.66589e-19)
(0.449661 1.75568 7.46296e-19)
(0.505256 1.57465 -4.90198e-19)
(0.635225 1.6741 -6.99877e-19)
(0.63353 1.69687 -5.97499e-20)
(0.694843 1.50887 5.83459e-19)
(0.552493 1.6444 4.03839e-20)
(0.597229 1.46687 2.92288e-19)
)
;

boundaryField
{
    wall-4
    {
        type            noSlip;
    }
    velocity-inlet-5
    {
        type            fixedValue;
        value           uniform (1 0 0);
    }
    velocity-inlet-6
    {
        type            fixedValue;
        value           uniform (0 3 0);
    }
    pressure-outlet-7
    {
        type            zeroGradient;
    }
    wall-8
    {
        type            noSlip;
    }
    frontAndBackPlanes
    {
        type            empty;
    }
}


// ************************************************************************* //
