/*--------------------------------*- C++ -*----------------------------------*\
| =========                 |                                                 |
| \\      /  F ield         | OpenFOAM: The Open Source CFD Toolbox           |
|  \\    /   O peration     | Version:  2206                                  |
|   \\  /    A nd           | Website:  www.openfoam.com                      |
|    \\/     M anipulation  |                                                 |
\*---------------------------------------------------------------------------*/
FoamFile
{
    version     2.0;
    format      ascii;
    arch        "LSB;label=32;scalar=64";
    class       volScalarField;
    location    "460";
    object      p;
}
// * * * * * * * * * * * * * * * * * * * * * * * * * * * * * * * * * * * * * //

dimensions      [0 2 -2 0 0 0 0];

internalField   nonuniform List<scalar> 
50904
(
60.3969
71.6499
-158.876
-145.565
57.3611
68.6233
-156.928
-143.57
53.6762
64.9576
-154.638
-141.216
49.1801
60.4898
-151.932
-138.437
43.5179
54.8636
-148.607
-135.041
36.4461
47.8503
-144.6
-130.95
27.7301
39.1941
-139.838
-126.126
17.161
28.6803
-134.372
-120.624
4.64553
16.2146
-128.327
-114.618
-8.89466
2.70285
-122.296
-108.757
-23.1339
-11.6703
-116.561
-103.263
-36.7694
-25.6439
-111.569
-98.6192
-47.3779
-36.8086
-107.919
-95.427
-53.3054
-43.5453
-105.261
-93.197
-52.4148
-43.6271
-103.505
-91.8062
-44.8575
-37.2332
-102.794
-91.5714
-36.2412
-29.7246
-102.681
-92.1219
-28.3182
-22.7069
-103.38
-93.6087
-21.9919
-16.8305
-105.454
-96.3965
-18.8374
-13.4481
-109.354
-100.728
-17.5425
-11.6644
-113.249
-105.016
-16.2511
-9.96263
-116.108
-108.261
-13.1355
-6.38201
-117.315
-109.53
-10.9555
-3.76034
-117.287
-109.048
-10.2256
-2.69189
-116.568
-107.618
-10.4703
-2.77818
-115.488
-105.892
-11.2614
-3.5569
-114.174
-104.177
-12.2745
-4.64199
-112.859
-102.685
-13.2849
-5.7854
-111.625
-101.436
-14.2205
-6.87704
-110.499
-100.388
-15.0542
-7.86437
-109.515
-99.5321
-15.7752
-8.72676
-108.68
-98.8368
-16.3799
-9.45627
-107.974
-98.2645
-16.8804
-10.0632
-107.394
-97.8054
-17.2979
-10.5719
-106.918
-97.4354
-17.6109
-10.9563
-106.534
-97.1314
-47.8872
-33.8797
-41.1408
-34.1902
-1.88428
2.22989
16.5766
18.3548
30.7422
31.1887
40.6822
40.2373
48.7796
47.0484
-48.419
-34.479
-41.7173
-34.6061
-3.92691
0.509354
13.9005
16.1181
27.249
28.1771
36.6803
36.7443
44.3751
43.3029
-48.9986
-35.1182
-42.5085
-35.1689
-6.46713
-1.60616
10.5217
13.3044
23.0669
24.6042
32.1483
32.8231
39.6521
39.2757
-49.9464
-36.133
-43.7372
-36.1005
-9.90653
-4.53377
6.20797
9.6631
17.9314
20.1951
26.7858
28.1776
34.3102
34.6768
-51.5005
-37.7623
-45.6324
-37.5973
-14.6928
-8.68685
0.491992
4.76604
11.4418
14.579
20.1547
22.4004
27.9471
29.1596
-53.8777
-40.2198
-48.4404
-39.8731
-21.1637
-14.365
-7.06338
-1.79035
3.18954
7.37623
11.9106
15.1605
20.2142
22.3903
-57.322
-43.7421
-52.504
-43.237
-29.6515
-21.8741
-16.8885
-10.4195
-7.29211
-1.86492
1.64331
6.0592
10.6878
13.9638
-62.0757
-48.563
-58.249
-48.0844
-40.4455
-31.4791
-29.4456
-21.5594
-20.4916
-13.6114
-11.1532
-5.39919
-1.01598
3.49042
-68.3281
-54.8387
-66.1776
-54.8793
-53.6849
-43.3275
-44.773
-35.3267
-36.3854
-27.9615
-26.4919
-19.3609
-14.9258
-9.18673
-75.8168
-62.2321
-76.7515
-63.9877
-69.8924
-57.7704
-63.6842
-52.3123
-56.1216
-45.8163
-45.5832
-36.7937
-32.4633
-25.2281
-84.1724
-70.3935
-89.5052
-75.027
-87.8851
-73.8072
-84.3546
-70.9266
-77.5835
-65.2982
-66.3314
-55.8096
-51.5646
-42.7611
-92.7644
-78.7419
-103.955
-87.62
-107.259
-91.1947
-106.487
-91.0802
-100.664
-86.5292
-88.8712
-76.7571
-72.7127
-62.4298
-100.542
-86.2249
-118.538
-100.373
-125.844
-107.986
-127.187
-110.201
-122.105
-106.638
-109.837
-96.6693
-92.7814
-81.482
-106.287
-91.8012
-129.81
-110.689
-139.926
-121.406
-142.946
-125.63
-138.791
-123.189
-126.737
-113.547
-108.462
-97.2265
-109.92
-95.3851
-136.68
-117.665
-148.445
-130.453
-152.314
-135.913
-148.804
-134.203
-137.303
-124.932
-119.467
-108.878
-111.188
-97.0711
-138.651
-121.082
-150.906
-135.052
-155.074
-141.27
-152.127
-140.154
-141.462
-131.367
-124.416
-115.917
-112.025
-98.5788
-139.069
-123.412
-151.236
-137.942
-155.333
-144.477
-152.633
-143.623
-142.472
-134.999
-125.781
-119.767
-113.468
-100.794
-139.711
-126.035
-151.522
-140.735
-155.377
-147.306
-152.746
-146.506
-142.844
-137.831
-125.983
-122.354
-116.169
-104.295
-142.288
-130.367
-153.85
-145.158
-157.441
-151.582
-154.73
-150.678
-144.885
-141.903
-127.556
-125.793
-119.451
-108.501
-146
-135.741
-157.704
-150.775
-161.278
-157.112
-158.423
-155.966
-148.326
-146.824
-130.684
-130.375
-122.35
-112.426
-149.711
-141.078
-162.103
-156.728
-166.033
-163.261
-163.222
-162.04
-152.906
-152.586
-134.861
-135.731
-123.418
-114.514
-151.398
-144.413
-164.811
-161.011
-169.618
-168.232
-167.547
-167.535
-157.594
-158.228
-137.047
-139.275
-120.859
-112.479
-148.228
-142.637
-161.627
-159.372
-166.964
-167.076
-165.449
-166.879
-155.834
-157.827
-135.149
-138.354
-116.957
-108.355
-141.371
-136.393
-152.207
-150.919
-156.758
-157.975
-155.302
-157.903
-146.359
-149.499
-127.25
-131.131
-113.712
-104.434
-134.232
-129.09
-140.238
-139.035
-142.583
-144.014
-140.55
-143.44
-132.383
-135.805
-115.761
-119.555
-111.861
-101.861
-129.161
-123.442
-129.31
-127.517
-128.545
-129.29
-125.327
-127.456
-117.768
-120.373
-103.748
-106.469
-111.186
-100.656
-126.63
-120.331
-121.388
-118.824
-117.335
-117.101
-112.662
-113.689
-105.456
-106.909
-93.7957
-95.2546
-111.263
-100.435
-126.101
-119.424
-116.741
-113.57
-109.538
-108.392
-103.224
-103.122
-96.1004
-96.3184
-86.2403
-86.3802
-111.735
-100.803
-126.82
-119.962
-114.919
-111.392
-105.037
-103.248
-97.1186
-96.18
-89.9039
-89.2101
-81.3459
-80.5532
-112.375
-101.476
-128.123
-121.275
-115.062
-111.444
-103.105
-100.972
-93.6563
-92.1632
-86.1303
-84.7739
-78.4641
-76.9731
-113.038
-102.245
-129.615
-122.887
-116.332
-112.801
-102.971
-100.748
-92.1594
-90.3829
-84.2233
-82.4696
-77.11
-75.1865
-113.647
-102.995
-131.079
-124.521
-118.123
-114.784
-103.967
-101.844
-92.0206
-90.1993
-83.5729
-81.6721
-76.7382
-74.6397
-114.173
-103.666
-132.423
-126.059
-120.056
-116.97
-105.566
-103.682
-92.7707
-91.0946
-83.755
-81.906
-76.9434
-74.8631
-114.62
-104.249
-133.612
-127.44
-121.943
-119.129
-107.435
-105.863
-94.1049
-92.6963
-84.5446
-82.879
-77.5305
-75.582
-114.998
-104.751
-134.663
-128.665
-123.713
-121.163
-109.396
-108.158
-95.8393
-94.7724
-85.8606
-84.481
-78.4922
-76.7709
-115.262
-105.107
-135.462
-129.592
-125.108
-122.77
-111.032
-110.081
-97.4294
-96.6842
-87.208
-86.1289
-79.5599
-78.1261
56.1444
53.0759
62.1621
58.2251
66.1453
61.7506
70.0877
65.2
75.788
70.0356
86.2376
78.7698
51.473
49.1652
57.5191
54.3127
61.9903
58.2251
66.5566
62.1966
72.8431
67.5264
83.8451
76.7807
46.6772
45.149
52.9848
50.5499
57.9717
54.9413
62.9611
59.2826
69.4569
64.7513
80.7442
74.244
41.5283
40.7622
48.3392
46.6278
54.0923
51.7496
59.6054
56.6125
66.068
62.0617
77.098
71.2811
35.604
35.669
43.2626
42.3079
50.1061
48.4682
56.3647
54.0799
62.7429
59.4999
72.8859
67.8839
28.6259
29.6054
37.5265
37.3699
45.905
44.9846
53.2643
51.6903
59.5831
57.1348
68.1961
64.133
20.2459
22.2453
30.8504
31.5564
41.346
41.169
50.2502
49.3939
56.6504
55.0037
63.2531
60.2124
10.1179
13.2217
23.0183
24.6102
36.2836
36.8235
47.2753
47.0793
53.9734
53.0617
58.2514
56.2275
-1.87886
2.30473
13.8693
16.2802
30.5237
31.6856
44.1205
44.4753
51.3376
51.0662
53.1954
52.1269
-17.1648
-11.6799
1.96808
5.3399
22.6073
24.4646
39.3498
40.2733
47.5671
47.8888
47.4887
47.2562
-33.9703
-27.0874
-11.332
-6.88466
13.4197
16.0931
33.4344
35.0449
42.8148
43.8311
41.1895
41.8031
-53.0806
-44.8208
-27.2085
-21.6492
1.30076
4.8928
24.3979
26.8319
35.2071
37.0192
33.1177
34.5106
-71.6211
-62.3255
-43.2604
-36.7673
-11.9641
-7.4653
13.4648
16.8461
25.5495
28.2849
23.8514
25.9879
-86.7577
-77.3435
-58.4829
-51.4786
-25.7523
-20.4893
1.19929
5.53693
14.4381
18.1443
13.7651
16.5396
-97.9913
-89.1958
-69.6207
-62.9677
-36.6705
-31.132
-9.55315
-4.34372
4.16375
8.9492
4.6667
8.10948
-103.025
-96.4338
-74.5899
-69.8269
-42.3075
-37.7964
-15.9448
-10.9423
-2.38772
2.57871
-1.07722
2.31694
-104.39
-100.402
-76.1335
-73.6019
-44.6754
-41.5613
-19.1633
-14.7925
-5.89147
-1.18389
-4.05351
-1.06698
-104.267
-102.817
-76.1671
-75.8097
-45.4275
-43.7296
-20.6531
-17.0107
-7.68585
-3.35649
-5.54196
-3.03102
-105.307
-105.812
-77.2903
-78.7621
-46.9363
-46.334
-22.5614
-19.2378
-9.76908
-5.31164
-7.51051
-4.97735
-108.009
-110.284
-79.6453
-82.9116
-49.2685
-49.657
-24.9802
-21.7013
-12.216
-7.19565
-10.0037
-7.00751
-111.477
-115.263
-82.453
-87.2787
-51.9708
-53.2101
-27.7844
-24.4997
-15.1663
-9.56643
-13.2331
-9.63612
-110.765
-116.258
-81.7097
-87.754
-52.2193
-54.0714
-29.2458
-26.039
-17.6856
-11.7751
-16.3282
-12.2478
-107.821
-113.695
-78.3133
-84.2902
-50.1323
-51.799
-28.6952
-25.3935
-18.2736
-12.3677
-17.6918
-13.4489
-101.09
-106.8
-72.5599
-77.812
-46.7768
-47.8024
-27.5525
-23.9683
-18.3504
-12.4904
-17.9685
-13.7405
-92.3708
-97.1711
-66.5694
-70.4221
-44.2322
-44.1956
-27.7611
-23.7291
-19.6287
-13.8366
-18.3893
-14.2663
-83.8443
-86.9222
-61.8263
-63.6905
-43.3577
-41.9099
-29.696
-25.0546
-22.2955
-16.4994
-19.302
-15.1775
-77.24
-78.6777
-59.1059
-59.2814
-44.3051
-41.8576
-33.1395
-28.3318
-26.1156
-20.7075
-20.8717
-16.9771
-72.668
-72.5543
-57.95
-56.6615
-46.2749
-43.0332
-37.1555
-32.3158
-30.2305
-25.2633
-22.6674
-18.9998
-70.1797
-69.004
-58.1908
-55.9856
-48.9903
-45.4174
-41.389
-36.8491
-34.3247
-30.0085
-24.5342
-21.2149
-69.0011
-67.0601
-59.085
-56.2788
-51.7245
-48.0279
-45.1949
-41.0285
-37.8786
-34.2057
-26.1611
-23.1826
-68.8078
-66.3966
-60.3807
-57.25
-54.341
-50.6953
-48.5051
-44.7776
-40.8518
-37.8225
-27.4899
-24.8274
-69.1438
-66.5338
-61.7209
-58.5081
-56.5844
-53.1399
-51.1692
-47.9278
-43.1771
-40.7837
-28.5194
-26.1449
-69.6881
-67.0705
-62.869
-59.7329
-58.3168
-55.1586
-53.1383
-50.3897
-44.86
-43.0787
-29.2715
-27.1659
-70.2731
-67.7361
-63.6916
-60.6799
-59.5046
-56.6211
-54.4635
-52.1378
-46.0096
-44.7667
-29.829
-27.9555
-70.7646
-68.3375
-64.0108
-61.0822
-60.0745
-57.3723
-55.2319
-53.2176
-46.7626
-45.9649
-30.267
-28.587
-71.0461
-68.7528
-63.8086
-60.9088
-60.1659
-57.5434
-55.5612
-53.7376
-47.1844
-46.7188
-30.5557
-29.0181
102.63
91.9064
120.416
105.894
128.249
112.113
132.746
115.728
136.277
118.549
140.398
121.667
99.7566
89.6107
116.321
102.593
123.517
108.274
127.955
111.865
131.762
114.955
136.142
118.338
95.9616
86.5803
111.217
98.4974
118.108
103.958
122.893
107.896
127.219
111.481
131.881
115.138
91.2943
82.8125
105.156
93.5986
111.954
99.0272
117.366
103.579
122.587
108.005
127.904
112.265
85.5377
78.1274
97.8678
87.6828
104.707
93.214
111.093
98.7009
117.591
104.317
123.939
109.507
78.6608
72.5077
89.251
80.6736
96.2852
86.4486
104.035
93.22
112.279
100.443
120.06
106.914
70.7643
66.0304
79.3237
72.5867
86.6441
78.714
96.1638
87.1489
106.669
96.4408
116.359
104.602
62.0704
58.8288
68.3499
63.5628
76.1505
70.2214
87.9553
80.7827
101.325
92.6807
113.422
102.962
52.8051
51.0408
56.6098
53.7862
65.0278
61.1228
79.5545
74.2234
96.3212
89.2162
111.212
101.959
42.8774
42.4097
44.0702
42.9797
53.2682
51.1266
70.9417
67.1473
91.6231
85.6974
109.742
101.276
33.0345
33.7197
32.1714
32.6099
42.3758
41.7922
63.3341
60.8822
88.03
83.1043
109.285
101.462
22.8644
24.3056
20.7579
22.1068
32.0757
32.408
56.0707
54.393
84.4416
80.0555
108.489
100.965
13.3516
15.094
11.3381
12.7823
23.9053
24.3012
50.2027
48.6049
81.3919
77.0778
107.389
99.9118
4.26241
5.88598
3.30499
4.20564
16.9616
16.8284
44.7144
42.8393
77.5802
73.3174
104.898
97.8442
-3.02477
-1.74263
-2.50478
-2.43168
11.9466
11.2259
40.3069
38.5547
73.8297
70.449
101.612
95.8921
-6.98655
-6.61772
-5.17037
-6.37834
9.65738
8.07868
37.9716
36.3278
71.5359
69.2492
99.9596
95.7753
-8.61081
-9.22493
-5.90778
-8.32545
9.07287
6.72717
37.1126
35.6354
70.4595
69.3009
99.3487
96.8067
-9.08368
-10.5539
-5.76505
-9.09204
9.21457
6.36835
36.9541
35.7784
69.9653
69.9318
99.047
98.1383
-10.7054
-12.4232
-7.00517
-10.4557
8.25575
5.50417
36.6517
36.169
70.1059
71.2994
99.1566
99.6089
-13.9269
-15.6739
-10.264
-13.6321
6.00957
3.69579
36.3866
37.1237
71.5287
74.6144
101.194
103.799
-18.3255
-19.8904
-15.209
-18.2914
2.07284
0.533777
34.5936
37.0449
71.455
76.9387
101.611
106.698
-21.1338
-22.7277
-18.8381
-21.9826
-3.13117
-3.71995
27.6531
32.5649
62.7414
71.9339
91.3095
100.515
-23.104
-24.3297
-22.1521
-24.9077
-8.24868
-8.14794
19.8229
25.8584
52.7337
63.4762
82.4534
93.0385
-23.1023
-24.1499
-22.7822
-25.4681
-10.7674
-10.6496
14.0352
20.0373
43.9897
54.8518
74.3692
85.3563
-21.2599
-22.1989
-20.138
-22.9583
-9.87042
-10.2464
11.0365
16.056
36.965
46.6964
65.6504
76.0396
-18.3609
-18.8395
-15.0768
-17.4822
-6.14917
-6.63372
10.871
14.9475
32.2509
40.5304
57.2035
66.5396
-15.4114
-15.4228
-9.36373
-11.292
-1.34605
-1.95124
12.1486
15.1142
29.1594
35.5949
49.6825
57.2831
-12.6752
-12.1024
-3.5693
-4.64752
3.87516
3.6052
14.5271
16.8994
27.6955
32.7882
44.338
50.5894
-10.4869
-9.45254
1.45236
1.04759
8.6249
8.56746
17.0625
18.8205
27.2084
30.9881
40.6477
45.4311
-8.80289
-7.32927
5.70741
6.10639
12.8489
13.2834
19.7015
21.2913
27.5844
30.6057
38.5998
42.4477
-7.59934
-5.76088
9.07665
10.2236
16.2815
17.2509
22.0254
23.6452
28.2642
30.8529
37.5527
40.8016
-6.80138
-4.69402
11.6517
13.442
18.9785
20.4482
23.993
25.7317
29.0812
31.4358
37.2286
40.1152
-6.31476
-4.04193
13.5053
15.8003
20.9627
22.8594
25.508
27.3963
29.8389
32.0878
37.2908
39.9705
-6.06469
-3.71106
14.7435
17.4119
22.2663
24.5109
26.5008
28.5682
30.3423
32.5927
37.5076
40.1294
-5.98222
-3.60287
15.4957
18.4094
22.9354
25.4292
26.8197
29.0411
30.3154
32.6344
37.7132
40.3847
-5.97122
-3.60542
15.9167
18.9543
23.1934
25.8242
26.6965
28.9927
29.8787
32.2637
37.9318
40.6826
144.035
124.512
146.792
126.518
148.48
127.426
149.13
127.347
147.729
125.356
142.777
119.926
121.637
101.285
140.038
121.366
143.237
123.746
145.594
125.246
146.965
125.776
146.344
124.424
142.202
119.633
121.724
101.427
135.948
118.28
139.478
120.934
142.346
122.89
144.337
123.943
144.517
123.232
141.351
119.199
121.753
101.568
132.344
115.698
136.264
118.685
139.55
121.024
141.924
122.404
142.676
122.124
140.382
118.731
121.771
101.731
129.019
113.461
133.534
116.96
137.328
119.768
139.99
121.403
141.049
121.316
139.359
118.305
121.817
101.967
126.1
111.657
131.483
115.898
135.952
119.333
138.881
121.218
139.977
121.104
138.422
118.052
121.937
102.33
123.716
110.425
130.263
115.671
135.652
119.954
138.934
122.163
139.864
121.84
137.839
118.219
122.221
102.917
122.502
110.189
130.581
116.753
137.142
122.117
140.813
124.691
141.317
123.951
138.128
119.199
122.831
103.86
122.366
110.889
132.32
119.085
140.267
125.735
144.391
128.728
144.358
127.446
139.564
121.177
123.884
105.259
123.356
112.23
135.51
122.336
145.076
130.485
149.757
134.001
149.096
132.124
142.442
124.199
125.54
107.155
125.403
114.469
139.86
126.571
150.953
136.133
156.026
139.969
154.658
137.354
146.184
127.743
127.57
109.284
126.835
115.84
143.333
129.726
155.666
140.447
161.071
144.541
159.26
141.406
149.471
130.562
129.311
111
127.244
116.156
145.035
131.246
157.861
142.475
163.267
146.537
161.09
142.925
150.594
131.358
129.898
111.59
125.193
114.666
142.846
129.718
155.384
140.805
160.635
144.653
158.568
140.905
148.413
129.436
128.618
110.617
121.718
112.819
138.842
127.734
150.64
138.252
155.258
141.34
152.996
137.024
143.253
125.512
125.149
107.988
120.061
113.002
136.142
127.33
146.704
136.845
150.37
138.944
147.695
133.96
138.09
122.16
121.239
105.389
119.514
114.337
134.847
128.173
144.54
136.995
147.521
138.391
144.484
132.859
134.798
120.628
118.5
103.975
119.812
116.475
135.274
130.485
144.473
138.925
147.009
139.89
143.695
133.976
133.717
121.168
117.185
103.902
120.693
119.222
137.029
134.453
146.188
142.756
148.612
143.572
145.091
137.412
134.694
123.888
117.343
105.262
122.566
123.335
139.176
138.79
149.181
147.897
152.297
149.42
149.201
143.657
138.912
129.919
119.881
108.923
122.979
126.264
140.396
142.544
151.636
152.845
155.611
155.259
152.942
149.964
142.861
136.191
122.712
113.161
118.832
124.864
143.069
146.825
153.985
157.312
157.161
159.333
154.25
153.919
144.208
140.011
124.228
116.227
112.307
120.152
137.456
143.814
148.386
154.442
151.284
156.115
148.181
150.368
138.43
136.412
120.722
113.955
102.806
111.86
124.846
133.131
135.251
143.21
138.241
144.803
135.909
139.612
128.369
127.448
114.896
108.433
90.5959
99.7244
108.525
117.277
117.844
126.245
121.234
128.16
120.825
124.779
117.618
116.699
109.348
102.403
77.8914
86.5506
92.3114
100.768
100.598
108.623
104.814
111.295
107.253
110.729
109.685
108.196
105.935
98.2361
66.6913
74.0285
78.4493
85.6634
86.078
92.863
91.6651
97.0445
97.5613
100.172
105.596
103.425
104.777
96.4459
58.3355
64.5026
67.9629
74.0468
75.3472
81.0132
82.5793
86.9624
92.0361
93.8897
104.399
101.655
104.773
95.903
52.1859
56.9959
60.5217
65.3921
68.0928
72.6447
77.1939
80.7062
89.9704
91.2864
105.027
101.92
105.188
96.0134
48.3955
52.3779
55.9623
60.0561
63.9642
67.8187
74.8858
77.8959
90.2502
91.3222
106.457
103.184
105.752
96.4822
46.2346
49.6867
53.4243
57.0434
62.0604
65.535
74.6641
77.4863
91.7281
92.799
108.071
104.79
106.357
97.1036
45.2584
48.4059
52.3423
55.7159
61.7075
65.0385
75.6788
78.5297
93.6268
94.8263
109.571
106.367
106.917
97.7338
45.0751
48.0828
52.284
55.5888
62.4009
65.7673
77.3246
80.3384
95.5776
96.9765
110.904
107.81
107.397
98.2925
45.4202
48.4376
52.9599
56.3555
63.7399
67.2787
79.1977
82.4664
97.4043
99.0328
112.054
109.093
107.799
98.7783
46.2769
49.4342
54.2595
57.8797
65.4715
69.2836
81.1004
84.6671
99.0637
100.927
113.045
110.218
108.133
99.1906
47.4797
50.8065
55.6838
59.5539
67.0797
71.1559
82.6812
86.5068
100.371
102.42
113.799
111.072
108.362
99.4663
112.839
95.3352
94.4363
81.6014
95.7168
86.0285
49.6787
42.392
113.079
95.5454
94.6413
81.7155
96.0048
86.2174
49.3642
41.9979
113.367
95.8151
94.9027
81.8616
96.3956
86.4766
48.941
41.4679
113.682
96.1299
95.2063
82.0378
96.8649
86.8065
48.4018
40.8064
114.031
96.5079
95.5725
82.2782
97.4429
87.2457
47.7244
39.9932
114.384
96.9419
95.9985
82.5918
98.1501
87.8277
46.8664
38.9902
114.728
97.4418
96.5021
83.0193
99.013
88.6079
45.7899
37.7721
115.074
98.0295
97.0846
83.5905
100.033
89.6266
44.4599
36.3229
115.405
98.6974
97.7517
84.3373
101.209
90.9158
42.8775
34.6716
115.734
99.4194
98.5182
85.2565
102.541
92.4597
41.0836
32.8532
116.027
100.119
99.3434
86.3047
103.831
94.0719
39.0048
30.8349
116.126
100.546
100.209
87.4191
104.927
95.5289
36.744
28.7361
115.74
100.371
101.006
88.4173
105.424
96.32
34.6551
26.8249
114.349
99.2345
101.364
88.9978
104.644
95.8007
33.5227
25.9365
111.877
97.2177
100.989
88.9282
102.475
93.8657
33.5272
26.2153
108.87
95.0246
99.2673
87.8023
99.8807
91.5627
31.9569
25.0057
106.358
93.4467
97.1068
86.4041
96.9693
88.9866
29.9284
23.4582
104.708
92.7463
94.9564
85.0689
94.1659
86.5619
27.2315
21.366
104.104
92.9582
93.2513
83.9902
93.0139
85.7068
23.1995
17.9653
105.218
94.7369
92.4226
83.5945
93.6434
86.5463
17.7677
13.0233
106.746
97.0354
91.2381
82.7893
95.044
88.0954
11.9154
7.3944
107.895
99.038
88.8206
80.7729
96.0922
89.3424
5.23894
0.610091
106.476
98.1518
84.6652
76.4679
97.8028
90.8816
-4.41871
-9.78944
104.196
95.6739
81.09
72.0988
99.2748
91.7273
-12.2532
-18.6574
102.332
93.1665
78.8401
68.8149
99.622
91.352
-16.9912
-24.3881
101.442
91.4935
77.6092
66.6251
99.0739
90.215
-19.6476
-27.8133
100.794
90.2957
77.036
65.4835
97.5215
88.3366
-20.4578
-29.0023
100.117
89.405
76.8669
65.1037
95.2691
85.9908
-19.6725
-28.332
99.7146
88.9549
76.8219
64.9907
92.8443
83.6294
-18.2454
-26.9585
99.3444
88.5733
76.7673
65.0029
90.4988
81.4228
-16.6169
-25.2695
98.9157
88.1961
76.7412
65.1228
88.3903
79.4701
-14.903
-23.4194
98.431
87.8074
76.7259
65.2781
86.5022
77.7342
-13.1727
-21.5397
97.9589
87.4262
76.7032
65.4276
84.8707
76.2491
-11.5463
-19.7784
97.541
87.1099
76.6913
65.5689
83.5054
75.011
-10.0945
-18.2053
97.1919
86.854
76.6884
65.6961
82.3507
73.9683
-8.79426
-16.8011
96.8844
86.6173
76.6631
65.7632
81.4057
73.1112
-7.73178
-15.6588
-349.49
-367.771
476.273
490.243
-804.344
-854.576
-346.772
-365.053
473.748
487.832
-805.826
-856.317
-343.445
-361.684
470.765
484.963
-807.228
-858.026
-339.307
-357.531
467.288
481.632
-809.017
-860.172
-334.012
-352.118
462.953
477.418
-811.431
-862.965
-327.178
-345.064
457.389
471.946
-814.5
-866.417
-318.254
-335.758
450.136
464.712
-818.147
-870.407
-306.756
-323.657
440.819
455.335
-822.422
-874.959
-292.143
-308.14
428.784
443.037
-827.295
-879.877
-274.535
-289.289
413.403
427.125
-832.038
-884.242
-252.664
-265.892
392.829
405.792
-834.483
-885.847
-226.821
-238.284
366.205
378.225
-831.438
-881.309
-198.826
-208.364
334.118
345.038
-817.775
-865.417
-170.015
-177.72
297.597
307.449
-787.681
-832.489
-146.321
-152.583
264.793
274.008
-748.779
-790.479
-135.033
-140.498
249.907
259.339
-724.191
-763.799
-128.644
-133.443
241.609
251.255
-699.569
-736.881
-125.193
-129.37
234.697
244.32
-675.215
-709.857
-125.106
-128.794
229.91
239.323
-652.904
-684.949
-127.089
-130.425
223.716
232.492
-632.713
-662.315
-129.501
-132.452
217.245
225.205
-614.739
-642.091
-132.574
-135.165
214.039
221.073
-602.763
-628.304
-139.996
-142.363
222.936
228.883
-610.99
-635.585
-146.053
-148.355
233.1
238.157
-623.563
-648.167
-148.836
-151.152
240.133
244.613
-633.603
-658.878
-148.634
-150.937
243.806
247.941
-640.484
-666.618
-146.13
-148.369
244.559
248.511
-644.252
-671.199
-142.332
-144.448
243.569
247.406
-646.46
-674.043
-137.984
-139.926
241.66
245.389
-647.818
-675.785
-133.527
-135.278
239.167
242.796
-648.281
-676.479
-129.272
-130.839
236.457
240.007
-648.077
-676.424
-125.394
-126.795
233.761
237.237
-647.533
-675.943
-121.965
-123.227
231.251
234.666
-646.852
-675.277
-119.015
-120.161
229.022
232.386
-646.162
-674.575
-116.439
-117.486
226.965
230.282
-645.291
-673.665
-114.357
-115.328
225.19
228.462
-643.943
-672.26
-41.2258
29.8317
-11.5354
30.8216
30.1325
48.7342
-150.44
-111.64
-150.665
-148.566
-163.482
-161.021
-45.8728
29.9347
-13.943
28.7515
27.3988
45.9598
-151.762
-109.788
-149.955
-147.028
-162.024
-159.211
-51.5262
30.0193
-16.8837
26.239
24.0647
42.5853
-153.383
-107.545
-149.118
-145.197
-160.294
-157.059
-58.4628
30.1125
-20.4655
23.1614
19.9907
38.4458
-155.317
-104.864
-148.136
-143.029
-158.246
-154.515
-67.3315
30.2252
-24.9732
19.2778
14.8699
33.2233
-157.7
-101.61
-146.952
-140.382
-155.729
-151.391
-78.5788
30.3897
-30.5822
14.419
8.4877
26.679
-160.615
-97.6605
-145.536
-137.197
-152.688
-147.625
-92.8248
30.5717
-37.5024
8.37335
0.63694
18.5766
-164.22
-92.9174
-143.87
-133.401
-149.05
-143.16
-110.642
30.8181
-45.8621
0.975335
-8.85206
8.6891
-168.704
-87.2903
-141.965
-129.012
-144.825
-138.043
-132.775
31.1628
-55.744
-7.92389
-20.0487
-3.12056
-174.563
-80.5962
-139.918
-124.078
-140.08
-132.394
-159.295
31.678
-66.5849
-17.9049
-32.1934
-16.0755
-182.428
-72.7975
-137.944
-118.963
-135.184
-126.765
-189.57
32.3144
-77.7456
-28.7882
-44.8185
-29.8941
-193.25
-63.7502
-136.208
-113.977
-130.352
-121.498
-221.448
33.2051
-87.6577
-39.5904
-56.5252
-43.2958
-208.064
-53.3371
-134.814
-109.546
-125.857
-117.033
-250.596
34.4259
-93.6822
-48.3119
-64.8804
-53.8303
-226.915
-42.1711
-133.507
-106.189
-122.003
-113.859
-271.738
34.6001
-93.0001
-53.5958
-68.019
-59.5631
-246.471
-32.8488
-130.862
-104.163
-118.412
-111.543
-287.7
36.5185
-86.3169
-53.3253
-64.6361
-58.3194
-266.883
-24.8826
-127.513
-102.946
-115.215
-109.736
-304.672
44.9956
-76.795
-46.6741
-55.5879
-50.3221
-291.999
-14.0608
-125.062
-101.361
-112.895
-108.571
-318.471
53.7103
-67.0566
-38.8926
-45.9109
-41.3076
-317.073
-2.3504
-122.57
-99.4048
-110.975
-107.778
-326.415
59.5834
-57.6202
-31.8206
-37.199
-33.1012
-340.875
8.89549
-119.925
-97.4587
-109.649
-107.62
-325.866
60.5478
-48.8532
-26.4024
-30.3818
-26.6107
-364.091
18.0968
-117.82
-96.3248
-109.686
-108.71
-317.639
58.1883
-41.8957
-22.8375
-26.4876
-23.186
-383.044
25.6049
-116.48
-95.704
-111.293
-111.366
-300.387
52.9589
-37.0572
-20.3089
-24.554
-21.5727
-393.908
32.3658
-115.551
-94.094
-112.998
-113.804
-279.479
51.8857
-34.9629
-16.6215
-22.6401
-19.7735
-400.185
45.1855
-116.296
-89.264
-113.633
-114.718
-264.95
59.6309
-35.5411
-10.5012
-19.4114
-16.0902
-415.562
69.0593
-122.463
-81.0188
-113.693
-113.658
-251.682
67.8577
-37.441
-5.20296
-17.2055
-13.207
-426.242
92.157
-129.867
-72.4077
-113.477
-111.5
-238.376
73.2434
-39.4326
-1.6405
-16.3186
-11.7298
-428.095
109.618
-135.644
-64.9421
-112.859
-108.975
-226.205
76.008
-40.9252
0.373645
-16.2477
-11.2956
-423.149
121.057
-138.884
-59.2716
-111.793
-106.569
-215.576
76.9815
-41.7848
1.22683
-16.6
-11.5377
-413.611
127.503
-139.672
-55.4355
-110.315
-104.453
-206.788
76.9915
-42.1862
1.33974
-17.137
-12.1387
-402.079
130.601
-138.786
-53.0396
-108.671
-102.712
-199.675
76.566
-42.277
1.06238
-17.6888
-12.8392
-390.274
131.728
-136.959
-51.6137
-107.026
-101.293
-193.892
75.9493
-42.1772
0.584911
-18.21
-13.5515
-378.926
131.685
-134.703
-50.8466
-105.493
-100.151
-189.141
75.272
-41.9605
0.02701
-18.6805
-14.2301
-368.427
131.008
-132.337
-50.4962
-104.127
-99.2398
-185.28
74.6174
-41.6982
-0.533444
-19.0893
-14.8383
-359.138
130.063
-130.084
-50.386
-102.953
-98.5139
-182.142
74.0332
-41.4275
-1.04918
-19.4337
-15.3615
-351.12
129.068
-128.046
-50.397
-101.958
-97.9243
-179.586
73.5253
-41.1668
-1.50932
-19.7219
-15.8075
-344.296
128.117
-126.261
-50.4784
-101.133
-97.4571
-177.432
73.074
-40.9237
-1.91666
-19.9637
-16.1861
-338.371
127.228
-124.698
-50.5935
-100.443
-97.0817
-175.641
72.7143
-40.7399
-2.23169
-20.1468
-16.4685
-333.436
126.535
-123.466
-50.6729
-99.8942
-96.7725
-26.3204
-99.6183
-58.9379
-70.9104
-62.5409
-57.8663
17.6074
-102.592
-24.0777
-56.659
-40.7329
-45.1842
79.9964
-68.679
23.9626
-15.2805
3.34703
-4.33883
109.471
-42.983
49.4751
7.49691
25.6543
15.7238
127.028
-24.0528
66.1257
23.6306
41.3763
30.5214
135.423
-12.0886
75.8009
33.7799
51.5314
40.5879
146.127
-1.03778
84.6008
43.621
61.0317
49.6591
-28.561
-98.9958
-59.9169
-71.2799
-63.2379
-58.3741
15.6068
-102.508
-25.3346
-57.3259
-41.6781
-45.8929
77.3978
-69.8498
21.7154
-17.1826
1.09853
-6.48175
106.724
-45.2735
46.688
4.8622
22.789
12.9317
124.207
-27.3634
62.8719
20.2712
37.8505
26.973
132.442
-16.1883
72.272
29.9198
47.5692
36.5455
141.775
-6.1991
80.29
38.8673
56.3186
44.9953
-31.2148
-98.1872
-61.0441
-71.6671
-64.0153
-58.9209
13.1623
-102.414
-26.8807
-58.1787
-42.8829
-46.8339
74.1999
-71.3514
18.9428
-19.5626
-1.68756
-9.14739
103.279
-48.2247
43.1891
1.50976
19.1749
9.40233
120.635
-31.5021
58.8673
16.1377
33.5594
22.6866
128.91
-20.9397
68.1729
25.4728
43.0286
31.9454
137.523
-11.4103
75.848
34.0117
51.4302
40.099
-34.5373
-97.3493
-62.5287
-72.3037
-65.1483
-59.8099
10.1613
-102.524
-28.8609
-59.4016
-44.544
-48.2222
70.2755
-73.4968
15.4362
-22.7173
-5.33556
-12.7071
99.0975
-52.0924
38.8546
-2.75544
14.6147
4.91304
116.129
-36.7514
53.8984
10.9603
28.2203
17.3775
124.418
-26.685
63.147
20.0688
37.521
26.4313
132.921
-17.0718
70.8055
28.5975
45.9059
34.5816
-38.9254
-96.5203
-64.602
-73.3671
-66.8635
-61.264
6.25067
-102.973
-31.5264
-61.2052
-46.91
-50.2987
65.1811
-76.6219
10.7923
-27.0569
-10.2929
-17.615
93.7864
-57.2717
33.3041
-8.34311
8.66494
-0.999929
110.394
-43.4318
47.6608
4.40823
21.48
10.6659
118.648
-33.7947
56.8726
13.3341
30.6605
19.5864
127.351
-23.7133
64.7472
22.1558
39.3041
28.0073
-44.6646
-95.7583
-67.4399
-75.0194
-69.3626
-63.4917
1.19506
-103.914
-35.0783
-63.7905
-50.2228
-53.3129
58.5813
-81.0492
4.70543
-32.9083
-16.9122
-24.2216
87.0034
-64.1034
26.1676
-15.6453
0.898524
-8.7767
103.132
-51.8325
39.8522
-3.84657
12.9672
2.15301
111.351
-42.4965
49.1124
5.00038
22.1476
11.0832
120.54
-31.5796
57.4232
14.396
31.3075
20.0335
-52.2118
-95.1691
-71.2882
-77.4633
-72.8781
-66.7289
-5.43254
-105.556
-39.8035
-67.4248
-54.8024
-57.6005
49.9758
-87.1413
-3.20383
-40.6322
-25.5526
-32.8737
78.2215
-72.9757
17.0576
-25.0566
-9.11138
-18.8465
93.9292
-62.3083
30.0645
-14.221
2.2257
-8.62416
102.052
-53.1556
39.503
-5.30681
11.5747
0.510963
112.107
-41.0476
48.4539
4.90928
21.4855
10.2264
-61.9679
-94.8524
-76.3536
-80.898
-77.6263
-71.212
-14.0808
-108.134
-46.0229
-72.4307
-61.0172
-63.5601
38.8627
-95.224
-13.259
-50.5026
-36.5198
-43.8547
66.7755
-84.27
5.52203
-36.9886
-21.8121
-31.6525
82.0784
-75.2496
17.8659
-27.1087
-11.1908
-22.1203
90.1098
-66.1432
27.6211
-17.9737
-1.49645
-12.5869
101.423
-52.4387
37.5251
-6.57249
9.52486
-1.74427
-74.5668
-94.8201
-82.8961
-85.5079
-83.819
-77.1638
-25.5333
-111.892
-54.216
-79.2395
-69.3874
-71.7149
24.4832
-105.552
-25.858
-62.7846
-50.0669
-57.3452
51.8555
-98.2207
-8.85512
-51.6643
-37.4262
-47.2784
66.6842
-90.9228
2.83205
-42.7196
-27.4512
-38.346
74.7001
-81.7154
13.0623
-33.1989
-17.2623
-28.2496
87.7512
-66.0716
24.2079
-20.3098
-4.78351
-15.9364
-90.3943
-94.9388
-90.877
-91.1977
-91.2803
-84.417
-40.5984
-117.006
-64.8409
-88.2716
-80.3831
-82.5717
5.96707
-118.212
-41.4301
-77.8157
-66.6869
-73.9149
32.3722
-115.103
-26.714
-69.6796
-56.7079
-66.5912
46.6029
-109.726
-15.8386
-61.8653
-47.5992
-58.4967
54.5635
-100.401
-5.01906
-51.8775
-36.7932
-47.7215
69.9739
-82.5483
7.59856
-37.3169
-22.6983
-33.8067
-109.871
-94.7517
-100.1
-97.6949
-99.6457
-92.6505
-60.2481
-123.208
-78.0027
-99.3777
-93.7413
-95.7361
-17.514
-132.626
-59.7501
-94.8935
-85.5348
-92.4538
7.43296
-134.138
-47.625
-89.9207
-78.3242
-87.8671
20.984
-130.792
-37.6218
-83.2318
-70.0931
-80.574
28.7914
-121.427
-26.1929
-72.7643
-58.5991
-69.0374
47.1067
-101.219
-11.9202
-56.4003
-42.7861
-53.428
-133.1
-93.3076
-110.013
-104.437
-108.221
-101.235
-85.0196
-129.518
-93.4576
-112.07
-108.948
-110.669
-46.7202
-147.817
-80.6212
-113.492
-106.114
-112.449
-23.8659
-154.488
-71.3253
-111.802
-101.783
-110.652
-11.1827
-153.349
-62.2525
-106.311
-94.5197
-104.28
-3.41937
-143.972
-50.1356
-95.3627
-82.4191
-92.1189
18.1348
-121.558
-34.2931
-77.4503
-65.1091
-75.0786
-158.986