/*--------------------------------*- C++ -*----------------------------------*\
| =========                 |                                                 |
| \\      /  F ield         | OpenFOAM: The Open Source CFD Toolbox           |
|  \\    /   O peration     | Version:  2206                                  |
|   \\  /    A nd           | Website:  www.openfoam.com                      |
|    \\/     M anipulation  |                                                 |
\*---------------------------------------------------------------------------*/
FoamFile
{
    version     2.0;
    format      ascii;
    arch        "LSB;label=32;scalar=64";
    class       surfaceScalarField;
    location    "460";
    object      phi;
}
// * * * * * * * * * * * * * * * * * * * * * * * * * * * * * * * * * * * * * //

dimensions      [0 3 -1 0 0 0 0];

oriented        oriented;

internalField   nonuniform List<scalar> 
146294
(
-1.79644e-11
2.98804e-11
3.76045e-12
-3.28035e-11
1.86756e-11
2.30254e-11
1.79947e-12
-2.47888e-11
-1.75546e-11
-2.36824e-11
6.84132e-12
2.27219e-11
2.37921e-11
6.17282e-12
1.62652e-11
-2.35937e-11
-7.1854e-11
1.14264e-10
5.47222e-12
-1.11878e-10
6.99533e-11
8.80892e-11
2.17457e-12
-8.55038e-11
-7.37586e-11
-9.19272e-11
2.18745e-11
9.97599e-11
9.09203e-11
2.10452e-11
7.31056e-11
-9.26285e-11
-1.70859e-10
2.6332e-10
6.91052e-12
-2.5558e-10
1.64169e-10
2.02683e-10
3.00623e-12
-1.96608e-10
-1.76879e-10
-2.12029e-10
4.76839e-11
2.39716e-10
2.09459e-10
4.73136e-11
1.76586e-10
-2.13398e-10
-3.4641e-10
5.20219e-10
6.19877e-12
-5.01324e-10
3.3149e-10
4.00117e-10
4.70678e-12
-3.87116e-10
-3.59183e-10
-4.15246e-10
8.85014e-11
4.82905e-10
4.10862e-10
9.06802e-11
3.56452e-10
-4.16313e-10
-6.50367e-10
9.52784e-10
-3.96852e-12
-9.10707e-10
6.22034e-10
7.3267e-10
1.4219e-12
-7.05366e-10
-6.73462e-10
-7.50119e-10
1.51272e-10
8.95129e-10
7.44391e-10
1.57875e-10
6.6151e-10
-7.47997e-10
-1.16762e-09
1.67004e-09
-4.1215e-11
-1.57931e-09
1.11844e-09
1.28489e-09
-1.61072e-11
-1.22666e-09
-1.20524e-09
-1.29182e-09
2.4195e-10
1.58247e-09
1.28701e-09
2.57743e-10
1.17083e-09
-1.27969e-09
-2.06187e-09
2.87823e-09
-1.38575e-10
-2.69902e-09
1.98167e-09
2.2167e-09
-7.63036e-11
-2.10114e-09
-2.11703e-09
-2.17746e-09
3.78001e-10
2.73904e-09
2.17911e-09
4.05451e-10
2.03006e-09
-2.14084e-09
-3.55899e-09
4.86746e-09
-3.73174e-10
-4.50917e-09
3.43813e-09
3.75316e-09
-2.40098e-10
-3.51802e-09
-3.62738e-09
-3.58856e-09
5.62787e-10
4.65489e-09
3.61317e-09
6.08482e-10
3.45508e-09
-3.49631e-09
-5.99782e-09
8.06537e-09
-8.964e-10
-7.37015e-09
5.82178e-09
6.24316e-09
-6.37759e-10
-5.77761e-09
-6.06862e-09
-5.79101e-09
7.93023e-10
7.76419e-09
5.85865e-09
8.6617e-10
5.78994e-09
-5.5983e-09
-9.73178e-09
1.29933e-08
-1.96083e-09
-1.17672e-08
9.5646e-09
1.00253e-08
-1.45115e-09
-9.24073e-09
-9.70385e-09
-9.07476e-09
8.68668e-10
1.26813e-08
9.30598e-09
1.02728e-09
9.42582e-09
-8.63999e-09
-1.57118e-08
2.08752e-08
-3.87226e-09
-1.88217e-08
1.55574e-08
1.61806e-08
-2.96424e-09
-1.4878e-08
-1.55094e-08
-1.41611e-08
7.53014e-10
2.05379e-08
1.46078e-08
1.07011e-09
1.53466e-08
-1.3374e-08
-2.55214e-08
3.39547e-08
-7.04089e-09
-3.07453e-08
2.54635e-08
2.64861e-08
-5.52924e-09
-2.4523e-08
-2.49281e-08
-2.23342e-08
2.82708e-10
3.36002e-08
2.31508e-08
8.78632e-10
2.52838e-08
-2.09451e-08
-3.95737e-08
5.33532e-08
-1.18803e-08
-4.88389e-08
3.9881e-08
4.174e-08
-9.28239e-09
-3.94082e-08
-3.8161e-08
-3.39135e-08
-1.20153e-09
5.32261e-08
3.55152e-08
7.82397e-11
4.00567e-08
-3.14356e-08
-6.2587e-08
8.59147e-08
-1.81511e-08
-8.00855e-08
6.30174e-08
6.7889e-08
-1.47418e-08
-6.55829e-08
-5.94354e-08
-5.27422e-08
-3.022e-09
8.56136e-08
5.48545e-08
-1.50673e-09
6.49616e-08
-4.8234e-08
-9.48923e-08
1.34705e-07
-2.54844e-08
-1.28322e-07
9.58496e-08
1.07455e-07
-2.11829e-08
-1.06772e-07
-8.91232e-08
-7.89296e-08
-5.04136e-09
1.33572e-07
8.20772e-08
-3.36148e-09
1.02144e-07
-7.17681e-08
-1.09835e-07
1.62259e-07
-3.0921e-08
-1.57542e-07
1.10586e-07
1.31467e-07
-2.60736e-08
-1.3352e-07
-1.02868e-07
-9.13573e-08
-6.23711e-09
1.60626e-07
9.41904e-08
-4.5283e-09
1.24748e-07
-8.34694e-08
-1.21683e-07
1.86365e-07
-3.46009e-08
-1.82972e-07
1.22021e-07
1.53142e-07
-2.94608e-08
-1.57518e-07
-1.13884e-07
-1.01619e-07
-6.25448e-09
1.84184e-07
1.03833e-07
-4.5883e-09
1.45023e-07
-9.34319e-08
-1.30259e-07
2.0472e-07
-3.75584e-08
-2.01632e-07
1.30196e-07
1.70294e-07
-3.2245e-08
-1.75964e-07
-1.21761e-07
-1.08888e-07
-5.59414e-09
2.02664e-07
1.10304e-07
-3.85754e-09
1.61746e-07
-1.01059e-07
-1.38776e-07
2.16351e-07
-4.09595e-08
-2.12469e-07
1.38373e-07
1.81232e-07
-3.55e-08
-1.88031e-07
-1.28672e-07
-1.0974e-07
-4.3356e-09
2.14727e-07
1.10127e-07
-2.38144e-09
1.74404e-07
-1.04375e-07
-1.45506e-07
2.1965e-07
-4.35977e-08
-2.15538e-07
1.44116e-07
1.84872e-07
-3.87519e-08
-1.93666e-07
-1.33408e-07
-1.04955e-07
-3.48283e-09
2.20019e-07
1.03753e-07
-1.44193e-09
1.82445e-07
-1.03458e-07
-1.44431e-07
2.13596e-07
-4.50391e-08
-2.09276e-07
1.41633e-07
1.80716e-07
-4.14884e-08
-1.90587e-07
-1.31768e-07
-9.67227e-08
-3.15406e-09
2.16192e-07
9.38114e-08
-1.26736e-09
1.82981e-07
-9.9153e-08
-1.30814e-07
1.958e-07
-4.32471e-08
-1.93229e-07
1.2653e-07
1.67552e-07
-4.17894e-08
-1.77931e-07
-1.20087e-07
-8.70045e-08
-3.43624e-09
2.01073e-07
8.20248e-08
-2.04191e-09
1.74289e-07
-9.29634e-08
-8.59628e-08
1.34618e-07
-3.69845e-08
-1.36633e-07
8.17744e-08
1.168e-07
-3.71546e-08
-1.2721e-07
-8.01448e-08
-6.06873e-08
-3.53668e-09
1.40246e-07
5.51654e-08
-2.97179e-09
1.24454e-07
-6.74067e-08
-5.42193e-08
8.9685e-08
-2.86e-08
-9.44754e-08
5.06695e-08
7.86069e-08
-2.97221e-08
-8.87294e-08
-5.14988e-08
-4.06627e-08
-2.98777e-09
9.42139e-08
3.55896e-08
-3.216e-09
8.52195e-08
-4.70291e-08
-3.3302e-08
5.85495e-08
-2.06153e-08
-6.37767e-08
3.05798e-08
5.16554e-08
-2.19784e-08
-6.03977e-08
-3.2276e-08
-2.63738e-08
-2.22262e-09
6.18822e-08
2.22822e-08
-2.87678e-09
5.67292e-08
-3.17813e-08
-1.98982e-08
3.71567e-08
-1.40238e-08
-4.1813e-08
1.79887e-08
3.29577e-08
-1.53119e-08
-3.98312e-08
-1.96718e-08
-1.64517e-08
-1.45775e-09
3.94019e-08
1.34455e-08
-2.22968e-09
3.65388e-08
-2.06767e-08
-1.20635e-08
2.39253e-08
-9.05181e-09
-2.75705e-08
1.07576e-08
2.13097e-08
-1.01078e-08
-2.64082e-08
-1.21527e-08
-1.03367e-08
-8.57471e-10
2.54679e-08
8.19934e-09
-1.55147e-09
2.38167e-08
-1.35168e-08
-7.14509e-09
1.50749e-08
-5.66413e-09
-1.75995e-08
6.29715e-09
1.34624e-08
-6.41339e-09
-1.69601e-08
-7.33005e-09
-6.3316e-09
-5.2208e-10
1.61773e-08
4.89713e-09
-1.03923e-09
1.52017e-08
-8.57996e-09
-4.09933e-09
9.1539e-09
-3.4052e-09
-1.08858e-08
3.58402e-09
8.20511e-09
-3.91665e-09
-1.05186e-08
-4.27339e-09
-3.72347e-09
-3.09788e-10
9.85903e-09
2.80996e-09
-6.61942e-10
9.33276e-09
-5.22472e-09
-2.3071e-09
5.45978e-09
-1.96273e-09
-6.5917e-09
2.00502e-09
4.91068e-09
-2.29691e-09
-6.386e-09
-2.4449e-09
-2.14604e-09
-1.8269e-10
5.89745e-09
1.5837e-09
-4.03342e-10
5.6158e-09
-3.1074e-09
-1.27277e-09
3.21389e-09
-1.07468e-09
-3.92556e-09
1.10294e-09
2.89961e-09
-1.28483e-09
-3.80798e-09
-1.3714e-09
-1.21794e-09
-1.0936e-10
3.48069e-09
8.80263e-10
-2.37175e-10
3.33234e-09
-1.81451e-09
-6.65512e-10
1.82042e-09
-5.4918e-10
-2.25319e-09
5.77343e-10
1.64803e-09
-6.75542e-10
-2.18777e-09
-7.31498e-10
-6.60951e-10
-6.49982e-11
1.9709e-09
4.67683e-10
-1.32607e-10
1.89627e-09
-1.01227e-09
-3.20969e-10
9.89405e-10
-2.52996e-10
-1.24224e-09
2.80799e-10
8.99064e-10
-3.25087e-10
-1.20499e-09
-3.63085e-10
-3.39486e-10
-3.7301e-11
1.06808e-09
2.34437e-10
-6.9111e-11
1.03299e-09
-5.35654e-10
-1.28548e-10
5.00641e-10
-9.68616e-11
-6.41019e-10
1.15246e-10
4.57288e-10
-1.33635e-10
-6.20482e-10
-1.54943e-10
-1.56744e-10
-1.96684e-11
5.36323e-10
1.04482e-10
-3.17608e-11
5.21652e-10
-2.5747e-10
-2.37051e-11
2.15642e-10
-2.42225e-11
-2.87994e-10
2.51019e-11
1.99022e-10
-3.8549e-11
-2.76923e-10
-3.96111e-11
-5.41204e-11
-7.77097e-12
2.25699e-10
3.28902e-11
-1.06612e-11
2.21843e-10
-9.73605e-11
2.98975e-11
5.55406e-11
-8.85702e-11
-2.10891e-11
5.34957e-11
-8.28735e-11
2.0727e-11
9.11622e-13
5.15023e-11
-4.64362e-12
5.3088e-11
-9.34159e-12
-1.50485e-11
1.37404e-11
9.46053e-12
1.46228e-11
8.32088e-12
8.11176e-12
-1.51689e-11
-2.85032e-12
1.19576e-11
1.80272e-12
2.7723e-12
7.42898e-12
1.48551e-12
-3.48872e-12
-9.20447e-13
1.16043e-11
3.20486e-13
9.71136e-13
7.17058e-12
4.63716e-13
-1.11531e-12
-3.68519e-13
1.17127e-11
-1.79654e-13
4.60164e-13
7.14144e-12
8.01687e-14
-4.02656e-13
-1.66362e-13
1.21339e-11
-5.04478e-13
2.541e-13
7.32851e-12
-1.93404e-13
-1.55622e-13
-8.48425e-14
1.26518e-11
-5.87997e-13
1.63474e-13
7.58917e-12
-2.77261e-13
-6.02524e-14
-4.50191e-14
-5.94993e-13
1.31716e-11
1.19879e-13
-3.40531e-13
7.9002e-12
-1.4993e-14
-6.78869e-11
6.18815e-11
5.1879e-11
6.35358e-11
3.79749e-11
4.39761e-11
-6.85144e-11
-1.26955e-11
5.42245e-11
1.03778e-11
1.1748e-11
3.31576e-11
8.99967e-12
-1.54351e-11
-3.84081e-12
5.25946e-11
1.96645e-12
3.87301e-12
3.19859e-11
2.4272e-12
-4.60344e-12
-1.4104e-12
5.32355e-11
-1.09456e-12
1.71226e-12
3.23543e-11
-1.4779e-13
-1.52827e-12
-5.82003e-13
5.46999e-11
-2.279e-12
9.0338e-13
3.33508e-11
-1.23547e-12
-5.26126e-13
-2.61785e-13
5.63852e-11
-2.57615e-12
5.61559e-13
3.45328e-11
-1.56643e-12
-1.5664e-13
-1.11888e-13
-2.65299e-12
5.81647e-11
4.02152e-13
-1.72062e-12
3.58012e-11
1.09966e-14
-1.6548e-10
1.54641e-10
1.47626e-10
1.54874e-10
9.59692e-11
1.24921e-10
-1.65847e-10
-3.13289e-11
1.38859e-10
2.8317e-11
2.9096e-11
8.59345e-11
2.50673e-11
-3.74281e-11
-9.79371e-12
1.35647e-10
5.07748e-12
9.92359e-12
8.36851e-11
6.28321e-12
-1.13846e-11
-3.72198e-12
1.37386e-10
-3.56222e-12
4.45015e-12
8.49054e-11
-1.17785e-12
-3.91201e-12
-1.63063e-12
1.40519e-10
-6.16059e-12
2.39192e-12
8.71687e-11
-3.66585e-12
-1.45291e-12
-8.04305e-13
1.43922e-10
-6.68513e-12
1.50958e-12
8.96514e-11
-4.32392e-12
-5.2827e-13
-4.18044e-13
-6.79151e-12
1.4739e-10
1.09539e-12
-4.56183e-12
9.2189e-11
-1.083e-13
-3.39176e-10
3.27874e-10
3.22793e-10
3.19442e-10
2.06025e-10
2.73177e-10
-3.36846e-10
-6.54426e-11
3.01143e-10
5.89487e-11
6.15441e-11
1.89191e-10
5.30017e-11
-7.65703e-11
-2.14435e-11
2.96691e-10
9.02859e-12
2.19939e-11
1.86283e-10
1.18985e-11
-2.4114e-11
-8.56652e-12
3.00374e-10
-8.78718e-12
1.01305e-11
1.89014e-10
-3.73169e-12
-8.72987e-12
-4.01566e-12
3.05958e-10
-1.33337e-11
5.57863e-12
1.93115e-10
-8.25615e-12
-3.5467e-12
-2.16496e-12
3.11741e-10
-1.38621e-11
3.58586e-12
1.97361e-10
-9.1713e-12
-1.54102e-12
-1.29592e-12
-1.38026e-11
3.17394e-10
2.64088e-12
-9.38734e-12
2.01503e-10
-6.22092e-13
-6.41212e-10
6.44027e-10
6.05675e-10
6.09447e-10
4.09987e-10
5.13188e-10
-6.30068e-10
-1.26761e-10
6.03863e-10
1.04696e-10
1.21113e-10
3.85259e-10
9.58578e-11
-1.44969e-10
-4.36792e-11
5.99465e-10
1.16542e-11
4.53994e-11
3.82924e-10
1.80474e-11
-4.75638e-11
-1.83457e-11
6.06432e-10
-1.89115e-11
2.15048e-11
3.88207e-10
-9.16758e-12
-1.81951e-11
-9.11207e-12
6.15566e-10
-2.54568e-11
1.21052e-11
3.94931e-10
-1.60874e-11
-8.0039e-12
-5.24897e-12
6.24473e-10
-2.54284e-11
7.90472e-12
4.01423e-10
-1.69766e-11
-3.93882e-12
-3.42468e-12
-2.47545e-11
6.32977e-10
5.89394e-12
-1.68926e-11
4.07579e-10
-2.05684e-12
-1.15836e-09
1.21137e-09
1.02256e-09
1.11306e-09
7.81364e-10
8.69172e-10
-1.12483e-09
-2.35831e-10
1.157e-09
1.65702e-10
2.29196e-10
7.49255e-10
1.55479e-10
-2.63399e-10
-8.54014e-11
1.15547e-09
8.69972e-12
8.9871e-11
7.4998e-10
2.21767e-11
-9.02954e-11
-3.75508e-11
1.16786e-09
-3.75429e-11
4.3687e-11
7.59446e-10
-1.98636e-11
-3.64195e-11
-1.95398e-11
1.18206e-09
-4.5108e-11
2.50463e-11
7.69842e-10
-2.88726e-11
-1.71078e-11
-1.18048e-11
1.19512e-09
-4.32921e-11
1.65612e-11
7.79193e-10
-2.90038e-11
-9.17347e-12
-8.12964e-12
-4.11571e-11
1.20724e-09
1.24639e-11
-2.80618e-11
7.87736e-10
-5.46038e-12
-2.04462e-09
2.22325e-09
1.59537e-09
1.98723e-09
1.45326e-09
1.36175e-09
-1.96134e-09
-4.29327e-10
2.15625e-09
2.37531e-10
4.24153e-10
1.41701e-09
2.30763e-10
-4.68749e-10
-1.62814e-10
2.16177e-09
-7.30068e-12
1.73165e-10
1.42461e-09
1.94184e-11
-1.67805e-10
-7.45354e-11
2.18277e-09
-7.01892e-11
8.61636e-11
1.44076e-09
-3.96024e-11
-7.09988e-11
-4.02514e-11
2.20382e-09
-7.61306e-11
5.01649e-11
1.45603e-09
-4.9299e-11
-3.51532e-11
-2.51727e-11
2.2224e-09
-7.01283e-11
3.35015e-11
1.46903e-09
-4.71124e-11
-2.0012e-11
-1.79586e-11
-6.50093e-11
2.23879e-09
2.53842e-11
-4.42673e-11
1.48008e-09
-1.28498e-11
-3.53243e-09
4.00015e-09
2.30646e-09
3.47539e-09
2.64728e-09
1.98152e-09
-3.3452e-09
-7.67296e-10
3.93353e-09
3.01589e-10
7.69506e-10
2.62026e-09
3.1091e-10
-8.20762e-10
-3.03515e-10
3.95546e-09
-5.19182e-11
3.25764e-10
2.64253e-09
-4.40469e-13
-3.06351e-10
-1.43812e-10
3.99096e-09
-1.27389e-10
1.65563e-10
2.6697e-09
-7.55129e-11
-1.3506e-10
-7.9913e-11
4.02238e-09
-1.25486e-10
9.76581e-11
2.69205e-09
-8.21326e-11
-6.95993e-11
-5.11917e-11
4.04861e-09
-1.10754e-10
6.57144e-11
2.70967e-09
-7.45982e-11
-4.12477e-11
-3.73363e-11
-9.98418e-11
4.07066e-09
5.00003e-11
-6.78945e-11
2.72355e-09
-2.76888e-11
-5.98747e-09
7.04338e-09
3.05568e-09
5.9571e-09
4.71798e-09
2.66802e-09
-5.604e-09
-1.34923e-09
7.00835e-09
3.1456e-10
1.3703e-09
4.7291e-09
3.68606e-10
-1.41905e-09
-5.53314e-10
7.06068e-09
-1.48693e-10
5.9739e-10
4.77771e-09
-5.24761e-11
-5.50241e-10
-2.69039e-10
7.1172e-09
-2.23233e-10
3.08042e-10
4.82039e-09
-1.36855e-10
-2.50691e-10
-1.52294e-10
7.16306e-09
-2.01879e-10
1.82915e-10
4.852e-09
-1.33109e-10
-1.32862e-10
-9.88633e-11
7.19849e-09
-1.70833e-10
1.23303e-10
4.87422e-09
-1.15146e-10
-8.07284e-11
-7.28516e-11
-1.49468e-10
7.22739e-09
9.36934e-11
-1.01341e-10
4.89043e-09
-5.55276e-11
-9.85092e-09
1.20787e-08
3.52607e-09
9.9789e-09
8.12903e-09
3.17318e-09
-9.06248e-09
-2.31031e-09
1.21593e-08
1.58246e-10
2.3845e-09
8.26022e-09
3.12976e-10
-2.38715e-09
-9.79495e-10
1.22787e-08
-3.57133e-10
1.06789e-09
8.36963e-09
-1.82128e-10
-9.598e-10
-4.87042e-10
1.23729e-08
-3.89104e-10
5.58148e-10
8.44273e-09
-2.47906e-10
-4.49648e-10
-2.79613e-10
1.24407e-08
-3.23156e-10
3.33195e-10
8.48964e-09
-2.16266e-10
-2.43341e-10
-1.82984e-10
1.24891e-08
-2.6126e-10
2.24567e-10
8.51884e-09
-1.77437e-10
-1.50223e-10
-1.35386e-10
-2.21024e-10
1.25262e-08
1.69952e-10
-1.50375e-10
8.53725e-09
-1.0467e-10
-1.59896e-08
2.02713e-08
3.40424e-09
1.6372e-08
1.37524e-08
3.32841e-09
-1.45549e-08
-3.87221e-09
2.05449e-08
-2.84022e-10
4.03836e-09
1.40763e-08
7.4147e-11
-3.95959e-09
-1.681e-09
2.07558e-08
-7.31515e-10
1.84358e-09
1.42685e-08
-4.21611e-10
-1.63444e-09
-8.4718e-10
2.08947e-08
-6.52548e-10
9.70796e-10
1.43767e-08
-4.2507e-10
-7.79087e-10
-4.89204e-10
2.09855e-08
-5.04207e-10
5.79573e-10
1.44377e-08
-3.40439e-10
-4.25989e-10
-3.20154e-10
2.10455e-08
-3.90286e-10
3.88586e-10
1.44701e-08
-2.66184e-10
-2.64294e-10
-2.35853e-10
-3.18886e-10
2.10881e-08
2.91336e-10
-2.17204e-10
1.44855e-08
-1.84341e-10
-2.59307e-08
3.37596e-08
2.43798e-09
2.67285e-08
2.31378e-08
2.97309e-09
-2.34359e-08
-6.41822e-09
3.42632e-08
-1.09836e-09
6.72479e-09
2.37399e-08
-4.07881e-10
-6.54157e-09
-2.82963e-09
3.45573e-08
-1.30376e-09
3.10649e-09
2.40325e-08
-7.94927e-10
-2.75017e-09
-1.43565e-09
3.47215e-08
-1.0226e-09
1.63989e-09
2.41705e-08
-6.76665e-10
-1.3235e-09
-8.28764e-10
3.48162e-08
-7.45043e-10
9.74871e-10
2.42343e-08
-5.07383e-10
-7.25654e-10
-5.39026e-10
3.48709e-08
-5.54102e-10
6.47232e-10
2.42573e-08
-3.80093e-10
-4.4894e-10
-3.92587e-10
-4.37093e-10
3.49039e-08
4.78068e-10
-2.98742e-10
2.42571e-08
-3.10681e-10
-4.01995e-08
5.44074e-08
-4.81741e-10
4.19261e-08
3.73557e-08
1.357e-09
-3.58896e-08
-1.01315e-08
5.5279e-08
-2.57242e-09
1.07293e-08
3.84094e-08
-1.33418e-09
-1.02626e-08
-4.50814e-09
5.56781e-08
-2.18989e-09
4.99202e-09
3.88522e-08
-1.38189e-09
-4.36678e-09
-2.28903e-09
5.58635e-08
-1.55042e-09
2.63088e-09
3.90303e-08
-1.03751e-09
-2.10705e-09
-1.31351e-09
5.595e-08
-1.07039e-09
1.55084e-09
3.90923e-08
-7.33777e-10
-1.15054e-09
-8.43812e-10
5.59905e-08
-7.65016e-10
1.0145e-09
3.91004e-08
-5.27271e-10
-7.04642e-10
-6.02995e-10
-5.81252e-10
5.60034e-08
7.33364e-10
-3.98454e-10
3.9076e-08
-4.79641e-10
-6.16e-08
8.68691e-08
-3.8975e-09
6.37483e-08
6.06487e-08
-1.48975e-09
-5.44495e-08
-1.59824e-08
8.78828e-08
-4.31764e-09
1.67086e-08
6.20164e-08
-2.68491e-09
-1.60037e-08
-7.08219e-09
8.82667e-08
-3.21992e-09
7.72434e-09
6.25389e-08
-2.18348e-09
-6.80672e-09
-3.56317e-09
8.83947e-08
-2.14371e-09
4.02789e-09
6.27068e-08
-1.50737e-09
-3.26212e-09
-2.01749e-09
8.84184e-08
-1.41904e-09
2.34043e-09
6.27307e-08
-1.01554e-09
-1.76146e-09
-1.27328e-09
8.84022e-08
-9.77848e-10
1.50271e-09
6.26959e-08
-7.03036e-10
-1.06253e-09
-8.89676e-10
-7.16988e-10
8.83655e-08
1.06108e-09
-5.13411e-10
6.26294e-08
-7.0919e-10
-8.75707e-08
1.34492e-07
-7.92766e-09
9.06701e-08
9.57527e-08
-4.91162e-09
-7.77656e-08
-2.41218e-08
1.35527e-07
-6.31042e-09
2.50742e-08
9.71248e-08
-4.25692e-09
-2.39269e-08
-1.05255e-08
1.35753e-07
-4.33144e-09
1.14066e-08
9.75449e-08
-3.06357e-09
-1.00698e-08
-5.19694e-09
1.35714e-07
-2.75066e-09
5.84217e-09
9.75901e-08
-1.99882e-09
-4.75149e-09
-2.88257e-09
1.356e-07
-1.75437e-09
3.32989e-09
9.75055e-08
-1.29523e-09
-2.52059e-09
-1.77897e-09
1.35475e-07
-1.16632e-09
2.09341e-09
9.73822e-08
-8.66834e-10
-1.4915e-09
-1.21331e-09
-8.23717e-10
1.35349e-07
1.44447e-09
-6.12126e-10
9.72417e-08
-9.7527e-10
-9.37269e-08
1.60032e-07
-9.53263e-09
9.59248e-08
1.17272e-07
-6.22892e-09
-8.49355e-08
-2.73971e-08
1.60447e-07
-7.3271e-09
2.79959e-08
1.17905e-07
-5.00353e-09
-2.72877e-08
-1.16925e-08
1.6025e-07
-4.89006e-09
1.24444e-08
1.17927e-07
-3.48392e-09
-1.12978e-08
-5.63656e-09
1.59943e-07
-3.03452e-09
6.2283e-09
1.17739e-07
-2.22224e-09
-5.22528e-09
-3.04942e-09
1.59659e-07
-1.89037e-09
3.46733e-09
1.17515e-07
-1.40912e-09
-2.7132e-09
-1.83237e-09
1.59424e-07
-1.22319e-09
2.12508e-09
1.17306e-07
-9.20982e-10
-1.56953e-09
-1.21394e-09
-8.36636e-10
1.59224e-07
1.42579e-09
-6.3276e-10
1.17114e-07
-1.00191e-09
-9.51306e-08
1.82782e-07
-8.98105e-09
9.59869e-08
1.37732e-07
-5.82512e-09
-8.82423e-08
-2.95292e-08
1.82642e-07
-7.25507e-09
2.95965e-08
1.37725e-07
-4.90105e-09
-2.96266e-08
-1.23396e-08
1.82078e-07
-4.84151e-09
1.28524e-08
1.37419e-07
-3.43519e-09
-1.20853e-08
-5.81159e-09
1.81555e-07
-2.98177e-09
6.28298e-09
1.37054e-07
-2.18401e-09
-5.48523e-09
-3.06634e-09
1.81149e-07
-1.83199e-09
3.41257e-09
1.36737e-07
-1.37016e-09
-2.78949e-09
-1.79155e-09
1.80845e-07
-1.16126e-09
2.03414e-09
1.36483e-07
-8.80685e-10
-1.5771e-09
-1.149e-09
-7.72137e-10
1.80607e-07
1.32115e-09
-5.91275e-10
1.36272e-07
-9.8132e-10
-9.31611e-08
2.015e-07
-7.42975e-09
9.27843e-08
1.55951e-07
-4.79617e-09
-8.83905e-08
-3.07721e-08
2.00995e-07
-6.33398e-09
3.0358e-08
1.55542e-07
-4.23871e-09
-3.10253e-08
-1.26836e-08
2.00157e-07
-4.28544e-09
1.29646e-08
1.55007e-07
-3.04167e-09
-1.25445e-08
-5.87333e-09
1.9948e-07
-2.65062e-09
6.22122e-09
1.54524e-07
-1.95215e-09
-5.62163e-09
-3.03661e-09
1.98998e-07
-1.62182e-09
3.30674e-09
1.54153e-07
-1.22344e-09
-2.81468e-09
-1.72974e-09
1.98665e-07
-1.01592e-09
1.91859e-09
1.53885e-07
-7.79997e-10
-1.56137e-09
-1.07382e-09
-6.62041e-10
1.98424e-07
1.20365e-09
-5.15959e-10
1.53684e-07
-9.49075e-10
-8.9919e-08
2.14718e-07
-6.17306e-09
8.86825e-08
1.70066e-07
-3.71514e-09
-8.66561e-08
-3.08799e-08
2.13976e-07
-4.99125e-09
3.0282e-08
1.69347e-07
-3.28044e-09
-3.11184e-08
-1.2783e-08
2.12872e-07
-3.38915e-09
1.29896e-08
1.68534e-07
-2.40167e-09
-1.26123e-08
-5.93534e-09
2.12035e-07
-2.11804e-09
6.24242e-09
1.67882e-07
-1.56675e-09
-5.66735e-09
-3.06856e-09
2.11478e-07
-1.30952e-09
3.31152e-09
1.67425e-07
-9.94621e-10
-2.84229e-09
-1.74167e-09
2.11124e-07
-8.2876e-10
1.91002e-09
1.67122e-07
-6.4143e-10
-1.57613e-09
-1.07256e-09
-5.45909e-10
2.10894e-07
1.18549e-09
-4.29198e-10
1.66917e-07
-9.55329e-10
-8.61952e-08
2.21387e-07
-5.72355e-09
8.43869e-08
1.79473e-07
-3.11795e-09
-8.38154e-08
-3.02326e-08
2.20928e-07
-4.01559e-09
2.97188e-08
1.78878e-07
-2.51304e-09
-3.04046e-08
-1.27938e-08
2.1989e-07
-2.62515e-09
1.30672e-08
1.78e-07
-1.80651e-09
-1.25133e-08
-6.06411e-09
2.19062e-07
-1.62966e-09
6.40567e-09
1.77275e-07
-1.18165e-09
-5.72342e-09
-3.19197e-09
2.18501e-07
-1.01073e-09
3.45259e-09
1.76764e-07
-7.55977e-10
-2.92065e-09
-1.84085e-09
2.1814e-07
-6.44235e-10
2.01892e-09
1.76421e-07
-4.92255e-10
-1.64631e-09
-1.15083e-09
-4.28406e-10
2.17903e-07
1.26958e-09
-3.33062e-10
1.76187e-07
-1.01378e-09
-8.05387e-08
2.19739e-07
-7.05543e-09
7.83296e-08
1.82731e-07
-4.41077e-09
-7.89935e-08
-2.91314e-08
2.20117e-07
-3.96074e-09
2.86998e-08
1.82936e-07
-2.63128e-09
-2.92186e-08
-1.26688e-08
2.19456e-07
-2.28474e-09
1.29887e-08
1.82353e-07
-1.60797e-09
-1.22863e-08
-6.14437e-09
2.18805e-07
-1.33758e-09
6.50446e-09
1.81749e-07
-9.80804e-10
-5.74017e-09
-3.29459e-09
2.18335e-07
-8.09309e-10
3.56205e-09
1.81292e-07
-6.09961e-10
-2.98531e-09
-1.92943e-09
2.18024e-07
-5.11863e-10
2.10993e-09
1.80976e-07
-3.93642e-10
-1.71114e-09
-1.22279e-09
-3.40788e-10
2.17816e-07
1.34225e-09
-2.666e-10
1.80755e-07
-1.0699e-09
-7.25448e-08
2.06645e-07
-9.93244e-09
6.98517e-08
1.77262e-07
-7.58065e-09
-7.23495e-08
-2.68181e-08
2.08215e-07
-5.00126e-09
2.62879e-08
1.7887e-07
-3.81328e-09
-2.72453e-08
-1.18656e-08
2.08205e-07
-2.52481e-09
1.21124e-08
1.7897e-07
-1.94186e-09
-1.16355e-08
-5.82406e-09
2.07885e-07
-1.32561e-09
6.13345e-09
1.78699e-07
-1.03315e-09
-5.49975e-09
-3.14717e-09
2.07582e-07
-7.42754e-10
3.38137e-09
1.78409e-07
-5.86207e-10
-2.88311e-09
-1.85204e-09
2.07358e-07
-4.44658e-10
2.01098e-09
1.7818e-07
-3.55058e-10
-1.66099e-09
-1.17754e-09
-2.83713e-10
2.07194e-07
1.28294e-09
-2.29226e-10
1.78006e-07
-1.04195e-09
-4.98442e-08
1.44844e-07
-1.17485e-08
4.70627e-08
1.28046e-07
-1.00726e-08
-5.09437e-08
-1.85303e-08
1.46784e-07
-6.25177e-09
1.784e-08
1.30323e-07
-5.2926e-09
-1.93304e-08
-8.2135e-09
1.47304e-07
-3.08071e-09
8.24548e-09
1.31038e-07
-2.58996e-09
-8.2851e-09
-4.0205e-09
1.47355e-07
-1.52381e-09
4.16822e-09
1.31173e-07
-1.27956e-09
-3.90878e-09
-2.16082e-09
1.47288e-07
-8.04432e-10
2.28786e-09
1.31138e-07
-6.76596e-10
-2.03742e-09
-1.26226e-09
1.47212e-07
-4.576e-10
1.35229e-09
1.31072e-07
-3.86335e-10
-1.1639e-09
-7.95476e-10
-2.79661e-10
1.47146e-07
8.56304e-10
-2.3751e-10
1.31006e-07
-7.22487e-10
-3.31515e-08
9.6812e-08
-1.15072e-08
3.03139e-08
8.78369e-08
-1.06763e-08
-3.51666e-08
-1.22872e-08
9.81677e-08
-6.77174e-09
1.1449e-08
8.97937e-08
-6.17418e-09
-1.3365e-08
-5.4151e-09
9.87015e-08
-3.47223e-09
5.27195e-09
9.06334e-08
-3.13572e-09
-5.71055e-09
-2.62589e-09
9.88541e-08
-1.69763e-09
2.64474e-09
9.0925e-08
-1.52628e-09
-2.67324e-09
-1.39592e-09
9.88791e-08
-8.71027e-10
1.43801e-09
9.10131e-08
-7.81729e-10
-1.37858e-09
-8.05801e-10
9.8865e-08
-4.8018e-10
8.41177e-10
9.10285e-08
-4.3121e-10
-7.7765e-10
-5.01328e-10
-2.84729e-10
9.88453e-08
5.26665e-10
-2.5647e-10
9.10225e-08
-4.75868e-10
-2.15154e-08
6.27692e-08
-9.81066e-09
1.89355e-08
5.80252e-08
-9.61413e-09
-2.38707e-08
-7.90443e-09
6.32174e-08
-6.38789e-09
7.07097e-09
5.91303e-08
-6.13297e-09
-9.05331e-09
-3.45035e-09
6.3454e-08
-3.49341e-09
3.23414e-09
5.97063e-08
-3.32316e-09
-3.84006e-09
-1.65113e-09
6.3527e-08
-1.72615e-09
1.60492e-09
5.99399e-08
-1.63534e-09
-1.77744e-09
-8.65249e-10
6.35359e-08
-8.75958e-10
8.61728e-10
6.00257e-08
-8.28134e-10
-9.04438e-10
-4.92304e-10
6.35234e-08
-4.74083e-10
4.97627e-10
6.00521e-08
-4.48103e-10
-5.02824e-10
-3.01798e-10
-2.75436e-10
6.35088e-08
3.07483e-10
-2.60848e-10
6.00579e-08
-3.02908e-10
-1.34901e-08
3.92967e-08
-7.57293e-09
1.13606e-08
3.69751e-08
-7.76723e-09
-1.57717e-08
-4.8938e-09
3.90145e-08
-5.36813e-09
4.15637e-09
3.72957e-08
-5.36855e-09
-5.97895e-09
-2.1118e-09
3.8895e-08
-3.14559e-09
1.88308e-09
3.7494e-08
-3.1188e-09
-2.51536e-09
-9.9541e-10
3.88255e-08
-1.58519e-09
9.2257e-10
3.75803e-08
-1.56872e-09
-1.14981e-09
-5.13173e-10
3.87766e-08
-8.01685e-10
4.88123e-10
3.76091e-08
-7.93167e-10
-5.76683e-10
-2.87339e-10
3.87399e-08
-4.28613e-10
2.77795e-10
3.76131e-08
-4.24467e-10
-3.15761e-10
-1.73392e-10
-2.45254e-10
3.87142e-08
1.69212e-10
-2.43471e-10
3.76098e-08
-1.87207e-10
-8.5212e-09
2.48468e-08
-5.29837e-09
6.87143e-09
2.36449e-08
-5.62296e-09
-1.04905e-08
-3.02427e-09
2.41276e-08
-4.06161e-09
2.4373e-09
2.33814e-08
-4.18087e-09
-3.94859e-09
-1.28363e-09
2.37288e-08
-2.55277e-09
1.08925e-09
2.32243e-08
-2.606e-09
-1.63999e-09
-5.94742e-10
2.3531e-08
-1.3188e-09
5.26093e-10
2.31468e-08
-1.34736e-09
-7.38795e-10
-3.01191e-10
2.34227e-08
-6.66527e-10
2.73831e-10
2.30991e-08
-6.82308e-10
-3.64976e-10
-1.65793e-10
2.33592e-08
-3.52369e-10
1.53356e-10
2.30675e-08
-3.616e-10
-1.96825e-10
-9.8433e-11
-1.98783e-10
2.33188e-08
9.20068e-11
-2.04642e-10
2.30448e-08
-1.14902e-10
-5.26623e-09
1.54848e-08
-3.41285e-09
4.0759e-09
1.48323e-08
-3.71489e-09
-6.80273e-09
-1.82526e-09
1.46677e-08
-2.8092e-09
1.39124e-09
1.43315e-08
-2.95561e-09
-2.54898e-09
-7.60112e-10
1.41535e-08
-1.88831e-09
6.09678e-10
1.39825e-08
-1.9707e-09
-1.0467e-09
-3.46218e-10
1.3896e-08
-1.00488e-09
2.89998e-10
1.38066e-08
-1.05213e-09
-4.65445e-10
-1.72202e-10
1.37619e-08
-5.08863e-10
1.48342e-10
1.37136e-08
-5.35073e-10
-2.26791e-10
-9.31456e-11
1.36873e-08
-2.66044e-10
8.16545e-11
1.36607e-08
-2.80947e-10
-1.20602e-10
-5.44023e-11
-1.47913e-10
1.36425e-08
4.82183e-11
-1.56872e-10
1.36277e-08
-6.94104e-11
-3.13279e-09
9.33989e-09
-2.07767e-09
2.31927e-09
9.05737e-09
-2.3164e-09
-4.25365e-09
-1.06264e-09
8.64987e-09
-1.81494e-09
7.59268e-10
8.58197e-09
-1.94392e-09
-1.59831e-09
-4.32429e-10
8.16482e-09
-1.29448e-09
3.2396e-10
8.20375e-09
-1.37513e-09
-6.49634e-10
-1.93509e-10
7.91445e-09
-7.1262e-10
1.51587e-10
8.005e-09
-7.61507e-10
-2.85497e-10
-9.45898e-11
7.78713e-09
-3.63005e-10
7.61775e-11
7.90358e-09
-3.90661e-10
-1.37471e-10
-5.03014e-11
7.71791e-09
-1.87794e-10
4.11683e-11
7.8479e-09
-2.03467e-10
-7.22426e-11
-2.89189e-11
-1.02784e-10
7.67792e-09
2.39079e-11
-1.12033e-10
7.81536e-09
-4.10807e-11
-1.82778e-09
5.55027e-09
-1.19957e-09
1.2986e-09
5.4299e-09
-1.36367e-09
-2.5931e-09
-6.0767e-10
5.0364e-09
-1.09917e-09
4.06602e-10
5.05125e-09
-1.19371e-09
-9.78786e-10
-2.4138e-10
4.64091e-09
-8.24683e-10
1.67367e-10
4.71854e-09
-8.88316e-10
-3.9529e-10
-1.0618e-10
4.42816e-09
-4.70403e-10
7.67895e-11
4.53402e-09
-5.10829e-10
-1.72293e-10
-5.10782e-11
4.32085e-09
-2.42425e-10
3.78977e-11
4.4403e-09
-2.6575e-10
-8.22051e-11
-2.67125e-11
4.26396e-09
-1.24301e-10
2.00823e-11
4.39033e-09
-1.37483e-10
-4.2768e-11
-1.51161e-11
-6.69236e-11
4.23186e-09
1.14541e-11
-7.45874e-11
4.36193e-09
-2.40646e-11
-1.05058e-09
3.25992e-09
-6.45719e-10
7.19019e-10
3.21373e-09
-7.45552e-10
-1.5487e-09
-3.41282e-10
2.90474e-09
-6.16312e-10
2.14147e-10
2.94078e-09
-6.76244e-10
-5.85489e-10
-1.31202e-10
2.61106e-09
-4.83242e-10
8.37064e-11
2.68185e-09
-5.26309e-10
-2.34095e-10
-5.63661e-11
2.44561e-09
-2.85756e-10
3.72741e-11
2.53003e-09
-3.14375e-10
-1.0093e-10
-2.66565e-11
2.36204e-09
-1.50131e-10
1.8029e-11
2.4525e-09
-1.67065e-10
-4.77122e-11
-1.37175e-11
2.31876e-09
-7.66953e-11
9.35968e-12
2.41215e-09
-8.63078e-11
-2.46051e-11
-7.6464e-12
-4.06441e-11
2.29497e-09
5.23813e-12
-4.61712e-11
2.3899e-09
-1.37222e-11
-5.80839e-10
1.84585e-09
-3.22096e-10
3.8327e-10
1.83515e-09
-3.78109e-10
-8.86259e-10
-1.85453e-10
1.6226e-09
-3.16295e-10
1.0915e-10
1.66063e-09
-3.49784e-10
-3.37217e-10
-6.90209e-11
1.42576e-09
-2.57477e-10
4.02769e-11
1.48198e-09
-2.82707e-10
-1.33836e-10
-2.88796e-11
1.30928e-09
-1.57546e-10
1.72615e-11
1.37097e-09
-1.75025e-10
-5.71326e-11
-1.34282e-11
1.24944e-09
-8.49928e-11
8.16479e-12
1.31302e-09
-9.57121e-11
-2.67975e-11
-6.81181e-12
1.21911e-09
-4.36824e-11
4.15008e-12
1.28353e-09
-4.98805e-11
-1.37282e-11
-3.74543e-12
-2.2916e-11
1.20286e-09
2.2752e-12
-2.6472e-11
1.26768e-09
-7.60522e-12
-3.06745e-10
1.00065e-09
-1.42097e-10
1.95003e-10
1.00171e-09
-1.70084e-10
-4.82731e-10
-9.64919e-11
8.69977e-10
-1.42093e-10
5.31975e-11
8.9814e-10
-1.57932e-10
-1.8484e-10
-3.47286e-11
7.48631e-10
-1.19596e-10
1.83058e-11
7.8565e-10
-1.31979e-10
-7.28961e-11
-1.40834e-11
6.73343e-10
-7.54913e-11
7.41295e-12
7.11858e-10
-8.44012e-11
-3.08222e-11
-6.42103e-12
6.33417e-10
-4.20612e-11
3.39398e-12
6.71827e-10
-4.77919e-11
-1.43508e-11
-3.21642e-12
6.13371e-10
-2.2072e-11
1.68623e-12
6.51596e-10
-2.55115e-11
-7.31568e-12
-1.74941e-12
-1.16647e-11
6.02952e-10
9.0581e-13
-1.36713e-11
6.41057e-10
-4.03444e-12
-1.48981e-10
5.02333e-10
-4.9456e-11
9.0969e-11
5.05146e-10
-6.08047e-11
-2.41162e-10
-4.63993e-11
4.32776e-10
-4.98244e-11
2.39214e-11
4.49346e-10
-5.55697e-11
-9.30386e-11
-1.61638e-11
3.65404e-10
-4.35557e-11
7.57921e-12
3.85987e-10
-4.8219e-11
-3.65154e-11
-6.32509e-12
3.21776e-10
-2.82967e-11
2.81856e-12
3.42401e-10
-3.1782e-11
-1.53045e-11
-2.81269e-12
2.97631e-10
-1.63015e-11
1.21749e-12
3.1756e-10
-1.86696e-11
-7.07318e-12
-1.39162e-12
2.85288e-10
-8.92604e-12
5.85827e-13
3.0469e-10
-1.04518e-11
-3.59172e-12
-7.52392e-13
-4.96326e-12
2.79037e-10
3.09529e-13
-5.90354e-12
2.98151e-10
-1.97635e-12
-5.91103e-11
2.11503e-10
-9.50484e-12
3.37966e-11
2.13944e-10
-1.25069e-11
-9.90979e-11
-1.85664e-11
1.81001e-10
-9.40166e-12
8.80707e-12
1.89303e-10
-1.05542e-11
-3.89958e-11
-6.316e-12
1.50146e-10
-8.89101e-12
2.56383e-12
1.59983e-10
-9.8587e-12
-1.53221e-11
-2.38874e-12
1.29388e-10
-5.95167e-12
8.47227e-13
1.38951e-10
-6.71052e-12
-6.38666e-12
-1.03194e-12
1.17337e-10
-3.53946e-12
3.28399e-13
1.26289e-10
-4.09926e-12
-2.93292e-12
-5.03034e-13
1.10833e-10
-2.0596e-12
1.47578e-13
1.19289e-10
-2.46647e-12
-1.48409e-12
-2.71582e-13
-1.35002e-12
1.07417e-10
7.68764e-14
-1.6362e-12
1.15566e-10
-8.16204e-13
-9.91287e-12
4.8313e-11
3.59786e-12
4.98462e-11
-1.91775e-11
-3.64604e-12
4.12681e-11
1.28959e-12
4.41623e-11
-8.51648e-12
-1.27646e-12
3.32999e-11
3.54387e-13
3.65018e-11
-3.47399e-12
-4.78623e-13
2.77332e-11
9.40423e-14
3.07785e-11
-1.46544e-12
-2.02387e-13
2.43722e-11
2.49116e-14
2.71516e-11
-6.738e-13
-9.64812e-14
2.24029e-11
6.27837e-15
2.49274e-11
-3.3974e-13
-5.22437e-14
2.11044e-11
2.94707e-15
2.34281e-11
-1.868e-13
-1.2117e-14
1.37434e-11
-6.43111e-13
9.26755e-14
8.30869e-12
-4.31701e-13
1.75384e-14
4.92525e-15
1.41778e-11
-4.99153e-13
6.34301e-14
8.64311e-12
-3.60253e-13
2.98515e-14
1.58981e-14
1.46367e-11
-5.29738e-13
6.03005e-14
9.00695e-12