/*--------------------------------*- C++ -*----------------------------------*\
| =========                 |                                                 |
| \\      /  F ield         | OpenFOAM: The Open Source CFD Toolbox           |
|  \\    /   O peration     | Version:  2206                                  |
|   \\  /    A nd           | Website:  www.openfoam.com                      |
|    \\/     M anipulation  |                                                 |
\*---------------------------------------------------------------------------*/
FoamFile
{
    version     2.0;
    format      ascii;
    arch        "LSB;label=32;scalar=64";
    class       volVectorField;
    location    "460";
    object      U;
}
// * * * * * * * * * * * * * * * * * * * * * * * * * * * * * * * * * * * * * //

dimensions      [0 1 -1 0 0 0 0];

internalField   nonuniform List<vector> 
50904
(
(-0.119877 0.467101 1.28926e-05)
(-0.117157 0.458608 1.39258e-05)
(-0.109624 0.464928 -1.20115e-05)
(-0.107278 0.457259 -1.19547e-05)
(-0.119202 0.466484 8.13819e-06)
(-0.11628 0.458378 1.13812e-05)
(-0.108297 0.462425 -2.45287e-05)
(-0.105556 0.455185 -2.44659e-05)
(-0.118337 0.465603 1.27948e-05)
(-0.115159 0.457976 1.88011e-05)
(-0.10668 0.4594 -5.51019e-05)
(-0.103477 0.452698 -5.62033e-05)
(-0.117233 0.464348 2.38281e-05)
(-0.113735 0.457312 3.2841e-05)
(-0.104725 0.455778 -0.000105429)
(-0.100995 0.449748 -0.000109267)
(-0.115829 0.462569 4.52598e-05)
(-0.111936 0.456254 5.71344e-05)
(-0.102382 0.451471 -0.000181227)
(-0.0980622 0.446273 -0.000189256)
(-0.114058 0.460056 9.00152e-05)
(-0.109679 0.454619 0.000103552)
(-0.0995959 0.446369 -0.000290197)
(-0.0946299 0.442196 -0.000303247)
(-0.11182 0.456517 0.000178742)
(-0.106854 0.452146 0.000190981)
(-0.0962783 0.440296 -0.000436529)
(-0.0906176 0.437376 -0.000453698)
(-0.108995 0.451551 0.000368766)
(-0.103337 0.448472 0.000375052)
(-0.0923344 0.433007 -0.000627153)
(-0.0859456 0.431608 -0.000643832)
(-0.105531 0.44471 0.000755912)
(-0.0990852 0.443173 0.000748428)
(-0.0877181 0.424227 -0.000843643)
(-0.0805819 0.424639 -0.000848112)
(-0.101402 0.43561 0.00142307)
(-0.0941217 0.435884 0.00138804)
(-0.0823808 0.413603 -0.000994782)
(-0.0745195 0.416154 -0.00096472)
(-0.0965855 0.423756 0.00255661)
(-0.0884513 0.426133 0.00247174)
(-0.0762924 0.400696 -0.00096959)
(-0.067735 0.405735 -0.000878166)
(-0.0910159 0.408468 0.00435875)
(-0.0820196 0.41325 0.00420083)
(-0.0693794 0.384821 -0.00055922)
(-0.0601283 0.392711 -0.000392105)
(-0.0847896 0.389463 0.00689447)
(-0.0749796 0.396924 0.00662048)
(-0.0617546 0.365572 0.00044198)
(-0.0518406 0.376699 0.000670075)
(-0.0780732 0.366697 0.00996491)
(-0.0674897 0.377017 0.00949746)
(-0.0535521 0.342647 0.00203375)
(-0.042978 0.357329 0.00225495)
(-0.0714739 0.340946 0.0131076)
(-0.0601707 0.354155 0.0123436)
(-0.0453186 0.316411 0.00373003)
(-0.0339781 0.334781 0.00380172)
(-0.0671282 0.318046 0.0151206)
(-0.055247 0.333405 0.0140334)
(-0.0390751 0.292037 0.0045557)
(-0.0268753 0.313329 0.00435199)
(-0.0658449 0.301544 0.0157056)
(-0.0535244 0.318004 0.0143959)
(-0.035709 0.273146 0.00438085)
(-0.0225803 0.296161 0.0038622)
(-0.067657 0.292216 0.015639)
(-0.0550397 0.308754 0.0142403)
(-0.0352245 0.260582 0.00365484)
(-0.0211046 0.284091 0.00281465)
(-0.0722257 0.290633 0.0154913)
(-0.0595213 0.306329 0.0141414)
(-0.0373371 0.254901 0.00300548)
(-0.0222158 0.277713 0.00187252)
(-0.0793495 0.296834 0.0146449)
(-0.0667705 0.310865 0.0135889)
(-0.0421584 0.256745 0.00219254)
(-0.0260801 0.277604 0.000907442)
(-0.0891429 0.310795 0.0136338)
(-0.07689 0.322335 0.0129775)
(-0.050047 0.267196 0.00185718)
(-0.0331744 0.28475 0.000550081)
(-0.101676 0.332143 0.0119653)
(-0.0900202 0.340371 0.0118238)
(-0.061555 0.28754 0.00164103)
(-0.0442829 0.30046 0.000590365)
(-0.115148 0.357225 0.0100882)
(-0.104365 0.361834 0.0103545)
(-0.0750832 0.314883 0.00170837)
(-0.0581394 0.32279 0.00115758)
(-0.126907 0.380071 0.00778366)
(-0.117082 0.38145 0.00824653)
(-0.0878167 0.342207 0.00152111)
(-0.071835 0.345825 0.00145809)
(-0.136779 0.399579 0.00556303)
(-0.127884 0.398148 0.00605363)
(-0.0991876 0.367212 0.00113427)
(-0.0845672 0.367308 0.0013783)
(-0.1449 0.415636 0.00376301)
(-0.136824 0.411807 0.00418795)
(-0.108973 0.388921 0.000747098)
(-0.0958828 0.386174 0.00109997)
(-0.151543 0.428719 0.002438)
(-0.14416 0.42286 0.00276822)
(-0.117253 0.407365 0.000448941)
(-0.105702 0.402325 0.00078542)
(-0.156994 0.439431 0.00151847)
(-0.15019 0.431851 0.00175502)
(-0.124254 0.423033 0.000251106)
(-0.114158 0.416102 0.000517376)
(-0.161439 0.448063 0.000912066)
(-0.155084 0.439059 0.00107258)
(-0.130053 0.436066 0.000136015)
(-0.121251 0.427596 0.000323344)
(-0.165007 0.454939 0.000529366)
(-0.159002 0.444774 0.000633574)
(-0.134759 0.446684 7.40365e-05)
(-0.127066 0.436993 0.000194829)
(-0.167866 0.46043 0.000294686)
(-0.162131 0.449323 0.000359818)
(-0.13856 0.455308 4.28845e-05)
(-0.131796 0.444644 0.000114916)
(-0.170163 0.464813 0.000154991)
(-0.164634 0.452945 0.000194021)
(-0.141622 0.462289 2.54933e-05)
(-0.135625 0.45085 6.50093e-05)
(-0.172 0.468299 7.52834e-05)
(-0.166628 0.455822 9.75406e-05)
(-0.144076 0.467899 1.55865e-05)
(-0.138703 0.455845 3.51243e-05)
(-0.173464 0.471083 3.20496e-05)
(-0.168216 0.458115 4.37101e-05)
(-0.146041 0.472412 9.32701e-06)
(-0.141175 0.459869 1.75279e-05)
(-0.174635 0.473312 1.07111e-05)
(-0.169482 0.459949 1.59284e-05)
(-0.147613 0.476044 4.52112e-06)
(-0.143156 0.46311 7.08293e-06)
(-0.175568 0.47509 1.9573e-06)
(-0.170489 0.461412 3.42474e-06)
(-0.148867 0.478956 -1.11768e-08)
(-0.144739 0.46571 3.6151e-07)
(-0.100938 0.464411 5.46762e-06)
(-0.0991945 0.457517 2.08285e-06)
(-0.094641 0.463668 3.3821e-06)
(-0.0931967 0.457208 -1.16695e-07)
(-0.0924912 0.463587 7.96697e-06)
(-0.0910657 0.457295 4.71859e-06)
(-0.0913504 0.463486 7.28646e-06)
(-0.0899477 0.457283 3.86061e-06)
(-0.0906719 0.463424 1.06526e-05)
(-0.0892877 0.45728 6.50127e-06)
(-0.0902127 0.463369 1.19104e-05)
(-0.0888437 0.457266 6.94487e-06)
(-0.0898617 0.463318 1.14638e-05)
(-0.0885072 0.457252 7.96604e-06)
(-0.10007 0.463159 -2.89607e-05)
(-0.098049 0.456716 -3.8931e-05)
(-0.0941722 0.462307 -2.36287e-05)
(-0.0925228 0.456257 -3.21034e-05)
(-0.0922584 0.462336 -9.30776e-06)
(-0.0907266 0.456444 -1.9005e-05)
(-0.0912359 0.46217 6.31088e-06)
(-0.0897984 0.456357 -5.04669e-06)
(-0.0906308 0.462048 2.73474e-05)
(-0.0892595 0.456287 1.39101e-05)
(-0.0902208 0.461932 4.47904e-05)
(-0.0888982 0.456205 2.96821e-05)
(-0.0899072 0.461823 5.7253e-05)
(-0.0886255 0.456128 4.37005e-05)
(-0.0989528 0.461459 -0.000114886)
(-0.0965987 0.45558 -0.000130224)
(-0.0935334 0.460448 -8.42012e-05)
(-0.0916403 0.454932 -9.79974e-05)
(-0.0918864 0.460524 -3.37171e-05)
(-0.0902218 0.455161 -5.48138e-05)
(-0.0910039 0.460269 2.96433e-05)
(-0.0895128 0.454975 2.11081e-06)
(-0.0904848 0.460061 9.55024e-05)
(-0.0891131 0.454814 6.24279e-05)
(-0.0901338 0.459872 0.00015011)
(-0.0888493 0.454654 0.000112896)
(-0.0898664 0.4597 0.000191703)
(-0.0886531 0.454509 0.00015413)
(-0.0975184 0.459154 -0.000285835)
(-0.0947697 0.453977 -0.000304005)
(-0.0926598 0.457901 -0.000195164)
(-0.0904808 0.453082 -0.000214489)
(-0.0913092 0.457931 -6.98846e-05)
(-0.0894794 0.453265 -0.000109564)
(-0.0905892 0.457548 8.67684e-05)
(-0.0890186 0.452947 3.10002e-05)
(-0.0901705 0.45723 0.000231256)
(-0.0887776 0.45267 0.000163241)
(-0.0898902 0.456956 0.000346612)
(-0.088627 0.452421 0.000269833)
(-0.089679 0.456714 0.000434567)
(-0.0885209 0.452203 0.000353838)
(-0.0956797 0.456032 -0.000573708)
(-0.0924712 0.451726 -0.000588912)
(-0.0914604 0.454401 -0.000368528)
(-0.0889492 0.450492 -0.000393171)
(-0.0904331 0.454259 -0.000107268)
(-0.0883984 0.450514 -0.000174836)
(-0.0898983 0.453699 0.000199983)
(-0.0882129 0.450019 9.95173e-05)
(-0.0895956 0.453242 0.000464497)
(-0.0881503 0.449601 0.000340294)
(-0.0893984 0.452867 0.000668386)
(-0.0881287 0.449249 0.000527733)
(-0.0892543 0.45255 0.0008219)
(-0.0881265 0.448952 0.00067178)
(-0.0933275 0.451816 -0.00100655)
(-0.0895929 0.448591 -0.00100765)
(-0.0898103 0.449593 -0.000607513)
(-0.0869163 0.446868 -0.000637219)
(-0.0891286 0.44912 -0.000117974)
(-0.0868401 0.446587 -0.000225745)
(-0.0888006 0.44832 0.000409554)
(-0.0869539 0.445863 0.000242183)
(-0.0886297 0.44769 0.000841527)
(-0.0870882 0.445275 0.00063238)
(-0.0885279 0.447198 0.00116587)
(-0.0872106 0.444806 0.000928285)
(-0.0884614 0.446795 0.00140661)
(-0.0873255 0.444421 0.00115114)
(-0.0903195 0.44614 -0.00159911)
(-0.0859918 0.444256 -0.00156718)
(-0.0875416 0.443014 -0.000895123)
(-0.0842073 0.441822 -0.000929992)
(-0.087222 0.442023 -5.1255e-05)
(-0.084621 0.441075 -0.000215206)
(-0.0871204 0.440908 0.0007792)
(-0.0850548 0.440059 0.000516772)
(-0.0870967 0.440068 0.00143081)
(-0.0854038 0.439271 0.00110045)
(-0.0871019 0.439436 0.00190915)
(-0.0856846 0.438668 0.00153291)
(-0.087123 0.438937 0.00225973)
(-0.0859288 0.438186 0.00185323)
(-0.0864893 0.438548 -0.00231872)
(-0.0815073 0.438326 -0.00222395)
(-0.0844526 0.43409 -0.00116079)
(-0.0806128 0.434865 -0.0012044)
(-0.0845028 0.432366 0.000199148)
(-0.0815212 0.433464 -4.40314e-05)
(-0.0846439 0.430849 0.00143153)
(-0.0822931 0.432085 0.00103667)
(-0.0847813 0.42976 0.00236015)
(-0.0828744 0.431065 0.00186247)
(-0.0849045 0.428968 0.00302525)
(-0.0833281 0.43031 0.00245895)
(-0.0850223 0.428362 0.00350472)
(-0.0837138 0.429724 0.00289225)
(-0.0816862 0.428539 -0.00304914)
(-0.0760004 0.430365 -0.00285528)
(-0.080328 0.422224 -0.00125022)
(-0.0759092 0.425488 -0.00131835)
(-0.0807412 0.419538 0.000800247)
(-0.0773004 0.423238 0.000436948)
(-0.0811346 0.417524 0.00254029)
(-0.0784235 0.421419 0.00195514)
(-0.0814427 0.416141 0.00380654)
(-0.0792522 0.420134 0.00307298)
(-0.0816913 0.415165 0.00469292)
(-0.0798911 0.41921 0.00386148)
(-0.0819115 0.41444 0.00531916)
(-0.0804283 0.418511 0.00442151)
(-0.0757998 0.415687 -0.00359162)
(-0.0694011 0.420026 -0.00325906)
(-0.0749879 0.406932 -0.000904793)
(-0.0699339 0.413292 -0.001024)
(-0.0757444 0.403079 0.00197799)
(-0.0717823 0.410013 0.00144583)
(-0.0763964 0.400499 0.00430101)
(-0.0732683 0.407695 0.00346529)
(-0.0768864 0.398809 0.00593727)
(-0.0743625 0.406134 0.00490109)
(-0.0772692 0.397653 0.00705488)
(-0.0752015 0.405048 0.00588784)
(-0.0775986 0.396822 0.0078261)
(-0.0759006 0.404248 0.00657042)
(-0.0687807 0.39961 -0.00362184)
(-0.0616855 0.406987 -0.00314318)
(-0.0683706 0.387976 0.000270455)
(-0.0626481 0.398054 2.34456e-05)
(-0.0694626 0.382864 0.00410272)
(-0.0649522 0.393655 0.00330515)
(-0.0703832 0.379699 0.00705609)
(-0.0668273 0.390814 0.00586937)
(-0.0710644 0.377709 0.00907311)
(-0.0682103 0.388981 0.00763544)
(-0.0715867 0.376386 0.0104135)
(-0.0692639 0.38774 0.00881541)
(-0.0720269 0.375465 0.0113104)
(-0.070132 0.386852 0.00960519)
(-0.0606118 0.379963 -0.0027964)
(-0.0528185 0.390893 -0.00220264)
(-0.0605268 0.365392 0.00259485)
(-0.0540922 0.379701 0.00211389)
(-0.0619977 0.359159 0.00735123)
(-0.05691 0.374266 0.00618534)
(-0.0632291 0.355536 0.0108663)
(-0.0592386 0.370991 0.0092396)
(-0.0641309 0.353352 0.013196)
(-0.060956 0.368965 0.0112813)
(-0.0648092 0.351942 0.0146999)
(-0.0622505 0.367634 0.0126063)
(-0.065368 0.350996 0.0156712)
(-0.063299 0.366711 0.0134609)
(-0.0515759 0.356887 -0.000825682)
(-0.0431286 0.37188 -0.000234818)
(-0.0519005 0.339878 0.00629923)
(-0.0447607 0.358753 0.00539884)
(-0.0538697 0.332947 0.0117992)
(-0.0482354 0.352571 0.0101145)
(-0.0554858 0.329142 0.0156733)
(-0.0511163 0.349048 0.0135014)
(-0.0566465 0.326939 0.0181556)
(-0.053222 0.346952 0.0156965)
(-0.0574965 0.325556 0.0197047)
(-0.0547793 0.345613 0.0170764)
(-0.0581756 0.324669 0.0206639)
(-0.056009 0.344715 0.0179303)
(-0.0422105 0.3311 0.00206197)
(-0.0331053 0.350376 0.00249962)
(-0.0431255 0.31289 0.0106861)
(-0.0352925 0.33611 0.00927896)
(-0.0457988 0.305758 0.0165997)
(-0.0396578 0.329515 0.0143589)
(-0.0479218 0.302049 0.020548)
(-0.0432342 0.325927 0.0178387)
(-0.0494054 0.3 0.0229851)
(-0.0458019 0.323881 0.0200208)
(-0.0504563 0.298763 0.0244506)
(-0.0476528 0.322619 0.0213478)
(-0.051255 0.297982 0.0253124)
(-0.0490603 0.321778 0.0221312)
(-0.0333456 0.30363 0.00520883)
(-0.023442 0.327111 0.00529779)
(-0.0350936 0.285994 0.0143205)
(-0.026488 0.31288 0.0124842)
(-0.0386884 0.279209 0.0201607)
(-0.032005 0.306231 0.0175293)
(-0.0414309 0.275878 0.0238546)
(-0.0364187 0.302744 0.0208326)
(-0.04328 0.274125 0.0260448)
(-0.0395055 0.300824 0.0228354)
(-0.044537 0.273105 0.0273104)
(-0.0416592 0.299675 0.0240123)
(-0.0454479 0.272493 0.0280201)
(-0.0432367 0.298936 0.0246792)
(-0.0270237 0.27957 0.00706524)
(-0.0161629 0.306148 0.00672337)
(-0.0295444 0.263503 0.015709)
(-0.0200981 0.292571 0.0136062)
(-0.0339349 0.257363 0.0211015)
(-0.026661 0.28606 0.018329)
(-0.0371643 0.254494 0.024367)
(-0.0317753 0.282724 0.0213272)
(-0.0392715 0.253049 0.0262431)
(-0.0352601 0.280937 0.023105)
(-0.0406518 0.252236 0.027296)
(-0.0376174 0.279891 0.0241269)
(-0.0416091 0.251773 0.0278679)
(-0.0392838 0.279247 0.0246926)
(-0.0237486 0.261343 0.00715879)
(-0.0118068 0.289556 0.00645437)
(-0.0266634 0.2469 0.0148401)
(-0.016337 0.276638 0.0126765)
(-0.0315142 0.241435 0.0196888)
(-0.0236205 0.270321 0.017006)
(-0.0349918 0.238989 0.0225532)
(-0.02918 0.26714 0.0197091)
(-0.0372031 0.237801 0.0241686)
(-0.0328865 0.265469 0.0212918)
(-0.0386081 0.237149 0.0250617)
(-0.0353282 0.264507 0.0221914)
(-0.0395461 0.236789 0.0255418)
(-0.0370006 0.263933 0.0226866)
(-0.0232313 0.248993 0.00606181)
(-0.0101278 0.277427 0.00505448)
(-0.0260441 0.235776 0.0124542)
(-0.0148326 0.264838 0.0103617)
(-0.0309456 0.230845 0.0167465)
(-0.0224205 0.258664 0.0143007)
(-0.0344135 0.228707 0.0193087)
(-0.028132 0.255596 0.0167943)
(-0.0365796 0.227697 0.0207624)
(-0.0318777 0.254008 0.0182652)
(-0.0379248 0.227152 0.0215715)
(-0.0342941 0.253102 0.0191063)
(-0.0387943 0.226847 0.0220118)
(-0.0359055 0.252569 0.0195747)
(-0.0252936 0.24286 0.00472579)
(-0.011024 0.270067 0.0034265)
(-0.027555 0.230149 0.00968886)
(-0.015513 0.257245 0.00765585)
(-0.032041 0.22558 0.0132482)
(-0.0228847 0.251184 0.0110268)
(-0.0352129 0.223654 0.0154723)
(-0.0283861 0.248235 0.0132502)
(-0.0371826 0.222761 0.0167739)
(-0.0319657 0.246728 0.0145966)
(-0.0383972 0.222284 0.0175162)
(-0.0342569 0.245876 0.0153832)
(-0.0391715 0.222004 0.0179291)
(-0.0357678 0.245363 0.0158311)
(-0.029989 0.243878 0.0039026)
(-0.0146363 0.268308 0.00236784)
(-0.0312392 0.230895 0.00740159)
(-0.0184513 0.254659 0.00543637)
(-0.0349052 0.226404 0.0100629)
(-0.0251189 0.248575 0.00806519)
(-0.0375556 0.224553 0.0118226)
(-0.0301041 0.245694 0.00988428)
(-0.039215 0.223705 0.0128994)
(-0.0333518 0.244239 0.0110256)
(-0.0402427 0.223252 0.0135402)
(-0.0354349 0.243416 0.0117165)
(-0.0408998 0.222985 0.0139166)
(-0.0368138 0.242921 0.0121297)
(-0.0375386 0.25348 0.00424985)
(-0.0212745 0.273546 0.0025864)
(-0.0372832 0.239719 0.00640548)
(-0.0238089 0.258669 0.00449723)
(-0.0398572 0.234971 0.00799936)
(-0.02939 0.252312 0.00617803)
(-0.0418504 0.233031 0.00912751)
(-0.033652 0.249369 0.00742064)
(-0.0431281 0.232144 0.0098615)
(-0.0364542 0.247899 0.00824183)
(-0.0439275 0.231672 0.0103229)
(-0.0382631 0.247071 0.00876232)
(-0.0444414 0.231392 0.0106111)
(-0.039468 0.246573 0.00909043)
(-0.0483231 0.273631 0.00603077)
(-0.0314878 0.287872 0.00449619)
(-0.046319 0.25921 0.00733865)
(-0.0322921 0.271832 0.00557157)
(-0.0476671 0.254045 0.00777633)
(-0.0365329 0.265013 0.00614469)
(-0.0489226 0.25191 0.00804929)
(-0.0399279 0.261889 0.00656076)
(-0.0497658 0.250948 0.0082575)
(-0.0421895 0.260357 0.00686621)
(-0.0502989 0.250453 0.0084162)
(-0.0436505 0.259516 0.00708457)
(-0.0506216 0.2501 0.00853152)
(-0.0446058 0.25897 0.00723772)
(-0.0611947 0.302899 0.00783814)
(-0.0444473 0.310967 0.00682013)
(-0.0577426 0.289313 0.00946599)
(-0.0435641 0.295122 0.00808262)
(-0.0580002 0.284146 0.00924894)
(-0.0464606 0.288166 0.00792971)
(-0.058567 0.28192 0.00874812)
(-0.0489634 0.284917 0.00754275)
(-0.058994 0.28091 0.00838173)
(-0.0506585 0.283333 0.00725977)
(-0.0592667 0.280396 0.00816099)
(-0.0517477 0.28248 0.00708998)
(-0.0594161 0.280036 0.00803418)
(-0.0524422 0.28193 0.00699329)
(-0.0735324 0.333515 0.0081707)
(-0.0574882 0.336515 0.00779113)
(-0.0692107 0.322774 0.01079)
(-0.0553833 0.322946 0.0099991)
(-0.0687195 0.31855 0.0107259)
(-0.0572198 0.31676 0.00989718)
(-0.0687708 0.31661 0.0098775)
(-0.058973 0.313733 0.0090859)
(-0.0688773 0.315715 0.00913881)
(-0.0601851 0.312241 0.00838251)
(-0.0689498 0.31526 0.00863683)
(-0.0609609 0.311443 0.00790158)
(-0.0689727 0.314953 0.00831789)
(-0.0614451 0.310942 0.00759266)
(-0.0846043 0.361827 0.00712965)
(-0.0697045 0.360945 0.0072385)
(-0.079744 0.355027 0.0104543)
(-0.0666924 0.35104 0.0102569)
(-0.0787742 0.352597 0.0109943)
(-0.0677455 0.346572 0.0107318)
(-0.0784643 0.351371 0.0101907)
(-0.0689099 0.344227 0.00990978)
(-0.0783396 0.3508 0.00932534)
(-0.069735 0.34305 0.00903271)
(-0.0782674 0.350511 0.00868813)
(-0.0702609 0.342418 0.00838319)
(-0.0782019 0.350315 0.00826468)
(-0.0705821 0.342028 0.00794674)
(-0.0940809 0.386094 0.00547103)
(-0.0805782 0.38231 0.00582079)
(-0.0887486 0.383072 0.00882051)
(-0.076762 0.376245 0.00902065)
(-0.0874437 0.382756 0.00993641)
(-0.0772081 0.373994 0.0101116)
(-0.086875 0.382488 0.00938149)
(-0.0779117 0.372665 0.00952324)
(-0.0865821 0.382374 0.00857098)
(-0.0784306 0.371978 0.00867333)
(-0.0864053 0.382321 0.00792435)
(-0.0787595 0.371603 0.00799054)
(-0.0862777 0.382269 0.0074788)
(-0.0789543 0.371368 0.00751459)
(-0.102036 0.40626 0.00382738)
(-0.0900297 0.400293 0.0042235)
(-0.0961397 0.406078 0.00668637)
(-0.0853625 0.397361 0.00705022)
(-0.0945277 0.407634 0.00808606)
(-0.0852526 0.397227 0.00848419)
(-0.0937486 0.408308 0.00781613)
(-0.0855639 0.396978 0.00820146)
(-0.093322 0.408658 0.00715142)
(-0.0858271 0.396831 0.00749874)
(-0.0930636 0.408845 0.00657155)
(-0.085994 0.396739 0.00687883)
(-0.0928892 0.408933 0.00615834)
(-0.0860874 0.39667 0.00643073)
(-0.108717 0.423024 0.00248108)
(-0.0981898 0.415334 0.00282347)
(-0.102128 0.424589 0.00463647)
(-0.0925833 0.414535 0.00500987)
(-0.100169 0.427467 0.0060069)
(-0.0918893 0.416023 0.00645408)
(-0.0991908 0.428897 0.00597095)
(-0.0918333 0.416709 0.00643124)
(-0.0986436 0.429625 0.00547897)
(-0.0918656 0.417038 0.00591063)
(-0.0983136 0.430005 0.00500005)
(-0.0918895 0.417196 0.00539393)
(-0.0980986 0.430202 0.00464673)
(-0.0918948 0.417268 0.00500618)
(-0.114215 0.436753 0.00151282)
(-0.105058 0.427712 0.00176817)
(-0.106874 0.439178 0.00298781)
(-0.0985062 0.428189 0.00329355)
(-0.104518 0.442746 0.00412063)
(-0.097195 0.430671 0.00451256)
(-0.10334 0.444661 0.00423168)
(-0.0967836 0.432028 0.00465728)
(-0.102679 0.44564 0.0039043)
(-0.0966021 0.432711 0.00431629)
(-0.102284 0.446146 0.00353594)
(-0.0964972 0.433053 0.00391966)
(-0.102032 0.44641 0.0032525)
(-0.0964248 0.433227 0.00360799)
(-0.11867 0.44784 0.000876181)
(-0.110729 0.437769 0.00104749)
(-0.11059 0.450564 0.00181005)
(-0.103302 0.438949 0.00202596)
(-0.107809 0.454291 0.00263416)
(-0.101367 0.441864 0.00292621)
(-0.106428 0.456425 0.00280347)
(-0.100611 0.44361 0.00313636)
(-0.105658 0.45753 0.0026114)
(-0.100232 0.444515 0.00294181)
(-0.105202 0.458095 0.00234577)
(-0.10001 0.44497 0.0026559)
(-0.104917 0.458389 0.00212984)
(-0.0998677 0.445205 0.00241731)
(-0.12227 0.456808 0.000480465)
(-0.115377 0.445944 0.000585858)
(-0.11351 0.459522 0.00102849)
(-0.107173 0.447484 0.00116531)
(-0.110296 0.463036 0.00156664)
(-0.104628 0.450413 0.00176043)
(-0.108708 0.465161 0.00173046)
(-0.103539 0.452288 0.00196139)
(-0.107835 0.466284 0.00163905)
(-0.102976 0.453291 0.00187432)
(-0.107322 0.466855 0.00146454)
(-0.102648 0.453796 0.00168687)
(-0.107007 0.46715 0.00131121)
(-0.102444 0.454057 0.00151668)
(-0.125168 0.46406 0.000245774)
(-0.119159 0.452587 0.000305116)
(-0.115811 0.466621 0.000540191)
(-0.11029 0.454301 0.00061771)
(-0.112182 0.469705 0.000855874)
(-0.107178 0.456985 0.000970357)
(-0.110389 0.471649 0.000980257)
(-0.10577 0.458782 0.00112265)
(-0.109417 0.472708 0.000951898)
(-0.105037 0.45978 0.00110193)
(-0.108853 0.473247 0.00085197)
(-0.104614 0.460288 0.00099575)
(-0.10851 0.473523 0.000753384)
(-0.104355 0.460548 0.000886085)
(-0.127496 0.469895 0.000113791)
(-0.12222 0.457954 0.00014379)
(-0.11763 0.472262 0.000254202)
(-0.112798 0.45976 0.000292326)
(-0.113622 0.474828 0.000417331)
(-0.109176 0.462072 0.000475742)
(-0.11163 0.476483 0.000494428)
(-0.10747 0.463652 0.000570085)
(-0.110563 0.477416 0.000495851)
(-0.106579 0.464566 0.000579133)
(-0.109952 0.477899 0.000450425)
(-0.106072 0.465041 0.000532668)
(-0.109586 0.478146 0.000397383)
(-0.105766 0.465285 0.000473928)
(-0.129366 0.474598 4.43053e-05)
(-0.124694 0.462294 5.72226e-05)
(-0.119074 0.47677 9.90847e-05)
(-0.114814 0.464149 0.000114342)
(-0.114731 0.478805 0.000168897)
(-0.110746 0.466047 0.000193088)
(-0.112554 0.480119 0.00020654)
(-0.10877 0.467333 0.000239095)
(-0.111396 0.480881 0.000214922)
(-0.107733 0.468099 0.000252695)
(-0.110742 0.481289 0.000202109)
(-0.107151 0.468514 0.000241557)
(-0.110354 0.481501 0.000183257)
(-0.106804 0.468732 0.000221321)
(-0.130865 0.478388 1.20084e-05)
(-0.126686 0.465799 1.62026e-05)
(-0.120222 0.48038 2.59416e-05)
(-0.116432 0.46768 3.00988e-05)
(-0.115591 0.481914 4.71749e-05)
(-0.111984 0.469169 5.40285e-05)
(-0.113248 0.482876 5.97129e-05)
(-0.109768 0.470133 6.93583e-05)
(-0.112002 0.48344 6.47379e-05)
(-0.108598 0.470712 7.67292e-05)
(-0.111307 0.483754 6.47211e-05)
(-0.107946 0.47104 7.85308e-05)
(-0.110901 0.483927 6.47241e-05)
(-0.107565 0.471224 7.93572e-05)
(-0.132063 0.481429 3.75203e-07)
(-0.128282 0.468617 9.64385e-07)
(-0.121134 0.483265 7.3324e-07)
(-0.117726 0.470512 9.56644e-07)
(-0.11626 0.484351 2.94238e-06)
(-0.11296 0.471628 3.45215e-06)
(-0.113771 0.484979 4.057e-06)
(-0.110537 0.472277 4.90022e-06)
(-0.112446 0.485337 4.42588e-06)
(-0.109248 0.472652 5.68865e-06)
(-0.11171 0.48554 4.53084e-06)
(-0.10853 0.472868 6.25346e-06)
(-0.111285 0.485661 8.23298e-06)
(-0.108115 0.472999 1.07762e-05)
(-0.0895466 0.463275 9.09905e-06)
(-0.088204 0.457232 8.61012e-06)
(-0.0892758 0.463246 6.84673e-06)
(-0.0879465 0.457218 8.49086e-06)
(-0.089046 0.463217 6.79383e-06)
(-0.0877333 0.457203 9.00747e-06)
(-0.0887678 0.463182 8.10525e-06)
(-0.0874784 0.457184 1.014e-05)
(-0.0882876 0.463126 8.56189e-06)
(-0.0870388 0.457155 1.06942e-05)
(-0.0871444 0.463035 6.42391e-06)
(-0.0859697 0.457118 1.01271e-05)
(-0.0896255 0.461718 6.58773e-05)
(-0.0883805 0.456045 5.63348e-05)
(-0.0893826 0.461627 7.09464e-05)
(-0.0881724 0.45597 6.54012e-05)
(-0.0891768 0.461547 7.38643e-05)
(-0.0880004 0.455905 7.08262e-05)
(-0.0889285 0.461451 7.43638e-05)
(-0.0877952 0.455828 7.32786e-05)
(-0.0885019 0.461297 6.74955e-05)
(-0.0874413 0.455703 6.92075e-05)
(-0.0874991 0.461015 4.60089e-05)
(-0.0865889 0.455461 5.41303e-05)
(-0.0896277 0.459534 0.000224177)
(-0.0884791 0.454362 0.000189637)
(-0.0894223 0.459386 0.000244305)
(-0.0883327 0.454227 0.000214294)
(-0.0892492 0.459258 0.000253175)
(-0.0882129 0.454114 0.000227082)
(-0.0890416 0.459108 0.000252219)
(-0.088071 0.453983 0.000230756)
(-0.0886866 0.458862 0.00023129)
(-0.087827 0.453765 0.000217744)
(-0.0878598 0.458364 0.000170571)
(-0.0872429 0.453296 0.000171615)
(-0.0894938 0.456487 0.000504757)
(-0.0884316 0.451991 0.000424249)
(-0.0893358 0.456282 0.000549933)
(-0.0883597 0.451796 0.000472728)
(-0.0892042 0.456109 0.000571455)
(-0.0883035 0.451636 0.00049814)
(-0.0890488 0.455909 0.000574518)
(-0.0882397 0.451452 0.000507359)
(-0.0887859 0.455577 0.0005436)
(-0.0881318 0.451145 0.000489259)
(-0.0881808 0.454858 0.000434858)
(-0.0878777 0.450442 0.000406073)
(-0.0891332 0.452258 0.000944961)
(-0.0881355 0.448672 0.000790519)
(-0.0890326 0.451994 0.00102639)
(-0.088151 0.448414 0.000872286)
(-0.0889519 0.451776 0.00106812)
(-0.0881703 0.448206 0.000916218)
(-0.0888608 0.451527 0.00108225)
(-0.0882 0.447971 0.000936)
(-0.0887122 0.451115 0.0010511)
(-0.0882564 0.447578 0.000919676)
(-0.0883828 0.450181 0.000906156)
(-0.0884017 0.446645 0.000809971)
(-0.088415 0.446432 0.00159966)
(-0.0874461 0.444068 0.00133282)
(-0.0883818 0.446104 0.00172977)
(-0.0875614 0.443744 0.00145817)
(-0.0883613 0.445839 0.00180004)
(-0.087668 0.443486 0.00152704)
(-0.088347 0.445541 0.00183266)
(-0.0878071 0.443198 0.00156247)
(-0.0883356 0.44505 0.00181253)
(-0.0880571 0.44272 0.00155505)
(-0.0883406 0.443915 0.00166241)
(-0.0886762 0.441569 0.00144229)
(-0.0871613 0.438496 0.00254018)
(-0.0861733 0.437756 0.00211169)
(-0.0872047 0.438098 0.00273159)
(-0.0864003 0.437361 0.00229013)
(-0.0872534 0.437781 0.00283859)
(-0.0866058 0.43705 0.0023895)
(-0.0873279 0.437432 0.00289676)
(-0.0868702 0.436708 0.00244459)
(-0.0874763 0.436862 0.00289859)
(-0.0873436 0.436145 0.0024516)
(-0.0878751 0.435535 0.00278165)
(-0.0885131 0.434784 0.00236058)
(-0.0851539 0.427838 0.00388474)
(-0.084094 0.429214 0.00323643)
(-0.0852822 0.427363 0.00414474)
(-0.0844441 0.428741 0.00347239)
(-0.0854082 0.42699 0.00429185)
(-0.0847598 0.428375 0.00360294)
(-0.0855825 0.426587 0.00437709)
(-0.0851656 0.427979 0.0036756)
(-0.0859116 0.425933 0.00440284)
(-0.0858925 0.42733 0.00369233)
(-0.0867586 0.424423 0.00434179)
(-0.0876896 0.425774 0.00362782)
(-0.0821422 0.413826 0.00580792)
(-0.0809535 0.417918 0.00485743)
(-0.0823614 0.413269 0.00613853)
(-0.0814363 0.417367 0.0051508)
(-0.0825714 0.41284 0.00632166)
(-0.0818725 0.416947 0.00530714)
(-0.0828556 0.412386 0.00642283)
(-0.0824348 0.416502 0.00538504)
(-0.0833848 0.411659 0.00645075)
(-0.0834449 0.415778 0.00538675)
(-0.0847284 0.409993 0.00641904)
(-0.0859443 0.414057 0.0053073)
(-0.0779329 0.396128 0.00841766)
(-0.0765792 0.403585 0.00708948)
(-0.0782485 0.395499 0.00881041)
(-0.0772036 0.402966 0.00742964)
(-0.0785473 0.395021 0.00902067)
(-0.0777691 0.402501 0.00760111)
(-0.0789479 0.394524 0.00912552)
(-0.0784995 0.402014 0.00766988)
(-0.0796885 0.393734 0.00913188)
(-0.0798149 0.401228 0.00762929)
(-0.081556 0.391937 0.00906695)
(-0.0830727 0.399373 0.00746275)
(-0.0724655 0.374712 0.0119802)
(-0.070968 0.386136 0.0101866)
(-0.0728789 0.374029 0.0124089)
(-0.0717387 0.385465 0.0105507)
(-0.0732681 0.37352 0.0126194)
(-0.0724374 0.384968 0.0107136)
(-0.0737871 0.373002 0.0126909)
(-0.0733416 0.38446 0.01074)
(-0.0747435 0.372189 0.0126088)
(-0.0749735 0.383647 0.0105959)
(-0.0771425 0.370357 0.01236)
(-0.0790197 0.381743 0.0101998)
(-0.0659128 0.350237 0.0163754)
(-0.064296 0.365985 0.014068)
(-0.0664256 0.349547 0.0168053)
(-0.0652156 0.3653 0.0144269)
(-0.0669047 0.34904 0.0169907)
(-0.0660473 0.3648 0.0145603)
(-0.0675394 0.348537 0.0170028)
(-0.0671226 0.364298 0.0145229)
(-0.0687038 0.347756 0.0167888)
(-0.0690644 0.363503 0.0142391)
(-0.0716068 0.346004 0.016228)
(-0.0738815 0.361646 0.0135034)
(-0.0588213 0.323965 0.021336)
(-0.057158 0.344025 0.0185134)
(-0.0594283 0.32332 0.0217193)
(-0.0582178 0.343367 0.0188324)
(-0.0599892 0.322855 0.0218495)
(-0.0591703 0.342892 0.0189159)
(-0.0607257 0.322409 0.0217782)
(-0.0603963 0.342428 0.0188004)
(-0.0620693 0.321722 0.0214017)
(-0.0626079 0.341697 0.0183611)
(-0.0653959 0.320199 0.0204398)
(-0.0680938 0.339999 0.017232)
(-0.052004 0.297435 0.0258735)
(-0.0503574 0.321201 0.0226278)
(-0.0526867 0.29687 0.0261765)
(-0.0515305 0.320591 0.0228847)
(-0.0533142 0.296484 0.0262426)
(-0.0525799 0.320166 0.0229186)
(-0.0541295 0.296133 0.0260937)
(-0.0539221 0.319764 0.0227423)
(-0.055605 0.295599 0.0255792)
(-0.0563348 0.31913 0.0221925)
(-0.0592105 0.294441 0.0242664)
(-0.0622878 0.31768 0.0207699)
(-0.0462628 0.272092 0.0284561)
(-0.0446393 0.298453 0.0250823)
(-0.0469951 0.271646 0.0286682)
(-0.045891 0.297913 0.0252756)
(-0.0476611 0.271353 0.0286811)
(-0.0470021 0.297544 0.0252762)
(-0.0485158 0.271103 0.0284951)
(-0.0484112 0.297201 0.0250815)
(-0.050047 0.270727 0.0279422)
(-0.0509301 0.296657 0.0245202)
(-0.0537058 0.269942 0.0265352)
(-0.0570628 0.295444 0.0230626)
(-0.0424333 0.251483 0.0282043)
(-0.040721 0.27883 0.0250283)
(-0.0431697 0.251143 0.0283565)
(-0.0419947 0.278353 0.0251878)
(-0.0438338 0.250925 0.0283505)
(-0.0431182 0.278027 0.0251872)
(-0.0446782 0.250755 0.02818)
(-0.0445328 0.277729 0.0250228)
(-0.0461784 0.250503 0.0276944)
(-0.0470484 0.277252 0.0245469)
(-0.0496748 0.249994 0.0264648)
(-0.0530743 0.27621 0.0233073)
(-0.0403358 0.23658 0.0258216)
(-0.0384154 0.263566 0.0229845)
(-0.0410406 0.23631 0.0259579)
(-0.0396679 0.263131 0.0231422)
(-0.0416738 0.236142 0.0259703)
(-0.0407687 0.262833 0.023169)
(-0.0424741 0.236023 0.0258595)
(-0.0421477 0.262563 0.0230711)
(-0.0438872 0.235849 0.0255174)
(-0.0445893 0.262126 0.0227462)
(-0.0471054 0.235509 0.0246394)
(-0.0503458 0.261191 0.021881)
(-0.0395197 0.226691 0.0222796)
(-0.0372564 0.252239 0.019871)
(-0.0401692 0.226463 0.0224355)
(-0.0384567 0.25183 0.0200549)
(-0.0407522 0.226324 0.0224919)
(-0.0395096 0.25155 0.0201277)
(-0.0414864 0.226234 0.0224653)
(-0.0408237 0.251298 0.0201128)
(-0.0427773 0.226106 0.0223025)
(-0.043143 0.250889 0.019961)
(-0.04566 0.225861 0.0218493)
(-0.0485376 0.250032 0.0195151)
(-0.0398149 0.221881 0.0182116)
(-0.037032 0.24507 0.0161448)
(-0.0403933 0.221673 0.018402)
(-0.0381558 0.244672 0.0163669)
(-0.0409118 0.22155 0.0185117)
(-0.0391366 0.244404 0.016494)
(-0.0415624 0.221474 0.0185759)
(-0.0403542 0.244166 0.016568)
(-0.0427025 0.221367 0.0185978)
(-0.0424976 0.243776 0.0165956)
(-0.0452182 0.22116 0.0185671)
(-0.047467 0.242973 0.0165674)
(-0.0414498 0.222867 0.0141924)
(-0.0379739 0.242642 0.0124379)
(-0.0419455 0.222666 0.0144024)
(-0.0390023 0.242246 0.0126795)
(-0.0423872 0.222544 0.0145515)
(-0.0398907 0.241984 0.0128438)
(-0.0429377 0.222468 0.0146893)
(-0.040984 0.241753 0.0129865)
(-0.0438986 0.222359 0.0148668)
(-0.0429016 0.24137 0.013159)
(-0.0460073 0.222136 0.0151933)
(-0.0473747 0.240596 0.013475)
(-0.0448761 0.231259 0.0108393)
(-0.04049 0.246292 0.00935231)
(-0.0452712 0.231053 0.0110277)
(-0.0413976 0.245892 0.00957261)
(-0.0456198 0.230923 0.0111781)