/*--------------------------------*- C++ -*----------------------------------*\
| =========                 |                                                 |
| \\      /  F ield         | OpenFOAM: The Open Source CFD Toolbox           |
|  \\    /   O peration     | Version:  2206                                  |
|   \\  /    A nd           | Website:  www.openfoam.com                      |
|    \\/     M anipulation  |                                                 |
\*---------------------------------------------------------------------------*/
FoamFile
{
    version     2.0;
    format      ascii;
    arch        "LSB;label=32;scalar=64";
    class       volVectorField;
    location    "460";
    object      Urel;
}
// * * * * * * * * * * * * * * * * * * * * * * * * * * * * * * * * * * * * * //

dimensions      [0 1 -1 0 0 0 0];

internalField   nonuniform List<vector> 
50904
(
(0.000524348 -0.000237601 1.28926e-05)
(0.000600691 -4.69025e-05 1.39258e-05)
(0.000795093 -0.00114482 -1.20115e-05)
(0.000971393 -0.00093912 -1.19547e-05)
(0.00146684 -0.000857541 8.13819e-06)
(0.00173662 -0.000264455 1.13812e-05)
(0.00234371 -0.00365442 -2.45287e-05)
(0.00290869 -0.00300596 -2.44659e-05)
(0.00266923 -0.00174223 1.27948e-05)
(0.0031842 -0.000650744 1.88011e-05)
(0.00424023 -0.00668771 -5.51019e-05)
(0.00525922 -0.00548391 -5.62033e-05)
(0.00419876 -0.00300189 2.38281e-05)
(0.00502011 -0.00129493 3.2841e-05)
(0.00654777 -0.0103202 -0.000105429)
(0.00808371 -0.0084225 -0.000109267)
(0.00613947 -0.00478675 4.52598e-05)
(0.00733864 -0.00232793 5.71344e-05)
(0.00933543 -0.0146404 -0.000181227)
(0.0114485 -0.0118831 -0.000189256)
(0.00858745 -0.00730716 9.00152e-05)
(0.0102509 -0.00393141 0.000103552)
(0.0126824 -0.019759 -0.000290197)
(0.0154256 -0.015942 -0.000303247)
(0.0116729 -0.0108565 0.000178742)
(0.0138953 -0.00636521 0.000190981)
(0.0166997 -0.0258564 -0.000436529)
(0.0201167 -0.0207418 -0.000453698)
(0.0155448 -0.0158365 0.000368766)
(0.0184251 -0.00999039 0.000375052)
(0.0215057 -0.0331836 -0.000627153)
(0.0256257 -0.0264902 -0.000643832)
(0.0203165 -0.0226947 0.000755912)
(0.0239416 -0.0152273 0.000748428)
(0.0271976 -0.0420146 -0.000843643)
(0.0320331 -0.0334366 -0.000848112)
(0.0260272 -0.0318241 0.00142307)
(0.0304335 -0.0224463 0.00138804)
(0.0338368 -0.0527202 -0.000994782)
(0.0393561 -0.0419083 -0.00096472)
(0.0327519 -0.0437169 0.00255661)
(0.0379415 -0.0321125 0.00247174)
(0.0414867 -0.0657419 -0.00096959)
(0.0476467 -0.0523218 -0.000878166)
(0.0406515 -0.0590647 0.00435875)
(0.046615 -0.0448985 0.00420083)
(0.0502945 -0.0817834 -0.00055922)
(0.057079 -0.0653582 -0.000392105)
(0.0496567 -0.0781685 0.00689447)
(0.0563279 -0.0611258 0.00662048)
(0.0601578 -0.101286 0.00044198)
(0.0675173 -0.0814252 0.000670075)
(0.0596489 -0.1011 0.00996491)
(0.0669577 -0.0809573 0.00949746)
(0.0709487 -0.124587 0.00203375)
(0.078858 -0.100929 0.00225495)
(0.0700501 -0.127157 0.0131076)
(0.0779074 -0.10381 0.0123436)
(0.0821014 -0.151409 0.00373003)
(0.090638 -0.123738 0.00380172)
(0.0782538 -0.150515 0.0151206)
(0.0864992 -0.124661 0.0140334)
(0.0911811 -0.176547 0.0045557)
(0.100429 -0.145589 0.00435199)
(0.0830419 -0.167638 0.0157056)
(0.0915409 -0.140319 0.0143959)
(0.096956 -0.196337 0.00438085)
(0.106996 -0.163294 0.0038622)
(0.0843609 -0.177781 0.015639)
(0.0929766 -0.150012 0.0142403)
(0.0993814 -0.209938 0.00365484)
(0.110288 -0.176044 0.00281465)
(0.0823494 -0.180393 0.0154913)
(0.090924 -0.153098 0.0141414)
(0.0985128 -0.216793 0.00300548)
(0.110351 -0.183249 0.00187252)
(0.0773203 -0.175371 0.0146449)
(0.0856898 -0.149387 0.0135889)
(0.0943993 -0.216245 0.00219254)
(0.107169 -0.184316 0.000907442)
(0.0695447 -0.162625 0.0136338)
(0.0775065 -0.138783 0.0129775)
(0.0871139 -0.207146 0.00185718)
(0.100649 -0.178189 0.000550081)
(0.0593535 -0.142395 0.0119653)
(0.066594 -0.12152 0.0118238)
(0.0765914 -0.188154 0.00164103)
(0.0904609 -0.163487 0.000590365)
(0.0483829 -0.11816 0.0100882)
(0.0546001 -0.100604 0.0103545)
(0.0644401 -0.16197 0.00170837)
(0.0778873 -0.142001 0.00115758)
(0.0388139 -0.0958364 0.00778366)
(0.0439509 -0.0812876 0.00824653)
(0.0530888 -0.135523 0.00152111)
(0.0654896 -0.119584 0.00145809)
(0.030824 -0.0766166 0.00556303)
(0.0349424 -0.0647127 0.00605363)
(0.0430431 -0.111175 0.00113427)
(0.0540104 -0.0985442 0.0013783)
(0.0243182 -0.0606868 0.00376301)
(0.0275461 -0.0510599 0.00418795)
(0.0344859 -0.0899492 0.000747098)
(0.0438603 -0.0799866 0.00109997)
(0.0190404 -0.0476324 0.002438)
(0.0215231 -0.0399456 0.00276822)
(0.0273083 -0.0718629 0.000448941)
(0.0350916 -0.0640504 0.00078542)
(0.0147245 -0.036897 0.00151847)
(0.0165975 -0.0308615 0.00175502)
(0.0212787 -0.0564672 0.000251106)
(0.0275638 -0.0504271 0.000517376)
(0.01124 -0.0282121 0.000912066)
(0.0126312 -0.023548 0.00107258)
(0.0163161 -0.0436359 0.000136015)
(0.0212681 -0.0390384 0.000323344)
(0.00845791 -0.0212687 0.000529366)
(0.00947564 -0.0177258 0.000633574)
(0.0123115 -0.0331663 7.40365e-05)
(0.0161235 -0.0297126 0.000194829)
(0.00623069 -0.0157112 0.000294686)
(0.00696022 -0.0130805 0.000359818)
(0.00908674 -0.0246536 4.28845e-05)
(0.0119444 -0.0221117 0.000114916)
(0.00444724 -0.0112662 0.000154991)
(0.00495672 -0.00937326 0.000194021)
(0.00649459 -0.0177567 2.54933e-05)
(0.00856532 -0.0159408 6.50093e-05)
(0.00302438 -0.00772275 7.52834e-05)
(0.00336471 -0.00642164 9.75406e-05)
(0.00442563 -0.0122092 1.55865e-05)
(0.00585584 -0.0109694 3.51243e-05)
(0.00188651 -0.00489102 3.20496e-05)
(0.00209582 -0.00406703 4.37101e-05)
(0.00276935 -0.00774482 9.32701e-06)
(0.00367977 -0.00696308 1.75279e-05)
(0.000974082 -0.00262417 1.07111e-05)
(0.00108284 -0.00218417 1.59284e-05)
(0.00144213 -0.00415134 4.52112e-06)
(0.0019334 -0.00373608 7.08293e-06)
(0.000246076 -0.000816166 1.9573e-06)
(0.000276424 -0.000682425 3.42474e-06)
(0.000382204 -0.00126987 -1.11768e-08)
(0.00053643 -0.00114716 3.6151e-07)
(0.000524644 -0.00051681 5.46762e-06)
(0.000646351 -0.00029999 2.08285e-06)
(0.00031319 -0.00056232 3.3821e-06)
(0.000405499 -0.000372846 -1.16695e-07)
(0.000187366 -0.000481169 7.96697e-06)
(0.00023127 -0.000297832 4.71859e-06)
(0.000126989 -0.000508596 7.28646e-06)
(0.000135203 -0.000331411 3.86061e-06)
(8.87352e-05 -0.000528874 1.06526e-05)
(7.3406e-05 -0.00035439 6.50127e-06)
(6.44113e-05 -0.000554972 1.19104e-05)
(3.3249e-05 -0.000387014 6.94487e-06)
(4.66384e-05 -0.00058224 1.14638e-05)
(3.32027e-06 -0.000419676 7.96604e-06)
(0.00156782 -0.00177714 -2.89607e-05)
(0.00196325 -0.00109719 -3.8931e-05)
(0.00092018 -0.00193259 -2.36287e-05)
(0.00121496 -0.00132227 -3.21034e-05)
(0.000545372 -0.00174196 -9.30776e-06)
(0.000692545 -0.00114832 -1.9005e-05)
(0.000360061 -0.00183471 6.31088e-06)
(0.00039985 -0.00125749 -5.04669e-06)
(0.000244988 -0.0019152 2.73474e-05)
(0.000213444 -0.0013478 1.39101e-05)
(0.000169765 -0.00200244 4.47904e-05)
(8.88552e-05 -0.00144862 2.96821e-05)
(0.000113906 -0.00208782 5.7253e-05)
(-5.5615e-06 -0.00154439 4.37005e-05)
(0.00290597 -0.00348761 -0.000114886)
(0.00362973 -0.00222838 -0.000130224)
(0.00173327 -0.00380325 -8.42012e-05)
(0.00226842 -0.00264526 -9.79974e-05)
(0.00107528 -0.00356629 -3.37171e-05)
(0.00135143 -0.00243065 -5.48138e-05)
(0.000741602 -0.00374844 2.96433e-05)
(0.000830922 -0.00263957 2.11081e-06)
(0.000536215 -0.00391519 9.55024e-05)
(0.000500891 -0.0028213 6.24279e-05)
(0.000399849 -0.00407562 0.00015011)
(0.000276617 -0.00300036 0.000112896)
(0.000296927 -0.00422413 0.000191703)
(0.000104833 -0.00316426 0.00015413)
(0.00461903 -0.00580583 -0.000285835)
(0.00573139 -0.00382531 -0.000304005)
(0.00282669 -0.00636496 -0.000195164)
(0.00364355 -0.00449272 -0.000214489)
(0.00185164 -0.00617483 -6.98846e-05)
(0.00228817 -0.00432581 -0.000109564)
(0.00134491 -0.0064855 8.67684e-05)
(0.00150859 -0.00466766 3.10002e-05)
(0.00103368 -0.00676258 0.000231256)
(0.00101428 -0.00496592 0.000163241)
(0.000823908 -0.00700823 0.000346612)
(0.00067405 -0.00523429 0.000269833)
(0.000663695 -0.00722692 0.000434567)
(0.000411072 -0.00547137 0.000353838)
(0.00680921 -0.00894448 -0.000573708)
(0.0083738 -0.00606865 -0.000588912)
(0.00430333 -0.00988349 -0.000368528)
(0.00544712 -0.0070795 -0.000393171)
(0.00297893 -0.00986642 -0.000107268)
(0.00361427 -0.00707573 -0.000174836)
(0.00227368 -0.0103547 0.000199983)
(0.00254569 -0.00759576 9.95173e-05)
(0.00183958 -0.0107712 0.000464497)
(0.00186593 -0.00803569 0.000340294)
(0.0015433 -0.0111182 0.000668386)
(0.00139323 -0.00840745 0.000527733)
(0.00131461 -0.0114121 0.0008219)
(0.00102497 -0.00872377 0.00067178)
(0.00960473 -0.0131815 -0.00100655)
(0.0116859 -0.00919398 -0.00100765)
(0.00630311 -0.0147148 -0.000607513)
(0.00782304 -0.0106994 -0.000637219)
(0.00460023 -0.0150301 -0.000117974)
(0.00548171 -0.0110013 -0.000225745)
(0.00367138 -0.0157592 0.000409554)
(0.00409653 -0.0117519 0.000242183)
(0.00309683 -0.0163492 0.000841527)
(0.00321099 -0.0123626 0.00063238)
(0.00270084 -0.0168136 0.00116587)
(0.0025899 -0.0128519 0.000928285)
(0.00239282 -0.0171938 0.00140661)
(0.0021028 -0.0132565 0.00115114)
(0.0131679 -0.0188891 -0.00159911)
(0.0158292 -0.0135212 -0.00156718)
(0.00900808 -0.021329 -0.000895123)
(0.0109594 -0.0157456 -0.000929992)
(0.00690221 -0.0221642 -5.1255e-05)
(0.00808601 -0.0165173 -0.000215206)
(0.00572615 -0.0232095 0.0007792)
(0.00635942 -0.0175619 0.000516772)
(0.00499372 -0.0240103 0.00143081)
(0.00524822 -0.0183739 0.00110045)
(0.00448548 -0.0246152 0.00190915)
(0.00446338 -0.0189979 0.00153291)
(0.0040878 -0.0250918 0.00225973)
(0.00384493 -0.0194999 0.00185323)
(0.0176794 -0.0265354 -0.00231872)
(0.0209793 -0.0194525 -0.00222395)
(0.0126333 -0.030318 -0.00116079)
(0.0150795 -0.0227185 -0.0012044)
(0.0101073 -0.0318908 0.000199148)
(0.0116597 -0.0241507 -4.40314e-05)
(0.00866288 -0.0333407 0.00143153)
(0.00956861 -0.0255619 0.00103667)
(0.00775621 -0.0343922 0.00236015)
(0.00821167 -0.0266079 0.00186247)
(0.00712356 -0.0351582 0.00302525)
(0.00724742 -0.0273851 0.00245895)
(0.00662676 -0.0357426 0.00350472)
(0.00648505 -0.027992 0.00289225)
(0.0233283 -0.0366214 -0.00304914)
(0.0273137 -0.0274213 -0.00285528)
(0.0174248 -0.0422804 -0.00125022)
(0.0204376 -0.0321256 -0.00131835)
(0.0144728 -0.0448231 0.000800247)
(0.0164704 -0.0344164 0.000436948)
(0.012744 -0.0467743 0.00254029)
(0.0139952 -0.0362727 0.00195514)
(0.0116502 -0.0481224 0.00380654)
(0.0123741 -0.0375868 0.00307298)
(0.0108842 -0.0490743 0.00469292)
(0.0112166 -0.0385349 0.00386148)
(0.0102819 -0.0497792 0.00531916)
(0.0102997 -0.0392561 0.00442151)
(0.0302389 -0.0495946 -0.00359162)
(0.0349088 -0.0377906 -0.00325906)
(0.0235788 -0.057723 -0.000904793)
(0.0272081 -0.0443837 -0.001024)
(0.0202088 -0.0614441 0.00197799)
(0.0227075 -0.0477169 0.00144583)
(0.0181831 -0.0639676 0.00430101)
(0.0198305 -0.0500795 0.00346529)
(0.016888 -0.0656265 0.00593727)
(0.0179243 -0.0516738 0.00490109)
(0.0159786 -0.0667609 0.00705488)
(0.0165574 -0.0527866 0.00588784)
(0.015264 -0.0675738 0.0078261)
(0.0154756 -0.0536106 0.00657042)
(0.0384868 -0.0658494 -0.00362184)
(0.0438185 -0.0508894 -0.00314318)
(0.0311765 -0.0769057 0.000270455)
(0.0354485 -0.0597307 2.34456e-05)
(0.0273834 -0.0819045 0.00410272)
(0.0304028 -0.0642043 0.00330515)
(0.0250445 -0.0850232 0.00705609)
(0.0270913 -0.0671009 0.00586937)
(0.0235358 -0.0869882 0.00907311)
(0.0248736 -0.0689736 0.00763544)
(0.0224765 -0.0882937 0.0104135)
(0.0232817 -0.0702454 0.00881541)
(0.021648 -0.0891995 0.0113104)
(0.022028 -0.0711602 0.00960519)
(0.0481468 -0.0857571 -0.0027964)
(0.0541312 -0.0670884 -0.00220264)
(0.0402079 -0.0998243 0.00259485)
(0.0451598 -0.0782595 0.00211389)
(0.03593 -0.105972 0.00735123)
(0.0394929 -0.0837983 0.00618534)
(0.0332266 -0.109564 0.0108663)
(0.0356733 -0.0871445 0.0092396)
(0.0314704 -0.111732 0.013196)
(0.0330941 -0.0892192 0.0112813)
(0.030243 -0.11313 0.0146999)
(0.0312492 -0.0905868 0.0126063)
(0.0292925 -0.114065 0.0156712)
(0.0298119 -0.0915405 0.0134609)
(0.0589271 -0.10923 -0.000825682)
(0.0655063 -0.0862897 -0.000234818)
(0.0502402 -0.125851 0.00629923)
(0.0558543 -0.099498 0.00539884)
(0.0453428 -0.13274 0.0117992)
(0.0494087 -0.105825 0.0101145)
(0.042193 -0.136537 0.0156733)
(0.044975 -0.109442 0.0135014)
(0.0401476 -0.138738 0.0181556)
(0.0419772 -0.111599 0.0156965)
(0.0387352 -0.140118 0.0197047)
(0.0398566 -0.112983 0.0170764)
(0.0376615 -0.141 0.0206639)
(0.0382355 -0.113917 0.0179303)
(0.0703851 -0.135589 0.00206197)
(0.0775327 -0.108101 0.00249962)
(0.0607828 -0.153579 0.0106861)
(0.0670131 -0.122595 0.00927896)
(0.0549867 -0.160736 0.0165997)
(0.059494 -0.129397 0.0143589)
(0.0512315 -0.164472 0.020548)
(0.0542721 -0.133111 0.0178387)
(0.048814 -0.166538 0.0229851)
(0.0507661 -0.135236 0.0200208)
(0.0471778 -0.167784 0.0244506)
(0.0483306 -0.136552 0.0213478)
(0.0459769 -0.168568 0.0253124)
(0.046525 -0.137435 0.0221312)
(0.0816913 -0.163899 0.00520883)
(0.0895042 -0.131841 0.00529779)
(0.0709816 -0.181533 0.0143205)
(0.0778537 -0.146492 0.0124842)
(0.0639803 -0.188436 0.0201607)
(0.068926 -0.153434 0.0175293)
(0.0594625 -0.191844 0.0238546)
(0.0627371 -0.157091 0.0208326)
(0.0566084 -0.193643 0.0260448)
(0.0586472 -0.159113 0.0228354)
(0.0547324 -0.194687 0.0273104)
(0.0558777 -0.160328 0.0240123)
(0.053406 -0.195311 0.0280201)
(0.0538893 -0.161114 0.0246792)
(0.090403 -0.188992 0.00706524)
(0.0990225 -0.153425 0.00672337)
(0.0787138 -0.205279 0.015709)
(0.0862761 -0.167613 0.0136062)
(0.0706313 -0.211637 0.0211015)
(0.0760482 -0.174505 0.018329)
(0.0654838 -0.214639 0.024367)
(0.0690312 -0.178058 0.0213272)
(0.0623026 -0.216159 0.0262431)
(0.0644813 -0.179972 0.023105)
(0.0602732 -0.217014 0.027296)
(0.0614805 -0.181095 0.0241269)
(0.0588911 -0.2175 0.0278679)
(0.0593941 -0.181791 0.0246926)
(0.095694 -0.208339 0.00715879)
(0.105247 -0.170733 0.00645437)
(0.0835231 -0.223172 0.0148401)
(0.091816 -0.184403 0.0126765)
(0.0747438 -0.228936 0.0196888)
(0.0806611 -0.191171 0.017006)
(0.0692306 -0.231558 0.0225532)
(0.0730963 -0.194605 0.0197091)
(0.0658904 -0.232846 0.0241686)
(0.0682764 -0.196421 0.0212918)
(0.0638144 -0.233555 0.0250617)
(0.0651719 -0.19747 0.0221914)
(0.0624478 -0.233945 0.0255418)
(0.0630757 -0.198099 0.0226866)
(0.0978425 -0.221868 0.00606181)
(0.108416 -0.183659 0.00505448)
(0.0858006 -0.235564 0.0124542)
(0.0948346 -0.197074 0.0103617)
(0.0768035 -0.240836 0.0167465)
(0.0832355 -0.203735 0.0143007)
(0.0712176 -0.243174 0.0193087)
(0.0754497 -0.207076 0.0167943)
(0.067886 -0.244298 0.0207624)
(0.0705602 -0.208818 0.0182652)
(0.0658578 -0.244908 0.0215715)
(0.0674711 -0.209815 0.0191063)
(0.0645614 -0.245249 0.0220118)
(0.0654374 -0.210402 0.0195747)
(0.0969796 -0.229229 0.00472579)
(0.108601 -0.191897 0.0034265)
(0.0855932 -0.242414 0.00968886)
(0.0953377 -0.20554 0.00765585)
(0.0769799 -0.247312 0.0132482)
(0.0839361 -0.212077 0.0110268)
(0.0716749 -0.249432 0.0154723)
(0.0763517 -0.215291 0.0132502)
(0.0685345 -0.250435 0.0167739)
(0.0716259 -0.216948 0.0145966)
(0.0666375 -0.250976 0.0175162)
(0.0686636 -0.217887 0.0153832)
(0.065441 -0.251292 0.0179291)
(0.0667347 -0.218453 0.0158311)
(0.0931478 -0.229479 0.0039026)
(0.105747 -0.194605 0.00236784)
(0.0829324 -0.242865 0.00740159)
(0.0933126 -0.209005 0.00543637)
(0.0752109 -0.24763 0.0100629)
(0.082687 -0.215514 0.00806519)
(0.0704627 -0.24964 0.0118226)
(0.075654 -0.218629 0.00988428)
(0.0676487 -0.250579 0.0128994)
(0.0712764 -0.220216 0.0110256)
(0.0659451 -0.251083 0.0135402)
(0.0685287 -0.221116 0.0117165)
(0.0648671 -0.251379 0.0139166)
(0.0667331 -0.221656 0.0121297)
(0.086355 -0.221189 0.00424985)
(0.0997537 -0.19037 0.0025864)
(0.077816 -0.235254 0.00640548)
(0.0887637 -0.205906 0.00449723)
(0.0712633 -0.240207 0.00799936)
(0.0793005 -0.212626 0.00617803)
(0.06721 -0.242266 0.00912751)
(0.073028 -0.215767 0.00742064)
(0.0647954 -0.243219 0.0098615)
(0.0691132 -0.217348 0.00824183)
(0.0633273 -0.243728 0.0103229)
(0.0666468 -0.21824 0.00876232)
(0.0623942 -0.244028 0.0106111)
(0.0650268 -0.218775 0.00909043)
(0.0763808 -0.202405 0.00603077)
(0.0902314 -0.177095 0.00449619)
(0.069675 -0.217061 0.00733865)
(0.081051 -0.193731 0.00557157)
(0.0643887 -0.222389 0.00777633)
(0.0729653 -0.200876 0.00614469)
(0.0610949 -0.224617 0.00804929)
(0.0675797 -0.204175 0.00656076)
(0.0591286 -0.225629 0.0082575)
(0.0642186 -0.205804 0.00686621)
(0.0579366 -0.226149 0.0084162)
(0.0621096 -0.206698 0.00708457)
(0.0572016 -0.226512 0.00853152)
(0.0607463 -0.207273 0.00723772)
(0.0643987 -0.174417 0.00783814)
(0.0780515 -0.154981 0.00682013)
(0.0590862 -0.188246 0.00946599)
(0.0704996 -0.171432 0.00808262)
(0.0548697 -0.193582 0.00924894)
(0.063732 -0.178719 0.00792971)
(0.0522584 -0.195904 0.00874812)
(0.0592295 -0.182146 0.00754275)
(0.0507132 -0.196965 0.00838173)
(0.0564383 -0.183826 0.00725977)
(0.0497923 -0.197504 0.00816099)
(0.0547113 -0.184732 0.00708998)
(0.049244 -0.197874 0.00803418)
(0.0536221 -0.18531 0.00699329)
(0.0529703 -0.144865 0.0081707)
(0.0658274 -0.130235 0.00779113)
(0.0483622 -0.155936 0.01079)
(0.0593309 -0.144486 0.0099991)
(0.0448228 -0.160372 0.0107259)
(0.0535473 -0.15104 0.00989718)
(0.0426938 -0.162431 0.0098775)
(0.0497587 -0.154264 0.0090859)
(0.0414576 -0.163389 0.00913881)
(0.0474378 -0.155863 0.00838251)
(0.0407368 -0.163876 0.00863683)
(0.0460235 -0.156719 0.00790158)
(0.0403205 -0.164197 0.00831789)
(0.0451499 -0.157251 0.00759266)
(0.0428014 -0.117436 0.00712965)
(0.0544365 -0.106459 0.0072385)
(0.0384996 -0.124709 0.0104543)
(0.0486155 -0.117168 0.0102569)
(0.0353356 -0.127418 0.0109943)
(0.0435088 -0.122062 0.0107318)
(0.0335172 -0.128797 0.0101907)
(0.0402568 -0.124633 0.00990978)
(0.0324899 -0.129451 0.00932534)
(0.0382995 -0.125933 0.00903271)
(0.0319059 -0.129783 0.00868813)
(0.0371266 -0.126632 0.00838319)
(0.0315775 -0.129999 0.00826468)
(0.0364153 -0.127058 0.00794674)
(0.0341782 -0.0938931 0.00547103)
(0.0443498 -0.0856211 0.00582079)
(0.0300877 -0.0975576 0.00882051)
(0.0390754 -0.0926372 0.00902065)
(0.0271415 -0.0982312 0.00993641)
(0.0344562 -0.0953824 0.0101116)
(0.0255236 -0.0986941 0.00938149)
(0.0316053 -0.0969737 0.00952324)
(0.0246367 -0.098913 0.00857098)
(0.0299258 -0.0978022 0.00867333)
(0.0241453 -0.0990217 0.00792435)
(0.0289375 -0.0982549 0.00799054)
(0.0238751 -0.0991019 0.0074788)
(0.0283486 -0.0985327 0.00751459)
(0.0270073 -0.0743206 0.00382738)
(0.0356298 -0.0680635 0.0042235)
(0.0232149 -0.0753222 0.00668637)
(0.0309427 -0.0720993 0.00705022)
(0.0204569 -0.0742055 0.00808606)
(0.0267587 -0.0727988 0.00848419)
(0.0189899 -0.0737689 0.00781613)
(0.0242396 -0.0733468 0.00820146)
(0.0182077 -0.0735468 0.00715142)
(0.0227861 -0.0736551 0.00749874)
(0.0177844 -0.0734286 0.00657155)
(0.0219461 -0.073836 0.00687883)
(0.0175556 -0.0733766 0.00615834)
(0.0214529 -0.0739543 0.00643073)
(0.0210297 -0.0580491 0.00248108)
(0.0281289 -0.0533702 0.00282347)
(0.0176771 -0.0574738 0.00463647)
(0.0241306 -0.0554182 0.00500987)
(0.0151527 -0.0551136 0.0060069)
(0.020416 -0.0545633 0.00645408)
(0.0138278 -0.0539616 0.00597095)
(0.0182065 -0.054211 0.00643124)
(0.0131379 -0.0533834 0.00547897)
(0.0169552 -0.054062 0.00591063)
(0.0127727 -0.0530845 0.00500005)
(0.0162444 -0.0540033 0.00539393)
(0.0125786 -0.0529309 0.00464673)
(0.0158333 -0.0539868 0.00500618)
(0.0161327 -0.0447157 0.00151282)
(0.0218213 -0.0412667 0.00176817)
(0.0133087 -0.0434313 0.00298781)
(0.0185507 -0.0421652 0.00329355)
(0.0110798 -0.0404506 0.00412063)
(0.0153515 -0.0403753 0.00451256)
(0.00990338 -0.0388496 0.00423168)
(0.0134458 -0.0393825 0.00465728)
(0.00930153 -0.0380398 0.0039043)
(0.0123825 -0.0388958 0.00431629)
(0.00898882 -0.0376259 0.00353594)
(0.0117877 -0.0386622 0.00391966)
(0.00882605 -0.0374117 0.0032525)
(0.0114486 -0.038549 0.00360799)
(0.0121849 -0.0339464 0.000876181)
(0.0166261 -0.0314282 0.00104749)
(0.00990616 -0.0324972 0.00181005)
(0.0140413 -0.0317365 0.00202596)
(0.0080141 -0.0294194 0.00263416)
(0.0113775 -0.0295662 0.00292621)
(0.00699603 -0.0276313 0.00280347)
(0.00977166 -0.0282115 0.00313636)
(0.00648071 -0.0267127 0.0026114)
(0.00888315 -0.0275172 0.00294181)
(0.00621792 -0.0262493 0.00234577)
(0.00839434 -0.0271787 0.0026559)
(0.00608299 -0.0260108 0.00212984)
(0.00811981 -0.0270092 0.00241731)
(0.00900576 -0.0252323 0.000480465)
(0.012374 -0.0234283 0.000585858)
(0.00724239 -0.0239085 0.00102849)
(0.010405 -0.0234759 0.00116531)
(0.00570881 -0.0210966 0.00156664)
(0.00827646 -0.0213378 0.00176043)
(0.00486005 -0.0193449 0.00173046)
(0.00696572 -0.0198779 0.00196139)
(0.00442873 -0.0184229 0.00163905)
(0.00624208 -0.0190984 0.00187432)
(0.00421352 -0.0179618 0.00146454)
(0.00584975 -0.0187169 0.00168687)
(0.00410416 -0.017727 0.00131121)
(0.00563242 -0.0185255 0.00151668)
(0.00644748 -0.0181817 0.000245774)
(0.00891016 -0.0169231 0.000305116)
(0.00514762 -0.0171047 0.000540191)
(0.00747695 -0.0168764 0.00061771)
(0.0039678 -0.014766 0.000855874)
(0.00585435 -0.0150206 0.000970357)
(0.00329293 -0.0132176 0.000980257)
(0.00483146 -0.0136579 0.00112265)
(0.00294487 -0.0123716 0.000951898)
(0.00426201 -0.0128937 0.00110193)
(0.00277283 -0.0119492 0.00085197)
(0.00395678 -0.0125149 0.00099575)
(0.00268776 -0.0117373 0.000753384)
(0.00379068 -0.0123278 0.000886085)
(0.0043998 -0.0125067 0.000113791)
(0.00611273 -0.0116639 0.00014379)
(0.00349694 -0.0117025 0.000254202)
(0.00512396 -0.0115908 0.000292326)
(0.00264492 -0.009918 0.000417331)
(0.00396028 -0.0101377 0.000475742)
(0.00214305 -0.00867736 0.000494428)
(0.00320938 -0.00900784 0.000570085)
(0.00187682 -0.00796739 0.000495851)
(0.00278472 -0.00833598 0.000579133)
(0.0017452 -0.00760651 0.000450425)
(0.00255686 -0.00799484 0.000532668)
(0.00167997 -0.00742688 0.000397383)
(0.00243457 -0.00782649 0.000473928)
(0.00275778 -0.00793165 4.43053e-05)
(0.00385415 -0.00740954 5.72226e-05)
(0.00218882 -0.00738735 9.90847e-05)
(0.00323346 -0.00734139 0.000114342)
(0.00163012 -0.00616369 0.000168897)
(0.00247413 -0.00632736 0.000193088)
(0.00129215 -0.00527941 0.00020654)
(0.00197212 -0.0055044 0.000239095)
(0.00110625 -0.00474865 0.000214922)
(0.00168275 -0.0049874 0.000252695)
(0.00101229 -0.00446733 0.000202109)
(0.00152453 -0.00471005 0.000241557)
(0.000966506 -0.00432533 0.000183257)
(0.00144066 -0.00456987 0.000221321)
(0.00143956 -0.00424312 1.20084e-05)
(0.00203296 -0.00397247 1.62026e-05)
(0.00114855 -0.00393034 2.59416e-05)
(0.00171496 -0.00392111 3.00988e-05)
(0.000844792 -0.00323131 4.71749e-05)
(0.00130259 -0.00333597 5.40285e-05)
(0.000656092 -0.00271122 5.97129e-05)
(0.00102384 -0.00284523 6.93583e-05)
(0.000549732 -0.00238496 6.47379e-05)
(0.000858995 -0.00252068 7.67292e-05)
(0.000492553 -0.00220125 6.47211e-05)
(0.000766524 -0.00233332 7.85308e-05)
(0.000462749 -0.00210033 6.47241e-05)
(0.000714619 -0.00222886 7.93572e-05)
(0.000384895 -0.0012826 3.75203e-07)
(0.000572399 -0.00120835 9.64385e-07)
(0.000321954 -0.00116668 7.3324e-07)
(0.000499848 -0.00117692 9.56644e-07)
(0.000234988 -0.000934391 2.94238e-06)
(0.000379283 -0.000980568 3.45215e-06)
(0.000179022 -0.00075796 4.057e-06)
(0.00029426 -0.000812937 4.90022e-06)
(0.000144959 -0.000642862 4.42588e-06)
(0.000241688 -0.000696689 5.68865e-06)
(0.000125437 -0.000573004 4.53084e-06)
(0.000211853 -0.000623705 6.25346e-06)
(0.00011304 -0.000525734 8.23298e-06)
(0.000192339 -0.000573597 1.07762e-05)
(3.2343e-05 -0.00061638 9.09905e-06)
(-2.29359e-05 -0.000452874 8.61012e-06)
(2.25398e-05 -0.000657899 6.84673e-06)
(-4.3903e-05 -0.000490161 8.49086e-06)
(1.45359e-05 -0.000694619 6.79383e-06)
(-6.04697e-05 -0.000522677 9.00747e-06)
(3.24991e-06 -0.000731232 8.10525e-06)
(-8.08998e-05 -0.00055768 1.014e-05)
(-1.92761e-05 -0.000783179 8.56189e-06)
(-0.000117949 -0.000609763 1.06942e-05)
(-8.24109e-05 -0.000868812 6.42391e-06)
(-0.000215547 -0.000704707 1.01271e-05)
(6.60905e-05 -0.00218401 6.58773e-05)
(-9.01379e-05 -0.00164061 5.63348e-05)
(2.84513e-05 -0.00228764 7.09464e-05)
(-0.000160451 -0.00173896 6.54012e-05)
(-3.50352e-06 -0.00237543 7.38643e-05)
(-0.000218173 -0.00182151 7.08262e-05)
(-4.46384e-05 -0.00247311 7.43638e-05)
(-0.000288253 -0.00191455 7.32786e-05)
(-0.000120683 -0.00262313 6.74955e-05)
(-0.000410917 -0.00206267 6.92075e-05)
(-0.000323705 -0.00289977 4.60089e-05)
(-0.000724807 -0.00236258 5.41303e-05)
(0.000205959 -0.0043814 0.000224177)
(-5.08951e-05 -0.00332453 0.000189637)
(0.000130901 -0.00454215 0.000244305)
(-0.000182839 -0.00348294 0.000214294)
(6.63081e-05 -0.00467805 0.000253175)
(-0.000292706 -0.00361355 0.000227082)
(-1.54622e-05 -0.00482981 0.000252219)
(-0.000426021 -0.00376063 0.000230756)
(-0.000163003 -0.00507193 0.00023129)
(-0.000658478 -0.0040018 0.000217744)
(-0.000541383 -0.00556457 0.000170571)
(-0.00124015 -0.00452867 0.000171615)
(0.000519036 -0.00744528 0.000504757)
(0.000170454 -0.00569669 0.000424249)
(0.000396679 -0.0076632 0.000549933)
(-3.59043e-05 -0.00591519 0.000472728)
(0.000290665 -0.00784422 0.000571455)
(-0.0002093 -0.00609285 0.00049814)
(0.000156776 -0.00804608 0.000574518)
(-0.000420634 -0.00629299 0.000507359)
(-8.27353e-05 -0.00837432 0.0005436)
(-0.000789056 -0.00662322 0.000489259)
(-0.000682003 -0.00908797 0.000434858)
(-0.00170008 -0.00738403 0.000406073)
(0.00110561 -0.0116956 0.000944961)
(0.000685813 -0.00901714 0.000790519)
(0.000925986 -0.0119727 0.00102639)
(0.000392164 -0.00929875 0.000872286)
(0.00076917 -0.0121989 0.00106812)
(0.000143357 -0.0095245 0.000916218)
(0.000571085 -0.0124499 0.00108225)
(-0.000161374 -0.0097757 0.000936)
(0.000217437 -0.0128583 0.0010511)
(-0.000693926 -0.010192 0.000919676)
(-0.00065651 -0.0137869 0.000906156)
(-0.00200354 -0.0111828 0.000809971)
(0.00210882 -0.0175484 0.00159966)
(0.00165174 -0.013623 0.00133282)
(0.00186195 -0.0178898 0.00172977)
(0.00125843 -0.0139707 0.00145817)
(0.00164506 -0.0181632 0.00180004)
(0.000922439 -0.0142466 0.00152704)
(0.00137031 -0.0184633 0.00183266)
(0.000508437 -0.0145509 0.00156247)
(0.000879665 -0.0189509 0.00181253)
(-0.000217499 -0.0150523 0.00155505)
(-0.000327397 -0.0200806 0.00166241)
(-0.00199988 -0.0162609 0.00144229)
(0.00371878 -0.0255247 0.00254018)
(0.00326967 -0.0199436 0.00211169)
(0.00339551 -0.0259365 0.00273159)
(0.00276482 -0.0203625 0.00229013)
(0.00310957 -0.0262621 0.00283859)
(0.00233006 -0.0206916 0.0023895)
(0.00274617 -0.0266135 0.00289676)
(0.00179091 -0.02105 0.00244459)
(0.00209597 -0.0271804 0.00289859)
(0.000841821 -0.0216366 0.0024516)
(0.000496676 -0.0285023 0.00278165)
(-0.00148972 -0.0230554 0.00236058)
(0.00616411 -0.0362591 0.00388474)
(0.00577377 -0.0285161 0.00323643)
(0.00575614 -0.0367486 0.00414474)
(0.00514599 -0.0290135 0.00347239)
(0.00539305 -0.0371308 0.00429185)
(0.00460116 -0.0293979 0.00360294)
(0.00492999 -0.0375368 0.00437709)
(0.00392077 -0.0298108 0.0036756)
(0.00409931 -0.0381886 0.00440284)
(0.00271844 -0.030484 0.00369233)
(0.00205358 -0.0396947 0.00434179)
(-0.000239297 -0.0320986 0.00362782)
(0.00971977 -0.0503866 0.00580792)
(0.00944309 -0.0398639 0.00485743)
(0.00922111 -0.0509592 0.00613853)
(0.00868279 -0.0404401 0.0051508)
(0.00877417 -0.0513983 0.00632166)
(0.00801762 -0.040879 0.00530714)
(0.00820135 -0.0518562 0.00642283)
(0.00718089 -0.0413415 0.00538504)
(0.00717079 -0.0525823 0.00645075)
(0.00569564 -0.0420906 0.00538675)
(0.00463053 -0.0542466 0.00641904)
(0.00203727 -0.0438718 0.0053073)
(0.0145981 -0.0682627 0.00841766)
(0.0144655 -0.0542895 0.00708948)
(0.0140032 -0.068909 0.00881041)
(0.0135638 -0.0549349 0.00742964)
(0.0134676 -0.0693984 0.00902067)
(0.0127694 -0.0554197 0.00760111)
(0.0127785 -0.0699007 0.00912552)
(0.0117647 -0.0559251 0.00766988)
(0.0115367 -0.0706918 0.00913188)
(0.00997444 -0.0567378 0.00762929)
(0.0084748 -0.072491 0.00906695)
(0.0055595 -0.0586558 0.00746275)
(0.020878 -0.08995 0.0119802)
(0.0208608 -0.071894 0.0101866)
(0.0201855 -0.0906528 0.0124089)
(0.0198129 -0.0725932 0.0105507)
(0.0195595 -0.0911752 0.0126194)
(0.0188854 -0.0731114 0.0107136)
(0.018752 -0.0917005 0.0126909)
(0.0177071 -0.0736394 0.01074)
(0.0172943 -0.092518 0.0126088)
(0.0156004 -0.0744815 0.0105959)
(0.0137032 -0.0943586 0.01236)
(0.0103989 -0.0764533 0.0101998)
(0.0284169 -0.114826 0.0163754)
(0.0284844 -0.0922873 0.014068)
(0.0276249 -0.115539 0.0168053)
(0.0272877 -0.093003 0.0144269)
(0.026909 -0.116063 0.0169907)
(0.0262273 -0.0935264 0.0145603)
(0.0259856 -0.116576 0.0170028)
(0.0248778 -0.0940507 0.0145229)
(0.0243196 -0.117367 0.0167888)
(0.0224613 -0.0948786 0.0142391)
(0.0202266 -0.119137 0.016228)
(0.0164907 -0.0968109 0.0135034)
(0.0366866 -0.141711 0.021336)
(0.0367579 -0.114632 0.0185134)
(0.0358002 -0.142385 0.0217193)
(0.0354209 -0.115325 0.0188324)
(0.0350022 -0.142871 0.0218495)
(0.0342397 -0.115826 0.0189159)
(0.0339766 -0.143332 0.0217782)
(0.0327394 -0.116316 0.0188004)
(0.0321305 -0.144036 0.0214017)
(0.0300528 -0.117086 0.0183611)
(0.0276156 -0.145593 0.0204398)
(0.0234153 -0.11887 0.017232)
(0.0448948 -0.169127 0.0258735)
(0.0448959 -0.138041 0.0226278)
(0.0439336 -0.169729 0.0261765)
(0.0434463 -0.138692 0.0228847)
(0.0430687 -0.170143 0.0262426)
(0.042168 -0.139149 0.0229186)
(0.0419626 -0.170516 0.0260937)
(0.0405505 -0.139582 0.0227423)
(0.0399808 -0.171079 0.0255792)
(0.0376604 -0.140263 0.0221925)
(0.0351871 -0.172291 0.0242664)
(0.0305565 -0.141814 0.0207699)
(0.0522559 -0.195731 0.0284561)
(0.0521525 -0.161632 0.0250823)
(0.0512458 -0.196226 0.0286682)
(0.0506249 -0.162222 0.0252756)
(0.0503406 -0.196556 0.0286811)
(0.0492838 -0.162629 0.0252762)
(0.0491911 -0.196838 0.0284951)
(0.0475967 -0.163011 0.0250815)
(0.0471456 -0.197257 0.0279422)
(0.044595 -0.163612 0.0245202)
(0.0422989 -0.198123 0.0265352)
(0.037313 -0.164946 0.0230626)
(0.0577328 -0.217819 0.0282043)
(0.0576236 -0.18225 0.0250283)
(0.0567183 -0.218219 0.0283565)
(0.056074 -0.182787 0.0251878)
(0.0558123 -0.218483 0.0283505)
(0.0547188 -0.183159 0.0251872)
(0.0546677 -0.218695 0.02818)
(0.0530228 -0.183502 0.0250228)
(0.0526435 -0.219006 0.0276944)
(0.0500179 -0.184048 0.0245469)
(0.0479601 -0.219624 0.0264648)
(0.0428452 -0.185229 0.0233073)
(0.0613269 -0.234192 0.0258216)
(0.0613303 -0.198513 0.0229845)
(0.0603436 -0.234531 0.0259579)