/*--------------------------------*- C++ -*----------------------------------*\
| =========                 |                                                 |
| \\      /  F ield         | OpenFOAM: The Open Source CFD Toolbox           |
|  \\    /   O peration     | Version:  2206                                  |
|   \\  /    A nd           | Website:  www.openfoam.com                      |
|    \\/     M anipulation  |                                                 |
\*---------------------------------------------------------------------------*/
FoamFile
{
    version     2.0;
    format      ascii;
    arch        "LSB;label=32;scalar=64";
    class       volScalarField;
    location    "180";
    object      epsilon;
}
// * * * * * * * * * * * * * * * * * * * * * * * * * * * * * * * * * * * * * //

dimensions      [0 2 -3 0 0 0 0];

internalField   nonuniform List<scalar> 
184166
(
8.46692
3.39216
2.91993
8.73837
5.58667
4.98501
2.38173
4.19585
8.71092
6.6207
8.54695
3.41792
3.5257
5.30501
5.92314
6.72882
7.28355
5.63742
3.28668
6.50257
3.19035
3.14118
4.53823
6.2491
6.04621
6.23658
5.81607
6.61689
5.87644
3.29781
6.38172
2.16821
11.4799
6.93194
6.94024
3.65726
3.24694
6.62374
4.35273
2.64007
5.87397
3.58619
5.91696
6.57581
7.04695
5.67823
2.4883
5.59292
5.95118
5.89595
2.32557
2.16855
2.56851
5.93465
6.57956
5.03152
6.41822
6.55482
7.89397
4.41224
3.18248
4.51399
7.63651
8.45373
8.72013
2.19823
2.77579
6.44603
2.28889
6.60684
2.89177
6.56984
6.9549
7.1921
3.72131
5.93237
4.6759
7.04855
4.08036
2.54231
2.4125
3.69775
6.59088
7.92441
6.30879
8.87518
3.95419
3.02113
5.14843
3.34218
2.0247
5.4965
6.55807
9.34069
5.45604
3.32226
6.52611
2.12712
3.12626
6.45904
3.39873
3.30965
6.68615
5.96796
2.16366
4.50574
6.46262
5.36041
2.16716
3.43319
2.65076
7.07376
2.00683
2.95956
6.26025
5.56748
4.34436
2.96099
2.37242
2.92586
7.44971
3.31671
6.18844
5.76098
5.63838
5.42652
6.33452
5.94752
6.66057
6.34613
3.12093
5.90436
4.78563
4.95688
3.81286
3.51858
3.66947
4.64899
5.27361
2.84886
4.89913
2.35112
2.42223
3.30249
4.48586
6.59107
2.95226
5.82949
8.29048
9.01003
6.70993
7.56051
6.38565
7.22235
7.28863
8.7956
6.32137
7.82872
8.69493
2.65266
2.06077
2.59308
5.82045
4.1201
4.15203
6.27049
6.06087
6.2515
2.12468
6.13342
6.14847
4.30082
4.33051
7.66963
5.82646
2.54185
2.82729
8.22845
6.73763
4.77087
2.0534
6.19966
5.12079
6.20769
6.46358
4.38482
6.17655
7.85444
2.18427
6.81585
5.40002
6.77633
4.66666
2.12133
9.71387
6.28013
5.93685
8.35082
8.90707
6.29805
6.92055
5.87504
2.18914
5.58363
2.45273
7.23949
3.57629
3.26697
4.43008
5.53762
9.37863
6.47696
3.75233
5.58825
3.30462
4.45216
5.9447
6.16727
2.32029
2.21898
3.52031
4.05375
4.53532
6.34282
2.34747
3.36744
3.55731
6.50421
5.94623
9.75987
9.21531
3.15104
4.56192
6.97185
6.72843
4.85848
7.05074
6.89009
7.16167
2.14678
2.00821
6.65006
3.40796
6.3786
2.54539
6.0031
5.84047
3.53982
7.38363
7.53641
4.98146
8.56146
6.71741
3.31191
4.82143
6.85056
5.47149
6.05474
5.98474
4.81281
5.21354
2.77085
6.41432
3.83819
6.55263
5.73425
6.30171
3.22633
5.94915
5.14774
5.95465
2.42328
4.77314
6.48086
3.36132
5.39655
2.04956
5.14404
4.06525
5.20987
3.14394
12.8206
5.13187
6.00469
2.6799
3.49936
10.8418
7.55195
5.44735
7.50601
5.77961
5.77118
5.85104
6.72545
8.41322
5.71251
4.98968
9.31277
5.8796
7.53683
5.79113
4.67025
2.48951
6.08123
8.46789
4.67909
5.62247
8.13783
2.9557
2.11336
5.8901
6.71738
6.6077
6.36267
6.92544
5.30033
4.88187
5.4803
5.37898
5.38918
3.32751
3.69416
4.21259
6.05615
5.64453
2.12448
5.91407
4.85573
3.06163
5.89154
6.80829
2.71727
2.6005
6.40482
2.31589
5.88867
5.05338
4.24591
6.25545
4.6184
5.32321
9.44022
9.02054
7.64607
6.5462
7.08018
2.97161
2.27799
4.31118
2.34114
2.31225
6.16165
7.66139
2.80851
3.37644
6.50451
6.36724
4.72036
6.37353
6.58975
4.06808
2.14644
6.50025
3.1537
6.39647
6.04329
2.1566
3.09969
2.93147
2.00124
2.08237
8.06839
9.66025
6.79433
7.43758
7.11217
6.90338
5.90218
3.16749
5.55186
5.84054
5.93091
6.17217
6.59036
5.6474
6.73216
6.43684
3.8524
4.38426
4.60062
5.44803
6.17047
6.14191
2.06022
4.4579
2.0935
7.45948
4.86756
4.002
5.66319
7.52698
5.61266
9.63535
7.34016
2.59245
5.45547
6.81613
6.79291
5.52396
3.53298
5.25438
4.07032
4.16958
3.79429
3.74055
3.34356
6.17944
2.97182
2.82191
2.6738
10.2445
4.56024
4.66423
4.58882
4.33123
2.13553
2.28847
2.35761
3.03875
2.94156
3.07907
2.43686
10.757
8.733
10.051
9.92804
8.41609
9.71596
6.2872
6.18269
6.54255
6.47737
7.8613
7.28565
7.58545
6.86856
10.4899
11.39
6.18269
6.33041
5.91003
5.9579
5.96675
6.139
5.57338
6.23144
5.81053
5.7166
5.86487
7.37875
7.95165
2.33043
2.19438
2.13973
2.12019
2.54041
2.11358
2.29915
6.20589
6.66094
6.87872
7.19331
8.44727
7.23456
4.67155
3.79746
4.34975
9.83486
6.68191
5.94344
6.32945
5.96401
2.05118
1.98715
3.4939
3.64626
3.47908
3.29027
3.18276
3.27594
5.39402
5.60054
5.16907
5.46698
5.07122
6.91814
6.55512
6.55906
6.76627
7.01195
6.77491
6.73093
7.73056
6.43969
6.47402
6.19721
7.66299
6.52274
3.32666
6.746
8.09202
2.02111
2.06833
2.00303
6.40069
7.3418
6.93688
6.37175
6.65582
6.54081
6.78886
6.70644
7.36701
5.71858
6.13115
6.29893
6.15521
6.99461
7.06774
7.75964
7.58238
10.1475
8.59063
10.3214
7.97382
7.17392
7.44126
7.70202
10.0194
12.3231
11.4559
9.22054
10.3393
6.45248
6.30187
6.26162
5.96152
2.53231
4.58512
4.02167
3.67858
4.49481
4.00963
4.38724
4.43789
3.78284
4.19819
3.39854
3.07721
6.88003
6.80249
6.89324
6.82275
6.70203
6.7231
6.63814
6.65389
6.22248
5.74708
5.17415
4.98947
5.22564
5.55673
6.52045
11.1317
2.34533
2.88654
2.09866
2.08422
2.19433
2.11511
7.03326
7.04307
7.24552
7.28903
7.66189
7.51016
6.96387
7.71339
6.32595
6.61132
6.8922
7.69913
7.28072
2.09656
5.09192
4.71708
4.60638
7.88512
6.92607
6.87783
6.73845
7.98327
6.95697
6.98227
6.8281
8.54348
7.70014
8.77775
3.21287
3.64585
5.22178
4.11998
6.61364
6.7995
6.83602
6.69909
7.17464
6.72123
7.20594
6.9485
5.38646
6.17186
5.78209
6.20535
6.82659
7.13807
7.8487
5.66041
5.30403
5.24421
4.92381
4.77558
7.28472
7.19347
6.34991
6.44601
6.95126
10.2422
7.58568
4.4918
6.9553
6.91349
8.56244
6.87805
6.62588
6.92428
8.59831
7.02157
6.77191
2.35054
2.71655
6.91236
9.05457
10.2495
8.77365
5.14768
9.38945
8.12168
9.01136
8.84529
7.91586
8.79294
2.13039
7.57041
7.83051
7.51743
7.59993
3.88125
9.65123
10.6346
8.95174
10.4689
8.58757
10.2357
2.66111
2.0895
2.13384
2.41147
2.40632
2.13778
4.86708
2.78366
3.09153
10.5109
8.63543
9.64186
4.17953
3.69769
4.17254
3.89737
3.70116
3.91588
6.46774
7.84548
6.48371
6.23824
7.73072
9.08728
4.26179
4.17735
6.89635
5.82324
5.08452
5.26502
3.01168
4.74556
6.26127
6.24671
4.87892
5.2222
4.99056
3.73261
3.48354
3.73037
3.48864
3.86725
5.14585
6.51219
6.30334
6.38536
5.19437
5.82985
4.97949
5.13286
5.42414
3.89669
4.52574
4.79429
5.78041
6.06583
6.31639
6.19533
4.57704
4.66969
3.35749
3.7047
3.80367
7.02532
5.90306
6.88484
7.25163
3.51802
5.31571
2.09034
2.10728
2.07641
6.28748
4.13284
4.19222
3.87876
6.62039
5.46804
6.02175
5.62785
4.77225
4.77779
4.8089
4.74859
5.73279
4.73336
5.74216
5.05294
3.34925
3.18588
3.35961
3.25605
3.1789
3.21798
3.13075
3.09277
3.0633
5.18644
4.36707
3.25916
3.3337
3.17709
5.76613
5.36891
5.77682
5.60011
6.13831
6.36084
6.27305
7.22972
5.28534
5.18893
4.79493
3.27575
3.54127
2.06916
2.07109
2.09462
2.08457
4.41428
3.51401
3.44921
3.36287
3.56038
3.65809
5.47347
5.69839
6.78041
6.33769
6.53797
6.90744
4.80593
4.86098
5.09007
3.41423
3.17685
3.14013
3.14957
3.14493
2.13335
2.18914
6.98911
6.63651
2.19473
2.39224
2.21396
2.15281
6.5152
2.38326
2.9858
2.41333
2.65219
3.44836
3.76374
3.79231
3.5237
9.48602
5.48543
5.644
5.28951
5.07775
5.51163
5.97388
6.34064
4.28474
3.9698
4.65704
4.11746
4.37279
3.46135
10.7972
11.3607
12.1672
9.91468
9.13122
9.19596
5.42902
4.63786
4.86309
5.40392
1.96442
1.91429
8.0263
5.63675
4.74346
5.85223
4.83192
5.5395
1.94954
1.92151
10.728
10.9246
6.82781
7.11592
7.09005
3.13678
6.04002
3.96543
5.60776
2.11618
2.19295
6.40812
6.66474
6.04185
6.36984
6.09988
6.15815
2.31564
2.70015
3.80559
3.53766
6.07189
7.07952
5.79412
6.39751
2.56954
2.53571
6.80652
6.65851
5.85193
5.93754
5.73873
5.28423
5.5759
5.7868
6.72555
6.48927
6.533
2.97774
4.04546
3.31752
4.99242
5.02914
5.7076
5.41068
8.9307
7.79134
6.39869
6.61409
7.10304
7.09183
6.73273
6.77112
6.54929
7.14833
6.85785
6.60838
6.62995
6.24057
7.3292
5.53703
5.07946
4.19679
4.39894
3.76605
3.39855
3.35385
3.49897
3.24568
3.44407
4.68909
8.25881
6.74232
6.23222
6.39256
5.50943
7.40675
7.37206
6.3254
5.38647
5.89545
4.26416
6.03999
6.22406
6.04
5.98488
2.55084
2.42777
2.71667
2.59015
2.42071
5.92123
6.55567
6.28794
11.1292
11.3859
6.72142
6.79012
7.83363
7.8511
7.79597
10.9377
8.30867
6.31996
6.26418
4.0819
4.35671
3.78435
5.40691
4.9116
5.47868
5.86252
5.89156
7.10714
6.7947
6.62383
6.73259
6.94209
8.7615
9.74229
8.33064
11.6661
5.03442
4.86751
4.71591
3.78045
4.21094
4.22822
4.49829
3.76426
6.03462
6.15839
6.24092
6.19758
2.62032
2.94943
2.6216
2.63402
4.53498
4.31984
8.24239
9.64396
6.93851
6.48047
12.2762
11.2214
7.03701
6.38752
7.39496
7.68345
2.44485
2.08369
2.04711
1.96781
5.92509
6.09024
5.99255
5.92452
5.39652
5.31663
5.45696
8.05405
7.9205
7.91409
7.69445
7.67276
7.79327
4.00607
3.49461
3.79038
3.28708
4.35485
4.71152
4.71424
4.83539
7.63723
7.17033
7.38698
6.61411
7.22392
5.27782
4.8993
6.96984
5.64791
4.46904
4.7471
3.81725
3.88801
4.50369
6.29865
6.25369
12.1319
6.78281
6.88781
7.23772
7.08082
2.38357
2.07581
2.06917
3.23788
3.19901
4.54492
4.26438
4.63111
4.52236
5.06622
4.77221
2.99141
2.32175
3.5402
4.70728
5.08727
6.4146
6.44069
9.14825
7.09197
7.22417
2.12148
2.1144
2.13428
11.243
11.072
8.45241
8.43571
2.23197
2.20614
5.59772
5.69788
4.88548
3.54399
3.72595
11.4361
9.98843
6.41264
6.78953
6.30789
2.06886
2.06886
2.0675
2.04326
2.05211
5.0579
7.70372
5.48176
5.28318
4.92876
5.01099
9.93123
5.65207
5.64022
6.41608
6.0369
3.98026
6.56564
6.6336
6.1928
6.3028
2.97863
3.03549
2.96059
2.95838
10.9456
10.1477
6.97765
7.28481
6.79424
6.90405
4.55666
4.46303
4.21906
5.8757
6.12389
5.25704
3.77723
2.69388
2.75835
3.21458
2.57036
4.06804
3.06153
2.71827
3.54348
11.5467
11.9488
7.78943
4.80772
5.48262
4.73937
5.08079
5.78292
5.97477
5.77794
2.15772
2.09486
2.11347
2.19796
6.70751
5.44183
2.90938
2.55385
2.47851
1.90726
1.90586
4.03396
4.38233
4.42518
3.90848
4.11569
7.16179
3.52816
2.99611
2.13823
2.09296
2.1803
2.06726
2.07339
3.98881
3.82855
5.08643
5.00539
5.51523
5.23237
6.2414
6.37312
5.44966
5.8088
5.17985
2.22898
2.62358
3.60389
3.92743
2.66325
2.65419
2.65574
6.45489
6.03837
6.12424
6.78261
7.58252
7.08197
6.87549
7.41775
7.66295
2.14121
2.66567
2.35601
2.98487
2.92569
3.49679
3.55641
2.55221
2.55793
5.91055
6.71201
6.57037
7.12843
2.25784
2.23536
2.25054
2.30834
5.44615
5.53893
4.91647
5.3247
4.12008
5.03239
4.24676
4.78903
11.789
12.032
6.5729
5.83494
3.168
4.65009
4.24503
4.31392
3.86098
2.53613
3.44761
3.14897
4.27269
3.5365
3.70566
3.22365
5.41905
5.31005
4.8279
4.96168
4.89486
5.05865
2.64602
2.86572
5.40553
6.02335
4.82191
5.26932
4.7937
5.25618
4.72076
5.29187
6.01619
5.21051
5.14745
4.74513
7.3175
7.13042
7.67122
7.30896
7.06445
7.33739
4.31968
4.62052
2.14815
2.2046
2.14664
2.32904
2.32177
2.15246
2.20987
2.12916
3.06367
3.02695
3.1391
3.28985
3.28898
5.74059
6.19092
6.10232
5.72072
5.96997
6.62189
6.64765
7.178
6.70359
3.67285
3.56531
2.06709
2.07215
2.09245
2.12912
2.12078
12.4224
10.9699
4.67627
4.84088
4.99347
9.37069
8.03844
10.6108
7.47105
7.18261
4.7516
6.7859
7.09173
8.46602
7.75078
7.02464
7.83181
6.98649
6.47031
6.41953
6.79608
6.52184
6.47124
6.28447
6.66931
6.56169
5.18796
4.76622
4.27715
6.36892
6.34506
6.7536
7.25798
10.6782
1.93599
5.40522
5.7229
5.76242
5.54531
6.15511
6.28919
6.36111
6.45048
6.57023
2.00774
1.97573
1.93111
2.07336
2.08854
2.10061
2.08738
12.3833
9.87461
10.051
6.9438
6.38662
5.86458
3.743
9.62896
9.54831
3.0048
3.69924
3.05142
3.35212
3.41515
3.78383
3.84258
3.41329
3.87345
5.04675
4.97175
9.05975
2.10781
5.96452
5.00556
4.32857
2.54174
2.55169
2.59408
4.10877
4.30758
3.91856
4.06425
3.68663
5.51327
5.10398
3.26154
3.14083
3.03544
3.04138
3.25539
3.05435
7.38195
8.15429
8.11886
5.20008
5.47012
5.9623
4.74048
4.38948
7.16172
6.35942
6.56168
5.52808
1.91526
1.88407
9.17357
10.496
5.51677
5.67744
5.69312
6.10881
5.3715
5.72083
2.05727
2.10938
2.08614
2.10234
2.07766
11.8478
10.5842
1.92243
5.40912
3.31577
3.26464
4.55294
3.63398
4.58966
4.00164
3.45913
9.13569
7.24969
8.44331
10.2455
11.5284
8.26331
4.66067
4.59492
2.08841
2.08535
2.09658
2.09087
2.08875
2.09611
5.99939
2.49768
2.16458
1.89001
1.98492
1.9304
6.34283
6.38618
5.68103
4.89339
3.8197
3.37993
3.94907
3.04296
2.48989
3.41207
3.12956
6.21524
6.05895
6.40441
6.24237
6.04761
6.21869
5.87345
2.25828
2.40341
5.20312
5.19704
4.8635
5.04541
4.59335
5.49289
5.44014
5.57496
4.54971
4.93375
3.53331
4.05678
4.12551
3.4419
3.75084
4.16507
3.73312
3.83527
3.66306
4.05474
4.25365
6.48896
6.29333
6.25143
6.59215
6.35636
2.76114
2.6242
3.53622
2.98119
3.77491
3.32339
5.98381
6.26521
6.2115
6.38051
3.60163
4.08355
3.81987
4.13131
3.78885
3.40404
3.58049
2.08876
2.0871
12.5539
13.7123
5.68442
5.53142
5.58739
5.14362
2.01231
1.96335
1.89006
2.01435
1.95984
6.5309
6.51988
5.83749
5.67072
5.57401
4.70778
4.84613
4.31129
2.90589
3.04015
2.83751
2.89238
2.06698
2.07023
2.07078
2.08387
4.97183
5.70356
5.79857
5.59556
4.50097
4.70382
3.97137
8.06468
9.25036
11.6698
8.37728
10.6419
10.6611
2.44181
2.9633
2.30189
2.51504
5.35141
5.541
5.56046
5.5068
5.29407
2.09492
2.07949
2.08042
12.1294
11.8522
4.89802
4.52218
4.60041
2.93636
3.70782
3.84645
3.04561
6.86873
6.92903
6.95334
7.16832
7.01575
6.99456
5.51393
5.80673
5.92586
5.39983
12.6836
14.6154
3.69405
4.05362
3.07955
12.3001
6.02777
5.83358
4.90465
3.54257
12.3676
5.66893
5.69729
1.9545
2.74152
2.5588
2.62667
2.72232
2.5583
2.55893
2.18824
2.18461
2.49713
2.27201
2.69639
2.87542
2.69844
2.78368
2.69744
2.87973
2.69626
2.80024
4.15173
3.6658
5.1985
12.2022
13.7334
4.1274
2.15325
2.084
2.08269
2.0971
7.34411
5.9343
5.96278
9.74708
8.06886
4.85274
3.53738
6.81919
6.62457
7.38871
2.99414
2.89064
2.49254
2.46095
4.75596
5.00467
5.71889
5.78819
6.58531
7.80633
5.86257
5.97012
10.4653
10.169
12.1094
4.58283
5.68101
5.48811
4.33129
5.04575
7.21907
6.94426
6.76067
7.54012
9.58596
2.00698
1.91536
5.80319
6.00574
6.09869
6.11272
5.81292
5.91131
5.57809
5.82664
5.46719
5.57197
5.8377
5.93433
5.75991
5.87444
5.8099
5.88685
7.16125
6.92519
7.1678
7.02958
1.89989
1.85147
1.97112
2.07888
5.29223
5.24034
7.30462
7.46308
7.04752
4.92223
4.93554
5.02099
6.69547
6.35998
6.44548
6.50013
6.71604
4.84364
5.14019
4.17376
4.35098
3.80003
3.84697
3.15218
3.0609
3.12759
3.51417
4.71921
5.11014
5.74207
5.7479
13.2827
13.3118
2.14129
2.13985
6.29484
6.38088
3.19375
3.09421
3.0455
2.9519
3.08414
3.0658
2.5787
2.40187
2.66816
2.18765
2.23719
2.43319
2.17198
4.71465
4.55741
4.64193
4.35373
5.55232
5.46138
5.05392
5.31407
5.06498
5.21616
6.78431
6.97171
7.14472
6.79387
7.09033
6.07981
6.46484
3.95759
3.56205
3.55727
4.56876
5.63052
5.77816
5.7936
4.31678
4.00503
1.89934
1.8193
3.33961
3.57879
4.65223
2.24361
2.15505
2.15778
2.5038
2.3337
6.25308
6.48422
6.33765
6.12602
6.24007
6.89581
7.64104
2.24953
2.49639
2.29346
2.36308
2.59486
2.16451
2.7326
3.08374
3.22496
2.81912
2.18708
2.14792
1.99465
7.75027
7.59964
7.72805
7.25475
7.90183
5.14788
4.82429
3.75368
5.55812
5.66462
5.44478
5.40993
2.7209
3.62742
3.13614
3.17467
2.74843
2.80282
2.44907
3.22922
3.0239
2.35846
2.4938
13.1353
12.142
6.91944
6.86378
6.79561
5.49196
3.94765
4.90323
9.76709
12.3167
10.538
6.25713
6.05858
6.19404
3.82666
3.46593
2.60574
2.41047
3.31491
2.57743
4.7884
5.15929
4.66302
5.4124
4.47661
4.59784
4.29787
4.00463
3.97534
2.67791
2.41253
2.59635
4.21024
6.06867
4.21515
5.13015
6.32231
5.95895
5.09323
5.95038
5.21732
8.45824
10.4858
7.33036
4.51426
4.68353
5.12914
5.31488
2.07294
2.17198
2.30443
2.2775
6.53043
6.17436
2.10693
2.09929
6.14871
5.20864
5.63206
11.6717
1.83508
1.87141
1.94064
2.31337
2.08606
2.13547
3.47014
3.18997
5.73312
5.64081
5.27404
5.12754
3.2228
3.3849
4.08128
1.85469
3.54761
3.29919
3.06731
3.4656
3.15441
3.06764
3.5981
3.325
3.53615
3.18302
3.42274
3.40485
3.97398
7.09596
6.89798
2.21997
2.36098
2.07636
5.43658
5.26489
5.31408
4.89973
4.82973
4.69771
9.2835
7.24072
4.78784
5.25155
5.09236
6.13559
4.02286
4.71184
4.42254
4.23649
4.62456
3.12928
3.12115
3.15851
3.21766
3.19928
4.44394
4.10439
4.08569
4.45334
4.30026
4.52058
4.3061
4.73519
4.67726
4.66173
4.48458
5.80463
5.68363
5.88447
5.8206
5.69542
7.24593
6.95319
7.14063
7.04444
7.16561
3.99521
4.27676
3.96858
4.40495
4.25602
6.67761
6.3042
2.03006
2.95528
3.33763
3.45584
5.01347
4.77303
2.56401
2.37294
2.37319
8.85486
7.68839
9.27218
12.3521
6.76106
6.49507
7.97508
7.99418
6.95694
7.71872
7.82281
7.34562
3.66263
4.05063
6.07326
6.06479
6.09336
6.16876
3.58061
3.24344
2.73739
4.38227
2.59718
3.47553
3.64671
3.04188
8.3831
10.381
9.20966
13.9948
2.6873
3.0897
3.22335
4.30397
4.35585
3.71371
3.65633
5.00257
4.90893
19.993
8.94481
7.72038
6.98646
7.11965
4.60558
5.17822
4.25833
3.48684
5.33914
5.52675
5.48669
5.57257
6.11859
6.17741
6.03533
6.03502
6.03686
6.35279
6.15419
6.03224
6.22656
3.35802
3.22365
5.0888
2.48924
2.54142
3.29175
3.05426
5.00094
4.56929
4.8648
5.05264
4.66998
4.39446
4.8556
5.0721
5.33622
4.85709
5.50755
7.53101
11.3037
13.8175
4.29017
4.31856
4.75322
4.53453
4.77365
4.61856
6.64554
6.47466
6.20164
6.14478
6.44113
6.22002
10.4439
7.98847
12.7134
10.5235
7.02151
6.48283
6.19159
6.36237
6.18956
7.11102
7.49388
5.24426
5.42876
5.40766
3.29091
2.55345
4.72713
5.0863
5.46548
5.50363
5.21157
5.03883
5.15722
3.25296
3.07593
3.10745
3.37685
3.28
4.22273
3.93608
3.96551
4.38465
4.23728
2.27763
2.17567
2.29508
2.37089
2.18414
2.15094
3.0167
2.22536
2.26528
2.46525
2.51333
2.32674
16.5216
5.80495
5.80812
5.8802
5.90598
5.88096
1.82364
6.26173
6.31347
6.36285
6.30061
6.29417
4.69493
5.00022
4.87405
4.96839
4.7976
4.44642
3.9624
4.78711
4.36821
4.43869
3.31944
3.77327
4.86168
4.43867
2.07733
2.11928
2.30638
2.44399
2.10959
2.24896
3.28753
3.09558
2.89441
2.57735
2.71223
2.51988
6.55276
6.24318
2.00189
1.92548
1.92767
2.03978
2.06227
7.47929
7.03783
7.27278
7.20965
7.03323
6.50951
6.58635
6.359
6.33434
6.60449
6.92029
6.73804
5.47935
5.35161
5.2666
4.32716
4.54429
4.67091
2.39724
2.23971
12.3854
13.4362
15.8838
7.29242
7.94855
1.89909
1.85773
3.30627
2.8638
2.72784
3.25584
2.45129
2.465
5.63196
5.56641
5.65948
5.76107
5.74739
4.67631
4.821
5.33741
5.10699
5.15206
5.52507
5.45137
10.3302
8.51136
7.31657
7.67384
9.49059
15.0259
22.2535
3.16889
3.07828
2.85932
2.92688
2.78511
6.71561
8.83708
7.26034
12.5879
14.5535
15.0165
2.92088
3.18655
3.2298
3.5683
3.50965
3.26351
3.11042
3.32213
3.70838
3.42845
3.18598
3.17035
3.2187
3.10967
3.09011
3.21152
3.13107
4.47762
4.55185
4.46234
4.29296
4.30609
4.26609
4.36567
4.24666
4.72426
4.99012
5.51257
7.22376
9.9164
11.4912
9.44916
6.79157
7.42948
5.36939
5.44248
6.00767
5.77447
4.80441
5.03064
4.6551
3.97619
3.92979
3.85551
4.37611
4.61491
4.51066
6.27461
6.44337
6.32253
6.51279
6.3307
6.39553
5.92447
6.09812
5.53238
5.93056
5.4678
7.23241
6.77725
8.05345
8.13053
7.0667
2.0577
2.01745
1.96759
5.26934
5.18367
5.55263
5.31259
5.4115
5.86604
5.08003
5.11896
1.98009
2.03131
6.06743
5.97856
5.8725
5.92261
2.01122
2.05119
1.88678
5.10498
5.24894
5.88826
6.00927
6.0625
12.8913
11.6943
5.87905
6.04127
6.06158
6.04537
5.93524
2.87383
2.45857
3.56625
2.76772
3.00743
3.87512
3.2449
4.36147
4.129
4.21393
5.16801
4.4317
5.83445
8.16045
10.4493
2.47834
2.52176
2.34824
2.9568
2.9162
3.11964
3.11241
3.83887
3.23322
3.12458
3.20599
3.13229
3.09966
11.334
13.0081
16.8208
6.55343
6.83107
9.67291
4.39462
4.30294
4.17659
4.06955
4.47323
4.52981
2.08033
2.12259
2.15709
2.10252
2.07395
2.08632
3.94643
3.43727
3.67644
4.05978
3.14983
3.04412
5.15891
5.09597
4.76209
4.86096
4.85712
5.03868
8.98241
11.2178
9.91896
5.35108
5.01465
3.69297
2.03212
2.13798
2.02834
2.07145
2.08661
2.1563
4.86035
4.74686
5.67877
6.16759
6.25409
5.17239
5.07907
2.31428
2.38277
2.72663
2.55376
2.87868
2.74421
2.40639
3.14354
4.34573
3.63777
2.79311
2.34482
2.26302
2.72919
2.40888
1.8416
1.85078
3.45217
3.38475
3.0007
2.9357
2.80883
5.36888
5.58977
5.4406
5.60057
5.83296
6.14924
6.2873
6.41255
7.04753
6.12217
6.35923
7.03539
6.90508
6.95708
6.70119
6.90454
5.1073
4.95899
4.27367
4.45105
4.89858
4.46181
3.16522
3.17336
4.64148
4.65969
4.91978
4.76905
6.24808
6.2587
6.40008
6.82318
6.35418
2.94275
3.13134
2.71507
2.69645
2.82738
3.03528
6.04472
5.416
5.81884
5.4974
4.74975
5.14325
5.02769
4.81345
5.76041
6.11395
3.54841
4.0454
4.10259
2.76814
2.66622
3.12262
3.33897
3.13154
4.581
4.35891
3.39961
4.31832
3.1902
3.55752
3.82321
6.30092
6.26127
6.20539
5.86136
6.20141
6.31246
3.38771
2.72973
2.94664
6.08582
5.27854
5.65336
6.19765
6.50972
6.42658
6.3948
6.26308
7.04834
6.92984
6.7634
6.99805
6.78327
6.69643
6.49581
6.42469
6.34895
6.49375
2.80891
2.40657
2.17185
2.32543
2.17337
4.62407
4.90764
5.10105
6.84678
6.67148
6.62222
3.49235
3.584
6.13959
5.6651
5.53422
5.89355
6.21991
2.01531
2.05622
2.01922
1.95716
2.02017
2.05824
2.05468
3.80788
3.9445
4.18012
3.99207
4.18328
6.18344
6.27425
6.92987
6.69627
6.67582
7.01088
7.02341
13.097
4.73132
4.63029
4.55928
4.66451
4.38562
4.38831
3.75957
3.63235
4.51257
4.26985
6.29892
6.71777
6.99713
7.78636
4.72925
4.80443
4.62714
4.95273
4.56355
5.30483
5.19482
5.10994
4.80775
3.66389
3.41521
3.6422
3.68949
4.13956
3.44714
3.29148
3.12246
4.45298
4.25529
4.06703
4.62169
4.1984
7.47599
8.15735
9.96608
9.25015
7.80786
13.1195
15.5135
3.99023
4.18147
3.945
6.80589
7.00689
6.70232
3.55159
3.1275
3.80595
4.27727
3.5074
3.21007
3.4227
2.8797
2.97471
2.85441
2.76176
2.98037
2.75593
2.93779
2.80843
2.92261
2.81054
2.89695
2.9885
4.1036
4.54874
4.18146
4.42322
4.4901
4.27003
6.82544
7.09713
6.80028
6.93882
6.64781
6.66642
6.5122
14.9874
17.7844
7.96445
9.09057
10.7394
8.04763
9.89781
2.93969
2.76446
2.87658
2.74116
2.84144
3.12613
3.25972
3.49708
3.2187
3.64671
3.56546
4.14059
4.08256
4.5548
4.57093
5.16672
4.69536
5.03637
5.06169
4.75291
4.92684
5.16322
5.05748
3.22154
3.35814
2.96447
2.9056
2.77484
2.74475
2.84704
4.261
3.82028
4.11442
2.98444
2.93148
3.12974
3.4725
3.40526
3.22988
3.19922
3.37534
2.96143
2.83726
2.91906
9.40412
6.78703
9.0493
7.40978
14.5352
15.835
3.99891
3.80894
3.62639
3.97071
3.75625
4.6264
4.34019
4.71172
4.36758
4.57871
5.07248
4.89828
5.07853
4.90937
4.73965
4.77267
5.31416
4.37989
4.84472
4.44474
4.19134
9.30429
10.5026
4.59092
4.60749
2.49837
2.4122
2.26074
2.21183
5.71063
5.75704
3.54198
3.66185
4.89606
4.19494
4.04946
4.91497
9.73316
8.90862
5.71568
5.86209
7.45327
6.98533
7.23557
7.12488
6.98104
6.67416
6.52745
6.76936
6.7175
6.64719
5.77745
5.37323
5.14342
7.62334
8.94095
15.473
16.263
5.43841
5.20542
5.52424
2.78866
2.1522
2.38667
2.33273
2.0776
2.1198
9.67264
7.94572
6.38221
10.6341
6.42761
8.59923
2.89468
2.7351
3.42914
4.82435
5.20514
4.8771
5.07865
5.16257
4.99935
6.1112
5.5391
5.86383
3.34499
3.70172
4.35049
4.8149
4.73538
4.24854
4.48245
5.006
5.09732
4.66023
4.59202
4.83704
3.8047
3.62489
4.05299
8.12805
6.83382
7.96087
6.31646
5.92112
2.28328
2.14016
2.18224
2.1513
2.23918
2.15358
2.13719
2.01939
1.9205
2.06201
1.99902
2.04808
6.47181
6.65234
6.8581
7.7544
5.40991
5.74603
5.14562
2.80185
2.79649
2.8865
3.73094
3.87049
4.14581
6.82361
7.04898
6.93041
6.76171
6.66801
6.70204
7.01581
9.22802
8.29595
2.09217
11.2651
8.59759
10.7354
2.34885
2.16558
2.73125
2.54403
2.36478
6.56132
6.78511
5.50381
5.90917
5.41215
2.10841
2.14351
3.35056
2.59912
2.32852
2.21732
5.96184
5.84345
5.91549
5.89735
2.6461
2.66416
4.10234
3.91938
3.7917
5.05693
4.54451
4.37803
6.46986
6.03049
3.77401
3.5514
4.15886
3.91598
6.92816
6.55727
6.79546
10.3939
17.4537
26.6156
13.6262
16.5614
3.37641
5.74756
1.56324
3.26537
3.19728
19.4256
26.3396
5.83714
26.2167
4.16715
24.8472
22.9177
14.9221
16.1249
23.4772
18.7507
18.2912
18.1421
18.8675
25.4982
15.5051
14.1552
15.6473
14.237
16.686
18.4214
23.0436
19.1975
2.22595
16.638
17.7436
12.4657
17.4598
19.9929
17.7373
19.1731
21.0302
16.0525
17.084
1.59305
1.79067
15.1762
19.003
11.9111
2.12106
18.0936
11.3743
18.9473
22.8819
22.3209
9.02127
17.1789
17.4299
19.0023
18.1566
16.3658
18.4351
15.9321
18.2644
16.3346
6.76065
6.1536
2.02138
1.84414
2.24057
16.9097
19.2195
11.697
22.6458
16.3247
15.8578
17.7914
7.73401
10.6254
5.13515
5.37771
3.16999
3.19508
17.1791
15.0566
16.8345
15.0618
8.63371
12.9542
8.7426
27.1347
19.2395
23.486
22.1678
16.1443
16.3497
17.8859
16.6205
17.6074
15.5447
19.6033
19.958
17.6033
16.7835
17.9351
18.4253
19.4459
16.82
7.77078
9.48032
16.5314
17.4911
15.5158
4.13462
9.07214
13.5027
8.54929
3.71028
3.33617
3.7506
1.55781
1.77047
1.51458
19.5668
18.4569
23.097
21.4389
17.5818
19.6962
19.3902
3.5083
29.5711
22.638
14.7377
14.135
13.5118
14.5544
14.6667
15.1445
13.4417
14.0669
13.8596
3.70051
3.91297
17.1058
16.4957
14.4879
20.0665
16.0073
18.8469
20.4478
20.2826
1.5011
1.70537
17.5105
18.4507
16.266
15.0414
9.05213
1.44461
2.4885
3.51905
3.26055
3.36718
8.71705
13.3485
7.81764
1.58701
2.21357
2.52595
2.6996
1.77722
2.24897
15.7381
17.1273
20.8034
17.9914
21.4592
16.8722
19.8755
18.6521
20.8027
23.0579
10.2152
1.49758
1.69222
1.49498
1.73034
18.2818
16.6895
16.7199
20.9601
17.5205
29.4889
23.1548
27.3362
21.1622
1.48627
1.72487
2.04752
1.87879
2.57205
2.7878
2.24058
2.47262
21.7723
18.4602
2.25641
2.09349
1.58615
1.88384
22.8589
19.4863
2.63233
21.9469
16.4559
17.7987
21.6965
1.72639
1.47116
1.6927
17.8357
3.73084
3.5426
3.96333
26.183
19.7376
20.3893
9.65238
10.6772
1.6259
1.93149
27.3945
22.404
36.8626
25.0831
28.1224
21.3192
20.6975
26.0122
1.52343
1.76991
1.69694
1.51659
1.75673
1.45599
21.3008
17.9666
24.4352
2.93221
3.08383
5.51057
5.22707
4.36769
4.63487
4.84284
1.45718
1.66307
14.6536
15.3502
14.832
12.5951
32.646
17.6654
41.3261
24.7108
21.6331
18.4907
1.63491
1.49642
1.71251
22.5194
26.802
24.1802
25.6894
1.66178
1.48562
1.69162
3.00856
3.64249
3.20692
2.8978
3.79153
2.9564
1.48657
3.12924
3.92079
3.2023
2.26894
2.65112
2.80518
31.4963
21.9319
3.40417
3.48863
16.9728
19.0531
17.2827
21.2736
19.8059
24.9268
4.70317
4.44392
4.96559
32.1622
24.8403
24.6649
21.7102
20.4586
1.94153
2.4539
9.46692
15.2505
9.0261
12.8578
24.3662
20.0746
18.135
20.2929
1.45933
30.1719
20.9458
3.84928
3.71532
4.04577
7.01656
6.31577
8.011
1.49946
14.2349
17.5708
17.0276
1.49072
1.67033
20.8971
23.3769
22.1605
1.44363
1.62045
23.0171
10.9924
12.7198
22.2176
17.8153
20.9345
19.3071
15.5564
17.8277
1.45328
1.62324
1.61541
25.9908
1.53132
16.7175
16.9063
18.5533
26.2101
23.3646
44.4035
31.5249
2.04361
2.43636
23.3665
19.6203
22.1512
26.5015
2.11176
1.73203
33.3148
24.9542
1.41344
1.60865
1.50262
1.68642
1.6987
31.1585
21.3472
24.8275
1.68441
1.45163
1.61201
45.5662
37.6442
30.4016
23.0779
23.3458
3.94102
3.97772
1.50065
1.73064
1.66934
24.3336
20.2689
15.9093
36.9796
25.2841
32.2094
20.737
18.6373
1.63115
1.42275
1.62726
9.94661
7.82499
1.51008
1.76252
1.76587
12.4894
20.704
18.3717
23.1837
28.213
16.7893
24.2907
25.9
25.7289
30.2214
19.0046
23.5622
1.57552
1.79906
1.76812
31.4679
21.6777
24.0129
1.87671
2.22587
20.5671
26.4099
9.52166
21.7407
13.6326
2.00662
19.9189
17.4016
23.0725
19.5851
20.8397
17.1731
20.3967
18.2047
15.5531
18.6425
1.73045
1.8707
20.9058
10.3344
10.5463
1.60124
1.73744
1.56867
1.69522
7.69168
3.36385
3.5299
2.42664
1.99702
2.30068
6.31658
6.95954
6.18762
6.14727
2.3291
5.93232
5.64371
7.5034
3.31242
3.32057
5.79857
6.34449
7.23838
2.89512
4.78817
6.7316
5.10548
4.98947
5.26543
3.16184
4.45427
7.14807
6.86318
6.43531
3.65262
5.96026
5.85458
6.01949
5.59019
5.00178
5.11919
2.14485
7.37804
6.10273
3.73499
2.09926
2.13095
4.62284
6.63635
6.46748
6.52527
6.25599
5.70541
5.80851
6.45836
6.56302
7.73606
3.29605
5.0237
2.06021
6.99075
8.65803
11.5484
3.30322
7.79705
3.6781
4.54835
4.99552
4.22306
4.6393
2.26412
8.83521
3.05173
4.84942
3.56561
8.42481
4.35782
4.00353
2.87559
3.64249
4.03196
3.77731
2.65626
2.79634
4.54591
3.5668
2.12184
2.15577
4.15537
2.51892
3.09351
5.96696
3.39804
4.70142
6.14241
4.83715
4.66909
4.75934
3.49087
5.37244
6.31985
6.06772
5.80882
3.46659
2.89317
5.06489
5.03519
8.22836
5.35507
5.99719
6.76047
6.54193
6.87893
2.42835
2.56906
5.6711
3.49962
2.02904
6.24319
5.89693
4.827
6.18042
6.04784
3.8927
4.22354
6.70773
6.51822
6.80396
6.04342
4.5489
8.25061
6.32596
6.64078
3.57329
6.62975
5.03279
3.62503
2.16536
5.31264
6.37309
4.72569
6.81487
6.53867
5.43884
5.33348
8.40259
3.249
3.12338
3.26877
10.9114
6.65824
2.21721
9.93357
2.05548
4.54227
4.02758
2.61426
6.83419
6.98878
7.20626
5.51128
7.69799
7.31054
6.96817
7.04835
9.65312
6.26375
8.86871
2.32278
2.38063
4.44235
4.58431
4.12703
3.93299
8.22263
7.86894
6.58427
6.79203
7.06929
7.25567
5.83483
4.44734
3.30034
5.99809
4.61651
6.77406
7.62102
5.94925
7.41159
7.37664
11.0241
5.75838
5.65732
6.60012
2.30694
3.27198
6.28434
6.5073
6.84678
6.62398
6.08878
6.32359
2.26167
7.51252
7.63661
7.60569
4.68001
5.15463
5.4312
4.68917
5.2291
5.8131
6.13823
4.53284
10.3036
11.7678
5.43351
10.6787
2.92551
3.14867
2.95706
4.3131
2.16569
9.90276
8.79596
7.34365
3.30085
3.3615
3.58669
3.65622
3.51635
9.71222
11.6236
3.7538
7.35114
5.68233
5.33373
5.02717
5.6506
5.32876
5.42993
3.39825
2.72971
2.71705
2.79036
2.77331
4.33682
5.34161
5.62531
2.81797
3.32009
5.23884
3.73754
4.19504
8.89934
7.01614
6.44995
6.75882
3.31485
4.88392
5.04596
9.51971
5.81076
6.0663
6.22952
6.24477
3.53104
3.75562
2.19355
2.35749
2.43302
4.206
6.22526
6.55583
6.29937
6.42395
6.01385
5.95637
6.08028
4.02411
3.96637
4.25228
10.8374
8.50245
10.1304
8.32462
4.70576
4.64513
5.49423
6.50169
5.87787
6.10206
4.96645
6.98225
6.21132
10.4434
9.64382
12.2269
2.00163
5.68178
4.96236
5.39906
4.79373
5.18208
3.06366
3.14753
6.47212
6.51612
6.36291
6.91325
6.23951
6.95264
6.34442
6.1561
6.12978
6.46294
4.89606
4.29129
4.56399
4.28407
5.26227
5.08431
6.13533
7.09683
6.97115
7.10775
2.00791
6.36629
4.26033
3.16496
6.25694
6.40858
3.55764
2.96049
8.43583
8.00218
2.40638
6.60115
5.68056
4.95782
4.37428
7.19095
5.37106
5.25679
4.87197
5.79433
3.50945
4.49954
5.37552
6.11191
6.14509
6.59165
4.17795
4.45866
4.5211
2.08142
4.00532
4.05177
6.24143
6.74792
6.43188
6.63444
6.47753
6.25494
3.84447
3.56231
3.93491
3.34731
5.68606
7.33203
9.14368
6.36089
6.50366
6.7498