/*--------------------------------*- C++ -*----------------------------------*\
| =========                 |                                                 |
| \\      /  F ield         | OpenFOAM: The Open Source CFD Toolbox           |
|  \\    /   O peration     | Version:  2206                                  |
|   \\  /    A nd           | Website:  www.openfoam.com                      |
|    \\/     M anipulation  |                                                 |
\*---------------------------------------------------------------------------*/
FoamFile
{
    version     2.0;
    format      ascii;
    arch        "LSB;label=32;scalar=64";
    class       volScalarField;
    location    "180";
    object      k;
}
// * * * * * * * * * * * * * * * * * * * * * * * * * * * * * * * * * * * * * //

dimensions      [0 2 -2 0 0 0 0];

internalField   nonuniform List<scalar> 
184166
(
3.9503
2.65815
2.56968
3.95936
3.43254
3.4668
2.14508
3.16315
3.98303
3.69483
3.91243
2.81198
2.86035
3.14704
3.58207
3.83637
4.03136
3.68464
2.74638
3.87462
2.71676
2.67894
3.29465
3.38638
3.7857
3.67597
3.5298
3.91855
3.65247
2.75572
3.86869
2.06892
4.45443
4.14884
4.01568
2.92313
2.73542
3.84534
2.96204
2.41302
3.71738
2.8903
3.64729
4.05171
3.98887
3.64499
2.34153
3.40966
3.85251
3.66946
2.26999
2.09009
2.39505
3.77941
4.021
3.49608
3.76022
4.04138
4.0109
3.00241
2.70248
3.02511
3.87978
4.07422
3.79472
2.04651
2.49737
3.66997
2.12658
3.97704
2.5537
3.95864
3.93548
3.87788
2.95842
3.6399
3.35468
3.86862
3.11711
2.36737
2.28355
2.94731
3.70976
4.03604
3.75683
3.93156
3.05022
2.63187
3.1849
2.79016
1.98443
3.40583
3.69831
3.43805
3.39476
2.58334
4.04165
2.06191
2.68412
3.92184
2.8071
2.76323
3.69818
3.64602
2.1378
3.30244
3.92236
3.33656
2.07255
2.82039
2.4239
3.87186
1.97616
2.59069
3.83552
3.57137
2.96794
2.59054
2.14511
2.53147
3.86082
2.76768
3.75454
3.70794
3.67058
3.37719
3.75976
3.75442
3.69237
3.65525
2.67423
3.74147
3.15536
3.32257
3.01026
2.86082
2.94277
3.12655
3.17991
2.55206
3.32955
2.13039
2.1591
2.75946
2.98111
3.91521
2.58611
3.65618
4.08888
3.8231
3.85179
3.6389
3.87193
3.75585
3.84772
3.87928
3.8172
3.7197
3.9828
2.43887
2.0094
2.22565
3.60568
3.14262
3.12533
3.75521
3.74891
3.66598
2.03291
3.75388
3.75742
2.90879
3.2151
4.34975
3.72916
2.26989
2.31707
3.85366
3.67736
3.20018
2.00229
3.68173
3.14894
3.73901
3.7729
2.97704
3.78684
3.30831
2.12368
3.9295
3.55656
3.95883
3.35156
2.07596
4.29109
3.69902
3.60863
3.85971
4.15154
3.73219
3.92266
3.65512
2.06099
3.67379
2.32943
3.76111
2.88638
2.74507
3.01937
3.70048
3.9747
3.68402
2.96012
3.10353
2.72821
3.27438
3.73093
3.60141
2.26264
2.2175
2.84857
3.10129
3.30391
3.69605
2.27647
2.79159
2.89187
3.98507
3.76653
4.25377
3.91796
2.56264
3.32365
3.77764
4.02612
3.40937
4.02246
3.67969
3.80175
2.08148
1.97589
3.89756
2.56771
3.63772
2.38282
3.60338
3.65217
2.87059
4.31363
4.22593
3.2768
3.61293
3.92998
2.76301
3.1835
4.04063
3.37969
3.69483
3.79366
3.38166
3.00132
2.46752
3.98342
2.75105
3.92244
3.76373
3.80359
2.52045
3.85263
3.28851
3.6522
2.30773
3.02091
3.83929
2.78853
3.20072
1.99781
3.23961
3.09497
3.28328
2.68375
4.69323
3.22966
3.77194
2.42407
2.85524
4.41146
3.66205
3.65007
4.00057
3.54331
3.5116
3.65827
4.07826
3.87672
3.50021
3.48044
3.87448
3.71406
3.65042
3.71812
3.35474
2.24935
3.72435
3.65156
3.15049
3.67626
3.9096
2.53931
2.10242
3.74783
3.95348
3.79918
3.85682
3.81503
3.3194
3.37789
3.29032
3.59701
3.42484
2.76657
2.9317
2.90933
3.4151
3.72473
2.12698
3.82666
3.38141
2.64469
3.7352
3.97619
2.48444
2.42178
3.85657
2.12164
3.74238
3.47775
3.18489
3.81275
3.06655
3.50944
4.00927
3.86291
4.28228
4.04765
4.16566
2.6017
2.09763
3.06462
2.27977
2.26074
3.75715
4.00776
2.49532
2.80667
3.93975
3.86207
3.1153
3.88457
3.66003
3.06716
2.03879
3.89337
2.55866
3.72634
3.75398
2.11277
2.64995
2.55877
1.96823
2.01477
3.76827
4.00018
4.07658
4.32813
4.21134
3.93111
3.64558
2.69699
3.42015
3.53921
3.58536
3.78004
3.77776
3.44412
4.06342
3.93054
2.98676
3.16194
3.15349
3.41896
3.70276
3.71359
2.00845
3.27017
2.05271
4.22768
3.3107
3.07713
3.24132
3.97968
3.57943
4.13908
3.90164
2.41283
3.51452
3.98435
3.95329
3.37262
2.75668
3.57657
3.11433
3.16036
2.99527
2.96896
2.69242
3.88763
2.38692
2.32291
2.26459
4.28541
3.10064
3.07398
3.07526
2.96765
2.08102
2.14912
2.20608
2.63219
2.58278
2.65081
2.16884
4.2083
3.90293
4.12256
4.09927
3.8761
4.0609
3.76423
3.76986
3.89033
3.89112
4.045
3.9835
4.01627
3.95763
4.34924
4.46988
3.70776
3.79679
3.60092
3.60727
3.65356
3.73709
3.4323
3.75811
3.71124
3.69427
3.72702
4.31487
3.90293
2.13888
2.06801
2.04574
2.03173
2.33086
2.15268
2.26086
3.83986
3.90645
3.88726
3.95663
3.91519
3.79208
3.33895
2.98558
3.22206
4.13688
3.70582
3.67809
3.67052
3.66211
2.00043
1.96031
2.85097
2.91812
2.8432
2.75257
2.70184
2.74586
3.1766
3.58533
3.48422
3.55778
3.00404
4.12125
4.04812
4.03271
4.08462
4.19226
4.12077
4.1089
3.84655
3.77406
3.77399
3.7527
3.86917
3.77844
2.75351
3.69588
3.80202
1.97684
2.00983
1.97084
3.98154
4.26489
4.09757
3.79188
3.9042
3.82013
3.91225
4.01015
4.26736
3.71142
3.77091
3.82043
3.82432
4.19066
4.21465
4.43265
4.38435
4.13196
3.91955
4.16582
4.46114
4.18992
4.29017
3.8398
4.1146
4.45765
4.33679
4.01847
4.19318
3.94762
3.8744
3.96953
3.86915
2.34659
3.16844
2.92519
2.827
3.17259
2.94617
3.10837
3.18241
2.89094
3.06772
2.69609
2.56147
4.08775
3.96705
4.12119
4.07761
3.93973
4.0488
4.04811
4.03391
3.85079
3.67197
3.2539
3.18996
3.27708
3.41177
3.72258
3.80116
2.14946
2.40938
2.03615
2.03432
2.08701
2.05422
4.1091
4.11665
4.23516
4.27035
4.39736
4.35161
4.11862
4.40679
3.76508
3.74423
3.77585
3.84255
3.78262
2.013
3.46474
3.3375
3.29871
3.89947
3.93857
3.92604
3.95186
3.93368
3.91655
3.94605
3.96276
3.9835
3.86392
4.00796
2.71853
2.68269
3.02774
2.7727
3.81936
4.02822
4.06502
3.98248
4.17655
3.87485
4.21216
4.08812
3.59381
3.81358
3.70874
3.81275
3.95941
4.06581
3.76235
3.57451
3.50728
3.48927
3.29389
3.2072
4.27663
4.23163
3.78277
3.74593
3.7615
4.07944
3.81721
3.02346
3.6675
3.82753
3.90663
3.81146
3.83437
3.84116
3.86984
3.86611
3.90454
2.27432
2.46273
3.72853
3.96125
4.16767
3.9584
3.46879
4.08122
3.93739
4.05102
4.03036
3.92561
4.00114
2.16594
4.34784
4.45457
4.33017
4.37062
3.01999
4.20283
4.29516
4.07856
4.15619
3.90016
4.14017
2.45418
2.1391
2.16152
2.31905
2.3209
2.17038
3.14873
2.46598
2.58635
4.03157
3.81
3.98482
3.14658
2.94215
3.14255
3.02831
2.94422
3.03709
3.67688
3.73621
3.6752
3.68586
3.7084
3.89264
3.18739
3.15235
4.04829
3.68561
3.39967
3.44879
2.61678
3.3843
3.87691
3.85527
3.15208
3.27812
3.19067
2.9503
2.84044
2.94676
2.84172
2.99846
3.50295
3.90277
3.81751
3.84029
3.10698
3.25251
3.41927
3.46845
3.5326
2.80232
3.30927
3.42523
3.5639
3.5707
3.81645
3.66433
3.02714
2.99726
2.78056
2.93091
2.97584
4.05526
3.68885
4.03908
4.15405
2.86228
3.14764
2.02595
2.03212
2.01554
3.76877
2.89335
3.1418
2.87469
3.89327
3.49563
3.64994
3.46706
3.09743
3.14703
3.22149
3.17952
3.7582
3.38153
3.77257
3.51583
2.78412
2.70614
2.78933
2.73998
2.70247
2.72169
2.67875
2.65924
2.64598
3.27288
3.16761
2.74088
2.77645
2.70181
3.51824
3.34889
3.53133
3.45194
3.7588
3.82699
3.79015
4.20501
3.56525
3.5312
3.38773
2.76058
2.88557
2.01926
2.01555
2.02958
2.0272
3.18209
2.81146
2.7557
2.73132
2.68732
2.6907
3.61989
3.68614
3.94587
3.74021
3.82217
3.97197
3.24092
3.25485
3.35533
2.59713
2.69978
2.68172
2.68756
2.68545
2.03575
2.06999
3.80939
3.81949
2.07403
2.1615
2.08796
2.05905
3.96326
2.29816
2.59898
2.3125
2.43417
2.82959
2.97399
2.98862
2.86586
4.0191
3.55611
3.61704
3.46501
3.37353
3.62725
3.70265
3.93947
3.1821
3.05045
3.33206
3.11614
2.98687
2.61217
4.20593
4.28125
4.3734
3.57874
4.19551
4.05949
3.62882
3.33378
3.42968
3.63016
1.94532
1.91315
3.33949
3.12817
3.07079
3.48721
3.10404
3.36967
1.93886
1.92107
4.15323
4.19247
4.06265
4.15188
4.15033
2.63505
3.82967
2.99166
3.64748
2.04337
2.09155
3.71388
3.71757
3.69274
3.69342
3.74141
3.74525
2.22212
2.41944
2.89473
2.798
3.63106
3.98263
3.55392
3.79154
2.24289
2.23401
4.06589
3.96657
3.56599
3.62213
3.68932
3.57104
3.65932
3.70629
3.99075
3.89617
3.94307
2.42275
2.88096
2.57964
3.47241
3.48159
3.70196
3.60735
3.97128
3.90776
3.94243
4.01109
4.19047
4.16596
3.98343
4.05882
3.93494
4.11802
4.02253
3.89975
3.9257
3.60175
3.52256
3.64692
3.48053
3.13792
3.21989
2.96797
2.80451
2.78262
2.85052
2.73273
2.8251
3.0257
3.90965
3.7244
3.66512
3.68813
3.58157
4.25643
4.22078
3.91313
3.55382
3.77428
3.15784
3.62937
3.65104
3.57728
3.57445
2.39059
2.32381
2.48142
2.41449
2.32062
3.71795
3.77426
3.75438
4.24602
4.27425
4.07553
4.11364
4.423
4.42856
3.93694
4.14088
3.95891
3.867
3.8363
3.10283
3.21227
2.96947
3.54889
3.41211
3.60282
3.67035
3.69339
4.05353
3.95889
3.86732
3.89834
3.69176
3.82859
3.94624
3.76401
4.18769
3.04787
3.17038
3.13084
2.97494
3.16055
3.16593
3.2763
2.96691
3.79979
3.78792
3.85234
3.79364
2.41548
2.58322
2.41762
2.43043
3.04219
2.97202
3.93059
4.1261
4.06216
3.90621
4.33887
4.18433
3.84466
3.78511
3.8441
3.89149
2.16078
2.02172
2.00051
1.94686
3.68811
3.7448
3.68093
3.6825
3.35655
3.32536
3.38483
4.47871
4.43312
4.39373
4.34301
4.3254
4.3804
2.84421
2.62958
2.7387
2.52344
3.20467
3.33244
3.33599
3.37701
4.39468
4.2548
4.31705
4.05894
4.26619
3.59154
3.44372
4.17782
3.72816
2.97931
3.08692
2.72784
2.75989
3.00193
3.70255
3.67979
4.45443
3.98479
4.02951
4.1092
4.08312
2.16097
2.12117
2.09985
2.72054
2.702
3.04822
2.96723
3.07171
3.0403
3.45385
3.35854
2.5213
2.19857
2.64178
3.35156
3.48053
3.87977
3.8398
4.07941
3.87882
3.86584
2.0591
2.04612
2.06113
4.44201
4.36121
4.07227
4.07617
2.06476
2.0446
3.65087
3.70468
3.40169
2.83158
2.92599
4.37603
4.13228
3.62927
3.65897
3.64188
2.01649
2.01547
2.01417
1.99771
2.00345
3.47881
4.02023
3.56807
3.47609
3.34897
3.36565
4.10253
3.58154
3.58742
3.63791
3.60184
2.83015
3.85861
3.83883
3.6973
3.71391
2.59875
2.62797
2.59136
2.59185
4.3427
4.21564
4.03966
4.15656
3.99717
4.05878
3.02765
3.00626
2.90633
3.82871
3.91747
3.59618
2.70157
2.26865
2.29372
2.47748
2.33727
3.03198
2.57024
2.43027
2.82383
4.54347
4.63494
3.66306
3.40909
3.64564
3.37939
3.50639
3.80382
3.87136
3.79653
2.05687
2.02431
2.03711
2.07263
3.74223
3.61869
2.35076
2.19819
2.16975
1.90911
1.90837
3.08485
3.22594
3.24231
3.03083
3.11871
3.25361
2.8389
2.59026
2.10739
2.10222
2.14838
2.07512
2.06699
2.80808
2.74332
3.49753
3.46994
3.63234
3.54916
3.73229
3.76098
3.55873
3.62162
3.49122
2.11288
2.31393
2.90007
3.0393
2.43502
2.43041
2.43278
3.71979
3.72747
3.75789
4.05072
4.32955
4.16522
4.07825
4.24694
4.343
2.05651
2.45618
2.28975
2.42062
2.41396
2.65588
2.67016
2.23279
2.24456
3.60576
3.67554
3.67713
3.73236
2.23135
2.21935
2.22447
2.26217
3.61773
3.65009
3.431
3.57765
3.11362
3.47228
3.16762
3.37993
4.48906
4.49698
3.33801
3.18102
2.46967
3.07651
2.92315
2.93676
2.75728
2.199
2.59578
2.46333
2.92714
2.6233
2.70673
2.49663
3.5146
3.45968
3.12398
3.30601
3.27818
3.35604
2.4328
2.551
3.33772
3.57487
3.08387
3.08808
3.04769
3.00486
3.07313
3.19322
3.30383
3.5361
3.52122
3.3732
4.2594
4.19578
4.39661
4.27029
3.78381
3.81339
3.19291
3.30582
2.05658
2.09296
2.05991
2.09557
2.08867
2.08825
2.13004
2.09209
2.64528
2.62748
2.6823
2.75375
2.75484
3.72217
3.79917
3.83938
3.69852
3.73539
3.96352
3.95383
3.85416
3.8301
2.93276
2.88327
2.01395
2.01879
2.02726
2.0464
2.04662
4.39034
4.16647
3.08678
3.14303
3.19838
3.86058
3.72791
3.99859
3.69474
3.67918
3.10422
3.75048
3.76139
3.84087
3.74398
3.65809
3.74876
4.16716
3.99341
3.98262
4.09136
3.99837
3.90547
3.71806
4.00815
3.94466
3.28869
3.13496
2.93394
3.73654
3.74646
3.69611
3.70961
3.53491
1.92567
3.57294
3.62735
3.65713
3.62222
3.68567
3.76081
3.76419
3.83665
3.86319
1.95612
1.93244
1.92633
2.05607
2.05542
2.05979
2.06223
4.62354
3.98535
4.01876
4.16184
3.96563
3.7899
2.95954
3.97445
3.95592
2.39838
2.67167
2.41342
2.63235
2.67537
2.81251
2.79806
2.61854
2.77259
3.51739
3.48415
3.90897
2.04853
3.78548
3.44786
3.19606
2.3801
2.38769
2.41021
3.0183
3.12315
2.95264
2.88816
2.73417
3.5897
3.48151
2.73846
2.68155
2.6306
2.63444
2.73405
2.63891
3.82836
3.91933
3.92837
3.25421
3.35105
3.53648
3.35842
3.22927
4.1248
3.87188
3.8911
3.52514
1.91338
1.89367
4.06959
3.55133
3.41261
3.48552
3.4869
3.82398
3.60922
3.71425
2.00882
2.042
2.02824
2.03956
2.02112
4.42717
4.24153
1.91307
3.62561
2.76001
2.50493
3.27004
2.89455
3.29024
3.05348
2.81758
3.95265
3.77245
3.88122
3.88308
3.92091
3.50906
3.05294
3.0338
2.04661
2.04445
2.04467
2.03637
2.03394
2.04334
3.68711
2.18607
2.03774
1.89974
1.961
1.92592
3.97262
3.96633
3.69618
3.41704
2.78311
2.78931
3.03881
2.62947
2.29608
2.69796
2.58987
3.85809
3.77865
3.91975
3.82223
3.73253
3.75102
3.70517
2.21917
2.29046
3.35862
3.38817
3.20457
3.31846
3.29938
3.63402
3.61443
3.66143
3.28393
3.43229
2.85947
3.08581
3.11559
2.81606
2.95438
3.13759
2.95596
2.99932
2.92361
3.09255
3.17528
3.71038
3.76348
3.78065
3.72527
3.76258
2.30017
2.23232
2.62527
2.39023
2.72889
2.54466
3.77284
3.90846
3.858
3.93704
2.90065
3.11204
2.99688
2.91621
2.77643
2.57908
2.66523
2.02984
2.0282
4.33671
4.47827
3.69725
3.64652
3.66629
3.51046
1.97648
1.94486
1.89725
1.97721
1.94225
3.92415
3.93049
3.51498
3.43764
3.41133
3.04748
3.0884
2.95535
2.50985
2.55736
2.47917
2.49315
2.0214
2.02789
2.02236
2.03113
3.43271
3.69595
3.72841
3.65417
3.24577
3.3222
2.86987
3.97648
4.02293
4.22853
3.96125
4.10676
4.07398
2.2004
2.4242
2.14857
2.24948
3.36955
3.54626
3.49089
3.52859
3.40456
2.03491
2.02278
2.02358
4.38754
4.34377
3.41109
3.27951
3.11398
2.43984
2.77516
2.79592
2.46915
4.09848
4.13155
4.12217
4.19006
4.15229
4.1584
3.44238
3.53117
3.58598
3.37531
4.38672
4.67109
2.77203
2.89501
2.48624
4.45021
3.31346
3.24027
3.27012
2.7195
4.47591
3.75475
3.76374
1.93316
2.48047
2.38819
2.42007
2.47026
2.38685
2.38798
2.04025
2.03551
2.18367
2.08522
2.45064
2.54374
2.45261
2.49737
2.45108
2.54509
2.45134
2.50452
2.85623
2.66479
3.43023
4.27989
4.48398
2.93586
2.04638
2.0141
2.01686
2.02559
3.4192
3.29209
3.24094
3.65444
3.38662
3.41772
2.86601
3.73062
3.70553
3.74381
2.61527
2.5678
2.36052
2.34647
3.38068
3.46036
3.74141
3.75735
3.74523
3.87049
3.53919
3.58754
4.24298
4.19086
4.46711
3.10567
3.52986
3.44351
3.02005
3.31038
4.11701
4.05338
3.98586
3.68099
3.94937
1.96606
1.90806
3.55443
3.6499
3.71491
3.72351
3.55751
3.61473
3.65023
3.70316
3.61896
3.64752
3.70485
3.71788
3.54779
3.64204
3.57045
3.62598
4.03646
3.99051
4.07139
4.04129
1.89321
1.86565
1.94156
1.99874
3.31133
3.2913
4.18516
4.25187
4.11309
3.17256
3.1742
3.20679
3.97498
3.84507
3.88786
3.91108
3.9877
3.13559
3.44916
3.07489
3.16822
2.94096
2.94816
2.65508
2.60104
2.61951
2.79
3.3239
3.48747
3.69822
3.71385
4.40877
4.38551
2.04924
2.04653
3.77766
3.713
2.56635
2.54176
2.54373
2.50506
2.53135
2.54377
2.36694
2.28925
2.42112
2.19582
2.22173
2.32787
2.18899
3.18484
3.08783
3.08933
3.00402
3.42224
3.38264
3.22857
3.33286
3.22696
3.28324
4.04077
4.099
4.1606
4.04295
4.15073
3.64413
3.70134
2.93907
2.77055
2.74247
3.05044
3.44927
3.51482
3.51507
3.20597
3.07405
1.9012
1.84965
2.61617
2.73954
3.18144
2.21686
2.16191
2.16664
2.35106
2.25868
3.80127
3.74907
3.77131
3.71335
3.7674
3.37974
3.4402
2.11323
2.24157
2.14232
2.16613
2.28093
2.15573
2.30161
2.46202
2.50813
2.3323
2.05562
2.03861
1.95396
4.40794
4.38119
4.41197
4.26105
4.45625
3.54053
3.41568
2.97382
3.43243
3.48938
3.37763
3.36318
2.33495
2.73336
2.52835
2.52685
2.33861
2.31957
2.17697
2.4953
2.41688
2.14131
2.1996
4.45562
4.3355
4.08219
4.02747
4.0405
3.36377
2.78047
3.1506
4.10009
4.45834
4.21265
3.74663
3.64895
3.69131
3.00357
2.84357
2.42658
2.32092
2.7686
2.40754
3.08287
3.13067
3.05202
3.13478
3.27021
3.32044
3.19963
3.07469
3.0626
2.26872
2.15867
2.23938
2.9603
3.68281
2.97628
3.34981
3.73867
3.59265
3.28305
3.62265
3.34351
3.94355
4.22085
3.79273
3.01487
3.08712
3.2574
3.32053
1.99879
2.04606
2.10587
2.09645
3.72256
3.67265
2.07848
2.0724
2.99988
2.95427
3.00778
4.53992
1.85965
1.88171
1.9266
2.21553
2.08795
2.10755
2.83547
2.70462
3.59747
3.58252
3.50525
3.46803
2.48681
2.55075
2.82823
1.8764
2.86871
2.75082
2.63966
2.83215
2.68475
2.63803
2.88751
2.76146
2.85756
2.69481
2.80587
2.79908
3.04703
3.79678
3.76527
2.0624
2.12891
1.99345
3.61675
3.55741
3.57524
3.42462
3.39981
3.34684
3.33923
3.12081
2.98192
3.0045
3.0072
3.04233
2.81884
3.08619
2.97999
2.90015
3.04974
2.67556
2.67191
2.68977
2.7182
2.70919
3.11262
2.95465
2.97023
3.09455
3.01419
3.02613
2.95444
3.10586
3.08274
3.08178
3.02324
3.54791
3.47974
3.57206
3.52358
3.47156
4.07659
4.0055
4.02903
4.05065
4.07935
3.06214
3.17447
3.05081
3.22532
3.16728
3.73757
3.73031
1.96721
2.57253
2.7425
2.81771
3.45732
3.37474
2.39215
2.29349
2.2933
3.80064
3.66335
3.82266
4.51358
4.10738
4.02319
4.47521
4.49008
4.16346
4.40459
4.44743
4.30591
2.93046
3.09837
3.73179
3.70832
3.70158
3.73878
2.62642
2.48908
2.28184
2.94235
2.24903
2.61909
2.67733
2.42984
3.8424
4.06781
3.89608
4.83907
2.26113
2.42799
2.48201
2.97364
2.97339
2.71844
2.70211
3.24086
3.19494
5.39176
3.75024
3.62991
3.9329
4.00918
3.04667
3.25626
2.90009
2.59735
3.32083
3.39608
3.38326
3.41829
3.76466
3.76375
3.72763
3.72564
3.72081
3.72731
3.74014
3.70857
3.71073
2.55219
2.4995
3.20649
2.35134
2.38277
2.74914
2.63887
3.43652
3.2918
3.39506
3.45315
3.32966
3.22901
3.35085
3.42013
3.52565
3.36468
3.60314
3.88055
4.1791
4.45898
3.18342
3.19352
3.35442
3.27738
3.36063
3.30627
3.74396
3.74138
3.75818
3.76296
3.72432
3.74809
4.17184
3.85768
4.50858
4.17911
3.75881
3.74697
3.74293
3.70086
3.73788
3.76531
3.80483
3.27982
3.35518
3.35562
2.75546
2.20148
3.0969
3.23171
3.55372
3.5583
3.49278
3.44278
3.47909
2.7277
2.64516
2.66124
2.78668
2.74234
3.14867
3.03366
3.04743
3.21351
3.15731
2.1105
2.06563
2.1116
2.14665
2.06328
2.05069
2.42793
2.12565
2.13932
2.2433
2.28003
2.18775
4.75521
3.57714
3.58376
3.63861
3.63575
3.64896
1.85556
3.78149
3.84607
3.86516
3.75333
3.79496
3.08985
3.2003
3.15381
3.18633
3.12243
3.24983
3.05183
3.3874
3.22154
3.25386
2.65018
2.88835
3.31803
3.12606
2.10477
2.13943
2.24776
2.31201
2.11418
2.19473
2.7414
2.65328
2.5558
2.39811
2.46702
2.36913
3.77401
3.75487
1.9663
1.91688
1.9215
1.99362
2.00789
4.22876
4.08595
4.17662
4.11081
4.05773
3.77343
3.62819
3.78598
3.69284
3.93856
4.12132
4.0251
3.38907
3.33927
3.30284
2.94191
3.02832
3.07293
2.20759
2.12471
4.32415
4.45438
4.81734
3.69956
3.76319
1.8945
1.87128
2.51726
2.33221
2.27474
2.49493
2.15636
2.15688
3.46242
3.43569
3.48711
3.53234
3.53473
3.32388
3.37396
3.48543
3.38095
3.392
3.55922
3.54523
4.20681
3.95134
3.7915
3.84027
4.07784
4.67128
5.67308
2.68821
2.64385
2.53546
2.57118
2.49834
3.73664
3.90026
3.77184
4.33707
4.58759
4.67887
2.56853
2.698
2.72173
2.87705
2.85205
2.73613
2.66257
2.7638
2.93995
2.81884
2.70358
2.69665
2.71845
2.66702
2.65732
2.71514
2.67662
3.0268
3.04576
3.02134
2.9797
2.98571
2.9816
3.00299
2.97027
3.3898
3.49939
3.70146
3.727
4.03237
4.27511
3.9875
3.67013
3.73483
3.51238
3.52821
3.6061
3.58281
3.36213
3.43057
3.30776
2.85544
2.8041
2.84243
3.22393
3.32033
3.27735
3.887
3.93048
3.90272
3.96376
3.89998
3.91229
3.77465
3.83014
3.64137
3.77531
3.61544
3.76534
3.74084
3.82864
3.8284
3.75469
1.99873
1.97716
1.94399
3.5821
3.54889
3.67433
3.1255
3.24133
3.2153
3.22232
3.25808
1.95061
1.9838
3.75991
3.7155
3.67346
3.69013
1.95209
1.9782
1.88624
3.23441
3.29347
3.75517
3.78072
3.77788
4.37524
4.23127
3.75297
3.79984
3.78482
3.78519
3.76712
2.48699
2.2809
2.78488
2.47283
2.58209
2.96503
2.70228
3.17669
3.08551
2.81796
3.04314
2.90779
3.08098
3.34216
3.652
2.2612
2.3044
2.20565
2.51066
2.47604
2.67131
2.66765
2.99665
2.7275
2.67408
2.71351
2.679
2.66216
4.12252
4.37263
4.89986
3.5159
3.52021
3.8884
2.99574
2.97952
2.92549
2.90028
3.02459
3.03934
2.04542
2.05698
2.08197
2.06213
2.03391
2.03772
2.78311
2.57609
2.67103
2.827
2.45233
2.40791
3.25928
3.23422
3.10767
3.1443
3.14263
3.21211
3.98738
4.30036
4.14683
3.61093
3.48787
2.93357
1.98064
2.03576
1.97934
2.00347
2.00835
2.0431
3.4489
3.39654
3.67889
3.83867
3.87733
3.48186
3.4542
2.14166
2.17935
2.32542
2.23731
2.37786
2.49064
2.31415
2.69003
3.22068
2.9182
2.52196
2.28761
2.23938
2.48698
2.31801
1.86831
1.87305
2.83433
2.80292
2.6149
2.58645
2.51879
3.58173
3.64255
3.60452
3.65487
3.72281
3.78738
3.81616
3.81099
3.91805
3.76822
3.82545
3.92441
4.06382
4.07741
3.99481
4.07488
3.49812
3.44148
3.17421
3.24733
3.41993
3.25217
2.69582
2.69993
3.073
3.07975
3.16708
3.114
3.83527
3.83267
3.7811
3.78915
3.81534
2.58365
2.67644
2.46541
2.45427
2.5217
2.62668
3.60213
3.52103
3.57946
3.53536
3.33928
3.45942
3.42898
3.36196
3.73737
3.82288
2.84746
3.06278
3.09466
2.48726
2.4401
2.66539
2.76179
2.65938
3.29822
3.21266
2.79757
3.19215
2.68817
2.8893
3.00124
3.82836
3.80836
3.78578
3.81953
3.93603
3.9753
2.80706
2.49025
2.59352
3.90843
3.60805
3.75274
3.7823
3.90486
3.87294
3.86509
3.79361
4.17784
4.11348
3.99516
4.14458
4.02618
3.65449
3.7427
3.80424
3.74096
3.652
2.40246
2.21475
2.11307
2.12609
2.05262
3.19852
3.30308
3.39131
3.91788
3.97211
3.89693
2.84481
2.88714
3.60919
3.43256
3.37596
3.50542
3.63537
1.94871
1.9637
1.98309
1.94327
1.98409
2.00881
2.00642
2.9863
3.04432
3.14263
3.06655
3.14545
3.76885
3.75935
4.16305
4.08813
4.07053
4.17404
4.17757
4.67872
3.17315
3.0661
3.06014
3.17133
3.04595
3.00977
2.95854
2.902
3.29028
3.18496
3.95351
3.94041
3.87845
3.96893
3.09886
3.1205
3.05897
3.17592
3.03108
3.30794
3.2645
3.23727
3.1247
2.92762
2.81147
2.9165
2.92261
3.11286
2.81553
2.74481
2.6655
3.23449
3.16007
3.08385
3.29558
3.13501
3.85872
3.88444
4.04273
3.95861
3.87003
4.44521
4.69539
3.06102
3.14611
3.04504
3.95051
3.90107
3.98021
2.86457
2.6666
2.97589
3.17401
2.84243
2.70632
2.80403
2.54839
2.59397
2.53434
2.48426
2.59584
2.48129
2.57422
2.50955
2.56659
2.50998
2.55488
2.60089
3.09858
3.26907
3.13051
3.22271
3.24717
3.16466
4.0312
3.9273
3.9874
3.9351
4.05956
4.02793
4.03373
4.61867
4.91014
3.95807
4.0259
4.14872
3.91931
4.03559
2.57508
2.48566
2.54278
2.47361
2.52542
2.66631
2.73249
2.84018
2.71117
2.91047
2.87341
3.12414
3.0959
3.29233
3.29075
3.50534
3.34357
3.46806
3.46491
3.35644
3.43813
3.52306
3.48444
2.71393
2.7806
2.58682
2.55729
2.49089
2.47532
2.52776
3.16448
2.98041
3.10331
2.60053
2.57356
2.66777
2.82672
2.79572
2.715
2.70132
2.78226
2.58643
2.52497
2.56556
3.96534
3.71567
3.93556
3.78295
4.64677
4.76873
3.0542
2.97502
2.89486
3.04206
2.9518
3.30163
3.19135
3.33009
3.20165
3.28062
3.22533
3.15912
3.22683
3.16428
3.10512
3.11652
3.07614
2.88517
3.02402
2.95172
2.91259
4.20433
4.39146
3.3042
3.31172
2.23153
2.1961
2.11964
2.08975
3.47665
3.48089
2.61669
2.66439
3.13951
2.87335
2.81789
3.14692
4.17218
4.03594
3.72491
3.76144
4.00029
4.07128
4.05576
3.98546
4.04579
4.0768
4.0462
4.06983
4.06716
4.07538
3.62089
3.54113
3.48269
3.96097
4.13102
5.09654
5.13676
3.5597
3.50211
3.59081
2.30436
2.16952
2.29962
2.26136
2.12165
2.13872
3.45181
3.26422
3.01073
3.45048
3.24627
3.4293
2.36579
2.30743
2.58061
3.36453
3.47592
3.38187
3.44173
3.46299
3.4223
3.59895
3.54125
3.57886
2.7735
2.93507
3.21301
3.39182
3.36315
3.16992
3.26439
3.46257
3.49523
3.33405
3.30854
3.40413
2.98534
2.90726
3.08916
3.80024
3.69975
3.79317
3.64401
3.62344
2.22138
2.14681
2.17263
2.15702
2.20241
2.07124
2.05746
1.97675
1.91536
2.00359
1.96656
1.99632
3.90473
3.97052
3.91441
4.02324
3.62674
3.44582
3.2238
2.50609
2.50299
2.5484
2.94125
3.00295
3.11812
4.04199
4.03341
4.0341
4.01769
3.98928
4.01206
3.75082
3.9381
3.83094
1.99871
4.22712
3.86758
4.1216
2.21667
2.12422
2.38498
2.21739
2.13799
3.94185
4.04198
3.53961
3.57823
3.52355
2.03011
2.04612
2.66981
2.33123
2.14394
2.08935
3.83029
3.64303
3.68453
3.63916
2.23645
2.24433
3.10969
3.03363
2.97527
3.39601
3.2039
3.12147
3.73263
3.56066
2.97041
2.87269
3.12882
3.03045
3.67947
3.68703
3.68221
3.63562
4.88015
5.38616
4.10134
5.0993
2.79659
3.61834
1.67637
2.74446
2.71196
5.48632
6.31118
3.6316
5.57691
3.14
6.25433
5.77774
4.15889
4.25012
5.98135
5.37132
5.19117
4.97715
4.95243
5.54884
4.80827
4.70115
4.83624
4.54043
4.93871
5.2962
5.71041
5.33426
2.04569
4.86485
4.87798
3.98282
5.13433
5.39945
4.99461
4.87255
5.79203
4.9812
4.85978
1.69965
1.81376
4.95159
5.32338
3.92441
1.98454
4.97493
3.85211
4.67832
4.9488
4.88169
3.78495
4.91176
4.89585
4.96206
5.39891
5.18735
5.50856
4.81527
4.97247
4.84955
3.75264
3.67806
1.93963
1.83902
2.04998
5.32231
5.7009
3.94986
5.94563
4.97985
4.86462
5.02528
3.64571
3.81878
3.4825
3.54502
2.69868
2.71102
5.34508
5.09014
5.11092
4.89682
3.76371
4.0092
3.82465
6.79411
5.61754
6.25091
6.08703
4.90844
4.90856
4.99576
4.91086
4.85745
4.70714
5.59532
5.53865
5.30089
5.10148
5.30524
5.16843
5.58228
5.20639
3.87587
4.09868
5.13424
5.2259
5.00637
3.12878
3.75728
4.05794
3.68688
2.83777
2.66181
2.78974
1.67274
1.81819
1.64189
5.32698
5.36903
5.96567
5.8062
5.28709
5.44349
5.51576
2.73358
6.23055
5.33489
4.93824
4.61155
4.73447
4.84548
4.60435
4.9116
4.62795
4.54848
4.73699
2.94451
3.0364
5.28481
5.01142
4.90813
5.25244
4.7266
5.44452
5.46028
5.61543
1.63095
1.77529
5.02509
5.12882
4.98056
4.17986
3.8194
1.59962
2.21953
2.86307
2.74247
2.79309
3.74372
4.06626
3.6455
1.69492
2.05493
2.19106
2.29501
1.80482
2.05028
4.91076
5.05675
5.60609
5.27959
5.67185
5.12489
5.44532
4.84706
4.94535
5.15782
4.15
1.63042
1.76669
1.63021
1.79512
5.15018
5.0178
5.11544
5.62248
5.13648
6.78045
5.94672
6.46108
5.52036
1.6273
1.77651
1.95633
1.87079
2.25026
2.33067
2.06495
2.16889
5.70408
5.44421
2.08677
1.98037
1.70106
1.87148
5.99058
5.60806
2.30166
6.10132
5.19647
5.52724
6.16512
1.79071
1.61255
1.76764
4.29238
2.95577
2.87202
3.05572
6.48814
5.56909
4.34404
3.82677
3.90733
1.71956
1.89321
5.86573
5.23285
6.11753
5.02985
6.64731
4.57251
4.18978
5.12424
1.65215
1.81877
1.77152
1.65333
1.80406
1.60218
6.02049
5.39773
6.04687
2.46092
2.49771
3.58242
3.50964
3.22087
3.32157
3.39374
1.60256
1.74735
4.98834
4.89432
4.88907
4.01858
5.89295
3.85012
6.44697
4.89599
5.87728
5.38591
1.72845
1.63322
1.77996
5.74841
6.15912
5.73617
6.25109
1.74802
1.62424
1.76887
2.48731
2.75563
2.54374
2.40878
2.77816
2.40797
1.63277
2.56385
2.86041
2.55745
2.09352
2.2534
2.35226
7.02256
5.49107
2.70015
2.69855
5.00951
5.0876
4.99289
5.79903
5.60174
6.19541
3.34458
3.24851
3.43362
7.19807
6.05001
6.22751
5.83195
5.65043
1.89573
2.15085
3.91177
4.22952
3.8305
4.51621
6.22828
5.49879
5.33071
5.53907
1.6095
6.86396
5.43652
2.86072
2.82892
2.91938
3.77302
3.69673
3.88345
1.63418
4.8476
5.27866
5.20417
1.63099
1.75361
5.44956
5.5756
5.44834
1.5943
1.71775
4.47052
3.99928
4.12731
5.57653
5.13004
5.54151
5.48004
5.19757
5.44149
1.60264
1.72099
1.71472
6.26624
1.66222
4.88826
4.87322
4.92311
6.57092
6.23693
8.31904
6.89855
1.96069
2.15574
5.9636
5.44404
5.76508
5.91031
1.98695
1.78245
6.71718
5.74001
1.57194
1.71027
1.63794
1.76382
1.773
7.07245
5.4863
5.97773
1.76088
1.6081
1.71558
8.72008
7.56997
6.88889
5.64793
5.75902
2.90104
2.90018
1.6456
1.78817
1.7528
5.99161
5.35799
4.81236
7.62324
6.10422
6.91
5.5271
5.40492
1.72761
1.5821
1.72563
3.76851
3.71454
1.64797
1.80748
1.80236
4.53261
5.88346
5.31421
6.08065
6.41112
4.9999
5.72754
5.77555
5.76308
6.88821
5.29983
5.6758
1.68865
1.83708
1.81293
7.50764
6.06202
6.13294
1.86292
2.04683
4.83456
5.71169
3.79208
4.42742
4.121
1.94192
5.43924
5.21254
5.986
5.54984
5.77291
4.73427
5.26329
5.04558
4.72605
5.11978
1.7815
1.86877
5.04882
4.04844
4.06607
1.70572
1.79191
1.67972
1.76979
4.29515
2.78975
2.86618
2.17469
1.9681
2.13065
3.77807
4.10978
3.77192
3.83246
2.1628
3.74326
3.57896
4.00471
2.76311
2.65721
3.68259
3.95988
4.0627
2.57384
3.18916
3.87631
3.49112
3.46774
3.19516
2.47353
3.25885
3.89898
4.0578
3.27686
2.88795
3.78303
3.73655
3.77764
3.443
3.1779
3.0526
2.03859
3.87461
3.82289
2.71373
2.09634
2.03559
3.33405
3.806
3.77403
3.7693
3.7612
3.55309
3.53868
3.54804
3.91151
4.32302
2.75492
3.46758
2.01101
4.04566
3.9167
4.21178
2.72131
4.06305
2.73247
3.29841
3.4816
3.17483
3.34201
2.09126
4.14236
2.51495
3.40676
2.88188
3.92912
3.22639
3.08205
2.55261
2.89421
3.07292
2.96708
2.4363
2.50122
3.06962
2.68128
2.12878
2.13596
3.09939
2.34736
2.63324
3.57666
2.80666
3.03221
3.7539
3.22033
3.14917
3.15728
2.66109
3.60925
3.90777
3.83135
3.75706
2.83206
2.55472
3.21696
3.19836
3.87903
3.49977
3.56084
3.79607
3.79272
3.78795
2.29473
2.38232
3.58846
2.85511
1.98588
3.70202
3.62417
3.32896
3.85312
3.78489
3.01791
2.88254
3.98813
3.92329
4.00104
3.67462
3.29045
3.951
3.70349
3.75292
2.65003
3.7139
3.22015
2.78302
2.07017
3.59849
3.94072
3.17799
3.87769
3.84397
3.3726
3.33055
4.06772
2.73626
2.67532
2.74576
4.29527
3.91304
2.21595
4.29434
2.00248
3.11293
2.93713
2.41768
3.97402
3.93831
4.14275
3.57327
4.03195
4.00959
4.08025
4.06812
4.2379
3.62002
4.00333
2.12244
2.14265
3.02633
2.9815
2.93599
2.81922
4.07915
4.02939
3.91107
3.92615
4.09323
4.01392
3.52707
3.00605
2.55393
3.66561
3.21902
3.69881
3.6006
3.61098
4.04209
3.92485
3.83434
3.51422
3.46967
3.79735
2.2575
2.7361
3.88726
3.87855
3.92411
3.903
3.82276
3.82957
2.1723
4.238
4.31894
4.28931
3.2665
3.43632
3.54842
3.28772
3.50621
3.5376
3.63586
3.28845
4.31912
4.57873
3.36868
4.38546
2.57284
2.68277
2.58884
2.9598
2.06717
4.31564
3.906
3.80414
2.75839
2.7883
2.89034
2.92251
2.85961
4.22812
4.55535
2.97698
4.16335
3.47481
3.53134
3.20699
3.44757
3.32549
3.36167
2.56706
2.44556
2.45375
2.47286
2.47313
3.21705
3.35996
3.25471
2.31543
2.56707
3.05295
2.71331
2.80154
4.01299
3.77626
3.70966
3.75775
2.76634
3.19268
3.09745
4.26655
3.76533
3.8301
3.89033
3.87347
2.86266
2.9618
2.06302
2.13391
2.16453
3.15779
3.91763
4.01224
3.91983
3.95507
3.80476
3.79154
3.81624
3.08395
3.05588
3.17856
4.15979
4.02453
4.177
4.03062
3.12325
3.01523
3.20797
3.80627
3.56044
3.6401
3.47044
4.12006
3.81255
4.3054
4.14301
4.53118
1.96744
3.21549
3.05674
3.04432
3.37432
3.4946
2.64554
2.68517
3.73131
3.76564
3.85502
3.93631
3.86871
4.13454
3.88036
3.80941
3.76646
3.91416
3.3013
3.09099
3.15569
3.06218
3.29763
3.22807
3.64754
4.15059
3.98575
4.06941
1.96285
3.9422
3.0454
2.69528
3.8139
3.86198
2.80064
2.54916
3.60304
3.52792
2.15288
3.77369
3.4474
3.43437
3.17322
3.76584
3.2212
3.14761
3.1143
3.55471
2.84439
3.11716
3.39756
3.70772
3.69837
3.96784
3.15491
3.2695
3.29706
2.04275
3.07803
3.09982
3.72502
3.9451
3.82702
3.92145
3.81114
3.71578
2.91953
2.78184
2.97746
2.72939
3.60353
3.89701
4.10133
3.9287
3.97331
4.0755
3.18962
3.6083
3.5186
3.11926
4.18707
3.16102