/*--------------------------------*- C++ -*----------------------------------*\
| =========                 |                                                 |
| \\      /  F ield         | OpenFOAM: The Open Source CFD Toolbox           |
|  \\    /   O peration     | Version:  2206                                  |
|   \\  /    A nd           | Website:  www.openfoam.com                      |
|    \\/     M anipulation  |                                                 |
\*---------------------------------------------------------------------------*/
FoamFile
{
    version     2.0;
    format      ascii;
    arch        "LSB;label=32;scalar=64";
    class       volScalarField;
    location    "180";
    object      p;
}
// * * * * * * * * * * * * * * * * * * * * * * * * * * * * * * * * * * * * * //

dimensions      [0 2 -2 0 0 0 0];

internalField   nonuniform List<scalar> 
184166
(
44.6306
129.023
10.2133
34.2073
63.4336
16.7225
14.4435
11.1477
43.7444
66.7374
23.9853
4.82952
6.98911
77.3128
59.1805
44.9059
29.8236
97.2765
19.6848
64.4794
20.7696
11.7377
17.3126
68.7258
34.5062
57.227
66.6678
13.3203
55.5332
7.22471
44.2545
134.389
51.9957
79.6056
28.9163
2.14332
6.8492
25.1799
70.9565
132.256
83.816
2.75603
54.4747
90.9229
27.8328
84.7784
133.067
69.0051
27.7267
56.8349
16.2366
135.148
16.0598
38.1152
29.3553
11.8812
26.6084
30.2554
53.7098
67.2141
3.77426
65.7248
42.8213
15.3535
60.6288
12.3922
128.429
61.3696
14.4249
63.9251
11.1435
70.9997
53.7326
41.6725
20.9224
21.7055
107.74
42.8562
110.415
127.356
128.747
114.049
65.6111
13.7441
46.0426
36.4601
20.012
19.0521
92.3375
21.3152
13.2932
61.6625
44.8795
69.8862
43.2334
133.363
37.4732
135.541
19.2729
43.5463
7.069
3.72384
43.8847
55.297
14.7982
25.0525
44.4862
63.0696
13.7739
4.27953
131.252
53.2753
136.108
18.2303
61.6509
75.4378
56.8295
18.7169
131.286
130.506
43.9632
3.06436
27.5442
26.87
23.6433
42.7222
28.2644
31.0791
51.8113
52.9923
7.35051
29.395
84.6288
95.1793
25.3487
1.5375
24.4112
75.0554
92.0647
19.7895
34.8482
14.9674
14.5513
3.17232
74.219
62.9709
10.8315
57.3739
12.8369
61.6325
67.2056
62.4799
45.2867
38.1269
52.4088
54.6343
46.4192
42.9135
40.8545
17.8505
136.098
16.7272
10.6394
27.0222
111.815
29.9561
59.8306
58.3985
13.399
60.0676
30.9347
45.3345
14.2695
74.4419
30.1202
130.612
23.4207
48.3184
53.0291
75.4848
13.2756
1.94499
81.0118
62.6754
65.7015
36.7763
57.8061
69.5101
134.428
13.9817
95.5785
53.7549
10.0906
135.587
7.40605
61.291
58.4143
38.1835
14.3605
66.171
25.9289
54.408
13.2637
98.4187
132.472
36.9782
5.92817
7.56728
86.7959
33.1648
53.2562
10.4701
8.0233
70.8223
122.63
27.1057
78.5244
18.0158
16.9932
132.078
112.85
12.2551
12.3654
3.99558
133.181
6.29343
23.2819
27.3088
33.5289
10.8699
56.7534
116.846
27.556
2.30547
45.3752
4.64868
56.2209
54.1717
3.2885
135.069
136.218
43.9836
36.8042
54.167
16.4163
65.8441
57.598
6.36863
78.4107
68.642
73.0478
65.6148
54.2097
6.58809
72.6555
50.0119
59.1877
58.5741
89.852
2.29299
71.8843
131.88
28.3596
85.6709
51.5945
35.1166
45.0829
24.2167
35.8893
70.8991
57.6883
17.9394
73.9497
54.601
2.60842
100.88
134.987
59.0918
113.8
62.234
6.86454
53.219
56.9066
32.713
132.849
8.51536
9.9734
60.2163
100.545
9.09159
69.4342
69.9793
55.5206
31.4123
50.9115
71.0811
12.8199
43.0211
76.2793
61.4042
28.5019
11.0602
17.4963
58.3673
67.3061
82.529
31.3861
4.9829
22.3417
13.7717
31.8046
55.7456
53.6831
63.3901
60.55
61.8294
104.533
70.3496
24.9332
71.7143
21.528
23.4069
77.113
68.6882
98.9278
14.638
96.0177
105.439
7.00809
27.7458
27.0194
18.5715
18.0802
53.2396
13.9295
88.8664
6.56058
10.3984
61.6746
66.9666
94.9136
47.5974
59.269
70.8839
90.7851
67.9195
124.726
13.8284
32.5019
15.9727
133.099
29.2143
54.9932
129.966
22.4483
65.0967
50.1996
90.7303
63.4283
57.094
113.534
13.1192
52.7427
115.225
43.8676
73.0876
14.1867
125.009
127.932
13.4146
134.988
56.1869
55.2925
71.9964
76.2052
76.3009
8.3218
57.7755
0.985119
64.9968
64.768
64.0914
52.9139
52.9796
45.9724
78.5312
74.0556
116.884
32.8326
34.3105
40.8573
45.7628
43.8451
135.895
12.9717
13.3748
74.0498
95.6939
12.7813
89.2423
57.1198
7.28886
51.6993
17.0751
16.2764
87.809
76.748
74.4622
57.665
111.329
102.967
24.5953
24.9306
22.2224
22.3232
126.68
26.2382
23.272
21.2981
18.0083
53.109
78.0526
81.4917
77.8618
72.7223
13.7673
14.8685
16.3432
8.88777
9.77464
10.2098
129.58
52.2541
52.1836
51.192
50.0746
49.6783
48.7762
33.2612
34.2214
10.4552
11.2094
11.0818
10.183
11.9974
12.157
12.6297
11.7135
64.5489
63.9812
63.1065
64.2716
62.3115
62.5127
60.6993
25.9289
24.565
25.329
26.1938
83.044
1.77618
132.832
134.525
134.832
134.61
128.761
134.271
131.056
15.0307
14.774
16.5213
15.6965
25.415
26.3308
3.92882
7.41132
9.20347
10.1536
50.4387
52.838
51.699
52.7521
13.3244
13.3687
2.35331
3.54958
3.03634
5.36221
4.38567
4.75047
68.8526
5.63048
6.43445
6.39975
133.525
42.3172
37.7214
35.9876
39.2135
40.6748
38.9715
39.115
24.6023
23.5345
25.0905
24.4031
21.8545
22.0002
24.9993
39.5751
39.0622
13.5564
13.4363
135.489
91.7108
81.0904
80.905
56.3819
54.7614
56.0516
55.489
63.7868
68.1517
16.7854
17.7921
16.9289
16.425
87.4031
85.7749
76.4389
81.9105
59.9094
59.5439
58.7518
70.8386
66.2253
68.2356
47.3185
46.7856
46.7618
45.7778
45.8018
44.8088
42.1488
41.6904
31.7865
30.2882
19.0403
101.762
115.321
120.523
107.108
114.987
107.722
110.43
119.184
111.695
126.371
129.994
41.3686
38.8926
40.7709
39.8326
35.9255
38.2991
37.6048
36.9403
43.0439
40.346
57.4189
58.3266
58.7039
67.1733
42.984
68.5296
131.462
120.757
13.3688
13.2796
13.8931
13.4743
49.1422
45.9907
71.6117
79.0984
75.6409
79.9689
67.5337
72.6744
38.2024
36.9744
51.9862
50.7417
50.4176
133.878
19.0131
18.0128
18.4068
35.273
37.6659
36.2289
37.504
38.08
40.4444
39.0337
40.3541
22.5057
23.2926
23.9758
2.6493
133.515
133.695
133.71
61.7814
65.5215
65.7038
63.8987
68.9639
64.5374
69.3467
67.0156
8.28842
9.50139
7.93853
8.73839
72.236
68.8404
16.5505
11.4897
11.7031
12.4544
90.2721
81.7165
76.3652
71.4018
3.56733
2.0045
28.0387
26.9501
27.202
59.5985
16.1041
63.1769
60.7244
61.8741
63.1584
65.8371
63.1618
64.5168
66.0809
17.0636
20.0426
11.1061
12.379
11.6049
11.0128
10.9881
39.7781
39.4537
38.5246
37.1644
36.7535
35.6802
134.22
70.6053
77.0613
70.2542
73.3306
3.44796
15.8259
17.1536
16.8256
62.1917
61.917
61.1156
124.867
134.645
133.979
127.859
129.128
133.891
63.2528
132.416
130.026
40.3677
40.2536
39.3331
1.7487
2.22196
2.48588
2.68592
1.52057
1.33951
60.0493
57.6761
58.6886
59.9395
58.9339
58.101
21.6175
21.8107
46.734
41.0965
37.1228
38.4596
21.9976
30.3103
40.5358
40.0593
64.6055
63.6755
63.4995
8.60319
8.12644
9.97712
8.81791
27.2984
34.6597
61.6084
60.1174
61.3288
105.966
99.7711
17.2217
18.2267
18.3521
51.7798
24.1332
25.7097
71.0695
68.7118
71.0083
68.8758
72.8358
72.2392
9.78352
12.197
12.0616
48.8826
40.8302
45.6588
48.5825
1.20258
116.525
135.63
135.138
135.434
47.3642
32.8778
22.5574
30.1917
45.9434
39.1474
62.3849
61.6632
91.6864
85.7329
90.4583
86.0748
25.8876
23.3707
26.3785
24.8002
1.98672
1.1627
1.37101
1.13076
1.79226
2.01794
6.29343
6.3016
6.36549
61.2775
32.4587
1.13226
1.50592
1.17471
63.636
62.6113
62.7333
62.5136
54.9021
54.3805
55.2777
66.1348
23.355
23.7365
22.8099
118.589
115.914
13.2378
13.2886
13.2902
13.3202
111.073
120.69
122.915
124.534
128.625
131.451
22.101
23.0508
65.6065
66.0605
67.3107
67.2887
91.7849
84.8415
83.2265
39.7865
3.09554
3.53767
2.65973
2.77963
133.375
134.333
45.6084
45.9453
13.7151
14.8092
14.085
13.5714
43.9766
16.6991
21.8245
17.3113
19.2983
10.0216
11.0265
10.3431
9.24927
35.3973
88.9498
83.911
89.098
85.1097
23.2814
23.4331
40.5601
22.5232
20.557
22.792
20.5844
87.9316
103.466
12.9421
25.2906
26.0495
66.7351
5.22725
1.75647
24.3488
22.1731
23.3244
24.8584
13.3059
13.2594
67.6962
68.7028
45.9283
55.8611
49.321
55.4702
135.703
136.065
22.9533
23.555
45.5004
48.1655
46.8608
118.003
90.7191
106.928
92.7146
135.521
134.753
49.1984
49.2171
51.3911
50.3339
51.7034
50.3347
16.2775
20.2761
28.8067
27.3239
46.1327
52.551
42.8153
46.132
128.012
128.629
43.1188
44.2393
59.4821
59.5952
19.0508
17.9806
17.5789
18.3714
64.9187
63.9089
63.6944
116.119
94.8949
108.783
10.1821
9.32877
9.89287
9.24102
24.9665
25.5095
84.6608
77.0172
75.4276
71.4541
69.4679
74.5061
71.3902
49.9368
47.5624
46.9339
45.7444
67.6082
65.7666
35.7506
33.9322
28.67
30.1053
4.92207
3.63599
4.06833
4.69128
4.79111
5.19646
106.359
9.49902
9.61428
8.87488
8.04797
90.6506
76.2492
76.387
86.7313
94.3669
91.4515
105.216
57.9589
56.5531
57.1385
58.2038
16.3956
15.4575
17.9429
17.4065
15.9961
19.6445
20.441
21.2001
37.5195
36.6667
85.9251
87.3472
76.3871
73.6505
27.3334
26.2169
26.5282
41.7408
40.593
4.08149
4.04123
20.9338
4.93212
3.84199
3.56987
2.30543
3.03496
70.0428
66.3978
66.9119
68.9058
44.8686
44.8956
44.1879
44.0036
65.8432
72.5082
75.648
77.7399
14.7287
16.8482
17.5866
19.2455
16.1131
38.2746
37.4566
39.2519
38.3425
14.6965
17.2176
14.5535
125.651
61.6281
59.5021
19.444
17.971
49.3608
47.5577
27.3746
28.1196
17.9258
18.3364
19.1201
18.3602
127.106
135.202
135.599
135.038
53.9415
54.1672
56.301
55.3498
64.2513
63.278
63.7251
74.8291
70.9762
70.6957
75.5813
68.4346
68.9426
52.8485
40.1082
45.8965
33.37
9.6755
11.5466
10.1617
10.9571
78.7155
86.5699
79.3175
90.8423
84.7919
99.8238
103.139
86.746
96.0245
49.6203
54.3179
41.7818
43.7114
52.2412
23.159
22.2294
43.0445
52.0709
51.0389
50.9702
50.7164
15.4216
135.388
135.755
16.3264
15.9858
65.187
68.429
63.7591
62.8712
7.1427
8.24666
119.356
132.556
90.1047
3.11538
2.83435
49.199
46.9359
2.46914
3.23841
2.72274
135.817
135.732
135.541
54.264
55.5006
56.0602
55.2281
132.908
132.713
37.4532
37.7802
32.9089
25.896
27.194
50.6224
50.288
55.2986
55.5748
56.8582
13.2401
13.2606
13.2324
13.2437
13.2761
102.826
5.77369
90.2347
89.9421
100.315
95.4298
29.7073
19.3321
20.184
19.7114
18.9727
76.7288
55.4885
56.2007
57.3285
56.6858
9.60449
8.80397
9.38593
8.66402
2.69594
2.03173
65.4252
66.6508
63.7028
63.2667
55.2482
57.5249
51.6231
33.0843
33.2387
30.0677
34.5627
18.0904
19.8174
28.0552
126.856
106.809
119.131
124.256
112.717
5.65384
6.36137
65.98
14.1474
15.941
14.849
16.0257
29.3184
29.2013
27.7578
13.5578
13.4538
13.4801
13.5594
31.2158
27.901
22.5713
16.5213
15.3658
13.285
13.355
1.71609
1.86824
2.72164
2.24583
2.78791
71.8808
26.2195
22.5767
134.722
135.488
134.21
136.221
136.034
85.9171
88.6096
19.8955
18.9674
19.5408
18.6744
73.5873
68.8018
4.18632
3.67804
3.69688
133.715
127.468
1.0829
1.28771
14.1432
14.0817
14.5699
51.1263
53.395
52.629
65.6845
69.8857
67.7684
65.6655
68.4959
70.1435
134.936
18.9002
16.3758
116.764
120.296
106.454
104.722
127.409
128.857
12.163
13.3535
11.9006
12.5427
15.8871
15.7358
16.4185
16.471
30.106
29.7487
27.2251
28.296
24.8535
28.9424
24.9585
27.2744
3.80977
3.01075
112.624
119.037
105.482
76.0497
85.1786
81.1881
88.037
125.089
100.045
106.245
52.8409
39.7204
45.7798
32.4902
80.62
80.8636
56.207
78.3739
81.8891
85.879
15.2659
17.4123
57.627
57.4857
71.1394
69.3441
71.2197
69.6323
82.3849
84.4445
81.9616
22.7114
23.2073
21.9863
70.0134
69.2506
75.2
71.6766
47.2793
46.5011
7.40223
7.62451
135.039
134.763
135.251
13.9657
13.936
135.197
134.349
135.35
8.4256
7.9214
7.92631
9.21033
8.64701
24.8885
24.9102
25.7493
24.1548
24.2454
61.8701
62.3909
59.2258
60.4643
19.8186
19.8198
13.3256
13.3485
13.4487
13.546
13.5398
15.3088
16.0566
61.2242
61.3269
61.1411
41.0384
42.166
41.5853
41.3713
42.2318
71.5513
32.8166
31.8007
31.502
17.1714
17.8374
18.458
82.3724
91.703
90.2222
81.0992
85.5127
64.9867
62.7933
66.8599
66.4356
72.2509
78.4634
85.4497
47.1927
48.3328
45.9379
45.7744
69.7754
134.775
21.788
21.9145
22.7736
22.6357
64.2208
63.3543
65.0516
63.7274
64.9737
12.7062
12.2634
136.186
136.246
136.087
135.987
136.133
13.4179
32.0666
31.4837
85.2987
89.6656
96.0337
13.9163
17.3705
18.0246
22.7671
32.8368
23.7112
130.785
127.076
121.545
121.505
131.189
127.67
30.3816
30.0364
30.5775
135.889
39.8112
34.4903
27.7264
15.6497
15.7266
15.5314
114.51
110.301
117.251
57.4762
48.0509
1.68555
1.99983
8.22437
7.44371
7.91396
7.15652
8.82804
8.2842
20.6628
20.0206
21.1974
54.3952
54.2698
55.8613
1.76022
1.3714
75.0762
83.5071
77.8561
84.6687
13.4049
13.3388
5.74013
71.6356
60.998
60.7465
60.1301
11.4144
11.0348
10.719
136.01
135.624
136.125
135.934
135.668
18.2544
18.9403
13.4662
96.0264
116.799
31.9683
31.9697
26.6796
32.1392
28.3915
24.8613
33.9541
35.1679
35.0939
67.2092
68.0206
68.2808
51.7922
52.3969
136.213
136.195
136.105
136.201
136.297
136.196
58.3275
15.227
13.0704
136.062
135.874
135.722
38.356
40.0288
34.4035
30.8209
49.3858
22.0642
26.0022
20.3773
18.033
25.9059
23.575
80.0147
77.9984
76.3752
73.4182
73.437
22.8442
22.6014
16.3599
17.9089
75.1629
77.9655
75.8454
78.5349
30.5802
34.0464
34.951
35.2559
29.8668
31.536
20.8164
23.5628
23.5297
19.718
21.1789
4.44277
3.26293
4.39838
3.84345
3.38238
3.89138
39.5897
40.4407
40.0364
38.6438
38.92
120.079
121.584
98.6979
110.218
93.0056
106.895
85.354
88.6038
81.3407
82.2968
7.7519
8.94399
7.9976
70.3116
79.1541
94.2177
87.3791
136.276
136.251
21.042
20.1056
33.0439
31.7154
33.2645
31.6596
13.2443
13.2469
13.2448
13.2641
13.2659
47.5288
49.034
58.6139
58.919
59.4993
103.69
111.611
113.922
131.977
130.743
132.907
132.825
13.2368
13.2486
13.3189
13.3659
34.7934
38.609
39.6254
38.6875
32.3688
33.508
56.4342
28.9392
29.1073
28.5613
27.9577
27.6571
45.0275
16.0229
22.7876
14.5476
17.7481
72.1235
76.1145
72.6697
77.4502
74.8668
136.105
136.14
136.297
53.2596
53.892
1.61873
1.42878
35.3885
21.182
28.6821
29.723
22.7465
44.133
43.6653
45.3639
46.1816
44.4563
43.6589
74.1789
68.6121
69.6236
70.565
16.9915
16.3941
28.4777
30.8003
22.8872
48.9932
83.9773
88.6857
90.0697
109.239
1.57118
33.7886
33.3749
13.4529
16.5835
15.2873
15.0984
15.9506
14.7908
15.1847
13.3924
12.0778
16.1432
12.3913
13.4635
14.6972
13.9123
14.4249
13.4596
14.8762
13.9778
14.7376
44.0299
38.3615
85.8483
29.9555
30.1862
61.0714
13.53
13.5997
13.4551
13.5532
66.3901
67.5355
67.8295
66.0415
66.9621
106.59
117.793
48.002
47.5427
46.4369
21.6415
20.4694
18.0576
17.3412
30.8244
33.3682
35.9583
36.9047
1.40985
1.29907
66.9489
66.1053
20.7348
20.0851
19.3591
87.8592
76.7037
76.8719
94.2413
86.695
51.1025
51.0698
51.7565
65.626
64.6221
134.754
134.582
61.2586
61.4929
59.7542
60.2597
60.738
60.0995
21.4709
21.6953
20.7261
20.1857
20.3384
21.0438
60.6877
59.0709
59.9413
59.1161
51.5514
53.8278
51.7837
52.8175
13.184
13.4717
13.4173
13.3854
62.696
61.2636
66.1939
67.0542
64.0796
60.174
59.4274
60.0211
50.1649
48.3744
49.5195
48.4512
49.3275
41.7581
36.4203
30.2667
31.6853
117.544
116.525
125.672
128.576
127.213
122.071
106.197
101.384
92.3159
93.6207
26.8568
27.4138
134.346
134.288
42.7697
42.4421
133.309
131.984
132.113
133.378
132.985
132.614
19.4306
18.0981
20.0054
133.757
133.627
130.745
133.632
95.1518
94.7758
101.379
107.615
66.7735
65.7153
70.5498
69.0127
68.1977
66.3789
62.3361
63.8764
65.3036
63.0641
65.0596
7.252
6.51754
116.619
123.615
124.883
62.3288
64.0769
64.438
65.1584
8.54892
7.58595
13.539
13.4414
114.028
109.221
95.3345
16.4199
15.4391
15.2706
18.5439
17.4584
49.691
48.261
48.4887
56.4514
55.3846
76.0166
73.8304
133.426
128.332
133.473
132.746
127.012
15.0615
122.079
112.544
108.264
117.299
134.467
134.063
134.901
72.718
81.8271
76.0738
82.0185
74.3909
101.005
104.298
113.597
61.0578
61.3862
62.0875
61.6463
126.221
104.479
116.947
114.895
124.197
20.2283
15.3149
25.4079
24.4271
14.7761
15.7335
25.7383
25.027
61.3717
59.9291
61.5705
49.7104
34.3195
42.9241
42.0804
42.2023
41.0257
56.9428
58.2715
58.0499
113.571
117.093
126.478
129.78
119.711
127.879
78.8117
78.1175
76.4945
75.8382
16.4074
16.2457
14.6765
14.5557
13.866
19.0742
14.2278
17.0964
96.6769
77.9861
97.6005
87.582
70.0248
70.4664
80.5455
76.4925
81.6437
8.81251
8.43412
8.06816
78.0379
75.7452
71.4634
68.4269
13.2165
12.8056
13.5543
13.4009
4.91064
5.63985
13.4629
13.5135
69.6005
70.5769
69.4741
14.3947
13.5913
13.5765
13.5979
131.702
136.065
135.456
12.5502
11.3779
9.05443
10.0405
10.1508
9.50081
27.2819
30.8172
42.2632
136.273
18.2815
16.7439
15.7612
18.4423
16.806
15.9522
19.0386
17.1408
19.3236
17.3971
23.762
23.3128
26.5294
24.0849
23.4848
13.0182
13.7131
12.9085
26.5067
25.2926
26.8415
25.5691
24.0228
24.0094
70.9823
71.0572
73.9392
72.2205
73.5458
71.693
47.2202
57.1426
54.8771
50.8822
54.8047
4.11818
3.67111
3.51415
3.88253
4.29558
105.344
114.418
113.336
102.642
107.903
57.9007
56.0742
60.23
58.773
60.4048
59.6803
59.7392
60.0829
59.0365
58.9977
59.6222
51.2231
53.3751
52.51
52.5324
51.6226
7.54168
9.01289
8.14058
8.58249
7.75244
66.3814
67.9244
133.653
121.63
116.177
114.869
99.6066
100.716
17.5629
15.7896
16.2185
62.8024
63.5913
63.4925
55.7034
84.6028
89.8277
74.105
73.6206
86.4796
79.7116
77.7824
84.0253
8.55317
9.6917
55.9238
57.736
57.8656
56.823
35.3246
28.8689
18.5372
39.4129
17.9116
27.4244
29.3321
23.211
47.068
46.3504
45.8784
54.2274
18.5999
26.3373
29.4567
88.6858
82.9394
96.6433
99.2367
78.1966
76.9712
62.3059
64.6451
64.6505
53.1102
53.0867
38.7127
44.4968
37.062
28.9202
64.2889
65.7681
64.5626
65.1613
55.8736
54.668
55.4365
56.5619
54.4072
52.3777
53.8195
53.1667
52.0221
95.6331
100.151
46.9494
131.708
129.757
120.959
123.389
5.73338
4.73486
4.54135
5.18985
2.97789
3.12796
105.599
99.9642
94.7057
103.872
95.9224
32.4194
31.7632
32.3594
5.71229
6.28616
5.98457
5.4437
6.65487
6.9467
35.5903
36.2695
36.6888
35.9544
34.9711
35.0616
47.76
49.4016
47.7164
48.8566
48.3842
49.0065
50.2089
50.5034
51.037
49.2798
48.6019
59.9432
59.9494
60.4243
2.14729
123.602
64.3893
63.3112
7.82408
8.57368
8.86383
8.26139
7.6262
10.7602
9.65588
9.3608
10.849
10.0046
11.2692
10.2065
9.6349
11.0703
9.97356
14.2108
13.7482
14.0271
14.8355
13.6465
13.5776
114.547
134.308
133.588
128.888
129.752
131.836
28.3715
61.4861
60.7778
59.744
61.4642
60.2323
136.264
41.092
41.9734
42.804
41.3293
42.1535
62.8091
62.2271
62.0293
62.919
63.2569
6.57955
5.64091
8.72598
7.73726
8.26924
113.625
108.777
95.0224
98.669
135.909
134.641
131.845
129.066
135.293
132.933
23.4581
21.9744
20.6913
18.2812
19.0138
17.5212
19.6709
19.1894
135.05
134.914
135.326
13.3801
13.395
70.1553
66.5701
67.8654
68.9648
67.2707
56.5942
62.2916
64.4282
62.9062
66.7279
69.9478
67.6978
60.0353
61.0342
60.1391
75.6968
69.0053
70.8881
131.571
134.361
17.9839
18.5113
17.3036
19.5693
18.9437
13.2027
13.3492
32.0267
23.6549
18.8874
30.9822
15.2987
15.7138
62.8605
62.3751
61.9983
62.8006
62.0524
8.86665
9.56106
82.3807
78.8266
75.8289
77.4364
81.8397
7.00887
6.31618
6.79427
7.47541
7.61307
63.3457
61.9784
18.1115
17.1028
15.5061
16.6824
15.3871
29.7783
28.9031
28.8653
28.9478
28.9875
27.9852
11.7121
13.837
12.6128
14.995
13.9816
13.682
12.5077
15.0286
16.6138
10.4679
10.2475
9.65777
6.05204
5.82068
5.38595
5.43828
5.09671
62.2028
63.11
63.9726
62.1204
65.1602
65.6792
63.6453
62.1179
26.9344
27.7524
29.3749
13.9203
14.9529
14.1903
13.6815
14.6995
15.2297
13.9988
13.1712
13.5831
12.9547
12.2774
12.7115
12.6604
119.588
124.102
119.905
19.5152
20.9833
21.1302
41.6007
43.2445
42.0992
43.307
41.5563
42.197
38.4827
39.7383
36.8492
39.3974
37.1152
34.3593
34.1969
33.8927
33.1012
33.3898
13.5295
13.5183
13.5651
13.5942
14.3468
15.2269
70.929
70.6356
69.4951
73.3055
73.2369
134.399
134.481
60.7691
60.5401
58.2106
59.701
134.833
134.115
134.609
60.5313
60.7512
35.3491
35.1739
35.9998
31.8989
32.9653
36.6682
37.6402
37.3217
36.6201
36.2429
21.8386
17.5171
27.6129
20.736
23.0207
28.775
24.5516
31.9423
30.3723
130.857
127.449
122.865
68.6711
67.9288
67.2035
130.959
128.687
133.037
120.665
120.59
4.5737
4.48393
6.91414
5.82004
4.92024
5.15102
5.77307
5.41706
64.7971
64.6033
63.303
67.3926
67.4377
66.1761
59.5799
61.351
57.7387
56.5494
61.7457
61.2032
13.2877
13.5304
13.7703
13.4462
13.2588
13.3458
44.8162
36.6751
39.6295
46.831
29.3068
26.6119
64.5931
65.5037
66.6621
66.8162
64.929
64.25
58.3609
57.3861
57.0947
98.1669
100.698
111.143
13.5786
13.482
13.576
13.5869
13.3583
13.2377
24.8374
24.1567
39.2056
42.3221
42.835
37.3311
36.2363
14.8227
15.8521
19.435
17.0803
21.1846
126.475
131.085
121.761
109.673
116.371
125.029
131.009
132.685
126.242
130.379
135.649
135.333
20.4063
19.675
17.2592
17.4025
16.32
4.91938
4.16011
6.42363
5.71439
7.21139
5.78214
6.64759
4.12681
4.48016
4.48695
5.35198
5.36866
47.4404
48.593
47.756
46.4571
30.3864
30.1355
26.6022
27.6939
28.85
27.1867
1.73004
2.062
60.203
61.4569
60.9975
60.2987
61.6636
61.939
47.5705
46.4941
47.8746
16.61
17.4654
15.018
14.5623
15.1811
16.4912
14.9813
15.3564
14.3794
14.6356
14.1918
14.1614
13.62
13.605
13.048
12.7416
119.894
112.687
113.213
129.305
129.892
123.515
120.796
124.74
107.382
108.79
24.5077
29.0637
23.3336
24.5565
25.7059
52.3201
53.3826
50.8255
33.2226
35.6608
35.7789
116.417
122.512
120.896
32.1183
29.8441
30.772
50.4519
51.7002
51.9362
49.9493
49.3638
72.1451
70.7265
68.1964
70.2678
68.1987
63.3687
64.6173
65.2748
64.2341
63.1885
20.7716
16.51
14.2864
132.753
133.992
103.463
95.855
94.4812
41.7079
42.8463
45.198
5.96621
6.5176
53.0606
49.445
49.7154
53.7329
55.4694
12.5494
11.6983
136.283
136.293
136.248
136.26
136.273
6.12374
5.99758
6.5775
7.07216
7.12329
32.4954
31.5799
41.15
40.1592
41.0915
42.4367
42.8488
1.56536
94.8695
102.39
96.0416
101.259
107.479
107.809
10.6405
10.699
105.375
107.017
92.8211
60.1452
59.0069
57.7218
59.05
58.3255
70.7633
66.463
74.5752
66.2521
65.4214
68.5927
71.0915
11.7631
11.5438
12.2553
14.2196
15.7566
12.2867
11.1842
10.7529
12.6465
11.7893
11.7831
15.4909
14.5466
33.9215
33.9615
32.7949
32.2756
32.7415
33.1737
32.4738
18.942
20.4106
19.6763
35.1918
34.389
34.8321
15.8266
13.4344
16.8759
18.6606
14.6714
13.3996
14.7953
10.4022
11.3804
10.976
12.6135
13.806
12.591
13.4502
11.8355
13.0507
12.3906
11.9936
12.9579
12.9683
14.0668
12.6666
13.2789
14.6293
14.1334
32.9612
32.7156
33.7627
33.6595
35.523
34.8924
34.364
29.4551
29.0115
31.0046
30.2672
30.6776
31.6208
31.57
14.3184
12.9726
13.53
13.3292
14.1132
14.521
15.7824
16.0275
14.5599
17.2489
17.3496
19.0674
18.3463
20.798
19.6246
21.249
20.7095
21.6729
20.3841
19.5378
20.2412
21.692
22.0746
15.0585
16.4255
14.5429
13.7345
13.0651
13.3563
14.1638
17.3654
15.2888
16.2961
10.223
10.57
11.997
13.4214
13.6358
12.9436
11.7619
12.5061
12.4458
11.3104
11.7248
21.4314
21.9184
22.3896
22.5796
22.1526
21.2785
14.0784
13.0192
12.7526
14.6642
13.9674
17.2443
16.1104
16.867
15.5451
15.9586
61.7797
62.551
62.2822
61.5747
62.4581
61.5645
130.176
126.807
119.613
114.876
115.384
8.9911
8.13079
25.1759
24.8531
129.834
130.792
134.331
134.395
59.092
58.1695
31.9217
34.5571
48.0822
42.5456
37.1333
46.5666
4.25232
3.53532
13.7289
14.6649
31.0918
31.0613
30.3603
32.1073
32.213
31.9151
32.2853
33.114
33.8652
33.6773
2.53724
2.16147
2.68162
3.97006
4.21613
5.04735
4.3366
20.5741
19.9489
21.4027
114.928
133.536
129.502
129.789
135.561
134.69
68.4105
68.4771
70.1881
69.013
72.337
70.8528
21.6044
19.1725
26.704
15.6271
15.5478
14.9456
14.9499
16.3626
16.5168
16.4226
15.9761
15.7815
20.4245
22.7302
5.01535
5.9588
5.18121
5.57951
6.07952
7.20133
7.92299
7.11377
7.60847
8.12418
4.95676
4.26699
4.96689
20.2272
21.1639
20.8632
20.6019
20.878
16.5156
14.6072
14.8858
15.0802
16.1463
134.959
135.064
13.4856
13.5433
13.5214
13.4699
13.4768
56.9772
58.7777
7.24814
6.84888
11.8276
53.6388
48.4635
11.7444
12.171
12.6378
15.5658
16.55
17.5344
60.6179
58.2991
57.7854
58.8432
46.6581
46.2138
30.4315
29.5338
30.2424
134.5
62.9593
63.6804
63.7417
15.8772
14.3862
19.5605
128.408
129.56
46.6552
46.9218
17.3668
17.2712
16.7886
13.4861
13.4913
25.6152
18.8454
133.455
134.338
97.7757
56.8552
58.3262
56.9197
18.0847
19.2011
19.9503
17.9756
18.2277
99.3524
105.505
108.087
54.2999
53.191
5.65923
5.42997
6.57328
6.38099
40.7385
40.5286
41.3609
67.5621
39.3356
66.1968
137.98
8.86905
0.340989
0.568834
13.431
0.527575
0.287658
16.3943
62.8137
0.4214
62.8835
0.357209
44.3836
25.2076
143.87
139.264
25.8144
11.5571
33.4073
40.6381
57.0263
65.5706
22.4915
20.0991
32.6163
33.855
36.4924
40.3202
56.0946
50.8987
123.669
43.7972
55.3709
89.6753
35.4095
54.3007
52.5533
59.1367
48.2891
48.2893
42.9555
134.162
132.219
4.63073
46.5021
105.497
13.5637
54.1516
105.441
69.1013
65.7974
69.4169
127.018
64.2066
65.2907
57.8335
10.0922
9.45832
8.73937
61.1642
55.1362
59.9891
0.431503
0.958852
12.5031
11.764
13.1994
8.05521
7.18979
89.2352
48.9973
55.0153
56.5265
51.8402
76.5105
83.5435
0.63844
1.11474
0.461623
0.283367
3.4946
4.17243
7.30017
8.41651
81.844
97.017
90.0956
50.5182
50.0267
49.2971
50.7637
57.8379
58.9228
53.2156
43.7241
39.9119
42.6467
51.3329
47.4749
50.7005
49.4516
50.2172
45.1131
11.6204
11.1042
0.894767
0.427674
11.2933
10.2361
9.85601
0.339274
133.778
143.456
132.227
69.9193
90.5549
79.8375
13.5426
13.4685
13.2554
53.4117
59.8317
43.1647
45.1225
44.3674
41.7592
44.719
49.912
64.5293
66.982
24.2705
21.3084
22.745
39.0976
35.213
39.9109
35.7695
33.1255
37.7144
0.312479
0.659381
16.8566
15.273
15.0284
37.7913
40.5376
60.9823
55.1382
61.8301
13.2468
13.2533
39.1373
36.558
38.5438
117.609
99.7475
13.6127
19.7279
0.580464
0.462802
0.310528
125.35
128.589
114.356
12.6252
13.9635
20.1993
27.1784
10.6738
15.4858
34.2878
32.7194
12.936
12.665
23.9744
24.6398
25.0281
65.3021
65.0655
60.8498
0.38096
13.2904
13.2766
136.007
136.115
22.8344
23.7921
36.6502
34.5402
34.9289
62.8763
63.8264
27.8412
25.7759
135.229
12.0393
11.1136
12.2469
21.2829
28.5089
14.5522
18.8355
38.9888
42.7733
124.309
131.82
134.756
134.039
46.9106
49.0576
110.14
1.82492
2.58414
6.21581
5.81896
13.3808
13.3128
13.2883
82.8521
0.205485
0.6143
0.603604
3.26839
2.79418
130.002
122.221
112.089
12.051
11.0154
64.5849
65.3157
69.0429
67.2116
15.9936
68.7732
77.7056
68.6025
134.692
134.239
134.875
13.3327
12.9885
136.177
13.5954
12.7415
31.1765
32.8418
39.341
0.881345
0.412337
0.692555
0.270436
0.886002
13.3656
13.3363
5.58664
5.76169
6.91439
71.591
73.2432
77.9217
69.1568
70.2123
18.2188
17.6376
13.6032
13.5355
13.6078
65.488
63.3944
66.1648
20.3008
136.038
135.891
135.717
33.1757
52.233
40.6398
105.374
82.6229
102.608
134.475
93.2162
73.5663
89.6929
124.211
113.094
104.845
22.2683
18.8292
48.7555
50.3561
46.6233
41.699
44.8476
51.705
53.3112
49.9108
0.278245
0.776669
0.721687
17.8339
15.8312
45.6258
45.8189
47.1483
131.583
120.047
90.2645
97.4714
82.4776
0.947336
1.09391
0.843936
2.41408
1.41635
13.6297
30.9233
28.4482
59.6175
69.6085
68.6448
0.282284
0.895976
0.61809
135.553
20.6509
19.0437
18.6496
134.792
134.627
26.1802
26.3254
27.4488
13.4752
13.4372
87.3653
77.0851
73.5778
23.8129
24.1243
25.3282
41.0548
14.7985
14.0561
13.6109
13.6614
13.566
61.1498
134.035
62.1229
63.0996
56.2664
51.5204
52.1284
60.3107
58.9812
127.673
119.213
14.399
13.9014
14.9053
30.987
130.331
134.509
29.0477
27.4616
136.292
136.228
135.197
134.936
135.338
19.5634
17.5407
16.6163
13.1677
13.508
13.6207
62.7163
59.0313
29.6246
26.9432
26.4802
66.48
61.4918
134.401
134.389
134.442
32.4973
30.0922
32.0041
63.8021
61.2629
59.9114
52.655
58.6689
135.293
135.683
135.811
115.56
101.158
12.9926
12.6047
12.1782
0.959138
1.76918
0.50779
1.39114
33.1117
32.8437
31.268
29.5069
28.1269
23.7642
21.6277
19.8013
133.756
134.038
134.336
5.06694
4.81171
4.1892
130.981
125.979
66.5334
65.1232
72.5221
82.9171
70.1312
134.139
38.1104
40.5467
52.0121
56.7304
53.9407
28.9345
30.5943
31.3875
30.2028
29.2528
133.388
132.649
65.3785
19.1561
19.8697
13.3667
13.1599
136.243
136.281
67.9616
6.26491
6.33757
129.861
135.231
14.8577
29.5842
63.0892
53.8473
34.24
132.699
27.8307
57.4642
9.10749
6.60732
114.25
79.632
89.4989
42.0661
20.3079
75.4998
25.2534
34.7079
16.7378
90.7136
105.449
108.185
60.5242
62.6597
67.2438
119.403
30.8065
28.7134
29.7678
61.9731
95.7054
127.416
13.4307
44.3572
31.7454
87.9239
13.8498
13.5165
10.021
30.3884
28.5062
26.6661
27.67
55.817
55.8872
54.85
52.7197
71.4494
7.22885
6.56713
136.138
64.8307
44.0856
43.069
125.615
54.1552
126.854
17.3174
11.8797
10.3514
11.0081
13.622
14.3138
118.16
4.66116
5.9184
46.441
28.7435
27.1917
126.209
120.37
114.646
117.263
130.122
128.939
85.7373
103.783
14.9555
14.4328
30.1099
18.4723
23.0263
66.926
7.05006
73.3276
62.8699
89.6272
102.194
96.1911
128.721
33.55
33.6437
32.7398
32.4004
20.2462
11.169
58.7377
56.109
42.4387
83.4178
66.8535
44.5219
43.5622
43.4313
128.734
127.136
57.5776
8.52888
13.2484
5.42905
10.6245
34.8262
41.2772
40.6697
19.8928
45.2491
59.1772
56.8247
55.7061
21.6666
28.9998
6.39726
7.21832
6.25418
92.6343
10.4484
74.6358
122.591
13.6228
100.266
41.4863
79.2604
26.0097
29.3121
42.7351
62.7023
15.3307
6.85881
7.36365
7.55652
48.5518
53.9852
132.092
53.3121
13.3229
102.368
116.016
16.6469
53.8987
54.1186
74.4366
90.561
55.8024
55.3324
58.0688
56.5923
10.8702
18.0582
23.9243
14.0194
14.3764
109.542
121.672
116.681
123.16
12.8122
13.7139
13.3223
13.9732
58.4718
57.1338
65.9724
38.1532
25.6115
62.5888
33.2417
66.4589
66.4586
60.6084
42.5618
43.8446
67.1246
60.8652
61.5891
53.4628
133.351
19.7332
27.0337
28.6011
27.7986
26.7407
30.5383
30.4012
132.869
70.814
73.7996
70.4878
103.977
95.2556
88.5981
105.863
99.8494
59.5106
57.9394
107.652
54.9613
53.3746
62.2755
9.97945
10.2383
11.7272
10.8353
56.9188
134.323
34.9003
37.9961
36.7135
3.20012
2.61055
2.74416
2.13232
1.52733
51.9158
52.1424
113.888
68.7506
60.6339
2.50453
69.3555
66.7711
68.3615
59.5165
36.96
132.753
131.212
132.407
131.002
14.2638
43.2141
90.2547
23.1116
133.576
134.417
132.055
131.794
9.49661
9.62112
8.80999
8.01237
3.04691
73.0622
70.6148
7.4323
27.9065
29.8024
28.2413
28.919
6.96907
8.04289
13.3003
15.2511
14.858
26.5165
38.0515
39.8881
38.0528
39.2367
33.1696
31.2696
32.3589
26.4509
25.5029
27.4522
42.314
42.8473
41.0581
41.8414
74.9032
74.4179
80.3131
66.0228
69.3312
66.5369
12.7575
68.0625
63.4153
56.567
58.1393
57.3458
13.3365
77.083
74.0051
72.1788
2.14287
1.95666
7.04316
6.7971
4.49499
47.8565
49.6726
8.27454
78.5483
75.3803
70.5942
72.4079
69.7777
66.8109
95.9665
110.405
103.018
109.845
62.0485
62.0877
65.9834
45.0787
44.519
44.0807
134.486
41.0743
32.3691
0.986532
52.6087
52.9609
121.71
130.94
64.2565
64.8592
129.108
53.2618
46.084
105.154
31.7789
47.1425
101.739
114.569
108.89
54.631
114.008
34.3056
41.3394
43.745
45.4891
44.1682
11.1452
12.9608
12.2705
13.3947
12.7663
12.2546
63.1033
64.0635
62.1998
62.5146
64.8024
64.1807
117.132
123.316
117.862
124.841
7.25621
17.0635
5.63061
80.2196
76.539
78.5736
25.2257
30.4393
102.957