/*--------------------------------*- C++ -*----------------------------------*\
| =========                 |                                                 |
| \\      /  F ield         | OpenFOAM: The Open Source CFD Toolbox           |
|  \\    /   O peration     | Version:  2206                                  |
|   \\  /    A nd           | Website:  www.openfoam.com                      |
|    \\/     M anipulation  |                                                 |
\*---------------------------------------------------------------------------*/
FoamFile
{
    version     2.0;
    format      ascii;
    arch        "LSB;label=32;scalar=64";
    class       volVectorField;
    location    "0";
    object      Urel;
}
// * * * * * * * * * * * * * * * * * * * * * * * * * * * * * * * * * * * * * //

dimensions      [0 1 -1 0 0 0 0];

internalField   nonuniform List<vector> 
50904
(
(0.120401 -0.467339 0)
(0.117758 -0.458655 0)
(0.110419 -0.466073 0)
(0.108249 -0.458198 0)
(0.120669 -0.467342 0)
(0.118017 -0.458642 0)
(0.110641 -0.466079 0)
(0.108465 -0.458191 0)
(0.121006 -0.467345 0)
(0.118343 -0.458627 0)
(0.11092 -0.466088 0)
(0.108736 -0.458182 0)
(0.121432 -0.46735 0)
(0.118755 -0.458607 0)
(0.111273 -0.466098 0)
(0.109079 -0.458171 0)
(0.121968 -0.467356 0)
(0.119275 -0.458582 0)
(0.111717 -0.466111 0)
(0.109511 -0.458156 0)
(0.122645 -0.467363 0)
(0.11993 -0.45855 0)
(0.112278 -0.466128 0)
(0.110056 -0.458138 0)
(0.123493 -0.467373 0)
(0.120749 -0.458511 0)
(0.112978 -0.466152 0)
(0.110734 -0.458118 0)
(0.12454 -0.467388 0)
(0.121762 -0.458462 0)
(0.11384 -0.466191 0)
(0.111571 -0.458098 0)
(0.125847 -0.467405 0)
(0.123027 -0.4584 0)
(0.114916 -0.466242 0)
(0.112615 -0.458076 0)
(0.127429 -0.467434 0)
(0.124555 -0.45833 0)
(0.116218 -0.466323 0)
(0.113876 -0.458062 0)
(0.129337 -0.467473 0)
(0.126393 -0.458245 0)
(0.117779 -0.466438 0)
(0.115382 -0.458057 0)
(0.131667 -0.467533 0)
(0.128635 -0.458148 0)
(0.119674 -0.466604 0)
(0.117207 -0.458069 0)
(0.134446 -0.467632 0)
(0.131308 -0.45805 0)
(0.121912 -0.466858 0)
(0.119358 -0.458124 0)
(0.137722 -0.467797 0)
(0.134447 -0.457974 0)
(0.124501 -0.467234 0)
(0.121836 -0.458258 0)
(0.141524 -0.468103 0)
(0.138078 -0.457965 0)
(0.12742 -0.46782 0)
(0.124616 -0.458519 0)
(0.145382 -0.468561 0)
(0.141746 -0.458066 0)
(0.130256 -0.468584 0)
(0.127305 -0.458918 0)
(0.148887 -0.469182 0)
(0.145065 -0.458323 0)
(0.132665 -0.469483 0)
(0.129576 -0.459455 0)
(0.152018 -0.469997 0)
(0.148016 -0.458766 0)
(0.134606 -0.47052 0)
(0.131393 -0.460135 0)
(0.154575 -0.471026 0)
(0.150445 -0.459427 0)
(0.13585 -0.471694 0)
(0.132567 -0.460962 0)
(0.15667 -0.472205 0)
(0.15246 -0.460252 0)
(0.136558 -0.47299 0)
(0.133249 -0.46192 0)
(0.158688 -0.47342 0)
(0.154396 -0.461118 0)
(0.137161 -0.474342 0)
(0.133824 -0.462939 0)
(0.161029 -0.474538 0)
(0.156614 -0.461891 0)
(0.138146 -0.475694 0)
(0.134744 -0.463947 0)
(0.163531 -0.475385 0)
(0.158965 -0.462438 0)
(0.139523 -0.476853 0)
(0.136027 -0.464791 0)
(0.165721 -0.475907 0)
(0.161033 -0.462738 0)
(0.140905 -0.47773 0)
(0.137325 -0.465409 0)
(0.167603 -0.476196 0)
(0.162826 -0.462861 0)
(0.142231 -0.478387 0)
(0.138578 -0.465852 0)
(0.169218 -0.476323 0)
(0.16437 -0.462867 0)
(0.143459 -0.47887 0)
(0.139743 -0.466161 0)
(0.170583 -0.476351 0)
(0.165683 -0.462806 0)
(0.144561 -0.479228 0)
(0.140794 -0.466375 0)
(0.171719 -0.476328 0)
(0.166787 -0.462712 0)
(0.145533 -0.4795 0)
(0.141722 -0.466529 0)
(0.172679 -0.476275 0)
(0.167715 -0.462607 0)
(0.146369 -0.479702 0)
(0.142519 -0.466634 0)
(0.173465 -0.476208 0)
(0.168478 -0.4625 0)
(0.147071 -0.47985 0)
(0.14319 -0.466706 0)
(0.174097 -0.476141 0)
(0.169091 -0.462404 0)
(0.147647 -0.479962 0)
(0.14374 -0.466756 0)
(0.17461 -0.476079 0)
(0.169591 -0.462318 0)
(0.148117 -0.480046 0)
(0.14419 -0.466791 0)
(0.175024 -0.476022 0)
(0.169993 -0.462244 0)
(0.148502 -0.480108 0)
(0.144559 -0.466814 0)
(0.175351 -0.475974 0)
(0.170312 -0.462182 0)
(0.14881 -0.480157 0)
(0.144855 -0.466832 0)
(0.175609 -0.475936 0)
(0.170565 -0.462133 0)
(0.149055 -0.480195 0)
(0.145089 -0.466846 0)
(0.175814 -0.475906 0)
(0.170765 -0.462094 0)
(0.149249 -0.480226 0)
(0.145275 -0.466857 0)
(0.101463 -0.464928 0)
(0.0998409 -0.457817 0)
(0.0949542 -0.46423 0)
(0.0936022 -0.457581 0)
(0.0926786 -0.464068 0)
(0.091297 -0.457593 0)
(0.0914774 -0.463995 0)
(0.0900829 -0.457614 0)
(0.0907606 -0.463953 0)
(0.0893611 -0.457634 0)
(0.0902771 -0.463924 0)
(0.0888769 -0.457653 0)
(0.0899083 -0.4639 0)
(0.0885105 -0.457672 0)
(0.101638 -0.464936 0)
(0.100012 -0.457813 0)
(0.0950924 -0.46424 0)
(0.0937378 -0.457579 0)
(0.0928038 -0.464078 0)
(0.0914191 -0.457592 0)
(0.091596 -0.464005 0)
(0.0901982 -0.457614 0)
(0.0908758 -0.463963 0)
(0.0894729 -0.457635 0)
(0.0903906 -0.463934 0)
(0.0889871 -0.457654 0)
(0.0900211 -0.463911 0)
(0.0886199 -0.457672 0)
(0.101859 -0.464947 0)
(0.100228 -0.457808 0)
(0.0952667 -0.464251 0)
(0.0939087 -0.457577 0)
(0.0929617 -0.46409 0)
(0.0915732 -0.457592 0)
(0.0917455 -0.464017 0)
(0.0903437 -0.457615 0)
(0.091021 -0.463976 0)
(0.089614 -0.457635 0)
(0.0905336 -0.463948 0)
(0.0891259 -0.457654 0)
(0.0901633 -0.463924 0)
(0.0887579 -0.457673 0)
(0.102137 -0.46496 0)
(0.100501 -0.457802 0)
(0.0954865 -0.464266 0)
(0.0941244 -0.457575 0)
(0.0931608 -0.464106 0)
(0.0917676 -0.457591 0)
(0.0919341 -0.464033 0)
(0.0905272 -0.457615 0)
(0.0912042 -0.463993 0)
(0.0897919 -0.457636 0)
(0.0907141 -0.463964 0)
(0.0893011 -0.457655 0)
(0.0903427 -0.463941 0)
(0.088932 -0.457674 0)
(0.102489 -0.464976 0)
(0.100845 -0.457795 0)
(0.0957637 -0.464284 0)
(0.0943963 -0.457572 0)
(0.093412 -0.464125 0)
(0.0920127 -0.45759 0)
(0.092172 -0.464054 0)
(0.0907586 -0.457615 0)
(0.0914352 -0.464013 0)
(0.0900162 -0.457637 0)
(0.0909417 -0.463985 0)
(0.0895219 -0.457656 0)
(0.0905689 -0.463962 0)
(0.0891515 -0.457676 0)
(0.102932 -0.464997 0)
(0.101279 -0.457785 0)
(0.0961134 -0.464308 0)
(0.0947393 -0.457567 0)
(0.0937288 -0.46415 0)
(0.0923218 -0.457588 0)
(0.092472 -0.464079 0)
(0.0910504 -0.457615 0)
(0.0917265 -0.464039 0)
(0.0902992 -0.457638 0)
(0.0912287 -0.464012 0)
(0.0898005 -0.457658 0)
(0.0908542 -0.463989 0)
(0.0894283 -0.457678 0)
(0.103487 -0.465029 0)
(0.101821 -0.457777 0)
(0.0965497 -0.464343 0)
(0.0951667 -0.457568 0)
(0.0941242 -0.464187 0)
(0.092707 -0.457592 0)
(0.0928466 -0.464117 0)
(0.0914142 -0.457621 0)
(0.0920904 -0.464078 0)
(0.090652 -0.457645 0)
(0.0915874 -0.464051 0)
(0.090148 -0.457666 0)
(0.0912108 -0.464029 0)
(0.0897737 -0.457686 0)
(0.104169 -0.465083 0)
(0.102487 -0.457778 0)
(0.0970859 -0.464408 0)
(0.0956923 -0.457584 0)
(0.0946101 -0.464257 0)
(0.0931809 -0.457615 0)
(0.0933068 -0.46419 0)
(0.0918617 -0.457647 0)
(0.0925375 -0.464152 0)
(0.0910861 -0.457673 0)
(0.0920281 -0.464126 0)
(0.0905755 -0.457695 0)
(0.0916491 -0.464105 0)
(0.0901988 -0.457716 0)
(0.105014 -0.46516 0)
(0.103314 -0.457786 0)
(0.0977528 -0.464504 0)
(0.0963468 -0.457614 0)
(0.095214 -0.464361 0)
(0.0937708 -0.457654 0)
(0.0938786 -0.464298 0)
(0.0924187 -0.457692 0)
(0.0930929 -0.464263 0)
(0.0916263 -0.457721 0)
(0.0925755 -0.464239 0)
(0.0911077 -0.457745 0)
(0.0921934 -0.464219 0)
(0.090728 -0.457767 0)
(0.106039 -0.465282 0)
(0.10431 -0.457817 0)
(0.0985667 -0.464655 0)
(0.097142 -0.457676 0)
(0.0959532 -0.464523 0)
(0.0944898 -0.45773 0)
(0.0945795 -0.464467 0)
(0.0930988 -0.457775 0)
(0.0937744 -0.464436 0)
(0.0922868 -0.457808 0)
(0.0932478 -0.464414 0)
(0.0917589 -0.457835 0)
(0.0928626 -0.464396 0)
(0.0913762 -0.457859 0)
(0.107267 -0.465459 0)
(0.105504 -0.457876 0)
(0.0995471 -0.464882 0)
(0.0980966 -0.457785 0)
(0.096846 -0.464769 0)
(0.095355 -0.457859 0)
(0.0954277 -0.464722 0)
(0.0939186 -0.457915 0)
(0.0946002 -0.464697 0)
(0.0930839 -0.457955 0)
(0.0940632 -0.46468 0)
(0.0925456 -0.457985 0)
(0.0936749 -0.464665 0)
(0.09216 -0.458012 0)
(0.108759 -0.46572 0)
(0.10695 -0.457981 0)
(0.100735 -0.465216 0)
(0.099252 -0.457961 0)
(0.0979277 -0.465131 0)
(0.0964029 -0.458064 0)
(0.0964557 -0.4651 0)
(0.0949119 -0.458136 0)
(0.0956013 -0.465084 0)
(0.0940501 -0.458184 0)
(0.0950522 -0.465072 0)
(0.0934997 -0.458221 0)
(0.0946605 -0.465061 0)
(0.0931109 -0.458251 0)
(0.110503 -0.466117 0)
(0.108635 -0.45817 0)
(0.102141 -0.465729 0)
(0.100615 -0.458251 0)
(0.0992125 -0.465687 0)
(0.0976441 -0.458396 0)
(0.0976788 -0.465679 0)
(0.0960913 -0.45849 0)
(0.0967941 -0.465677 0)
(0.0951992 -0.458551 0)
(0.0962317 -0.465674 0)
(0.0946359 -0.458596 0)
(0.0958371 -0.465669 0)
(0.0942445 -0.458632 0)
(0.112596 -0.466689 0)
(0.110638 -0.458477 0)
(0.103908 -0.466469 0)
(0.102306 -0.458705 0)
(0.100785 -0.466494 0)
(0.0991518 -0.458912 0)
(0.0991533 -0.466521 0)
(0.0975063 -0.459038 0)
(0.0982194 -0.466538 0)
(0.096568 -0.459117 0)
(0.0976341 -0.466547 0)
(0.0959834 -0.459171 0)
(0.0972319 -0.46655 0)
(0.0955853 -0.459213 0)
(0.115037 -0.467529 0)
(0.112946 -0.458952 0)
(0.106075 -0.467527 0)
(0.104342 -0.459372 0)
(0.102669 -0.467645 0)
(0.100931 -0.459665 0)
(0.100893 -0.467722 0)
(0.0991558 -0.459835 0)
(0.0998884 -0.467768 0)
(0.0981527 -0.459937 0)
(0.0992694 -0.467792 0)
(0.0975369 -0.460003 0)
(0.0988539 -0.467804 0)
(0.097126 -0.46005 0)
(0.117427 -0.468562 0)
(0.115185 -0.459573 0)
(0.108258 -0.468782 0)
(0.106374 -0.460184 0)
(0.104566 -0.469 0)
(0.102709 -0.460565 0)
(0.102648 -0.469133 0)
(0.100807 -0.460782 0)
(0.101574 -0.469208 0)
(0.0997414 -0.460909 0)
(0.100925 -0.46925 0)
(0.0990979 -0.460986 0)
(0.1005 -0.469273 0)
(0.0986779 -0.461038 0)
(0.119443 -0.469682 0)
(0.117054 -0.460289 0)
(0.110186 -0.470072 0)
(0.108153 -0.461041 0)
(0.106258 -0.470371 0)
(0.104282 -0.461492 0)
(0.104222 -0.470547 0)
(0.102276 -0.461745 0)
(0.103093 -0.470647 0)
(0.101163 -0.46189 0)
(0.102422 -0.470704 0)
(0.1005 -0.461977 0)
(0.101994 -0.470734 0)
(0.100076 -0.462032 0)
(0.121074 -0.470861 0)
(0.118544 -0.461086 0)
(0.111845 -0.47134 0)
(0.109667 -0.461912 0)
(0.107749 -0.471681 0)
(0.105656 -0.462399 0)
(0.105631 -0.471881 0)
(0.103582 -0.462672 0)
(0.104466 -0.471995 0)
(0.102438 -0.462826 0)
(0.103783 -0.47206 0)
(0.101765 -0.462917 0)
(0.103356 -0.472096 0)
(0.101343 -0.462971 0)
(0.122273 -0.472089 0)
(0.119625 -0.461964 0)
(0.113148 -0.472563 0)
(0.110851 -0.462785 0)
(0.109021 -0.472892 0)
(0.106821 -0.463261 0)
(0.106888 -0.473086 0)
(0.104738 -0.463526 0)
(0.105717 -0.473196 0)
(0.103592 -0.463676 0)
(0.105035 -0.47326 0)
(0.102921 -0.463763 0)
(0.104612 -0.473296 0)
(0.102503 -0.463816 0)
(0.123137 -0.473357 0)
(0.120384 -0.462913 0)
(0.114172 -0.47376 0)
(0.111764 -0.463664 0)
(0.110116 -0.474034 0)
(0.107806 -0.464089 0)
(0.108018 -0.474193 0)
(0.105758 -0.464323 0)
(0.106864 -0.474284 0)
(0.104628 -0.464455 0)
(0.106188 -0.474335 0)
(0.103964 -0.464532 0)
(0.105767 -0.474364 0)
(0.103547 -0.464577 0)
(0.123894 -0.474669 0)
(0.121028 -0.463916 0)
(0.115099 -0.474973 0)
(0.112573 -0.464575 0)
(0.111121 -0.475178 0)
(0.108691 -0.464938 0)
(0.10906 -0.475297 0)
(0.10668 -0.465136 0)
(0.107923 -0.475363 0)
(0.105567 -0.465247 0)
(0.107255 -0.4754 0)
(0.10491 -0.465311 0)
(0.106836 -0.47542 0)
(0.104495 -0.465348 0)
(0.124704 -0.476036 0)
(0.121719 -0.464967 0)
(0.115994 -0.476271 0)
(0.113343 -0.465563 0)
(0.112056 -0.476434 0)
(0.109498 -0.465889 0)
(0.110017 -0.476527 0)
(0.107508 -0.466064 0)
(0.108894 -0.476577 0)
(0.106408 -0.466161 0)
(0.108235 -0.476602 0)
(0.10576 -0.466214 0)
(0.107823 -0.476612 0)
(0.105352 -0.466243 0)
(0.125593 -0.477316 0)
(0.122499 -0.465948 0)
(0.116829 -0.477559 0)
(0.114064 -0.466554 0)
(0.11287 -0.477728 0)
(0.110193 -0.466885 0)
(0.110825 -0.477824 0)
(0.108193 -0.467063 0)
(0.109707 -0.477875 0)
(0.107097 -0.467159 0)
(0.109059 -0.4779 0)
(0.106459 -0.467212 0)
(0.10866 -0.47791 0)
(0.106064 -0.46724 0)
(0.126503 -0.47838 0)
(0.123316 -0.46675 0)
(0.117573 -0.47871 0)
(0.114714 -0.467432 0)
(0.113542 -0.478922 0)
(0.110767 -0.4678 0)
(0.111465 -0.479041 0)
(0.108732 -0.467997 0)
(0.110335 -0.479104 0)
(0.107623 -0.468104 0)
(0.109687 -0.479136 0)
(0.106984 -0.468162 0)
(0.109293 -0.47915 0)
(0.106595 -0.468193 0)
(0.127406 -0.479263 0)
(0.124141 -0.467404 0)
(0.118244 -0.479736 0)
(0.115308 -0.468208 0)
(0.11411 -0.480015 0)
(0.111254 -0.468634 0)
(0.111982 -0.480168 0)
(0.109167 -0.46886 0)
(0.110829 -0.480251 0)
(0.108034 -0.468983 0)
(0.110173 -0.480294 0)
(0.107388 -0.46905 0)
(0.109779 -0.480314 0)
(0.106997 -0.469086 0)
(0.128259 -0.479987 0)
(0.124928 -0.467931 0)
(0.118836 -0.48063 0)
(0.115837 -0.468882 0)
(0.114585 -0.480987 0)
(0.111664 -0.469376 0)
(0.112399 -0.481182 0)
(0.109517 -0.469639 0)
(0.111219 -0.481287 0)
(0.108356 -0.46978 0)
(0.110551 -0.481343 0)
(0.107697 -0.469858 0)
(0.110153 -0.481371 0)
(0.107303 -0.469901 0)
(0.129043 -0.480581 0)
(0.12566 -0.468357 0)
(0.119355 -0.4814 0)
(0.116305 -0.46946 0)
(0.114985 -0.48184 0)
(0.112011 -0.470026 0)
(0.112739 -0.482077 0)
(0.109804 -0.470325 0)
(0.11153 -0.482205 0)
(0.108613 -0.470486 0)
(0.110848 -0.482274 0)
(0.10794 -0.470575 0)
(0.110445 -0.48231 0)
(0.10754 -0.470624 0)
(0.129747 -0.481073 0)
(0.126319 -0.468704 0)
(0.119805 -0.482063 0)
(0.116714 -0.469953 0)
(0.115322 -0.482581 0)
(0.112305 -0.470586 0)
(0.113019 -0.482859 0)
(0.11004 -0.47092 0)
(0.111781 -0.483008 0)
(0.108821 -0.4711 0)
(0.111086 -0.48309 0)
(0.108134 -0.471199 0)
(0.110677 -0.483133 0)
(0.107728 -0.471255 0)
(0.130348 -0.481469 0)
(0.126879 -0.468979 0)
(0.120183 -0.482609 0)
(0.117057 -0.470354 0)
(0.115598 -0.483197 0)
(0.112546 -0.471046 0)
(0.113243 -0.483511 0)
(0.110229 -0.471411 0)
(0.111981 -0.48368 0)
(0.108985 -0.471607 0)
(0.111273 -0.483772 0)
(0.108285 -0.471715 0)
(0.110858 -0.483822 0)
(0.107873 -0.471776 0)
(0.130855 -0.481786 0)
(0.127355 -0.469197 0)
(0.120496 -0.483061 0)
(0.117343 -0.470685 0)
(0.115823 -0.48371 0)
(0.112745 -0.47143 0)
(0.113424 -0.484056 0)
(0.110383 -0.471821 0)
(0.112139 -0.484243 0)
(0.109115 -0.472032 0)
(0.11142 -0.484344 0)
(0.108404 -0.472149 0)
(0.111 -0.4844 0)
(0.107988 -0.472214 0)
(0.131276 -0.48204 0)
(0.127751 -0.469372 0)
(0.120752 -0.48343 0)
(0.117578 -0.47096 0)
(0.116005 -0.484133 0)
(0.112904 -0.471751 0)
(0.113568 -0.484506 0)
(0.110505 -0.472166 0)
(0.112264 -0.484707 0)
(0.109218 -0.472389 0)
(0.111536 -0.484817 0)
(0.108498 -0.472513 0)
(0.111111 -0.484877 0)
(0.108076 -0.472583 0)
(0.131615 -0.482242 0)
(0.128069 -0.46951 0)
(0.120959 -0.483726 0)
(0.117767 -0.471177 0)
(0.11615 -0.484471 0)
(0.113032 -0.472006 0)
(0.113682 -0.484867 0)
(0.110601 -0.47244 0)
(0.112362 -0.48508 0)
(0.109299 -0.472674 0)
(0.111626 -0.485196 0)
(0.108571 -0.472803 0)
(0.111198 -0.48526 0)
(0.108146 -0.472876 0)
(0.131896 -0.482402 0)
(0.128333 -0.469618 0)
(0.121127 -0.483964 0)
(0.117922 -0.471351 0)
(0.116267 -0.484746 0)
(0.113136 -0.47221 0)
(0.113773 -0.48516 0)
(0.110679 -0.47266 0)
(0.11244 -0.485383 0)
(0.109364 -0.472902 0)
(0.111697 -0.485506 0)
(0.108629 -0.473036 0)
(0.111266 -0.485573 0)
(0.108201 -0.473111 0)
(0.132124 -0.48253 0)
(0.128548 -0.469704 0)
(0.121263 -0.484157 0)
(0.118047 -0.47149 0)
(0.116361 -0.484969 0)
(0.11322 -0.472374 0)
(0.113846 -0.485398 0)
(0.110742 -0.472837 0)
(0.112502 -0.48563 0)
(0.109416 -0.473086 0)
(0.111754 -0.485756 0)
(0.108676 -0.473224 0)
(0.111321 -0.485826 0)
(0.108245 -0.473302 0)
(0.132305 -0.482631 0)
(0.128719 -0.469771 0)
(0.121371 -0.48431 0)
(0.118147 -0.471601 0)
(0.116436 -0.485145 0)
(0.113287 -0.472505 0)
(0.113904 -0.485587 0)
(0.110792 -0.472978 0)
(0.112552 -0.485825 0)
(0.109457 -0.473233 0)
(0.1118 -0.485955 0)
(0.108713 -0.473373 0)
(0.111364 -0.486027 0)
(0.10828 -0.473453 0)
(0.132448 -0.482712 0)
(0.128854 -0.469825 0)
(0.121456 -0.484432 0)
(0.118226 -0.471689 0)
(0.116495 -0.485285 0)
(0.113339 -0.472609 0)
(0.11395 -0.485737 0)
(0.110831 -0.47309 0)
(0.112591 -0.48598 0)
(0.10949 -0.473349 0)
(0.111835 -0.486113 0)
(0.108742 -0.473492 0)
(0.111398 -0.486187 0)
(0.108307 -0.473573 0)
(0.0895789 -0.463891 0)
(0.0881811 -0.457685 0)
(0.0892983 -0.463904 0)
(0.0879026 -0.457708 0)
(0.0890605 -0.463912 0)
(0.0876728 -0.457726 0)
(0.088771 -0.463913 0)
(0.0873975 -0.457742 0)
(0.0882683 -0.463909 0)
(0.0869209 -0.457765 0)
(0.087062 -0.463904 0)
(0.0857542 -0.457823 0)
(0.0896916 -0.463902 0)
(0.0882904 -0.457686 0)
(0.0894111 -0.463915 0)
(0.0880119 -0.457709 0)
(0.0891733 -0.463922 0)
(0.0877822 -0.457727 0)
(0.0888839 -0.463924 0)
(0.0875069 -0.457743 0)
(0.0883812 -0.46392 0)
(0.0870304 -0.457766 0)
(0.0871754 -0.463915 0)
(0.0858641 -0.457824 0)
(0.0898337 -0.463915 0)
(0.0884282 -0.457687 0)
(0.0895532 -0.463928 0)
(0.0881499 -0.45771 0)
(0.0893155 -0.463936 0)
(0.0879202 -0.457728 0)
(0.0890261 -0.463938 0)
(0.087645 -0.457744 0)
(0.0885236 -0.463934 0)
(0.0871685 -0.457767 0)
(0.0873184 -0.463929 0)
(0.0860027 -0.457825 0)
(0.0900128 -0.463932 0)
(0.0886021 -0.457688 0)
(0.0897325 -0.463945 0)
(0.0883238 -0.457711 0)
(0.0894949 -0.463953 0)
(0.0880942 -0.457729 0)
(0.0892056 -0.463955 0)
(0.0878191 -0.457745 0)
(0.0887032 -0.463951 0)
(0.0873427 -0.457768 0)
(0.0874988 -0.463946 0)
(0.0861776 -0.457826 0)
(0.0902388 -0.463954 0)
(0.0888213 -0.457689 0)
(0.0899586 -0.463967 0)
(0.0885432 -0.457713 0)
(0.0897211 -0.463975 0)
(0.0883137 -0.45773 0)
(0.0894319 -0.463977 0)
(0.0880386 -0.457747 0)
(0.0889296 -0.463973 0)
(0.0875625 -0.45777 0)
(0.0877263 -0.463968 0)
(0.0863982 -0.457828 0)
(0.0905238 -0.46398 0)
(0.0890978 -0.457691 0)
(0.0902438 -0.463994 0)
(0.0888198 -0.457715 0)
(0.0900064 -0.464002 0)
(0.0885904 -0.457733 0)
(0.0897173 -0.464004 0)
(0.0883155 -0.457749 0)
(0.0892153 -0.464001 0)
(0.0878396 -0.457772 0)
(0.0880132 -0.463996 0)
(0.0866763 -0.45783 0)
(0.0908801 -0.464021 0)
(0.089443 -0.4577 0)
(0.0906002 -0.464034 0)
(0.0891651 -0.457724 0)
(0.090363 -0.464043 0)
(0.0889359 -0.457742 0)
(0.0900741 -0.464046 0)
(0.0886611 -0.457758 0)
(0.0895723 -0.464042 0)
(0.0881854 -0.457782 0)
(0.0883718 -0.464037 0)
(0.0870234 -0.457839 0)
(0.091318 -0.464097 0)
(0.0898678 -0.45773 0)
(0.0910383 -0.464112 0)
(0.0895901 -0.457755 0)
(0.0908012 -0.464121 0)
(0.089361 -0.457773 0)
(0.0905125 -0.464124 0)
(0.0890864 -0.45779 0)
(0.0900109 -0.464122 0)
(0.0886109 -0.457814 0)
(0.0888122 -0.464118 0)
(0.0874503 -0.457873 0)
(0.091862 -0.464213 0)
(0.0903966 -0.457782 0)
(0.0915825 -0.464228 0)
(0.0901191 -0.457807 0)
(0.0913456 -0.464238 0)
(0.0898901 -0.457826 0)
(0.091057 -0.464242 0)
(0.0896157 -0.457843 0)
(0.0905556 -0.464241 0)
(0.0891405 -0.457869 0)
(0.0893589 -0.46424 0)
(0.0879816 -0.457929 0)
(0.092531 -0.464391 0)
(0.0910447 -0.457875 0)
(0.0922517 -0.464408 0)
(0.0907674 -0.457901 0)
(0.0920149 -0.464419 0)
(0.0905385 -0.457921 0)
(0.0917264 -0.464425 0)
(0.0902642 -0.457939 0)
(0.0912252 -0.464426 0)
(0.0897893 -0.457966 0)
(0.0900308 -0.464428 0)
(0.0886322 -0.458029 0)
(0.0933435 -0.464662 0)
(0.0918288 -0.45803 0)
(0.0930644 -0.464682 0)
(0.0915516 -0.458058 0)
(0.0928276 -0.464695 0)
(0.0913228 -0.458079 0)
(0.0925391 -0.464703 0)
(0.0910487 -0.458099 0)
(0.0920378 -0.464707 0)
(0.0905739 -0.458129 0)
(0.0908457 -0.464716 0)
(0.0894186 -0.458196 0)
(0.0943297 -0.465063 0)
(0.0927804 -0.458272 0)
(0.0940505 -0.465086 0)
(0.0925033 -0.458303 0)
(0.0938137 -0.465103 0)
(0.0922746 -0.458326 0)
(0.093525 -0.465113 0)
(0.0920004 -0.458349 0)
(0.0930234 -0.465123 0)
(0.0915257 -0.458382 0)
(0.0918334 -0.465141 0)
(0.0903722 -0.458457 0)
(0.0955079 -0.465676 0)
(0.0939159 -0.458657 0)
(0.0952285 -0.465705 0)
(0.0936387 -0.458692 0)
(0.0949914 -0.465726 0)
(0.09341 -0.458718 0)
(0.0947023 -0.465741 0)
(0.0931357 -0.458744 0)
(0.0941998 -0.465758 0)
(0.0926607 -0.458783 0)
(0.0930115 -0.465792 0)
(0.0915091 -0.458869 0)
(0.0968988 -0.466562 0)
(0.0952533 -0.459242 0)
(0.0966203 -0.466599 0)
(0.0949768 -0.459283 0)
(0.0963829 -0.466627 0)
(0.0947479 -0.459315 0)
(0.0960921 -0.466649 0)
(0.0944726 -0.459346 0)
(0.0955858 -0.466678 0)
(0.0939952 -0.459393 0)
(0.0943976 -0.466732 0)
(0.0928443 -0.459494 0)
(0.0985187 -0.467823 0)
(0.0967918 -0.460085 0)
(0.0982409 -0.467872 0)
(0.0965159 -0.460135 0)
(0.0980017 -0.467909 0)
(0.0962859 -0.460173 0)
(0.0977069 -0.467941 0)
(0.0960079 -0.460212 0)
(0.0971926 -0.467984 0)
(0.0955251 -0.460269 0)
(0.0960047 -0.468065 0)
(0.0943758 -0.46039 0)
(0.100166 -0.469302 0)
(0.0983446 -0.46108 0)
(0.099888 -0.469362 0)
(0.0980687 -0.46114 0)
(0.0996461 -0.469408 0)
(0.097837 -0.461186 0)
(0.0993459 -0.46945 0)
(0.0975556 -0.461231 0)
(0.0988219 -0.469509 0)
(0.0970663 -0.4613 0)
(0.0976349 -0.469618 0)
(0.0959195 -0.461439 0)
(0.101663 -0.470772 0)
(0.0997457 -0.462079 0)
(0.101384 -0.470841 0)
(0.09947 -0.462147 0)
(0.101139 -0.470895 0)
(0.0992367 -0.462199 0)
(0.100834 -0.470945 0)
(0.098952 -0.46225 0)
(0.1003 -0.471016 0)
(0.0984566 -0.462327 0)
(0.0991132 -0.471145 0)
(0.0973128 -0.462478 0)
(0.103028 -0.472137 0)
(0.101016 -0.463022 0)
(0.102749 -0.472213 0)
(0.100741 -0.463095 0)
(0.102502 -0.472271 0)
(0.100507 -0.463151 0)
(0.102191 -0.472325 0)
(0.100219 -0.463206 0)
(0.101647 -0.472402 0)
(0.0997187 -0.463286 0)
(0.100461 -0.472538 0)
(0.0985792 -0.463439 0)
(0.104284 -0.473334 0)
(0.102175 -0.463864 0)
(0.104005 -0.473412 0)
(0.101901 -0.463941 0)
(0.103755 -0.473472 0)
(0.101666 -0.464 0)
(0.103441 -0.473526 0)
(0.101379 -0.464055 0)
(0.10289 -0.4736 0)
(0.100877 -0.464133 0)
(0.101705 -0.473728 0)
(0.0997423 -0.464272 0)
(0.105439 -0.474396 0)
(0.10322 -0.46462 0)
(0.10516 -0.474475 0)
(0.102947 -0.464703 0)
(0.104909 -0.474534 0)
(0.102715 -0.464764 0)
(0.104593 -0.474585 0)
(0.102429 -0.464818 0)
(0.104037 -0.474651 0)
(0.10193 -0.464889 0)
(0.10285 -0.474755 0)
(0.100796 -0.464996 0)
(0.106507 -0.475445 0)
(0.104167 -0.465386 0)
(0.106229 -0.475524 0)
(0.103897 -0.465473 0)
(0.105977 -0.475581 0)
(0.103667 -0.465536 0)
(0.105658 -0.475628 0)
(0.103382 -0.465587 0)
(0.105097 -0.475683 0)
(0.102885 -0.465648 0)
(0.103907 -0.475756 0)
(0.101751 -0.465719 0)
(0.107502 -0.476637 0)
(0.105032 -0.46628 0)
(0.107227 -0.476716 0)
(0.104766 -0.466372 0)
(0.106974 -0.476774 0)
(0.104537 -0.466437 0)
(0.10665 -0.476818 0)
(0.104252 -0.466487 0)
(0.106078 -0.476864 0)
(0.10375 -0.466542 0)
(0.104881 -0.476908 0)
(0.102613 -0.46658 0)
(0.108346 -0.47793 0)
(0.105752 -0.467273 0)
(0.108071 -0.47801 0)
(0.105488 -0.467368 0)
(0.107815 -0.478069 0)
(0.105257 -0.467436 0)
(0.107482 -0.478112 0)
(0.104967 -0.467487 0)
(0.106895 -0.478156 0)
(0.104454 -0.467539 0)
(0.105692 -0.478185 0)
(0.103314 -0.467562 0)
(0.108982 -0.47917 0)
(0.106286 -0.468226 0)
(0.108708 -0.479253 0)
(0.106024 -0.468325 0)
(0.108448 -0.479314 0)
(0.105791 -0.468397 0)
(0.108107 -0.47936 0)
(0.105495 -0.46845 0)
(0.107506 -0.479407 0)
(0.104972 -0.468505 0)
(0.106295 -0.479434 0)
(0.103827 -0.468523 0)
(0.109469 -0.480338 0)
(0.106689 -0.469121 0)
(0.109194 -0.480426 0)
(0.106427 -0.469227 0)
(0.108931 -0.480492 0)
(0.106192 -0.469303 0)
(0.108584 -0.480542 0)
(0.105891 -0.46936 0)
(0.10797 -0.480596 0)
(0.105359 -0.469421 0)
(0.106749 -0.480632 0)
(0.104206 -0.469443 0)
(0.109842 -0.481399 0)
(0.106994 -0.46994 0)
(0.109566 -0.481494 0)
(0.106732 -0.470052 0)
(0.1093 -0.481565 0)
(0.106494 -0.470133 0)
(0.108947 -0.481621 0)
(0.106188 -0.470195 0)
(0.108322 -0.481685 0)
(0.105648 -0.470262 0)
(0.107092 -0.481735 0)
(0.104487 -0.470293 0)
(0.110133 -0.482343 0)
(0.10723 -0.470668 0)
(0.109856 -0.482444 0)
(0.106967 -0.470786 0)
(0.109587 -0.482521 0)
(0.106727 -0.470872 0)
(0.109229 -0.482584 0)
(0.106417 -0.470939 0)
(0.108595 -0.482657 0)
(0.105869 -0.471014 0)
(0.107355 -0.482723 0)
(0.1047 -0.471055 0)
(0.110363 -0.483172 0)
(0.107416 -0.471302 0)
(0.110086 -0.483279 0)
(0.107152 -0.471427 0)
(0.109814 -0.483362 0)
(0.10691 -0.471518 0)
(0.109452 -0.483432 0)
(0.106597 -0.471591 0)
(0.10881 -0.483517 0)
(0.106043 -0.471674 0)
(0.107562 -0.483602 0)
(0.104866 -0.471727 0)
(0.110542 -0.483866 0)
(0.107559 -0.471827 0)
(0.110264 -0.483979 0)
(0.107295 -0.471957 0)
(0.10999 -0.484067 0)
(0.107051 -0.472053 0)
(0.109624 -0.484143 0)
(0.106735 -0.47213 0)
(0.108976 -0.484239 0)
(0.106175 -0.47222 0)
(0.107721 -0.48434 0)
(0.104992 -0.472284 0)
(0.110682 -0.484448 0)
(0.107671 -0.472269 0)
(0.110404 -0.484567 0)
(0.107406 -0.472403 0)
(0.110128 -0.484659 0)
(0.107161 -0.472503 0)
(0.109759 -0.484741 0)
(0.106843 -0.472584 0)
(0.109105 -0.484846 0)
(0.106278 -0.47268 0)
(0.107844 -0.484962 0)
(0.105089 -0.472754 0)
(0.110792 -0.484929 0)
(0.107758 -0.47264 0)
(0.110512 -0.485052 0)
(0.107493 -0.472778 0)
(0.110235 -0.485148 0)
(0.107247 -0.472881 0)
(0.109864 -0.485235 0)
(0.106926 -0.472966 0)
(0.109205 -0.485348 0)
(0.106358 -0.473068 0)
(0.107939 -0.485476 0)
(0.105163 -0.47315 0)
(0.110877 -0.485315 0)
(0.107826 -0.472935 0)
(0.110597 -0.485441 0)
(0.10756 -0.473077 0)
(0.110319 -0.485541 0)
(0.107313 -0.473182 0)
(0.109946 -0.485632 0)
(0.106991 -0.47327 0)
(0.109283 -0.48575 0)
(0.106419 -0.473376 0)
(0.108013 -0.485889 0)
(0.105221 -0.473466 0)
(0.110944 -0.48563 0)
(0.10788 -0.473173 0)
(0.110664 -0.485759 0)
(0.107613 -0.473317 0)
(0.110385 -0.485862 0)
(0.107365 -0.473425 0)
(0.11001 -0.485955 0)
(0.107042 -0.473515 0)
(0.109344 -0.486079 0)
(0.106468 -0.473624 0)
(0.10807 -0.486226 0)
(0.105266 -0.473719 0)
(0.110998 -0.485885 0)
(0.107923 -0.473365 0)
(0.110717 -0.486017 0)
(0.107656 -0.473511 0)
(0.110437 -0.486122 0)
(0.107407 -0.473621 0)
(0.110061 -0.486218 0)
(0.107083 -0.473713 0)
(0.109393 -0.486346 0)
(0.106507 -0.473825 0)
(0.108116 -0.486501 0)
(0.105302 -0.473925 0)
(0.11104 -0.486088 0)
(0.107957 -0.473517 0)
(0.110759 -0.486222 0)
(0.10769 -0.473665 0)
(0.110479 -0.486328 0)
(0.107441 -0.473776 0)
(0.110101 -0.486426 0)
(0.107115 -0.47387 0)
(0.109431 -0.486558 0)
(0.106538 -0.473984 0)
(0.108153 -0.486718 0)
(0.105331 -0.474088 0)
(0.111074 -0.486248 0)
(0.107984 -0.473638 0)
(0.110793 -0.486384 0)
(0.107717 -0.473787 0)
(0.110512 -0.486492 0)
(0.107467 -0.473899 0)
(0.110134 -0.486592 0)
(0.107141 -0.473994 0)
(0.109462 -0.486726 0)
(0.106562 -0.474111 0)
(0.108181 -0.48689 0)
(0.105354 -0.474217 0)
(0.0853239 -0.463943 0)
(0.0840588 -0.457936 0)
(0.084142 -0.463995 0)
(0.082909 -0.458029 0)
(0.0836654 -0.464025 0)
(0.0824499 -0.458071 0)
(0.0833887 -0.464042 0)
(0.0821834 -0.458095 0)
(0.083156 -0.464052 0)
(0.0819575 -0.458113 0)
(0.0828731 -0.464063 0)
(0.0816783 -0.458136 0)
(0.0854378 -0.463954 0)
(0.0841689 -0.457937 0)
(0.0842557 -0.464006 0)
(0.0830188 -0.45803 0)
(0.0837788 -0.464037 0)
(0.0825593 -0.458072 0)
(0.083502 -0.464053 0)
(0.0822927 -0.458096 0)
(0.0832691 -0.464063 0)
(0.0820667 -0.458115 0)
(0.0829861 -0.464074 0)
(0.0817873 -0.458137 0)
(0.0855814 -0.463968 0)
(0.0843078 -0.457938 0)
(0.0843991 -0.46402 0)
(0.0831573 -0.458031 0)
(0.0839219 -0.464051 0)
(0.0826974 -0.458074 0)
(0.0836449 -0.464067 0)
(0.0824306 -0.458098 0)
(0.0834119 -0.464077 0)
(0.0822044 -0.458116 0)
(0.0831287 -0.464089 0)
(0.0819249 -0.458138 0)
(0.0857626 -0.463985 0)
(0.084483 -0.45794 0)
(0.08458 -0.464038 0)
(0.0833319 -0.458033 0)
(0.0841023 -0.464069 0)
(0.0828716 -0.458075 0)
(0.083825 -0.464085 0)
(0.0826045 -0.458099 0)
(0.0835918 -0.464095 0)
(0.0823781 -0.458118 0)
(0.0833085 -0.464106 0)
(0.0820983 -0.45814 0)
(0.085991 -0.464007 0)
(0.084704 -0.457941 0)
(0.0848081 -0.464061 0)
(0.0835522 -0.458035 0)
(0.0843299 -0.464091 0)
(0.0830913 -0.458078 0)
(0.0840523 -0.464108 0)
(0.0828238 -0.458102 0)
(0.0838189 -0.464118 0)
(0.0825971 -0.45812 0)
(0.0835353 -0.464129 0)
(0.0823171 -0.458142 0)
(0.0862791 -0.464035 0)
(0.0849827 -0.457944 0)
(0.0850958 -0.464089 0)
(0.0838299 -0.458038 0)
(0.0846169 -0.46412 0)
(0.0833683 -0.45808 0)
(0.0843389 -0.464136 0)
(0.0831004 -0.458105 0)
(0.0841052 -0.464146 0)
(0.0828734 -0.458123 0)
(0.0838213 -0.464158 0)
(0.082593 -0.458145 0)
(0.0866393 -0.464077 0)
(0.0853305 -0.457954 0)
(0.0854557 -0.464132 0)
(0.0841769 -0.458048 0)
(0.0849759 -0.464163 0)
(0.0837144 -0.458091 0)
(0.0846975 -0.46418 0)
(0.083446 -0.458115 0)
(0.0844634 -0.46419 0)
(0.0832186 -0.458134 0)
(0.0841792 -0.464201 0)
(0.0829379 -0.458156 0)
(0.087082 -0.46416 0)
(0.0857587 -0.457988 0)
(0.0858984 -0.464217 0)
(0.0846045 -0.458084 0)
(0.0854178 -0.464248 0)
(0.0841412 -0.458128 0)
(0.0851389 -0.464265 0)
(0.0838723 -0.458152 0)
(0.0849044 -0.464275 0)
(0.0836445 -0.458171 0)
(0.0846199 -0.464286 0)
(0.0833635 -0.458193 0)
(0.0876317 -0.464285 0)
(0.0862918 -0.458047 0)
(0.0864486 -0.464345 0)
(0.0851374 -0.458146 0)
(0.0859671 -0.464378 0)
(0.0846731 -0.45819 0)
(0.0856876 -0.464395 0)
(0.0844036 -0.458215 0)
(0.0854528 -0.464406 0)
(0.0841755 -0.458234 0)
(0.085168 -0.464417 0)
(0.0838941 -0.458256 0)
(0.0883075 -0.46448 0)
(0.0869451 -0.458152 0)
(0.0871255 -0.464544 0)
(0.085791 -0.458254 0)
(0.0866432 -0.464578 0)
(0.0853259 -0.458299 0)
(0.0863632 -0.464596 0)
(0.0850559 -0.458325 0)
(0.086128 -0.464608 0)
(0.0848274 -0.458344 0)
(0.085843 -0.46462 0)
(0.0845458 -0.458368 0)
(0.0891275 -0.464777 0)
(0.0877353 -0.458327 0)
(0.0879482 -0.464849 0)
(0.0865831 -0.458435 0)
(0.0874651 -0.464886 0)
(0.0861174 -0.458482 0)
(0.0871847 -0.464905 0)
(0.0858471 -0.458509 0)
(0.0869493 -0.464917 0)
(0.0856184 -0.458529 0)
(0.0866642 -0.464931 0)
(0.0853368 -0.458553 0)
(0.0901221 -0.465217 0)
(0.0886944 -0.458599 0)
(0.0889471 -0.4653 0)
(0.0875457 -0.458715 0)
(0.0884636 -0.465341 0)
(0.0870798 -0.458766 0)
(0.088183 -0.465363 0)
(0.0868094 -0.458794 0)
(0.0879474 -0.465377 0)
(0.0865807 -0.458816 0)
(0.0876626 -0.465392 0)
(0.0862994 -0.458841 0)
(0.0913093 -0.465891 0)
(0.0898389 -0.459029 0)
(0.0901415 -0.465991 0)
(0.088697 -0.459158 0)
(0.0896581 -0.466038 0)
(0.0882316 -0.459213 0)
(0.0893775 -0.466063 0)
(0.0879616 -0.459244 0)
(0.0891421 -0.46608 0)
(0.0877332 -0.459267 0)
(0.0888579 -0.466097 0)
(0.0874528 -0.459295 0)
(0.0927103 -0.466864 0)
(0.0911875 -0.459678 0)
(0.0915544 -0.46699 0)
(0.0900568 -0.459826 0)
(0.0910715 -0.467047 0)
(0.0895932 -0.459888 0)
(0.0907911 -0.467077 0)
(0.0893241 -0.459923 0)
(0.0905559 -0.467097 0)
(0.0890967 -0.459949 0)
(0.0902725 -0.467118 0)
(0.0888176 -0.459979 0)
(0.0943385 -0.468241 0)
(0.0927384 -0.460605 0)
(0.0931984 -0.468402 0)
(0.0916236 -0.460779 0)
(0.0927158 -0.468473 0)