/*--------------------------------*- C++ -*----------------------------------*\
| =========                 |                                                 |
| \\      /  F ield         | OpenFOAM: The Open Source CFD Toolbox           |
|  \\    /   O peration     | Version:  2206                                  |
|   \\  /    A nd           | Website:  www.openfoam.com                      |
|    \\/     M anipulation  |                                                 |
\*---------------------------------------------------------------------------*/
FoamFile
{
    version     2.0;
    format      ascii;
    arch        "LSB;label=32;scalar=64";
    class       volScalarField;
    location    "0.2";
    object      p;
}
// * * * * * * * * * * * * * * * * * * * * * * * * * * * * * * * * * * * * * //

dimensions      [0 2 -2 0 0 0 0];

internalField   nonuniform List<scalar> 
918
(
3.33608
4.75994
0.761282
3.22171
0.212059
3.89359
0.604644
2.47441
3.65215
1.03884
0.561051
2.87076
2.52769
2.05442
1.80685
0.331628
2.793
0.45056
2.88793
0.3721
-1.44009
3.7654
2.85409
2.72336
2.81753
1.1044
2.18087
0.234533
-0.199917
-0.0406224
0.516802
0.318143
0.292476
2.03656
3.35167
5.30174
2.83634
2.10905
0.89161
0.95727
0.639843
0.419028
2.52363
2.57262
1.81335
2.4193
2.31394
2.90499
2.92948
3.65504
2.55147
2.78431
3.73631
1.1288
1.03685
0.89551
1.04188
0.938157
0.725566
0.620871
0.660754
0.508415
0.580128
2.75828
2.86561
2.86647
2.87409
2.85606
3.96501
4.49463
5.71092
2.25953
2.38749
2.49303
2.25747
2.37734
2.30686
2.0737
1.79736
1.68629
1.39337
1.97908
2.04912
-0.0718864
0.372472
0.405816
2.78797
2.81071
2.7728
2.74052
1.70364
0.544659
0.312747
2.89776
2.93376
3.68137
2.75923
3.35695
2.92741
0.40117
0.426086
-0.189058
0.361471
0.324551
0.885158
1.28005
2.81781
2.86157
2.84179
2.95288
2.82606
2.54593
2.90308
2.85215
2.21418
1.36916
1.79317
1.5517
2.16868
2.10482
2.29028
2.06298
-0.114747
0.0319703
0.316269
0.292859
0.312133
2.84492
2.82389
2.90723
2.84981
2.86686
2.0568
2.00651
2.08018
2.18043
1.2916
1.32478
0.445102
0.51979
0.301448
2.03158
2.62308
2.63691
1.59537
1.83996
1.63075
1.94002
1.97992
2.85656
2.92504
2.88385
2.8679
2.93365
2.90366
2.84703
2.77195
3.66826
1.22728
1.25272
1.01531
0.980617
0.674676
0.704473
0.685854
0.829605
0.86839
0.814703
0.769459
0.644325
0.638822
0.844343
0.744924
0.789511
0.591891
0.456004
2.71941
2.71728
2.80288
2.79077
2.85395
2.82987
2.88724
2.86377
2.37108
2.41516
2.25533
2.32871
0.8859
-1.45253
2.31122
2.32386
0.0470438
-0.0525912
0.00403054
0.0466359
0.0415422
0.013397
0.48731
0.372763
0.471418
0.452528
2.83814
2.8539
1.66105
1.75712
1.65265
1.56205
2.92747
2.95753
2.96421
2.95882
0.350108
0.507447
0.440758
2.21072
1.78229
1.9969
2.48201
2.3976
2.60558
2.62767
2.84361
2.80501
2.83398
2.26659
1.9769
2.31118
2.48792
1.92839
2.01582
3.20948
2.65285
2.1139
2.78955
2.80949
2.82237
2.88449
2.92054
2.90642
2.86753
2.90502
2.88678
1.90855
1.82138
2.09778
2.02656
2.15377
2.11227
1.93025
1.96427
2.69851
2.63976
2.67565
2.16678
2.12126
0.910442
0.915459
2.65714
2.71153
2.68528
2.24787
2.38055
2.27696
2.33519
2.23963
2.20871
1.74528
1.05805
1.66833
2.20472
2.29682
2.11864
0.626929
0.537888
0.566453
1.799
1.80369
1.30642
1.40604
1.39578
2.04143
2.18117
2.01547
1.97832
2.22969
2.05452
2.21513
2.07318
2.0598
2.09162
1.93497
1.92899
2.38206
2.17215
2.22623
0.788532
0.924037
0.869291
1.74329
1.85535
1.82892
2.92713
3.1793
-0.0569999
0.215901
3.09172
3.23567
-0.399741
0.0750665
2.23715
1.90362
2.33046
2.94782
2.80966
2.81501
1.0306
1.10792
0.476854
0.688486
0.55317
2.80466
2.75727
2.69309
0.251225
0.292579
0.234672
0.822758
3.11984
2.95283
3.12941
3.2067
3.17973
0.146301
0.119581
-0.0354816
0.465164
0.287651
0.426727
2.7766
2.8559
1.24305
3.14519
3.07735
3.20111
2.99563
3.09598
2.98852
0.404173
0.0449782
0.356205
2.54231
2.62234
1.99845
0.978879
2.29162
2.20319
2.38355
2.10325
1.5927
1.98544
1.44856
2.57763
2.44344
2.42221
2.14189
2.4805
2.39138
3.14118
2.97593
3.11123
2.92059
2.98261
2.73021
3.08899
2.97399
3.11279
2.88625
1.16656
1.19475
0.942362
0.783948
0.799475
1.30383
1.01739
1.01944
0.805333
0.580318
0.553421
0.418291
0.651055
0.465954
0.323833
0.829097
0.626617
0.821
0.601681
0.911899
0.792816
1.22088
2.6268
2.8737
2.86865
2.88227
2.54004
2.8224
2.58776
2.882
2.73055
2.45033
2.84726
2.65488
0.0135448
0.241798
0.302662
0.123295
0.446698
0.307047
0.546717
0.269407
0.202526
0.736186
-0.0120905
0.432613
0.857965
0.861526
1.63623
1.43025
0.701345
2.68224
2.98687
2.91408
2.99848
2.97742
2.82071
3.10379
2.78228
2.76963
2.9264
2.96467
2.90179
1.46119
1.17565
1.16132
1.53385
1.89454
2.82746
2.84156
2.3594
2.56094
2.61513
3.12713
3.00573
-0.234645
-1.21055
2.19652
2.16962
2.17456
2.19173
2.31327
2.24495
1.91575
1.50574
1.66639
2.02892
1.78635
2.48711
1.84445
1.67865
2.00051
2.05291
1.83618
2.52936
2.62788
2.47793
2.33319
2.57949
2.46942
2.5168
2.51055
2.56041
2.59765
2.76695
2.41551
2.43058
2.74376
2.59324
2.52272
2.58673
2.96448
3.14632
2.9362
2.8158
3.004
2.85597
2.9492
2.78044
3.01629
3.13537
3.05254
2.84791
1.23329
0.99014
1.24066
1.25433
1.29005
0.918735
1.35982
0.987921
1.36033
1.34923
1.30577
0.941261
1.42215
0.857688
1.14203
1.39727
1.18496
1.1511
0.579569
0.934809
1.04443
0.922846
0.860739
0.401986
0.552056
0.939228
0.576475
0.436885
0.836945
0.854604
0.584878
0.484737
0.367918
0.439859
0.73185
0.720534
0.516438
1.11286
0.186836
0.218214
0.395099
0.645627
0.338962
1.03863
2.9345
2.72572
2.87402
3.0757
2.94012
2.86632
2.60311
3.1094
2.96063
2.87875
2.7379
2.86896
2.67984
2.58601
2.68386
2.65502
2.98406
2.98194
2.92501
2.68123
2.61163
2.89094
2.74917
2.92183
2.65736
0.48499
0.497287
0.347533
0.562562
0.659017
0.235229
0.824718
0.186463
0.72626
0.447923
0.503664
0.261936
0.236801
1.04066
0.929171
1.32306
0.994915
0.976682
1.53207
1.62801
1.4982
1.32753
1.47757
1.70174
1.61076
1.48562
1.51516
1.41703
1.84278
1.82684
3.08287
3.08682
2.82576
2.98703
2.93063
1.80643
2.02767
1.68851
2.04252
2.10153
2.10738
1.97862
1.99227
1.95417
1.97458
2.75311
2.80931
2.70926
2.79403
2.79094
2.37516
2.46316
2.38394
3.29806
2.67084
2.63208
3.00511
2.86978
2.6589
2.58124
2.72831
2.88963
2.70542
2.73623
2.52229
2.92662
2.74544
2.90248
2.64862
2.60542
2.46919
2.96563
2.90955
2.87808
2.5518
2.74548
2.77391
2.70355
2.64287
2.6645
2.66643
1.86563
1.78281
2.07437
2.04467
1.93698
1.88523
1.96092
1.87764
2.0627
1.90575
1.73667
1.28528
2.6022
2.53218
2.75194
2.36695
2.30745
2.46026
2.40009
2.13813
2.08285
2.73892
2.65694
2.69587
2.61876
2.54157
2.5308
2.47718
2.79875
2.4646
1.8951
2.44914
2.13848
2.24885
2.51102
2.58133
2.56058
2.33653
2.88407
2.71383
2.62892
2.642
2.40503
2.25333
2.452
2.59689
2.73153
2.91465
2.64763
2.62523
2.60516
2.51777
2.51024
2.48033
2.84761
2.8482
2.71196
2.94641
2.79083
2.83495
2.7527
2.81069
3.0439
2.77278
3.10287
0.361064
0.490476
1.01051
0.80532
0.723684
0.803922
1.59928
1.40985
1.05958
1.02419
1.29231
1.41796
0.569146
1.08615
1.03437
0.93396
0.908379
1.01824
1.6008
1.56589
1.54007
1.39881
1.40893
1.4889
1.47043
0.759623
0.695828
0.667471
1.03632
0.902142
0.674988
0.318458
0.163791
0.660479
0.755272
0.323775
0.266917
0.306967
0.65986
0.447783
0.390059
2.70737
2.85993
2.94098
3.09699
2.81238
2.98878
2.68901
3.07606
2.9647
2.9829
2.8297
3.03379
2.74987
0.760088
0.953107
0.842712
0.445754
0.671738
0.143259
-0.0432138
1.89493
1.26301
1.10638
1.56734
1.17438
1.29348
1.82797
1.69272
1.95317
1.8465
1.90637
1.96695
1.84079
1.90227
1.37759
1.96084
1.94062
1.60232
1.77585
1.75376
1.70356
1.84408
2.24086
2.25971
1.74995
2.10239
2.38969
2.39207
2.21716
2.38089
2.21504
2.07695
2.03341
1.76133
1.91647
2.07526
1.89898
2.14528
2.08868
1.73698
2.0355
2.16432
2.79246
2.828
2.80453
2.76366
2.69107
2.96944
2.53703
2.78762
2.85916
2.98011
1.65821
1.54288
2.00101
2.08302
2.70901
2.69935
2.3988
2.70858
2.60287
2.78701
2.66039
2.60596
2.60753
2.72248
2.50276
2.32088
2.36805
2.3251
2.45215
2.34783
2.67685
2.59376
2.44229
2.71455
2.52923
2.66117
2.68956
2.80439
3.15619
2.80186
2.99085
2.72077
2.78651
0.906334
0.713521
1.18518
0.898368
0.792136
0.726572
0.882433
0.77593
0.423444
0.876834
0.924224
0.359161
1.50336
1.79894
1.03216
1.65531
1.54878
1.40473
1.57195
1.4123
1.53942
1.31654
2.06492
1.69984
2.03303
1.80386
1.41072
1.7564
2.00591
2.06012
1.99889
1.89182
1.8374
2.18939
1.48723
1.97797
2.90239
3.06024
2.26791
2.08477
2.60457
2.34358
2.70737
2.60529
2.66959
2.70727
2.68101
1.92584
1.98063
2.17049
2.26438
2.0325
1.9644
2.04606
2.14635
2.24554
)
;

boundaryField
{
    wall-4
    {
        type            zeroGradient;
    }
    velocity-inlet-5
    {
        type            zeroGradient;
    }
    velocity-inlet-6
    {
        type            zeroGradient;
    }
    pressure-outlet-7
    {
        type            fixedValue;
        value           uniform 0;
    }
    wall-8
    {
        type            zeroGradient;
    }
    frontAndBackPlanes
    {
        type            empty;
    }
}


// ************************************************************************* //
