/*--------------------------------*- C++ -*----------------------------------*\
| =========                 |                                                 |
| \\      /  F ield         | OpenFOAM: The Open Source CFD Toolbox           |
|  \\    /   O peration     | Version:  2206                                  |
|   \\  /    A nd           | Website:  www.openfoam.com                      |
|    \\/     M anipulation  |                                                 |
\*---------------------------------------------------------------------------*/
FoamFile
{
    version     2.0;
    format      ascii;
    arch        "LSB;label=32;scalar=64";
    class       surfaceScalarField;
    location    "0.2";
    object      phi;
}
// * * * * * * * * * * * * * * * * * * * * * * * * * * * * * * * * * * * * * //

dimensions      [0 3 -1 0 0 0 0];

oriented        oriented;

internalField   nonuniform List<scalar> 
1300
(
3.75095
5.62643
-6.95038
3.75095
-6.39985
5.62643
-6.46697
6.46697
-1.27631
1.27631
1.94086
1.8101
-5.86753
5.86753
-5.65864
5.65864
-3.10093
3.10093
-5.35299
5.35299
-5.19107
5.19107
3.66795
-3.66795
-5.34305
5.34305
-2.08252
2.08252
-6.48144
6.48144
3.24975
-3.24975
-5.68057
5.68057
0.164746
-0.164746
-0.417157
4.16811
3.3338
3.3338
-2.71146
2.71146
-5.69696
5.69696
6.23156
-6.23156
10.0072
-10.0072
-3.0568
-3.25169
1.17453
-7.83354
-5.22532
-5.22532
-8.67861
8.67861
-3.05218
2.57425
3.22366
-3.22366
-2.74744
2.74744
-6.18035
-0.286615
-6.18035
6.65307
-0.186099
6.65307
-1.52936
0.253053
-1.52936
4.84236
-4.84236
0.975412
0.300898
0.975412
3.18921
-3.18921
-1.89468
3.83554
1.85627
-1.77978
5.94789
-1.97117
3.78127
-4.97942
4.97942
-5.97444
0.106904
-5.97444
5.81408
0.0534509
5.81408
-5.56773
5.56773
-5.66881
0.0101676
-5.66881
5.60762
0.0510272
5.60762
3.30136
-3.30136
-3.13042
0.0294957
-3.13042
3.06382
0.0371066
3.06382
0.11463
5.5118
-5.74106
8.31531
-5.5118
0.158808
5.32064
0.0323559
5.32064
-5.27471
0.0836359
-5.27471
5.45848
-0.267405
5.45848
3.58644
0.0815119
3.58644
-4.10685
0.438896
-4.10685
-3.24042
-3.21957
-5.4326
0.0895515
-5.4326
-2.15651
0.0739923
-2.15651
2.01352
0.069006
2.01352
-3.97591
3.97591
-6.71606
0.234624
-6.71606
3.19673
0.0530142
3.19673
1.81959
1.93136
5.57054
-5.57054
2.3208
-5.67358
-0.00699356
-5.67358
-5.7696
-4.23757
5.7696
-0.0890305
-0.253554
0.418301
-0.253554
3.25239
0.0814071
3.25239
2.94709
0.116733
-2.94709
0.235627
3.70831
-3.70831
2.17749
0.533974
2.17749
-5.45999
5.45999
5.39285
0.0656313
-5.39285
-0.304117
6.23035
0.00120744
6.23035
-6.18837
-0.0431902
-6.18837
3.28354
-6.53524
-3.26941
5.25227
0.0907801
-5.25227
0.0269503
3.19675
0.0269122
3.19675
-3.18192
3.18192
-3.196
-0.0276623
-3.196
-2.71571
-0.0317233
-2.71571
2.74604
0.00139158
2.74604
-5.73525
-0.445107
-5.73525
-6.75582
0.0397614
6.75582
-0.102754
3.11854
-3.11854
-1.71771
0.188345
-1.71771
-5.26133
-0.473912
5.26133
-0.418976
-4.58978
-0.252574
-4.58978
-3.18636
-0.00963515
3.18636
0.00284294
3.19106
0.0613251
-3.19106
0.00185763
-1.87318
3.80454
-1.87778
3.73405
-4.63755
-0.341872
-4.63755
5.13488
-0.155451
5.13488
6.34841
0.133029
-6.34841
0.37397
5.62257
0.191514
5.62257
-5.44645
-0.121282
-5.44645
5.52322
0.0445176
5.52322
5.64151
-0.018939
-5.64151
-0.0273027
5.74752
-0.139902
5.74752
3.33061
-0.0292469
3.33061
-3.20692
-0.0944407
-3.20692
3.15918
-3.15918
3.10642
0.0527593
-3.10642
-0.0240046
-10.9548
10.9116
0.0418897
-10.9967
5.36253
5.36253
2.98008
0.606358
2.98008
-4.48047
0.373622
-4.48047
3.2601
-6.52951
3.26157
-6.50199
3.33985
-11.1734
3.32116
-6.54072
5.52357
-5.52357
5.40235
0.121222
-5.40235
-0.0302504
-2.17808
0.0215691
-2.17808
-3.77763
-0.198277
-3.77763
4.29812
-0.322207
4.29812
-3.18812
3.18812
-3.18318
-0.00494065
3.18318
0.0135551
5.59232
0.155201
-5.59232
-0.0812649
0.645233
0.330179
-0.645233
0.391679
3.85042
-0.142117
3.85042
-3.48912
-0.219189
-3.48912
-2.16818
-0.00990239
2.16818
0.00930633
-5.87608
0.416086
-5.87608
-11.0739
0.0772194
-11.0416
-6.11115
-6.11115
2.56746
10.8828
-3.21675
0.00983684
3.21675
-0.0200059
3.15046
0.0376539
-3.15046
-0.0314586
-3.18192
0.0227463
3.18192
-1.18848e-06
-2.73641
0.0206928
-2.73641
-2.81313
2.81313
-2.84162
0.0284906
2.84162
-0.0955757
3.1805
-0.0619571
3.1805
1.89298
0.120537
-1.89298
0.17527
-4.28162
-0.308165
-4.28162
5.24414
-0.109261
5.24414
-3.40384
-0.0852761
3.40384
-0.073237
-0.0287844
10.9404
-5.33374
0.059034
5.33374
-10.9416
11.0007
-2.8045
0.0680923
2.8045
0.175584
5.02713
0.432861
-5.02713
0.546663
5.51737
0.00584574
-5.51737
-0.0061994
-3.51101
-0.266621
-3.51101
-4.45046
-0.187096
4.45046
-0.152341
-10.8517
-0.319448
11.1712
-11.1191
6.19553
0.0348218
-6.19553
11.0355
-2.90249
-0.216052
2.90249
-0.0893565
3.32399
-0.143496
3.32399
4.09019
-0.239762
-4.09019
-0.191434
-5.47313
0.0266759
5.47313
-0.228992
-3.45419
-0.0568194
3.45419
-0.1302
-4.16092
4.24233
1.78697
-3.31232
-3.22291
-7.54989
1.95417
1.85036
4.27497
-6.96159
-4.21181
-6.93464
6.41131
-5.86465
-6.21621
6.29772
7.66431
-7.91689
-5.67428
5.68783
6.36428
-6.36144
1.88192
1.95361
10.5704
-10.4635
-10.0832
9.74137
9.95089
-9.94072
10.4216
-10.5429
-11.858
11.8639
-5.55609
5.58559
-6.52261
6.42817
-6.55943
6.4862
-3.24637
-3.25562
8.73403
-8.64448
11.4323
-11.4392
-11.2655
11.5001
3.28517
0.957155
3.3465
-1.91203
3.79395
-1.86924
3.65621
3.1968
-6.44317
3.33271
-6.55563
5.79726
5.635
-5.70822
-1.84167
-5.74817
5.77508
-5.67302
5.67301
11.057
-11.3436
-1.8183
3.77191
-1.91576
3.76612
-3.32778
-2.3465
3.27476
1.00021
5.39983
3.3342
-5.49061
-1.44403
-7.47298
7.23322
-7.65586
7.43667
0.911092
5.00589
-5.91698
6.60805
-2.00801
7.01389
4.4033
4.77692
5.46421
-5.03135
0.400433
-6.31741
-6.62153
-2.19285
2.3812
1.90719
-1.6063
6.53993
1.12438
6.12095
-5.39557
-2.52131
-5.70374
3.75775
1.93008
3.75281
4.01592
2.34837
4.00628
2.95432
-3.13581
0.181486
-3.05593
6.01025
0.636102
-5.40243
-4.40222
6.75855
3.81181
6.81201
-7.27069
-3.19278
-6.89672
-6.06523
-4.01801
-6.25232
6.38068
3.36068
6.22523
-7.8467
7.6177
6.51888
3.43201
6.56991
-6.5575
-3.38323
-6.5848
10.4845
-2.89113
-7.59333
-6.90438
-4.95366
6.85986
3.56173
7.30714
4.55675
7.30094
3.46874
7.01571
-7.03047
2.07681
-3.71535
-1.84074
-3.73936
3.59831
1.98727
3.63542
-4.13495
-2.38767
-4.12511
-4.17935
-2.38009
4.20859
2.21958
-4.23321
-3.42265
4.31849
2.16771
3.03137
-7.24317
3.50936
-6.76497
-6.12931
-2.51516
-6.15956
4.18873
2.62257
-6.8113
-2.25445
10.6517
-5.01674
8.81007
-7.23048
-4.20876
-7.31175
-8.77205
-2.49345
-8.73229
-5.1307
4.86408
-5.63897
5.31676
10.2667
-5.7242
-4.54245
-3.96933
-2.39211
3.96747
-0.620972
-3.66603
3.84752
0.127914
3.78413
4.74128
4.12031
-3.76165
-1.91137
-3.79311
3.71756
1.95546
3.7403
8.69289
2.36413
8.50679
-7.52019
-3.82344
-7.9653
5.30515
-5.33687
2.86135
-2.87126
5.09335
2.34332
-4.95123
-2.52175
5.79137
-2.98833
-2.80304
-10.2559
6.47734
3.77854
-3.24199
3.36606
3.20131
-4.14034
-2.07587
3.70145
1.07548
7.55282
5.47695
-5.17909
5.59517
5.99208
6.05771
-0.563822
3.56372
-3.49563
6.50015
-1.13735
-5.3628
5.7602
-6.23412
-2.20509
-6.14272
3.93763
-0.113161
0.393003
0.0252975
-1.87435
-0.318502
-1.69908
0.847615
1.05958
1.17779
1.07749
1.30371
-2.41086
0.0495288
2.36133
-1.33338
-1.55677
-4.20057
-0.129835
4.3304
5.49868
1.73454
-5.30724
-0.396497
2.52648
-2.45748
-1.73541
-2.46516
1.11916
-2.85456
-3.09761
-2.19909
5.2967
-3.24223
-0.550878
3.20457
0.548238
-3.73656
-2.01161
3.76422
0.242059
-2.91389
5.98096
-3.06707
-4.82526
2.54889
3.46136
4.47897
-4.64184
2.38024
2.2616
-1.18048
5.64258
1.16943
5.83409
-9.08488
5.8921
7.82193
3.67819
-7.95496
1.05825
-8.02663
9.3187
-8.35231
-0.966395
4.91561
4.4031
5.12711
5.13954
-3.53532
8.66243
-1.2394
-7.11291
9.26604
-5.58784
5.5271
-11.1149
-10.6666
3.55373
-6.56122
8.38941
-1.8282
-2.60963
-5.23707
9.17085
-0.878906
-8.29194
5.34633
-5.05702
-5.37301
10.43
-7.94815
8.75623
-2.57139
-6.18484
-6.64227
-3.90061
6.6156
1.00211
-9.74164
11.8184
-2.72592
5.8883
0.68161
5.7484
3.78946
-5.89187
2.10241
4.15869
-6.73008
2.47589
-8.36776
-4.76774
9.4954
-4.72766
-7.28291
-6.60041
-0.682495
2.05557
9.76288
-6.61232
5.33781
1.2745
3.17476
0.565546
-3.22752
-0.511844
0.291685
4.42062
-4.71231
3.92711
4.04384
3.38759
1.03303
3.76194
2.01315
-3.74193
-0.383179
-3.88497
1.50489
-1.6654
-3.43579
4.94068
-3.95955
0.523756
-2.58445
-3.38219
5.96664
-4.42519
2.86057
3.1204
4.81602
-4.67828
1.29609
-2.36278
-2.3155
2.66346
-4.32885
1.8213
3.11938
3.98901
0.566366
4.74107
4.75434
-7.36364
0.598665
8.08854
-6.64451
1.58511
5.71583
-6.92293
0.322512
-5.83705
1.12736
-6.1441
-5.68394
6.22224
-8.71569
-4.8927
8.08625
0.420538
-7.98349
-0.748796
-3.57428
-1.55642
-3.6311
-1.92628
-3.71269
-5.4616
-0.953113
-4.50848
3.91097
-4.12064
-2.13168
4.27298
1.04378
-4.43155
4.2155
-4.33592
4.19242
0.212872
3.63465
4.33318
1.94107
-2.45417
4.39524
-6.69177
9.0559
-10.7883
4.09656
4.65117
-8.47461
-6.13715
3.19262
2.11253
3.19401
5.57302
-6.79342
1.22041
-6.34956
7.56121
-1.21165
-9.69927
3.34971
-4.12625
2.52673
0.334624
2.5483
0.643805
2.35076
-2.99456
-2.22745
-2.21814
-2.25453
-3.40192
5.65645
0.862954
-3.17319
2.31023
-3.35009
4.21305
-0.105966
-3.06722
4.92112
-2.57036
5.25574
-3.45606
1.79968
3.22101
5.32175
-2.10073
4.09025
-1.74693
1.83342
-3.93415
-1.5685
-2.97091
4.95819
-2.99572
3.51948
-0.245878
3.76536
-3.86604
0.877713
-0.478449
3.56539
3.80102
4.01707
-2.98404
2.72013
-4.46706
-1.21402
-3.9007
-0.781319
-0.861656
-5.08566
5.94732
4.82104
-5.68269
-2.64674
5.38009
-2.73336
4.39919
-2.91886
-1.48034
-2.62638
-2.7105
2.60568
0.958039
5.35723
0.327543
-3.2464
-3.16809
-2.9925
4.95016
1.54999
-1.05185
4.8304
-2.14946
2.54246
0.852285
0.32551
1.02383
-0.171543
-0.742486
1.76631
-0.717188
1.7945
0.731984
-1.91504
0.215954
-1.96613
3.08529
0.395206
-1.45478
1.28324
2.48358
-3.62093
5.12103
-1.67595
-3.44507
7.60461
1.85827
-3.53422
4.28445
-4.39761
2.97246
-3.10229
-0.561766
-4.95938
-3.835
-2.21027
4.5205
-3.44618
5.18073
1.42289
-4.78423
6.20712
-3.55788
1.35879
-2.61966
3.35165
-0.655165
-1.9645
2.4558
2.84091
-2.87574
0.410583
-0.419945
1.95693
-2.37687
-0.897638
-2.23102
-4.60254
4.8446
-2.14107
4.52131
2.25417
-1.91267
6.43398
1.70955
-3.62222
-3.11571
-3.66658
-1.36063
3.11835
-0.82257
-5.76223
-7.00741
5.78117
0.052921
-9.01718
10.0393
-1.02207
-5.20537
-0.686735
5.60234
-7.41757
0.68749
-4.94168
5.09757
6.267
6.31992
-8.07963
-0.212306
-4.71895
1.4249
-6.14385
5.828
-2.75885
6.31258
-6.94736
4.81567
-5.90358
5.34619
-0.797663
5.41221
-3.30979
2.18112
-6.08173
-5.07962
6.93936
-3.50735
7.62097
-4.19675
11.8177
-6.92267
6.84885
4.96887
-1.45879
-5.85296
-6.89949
5.4407
-0.0506357
5.69776
4.97845
-2.9653
4.59527
2.12125
-4.48403
-2.2076
-6.35499
1.87096
-3.23459
-1.70551
3.57647
3.11051
3.67606
1.26097
-3.16421
6.66103
-7.34353
-1.93338
-3.75056
6.57551
-1.13481
3.77735
-7.52791
-2.36675
5.10899
-0.552311
-4.55668
0.615207
-5.50791
2.46973
-7.97764
6.24595
-6.99475
1.37798
-5.50424
-3.05357
-3.14293
-1.26595
-3.06996
-4.43329
3.16734
-1.08358
3.13192
-5.69357
5.14126
-1.86764
5.03498
-3.22213
-0.408969
3.35233
0.840085
5.87506
-0.0700553
-6.0671
-1.95069
5.734
-3.78332
2.99948
-5.15572
0.578283
3.68591
3.9187
-7.62354
-0.851075
-6.91817
-2.29087
4.4034
3.08922
7.91026
1.11683
4.86651
-0.463106
5.98334
2.73091
2.63533
-3.86618
5.08658
2.08114
6.1777
-0.818307
2.61799
1.72999
1.80398
0.653493
2.31564
1.48538
3.19335
0.198791
-2.01935
2.67044
-5.66294
-0.575959
-5.05658
1.24114
3.78459
-2.54345
4.59824
-3.04825
0.814923
2.49174
-3.07064
0.578903
-2.87106
-0.528178
1.23814
-0.788755
2.072
2.29653
-3.31013
0.43907
-0.129893
-3.7051
3.23219
-2.8216
0.019301
6.22642
-2.3855
0.00862522
-1.02671
-2.22239
-2.54089
2.32494
6.13241
0.301568
3.06534
5.14616
3.13456
0.169256
4.16602
-5.99422
-4.20174
-6.20653
-0.37853
5.22381
1.7802
7.98268
6.74907
5.61426
-1.91365
-9.25718
7.46104
-2.37446
6.24939
-1.69271
-6.28493
6.38973
2.66618
-6.81026
-0.184486
-6.46942
-8.84388
-0.203056
5.34431
-5.67201
5.26304
3.70662
0.80186
-2.61969
-0.523236
2.5912
0.0441291
6.02747
-1.0962
-5.29455
6.39075
-2.68839
2.11244
3.55032
1.28008
4.12922
1.08097
-4.21358
-6.75703
-1.28694
-2.33399
-4.73201
-0.401608
-1.89492
3.89938
-1.78695
2.41904
4.6038
5.41872
-1.48399
-4.19871
4.21734
-1.7983
3.62043
)
;

boundaryField
{
    wall-4
    {
        type            calculated;
        value           uniform 0;
    }
    velocity-inlet-5
    {
        type            calculated;
        value           uniform -3.75095;
    }
    velocity-inlet-6
    {
        type            calculated;
        value           uniform -5.62643;
    }
    pressure-outlet-7
    {
        type            calculated;
        value           nonuniform List<scalar> 8(6.95038 6.39985 6.30849 6.65902 6.45999 6.55296 6.52167 6.66101);
    }
    wall-8
    {
        type            calculated;
        value           uniform 0;
    }
    frontAndBackPlanes
    {
        type            empty;
        value           nonuniform List<scalar> 0();
    }
}


// ************************************************************************* //
