/*--------------------------------*- C++ -*----------------------------------*\
| =========                 |                                                 |
| \\      /  F ield         | OpenFOAM: The Open Source CFD Toolbox           |
|  \\    /   O peration     | Version:  2206                                  |
|   \\  /    A nd           | Website:  www.openfoam.com                      |
|    \\/     M anipulation  |                                                 |
\*---------------------------------------------------------------------------*/
FoamFile
{
    version     2.0;
    format      ascii;
    arch        "LSB;label=32;scalar=64";
    class       volVectorField;
    location    "0.2";
    object      U;
}
// * * * * * * * * * * * * * * * * * * * * * * * * * * * * * * * * * * * * * //

dimensions      [0 1 -1 0 0 0 0];

internalField   nonuniform List<vector> 
918
(
(0.581748 -0.396786 0)
(0.56005 2.49747 0)
(-0.272766 1.74132 0)
(0.494731 0.315128 0)
(0.35817 1.72896 -8.3564e-20)
(-0.58813 1.92401 -1.78948e-18)
(1.09958 1.83026 -1.10281e-19)
(0.4311 0.252855 -1.11285e-20)
(0.68397 -0.00317848 0)
(0.00605471 1.80208 0)
(0.00387442 1.73953 0)
(0.952729 0.000981589 0)
(0.218488 2.98445 0)
(0.216064 2.91545 0)
(-0.110559 2.57615 -4.0333e-19)
(-0.00678694 1.72347 -6.5612e-20)
(0.677067 0.168225 8.71026e-19)
(0.144327 2.084 -1.09509e-19)
(1.00681 -0.00249034 0)
(0.00533128 1.74493 0)
(-0.185647 -0.226074 2.03578e-19)
(0.418539 -0.141307 0)
(0.934719 0.0698089 0)
(1.05604 0.0264334 0)
(0.852906 0.0201981 0)
(0.177838 3.12363 0)
(-0.0218944 2.94752 4.54874e-19)
(-0.5058 1.73309 0)
(-0.0352725 1.69721 0)
(-0.150578 1.75153 0)
(0.102815 1.67843 0)
(-0.158648 1.57165 6.43155e-20)
(-0.0136971 1.75959 0)
(-0.462011 3.13176 -3.80741e-23)
(-0.044123 3.12724 1.4226e-18)
(0.069961 2.8976 0)
(0.991186 -0.00256363 0)
(0.849609 1.35309 2.80857e-19)
(1.10553 1.69258 3.44279e-19)
(1.24622 1.60291 -2.7336e-19)
(0.935658 1.8919 2.26564e-20)
(0.899601 2.00554 -1.0089e-19)
(0.456699 0.303865 1.08431e-20)
(0.503962 0.259483 0)
(1.37414 0.827379 0)
(0.357676 0.313014 4.62455e-20)
(0.339059 0.226375 -4.80978e-20)
(0.981965 -0.00597636 0)
(1.16192 -0.00777626 0)
(0.681866 -0.00687029 0)
(1.0666 -0.0655242 0)
(1.09986 -0.0388471 0)
(0.74707 0.0264778 0)
(0.0131888 1.63541 -4.37173e-19)
(0.0307476 1.82268 0)
(0.0229257 1.83287 0)
(-0.00615748 1.80024 0)
(0.00152256 1.78635 0)
(0.00335275 1.7306 0)
(0.015408 1.74649 0)
(0.00581076 1.74251 0)
(-0.0333124 1.7353 0)
(-0.00791778 1.72248 0)
(1.01401 0.00113208 0)
(0.961146 0.0113304 0)
(0.962139 0.00188386 0)
(0.950565 -0.000674452 0)
(0.940165 -0.000139281 0)
(-0.0921444 2.55309 5.56619e-19)
(0.354248 2.70747 0)
(0.0471673 2.00682 0)
(0.14482 3.19906 4.70412e-24)
(-0.221269 3.23336 -8.44627e-19)
(0.049261 2.96162 0)
(-0.0398601 2.98864 0)
(0.148762 2.99628 1.27163e-24)
(0.0491215 2.96376 0)
(-0.173617 2.94192 0)
(-0.253541 3.04136 0)
(0.148801 2.60199 0)
(0.0134186 2.85693 0)
(-0.0200264 2.61616 3.59164e-19)
(-0.0541546 2.62323 0)
(0.00193155 1.7361 0)
(-0.0171451 1.73248 6.47025e-20)
(-0.00416093 1.72754 -7.94763e-20)
(0.703816 0.167803 -3.01979e-19)
(0.715539 0.139409 -2.95347e-19)
(0.668557 0.210001 -9.05005e-19)
(0.646362 0.202514 -5.71601e-19)
(0.156581 1.40987 0)
(0.34467 2.09863 7.17062e-20)
(0.408816 2.16108 -1.05386e-19)
(0.995463 0.0100076 0)
(0.982616 0.00183596 0)
(0.69138 0.00484348 0)
(1.12239 -0.0280873 0)
(0.889462 0.0774359 -3.24936e-18)
(0.950772 0.243645 2.44311e-18)
(0.0060137 1.75154 0)
(0.00633568 1.74368 0)
(-0.0359084 1.59729 0)
(-0.0435238 1.76244 0)
(-0.0060143 1.77885 0)
(-0.018014 0.151238 -2.01979e-20)
(0.0916878 0.0894913 0)
(1.02095 -0.00735777 0)
(0.998105 -0.00474355 0)
(0.929476 0.0621718 0)
(0.875042 0.187585 0)
(0.89275 0.000227509 0)
(1.15083 -0.00651602 0)
(0.82523 0.0300578 0)
(0.796215 0.0253631 1.38931e-18)
(-0.0443111 2.85259 5.35292e-19)
(0.0816517 3.15848 0)
(0.0266617 3.19652 0)
(0.0717446 3.01514 0)
(0.0752226 2.97168 4.33604e-19)
(-0.00397735 2.96659 0)
(0.00413703 2.95245 -1.28953e-18)
(-0.0381505 2.95635 4.27066e-19)
(0.032172 1.7472 0)
(-0.00122799 1.73569 0)
(0.0122124 1.72798 -1.99175e-21)
(-0.0404844 1.74589 0)
(0.00440866 1.72084 0)
(0.990586 -0.0138427 0)
(0.983228 -0.00526425 0)
(0.977756 0.000968 0)
(0.991744 -0.0202973 0)
(0.980774 0.0058611 0)
(0.867721 1.4188 -3.45982e-19)
(0.925935 1.39423 0)
(0.834008 1.34087 3.87765e-20)
(0.782121 1.29552 0)
(1.19404 1.46039 9.49465e-20)
(1.32729 1.3269 -2.37126e-19)
(0.564238 2.09891 0)
(0.76121 2.0251 0)
(0.667029 2.12373 0)
(0.536432 1.29745 -1.86134e-19)
(0.522922 0.298765 0)
(0.555594 0.247846 1.53697e-19)
(1.23969 1.22377 0)
(1.27263 0.988907 0)
(1.36505 1.06777 2.95289e-19)
(1.30985 0.759758 0)
(1.38696 0.626974 1.66557e-20)
(0.982563 0.0321638 0)
(0.982439 -0.0144774 0)
(0.979541 -0.00376009 0)
(0.991986 0.00198074 0)
(0.985546 -0.0490368 0)
(0.978897 0.00355653 0)
(1.1262 0.0105127 0)
(1.06946 0.0033076 0)
(0.687283 0.00804518 0)
(0.0556385 1.60559 2.3372e-19)
(-0.00230612 1.55433 0)
(0.0380066 1.65918 4.01031e-19)
(0.0108874 1.65948 -3.64389e-19)
(0.0617718 2.01801 9.40704e-20)
(0.0684425 1.90575 0)
(0.00180314 1.96468 0)
(0.00203467 1.76667 0)
(0.00230008 1.72604 0)
(0.00793162 1.71829 -2.09705e-21)
(-0.0160449 1.70217 0)
(-0.0108383 1.72944 -1.09987e-19)
(-0.00154565 1.71391 2.19951e-19)
(0.0138973 1.73605 0)
(0.0345701 1.74513 0)
(-0.000631365 1.73293 0)
(-0.00178305 1.75128 0)
(-0.00137962 1.76645 0)
(1.02328 0.012287 0)
(1.02291 0.000374292 0)
(1.00292 0.0158206 0)
(0.985329 -0.00361964 0)
(0.970627 -0.00115008 0)
(0.966628 0.00162835 0)
(0.962286 0.0159564 0)
(0.954017 -0.000619694 0)
(0.00385749 2.98264 -4.25631e-21)
(0.0194822 3.01727 0)
(-0.0337433 3.03519 0)
(-0.0432739 3.01452 0)
(0.51475 2.87107 0)
(1.27397 2.1837 1.32743e-20)
(-0.0720669 2.65136 0)
(-0.0768438 2.63992 0)
(-0.00579457 1.7387 0)
(-0.0109821 1.73943 0)
(-0.00707377 1.73846 0)
(0.127389 1.71448 -3.5762e-20)
(0.0355671 1.74574 0)
(-0.0395074 1.78871 0)
(0.00782008 1.72416 1.43218e-20)
(0.025752 1.71855 7.38006e-20)
(-0.0177882 1.7214 8.12018e-20)
(0.00700131 1.69775 0)
(0.734152 0.163856 4.75975e-19)
(0.742323 0.0971391 -4.69129e-19)
(0.209724 1.41799 0)
(0.220169 1.37494 -1.11381e-19)
(0.137935 1.47723 -3.59476e-19)
(0.0738191 1.48701 3.5904e-19)
(0.97968 -0.00168216 0)
(0.981692 -0.0148793 0)
(0.983659 0.00783072 0)
(0.978059 0.0013226 0)
(0.0262378 1.75094 0)
(0.0282267 1.73695 0)
(0.00394968 1.71732 0)
(0.248648 0.280806 4.09678e-19)
(0.0935346 0.239097 -4.10751e-19)
(0.232398 0.174491 0)
(1.17874 0.0918078 5.34021e-20)
(1.24656 0.0629301 0)
(1.11061 0.055498 0)
(1.07087 -0.00260052 0)
(0.76689 0.0949976 0)
(0.798198 0.0647518 -2.22593e-18)
(0.767122 0.0569962 8.25762e-19)
(-0.0776471 2.90833 4.59473e-19)
(-0.105504 2.94875 -3.18846e-20)
(0.0172436 3.03541 -7.52033e-21)
(-0.0577708 3.09676 3.01779e-19)
(-0.0489138 3.02801 1.32024e-20)
(0.0194349 2.94661 -5.12617e-23)
(-0.163262 2.75191 -3.2373e-19)
(0.201248 3.05781 2.33905e-19)
(-0.062044 3.04406 -3.01803e-19)
(0.992972 -0.0177854 0)
(0.986525 0.0471466 0)
(0.986891 0.00752097 0)
(0.97766 -0.00257868 0)
(0.976769 0.00984281 0)
(0.967738 -0.000943397 0)
(0.977431 -0.0119957 0)
(0.98148 0.00568409 0)
(0.977862 0.00042642 0)
(0.966899 1.45985 -3.52731e-19)
(1.02541 1.46426 0)
(0.626441 1.24371 5.93309e-20)
(0.653138 1.31704 4.57064e-19)
(0.739367 1.33606 -2.92655e-19)
(0.711562 1.30199 5.65357e-19)
(0.492847 1.31937 8.85492e-19)
(0.467949 1.28703 1.68728e-19)
(0.632995 0.238096 6.01182e-19)
(0.580356 0.2754 1.53109e-19)
(0.606721 0.229344 2.90362e-19)
(1.31048 0.556052 -3.59215e-19)
(1.35252 0.426923 -3.90387e-19)
(0.00823718 1.67435 1.74693e-19)
(0.00126943 1.66935 0)
(1.06394 0.0197028 0)
(1.03908 0.0150296 0)
(1.04561 0.000557852 0)
(-0.0515256 3.05396 0)
(0.110501 3.00801 6.58381e-19)
(0.0484974 3.04029 0)
(0.0178121 3.00043 -6.58095e-19)
(-0.152669 3.0378 1.46976e-19)
(-0.0857156 2.95675 0)
(1.0534 1.58429 8.95874e-20)
(1.27253 1.60386 -3.26314e-19)
(1.08305 1.4954 2.04014e-19)
(-0.108382 2.84613 -4.83895e-19)
(-0.118564 2.74749 0)
(-0.0682451 2.77917 0)
(-0.0122424 1.72042 -5.84963e-21)
(0.0428476 1.72121 -1.85869e-19)
(-0.00755573 1.71451 -7.7066e-21)
(0.274998 1.3654 3.60946e-19)
(0.268213 1.31222 -2.44633e-19)
(0.00564613 1.5542 2.82437e-19)
(0.0704278 1.52343 -3.10911e-19)
(0.0167079 1.51818 1.16184e-20)
(0.089767 2.97889 -9.84653e-19)
(-0.0841962 3.07281 1.15184e-18)
(0.138458 2.97926 4.34211e-19)
(-0.148373 3.04479 -4.25109e-19)
(0.139576 2.9901 -4.42415e-19)
(-0.154742 2.94532 -1.12521e-18)
(-0.210319 3.00054 1.16045e-18)
(0.553593 1.29756 0)
(0.575293 1.28429 -9.66399e-19)
(0.568649 1.24585 4.2915e-19)
(0.440934 1.32341 4.89097e-19)
(0.407694 1.30816 -7.60802e-19)
(1.24333 0.208065 2.0808e-19)
(1.27907 0.403656 0)
(1.32751 0.245864 -2.02729e-19)
(-0.0559753 1.72415 -2.2577e-21)
(0.0232852 1.70346 0)
(0.0102966 1.72258 0)
(0.289572 1.35405 -1.22274e-19)
(0.373521 1.3422 -2.86182e-19)
(0.35246 1.32627 5.36752e-19)
(0.961879 -0.039283 0)
(0.99102 -0.0715007 6.10114e-19)
(0.116207 1.71694 0)
(-0.00830003 1.58502 0)
(1.0066 -0.0765752 1.78086e-20)
(0.849435 -0.0406033 1.2637e-18)
(0.149858 1.84933 4.77583e-20)
(0.106352 1.72286 0)
(-0.101095 2.78463 4.93332e-19)
(0.183177 2.46957 0)
(1.20743 0.675802 -2.07071e-19)
(1.03102 -0.00665719 1.52305e-20)
(0.991204 0.0278229 0)
(0.885895 0.00350888 1.69925e-21)
(0.0173842 1.89009 0)
(0.0939673 1.69325 0)
(-0.0222995 1.80068 0)
(0.0668404 1.75898 1.02075e-19)
(0.0298249 1.75425 1.12178e-19)
(1.0047 0.000520927 2.54922e-20)
(1.00884 0.0450336 0)
(1.04675 0.0321488 0)
(-0.0498854 1.60124 0)
(0.02227 1.77539 0)
(-0.0202155 1.7986 0)
(0.269138 1.98826 1.47445e-19)
(1.01837 -0.150973 0)
(0.973081 -0.0371266 0)
(0.910336 0.112029 7.25468e-19)
(0.950417 0.0835945 -9.23625e-19)
(1.05388 -0.0783257 0)
(0.158904 1.70316 0)
(-0.081261 1.73185 0)
(-0.00977557 1.83647 0)
(-0.00209802 1.81152 0)
(-0.217819 1.86526 0)
(0.00154033 1.57955 0)
(1.00403 0.00970528 0)
(1.02344 -0.0104285 2.05552e-20)
(0.966176 1.6472 -1.69869e-19)
(0.926961 -0.134298 -7.28181e-19)
(1.00864 0.0480514 8.8962e-19)
(1.06235 0.0314758 0)
(0.992581 -0.00700317 7.20974e-19)
(1.08288 0.159436 -9.07886e-19)
(0.929705 0.0213465 0)
(-0.00116907 1.76883 0)
(0.212909 1.798 4.4822e-20)
(-0.0205131 1.66051 -3.66927e-20)
(1.12556 0.229229 1.10779e-18)
(1.08107 0.0619841 0)
(-0.916508 2.72046 -5.82812e-19)
(-0.35096 3.5596 -2.89594e-20)
(-0.474946 2.58043 1.14002e-18)
(0.0123193 2.68087 -2.84437e-19)
(0.0162535 2.54738 0)
(-0.00683657 2.88999 1.95069e-19)
(-0.396785 3.05517 5.69275e-19)
(-0.0582375 2.81544 -3.5118e-19)
(-0.404955 3.04377 0)
(0.593586 0.294853 0)
(0.417659 0.325452 0)
(1.04707 0.865293 6.19963e-19)
(1.15084 0.905923 -7.79945e-19)
(1.1638 0.517244 0)
(1.13693 0.558512 0)
(1.0172 0.0606277 -1.40818e-18)
(0.948447 0.0131471 1.77755e-18)
(1.06714 -0.177614 0)
(0.97309 -0.0330968 0)
(0.82894 0.096671 0)
(1.08319 -0.0870777 0)
(1.04306 0.0856535 0)
(0.957678 0.00623965 0)
(0.991666 -0.147415 0)
(0.90998 -0.0341763 0)
(0.0578431 1.86033 0)
(0.04219 1.71366 0)
(-0.0268396 1.86992 0)
(0.124148 1.84127 0)
(0.314665 1.7299 0)
(0.051542 1.60292 -2.28686e-19)
(0.0839246 1.65941 0)
(-0.0127737 1.63263 1.45852e-19)
(0.0821535 1.77305 -2.09374e-19)
(0.0856871 1.77267 0)
(0.0733372 1.71326 0)
(-0.0602745 1.75864 0)
(-0.0531505 1.69981 0)
(-0.00393012 1.75301 -1.2319e-19)
(0.0378198 1.79913 1.18839e-19)
(-0.0404564 1.80672 2.34923e-19)
(-0.0222762 1.68142 0)
(-0.085243 1.77172 -3.27139e-19)
(-0.0353542 1.68538 -1.89198e-19)
(0.127745 1.90808 9.09934e-20)
(-0.268503 1.65502 -1.51449e-19)
(-0.044804 1.59505 -2.87876e-19)
(0.993816 -0.0488273 1.26211e-18)
(0.947947 -0.0294685 -1.61493e-18)
(0.9819 0.039411 -1.32984e-18)
(0.916152 0.0222835 1.69097e-18)
(1.08289 0.16732 0)
(0.992612 0.0143271 0)
(1.07492 0.0677416 0)
(1.08492 -0.0628993 0)
(0.985575 0.000752194 0)
(1.12461 0.102127 0)
(1.08371 -0.00149912 0)
(0.996729 0.0290891 0)
(-0.260934 1.66355 -1.0992e-20)
(-0.0840441 1.69348 0)
(0.102713 1.73094 0)
(0.0675693 1.74558 2.26242e-20)
(0.0694755 1.72167 -2.30272e-21)
(-0.0567623 1.71454 1.00927e-19)
(-0.211906 1.65673 -1.01167e-19)
(-0.130794 1.74548 0)
(0.12818 1.7364 0)
(0.136359 1.62806 0)
(-0.0849765 1.78378 0)
(-0.0810364 1.74016 0)
(0.326873 1.92781 -3.25287e-19)
(0.466736 1.9619 -1.10162e-19)
(0.320549 1.42405 -8.97102e-20)
(0.218882 1.58885 2.67192e-19)
(0.368641 1.81588 8.41531e-20)
(1.05289 0.0641494 0)
(0.998846 0.0780195 0)
(0.982596 0.0577951 0)
(0.915701 -0.0561129 0)
(1.03637 -0.0387292 0)
(0.929346 0.0525125 0)
(0.955367 0.141746 0)
(0.959596 -0.0048897 0)
(1.0031 -0.0445668 1.30883e-18)
(0.972765 -0.0282291 -1.68859e-18)
(1.00825 0.0559575 -1.3565e-18)
(0.957154 0.0277228 1.69817e-18)
(0.917078 1.64398 0)
(0.863914 1.73436 -2.90067e-19)
(0.86464 1.60914 -2.37063e-19)
(0.998215 1.42384 3.12967e-19)
(0.907966 1.51629 1.03964e-18)
(0.837977 0.116128 5.4144e-19)
(1.1224 0.0577673 0)
(1.1733 0.282429 -8.72809e-19)
(1.09625 0.0984198 -3.78653e-20)
(1.00782 0.077883 0)
(-0.710418 2.32096 6.55047e-19)
(-1.04073 2.26108 -8.38891e-19)
(-1.37817 3.2842 2.27094e-19)
(-1.78536 0.840115 -1.76095e-19)
(-0.075982 2.32875 3.0971e-19)
(-0.226393 2.55752 0)
(-0.124379 2.42934 -3.94747e-19)
(-0.165651 2.17073 -1.57889e-18)
(-0.0505142 2.24191 0)
(-0.0918411 2.94372 3.42496e-20)
(0.0166103 3.09177 -2.74045e-19)
(-0.00891 3.00055 4.17443e-19)
(-0.312739 2.99652 0)
(-0.0244306 2.93307 0)
(1.03312 1.67346 0)
(0.336482 1.1308 -4.39839e-19)
(1.09937 1.1383 2.59834e-19)
(0.908836 1.46174 0)
(0.782155 1.04096 -2.18257e-19)
(1.01575 1.11504 1.8085e-20)
(-0.039521 0.253974 -6.24923e-19)
(0.628825 0.24238 -1.1975e-20)
(0.614072 0.28265 3.234e-19)
(0.338105 0.449322 2.1255e-20)
(0.263973 0.319467 -8.15402e-19)
(0.523488 0.444767 0)
(0.524031 0.566788 5.50937e-19)
(0.551952 0.332544 0)
(0.414256 0.357667 0)
(0.459418 0.328499 0)
(0.602714 0.700613 4.63441e-19)
(1.19999 0.176965 -9.75689e-19)
(1.12102 0.559087 0)
(1.19654 0.288448 0)
(0.72553 0.214706 5.34509e-19)
(0.609767 0.740745 -3.30985e-19)
(0.50005 0.518395 6.32373e-19)
(0.802968 0.352757 -7.92531e-19)
(0.995849 -0.0551117 9.19001e-19)
(1.01142 0.18021 -9.53185e-19)
(0.976115 0.0209652 0)
(1.01537 -0.0270287 0)
(1.00227 -0.0255419 -8.75675e-19)
(0.974911 0.0407786 8.6955e-19)
(0.954402 0.0896841 0)
(0.90776 0.0327406 0)
(1.0025 -0.00285414 0)
(0.952559 -0.0679941 0)
(1.08322 0.0183281 0)
(0.9469 -0.0365471 0)
(0.232349 1.80076 0)
(0.108986 1.75462 0)
(0.348758 1.86357 -2.84713e-19)
(0.34813 1.98208 -1.14163e-19)
(0.366467 1.89757 -2.69304e-19)
(0.230456 1.89386 4.25921e-19)
(-0.04031 1.76189 0)
(0.0462191 1.77564 -2.10884e-19)
(-0.120214 1.78631 0)
(0.240177 1.65084 -1.20393e-19)
(0.155609 1.60582 3.3966e-19)
(0.349531 1.64781 1.83925e-19)
(0.135784 1.75157 -1.24562e-19)
(0.0712816 1.76826 1.00111e-19)
(0.152917 1.78317 -2.94456e-19)
(0.228361 1.84023 0)
(0.324515 1.65276 2.27311e-19)
(0.138507 1.59261 -8.93426e-20)
(0.233873 1.75988 0)
(0.00295555 1.81264 2.20892e-19)
(-0.183274 1.63834 0)
(0.0336433 1.68497 -1.6176e-19)
(0.00749235 1.61806 0)
(-0.0127685 1.71415 -1.02304e-19)
(0.0929177 1.67106 0)
(-0.0368835 1.78032 0)
(0.079316 1.7079 1.1479e-19)
(0.177948 1.81776 8.33698e-21)
(0.00330368 1.75327 2.66965e-19)
(0.0187994 1.68056 1.92611e-21)
(0.21655 1.70956 9.31107e-20)
(0.127277 1.57387 5.64711e-20)
(-0.206765 1.7365 0)
(-0.0817316 1.74225 0)
(0.00242891 1.63434 1.98177e-19)
(-0.0254394 1.67449 1.8275e-19)
(0.0859348 1.83075 -2.22704e-19)
(-0.0264553 1.81302 0)
(0.133252 1.82194 -1.68563e-19)
(-0.104974 1.62965 5.42801e-20)
(-0.0567903 1.75061 -1.79949e-20)
(0.156171 1.86264 -1.11404e-19)
(0.203947 1.64955 -2.47331e-20)
(-0.00399159 1.60689 2.74095e-19)
(0.989055 0.0651352 -9.06612e-19)
(1.00052 -0.170302 8.71309e-19)
(0.968114 0.0308899 0)
(0.934107 -0.0747988 1.24183e-18)
(0.905708 0.168809 -1.34929e-18)
(0.974783 -0.00811373 1.47276e-18)
(0.953144 -0.0331044 -1.54534e-19)
(1.06885 -0.147704 0)
(1.0189 0.0104564 8.76899e-19)
(0.972557 -0.0407847 -8.67064e-19)
(0.97114 -0.0912878 -5.11425e-20)
(0.959178 0.146583 4.261e-19)
(0.955545 0.0887414 0)
(0.945176 0.121788 -1.45839e-19)
(0.978754 0.01168 0)
(0.942498 0.0918571 0)
(1.06486 0.0790005 0)
(0.911303 -0.0272532 0)
(0.972618 0.0863316 3.21694e-19)
(1.08149 -0.00636563 -6.61182e-19)
(1.03615 -0.0375493 -3.34273e-19)
(1.00629 -0.0211485 -3.78371e-19)
(1.12573 0.0325254 7.21507e-19)
(0.950192 0.0741796 0)
(0.970355 -0.0299302 0)
(-0.0442506 1.87806 -1.39566e-19)
(0.289888 1.82413 -1.87619e-20)
(0.101495 1.5314 0)
(0.0263469 1.72039 1.43161e-19)
(-0.219213 1.62658 2.87986e-20)
(-0.119041 1.66231 -7.84117e-21)
(-0.175161 1.78017 1.58595e-19)
(-0.143183 1.7433 -5.72488e-21)
(0.182796 1.65995 5.57768e-20)
(0.157478 1.75328 -7.04052e-20)
(-0.0764683 1.73927 8.18108e-20)
(-0.0671746 1.61384 -3.98071e-21)
(0.0577333 1.95753 1.11732e-19)
(0.458141 1.70051 1.76074e-19)
(0.221775 1.90943 2.85093e-19)
(0.763224 1.80386 2.82547e-19)
(0.567656 1.91108 1.05819e-19)
(0.679126 1.90859 0)
(0.437271 1.44185 1.04355e-19)
(0.271871 1.36606 1.24736e-19)
(0.300655 1.55036 1.6389e-20)
(0.264812 1.5191 -3.9946e-19)
(0.584281 1.56463 3.37098e-19)
(0.172876 1.49947 0)
(0.182526 1.42757 -2.11159e-19)
(0.113378 1.64242 5.59629e-19)
(-0.0616377 1.61268 -2.50638e-21)
(0.033721 1.49984 -6.9252e-19)
(0.662525 1.36302 5.2785e-19)
(0.465698 1.43188 0)
(1.05087 0.20115 3.03498e-20)
(0.984633 -0.162476 -2.56655e-20)
(0.964676 -0.131964 -4.31163e-19)
(1.07075 0.0564015 4.36748e-19)
(0.960968 0.00934964 0)
(0.690029 1.59215 0)
(0.919144 1.59192 0)
(0.851719 1.30625 0)
(0.752164 1.44004 0)
(0.746722 1.57627 1.74992e-20)
(0.690434 1.46221 0)
(0.5067 1.38512 6.09281e-21)
(0.388542 1.40871 0)
(0.554863 1.58558 -5.26245e-19)
(0.66026 1.40619 3.39818e-19)
(0.784288 0.091281 0)
(0.765314 0.115356 1.4273e-19)
(0.854337 0.174833 8.77595e-19)
(0.837078 0.0438849 -3.21525e-19)
(0.831494 0.0886865 -1.01157e-18)
(1.15815 0.200185 -1.08221e-18)
(0.687436 0.461476 -3.52906e-20)
(0.942379 0.111314 7.9565e-19)
(0.896056 0.117079 8.44805e-19)
(0.847153 0.200227 -1.20273e-18)
(0.909541 0.296704 1.44498e-19)
(0.717101 0.286402 -3.98318e-19)
(0.757672 0.288898 0)
(0.923496 0.147369 6.01925e-19)
(1.03809 0.123081 0)
(0.966073 0.0918277 0)
(0.992006 0.225221 3.7396e-19)
(0.973176 0.390304 -2.08777e-21)
(0.827379 0.0934511 -2.10243e-19)
(0.973124 0.0720115 0)
(0.955367 0.0198448 7.1386e-19)
(0.894107 -0.111836 8.39453e-19)
(1.08093 0.0727995 -6.93036e-19)
(1.01326 0.158406 -5.65564e-19)
(0.95282 -0.0727954 -8.81195e-19)
(0.862788 0.234859 0)
(0.931624 0.0111378 0)
(0.87707 0.0990008 -5.17237e-19)
(0.842856 -0.107138 1.99483e-19)
(1.03459 0.161342 7.50136e-19)
(1.04777 0.0767145 -1.02889e-18)
(0.924562 0.121235 8.94807e-19)
(0.870947 0.196456 0)
(1.05327 0.199553 0)
(0.868483 0.0872876 -4.03409e-19)
(0.938415 0.0492031 -6.24803e-19)
(0.531388 1.58528 2.67077e-19)
(0.631894 1.37149 -2.43699e-19)
(0.748377 1.46564 -4.0735e-19)
(0.677056 1.60045 1.00784e-19)
(0.867798 1.5478 -9.79205e-19)
(0.965684 1.69004 3.60089e-19)
(0.835463 1.44497 2.23276e-21)
(0.884067 1.6717 -4.24167e-19)
(0.700876 1.60323 6.50038e-19)
(0.676416 1.8009 1.79128e-19)
(1.03416 1.72212 -1.80861e-19)
(1.03531 1.95484 0)
(0.518098 1.45064 -5.09965e-20)
(-0.505688 1.63814 3.50469e-19)
(-0.562339 0.513672 3.60612e-19)
(-0.51077 0.493146 1.87502e-19)
(0.158138 0.460556 4.67451e-19)
(0.177671 0.400717 -8.47162e-19)
(0.109283 0.654876 6.86859e-19)
(-0.101054 0.363676 -2.06022e-19)
(0.13177 0.305703 4.42941e-19)
(0.687899 0.299578 -3.12166e-19)
(0.62327 0.329903 0)
(0.63843 0.253707 -2.40196e-21)
(0.527284 0.470376 3.0268e-19)
(0.277105 0.574604 -1.08494e-18)
(0.23362 0.541076 -1.1571e-20)
(0.438807 0.389757 0)
(0.467502 0.965307 4.08125e-19)
(0.745825 0.871947 4.46856e-19)
(0.642377 1.2612 -5.22726e-19)
(0.714818 0.892068 -2.23827e-19)
(0.908732 0.894715 -7.59519e-20)
(1.00342 1.18303 7.7934e-20)
(0.683557 0.69723 -7.62355e-19)
(0.78372 1.0316 2.09562e-19)
(1.0337 0.863288 0)
(0.891924 0.741912 -2.79874e-19)
(0.872539 0.216116 2.91526e-19)
(0.943766 0.442715 5.27924e-19)
(0.966452 0.284795 4.28568e-19)
(0.906624 0.440627 -5.263e-19)
(1.0265 0.390913 0)
(1.04794 0.321896 0)
(0.689748 0.477178 -5.06683e-20)
(0.803694 0.196981 0)
(0.622417 0.237751 3.68189e-19)
(0.79657 0.321757 1.39279e-20)
(0.896431 0.591214 2.19987e-18)
(0.775861 0.56867 5.61004e-19)
(0.707901 0.488127 -5.38133e-19)
(0.664599 0.438017 5.78834e-19)
(0.678623 0.612647 3.08743e-19)
(0.572376 0.403868 -3.01376e-19)
(1.05638 0.0820023 7.20364e-19)
(0.913847 -0.11181 0)
(0.903723 -0.0157102 4.69537e-19)
(0.833166 0.188949 -1.06665e-18)
(1.06782 -0.00560622 5.09777e-19)
(0.905656 0.0378993 -1.08988e-18)
(1.05698 -0.0267753 0)
(0.986376 0.00409342 -2.29361e-19)
(0.98185 0.0775327 5.73975e-19)
(0.961168 -0.00303974 -2.9233e-19)
(0.911662 -0.14766 2.16635e-19)
(-0.164375 1.78342 0)
(0.241529 1.69605 0)
(-0.10885 1.75393 0)
(-0.0222122 1.76172 0)
(-0.0105471 1.84555 3.84904e-19)
(-0.0525101 1.84576 -6.08655e-20)
(0.0897607 1.51658 -1.22949e-19)
(0.16363 1.51204 1.80177e-19)
(-0.315647 1.85427 -3.1265e-19)
(0.100415 1.57084 2.41352e-19)
(0.0172605 1.82273 8.02526e-20)
(-0.0319257 1.65425 -3.82228e-19)
(0.0946406 1.73745 -3.8881e-20)
(0.336485 1.67303 -3.98646e-20)
(-0.0428821 1.71346 -2.37582e-19)
(0.0954057 1.64891 0)
(-0.0873299 1.77379 1.25578e-19)
(0.0977375 1.70926 9.63314e-20)
(0.121402 1.57065 -1.13529e-19)
(0.0230494 1.78067 0)
(0.280247 1.52619 -4.5303e-19)
(0.115956 1.62506 3.22908e-19)
(0.336597 1.61845 -3.02771e-19)
(0.207892 1.52281 1.92286e-19)
(-0.0876623 1.29205 0)
(0.135549 1.5461 -2.46157e-19)
(-0.0978696 1.52092 -2.33823e-19)
(-0.0196975 1.75885 0)
(0.0331994 1.79215 -5.96521e-21)
(-0.0469827 1.896 1.24709e-19)
(-0.0468798 1.73707 1.8266e-20)
(0.125 1.67735 -1.63647e-19)
(-0.129011 1.84235 1.57208e-20)
(-0.103387 1.38736 8.56234e-20)
(0.138779 1.92245 0)
(-0.0193485 1.83763 0)
(-0.229982 1.80064 7.0988e-20)
(0.205024 1.72294 -2.01449e-20)
(-0.086525 1.75175 0)
(0.132947 1.76961 6.90918e-20)
(0.064829 1.72377 -1.2412e-19)
(0.923016 0.275879 0)
(1.13305 0.0201449 -8.06094e-20)
(0.907659 0.109054 -5.8096e-19)
(0.890829 0.0208686 0)
(0.850124 -0.176778 0)
(1.07613 -0.0362555 -1.44318e-20)
(0.974055 -0.17318 8.51609e-19)
(0.913456 -0.0118345 1.15529e-18)
(1.03664 0.0230318 0)
(0.996344 -0.0119791 0)
(0.956378 -0.0562253 5.24777e-19)
(0.953839 0.0204946 0)
(0.90831 0.153873 0)
(-0.0290461 1.8371 0)
(-0.043905 1.4968 4.5433e-20)
(-0.0994068 1.55796 1.08804e-20)
(-0.0408283 1.74975 0)
(0.274848 1.84983 1.02795e-19)
(0.0452397 1.78593 -1.73261e-20)
(0.0800775 1.61525 0)
(0.295041 1.55979 0)
(0.326532 1.36892 -5.56147e-19)
(0.313045 1.46503 0)
(0.523996 1.78723 7.39866e-19)
(0.537622 1.71285 0)
(0.566023 1.81042 -3.26157e-19)
(0.351375 1.3469 -1.21202e-20)
(0.791942 1.31882 -6.21952e-19)
(0.605167 1.33253 8.61091e-19)
(0.54308 1.3773 1.54352e-19)
(0.380302 1.45114 0)
(0.553066 1.39158 0)
(0.465166 1.43761 0)
(0.429112 1.33397 -5.52587e-19)
(0.462958 1.41115 -4.22558e-19)
(0.266729 1.37482 -1.01216e-19)
(0.586169 1.66862 8.15264e-20)
(0.280513 1.436 0)
(0.477331 1.38983 0)
(0.36154 1.34167 -1.541e-19)
(0.400106 1.45582 0)
(0.503879 1.43623 0)
(0.745192 1.36611 -6.10943e-19)
(0.415599 1.16272 -3.51665e-20)
(0.794913 1.41882 0)
(0.70413 1.50736 9.29968e-19)
(0.75912 1.39913 -2.05963e-19)
(1.14893 1.20744 0)
(0.811344 0.927447 3.4125e-19)
(0.370244 1.5983 0)
(0.36124 1.22184 0)
(0.744656 1.34743 -3.78691e-19)
(0.681887 1.53731 -2.65726e-19)
(0.798418 1.44519 4.39281e-19)
(0.69662 1.57734 -1.38604e-19)
(0.738101 1.48647 0)
(0.695164 1.41048 1.79608e-19)
(0.756038 1.41092 -3.04348e-19)
(0.753679 1.38729 -4.52798e-22)
(0.623757 1.47558 0)
(0.55601 1.54737 -2.33981e-19)
(0.527449 1.36333 0)
(0.812961 0.117205 0)
(0.792091 0.226594 0)
(0.689945 0.19597 0)
(0.760719 0.353907 -5.80878e-19)
(0.749405 0.175001 3.17704e-19)
(1.04932 -0.0443815 -4.12451e-19)
(0.843533 -0.00186441 0)
(0.919832 -0.0184314 1.67216e-19)
(0.862452 0.182045 6.79464e-19)
(0.721605 0.0535559 -4.38326e-19)
(0.973918 2.22416 2.70472e-19)
(0.751041 1.88993 0)
(0.952047 2.09002 5.67266e-19)
(0.238576 2.22259 -5.04755e-19)
(0.19543 1.75103 -4.38778e-19)
(0.173968 1.37466 5.39343e-19)
(0.392531 1.51473 0)
(0.113555 0.960215 -1.1558e-19)
(0.00234778 1.16876 7.18523e-19)
(-0.252489 1.04244 -1.71065e-19)
(0.0672 0.61488 2.00574e-19)
(0.256295 0.667037 3.9969e-19)
(0.525684 0.691851 0)
(0.281466 0.905679 0)
(0.111472 0.919347 0)
(0.834898 0.79331 2.38977e-19)
(0.849414 0.60971 -5.39573e-19)
(0.927899 0.642475 4.68195e-19)
(0.789069 0.403644 -4.43232e-19)
(0.973323 0.719127 0)
(0.905648 0.64293 -1.50533e-19)
(0.777643 0.383714 -7.57741e-19)
(0.741465 0.219395 -8.98106e-19)
(0.597025 0.439104 5.94257e-19)
(0.596052 0.433488 -5.29026e-19)
(0.712888 0.414741 -4.56291e-19)
(0.703942 0.293112 5.6304e-19)
(1.02834 -0.00638002 -5.82912e-19)
(1.10575 0.0385796 1.21078e-18)
(1.05823 0.015425 7.12153e-19)
(1.09619 -0.11075 -8.62051e-19)
(0.771349 0.0203709 0)
(0.76179 -0.0144385 -1.37257e-18)
(0.129684 1.55165 5.39928e-20)
(-0.12257 1.70964 0)
(0.176075 1.84582 4.40166e-19)
(0.16009 1.74668 -3.98249e-19)
(0.0311915 1.8769 2.2681e-19)
(0.164903 1.78141 0)
(-0.120091 1.81667 0)
(0.178183 1.59472 -4.02577e-20)
(0.0274326 1.64872 3.60686e-20)
(0.270862 1.5745 1.56133e-20)
(-0.30642 1.77828 -1.04158e-19)
(-0.13175 1.74533 2.01248e-20)
(0.569668 1.56598 -6.68053e-19)
(0.714473 1.58169 6.99436e-19)
(0.424148 1.76736 -3.39149e-19)
(0.705925 1.57984 3.3723e-20)
(0.523249 1.78065 0)
(0.698908 1.75377 -3.86829e-19)
(0.595172 1.64406 3.75017e-19)
(0.485225 1.65523 3.34291e-19)
(0.58533 1.68228 0)
(0.764852 1.72236 0)
(0.709332 1.37105 6.43765e-19)
(0.368711 1.5586 8.22786e-19)
(0.111993 1.50652 -5.6777e-19)
(0.0565126 1.58787 -8.79818e-20)
(0.33083 1.4434 1.85763e-19)
(0.319514 1.21327 -4.4516e-19)
(0.679994 1.34415 -4.83785e-19)
(0.534262 1.45928 0)
(0.563086 1.36128 -5.40144e-19)
(0.796426 1.41593 0)
(0.58699 1.67103 0)
(0.483862 1.8181 -4.04763e-19)
(0.590747 1.79001 -3.24945e-19)
(0.345618 1.97345 3.85167e-19)
(-0.32793 1.40943 0)
(0.0114726 1.37294 -2.4995e-19)
(0.180356 1.50415 -3.41852e-19)
(0.414646 1.65481 0)
(0.486545 1.85014 3.15415e-19)
(0.151947 1.89662 0)
(0.60725 1.01658 -8.65345e-19)
(0.574558 1.09049 1.20166e-18)
(0.735672 0.791086 -1.18409e-18)
(0.388809 0.822068 -1.03821e-19)
(0.371722 0.847877 -4.31263e-19)
(0.764346 1.71644 2.41312e-19)
(0.694243 1.64001 -5.10526e-19)
(0.422654 1.73968 6.98902e-19)
(0.506026 1.54369 -4.57207e-19)
(0.62692 1.72712 -6.42745e-19)
(0.62327 1.70734 -5.92968e-20)
(0.720533 1.45823 5.28965e-19)
(0.552205 1.66953 3.65814e-20)
(0.601281 1.42828 2.60796e-19)
)
;

boundaryField
{
    wall-4
    {
        type            noSlip;
    }
    velocity-inlet-5
    {
        type            fixedValue;
        value           uniform (1 0 0);
    }
    velocity-inlet-6
    {
        type            fixedValue;
        value           uniform (0 3 0);
    }
    pressure-outlet-7
    {
        type            zeroGradient;
    }
    wall-8
    {
        type            noSlip;
    }
    frontAndBackPlanes
    {
        type            empty;
    }
}


// ************************************************************************* //
