/*--------------------------------*- C++ -*----------------------------------*\
| =========                 |                                                 |
| \\      /  F ield         | OpenFOAM: The Open Source CFD Toolbox           |
|  \\    /   O peration     | Version:  2206                                  |
|   \\  /    A nd           | Website:  www.openfoam.com                      |
|    \\/     M anipulation  |                                                 |
\*---------------------------------------------------------------------------*/
FoamFile
{
    version     2.0;
    format      ascii;
    arch        "LSB;label=32;scalar=64";
    class       volScalarField;
    location    "0.6";
    object      p;
}
// * * * * * * * * * * * * * * * * * * * * * * * * * * * * * * * * * * * * * //

dimensions      [0 2 -2 0 0 0 0];

internalField   nonuniform List<scalar> 
918
(
2.70519
1.92891
0.366283
2.71856
0.0918703
1.76981
0.204091
1.94358
2.81503
0.629193
0.451157
2.30872
1.23174
1.23364
0.690661
0.238333
2.23832
0.0801817
2.43327
0.295937
-0.144469
2.91599
2.57084
2.43137
2.26708
0.635683
1.31216
0.192469
-0.137908
-0.0385878
0.183672
0.235457
0.177494
1.14891
1.61839
1.99018
2.35888
1.63037
0.456698
0.436121
0.268999
0.0388603
1.989
2.0278
1.20409
1.88768
1.79525
2.44906
2.6672
2.82009
2.55939
2.66319
2.8757
0.911948
0.646654
0.602634
0.645785
0.62228
0.562739
0.482556
0.490382
0.460449
0.467784
2.21472
2.31184
2.32021
2.31467
2.30046
1.83532
1.87087
2.0967
0.86116
1.21254
1.3492
1.34913
1.25289
1.27061
1.25379
1.07543
0.596089
0.157721
0.953822
0.983637
-0.0267982
0.26535
0.277125
2.23546
2.24656
2.20905
2.19
1.43898
0.245314
-0.0145502
2.44534
2.47531
2.8395
2.60634
2.67181
2.56307
0.318428
0.320238
0.231647
0.314216
0.335433
0.656298
0.986176
2.45622
2.49227
2.29001
2.33887
2.29937
1.97074
2.32947
2.2983
1.10862
1.11044
0.867011
1.02264
1.25041
1.18531
1.37166
1.32119
-0.0781557
0.0182203
0.25121
0.198652
0.245934
2.35875
2.32843
2.38936
2.36997
2.39354
1.53554
1.50177
1.69613
1.74755
0.750108
0.747092
0.157511
0.171969
-0.00538908
1.7484
2.07951
2.1072
1.00855
1.23259
1.01645
1.32903
1.36404
2.38667
2.45203
2.41414
2.48307
2.48689
2.49721
2.65395
2.65177
2.84082
0.97962
1.04376
0.859759
0.817707
0.380693
0.480062
0.381317
0.574337
0.607402
0.608931
0.599239
0.539413
0.514109
0.573498
0.535561
0.557435
0.424931
0.38611
2.18732
2.17627
2.25145
2.26502
2.34404
2.32972
2.34224
2.34554
1.38395
1.43937
1.37099
1.32672
-0.297815
-2.39009
1.08358
1.09811
0.0401501
-0.0354521
0.00670642
0.0545196
0.0293305
0.0158255
0.388136
0.334755
0.311286
0.360503
2.26099
2.28647
1.43165
1.5065
1.34311
1.32335
2.4346
2.45923
2.48204
2.46766
0.380058
0.373794
0.393391
1.70477
1.37632
1.53988
1.91197
1.81538
2.03713
2.07281
2.28195
2.26924
2.29489
1.1432
1.13991
1.49167
1.33475
1.41778
1.40471
1.52039
1.44214
1.13589
2.27592
2.30232
2.30613
2.40598
2.41015
2.41852
2.34978
2.37507
2.35836
1.38048
1.18466
1.80412
1.7399
1.7069
1.75252
1.71587
1.73664
2.15839
2.11491
2.14308
1.54193
1.50689
0.741255
0.713365
2.11029
2.16074
2.1339
1.31392
1.30396
1.29597
1.32735
1.30285
1.31495
1.03531
0.677474
0.867041
1.16064
1.15937
1.17399
0.490576
0.441406
0.45498
1.5221
1.57958
1.09351
1.22418
1.20004
0.854126
1.15158
1.18485
0.958266
1.14257
1.27398
1.27007
1.74426
1.77033
1.79086
1.6773
1.69685
1.77923
1.59675
1.62775
0.619052
0.68653
0.654353
1.56039
1.6349
1.62192
2.48641
2.60655
-0.0575662
0.133861
2.67071
2.71759
-0.0685845
0.120039
1.25293
1.04529
1.64421
2.49397
2.46474
2.59249
0.620457
0.901847
0.452309
0.556163
0.481656
2.27786
2.23643
2.15548
0.0242536
0.263814
0.296293
0.546306
2.58053
2.51158
2.65389
2.6667
2.67067
0.105914
0.0222511
0.0399218
0.283327
0.253567
0.311717
2.39558
2.36059
0.788786
2.64302
2.65019
2.65996
2.54736
2.57597
2.49098
0.24263
0.156437
0.248612
1.93979
2.05931
1.2724
0.623139
1.44495
1.21204
1.04372
1.19852
1.10395
1.2545
0.970704
2.06092
1.92067
1.75009
1.49689
1.75857
1.72111
2.51751
2.47646
2.50716
2.42539
2.54334
2.39865
2.60519
2.51995
2.57406
2.59455
0.663193
0.70529
0.683129
0.52623
0.912286
1.05826
0.82834
0.876965
0.621274
0.430229
0.461583
0.446102
0.539242
0.490267
0.473655
0.547021
0.525395
0.513129
0.438951
0.465346
0.602463
0.528755
2.22514
2.32376
2.27467
2.31924
2.20473
2.30173
2.1717
2.21591
2.19639
2.06385
2.16504
2.11638
0.0376486
0.135512
0.181485
0.221248
0.299024
0.163718
0.267602
0.205119
0.203286
0.226842
0.238823
0.33411
0.60716
0.467335
1.45088
1.24723
0.752408
2.40044
2.53504
2.4846
2.55101
2.56613
2.57768
2.60318
2.46465
2.36326
2.42257
2.36503
2.35619
0.836823
0.693365
0.803483
0.977579
1.5551
2.25759
2.09994
1.94838
1.96796
2.12943
2.0996
1.93365
0.137004
-0.667398
1.12173
0.756814
1.03609
1.09907
1.46766
1.18652
1.08266
1.10519
1.08389
1.249
1.21367
1.9308
1.26251
1.17793
1.52725
1.4869
1.26786
2.07298
2.10331
1.88446
1.78057
2.02305
1.98402
2.00326
1.99923
2.00498
2.04408
1.97121
1.81126
1.77672
2.18652
2.0295
2.03941
2.08591
2.45027
2.52185
2.4326
2.39728
2.48213
2.38
2.3772
2.34891
2.46604
2.50888
2.46008
2.40977
0.719783
0.605014
0.784507
0.680135
0.764559
0.580396
0.825627
0.854187
0.782536
0.966181
1.11016
0.774064
0.780409
0.768006
0.782787
0.99293
0.918001
0.831894
0.630219
0.742657
0.778556
0.775553
0.714561
0.510291
0.545325
0.682339
0.479921
0.584924
0.595744
0.677736
0.449946
0.500703
0.432095
0.422237
0.521658
0.610755
0.512954
0.671032
0.228099
0.217257
0.161633
0.311366
0.460079
0.573147
2.35579
2.29478
2.32581
2.32631
2.34485
2.29823
2.12736
2.43292
2.40183
2.34516
2.22411
2.1978
2.20551
2.18284
2.24962
2.22869
2.3927
2.37975
2.28551
2.23707
2.13185
2.23705
2.17509
2.19804
2.16488
0.189752
0.252478
0.201215
0.237289
0.227501
0.241627
0.446588
0.27888
0.432002
0.349904
0.317883
0.252213
0.245005
0.771188
0.848824
0.767737
0.572784
0.491793
1.45138
1.49292
1.32133
1.19317
1.25986
1.4033
1.42221
1.16328
1.21611
1.26053
1.70512
1.58391
2.51874
2.47352
2.43397
2.53414
2.46886
1.0783
1.33199
1.20186
1.57657
1.59984
1.65696
1.46429
1.41517
1.43814
1.5374
2.22388
2.26011
2.21038
2.2644
2.24852
1.96139
2.09954
2.04961
2.35604
2.17166
2.16091
2.26785
2.21657
2.12903
2.09824
2.16252
2.16482
2.11755
2.13079
2.08237
2.27203
2.19045
2.25371
2.17507
2.2242
2.11758
2.2907
2.32668
2.30976
2.0968
2.11911
2.15331
2.17402
2.13078
2.14789
2.14095
1.47819
1.49334
1.53155
1.55373
1.53189
1.39451
1.42337
1.46966
1.51983
1.28806
1.12536
0.84623
1.79398
1.75947
1.44477
1.24256
1.73924
1.87447
1.80629
1.59328
1.55739
2.16129
2.11974
2.14789
2.03968
1.98137
1.94507
1.92304
2.21854
1.87264
1.69411
1.84604
1.61843
1.70308
1.94229
1.86907
1.83926
1.8392
2.18103
1.94506
1.95838
2.07604
1.88968
1.86664
2.02432
2.1025
2.17754
2.16123
1.97359
2.02038
2.00047
2.02081
2.04052
2.02504
2.41073
2.41272
2.40571
2.43786
2.38256
2.39412
2.33003
2.38489
2.45141
2.41103
2.49558
0.418206
0.524241
0.633553
0.52727
0.606428
0.617017
0.882438
0.779505
0.688366
0.770602
0.724606
0.736697
0.662423
0.636668
0.756654
0.729683
0.660601
0.653059
1.12619
1.14367
1.12752
1.11383
1.10509
1.0503
1.10275
0.534315
0.648245
0.588117
0.532902
0.582575
0.420412
0.43447
0.345561
0.493811
0.511355
0.223175
0.348823
0.359604
0.340999
0.406051
0.387361
2.27855
2.30227
2.29061
2.30992
2.25191
2.32387
2.31195
2.4107
2.3765
2.36499
2.33687
2.3585
2.31241
0.375209
0.53249
0.511654
0.325481
0.351982
0.180607
0.159664
1.39911
1.05792
1.06196
1.05855
0.798351
0.903311
1.60323
1.67875
1.7159
1.63066
1.57092
1.51069
1.65615
1.71577
1.29591
1.50447
1.43862
1.46246
1.52807
1.55179
1.50804
1.36344
1.6605
1.81901
1.35395
1.46803
1.68411
1.61982
1.69364
1.66663
1.7946
1.59925
1.5475
1.45854
1.5081
1.6503
1.59678
1.69234
1.7018
1.32504
1.42507
1.41465
2.19248
2.22656
2.2273
2.19965
2.20109
2.25383
2.1333
2.23139
2.26798
2.30174
0.959726
0.964473
0.781286
1.36512
1.73999
2.11375
1.8117
2.11535
2.09975
1.89329
2.0562
2.00433
1.98143
2.05829
1.97937
1.81655
1.88042
1.83847
1.88555
1.82456
1.85361
2.07474
2.00983
2.09705
2.05524
2.06852
2.11309
2.33708
2.45702
2.33027
2.42365
2.35707
2.38271
0.752271
0.652411
0.747189
0.701911
0.653196
0.575669
0.289263
0.323045
0.470387
0.482596
0.467662
0.414652
1.25173
1.27756
0.957994
1.17672
1.08293
0.891867
0.999944
0.99813
1.12603
1.11826
1.47673
1.41976
1.56832
1.48549
1.26984
1.4833
1.74927
1.74535
1.76294
1.60869
1.62611
1.68864
1.09742
1.46922
2.32161
2.45061
1.95807
1.80333
1.72613
1.89116
2.10155
1.96782
1.99033
2.08812
2.02113
1.53536
1.56828
1.66668
1.68076
1.5947
1.52827
1.53745
1.63005
1.69219
)
;

boundaryField
{
    wall-4
    {
        type            zeroGradient;
    }
    velocity-inlet-5
    {
        type            zeroGradient;
    }
    velocity-inlet-6
    {
        type            zeroGradient;
    }
    pressure-outlet-7
    {
        type            fixedValue;
        value           uniform 0;
    }
    wall-8
    {
        type            zeroGradient;
    }
    frontAndBackPlanes
    {
        type            empty;
    }
}


// ************************************************************************* //
