/*--------------------------------*- C++ -*----------------------------------*\
| =========                 |                                                 |
| \\      /  F ield         | OpenFOAM: The Open Source CFD Toolbox           |
|  \\    /   O peration     | Version:  2206                                  |
|   \\  /    A nd           | Website:  www.openfoam.com                      |
|    \\/     M anipulation  |                                                 |
\*---------------------------------------------------------------------------*/
FoamFile
{
    version     2.0;
    format      ascii;
    arch        "LSB;label=32;scalar=64";
    class       surfaceScalarField;
    location    "0.6";
    object      phi;
}
// * * * * * * * * * * * * * * * * * * * * * * * * * * * * * * * * * * * * * //

dimensions      [0 3 -1 0 0 0 0];

oriented        oriented;

internalField   nonuniform List<scalar> 
1300
(
3.75095
5.62643
-7.07329
3.75095
-6.46771
5.62643
-6.46984
6.46984
-1.36555
1.36555
1.91341
1.83755
-5.86632
5.86632
-5.6819
5.6819
-3.09272
3.09272
-5.40482
5.40482
-5.32058
5.32058
3.82369
-3.82369
-5.35282
5.35282
-2.10592
2.10592
-6.48354
6.48354
3.21895
-3.21895
-5.66997
5.66997
-1.26394
1.26394
-0.504829
4.25578
3.24612
3.24612
-2.74465
2.74465
-5.59552
5.59552
6.22843
-6.22843
9.94764
-9.94764
-2.87435
-3.24511
1.30044
-7.95848
-5.16727
-5.16727
-8.53426
8.53426
-2.90783
2.7186
3.21687
-3.21687
-2.71166
2.71166
-6.20142
-0.268421
-6.20142
6.61683
-0.146994
6.61683
-1.60274
0.237189
-1.60274
4.79401
-4.79401
1.13077
0.234785
1.13077
3.19738
-3.19738
-1.88453
3.79793
1.86643
-1.78328
6.03906
-1.96767
3.80522
-4.99546
4.99546
-5.97384
0.10752
-5.97384
5.87137
-0.00505184
5.87137
-5.58096
5.58096
-5.69613
0.0142264
-5.69613
5.58547
0.0964276
5.58547
3.32379
-3.32379
-3.13367
0.0409482
-3.13367
3.07849
0.0142344
3.07849
0.292427
5.334
-5.91886
8.63746
-5.334
-0.0708161
5.28551
0.119309
5.28551
-5.26519
-0.0553948
-5.26519
5.27031
0.0502692
5.27031
3.5616
0.262089
3.5616
-4.19449
0.370798
-4.19449
-3.17611
-3.26092
-5.42975
0.0769292
-5.42975
-2.18181
0.0758868
-2.18181
2.05795
0.0479678
2.05795
-3.96323
3.96323
-6.67152
0.187973
-6.67152
3.17648
0.0424666
3.17648
1.82412
1.92683
5.57507
-5.57507
2.35612
-5.67769
0.00772442
-5.67769
-5.73351
-4.21413
5.73351
-0.0635408
-0.819154
-0.444785
-0.819154
3.25941
-0.0132851
3.25941
2.94118
0.137303
-2.94118
0.196537
3.719
-3.719
2.21386
0.530789
2.21386
-5.52024
5.52024
5.34372
-0.0734092
-5.34372
-0.251801
6.24213
-0.0137021
6.24213
-6.15804
-0.0703971
-6.15804
3.28711
-6.53222
-3.31178
5.24222
0.110603
-5.24222
0.0749453
3.21851
-0.00164002
3.21851
-3.18467
3.18467
-3.19572
-0.0211542
-3.19572
-2.67399
-0.0376712
-2.67399
2.74896
-0.0372961
2.74896
-5.7369
-0.464517
-5.7369
-6.72259
0.0510707
6.72259
-0.105756
3.11918
-3.11918
-1.74805
0.145305
-1.74805
-5.24242
-0.494483
5.24242
-0.448402
-4.61807
-0.175947
-4.61807
-3.21412
0.0184036
3.21412
-0.0167464
3.1751
0.0843044
-3.1751
-0.0222714
-1.8764
3.80324
-1.87455
3.74098
-4.65982
-0.335638
-4.65982
5.17392
-0.178455
5.17392
6.37326
0.110279
-6.37326
0.399428
5.68002
0.191347
5.68002
-5.46013
-0.120828
-5.46013
5.5525
0.0284656
5.5525
5.65257
0.0274499
-5.65257
-0.0435534
5.76569
-0.180219
5.76569
3.32413
-0.000339698
3.32413
-3.20299
-0.120801
-3.20299
3.1715
-3.1715
3.08503
0.0864649
-3.08503
-0.0486343
-11.1034
11.033
-0.0412055
-11.0622
5.2443
5.2443
3.05696
0.504636
3.05696
-4.62216
0.427675
-4.62216
3.31914
-6.63093
3.21561
-6.39172
3.21204
-11.1705
3.41213
-6.67305
5.57009
-5.57009
5.39704
0.173051
-5.39704
-0.0327121
-2.18805
0.00624307
-2.18805
-3.78848
-0.174748
-3.78848
4.33804
-0.374812
4.33804
-3.21749
3.21749
-3.18462
-0.0328693
3.18462
-0.00813831
5.596
0.169692
-5.596
-0.0816969
0.915739
0.21503
-0.915739
0.0965855
3.85272
-0.133728
3.85272
-3.49093
-0.228066
-3.49093
-2.16625
-0.0217981
2.16625
0.0476062
-5.90848
0.388237
-5.90848
-11.1533
0.0911035
-11.034
-6.06693
-6.06693
2.46733
11.1048
-3.22597
0.022981
3.22597
-0.00745314
3.13726
0.0802338
-3.13726
-0.0474128
-3.19113
0.0196308
3.19113
-0.00645943
-2.59897
-0.0750253
-2.59897
-2.85671
2.85671
-2.85915
0.00243344
2.85915
-0.110188
3.20621
-0.0870368
3.20621
1.93273
0.125218
-1.93273
0.184684
-4.21665
-0.401419
-4.21665
5.23667
-0.0627552
5.23667
-3.40997
-0.0809613
3.40997
-0.0858425
0.0270417
11.0059
-5.27135
0.00615806
5.27135
-10.9922
10.9984
-2.61664
0.0176724
2.61664
0.440322
5.08529
0.434953
-5.08529
0.463125
5.54179
0.0107021
-5.54179
-0.0282959
-3.51258
-0.275893
-3.51258
-4.49579
-0.164033
4.49579
-0.157752
-11.1376
-0.189302
11.3269
-11.0874
6.09778
0.144357
-6.09778
11.1428
-2.89989
-0.219288
2.89989
-0.0431752
3.33711
-0.1309
3.33711
4.12789
-0.275163
-4.12789
-0.0887616
-5.46282
0.00268621
5.46282
-0.226147
-3.49909
-0.0134993
3.49909
-0.161971
-4.19943
4.18614
1.83963
-3.34631
-3.18591
-7.56044
1.88957
1.91367
4.24569
-7.06134
-4.10918
-6.9864
6.66058
-6.19745
-6.33495
6.59704
7.66756
-7.84351
-5.74691
5.73877
6.32169
-6.33843
1.86664
1.9313
10.6886
-10.5811
-10.1819
9.84631
10.0688
-10.0545
10.4095
-10.5303
-11.9417
11.9524
-5.56852
5.60947
-6.57594
6.45514
-6.6258
6.53996
-3.19137
-3.20035
8.7705
-8.69357
11.4825
-11.4747
-11.2449
11.4328
3.2788
0.90734
3.36311
-1.94549
3.81212
-1.85973
3.69937
3.30556
-6.49693
3.32537
-6.51128
5.8779
5.60456
-5.81436
-1.74608
-5.79057
5.78893
-5.71401
5.70755
11.0508
-11.3192
-1.84597
3.77726
-1.89501
3.80868
-3.35539
-2.39152
3.31293
0.932762
5.4556
3.3149
-5.56621
-1.42019
-7.54935
7.27419
-7.68608
7.45802
0.269729
5.35773
-5.62746
5.86525
-1.87708
7.23481
4.7835
5.21117
5.60439
-5.16944
0.593059
-6.22052
-6.47232
-2.28824
2.43355
2.01862
-1.78383
6.59772
1.06984
6.14932
-5.29992
-2.54359
-5.70134
3.78884
1.94993
3.75597
4.01621
2.30548
4.03461
2.96069
-3.08574
0.125052
-3.04144
6.00213
0.69152
-5.43296
-4.5002
6.84794
3.84068
6.84289
-7.36339
-3.21771
-6.96397
-6.14843
-4.03352
-6.31246
6.4607
3.38561
6.28225
-7.80377
7.57762
6.57968
3.48908
6.67611
-6.59789
-3.45664
-6.64144
10.3084
-2.8602
-7.44818
-6.94522
-4.99645
6.91675
3.49274
7.3406
4.61177
7.31231
3.55019
6.75819
-7.04294
2.04648
-3.72792
-1.8406
-3.77655
3.56961
2.03987
3.58384
-4.19174
-2.3842
-4.16876
-4.19768
-2.42813
4.19802
2.25712
-4.24886
-3.43723
4.32982
2.21014
3.14428
-7.25346
3.52876
-6.72911
-6.16376
-2.52981
-6.19647
4.07555
2.63951
-6.71506
-2.42138
10.6787
-5.07418
8.93266
-7.20953
-4.2652
-7.29123
-8.80987
-2.43499
-8.7588
-5.18621
4.91031
-5.67177
5.29696
10.4548
-5.82523
-4.62955
-3.99905
-2.33938
4.02132
-0.658214
-3.64152
3.76658
0.170601
3.86997
4.77731
4.11909
-3.78433
-1.92968
-3.83174
3.72852
1.97903
3.74815
8.5773
2.47345
8.43031
-7.59966
-3.71952
-8.06417
5.3895
-5.42718
2.89988
-2.92168
5.07711
2.3809
-4.94339
-2.60596
5.83382
-3.04387
-2.78995
-11.3099
6.90161
4.40828
-4.07509
1.79017
3.05411
-4.4299
-1.90505
4.0591
1.15207
8.05369
6.14864
-5.16768
5.55591
6.15925
6.08584
-0.386476
3.67549
-3.65781
6.27782
-1.00697
-5.27085
5.76864
-6.26312
-2.29553
-6.06958
3.77405
-0.113803
-0.0683298
-0.376455
-1.91506
-0.373179
-1.73038
1.04308
0.975532
1.25811
1.05587
1.37768
-2.47132
0.168963
2.30236
-1.41546
-1.61487
-4.06636
-0.179137
4.2455
5.48034
1.79385
-5.39157
-0.309764
2.59076
-2.54279
-1.6402
-2.42616
1.15959
-2.79979
-3.07492
-2.20265
5.27757
-3.29161
-0.540128
3.21138
0.544593
-3.77601
-2.01457
3.79716
0.237449
-2.94381
5.9721
-3.02828
-4.87349
2.55139
3.45074
4.50133
-4.61623
2.33976
2.27647
-1.16549
5.75188
1.09101
5.94323
-9.01142
5.79371
7.83583
3.59701
-7.94611
0.982139
-8.02928
9.3081
-8.34024
-0.967855
4.87287
4.43523
5.28094
5.17384
-3.37316
8.6541
-1.26252
-7.07772
9.29181
-5.6948
5.43924
-11.134
-10.6131
3.53536
-6.66308
8.34751
-1.68442
-2.49863
-5.30514
9.16171
-0.914351
-8.24736
5.36789
-5.07951
-5.38434
10.4638
-7.93972
8.84098
-2.59545
-6.24553
-6.56831
-3.96201
6.56562
1.012
-9.70598
11.7525
-2.94779
5.82265
0.853462
5.64243
3.8804
-5.93109
2.05069
4.05932
-6.65477
2.3977
-8.32878
-4.75926
9.44835
-4.6891
-7.28907
-6.63943
-0.649638
2.07049
9.68198
-6.68226
5.35054
1.33172
3.18817
0.559981
-3.27463
-0.501922
0.326589
4.40921
-4.7358
3.91043
4.04773
3.43303
0.976184
3.77292
2.01602
-3.76546
-0.403293
-3.85984
1.43172
-1.60272
-3.47457
4.90628
-3.94101
0.46645
-2.59514
-3.38763
5.98277
-4.43575
2.86343
3.10867
4.84246
-4.71947
1.33185
-2.35099
-2.36848
2.60917
-4.21189
1.82814
3.07815
4.03828
0.601053
4.617
4.83136
-7.25651
0.527401
8.14625
-6.72606
1.56116
5.75115
-6.9117
0.272269
-5.9242
1.11141
-6.18559
-5.60365
6.37461
-8.80961
-4.75942
8.13101
0.299301
-8.02525
-0.733548
-3.65842
-1.52779
-3.67192
-1.94151
-3.73026
-5.31467
-1.00531
-4.30936
3.905
-4.19577
-2.11669
4.35352
0.943433
-4.4405
4.22121
-4.40479
4.27389
0.157097
3.60948
4.27619
1.93681
-2.44399
4.3808
-6.61033
9.08378
-10.7485
4.13818
4.51533
-8.23485
-6.23318
3.31068
2.07882
3.27339
5.50192
-6.82616
1.32424
-6.24753
7.33486
-1.08733
-9.72249
3.47496
-4.22057
2.56391
0.335972
2.57016
0.663858
2.29015
-2.954
-2.25782
-2.21022
-2.21605
-3.32176
5.53781
0.937029
-3.20712
2.27009
-3.30009
4.23712
-0.159133
-3.04799
4.93182
-2.64167
5.26779
-3.45922
1.80857
3.19215
5.26404
-2.07189
4.11673
-1.73583
1.81099
-3.88288
-1.51077
-2.9317
4.97157
-3.05107
3.51752
-0.235766
3.75329
-3.93548
0.891614
-0.502453
3.54528
3.74182
3.97508
-2.9989
2.69775
-4.43358
-1.18513
-3.83253
-0.754386
-0.820975
-5.03616
5.85714
4.84768
-5.66865
-2.71949
5.43827
-2.71878
4.54621
-3.12449
-1.42172
-2.71167
-2.71551
2.78669
0.888796
5.435
0.295444
-3.41993
-3.36237
-2.92205
4.83237
1.44545
-0.851759
5.26004
-2.20235
2.13402
0.64248
0.615633
1.05509
-0.412614
-0.335764
1.39086
-0.712219
1.84508
0.745674
-1.9703
0.239924
-1.84162
3.00121
0.460743
-1.43628
1.02366
2.3848
-3.39177
4.92379
-1.57567
-3.34813
7.30859
1.86626
-3.44192
4.20333
-4.31713
2.87332
-3.05245
-0.568606
-4.88574
-3.81589
-2.15638
4.42648
-3.38143
5.17528
1.35156
-4.86552
6.21708
-3.48272
1.28006
-2.66622
3.4119
-0.754398
-1.91182
2.48225
2.79531
-2.82571
0.399549
-0.343455
1.9713
-2.31476
-0.828492
-2.24395
-4.51031
4.74776
-2.17596
4.51572
2.20483
-1.90877
6.42449
1.76439
-3.67316
-3.1091
-3.64923
-1.39669
3.10463
-0.735968
-5.90547
-6.9815
5.87802
0.0652078
-9.02124
10.0824
-1.06111
-5.18056
-0.613152
5.48602
-7.26546
0.610693
-4.86777
5.21459
6.3056
6.3708
-8.05734
-0.19002
-4.67174
1.34309
-6.01482
5.77832
-2.78872
6.32409
-6.8088
4.69211
-5.86537
5.35623
-0.658593
5.29373
-3.24305
2.15445
-6.11646
-5.10446
6.9879
-3.49882
7.84136
-4.01723
11.8586
-6.96503
7.02698
4.83161
-1.33634
-5.95489
-6.88421
5.54787
0.142768
5.7852
4.90286
-2.88685
4.49957
2.09652
-4.44751
-2.11537
-6.35123
1.90372
-3.24256
-1.70529
3.60901
3.13716
3.69714
1.24053
-3.19522
6.63603
-7.28567
-1.94693
-3.65672
6.71196
-1.16409
3.73884
-7.39555
-2.44676
5.07361
-0.512504
-4.56111
0.751615
-5.51104
2.5149
-8.02594
6.29471
-7.02825
1.2645
-5.48507
-3.17599
-3.21917
-1.27392
-3.13087
-4.47826
3.20434
-1.0033
3.21791
-5.48027
4.96776
-1.85459
5.05893
-3.29477
-0.37715
3.45674
0.817153
5.87608
-0.308349
-5.92483
-1.75533
5.74118
-3.98584
3.07703
-5.34451
0.396664
3.59777
3.71082
-7.37182
-0.863026
-6.78786
-2.35379
4.43261
3.08448
7.93216
1.106
4.95402
-0.52141
6.06002
2.75198
2.64179
-3.80786
5.13209
2.04928
6.18746
-0.808837
2.61741
1.76132
1.83721
0.705583
2.23469
1.50713
3.12631
0.172304
-2.03792
2.8714
-5.79344
-0.548537
-5.28881
1.30823
3.87711
-2.56888
4.65208
-3.20663
0.666241
2.67289
-2.45739
-0.215502
-2.59796
-0.323374
1.06748
-0.935006
1.95867
2.06621
-3.02615
0.428194
-0.0958842
-3.72001
3.14834
-2.74879
0.0465244
6.2636
-2.34459
0.0298347
-1.06453
-2.21411
-2.58729
2.34737
6.03452
0.389973
3.00624
5.13773
3.12317
0.236321
4.20868
-5.8931
-4.1201
-6.08312
-0.304802
5.18122
1.75375
7.92823
6.58536
5.42127
-1.97428
-9.25995
7.38882
-2.25673
6.30149
-1.74038
-6.28556
6.51316
2.57062
-6.81246
-0.215798
-6.50136
-8.75808
-0.2605
5.22826
-5.61558
5.23843
3.71065
0.598713
-2.71945
-0.499721
2.71701
-0.075224
5.98479
-1.07867
-5.41766
6.49633
-2.79844
2.24991
4.40881
0.851229
4.19331
0.98668
-4.43098
-6.99987
-1.18633
-2.20544
-4.53446
-0.288963
-1.77724
3.88489
-1.63498
2.46317
4.86135
5.52759
-1.54805
-4.1206
4.26683
-1.80366
3.72393
)
;

boundaryField
{
    wall-4
    {
        type            calculated;
        value           uniform 0;
    }
    velocity-inlet-5
    {
        type            calculated;
        value           uniform -3.75095;
    }
    velocity-inlet-6
    {
        type            calculated;
        value           uniform -5.62643;
    }
    pressure-outlet-7
    {
        type            calculated;
        value           nonuniform List<scalar> 8(7.07329 6.46771 6.11946 6.65804 6.43702 6.5989 6.53475 6.62417);
    }
    wall-8
    {
        type            calculated;
        value           uniform 0;
    }
    frontAndBackPlanes
    {
        type            empty;
        value           nonuniform List<scalar> 0();
    }
}


// ************************************************************************* //
