/*--------------------------------*- C++ -*----------------------------------*\
| =========                 |                                                 |
| \\      /  F ield         | OpenFOAM: The Open Source CFD Toolbox           |
|  \\    /   O peration     | Version:  2206                                  |
|   \\  /    A nd           | Website:  www.openfoam.com                      |
|    \\/     M anipulation  |                                                 |
\*---------------------------------------------------------------------------*/
FoamFile
{
    version     2.0;
    format      ascii;
    arch        "LSB;label=32;scalar=64";
    class       volVectorField;
    location    "0.6";
    object      U;
}
// * * * * * * * * * * * * * * * * * * * * * * * * * * * * * * * * * * * * * //

dimensions      [0 1 -1 0 0 0 0];

internalField   nonuniform List<vector> 
918
(
(0.750715 -0.293609 0)
(0.0894833 2.94215 0)
(-0.170782 1.81001 0)
(0.632906 0.271455 0)
(0.132343 1.73352 -4.9898e-20)
(-0.21306 2.66351 -8.34177e-19)
(1.09637 1.81578 -3.72356e-20)
(0.454576 0.271436 -8.76276e-21)
(0.863926 0.00517205 0)
(0.0199739 1.79725 0)
(0.0101659 1.74542 0)
(0.948281 0.00514262 0)
(0.00666885 3.03729 0)
(0.080098 2.96944 0)
(-0.0981641 2.64918 -1.74127e-19)
(-0.0150861 1.72362 -4.69367e-20)
(0.680665 0.164473 6.98199e-19)
(0.20196 2.06905 -4.18476e-20)
(1.01147 -0.0077291 0)
(0.0209456 1.74017 0)
(0.472572 -0.0407808 3.49982e-20)
(0.63464 -0.107315 0)
(0.896631 0.0375369 0)
(1.03872 0.0469702 0)
(0.860185 0.0401719 0)
(0.0998048 3.06343 0)
(-0.0292232 2.92458 2.82292e-19)
(-0.278514 1.72097 0)
(-0.0327733 1.66754 0)
(-0.220093 1.71584 0)
(0.0673034 1.72916 0)
(-0.0700627 1.66094 3.83939e-20)
(-0.0269761 1.73728 0)
(-0.0997607 3.09096 -2.19528e-23)
(-0.0428322 2.96853 6.81862e-19)
(0.0415589 3.04643 0)
(0.986679 -0.00487848 0)
(0.821301 1.32562 2.1458e-19)
(1.1453 1.68393 1.95252e-19)
(1.2521 1.59342 -1.32874e-19)
(0.974254 1.88257 6.4766e-21)
(0.894552 1.9778 -1.41595e-20)
(0.49862 0.301984 8.53816e-21)
(0.525688 0.274452 0)
(1.37269 0.798076 0)
(0.421944 0.311573 3.60632e-20)
(0.387214 0.26584 -3.74747e-20)
(0.983051 -0.0123525 0)
(1.09113 -0.00546059 0)
(0.863512 -0.0116261 0)
(1.00549 -0.0898409 0)
(1.04646 -0.0301733 0)
(0.913784 0.00914616 0)
(0.0209772 1.63413 -3.58917e-19)
(0.0325486 1.82357 0)
(0.0409342 1.8197 0)
(-0.0229249 1.80693 0)
(-0.00705052 1.80164 0)
(0.00743868 1.7295 0)
(0.021733 1.75752 0)
(0.0118483 1.74812 0)
(-0.0113986 1.74017 0)
(-0.0115709 1.70933 0)
(1.01757 0.00297832 0)
(0.963665 0.0180931 0)
(0.961139 0.00259651 0)
(0.952496 -0.00236612 0)
(0.942448 -0.000587363 0)
(0.0283028 2.84456 2.66192e-19)
(0.141041 2.84754 0)
(-0.0304775 2.82392 0)
(-0.0850612 3.13907 2.02431e-24)
(-0.161548 2.96867 -4.13149e-19)
(0.0554443 3.03036 0)
(0.0858362 2.95108 0)
(0.0209497 3.02281 6.78e-25)
(0.0518085 2.93958 0)
(0.0870574 2.99344 0)
(-0.0465174 2.94679 0)
(0.0987668 2.74762 0)
(-0.177856 2.74645 0)
(0.00109387 2.70996 1.59753e-19)
(-0.0736937 2.6627 0)
(-0.00301205 1.73234 0)
(-0.0168089 1.73979 4.6285e-20)
(-0.002366 1.72177 -5.33144e-20)
(0.714811 0.163588 -2.42595e-19)
(0.723886 0.144961 -2.36043e-19)
(0.683238 0.213128 -7.2244e-19)
(0.658463 0.204365 -4.58782e-19)
(0.174694 1.39684 0)
(0.344186 2.11735 1.8673e-20)
(0.440456 2.11786 -1.86957e-20)
(0.994521 -0.00569923 0)
(0.971825 0.002464 0)
(0.870302 0.0092276 0)
(1.05402 0.00418944 0)
(0.907014 0.0745727 -2.69309e-18)
(0.959781 0.13816 2.04209e-18)
(0.0166338 1.75746 0)
(0.0095017 1.74123 0)
(0.015934 1.66579 0)
(-0.034423 1.75115 0)
(-0.00829696 1.77805 0)
(0.684412 0.136977 1.52397e-20)
(0.291594 0.237685 0)
(1.01688 0.016747 0)
(0.994601 -0.00489298 0)
(0.936795 0.0418998 0)
(0.884075 0.12159 0)
(0.886795 0.00813307 0)
(1.14825 -0.0070858 0)
(0.833097 0.0190606 0)
(0.8137 0.0224219 1.11823e-18)
(-0.0511877 2.86625 2.78516e-19)
(-0.0716592 3.05786 0)
(-0.0618083 3.16344 0)
(0.0138686 2.96266 0)
(0.0277042 2.97651 2.55437e-19)
(0.0274075 2.95415 0)
(0.011306 2.95828 -8.12137e-19)
(-0.033465 2.94632 2.7013e-19)
(0.0398302 1.74364 0)
(-0.00801933 1.74515 0)
(0.00447278 1.72981 -1.49497e-21)
(-0.0485099 1.74601 0)
(0.0217055 1.70949 0)
(0.996213 -0.00720236 0)
(0.98926 -0.0138484 0)
(0.975677 0.000772776 0)
(0.995844 -0.0138782 0)
(0.975914 0.0154478 0)
(0.88859 1.40636 -2.66285e-19)
(0.913631 1.33886 0)
(0.829194 1.35162 3.1477e-20)
(0.783898 1.27135 0)
(1.20473 1.45301 4.99755e-20)
(1.34811 1.29846 -1.33982e-19)
(0.579105 2.11221 0)
(0.789159 2.02299 0)
(0.671279 2.0905 0)
(0.547608 1.28956 -1.61093e-19)
(0.546377 0.299513 0)
(0.561013 0.250581 1.23454e-19)
(1.24213 1.22133 0)
(1.2626 0.980409 0)
(1.37288 1.04515 1.84699e-19)
(1.32837 0.746214 0)
(1.38419 0.634218 1.58548e-20)
(0.986788 0.0275497 0)
(0.989798 -0.0113237 0)
(0.987303 -0.00968141 0)
(0.994649 0.00483663 0)
(0.990306 -0.0342705 0)
(0.96804 0.0101459 0)
(1.05788 0.00850549 0)
(1.01412 0.00117087 0)
(0.873558 0.00660987 0)
(0.0313865 1.61354 1.89218e-19)
(-0.0132382 1.55184 0)
(0.0303653 1.67358 3.3417e-19)
(0.0226576 1.66738 -3.03405e-19)
(0.092989 2.03251 3.80023e-20)
(0.0364822 1.92775 0)
(0.019276 1.96089 0)
(-0.00423672 1.79474 0)
(0.00325636 1.7369 0)
(-0.003041 1.72121 -1.60635e-21)
(-0.0294562 1.70353 0)
(-0.0102972 1.74331 -9.12775e-20)
(-0.00420308 1.71959 1.77971e-19)
(0.0206463 1.74862 0)
(0.0247722 1.75649 0)
(-0.00139188 1.73067 0)
(-0.00193978 1.75208 0)
(-0.00548767 1.76778 0)
(1.02994 0.00904031 0)
(1.01776 0.000792933 0)
(1.0062 0.013584 0)
(0.98081 -0.00957357 0)
(0.97166 -0.00368613 0)
(0.970987 0.00194171 0)
(0.962809 0.012841 0)
(0.941918 -0.00115716 0)
(0.0206842 3.04062 -2.46898e-21)
(0.00437072 3.05217 0)
(0.0272334 2.98675 0)
(-0.060896 2.94049 0)
(0.708404 2.99006 0)
(1.05269 2.37298 5.24832e-20)
(-0.0670472 2.72963 0)
(-0.0867854 2.72039 0)
(-0.00238684 1.78114 0)
(-0.0212129 1.69399 0)
(0.00373581 1.74002 0)
(0.0637044 1.71161 -2.74329e-21)
(0.0366359 1.78229 0)
(0.0138845 1.77219 0)
(0.0195547 1.73427 9.31901e-21)
(0.0145301 1.73906 6.32538e-20)
(-0.00986851 1.72558 5.44525e-20)
(0.0113274 1.685 0)
(0.744974 0.156359 3.80195e-19)
(0.743624 0.0893695 -3.74603e-19)
(0.203149 1.42477 0)
(0.236726 1.36983 -9.5494e-20)
(0.140498 1.48641 -2.9774e-19)
(0.0906833 1.49277 2.9761e-19)
(0.986189 -0.00545049 0)
(0.987649 -0.0165883 0)
(0.984121 0.00436245 0)
(0.974887 0.00495301 0)
(0.0162157 1.76836 0)
(0.0233392 1.74212 0)
(0.00902695 1.70899 0)
(0.363849 0.283557 3.14401e-19)
(0.351401 0.240413 -3.11391e-19)
(0.326115 0.248012 0)
(1.18673 0.0947128 4.10261e-20)
(1.24411 0.0455834 0)
(1.11589 0.0560541 0)
(1.0671 -0.00592437 0)
(0.770401 0.0946784 0)
(0.809464 0.0654881 -1.78964e-18)
(0.760561 0.0554119 6.68417e-19)
(-0.0787141 2.95676 2.51062e-19)
(-0.0428818 2.93704 -2.03981e-20)
(0.0167526 3.03045 -5.37167e-21)
(0.0483642 3.02535 1.68187e-19)
(-0.0319346 2.96973 9.23055e-21)
(-0.0923499 2.91107 -3.68264e-23)
(-0.106291 3.00722 -1.64739e-19)
(0.135909 3.07351 1.16361e-19)
(0.100736 3.10901 -1.64112e-19)
(1.00133 -0.00884792 0)
(0.989799 0.0413149 0)
(0.984003 0.0201625 0)
(0.98636 -0.00590169 0)
(0.978374 0.00277383 0)
(0.95843 -0.00107698 0)
(0.981625 -0.0114398 0)
(0.986756 0.0079414 0)
(0.978935 0.00414035 0)
(0.988778 1.3989 -2.6483e-19)
(0.975904 1.39195 0)
(0.639808 1.24403 5.08764e-20)
(0.683762 1.33476 4.02687e-19)
(0.761758 1.34434 -2.3861e-19)
(0.720072 1.29525 4.64472e-19)
(0.506812 1.3288 7.91064e-19)
(0.481624 1.28485 1.47835e-19)
(0.651461 0.240073 4.83287e-19)
(0.598323 0.27395 1.22699e-19)
(0.615954 0.234096 2.32713e-19)
(1.29353 0.564759 -2.52692e-19)
(1.34036 0.393688 -2.78658e-19)
(-0.00179947 1.68754 1.4404e-19)
(-0.00169714 1.66084 0)
(1.07086 0.0190083 0)
(1.04246 0.015942 0)
(1.04282 0.000259332 0)
(-0.00785638 3.04865 0)
(0.0310462 3.00802 3.72176e-19)
(-0.0135784 2.99503 0)
(-0.0152296 2.95601 -3.67322e-19)
(-0.0559199 3.02352 8.74774e-20)
(0.0105452 3.02526 0)
(1.04231 1.45028 5.02455e-20)
(1.00685 1.64491 -2.29096e-19)
(0.927424 1.41597 1.17176e-19)
(-0.0557632 2.90066 -2.59084e-19)
(-0.0517364 2.8188 0)
(-0.0682601 2.7864 0)
(-0.00835339 1.73488 -4.81378e-21)
(0.0297367 1.73138 -1.50606e-19)
(-0.0207869 1.7156 -4.28399e-21)
(0.264316 1.36832 3.10775e-19)
(0.262831 1.30658 -2.10373e-19)
(0.0101088 1.581 2.39732e-19)
(0.068058 1.54226 -2.69032e-19)
(0.0397038 1.52476 1.47547e-20)
(-0.0785821 3.07622 -4.6178e-19)
(-0.119273 3.06002 5.34247e-19)
(0.00270641 2.98358 2.42057e-19)
(0.0394723 3.04206 -2.28405e-19)
(0.187001 2.93431 -2.46718e-19)
(-0.0419338 3.01553 -6.69067e-19)
(-0.126429 3.00433 6.83952e-19)
(0.546784 1.30248 0)
(0.578789 1.30908 -8.33951e-19)
(0.562961 1.2335 3.68161e-19)
(0.432295 1.34238 4.26636e-19)
(0.421427 1.30211 -6.65299e-19)
(1.24714 0.20602 1.56598e-19)
(1.29649 0.374492 0)
(1.33169 0.253172 -1.4822e-19)
(-0.0232985 1.73591 -1.78109e-21)
(0.00713008 1.70205 0)
(0.0246344 1.71294 0)
(0.287316 1.37734 -1.10633e-19)
(0.363559 1.35853 -2.52556e-19)
(0.37521 1.33595 4.72479e-19)
(0.970153 -0.0126164 0)
(0.991032 -0.0489691 5.04856e-19)
(0.0654904 1.73996 0)
(-0.0474237 1.70588 0)
(1.02185 -0.0388827 7.96451e-21)
(0.884753 -0.0121044 1.02378e-18)
(0.0457701 1.8068 3.68559e-21)
(0.0868967 1.78976 0)
(-0.0952484 2.85757 2.76123e-19)
(-0.030377 2.47183 0)
(1.19331 0.652846 -1.48769e-19)
(1.01819 -0.014678 -3.24209e-21)
(0.971636 0.0364592 0)
(0.935753 0.00243347 -1.17095e-21)
(0.0147774 1.87633 0)
(0.149266 1.70144 0)
(-0.0292886 1.77998 0)
(0.0851489 1.75563 1.07201e-19)
(0.0164539 1.74174 8.00837e-20)
(0.983651 -0.00322548 5.20877e-21)
(1.00753 0.0727059 0)
(1.04209 0.0394772 0)
(-0.0279916 1.66966 0)
(0.0284013 1.7442 0)
(-0.0283196 1.75554 0)
(0.237889 1.95167 1.0124e-19)
(0.995058 -0.0882785 0)
(0.993242 -0.0515022 0)
(0.940164 0.0566354 6.37228e-19)
(0.989939 0.0465495 -7.64632e-19)
(1.03906 -0.0665849 0)
(0.0366543 1.73496 0)
(-0.0110301 1.74066 0)
(-0.00350028 1.79084 0)
(-0.00516533 1.79284 0)
(-0.0990858 1.78806 0)
(0.00401608 1.69314 0)
(0.985968 0.0139919 0)
(1.00878 -0.019493 1.86989e-22)
(0.891922 1.64478 -9.6002e-20)
(0.943305 -0.0777022 -6.35932e-19)
(1.03375 0.0277136 7.6716e-19)
(1.04116 0.0253654 0)
(0.98197 -0.0015367 6.09979e-19)
(1.04165 0.0946485 -7.58366e-19)
(0.980519 0.0295017 0)
(0.0226382 1.76488 0)
(0.0941579 1.77717 4.96213e-20)
(-0.0193697 1.72839 -3.65134e-20)
(1.11861 0.259554 8.59254e-19)
(1.06889 0.0743788 0)
(-0.508376 2.87384 -3.79291e-19)
(-0.105426 3.29524 -1.85453e-20)
(-0.199666 2.83634 7.36283e-19)
(-0.0387858 2.85336 -1.44881e-19)
(-0.0209233 2.81237 0)
(-0.0682002 2.96034 1.17849e-19)
(-0.173879 3.03824 3.61634e-19)
(-0.0970564 2.9505 -2.22002e-19)
(-0.206643 3.03902 0)
(0.612459 0.279199 0)
(0.451082 0.329031 0)
(1.06863 0.845068 4.4086e-19)
(1.15281 0.939504 -5.55715e-19)
(1.13146 0.565077 0)
(1.12385 0.592126 0)
(1.01839 0.0239745 -1.15319e-18)
(0.96672 -0.00140172 1.45262e-18)
(1.03752 -0.0983497 0)
(1.00495 -0.0453517 0)
(0.90641 0.0711221 0)
(1.0377 -0.0425178 0)
(1.02888 0.0295425 0)
(0.997209 -0.0209416 0)
(0.992876 -0.102424 0)
(0.946673 -0.00750309 0)
(0.0476149 1.87275 0)
(0.0245993 1.77173 0)
(0.0694896 1.8617 0)
(0.178315 1.89625 0)
(0.174067 1.68083 0)
(0.0257066 1.67379 -1.82862e-19)
(0.111742 1.69919 0)
(0.0110331 1.66048 1.23649e-19)
(0.105352 1.74834 -1.55118e-19)
(0.0177486 1.78382 0)
(0.0721381 1.74093 0)
(-0.0372387 1.76394 0)
(-0.0507257 1.73502 0)
(-0.00973863 1.72929 -7.97673e-20)
(-0.0335721 1.78079 1.124e-19)
(0.039724 1.78077 1.19983e-19)
(-0.0111293 1.75416 0)
(-0.00267537 1.74877 -2.06832e-19)
(-0.00329434 1.71393 -1.1662e-19)
(0.0365853 1.80775 5.9731e-20)
(-0.164828 1.69244 -1.41225e-19)
(0.0308531 1.69317 -1.48045e-19)
(0.989636 -0.0166103 1.04465e-18)
(0.974013 -0.0411038 -1.33241e-18)
(0.979025 0.0318805 -1.06511e-18)
(0.918023 0.0105455 1.35417e-18)
(1.06001 0.0947073 0)
(1.03432 -0.00442111 0)
(1.05717 0.0387618 0)
(1.06412 -0.0188322 0)
(1.02997 -0.01111 0)
(1.09697 0.0733208 0)
(1.06763 0.0274088 0)
(1.04909 0.0256908 0)
(-0.179861 1.72037 -4.36792e-21)
(0.0120627 1.75181 0)
(0.0130762 1.73333 0)
(0.0333249 1.74543 2.8804e-20)
(0.0637611 1.76661 -1.54372e-21)
(-0.0109998 1.79093 5.06794e-20)
(-0.0884286 1.6994 -5.08632e-20)
(-0.0625354 1.75328 0)
(0.00850539 1.74066 0)
(0.0846619 1.68019 0)
(-0.0346134 1.76215 0)
(-0.079372 1.7809 0)
(0.381354 1.91818 -2.30316e-19)
(0.459915 1.98877 -6.16819e-20)
(0.338836 1.43182 -7.72659e-20)
(0.244683 1.58564 2.22971e-19)
(0.332252 1.74816 6.81576e-20)
(1.03922 0.0285619 0)
(0.996672 0.0379518 0)
(1.01723 0.0545944 0)
(0.942604 -0.044387 0)
(1.02403 0.00371493 0)
(0.951974 0.0323391 0)
(0.978874 0.0985551 0)
(0.97767 0.0518252 0)
(0.99843 -0.0256944 1.10313e-18)
(0.997441 -0.0290245 -1.40992e-18)
(1.00588 0.029137 -1.09061e-18)
(0.973868 0.025082 1.37603e-18)
(0.886197 1.66384 0)
(0.82255 1.73254 -1.70389e-19)
(0.88591 1.58481 -1.56101e-19)
(1.00901 1.47217 2.07515e-19)
(0.851768 1.52432 8.25383e-19)
(0.843622 0.108334 4.3575e-19)
(1.10484 0.0820047 0)
(1.15875 0.24477 -6.94081e-19)
(1.13085 0.094537 -2.93457e-20)
(0.970992 0.10179 0)
(-0.830064 2.56649 3.51616e-19)
(-0.829289 2.49503 -5.56228e-19)
(-0.787035 3.23154 1.89054e-19)
(-0.98138 1.53375 -5.28344e-20)
(-0.148608 2.4847 1.52618e-19)
(-0.0275369 2.73105 0)
(-0.0412445 2.67349 -1.93487e-19)
(-0.612748 2.56972 -9.04756e-19)
(-0.372714 2.34541 0)
(-0.0503559 2.98348 1.81951e-20)
(-0.0691292 3.0588 -1.85731e-19)
(-0.000548514 3.06133 2.72595e-19)
(-0.03644 3.05881 0)
(-0.0963481 2.98189 0)
(1.03945 1.7304 0)
(0.280646 1.08611 -3.50017e-19)
(1.1085 1.16079 1.83204e-19)
(0.931594 1.42505 0)
(0.801564 1.1306 -1.66759e-19)
(1.03755 1.10562 1.45189e-20)
(0.121787 -0.0701229 -3.61121e-19)
(0.632663 0.271704 -5.61083e-21)
(0.629035 0.305279 2.64532e-19)
(0.404835 0.40609 1.61738e-20)
(0.347077 0.318045 -6.225e-19)
(0.551235 0.417748 0)
(0.561894 0.495063 4.35797e-19)
(0.560255 0.364445 0)
(0.450557 0.373445 0)
(0.494665 0.347384 0)
(0.595273 0.71548 3.55885e-19)
(1.18564 0.220839 -7.06959e-19)
(1.15021 0.483673 0)
(1.21854 0.284142 0)
(0.738852 0.204596 4.19647e-19)
(0.621541 0.689085 -2.67724e-19)
(0.533208 0.526364 5.03503e-19)
(0.823046 0.370094 -6.05388e-19)
(0.995052 -0.0213645 7.62588e-19)
(1.00194 0.112614 -7.77918e-19)
(1.00221 0.0485388 0)
(1.03382 -0.0162046 0)
(1.00886 -0.0296219 -7.27156e-19)
(1.00387 0.0293548 7.21588e-19)
(0.972856 0.0453795 0)
(0.942946 0.00923404 0)
(1.00226 -0.00234287 0)
(0.992769 -0.0301303 0)
(1.0316 0.0117611 0)
(0.957679 -0.0266473 0)
(0.110405 1.79307 0)
(0.108659 1.7919 0)
(0.156784 1.82343 -1.68242e-19)
(0.256297 1.96086 -6.67345e-20)
(0.255916 1.91386 -1.64144e-19)
(0.177576 1.92801 2.56058e-19)
(0.0283043 1.76042 0)
(0.180579 1.72045 -1.78412e-19)
(0.00777031 1.77093 0)
(0.293123 1.68565 -9.75803e-20)
(0.212224 1.59688 2.98206e-19)
(0.267483 1.72733 1.55498e-19)
(0.183713 1.81925 -8.24608e-20)
(0.139395 1.78231 6.62403e-20)
(0.185157 1.8002 -2.22482e-19)
(0.217961 1.75243 0)
(0.259404 1.67253 1.66404e-19)
(0.0527215 1.65409 -6.90237e-20)
(0.0995512 1.72611 0)
(0.00684874 1.75079 1.68062e-19)
(-0.0518762 1.6985 0)
(0.015377 1.69158 -1.37218e-19)
(-0.0074367 1.67448 0)
(0.0240124 1.72289 -1.01983e-19)
(0.0782394 1.73281 0)
(0.0261629 1.74801 0)
(0.0294823 1.78021 1.15908e-19)
(0.0667012 1.7582 1.17413e-20)
(0.0499528 1.75655 1.87627e-19)
(-0.00246397 1.70902 1.51075e-21)
(0.1421 1.67301 5.62922e-20)
(0.0745026 1.64458 3.58222e-20)
(-0.0511623 1.74366 0)
(-0.0978373 1.74052 0)
(-0.0148512 1.73433 1.50172e-19)
(-0.0576328 1.75285 1.60432e-19)
(0.0463334 1.79115 -1.96132e-19)
(-0.00664009 1.76736 0)
(0.069234 1.76459 -1.40601e-19)
(-0.0713299 1.68709 4.50421e-20)
(-0.0228389 1.77828 -1.14735e-20)
(0.13032 1.80362 -6.72728e-20)
(0.0860473 1.69012 -3.13528e-20)
(-0.0190081 1.70828 1.57947e-19)
(0.985947 0.0444397 -7.39291e-19)
(0.992714 -0.0927941 7.17608e-19)
(0.991358 0.0466396 0)
(0.949886 -0.0468548 9.849e-19)
(0.912914 0.121806 -1.0795e-18)
(0.959055 0.0290121 1.17869e-18)
(0.965956 -0.00303566 -1.25431e-19)
(1.04944 -0.0920626 0)
(1.0233 -0.00464955 7.08841e-19)
(1.01174 -0.0424657 -7.04908e-19)
(0.983774 -0.0200582 -4.03727e-20)
(0.984286 0.0678595 3.36013e-19)
(0.953653 0.0717826 0)
(0.972445 0.0982114 -1.19513e-19)
(0.975402 0.0169287 0)
(0.977343 0.0637628 0)
(1.03759 0.0835161 0)
(0.954407 0.000749882 0)
(0.994002 0.053631 2.50036e-19)
(1.0426 0.00772601 -5.48739e-19)
(1.01189 -0.0158125 -2.62792e-19)
(1.0157 0.00946777 -2.94433e-19)
(1.06774 0.035527 5.73876e-19)
(1.00132 0.0530228 0)
(1.00522 0.0111697 0)
(0.0303496 1.80935 -5.69205e-20)
(0.159367 1.72196 -7.81752e-21)
(0.0443638 1.63631 0)
(0.0355305 1.78997 5.87505e-20)
(-0.141827 1.67547 1.17979e-20)
(-0.0178421 1.70741 -1.20064e-20)
(-0.090621 1.76377 1.00758e-19)
(-0.0264688 1.76324 -5.53997e-21)
(0.123919 1.71231 3.16691e-20)
(0.018264 1.7632 -4.7691e-20)
(-0.0843036 1.77687 5.70294e-20)
(-0.0109103 1.68717 -2.72406e-21)
(-0.0147849 1.81265 8.21324e-20)
(0.47332 1.78666 1.28131e-19)
(0.321095 1.79872 2.42114e-19)
(0.758106 1.79406 1.65037e-19)
(0.588491 1.91728 5.92573e-20)
(0.650302 1.94763 0)
(0.320645 1.45808 9.31274e-20)
(0.251261 1.40516 1.12613e-19)
(0.238125 1.51941 1.34467e-20)
(0.35927 1.53071 -3.48879e-19)
(0.409406 1.49375 2.86352e-19)
(0.237729 1.48534 0)
(0.170543 1.46907 -1.87814e-19)
(0.0856779 1.63601 4.62264e-19)
(0.0867201 1.61037 1.88697e-21)
(0.0264741 1.55602 -5.89551e-19)
(0.661882 1.36109 5.06201e-19)
(0.47244 1.43469 0)
(1.02255 0.115889 2.45835e-20)
(0.987089 -0.104112 -2.07791e-20)
(0.984893 -0.102835 -3.68548e-19)
(1.04493 0.028609 3.74517e-19)
(0.992415 0.0315352 0)
(0.777843 1.5957 0)
(0.829632 1.58165 0)
(0.914521 1.34739 0)
(0.657826 1.40565 0)
(0.846072 1.5178 4.24139e-21)
(0.775373 1.49956 0)
(0.546523 1.45285 4.68102e-21)
(0.447229 1.46433 0)
(0.588126 1.49767 -3.9664e-19)
(0.584114 1.43487 2.55769e-19)
(0.805794 0.114342 0)
(0.7653 0.117596 1.1456e-19)
(0.875817 0.128996 7.14991e-19)
(0.833399 0.0795307 -2.58444e-19)
(0.845809 0.114391 -8.09887e-19)
(1.07856 0.188461 -8.63413e-19)
(0.80119 0.382165 -1.3709e-20)
(0.903154 0.193592 6.43157e-19)
(0.923275 0.156011 6.3531e-19)
(0.855486 0.18002 -9.76081e-19)
(0.879777 0.270186 1.18113e-19)
(0.755876 0.277528 -2.91755e-19)
(0.78173 0.258946 0)
(0.944088 0.128321 4.86276e-19)
(1.00468 0.160211 0)
(0.937341 0.166371 0)
(1.03064 0.178051 2.84298e-19)
(0.973164 0.302757 -1.3065e-21)
(0.896256 0.140286 -1.60119e-19)
(1.00269 0.131642 0)
(0.997721 0.0441629 5.54855e-19)
(0.949544 -0.0453749 6.80272e-19)
(1.03553 0.0599502 -5.37222e-19)
(0.999686 0.106133 -4.57177e-19)
(0.945675 -0.0151493 -6.98749e-19)
(0.912533 0.196927 0)
(0.955503 0.0288941 0)
(0.896052 0.0768855 -4.14319e-19)
(0.866167 -0.0415699 1.54252e-19)
(1.01243 0.121409 6.12559e-19)
(1.0305 0.101281 -7.91436e-19)
(0.942498 0.113011 6.93954e-19)
(0.898129 0.169833 0)
(1.00944 0.153293 0)
(0.922797 0.0741422 -3.20777e-19)
(0.964609 0.059873 -5.07196e-19)
(0.612119 1.51542 2.01208e-19)
(0.623282 1.51995 -2.04164e-19)
(0.736983 1.52275 -3.04897e-19)
(0.714148 1.67621 7.94766e-20)
(0.827773 1.58009 -7.92627e-19)
(1.02701 1.67126 2.65506e-19)
(0.991571 1.56609 -1.36514e-21)
(0.837254 1.65356 -3.34347e-19)
(0.790573 1.62719 4.9717e-19)
(0.802265 1.91458 1.16537e-19)
(0.999885 1.95999 -1.19531e-19)
(1.01169 2.01634 0)
(0.421892 1.3834 -3.76289e-20)
(-0.73561 1.7599 2.39968e-19)
(-0.56513 0.281451 2.33238e-19)
(-0.493073 0.414728 9.62533e-20)
(0.276564 0.395747 3.54834e-19)
(0.239262 0.370141 -6.4521e-19)
(0.187584 0.457341 5.24222e-19)
(0.093471 0.29824 -1.48984e-19)
(0.264294 0.229637 3.35956e-19)
(0.707007 0.2967 -2.46406e-19)
(0.64194 0.318869 0)
(0.667657 0.267763 -1.78933e-22)
(0.504025 0.478604 2.35981e-19)
(0.348541 0.537342 -8.51918e-19)
(0.306556 0.460482 -1.03453e-20)
(0.419992 0.394162 0)
(0.46715 1.01592 3.21988e-19)
(0.751732 0.948458 3.70427e-19)
(0.612511 1.15116 -4.28731e-19)
(0.722996 0.949422 -1.65451e-19)
(0.924737 0.933306 -5.75128e-20)
(0.934605 1.10664 5.90085e-20)
(0.696866 0.674678 -5.93353e-19)
(0.779054 0.959847 1.54808e-19)
(0.973973 0.855275 0)
(0.871604 0.756324 -2.19559e-19)
(0.850671 0.246917 2.13801e-19)
(1.00364 0.400607 3.77204e-19)
(0.979351 0.260791 3.41707e-19)
(0.905462 0.424736 -4.05448e-19)
(1.02818 0.378537 0)
(1.04415 0.361525 0)
(0.732871 0.46086 -1.67557e-20)
(0.774807 0.227488 0)
(0.678965 0.24508 2.93272e-19)
(0.819209 0.294564 -1.28279e-21)
(0.872447 0.508549 1.67746e-18)
(0.756068 0.561273 4.40704e-19)
(0.754625 0.485775 -4.25094e-19)
(0.699538 0.419711 4.5494e-19)
(0.671174 0.5502 2.51598e-19)
(0.60671 0.415138 -2.44316e-19)
(1.01698 0.081469 6.03311e-19)
(0.947092 -0.0714331 0)
(0.962976 -0.013357 4.01092e-19)
(0.88145 0.106494 -9.02336e-19)
(1.03442 -0.017967 4.32244e-19)
(0.953446 0.0381375 -9.15037e-19)
(1.03849 -0.0178196 0)
(0.994625 -0.0152753 -1.9022e-19)
(1.01317 0.0500328 4.75792e-19)
(0.97347 0.00441746 -2.43237e-19)
(0.937456 -0.0842028 1.79054e-19)
(-0.0653907 1.79222 0)
(0.191826 1.71325 0)
(0.00129092 1.78137 0)
(-0.00733599 1.8234 0)
(0.023086 1.80069 2.78599e-19)
(0.0370609 1.82264 -7.204e-20)
(0.0787793 1.64325 -8.38693e-20)
(0.14339 1.65804 9.98541e-20)
(-0.103445 1.76244 -2.20721e-19)
(0.0711284 1.66628 1.67441e-19)
(0.0263375 1.79212 1.48719e-20)
(0.00493964 1.76296 -1.99833e-19)
(-0.00752265 1.77279 -2.75053e-20)
(0.185494 1.73739 -2.4775e-20)
(0.018129 1.69029 -1.81362e-19)
(0.053038 1.67675 0)
(0.0435785 1.72423 9.31112e-20)
(0.0346309 1.75864 6.54455e-20)
(0.138777 1.63342 -8.44923e-20)
(0.123574 1.65198 0)
(0.176355 1.56125 -3.42628e-19)
(0.137275 1.5962 2.45014e-19)
(0.212679 1.6378 -2.27975e-19)
(0.202045 1.61657 1.47512e-19)
(0.0110469 1.48196 0)
(0.0657626 1.64298 -1.69775e-19)
(-0.0352113 1.66134 -2.24395e-19)
(-0.00591868 1.69318 0)
(0.0273723 1.81801 2.18778e-21)
(0.0160196 1.77886 8.46228e-20)
(0.00274513 1.79084 1.56096e-20)
(0.0591105 1.7545 -2.40639e-19)
(-0.0450371 1.77807 6.61118e-20)
(-0.034952 1.59294 8.48345e-20)
(0.0669555 1.81118 0)
(-0.0622948 1.81135 0)
(-0.0535764 1.77719 8.20208e-20)
(0.0788848 1.76056 -2.49937e-20)
(-0.0676721 1.78127 0)
(0.0157937 1.76476 6.54495e-20)
(0.0789842 1.75704 -1.27025e-19)
(0.941433 0.168182 0)
(1.07051 0.0671761 -6.51611e-20)
(0.947702 0.055481 -4.519e-19)
(0.917191 0.0212636 0)
(0.917162 -0.0913087 0)
(1.03295 -0.0591759 -1.30063e-20)
(0.968077 -0.104716 7.29485e-19)
(0.961032 -0.0150992 9.07401e-19)
(0.995567 0.00424391 0)
(1.02197 -0.00660843 0)
(0.975019 -0.021187 4.4087e-19)
(0.965043 0.0262427 0)
(0.946376 0.0866486 0)
(-0.0795948 1.80441 0)
(-0.0323732 1.63054 1.96064e-20)
(-0.0390591 1.6695 2.26556e-20)
(0.00608895 1.78356 0)
(0.164775 1.76999 5.56567e-20)
(0.060577 1.7873 -1.8454e-20)
(0.0325082 1.72153 0)
(0.408229 1.6057 0)
(0.374621 1.51915 -4.42981e-19)
(0.353519 1.53863 0)
(0.477055 1.75715 5.27603e-19)
(0.555015 1.75745 0)
(0.520838 1.80871 -2.22966e-19)
(0.509217 1.47942 -1.15313e-20)
(0.619599 1.39007 -6.02887e-19)
(0.600382 1.40327 7.54971e-19)
(0.478867 1.40384 1.38104e-19)
(0.473519 1.45135 0)
(0.563964 1.46026 0)
(0.594491 1.41044 0)
(0.451959 1.37569 -4.9819e-19)
(0.418515 1.49451 -3.31232e-19)
(0.351963 1.4592 -7.64865e-20)
(0.480231 1.56342 6.16521e-20)
(0.32525 1.4601 0)
(0.472996 1.4308 0)
(0.412859 1.39206 -1.35013e-19)
(0.403817 1.41818 0)
(0.503626 1.49855 0)
(0.615571 1.40892 -4.3766e-19)
(0.447101 1.26641 -2.8551e-20)
(0.7292 1.48977 0)
(0.669558 1.54825 6.80416e-19)
(0.695172 1.30623 -1.49513e-19)
(0.974585 1.19641 0)
(0.757438 1.0525 2.55987e-19)
(0.418404 1.49126 0)
(0.453596 1.23835 0)
(0.730539 1.46254 -2.94955e-19)
(0.704098 1.52951 -2.08129e-19)
(0.720905 1.48311 3.60271e-19)
(0.716 1.51606 -1.13263e-19)
(0.723938 1.46031 0)
(0.696296 1.47425 1.4843e-19)
(0.724114 1.47517 -2.46168e-19)
(0.758042 1.41377 -1.04951e-21)
(0.59673 1.5219 0)
(0.591271 1.54942 -1.75648e-19)
(0.614098 1.50195 0)
(0.810685 0.155552 0)
(0.791352 0.196678 0)
(0.726714 0.207688 0)
(0.782176 0.283167 -4.62614e-19)
(0.751899 0.199747 2.56721e-19)
(0.971596 -0.0320119 -3.18996e-19)
(0.888025 0.0601821 0)
(0.874552 0.0335426 1.34195e-19)
(0.853885 0.145633 5.38266e-19)
(0.808914 0.0330404 -3.44362e-19)
(0.912134 2.22892 1.4329e-19)
(0.839343 2.0395 0)
(0.826109 2.26762 2.89697e-19)
(0.195243 2.39326 -2.53697e-19)
(0.340331 1.94944 -2.87348e-19)
(0.24026 1.42974 4.45796e-19)
(0.310792 1.53344 0)
(-0.0842463 0.938816 -8.34734e-20)
(0.0263945 1.10699 5.72026e-19)
(-0.306771 0.771548 -1.2632e-19)
(0.0588113 0.545618 1.40494e-19)
(0.344539 0.595081 3.07068e-19)
(0.536754 0.574586 0)
(0.246345 0.828525 0)
(0.125358 0.804238 0)
(0.872501 0.767796 1.76952e-19)
(0.809574 0.584304 -4.21659e-19)
(0.879249 0.641255 3.6847e-19)
(0.824629 0.478456 -3.35516e-19)
(0.97312 0.640563 0)
(0.934685 0.642579 -1.12066e-19)
(0.743319 0.367276 -5.99375e-19)
(0.71898 0.300729 -7.41811e-19)
(0.615765 0.431249 4.65079e-19)
(0.644941 0.383332 -4.32433e-19)
(0.731425 0.367035 -3.56714e-19)
(0.716425 0.333311 4.40744e-19)
(1.00405 0.00421738 -4.66264e-19)
(1.05382 0.0272513 9.71978e-19)
(1.0265 0.0506228 5.83091e-19)
(1.07462 -0.0831883 -7.05663e-19)
(0.851561 -0.00473721 0)
(0.843688 0.00366665 -1.1611e-18)
(0.0989175 1.66446 4.6847e-20)
(-0.0306206 1.70397 0)
(0.131228 1.7786 3.0886e-19)
(0.0855378 1.72595 -2.78393e-19)
(0.0696055 1.77665 1.56173e-19)
(0.105637 1.80569 0)
(0.0241996 1.81527 0)
(0.0707608 1.66021 -2.59841e-20)
(0.00977031 1.62407 2.33586e-20)
(0.109019 1.60787 7.36049e-21)
(-0.19992 1.75182 -5.49751e-20)
(-0.00413882 1.74976 2.54414e-20)
(0.549458 1.578 -5.10223e-19)
(0.614848 1.58714 5.39071e-19)
(0.454305 1.72491 -2.72034e-19)
(0.609018 1.615 2.42047e-20)
(0.607354 1.74233 0)
(0.640385 1.76171 -2.45845e-19)
(0.567786 1.72575 2.40123e-19)
(0.54355 1.68772 2.66355e-19)
(0.615616 1.69786 0)
(0.66455 1.66696 0)
(0.573347 1.41779 5.04558e-19)
(0.292872 1.53154 6.65095e-19)
(0.250705 1.48416 -4.58373e-19)
(0.216501 1.55193 -7.80216e-20)
(0.348069 1.50354 1.6102e-19)
(0.253614 1.37121 -3.82011e-19)
(0.60599 1.41633 -4.28704e-19)
(0.665293 1.4412 0)
(0.588583 1.4075 -4.75892e-19)
(0.715968 1.44707 0)
(0.689018 1.53367 0)
(0.465405 1.80279 -3.13833e-19)
(0.515816 1.94205 -2.48227e-19)
(0.381377 1.99873 2.89637e-19)
(-0.426953 1.51447 0)
(-0.203561 1.4459 -2.09347e-19)
(0.179164 1.57415 -2.79e-19)
(0.38211 1.72483 0)
(0.239734 1.97124 2.08605e-19)
(-0.0673033 2.01455 0)
(0.506257 0.958783 -6.79652e-19)
(0.604397 0.994813 9.09149e-19)
(0.680134 0.744159 -8.93617e-19)
(0.34725 0.782299 -8.0712e-20)
(0.405615 0.76654 -3.2497e-19)
(0.632275 1.71387 1.87948e-19)
(0.675003 1.67 -4.01221e-19)
(0.48142 1.78206 5.3663e-19)
(0.494178 1.64927 -3.49538e-19)
(0.632481 1.60739 -4.96505e-19)
(0.651378 1.68196 -3.73497e-20)
(0.662935 1.60355 4.05852e-19)
(0.548561 1.64694 2.88788e-20)
(0.57401 1.53185 2.12793e-19)
)
;

boundaryField
{
    wall-4
    {
        type            noSlip;
    }
    velocity-inlet-5
    {
        type            fixedValue;
        value           uniform (1 0 0);
    }
    velocity-inlet-6
    {
        type            fixedValue;
        value           uniform (0 3 0);
    }
    pressure-outlet-7
    {
        type            zeroGradient;
    }
    wall-8
    {
        type            noSlip;
    }
    frontAndBackPlanes
    {
        type            empty;
    }
}


// ************************************************************************* //
