/*--------------------------------*- C++ -*----------------------------------*\
| =========                 |                                                 |
| \\      /  F ield         | OpenFOAM: The Open Source CFD Toolbox           |
|  \\    /   O peration     | Version:  2206                                  |
|   \\  /    A nd           | Website:  www.openfoam.com                      |
|    \\/     M anipulation  |                                                 |
\*---------------------------------------------------------------------------*/
FoamFile
{
    version     2.0;
    format      ascii;
    arch        "LSB;label=32;scalar=64";
    class       volScalarField;
    location    "0.5";
    object      p;
}
// * * * * * * * * * * * * * * * * * * * * * * * * * * * * * * * * * * * * * //

dimensions      [0 2 -2 0 0 0 0];

internalField   nonuniform List<scalar> 
918
(
3.02013
2.62694
0.370059
3.02141
0.11538
2.39792
0.386311
2.16328
3.15279
0.771969
0.535285
2.57612
1.66667
1.73146
1.10488
0.283495
2.47981
0.261471
2.71537
0.342546
-0.259091
3.25893
2.85294
2.71447
2.52475
0.921007
1.75552
0.206506
-0.155935
-0.0498889
0.234043
0.282052
0.224627
1.58625
2.19009
2.69353
2.63141
1.88254
0.6457
0.641869
0.434992
0.216907
2.21174
2.25479
1.43799
2.10485
2.00464
2.73133
2.94941
3.15593
2.81273
2.92555
3.20699
1.03365
0.795008
0.754342
0.780295
0.752635
0.649329
0.570828
0.585243
0.52675
0.543561
2.47517
2.57891
2.58878
2.58108
2.56664
2.47783
2.56251
2.89521
1.19151
1.63582
1.83955
1.77918
1.75584
1.74422
1.74375
1.49224
1.01758
0.533797
1.35307
1.39898
-0.035958
0.313124
0.328891
2.47757
2.49131
2.45062
2.42718
1.59936
0.412533
0.159151
2.72513
2.7548
3.16718
2.87627
2.98324
2.85428
0.369377
0.380562
0.232554
0.352156
0.367236
0.777615
1.11871
2.75086
2.77875
2.55385
2.61089
2.55794
2.22292
2.58555
2.55102
1.54351
1.4344
1.28198
1.39551
1.69474
1.60547
1.83411
1.78468
-0.0841095
0.020372
0.293024
0.24703
0.289646
2.63229
2.59678
2.66248
2.64286
2.66792
1.79401
1.7614
1.93952
1.99414
0.956932
0.967511
0.314345
0.338367
0.139731
1.94945
2.31056
2.33718
1.23318
1.46702
1.252
1.56597
1.6051
2.66111
2.73288
2.69008
2.76359
2.77314
2.77948
2.92574
2.92563
3.17622
1.11272
1.18119
0.968605
0.92554
0.541166
0.628535
0.539685
0.700545
0.732095
0.703775
0.692498
0.617029
0.591757
0.688488
0.640331
0.661522
0.50949
0.454682
2.4423
2.4323
2.51699
2.52962
2.61006
2.59395
2.61246
2.61205
1.84268
1.88434
1.86606
1.8325
0.0816456
-1.98996
1.53582
1.5545
0.0379857
-0.0423995
0.00373368
0.0603101
0.0344312
0.0172597
0.455838
0.381729
0.369258
0.415443
2.50984
2.53557
1.5914
1.67322
1.5052
1.47674
2.7106
2.73807
2.76298
2.74754
0.444585
0.44612
0.466376
1.90841
1.55119
1.7307
2.16103
2.06328
2.28917
2.32611
2.53179
2.51759
2.54268
1.5867
1.55539
1.9067
1.82561
1.8567
1.88677
2.09332
1.97408
1.61476
2.54108
2.57183
2.5759
2.67444
2.68474
2.68972
2.6163
2.64756
2.62817
1.64321
1.46479
2.02651
1.9689
1.9518
1.98635
1.90644
1.9262
2.3913
2.34468
2.37411
1.78312
1.7482
0.847322
0.82194
2.36372
2.41693
2.38832
1.76894
1.80615
1.76885
1.81628
1.77311
1.76251
1.3313
0.960896
1.19827
1.57941
1.6044
1.60041
0.565658
0.504734
0.523605
1.69624
1.75135
1.23917
1.37248
1.3467
1.32081
1.63092
1.60704
1.37808
1.57502
1.73406
1.76033
1.95214
1.98789
2.00172
1.86889
1.88199
2.02926
1.83396
1.87355
0.717792
0.799421
0.762588
1.73081
1.81612
1.79865
2.76825
2.91181
-0.0558771
0.159663
2.96734
3.02221
-0.0869921
0.145275
1.68791
1.39704
1.8902
2.77031
2.73703
2.87164
0.768706
1.02113
0.523798
0.647345
0.554403
2.53674
2.49046
2.41116
0.0435916
0.297175
0.320423
0.708809
2.87752
2.79716
2.94858
2.97385
2.97416
0.125149
0.0373952
0.0377555
0.330543
0.287178
0.356927
2.6568
2.62822
0.980262
2.94125
2.94676
2.96672
2.83256
2.87119
2.77974
0.286221
0.166455
0.2903
2.18905
2.30814
1.70762
0.895841
1.90477
1.6555
1.51671
1.64671
1.42599
1.66706
1.26312
2.28667
2.13944
1.99658
1.73484
2.0099
1.96686
2.81397
2.75542
2.80048
2.70347
2.83634
2.66262
2.90061
2.80603
2.86931
2.87421
0.821843
0.868391
0.844535
0.675451
1.00474
1.21332
0.943536
0.989623
0.731898
0.508344
0.540132
0.518588
0.62831
0.570024
0.533527
0.645961
0.601899
0.591946
0.499851
0.571424
0.69833
0.649942
2.47202
2.59302
2.53651
2.58306
2.44516
2.56941
2.42162
2.47832
2.45052
2.30344
2.42974
2.36869
0.0502058
0.157093
0.210808
0.246152
0.355676
0.200227
0.328907
0.248558
0.237691
0.297966
0.253473
0.403763
0.775895
0.655615
1.61218
1.39799
0.870043
2.66443
2.8259
2.77241
2.8386
2.85246
2.85391
2.90301
2.72648
2.62781
2.70066
2.64195
2.6262
1.04179
0.890219
0.985129
1.19241
1.79333
2.50708
2.3622
2.18512
2.21825
2.37456
2.58654
2.44858
0.235575
-0.61838
1.50383
1.22303
1.43317
1.47212
1.79893
1.61788
1.42195
1.37872
1.40076
1.70778
1.52093
2.14061
1.48816
1.39485
1.74514
1.71544
1.50535
2.29532
2.33284
2.10797
1.99495
2.25051
2.20525
2.22839
2.22272
2.23073
2.28379
2.23401
2.05471
2.02551
2.42606
2.26587
2.26649
2.32856
2.73119
2.81689
2.71229
2.66037
2.76281
2.65128
2.65276
2.60966
2.74836
2.80408
2.74187
2.67688
0.883938
0.742012
0.963136
0.864371
0.95032
0.734542
1.01753
1.00114
0.957132
1.14026
1.2523
0.913408
0.981282
0.914367
0.951368
1.15642
1.07304
0.972334
0.700467
0.862478
0.908764
0.884033
0.814557
0.581947
0.63466
0.839441
0.577209
0.639357
0.704347
0.786505
0.525489
0.567052
0.504721
0.49647
0.625766
0.707209
0.583736
0.810096
0.266112
0.25807
0.214022
0.382642
0.512706
0.676258
2.6351
2.54835
2.59729
2.61527
2.61626
2.56469
2.37151
2.72116
2.67587
2.61555
2.48452
2.46862
2.4587
2.4315
2.50476
2.48076
2.67608
2.65827
2.56258
2.49169
2.37825
2.51291
2.43227
2.46825
2.42025
0.243815
0.297885
0.25002
0.303965
0.290411
0.280989
0.530221
0.307619
0.515541
0.40821
0.374724
0.290107
0.265542
0.949103
1.00762
0.984693
0.779162
0.717995
1.61566
1.65652
1.48234
1.33106
1.41768
1.5704
1.58203
1.32728
1.37085
1.39778
1.89979
1.76712
2.81038
2.76195
2.7059
2.82105
2.74678
1.31565
1.55623
1.41323
1.79766
1.85504
1.90755
1.69507
1.62574
1.64449
1.76481
2.46785
2.50429
2.45039
2.51177
2.49669
2.18394
2.32704
2.26678
2.64573
2.41407
2.4022
2.53763
2.47443
2.37621
2.33908
2.41164
2.43305
2.3695
2.38952
2.32602
2.54298
2.44748
2.52401
2.42372
2.47449
2.3484
2.56315
2.59483
2.57717
2.33776
2.37335
2.40824
2.4258
2.38032
2.4007
2.39455
1.69748
1.70705
1.79069
1.82382
1.78842
1.64564
1.67292
1.71119
1.78551
1.56879
1.42814
1.14151
2.02674
2.17449
1.84799
1.76525
1.95726
2.0977
2.04061
1.81716
1.76643
2.40193
2.34973
2.38127
2.27216
2.20829
2.1683
2.14424
2.4703
2.11109
1.87456
2.08574
1.84495
1.93567
2.17718
2.11373
2.08438
2.0628
2.44415
2.19795
2.19992
2.31793
2.11484
2.07436
2.24967
2.33645
2.41893
2.42188
2.21297
2.25825
2.23191
2.2427
2.264
2.24344
2.67795
2.68221
2.66716
2.71275
2.64637
2.66225
2.58972
2.6447
2.73456
2.67389
2.78534
0.475883
0.570816
0.787039
0.651886
0.70649
0.725694
1.07749
0.960789
0.835899
0.914552
0.878809
0.909571
0.748375
0.764516
0.891619
0.844722
0.766832
0.78425
1.30763
1.31959
1.29784
1.2742
1.27504
1.21599
1.26425
0.632424
0.748313
0.683757
0.652137
0.688166
0.509551
0.505935
0.397117
0.565203
0.600252
0.279161
0.380961
0.393192
0.423468
0.478682
0.451213
2.53215
2.57035
2.56802
2.5993
2.51959
2.6028
2.56741
2.69326
2.65023
2.64506
2.60286
2.63914
2.56955
0.454686
0.627833
0.600428
0.367121
0.43256
0.208985
0.170798
1.60702
1.23401
1.21737
1.26129
0.998934
1.10197
1.81162
1.87179
1.93283
1.81972
1.77547
1.71345
1.85276
1.91373
1.4547
1.71471
1.64423
1.62286
1.71248
1.72661
1.69358
1.57946
1.9052
2.04467
1.56125
1.71087
1.91842
1.86515
1.92165
1.91106
2.01605
1.8436
1.79239
1.67217
1.73425
1.89998
1.82143
1.94156
1.93962
1.5458
1.66124
1.66519
2.43959
2.47193
2.47005
2.44383
2.43762
2.52334
2.36144
2.47435
2.52318
2.56775
1.22853
1.2134
1.09149
1.6837
2.09517
2.37389
2.07636
2.26786
2.28346
2.17044
2.28218
2.22833
2.20893
2.27641
2.19274
2.04021
2.10043
2.05975
2.10997
2.05092
2.11599
2.30339
2.23309
2.33472
2.27558
2.30875
2.34974
2.5995
2.74838
2.59359
2.70292
2.6197
2.64326
0.876326
0.762847
0.893231
0.831041
0.759008
0.676628
0.386515
0.406361
0.51344
0.587496
0.576082
0.473014
1.45073
1.48566
1.10505
1.37236
1.28925
1.11901
1.23921
1.19984
1.31538
1.27564
1.69613
1.60074
1.77967
1.6746
1.4277
1.66314
1.97493
1.97398
1.98601
1.82446
1.83868
1.95506
1.33471
1.74409
2.70261
2.85638
2.24093
2.06726
2.04075
2.15529
2.33308
2.20828
2.23259
2.31139
2.2489
1.77861
1.81899
1.92711
1.93768
1.83964
1.77454
1.79382
1.87588
1.94191
)
;

boundaryField
{
    wall-4
    {
        type            zeroGradient;
    }
    velocity-inlet-5
    {
        type            zeroGradient;
    }
    velocity-inlet-6
    {
        type            zeroGradient;
    }
    pressure-outlet-7
    {
        type            fixedValue;
        value           uniform 0;
    }
    wall-8
    {
        type            zeroGradient;
    }
    frontAndBackPlanes
    {
        type            empty;
    }
}


// ************************************************************************* //
