/*--------------------------------*- C++ -*----------------------------------*\
| =========                 |                                                 |
| \\      /  F ield         | OpenFOAM: The Open Source CFD Toolbox           |
|  \\    /   O peration     | Version:  2206                                  |
|   \\  /    A nd           | Website:  www.openfoam.com                      |
|    \\/     M anipulation  |                                                 |
\*---------------------------------------------------------------------------*/
FoamFile
{
    version     2.0;
    format      ascii;
    arch        "LSB;label=32;scalar=64";
    class       surfaceScalarField;
    location    "0.5";
    object      phi;
}
// * * * * * * * * * * * * * * * * * * * * * * * * * * * * * * * * * * * * * //

dimensions      [0 3 -1 0 0 0 0];

oriented        oriented;

internalField   nonuniform List<scalar> 
1300
(
3.75095
5.62643
-7.06808
3.75095
-6.46116
5.62643
-6.46868
6.46868
-1.34454
1.34454
1.91854
1.83241
-5.86857
5.86857
-5.67973
5.67973
-3.09442
3.09442
-5.42897
5.42897
-5.33207
5.33207
3.78387
-3.78387
-5.35203
5.35203
-2.10013
2.10013
-6.48457
6.48457
3.2258
-3.2258
-5.67343
5.67343
-1.00446
1.00446
-0.489728
4.24068
3.26123
3.26123
-2.73701
2.73701
-5.64089
5.64089
6.22864
-6.22864
9.96375
-9.96375
-2.89567
-3.24489
1.2844
-7.94597
-5.17676
-5.17676
-8.57678
8.57678
-2.95035
2.67608
3.21844
-3.21844
-2.72578
2.72578
-6.20751
-0.261168
-6.20751
6.62725
-0.158566
6.62725
-1.58684
0.242302
-1.58684
4.80404
-4.80404
1.09616
0.248376
1.09616
3.19494
-3.19494
-1.88651
3.80505
1.86444
-1.78112
6.0218
-1.96984
3.80225
-4.99774
4.99774
-5.96758
0.099007
-5.96758
5.86626
0.00231877
5.86626
-5.58435
5.58435
-5.69394
0.0142043
-5.69394
5.58751
0.0922254
5.58751
3.3208
-3.3208
-3.13336
0.0389338
-3.13336
3.07572
0.0187057
3.07572
0.259287
5.36714
-5.88572
8.56179
-5.36714
-0.0618284
5.27316
0.155807
5.27316
-5.27241
-0.0596617
-5.27241
5.288
0.0440684
5.288
3.53674
0.247136
3.53674
-4.18226
0.398389
-4.18226
-3.18431
-3.2489
-5.43353
0.0814934
-5.43353
-2.17702
0.0768899
-2.17702
2.04887
0.0512645
2.04887
-3.96321
3.96321
-6.6809
0.196329
-6.6809
3.18032
0.0454887
3.18032
1.82186
1.92909
5.57281
-5.57281
2.34701
-5.68096
0.00752941
-5.68096
-5.74839
-4.21535
5.74839
-0.0749689
-0.704833
-0.299625
-0.704833
3.25878
0.00244997
3.25878
2.94245
0.133265
-2.94245
0.205439
3.71686
-3.71686
2.20769
0.529324
2.20769
-5.5076
5.5076
5.34327
-0.0552615
-5.34327
-0.297627
6.24208
-0.0134356
6.24208
-6.16082
-0.0678281
-6.16082
3.28351
-6.5284
-3.30485
5.24532
0.106718
-5.24532
0.0685603
3.2123
0.00613803
3.2123
-3.18393
3.18393
-3.19622
-0.022219
-3.19622
-2.6939
-0.0318816
-2.6939
2.75015
-0.0243676
2.75015
-5.7395
-0.468014
-5.7395
-6.73346
0.0525657
6.73346
-0.106216
3.12557
-3.12557
-1.73946
0.15262
-1.73946
-5.25157
-0.487922
5.25157
-0.44753
-4.61483
-0.189213
-4.61483
-3.20815
0.0119325
3.20815
-0.0132087
3.1771
0.081671
-3.1771
-0.0178361
-1.87561
3.80471
-1.87534
3.73979
-4.65338
-0.344368
-4.65338
5.16483
-0.167089
5.16483
6.37492
0.10965
-6.37492
0.407335
5.66421
0.202046
5.66421
-5.45408
-0.130263
-5.45408
5.54588
0.0384638
5.54588
5.65366
0.0105484
-5.65366
-0.0402741
5.7708
-0.183292
5.7708
3.32439
-0.00359199
3.32439
-3.20245
-0.118352
-3.20245
3.16948
-3.16948
3.08771
0.0817625
-3.08771
-0.0456438
-11.0708
11.003
0.000894976
-11.0717
5.27406
5.27406
3.06302
0.473715
3.06302
-4.58372
0.40146
-4.58372
3.31345
-6.6183
3.21849
-6.4028
3.22332
-11.1693
3.40516
-6.65406
5.56105
-5.56105
5.39346
0.167583
-5.39346
-0.0400635
-2.18581
0.00878588
-2.18581
-3.79061
-0.172594
-3.79061
4.3372
-0.373996
4.3372
-3.21222
3.21222
-3.18463
-0.0275902
3.18463
-0.00431272
5.58775
0.183049
-5.58775
-0.0932072
0.857601
0.23856
-0.857601
0.152768
3.85124
-0.134384
3.85124
-3.49018
-0.226682
-3.49018
-2.1646
-0.0212068
2.1646
0.0430905
-5.90464
0.397033
-5.90464
-11.1648
0.0930964
-11.009
-6.06772
-6.06772
2.50907
11.0709
-3.22438
0.0219306
3.22438
-0.012083
3.13886
0.0733638
-3.13886
-0.0450706
-3.18983
0.020356
3.18983
-0.00590547
-2.64942
-0.0444796
-2.64942
-2.8484
2.8484
-2.86303
0.0146298
2.86303
-0.112885
3.19896
-0.0733983
3.19896
1.92417
0.124696
-1.92417
0.184711
-4.2289
-0.385932
-4.2289
5.23316
-0.0683278
5.23316
-3.40914
-0.0810364
3.40914
-0.0847455
0.0145967
10.9884
-5.28866
0.0162447
5.28866
-10.975
10.9912
-2.66337
0.0139495
2.66337
0.399656
5.07337
0.434238
-5.07336
0.489643
5.5373
0.0085801
-5.5373
-0.0237446
-3.50594
-0.284668
-3.50594
-4.48396
-0.169418
4.48396
-0.146756
-11.0986
-0.2145
11.3131
-11.0545
6.11914
0.122943
-6.11914
11.1142
-2.89843
-0.227138
2.89843
-0.0500279
3.33705
-0.13809
3.33705
4.12195
-0.270711
-4.12195
-0.106947
-5.47063
0.0165458
5.47063
-0.237468
-3.49139
-0.0145485
3.49139
-0.15434
-4.19585
4.1983
1.82595
-3.33848
-3.18992
-7.55383
1.90427
1.90043
4.25128
-7.04744
-4.12185
-6.97888
6.61115
-6.12151
-6.29098
6.53812
7.67091
-7.86012
-5.73273
5.72841
6.33262
-6.34582
1.8707
1.93435
10.6685
-10.5695
-10.1729
9.82857
10.0525
-10.0383
10.4105
-10.5407
-11.9256
11.9342
-5.56442
5.60335
-6.56865
6.4503
-6.61445
6.5297
-3.19066
-3.21214
8.76086
-8.67936
11.4712
-11.4637
-11.2539
11.4503
3.2785
0.919805
3.36017
-1.94074
3.81144
-1.86151
3.68745
3.28879
-6.47945
3.3295
-6.51943
5.86069
5.61051
-5.78572
-1.76811
-5.78108
5.78722
-5.70574
5.69983
11.0622
-11.3233
-1.84175
3.7761
-1.89804
3.79847
-3.34939
-2.38334
3.3039
0.947385
5.44731
3.31355
-5.55402
-1.42486
-7.5351
7.26439
-7.68022
7.45354
0.373329
5.29662
-5.66995
6.01422
-1.9127
7.20932
4.69846
5.09992
5.57519
-5.14095
0.546321
-6.21627
-6.5139
-2.26958
2.4222
1.99097
-1.74259
6.59497
1.07594
6.14744
-5.31672
-2.54341
-5.70265
3.78214
1.94627
3.75455
4.01351
2.31911
4.02544
2.95639
-3.09427
0.137881
-3.04434
6.00073
0.681835
-5.42769
-4.4803
6.82696
3.84153
6.82927
-7.34867
-3.22081
-6.94134
-6.13555
-4.03738
-6.30497
6.43509
3.39348
6.268
-7.81856
7.58109
6.56329
3.48925
6.65552
-6.58335
-3.45498
-6.62363
10.3351
-2.8661
-7.46901
-6.94219
-4.98345
6.90372
3.50673
7.32777
4.60645
7.30402
3.53679
6.79832
-7.04352
2.06007
-3.72546
-1.83896
-3.7711
3.57445
2.0289
3.59315
-4.18147
-2.38718
-4.15954
-4.19425
-2.4202
4.19784
2.25246
-4.24661
-3.43361
4.32765
2.20206
3.12874
-7.25059
3.52532
-6.73746
-6.15524
-2.52412
-6.19531
4.09214
2.64286
-6.73499
-2.38732
10.6749
-5.06435
8.90674
-7.20996
-4.2537
-7.30317
-8.80386
-2.45008
-8.7513
-5.18419
4.89953
-5.67802
5.30402
10.4231
-5.80221
-4.62087
-3.99714
-2.34868
4.01498
-0.654812
-3.64535
3.78323
0.166094
3.85355
4.77335
4.11854
-3.78073
-1.92501
-3.8258
3.7234
1.97643
3.74376
8.60286
2.45931
8.44429
-7.57979
-3.74354
-8.0478
5.36768
-5.39956
2.8922
-2.9134
5.07867
2.37487
-4.94428
-2.59081
5.82585
-3.0338
-2.79205
-11.0531
6.73714
4.31599
-3.84381
2.17041
3.17487
-4.36554
-1.92544
3.96715
1.13277
7.86991
5.94447
-5.18446
5.5815
6.12861
6.07335
-0.440545
3.64276
-3.62881
6.34847
-1.04861
-5.29986
5.76724
-6.25516
-2.28057
-6.09115
3.81059
-0.107726
-0.0311443
-0.268481
-1.90688
-0.362691
-1.72217
0.998114
0.992851
1.23667
1.06508
1.35711
-2.4603
0.143175
2.31713
-1.39522
-1.59941
-4.09588
-0.170167
4.26605
5.48025
1.78414
-5.3733
-0.329347
2.57775
-2.52649
-1.666
-2.42987
1.14644
-2.81244
-3.08163
-2.20288
5.2845
-3.28068
-0.545114
3.20732
0.547232
-3.7688
-2.01229
3.79102
0.234422
-2.93674
5.97199
-3.03525
-4.86176
2.55025
3.45048
4.49652
-4.61945
2.3482
2.27125
-1.16897
5.72513
1.10414
5.92718
-9.0324
5.81159
7.83862
3.61165
-7.94827
1.00693
-8.02547
9.29967
-8.34091
-0.958762
4.88293
4.41674
5.25681
5.16627
-3.38847
8.64527
-1.25993
-7.08098
9.2854
-5.67375
5.45199
-11.1257
-10.6183
3.53728
-6.64566
8.35089
-1.70523
-2.52854
-5.29002
9.1742
-0.90965
-8.26455
5.35835
-5.06975
-5.38141
10.4512
-7.93585
8.83639
-2.60376
-6.23263
-6.58193
-3.95879
6.56538
1.01571
-9.71118
11.7713
-2.91286
5.84057
0.814949
5.65727
3.86483
-5.92603
2.06121
4.07103
-6.67478
2.40816
-8.33419
-4.75762
9.4565
-4.69887
-7.28174
-6.63076
-0.650978
2.06403
9.70722
-6.67048
5.35447
1.31602
3.18332
0.560435
-3.26508
-0.506016
0.320262
4.41239
-4.73265
3.91342
4.04668
3.42566
0.986729
3.77073
2.01649
-3.75865
-0.400893
-3.86509
1.44489
-1.61263
-3.47047
4.91536
-3.9466
0.476128
-2.59331
-3.38621
5.97952
-4.43227
2.86133
3.11067
4.83776
-4.71038
1.32417
-2.35303
-2.35734
2.62243
-4.23506
1.82429
3.09107
4.02635
0.59274
4.6299
4.82659
-7.27276
0.535305
8.14014
-6.71529
1.56004
5.74398
-6.91451
0.283748
-5.91156
1.11131
-6.17566
-5.62368
6.34302
-8.79311
-4.78271
8.12992
0.31437
-8.0237
-0.727593
-3.64097
-1.54322
-3.65552
-1.95312
-3.7249
-5.34158
-1.00203
-4.33956
3.8975
-4.18273
-2.12224
4.32949
0.974538
-4.44117
4.21403
-4.394
4.25591
0.166977
3.61625
4.28552
1.93684
-2.44728
4.38412
-6.62139
9.0807
-10.7596
4.13819
4.54144
-8.28498
-6.21814
3.28847
2.07921
3.2641
5.49829
-6.80928
1.31099
-6.26004
7.37251
-1.11247
-9.70977
3.44973
-4.21147
2.55574
0.336457
2.56453
0.660796
2.30299
-2.96379
-2.25261
-2.20952
-2.2175
-3.3423
5.5598
0.919068
-3.20159
2.28253
-3.30956
4.22862
-0.147091
-3.0545
4.92898
-2.62599
5.26543
-3.45665
1.80879
3.19986
5.27201
-2.07215
4.11102
-1.73615
1.82209
-3.89424
-1.5202
-2.93871
4.96761
-3.04081
3.51694
-0.234962
3.7519
-3.92258
0.888785
-0.496923
3.54976
3.7552
3.98008
-2.99335
2.70621
-4.44236
-1.18803
-3.84962
-0.75855
-0.818133
-5.04444
5.86257
4.8448
-5.66293
-2.70348
5.4221
-2.71862
4.50476
-3.07095
-1.43381
-2.70049
-2.69907
2.74497
0.897788
5.40255
0.294511
-3.36546
-3.3343
-2.93464
4.87209
1.47638
-0.856192
5.17218
-2.31868
2.28753
0.687322
0.549352
1.04218
-0.35486
-0.433639
1.47582
-0.70212
1.83222
0.745532
-1.95692
0.234744
-1.874
3.02044
0.443125
-1.43598
1.08112
2.40182
-3.45044
4.96616
-1.593
-3.37316
7.36798
1.86664
-3.45964
4.22451
-4.33224
2.89448
-3.06465
-0.565157
-4.8974
-3.82145
-2.1625
4.44503
-3.3973
5.18144
1.3634
-4.85209
6.21549
-3.49523
1.29236
-2.65711
3.40264
-0.733393
-1.92371
2.4754
2.8091
-2.83479
0.404912
-0.359386
1.96803
-2.32742
-0.844413
-2.23963
-4.53311
4.76754
-2.17011
4.51832
2.214
-1.90814
6.42645
1.75239
-3.66052
-3.10937
-3.65448
-1.38927
3.10725
-0.741594
-5.88203
-6.97423
5.87148
0.0556949
-9.01663
10.081
-1.06438
-5.1751
-0.636495
5.51942
-7.28674
0.611954
-4.87858
5.20243
6.30658
6.36227
-8.05903
-0.205523
-4.66555
1.37316
-6.03871
5.78991
-2.78637
6.32365
-6.83345
4.71121
-5.85891
5.36489
-0.673822
5.30657
-3.24537
2.16244
-6.12123
-5.10552
6.98679
-3.49754
7.80174
-4.04076
11.8425
-6.95362
6.99908
4.84342
-1.36322
-5.93995
-6.89945
5.53624
0.0996269
5.7569
4.91867
-2.90218
4.51778
2.10447
-4.4575
-2.1306
-6.35493
1.89744
-3.24427
-1.70343
3.60087
3.13433
3.69477
1.24352
-3.18875
6.64125
-7.29223
-1.94238
-3.6813
6.68609
-1.14985
3.74327
-7.42457
-2.43239
5.07028
-0.511277
-4.559
0.731931
-5.51465
2.50313
-8.01777
6.28998
-7.01757
1.28826
-5.49974
-3.15291
-3.20294
-1.27603
-3.11797
-4.4724
3.19637
-1.02267
3.19136
-5.51946
5.00818
-1.85305
5.04942
-3.28516
-0.370357
3.4395
0.816406
5.86582
-0.265383
-5.95276
-1.81293
5.75306
-3.94013
3.05916
-5.30982
0.443239
3.61609
3.75189
-7.42668
-0.858298
-6.81105
-2.34227
4.42148
3.07983
7.92463
1.11535
4.93616
-0.514678
6.05151
2.74942
2.63654
-3.81221
5.1232
2.05036
6.18854
-0.810676
2.61946
1.75385
1.83074
0.695749
2.24919
1.50601
3.13798
0.174189
-2.03533
2.81517
-5.74981
-0.550297
-5.2761
1.26202
3.84184
-2.57982
4.62757
-3.15119
0.687435
2.63506
-2.64256
0.00749945
-2.6648
-0.355027
1.12079
-0.900419
1.98153
2.12002
-3.10233
0.437529
-0.100428
-3.72103
3.16507
-2.76016
0.048939
6.26443
-2.35162
0.0242035
-1.05927
-2.21543
-2.57812
2.34337
6.05288
0.373566
3.01763
5.1411
3.12882
0.226636
4.20354
-5.90877
-4.13065
-6.11429
-0.324385
5.19504
1.7604
7.94682
6.60382
5.45397
-1.9706
-9.26284
7.40404
-2.28083
6.29156
-1.73256
-6.28521
6.49914
2.58156
-6.81351
-0.204066
-6.48927
-8.77011
-0.241763
5.24995
-5.62406
5.2537
3.71048
0.62908
-2.70382
-0.499115
2.68919
-0.0526571
5.99885
-1.07977
-5.39314
6.47292
-2.76207
2.21177
4.17978
0.992395
4.18728
1.0361
-4.35704
-6.93686
-1.21207
-2.23836
-4.58524
-0.319191
-1.80083
3.88092
-1.66915
2.44712
4.80376
5.4912
-1.53141
-4.13153
4.25003
-1.80291
3.68829
)
;

boundaryField
{
    wall-4
    {
        type            calculated;
        value           uniform 0;
    }
    velocity-inlet-5
    {
        type            calculated;
        value           uniform -3.75095;
    }
    velocity-inlet-6
    {
        type            calculated;
        value           uniform -5.62643;
    }
    pressure-outlet-7
    {
        type            calculated;
        value           nonuniform List<scalar> 8(7.06808 6.46116 6.14055 6.66157 6.43321 6.58836 6.53194 6.62848);
    }
    wall-8
    {
        type            calculated;
        value           uniform 0;
    }
    frontAndBackPlanes
    {
        type            empty;
        value           nonuniform List<scalar> 0();
    }
}


// ************************************************************************* //
