/*--------------------------------*- C++ -*----------------------------------*\
| =========                 |                                                 |
| \\      /  F ield         | OpenFOAM: The Open Source CFD Toolbox           |
|  \\    /   O peration     | Version:  2206                                  |
|   \\  /    A nd           | Website:  www.openfoam.com                      |
|    \\/     M anipulation  |                                                 |
\*---------------------------------------------------------------------------*/
FoamFile
{
    version     2.0;
    format      ascii;
    arch        "LSB;label=32;scalar=64";
    class       volVectorField;
    location    "0.5";
    object      U;
}
// * * * * * * * * * * * * * * * * * * * * * * * * * * * * * * * * * * * * * //

dimensions      [0 1 -1 0 0 0 0];

internalField   nonuniform List<vector> 
918
(
(0.718486 -0.319195 0)
(0.142869 2.91058 0)
(-0.183894 1.80313 0)
(0.60824 0.283317 0)
(0.169363 1.73239 -6.07511e-20)
(-0.278959 2.54909 -1.12964e-18)
(1.09627 1.82014 -7.04589e-20)
(0.448923 0.267311 -9.74919e-21)
(0.835674 0.00500009 0)
(0.016065 1.79902 0)
(0.00910937 1.74539 0)
(0.949068 0.00382765 0)
(0.053757 3.04028 0)
(0.110123 2.97052 0)
(-0.108611 2.62924 -2.61007e-19)
(-0.0139419 1.7242 -5.55988e-20)
(0.679824 0.165436 7.7392e-19)
(0.191046 2.07125 -7.6254e-20)
(1.01331 -0.00846009 0)
(0.0177745 1.74128 0)
(0.33287 -0.105581 4.06557e-20)
(0.594144 -0.117209 0)
(0.903958 0.0468517 0)
(1.04237 0.0432515 0)
(0.859434 0.036931 0)
(0.150643 3.07039 0)
(-0.0278789 2.93069 3.74342e-19)
(-0.328677 1.71811 0)
(-0.0324428 1.67265 0)
(-0.215334 1.72124 0)
(0.0757154 1.72239 0)
(-0.0846515 1.64486 4.6748e-20)
(-0.0246699 1.74143 0)
(-0.140312 3.11699 -3.03051e-23)
(-0.0426569 2.98736 9.23217e-19)
(0.0514789 3.05801 0)
(0.987765 -0.00440525 0)
(0.827033 1.33611 2.50317e-19)
(1.14264 1.68427 2.60733e-19)
(1.24696 1.60165 -1.89095e-19)
(0.964734 1.88548 1.38923e-20)
(0.892186 1.98526 -5.45302e-20)
(0.489177 0.302192 9.49918e-21)
(0.520661 0.271365 0)
(1.37269 0.804967 0)
(0.407533 0.311504 4.02232e-20)
(0.376265 0.257719 -4.17987e-20)
(0.982783 -0.0112289 0)
(1.1074 -0.00591054 0)
(0.83496 -0.0120744 0)
(1.0176 -0.08568 0)
(1.05615 -0.0323256 0)
(0.888499 0.010977 0)
(0.0202063 1.63614 -4.06479e-19)
(0.0312748 1.82283 0)
(0.0380174 1.81929 0)
(-0.0217492 1.80718 0)
(-0.0047802 1.80037 0)
(0.0068619 1.73185 0)
(0.0217889 1.75614 0)
(0.0112949 1.74803 0)
(-0.015334 1.7381 0)
(-0.0120063 1.7116 0)
(1.01737 0.00247062 0)
(0.963164 0.0171007 0)
(0.961432 0.00269852 0)
(0.952292 -0.00195368 0)
(0.942093 -0.000387621 0)
(0.0298696 2.75782 3.59584e-19)
(0.202106 2.78152 0)
(-0.0385332 2.72778 0)
(-0.0766444 3.19029 2.83048e-24)
(-0.211982 3.02051 -5.58155e-19)
(0.0923395 3.01488 0)
(0.0732732 2.96137 0)
(0.0261791 3.03521 9.52637e-25)
(0.0521353 2.94889 0)
(0.0912122 2.98084 0)
(-0.126933 2.95892 0)
(0.101764 2.71645 0)
(-0.170143 2.72901 0)
(-0.00189464 2.69021 2.39411e-19)
(-0.0601052 2.66588 0)
(-0.00183006 1.73309 0)
(-0.0182975 1.73917 5.48262e-20)
(-0.00300356 1.72393 -6.32572e-20)
(0.712347 0.164194 -2.68822e-19)
(0.722367 0.144055 -2.61764e-19)
(0.680001 0.212437 -8.01114e-19)
(0.655996 0.204592 -5.08378e-19)
(0.171218 1.39895 0)
(0.345608 2.11634 4.74052e-20)
(0.431782 2.12626 -6.52003e-20)
(0.994695 -0.00307114 0)
(0.974157 0.00258883 0)
(0.841448 0.00991151 0)
(1.06706 -0.0036749 0)
(0.901486 0.0766815 -3.00294e-18)
(0.954016 0.156799 2.27696e-18)
(0.016602 1.75736 0)
(0.00918696 1.74295 0)
(0.0135241 1.64922 0)
(-0.0390559 1.75463 0)
(-0.00651069 1.78329 0)
(0.575016 0.138848 1.51998e-20)
(0.250125 0.199976 0)
(1.01749 0.0121662 0)
(0.995746 -0.00542858 0)
(0.935221 0.0455055 0)
(0.88213 0.1348 0)
(0.887513 0.00640591 0)
(1.14915 -0.00702431 0)
(0.831194 0.0181918 0)
(0.810588 0.0226933 1.23853e-18)
(-0.0466426 2.86008 3.8478e-19)
(-0.0683941 3.08447 0)
(-0.0668376 3.18811 0)
(0.0394345 2.96183 0)
(0.0365098 2.9769 3.4393e-19)
(0.0174997 2.95864 0)
(0.00912544 2.9543 -1.08533e-18)
(-0.0313137 2.94823 3.63127e-19)
(0.0407716 1.74306 0)
(-0.00745765 1.74158 0)
(0.00735205 1.72901 -1.74462e-21)
(-0.0496683 1.74557 0)
(0.0179919 1.7122 0)
(0.994893 -0.00974102 0)
(0.98774 -0.0130818 0)
(0.976117 0.00106146 0)
(0.995101 -0.0155436 0)
(0.976978 0.0135439 0)
(0.884084 1.41444 -3.1019e-19)
(0.916695 1.35964 0)
(0.83262 1.35075 3.61696e-20)
(0.783899 1.27645 0)
(1.20271 1.45597 6.74869e-20)
(1.34418 1.30644 -1.7344e-19)
(0.578249 2.11056 0)
(0.784912 2.02465 0)
(0.669073 2.09885 0)
(0.546383 1.29361 -1.79303e-19)
(0.541061 0.298662 0)
(0.55896 0.250694 1.36896e-19)
(1.24409 1.22101 0)
(1.26483 0.983547 0)
(1.37093 1.05258 2.27462e-19)
(1.32426 0.749148 0)
(1.38568 0.632436 1.58663e-20)
(0.98567 0.0303049 0)
(0.988264 -0.0129801 0)
(0.985595 -0.00975078 0)
(0.993562 0.00505519 0)
(0.988914 -0.0375139 0)
(0.970048 0.0089083 0)
(1.07141 0.00882919 0)
(1.02383 0.00196604 0)
(0.84452 0.00736861 0)
(0.0364594 1.6126 2.14734e-19)
(-0.0110031 1.55193 0)
(0.0308082 1.6717 3.77503e-19)
(0.0201657 1.66533 -3.43767e-19)
(0.0838877 2.03174 6.67965e-20)
(0.0429029 1.92467 0)
(0.0149487 1.96256 0)
(-0.00376937 1.79001 0)
(0.00361501 1.73319 0)
(-0.000640107 1.7206 -1.86087e-21)
(-0.0286062 1.70226 0)
(-0.0108776 1.74114 -1.04809e-19)
(-0.00366439 1.71834 2.04759e-19)
(0.0177853 1.74577 0)
(0.028089 1.7552 0)
(-0.00145062 1.73242 0)
(-0.000866215 1.75288 0)
(-0.00455884 1.76997 0)
(1.02855 0.00951989 0)
(1.01853 0.000823527 0)
(1.00541 0.0139653 0)
(0.981781 -0.00838896 0)
(0.971606 -0.00315201 0)
(0.969671 0.00137434 0)
(0.962523 0.0132021 0)
(0.944127 -0.00117277 0)
(0.0216946 3.02533 -3.3143e-21)
(0.00560078 3.04848 0)
(-0.00468932 2.98495 0)
(-0.0678654 2.95718 0)
(0.714368 2.98636 0)
(1.06234 2.36902 3.22506e-20)
(-0.0618986 2.70585 0)
(-0.0961288 2.6935 0)
(-0.00297449 1.77663 0)
(-0.0209409 1.69942 0)
(0.0024991 1.73945 0)
(0.0766311 1.70675 -4.11493e-21)
(0.0408815 1.77587 0)
(0.00562687 1.77475 0)
(0.0171854 1.73302 1.06613e-20)
(0.0170305 1.73339 7.26328e-20)
(-0.0109416 1.72467 6.4609e-20)
(0.0112842 1.68638 0)
(0.742653 0.158606 4.21882e-19)
(0.743294 0.0911182 -4.15694e-19)
(0.202628 1.42351 0)
(0.233144 1.37263 -1.06062e-19)
(0.139101 1.48542 -3.32944e-19)
(0.0866546 1.49422 3.32844e-19)
(0.985074 -0.00455569 0)
(0.986564 -0.0162813 0)
(0.983854 0.00554195 0)
(0.975787 0.00410796 0)
(0.0194231 1.76562 0)
(0.0238468 1.74089 0)
(0.00807354 1.70783 0)
(0.339379 0.281751 3.52144e-19)
(0.298757 0.237513 -3.51067e-19)
(0.30571 0.232486 0)
(1.18427 0.0943227 4.63549e-20)
(1.24485 0.0494013 0)
(1.11466 0.0558942 0)
(1.06776 -0.00541485 0)
(0.769269 0.0942785 0)
(0.806724 0.0660613 -1.98545e-18)
(0.761705 0.0555667 7.40993e-19)
(-0.0875328 2.94822 3.47001e-19)
(-0.0708202 2.93529 -2.33016e-20)
(0.00958925 3.04391 -6.97082e-21)
(0.0207945 3.0285 2.37462e-19)
(-0.0266272 2.97607 1.19811e-20)
(-0.079779 2.91695 -4.94642e-23)
(-0.125498 2.97783 -2.26039e-19)
(0.154869 3.08784 1.59546e-19)
(0.0991045 3.10522 -2.31673e-19)
(0.999027 -0.0110579 0)
(0.988692 0.0441762 0)
(0.984826 0.0174561 0)
(0.984167 -0.00532256 0)
(0.977858 0.00418637 0)
(0.96031 -0.00126244 0)
(0.980972 -0.0119577 0)
(0.985646 0.00773256 0)
(0.978884 0.00322419 0)
(0.988792 1.41882 -3.07697e-19)
(0.992425 1.42379 0)
(0.634976 1.24402 5.7159e-20)
(0.678366 1.33413 4.54681e-19)
(0.757474 1.34536 -2.71324e-19)
(0.717476 1.30179 5.29272e-19)
(0.502706 1.32791 8.7874e-19)
(0.477676 1.28569 1.63879e-19)
(0.647541 0.239226 5.35425e-19)
(0.594107 0.274348 1.36063e-19)
(0.61394 0.233101 2.57792e-19)
(1.29803 0.563706 -2.9472e-19)
(1.34181 0.402933 -3.23281e-19)
(-0.000554422 1.68389 1.63797e-19)
(-0.000935633 1.66078 0)
(1.0693 0.0193459 0)
(1.04161 0.0157888 0)
(1.04378 0.000223372 0)
(-0.014441 3.04656 0)
(0.0469418 3.00875 5.08135e-19)
(-0.00156932 3.00968 0)
(-0.00649152 2.96896 -5.05634e-19)
(-0.0763234 3.02156 1.19752e-19)
(-0.00328142 3.01271 0)
(1.05361 1.48722 6.68603e-20)
(1.04601 1.63779 -2.80183e-19)
(0.969851 1.42088 1.6744e-19)
(-0.0671784 2.8899 -3.57182e-19)
(-0.0651492 2.80933 0)
(-0.0665359 2.78455 0)
(-0.00969565 1.7316 -5.55901e-21)
(0.0333539 1.72915 -1.73552e-19)
(-0.0181117 1.71589 -5.31865e-21)
(0.265792 1.36746 3.45547e-19)
(0.263549 1.30553 -2.33872e-19)
(0.00917644 1.57424 2.70302e-19)
(0.0665909 1.539 -3.01774e-19)
(0.0348569 1.52283 1.51582e-20)
(-0.0612989 3.07721 -6.96748e-19)
(-0.13807 3.05553 7.83733e-19)
(0.0293744 2.97813 3.32957e-19)
(0.0102345 3.05228 -3.21609e-19)
(0.202171 2.94534 -3.394e-19)
(-0.0652664 3.00503 -9.18627e-19)
(-0.148021 2.98958 9.40077e-19)
(0.546372 1.30363 0)
(0.57611 1.30377 -9.36127e-19)
(0.564102 1.23515 4.12486e-19)
(0.434507 1.33782 4.74306e-19)
(0.418614 1.30443 -7.39402e-19)
(1.24628 0.207281 1.77966e-19)
(1.29203 0.380318 0)
(1.3315 0.251554 -1.70603e-19)
(-0.030714 1.73463 -2.06599e-21)
(0.0101345 1.70222 0)
(0.023197 1.71683 0)
(0.285174 1.37197 -1.22757e-19)
(0.364816 1.35631 -2.80101e-19)
(0.370898 1.33453 5.24433e-19)
(0.968172 -0.0163099 0)
(0.987994 -0.0496632 5.63329e-19)
(0.0751806 1.7352 0)
(-0.048683 1.68641 0)
(1.01716 -0.0462196 8.85187e-21)
(0.87677 -0.0162391 1.14174e-18)
(0.0626729 1.81297 5.52839e-21)
(0.0927963 1.77979 0)
(-0.10403 2.83105 3.74779e-19)
(0.000807485 2.46744 0)
(1.19716 0.654937 -1.70393e-19)
(1.02004 -0.0138047 -2.08667e-21)
(0.971328 0.037117 0)
(0.923908 0.00296937 -7.89699e-22)
(0.0107434 1.8768 0)
(0.146988 1.70007 0)
(-0.0296779 1.78242 0)
(0.0885482 1.75326 1.19424e-19)
(0.0211207 1.7404 9.22975e-20)
(0.986012 -0.00307201 6.79064e-21)
(1.00303 0.0708148 0)
(1.0402 0.0390975 0)
(-0.0323607 1.65556 0)
(0.0285632 1.74665 0)
(-0.0287342 1.75812 0)
(0.241634 1.9565 1.30297e-19)
(0.999808 -0.101461 0)
(0.990522 -0.0505115 0)
(0.933064 0.0658945 7.07055e-19)
(0.984321 0.0526237 -8.53134e-19)
(1.039 -0.0698174 0)
(0.0527979 1.73058 0)
(-0.0215905 1.74333 0)
(-0.00279788 1.79729 0)
(-0.00352074 1.79967 0)
(-0.119538 1.79766 0)
(0.00334635 1.67168 0)
(0.985786 0.0137063 0)
(1.00967 -0.0188099 1.49185e-21)
(0.906202 1.64483 -1.28193e-19)
(0.938547 -0.0868271 -7.06402e-19)
(1.03063 0.0305016 8.52727e-19)
(1.04267 0.0263107 0)
(0.982421 -0.00232755 6.80451e-19)
(1.04954 0.106986 -8.44483e-19)
(0.971931 0.0289875 0)
(0.0198749 1.76634 0)
(0.115139 1.77984 5.5877e-20)
(-0.0209401 1.71873 -4.11896e-20)
(1.11635 0.253945 9.67619e-19)
(1.06791 0.0727783 0)
(-0.590815 2.84367 -5.00305e-19)
(-0.123023 3.34206 -2.55273e-20)
(-0.258784 2.79284 9.50894e-19)
(-0.0344926 2.82513 -1.9965e-19)
(-0.00732598 2.7496 0)
(-0.0594274 2.94749 1.58728e-19)
(-0.210897 3.03867 4.7693e-19)
(-0.0947349 2.92151 -2.97204e-19)
(-0.264563 3.03381 0)
(0.607168 0.280463 0)
(0.442031 0.326524 0)
(1.06578 0.850716 5.06502e-19)
(1.15211 0.934775 -6.4011e-19)
(1.13941 0.557437 0)
(1.12471 0.586029 0)
(1.01774 0.030274 -1.28558e-18)
(0.962476 0.00109052 1.61945e-18)
(1.04349 -0.116228 0)
(1.0002 -0.0445382 0)
(0.891022 0.0771827 0)
(1.04387 -0.0504046 0)
(1.03238 0.038388 0)
(0.991499 -0.0158652 0)
(0.991311 -0.110886 0)
(0.93717 -0.0119553 0)
(0.0528389 1.87351 0)
(0.0275983 1.75836 0)
(0.0504472 1.86121 0)
(0.175015 1.88796 0)
(0.201657 1.68804 0)
(0.0295751 1.66365 -2.08186e-19)
(0.103533 1.69086 0)
(0.00337356 1.65301 1.40518e-19)
(0.108889 1.7501 -1.81562e-19)
(0.0316545 1.7811 0)
(0.0752176 1.73732 0)
(-0.0410791 1.76231 0)
(-0.05283 1.72689 0)
(-0.0123198 1.72905 -9.57822e-20)
(-0.020542 1.78148 1.28537e-19)
(0.0262135 1.78322 1.44396e-19)
(-0.0168489 1.74868 0)
(-0.0132444 1.75056 -2.40047e-19)
(-0.0109057 1.70789 -1.35844e-19)
(0.0484824 1.82501 7.23236e-20)
(-0.186216 1.69007 -1.61932e-19)
(0.0187618 1.67827 -1.78702e-19)
(0.989858 -0.0213955 1.16267e-18)
(0.968927 -0.0394621 -1.48355e-18)
(0.979032 0.0330931 -1.18836e-18)
(0.91775 0.0123921 1.50908e-18)
(1.06464 0.109771 0)
(1.02682 -0.00127873 0)
(1.0599 0.0440939 0)
(1.06907 -0.0298328 0)
(1.02366 -0.0101735 0)
(1.10111 0.0782919 0)
(1.07053 0.022828 0)
(1.04183 0.0254963 0)
(-0.194697 1.71389 -5.61309e-21)
(-0.00233272 1.74566 0)
(0.028191 1.73326 0)
(0.038595 1.74478 3.31537e-20)
(0.068669 1.75988 -1.83352e-21)
(-0.0152469 1.78306 6.23716e-20)
(-0.111033 1.68906 -6.25519e-20)
(-0.0753587 1.75133 0)
(0.0257367 1.73635 0)
(0.0959572 1.66856 0)
(-0.0409153 1.7647 0)
(-0.085225 1.77569 0)
(0.368575 1.91948 -2.91793e-19)
(0.461925 1.98428 -8.51127e-20)
(0.345237 1.42495 -8.61285e-20)
(0.247576 1.58584 2.50973e-19)
(0.33784 1.75923 7.98955e-20)
(1.0432 0.0350956 0)
(0.997335 0.0469394 0)
(1.01118 0.0556162 0)
(0.935693 -0.0480833 0)
(1.0266 -0.00192434 0)
(0.946434 0.0350664 0)
(0.974517 0.106319 0)
(0.972041 0.0418706 0)
(0.99901 -0.0286845 1.23218e-18)
(0.993285 -0.0291969 -1.57018e-18)
(1.00584 0.035394 -1.218e-18)
(0.970733 0.0260384 1.5322e-18)
(0.893066 1.66119 0)
(0.831944 1.73232 -2.18471e-19)
(0.878617 1.58971 -1.90774e-19)
(1.00611 1.4625 2.5362e-19)
(0.861315 1.51921 9.55777e-19)
(0.842628 0.109173 4.83619e-19)
(1.10853 0.0783949 0)
(1.1612 0.251471 -7.80682e-19)
(1.12643 0.094376 -3.31269e-20)
(0.976697 0.0957086 0)
(-0.847106 2.50101 4.58546e-19)
(-0.930745 2.41555 -7.25073e-19)
(-0.915924 3.26829 2.48756e-19)
(-1.18164 1.48501 -1.07004e-19)
(-0.146628 2.43495 2.08984e-19)
(-0.0501471 2.67732 0)
(-0.0762867 2.62602 -2.64021e-19)
(-0.554542 2.48193 -1.16419e-18)
(-0.270774 2.29875 0)
(-0.0477818 2.98487 2.5033e-20)
(-0.0384446 3.06127 -2.47962e-19)
(0.0146493 3.06092 3.50193e-19)
(-0.0680715 3.04024 0)
(-0.112124 2.98222 0)
(1.04143 1.70083 0)
(0.290518 1.09264 -3.83352e-19)
(1.10636 1.15671 2.13597e-19)
(0.929936 1.43209 0)
(0.799635 1.11593 -1.89837e-19)
(1.0352 1.10575 1.52419e-20)
(0.0803686 -0.0192229 -4.51376e-19)
(0.631501 0.265185 -6.70126e-21)
(0.626446 0.302607 2.93063e-19)
(0.389197 0.414988 1.81126e-20)
(0.327908 0.317391 -6.97769e-19)
(0.543297 0.425796 0)
(0.554068 0.509133 4.85119e-19)
(0.55686 0.35894 0)
(0.441724 0.370091 0)
(0.486573 0.344032 0)
(0.595469 0.712583 3.99034e-19)
(1.18799 0.211425 -7.9983e-19)
(1.14337 0.499692 0)
(1.2165 0.283778 0)
(0.734964 0.205371 4.66531e-19)
(0.61894 0.699106 -2.9746e-19)
(0.525341 0.525397 5.60703e-19)
(0.817498 0.364271 -6.77852e-19)
(0.994638 -0.0287554 8.47304e-19)
(1.00322 0.125966 -8.67243e-19)
(0.998082 0.0440505 0)
(1.03137 -0.0170663 0)
(1.00692 -0.0290024 -8.09625e-19)
(0.998796 0.0319417 8.03537e-19)
(0.969482 0.0530882 0)
(0.934968 0.0126646 0)
(1.00099 -0.00208968 0)
(0.986855 -0.0367725 0)
(1.04068 0.0149247 0)
(0.954683 -0.0281016 0)
(0.129893 1.79202 0)
(0.114545 1.78669 0)
(0.184599 1.83205 -2.06373e-19)
(0.27064 1.96588 -8.46146e-20)
(0.27793 1.91013 -2.05683e-19)
(0.188036 1.92287 3.22094e-19)
(0.0166054 1.75713 0)
(0.160029 1.72317 -2.09687e-19)
(-0.0182465 1.77115 0)
(0.286791 1.68005 -1.1435e-19)
(0.196814 1.59834 3.3429e-19)
(0.282663 1.71706 1.82798e-19)
(0.178421 1.80796 -1.01238e-19)
(0.127095 1.77916 8.13393e-20)
(0.178808 1.79842 -2.65394e-19)
(0.220775 1.76681 0)
(0.27045 1.66617 1.97877e-19)
(0.065243 1.63927 -8.0558e-20)
(0.12255 1.73046 0)
(0.00538195 1.76363 1.96643e-19)
(-0.0725687 1.69009 0)
(0.0186044 1.68896 -1.5542e-19)
(-0.00604783 1.66497 0)
(0.019332 1.71583 -1.19572e-19)
(0.0818707 1.72371 0)
(0.0146894 1.7516 0)
(0.0347109 1.77234 1.34531e-19)
(0.0876544 1.76719 1.3913e-20)
(0.040866 1.75665 2.22264e-19)
(-0.00384959 1.70449 1.75557e-21)
(0.156911 1.67457 6.73575e-20)
(0.0855981 1.63192 4.26667e-20)
(-0.0798641 1.74202 0)
(-0.101833 1.73886 0)
(-0.0138972 1.72026 1.77527e-19)
(-0.0583176 1.74433 1.85466e-19)
(0.0559755 1.79661 -2.26049e-19)
(-0.0118039 1.77491 0)
(0.0811914 1.76953 -1.64964e-19)
(-0.0788007 1.67641 5.47675e-20)
(-0.0282269 1.77323 -1.42414e-20)
(0.138037 1.81285 -8.05083e-20)
(0.108829 1.68131 -3.53e-20)
(-0.0213052 1.69594 1.84639e-19)
(0.985634 0.0472255 -8.19536e-19)
(0.993567 -0.109027 7.99123e-19)
(0.988237 0.0452589 0)
(0.945977 -0.0524971 1.10256e-18)
(0.911379 0.130664 -1.20409e-18)
(0.96251 0.0219695 1.31512e-18)
(0.964221 -0.00774583 -1.39971e-19)
(1.05326 -0.104099 0)
(1.02201 -0.00116285 7.90213e-19)
(1.00581 -0.0427447 -7.85789e-19)
(0.983088 -0.0318799 -4.52186e-20)
(0.980298 0.0814446 3.76242e-19)
(0.951058 0.0741244 0)
(0.968357 0.103743 -1.33345e-19)
(0.974004 0.0147027 0)
(0.972562 0.0690441 0)
(1.04311 0.0853209 0)
(0.946212 -0.0048365 0)
(0.989655 0.0580052 2.80632e-19)
(1.04918 0.00382061 -6.11235e-19)
(1.01826 -0.0210294 -2.94446e-19)
(1.01519 0.00495546 -3.30452e-19)
(1.07947 0.0328207 6.418e-19)
(0.993205 0.0555058 0)
(0.99985 0.00391851 0)
(0.0206942 1.82062 -7.30115e-20)
(0.183489 1.73621 -9.5744e-21)
(0.0522562 1.61506 0)
(0.0343271 1.78261 7.5488e-20)
(-0.15855 1.66563 1.46989e-20)
(-0.0360069 1.69513 -1.34308e-20)
(-0.105718 1.76463 1.16513e-19)
(-0.0470564 1.7593 -6.3189e-21)
(0.135633 1.70175 3.76924e-20)
(0.0442798 1.76005 -5.61266e-20)
(-0.0864653 1.77406 6.68587e-20)
(-0.0223146 1.67088 -2.40202e-21)
(-0.00588351 1.83548 9.33484e-20)
(0.474121 1.77329 1.60469e-19)
(0.297322 1.81277 2.86178e-19)
(0.758824 1.79792 2.12033e-19)
(0.585164 1.91598 8.1762e-20)
(0.656069 1.94196 0)
(0.342395 1.45393 1.04278e-19)
(0.25157 1.39747 1.24939e-19)
(0.248684 1.5251 1.46616e-20)
(0.356577 1.53186 -3.91392e-19)
(0.442873 1.50097 3.2169e-19)
(0.217755 1.48968 0)
(0.169432 1.46191 -2.09967e-19)
(0.0887257 1.63863 5.19872e-19)
(0.053674 1.60917 2.92925e-22)
(0.0238117 1.54819 -6.60401e-19)
(0.672016 1.35405 5.6421e-19)
(0.474918 1.43216 0)
(1.02787 0.131832 2.74378e-20)
(0.985766 -0.115638 -2.32019e-20)
(0.983626 -0.108841 -4.09995e-19)
(1.04975 0.0343419 4.16299e-19)
(0.988752 0.0282932 0)
(0.76479 1.596 0)
(0.854657 1.58763 0)
(0.911445 1.3435 0)
(0.669504 1.40502 0)
(0.84353 1.52295 4.82281e-21)
(0.749991 1.49377 0)
(0.537857 1.44063 5.39815e-21)
(0.436635 1.45649 0)
(0.588114 1.50908 -4.54172e-19)
(0.597499 1.42266 2.92935e-19)
(0.801074 0.110505 0)
(0.76395 0.116175 1.27099e-19)
(0.873369 0.13735 7.93154e-19)
(0.833016 0.0721148 -2.86569e-19)
(0.84439 0.110608 -8.99356e-19)
(1.09336 0.188177 -9.64362e-19)
(0.779825 0.399634 -1.60818e-20)
(0.909532 0.179337 7.1519e-19)
(0.920294 0.148571 7.10847e-19)
(0.853262 0.184987 -1.08564e-18)
(0.884388 0.275389 1.31297e-19)
(0.750455 0.278976 -3.27134e-19)
(0.775257 0.262883 0)
(0.940717 0.132041 5.4157e-19)
(1.01164 0.15344 0)
(0.939624 0.153009 0)
(1.02566 0.185783 3.1892e-19)
(0.973903 0.321377 -9.8184e-22)
(0.882664 0.131923 -1.7978e-19)
(0.997535 0.121642 0)
(0.991704 0.0398966 6.21946e-19)
(0.939793 -0.0573698 7.59133e-19)
(1.04288 0.0632088 -6.01473e-19)
(1.00193 0.114624 -5.10191e-19)
(0.945921 -0.0259728 -7.82767e-19)
(0.903328 0.204846 0)
(0.951905 0.0259708 0)
(0.892075 0.0798736 -4.62172e-19)
(0.85882 -0.0539852 1.72421e-19)
(1.0155 0.12928 6.83192e-19)
(1.03394 0.0962474 -8.86521e-19)
(0.938731 0.112706 7.76644e-19)
(0.892872 0.174604 0)
(1.01609 0.163352 0)
(0.912226 0.0768859 -3.58617e-19)
(0.959526 0.0576794 -5.66332e-19)
(0.60062 1.52316 2.32652e-19)
(0.626165 1.49555 -2.33749e-19)
(0.738722 1.51025 -3.56985e-19)
(0.708551 1.65644 9.24478e-20)
(0.821618 1.5729 -9.18437e-19)
(1.01707 1.67209 3.09639e-19)
(0.955059 1.55393 -2.32599e-22)
(0.828959 1.64888 -3.88124e-19)
(0.780377 1.6214 5.80788e-19)
(0.768907 1.87866 1.44807e-19)
(1.00558 1.92086 -1.48815e-19)
(1.02026 2.01593 0)
(0.44615 1.40262 -4.2389e-20)
(-0.683373 1.74222 2.95825e-19)
(-0.592796 0.313709 2.76457e-19)
(-0.506777 0.376053 1.57869e-19)
(0.250078 0.408643 3.98313e-19)
(0.222539 0.377238 -7.23006e-19)
(0.165804 0.499704 5.8881e-19)
(0.0461266 0.308237 -1.72817e-19)
(0.233848 0.24181 3.79997e-19)
(0.702397 0.299533 -2.73962e-19)
(0.637755 0.319616 0)
(0.661235 0.265091 -6.37702e-22)
(0.50679 0.477131 2.62899e-19)
(0.33136 0.545299 -9.48809e-19)
(0.29072 0.476797 -1.04057e-20)
(0.421691 0.394368 0)
(0.470899 1.01025 3.56578e-19)
(0.755044 0.936741 4.13407e-19)
(0.615282 1.16739 -4.7896e-19)
(0.72208 0.940967 -1.87002e-19)
(0.924147 0.927371 -6.54586e-20)
(0.947537 1.12117 6.71581e-20)
(0.693559 0.676841 -6.64272e-19)
(0.781408 0.974792 1.74991e-19)
(0.984471 0.857905 0)
(0.87325 0.752614 -2.46455e-19)
(0.854076 0.237381 2.4031e-19)
(0.993871 0.409917 4.26854e-19)
(0.974948 0.264277 3.81584e-19)
(0.908244 0.428584 -4.53543e-19)
(1.02619 0.379809 0)
(1.04653 0.353895 0)
(0.724908 0.4662 -2.0826e-20)
(0.778972 0.221025 0)
(0.66814 0.242203 3.25815e-19)
(0.81243 0.300811 1.34998e-22)
(0.876119 0.523996 1.87838e-18)
(0.758135 0.562904 4.92429e-19)
(0.746563 0.488052 -4.72965e-19)
(0.694275 0.422784 5.06098e-19)
(0.672019 0.563053 2.78906e-19)
(0.599654 0.413773 -2.70876e-19)
(1.02451 0.0834825 6.70714e-19)
(0.940652 -0.0778572 0)
(0.950636 -0.0142573 4.45553e-19)
(0.87122 0.121257 -1.00273e-18)
(1.04022 -0.0161064 4.80449e-19)
(0.943123 0.0386944 -1.01885e-18)
(1.04164 -0.0197881 0)
(0.994727 -0.012134 -2.11615e-19)
(1.00952 0.0539466 5.28744e-19)
(0.970216 0.002568 -2.70656e-19)
(0.931971 -0.0954328 1.99194e-19)
(-0.0822138 1.78992 0)
(0.205269 1.70997 0)
(-0.0162007 1.77811 0)
(-0.0124637 1.81471 0)
(0.0156555 1.80586 3.26608e-19)
(0.0225584 1.8271 -8.06179e-20)
(0.0819904 1.62152 -9.95291e-20)
(0.149699 1.63185 1.24802e-19)
(-0.137854 1.77564 -2.64804e-19)
(0.0774675 1.65007 2.01186e-19)
(0.0267179 1.79569 2.33659e-20)
(-0.00210576 1.75179 -2.44307e-19)
(0.0043121 1.76632 -3.2456e-20)
(0.217266 1.72318 -2.97408e-20)
(0.0127974 1.69253 -2.11583e-19)
(0.052972 1.67185 0)
(0.0174994 1.73338 1.06403e-19)
(0.0399535 1.75306 7.75597e-20)
(0.136638 1.62488 -9.77144e-20)
(0.112876 1.67299 0)
(0.192757 1.55382 -3.93362e-19)
(0.13082 1.59901 2.81298e-19)
(0.233882 1.63349 -2.63209e-19)
(0.208503 1.59553 1.70187e-19)
(-0.00655694 1.45167 0)
(0.0779647 1.62687 -2.01546e-19)
(-0.0476138 1.63611 -2.55795e-19)
(-0.00708189 1.70234 0)
(0.0274568 1.82329 1.83278e-21)
(0.00755737 1.79603 1.0002e-19)
(-0.0031563 1.78706 1.8549e-20)
(0.0689207 1.74358 -2.79304e-19)
(-0.0618403 1.7846 7.76323e-20)
(-0.0456725 1.55829 9.72505e-20)
(0.0793755 1.82801 0)
(-0.0615011 1.81281 0)
(-0.0858054 1.77906 9.09618e-20)
(0.0990943 1.75605 -2.73009e-20)
(-0.069541 1.77897 0)
(0.0394858 1.76608 7.67101e-20)
(0.0840522 1.75258 -1.46438e-19)
(0.93659 0.188625 0)
(1.08212 0.0604648 -7.26684e-20)
(0.93999 0.0649957 -5.06495e-19)
(0.910906 0.0221719 0)
(0.903817 -0.106618 0)
(1.03985 -0.0561411 -1.35658e-20)
(0.967299 -0.117993 8.09745e-19)
(0.953687 -0.0150742 1.01425e-18)
(1.00234 0.00647679 0)
(1.0197 -0.00742515 0)
(0.971312 -0.0264549 4.90794e-19)
(0.961951 0.0250018 0)
(0.937433 0.0993732 0)
(-0.0728259 1.81191 0)
(-0.0353605 1.6077 2.4639e-20)
(-0.0454958 1.65185 2.61888e-20)
(0.000927401 1.77849 0)
(0.187351 1.78312 6.79776e-20)
(0.057718 1.79135 -2.12891e-20)
(0.0366561 1.70332 0)
(0.390945 1.59609 0)
(0.36987 1.49168 -5.21384e-19)
(0.343463 1.5236 0)
(0.486649 1.76207 6.28673e-19)
(0.555022 1.75005 0)
(0.528249 1.80958 -2.68219e-19)
(0.483233 1.46263 -1.29189e-20)
(0.648876 1.37306 -6.72865e-19)
(0.601397 1.39338 8.51816e-19)
(0.488916 1.39711 1.54084e-19)
(0.461659 1.44994 0)
(0.560088 1.45182 0)
(0.569371 1.41471 0)
(0.441798 1.36777 -5.55061e-19)
(0.427251 1.4805 -3.77282e-19)
(0.339215 1.44716 -8.72832e-20)
(0.495211 1.58298 7.0345e-20)
(0.313407 1.45691 0)
(0.475779 1.42532 0)
(0.402732 1.38057 -1.50451e-19)
(0.402857 1.41888 0)
(0.503435 1.49441 0)
(0.64617 1.39775 -5.07469e-19)
(0.443478 1.25216 -3.27103e-20)
(0.743407 1.47817 0)
(0.683019 1.53873 7.84485e-19)
(0.708013 1.32413 -1.70051e-19)
(1.00896 1.1937 0)
(0.765945 1.02768 2.91315e-19)
(0.407502 1.50976 0)
(0.439194 1.23164 0)
(0.729654 1.44778 -3.36141e-19)
(0.700961 1.5294 -2.40217e-19)
(0.732308 1.47383 4.13605e-19)
(0.715985 1.52194 -1.29689e-19)
(0.727158 1.4587 0)
(0.697767 1.46668 1.69896e-19)
(0.723522 1.46822 -2.82672e-19)
(0.763076 1.40537 -7.17696e-22)
(0.600475 1.51565 0)
(0.586242 1.54784 -2.03099e-19)
(0.599003 1.47884 0)
(0.811798 0.148237 0)
(0.790514 0.203125 0)
(0.721112 0.206434 0)
(0.779112 0.296223 -5.13937e-19)
(0.750911 0.195025 2.84569e-19)
(0.985992 -0.0359723 -3.5654e-19)
(0.880869 0.0514545 0)
(0.88059 0.0241868 1.49084e-19)
(0.854234 0.152833 5.98695e-19)
(0.794745 0.0374764 -3.83316e-19)
(0.932688 2.20843 1.88327e-19)
(0.830831 2.0152 0)
(0.849009 2.23153 3.78434e-19)
(0.212776 2.36681 -3.32081e-19)
(0.324973 1.90921 -3.4359e-19)
(0.236017 1.41483 5.05356e-19)
(0.319015 1.52781 0)
(-0.0467922 0.955663 -9.30656e-20)
(0.027141 1.12373 6.26342e-19)
(-0.304412 0.852834 -1.43917e-19)
(0.0500357 0.563335 1.59043e-19)
(0.323753 0.613085 3.41871e-19)
(0.536862 0.595355 0)
(0.253309 0.848662 0)
(0.120966 0.829672 0)
(0.867995 0.77428 2.00295e-19)
(0.816139 0.589528 -4.71141e-19)
(0.889626 0.641638 4.13277e-19)
(0.819109 0.466823 -3.75819e-19)
(0.970054 0.656256 0)
(0.92962 0.643819 -1.26683e-19)
(0.749415 0.369968 -6.66198e-19)
(0.721639 0.286359 -8.24316e-19)
(0.611754 0.433614 5.17059e-19)
(0.634893 0.390719 -4.78302e-19)
(0.727421 0.377539 -3.97329e-19)
(0.71491 0.326711 4.90381e-19)
(1.006 0.00341034 -5.20361e-19)
(1.06449 0.0301745 1.08421e-18)
(1.03226 0.0434399 6.50204e-19)
(1.08121 -0.0909896 -7.87011e-19)
(0.834735 -0.00142184 0)
(0.827942 0.00171293 -1.28999e-18)
(0.103877 1.64678 5.39783e-20)
(-0.0453268 1.69986 0)
(0.141219 1.79086 3.66618e-19)
(0.0991938 1.72856 -3.32744e-19)
(0.0695653 1.7957 1.84961e-19)
(0.112771 1.80597 0)
(0.00133706 1.82238 0)
(0.0888054 1.64769 -3.01006e-20)
(0.0136889 1.6272 2.7067e-20)
(0.135738 1.6028 9.09315e-21)
(-0.223728 1.75162 -6.73126e-20)
(-0.0284687 1.74853 2.86295e-20)
(0.55237 1.57346 -5.92039e-19)
(0.632313 1.58522 6.25748e-19)
(0.447386 1.73194 -3.20449e-19)
(0.628382 1.61089 2.81931e-20)
(0.592116 1.75089 0)
(0.654581 1.75806 -3.06483e-19)
(0.571243 1.71189 2.97074e-19)
(0.531693 1.68064 3.14695e-19)
(0.614653 1.6958 0)
(0.67877 1.67596 0)
(0.599811 1.40658 5.74728e-19)
(0.300788 1.53874 7.50738e-19)
(0.226829 1.48735 -5.18312e-19)
(0.196147 1.56068 -8.72532e-20)
(0.347237 1.49507 1.80745e-19)
(0.261438 1.34085 -4.2899e-19)
(0.613406 1.40413 -4.83535e-19)
(0.639181 1.44536 0)
(0.577777 1.403 -5.37288e-19)
(0.731624 1.4392 0)
(0.675781 1.55522 0)
(0.467813 1.79536 -3.6605e-19)
(0.51739 1.91576 -2.93995e-19)
(0.3643 1.98134 3.40433e-19)
(-0.387392 1.49412 0)
(-0.145761 1.4299 -2.41592e-19)
(0.193678 1.55902 -3.10543e-19)
(0.395028 1.71138 0)
(0.298633 1.93285 2.4929e-19)
(-0.0103898 1.98053 0)
(0.527624 0.974822 -7.52121e-19)
(0.600557 1.01543 1.01875e-18)
(0.690704 0.752819 -1.00271e-18)
(0.35504 0.793398 -8.94468e-20)
(0.397311 0.787693 -3.62677e-19)
(0.657654 1.70042 2.22779e-19)
(0.686293 1.6632 -4.67671e-19)
(0.474509 1.77542 6.19286e-19)
(0.497192 1.62519 -4.03299e-19)
(0.635407 1.62058 -5.71364e-19)
(0.646669 1.68422 -4.43123e-20)
(0.668531 1.57822 4.72402e-19)
(0.551695 1.64107 3.33419e-20)
(0.581848 1.51466 2.4379e-19)
)
;

boundaryField
{
    wall-4
    {
        type            noSlip;
    }
    velocity-inlet-5
    {
        type            fixedValue;
        value           uniform (1 0 0);
    }
    velocity-inlet-6
    {
        type            fixedValue;
        value           uniform (0 3 0);
    }
    pressure-outlet-7
    {
        type            zeroGradient;
    }
    wall-8
    {
        type            noSlip;
    }
    frontAndBackPlanes
    {
        type            empty;
    }
}


// ************************************************************************* //
