/*--------------------------------*- C++ -*----------------------------------*\
| =========                 |                                                 |
| \\      /  F ield         | OpenFOAM: The Open Source CFD Toolbox           |
|  \\    /   O peration     | Version:  2206                                  |
|   \\  /    A nd           | Website:  www.openfoam.com                      |
|    \\/     M anipulation  |                                                 |
\*---------------------------------------------------------------------------*/
FoamFile
{
    version     2.0;
    format      ascii;
    arch        "LSB;label=32;scalar=64";
    class       volScalarField;
    location    "100";
    object      alphat;
}
// * * * * * * * * * * * * * * * * * * * * * * * * * * * * * * * * * * * * * //

dimensions      [1 -1 -1 0 0 0 0];

internalField   nonuniform List<scalar> 
50904
(
6.0313351e-06
1.0039161e-05
6.8108484e-06
1.1773502e-05
2.038561e-05
2.3458216e-05
1.8075098e-05
2.0406745e-05
3.477634e-05
3.2806777e-05
2.8708087e-05
2.5595267e-05
3.4905972e-05
3.1081963e-05
2.5407664e-05
2.2289721e-05
2.27613e-05
2.1260182e-05
1.6525642e-05
1.409759e-05
1.2103527e-05
6.1348048e-06
5.2786681e-06
2.6677754e-06
1.9047654e-06
1.0125011e-06
1.0328624e-06
5.6971109e-07
5.3929581e-07
3.1995063e-07
3.7096456e-07
2.2823177e-07
3.3452055e-07
2.2154532e-07
2.6354427e-07
1.7819437e-07
3.1567682e-07
2.1946419e-07
2.5749707e-07
1.8131298e-07
3.2849921e-07
2.353115e-07
2.693771e-07
1.9488859e-07
3.5182897e-07
2.5853773e-07
2.8949172e-07
2.1411054e-07
3.8249598e-07
2.8807695e-07
3.1532106e-07
2.3830077e-07
4.2410672e-07
3.2675536e-07
3.5040703e-07
2.7008573e-07
4.8207018e-07
3.7904838e-07
3.9895299e-07
3.1262275e-07
5.5241865e-07
4.409065e-07
4.5722177e-07
3.618784e-07
6.3158613e-07
5.0890752e-07
5.2194191e-07
4.1463018e-07
7.1798819e-07
5.811387e-07
5.9011566e-07
4.6844587e-07
8.1939415e-07
6.6140503e-07
6.6329833e-07
5.2342946e-07
9.3144966e-07
7.49076e-07
7.3643323e-07
5.7745477e-07
1.0451987e-06
8.3872315e-07
8.1262466e-07
6.3179627e-07
1.1677141e-06
9.3634535e-07
8.9154441e-07
6.8923326e-07
1.276482e-06
1.0218812e-06
9.5997913e-07
7.406154e-07
1.3473153e-06
1.0761551e-06
1.0137603e-06
7.8152385e-07
1.3940891e-06
1.1101621e-06
1.0526971e-06
8.0897204e-07
1.4281509e-06
1.1315677e-06
1.0886005e-06
8.3695324e-07
1.5157052e-06
1.2005332e-06
1.1887939e-06
9.1063255e-07
2.0822411e-06
1.7311551e-06
1.7419234e-06
1.3400706e-06
5.891567e-06
5.2231352e-06
4.9822507e-06
3.9482862e-06
1.1673723e-05
1.2916929e-05
1.14252e-05
1.1969633e-05
1.8891111e-05
2.2164177e-05
1.8497161e-05
2.0185412e-05
3.2471603e-05
3.8905057e-05
3.1793677e-05
3.5384616e-05
4.2808151e-05
4.660794e-05
4.1447279e-05
4.3522028e-05
3.2351881e-05
3.3765719e-05
3.1383427e-05
3.1921354e-05
1.0163381e-05
1.0884585e-05
9.2354461e-06
1.0027025e-05
1.2259228e-06
1.3025943e-06
1.1343706e-06
1.3373436e-06
7.3934773e-06
1.2666313e-05
7.3167803e-06
1.1926055e-05
6.9542677e-06
1.0442926e-05
6.5923902e-06
9.5209113e-06
6.3537376e-06
8.9152632e-06
6.2051067e-06
8.489661e-06
6.0974805e-06
8.1525611e-06
1.6023588e-05
1.8587603e-05
1.4166228e-05
1.5871497e-05
1.4147307e-05
1.467916e-05
1.4645603e-05
1.4667922e-05
1.50304e-05
1.4947064e-05
1.5320034e-05
1.5313242e-05
1.5631522e-05
1.5668391e-05
2.2457337e-05
1.9960405e-05
1.6883612e-05
1.6308333e-05
1.7029206e-05
1.7019137e-05
1.7942531e-05
1.8078531e-05
1.8864053e-05
1.8924744e-05
1.9666816e-05
1.9639915e-05
2.0410818e-05
2.0332785e-05
1.8042215e-05
1.6741611e-05
1.4803153e-05
1.5558284e-05
1.6362787e-05
1.7687711e-05
1.7886697e-05
1.912935e-05
1.8983815e-05
2.0049523e-05
1.9821535e-05
2.0704489e-05
2.0525076e-05
2.1241527e-05
1.2585973e-05
7.8828375e-06
1.0806036e-05
6.2172755e-06
1.1807429e-05
6.1826044e-06
1.3335144e-05
6.7459774e-06
1.5518354e-05
7.349853e-06
1.6001992e-05
8.4479902e-06
1.6415278e-05
1.02723e-05
3.2110455e-06
1.7971076e-06
2.9048777e-06
1.5719314e-06
3.1109178e-06
1.5079996e-06
3.4762694e-06
1.6388155e-06
4.3291671e-06
1.8134943e-06
5.943903e-06
2.1151117e-06
7.3452694e-06
2.6013177e-06
7.6818338e-07
4.4528862e-07
6.9562989e-07
3.5668441e-07
6.8432836e-07
3.1269466e-07
7.3071017e-07
3.3209741e-07
9.0160301e-07
3.6648829e-07
1.263633e-06
4.3085252e-07
1.5362399e-06
5.2775855e-07
2.9973093e-07
1.8873426e-07
2.6059368e-07
1.4165771e-07
2.43564e-07
1.1964229e-07
2.5488403e-07
1.2941816e-07
3.1593402e-07
1.3977938e-07
4.5464384e-07
1.6611504e-07
5.4559749e-07
2.0213105e-07
2.2131656e-07
1.5083747e-07
1.9159382e-07
1.1123644e-07
1.7625679e-07
9.4625316e-08
1.8459431e-07
1.0730252e-07
2.3284579e-07
1.1772155e-07
3.4849983e-07
1.3538591e-07
4.0429022e-07
1.6790554e-07
2.1829319e-07
1.5377127e-07
1.8730906e-07
1.1174669e-07
1.7118724e-07
9.6704142e-08
1.8112105e-07
1.1100295e-07
2.3373262e-07
1.246891e-07
3.4847643e-07
1.4117651e-07
4.0342857e-07
1.756797e-07
2.2848136e-07
1.6453351e-07
1.9384528e-07
1.1734986e-07
1.7701244e-07
1.0159546e-07
1.8979472e-07
1.1852428e-07
2.5207818e-07
1.2722384e-07
4.0260788e-07
1.5632411e-07
4.1172989e-07
1.9465622e-07
2.457051e-07
1.7987995e-07
2.0573531e-07
1.2602419e-07
1.8789985e-07
1.0420038e-07
2.0489606e-07
1.2587482e-07
2.8156287e-07
1.3281003e-07
4.8594849e-07
1.7842771e-07
4.1840907e-07
2.1710525e-07
2.6842319e-07
1.9943962e-07
2.2333121e-07
1.3788781e-07
2.0432559e-07
1.1257181e-07
2.2726419e-07
1.2359432e-07
3.2379703e-07
1.5146788e-07
5.7464933e-07
2.0409269e-07
4.097235e-07
2.4917222e-07
2.9875297e-07
2.2496167e-07
2.4831671e-07
1.5410555e-07
2.2709989e-07
1.2601841e-07
2.5597858e-07
1.397111e-07
3.7527287e-07
1.7416538e-07
6.4794413e-07
2.3751874e-07
4.0391885e-07
2.7753961e-07
3.416785e-07
2.5970687e-07
2.8627624e-07
1.7761724e-07
2.6142026e-07
1.4605638e-07
2.9545701e-07
1.6343182e-07
4.3711788e-07
2.0692589e-07
6.9729692e-07
2.801147e-07
4.1092334e-07
3.0155193e-07
3.9207177e-07
2.9875723e-07
3.3226552e-07
2.0520307e-07
3.0348495e-07
1.7082188e-07
3.4179513e-07
1.9267375e-07
5.0321702e-07
2.4629125e-07
7.4837761e-07
3.2624231e-07
4.3568353e-07
3.2357377e-07
4.467084e-07
3.3832094e-07
3.8226988e-07
2.3425603e-07
3.5000728e-07
1.9815794e-07
3.9296783e-07
2.2511139e-07
5.7482083e-07
2.8862857e-07
7.987325e-07
3.6989387e-07
4.6020562e-07
3.4123203e-07
5.0224216e-07
3.7558094e-07
4.3258541e-07
2.6340454e-07
3.9771539e-07
2.2717022e-07
4.4533779e-07
2.5950192e-07
6.4646579e-07
3.3178465e-07
8.6801008e-07
4.1276536e-07
4.9985809e-07
3.6485097e-07
5.6196946e-07
4.1344271e-07
4.8413819e-07
2.9204626e-07
4.439894e-07
2.5586666e-07
4.9488311e-07
2.9293841e-07
7.1167343e-07
3.7082967e-07
9.5210809e-07
4.5167698e-07
5.5230214e-07
3.9661536e-07
6.2038009e-07
4.484809e-07
5.3370451e-07
3.1934937e-07
4.8878672e-07
2.8446628e-07
5.4417567e-07
3.2650301e-07
7.7817878e-07
4.0847657e-07
1.0865125e-06
4.9553377e-07
6.5105242e-07
4.5345287e-07
6.8140612e-07
4.8379402e-07
5.8457932e-07
3.4727746e-07
5.3421074e-07
3.1522303e-07
5.9500286e-07
3.7520972e-07
8.5078365e-07
4.4234337e-07
1.2261305e-06
5.4272023e-07
7.4740729e-07
5.1697739e-07
7.4240317e-07
5.2114499e-07
6.3701104e-07
3.7668335e-07
5.8199801e-07
3.4618268e-07
6.4826678e-07
4.3179178e-07
9.3225937e-07
5.0317265e-07
1.4139609e-06
6.0698675e-07
8.8317673e-07
6.2233455e-07
7.9474464e-07
5.5857437e-07
6.8660215e-07
4.0494767e-07
6.2768217e-07
3.7508279e-07
6.9909186e-07
4.7116756e-07
1.0090277e-06
5.5848186e-07
1.5825261e-06
6.7821061e-07
1.0702558e-06
7.2828009e-07
8.377817e-07
5.9319737e-07
7.2810295e-07
4.2633371e-07
6.6550031e-07
3.9703357e-07
7.3929224e-07
5.1344894e-07
1.0882645e-06
6.2393593e-07
1.8662905e-06
7.3251199e-07
1.3462704e-06
8.7163964e-07
8.6957283e-07
6.2361665e-07
7.624264e-07
4.4835919e-07
6.9994101e-07
4.2632246e-07
7.747855e-07
5.4287271e-07
1.1278197e-06
6.1393774e-07
2.0273583e-06
8.1050228e-07
1.5545884e-06
9.7963393e-07
9.007764e-07
6.5494094e-07
7.9754022e-07
4.7639712e-07
7.3623533e-07
4.8243174e-07
8.1309046e-07
5.9672448e-07
1.1704276e-06
6.6902627e-07
2.1692173e-06
8.4647235e-07
1.8814763e-06
1.1132808e-06
9.8480355e-07
7.2693603e-07
8.7535888e-07
5.4524761e-07
8.2060189e-07
5.7950853e-07
9.1365801e-07
7.2296515e-07
1.3070065e-06
8.3811206e-07
2.4590687e-06
9.9803642e-07
2.4801212e-06
1.5464306e-06
1.3892409e-06
1.0593368e-06
1.2027016e-06
8.2910389e-07
1.1754483e-06
9.6596711e-07
1.3546953e-06
1.2646495e-06
1.9648332e-06
1.5537017e-06
3.8058467e-06
1.8115701e-06
4.4614394e-06
2.8899289e-06
3.3939316e-06
2.6211982e-06
2.5799097e-06
2.0376168e-06
2.6956545e-06
2.6741182e-06
3.2743023e-06
3.6750875e-06
4.820761e-06
4.6165448e-06
8.8062289e-06
5.868808e-06
9.8239471e-06
7.6660932e-06
9.130148e-06
9.4326981e-06
7.7191176e-06
7.084907e-06
8.6802919e-06
1.0088795e-05
9.5095301e-06
1.2262503e-05
1.0095759e-05
1.3045619e-05
1.0519286e-05
1.360815e-05
1.0841605e-05
1.4044948e-05
1.3879321e-05
1.4155388e-05
9.43199e-06
1.1573538e-05
1.0664061e-05
1.4508237e-05
1.2369976e-05
1.6940238e-05
1.361536e-05
1.8577116e-05
1.4486122e-05
1.9709075e-05
1.5116875e-05
2.0546836e-05
2.3845125e-05
2.3880106e-05
1.3663921e-05
1.5112437e-05
1.368609e-05
1.7972456e-05
1.6146528e-05
2.1919293e-05
1.8252677e-05
2.4840629e-05
1.9811022e-05
2.6885931e-05
2.0946157e-05
2.8365732e-05
3.6102496e-05
3.4944033e-05
2.0837353e-05
2.0396503e-05
1.7313767e-05
1.9800729e-05
1.9124799e-05
2.3119497e-05
2.1293877e-05
2.6253732e-05
2.3146271e-05
2.8652709e-05
2.4606432e-05
3.0415362e-05
2.876368e-05
2.8254049e-05
2.4301048e-05
2.2695712e-05
2.1777759e-05
2.1624933e-05
2.2574126e-05
2.2564168e-05
2.3886846e-05
2.3845411e-05
2.4946483e-05
2.4996307e-05
2.5646213e-05
2.6186878e-05
9.2813281e-06
1.0506559e-05
9.7982175e-06
1.0641523e-05
9.9984333e-06
1.0741668e-05
1.0338203e-05
1.1034769e-05
1.0529851e-05
1.1210744e-05
1.0586679e-05
1.1307264e-05
1.0626742e-05
1.13973e-05
1.2082833e-06
1.7507963e-06
1.4624849e-06
2.1366021e-06
1.7518761e-06
2.4043075e-06
1.906897e-06
2.5265046e-06
1.8475113e-06
2.4681731e-06
1.7032411e-06
2.3626017e-06
1.6003341e-06
2.287731e-06
6.0043763e-06
7.8628408e-06
5.9087244e-06
7.5713744e-06
5.8240602e-06
7.3405987e-06
5.7381858e-06
7.1119431e-06
5.6320079e-06
6.820474e-06
5.4651738e-06
6.345501e-06
1.5914207e-05
1.600536e-05
1.5921939e-05
1.6330809e-05
1.5594186e-05
1.6606733e-05
1.5340741e-05
1.6864257e-05
1.5339046e-05
1.693837e-05
1.5379558e-05
1.6321012e-05
2.1184077e-05
2.0972803e-05
2.1973121e-05
2.1606903e-05
2.2651046e-05
2.2128319e-05
2.3321047e-05
2.2636629e-05
2.4071399e-05
2.3214686e-05
2.512525e-05
2.4067356e-05
2.1162465e-05
2.1742476e-05
2.181803e-05
2.2273683e-05
2.2375231e-05
2.2726053e-05
2.2932072e-05
2.317601e-05
2.3597794e-05
2.3697432e-05
2.4638563e-05
2.4480871e-05
1.6797401e-05
1.2280588e-05
1.7177672e-05
1.2445948e-05
1.7494255e-05
1.2395102e-05
1.7802228e-05
1.2815136e-05
1.8178131e-05
1.3407869e-05
1.8753299e-05
1.4521839e-05
6.8365032e-06
3.0062784e-06
5.3517308e-06
2.9499166e-06
5.0810117e-06
2.9091499e-06
7.1231382e-06
2.9322893e-06
7.6719274e-06
2.9769223e-06
7.1516497e-06
3.1541515e-06
1.3503749e-06
5.7509383e-07
1.0235625e-06
5.6090073e-07
9.9571517e-07
5.4768846e-07
1.4738513e-06
5.4399373e-07
1.4101104e-06
5.3838752e-07
1.2270322e-06
5.5057855e-07
4.4348433e-07
2.0850318e-07
3.3279033e-07
2.0180411e-07
3.4061897e-07
1.9268551e-07
4.7289578e-07
1.8727591e-07
4.3238131e-07
1.8190496e-07
3.7847905e-07
1.8101666e-07
3.0973678e-07
1.6573858e-07
2.3492013e-07
1.588351e-07
2.5711239e-07
1.4994284e-07
3.2247241e-07
1.4456059e-07
3.0933151e-07
1.393762e-07
2.6652839e-07
1.3626495e-07
2.9348412e-07
1.7065503e-07
2.2368404e-07
1.6074223e-07
2.5081746e-07
1.5057909e-07
3.1817355e-07
1.4486982e-07
3.0090983e-07
1.3849679e-07
2.4015874e-07
1.3470712e-07
2.895277e-07
1.8232808e-07
2.1800922e-07
1.6874948e-07
2.3333483e-07
1.5741037e-07
3.8098563e-07
1.5254534e-07
2.7717653e-07
1.4429935e-07
2.2816662e-07
1.4230375e-07
2.8831243e-07
1.9649645e-07
2.2200832e-07
1.7873406e-07
2.4174223e-07
1.6671137e-07
4.0241316e-07
1.6390973e-07
2.8391619e-07
1.5472334e-07
2.3334257e-07
1.5189978e-07
2.8639576e-07
2.1934871e-07
2.2869981e-07
1.899344e-07
2.5588938e-07
1.7830187e-07
4.2066446e-07
1.7863221e-07
2.8875676e-07
1.6838714e-07
2.4001662e-07
1.6481314e-07
2.9248199e-07
2.3646604e-07
2.4599901e-07
2.0058265e-07
2.8409134e-07
1.9108012e-07
4.1326844e-07
1.9409832e-07
2.8958664e-07
1.7556818e-07
2.5151798e-07
1.7293278e-07
3.0770366e-07
2.4814222e-07
2.7237761e-07
2.0764808e-07
3.1953069e-07
2.0356162e-07
3.9950922e-07
2.075575e-07
2.9934045e-07
1.7576338e-07
2.7320273e-07
1.7360355e-07
3.3348927e-07
2.6382146e-07
3.0537091e-07
2.2421359e-07
3.5236729e-07
2.2313953e-07
3.9631789e-07
2.2684483e-07
3.1927658e-07
1.9347549e-07
3.0249641e-07
1.8421642e-07
3.5962172e-07
2.788757e-07
3.3724848e-07
2.4154646e-07
3.7719864e-07
2.3902246e-07
3.9793015e-07
2.3951713e-07
3.4058116e-07
2.1380346e-07
3.331474e-07
2.142375e-07
3.9694678e-07
2.9935808e-07
3.7792642e-07
2.6141384e-07
4.0834599e-07
2.5379583e-07
4.115248e-07
2.4988664e-07
3.6542414e-07
2.3398899e-07
3.6485687e-07
2.5287984e-07
4.3851133e-07
3.2647569e-07
4.1794413e-07
2.8426582e-07
4.4295735e-07
2.7210553e-07
4.4161782e-07
2.6842642e-07
3.9713455e-07
2.5509671e-07
3.9744837e-07
2.7268837e-07
5.1262102e-07
3.7626381e-07
4.8449246e-07
3.2421253e-07
5.0465127e-07
3.0409797e-07
4.8518491e-07
2.9063547e-07
4.3128034e-07
2.7146998e-07
4.2912692e-07
2.824219e-07
5.855069e-07
4.3221594e-07
5.5275422e-07
3.6847486e-07
5.7047317e-07
3.3801742e-07
5.3051452e-07
3.1362463e-07
4.6541206e-07
2.8876565e-07
4.6066607e-07
2.9092144e-07
7.1044776e-07
5.3127456e-07
6.8922224e-07
4.4916325e-07
6.847338e-07
3.9379408e-07
5.7790556e-07
3.3885974e-07
5.0056651e-07
3.0619288e-07
4.9454385e-07
3.0514437e-07
8.7858869e-07
6.2448963e-07
8.4886637e-07
5.2501119e-07
8.0725266e-07
4.4358543e-07
6.6735365e-07
3.6569732e-07
5.7846043e-07
3.2765278e-07
5.3763682e-07
3.259642e-07
1.1829554e-06
7.537733e-07
1.0878318e-06
6.2628313e-07
9.946802e-07
5.067196e-07
8.7095296e-07
3.9740995e-07
7.8025108e-07
3.4869189e-07
5.7615681e-07
3.4631837e-07
1.4199823e-06
8.585768e-07
1.1375541e-06
7.0368196e-07
1.0761769e-06
5.5147379e-07
1.0819939e-06
4.217174e-07
8.8125494e-07
3.7081214e-07
6.1864799e-07
3.7196319e-07
1.7817514e-06
9.9542764e-07
1.5116528e-06
8.0438143e-07
1.2750591e-06
6.1601909e-07
1.1802255e-06
4.6449448e-07
8.6976992e-07
4.1108965e-07
6.7719733e-07
4.1632231e-07
2.3232623e-06
1.4899911e-06
2.2554721e-06
1.0957925e-06
1.5321163e-06
7.9198951e-07
1.4885072e-06
6.0236712e-07
9.9446712e-07
5.4454009e-07
8.3683613e-07
5.6425336e-07
4.1294172e-06
3.0645488e-06
4.4157404e-06
2.3564011e-06
2.7517868e-06
1.7028121e-06
2.563538e-06
1.2690547e-06
1.6958793e-06
1.166904e-06
1.5380634e-06
1.2513878e-06
9.9309217e-06
1.0745814e-05
1.0045716e-05
8.4986123e-06
8.782956e-06
6.113714e-06
6.3523076e-06
4.5991494e-06
4.9818618e-06
4.3299465e-06
4.9960818e-06
4.7676208e-06
1.1101905e-05
1.4411639e-05
1.1373133e-05
1.4794264e-05
1.1637211e-05
1.5161009e-05
1.1924746e-05
1.5546402e-05
1.2280826e-05
1.5992663e-05
1.2831017e-05
1.6630246e-05
1.5606715e-05
2.1222081e-05
1.6116746e-05
2.1925299e-05
1.6609801e-05
2.2591732e-05
1.7153512e-05
2.3304859e-05
1.7855644e-05
2.4172782e-05
1.9013209e-05
2.5494836e-05
2.1818845e-05
2.9517456e-05
2.273832e-05
3.0720841e-05
2.3628832e-05
3.1849218e-05
2.4627116e-05
3.3076328e-05
2.5959314e-05
3.463624e-05
2.8248055e-05
3.7197957e-05
2.5772566e-05
3.177895e-05
2.7007012e-05
3.3252315e-05
2.8208081e-05
3.4639814e-05
2.9538978e-05
3.6138368e-05
3.1266747e-05
3.8035808e-05
3.4144863e-05
4.1087736e-05
2.5805631e-05
2.7128006e-05
2.613746e-05
2.8055725e-05
2.6598356e-05
2.8877429e-05
2.7296206e-05
2.967562e-05
2.8317652e-05
3.0560739e-05
2.959593e-05
3.1894497e-05
1.070212e-05
1.149812e-05
1.0803482e-05
1.1599551e-05
1.0947725e-05
1.1722681e-05
1.1127203e-05
1.1866321e-05
1.1340072e-05
1.2011204e-05
1.1574406e-05
1.2107412e-05
1.5545417e-06
2.2472251e-06
1.5459613e-06
2.2200459e-06
1.5592121e-06
2.2018315e-06
1.5893489e-06
2.1847792e-06
1.6348384e-06
2.1565815e-06
1.6880979e-06
2.0878229e-06
5.1817568e-06
5.6513153e-06
4.7221781e-06
4.9683362e-06
4.2636084e-06
4.4755567e-06
3.9313724e-06
4.1341737e-06
3.6781638e-06
3.8755674e-06
3.4618612e-06
3.6533245e-06
1.5426424e-05
1.6321149e-05
1.5152714e-05
1.5963112e-05
1.4907896e-05
1.5281223e-05
1.4823198e-05
1.5162531e-05
1.4809842e-05
1.5063576e-05
1.4810711e-05
1.4999226e-05
2.7350716e-05
2.5956072e-05
2.9791044e-05
2.7997301e-05
3.0771282e-05
2.8901826e-05
3.1256781e-05
2.9475309e-05
3.0210511e-05
2.9956922e-05
2.9368981e-05
3.0434388e-05
2.697949e-05
2.6241235e-05
2.9476397e-05
2.7950771e-05
3.0581195e-05
2.8624761e-05
3.126495e-05
2.9060087e-05
3.1814242e-05
2.9443179e-05
3.2342067e-05
2.9833634e-05
1.9919362e-05
1.6687568e-05
2.0998153e-05
1.9104492e-05
2.1449028e-05
2.0694705e-05
2.17553e-05
2.120734e-05
2.1994113e-05
2.1380206e-05
2.218176e-05
2.1544821e-05
7.9277771e-06
3.476036e-06
8.7855255e-06
3.8275544e-06
8.702784e-06
4.0111875e-06
5.325584e-06
3.9752663e-06
4.73729e-06
4.0250758e-06
5.7119727e-06
4.2960561e-06
1.2734098e-06
5.732124e-07
1.3260567e-06
6.023208e-07
1.2403765e-06
6.1742563e-07
7.6877434e-07
6.0359153e-07
6.9424267e-07
6.0914537e-07
8.4423054e-07
6.492464e-07
3.6590729e-07
1.8382115e-07
3.7517231e-07
1.9067235e-07
3.3815438e-07
1.9205807e-07
2.1098635e-07
1.8330174e-07
1.9099624e-07
1.8264364e-07
2.3204589e-07
1.9424782e-07
2.4595947e-07
1.3651075e-07
2.4893398e-07
1.4093282e-07
2.0331717e-07
1.3924878e-07
1.3268188e-07
1.2988789e-07
1.2297029e-07
1.2902682e-07
1.5471821e-07
1.383577e-07
2.2958779e-07
1.3353791e-07
2.2133947e-07
1.3582576e-07
1.5851005e-07
1.3056629e-07
1.1449996e-07
1.1980103e-07
1.1262976e-07
1.1970549e-07
1.508246e-07
1.2962554e-07
2.3023645e-07
1.3960645e-07
2.024556e-07
1.3803301e-07
1.4192882e-07
1.2941026e-07
1.1100979e-07
1.1762807e-07
1.1712365e-07
1.1745944e-07
1.7591014e-07
1.2731385e-07
2.2895019e-07
1.4667608e-07
1.9238117e-07
1.4193739e-07
1.3887001e-07
1.2950695e-07
1.1506527e-07
1.1491171e-07
1.2527838e-07
1.1356346e-07
1.8595651e-07
1.2333669e-07
2.3434078e-07
1.5687877e-07
1.9514312e-07
1.4861211e-07
1.4307396e-07
1.3028059e-07
1.2268863e-07
1.12872e-07
1.3761662e-07
1.1117644e-07
1.8721888e-07
1.2206559e-07
2.4706972e-07
1.7038192e-07
2.0538045e-07
1.5740414e-07
1.5378023e-07
1.3273563e-07
1.3654548e-07
1.12916e-07
1.5787763e-07
1.1174194e-07
2.1559401e-07
1.2536718e-07
2.7017434e-07
1.9051681e-07
2.2548409e-07
1.7110985e-07
1.7366395e-07
1.4002352e-07
1.6029056e-07
1.1806322e-07
1.9092809e-07
1.1792397e-07
2.5963225e-07
1.3690849e-07
3.005171e-07
2.1313629e-07
2.5277165e-07
1.8749108e-07
2.0010503e-07
1.5008313e-07
1.9109632e-07
1.2652017e-07
2.3317146e-07
1.289398e-07
3.1510481e-07
1.5760821e-07
3.3276866e-07
2.3350625e-07
2.825602e-07
2.0253921e-07
2.301223e-07
1.5839656e-07
2.2787466e-07
1.3351268e-07
2.8548768e-07
1.4255444e-07
3.8333596e-07
1.8433198e-07
3.6622201e-07
2.5160738e-07
3.1324129e-07
2.1596967e-07
2.6057155e-07
1.6545563e-07
2.6602392e-07
1.4197906e-07
3.4100039e-07
1.6112423e-07
4.5495547e-07
2.1132524e-07
4.0052329e-07
2.6726666e-07
3.3981128e-07
2.2492128e-07
2.8198264e-07
1.6796694e-07
2.9357578e-07
1.5072035e-07
3.861863e-07
1.7499031e-07
5.1697175e-07
2.3334691e-07
4.3208177e-07
2.8025258e-07
3.5934604e-07
2.2886826e-07
2.9550137e-07
1.7088538e-07
3.1466338e-07
1.5560032e-07
4.2954917e-07
1.8574166e-07
5.8580614e-07
2.5510994e-07
4.6368955e-07
2.9198712e-07
3.8088066e-07
2.3357328e-07
3.1496972e-07
1.7477547e-07
3.5056444e-07
1.6203133e-07
5.0702008e-07
1.9998659e-07
6.8725726e-07
2.8116573e-07
4.9773296e-07
3.0630108e-07
4.1583133e-07
2.47281e-07
3.5684301e-07
1.8600844e-07
4.1527918e-07
1.7718465e-07
6.1186899e-07
2.2565422e-07
8.0373262e-07
3.1995061e-07
5.3771237e-07
3.3021069e-07
4.6862557e-07
2.7062847e-07
4.2024271e-07
2.0862566e-07
5.1526599e-07
2.0525784e-07
7.8853962e-07
2.6730935e-07
9.634243e-07
3.7125349e-07
5.7930687e-07
3.545206e-07
5.2380591e-07
2.95387e-07
4.9529835e-07
2.3451748e-07
6.435798e-07
2.3782188e-07
9.9087674e-07
3.1433191e-07
1.1025468e-06
4.2552017e-07
6.2614728e-07
3.8244618e-07
5.8547058e-07
3.2295044e-07
5.8296662e-07
2.641173e-07
8.019502e-07
2.7641133e-07
1.2047829e-06
3.7097478e-07
1.2349791e-06
4.9055347e-07
6.9305117e-07
4.3037949e-07
6.709058e-07
3.7042501e-07
7.0838701e-07
3.13963e-07
1.0303059e-06
3.4081309e-07
1.433921e-06
4.6495697e-07
1.4108659e-06
5.9635117e-07
8.7797063e-07
5.9984221e-07
8.9896989e-07
5.4177055e-07
1.0102181e-06
4.8151081e-07
1.5414265e-06
5.4491703e-07
1.9177807e-06
7.5581333e-07
1.9466419e-06
9.3978023e-07
1.6956721e-06
1.4013306e-06
1.8882262e-06
1.3713799e-06
2.321562e-06
1.2905988e-06
3.6386724e-06
1.5241029e-06
4.1008292e-06
2.1574119e-06
4.3492772e-06
2.6581259e-06
5.735554e-06
5.5293032e-06
6.9591334e-06
5.770028e-06
9.2306445e-06
5.6954238e-06
1.2166029e-05
6.9732112e-06
1.235109e-05
1.0135574e-05
1.2535629e-05
1.2474325e-05
1.3696643e-05
1.7652557e-05
1.4801686e-05
1.8968552e-05
1.5357919e-05
1.9602345e-05
1.5751561e-05
2.0083112e-05
1.6100579e-05
2.0542066e-05
1.6451432e-05
2.1029244e-05
2.089516e-05
2.7710725e-05
2.3316357e-05
3.0597322e-05
2.4466668e-05
3.1938691e-05
2.5219211e-05
3.2907926e-05
2.5848384e-05
3.3792242e-05
2.6457529e-05
3.4702932e-05
3.2210575e-05
4.1695704e-05
3.7605834e-05
4.7736211e-05
4.0263217e-05
5.0484909e-05
4.1942346e-05
5.2328074e-05
4.3274708e-05
5.3843522e-05
4.4503181e-05
5.5273276e-05
3.9254464e-05
4.6583429e-05
4.6436785e-05
5.3525778e-05
4.9718366e-05
5.6119557e-05
5.1456061e-05
5.7493984e-05
5.198723e-05
5.4354959e-05
5.0933283e-05
5.4533319e-05
3.1931435e-05
3.4229372e-05
3.4676075e-05
3.6309165e-05
3.4073185e-05
3.4760056e-05
3.3164977e-05
3.316743e-05
3.2859099e-05
3.2784969e-05
3.323314e-05
3.3522019e-05
1.1676383e-05
1.1917175e-05
1.1139617e-05
1.0836314e-05
1.0360845e-05
1.006296e-05
9.8081782e-06
9.659011e-06
9.4262637e-06
9.3757229e-06
9.1376802e-06
9.0661449e-06
1.6697816e-06
1.9026523e-06
1.479151e-06
1.5895518e-06
1.2351946e-06
1.3325606e-06
1.0689669e-06
1.1661476e-06
9.5572979e-07
1.048421e-06
8.7348354e-07
9.5303819e-07
3.2571482e-06
3.4362828e-06
3.0916635e-06
3.2518455e-06
2.9571937e-06
3.1027095e-06
2.8420739e-06
2.9991963e-06
2.7423055e-06
2.9776929e-06
2.6573898e-06
3.1144202e-06
2.6604213e-06
3.6565951e-06
1.4803149e-05
1.4994897e-05
1.4855442e-05
1.5046269e-05
1.4878333e-05
1.5073963e-05
1.487073e-05
1.5079184e-05
1.4843615e-05
1.5139516e-05
1.4832153e-05
1.5270699e-05
1.4815766e-05
1.555617e-05
2.8907787e-05
3.0917437e-05
2.8573936e-05
2.9316227e-05
2.8223697e-05
2.8363598e-05
2.803444e-05
2.7773037e-05
2.7951965e-05
2.7387074e-05
2.8031152e-05
2.747142e-05
2.8278552e-05
2.7975366e-05
3.2924238e-05
3.02736e-05
3.3468479e-05
3.0717088e-05
3.3974213e-05
3.1162468e-05
3.4401161e-05
3.1641807e-05
3.479004e-05
3.2177809e-05
3.4364563e-05
3.2805248e-05
3.3960938e-05
3.3332491e-05
2.2370891e-05
2.1716494e-05
2.2556313e-05
2.1890318e-05
2.2755937e-05
2.2070337e-05
2.2998426e-05
2.2295878e-05
2.3249904e-05
2.2513198e-05
2.3581926e-05
2.2798655e-05
2.4144505e-05
2.3195556e-05
6.9403653e-06
4.4874953e-06
8.5073431e-06
4.6285417e-06
1.098461e-05
4.8588842e-06
1.0825717e-05
5.1476733e-06
1.1712491e-05
5.6864705e-06
1.3006314e-05
6.6395831e-06
1.4112875e-05
7.9900963e-06
1.0747912e-06
6.7755276e-07
1.3674534e-06
7.0125612e-07
1.5225236e-06
7.348803e-07
1.7424928e-06
7.7478972e-07
1.6892454e-06
8.4688234e-07
1.9195657e-06
9.8076029e-07
2.1955827e-06
1.1611034e-06
3.1067257e-07
2.029369e-07
4.0169412e-07
2.1028061e-07
4.2017087e-07
2.2054498e-07
4.4483747e-07
2.3184687e-07
4.748248e-07
2.529479e-07
5.3732129e-07
3.0133849e-07
6.1085243e-07
3.618695e-07
2.3496987e-07
1.448406e-07
2.6834051e-07
1.4986614e-07
2.8536329e-07
1.5723448e-07
3.0078033e-07
1.6557877e-07
3.2059849e-07
1.8081598e-07
3.6623008e-07
2.205702e-07
4.2342687e-07
2.7279627e-07
2.4410426e-07
1.3513172e-07
2.4707073e-07
1.3943729e-07
2.6658888e-07
1.4646547e-07
2.8165926e-07
1.5422106e-07
3.0085734e-07
1.7142058e-07
3.461104e-07
2.1192339e-07
4.1121718e-07
2.7196659e-07
2.3909617e-07
1.324385e-07
2.4568521e-07
1.3678043e-07
2.6792201e-07
1.4423946e-07
2.8340514e-07
1.5278294e-07
3.033475e-07
1.7339559e-07
3.5073854e-07
2.1609423e-07
4.2847559e-07
2.8578129e-07
2.3443152e-07
1.3003405e-07
2.4878785e-07
1.3582734e-07
2.7190201e-07
1.4431454e-07
2.8816332e-07
1.5770422e-07
3.1144749e-07
1.7924948e-07
3.6254008e-07
2.2417892e-07
4.5287963e-07
3.0433978e-07
2.4107322e-07
1.3170221e-07
2.6164174e-07
1.4011222e-07
2.8760285e-07
1.5401572e-07
3.0487693e-07
1.6830381e-07
3.3022526e-07
1.9125601e-07
3.8613585e-07
2.4044203e-07
4.8988989e-07
3.3082092e-07
2.655801e-07
1.3971806e-07
2.9138311e-07
1.5495375e-07
3.1410678e-07
1.7019118e-07
3.3088742e-07
1.8564712e-07
3.5962184e-07
2.110111e-07
4.2321999e-07
2.6579646e-07
5.4628171e-07
3.6963503e-07
3.121236e-07
1.6081646e-07
3.3638386e-07
1.7816451e-07
3.5657732e-07
1.9301656e-07
3.7423106e-07
2.1057122e-07
4.0830493e-07
2.4131884e-07
4.8385973e-07
3.0547268e-07
6.3228879e-07
4.262198e-07
3.7130604e-07
1.8933141e-07
3.9361595e-07
2.0739567e-07
4.1017754e-07
2.2261704e-07
4.2836496e-07
2.4158484e-07
4.690992e-07
2.7731519e-07
5.5884877e-07
3.5230373e-07
7.3354169e-07
4.9091368e-07
4.4181232e-07
2.2053201e-07
4.5848577e-07
2.3896308e-07
4.6866443e-07
2.5408266e-07
4.8646267e-07
2.741477e-07
5.3362532e-07
3.1434424e-07
6.3754373e-07
3.9917079e-07
8.3892707e-07
5.5391038e-07
5.1528747e-07
2.5152631e-07
5.2533051e-07
2.6940636e-07
5.267877e-07
2.8429277e-07
5.4211897e-07
3.0442295e-07
5.9317771e-07
3.4793912e-07
7.0723506e-07
4.3895409e-07
9.2694827e-07
6.0339468e-07
5.8583621e-07
2.7887889e-07
5.9869908e-07
2.9948328e-07
5.8645147e-07
3.1245239e-07
5.9414955e-07
3.3137059e-07
6.4247765e-07
3.7377838e-07
7.5708387e-07
4.6498161e-07
9.8630598e-07
6.3287462e-07
6.5850892e-07
3.0615945e-07
6.6552269e-07
3.2642258e-07
6.4408798e-07
3.3635704e-07
6.427241e-07
3.5368725e-07
6.8160154e-07
3.9133514e-07
7.8903e-07
4.7775508e-07
1.0144121e-06
6.4010541e-07
7.4879128e-07
3.3502264e-07
7.4402075e-07
3.5393408e-07
7.0239302e-07
3.616978e-07
6.8558619e-07
3.7492595e-07
7.1611949e-07
4.085316e-07
8.1630381e-07
4.8710427e-07
1.0338745e-06
6.4126626e-07
8.5020225e-07
3.7386712e-07
8.3229711e-07
3.8856769e-07
7.7239527e-07
3.9284934e-07
7.4212043e-07
4.0273177e-07
7.66402e-07
4.332906e-07
8.6097452e-07
5.0685372e-07
1.0753385e-06
6.5635756e-07
9.9089154e-07
4.2440916e-07
9.8039123e-07
4.3775531e-07
8.7440661e-07
4.3249647e-07
8.1940591e-07
4.3814813e-07
8.3387648e-07
4.6835031e-07
9.3099307e-07
5.4401298e-07
1.162468e-06
6.9872291e-07
1.1071827e-06
4.7878271e-07
1.101742e-06
4.9055263e-07
9.4720987e-07
4.7511659e-07
8.7885513e-07
4.7879123e-07
8.9619767e-07
5.1170883e-07
1.003854e-06
5.9419386e-07
1.2565039e-06
7.6413571e-07
1.2310759e-06
5.452608e-07
1.2390725e-06
5.553505e-07
1.0363281e-06
5.2858793e-07
9.5645773e-07
5.3126794e-07
9.7031308e-07
5.7061129e-07
1.0984172e-06
6.6908957e-07
1.3936869e-06
8.7302829e-07
1.4419514e-06
6.5172495e-07
1.412868e-06
6.595837e-07
1.1704258e-06
6.1733219e-07
1.0935377e-06
6.2050675e-07
1.0982963e-06
6.7519991e-07
1.2344385e-06
8.1148383e-07
1.5811456e-06
1.0877175e-06
1.9977099e-06
1.0172937e-06
1.9006514e-06
1.0341059e-06
1.5881637e-06
9.6583678e-07
1.5127827e-06
9.840556e-07
1.5496347e-06
1.0950786e-06
1.729405e-06
1.3619783e-06
2.2247809e-06
1.8766235e-06
4.5443941e-06
2.89309e-06
4.3063377e-06
2.9673982e-06
3.6750872e-06
2.7787392e-06
3.6039612e-06
2.8994347e-06
3.8279422e-06
3.3477655e-06
4.4371496e-06
4.340753e-06
5.6859712e-06
6.2348797e-06
1.273382e-05
1.3646602e-05
1.2928801e-05
1.4110226e-05
1.3165886e-05
1.3179601e-05
1.3464141e-05
1.4092011e-05
1.385105e-05
1.6900167e-05
1.4320105e-05
1.7437382e-05
1.4698755e-05
1.7587499e-05
1.6834273e-05
2.1573067e-05
1.7210843e-05
2.2116878e-05
1.7680649e-05
2.2771439e-05
1.8292509e-05
2.3578975e-05
1.9095973e-05
2.4593135e-05
2.0071571e-05
2.5724398e-05
2.0848218e-05
2.6195343e-05
2.7109632e-05
3.5701597e-05
2.7740924e-05
3.667069e-05
2.8564237e-05
3.7843932e-05
2.9658332e-05
3.9262144e-05
3.1086966e-05
4.1003541e-05
3.2877504e-05
4.3036371e-05
3.4357045e-05
4.4409287e-05
4.5715466e-05
5.6709022e-05
4.6805979e-05
5.8007914e-05
4.8036034e-05
5.9375781e-05
4.9547265e-05
5.9626795e-05
5.1485896e-05
6.001496e-05
5.3925572e-05
6.1819279e-05
5.6321147e-05
6.6576423e-05
5.0797056e-05
5.5313972e-05
5.0542491e-05
5.5336394e-05
5.0825743e-05
5.5642383e-05
5.1223552e-05
5.5796853e-05
5.2168118e-05
5.6497944e-05
5.4296112e-05
5.8191516e-05
5.9180045e-05
6.2077804e-05
3.3614092e-05
3.407687e-05
3.4003457e-05
3.4482858e-05
3.4350464e-05
3.4710272e-05
3.4679122e-05
3.4823329e-05
3.5234332e-05
3.5177825e-05
3.6562559e-05
3.6279169e-05
3.9865449e-05
3.9392929e-05
8.9088155e-06
8.7776294e-06
8.7609141e-06
8.5619467e-06
8.6413408e-06
8.3365447e-06
8.4924499e-06
8.0556933e-06
8.3243059e-06
7.7836821e-06
8.2455289e-06
7.6411665e-06
8.6211682e-06
8.0069652e-06
8.1135602e-07
8.652394e-07
7.6363985e-07
7.9082558e-07
7.2229152e-07
7.1416355e-07
6.7116037e-07
6.2534878e-07
6.0718565e-07
5.1767995e-07
5.3647868e-07
4.0149755e-07
5.0144567e-07
3.4469037e-07
2.7481077e-06
4.0913284e-06
2.7179752e-06
4.1936183e-06
2.5494376e-06
3.8508467e-06
2.5033319e-06
3.6457235e-06
1.4719006e-05
1.5727268e-05
1.4585714e-05
1.5814588e-05
1.4457571e-05
1.592847e-05
1.5450445e-05
1.8293254e-05
2.8687216e-05
2.8564875e-05
2.9225916e-05
2.9028917e-05
3.0471169e-05
3.019616e-05
3.4305403e-05
3.4542089e-05
3.4518737e-05
3.4218735e-05
3.4883689e-05
3.5424041e-05
3.6593085e-05
3.6045959e-05
4.1576672e-05
4.0685296e-05
2.4752711e-05
2.3788508e-05
2.5435861e-05
2.4578375e-05
2.62644e-05
2.5816584e-05
2.7483542e-05
2.7876901e-05
1.4174411e-05
9.5458995e-06
1.4340893e-05
1.1663088e-05
1.4501345e-05
1.4923755e-05
1.4864602e-05
1.568553e-05
2.530882e-06
1.3388275e-06
3.0457902e-06
1.5965922e-06
3.8315086e-06
2.1301867e-06
4.5284276e-06
2.7787215e-06
6.8941373e-07
4.0982596e-07
7.9433647e-07
4.6413813e-07
9.3505111e-07
5.5927851e-07
1.0346347e-06
6.4823362e-07
4.7927871e-07
3.1263665e-07
5.4440919e-07
3.4981223e-07
6.2457881e-07
4.0545146e-07
6.972e-07
4.617782e-07
4.7387568e-07
3.203413e-07
5.3929097e-07
3.6082312e-07
6.1137013e-07