/*--------------------------------*- C++ -*----------------------------------*\
| =========                 |                                                 |
| \\      /  F ield         | OpenFOAM: The Open Source CFD Toolbox           |
|  \\    /   O peration     | Version:  2206                                  |
|   \\  /    A nd           | Website:  www.openfoam.com                      |
|    \\/     M anipulation  |                                                 |
\*---------------------------------------------------------------------------*/
FoamFile
{
    version     2.0;
    format      ascii;
    arch        "LSB;label=32;scalar=64";
    class       volScalarField;
    location    "100";
    object      k;
}
// * * * * * * * * * * * * * * * * * * * * * * * * * * * * * * * * * * * * * //

dimensions      [0 2 -2 0 0 0 0];

internalField   nonuniform List<scalar> 
50904
(
26.081881
43.993483
29.405599
51.549259
22.997841
26.93426
21.502748
23.590126
15.671802
13.888351
12.472788
10.111055
7.6517533
5.9803764
4.8988905
3.6098912
2.3179672
1.7874055
1.2758609
0.96433972
0.42394377
0.33628849
0.23325727
0.18390779
0.067247112
0.05534763
0.045010986
0.037844411
0.018657988
0.01667006
0.015772667
0.014418824
0.011202588
0.010896612
0.010812951
0.010596579
0.010122826
0.010077189
0.010074916
0.01003776
0.0099992684
0.0099852773
0.0099922428
0.009977189
0.0099912414
0.0099815491
0.0099881566
0.00997659
0.0099934612
0.0099858086
0.0099908935
0.0099814099
0.009996566
0.0099908363
0.0099943366
0.0099868752
0.010000044
0.0099961173
0.0099982243
0.0099926511
0.010003298
0.010000826
0.010001896
0.0099979282
0.010005863
0.010004526
0.01000486
0.010002128
0.010007936
0.01000747
0.010007234
0.010005491
0.010009418
0.010009653
0.010008987
0.010008055
0.010010507
0.01001128
0.010010311
0.010010048
0.010011238
0.010012426
0.010011194
0.010011502
0.010011653
0.010013163
0.010011726
0.010012525
0.01001176
0.010013527
0.01001197
0.010013275
0.010012117
0.01001445
0.010013035
0.01001569
0.010017114
0.010022975
0.010023807
0.010033246
0.010068801
0.010099077
0.010115485
0.010160556
0.010544052
0.010730424
0.010811894
0.011029019
0.014348082
0.015561365
0.015525404
0.016594772
0.040213593
0.04789225
0.043874852
0.048192738
0.20849499
0.2656187
0.21450566
0.24122083
1.1390209
1.5039021
1.1340882
1.304565
4.7748924
5.9186535
4.7673172
5.2742178
11.851062
12.894027
11.762546
11.940539
16.252343
16.764279
15.744076
15.688612
10.621419
11.366053
9.5763972
10.472
5.2321191
5.5650977
4.8813623
5.7482506
31.722718
54.873912
31.042173
50.682658
29.308764
43.687331
27.650024
39.456107
26.571412
36.729281
25.907871
34.84549
25.434957
33.3751
19.30059
20.353963
16.555042
16.27617
15.494707
13.573154
15.224107
13.37104
15.41945
13.704036
15.876931
14.210599
16.41399
14.73694
8.9849763
7.2002968
6.0078904
5.0937605
5.754787
5.0475455
5.9677647
5.3260292
6.2964747
5.6131615
6.6268649
5.8969951
6.9617986
6.204426
2.9357189
2.3040206
1.9898296
1.8456177
2.1708837
2.1119644
2.4148613
2.3343672
2.6205778
2.5004672
2.7934777
2.6314668
2.9469868
2.7459031
0.77024871
0.64024464
0.66286355
0.63376012
0.77823953
0.74823314
0.87115819
0.82523471
0.93910252
0.88054788
0.99346074
0.92522169
1.0422691
0.96520522
0.16948595
0.14419423
0.17533885
0.15970292
0.20103054
0.18088198
0.21836258
0.1935103
0.23071049
0.20281457
0.24079768
0.21069129
0.24987684
0.21796908
0.039630329
0.03434937
0.04104081
0.03575605
0.0434914
0.037240308
0.044915426
0.038227979
0.045936655
0.039111737
0.046865329
0.039928809
0.047776208
0.040684862
0.015050844
0.013930542
0.014968083
0.01383495
0.015122555
0.013894302
0.015223793
0.013955091
0.015307862
0.014021245
0.015383363
0.014084879
0.015452674
0.014144182
0.01072103
0.010531613
0.010703358
0.010509936
0.010713982
0.010514071
0.010720266
0.010520006
0.010726639
0.010527513
0.010733189
0.010534909
0.010739635
0.010541773
0.010063562
0.010028328
0.010063526
0.010028523
0.010065603
0.010034331
0.010067083
0.010038306
0.010068445
0.010041467
0.010069762
0.010044033
0.010071026
0.010046217
0.0099902247
0.0099744811
0.0099934637
0.009978287
0.0099959066
0.0099848848
0.0099976718
0.0099890241
0.0099989831
0.0099919282
0.010000076
0.0099941276
0.010001041
0.0099959542
0.0099869243
0.0099744612
0.0099901893
0.0099780842
0.0099925905
0.0099842742
0.0099943009
0.0099881287
0.0099955631
0.0099908151
0.0099966038
0.0099928706
0.0099975164
0.0099945809
0.0099898245
0.009979399
0.0099928433
0.0099826654
0.0099950505
0.0099882604
0.00999662
0.0099917244
0.0099977781
0.0099941574
0.0099987359
0.0099960388
0.0099995756
0.0099975974
0.0099934416
0.0099850141
0.0099962611
0.0099880938
0.0099983514
0.0099931288
0.0099997949
0.009996232
0.010000849
0.0099984078
0.010001713
0.010000083
0.010002472
0.010001474
0.0099975525
0.0099909848
0.010000162
0.009993994
0.010002159
0.0099985494
0.010003488
0.010001288
0.010004439
0.0100032
0.010005202
0.010004671
0.010005863
0.010005882
0.010001531
0.0099966015
0.010003972
0.0099996208
0.010005865
0.010003735
0.010007082
0.010006181
0.010007929
0.010007863
0.010008592
0.010009134
0.010009154
0.010010163
0.010004803
0.010001174
0.010007129
0.010004262
0.010008916
0.010008013
0.010010035
0.010010214
0.010010794
0.010011704
0.010011373
0.01001281
0.010011852
0.010013689
0.010007434
0.010004901
0.01000966
0.01000803
0.010011334
0.01001144
0.010012367
0.010013429
0.010013054
0.010014761
0.010013565
0.010015732
0.010013982
0.010016495
0.010009485
0.010007885
0.010011658
0.010011088
0.010013223
0.010014177
0.010014177
0.010015974
0.010014802
0.01001717
0.010015256
0.010018031
0.010015623
0.010018706
0.010011057
0.010010261
0.010013154
0.01001348
0.010014601
0.010016259
0.010015482
0.010017886
0.010016061
0.010018974
0.010016476
0.010019757
0.010016806
0.010020367
0.010012137
0.010012031
0.01001416
0.010015225
0.010015507
0.010017753
0.010016331
0.010019254
0.010016871
0.010020263
0.010017254
0.010020988
0.010017555
0.010021551
0.010012773
0.010013224
0.010014712
0.010016374
0.010015968
0.010018719
0.010016742
0.010020131
0.010017249
0.010021089
0.010017605
0.010021777
0.010017882
0.010022305
0.010013123
0.010014125
0.010015037
0.010017369
0.010016262
0.010019746
0.010017029
0.010021224
0.010017536
0.010022236
0.010017894
0.010022963
0.010018173
0.010023518
0.010014716
0.010017374
0.010017114
0.010021888
0.010018817
0.010025559
0.010020027
0.010028074
0.010020873
0.010029867
0.010021483
0.010031163
0.010021955
0.010032157
0.010028737
0.010039323
0.010034084
0.010051172
0.0100393
0.01006294
0.010043765
0.010072149
0.010047124
0.010079076
0.010049602
0.010084236
0.010051506
0.010088251
0.010135022
0.010182601
0.010153678
0.010234125
0.01018257
0.010298941
0.010210269
0.010353409
0.010231774
0.010395528
0.010247777
0.010427427
0.010260068
0.010452443
0.010848454
0.011041531
0.010883843
0.011259213
0.011049045
0.011636346
0.011220713
0.011968882
0.011357935
0.012229105
0.011461297
0.012427106
0.011540846
0.01258334
0.015057106
0.015787512
0.014674062
0.016528407
0.015448982
0.01840647
0.016289297
0.020068985
0.016964142
0.021328088
0.017501312
0.022303316
0.017939223
0.02308543
0.036264251
0.038815432
0.031021253
0.039632525
0.034774598
0.049167111
0.03913754
0.057955942
0.042785402
0.064805639
0.045653572
0.070031509
0.047918879
0.074188455
0.14689033
0.15375228
0.098761987
0.13524501
0.11569609
0.1819663
0.1386023
0.22680739
0.15835697
0.26132349
0.17347271
0.28736435
0.18520745
0.30786834
0.70350295
0.69609054
0.34690231
0.44071262
0.38956164
0.59928985
0.48979
0.78263619
0.57789039
0.92855235
0.64527332
1.0376727
0.69613262
1.1210609
3.143178
2.9367378
1.2838536
1.3322533
1.1537441
1.5254578
1.4085241
1.9809417
1.6709228
2.3796735
1.8824941
2.6869475
2.0443236
2.9216558
9.4691061
8.4224797
4.6620599
4.1121115
3.3033013
3.5524289
3.5988064
4.0938622
4.0825964
4.7133949
4.5144743
5.2435547
4.8620496
5.6682546
14.720121
13.835278
11.870716
10.48592
9.8955098
9.0397028
10.0124
9.1195803
10.727215
9.5000751
11.29313
9.9148664
11.632506
10.538521
9.8091879
11.287504
10.848239
11.931013
11.412022
12.211049
11.72885
12.487433
11.984423
12.754924
12.180336
12.956055
12.301501
13.088287
5.1929297
7.5004971
6.2397747
9.0486661
7.4574314
10.132372
8.1077219
10.617473
7.8411438
10.345135
7.214417
9.8808237
6.7686108
9.5531067
25.026734
32.116244
24.605562
30.851196
24.234502
29.853969
23.857405
28.867286
23.387389
27.608666
22.641937
25.558149
16.932873
15.28966
17.411649
15.882303
17.7578
16.399853
18.014305
16.891899
18.215911
17.375718
18.405484
17.773894
7.3352241
6.5010881
7.7236269
6.8021385
8.0563889
7.0517251
8.3792292
7.2932231
8.7278022
7.5597052
9.183876
7.9254424
3.0904961
2.8558588
3.2411466
2.9751304
3.3695325
3.0759548
3.4969486
3.1752728
3.6476939
3.2888619
3.8810612
3.4565932
1.0883924
1.0033362
1.1352964
1.0424946
1.1741547
1.0756591
1.2119559
1.1082415
1.2586594
1.1450619
1.332068
1.19714
0.25826718
0.22497222
0.26647096
0.23203071
0.27338885
0.23814262
0.28022795
0.24410087
0.28835866
0.25048924
0.29964291
0.25852045
0.048626753
0.041384856
0.049428829
0.042069077
0.050107848
0.042682699
0.050770651
0.043274621
0.051534429
0.043866528
0.052369691
0.044481267
0.015517
0.014198744
0.015578331
0.014251211
0.01563418
0.014298687
0.015685496
0.014342798
0.015728677
0.01438219
0.015754138
0.014411997
0.010745778
0.010547985
0.010751609
0.01055404
0.010757039
0.01055954
0.010761987
0.010564739
0.010765801
0.010569514
0.010766933
0.010573478
0.010072215
0.010048114
0.010073499
0.010050148
0.010074676
0.01005191
0.010075869
0.010053709
0.010077057
0.010055711
0.010078253
0.010058362
0.01000191
0.0099975056
0.01000291
0.0099992221
0.010003798
0.010000679
0.010004751
0.010002204
0.010005846
0.010003994
0.010007319
0.010006595
0.0099983306
0.0099960236
0.0099992828
0.0099976384
0.010000125
0.0099990122
0.010001033
0.010000454
0.010002084
0.010002148
0.010003513
0.0100046
0.01000032
0.0099989008
0.010001202
0.010000386
0.010001985
0.010001652
0.010002834
0.010002981
0.010003809
0.010004532
0.010005124
0.010006759
0.010003136
0.010002631
0.010003928
0.010003958
0.010004635
0.010005096
0.0100054
0.010006288
0.010006278
0.010007662
0.010007445
0.010009623
0.010006434
0.010006877
0.010007111
0.010008017
0.010007722
0.010009008
0.010008383
0.010010037
0.010009137
0.010011213
0.010010137
0.010012876
0.010009631
0.010010998
0.010010198
0.010011959
0.010010712
0.010012794
0.010011269
0.010013662
0.010011903
0.010014652
0.010012741
0.010016036
0.010012252
0.010014393
0.010012729
0.010015206
0.010013164
0.010015912
0.010013636
0.010016648
0.010014174
0.010017487
0.010014885
0.01001866
0.01001432
0.010017094
0.010014728
0.010017789
0.010015101
0.010018396
0.010015506
0.010019027
0.010015968
0.010019749
0.010016582
0.010020758
0.010015914
0.010019227
0.010016266
0.01001983
0.01001659
0.010020356
0.010016942
0.010020906
0.010017347
0.010021537
0.01001789
0.010022424
0.010017066
0.010020835
0.010017375
0.010021369
0.010017661
0.010021836
0.010017973
0.010022325
0.010018336
0.010022891
0.010018835
0.010023694
0.01001779
0.01002198
0.010018065
0.010022461
0.010018323
0.010022881
0.010018605
0.010023323
0.010018938
0.01002384
0.010019406
0.010024586
0.010018094
0.0100227
0.010018346
0.010023145
0.010018581
0.010023536
0.010018841
0.010023948
0.010019151
0.010024434
0.010019597
0.010025144
0.010018388
0.010023934
0.01001864
0.0100244
0.010018876
0.010024813
0.010019135
0.010025249
0.010019444
0.010025761
0.010019897
0.010026508
0.010022326
0.010032934
0.01002274
0.010033774
0.010023126
0.010034537
0.010023541
0.010035334
0.010024035
0.010036253
0.010024754
0.010037542
0.010053055
0.010091551
0.010054728
0.010095043
0.010056315
0.010098309
0.010057995
0.010101694
0.010059987
0.010105548
0.010062855
0.01011077
0.010270178
0.010473337
0.010280992
0.010495341
0.010291418
0.010516262
0.010302575
0.01053815
0.010316035
0.010563435
0.010335957
0.01059853
0.011606335
0.012714343
0.011676944
0.012854822
0.011745745
0.012989708
0.011820777
0.013133398
0.011914212
0.013305261
0.012059782
0.013558699
0.018302324
0.023763907
0.018709893
0.024488847
0.01911128
0.025187144
0.019545109
0.025931768
0.02010249
0.02682684
0.020951065
0.028201763
0.04980613
0.07772172
0.051864707
0.081547621
0.053923222
0.08526164
0.056196838
0.089232605
0.059101343
0.093995615
0.063841336
0.10121578
0.19475666
0.32510175
0.20506379
0.34378064
0.21528889
0.36188446
0.22676164
0.38141713
0.2416623
0.40516294
0.26640866
0.44177025
0.73644221
1.1888828
0.78015476
1.2623019
0.8233579
1.3326555
0.87248681
1.4099698
0.93892875
1.5089139
1.0566757
1.6724119
2.1732974
3.1094011
2.31456
3.3130836
2.4545892
3.5069771
2.6153706
3.7227883
2.8368245
4.0078361
3.2389439
4.5078205
5.1460101
6.0099011
5.4528686
6.3963674
5.7563565
6.7681387
6.0955287
7.1752545
6.5374305
7.6992331
7.2835273
8.5684733
11.843617
11.051766
12.016751
11.565029
12.185977
12.013548
12.370329
12.432212
12.606729
12.888671
13.05279
13.619246
12.388444
13.174705
12.470403
13.234306
12.55278
13.272801
12.63363
13.287814
12.703518
13.260772
12.73183
13.127977
6.5697193
9.3745386
6.5403894
9.2665762
6.603764
9.1955936
6.7403561
9.1293369
6.9470733
9.0175232
7.1937327
8.7347671
21.37858
22.604034
19.384254
19.747209
17.433597
17.712162
16.032301
16.314888
14.969592
15.261792
14.063996
14.358911
18.478901
17.936083
18.185542
18.107141
17.921181
18.161506
17.764934
18.102346
17.665817
18.089298
17.575317
18.072915
10.108273
8.6738188
11.325503
9.6178311
11.984925
10.12145
12.380451
10.458212
12.638794
10.750328
12.823866
11.050354
4.4278432
3.8429576
5.0951315
4.2588563
5.4155389
4.4305027
5.6146851
4.5383469
5.7718407
4.6318668
5.9224789
4.7283945
1.4936908
1.3046333
1.6571991
1.3967761
1.7240548
1.4288974
1.7675515
1.4506126
1.8004294
1.4698534
1.825827
1.4884664
0.32046906
0.27219698
0.33792115
0.28170565
0.34485513
0.28543425
0.34957058
0.28860279
0.35294237
0.2916846
0.35608256
0.29479553
0.053381082
0.045156597
0.054022214
0.045422481
0.054395442
0.045634775
0.054726306
0.045915049
0.055013121
0.046233371
0.055321933
0.046568345
0.015738473
0.01441424
0.015699954
0.014396253
0.015708164
0.014410698
0.015734787
0.014436638
0.015768361
0.014466866
0.015804587
0.014498924
0.01076177
0.010574768
0.010755996
0.010574125
0.010757124
0.010576764
0.010760547
0.010580481
0.010764784
0.010584581
0.010769374
0.010588874
0.010079365
0.010062394
0.010080038
0.010065195
0.010080879
0.010066776
0.010081826
0.010068097
0.010082788
0.010069305
0.010083736
0.010070457
0.010009626
0.010011097
0.010011467
0.010014504
0.010012457
0.010016076
0.010013238
0.010017205
0.010013925
0.010018159
0.010014557
0.010019027
0.010005792
0.010008851
0.010007642
0.010012149
0.010008616
0.010013688
0.010009365
0.010014787
0.010010012
0.010015708
0.010010607
0.010016544
0.01000718
0.010010587
0.010008872
0.010013617
0.010009778
0.010015063
0.010010475
0.010016099
0.010011076
0.010016964
0.01001163
0.010017751
0.010009233
0.010012942
0.010010719
0.01001562
0.010011531
0.010016924
0.010012154
0.010017856
0.01001269
0.010018635
0.010013185
0.010019343
0.010011626
0.010015624
0.010012879
0.010017899
0.010013578
0.010019025
0.010014108
0.010019827
0.010014564
0.010020494
0.010014984
0.010021099
0.010013957
0.010018262
0.010014985
0.010020141
0.010015569
0.010021089
0.010016006
0.01002176
0.010016382
0.010022314
0.010016728
0.010022817
0.010015893
0.01002051
0.010016748
0.010022076
0.010017242
0.010022879
0.010017605
0.010023439
0.010017913
0.010023899
0.010018198
0.010024313
0.010017433
0.010022327
0.010018162
0.01002367
0.010018586
0.010024359
0.010018893
0.010024833
0.01001915
0.010025218
0.010019386
0.010025562
0.010018639
0.01002378
0.010019302
0.010025011
0.01001967
0.010025606
0.010019934
0.010026011
0.01002015
0.010026335
0.010020345
0.010026619
0.010019515
0.01002489
0.010020154
0.010026087
0.010020481
0.010026612
0.010020712
0.010026963
0.010020899
0.010027242
0.010021066
0.010027484
0.010020045
0.010025667
0.010020686
0.01002686
0.010020987
0.010027334
0.010021194
0.010027644
0.010021359
0.010027886
0.010021507
0.010028096
0.010020196
0.010026142
0.010020824
0.010027311
0.010021114
0.010027761
0.010021309
0.010028051
0.010021463
0.010028274
0.010021602
0.010028466
0.010020492
0.01002752
0.010021113
0.010028701
0.010021413
0.010029179
0.010021616
0.010029491
0.010021777
0.010029734
0.01002192
0.010029944
0.010025701
0.010039247
0.010026666
0.01004115
0.010027156
0.010042018
0.010027497
0.010042645
0.010027782
0.010043187
0.010028047
0.010043695
0.010066816
0.010117818
0.010070904
0.010125534
0.010073034
0.010129435
0.010074566
0.010132485
0.010075922
0.010135323
0.010077238
0.010138105
0.010365006
0.010649623
0.010397324
0.010709623
0.010413831
0.010739764
0.010425584
0.0107632
0.010436012
0.010785138
0.010446166
0.010806928
0.012289879
0.01396919
0.012577977
0.014503169
0.012726623
0.014766532
0.012830585
0.014964571
0.012921489
0.015147104
0.013011075
0.015331422
0.022335879
0.030569014
0.024181033
0.033814784
0.025152357
0.035408024
0.025838889
0.036585017
0.026446943
0.037677206
0.027050632
0.038809805
0.071977654
0.11355627
0.083281947
0.13082817
0.089239972
0.13940966
0.093357409
0.14598289
0.096939813
0.15221274
0.10049712
0.15865664
0.30865309
0.5056073
0.36747761
0.5941277
0.39751361
0.63590496
0.41832467
0.66661704
0.43665456
0.69562033
0.45520896
0.72675585
1.2686667
1.9789575
1.5767625
2.4251302
1.7290439
2.6299621
1.8269183
2.7715795
1.9074632
2.8974165
1.9851886
3.0266265
4.0188699
5.4931462
5.2713099
7.0312075
5.9417947
7.7643358
6.3643035
8.2394805
6.6919629
8.6157841
6.9900684
8.9667096
8.754938
10.311453
11.239856
13.010754
12.590028
14.233753
13.348349
14.888353
13.82365
15.269546
14.148606
15.533558
14.216299
15.050489
16.229091
16.91243
17.020464
17.446917
17.285144
17.588683
17.364476
17.59098
17.370723
17.537118
12.593046
12.654942
11.820469
11.346757
10.862401
10.387538
10.165706
9.7679363
9.6680326
9.3045066
9.2879239
8.8999678
7.1415056
7.9653123
6.3386213
6.6516005
5.2897271
5.568849
4.5747034
4.8686786
4.0876636
4.3736634
3.7338463
3.9726619
13.230796
13.505156
12.54104
12.760865
11.984053
12.162517
11.513043
11.752677
11.115209
11.680975
10.798995
12.269452
10.912952
14.620099
17.452254
18.020054
17.332944
17.956994
17.228101
17.894307
17.118006
17.819306
16.984395
17.69736
16.799065
17.512602
16.559637
17.300843
12.997165
11.382457
13.144818
11.6483
13.270537
11.80009
13.373703
11.932797
13.457342
12.046983
13.551809
12.138382
13.694579
12.209764
6.0952168
4.8425246
6.2618463
4.9597855
6.4207151
5.0775577
6.5597277
5.2077681
6.6959929
5.3580554
6.8536829
5.5448699
7.0834421
5.7227614
1.8524666
1.5087959
1.8806633
1.530807
1.9123568
1.5541932
1.9529391
1.5847378
1.9989856
1.616895
2.0660085
1.6640004
2.1910801
1.7382632
0.35966066
0.29805182
0.36389157
0.30166733
0.36879981
0.30542732
0.3745531
0.30946041
0.38102311
0.31397704
0.38985697
0.32003513
0.40491826
0.3300942
0.055588059
0.046907185
0.055969818
0.047294658
0.056451437
0.047703779
0.056924116
0.04812904
0.057523448
0.048596484
0.058274909
0.049107682
0.059510887
0.049886518
0.015842534
0.014532973
0.015885034
0.014570512
0.015929859
0.01460954
0.015977305
0.01465066
0.016031855
0.014696573
0.016105927
0.014753028
0.016225647
0.014829788
0.01077434
0.010593568
0.010779708
0.010598454
0.010785362
0.010603483
0.010791294
0.01060866
0.010797965
0.010614187
0.010806522
0.010620242
0.010819048
0.010626234
0.010084761
0.010071712
0.010085694
0.010072793
0.010086653
0.010073857
0.010087616
0.010074868
0.010088634
0.010075815
0.01008973
0.010076492
0.010090455
0.010075687
0.010015259
0.010019984
0.010015833
0.010020747
0.010016427
0.010021495
0.010017025
0.010022193
0.010017678
0.010022854
0.010018375
0.010023311
0.010018601
0.010022457
0.010011272
0.010017469
0.010011821
0.010018215
0.010012397
0.010018958
0.010012988
0.010019669
0.010013661
0.010020378
0.010014413
0.010020952
0.010014768
0.010020335
0.010012245
0.010018619
0.010012765
0.010019334
0.010013318
0.010020057
0.010013904
0.010020776
0.01001458
0.01002152
0.010015351
0.010022154
0.010015745
0.010021677
0.010013736
0.010020122
0.010014209
0.010020777
0.010014726
0.010021459
0.010015284
0.010022159
0.010015942
0.010022908
0.010016695
0.010023544
0.010017054
0.010023096
0.010015451
0.010021764
0.01001586
0.01002234
0.010016321
0.010022961
0.010016832
0.010023617
0.010017445
0.010024332
0.010018142
0.010024929
0.010018413
0.01002445
0.010017113
0.010023371
0.010017453
0.01002386
0.01001785
0.010024406
0.0100183
0.010025001
0.010018851
0.010025664
0.010019459
0.010026186
0.010019593
0.010025644
0.010018514
0.010024774
0.010018792
0.01002518
0.010019129
0.010025652
0.01001952
0.010026181
0.010020003
0.010026782
0.01002052
0.010027231
0.010020538
0.010026641
0.010019651
0.010025949
0.010019879
0.010026284
0.010020165
0.01002669
0.010020501
0.010027157
0.010020924
0.010027697
0.010021361
0.010028093
0.010021303
0.010027508
0.010020569
0.010026946
0.010020763
0.010027233
0.010021006
0.010027578
0.010021294
0.010027984
0.010021655
0.010028458
0.01002203
0.010028828
0.010021971
0.010028343
0.010021259
0.010027766
0.010021429
0.010028017
0.010021638
0.010028316
0.010021886
0.010028666
0.010022198
0.010029087
0.010022536
0.01002945
0.01002253
0.010029111
0.010021678
0.010028345
0.01002183
0.010028568
0.010022015
0.01002883
0.010022233
0.010029135
0.010022506
0.010029509
0.01002282
0.010029868
0.01002289
0.010029684
0.010021761
0.010028696
0.010021894
0.010028895
0.010022061
0.010029132
0.010022258
0.010029411
0.010022514
0.010029763
0.010022821
0.010030125
0.010022952
0.010030047
0.010022084
0.01003019
0.010022219
0.010030402
0.010022388
0.010030654
0.010022589
0.01003095
0.010022848
0.010031317
0.010023156
0.01003168
0.010023291
0.010031593
0.010028335
0.010044231
0.010028585
0.010044724
0.010028875
0.010045261
0.010029207
0.010045849
0.010029598
0.010046485
0.010029998
0.010046975
0.010030021
0.010046493
0.010078589
0.010140863
0.010079926
0.010143767
0.010081433
0.010146918
0.010083162
0.010150377
0.010085164
0.010154079
0.01008715
0.010157061
0.010087324
0.010155125
0.010456415
0.010828726
0.010467189
0.010852091
0.010479545
0.010878075
0.01049418
0.010907726
0.010511613
0.010940926
0.010529315
0.010969186
0.010531371
0.010950787
0.013106193
0.015528062
0.013195219
0.0157153
0.013300396
0.015930494
0.013431264
0.016190069
0.01359726
0.016506284
0.013783844
0.016824918
0.013853537
0.016767683
0.027711537
0.040051691
0.028335369
0.041281682
0.029106797
0.042768
0.030105169
0.044650919
0.031439478
0.04710147
0.033080841
0.049845925
0.03424032
0.050605188
0.10436803
0.16571671
0.10819779
0.17293628
0.11304314
0.18180303
0.11941428
0.19318967
0.1279745
0.20811045
0.13851367
0.2245987
0.14650963
0.22989156
0.47587041
0.76248655
0.4964258
0.79875767
0.52299839
0.84420935
0.55903524
0.90301817
0.60842423
0.98089347
0.67098672
1.0730516
0.72250029
1.116789
2.0697143
3.1714492
2.1522684
3.3128877
2.2639685
3.4909103
2.4181642
3.7149718
2.6278647
4.0023073
2.9038422
4.3525413
3.1459926
4.6035332
7.2868497
9.3285064
7.5524528
9.6605838
7.8538254
10.019099
8.2319596
10.430511
8.7276014
10.9222
9.3654468
11.553578
10.03883
12.237283
14.40943
15.76229
14.623641
15.966808
14.850587
16.182644
15.139619
16.462598
15.562426
16.847427
16.241772
17.413951
17.32432
18.268375
17.356125
17.474618
17.354457
17.437619
17.388291
17.423377
17.492207
17.472233
17.73269
17.633295
18.325245
18.09428
19.624606
19.31039
8.9924898
8.5404744
8.7898718
8.2772172
8.6217505
8.0277907
8.4458132
7.7490772
8.2896695
7.4935088
8.2888565
7.4031524
8.8573906
7.9164575
3.476962
3.6147037
3.2795629
3.3107188
3.1123742
2.9996179
2.9089348
2.6421155
2.6608064
2.2122695
2.4031207
1.7557749
2.3443779
1.5771935
11.391793
16.6391
11.440749
17.425185
10.9772
16.476122
11.145743
16.210634
16.335168
17.320811
16.095648
17.414657
16.061801
17.959488
17.494193
20.827009
13.985977
12.51702
14.462828
13.083972
15.38495
14.409959
17.37555
17.115883
7.4918072
6.0862983
8.0585938
6.6507574
8.9517201
7.6988903
10.309504
9.4420198
2.3722131
1.8876848
2.6067108
2.100948
2.9493393
2.492837
3.3699373
3.0850249
0.4310157
0.35442001
0.46853776
0.39127011
0.52059493
0.45875994
0.57055454
0.54604839
0.06157109
0.051975661
0.064943553
0.055539405
0.068769714
0.061506347
0.070106626
0.066971988
0.016390336
0.014995799
0.016652503
0.015273223
0.016770345
0.015596114
0.016163303
0.015405904
0.010828036
0.010634512
0.010841966
0.010650547
0.01080471
0.010641767
0.010617451
0.010516218
0.010088292
0.010072104
0.010086638
0.010069367
0.01007794
0.010062425
0.01005203
0.01004209
0.010017289
0.010019286
0.010015508
0.010015928
0.010012905
0.010012041
0.010008539
0.010007055
0.010013833
0.010017535
0.010012252
0.010014401
0.010010242
0.010010933
0.010007433
0.010007083
0.010014874
0.010019063
0.010013338
0.010016137
0.010011317
0.010012808
0.010008513
0.010009018
0.010016154
0.010020617
0.010014686
0.010017984
0.010012713
0.010014937
0.01000991
0.010011307
0.010017496
0.010022164
0.010016147
0.010019864
0.010014307
0.010017166
0.010011644
0.010013881
0.010018615
0.010023496
0.010017322
0.010021428
0.010015575
0.010019025
0.010013089
0.010016145
0.010019532
0.010024624
0.010018277
0.01002272
0.010016627
0.010020556
0.010014334
0.010018032
0.010020288
0.010025596
0.010019042
0.010023784
0.010017435
0.01002176
0.010015254
0.010019461
0.010020947
0.010026517
0.010019708
0.010024782
0.010018068
0.010022774
0.010015833
0.010020465
0.010021546
0.010027416
0.010020325
0.010025725
0.010018595
0.010023636
0.01001625
0.010021276
0.010021984
0.010028147
0.010020756
0.010026459
0.01001891
0.010024247
0.010016462
0.010021852
0.01002219
0.010028706
0.010020915
0.010026934
0.010018974
0.010024617
0.010016439
0.010022236
0.010022599
0.010030256
0.010021109
0.010028139
0.010019059
0.010025731
0.010016527
0.010023728
0.010028823
0.010043834
0.010026034
0.010039677
0.010023087
0.010036287
0.01002066
0.010036107
0.010083882
0.01014555
0.010071677
0.010127599
0.010061087
0.010115364
0.010057295
0.010122083
0.01051051
0.010867028
0.010435646
0.010755201
0.010366094
0.010669428
0.010337806
0.010685842
0.013604035
0.015900386
0.013104126
0.015058052
0.012569646
0.014311065
0.012249201
0.014090631
0.033673042
0.04751824
0.030532418
0.041796188
0.02673441
0.03607009
0.023978229
0.033047941
0.14825082
0.22129337
0.13184076
0.19122118
0.10843873
0.15655769
0.089538369
0.13364205
0.73268943
1.0867647
0.65275253
0.94873081
0.52146296
0.75950933
0.4089126
0.61267717
3.1551939
4.5018247
2.870531
4.0213686
2.3039567
3.2938347
1.7866624
2.6432176
10.006515
12.09926
9.1128781
11.200367
7.7335576
9.8594008
6.3002634
8.4459306
17.729208
18.490038
17.072748
17.998929
15.740088
17.06393
14.052421
15.964298
20.313685
19.902249
20.154105
19.894132
19.480769
19.646945
18.466812
19.323192
9.622695
8.532168
9.8946772
9.0353534
10.062366
9.6386393
10.466834
10.506642
2.5624379
1.7764668
2.831698
2.1284024
3.2042192
2.6240049
3.7580539
3.2386247
37.602722
23.801682
30.741542
19.83005
30.543227
21.356931
29.118927
23.6914
27.611576
22.033012
32.808601
27.660085
16.623
17.561234
18.088612
18.233393
22.375031
21.953063
7.8268819
9.2772162
9.7872519
10.850476
12.255344
12.549871
2.5003551
3.0378299
3.7115655
4.1930672
4.9580821
4.9711731
0.48440844
0.56644569
0.85217926
0.93334642
1.3656709
1.3566837
0.071878897
0.08315883
0.15277657
0.16994753
0.37097343
0.37570296
0.018411964
0.020253861
0.034912471
0.038754365
0.12265526
0.12662741
0.011102831
0.011385025
0.015063773
0.016038774
0.0458603
0.047052836
0.010106309
0.010147204
0.010934316
0.011124022
0.022134985
0.022296149
0.0099934621
0.010005384
0.010170178
0.010208784
0.013576989
0.013630975
0.0099872944
0.0099952465
0.010026944
0.010037108
0.010976053
0.010982724
0.0099909578
0.0099970211
0.010003499
0.010007812
0.010262786
0.01025516
0.0099954102
0.0099997034
0.010002022
0.010004189
0.010062347
0.010058401
0.010000012
0.010002684
0.010004893
0.010005581
0.010017669
0.010014719
0.010004105
0.010005405
0.010007714
0.010007274
0.01000908
0.010006191
0.010007171
0.010007417
0.010009708
0.010008484
0.010007209
0.010004209
0.010009579
0.010009038
0.010011297
0.010009485
0.010006191
0.010003117
0.010011219
0.010010097
0.010012489
0.010010295
0.010005943
0.010002611
0.01001242
0.010010855
0.010013136
0.01001063
0.010006574
0.010002849
0.010013341
0.010011433
0.010013863
0.010011124
0.010006971
0.010002988
0.010013908
0.010011729
0.010014317
0.010011346
0.010007396
0.010003121
0.010014074
0.0100117
0.010014395
0.010011258
0.010007793
0.010003293
0.010014567
0.010011813
0.010014604
0.010011203
0.010007981
0.010003307
0.01002066
0.010014991
0.010017787
0.010012449
0.01000869
0.010003488
0.010082951
0.010054086
0.010054545
0.010031735
0.01001798
0.010007629
0.010644497
0.010451505
0.010417435
0.010253808
0.010125196
0.010064105
0.015208515
0.013852968
0.013590826
0.012357927
0.011204817
0.010689633
0.046219121
0.037355628
0.036789588
0.028441796
0.020401472
0.016290696
0.24791132
0.18348541
0.19595435
0.13587708
0.09148489
0.05766731
1.3565587
0.93556905
1.1312078
0.7422122
0.57823136
0.33932379
5.4940894
4.1533771
4.812859
3.4237482
3.1264373
1.9884465
12.580248
11.001345
11.764148
9.7912111
10.517813
7.9601096
17.1683
16.164409
16.794819
15.38166
19.665502
17.463298
12.54137
11.731314
12.789563
12.010085
20.153997
19.629799
5.8386625
5.9605029
5.817398
6.2135107
8.8712909
10.025877
15.363343
4.2043474
4.8399313
6.9911063
10.375088
16.575862
14.553231
4.0955335
5.0329295
7.6246375
11.700305
19.00393
5.4215516
7.3855499
10.036299
12.190612
14.888273
18.601041
5.4535158
7.5436852
10.10511
12.534643
15.476081
18.768083
1.9625493
8.0298815
14.239285
16.096221
16.457145
16.302953
2.1601033
8.4245089
13.702961
14.885513
14.7324
13.921762
0.6762909
2.8406896
6.4024404
8.7331368
9.3884942
8.8445388
0.74634719
3.115565
6.0010397
7.2718148
7.0745809
6.1103137
0.24002423
0.79476522
1.6586982
2.4123012
2.7897738
2.7049879
0.26337582
0.82334796
1.4113177
1.7722435
1.7907389
1.573631
0.08205163
0.20418496
0.33199712
0.41867386
0.47494703
0.47477154
0.088690968
0.19602291
0.2532155
0.28730445
0.29251482
0.2725899