/*--------------------------------*- C++ -*----------------------------------*\
| =========                 |                                                 |
| \\      /  F ield         | OpenFOAM: The Open Source CFD Toolbox           |
|  \\    /   O peration     | Version:  2206                                  |
|   \\  /    A nd           | Website:  www.openfoam.com                      |
|    \\/     M anipulation  |                                                 |
\*---------------------------------------------------------------------------*/
FoamFile
{
    version     2.0;
    format      ascii;
    arch        "LSB;label=32;scalar=64";
    class       volScalarField;
    location    "100";
    object      nut;
}
// * * * * * * * * * * * * * * * * * * * * * * * * * * * * * * * * * * * * * //

dimensions      [0 2 -1 0 0 0 0];

internalField   nonuniform List<scalar> 
50904
(
4.9900699e-06
8.3312029e-06
5.6378214e-06
9.7771051e-06
1.686128e-05
1.9457661e-05
1.4957112e-05
1.6936626e-05
2.8754174e-05
2.7197984e-05
2.3746408e-05
2.1230762e-05
2.8851922e-05
2.5757603e-05
2.1009084e-05
1.8481687e-05
1.8807866e-05
1.7612707e-05
1.3661002e-05
1.1686185e-05
9.9989999e-06
5.0811086e-06
4.3629281e-06
2.2110853e-06
1.5733728e-06
8.384546e-07
8.5360127e-07
4.7211707e-07
4.454223e-07
2.6490324e-07
3.0655005e-07
1.8910093e-07
2.7625578e-07
1.8338495e-07
2.1775423e-07
1.4760744e-07
2.6065037e-07
1.8160669e-07
2.127206e-07
1.5014317e-07
2.7117848e-07
1.9464519e-07
2.2248212e-07
1.6131754e-07
2.9035511e-07
2.137566e-07
2.3902187e-07
1.7713446e-07
3.1554935e-07
2.3804159e-07
2.602432e-07
1.9701926e-07
3.4972088e-07
2.6981755e-07
2.890568e-07
2.2312895e-07
3.9730344e-07
3.1275383e-07
3.289054e-07
2.5804543e-07
4.5503655e-07
3.6352147e-07
3.7672e-07
2.9845549e-07
5.2000423e-07
4.1932251e-07
4.2982387e-07
3.4172333e-07
5.9089584e-07
4.7857947e-07
4.8574716e-07
3.8584752e-07
6.7411837e-07
5.4443948e-07
5.4578717e-07
4.3093007e-07
7.6608534e-07
6.1638325e-07
6.0577985e-07
4.7522146e-07
8.5944029e-07
6.8995544e-07
6.6829063e-07
5.1978393e-07
9.599984e-07
7.7009878e-07
7.3305123e-07
5.6691086e-07
1.0492744e-06
8.4034136e-07
7.8922071e-07
6.0910013e-07
1.1074014e-06
8.8491776e-07
8.3337347e-07
6.4271813e-07
1.1457768e-06
9.1285341e-07
8.6534289e-07
6.6528822e-07
1.1737224e-06
9.3044572e-07
8.9482871e-07
6.8831577e-07
1.2456408e-06
9.8715486e-07
9.7716961e-07
7.4893166e-07
1.7111945e-06
1.4234781e-06
1.4318196e-06
1.1021499e-06
4.8416409e-06
4.2949189e-06
4.095255e-06
3.2474051e-06
9.593441e-06
1.0621784e-05
9.3913286e-06
9.8452833e-06
1.5526079e-05
1.8227912e-05
1.5205876e-05
1.6604798e-05
2.66932e-05
3.2002509e-05
2.6142182e-05
2.911388e-05
3.5197142e-05
3.8345202e-05
3.4085858e-05
3.5814786e-05
2.6602766e-05
2.7782465e-05
2.5811705e-05
2.6270822e-05
8.3578379e-06
8.9564399e-06
7.5962623e-06
8.2527011e-06
1.0081616e-06
1.0718797e-06
9.3306126e-07
1.1007414e-06
6.1212628e-06
1.0520491e-05
6.0515726e-06
9.8898052e-06
5.7480649e-06
8.6497998e-06
5.4467194e-06
7.8798571e-06
5.2481401e-06
7.3746655e-06
5.1244804e-06
7.0201183e-06
5.0350092e-06
6.7395777e-06
1.3261961e-05
1.5429768e-05
1.1713651e-05
1.3156467e-05
1.1691733e-05
1.2156735e-05
1.209982e-05
1.2139579e-05
1.241531e-05
1.236504e-05
1.2652754e-05
1.2663901e-05
1.2908555e-05
1.2954251e-05
1.857984e-05
1.6561021e-05
1.3957714e-05
1.3515346e-05
1.4072704e-05
1.4093933e-05
1.4823937e-05
1.496276e-05
1.5582553e-05
1.5656427e-05
1.6243316e-05
1.6242648e-05
1.6855675e-05
1.6811139e-05
1.4923297e-05
1.3886597e-05
1.2237147e-05
1.2893191e-05
1.3522207e-05
1.4648348e-05
1.4778442e-05
1.5833805e-05
1.5682343e-05
1.6588697e-05
1.637204e-05
1.7125184e-05
1.6950995e-05
1.7564737e-05
1.0408648e-05
6.5375855e-06
8.9324884e-06
5.1520658e-06
9.7574216e-06
5.120177e-06
1.1017681e-05
5.5837842e-06
1.2819428e-05
6.081167e-06
1.3217065e-05
6.9875086e-06
1.3556688e-05
8.49416e-06
2.6553076e-06
1.4902657e-06
2.4011438e-06
1.3025746e-06
2.5707499e-06
1.2488779e-06
2.8721118e-06
1.3565282e-06
3.5762186e-06
1.5005268e-06
4.9094096e-06
1.7495316e-06
6.0660842e-06
2.1511213e-06
6.3519308e-07
3.6921856e-07
5.7498756e-07
2.9555493e-07
5.6550108e-07
2.5896552e-07
6.0371804e-07
2.7489999e-07
7.447956e-07
3.032502e-07
1.0437112e-06
3.5639448e-07
1.2687062e-06
4.3643569e-07
2.478199e-07
1.5646759e-07
2.1539088e-07
1.173724e-07
2.0126787e-07
9.9083147e-08
2.105856e-07
1.0712917e-07
2.6098595e-07
1.1566189e-07
3.7551766e-07
1.374102e-07
4.5058207e-07
1.6715741e-07
1.8296528e-07
1.2502304e-07
1.5834902e-07
9.2155876e-08
1.4564186e-07
7.8359663e-08
1.5250626e-07
8.8817942e-08
1.9234209e-07
9.740577e-08
2.8783769e-07
1.1198717e-07
3.3387259e-07
1.3884897e-07
1.8043573e-07
1.2741644e-07
1.5478949e-07
9.2560556e-08
1.4143913e-07
8.006892e-08
1.4962382e-07
9.186856e-08
1.93059e-07
1.0315852e-07
2.8779573e-07
1.1676411e-07
3.3313526e-07
1.4526225e-07
1.8881091e-07
1.362769e-07
1.6015783e-07
9.7169562e-08
1.4622443e-07
8.4093834e-08
1.5676105e-07
9.8065718e-08
2.0817595e-07
1.052285e-07
3.3244458e-07
1.2926021e-07
3.3993312e-07
1.6091432e-07
2.0297782e-07
1.4890595e-07
1.6993152e-07
1.043039e-07
1.5517492e-07
8.6212083e-08
1.6918836e-07
1.0410531e-07
2.3246423e-07
1.0980631e-07
4.0115739e-07
1.4748175e-07
3.4535947e-07
1.7940676e-07
2.2164483e-07
1.6498018e-07
1.8438305e-07
1.1404514e-07
1.6866637e-07
9.3078706e-08
1.8757785e-07
1.0215675e-07
2.6722093e-07
1.2515858e-07
4.7418435e-07
1.6859931e-07
3.3805225e-07
2.0579215e-07
2.4654874e-07
1.8593777e-07
2.0489223e-07
1.2735353e-07
1.8735812e-07
1.0411243e-07
2.1115737e-07
1.1538759e-07
3.0952839e-07
1.4380448e-07
5.3436928e-07
1.9606815e-07
3.3308131e-07
2.2905732e-07
2.817787e-07
2.1444912e-07
2.3604404e-07
1.4664003e-07
2.1551754e-07
1.2055054e-07
2.4354921e-07
1.3485188e-07
3.6028469e-07
1.7069847e-07
5.7467268e-07
2.31026e-07
3.3862665e-07
2.4866143e-07
3.2311679e-07
2.4646702e-07
2.7376891e-07
1.692542e-07
2.5001768e-07
1.4085887e-07
2.8154654e-07
1.5883497e-07
4.1447507e-07
2.0299218e-07
6.1634605e-07
2.6883919e-07
3.5878824e-07
2.6659914e-07
3.6792764e-07
2.7888935e-07
3.1477927e-07
1.9306307e-07
2.8816938e-07
1.6327061e-07
3.2350444e-07
1.8543263e-07
4.7317083e-07
2.3770874e-07
6.5743379e-07
3.0458948e-07
3.7876567e-07
2.8095079e-07
4.1345973e-07
3.0940347e-07
3.5603137e-07
2.1694169e-07
3.2728371e-07
1.8705154e-07
3.6643394e-07
2.1362416e-07
5.3188389e-07
2.7308121e-07
7.1410963e-07
3.396868e-07
4.112053e-07
3.00221e-07
4.6243411e-07
3.4041019e-07
3.9829618e-07
2.4039949e-07
3.6521456e-07
2.1056656e-07
4.07038e-07
2.4102392e-07
5.8530376e-07
3.0506459e-07
7.829955e-07
3.7152852e-07
4.5417651e-07
3.2620417e-07
5.1032181e-07
3.6909401e-07
4.3892597e-07
2.6275662e-07
4.0193193e-07
2.3400072e-07
4.4743711e-07
2.6852799e-07
6.3979812e-07
3.3589929e-07
8.9325093e-07
4.074433e-07
5.3522008e-07
3.7280911e-07
5.6036773e-07
3.980161e-07
4.806406e-07
2.8563693e-07
4.3917371e-07
2.5921491e-07
4.8910879e-07
3.0848881e-07
6.9932452e-07
3.6363834e-07
1.0077987e-06
4.4611046e-07
6.1429138e-07
4.2491488e-07
6.1040114e-07
4.2863414e-07
5.2364642e-07
3.0974475e-07
4.7836912e-07
2.8460483e-07
5.3279593e-07
3.5492826e-07
7.6615988e-07
4.1355411e-07
1.1619823e-06
4.9883217e-07
7.2575788e-07
5.1140702e-07
6.53349e-07
4.5935442e-07
5.643441e-07
3.3293941e-07
5.1586052e-07
3.0832389e-07
5.7450659e-07
3.8724808e-07
8.2916606e-07
4.5896134e-07
1.3003808e-06
5.573075e-07
8.7940848e-07
5.9841022e-07
6.8867817e-07
4.8780172e-07
5.9841727e-07
3.5050356e-07
5.4690997e-07
3.2635278e-07
6.0751072e-07
4.2198249e-07
8.9423455e-07
5.1273548e-07
1.5334825e-06
6.0191332e-07
1.106156e-06
7.1619027e-07
7.1478217e-07
5.1281195e-07
6.2660461e-07
3.6860677e-07
5.7519495e-07
3.5042506e-07
6.3665892e-07
4.4616374e-07
9.2671337e-07
5.0452084e-07
1.6657883e-06
6.6600362e-07
1.2772913e-06
8.0493297e-07
7.4041659e-07
5.3857887e-07
6.5545048e-07
3.9166101e-07
6.0501026e-07
3.9654942e-07
6.6812483e-07
4.9042853e-07
9.6171118e-07
5.4980032e-07
1.7823277e-06
6.9557431e-07
1.5458563e-06
9.1476603e-07
8.0947658e-07
5.9779595e-07
7.1939705e-07
4.482744e-07
6.7433255e-07
4.7635293e-07
7.5075537e-07
5.9419201e-07
1.0739268e-06
6.887672e-07
2.0204705e-06
8.2013741e-07
2.0377045e-06
1.2707085e-06
1.1419012e-06
8.711776e-07
9.8841199e-07
6.8166227e-07
9.6592288e-07
7.940323e-07
1.1131504e-06
1.0394078e-06
1.6144349e-06
1.2768647e-06
3.1270262e-06
1.4886847e-06
3.6655755e-06
2.3747103e-06
2.789674e-06
2.1556905e-06
2.1202355e-06
1.6753054e-06
2.2151449e-06
2.1981809e-06
2.6904798e-06
3.0205751e-06
3.9610431e-06
3.7940292e-06
7.235522e-06
4.8228553e-06
8.0714834e-06
6.2994785e-06
7.5046908e-06
7.7578262e-06
6.3438022e-06
5.8252994e-06
7.1330343e-06
8.2933706e-06
7.8139719e-06
1.0078795e-05
8.29536e-06
1.0721501e-05
8.643093e-06
1.1183071e-05
8.9076804e-06
1.1541408e-05
1.1409156e-05
1.1642875e-05
7.7517212e-06
9.5162683e-06
8.7634289e-06
1.1926698e-05
1.0164664e-05
1.3923914e-05
1.1187615e-05
1.5268005e-05
1.1902783e-05
1.6197331e-05
1.2420748e-05
1.6884981e-05
1.960486e-05
1.9644491e-05
1.1230762e-05
1.2426777e-05
1.1247477e-05
1.4774959e-05
1.3268587e-05
1.8016885e-05
1.4998739e-05
2.0416267e-05
1.6278836e-05
2.2095912e-05
1.7211195e-05
2.3310976e-05
2.9688035e-05
2.8750795e-05
1.7129126e-05
1.6773442e-05
1.4229542e-05
1.6278318e-05
1.5716463e-05
1.900329e-05
1.7498116e-05
2.1577215e-05
1.9019705e-05
2.3547261e-05
2.021909e-05
2.4994612e-05
2.3655686e-05
2.3249412e-05
1.997883e-05
1.8666582e-05
1.789917e-05
1.7778522e-05
1.8550539e-05
1.8545979e-05
1.9627862e-05
1.959651e-05
2.0497983e-05
2.0540843e-05
2.1072707e-05
2.1518257e-05
7.6335567e-06
8.6462865e-06
8.0560821e-06
8.7532379e-06
8.2183103e-06
8.831753e-06
8.4955302e-06
9.0696438e-06
8.6517523e-06
9.2124553e-06
8.6979719e-06
9.2909275e-06
8.7308956e-06
9.3646126e-06
9.9379847e-07
1.4408736e-06
1.2024704e-06
1.7575321e-06
1.4399993e-06
1.9769109e-06
1.5671054e-06
2.0767449e-06
1.5180872e-06
2.028361e-06
1.3994211e-06
1.9413437e-06
1.314837e-06
1.8797179e-06
4.9576762e-06
6.4986238e-06
4.8783248e-06
6.2565232e-06
4.8081991e-06
6.0649463e-06
4.7370373e-06
5.8750898e-06
4.6488151e-06
5.6327552e-06
4.5096034e-06
5.2370747e-06
1.3140653e-05
1.3229793e-05
1.3145796e-05
1.3496028e-05
1.2874066e-05
1.3721457e-05
1.2663582e-05
1.3931337e-05
1.2660179e-05
1.3987985e-05
1.2689119e-05
1.3468906e-05
1.7492192e-05
1.7336099e-05
1.8141598e-05
1.7856206e-05
1.8699081e-05
1.8283133e-05
1.9249743e-05
1.8698722e-05
1.9865769e-05
1.9169946e-05
2.0729093e-05
1.9861361e-05
1.7475271e-05
1.7974635e-05
1.8014454e-05
1.8409585e-05
1.8472195e-05
1.8779284e-05
1.8929304e-05
1.914637e-05
1.9475396e-05
1.9570122e-05
2.0328322e-05
2.0203749e-05
1.3870558e-05
1.0152319e-05
1.4182795e-05
1.0286603e-05
1.4442259e-05
1.0242218e-05
1.4694399e-05
1.0586622e-05
1.5001973e-05
1.1072307e-05
1.5471989e-05
1.1984201e-05
5.6451948e-06
2.4853756e-06
4.418578e-06
2.438191e-06
4.1944788e-06
2.4039211e-06
5.8794073e-06
2.4224041e-06
6.3311651e-06
2.4583572e-06
5.899973e-06
2.6029161e-06
1.1150641e-06
4.7546027e-07
8.4508768e-07
4.6361205e-07
8.2197807e-07
4.5258048e-07
1.2164981e-06
4.4940718e-07
1.1636599e-06
4.4460956e-07
1.0122612e-06
4.5436355e-07
3.6620379e-07
1.7238348e-07
2.747619e-07
1.6680331e-07
2.8118424e-07
1.5922637e-07
3.9031882e-07
1.5471423e-07
3.5680931e-07
1.5022087e-07
3.1223003e-07
1.4938467e-07
2.5575435e-07
1.370225e-07
1.9395083e-07
1.3128223e-07
2.1224125e-07
1.2390117e-07
2.6615286e-07
1.1942117e-07
2.5525751e-07
1.1509564e-07
2.198685e-07
1.1245034e-07
2.4231565e-07
1.4107243e-07
1.8465987e-07
1.3284493e-07
2.0702873e-07
1.2441411e-07
2.625841e-07
1.1966421e-07
2.4828908e-07
1.1435825e-07
1.9810152e-07
1.1115571e-07
2.3900931e-07
1.5068668e-07
1.7994539e-07
1.3943052e-07
1.9256667e-07
1.3002896e-07
3.1437061e-07
1.2597653e-07
2.2866929e-07
1.1912467e-07
1.881821e-07
1.1740355e-07
2.3794623e-07
1.6233884e-07
1.8320074e-07
1.4762954e-07
1.9945635e-07
1.3766601e-07
3.3197169e-07
1.3531767e-07
2.3417471e-07
1.2769067e-07
1.9240842e-07
1.2528666e-07
2.3626936e-07
1.8112182e-07
1.8864812e-07
1.5679963e-07
2.1104702e-07
1.4716352e-07
3.4689667e-07
1.47401e-07
2.380795e-07
1.3890419e-07
1.9784319e-07
1.35883e-07
2.4116128e-07
1.9512103e-07
2.0281114e-07
1.6547928e-07
2.341866e-07
1.5760788e-07
3.406267e-07
1.6006327e-07
2.3864772e-07
1.4474266e-07
2.0722846e-07
1.4250267e-07
2.5354249e-07
2.0458528e-07
2.2441175e-07
1.7116981e-07
2.6323212e-07
1.6777168e-07
3.2908103e-07
1.710337e-07
2.4653699e-07
1.4480031e-07
2.2496614e-07
1.429642e-07
2.7460749e-07
2.173369e-07
2.5143194e-07
1.8468091e-07
2.9009986e-07
1.8376891e-07
3.2625158e-07
1.8679148e-07
2.627999e-07
1.5928257e-07
2.4894687e-07
1.5161015e-07
2.9595994e-07
2.2958198e-07
2.7752656e-07
1.9882646e-07
3.1037711e-07
1.9672403e-07
3.2740823e-07
1.9710522e-07
2.8019455e-07
1.7591511e-07
2.7404018e-07
1.7622372e-07
3.2652516e-07
2.4630344e-07
3.1085902e-07
2.1506117e-07
3.3585691e-07
2.0877131e-07
3.3844665e-07
2.0553236e-07
3.0050626e-07
1.9242852e-07
3.0000307e-07
2.0791513e-07
3.6058276e-07
2.6849173e-07
3.4365108e-07
2.3375712e-07
3.6419605e-07
2.237365e-07
3.6307159e-07
2.2068966e-07
3.2647514e-07
2.0970392e-07
3.2669784e-07
2.2411927e-07
4.2139733e-07
3.0932255e-07
3.9825456e-07
2.6651017e-07
4.1480316e-07
2.4995491e-07
3.9878019e-07
2.3886861e-07
3.5445094e-07
2.2309164e-07
3.5264645e-07
2.3204906e-07
4.8120518e-07
3.5522188e-07
4.5426693e-07
3.0281381e-07
4.6880658e-07
2.7776349e-07
4.3594723e-07
2.5769896e-07
3.8242581e-07
2.3724878e-07
3.784918e-07
2.3897987e-07
5.8379351e-07
4.3654949e-07
5.6632948e-07
3.690547e-07
5.6261728e-07
3.2353935e-07
4.7481932e-07
2.7838608e-07
4.1125229e-07
2.5152567e-07
4.0627027e-07
2.5062581e-07
7.2189353e-07
5.130975e-07
6.9744686e-07
4.3133802e-07
6.632302e-07
3.6441822e-07
5.4826788e-07
3.0041154e-07
4.7521169e-07
2.6913561e-07
4.4164002e-07
2.6771057e-07
9.7193661e-07
6.1930981e-07
8.9375146e-07
5.1453411e-07
8.1718952e-07
4.1628077e-07
7.1551258e-07
3.264608e-07
6.4096587e-07
2.8641682e-07
4.7327046e-07
2.8442924e-07
1.1666584e-06
7.0542695e-07
9.3458551e-07
5.7813161e-07
8.8412958e-07
4.5305558e-07
8.8887621e-07
3.4643587e-07
7.2393088e-07
3.0459383e-07
5.0817002e-07
3.0550061e-07
1.463876e-06
8.1788655e-07
1.241927e-06
6.6088181e-07
1.0475151e-06
5.0609637e-07
9.695717e-07
3.8158848e-07
7.1449524e-07
3.3769002e-07
5.5626502e-07
3.4194707e-07
1.9087714e-06
1.2242723e-06
1.8530214e-06
9.0033033e-07
1.2586967e-06
6.5068539e-07
1.222829e-06
4.9486788e-07
8.1693214e-07
4.4732782e-07
6.87399e-07
4.6346789e-07
3.3926872e-06
2.5180799e-06
3.6278252e-06
1.9361186e-06
2.2607077e-06
1.3990338e-06
2.1059846e-06
1.042603e-06
1.3931305e-06
9.5861147e-07
1.2634124e-06
1.0278989e-06
8.1591568e-06
8.8297755e-06
8.2532464e-06
6.982943e-06
7.2155898e-06
5.0231347e-06
5.2185382e-06
3.7785469e-06
4.0925225e-06
3.5571266e-06
4.1039685e-06
3.9162553e-06
9.121318e-06
1.1842208e-05
9.3439194e-06
1.2156078e-05
9.5606112e-06
1.245685e-05
9.79654e-06
1.2772869e-05
1.0088685e-05
1.3138629e-05
1.0540094e-05
1.3661007e-05
1.2822937e-05
1.7439171e-05
1.3241691e-05
1.8016299e-05
1.3646445e-05
1.8563119e-05
1.409277e-05
1.9148192e-05
1.466912e-05
1.9860065e-05
1.5619343e-05
2.0944228e-05
1.7927921e-05
2.425654e-05
1.8683051e-05
2.5244485e-05
1.941432e-05
2.6170671e-05
2.0234073e-05
2.717783e-05
2.1327986e-05
2.8457866e-05
2.3207342e-05
3.055976e-05
2.117693e-05
2.6114191e-05
2.2190872e-05
2.732391e-05
2.3177327e-05
2.8462966e-05
2.4270338e-05
2.9693094e-05
2.568902e-05
3.1250199e-05
2.8051926e-05
3.3754024e-05
2.120367e-05
2.2290944e-05
2.1476284e-05
2.3052595e-05
2.1854944e-05
2.3727122e-05
2.2428122e-05
2.4382157e-05
2.3266525e-05
2.5107767e-05
2.4314475e-05
2.6199918e-05
8.7930782e-06
9.4474546e-06
8.8766117e-06
9.5307998e-06
8.9954131e-06
9.6320285e-06
9.1430654e-06
9.7500032e-06
9.3178129e-06
9.8685798e-06
9.5094631e-06
9.9461598e-06
1.2772352e-06
1.8464203e-06
1.2702125e-06
1.8240872e-06
1.2811424e-06
1.8091569e-06
1.3059348e-06
1.7951615e-06
1.3432919e-06
1.771931e-06
1.3869427e-06
1.7152301e-06
4.2736928e-06
4.6605536e-06
3.8931743e-06
4.0953966e-06
3.5146605e-06
3.6886388e-06
3.240682e-06
3.4071285e-06
3.0319643e-06
3.1939775e-06
2.8536786e-06
3.0108153e-06
1.2721818e-05
1.3459213e-05
1.2492191e-05
1.3158715e-05
1.228893e-05
1.2594737e-05
1.2218449e-05
1.2495941e-05
1.2207084e-05
1.2413791e-05
1.2207545e-05
1.2360259e-05
2.2556933e-05
2.1406236e-05
2.4563486e-05
2.3081542e-05
2.5368339e-05
2.3823188e-05
2.5766047e-05
2.4292942e-05
2.4901548e-05
2.4687376e-05
2.4206187e-05
2.5078504e-05
2.2252129e-05
2.1642446e-05
2.4305666e-05
2.3043901e-05
2.5212917e-05
2.3595028e-05
2.577356e-05
2.3950418e-05
2.6223545e-05
2.42631e-05
2.6655852e-05
2.4581855e-05
1.6428295e-05
1.3762135e-05
1.7313675e-05
1.5749115e-05
1.7682591e-05
1.7056443e-05
1.7932728e-05
1.7476212e-05
1.8127417e-05
1.7616232e-05
1.8279961e-05
1.7749476e-05
6.5379358e-06
2.8665365e-06
7.2434506e-06
3.1550965e-06
7.1740359e-06
3.305729e-06
4.389488e-06
3.2755845e-06
3.9041239e-06
3.3161467e-06
4.7068222e-06
3.5388943e-06
1.0501452e-06
4.7270199e-07
1.0932756e-06
4.9648677e-07
1.022462e-06
5.0881701e-07
6.3362533e-07
4.9732996e-07
5.7212507e-07
5.0183009e-07
6.9564534e-07
5.3478635e-07
3.0175169e-07
1.5158831e-07
3.0931038e-07
1.5716555e-07
2.7874277e-07
1.5826854e-07
1.738929e-07
1.5102541e-07
1.5739739e-07
1.5045952e-07
1.9120221e-07
1.59994e-07
2.0282934e-07
1.1257048e-07
2.0522741e-07
1.1616149e-07
1.6759034e-07
1.1474395e-07
1.093515e-07
1.0701032e-07
1.013347e-07
1.0628364e-07
1.2748103e-07
1.1395145e-07
1.8931666e-07
1.1011083e-07
1.8246614e-07
1.1194285e-07
1.3064821e-07
1.0757994e-07
9.4360537e-08
9.8690996e-08
9.2807598e-08
9.8595931e-08
1.2426512e-07
1.0674908e-07
1.8982676e-07
1.1509755e-07
1.6687741e-07
1.137456e-07
1.1696695e-07
1.0661213e-07
9.1473156e-08
9.6886929e-08
9.6499197e-08
9.6731949e-08
1.4491658e-07
1.0483019e-07
1.8872775e-07
1.2089832e-07
1.5854288e-07
1.1693841e-07
1.1442488e-07
1.0667005e-07
9.479784e-08
9.4630625e-08
1.0319985e-07
9.3505093e-08
1.5316676e-07
1.0153585e-07
1.931101e-07
1.2926398e-07
1.6077142e-07
1.2239999e-07
1.1785533e-07
1.072761e-07
1.0105064e-07
9.2924902e-08
1.1333338e-07
9.1514934e-08
1.5416656e-07
1.0046324e-07
2.0351278e-07
1.4032731e-07
1.6913796e-07
1.2958928e-07
1.2662593e-07
1.0925644e-07
1.12422e-07
9.2927682e-08
1.2997261e-07
9.1948725e-08
1.7747054e-07
1.0314655e-07
2.2242541e-07
1.5682368e-07
1.8560064e-07
1.4080305e-07
1.4292967e-07
1.152014e-07
1.3191061e-07
9.7120574e-08
1.571105e-07
9.6994512e-08
2.1362819e-07
1.1259662e-07
2.4727395e-07
1.7534745e-07
2.0795693e-07
1.5420704e-07
1.6461172e-07
1.2342069e-07
1.5718867e-07
1.0403166e-07
1.9178483e-07
1.0601072e-07
2.5915787e-07
1.295686e-07
2.7368699e-07
1.9201454e-07
2.3236382e-07
1.6651157e-07
1.8922603e-07
1.3020398e-07
1.8736578e-07
1.0973851e-07
2.3472368e-07
1.1716065e-07
3.1515524e-07
1.5148405e-07
3.0108524e-07
2.0681387e-07
2.5749984e-07
1.7748519e-07
2.1418786e-07
1.3595724e-07
2.1865789e-07
1.1665672e-07
2.8027142e-07
1.323783e-07
3.7391445e-07
1.7361142e-07
3.2918461e-07
2.1961021e-07
2.7925907e-07
1.8478202e-07
2.3172129e-07
1.3797849e-07
2.4123705e-07
1.2380259e-07
3.1732451e-07
1.4372998e-07
4.2477267e-07
1.9165121e-07
3.5503352e-07
2.3021529e-07
2.9524065e-07
1.8797277e-07
2.4277288e-07
1.40339e-07
2.5850561e-07
1.2777877e-07
3.5287604e-07
1.5252356e-07
4.8122545e-07
2.0947624e-07
3.8093425e-07
2.3980531e-07
3.1287646e-07
1.9179843e-07
2.5872171e-07
1.4350631e-07
2.8795012e-07
1.330356e-07
4.1644922e-07
1.6419209e-07
5.6447333e-07
2.3083218e-07
4.0884836e-07
2.5152728e-07
3.4154338e-07
2.0302846e-07
2.9308105e-07
1.5271104e-07
3.4106524e-07
1.4546033e-07
5.0250963e-07
1.8524501e-07
6.6006371e-07
2.6264586e-07
4.4165976e-07
2.7114953e-07
3.8488315e-07
2.2219054e-07
3.4513248e-07
1.7127462e-07
4.2315991e-07
1.6850275e-07
6.4756874e-07
2.1943567e-07
7.9116889e-07
3.0475423e-07
4.7581475e-07
2.9111646e-07
4.301967e-07
2.4252446e-07
4.0676827e-07
1.9253684e-07
5.2853103e-07
1.9524198e-07
8.1372453e-07
2.580455e-07
9.0540823e-07
3.49313e-07
5.1428595e-07
3.140606e-07
4.808426e-07
2.6516848e-07
4.7876854e-07
2.1684948e-07
6.5859361e-07
2.269346e-07
9.8939288e-07
3.0456218e-07
1.0141667e-06
4.0272156e-07
5.6924162e-07
3.5343996e-07
5.5101605e-07
3.041663e-07
5.8177873e-07
2.5778989e-07
8.461393e-07
2.798256e-07
1.1775811e-06
3.8174279e-07
1.1586201e-06
4.896063e-07
7.2113283e-07
4.9262956e-07
7.3833457e-07
4.448858e-07
8.2967522e-07
3.9538161e-07
1.2659145e-06
4.4742969e-07
1.5749632e-06
6.2057726e-07
1.598627e-06
7.7160362e-07
1.3927763e-06
1.1509051e-06
1.550842e-06
1.1261829e-06
1.9066859e-06
1.0597911e-06
2.988344e-06
1.2514902e-06
3.3678223e-06
1.7714666e-06
3.5717757e-06
2.1825389e-06
4.7110719e-06
4.5413183e-06
5.7157717e-06
4.7385316e-06
7.5811912e-06
4.6770319e-06
9.9917885e-06
5.7261338e-06
1.0143541e-05
8.3226887e-06
1.029485e-05
1.0242802e-05
1.1250419e-05
1.4498938e-05
1.2157459e-05
1.5578288e-05
1.2613939e-05
1.6098045e-05
1.2936938e-05
1.6492297e-05
1.3223296e-05
1.6868696e-05
1.3511143e-05
1.7268248e-05
1.7164325e-05
2.2761865e-05
1.915232e-05
2.5130654e-05
2.0096691e-05
2.6231265e-05
2.0714418e-05
2.7026474e-05
2.1230837e-05
2.7752052e-05
2.1730808e-05
2.8499318e-05
2.6461218e-05
3.4250637e-05
3.0892111e-05
3.9208918e-05
3.3074469e-05
4.1465014e-05
3.4453403e-05
4.2977812e-05
3.554762e-05
4.4221712e-05
3.6556642e-05
4.5395483e-05
3.2246991e-05
3.8263183e-05
3.814484e-05
4.3960862e-05
4.0839848e-05
4.6089586e-05
4.2267218e-05
4.7217704e-05
4.2703957e-05
4.4639722e-05
4.1839056e-05
4.4786745e-05
2.6229209e-05
2.8112317e-05
2.8480664e-05
2.9816342e-05
2.7985292e-05
2.8543714e-05
2.7239901e-05
2.7236179e-05
2.6989656e-05
2.6922874e-05
2.7298239e-05
2.7529301e-05
9.59138e-06
9.7873754e-06
9.1487814e-06
8.8978031e-06
8.509054e-06
8.2626787e-06
8.0554733e-06
7.9312742e-06
7.7422732e-06
7.6990796e-06
7.5057779e-06
7.4453411e-06
1.3717209e-06
1.5628097e-06
1.2149322e-06
1.3053757e-06
1.0145256e-06
1.0942908e-06
8.7801685e-07
9.576551e-07
7.85048e-07
8.6101726e-07
7.1753517e-07
7.8272805e-07
2.6849049e-06
2.831902e-06
2.5484867e-06
2.6799014e-06
2.4376311e-06
2.5570166e-06
2.3426888e-06
2.4717318e-06
2.2603346e-06
2.4540315e-06
2.1901305e-06
2.5668072e-06
2.1924737e-06
3.0145996e-06
1.220105e-05
1.2356219e-05
1.2243986e-05
1.2398231e-05
1.2262707e-05
1.2420893e-05
1.2256133e-05
1.2425127e-05
1.2233143e-05
1.2474792e-05
1.2222506e-05
1.2583141e-05
1.2208113e-05
1.2822097e-05
2.3824633e-05
2.5474487e-05
2.3548245e-05
2.4153427e-05
2.3258574e-05
2.3367235e-05
2.3101416e-05
2.2879721e-05
2.3031733e-05
2.2560981e-05
2.3094364e-05
2.2630311e-05
2.3296351e-05
2.3051793e-05
2.7133212e-05
2.4941689e-05
2.7579286e-05
2.5304491e-05
2.7993817e-05
2.5669061e-05
2.8343233e-05
2.6061791e-05
2.8660585e-05
2.6501349e-05
2.8306097e-05
2.7016956e-05
2.7970905e-05
2.7457989e-05
1.8433936e-05
1.7888788e-05
1.858481e-05
1.8029936e-05
1.8747478e-05
1.8176331e-05
1.8945315e-05
1.8360276e-05
1.9150052e-05
1.8537483e-05
1.9420329e-05
1.8771114e-05
1.9881107e-05
1.9102301e-05
5.7184324e-06
3.6961143e-06
7.0087529e-06
3.8118174e-06
9.0486604e-06
4.0010578e-06
8.9167289e-06
4.238376e-06
9.6457804e-06
4.6814504e-06
1.0709308e-05
5.4655541e-06
1.1618664e-05
6.5786159e-06
8.8552874e-07
5.5802615e-07
1.126528e-06
5.774725e-07
1.254135e-06
6.0508734e-07
1.43515e-06
6.3786725e-07
1.3910858e-06
6.9712491e-07
1.5804314e-06
8.0722704e-07
1.8073656e-06
9.5582959e-07
2.5596055e-07
1.671269e-07
3.3091435e-07
1.731508e-07
3.4609559e-07
1.8157901e-07
3.6636584e-07
1.9085775e-07
3.9099983e-07
2.0819635e-07
4.4236616e-07
2.4798829e-07
5.0280302e-07
2.9784456e-07
1.9358293e-07
1.1927298e-07
2.2104983e-07
1.2339349e-07
2.3504486e-07
1.2944226e-07
2.4770999e-07
1.3629128e-07
2.63986e-07
1.48808e-07
3.0148799e-07
1.8149302e-07
3.484954e-07
2.2448804e-07
2.0109576e-07
1.1126645e-07
2.0351552e-07
1.1479429e-07
2.1956646e-07
1.2056268e-07
2.3194629e-07
1.2692633e-07
2.4771115e-07
1.4105563e-07
2.8489765e-07
1.743485e-07
3.384048e-07
2.2375685e-07
1.9694761e-07
1.0903293e-07
2.0235122e-07
1.1259017e-07
2.2063924e-07
1.1871205e-07
2.3335661e-07
1.2572243e-07
2.4973065e-07
1.4265597e-07
2.8866799e-07
1.7774468e-07
3.5255151e-07
2.3506574e-07
1.9307282e-07
1.0703302e-07
2.0487254e-07
1.1178437e-07
2.238798e-07
1.18751e-07
2.3723475e-07
1.2974646e-07
2.5635465e-07
1.4744144e-07
2.9832603e-07
1.8435286e-07
3.7255663e-07
2.5026437e-07
1.9849271e-07
1.0837874e-07
2.154043e-07
1.152823e-07
2.3675007e-07
1.2670285e-07
2.5093393e-07
1.3843303e-07
2.7174533e-07
1.5727808e-07
3.1766536e-07
1.9767531e-07
4.0290361e-07
2.7196184e-07
2.1859717e-07
1.149387e-07
2.3981094e-07
1.2745473e-07
2.5848449e-07
1.3996795e-07
2.7225619e-07
1.5265308e-07
2.9584368e-07
1.7347212e-07
3.4806663e-07
2.1845502e-07
4.4915073e-07
3.037762e-07
2.56798e-07
1.3224402e-07
2.7673315e-07
1.4649183e-07
2.9331678e-07
1.5868272e-07
3.0779926e-07
1.7308655e-07
3.3576482e-07
1.9831957e-07
3.9779223e-07
2.5098033e-07
5.1969119e-07
3.5016303e-07
3.0536009e-07
1.5563306e-07
3.2368282e-07
1.7046394e-07
3.3727277e-07
1.8295325e-07
3.5218682e-07
1.9851147e-07
3.8561379e-07
2.2782665e-07
4.5927984e-07
2.8936581e-07
6.0272069e-07
4.0318848e-07
3.6321073e-07
1.8121867e-07
3.7689334e-07
1.9634619e-07
3.852318e-07
2.0874769e-07
3.9982008e-07
2.2520132e-07
4.3851719e-07
2.5817401e-07
5.2379898e-07
3.277718e-07
6.8912728e-07
4.5480749e-07
4.2347975e-07
2.0662405e-07
4.3170954e-07
2.2129493e-07
4.3287906e-07
2.3350174e-07
4.4543597e-07
2.50004e-07
4.8732272e-07
2.8569289e-07
5.8090961e-07
3.6035241e-07
7.612545e-07
4.9531946e-07
4.8133577e-07
2.2903377e-07
4.9188088e-07
2.4593914e-07
4.8179141e-07
2.5656939e-07
4.8807627e-07
2.7207397e-07
5.2771349e-07
3.068466e-07
6.2173665e-07
3.816462e-07
8.098526e-07
5.1941245e-07
5.4092972e-07
2.5138126e-07
5.4666868e-07
2.6800355e-07
5.290362e-07
2.7614141e-07
5.2787941e-07
2.9034164e-07
5.5975274e-07
3.2120421e-07
6.4787445e-07
3.9206816e-07
8.3280392e-07
5.2525328e-07
6.1499428e-07
2.7503538e-07
6.1105397e-07
2.9054613e-07
5.7684123e-07
2.9690205e-07
5.6300525e-07
3.0773546e-07
5.8802798e-07
3.3528e-07
6.7019946e-07
3.9969935e-07
8.4869139e-07
5.2613972e-07
6.9820724e-07
3.0689343e-07
6.8348119e-07
3.1894672e-07
6.3426634e-07
3.2244477e-07
6.0937343e-07
3.3053204e-07
6.2926262e-07
3.555753e-07
7.0682309e-07
4.1588031e-07
8.8266519e-07
5.384817e-07
8.1370335e-07
3.4837548e-07
8.0505693e-07
3.5931649e-07
7.1800188e-07
3.5498328e-07
6.728052e-07
3.5959682e-07
6.8463541e-07
3.8434542e-07
7.6427714e-07
4.4636933e-07
9.5415103e-07
5.7323268e-07
9.0919167e-07
3.9302242e-07
9.04698e-07
4.0266898e-07
7.7777757e-07
3.8998064e-07
7.2161382e-07
3.9296932e-07
7.3579882e-07
4.1994411e-07
8.2408692e-07
4.8756196e-07
1.0313326e-06
6.2691759e-07
1.0109356e-06
4.47618e-07
1.0174734e-06
4.5588392e-07
8.5096014e-07
4.3389496e-07
7.8533696e-07
4.3606397e-07
7.9665392e-07
4.6830841e-07
9.0172051e-07
5.4904419e-07
1.1439381e-06
7.162891e-07
1.1841184e-06
5.3504983e-07
1.1602022e-06
5.414811e-07
9.6108444e-07
5.0677139e-07
8.9790324e-07
5.0934029e-07
9.017425e-07
5.5417542e-07
1.0133949e-06
6.6592295e-07
1.2978188e-06
8.9247909e-07
1.6405249e-06
8.3521712e-07
1.5607751e-06
8.4898728e-07
1.3041227e-06
7.9290132e-07
1.2421602e-06
8.0779758e-07
1.2723223e-06
8.9883623e-07
1.4197446e-06
1.117722e-06
1.8261399e-06
1.5398596e-06
3.7319208e-06
2.3753823e-06
3.5363224e-06
2.4362967e-06
3.0178429e-06
2.281292e-06
2.9592851e-06
2.3801993e-06
3.142956e-06
2.7479344e-06
3.6426857e-06
3.5624059e-06
4.6671867e-06
5.1161843e-06
1.0457358e-05
1.1204991e-05
1.061717e-05
1.1585199e-05
1.0811493e-05
1.0820571e-05
1.1055842e-05
1.1568777e-05
1.1372654e-05
1.3872545e-05
1.1756277e-05
1.4311115e-05
1.2065278e-05
1.443243e-05
1.382524e-05
1.771425e-05
1.41341e-05
1.8160098e-05
1.4519445e-05
1.8696674e-05
1.5021167e-05
1.9358262e-05
1.5679749e-05
2.018863e-05
1.6478746e-05
2.111378e-05
1.7113793e-05
2.1497781e-05
2.2266041e-05
2.9318746e-05
2.2784099e-05
3.0113705e-05
2.3459757e-05
3.1076002e-05
2.4357374e-05
3.2238507e-05
2.5528939e-05
3.3665012e-05
2.6996174e-05
3.5328606e-05
2.8207056e-05
3.6451904e-05
3.7552401e-05
4.6574171e-05
3.8448163e-05
4.7640443e-05
3.9458362e-05
4.8762893e-05
4.0698742e-05
4.8966635e-05
4.2288819e-05
4.928113e-05
4.4287902e-05
5.0755472e-05
4.6249159e-05
5.4656398e-05
4.1728043e-05
4.542842e-05
4.1520026e-05
4.5447536e-05
4.175334e-05
4.5698857e-05
4.207971e-05
4.5824035e-05
4.285363e-05
4.6396089e-05
4.4597004e-05
4.7780036e-05
4.8602008e-05
5.096674e-05
2.7612411e-05
2.7985937e-05
2.7933679e-05
2.8320455e-05
2.8219581e-05
2.8507615e-05
2.8489549e-05
2.8599608e-05
2.8944371e-05
2.8888527e-05
3.0032305e-05
2.9788726e-05
3.2740847e-05
3.2342791e-05
7.3182193e-06
7.2087456e-06
7.1971886e-06
7.0319701e-06
7.0991937e-06
6.8469427e-06
6.9768592e-06
6.6160502e-06
6.8383799e-06
6.3921134e-06
6.7729002e-06
6.2741351e-06
7.0804672e-06
6.5739538e-06
6.6653296e-07
7.106443e-07
6.2736883e-07
6.4955049e-07
5.9341146e-07
5.8658137e-07
5.513954e-07
5.1360636e-07
4.9880578e-07
4.251334e-07
4.4066616e-07
3.2966794e-07
4.1183119e-07
2.8300016e-07
2.264829e-06
3.3741133e-06
2.239875e-06
3.4589316e-06
2.100512e-06
3.1759366e-06
2.0620967e-06
3.0065886e-06
1.2128866e-05
1.2967262e-05
1.2018472e-05
1.3041029e-05
1.1910404e-05
1.3134204e-05
1.2725951e-05
1.508385e-05
2.3634159e-05
2.3545226e-05
2.4077001e-05
2.3931163e-05
2.5098211e-05
2.4892689e-05
2.8251536e-05
2.8475666e-05
2.8431753e-05
2.8197328e-05
2.8731147e-05
2.9194993e-05
3.0133864e-05
2.9707074e-05
3.4232258e-05
3.3531065e-05
2.0382737e-05
1.9596961e-05
2.0944103e-05
2.0250739e-05
2.1622446e-05
2.1270555e-05
2.2622214e-05
2.2967994e-05
1.1669586e-05
7.8620542e-06
1.1805802e-05
9.6072519e-06
1.1935617e-05
1.2292931e-05
1.2232344e-05
1.2920165e-05
2.0833984e-06
1.1024761e-06
2.5070776e-06
1.3149551e-06
3.1532399e-06
1.7544203e-06
3.7261366e-06
2.2885361e-06
5.6746903e-07
3.3742019e-07
6.5378675e-07
3.8220798e-07
7.6947291e-07
4.6056748e-07
8.5128891e-07
5.338336e-07
3.9446043e-07
2.5735049e-07
4.4803615e-07
2.8801064e-07
5.1393748e-07
3.3384146e-07
5.7361826e-07
3.80242e-07
3.8996044e-07
2.6363169e-07
4.4376711e-07
2.9701136e-07
5.0301669e-07
3.3898168e-07
5.5953216e-07
3.8184235e-07