/*--------------------------------*- C++ -*----------------------------------*\
| =========                 |                                                 |
| \\      /  F ield         | OpenFOAM: The Open Source CFD Toolbox           |
|  \\    /   O peration     | Version:  2206                                  |
|   \\  /    A nd           | Website:  www.openfoam.com                      |
|    \\/     M anipulation  |                                                 |
\*---------------------------------------------------------------------------*/
FoamFile
{
    version     2.0;
    format      ascii;
    arch        "LSB;label=32;scalar=64";
    class       volScalarField;
    location    "100";
    object      omega;
}
// * * * * * * * * * * * * * * * * * * * * * * * * * * * * * * * * * * * * * //

dimensions      [0 0 -1 0 0 0 0];

internalField   nonuniform List<scalar> 
50904
(
5226756.6
5280567.9
5215773.4
5272446.1
1363944
1356716
1376382.5
1332103.5
535076.9
510638.96
519474.89
476245.5
265207.75
232179.08
233179.63
195322.6
123244.56
101483.86
93394.385
75827.742
39713.501
33231.493
28697.87
24910.508
10390.904
9758.7336
8294.3918
8320.9475
2848.6597
2695.678
2234.4536
2142.0418
522.65109
500.36146
398.34117
401.65474
102.02626
116.39204
86.186435
105.47655
42.501904
58.594939
43.435967
62.360366
36.257876
50.721676
38.495165
55.389934
34.216547
46.728552
36.192695
50.920715
31.966702
42.684022
33.631801
46.388834
29.586251
38.638684
30.92641
41.848218
27.168149
34.735231
28.186266
37.472393
24.985961
31.402545
25.81507
33.8252
23.143116
28.631687
23.807832
30.834335
21.385266
26.091261
22.022155
28.324687
19.953992
24.023483
20.559728
26.321149
18.827384
22.400658
19.34053
24.654143
17.984289
21.171181
18.420109
23.321194
17.438055
20.376287
17.846447
22.459843
17.307388
20.290688
17.858743
22.756441
18.821412
23.050378
21.213264
28.939312
34.020897
46.6065
48.696145
71.334965
157.9053
213.53397
231.84005
314.21567
971.63243
1233.5454
1256.1163
1580.8038
4919.4115
5734.5151
5614.9044
6219.6644
21733.077
25006.977
22840.822
24501.157
73361.786
82505.449
74582.231
78565.547
178880.48
184943.42
182361.1
181158.19
324259.07
317971.13
329854.34
316782.04
583779.85
572891.32
586666.04
573370.3
1270833.3
1269036.9
1260672.3
1268917.8
5189762.1
5191905.1
5231556.1
5222162.8
5182381.3
5215908.1
5129604.3
5124737.8
5098892.3
5050675.4
5076454.6
5007210.9
5063014.9
4980467.3
5055707
4963661.4
5051620.7
4952105.6
1362948
1299879.6
1307661.9
1217806.2
1260527.1
1116513.1
1240447.1
1101441.8
1241970.5
1108288.8
1254820.2
1122134.4
1271559.1
1137614.2
483587.4
434773.73
430435.13
376887.17
408932.58
358136.05
402576.24
355952.32
404072.08
358521.23
407974.88
363056.27
413024.01
369066.37
196720.53
165916.87
162605.68
143146.7
160542.12
144177.65
163404.32
147429.32
167103.72
150733.19
170624.9
153660.64
173853.32
156330.44
74000.843
63363.157
65310.825
60545.094
68154.744
63769.821
71002.174
65534.129
73256.195
66844.676
75165.001
67985.298
76882.279
69140.824
24536.215
22864.083
24038.949
24388.737
25161.184
25360.37
25757.203
25033.539
26184.323
24798.664
26652.594
24769.323
27167.076
24951.473
7881.146
8183.9108
7965.8656
8740.9835
7905.3497
8486.796
7635.8355
7978.6256
7441.2207
7729.9214
7406.0544
7652.3839
7496.2204
7679.9581
2070.1094
2054.2598
1971.3475
2072.306
1900.8456
1963.4151
1822.5295
1827.4624
1781.3665
1769.9349
1776.4868
1750.4261
1793.8763
1755.6969
374.32412
400.23665
360.20663
421.13945
345.3057
394.02144
327.36006
356.48731
318.00734
342.39364
316.26052
337.30555
319.08392
337.23475
84.385897
108.39101
80.889255
114.15158
75.325444
102.66556
70.054703
91.330156
67.329685
87.054672
66.726057
85.571196
67.241264
85.337259
44.888492
67.162407
44.194061
74.052562
41.170647
66.714108
38.292967
59.047658
36.856253
56.318805
36.596479
55.126189
36.948862
54.956952
40.201574
60.361437
40.317428
68.372013
37.889793
62.634552
35.428499
55.356721
34.268874
52.835092
34.17156
51.709549
34.610387
51.720951
37.781423
55.727073
38.298984
64.218174
36.273611
59.699922
34.086322
53.191001
33.135084
50.285975
33.177674
49.42757
33.667172
49.542721
35.139408
51.041462
36.006489
59.413252
34.418992
55.872915
32.510818
50.100753
31.735373
47.588579
31.882558
46.958439
32.37452
47.176669
32.28789
46.249786
33.329357
54.046562
32.171286
51.554854
30.570165
46.696276
29.952913
44.673364
30.16521
44.328777
30.615833
44.668977
29.385802
41.588723
30.432647
48.468151
29.602621
46.77701
28.294428
42.831989
27.809835
41.262245
28.0488
41.125978
28.445569
41.501414
26.911917
37.728462
27.924502
43.66728
27.342264
42.514442
26.306389
39.367168
25.947819
38.173771
26.205054
38.168681
26.55026
38.520102
24.822585
34.536253
25.754181
39.563686
25.316038
38.742002
24.493617
36.298581
24.233966
35.443762
24.493029
35.540991
24.799812
35.870652
23.000968
31.760474
23.898604
36.150771
23.606115
35.607576
22.961618
33.767881
22.776527
33.207765
23.025764
33.389761
23.308654
33.721179
21.505866
29.466738
22.285942
33.227936
22.053758
32.83136
21.531928
31.487629
21.398174
31.180473
21.628994
31.434136
21.901411
31.788015
20.241558
27.516493
20.939202
30.743731
20.749774
30.418457
20.316551
29.426751
20.218732
29.396955
20.43261
29.684767
20.688877
30.048459
19.233687
25.892335
19.802107
28.595754
19.592582
28.23885
19.19257
27.41085
19.097968
27.515871
19.283134
27.8604
19.516792
28.227642
18.597697
24.800305
19.016512
27.105801
18.732158
26.686584
18.30124
25.947242
18.173756
26.08243
18.319681
26.444948
18.524732
26.819072
18.695926
25.296195
19.172294
27.991712
18.966293
27.898295
18.599019
27.418216
18.508327
27.82631
18.68717
28.421505
18.929913
28.954121
23.122403
33.425491
24.325373
39.005513
24.869407
41.10401
25.138978
42.24012
25.56413
44.11425
26.191531
45.792175
26.822246
47.30063
55.975794
84.062483
60.077951
103.25979
65.133197
117.03183
69.447411
127.23322
73.146659
137.14489
76.638132
145.11052
79.728452
151.71513
254.35317
339.76364
257.06879
394.76732
280.99343
460.38585
305.94115
515.43269
326.91492
563.37823
344.95814
600.96224
360.13878
630.66605
1277.9433
1560.9829
1188.5044
1686.5878
1265.209
1898.8797
1353.4974
2079.0541
1427.226
2229.8311
1497.3651
2359.4242
1559.7181
2463.3875
5190.4689
5607.0094
4476.6736
5515.5078
4720.6007
6199.2907
5110.2941
6883.7041
5451.5181
7438.1726
5725.0725
7852.9795
5936.812
8170.0903
19573.136
19818.991
15568.264
17609.38
16219.757
19992.18
17737.753
22503.423
19089.825
24373.777
20070.675
25696.372
20791.883
26675.112
61661.26
59786.825
44751.649
46311.496
44453.106
50247.76
48185.556
56208.06
51654.474
60816.875
54211.969
64064.427
56045.951
66393.968
160326.47
149494.22
114315.81
107208.28
102578.04
103246.16
106154.8
109949.18
111404.22
116557.72
115640.58
121603.83
118778.72
125333.91
316920.14
292947.71
272171.51
245156.09
232143.89
218230.72
228983.23
215429.13
233316.34
218443.15
237357.75
222682.15
240468.27
226779.06
596839.09
574630.11
592362.59
551253.45
552847.41
508461.99
539736.32
491728.16
546529.98
484784.04
550938.59
482690.34
551594.39
489747.89
1285008.8
1305474.2
1346589.9
1349166.2
1371646
1356721
1364363
1351736.5
1367807
1352485.1
1376935
1352923.7
1381884.6
1350466.6
5225334.7
5205520.4
5189129.6
5148506.8
5178774.3
5125355.9
5173692.7
5112555.1
5165147.3
5100243.5
5155286.6
5089683
5147870.8
5082202.3
5048077.6
4942007
5043854.9
4931044.7
5040245
4922379.7
5036355.8
4913505.5
5030827.9
4901449.6
5020826.6
4880233.7
1288586.9
1155699.2
1305682
1176813.1
1318495.2
1195197.7
1326930.2
1212511
1331108.7
1230206.5
1333275.9
1247889.7
419342.76
375002.94
425741.26
380939.73
430844.1
385695.67
435290.44
390038.59
439338.77
394351.93
443042.83
399038.23
176849.68
158882.71
179919.23
161607.68
182411.05
163795.1
184737.3
165842.03
187297.55
168055.26
190918.92
171086.72
78467.82
70367.27
80047.443
71707.139
81299.93
72780.565
82477.403
73783.081
83899.593
74879.861
86095.458
76375.492
27668.035
25296.638
28145.396
25724.525
28493.511
26063.754
28805.191
26370.975
29227.891
26678.657
29825.955
27000.598
7613.5449
7768.0513
7710.4779
7872.3183
7741.4032
7954.6201
7758.4535
8029.5432
7865.9722
8104.4918
8019.2904
8160.4998
1815.9684
1774.2629
1831.8177
1794.2333
1838.2598
1810.6693
1845.7055
1825.2524
1866.5694
1838.207
1889.5596
1843.5048
322.61306
340.39991
324.63293
343.47626
325.19321
345.96883
326.52152
348.11937
329.79433
349.91027
333.59695
350.04257
67.908994
85.94513
68.168937
86.503268
68.129303
86.936899
68.347495
87.288798
69.104201
87.527806
70.047908
87.210071
37.279589
55.268088
37.361716
55.487205
37.262464
55.602132
37.265847
55.651832
37.762494
55.635834
38.15493
55.162979
34.903512
52.066988
34.941357
52.277356
34.826302
52.361336
34.818217
52.381066
35.273026
52.361073
35.598588
51.939584
33.894781
49.917342
33.86876
50.142384
33.726707
50.196694
33.707928
50.198432
34.119784
50.186894
34.342531
49.80658
32.524986
47.547144
32.442057
47.749219
32.294221
47.79308
32.286458
47.81648
32.607295
47.854631
32.662645
47.43411
30.690949
45.034138
30.55858
45.20574
30.40731
45.234415
30.395326
45.281685
30.587469
45.352194
30.477325
44.770265
28.474644
41.794968
28.323765
41.893346
28.179173
41.884778
28.149399
41.906866
28.226632
41.939194
28.011142
41.374294
26.543657
38.716988
26.382065
38.729579
26.240959
38.669823
26.185826
38.628677
26.172667
38.555043
25.884987
37.967984
24.786454
36.011445
24.643633
35.98445
24.524176
35.898675
24.462962
35.808219
24.401431
35.644496
24.088237
35.04447
23.306904
33.864021
23.189709
33.856323
23.090133
33.787774
23.032914
33.702761
22.966603
33.552592
22.680711
33.046838
21.937455
31.984064
21.875538
32.057492
21.818833
32.056372
21.792939
32.028269
21.748499
31.928726
21.507893
31.509154
20.743263
30.280691
20.714114
30.415337
20.685155
30.467636
20.681448
30.486401
20.654248
30.433846
20.450124
30.104307
19.585247
28.49488
19.597899
28.703393
19.613722
28.825939
19.644726
28.902274
19.628469
28.878156
19.443711
28.587955
18.608517
27.108414
18.658168
27.360164
18.704748
27.527317
18.754063
27.640068
18.758529
27.640034
18.632021
27.38373
19.062351
29.399331
19.188737
29.82752
19.297204
30.153274
19.403467
30.415272
19.50615
30.555758
19.604212
30.439203
27.25781
48.557657
27.714131
49.82899
28.102919
50.892699
28.497247
51.849336
28.982926
52.639304
29.577194
53.145849
82.06461
157.28959
84.545152
162.99137
86.847679
167.93349
89.205323
172.54959
92.033252
176.79254
95.586395
180.7452
371.93585
656.05972
384.51022
682.95668
396.54464
706.64475
408.92159
729.50699
424.34298
753.11905
445.10633
781.96552
1608.723
2554.4102
1662.9086
2651.671
1715.4192
2739.0995
1770.5605
2824.5733
1841.019
2907.9179
1934.2106
3010.1954
6104.3232
8426.3895
6284.1583
8701.605
6458.793
8957.5169
6649.7377
9221.9567
6891.3656
9524.0281
7272.9456
9961.2692
21351.811
27452.798
21946.229
28280.555
22518.319
29051.041
23147.116
29861.507
23953.796
30837.535
25275.739
32338.044
57431.635
68173.129
58916.553
70064.438
60334.975
71790.491
61910.245
73634.619
64007.164
75977.291
67651.739
79850.732
121224.18
128188.16
123885.55
131239.89
126431.89
134004.09
129255.76
136978.86
133009.49
140834.03
139565.48
147508.37
243000.76
230139.28
245725.74
234094.15
248361.53
237787.54
251151.38
241647.25
254483.45
246373.89
259644.46
253850.42
550465.56
495796.25
548188.29
501680.11
545655.31
506321.34
542758.88
509889.74
539463.72
513334
536832.08
519820.19
1382331.8
1346370.9
1380054.5
1341061.9
1372469.1
1334942.5
1360916.7
1327929.3
1346768.3
1319519.6
1332205.6
1308301
5143703.7
5077142.3
5149051.5
5080116.9
5154590.1
5082806.1
5161326.5
5085524.1
5171678.3
5089093.8
5186755.3
5092475.3
5002366.9
4850075
4979035.8
4821806.4
4960250.6
4801815.4
4947199.6
4788457
4937258.8
4778302.7
4928374.1
4769110.5
1327584.3
1250845.6
1318446.8
1266534.1
1314763.6
1281833.5
1312131.2
1283870.4
1309782.4
1284627.7
1307204.4
1284045.3
448122.68
405200.57
461070.69
416689.28
472436.34
424857.08
480494.76
430504.14
486169.21
435458.51
490413.39
440630.53
198985.14
177565.77
209627.31
184814.9
214792.24
187772.72
217846.7
189489.25
220101.46
190901.69
222183.07
192353.04
90921.835
79376.664
95716.194
81789.928
97500.12
82521.444
98565.679
83004.981
99320.792
83437.445
99881.343
83859.735
30855.579
27384.792
31710.266
27413.078
32064.884
27384.935
32310.761
27418.909
32367.052
27454.864
32320.715
27485.045
8164.2137
8104.9145
8297.8311
7872.8234
8378.5311
7737.0914
8415.8508
7657.2574
8278.5781
7583.957
8085.2139
7509.6644
1896.5611
1809.8017
1881.6985
1733.6563
1876.8298
1698.3025
1870.9346
1679.1807
1840.8594
1662.2036
1798.723
1644.6093
334.41253
341.24937
330.49835
323.64408
328.82713
315.65766
326.01469
310.96987
318.8394
306.61547
309.85342
302.15413
69.64764
83.920861
68.153739
78.335709
67.168583
75.778956
65.587466
74.187354
63.269743
72.77268
60.823525
71.390425
37.554155
52.778975
36.485942
49.076855
35.493295
47.273869
34.218617
46.124097
32.814679
45.125604
31.505928
44.152402
34.965148
49.838825
33.705626
46.467278
32.536962
44.788417
31.277496
43.68926
30.033315
42.699106
28.929822
41.704794
33.582101
47.92564
32.252965
44.930589
31.076101
43.393977
29.87475
42.303476
28.757372
41.27787
27.821577
40.233479
31.761527
45.496126
30.383289
42.883957
29.226908
41.472129
28.119161
40.383022
27.146465
39.325962
26.374246
38.252344
29.495809
42.374165
28.139203
40.128476
27.055484
38.836487
26.08289
37.776618
25.278269
36.735672
24.673765
35.691116
27.039009
38.921289
25.780605
36.965561
24.810679
35.78102
23.983485
34.771016
23.332247
33.784077
22.866796
32.822755
24.942921
36.043837
23.781851
34.279378
22.913024
33.166668
22.20649
32.179845
21.678863
31.219896
21.323779
30.345571
23.211362
33.659874
22.154324
32.027955
21.380153
30.969977
20.770516
30.001143
20.335174
29.086462
20.058636
28.328985
21.903626
31.827507
20.936712
30.269745
20.245827
29.253223
19.699583
28.292241
19.31878
27.442438
19.087621
26.761879
20.833166
30.353926
19.924501
28.830823
19.302553
27.847634
18.80601
26.929325
18.467853
26.138167
18.273403
25.519486
19.859964
29.010101
19.001355
27.517297
18.447183
26.58486
18.009195
25.728937
17.727256
25.006525
17.585259
24.459182
18.913422
27.566093
18.107819
26.110426
17.629204
25.253216
17.269236
24.476323
17.054182
23.842424
16.959311
23.385253
18.147121
26.435714
17.376271
25.074893
16.96366
24.305705
16.673874
23.626142
16.520399
23.098594
16.474886
22.745007
19.206222
29.573445
18.501865
28.256686
18.146221
27.521117
17.917613
26.885918
17.82691
26.425101
17.835626
26.152291
29.555002
52.62816
29.06355
51.320604
28.831326
50.529768
28.720417
49.834162
28.790392
49.430465
28.981639
49.33855
98.383724
182.38932
99.998261
182.18139
100.72943
182.15689
101.41358
181.9809
102.51782
182.52652
103.86957
183.89229
469.96576
817.66364
495.93488
856.00037
508.48151
869.48422
517.59571
877.68104
527.13468
887.71565
537.10773
901.24829
2049.5973
3146.5615
2186.3872
3318.8492
2253.6763
3372.9961
2303.7357
3405.0625
2352.6953
3444.8659
2401.56
3504.5037
7893.1184
10674.402
8698.6877
11618.957
9089.1024
12023.499
9343.4133
12307.339
9556.8024
12578.975
9761.8831
12865.527
27434.809
34872.024
30226.514
38138.19
31513.836
39502
32335.68
40419.903
33021.612
41237.35
33691.374
42086.252
73912.995
86941.8
82327.492
96500.876
86036.248
100260.59
88195.495
102550.54
89843.993
104403.68
91353.645
106199.96
151877.74
160380.85
170636.12
179326.74
179648.98
187250.29
184722.06
191714.75
188253.47
194831.54
191211.99
197524.27
271496.28
269487.59
294662.55
295962.22
308278.04
308827.96
315808.56
315312.94
320191.03
318771.38
323000.34
320788.49
542002.59
535369.92
562661.34
560226.06
576615.97
571894.11
581709.9
575544.8
582348.12
575116.25
581000.48
572953.54
1312954.6
1291623.6
1292026.6
1264044.9
1276569.7
1241731.2
1261962.7
1223768.4
1248733.1
1208521.9
1237436.5
1195374.1
5206238.1
5096789.7
5217263.4
5095544.9
5213990.8
5089002.9
5210268.3
5083958.3
5206896.3
5079646.6
5203712
5075405.1
4927845.4
4768934.6
4920975.2
4761692
4916270.3
4756526.3
4914456.8
4754834.9
4917506.3
4759912.5
4930754
4780044.3
4977461
4849764.8
1303430.4
1281351.8
1299025.2
1278233.3
1294847.5
1275677.4
1290122.2
1272497.2
1285448.6
1266424.4
1281253.6
1256329.2
1279256
1243261.6
494498.62
446817.9
497931.17
452283.56
500738.71
455828.44
502865.93
458639.64
504685.8
460752.84
507211.43
461878.44
511620.44
462248.99
224640.44
194153.84
227048.89
196004.16
229361.9
197808.47
231438.94
199823.88
233630.71
202180.48
236561.46
205236.67
241390.55
208418.81
100492.19
84343.102
101193.57
84903.628
102006.08
85506.434
103082.96
86313.399
104385.39
87223.008
106383.81
88646.866
110209.16
90997.581
32323.126
27522.442
32443.665
27619.864
32642.183
27732.285
32943.977
27860.469
33302.438
27993.681
33834.469
28199.48
34850.672
28693.716
7875.4083
7424.6393
7773.5374
7379.8649
7751.0969
7350.5721
7755.5865
7318.3666
7802.0548
7258.6996
7826.5281
7124.9219
7936.9043
7012.2925
1756.1182
1624.4654
1736.6963
1612.8606
1731.149
1603.7953
1726.9927
1593.1979
1721.5922
1575.7485
1715.0729
1547.362
1721.1206
1524.0051
301.40137
297.23211
298.6177
294.1578
297.34907
291.31685
296.13619
287.81264
294.32243
282.37165
291.52827
273.61882
289.59824
264.30437
58.743694
69.891405
58.097489
68.797351
57.493589
67.63381
56.846137
66.198722
55.953429
64.059783
54.584173
60.823096
52.921034
57.008281
30.564356
43.073064
30.136087
42.187879
29.691962
41.217813
29.215685
40.036961
28.577069
38.349759
27.612956
35.953037
26.335372
33.002346
28.13724
40.572507
27.698231
39.628527
27.260062
38.600236
26.784315
37.350378
26.136901
35.681854
25.168475
33.295445
23.859592
30.272003
27.073166
39.036234
26.633891
38.044133
26.206325
36.979019
25.73848
35.761974
25.088481
34.115779
24.104689
31.727363
22.75583
28.668408
25.779011
37.054236
25.400112
36.083988
25.023345
35.099198
24.576497
33.942917
23.925285
32.336698
22.92436
29.97279
21.532451
26.894401
24.221781
34.586338
23.922356
33.761889
23.600148
32.899248
23.183555
31.809663
22.548507
30.247118
21.560151
27.956236
20.188585
24.998656
22.53026
31.892401
22.302785
31.23194
22.038313
30.499172
21.664633
29.519642
21.067744
28.060306
20.131542
25.904469
18.844532
23.158583
21.079439
29.590201
20.914438
29.064313
20.703918
28.447035
20.375977
27.578063
19.827774
26.240511
18.961524
24.250844
17.780798
21.739296
19.878443
27.704559
19.760702
27.284273
19.5977
26.765324
19.317764
26.005525
18.827846
24.800419
18.044718
22.999169
16.980223
20.726672
18.943982
26.214213
18.856734
25.856642
18.739107
25.424059
18.51457
24.775765
18.099814
23.731347
17.419612
22.143626
16.475423
20.115098
18.163268
25.039682
18.099762
24.7337
18.01432
24.374155
17.843071
23.833225
17.513988
22.963258
16.952769
21.600047
16.135917
19.79795
17.520225
24.051147
17.486791
23.795607
17.439314
23.501042
17.321011
23.060003
17.065438
22.33775
16.600647
21.181482
15.893529
19.581733
16.92651
23.063238
16.912128
22.871182
16.886945
22.642543
16.801724
22.28811
16.595417
21.687536
16.20323
20.696186
15.58499
19.255476
16.47319
22.508885
16.479144
22.382221
16.483527
22.22151
16.431332
21.93262
16.260203
21.399265
15.900192
20.478452
15.310346
19.100903
17.872614
25.990199
17.90732
25.928816
17.945121
25.827066
17.916476
25.564745
17.751325
25.0041
17.372526
23.963089
16.719486
22.298953
29.193757
49.399744
29.399566
49.644565
29.635727
49.839159
29.783519
49.744206
29.732783
49.085277
29.296902
47.404727
28.176501
44.019736
105.23329
185.57203
106.66175
187.84491
108.32502
190.17398
109.88894
191.82647
111.10853
191.87713
111.01808
188.15567
107.25683
175.43251
547.73594
917.30526
557.42567
932.99255
568.94979
950.30913
581.6358
966.67125
595.26278
979.31411
605.78683
978.34244
595.84654
928.57186
2454.9898
3578.8123
2503.9834
3653.5568
2565.1381
3744.3673
2640.544
3847.8528
2735.2192
3967.5793
2840.9951
4083.2408
2892.6988
4063.1199
9980.3444
13180.577
10190.832
13497.095
10455.83
13884.899
10801.012
14374.061
11252.826
15001.606
11782.103
15694.004
12143.08
15928.818
34420.41
43043.682
35122.563
43984.215
36020.55
45152.917
37216.498
46647.689
38803.187
48586.431
40718.311
50822.334
42217.425
51949.037
92953.852
108171.38
94463.618
110012.62
96504.344
112334.6
99278.525
115233.99
102936.7
118886.26
107564.95
123201.61
111532.11
126290.61
194044.84
200293.56
196432.08
202781.15
199040.84
205465.64
202265.7
208597.44
206380.83
212316.45
211467.38
216361.28
217059.73
218981.88
325131.59
322509.25
326750.95
324202.91
328176.85
325806.51
329830.84
327719.37
331979.31
329302.87
334589.13
330369.93
337508.28
328032.38
579123.94
570969.59
577555.24
570219.05
575407.5
570201.32
573980.32
570863.54
572821.78
571017.86
568591.04
568030.55
556420.88
551790.05
1228781.1
1184737.9
1221292.4
1177083.7
1214469
1172463.5
1210546.6
1171254.3
1212227.1
1172305.4
1223826.8
1179947.9
1250961.3
1204215.6
5216489.2
5086516.1
5227487.7
5096938.4
5244883.9
5113728.5
5275587.7
5144242.2
5334353.6
5203706.6
5453381.6
5325889.1
5692569.9
5573118.8
5029868.9
4931399.2
5107762.4
5037736.3
5225963.8
5187799.6
5405053.6
5391703.3
1285079.1
1247763.5
1296986.4
1265346
1327256.1
1314994.8
1374686.5
1380748.8
521016.34
469686.36
535404.33
485177.5
558396.14
518986.99
575413.13
554428.13
249843.92
215846.63
261774.02
227540.46
279453.68
249626.82
298040.82
277059.59
116383.45
96325.382
124460.37
103746.73
136401.74
117196.61
148965.84
134318.43
36934.961
30414.334
39687.076
32867.494
43616.927
37319.003
46643.107
42263.266
8236.7426
7173.3788
8665.893
7516.1157
9185.1071
8099.0769
9215.8275
8449.9204
1751.6345
1542.0675
1800.407
1598.6697
1825.8687
1670.462
1675.6719
1603.1768
288.48887
260.03614
291.00438
263.68088
280.75384
261.89768
227.5027
224.56909
50.705619
53.32893
49.746277
52.26684
47.128858
50.720298
40.032449
45.829606
24.835635
30.097246
24.055661
28.970031
23.450186
28.553784
23.311635
29.30687
22.409783
27.34554
21.702551
26.21546
21.400434
26.006171
21.923929
27.318778
21.303768
25.738495
20.607707
24.597532
20.332297
24.378324
20.897871
25.685263
20.11125
24.064606
19.483386
23.012577
19.311434
22.890691
19.953573
24.257771
18.912062
22.465318
18.430462
21.593385
18.424587
21.596562
19.250518
23.11294
17.73013
20.933024
17.341292
20.197302
17.433991
20.30709
18.430379
22.034594
16.821756
19.786047
16.532376
19.178022
16.759723
19.420916
17.915658
21.329285
16.130282
18.952935
15.886931
18.399095
16.191727
18.706991
17.474703
20.724788
15.647107
18.382551
15.391244
17.802376
15.686404
18.0779
16.942228
20.063664
15.316277
18.073182
15.027771
17.428402
15.287455
17.626267
16.649337
19.760577
15.075125
17.843407
14.737012
17.102857
14.937107
17.215483
16.451956
19.57411
14.835006
17.611961
14.485727
16.827496
14.740129
16.99884
16.38072
19.596922
14.640966
17.564457
14.291667
16.766482
14.70619
17.163035
16.446029
20.106957
15.965953
20.375417
15.415247
19.205633
15.834729
19.75159
17.839686
23.830442
26.63096
39.748114
24.311458
35.888347
23.809363
35.856762
26.654841
44.242226
100.96078
156.5899
88.433003
138.8879
80.547653
132.41416
84.262495
154.2018
551.02599
808.41758
485.98146
716.29579
429.32415
657.78807
412.62754
693.78126
2810.6231
3817.7631
2537.0814
3425.4459
2232.3065
3062.7145
2033.4391
2954.6956
12220.6
15648.852
11296.081
14357.562
10029.949
12857.843
8956.8225
11886.158
42616.185
51548.264
40142.098
48408.565
36030.896
43763.279
32174.562
39856.051
112255.23
125948.03
108618.02
121484.37
99920.339
113772.57
91237.726
106011.63
218836.22
219541.28
214693.86
216609.79
207839.93
212583.7
200550.97
209540.29
340672.88
328553.44
341776.02
330041.29
343556.23
333214.28
348170.88
341389.22
556797.27
545812.97
561004.19
548843.6
573053.78
560096.79
599900.76
584090.43
1261363.1
1225409.1
1263828.4
1227959.4
1272774.9
1236087.9
1287580.6
1255508.5
5785661.1
5684341.9
5656328.6
5581147
5509309.2
5463231.8
5361070.5
5343506.1
5257598.1
5204938.1
5162914.8
5107610
5091919.2
5028950.6
1365317.8
1344654.5
1338604.8
1311451.1
1375001.4
1356687.8
526811.21
531681.18
521522.49
522115.85
560543.19
565417.81
253417.18
276322.17
266970.07
282434.23
298346.01
310373.6
118526.15
137435.24
139464.44
154965.7
164278.17
172665.82
40008.993
46314.573
55780.375
62248.018
76756.042
80320.57
10789.626
11523.499
17322.692
18920.459
32524.597
33890.515
3056.7155
3093.0698
5807.3655
5800.9174
14674.413
14887.416
580.40447
585.51848
2000.668
2000.1853
7716.4497
7409.0759
127.59615
111.72208
547.05937
509.65441
4537.7101
4150.6863
57.76941
42.941136
168.78734
150.46842
2109.7863
1873.3283
49.230982
36.014833
75.999663
61.311925
792.74565
693.60434
45.827215
34.364254
55.497042
42.794265
335.2244
277.06631
42.322615
32.499386
48.784754
37.709969
132.92221
109.0366
38.73386
30.455725
44.570521
35.151554
74.597893
60.748468
35.098218
28.228146
39.962398
32.201812
54.703964
45.080386
31.7965
26.005031
35.468857
29.117159
44.354871
37.226166
29.093053
24.177467
31.86938
26.660842
36.480022
31.144394
26.565046
22.357134
28.747102
24.435969
31.620339
27.365599
24.529915
20.894767
26.040554
22.386562
29.606903
26.006993
23.104396
19.883523
24.321955
21.200195
27.835015
24.805774
22.121681
19.215244
23.272903
20.431015
27.058871
24.310625
21.466289
18.764622
22.673702
20.000498
27.077909
24.49021
21.417709
18.695937
22.64576
19.95097
27.224661
24.6628
23.537589
19.801859
23.920061
20.511313
27.728097
24.991968
43.169892
31.809472
35.969787
26.796344
31.331137
26.764775
193.98478
139.10395
138.09028
89.732161
65.853977
45.780209
1159.2645
881.53798
832.29591
573.39016
350.93978
228.44461
5516.2732
4553.433
4277.9259
3273.6589
2103.3961
1503.8691
23985.124
20038.254
19985.764
15753.395
10978.303
8035.0627
78236.728
66535.702
71463.753
58738.492
48435.442
36822.835
180826.7
170506.51
175282.34
161252.97
152087
128480.09
319733.22
322095.14
322605.02
319707.75
326248.79
311843.44
584909.59
593484.81
601131.65
608721.01
642232.01
642550.03
1284573.3
1290820
1291274.7
1307529.4
1391854.2
1425481.1
5137796.1
5132877.4
5072087.5
5079770.1
5027807.8
5052256
5038347.9
4977173.3
5008014.4
5048659.8
5097510.8
5167662.8
5030524.8
4969661.2
4998081.7
5037267.8
5086842.6
5160937.5
1199732.7
1360470.7
1277952.6
1264714.7
1289734.7
1333030.3
1194938.8
1347119.4
1279507.5
1279852.1
1314911.1
1357073.6
399266.19
579809.23
586866.21
568240.09
554865.2
546819.01
408229.38
591027.36
598314.18
580748.54
563947.65
543797.9
143863.56
242509.46
293736.8
306082.49
300108.79
285765.43
148631.67
250345.75
293043.25
297473.18
283579.18
261856.67
52273.02
93221.383
123390.28
141433.68
145994.33
138683.82
54833.776
94705.965
116764.57
124829.68
120605.47
108848.38
17296.925
31534.82
40526.639
44995.005
46468.058
44489.755
18311.755
30917.897
35361.617
36550.215
35309.717
32428.369
4856.7843
8916.875
11002.298
11565.994
11533.645
11068.616
5128.942
8398.1142
9041.1063
9084.9306
8801.0882
8467.1789
1090.6019
2006.3701
2442.6431
2590.5031
2711.9482
2847.4177
1131.3834
1805.6331
1947.9134
2034.7706
2146.5482
2225.9925
195.88631
364.70033
448.23236
485.60703
511.44055
525.7314
197.47452
309.52182
341.19468
361.38182
377.02505
391.20997
33.117274
55.568727
66.530908
73.920901
81.998039
91.439847
32.199474
45.126876
50.689423
56.301991
63.36143
73.294162
12.614759
15.825741
18.394472
21.476096
25.970014
32.808327
12.424236
14.566187
16.874135
19.987449
24.727725
32.294164
10.822103
12.248273
14.213395
16.946209
21.050605
27.362783
10.720096
12.132597
14.177376
17.033999
21.415016
28.368832
10.727409
12.027172
13.932186
16.56528
20.438016
26.247851
10.63564
11.96984
13.940768
16.666909
20.761436
27.123748
10.752736
11.954367
13.734508
16.181172
19.7238
24.931553
10.56129
11.79349
13.635871
16.164491
19.89722
25.58398
10.714571
11.822031
13.473421
15.725846
18.925952
23.525719
10.501313
11.617539
13.31216
15.623879
18.977623
23.971891
10.697072
11.724453
13.221352
15.242102
18.058461
22.028615
10.468985
11.466104
12.983142
15.03585
17.967542
22.258097
10.656624
11.585835
12.916093
14.705781
17.167853
20.5952
10.436589
11.318173
12.661071
14.471257
17.027665
20.725822
10.627395
11.479884
12.677376
14.26862
16.420748
19.379205
10.413117
11.194479
12.37794
13.968357
16.195046
19.396405
10.581908
11.340998
12.380144
13.767035
15.624625
18.166938
10.385267
11.064302
12.086738
13.464483
15.382894
18.154527
10.542286
11.222169
12.136035
13.351709
14.967676
17.174817
10.350438
10.941189
11.825696
13.024918
14.688018
17.115071
10.508829
11.130893
11.945364
13.017384
14.44035
16.387726
10.322624
10.836389
11.599644
12.644548
14.094885
16.241165
10.497311
11.082785
11.82817
12.795892
14.072113
15.814123
10.315692
10.785179
11.462299
12.389688
13.681667
15.611137
10.505456
11.092697
11.798471
12.686964
13.851846
15.445834
10.320193
10.774923
11.397179
12.242774
13.433391
15.22421
10.516663
11.109689
11.795223
12.644918
13.762154
15.315971
10.324623
10.775939
11.368247
12.169096
13.321702
15.11421
10.557038
11.181805
11.892741
12.779392
14.023522
15.952458
10.349379
10.840536
11.473438
12.374393
13.849168
16.52867
10.663799
11.636389
12.815801
14.551755
17.654361
23.529677
10.52572
11.500779
12.907957
15.340095
20.305675
30.367139
12.654135
18.310318
25.967951
37.861054
59.459778
97.588588
13.166511
20.283275
30.745657
48.383264
81.832646
140.6981
36.31758
90.778991
160.29775
257.86108
412.90302
650.00508
42.872681
108.75366
196.92525
326.67517
536.03665
852.41411
239.97134
644.66192
1108.4929
1684.2166
2494.5466
3594.0965
283.35351
744.65394
1288.9019
1990.0557
2974.3849
4253.5719
1518.0357
3681.3502
5963.2906
8598.8096
12097.177
16645.532
1715.0146
4116.6268
6665.8108
9673.0058
13592.846
18347.19
7807.7996
16646.047
24745.097
33657.416
45056.288
59516.017
8448.9705
17911.51
26672.615
36481.757
48850.202
63168.995
32079.277
58728.689
79806.143
103729.84
131042.15
161744.07
33598.186
61732.794
84506.176
110631.93
140461.41
169328.87
110596.87
172215.57
218747.1
282180.33
314198.37
323913.14
113377.49
179303.64
234735.91
298505.86
327220.23
333799.15
346234.94
484310.9
592437.65
623944.55
611252.56
593883.85
351311.15
506655.91
629165.33
643236.68
620950.58
599980.82
1137832.3
1453174
1398929.5
1317156.1
1276904.4
1266113.9
1154223.7
1464978.4
1391172
1302209.1
1262015.2
1253215.5
5096315.1