/*--------------------------------*- C++ -*----------------------------------*\
| =========                 |                                                 |
| \\      /  F ield         | OpenFOAM: The Open Source CFD Toolbox           |
|  \\    /   O peration     | Version:  2206                                  |
|   \\  /    A nd           | Website:  www.openfoam.com                      |
|    \\/     M anipulation  |                                                 |
\*---------------------------------------------------------------------------*/
FoamFile
{
    version     2.0;
    format      ascii;
    arch        "LSB;label=32;scalar=64";
    class       volScalarField;
    location    "100";
    object      p;
}
// * * * * * * * * * * * * * * * * * * * * * * * * * * * * * * * * * * * * * //

dimensions      [1 -1 -2 0 0 0 0];

internalField   nonuniform List<scalar> 
50904
(
105357.98
104607.88
105295.53
104516.49
105359.51
104610.37
105292.98
104513.29
105361.22
104614.1
105292
104513.19
105364.47
104620.79
105291.29
104515.11
105369.84
104632.82
105292.49
104522.53
105378.11
104651.51
105295.48
104535.78
105390.54
104678.4
105302.27
104557.44
105409.01
104716.49
105315.85
104591.15
105436.01
104770.04
105337.48
104639.54
105474.45
104842.55
105372.01
104708.55
105527.91
104938.32
105424.23
104803.76
105600.84
105062.98
105497.04
104928.76
105697.99
105219.8
105598.08
105090.13
105820.74
105408.48
105727.77
105287.2
105971.28
105627.86
105888.71
105519.71
106123.91
105840.59
106052.47
105747.27
106258.5
106022.62
106197.17
105942.85
106377.75
106178.91
106324.26
106110.49
106477.97
106308.24
106429.7
106248.24
106562
106414.24
106518.85
106362.41
106629.87
106497.74
106590.28
106452.5
106684.38
106561.17
106646.62
106520.63
106722.39
106600.8
106682.88
106560.32
106746.95
106622.02
106704.04
106578.51
106763.62
106633.63
106717.08
106585.27
106775.25
106639.95
106725.53
106586.54
106783.97
106643.58
106731.62
106585.38
106790.62
106646
106736.29
106583.69
106795.73
106647.82
106739.83
106582.72
106799.58
106649.29
106742.58
106581.81
106802.53
106650.55
106744.77
106581.41
106804.85
106651.63
106746.52
106581.44
106806.61
106652.63
106747.86
106581.92
106807.99
106653.69
106748.9
106582.68
106809
106654.61
106749.64
106583.4
106810.17
106655.7
106750.51
106584.21
105368.22
104637
105697.17
105165.57
105836.15
105461.51
105911.71
105631.66
105954.81
105731.37
105981.98
105795.38
106001.31
105842.41
105360.97
104627.78
105686.67
105148.88
105825.65
105442.02
105901.82
105612.04
105945.59
105711.83
105973.1
105775.48
105992.4
105821.9
105356.76
104625.62
105680.62
105141.58
105819.74
105433.1
105896.44
105604.82
105941.2
105706.93
105969.82
105772.63
105990
105820.08
105351.49
104623.1
105671.65
105128.88
105810.56
105415.46
105887.08
105585.88
105931.6
105686.47
105959.92
105750.77
105979.81
105797.48
105347.34
104625.58
105663.35
105119.41
105802.35
105402.65
105879.47
105573.68
105924.79
105675.73
105953.87
105741.43
105974.4
105789.27
105343.63
104630.91
105653.88
105108.36
105792.21
105384.73
105868.87
105551.49
105913.98
105651.85
105943.03
105716.82
105963.61
105764.47
105342.54
104642.45
105645.7
105100.91
105783.84
105370.47
105860.7
105534.39
105906.13
105634.17
105935.41
105699.34
105956.15
105747.22
105348.2
104665.42
105642.51
105098.12
105779.39
105357.51
105855.73
105516.95
105901.07
105615.22
105930.33
105680.08
105951.03
105727.91
105361.13
104700.63
105645.04
105102.86
105780.7
105352.49
105856.39
105507.81
105901.71
105604.15
105930.95
105668.57
105951.57
105716.17
105386.86
104755.42
105657.37
105120.38
105790.42
105359.11
105865.08
105510.01
105910.03
105604.24
105939.09
105667.8
105959.44
105714.85
105431.97
104837.88
105687.63
105164.05
105817.51
105392.15
105890.43
105537.97
105934.68
105629.82
105963.27
105692.08
105983.15
105737.67
105498.18
104949.04
105736.42
105234.97
105861.71
105451.46
105932.61
105591.12
105975.78
105680.6
106003.62
105740.99
106022.86
105784.49
105597.14
105101.5
105818.82
105353.45
105937.71
105555.18
106005.75
105688.15
106046.84
105773.57
106073.43
105830.35
106091.54
105870.87
105725.82
105290.01
105929.93
105511.88
106043.08
105700.08
106108.13
105825.45
106147.21
105905.49
106172.35
105958.28
106189.38
105995.73
105887.58
105516.3
106072.24
105711.26
106180.07
105886.1
106241.92
106002.08
106278.69
106075.87
106302.05
106124.08
106317.51
106157.47
106056.33
105744.24
106223.49
105919
106324.63
106078.94
106382.41
106183.64
106416.37
106249.76
106437.65
106292.51
106451.36
106321.35
106206.85
105942.27
106358.39
106101.83
106452.07
106246.56
106505.38
106341
106536.4
106400
106555.6
106437.77
106567.69
106462.63
106338.86
106112.01
106475.97
106259.8
106561.87
106390.27
106610.68
106475.36
106638.85
106527.95
106656.13
106561.39
106666.91
106583.06
106452.47
106257.54
106576.58
106395.14
106653.44
106510.95
106697.04
106586.35
106722.05
106632.66
106737.36
106662.1
106747.21
106681.53
106548.34
106380.21
106661.15
106508.68
106728.79
106610.59
106767.24
106676.84
106789.44
106717.69
106803.15
106743.96
106812.07
106761.48
106624.56
106477.55
106726.88
106596.92
106786.8
106687.54
106820.85
106746.04
106840.69
106782.25
106853.05
106805.86
106861.16
106821.8
106682.55
106550.41
106776.33
106662.14
106830.29
106743.98
106860.95
106796.65
106878.85
106829.22
106890.04
106850.51
106897.24
106864.74
106718.26
106592.55
106806.06
106699.08
106856.05
106775.49
106884.36
106824.25
106900.73
106854.07
106910.92
106873.35
106917.46
106886.2
106737.12
106611.24
106821.1
106713.78
106868.89
106787.65
106895.81
106834.33
106911.27
106862.39
106920.74
106880.38
106926.7
106892.27
106747.25
106617.79
106828.76
106717.76
106875.16
106790.12
106901.2
106835.46
106916.1
106862.5
106925.15
106879.72
106930.86
106890.94
106752.77
106617.92
106832.95
106717.07
106878.57
106788.61
106904.12
106833.28
106918.7
106859.55
106927.48
106876.24
106933
106887.08
106756.27
106614.73
106835.49
106713.35
106880.64
106784.78
106905.98
106829.22
106920.36
106855.05
106928.99
106871.4
106934.35
106881.98
106758.73
106611.13
106837.3
106709.33
106882.39
106781.33
106907.69
106825.87
106921.95
106851.6
106930.45
106867.65
106935.68
106877.98
106760.58
106607.74
106838.63
106705.61
106883.85
106778.59
106909.18
106823.47
106923.31
106849.4
106931.67
106865.33
106936.8
106875.5
106762.12
106605.37
106839.87
106703.15
106885.37
106777.02
106910.85
106822.44
106924.88
106848.57
106933.09
106864.52
106938.09
106874.52
106763.37
106604.2
106840.94
106702.04
106886.74
106776.52
106912.45
106822.5
106926.39
106848.83
106934.42
106864.74
106939.24
106874.65
106764.46
106603.81
106841.78
106701.74
106887.94
106776.59
106914
106823.16
106927.99
106849.81
106935.88
106865.69
106940.44
106875.39
106765.33
106604.31
106842.43
106701.93
106888.94
106776.97
106915.35
106824.16
106929.4
106851.19
106937.14
106866.96
106941.42
106876.33
106766.12
106605.14
106843.03
106702.66
106889.75
106777.74
106916.55
106825.27
106930.8
106852.65
106938.53
106868.48
106942.57
106877.57
106766.73
106605.97
106843.53
106703.51
106890.32
106778.52
106917.39
106826.25
106931.65
106853.67
106938.98
106869.36
106942.78
106878.17
106767.45
106606.94
106844.23
106704.69
106891.09
106779.61
106918.2
106827.36
106932.37
106854.74
106939.46
106870.28
106943.24
106879
106018.3
105884.01
106032.14
105917.21
106043.39
105943.1
106058.55
105976.35
106088.17
106040.45
106162.42
106200.34
106009.61
105863.62
106022.58
105895.01
106032.39
105918.26
106046.5
105949.39
106076.57
106015.02
106152.96
106181.58
106007.65
105862.29
106021.8
105895.72
106032.73
105921.21
106047.09
105953.43
106075.07
106015.26
106148.13
106174.93
105997.24
105838.93
106011.04
105870.49
106021.96
105894.58
106036.82
105927.48
106066.46
105994.76
106140.96
106161.81
105992.24
105831.07
106006.56
105863.44
106017.93
105888.31
106032.85
105921.08
106061.51
105986.06
106134.58
106151.37
105981.56
105806.2
105996.04
105838.98
106007.71
105864.59
106023.16
105898.57
106052.84
105966.35
106126.9
106136.56
105974.16
105788.94
105988.72
105822.3
106000.48
105848.57
106015.97
105882.85
106045.62
105950.4
106119.72
106121.83
105968.98
105769.7
105983.57
105803.7
105995.38
105830.75
106010.91
105865.85
106040.93
105934.31
106115.2
106107.89
105969.32
105757.81
105983.81
105792.18
105995.52
105819.8
106010.98
105855.3
106041.04
105923.6
106114.57
106096.85
105976.87
105755.95
105991.18
105790.27
106002.85
105818.17
106018.22
105853.76
106047.86
105921.41
106120.18
106092.32
106000.04
105777.45
106014.03
105810.95
106025.66
105838.49
106040.77
105873.41
106069.08
105938.86
106138.52
106102.42
106039.09
105822.35
106052.72
105854.47
106064.18
105881.18
106078.92
105914.75
106106.08
105976.86
106171.91
106130.6
106106.78
105905.64
106119.83
105935.32
106130.93
105960.43
106145.01
105991.63
106170.45
106048.55
106230.75
106187.51
106203.21
106027.15
106215.27
106053.95
106225.66
106076.68
106238.75
106104.73
106262.05
106155.07
106315.77
106275.73
106329.7
106184.87
106340.39
106208.52
106349.74
106228.65
106361.45
106252.92
106382.12
106295.65
106428.29
106396.01
106462.09
106344.61
106471.52
106364.79
106479.91
106382.26
106490.33
106403.17
106508.42
106439.17
106547.54
106521.6
106577.15
106482.5
106585.52
106499.89
106593.08
106515.14
106602.42
106533.34
106618.39
106564.36
106651.78
106633.45
106675.31
106600.28
106682.84
106615.52
106689.75
106629.05
106698.23
106645.17
106712.53
106672.45
106741.45
106731.64
106754.68
106696.74
106761.48
106710.31
106767.79
106722.47
106775.51
106736.94
106788.34
106761.07
106813.88
106812.83
106818.89
106775.25
106825.09
106787.53
106830.89
106798.62
106838
106811.74
106849.77
106833.48
106873.02
106880.1
106867.38
106834.33
106873.04
106845.48
106878.37
106855.62
106884.92
106867.59
106895.8
106887.35
106917.2
106929.77
106902.87
106876.03
106908.05
106886.16
106913.01
106895.53
106919.12
106906.61
106929.33
106924.87
106949.07
106963.61
106922.53
106896.32
106927.34
106905.57
106931.98
106914.28
106937.73
106924.62
106947.35
106941.61
106965.57
106977.13
106931.3
106901.51
106935.8
106910.02
106940.23
106918.14
106945.8
106927.86
106954.99
106943.86
106971.93
106976.89
106935.16
106899.56
106939.33
106907.52
106943.56
106915.17
106948.96
106924.4
106957.79
106939.69
106973.83
106970.71
106937.09
106895.26
106941.01
106902.86
106945
106910.22
106950.17
106919.16
106958.69
106933.98
106974.04
106963.41
106938.27
106889.85
106942.04
106897.16
106945.88
106904.27
106950.88
106912.96
106959.17
106927.41
106974.02
106955.74
106939.47
106885.58
106943.11
106892.61
106946.82
106899.46
106951.66
106907.9
106959.72
106922.03
106974.14
106949.49
106940.47
106882.96
106944
106889.85
106947.6
106896.59
106952.26
106904.93
106960.15
106918.91
106974.37
106945.81
106941.64
106881.78
106945.06
106888.56
106948.54
106895.17
106953.02
106903.38
106960.73
106917.17
106974.75
106943.6
106942.6
106881.7
106945.84
106888.27
106949.17
106894.77
106953.53
106902.82
106961.09
106916.35
106975.05
106942.44
106943.57
106882.13
106946.56
106888.37
106949.61
106894.54
106953.72
106902.36
106961.19
106915.63
106975.28
106941.68
106944.3
106882.75
106946.9
106888.53
106949.55
106894.15
106953.47
106901.55
106961.07
106914.93
106975.39
106941.5
106945.16
106883.65
106947.48
106888.98
106949.85
106894.05
106953.69
106901.11
106961.31
106914.5
106975.66
106941.55
106945.36
106884.1
106947.82
106889.35
106950.37
106894.36
106954.23
106901.39
106961.71
106914.74
106975.99
106941.83
106945.94
106885.03
106948.62
106890.55
106951.38
106895.74
106955.21
106902.64
106962.44
106915.52
106976.45
106942.17
106256.72
106369.56
106303.43
106433.01
106317.26
106449.33
106323.92
106455.62
106329.28
106460.44
106335.99
106466.28
106249.28
106358.11
106297.7
106426.53
106312.58
106444.23
106319.14
106450.22
106324.18
106454.65
106331
106461.58
106244.09
106354
106293.64
106426.39
106310.19
106446.81
106318.12
106454.82
106324
106459.84
106330.99
106466.36
106237.79
106347.73
106287.7
106424.18
106304.43
106445.94
106312.87
106455.41
106319.47
106461.95
106327.46
106469.46
106232.31
106342.96
106284.12
106425.69
106301.81
106450.28
106310.59
106461.46
106317.36
106469.46
106325.49
106478.28
106226.23
106335.47
106280.02
106425.01
106298.32
106452.38
106307.39
106465.14
106314.51
106474.59
106323.16
106485.46
106220.88
106327.84
106277.29
106425.06
106296.54
106455.38
106306.04
106469.75
106313.49
106480.53
106322.6
106493.05
106217.27
106319.48
106275.73
106423.51
106295.85
106456.76
106305.84
106472.85
106313.66
106485.12
106323.23
106499.47
106216.83
106312.19
106276.74
106422.19
106297.59
106458.25
106308.09
106476.15
106316.32
106489.98
106326.41
106506.16
106221.7
106308.48
106282.27
106422.65
106303.7
106461.17
106314.69
106480.84
106323.41
106496.25
106334.07
106514.19
106236.91
106313.26
106296.36
106427.59
106317.93
106467.52
106329.29
106488.62
106338.38
106505.36
106349.42
106524.75
106264.83
106330.19
106321.68
106441.34
106343
106481.66
106354.6
106503.76
106363.97
106521.51
106375.17
106541.92
106315.03
106367.93
106367.72
106471.11
106388.04
106510.03
106399.36
106532.09
106408.56
106550
106419.36
106570.43
106389.73
106431.98
106436.75
106523.62
106455.39
106559.35
106466.01
106580.1
106474.71
106597.09
106484.79
106616.43
106490.37
106525.47
106530.51
106603.05
106546.88
106634.27
106556.4
106652.75
106564.27
106668.01
106573.24
106685.33
106598.86
106627.31
106632.45
106691.8
106646.51
106718.48
106654.78
106734.55
106661.68
106747.97
106669.54
106763.3
106694.96
106721.22
106723.4
106775.49
106735.59
106798.53
106742.8
106812.57
106748.86
106824.47
106755.83
106838.15
106778.92
106806.68
106803.7
106853.69
106814.5
106874.01
106820.92
106886.57
106826.34
106897.3
106832.65
106909.73
106848.13
106880.34
106870.39
106922.73
106879.89
106940.57
106885.57
106951.79
106890.34
106961.39
106895.88
106972.53
106905.13
106942.73
106926.34
106982.96
106934.7
106998.65
106939.77
107008.72
106944.12
107017.5
106949.34
107027.95
106947.65
106988.52
106968.14
107027.2
106975.56
107041.1
106980.11
107050.19
106984.09
107058.24
106988.96
107068.02
106977.49
107018.17
106997.22
107055.06
107004.12
107067.87
107008.35
107076.31
107012.11
107083.88
107016.78
107093.17
106992.06
107027.68
107010.75
107062.22
107017.42
107074.41
107021.49
107082.43
107025.07
107089.55
107029.34
107098.14
106996.92
107024.51
107014.71
107057.16
107021.18
107068.8
107025.1
107076.38
107028.49
107083.08
107032.44
107091.12
106997.52
107015.96
107014.58
107047.06
107020.88
107058.26
107024.7
107065.49
107027.97
107071.87
107031.71
107079.48
106996.61
107006.46
107012.99
107036.26
107019.1
107047.05
107022.79
107054
107025.94
107060.12
107029.48
107067.38
106995.7
106997.2
107011.51
107026.08
107017.47
107036.65
107021.06
107043.45
107024.1
107049.44
107027.48
107056.48
106995.01
106989.61
107010.28
107017.58
107016.08
107027.89
107019.59
107034.56
107022.55
107040.44
107025.81
107047.27
106994.67
106984.97
107009.47
107012.27
107015.15
107022.35
107018.6
107028.9
107021.51
107034.7
107024.67
107041.37
106994.73
106982.24
107009.09
107008.93
107014.65
107018.85
107018.05
107025.35
107020.93
107031.1
107024.01
107037.61
106995.12
106981.08
107009.22
107007.55
107014.59
107017.32
107017.84
107023.73
107020.58
107029.41
107023.5
107035.74
106995.69
106980.85
107009.91
107007.55
107015.13
107017.07
107018.15
107023.15
107020.66
107028.55
107023.38
107034.61
106996.4
106981.34
107011.12
107008.92
107016.28
107018.38
107018.99
107024.19
107021.16
107029.28
107023.61
107035.06
106997.02
106981.86
107012
107009.9
107016.97
107019.15
107019.5
107024.66
107021.51
107029.49
107023.85
107035.08
106997.48
106982.29
107012.36
107010.63
107017.04
107019.84
107019.55
107025.25
107021.63
107029.91
107023.98
107035.25
106997.72
106982.37
107012.24
107010.45
107016.72
107019.52
107019.22
107024.66
107021.27
107028.96
107023.65
107034.17
106343.59
106471.64
106351.07
106475
106359.67
106477.37
106370.61
106478.34
106386.57
106475.62
106408.47
106455.89
106410.45
106344.82
106338.58
106468.17
106346.15
106472.6
106355.19
106475.96
106366.5
106477.85
106383.43
106476.72
106407.32
106459.54
106411.31
106350.62
106338.52
106473.65
106345.34
106478.87
106353.53
106482.64
106365.14
106484.25
106382.6
106483.04
106407.39
106467.47
106412.92
106360.15
106336.22
106477.37
106343.7
106484.46
106351.45
106490.39
106363.21
106493.45
106382.06
106493.75
106408.61
106480.85
106416.46
106375.78
106334.71
106486.63
106344.17
106494.01
106352.88
106501.06
106364.01
106506.02
106383.89
106509.04
106412.01
106499.49
106422.49
106397.57
106332.54
106495.93
106342.05
106504.22
106352.43
106512.47
106365.48
106520.57
106386.49
106527.59
106417.43
106522.75
106431.46
106425.64
106332.35
106505.36
106342.05
106515.38
106353.93
106525.43
106368.34
106536.45
106390.15
106548.41
106425
106549.93
106443.7
106459.86
106333.54
106513.72
106343.65
106525.84
106355.74
106538.46
106372.09
106552.97
106397.11
106570.47
106435.42
106580.67
106460.48
106500.94
106337.33
106522.4
106348.07
106536.69
106361.03
106552.18
106378.87
106570.95
106406.75
106594.92
106450.13
106614.85
106482.79
106548.77
106345.56
106532.39
106356.94
106548.95
106371.06
106567.53
106390.8
106590.82
106421.84
106621.68
106470.69
106652.59
106512
106602.86
106361.34
106544.67
106373.4
106563.43
106388.69
106585.12
106410.31
106612.91
106444.56
106650.61
106499.08
106692.99
106549.45
106661.57
106387.4
106563.23
106400.19
106584.07
106416.7
106608.75
106440.3
106640.96
106477.89
106685.28
106537.96
106738.31
106596.61
106724.6
106431.42
106592.27
106444.53
106614.55
106461.79
106641.6
106486.78
106677.33
106526.7
106727.29
106590.44
106788.98
106654.77
106791.63
106496.19
106637.55
106509.12
106660.13
106526.65
106688.39
106552.54
106726.62
106594.08
106780.96
106659.88
106848.73
106725.18
106862.98
106583.47
106704.58
106595.64
106726.15
106612.75
106754.26
106638.71
106793.66
106680.59
106850.17
106745.93
106920.65
106807.34
106940.86
106678.39
106780.36
106689.44
106800.32
106705.51
106827.42
106730.51
106866.66
106771.01
106923.61
106833.19
106994.05
106888.05
107016.28
106763.42
106853.15
106773.24
106871.26
106787.97
106896.69
106811.43
106934.6
106849.61
106990.24
106907.65
107058.89
106956.58
107082.22
106839.29
106923.06
106847.95
106939.36
106861.3
106962.76
106882.94
106998.51
106918.39
107051.65
106972.13
107117.88
107016.69
107142.81
106902.14
106984.94
106909.84
106999.69
106921.71
107020.76
106940.86
107052.87
106972.35
107101.34
107020.84
107164.33
107064.9
107195.07
106955.11
107039.47
106962.14
107052.99
106972.62
107071.84
106989.2
107099.92
107016.41
107142.82
107059.51
107201.83
107104.81
107239.88
106994.3
107078.76
107000.63
107091.08
107009.79
107107.72
107024.02
107132.13
107047.4
107169.65
107085.53
107224.36
107132.26
107270.17
107021.41
107102.81
107026.91
107113.66
107034.94
107128.37
107047.58
107150.29
107068.59
107184.46
107103.67
107236.36
107150.58
107287.19
107033.52
107106.83
107038.27
107116.35
107045.55
107129.72
107057.47
107150.41
107077.73
107183.52
107112.05
107234.87
107158.84
107288.32
107036.27
107099.06
107040.58
107107.78
107047.49
107120.46
107059.1
107140.72
107079.16
107173.71
107113.44
107225.44
107160.32
107280.47
107035.32
107086.91
107039.48
107095.27
107046.3
107107.73
107057.98
107128.07
107078.31
107161.56
107113.17
107214.33
107160.42
107270.46
107032.92
107074.48
107037.02
107082.66
107043.91
107095.12
107055.82
107115.76
107076.64
107150.02
107112.33
107204.14
107159.74
107260.99
107030.82
107063.42
107034.92
107071.62
107041.9
107084.31
107054.06
107105.44
107075.42
107140.64
107111.95
107196.32
107159.36
107253.64
107029.07
107054.1
107033.18
107062.34
107040.24
107075.23
107052.61
107096.85
107074.46
107133.11
107111.76
107190.53
107159.12
107248.26
107027.86
107048.12
107032
107056.41
107039.16
107069.51
107051.8
107091.65
107074.13
107128.87
107111.96
107187.23
107158.8
107243.96
107027.14
107044.24
107031.28
107052.56
107038.5
107065.87
107051.34
107088.53
107074.06
107126.58
107112.24
107185.58
107158.57
107240.78
107026.47
107042.15
107030.57
107050.35
107037.9
107063.7
107050.98
107086.69
107074.02
107125.32
107112.43
107184.53
107158.31
107238.21
107026.13
107040.77
107030.14
107048.92
107037.58
107062.46
107050.82
107085.67
107074.05
107124.54
107112.51
107183.58
107157.98
107235.89
107026.18
107041.02
107030.04
107048.9
107037.45
107062.12
107050.66
107085.19
107073.97
107124.1
107112.43
107182.92
107157.59
107234.02
107026.39
107040.88
107030.14
107048.64
107037.4
107061.74
107050.52
107084.79
107073.85
107123.74
107112.26
107182.34
107157.18
107232.5
107026.56
107040.93
107030.26
107048.48
107037.36
107061.44
107050.4
107084.46
107073.72
107123.43
107112.07
107181.84
107156.82
107231.32
107026.25
107039.81
107030.01
107047.49
107037.13
107060.69
107050.2
107083.86
107073.56
107122.91
107111.88
107181.14
107156.48
107230.03
106376.94
106227.2
106364.9
106156.98
106389.7
106144
106418.23
106127.57
106378.74
106232.96
106366.79
106161.52
106391.29
106146.98
106419.11
106129.45
106380.98
106241.73
106368.86
106167.79
106392.87
106150.56
106420
106131.53
106385.34
106256.15
106372.79
106178.11
106395.71
106156.75
106421.53
106135.3
106392.22
106276.69
106378.92
106193.95
106400.19
106166.61
106424.18
106141.39
106402.43
106303.65
106388.12
106215.9
106406.93
106181.03
106428.22
106150.62
106416.31
106337.45
106400.84
106244.3
106416.43
106200.81
106434.11
106163.8
106435.24
106379.35
106418.42
106281.06
106429.88
106227.86
106442.79
106182.65
106460.65
106430.08
106442.57
106327.81
106449
106264.55
106455.64
106209.55
106493.84
106489.61
106474.65
106385.28
106475.2
106312.32
106474.08
106246.26
106536.01
106556.78
106516.04
106453.34
106510.2
106372.34
106499.58
106294.41
106588.13
106630.77
106568.2
106532.25
106556.71
106447.04
106535.83
106358.41
106651
106710.35
106631.66
106620
106615.44
106535.14
106584.16
106438.43
106724.28
106795.37
106706.25
106716.53
106687.81
106637.21
106647.35
106536
106808.2
106887.14
106791.71
106820.95
106772.67
106749.99
106726.23
106649.76
106889.19
106972.73
106874.12
106916.96
106856.1
106855.55
106806.78
106760.61
106957.79
107045.85
106944.05
106997.41
106927.4
106943.64
106879.33
106855.94
107018.37
107111.61
107005.65
107067.78
106990.14
107019.32
106942.53
106936.38
107068.33
107169.77
107056.91
107129.92
107042.27
107084.22
106996.94
107004.59
107112.09
107222.06
107102.18
107185.39
107087.99
107140.17
107043.33
107060.96
107143.98
107260.5
107135.48
107226.62
107122.51
107181.94
107079.15
107103.05
107166.67
107284.82
107159.83
107253.19
107148.01
107209.03
107107.21
107132.41
107177.33
107290.4
107172.29
107260.97
107162.09
107218.69
107124.78
107145.8
107180.42
107285.5
107176.96
107258.24
107168.37
107217.88
107134.93
107149.03
107181.01
107276.7
107178.56
107251.01
107171.14
107212.26
107141.44
107147.42
107180.03
107267.04
107178.23
107242.17
107171.78
107204.65
107145.44
107143.52
107179.1
107258.71
107177.66
107233.98
107171.8
107197.13
107148.26
107139.14
107178.12
107251.59
107176.86
107226.59
107171.48
107190.25
107150.31
107135.05
107176.94
107245.33
107175.9
107219.91
107171
107184.14
107151.78
107131.45
107176
107240.37
107175.1
107214.49
107170.5
107179.2
107152.86
107128.59
107175.2
107236.34
107174.45
107210.24
107170.08
107175.4
107153.66
107126.43
107174.52
107232.88
107173.88
107206.75
107169.71
107172.36
107154.27
107124.73
107173.87
107230.08
107173.31
107203.99
107169.29
107169.96
107154.65
107123.4
107173.28
107227.95
107172.79
107201.95
107168.9
107168.19
107154.87
107122.42
107172.81
107226.33
107172.37
107200.43
107168.56
107166.93
107155
107121.75
107172.36
107224.59
107171.99
107198.85
107168.3
107165.65
107155.22
107121.13
104822.21
105531.47
105086.46
105711.12
105350.43
105925.59
104828.19
105535.44
105092.69
105715.49
105355.59
105929.85
104834.25
105538.9
105098.65
105719.33
105360.51
105933.64
104844.4
105544.58
105108.29
105725.22
105368.55
105939.34
104859.28
105552.52
105121.67
105733.13
105379.79
105946.88
104880.62
105563.87
105140.61
105744.09
105395.81
105957.18
104909.81
105579.48
105166.11
105758.68
105417.62
105970.81
104949.18
105600.57
105199.65
105777.73
105446.22
105988.33
105003.66
105630.25
105245.51
105803.86
105485.21
106011.84
105075.22
105670.22
105305.79
105838.6
105537.53
106043.31
105167.27
105723.18
105383.49
105884.23
105606.04
106084.66
105286.02
105794.15
105484.67
105945.45
105696.1
106139.82
105433.51
105886.49
105611.59
106025.26
105810.1
106211.78
105609.06
106001.34
105766.2
106126.73
105951.92
106304.37
105812.01
106140.52
105946.99
106250.21
106121.18
106420.77
106010.92
106284.23
106129.13
106382.64
106293.28
106547.13
106181.67
106411.49
106286.73
106502.01
106442.22
106663.39
106329.38
106526.32
106424.3
106611.16
106572.16
106769.12
106451.37
106624.2
106538.92
106704.86
106682.41
106857.98
106550.7
106706.49
106630.03
106781.16
106770.06
106929.67
106630.97
106776.77
106705.56
106849.53
106842.34
106995.55
106690.95
106832.73
106760.39
106902.16
106893.45
107043.98
106728.36
106872.49
106794.38
106938.77
106922.94
107076.88
106750.28
106899.07
106813.71
106962.89
106937.39
107097.75
106762.78
106917.18
106824.24
106978.56
106943.31
107109.94
106770.02
106929.74
106830.06
106988.75
106945.38
107117.44
106774.47
106938.73
106833.43
106995.44
106945.55
107121.96
106777.47
106945.2
106835.31
106999.95
106944.91
107124.45
106779.78
106949.92
106836.62
107003.11
106944.36
107126.11
106781.49
106953.29
106837.34
107005.15
106943.66
107126.72
106782.93
106955.83
106837.85
107006.61
106943
107126.97
106783.99
106957.67
106838.35
107007.52
106942.69
107127.11
106784.92
106958.96
106838.75
107008.08
106942.54
107127.02
106785.78
106959.94
106839.16
107008.47
106942.53
107126.95
106786.47
106960.62
106839.5
107008.7
106942.6
107126.86
106787.28
106961.41
106839.91
107009
106942.72
107126.79
107076.54
106931.78
106767.62
106564.92
106283.65
105910.79
107057.55
106912.61
106749.21
106544.08
106259.25
105878.53
107076.76
106933.16
106768.86
106566.09
106284.8
105911.75
107057.23
106913.24
106749.61
106544.23
106258.91
105877.19
107076.83
106934.9
106770.18
106567.22
106285.88
105912.69
107056.79
106914.27
106750.12
106544.44
106258.7
105876.31
107077.2
106937.1
106771.99
106568.91
106287.62
105914.43
107056.44
106915.61
106750.92
106544.92
106258.75
105875.62
107077.73
106939.82
106774.25
106571.12
106290.13
105917.28
107056.03
106917.33
106752
106545.75
106259.32
105875.7
107078.43
106943.35
106777.22
106574.1
106293.71
105921.64
107055.6
106919.59
106753.52
106547.04
106260.47
105876.56
107079.39
106947.83
106781.07
106578.11
106298.72
105928.14
107055.15
106922.52
106755.66
106549.04
106262.65
105879.07
107080.71
106953.47
106786.06
106583.49
106305.77
105937.85
107054.77
106926.34
106758.72
106552.25
106266.77
105884.95
107082.7
106960.62
106792.65
106590.88
106315.84
105952.3
107054.48
106931.37
106763.08
106557.11
106273.44
105894.97
107085.44
106969.57
106801.28
106600.85
106329.86
105973.18
107054.51
106937.85
106769.16
106564.36
106284.1
105911.85
107089.97
106980.76
106812.68
106614.56
106349.68
106003.36
107055.28
106946.22
106777.88
106575.45
106301.15
105939.43
107096.22
106994.33
106827.74
106633.16
106377.16
106045.76
107056.74
106956.85
106789.95
106591.35
106326.12
105979.87
107106.39
107012.06
106848.67
106659.19
106415.28
106104.34
107060.96
106970.5
106806.86
106614.38
106362.49
106038.67
107119.45
107032.28
106874.97
106694.04
106466.94
106182.38
107065.95
106986.81
106830.18
106647.48
106414.31
106119.54
107129.58
107053.36
106907.62
106739.29
106533.95
106281.96
107071.48
107004.13
106859.83
106692.18
106483.83
106224.92
107143.37
107077.86
106945.35
106790.74
106607.46
106387.69
107079.19
107022.72
106893.3
106742.22
106559.25
106336.51
107157.78
107100.11
106979
106837.96
106674.89
106483.38
107087.95
107039.48
106924.05
106788.81
106628.71
106437.51
107173.42
107123.06
107013.64
106884.94
106738.94
106570.88
107097.68
107055.66
106953.59
106833.07
106692.81
106528.19
107187.65
107142.09
107043.3
106926.21
106794.49
106645.51
107106.79
107069.04
106978.53
106870.9
106747.16
106604.29
107201.61
107159.42
107070.14
106964.25
106843.83
106709.57
107115.63
107080.87
107000.49
106904.56
106794.91
106669.75
107217.16
107176
107094.58
106997.64
106886.31
106762.73
107125.17
107090.89
107018.7
106932.92
106834.56
106722.85
107238.12
107195.18
107117.52
107027.32
106923.19
106806.73
107138.38
107101.38
107034.9
106957.51
106867.75
106765.36
107263.48
107216.14
107139.1
107052.64
106952.31
106839.08
107154.11
107112.26
107048.59
106976.78
106891.93
106794.01
107286.39
107232.04
107155.92
107071.73
106973.43
106861.15
107168.26
107120.32
107058.13
106990.31
106908.16
106811.88
107308.01
107245.1
107169.12
107086.77
106989.61
106877.02
107181.42
107126.37
107065.2
107000.47
106919.79
106823.76
107326.3
107255.71
107180.2
107098.66
107001.92
106888.61
107193.4
107130.8
107070.47
107008.14
106928.27
106831.94
107342.95
107263.79
107188.83
107108.27
107011.47
106897.39
107204.17
107133.87
107074.51
107014.11
106934.71
106837.94
107357.23
107269.98
107195.76
107116.14
107019
106904.12
107213.69
107135.92
107077.69
107018.87
106939.75
106842.52
107369.43
107274.69
107201.47
107122.32
107024.96
106909.36
107221.97
107137.25
107080.13
107022.6
106943.72
106846.08
107379.72
107278.23
107205.91
107127.42
107029.67
106913.42
107229.01
107138.09
107082.18
107025.51
106946.84
106848.85
107388.29
107280.86
107209.43
107131.49
107033.4
106916.61
107234.97
107138.55
107083.83
107027.75
106949.26
106851.01
107395.37
107282.82
107212.21
107134.65
107036.39
106919.17
107239.9
107138.81
107085.06
107029.55
106951.21
106852.75
107401.17
107284.34
107214.52
107137.2
107038.74
106921.14
107243.99
107139
107086.06
107031.03
106952.73
106854.07
107405.86
107285.46
107216.31
107139.15
107040.55
106922.68
107247.28
107139.09
107086.81
107032.08
106953.84
106855.08
107409.88
107286.13
107217.58
107140.58
107041.91
106923.83
107250.26
107139
107087.33
107032.85
106954.68
106855.83
107414.17
107287.87
107219.32
107142.29
107043.48