/*--------------------------------*- C++ -*----------------------------------*\
| =========                 |                                                 |
| \\      /  F ield         | OpenFOAM: The Open Source CFD Toolbox           |
|  \\    /   O peration     | Version:  2206                                  |
|   \\  /    A nd           | Website:  www.openfoam.com                      |
|    \\/     M anipulation  |                                                 |
\*---------------------------------------------------------------------------*/
FoamFile
{
    version     2.0;
    format      ascii;
    arch        "LSB;label=32;scalar=64";
    class       surfaceScalarField;
    location    "100";
    object      phi;
}
// * * * * * * * * * * * * * * * * * * * * * * * * * * * * * * * * * * * * * //

dimensions      [1 0 -1 0 0 0 0];

oriented        oriented;

internalField   nonuniform List<scalar> 
146294
(
1.5145209e-06
-3.7899489e-07
-2.2327619e-07
2.7154676e-07
-1.1844239e-06
-5.0728841e-07
-4.0406343e-07
3.6460047e-07
2.0612244e-06
1.1545666e-06
-1.9374957e-07
-4.3451371e-07
-9.053344e-07
-3.1222285e-07
-5.7968078e-07
1.5391784e-06
3.1806519e-06
-8.0786098e-07
-5.1274363e-07
6.506777e-07
-2.7345706e-06
-9.7546705e-07
-8.8919374e-07
7.9345149e-07
3.8477238e-06
2.3516953e-06
-4.488863e-07
-8.5547801e-07
-2.0489894e-06
-6.9520668e-07
-1.031055e-06
2.7902732e-06
4.7611009e-06
-1.1880222e-06
-8.5242285e-07
1.0066745e-06
-4.2402831e-06
-1.3845671e-06
-1.456589e-06
1.1911414e-06
5.5219153e-06
3.4727263e-06
-7.4677257e-07
-1.2136308e-06
-3.1492438e-06
-1.138537e-06
-1.4122891e-06
3.9437793e-06
6.5387401e-06
-1.5971331e-06
-1.244164e-06
1.4164066e-06
-5.9665738e-06
-1.823002e-06
-2.1071168e-06
1.6377552e-06
7.3744488e-06
4.6881357e-06
-1.0741494e-06
-1.591052e-06
-4.3668795e-06
-1.6341513e-06
-1.822157e-06
5.1829023e-06
8.6359642e-06
-2.0779531e-06
-1.6770793e-06
1.906675e-06
-8.0318322e-06
-2.3467641e-06
-2.8391062e-06
2.1652993e-06
9.5494244e-06
6.0922347e-06
-1.4366413e-06
-2.0412766e-06
-5.7664197e-06
-2.2004879e-06
-2.3265783e-06
6.6383915e-06
1.1112894e-05
-2.654125e-06
-2.1841455e-06
2.4698455e-06
-1.042169e-05
-2.9944242e-06
-3.6948967e-06
2.7889408e-06
1.2174113e-05
7.7925223e-06
-1.8722753e-06
-2.5993376e-06
-7.4117065e-06
-2.8787187e-06
-2.9638295e-06
8.4401475e-06
1.4340131e-05
-3.4001857e-06
-2.8204517e-06
3.1791602e-06
-1.3482796e-05
-3.8440108e-06
-4.7385466e-06
3.594708e-06
1.5633089e-05
1.0034887e-05
-2.4223233e-06
-3.3293946e-06
-9.5556283e-06
-3.7091318e-06
-3.8004713e-06
1.0821766e-05
1.8459627e-05
-4.3468097e-06
-3.605382e-06
4.0725285e-06
-1.7400462e-05
-4.9218315e-06
-5.9918501e-06
4.6163429e-06
2.0018388e-05
1.2916144e-05
-3.0976679e-06
-4.2594184e-06
-1.2328207e-05
-4.7062761e-06
-4.8614723e-06
1.3852919e-05
2.3649686e-05
-5.5296131e-06
-4.5756084e-06
5.1798541e-06
-2.2329694e-05
-6.2819044e-06
-7.4907812e-06
5.8994076e-06
2.5531113e-05
1.6561777e-05
-3.9301124e-06
-5.4330222e-06
-1.5825924e-05
-5.9017046e-06
-6.2084636e-06
1.7683764e-05
2.9769353e-05
-6.8895095e-06
-5.5420675e-06
6.4425783e-06
-2.8355968e-05
-7.7876068e-06
-9.0460268e-06
7.3207235e-06
3.1791475e-05
2.0924501e-05
-4.7434311e-06
-6.7999709e-06
-2.0200723e-05
-7.1311547e-06
-7.7069085e-06
2.2073249e-05
3.8001481e-05
-8.6624824e-06
-6.6522187e-06
8.1184061e-06
-3.6347253e-05
-9.8013441e-06
-1.0815918e-05
9.2493875e-06
4.0323327e-05
2.6670115e-05
-5.6863105e-06
-8.5523452e-06
-2.5837376e-05
-8.5523184e-06
-9.6832359e-06
2.7973168e-05
4.9486224e-05
-1.0999512e-05
-7.919655e-06
1.03737e-05
-4.7592968e-05
-1.2448676e-05
-1.2825855e-05
1.1817391e-05
5.2127449e-05
3.4645881e-05
-6.7679305e-06
-1.0851298e-05
-3.3712473e-05
-1.0196452e-05
-1.2274748e-05
3.6116086e-05
6.2569478e-05
-1.3497879e-05
-8.9667535e-06
1.2738687e-05
-6.0763185e-05
-1.5218824e-05
-1.4763681e-05
1.4510556e-05
6.5215576e-05
4.3805707e-05
-7.5781945e-06
-1.3355611e-05
-4.313771e-05
-1.1735634e-05
-1.4977276e-05
4.5103342e-05
8.2118291e-05
-1.6929511e-05
-1.0309814e-05
1.6044728e-05
-7.9890441e-05
-1.9002994e-05
-1.6244482e-05
1.819587e-05
8.4406222e-05
5.7411031e-05
-8.7451291e-06
-1.6756366e-05
-5.6417239e-05
-1.2847787e-05
-1.8665037e-05
5.8185228e-05
0.00010587782
-2.0812486e-05
-1.1244317e-05
1.982561e-05
-0.00010395644
-2.3063255e-05
-1.709562e-05
2.224695e-05
0.00010754527
7.3679875e-05
-9.6322402e-06
-2.0540432e-05
-7.3064816e-05
-1.3477713e-05
-2.2555798e-05
7.3802342e-05
0.00010980935
-2.0369113e-05
-1.1726536e-05
1.9475039e-05
-0.00010843304
-2.2426452e-05
-1.7338753e-05
2.1704817e-05
0.00011077412
7.6251524e-05
-1.0224409e-05
-2.0050164e-05
-7.5978299e-05
-1.3736763e-05
-2.1884016e-05
7.5968137e-05
0.00011457933
-2.0093991e-05
-1.1819496e-05
1.9403406e-05
-0.00011379577
-2.1958248e-05
-1.7050279e-05
2.1417333e-05
0.00011483178
7.9195489e-05
-1.047811e-05
-1.9642874e-05
-7.9392902e-05
-1.3592541e-05
-2.1300704e-05
7.8393724e-05
0.00012018009
-1.9751856e-05
-1.1537706e-05
1.9326943e-05
-0.00012003695
-2.1340495e-05
-1.6331949e-05
2.1194427e-05
0.00011960783
8.194498e-05
-1.0176921e-05
-1.9321947e-05
-8.2676074e-05
-1.2870731e-05
-2.0866356e-05
8.0749032e-05
0.0001296318
-1.9029701e-05
-1.1228416e-05
1.944034e-05
-0.00013035172
-1.9490242e-05
-1.5908334e-05
2.124395e-05
0.00012745449
8.1864167e-05
-8.9063607e-06
-1.9163158e-05
-8.3001266e-05
-1.1339026e-05
-2.0705836e-05
8.1548056e-05
0.00014307794
-1.9247607e-05
-1.0534957e-05
1.9796106e-05
-0.00014431988
-1.8030009e-05
-1.4768572e-05
2.1669727e-05
0.00013829848
8.0053075e-05
-7.6442375e-06
-1.9347998e-05
-8.1214802e-05
-9.6728851e-06
-2.1001103e-05
8.1358025e-05
0.00015685441
-1.9591627e-05
-9.3490577e-06
2.015167e-05
-0.00015860033
-1.6758217e-05
-1.2761312e-05
2.2107185e-05
0.00014949819
7.8613595e-05
-6.2979276e-06
-1.969361e-05
-7.9857917e-05
-7.7786157e-06
-2.1456422e-05
8.141753e-05
0.0001677051
-2.0406773e-05
-7.3349086e-06
2.0614977e-05
-0.00016992743
-1.6390465e-05
-9.5923963e-06
2.2608447e-05
0.00015831822
8.0195073e-05
-5.1477999e-06
-2.0055748e-05
-8.169622e-05
-6.1097907e-06
-2.1988357e-05
8.4124141e-05
0.00013853703
-1.6483369e-05
-5.7079615e-06
1.6649829e-05
-0.00014033041
-1.2653485e-05
-6.8163862e-06
1.8221124e-05
0.00013019339
6.7239418e-05
-4.0955778e-06
-1.6174636e-05
-6.8600364e-05
-4.4764781e-06
-1.7845209e-05
7.0797827e-05
0.00011312612
-1.3203459e-05
-4.4825877e-06
1.3355624e-05
-0.00011450363
-9.7338594e-06
-4.6104252e-06
1.4567798e-05
0.00010608624
5.5757394e-05
-3.2614425e-06
-1.2928496e-05
-5.686649e-05
-3.0738124e-06
-1.4326052e-05
5.8946927e-05
9.1636684e-05
-1.0550905e-05
-3.5855695e-06
1.0653802e-05
-9.2636564e-05
-7.4883918e-06
-3.0243205e-06
1.1593041e-05
8.5945929e-05
4.5752347e-05
-2.5814272e-06
-1.0321797e-05
-4.6661456e-05
-1.9539548e-06
-1.1448604e-05
4.8592693e-05
7.2929293e-05
-8.2875384e-06
-2.9405971e-06
8.3800043e-06
-7.36667e-05
-5.6883809e-06
-1.9487363e-06
9.0941188e-06
6.8448002e-05
3.668847e-05
-2.1051275e-06
-8.0790839e-06
-3.737322e-05
-1.1984653e-06
-8.9698953e-06
3.9214502e-05
5.9354055e-05
-6.6804113e-06
-2.4572779e-06
6.7522353e-06
-5.9909155e-05
-4.4519255e-06
-1.2219557e-06
7.3132169e-06
5.576597e-05
3.0028193e-05
-1.7347222e-06
-6.4928824e-06
-3.0586108e-05
-7.355055e-07
-7.2042251e-06
3.2317517e-05
4.7774487e-05
-5.3510675e-06
-2.067979e-06
5.3691883e-06
-4.8181865e-05
-3.4779729e-06
-7.5027326e-07
5.8191778e-06
4.4961621e-05
2.436484e-05
-1.3803917e-06
-5.2045167e-06
-2.486571e-05
-4.3887214e-07
-5.7607488e-06
2.6350983e-05
3.7748225e-05
-4.1983201e-06
-1.7703187e-06
4.2163263e-06
-3.8063834e-05
-2.6818043e-06
-4.7337795e-07
4.5684436e-06
3.5584657e-05
1.9301402e-05
-1.1329783e-06
-4.0699942e-06
-1.9677112e-05
-2.2548897e-07
-4.5148772e-06
2.0921061e-05
2.9736531e-05
-3.2884746e-06
-1.5492056e-06
3.3047812e-06
-2.9973893e-05
-2.0716255e-06
-3.4525558e-07
3.5848583e-06
2.8095171e-05
1.5213965e-05
-9.4362989e-07
-3.1793291e-06
-1.5512436e-05
-1.6262627e-07
-3.5319789e-06
1.661144e-05
2.3304821e-05
-2.5614302e-06
-1.2660276e-06
2.583395e-06
-2.3609884e-05
-1.5866526e-06
-1.8971313e-07
2.7490874e-06
2.1986789e-05
1.1939242e-05
-7.386863e-07
-2.4878436e-06
-1.2217727e-05
-9.3782596e-08
-2.7714135e-06
1.3055111e-05
1.7407737e-05
-1.8660694e-06
-8.2374667e-07
1.8357699e-06
-1.7819653e-05
-1.1294648e-06
8.8584821e-09
1.9299418e-06
1.6408655e-05
8.9026603e-06
-4.749635e-07
-1.8627013e-06
-9.1697161e-06
-2.0334345e-08
-2.0954492e-06
9.7951626e-06
1.2318495e-05
-1.2472531e-06
-4.1391375e-07
1.1600064e-06
-1.2641008e-05
-7.4449874e-07
1.1168092e-07
1.2222169e-06
1.1737904e-05
6.2735716e-06
-2.4131407e-07
-1.3148139e-06
-6.4396165e-06
1.3956914e-08
-1.527224e-06
7.0219609e-06
8.2804803e-06
-7.7750844e-07
-1.5155044e-07
6.5525232e-07
-8.4205066e-06
-4.5994654e-07
1.1581894e-07
7.1069124e-07
8.025542e-06
4.2039467e-06
-8.9099336e-08
-8.7731246e-07
-4.2563085e-06
1.5794278e-08
-1.0605704e-06
4.8026842e-06
4.7939643e-06
-4.0965374e-07
-2.4005448e-08
2.9540795e-07
-4.8071592e-06
-2.366273e-07
6.4699453e-08
3.3594455e-07
4.7456951e-06
2.4359388e-06
-1.3481174e-08
-5.0638809e-07
-2.4147583e-06
1.2476977e-08
-6.3995721e-07
2.842522e-06
1.5575137e-06
-1.1245393e-07
5.7377216e-08
-1.5264425e-06
-5.601853e-08
7.075386e-08
1.6074779e-06
8.0189404e-07
-1.633868e-07
-7.6444238e-07
-2.1717736e-07
9.7552983e-07
1.4802643e-06
-4.8559188e-07
-2.7416783e-07
-1.1550261e-06
-5.7339709e-07
-3.5998746e-07
1.8339694e-06
4.3082788e-07
-4.7952056e-07
-9.1562541e-08
-3.4532772e-07
-6.0573145e-07
-9.4533017e-08
5.5770499e-07
2.0203855e-07
-4.6466843e-07
-4.588994e-08
-1.7098754e-07
-5.9874948e-07
-5.0369136e-08
2.4542825e-07
1.095341e-07
-4.5242644e-07
-2.6953297e-08
-9.481565e-08
-5.8534897e-07
-3.0232725e-08
1.2636493e-07
6.8046074e-08
-4.438597e-07
-1.7205189e-08
-5.94037e-08
-5.7209774e-07
-1.9342491e-08
7.413657e-08
4.8142387e-08
-4.3785273e-07
-1.2017846e-08
-4.2128872e-08
-5.5975178e-07
-1.3583779e-08
4.9379418e-08
3.8582583e-08
-9.3996455e-09
-4.3329217e-07
-3.3741447e-08
-1.0552422e-08
-5.4766776e-07
3.7050396e-08
2.974866e-06
-8.7945795e-07
-6.1745051e-07
-2.6076064e-06
-9.1867774e-07
-8.1549962e-07
3.3180207e-06
8.8343178e-07
-8.6497023e-07
-1.9720865e-07
-7.922594e-07
-9.6754801e-07
-2.2289667e-07
1.060676e-06
4.278612e-07
-8.4279424e-07
-9.9660463e-08
-3.9625533e-07
-9.6280812e-07
-1.1473844e-07
4.8749201e-07
2.3684796e-07
-8.2537847e-07
-5.8515339e-08
-2.2269656e-07
-9.4740568e-07
-6.9375701e-08
2.6058767e-07
1.4928777e-07
-8.1243255e-07
-3.8276627e-08
-1.4115965e-07
-9.3099784e-07
-4.5478446e-08
1.5901518e-07
1.0675322e-07
-8.0256471e-07
-2.7786666e-08
-1.0085002e-07
-9.1475078e-07
-3.2648688e-08
1.0957068e-07
8.6345675e-08
-2.251736e-08
-7.9464231e-07
-8.1149254e-08
-2.5859096e-08
-8.9824489e-07
8.5145814e-08
4.3283778e-06
-1.2038946e-06
-9.9724904e-07
-3.9583154e-06
-1.2061775e-06
-1.3337014e-06
4.6404758e-06
1.2674446e-06
-1.1777919e-06
-3.0857074e-07
-1.1821827e-06
-1.2699162e-06
-3.7376624e-07
1.4820539e-06
6.0952578e-07
-1.1451662e-06
-1.5603975e-07
-5.8576715e-07
-1.2664188e-06
-1.9099752e-07
6.822879e-07
3.3673322e-07
-1.1206404e-06
-9.1808108e-08
-3.2796321e-07
-1.2490173e-06
-1.1395109e-07
3.6390693e-07
2.1206017e-07
-1.1029762e-06
-6.0431245e-08
-2.0756775e-07
-1.2296323e-06
-7.4966923e-08
2.2216309e-07
1.5175108e-07
-1.0900097e-06
-4.4248008e-08
-1.4825464e-07
-1.2095729e-06
-5.4578993e-08
1.5362157e-07
1.2283431e-07
-3.611313e-08
-1.0798773e-06
-1.1936926e-07
-4.3939202e-08
-1.1886806e-06
1.2002134e-07
5.7321854e-06
-1.5491502e-06
-1.4071633e-06
-5.3641819e-06
-1.532669e-06
-1.9170999e-06
6.0261046e-06
1.6519378e-06
-1.5121139e-06
-4.3357388e-07
-1.5639653e-06
-1.6162347e-06
-5.5208928e-07
1.9138288e-06
7.9246521e-07
-1.4697112e-06
-2.204285e-07
-7.7047509e-07
-1.6153826e-06
-2.8368435e-07
8.8430003e-07
4.3725857e-07
-1.4395281e-06
-1.2906574e-07
-4.3018173e-07
-1.5963229e-06
-1.6687057e-07
4.7111789e-07
2.7496377e-07
-1.4188025e-06
-8.4344572e-08
-2.7177411e-07
-1.5740724e-06
-1.0909949e-07
2.8684586e-07
1.962286e-07
-1.4041805e-06
-6.1230362e-08
-1.9386719e-07
-1.5512691e-06
-7.8963046e-08
1.9780873e-07
1.5861804e-07
-4.9491049e-08
-1.3934762e-06
-1.5594252e-07
-6.3195068e-08
-1.5279079e-06
1.5451207e-07
7.3731112e-06
-1.9771184e-06
-1.8811327e-06
-6.9632924e-06
-1.9525897e-06
-2.6100799e-06
7.6921148e-06
2.1123205e-06
-1.9317712e-06
-5.8474251e-07
-2.0064988e-06
-2.0652706e-06
-7.6934155e-07
2.4422527e-06
1.0122999e-06
-1.8795727e-06
-2.9782407e-07
-9.8710131e-07
-2.0697625e-06
-3.9610414e-07
1.1292117e-06
5.5779496e-07
-1.8424859e-06
-1.7360904e-07
-5.5033724e-07
-2.0488298e-06
-2.3230513e-07
6.0229663e-07
3.502885e-07
-1.8169162e-06
-1.1303527e-07
-3.4716637e-07
-2.0223273e-06
-1.5143602e-07
3.6612229e-07
2.4957677e-07
-1.7988245e-06
-8.1710207e-08
-2.4718705e-07
-1.9945174e-06
-1.0916249e-07
2.5196579e-07
2.0137887e-07
-6.5685831e-08
-1.7856174e-06
-1.9839043e-07
-8.708296e-08
-1.965638e-06
1.9638679e-07
9.4380477e-06
-2.5194831e-06
-2.4654364e-06
-8.9336138e-06
-2.4815314e-06
-3.4685317e-06
9.8141934e-06
2.7042163e-06
-2.4645048e-06
-7.7280735e-07
-2.571131e-06
-2.6302458e-06
-1.0432124e-06
3.1267987e-06
1.295752e-06
-2.399905e-06
-3.9342561e-07
-1.2647497e-06
-2.6441017e-06
-5.3582275e-07
1.4493258e-06
7.1346044e-07
-2.3554057e-06
-2.2709274e-07
-7.0447525e-07
-2.626232e-06
-3.1164815e-07
7.7493408e-07
4.4739195e-07
-2.3257659e-06
-1.4640191e-07
-4.436648e-07
-2.5993397e-06
-2.0080915e-07
4.6987229e-07
3.1800173e-07
-2.3054016e-06
-1.0496586e-07
-3.1510922e-07
-2.5692489e-06
-1.4354579e-07
3.2229406e-07
2.5577667e-07
-8.3839204e-08
-2.2909468e-06
-2.5207786e-07
-1.1395104e-07
-2.5367135e-06
2.5010888e-07
1.21646e-05
-3.2277199e-06
-3.2073466e-06
-1.1524357e-05
-3.1721206e-06
-4.5338625e-06
1.2601585e-05
3.4787661e-06
-3.16097e-06
-1.008017e-06
-3.3103076e-06
-3.3701878e-06
-1.3885942e-06
4.0222136e-06
1.6642099e-06
-3.0792086e-06
-5.1278484e-07
-1.6266126e-06
-3.3967862e-06
-7.1231996e-07
1.8673048e-06
9.1469088e-07
-3.0229879e-06
-2.9368356e-07
-9.0432072e-07
-3.3806862e-06
-4.1020959e-07
9.9715181e-07
5.7204859e-07
-2.9859135e-06
-1.8758934e-07
-5.6793484e-07
-3.3505215e-06
-2.6150301e-07
6.0257756e-07
4.0510733e-07
-2.9607904e-06
-1.3336946e-07
-4.0182675e-07
-3.3151545e-06
-1.8527904e-07
4.1147317e-07
3.2432527e-07
-1.0575427e-07
-2.9433057e-06
-3.1989402e-07
-1.4608756e-07
-3.2761991e-06
3.1750551e-07
1.5689056e-05
-4.1290589e-06
-4.130819e-06
-1.4895957e-05
-4.0441518e-06
-5.8379334e-06
1.6175793e-05
4.4831001e-06
-4.0491596e-06
-1.2988265e-06
-4.2721929e-06
-4.3123717e-06
-1.8183634e-06
5.1810846e-06
2.1419922e-06
-3.9474747e-06
-6.5920298e-07
-2.0972593e-06
-4.3616836e-06
-9.3078221e-07
2.4097658e-06
1.174947e-06
-3.8781314e-06
-3.7464498e-07
-1.1633295e-06
-4.3520765e-06
-5.2947659e-07
1.2846058e-06
7.3229423e-07
-3.8327857e-06
-2.3725248e-07
-7.2797642e-07
-4.3207164e-06
-3.3377627e-07
7.7320728e-07
5.1611192e-07
-3.8024668e-06
-1.6732768e-07
-5.1247297e-07
-4.2807252e-06
-2.3432786e-07
5.25169e-07
4.1064813e-07
-1.3171425e-07
-3.7817775e-06
-4.0537712e-07
-1.8339989e-07
-4.2352204e-06
4.0245486e-07
2.0198903e-05
-5.2846832e-06
-5.2716982e-06
-1.9206363e-05
-5.1636037e-06
-7.4177721e-06
2.0733877e-05
5.7778804e-06
-5.1946911e-06
-1.6539719e-06
-5.5127288e-06
-5.5320579e-06
-2.337436e-06
6.6654071e-06
2.7587291e-06
-5.0695554e-06
-8.373782e-07
-2.7056907e-06
-5.6143218e-06
-1.1930732e-06
3.1032824e-06
1.510555e-06
-4.9845089e-06
-4.7274614e-07
-1.4975005e-06
-5.6124669e-06
-6.7156972e-07
1.6507925e-06
9.3730084e-07
-4.9289564e-06
-2.9687644e-07
-9.3323009e-07
-5.5789535e-06
-4.1906561e-07
9.8907559e-07
6.5656736e-07
-4.8923194e-06
-2.0758931e-07
-6.5294279e-07
-5.5329838e-06
-2.9140157e-07
6.6767057e-07
5.1832421e-07
-1.6199133e-07
-4.8679837e-06
-5.1238312e-07
-2.2606046e-07
-5.4796164e-06
5.0761689e-07
2.5707568e-05
-6.6716518e-06
-6.4234386e-06
-2.4684152e-05
-6.4574801e-06
-9.0586882e-06
2.6099049e-05
7.3848269e-06
-6.5912754e-06
-2.0225134e-06
-7.0966633e-06
-6.9871918e-06
-2.8871757e-06
8.4642756e-06
3.5291408e-06
-6.4509621e-06
-1.0235645e-06
-3.4832687e-06
-7.1291285e-06
-1.4683902e-06
3.9463933e-06
1.9279178e-06
-6.3537903e-06
-5.7471055e-07
-1.9231254e-06
-7.147211e-06
-8.1931161e-07
2.0937415e-06
1.1904817e-06
-6.2903078e-06
-3.5829729e-07
-1.1925439e-06
-7.1174312e-06
-5.0671586e-07
1.2483511e-06
8.2756671e-07
-6.2489342e-06
-2.4846323e-07
-8.2806616e-07
-7.0686766e-06
-3.4916837e-07
8.3657764e-07
6.4686844e-07
-1.9205628e-07
-6.2224955e-06
-6.4324221e-07
-2.6830547e-07
-7.0095611e-06
6.2999684e-07
3.2828593e-05
-8.4301992e-06
-7.7285221e-06
-3.1645659e-05
-8.1198034e-06
-1.0933301e-05
3.313977e-05
9.4397773e-06
-8.3574284e-06
-2.4291349e-06
-9.1059271e-06
-8.8443415e-06
-3.5006118e-06
1.0777752e-05
4.5071568e-06
-8.1944778e-06
-1.2247437e-06
-4.4689297e-06
-9.0519568e-06
-1.7674619e-06
5.0138417e-06
2.4553614e-06
-8.0809646e-06
-6.8358728e-07
-2.4599984e-06
-9.0882427e-06
-9.7803696e-07
2.6503717e-06
1.5066049e-06
-8.0065558e-06
-4.2300653e-07
-1.5163063e-06
-9.0591266e-06
-5.997358e-07
1.5705059e-06
1.0377834e-06
-7.9590291e-06
-2.9069066e-07
-1.0430838e-06
-9.0044393e-06
-4.0935759e-07
1.0432831e-06
8.0083608e-07
-2.221442e-07
-7.9298127e-06
-7.9996617e-07
-3.1096776e-07
-8.9370327e-06
7.7608921e-07
4.2557697e-05
-1.0706714e-05
-9.2604179e-06
-4.1170384e-05
-1.0269183e-05
-1.3128999e-05
4.274783e-05
1.220913e-05
-1.064132e-05
-2.9021984e-06
-1.1801459e-05
-1.1268488e-05
-4.2048812e-06
1.3912706e-05
5.8200345e-06
-1.0449739e-05
-1.4539905e-06
-5.7823675e-06
-1.1565862e-05
-2.1023578e-06
6.4523054e-06
3.1558819e-06
-1.031443e-05
-8.0527843e-07
-3.169499e-06
-1.1628112e-05
-1.1532986e-06
3.3933952e-06
1.9217579e-06
-1.0226527e-05
-4.9410432e-07
-1.9385617e-06
-1.1600905e-05
-7.0106492e-07
1.9958817e-06
1.3089712e-06
-1.017224e-05
-3.3602381e-07
-1.3179238e-06
-1.1539491e-05
-4.7342118e-07
1.3116225e-06
9.9364444e-07
-2.531925e-07
-1.014046e-05
-9.9437507e-07
-3.5449538e-07
-1.1462602e-05
9.6028332e-07
5.3820206e-05
-1.3336603e-05
-1.0350065e-05
-5.2749567e-05
-1.260839e-05
-1.504054e-05
5.3362864e-05
1.5494128e-05
-1.3324365e-05
-3.2438044e-06
-1.516476e-05
-1.398681e-05
-4.814859e-06
1.7482525e-05
7.3960452e-06
-1.3121542e-05
-1.6153231e-06
-7.4375354e-06
-1.4421174e-05
-2.3876676e-06
8.1157207e-06
3.9935901e-06
-1.2970146e-05
-8.8718534e-07
-4.0630808e-06
-1.4530653e-05
-1.2988277e-06
4.2485968e-06
2.414377e-06
-1.2874451e-05
-5.3952537e-07
-2.4646515e-06
-1.4515805e-05
-7.827533e-07
2.4812181e-06
1.62207e-06
-1.2817386e-05
-3.6256521e-07
-1.6525953e-06
-1.4454446e-05
-5.2226667e-07
1.6095546e-06
1.2067964e-06
-2.684638e-07
-1.2786982e-05
-1.2219308e-06
-3.8414053e-07
-1.4373672e-05
1.1556664e-06
6.8872291e-05
-1.7045065e-05
-1.1563852e-05
-6.7369802e-05
-1.6268396e-05
-1.5918046e-05
6.7353155e-05
2.0413215e-05
-1.6927305e-05
-3.8306305e-06
-1.9944148e-05
-1.7826159e-05
-5.3670069e-06
2.2523126e-05
9.7339181e-06
-1.6618529e-05
-1.8911601e-06
-9.7668562e-06
-1.8288299e-05
-2.6422292e-06
1.0450622e-05
5.2238919e-06
-1.6402264e-05
-1.0262475e-06
-5.301095e-06
-1.8380494e-05
-1.4241679e-06
5.4414255e-06
3.1216881e-06
-1.6270625e-05
-6.1565513e-07
-3.1771962e-06
-1.8340688e-05
-8.49359e-07
3.1484891e-06
2.0606811e-06
-1.6194359e-05
-4.0696583e-07
-2.0925459e-06
-1.8256642e-05
-5.5898599e-07
2.0133533e-06
1.4970035e-06
-2.9536905e-07
-1.6153925e-05
-1.5105324e-06
-4.0396457e-07
-1.8155899e-05
1.4160844e-06
8.4153504e-05
-2.1087508e-05
-1.1895203e-05
-8.3275078e-05
-2.052e-05
-1.5727222e-05
8.1926878e-05
2.6868205e-05
-2.0984789e-05
-4.2018003e-06
-2.6599754e-05
-2.2174878e-05
-5.650732e-06
2.8806807e-05
1.2819068e-05
-2.0610196e-05
-2.0500379e-06
-1.3034783e-05
-2.2622701e-05
-2.7614751e-06
1.3386138e-05
6.8308448e-06
-2.0347434e-05
-1.0964124e-06
-7.0234423e-06
-2.2686805e-05
-1.4736213e-06
6.9444e-06
4.024094e-06
-2.0192249e-05
-6.4700341e-07
-4.1479319e-06
-2.2621515e-05
-8.6831889e-07
3.9777653e-06
2.6005549e-06
-2.0107006e-05
-4.1919964e-07
-2.6735631e-06
-2.2522082e-05
-5.6235966e-07
2.5044944e-06
1.838529e-06
-2.9679973e-07
-2.0066372e-05
-1.8777339e-06
-3.9796056e-07
-2.2415605e-05
1.7260477e-06
8.1432659e-05
-2.0675995e-05
-1.1656498e-05
-8.1045532e-05
-2.0767595e-05
-1.5008145e-05
7.9597166e-05
2.8159883e-05
-2.0633289e-05
-4.3296996e-06
-2.8074688e-05
-2.2105136e-05
-5.7002421e-06
2.9546934e-05
1.3454157e-05
-2.0285731e-05
-2.0829595e-06
-1.3768793e-05
-2.2413249e-05
-2.763857e-06
1.3764655e-05
7.1210098e-06
-2.0040202e-05
-1.0982276e-06
-7.364721e-06
-2.2425409e-05
-1.4614432e-06
7.1209909e-06
4.1345487e-06
-1.9899655e-05
-6.3814711e-07
-4.2839506e-06
-2.2346589e-05
-8.5145864e-07
4.0388707e-06
2.6130949e-06
-1.9827277e-05
-4.0569053e-07
-2.6989778e-06
-2.2254952e-05
-5.4296658e-07
2.5020647e-06
1.7937518e-06
-2.8022726e-07
-1.9797895e-05
-1.8397044e-06
-3.7611766e-07
-2.2169507e-05
1.6864642e-06
7.8135542e-05
-2.0351325e-05
-1.0883111e-05
-7.8200476e-05
-2.1081965e-05
-1.3734649e-05
7.6643301e-05
2.918363e-05
-2.0373418e-05
-4.2440538e-06
-2.9247182e-05
-2.2137915e-05
-5.5173223e-06
3.005666e-05
1.3995071e-05
-2.0063559e-05
-2.0168859e-06
-1.4371002e-05
-2.2332116e-05
-2.6594272e-06
1.4084843e-05
7.3729576e-06
-1.9841981e-05
-1.0501955e-06
-7.6425664e-06
-2.2299693e-05
-1.3952721e-06
7.2743633e-06
4.2273876e-06
-1.9719039e-05
-6.0192029e-07
-4.3865566e-06
-2.2211344e-05
-8.0452588e-07
4.092107e-06
2.617446e-06
-1.9660369e-05
-3.759868e-07
-2.7058177e-06
-2.2128495e-05
-5.0545835e-07
2.4970884e-06
1.7458146e-06
-2.534768e-07
-1.9641678e-05
-1.7912555e-06
-3.4268667e-07
-2.206314e-05
1.6470294e-06
7.4453231e-05
-2.0091504e-05
-9.6523576e-06
-7.4914423e-05
-2.1430682e-05
-1.196343e-05
7.3246338e-05
2.9811332e-05
-2.0219288e-05
-3.9395934e-06
-2.9988006e-05
-2.2288375e-05
-5.0539429e-06
3.0205646e-05
1.437246e-05
-1.997208e-05
-1.8621191e-06
-1.4774435e-05
-2.2409804e-05
-2.4318518e-06
1.4266314e-05
7.5529501e-06
-1.9786831e-05
-9.6262954e-07
-7.825762e-06
-2.2351037e-05
-1.2702527e-06
7.3691659e-06
4.2881907e-06
-1.9686086e-05
-5.4684185e-07
-4.4440125e-06
-2.2260467e-05
-7.2741998e-07
4.1205161e-06
2.6095874e-06
-1.9641407e-05
-3.3731549e-07
-2.6929344e-06
-2.2187229e-05
-4.5204746e-07
2.4829407e-06
1.6966386e-06
-2.2318426e-07
-1.9631134e-05
-1.7372019e-06
-3.0137427e-07
-2.2138425e-05
1.606525e-06
7.1229902e-05
-1.9718067e-05
-8.3375542e-06
-7.1989794e-05
-2.1338195e-05
-1.0146109e-05
7.0044937e-05
2.9494162e-05
-1.9994873e-05
-3.386841e-06
-2.9770107e-05
-2.2179457e-05
-4.2327137e-06
2.9514195e-05
1.4298614e-05
-1.9844828e-05
-1.5972445e-06
-1.4713533e-05
-2.2324334e-05
-2.0281481e-06
1.4039789e-05
7.527244e-06
-1.9712279e-05
-8.2633295e-07
-7.7960869e-06
-2.2284753e-05
-1.0597068e-06
7.2771189e-06
4.2665689e-06
-1.9637777e-05
-4.7112744e-07
-4.4167832e-06
-2.2208071e-05
-6.0946528e-07
4.0719333e-06
2.5844904e-06
-1.9604052e-05
-2.9242006e-07
-2.663107e-06
-2.2142759e-05
-3.815232e-07
2.4486562e-06
1.6672027e-06
-1.9515287e-07
-1.9595125e-05
-1.7041594e-06
-2.5689293e-07
-2.2097151e-05
1.5771156e-06
6.8841425e-05
-1.9819799e-05
-6.9573577e-06
-6.9749818e-05
-2.1539413e-05
-8.2519014e-06
6.7485523e-05
2.858727e-05
-2.0051007e-05
-2.7868418e-06
-2.8956059e-05
-2.2270921e-05
-3.3668602e-06
2.8452926e-05
1.3931738e-05
-1.9915109e-05
-1.3045503e-06
-1.4360329e-05
-2.2397332e-05
-1.6000593e-06
1.3630061e-05
7.3686236e-06
-1.9800253e-05
-6.7365918e-07
-7.6361494e-06
-2.2363428e-05
-8.3450278e-07
7.1095182e-06
4.1963204e-06
-1.9738647e-05
-3.8491404e-07
-4.3441372e-06
-2.2297879e-05
-4.8150879e-07
4.0028172e-06
2.5562946e-06
-1.9713955e-05
-2.4015469e-07
-2.6332484e-06
-2.2242912e-05
-3.0347317e-07
2.42328e-06
1.6607599e-06
-1.615655e-07
-1.9711645e-05
-1.6966539e-06
-2.0633682e-07
-2.220627e-05
1.5735652e-06
6.6650521e-05
-2.0025909e-05
-5.6057035e-06
-6.7669872e-05
-2.1875359e-05
-6.324912e-06
6.5142468e-05
2.777647e-05
-2.0196129e-05
-2.2254901e-06
-2.8167599e-05
-2.2502898e-05
-2.514799e-06
2.7551949e-05
1.360495e-05
-2.0062848e-05
-1.0362334e-06
-1.4006547e-05
-2.2609602e-05
-1.1830195e-06
1.3294615e-05
7.2306676e-06
-1.9960058e-05
-5.3475488e-07
-7.472359e-06
-2.2578165e-05
-6.1528419e-07
6.9800156e-06
4.1366978e-06
-1.9907009e-05
-3.0632692e-07
-4.2683313e-06
-2.2521495e-05
-3.5619354e-07
3.954714e-06
2.5345885e-06
-1.9888487e-05
-1.9211283e-07
-2.601149e-06
-2.2475277e-05
-2.2615935e-07
2.4110602e-06
1.6585866e-06
-1.3022038e-07
-1.989089e-05
-1.6875251e-06
-1.553778e-07
-2.2446e-05
1.5783542e-06
6.5280566e-05
-2.0226508e-05
-4.2488108e-06
-6.6466692e-05
-2.225342e-05
-4.5943661e-06
6.3815082e-05
2.7258086e-05
-2.0345195e-05
-1.6737784e-06
-2.7691106e-05
-2.2810911e-05
-1.8049008e-06
2.710568e-05
1.3392339e-05
-2.0212942e-05
-7.7312377e-07
-1.3787698e-05
-2.2907593e-05
-8.4184307e-07
1.3147847e-05
7.1160016e-06
-2.0120548e-05
-3.9527512e-07
-7.3478719e-06
-2.2884886e-05
-4.3306499e-07
6.9110784e-06
4.0605352e-06
-2.0079156e-05
-2.2374163e-07
-4.1845089e-06
-2.284348e-05
-2.4775461e-07
3.9106923e-06
2.4767931e-06
-2.007106e-05
-1.3825812e-07
-2.5387407e-06
-2.2813436e-05
-1.5519224e-07
2.3757861e-06
1.6118464e-06
-9.2076435e-08
-2.0082763e-05
-1.6382838e-06
-1.0493043e-07
-2.2799461e-05
1.5474269e-06
5.1966229e-05
-1.6243758e-05
-3.1973049e-06
-5.2948608e-05
-1.7952328e-05
-3.2137738e-06
5.069275e-05
2.1706075e-05
-1.6331569e-05
-1.2433282e-06
-2.2048706e-05
-1.8386738e-05
-1.2391244e-06
2.1574711e-05
1.0678636e-05
-1.6234154e-05
-5.6521967e-07
-1.0983952e-05
-1.8468045e-05
-5.6962417e-07
1.0487726e-05
5.6486334e-06
-1.6166952e-05
-2.8499461e-07
-5.8261092e-06
-1.8455257e-05
-2.8769288e-07
5.4904749e-06
3.1920527e-06
-1.6137153e-05
-1.5931578e-07
-3.2862733e-06
-1.842737e-05
-1.6242703e-07
3.0788403e-06
1.9193112e-06
-1.6131338e-05
-9.7173629e-08
-1.9662048e-06
-1.8407111e-05
-1.0077268e-07
1.8446345e-06
1.2264298e-06
-6.3752419e-08
-1.61394e-05
-1.2466856e-06
-6.7465913e-08
-1.8398069e-05
1.179926e-06
4.1998061e-05
-1.2947339e-05
-2.4651961e-06
-4.2711323e-05
-1.4374742e-05
-2.1639314e-06
4.0996911e-05
1.7535728e-05
-1.3023522e-05
-9.4544071e-07
-1.7757428e-05
-1.4744317e-05
-8.1365205e-07
1.747983e-05
8.6280458e-06
-1.2951809e-05
-4.212618e-07
-8.8437083e-06
-1.4822394e-05
-3.6845083e-07
8.5049523e-06
4.5458777e-06
-1.290197e-05
-2.0971003e-07
-4.6709944e-06
-1.4818427e-05
-1.8087915e-07
4.4350986e-06
2.5478639e-06
-1.2879598e-05
-1.1600722e-07
-2.6135349e-06
-1.4800048e-05
-1.0068578e-07
2.4677456e-06
1.5134835e-06
-1.2874671e-05
-7.0036839e-08
-1.5455381e-06
-1.4786072e-05
-6.2305565e-08
1.4610431e-06
9.5202662e-07
-4.5413284e-08
-1.2879851e-05
-9.651771e-07
-4.1750727e-08
-1.4779934e-05
9.2017437e-07
3.429646e-05
-1.033485e-05
-1.8902084e-06
-3.4858392e-05
-1.1492278e-05
-1.3193573e-06
3.3495541e-05
1.4315344e-05
-1.0412919e-05
-7.0356957e-07
-1.4479136e-05
-1.1815302e-05
-4.7276792e-07
1.4297495e-05
7.0441604e-06
-1.036595e-05
-3.0131082e-07
-7.2110745e-06
-1.1892512e-05
-2.083716e-07
6.9612931e-06
3.700648e-06
-1.0332346e-05
-1.4695244e-07
-3.7970058e-06
-1.1895078e-05
-9.6607615e-08
3.6189448e-06
2.0605954e-06
-1.0316991e-05
-8.0288057e-08
-2.111664e-06
-1.1883558e-05
-5.2577315e-08
2.0009671e-06
1.2126632e-06
-1.0314138e-05
-4.8087651e-08
-1.2374599e-06
-1.18741e-05
-3.2977325e-08
1.1738789e-06
7.5329651e-07
-3.0956762e-08
-1.031835e-05
-7.6353676e-07
-2.2684847e-08
-1.1869972e-05
7.3010353e-07
2.7714991e-05
-8.1095747e-06
-1.4906196e-06
-2.8084087e-05
-9.0568752e-06
-7.1097114e-07
2.7193585e-05
1.1581727e-05
-8.1935553e-06
-5.4030145e-07
-1.1661013e-05
-9.3546765e-06
-2.2825812e-07
1.1635001e-05
5.7052842e-06
-8.1690571e-06
-2.2265069e-07
-5.8084365e-06
-9.4365468e-06
-1.0003536e-07
5.6788222e-06
2.9916664e-06
-8.1494048e-06
-1.0678447e-07
-3.0514838e-06
-9.4472687e-06
-4.1783183e-08
2.9475664e-06
1.6579817e-06
-8.1407455e-06
-5.7699169e-08
-1.6892276e-06
-9.4424752e-06
-2.1972817e-08
1.6225853e-06
9.6853139e-07
-8.140097e-06
-3.4277821e-08
-9.8298773e-07
-9.437499e-06
-1.445356e-08
9.450333e-07
5.95777e-07
-2.1889445e-08
-8.1441494e-06
-6.0079046e-07
-1.0672552e-08
-9.4357031e-06
5.8196967e-07
2.2936885e-05
-6.5053652e-06
-1.1883352e-06
-2.3226684e-05
-7.274287e-06
-3.1234671e-07
2.2608279e-05
9.5605439e-06
-6.5784666e-06
-4.102039e-07
-9.6175256e-06
-7.5298409e-06
-5.424318e-08
9.6421087e-06
4.7072806e-06
-6.5629371e-06
-1.5976884e-07
-4.7856893e-06
-7.6007348e-06
-2.2114513e-08
4.7002537e-06
2.4617875e-06
-6.5494562e-06
-7.3621083e-08
-2.5084296e-06
-7.6100683e-06
-3.2450268e-09
2.4325843e-06
1.3586225e-06
-6.543721e-06
-3.8828518e-08
-1.3832268e-06
-7.6061118e-06
-5.5989793e-10
1.3332547e-06
7.8877893e-07
-6.5436285e-06
-2.2762981e-08
-8.0038547e-07
-7.6021273e-06
-1.2933792e-09
7.7163515e-07
4.8138687e-07
-1.4410705e-08
-6.5470076e-06
-4.854852e-07
-2.0488585e-09
-7.600666e-06
4.7130405e-07
1.8884827e-05
-5.2054242e-06
-8.9717703e-07
-1.9175076e-05
-5.8098724e-06
-1.8180323e-08
1.863976e-05
7.8517527e-06
-5.2686227e-06
-2.7551165e-07
-7.9232524e-06
-6.0240239e-06
8.4716668e-08
7.926921e-06
3.8639826e-06
-5.2583599e-06
-9.4627995e-08
-3.9393821e-06
-6.0812295e-06
4.3151377e-08
3.8559244e-06
2.0160348e-06
-5.2486978e-06
-3.8054617e-08
-2.0612617e-06
-6.0872814e-06
2.9089335e-08
1.9897535e-06
1.1088399e-06
-5.2448546e-06
-1.8328315e-08
-1.1331821e-06
-6.0829011e-06
1.7503811e-08
1.0863975e-06
6.4062566e-07
-5.2451002e-06
-1.0373154e-08
-6.5276933e-07
-6.0789866e-06
9.8678964e-09
6.2555087e-07
3.8844179e-07
-6.5265655e-09
-5.2478781e-06
-3.9354698e-07
5.2521269e-09
-6.0773556e-06
3.7951172e-07
1.5188959e-05
-4.0808285e-06
-6.8595309e-07
-1.5389344e-05
-4.5802717e-06
1.4784143e-07
1.5088261e-05
6.3288713e-06
-4.1412455e-06
-1.8660942e-07
-6.3573333e-06
-4.7720241e-06
1.5999296e-07
6.4453815e-06
3.1192572e-06
-4.1383593e-06
-5.5958648e-08
-3.1608121e-06
-4.8258394e-06
7.7446942e-08
3.1387748e-06
1.6258876e-06
-4.1339767e-06
-1.6066852e-08
-1.6522571e-06
-4.8343536e-06
4.5909031e-08
1.6175825e-06
8.9215921e-07
-4.1332358e-06
-4.9437901e-09
-9.0628384e-07
-4.8332204e-06
2.7583293e-08
8.8094712e-07
5.1369752e-07
-4.134953e-06
-2.1157376e-09
-5.2023675e-07
-4.8314188e-06
1.6290762e-08
5.054741e-07
3.0987532e-07
-1.2375768e-09
-4.13798e-06
-3.1213678e-07
9.5598401e-09
-4.8309066e-06
3.0505547e-07
1.2144914e-05