/*--------------------------------*- C++ -*----------------------------------*\
| =========                 |                                                 |
| \\      /  F ield         | OpenFOAM: The Open Source CFD Toolbox           |
|  \\    /   O peration     | Version:  2206                                  |
|   \\  /    A nd           | Website:  www.openfoam.com                      |
|    \\/     M anipulation  |                                                 |
\*---------------------------------------------------------------------------*/
FoamFile
{
    version     2.0;
    format      ascii;
    arch        "LSB;label=32;scalar=64";
    class       volScalarField;
    location    "100";
    object      rho;
}
// * * * * * * * * * * * * * * * * * * * * * * * * * * * * * * * * * * * * * //

dimensions      [1 -3 0 0 0 0 0];

internalField   nonuniform List<scalar> 
50904
(
1.2086674
1.2050074
1.2080639
1.2041911
1.2090191
1.2056031
1.2084617
1.2048885
1.2094363
1.2062209
1.2089444
1.2055746
1.2098318
1.2067102
1.2093656
1.2060436
1.2102011
1.2070934
1.2096947
1.2063467
1.2104738
1.2073752
1.2098912
1.2065457
1.2106257
1.2075801
1.2100057
1.2067157
1.2107517
1.2078019
1.2101272
1.206931
1.2109088
1.2080889
1.2102831
1.2072181
1.2111121
1.2084587
1.2104943
1.2076006
1.2113764
1.2089254
1.2107809
1.2081054
1.2117196
1.2094959
1.2111516
1.2087458
1.212159
1.2101959
1.21164
1.2095303
1.2127006
1.2110234
1.2122428
1.2104468
1.2133552
1.2119704
1.2129718
1.2115027
1.2140094
1.2128761
1.2136913
1.2125038
1.2145788
1.2136423
1.2143158
1.2133505
1.2150842
1.2142993
1.2148618
1.2140699
1.2155048
1.2148366
1.2153058
1.2146506
1.2158563
1.2152764
1.215678
1.2151277
1.2161388
1.2156193
1.2159749
1.2154979
1.2163709
1.215877
1.2162102
1.2157701
1.2165378
1.2160311
1.2163633
1.2159173
1.2166458
1.2161074
1.2164538
1.2159667
1.2167196
1.216145
1.2165087
1.2159723
1.2167706
1.2161566
1.2165463
1.2159437
1.2168076
1.2161549
1.2165686
1.2159087
1.2168348
1.2161445
1.2165802
1.2158696
1.2168534
1.2161196
1.2165911
1.2158281
1.2168442
1.2160791
1.2165691
1.2157734
1.2167342
1.2159471
1.2164482
1.2156373
1.2164747
1.2156877
1.216183
1.2153865
1.2162394
1.215483
1.215967
1.2151972
1.2161097
1.2153608
1.2158603
1.2150878
1.2160299
1.2152804
1.2157882
1.2149991
1.2159983
1.215243
1.2157514
1.214948
1.2078353
1.203966
1.2090709
1.2058938
1.209845
1.2073026
1.2103414
1.2082594
1.2106646
1.2089041
1.2108753
1.209333
1.2110168
1.2096546
1.2082367
1.2046586
1.2093777
1.2063647
1.2100266
1.2074919
1.2103984
1.2082727
1.2106342
1.2088164
1.2108063
1.2092041
1.2109428
1.2095174
1.2086938
1.2052642
1.2096259
1.206653
1.2100877
1.2075506
1.2103756
1.208235
1.2105881
1.2087524
1.2107636
1.2091572
1.2109167
1.2094829
1.2089965
1.205595
1.2096899
1.2067055
1.2100678
1.2074885
1.2103236
1.2081334
1.2105216
1.2086256
1.2106943
1.2090083
1.2108478
1.2093279
1.2091843
1.205772
1.2097453
1.2067539
1.2100972
1.2074982
1.2103403
1.2081372
1.2105341
1.2086254
1.2107069
1.2090132
1.2108619
1.2093368
1.2092932
1.2058974
1.2097891
1.206788
1.2101208
1.2074836
1.2103531
1.2080954
1.2105432
1.2085717
1.2107164
1.2089589
1.2108749
1.2092845
1.2093699
1.2060299
1.2098173
1.2068295
1.2101274
1.207476
1.2103501
1.2080663
1.2105375
1.2085344
1.2107113
1.2089203
1.2108712
1.209247
1.2094708
1.2062195
1.2098641
1.2069082
1.2101484
1.2074938
1.2103583
1.2080572
1.2105403
1.2085171
1.2107123
1.2088989
1.2108726
1.2092258
1.2096096
1.2064774
1.2099463
1.2070466
1.2102069
1.2075769
1.2104048
1.2081176
1.2105816
1.2085686
1.2107512
1.2089413
1.2109117
1.2092674
1.2098114
1.2068401
1.210089
1.207282
1.2103245
1.2077613
1.2105095
1.20828
1.2106798
1.2087135
1.2108464
1.2090745
1.2110053
1.2093968
1.2101068
1.207347
1.210339
1.2076813
1.2105531
1.2081202
1.2107263
1.2086209
1.21089
1.2090246
1.2110526
1.2093753
1.2112085
1.2096886
1.2105022
1.2080105
1.2106954
1.2082404
1.2108906
1.2086517
1.2110529
1.2091105
1.2112094
1.2094936
1.2113662
1.2098291
1.2115176
1.2101286
1.211051
1.2088702
1.211235
1.2090635
1.2114187
1.209426
1.2115726
1.2098497
1.2117203
1.2102078
1.211869
1.2105191
1.2120124
1.2107956
1.21174
1.2098761
1.2119381
1.2100611
1.2121166
1.210407
1.2122645
1.2107983
1.2124021
1.2111263
1.21254
1.2114091
1.2126734
1.2116601
1.2125775
1.2110419
1.2128086
1.2112466
1.2129883
1.2115779
1.2131306
1.2119358
1.2132569
1.2122305
1.213381
1.2124813
1.2134997
1.2127009
1.2134058
1.212159
1.2136715
1.2123958
1.2138539
1.2127165
1.2139916
1.2130437
1.2141069
1.2133041
1.2142166
1.2135221
1.2143194
1.213709
1.2141202
1.213101
1.2144061
1.2133653
1.2145887
1.213678
1.2147216
1.2139794
1.2148273
1.214211
1.2149246
1.2144013
1.2150141
1.2145616
1.2147306
1.2138873
1.2150205
1.2141721
1.2152007
1.2144793
1.215329
1.2147593
1.2154265
1.214967
1.2155138
1.2151351
1.2155925
1.2152747
1.2152422
1.2145427
1.215523
1.2148373
1.2156947
1.2151343
1.2158155
1.2153915
1.2159044
1.2155775
1.2159816
1.2157263
1.2160517
1.21585
1.2156645
1.2150858
1.2159329
1.2153809
1.2160933
1.2156641
1.2162059
1.2158993
1.216288
1.2160686
1.2163576
1.216203
1.21642
1.2163138
1.2159981
1.2155137
1.2162504
1.2158003
1.2163996
1.2160683
1.2165041
1.2162831
1.2165792
1.2164377
1.2166422
1.2165602
1.2166983
1.2166611
1.2162545
1.215827
1.2164908
1.2161089
1.2166295
1.2163626
1.2167262
1.2165607
1.2167948
1.2167033
1.2168524
1.2168156
1.2169027
1.2169066
1.2164167
1.2159987
1.2166374
1.2162804
1.2167672
1.216522
1.2168561
1.2167073
1.2169187
1.2168386
1.2169713
1.2169415
1.2170178
1.2170248
1.2165068
1.2160625
1.2167145
1.2163463
1.216837
1.2165778
1.2169205
1.2167541
1.2169788
1.2168769
1.2170276
1.2169725
1.217071
1.2170504
1.2165564
1.2160728
1.2167584
1.2163618
1.2168761
1.2165867
1.2169554
1.2167567
1.2170103
1.2168729
1.2170564
1.2169638
1.2170977
1.2170379
1.2165805
1.2160539
1.2167818
1.2163506
1.2168973
1.2165741
1.2169739
1.216741
1.2170261
1.2168532
1.2170699
1.2169402
1.2171095
1.2170115
1.216593
1.216027
1.2167952
1.2163256
1.2169098
1.2165529
1.216985
1.2167197
1.217035
1.2168292
1.2170772
1.2169137
1.2171153
1.2169829
1.2166034
1.2159826
1.2168019
1.2162972
1.2169174
1.2165338
1.2169922
1.2167019
1.2170409
1.21681
1.2170818
1.216893
1.2171184
1.2169606
1.2166051
1.2159437
1.2168034
1.2162659
1.2169202
1.2165141
1.2169957
1.2166847
1.2170433
1.2167921
1.2170827
1.2168742
1.2171179
1.2169409
1.2165922
1.2158945
1.2167967
1.2162305
1.2169144
1.2164891
1.2169906
1.2166636
1.2170369
1.2167716
1.2170742
1.2168527
1.2171075
1.2169181
1.2165072
1.2157983
1.2167607
1.2161845
1.2168822
1.2164505
1.2169586
1.216629
1.2170029
1.216735
1.2170365
1.2168101
1.2170664
1.2168705
1.2162864
1.2156134
1.2166513
1.2161188
1.2168143
1.2164132
1.2168988
1.2165973
1.2169475
1.2167077
1.2169803
1.216783
1.2170077
1.2168401
1.2160622
1.215411
1.2164867
1.2159998
1.216748
1.2163867
1.216864
1.2166049
1.2169239
1.216734
1.2169627
1.216817
1.2169901
1.2168767
1.2159309
1.2152587
1.2163399
1.2158472
1.216691
1.2163515
1.2168986
1.2166609
1.2169866
1.2168193
1.2170214
1.2169075
1.2170346
1.2169609
1.2158589
1.2151528
1.216251
1.2157242
1.2166045
1.2162554
1.2168991
1.2166706
1.2170772
1.2169116
1.2171433
1.2170221
1.2171422
1.2170604
1.2158232
1.2150936
1.2162336
1.2156831
1.2165812
1.2161941
1.2168275
1.2165695
1.2169995
1.2168313
1.217104
1.216993
1.217135
1.2170608
1.2111272
1.209924
1.21122
1.2101568
1.2112768
1.210332
1.2113449
1.210525
1.2114932
1.2108593
1.2118968
1.2116499
1.2110667
1.2097967
1.2111811
1.2100456
1.2112868
1.2102748
1.2114062
1.2105268
1.2115978
1.2109227
1.2120273
1.2117549
1.211059
1.2097764
1.211201
1.21005
1.2113454
1.2103133
1.2114991
1.2105977
1.2117024
1.2109938
1.2120767
1.2117677
1.210995
1.2096199
1.2111402
1.209896
1.2112925
1.2101661
1.2114588
1.210465
1.2116721
1.2108985
1.2120313
1.2116994
1.2110112
1.2096338
1.2111627
1.2099182
1.211324
1.210197
1.2114975
1.2105028
1.2117161
1.2109373
1.2120807
1.2117486
1.2110305
1.2095871
1.2111885
1.2098792
1.2113571
1.2101686
1.2115402
1.2104873
1.2117718
1.2109397
1.2121495
1.2117761
1.2110289
1.2095518
1.2111909
1.2098494
1.2113646
1.210146
1.2115526
1.2104696
1.2117891
1.210922
1.2121695
1.2117577
1.2110315
1.2095312
1.2111953
1.2098328
1.2113729
1.2101357
1.2115629
1.2104634
1.2117994
1.2109167
1.2121802
1.2117485
1.2110714
1.2095721
1.2112355
1.2098751
1.2114157
1.210181
1.211606
1.2105106
1.211841
1.2109599
1.2122173
1.2117789
1.2111645
1.2096979
1.21133
1.209999
1.2115104
1.2103056
1.2117015
1.2106362
1.2119334
1.2110782
1.2123014
1.2118776
1.2113658
1.2099815
1.2115299
1.2102765
1.2117093
1.2105793
1.2118996
1.2109029
1.2121284
1.2113305
1.2124778
1.2120907
1.2116705
1.2104093
1.2118309
1.2106931
1.2120057
1.2109843
1.2121912
1.2112958
1.2124118
1.2117044
1.2127461
1.2124178
1.2121579
1.2110562
1.212309
1.2113191
1.2124756
1.2115901
1.2126506
1.2118792
1.2128586
1.2122539
1.213166
1.2129048
1.2128066
1.2118942
1.2129463
1.2121315
1.2130982
1.2123767
1.2132591
1.212635
1.2134482
1.2129678
1.2137232
1.2135406
1.2136177
1.2129036
1.2137404
1.2131116
1.2138742
1.2133253
1.2140147
1.2135474
1.2141807
1.2138329
1.2144171
1.2143148
1.2144216
1.2138825
1.2145271
1.2140594
1.2146414
1.2142398
1.2147616
1.2144282
1.2149037
1.2146683
1.2151043
1.2150665
1.2151027
1.2147108
1.2151935
1.2148608
1.2152914
1.215014
1.2153945
1.2151739
1.2155167
1.2153786
1.2156881
1.2157132
1.2156698
1.2154036
1.2157486
1.2155325
1.2158332
1.2156643
1.2159222
1.2158019
1.2160284
1.2159788
1.2161771
1.2162647
1.2161184
1.2159618
1.2161874
1.2160734
1.2162607
1.2161875
1.2163382
1.2163072
1.2164312
1.2164613
1.2165626
1.216711
1.2164791
1.2164125
1.2165396
1.2165109
1.2166042
1.2166113
1.2166726
1.2167169
1.2167561
1.2168541
1.2168758
1.2170784
1.216751
1.2167492
1.2168049
1.2168364
1.2168626
1.2169253
1.2169237
1.2170194
1.2169996
1.2171429
1.2171098
1.217347
1.2169504
1.2169859
1.2169987
1.2170642
1.2170508
1.2171443
1.2171062
1.2172295
1.2171762
1.2173425
1.217278
1.2175297
1.2170613
1.2170974
1.2171054
1.2171688
1.2171531
1.2172427
1.2172036
1.2173211
1.2172689
1.2174263
1.2173643
1.2175993
1.2171117
1.2171183
1.2171525
1.2171849
1.2171965
1.2172544
1.2172434
1.2173282
1.2173052
1.2174281
1.2173944
1.2175906
1.2171364
1.2171023
1.217175
1.2171657
1.2172163
1.2172321
1.2172605
1.2173029
1.2173192
1.2173987
1.2174036
1.217553
1.2171464
1.217073
1.2171833
1.2171336
1.2172227
1.2171972
1.2172648
1.2172655
1.2173208
1.217358
1.2174005
1.2175051
1.2171507
1.2170422
1.2171862
1.2171006
1.2172243
1.217162
1.2172652
1.2172282
1.2173191
1.2173178
1.217395
1.2174594
1.2171524
1.2170181
1.2171867
1.2170748
1.2172236
1.2171343
1.2172634
1.2171984
1.2173154
1.2172856
1.2173882
1.217423
1.2171505
1.2169974
1.2171835
1.2170531
1.2172194
1.2171113
1.2172581
1.2171741
1.2173083
1.2172596
1.2173782
1.2173927
1.2171382
1.2169723
1.2171695
1.2170261
1.2172037
1.2170821
1.2172406
1.2171425
1.2172871
1.2172246
1.2173533
1.2173514
1.2170936
1.2169203
1.2171215
1.2169702
1.2171523
1.2170224
1.2171853
1.2170788
1.2172267
1.2171552
1.2172861
1.2172727
1.2170315
1.2168865
1.2170561
1.2169327
1.2170826
1.2169813
1.2171111
1.2170335
1.217148
1.217106
1.2172034
1.2172202
1.2170115
1.2169226
1.2170324
1.2169677
1.2170549
1.2170135
1.2170815
1.2170631
1.2171249
1.2171381
1.2172021
1.2172693
1.2170361
1.2169968
1.2170383
1.2170311
1.2170407
1.2170641
1.2170527
1.217104
1.2170985
1.2171827
1.2172144
1.217351
1.2171073
1.2170601
1.2170727
1.2170596
1.2170342
1.2170522
1.2170101
1.2170582
1.2170315
1.2171158
1.2171461
1.2172951
1.2171147
1.2170713
1.2170888
1.2170723
1.2170482
1.2170484
1.21702
1.2170377
1.2170389
1.2170798
1.2171359
1.2172261
1.2124776
1.2125846
1.2129378
1.2131514
1.2130925
1.2133356
1.2131312
1.2133895
1.213129
1.2133984
1.2131223
1.2134004
1.2125959
1.2126377
1.2129748
1.2131208
1.2131158
1.2133022
1.2131817
1.2133965
1.213217
1.2134549
1.2132424
1.2135042
1.2125193
1.2125472
1.2128183
1.2129736
1.2129798
1.2131805
1.2130996
1.2133281
1.2131981
1.2134511
1.213284
1.2135647
1.2124453
1.2124894
1.2127377
1.2129358
1.2129178
1.2131691
1.2130629
1.2133436
1.2131938
1.2134962
1.2133196
1.2136445
1.2125033
1.2125712
1.2128074
1.2130518
1.2130025
1.2133072
1.2131618
1.2134975
1.2133065
1.2136651
1.2134468
1.2138286
1.212581
1.2126258
1.2128923
1.2131339
1.2130946
1.2134048
1.2132586
1.2136052
1.2134067
1.213781
1.2135518
1.2139544
1.2126035
1.2126295
1.2129207
1.2131659
1.2131272
1.2134532
1.2132948
1.2136641
1.2134456
1.2138478
1.2135933
1.2140295
1.2126106
1.2126341
1.2129315
1.2131943
1.2131413
1.2134949
1.213312
1.2137145
1.2134651
1.2139055
1.2136151
1.2140944
1.2126424
1.2126691
1.2129666
1.213249
1.2131796
1.213561
1.2133522
1.2137885
1.2135062
1.2139858
1.2136567
1.2141811
1.2127184
1.2127592
1.2130441
1.2133491
1.2132585
1.2136677
1.2134306
1.2139003
1.2135834
1.2141017
1.2137323
1.2143012
1.2128767
1.2129402
1.2131995
1.213524
1.2134097
1.2138418
1.2135778
1.2140757
1.2137267
1.2142776
1.2138717
1.2144769
1.2131241
1.2132185
1.213433
1.213779
1.2136348
1.2140892
1.2137963
1.2143184
1.2139395
1.2145163
1.2140788
1.2147107
1.2135086
1.213631
1.2137924
1.2141513
1.2139796
1.2144419
1.2141301
1.2146583
1.2142637
1.2148448
1.2143936
1.2150274
1.2140256
1.2141751
1.2142777
1.2146386
1.214445
1.2148999
1.2145797
1.2150954
1.2146993
1.2152636
1.2148158
1.2154277
1.2146739
1.2148472
1.2148885
1.2152424
1.2150308
1.2154672
1.2151453
1.2156355
1.2152471
1.2157798
1.2153464
1.2159201
1.2153205
1.2155083
1.2155
1.21584
1.2156184
1.2160289
1.2157131
1.2161699
1.2157972
1.2162902
1.2158798
1.2164074
1.2158731
1.2160863
1.216025
1.2163672
1.2161239
1.2165263
1.2162021
1.2166438
1.2162713
1.2167433
1.2163401
1.2168408
1.21634
1.2165885
1.2164718
1.2168321
1.2165561
1.2169681
1.2166216
1.2170671
1.2166791
1.2171499
1.2167368
1.2172312
1.2167133
1.2170047
1.2168317
1.2172249
1.2169043
1.2173415
1.2169597
1.2174249
1.2170075
1.2174935
1.2170551
1.2175603
1.2170168
1.2173499
1.2171293
1.2175608
1.2171927
1.2176614
1.21724
1.2177322
1.2172806
1.2177899
1.2173216
1.2178467
1.217243
1.2176007
1.2173516
1.217806
1.2174074
1.217894
1.2174485
1.2179547
1.2174836
1.2180038
1.2175195
1.2180526
1.2174024
1.2177649
1.2175066
1.2179622
1.2175574
1.2180419
1.2175946
1.2180961
1.2176264
1.2181392
1.2176592
1.2181825
1.217481
1.2178176
1.2175788
1.2180018
1.2176273
1.2180769
1.2176626
1.2181276
1.2176925
1.2181673
1.2177227
1.2182062
1.2175051
1.2177965
1.2175963
1.2179679
1.2176426
1.2180395
1.2176765
1.2180878
1.2177054
1.2181259
1.2177344
1.218163
1.2175081
1.2177464
1.217593
1.2179066
1.2176377
1.2179753
1.2176708
1.218022
1.2176992
1.2180592
1.217728
1.2180959
1.2174991
1.2176877
1.2175794
1.2178371
1.2176227
1.2179027
1.2176552
1.2179482
1.2176835
1.2179849
1.2177123
1.2180218
1.2174881
1.2176334
1.2175644
1.2177744
1.2176067
1.2178382
1.2176387
1.217883
1.217667
1.2179198
1.2176961
1.2179573
1.2174763
1.2175901
1.217549
1.217724
1.2175902
1.217786
1.2176217
1.2178304
1.2176501
1.2178676
1.2176793
1.2179054
1.2174626
1.2175546
1.2175317
1.2176827
1.2175718
1.2177432
1.2176027
1.217787
1.2176311
1.2178245
1.2176601
1.2178625
1.217434
1.2175069
1.2174983
1.2176275
1.2175355
1.2176848
1.2175649
1.2177268
1.2175919
1.2177625
1.2176196
1.2177983
1.2173599
1.2174189
1.2174168
1.2175298
1.2174476
1.217581
1.2174714
1.2176182
1.2174925
1.2176484
1.2175124
1.2176758
1.2172748
1.2173702
1.2173281
1.2174835
1.2173504
1.2175302
1.2173644
1.2175602
1.2173729
1.2175811
1.2173761
1.2175942
1.2173063
1.2174478
1.2173805
1.217578
1.2173984
1.217619
1.2173988
1.2176362
1.2173867
1.2176366
1.2173622
1.2176218
1.2173999
1.2175934
1.2175304
1.2177606
1.217539
1.2177832
1.2175146
1.217771
1.2174701
1.2177366
1.2174096
1.2176851
1.217383
1.2176068
1.2176067
1.217864
1.217626
1.2178811
1.2175794
1.2178385
1.217506
1.2177719
1.2174195
1.2176937
1.2172896
1.2174562
1.2174761
1.2176968
1.2175096
1.2177391
1.2174789
1.2177114
1.2174157
1.2176538
1.217339
1.2175853
1.2131335
1.2134187
1.213137
1.2134199
1.2131424
1.21341
1.2131675
1.2133987
1.2132299
1.2133882
1.2133477
1.213344
1.2134336
1.2129621
1.2132684
1.2135506
1.2132848
1.2135819
1.2132993
1.2135974
1.2133296
1.2136041
1.2133934
1.2136088
1.2135117
1.213584
1.2136
1.2132313
1.2133571
1.2136628
1.213421
1.2137502
1.2134749
1.2138192
1.2135377
1.2138713
1.2136284
1.2139133
1.213766
1.2139215
1.2138619
1.2135874
1.2134294
1.2137751
1.2135368
1.2138987
1.2136328
1.2140089
1.2137345
1.2141072
1.2138635
1.2141952
1.214034
1.2142467
1.2141523
1.2139451
1.213571
1.2139723
1.2136962
1.2141096
1.2138132
1.214235
1.2139374
1.2143542
1.2140909
1.214469
1.2142908
1.2145606
1.2144447
1.2142807
1.2136832
1.2141116
1.2138169
1.2142611
1.2139487
1.2143999
1.2140907
1.2145391
1.2142606
1.2146813
1.2144869
1.2148051
1.2146728
1.2145558
1.2137281
1.2141954
1.2138654
1.2143541
1.214003
1.2145028
1.2141538
1.2146567
1.214336
1.2148215
1.2145834
1.2149745
1.2147972
1.2147599
1.2137518
1.2142683
1.2138915
1.2144363
1.2140313
1.2145951
1.2141893
1.2147627
1.2143862
1.2149488
1.2146528
1.215132
1.2148941
1.2149609
1.2137944
1.2143622
1.2139368
1.2145385
1.2140801
1.2147075
1.2142439
1.214889
1.2144526
1.2150958
1.2147418
1.2153096
1.2150142
1.2151929
1.2138707
1.2144876
1.2140142
1.214671
1.2141603
1.2148491
1.2143297
1.2150438
1.214549
1.2152693
1.2148588
1.215516
1.2151636
1.2154559
1.214009
1.2146651
1.2141524
1.2148523
1.2142991
1.2150364
1.2144723
1.2152402
1.2146987
1.2154808
1.215024
1.2157564
1.215356
1.2157505
1.214213
1.2148966
1.2143543
1.2150835
1.2145
1.2152701
1.2146758
1.2154799
1.2149087
1.2157333
1.2152479
1.2160317
1.2155994
1.2160731
1.2145192
1.2152034
1.2146542
1.2153836
1.2147952
1.2155664
1.214969
1.2157778
1.2152012
1.2160373
1.2155428
1.2163483
1.2158985
1.216424
1.2149293
1.2155876
1.2150535
1.2157552
1.2151862
1.2159296
1.2153532
1.2161375
1.2155806
1.2163978
1.2159166
1.2167102
1.2162548
1.2168005
1.2154441
1.2160585
1.2155532
1.2162079
1.2156731
1.2163679
1.2158283
1.216566
1.2160444
1.2168181
1.2163629
1.217118
1.2166625
1.2172039
1.2159613
1.2165244
1.2160545
1.2166542
1.2161597
1.2167974
1.2163004
1.2169818
1.2165001
1.2172202
1.2167936
1.2175029
1.2170508
1.2175786
1.2164077
1.2169386
1.2164868
1.2170497
1.2165777
1.2171759
1.216704
1.217345
1.2168857
1.2175673
1.2171534
1.2178314
1.2173761
1.2179007
1.2167937
1.2173138
1.216861
1.2174086
1.2169397
1.2175189
1.2170525
1.2176723
1.2172174
1.2178781
1.2174615
1.2181245
1.2176588
1.218193
1.2171051
1.2176322
1.2171627
1.217713
1.2172311
1.2178085
1.2173293
1.217943
1.2174744
1.2181278
1.2176922
1.2183578
1.2178833
1.2184433
1.217365
1.2179088
1.2174151
1.2179786
1.2174743
1.2180609
1.2175586
1.2181761
1.2176833
1.2183375
1.2178748
1.2185511
1.2180684
1.2186605
1.2175581
1.2181074
1.2176024
1.2181683
1.217654
1.2182395
1.2177261
1.2183384
1.2178323
1.2184789
1.2180013
1.2186766
1.2181984
1.2188136
1.2176933
1.2182311
1.2177323
1.218284
1.2177775
1.2183461
1.2178418
1.2184349
1.2179366
1.2185621
1.2180905
1.218749
1.2182858
1.2189041
1.2177553
1.2182521
1.2177912
1.2183001
1.2178333
1.2183573
1.2178947
1.2184428
1.2179862
1.2185661
1.2181354
1.2187508
1.2183271
1.2189167
1.217766
1.2182071
1.2178008
1.2182529
1.2178416
1.2183081
1.2179023
1.2183934
1.2179928
1.2185165
1.2181409
1.2187043
1.2183304
1.2188774
1.2177589
1.2181387
1.2177935
1.218184
1.217834
1.2182394
1.2178947
1.2183257
1.2179857
1.2184519
1.2181348
1.2186443
1.2183236
1.2188211
1.2177426
1.218064
1.2177774
1.2181103
1.2178179
1.218167
1.2178792
1.2182558
1.2179711
1.2183866
1.2181219
1.2185852
1.21831
1.2187597
1.2177261
1.2179991
1.2177612
1.2180464
1.2178023
1.2181046
1.2178644
1.2181958
1.2179577
1.2183294
1.21811
1.2185305
1.218297
1.2186977
1.2177092
1.2179471
1.2177447
1.2179954
1.2177861
1.218055
1.2178486
1.2181479
1.2179433
1.2182843
1.2180984
1.2184892
1.2182866
1.2186582
1.21769
1.2179039
1.2177258
1.2179528
1.2177677
1.2180134
1.2178304
1.2181072
1.2179259
1.2182455
1.2180816
1.2184502
1.2182691
1.2186097
1.2176479
1.2178369
1.2176823
1.2178832
1.2177221
1.2179407
1.2177821
1.2180316
1.2178749
1.2181676
1.2180278
1.2183701
1.2182114
1.2185138
1.2175327
1.2177055
1.2175563
1.2177409
1.2175845
1.2177864
1.2176326
1.2178648
1.2177148
1.2179868
1.2178579
1.2181735
1.2180302
1.2182981
1.217378
1.2176067
1.2173788
1.2176191
1.2173854
1.2176427
1.2174152
1.2177025
1.2174825
1.2178081
1.217614
1.2179825
1.2177767
1.2180902
1.2173362
1.2176072
1.2173039
1.2175884
1.2172857
1.2175881
1.2172981
1.2176329
1.2173559
1.2177307
1.2174834
1.2179044
1.2176461
1.2180062
1.2173545
1.2176426
1.2172925
1.2175955
1.2172563
1.217579
1.2172577
1.2176156
1.2173121
1.2177092
1.217441
1.2178825
1.2176059
1.2179818
1.2173474
1.2176362
1.2172689
1.2175744
1.2172285
1.2175572
1.2172311
1.2175986
1.2172921
1.2177009
1.2174295
1.2178836
1.2175988
1.2179832
1.2172782
1.2175422
1.2172104
1.2174967
1.217185
1.2175012
1.2172034
1.2175643
1.2172787
1.2176883
1.2174266
1.2178847
1.2176
1.2179865
1.2133842
1.212564
1.2134495
1.2124028
1.213722
1.2125074
1.213974
1.2125781
1.2135517
1.2128442
1.213608
1.2126795
1.2138607
1.2127472
1.2140896
1.2127709
1.2138031
1.2131918
1.213852
1.2130174
1.2140773
1.2130534
1.2142845
1.2130388
1.214091
1.2135453
1.2141419
1.2133601
1.2143509
1.2133796
1.2145466
1.2133613
1.2143958
1.2138876
1.2144641
1.2137026
1.2146822
1.213724
1.2148917
1.2137281
1.2146456
1.2141737
1.2147326
1.213988
1.214964
1.2140111
1.2151883
1.2140347
1.2147854
1.2143823
1.2148767
1.21418
1.2151021
1.2141826
1.2153144
1.2141917
1.2148923
1.2145864
1.2149779
1.2143601
1.2151839
1.2143248
1.2153743
1.214299
1.2150236
1.2148283
1.2151011
1.2145809
1.2152817
1.214503
1.2154425
1.2144324
1.2151891
1.2151092
1.2152568
1.2148462
1.2154072
1.2147249
1.2155306
1.2146019
1.2153966
1.215428
1.2154528
1.2151582
1.2155703
1.2149975
1.2156488
1.2148196
1.2156501
1.2157814
1.2156946
1.2155173
1.2157799
1.2153278
1.2158093
1.2150975
1.2159556
1.2161664
1.2159863
1.2159153
1.2160369
1.2157087
1.2160115
1.2154312
1.216309
1.2165801
1.2163253
1.2163523
1.2163493
1.2161466
1.2162723
1.2158339
1.2167091
1.2170224
1.2167121
1.2168247
1.2167162
1.2166301
1.2166022
1.2163041
1.2170884
1.2174267
1.2170815
1.2172538
1.2170708
1.2170761
1.2169307
1.2167532
1.2174066
1.2177686
1.2173939
1.2176125
1.2173773
1.2174509
1.2172334
1.217145
1.2176854
1.2180728
1.2176685
1.2179248
1.2176449
1.2177705
1.2174946
1.217475
1.2179106
1.2183367
1.2178921
1.2181952
1.217865
1.2180418
1.2177189
1.2177537
1.2181047
1.2185727
1.2180872
1.2184353
1.2180577
1.218276
1.2179131
1.2179853
1.2182466
1.2187484
1.2182291
1.2186124
1.2182005
1.2184472
1.2180596
1.2181541
1.2183466
1.2188599
1.2183313
1.2187244
1.2183068
1.2185567
1.2181791
1.218271
1.2183943
1.2188843
1.2183832
1.2187517
1.218366
1.2185889
1.2182562
1.2183187
1.2184027
1.2188526
1.2183974
1.2187263
1.2183893
1.2185718
1.2182987
1.2183197
1.2183989
1.2187967
1.2183995
1.2186802
1.2183992
1.2185349
1.2183254
1.2182994
1.2183862
1.2187363
1.2183922
1.2186225
1.2183987
1.2184866
1.2183398
1.218267
1.2183745
1.2186758
1.2183852
1.2185663
1.2183967
1.2184367
1.2183481
1.2182312
1.2183641
1.2186215
1.2183782
1.2185151
1.2183935
1.2183912
1.2183547
1.2181985
1.2183457
1.2185649
1.2183651
1.2184616
1.2183852
1.2183439
1.2183552
1.2181626
1.2182841
1.2184606
1.2183099
1.2183624
1.2183407
1.2182552
1.2183249
1.2180876
1.2180985
1.218237
1.2181343
1.2181381
1.2181807
1.2180419
1.2181805
1.217885
1.217841
1.2180163
1.2178627
1.2178919
1.217898
1.2177702
1.2178928
1.2175912
1.217705
1.2179277
1.2176992
1.2177789
1.2176966
1.2176147
1.217652
1.2173934
1.2176635
1.2179
1.2176427
1.2177386
1.2176151
1.2175506
1.21754
1.2173031
1.2176541
1.2178961
1.2176258
1.2177265
1.2175852
1.2175273
1.2174917
1.2172675
1.2176528
1.2178938
1.2176229
1.2177213
1.2175774
1.2175184
1.2174783
1.2172559
1.2064011
1.2097397
1.2076933
1.2106058
1.2087054
1.2113707
1.2068939
1.2100464
1.2080889
1.2108621
1.2090023
1.2115717
1.2074353
1.2104153
1.2085456
1.2111823
1.2093506
1.2118308
1.2079123
1.2107845
1.2089661
1.2114994
1.2097247
1.2121377
1.2083257
1.2111598
1.209348
1.2118335
1.210174
1.2125514
1.2086593
1.2114738
1.2096902
1.2121504
1.210644
1.2129885
1.2088879
1.2116527
1.2099206
1.2123344
1.2109734
1.2132691
1.2091015
1.2117857
1.2101003
1.2124474
1.2111869
1.213426
1.2093689
1.2119435
1.2103167
1.2125741
1.2113955
1.2135659
1.2097011
1.2121401
1.2105894
1.2127329
1.2116581
1.2137382
1.2101161
1.2123873
1.2109301
1.2129359
1.2119925
1.2139586
1.2106397
1.2127082
1.2113654
1.2132058
1.2124174
1.214241
1.2112756
1.2131119
1.2118987
1.2135525
1.2129393
1.2145946
1.2120237
1.2136099
1.2125507
1.2139999
1.2135731
1.2150353
1.2128812
1.2142068
1.2133041
1.2145361
1.2143062
1.215564
1.2137187
1.2148204
1.2140715
1.2151142
1.2150437
1.2161236
1.2144343
1.2153612
1.2147296
1.2156242
1.2156709
1.2166178
1.2150556
1.2158511
1.2153072
1.2160925
1.2162076
1.2170547
1.215571
1.2162718
1.2157802
1.2164832
1.2166661
1.2174258
1.2159904
1.2166262
1.216148
1.2167925
1.2170169
1.2177177
1.216332
1.216935
1.2164675
1.2170873
1.2173195
1.2180049
1.2165853
1.2171846
1.2166931
1.2173092
1.2175233
1.2182119
1.2167425
1.2173637
1.2168264
1.2174624
1.2176357
1.2183509
1.2168295
1.2174858
1.2168992
1.2175665
1.2176857
1.218441
1.2168737
1.217569
1.2169355
1.2176336
1.2176964
1.2184906
1.2168916
1.2176195
1.2169509
1.2176777
1.2176896
1.2185193
1.2168939
1.2176608
1.2169559
1.2177058
1.2176709
1.218532
1.2168928
1.2176808
1.2169519
1.217725
1.2176492
1.2185378
1.2168905
1.2177008
1.2169344
1.2177392
1.2176252
1.2185392
1.2168598
1.2176903
1.2168936
1.2177322
1.2175893
1.2185305
1.2166928
1.2175977
1.2167589
1.2176477
1.2174614
1.218454
1.2164007
1.2173269
1.2164922
1.2174044
1.2170977
1.2181554
1.2161516
1.2170475
1.2162307
1.2171149
1.2166644
1.217682
1.2160014
1.2168774
1.2160644
1.2169236
1.2164088
1.2173504
1.2159098
1.2167791
1.2159708
1.2168137
1.2163015
1.2171978
1.2158751
1.2167442
1.2159385
1.2167737
1.2162737
1.2171545
1.2166565
1.2161951
1.2155165
1.2145761
1.2132014
1.2113792
1.2165841
1.2161332
1.2154356
1.214453
1.2130017
1.2110677
1.2171526
1.2162462
1.2155638
1.2146612
1.2133385
1.2116033
1.2170526
1.216185
1.2154842
1.2145435
1.2131501
1.2113185
1.2175677
1.2165343
1.2157022
1.2147981
1.2135309
1.2118917
1.2174588
1.216446
1.2156209
1.2146937
1.2133693
1.2116532
1.2178031
1.2169354
1.2160108
1.2150449
1.2137835
1.2121979
1.2177022
1.2168255
1.215925
1.2149636
1.2136624
1.212004
1.21789
1.2172073
1.2163676
1.2154074
1.2141353
1.2125493
1.2177994
1.2171124
1.2162871
1.2153282
1.2140116
1.2123414
1.2179244
1.2173232
1.2165658
1.215659
1.2144081
1.2128213
1.2178334
1.2172295
1.2164669
1.2155394
1.2142272
1.2125425
1.2179321
1.2173598
1.2166303
1.2157501
1.2145217
1.2129476
1.217829
1.2172658
1.2165225
1.2156093
1.2143078
1.2126271
1.2179351
1.2173884
1.2166599
1.2157899
1.2145785
1.2130245
1.2178237
1.2172844
1.216544
1.2156396
1.2143544
1.2126924
1.2179406
1.2174215
1.2166933
1.215832
1.2146399
1.2131145
1.2178199
1.2173066
1.2165668
1.2156717
1.2144066
1.2127729
1.2179502
1.2174614
1.2167347
1.2158836
1.2147179
1.2132307
1.2178161
1.2173355
1.2165977
1.2157151
1.2144758
1.2128827
1.2179681
1.2175109
1.2167875
1.2159512
1.2148206
1.213384
1.2178155
1.2173721
1.2166401
1.2157746
1.2145726
1.2130382
1.2179929
1.2175716
1.2168577
1.2160408
1.2149561
1.2135872
1.2178203
1.2174185
1.2166959
1.2158529
1.214702
1.2132464
1.2180359
1.2176528
1.2169548
1.2161629
1.2151353
1.2138556
1.2178382
1.2174794
1.2167742
1.2159624
1.2148802
1.2135295
1.2180922
1.2177457
1.2170745
1.2163198
1.2153678
1.2142017
1.2178601
1.2175498
1.2168779
1.2161126
1.215121
1.2139025
1.2181399
1.2178405
1.2172205
1.2165193
1.2156639
1.2146366
1.2178853
1.2176256
1.2170104
1.2163137
1.2154365
1.2143786
1.2182059
1.2179508
1.2173892
1.2167454
1.2159863
1.2150928
1.2179198
1.2177082
1.2171602
1.2165343
1.2157705
1.2148702
1.2182784
1.2180525
1.2175398
1.2169513
1.2162772
1.2155001
1.217962
1.2177828
1.2172965
1.2167371
1.2160732
1.2153072
1.2183559
1.2181578
1.217695
1.2171577
1.2165537
1.215873
1.2180091
1.2178555
1.2174272
1.2169306
1.2163519
1.2156977
1.2184273
1.2182459
1.2178284
1.2173392
1.2167918
1.2161888
1.218054
1.2179156
1.2175363
1.2170932
1.2165831
1.2160187
1.218498
1.2183271
1.2179512
1.2175077
1.2170048
1.2164603
1.2180984
1.2179678
1.2176307
1.2172361
1.216784
1.2162921
1.2185756
1.2184047
1.2180621
1.2176567
1.2171898
1.2166849
1.2181459
1.2180116
1.2177078
1.2173555
1.2169503
1.2165124
1.2186785
1.2184974
1.2181701
1.2177914
1.2173543
1.2168723
1.2182103
1.2180604
1.2177787
1.2174607
1.2170907
1.2166879
1.2188013
1.2185989
1.2182739
1.2179086
1.2174879
1.2170127
1.218287
1.2181121
1.2178404
1.2175447
1.2171945
1.2168052
1.2189113
1.2186771
1.2183545
1.2179973
1.2175839
1.2171076
1.218356
1.2181512
1.2178844
1.2176033
1.2172634
1.2168762
1.2190136
1.218742
1.2184194
1.2180682
1.2176575
1.2171768
1.2184182
1.2181807
1.2179176
1.2176472
1.2173127
1.2169223
1.2191008
1.2187936
1.2184732
1.2181245
1.2177137
1.2172266
1.2184762
1.2182029
1.217943
1.2176799
1.217347
1.2169499
1.2191825
1.218834
1.2185163
1.2181692
1.2177562
1.217263
1.2185285
1.2182175
1.2179619
1.2177049
1.2173721
1.2169686
1.219248
1.2188658
1.2185524
1.2182071
1.2177902
1.21729
1.2185763
1.2182281
1.2179769
1.2177238
1.21739
1.2169799
1.2193107
1.2188895
1.2185798
1.2182354
1.2178155
1.2173072
1.2186186
1.2182322
1.2179875
1.2177386
1.2174036
1.2169855
1.2193604
1.2189079
1.2186028
1.2182582
1.2178321
1.2173088
1.2186522
1.2182367
1.2179976
1.2177482
1.2174084
1.2169761
1.2194042
1.2189195
1.2186113
1.2182527
1.2177978
1.217239
1.2186784
1.2182385
1.2179951
1.2177295
1.2173583
1.2168901
1.2194327
1.2189034
1.2185513
1.218135
1.2176143
1.2170023
1.2186965
1.2182036
1.2179148
1.2175863
1.2171486
1.216634
1.2194227
1.2187837
1.2183232
1.2178276
1.2172927
1.2167202
1.2186753
1.2180601
1.2176575
1.2172592
1.2168297
1.2163686
1.2193223
1.2184502
1.2179465
1.2175249
1.2170866
1.2165719
1.2185623
1.217708
1.2172819
1.2169835
1.2166584
1.2162502
1.2189735
1.2179837
1.217722
1.2174243
1.2170156
1.2165023
1.2182092
1.2172602
1.217091
1.2169099
1.2166058
1.2161919
1.21834
1.217942