/*--------------------------------*- C++ -*----------------------------------*\
| =========                 |                                                 |
| \\      /  F ield         | OpenFOAM: The Open Source CFD Toolbox           |
|  \\    /   O peration     | Version:  2206                                  |
|   \\  /    A nd           | Website:  www.openfoam.com                      |
|    \\/     M anipulation  |                                                 |
\*---------------------------------------------------------------------------*/
FoamFile
{
    version     2.0;
    format      ascii;
    arch        "LSB;label=32;scalar=64";
    class       volScalarField;
    location    "100";
    object      T;
}
// * * * * * * * * * * * * * * * * * * * * * * * * * * * * * * * * * * * * * //

dimensions      [0 0 0 1 0 0 0];

internalField   nonuniform List<scalar> 
50904
(
298.51359
298.36597
298.43828
298.17904
298.31447
298.00258
298.20103
297.73638
298.0797
297.64177
297.92518
297.32884
297.84637
297.34515
297.65672
297.03297
297.57201
297.08308
297.39996
296.8278
297.34468
296.91189
297.2494
296.73843
297.2716
296.8787
297.21331
296.73677
297.27531
296.90465
297.21593
296.76269
297.2949
296.9452
297.23005
296.79958
297.32036
296.99633
297.25134
296.85068
297.35238
297.05675
297.28166
296.91713
297.39289
297.12937
297.32575
296.99906
297.44319
297.2116
297.37886
297.09154
297.50536
297.30843
297.44688
297.19562
297.57505
297.41224
297.52461
297.30799
297.64232
297.50936
297.60106
297.41599
297.69916
297.59015
297.66579
297.50813
297.74748
297.65755
297.71991
297.58497
297.78744
297.7138
297.76421
297.64696
297.81912
297.75948
297.80018
297.69866
297.84418
297.79644
297.82792
297.74039
297.86612
297.82385
297.84789
297.77398
297.87575
297.84045
297.8592
297.79807
297.87662
297.85451
297.86318
297.81091
297.87564
297.85685
297.86352
297.81554
297.87148
297.85644
297.86226
297.82109
297.86672
297.85811
297.85747
297.82738
297.85965
297.85557
297.84999
297.83663
297.85265
297.86872
297.83661
297.85276
297.87506
297.89296
297.86995
297.88627
298.00465
298.06848
298.01817
298.05532
298.26863
298.33464
298.28594
298.31413
298.4448
298.47987
298.44627
298.45179
298.52162
298.55133
298.50905
298.51695
298.569
298.59674
298.55077
298.56716
298.59055
298.6201
298.57343
298.59674
298.26093
297.98103
298.05268
297.7788
298.02996
297.77929
298.03238
297.79663
298.03574
297.81953
298.0373
297.83594
298.03717
297.85109
298.02564
297.54135
297.8431
297.44454
297.84527
297.50573
297.86274
297.55839
297.86894
297.60685
297.86961
297.63937
297.86658
297.66651
297.77144
297.17513
297.66752
297.18364
297.72284
297.36933
297.77529
297.48028
297.80999
297.55772
297.82269
297.60155
297.81578
297.63836
297.55934
296.9683
297.57288
297.09712
297.68717
297.35759
297.77184
297.49032
297.81708
297.57994
297.83323
297.63917
297.82618
297.67201
297.39684
296.85517
297.50411
297.0547
297.64354
297.32678
297.7353
297.45718
297.77882
297.5388
297.79083
297.58741
297.77757
297.60513
297.31221
296.80897
297.43998
297.01505
297.5739
297.27895
297.65934
297.39571
297.69357
297.4621
297.69383
297.49752
297.66978
297.50291
297.28696
296.80911
297.40837
297.01177
297.53508
297.2747
297.61455
297.38204
297.64191
297.43998
297.63506
297.46528
297.60363
297.45985
297.28338
296.82978
297.39852
297.03302
297.52373
297.29332
297.60046
297.39762
297.62366
297.447
297.61207
297.46367
297.57602
297.45099
297.29099
296.85806
297.399
297.06799
297.52338
297.32767
297.59803
297.42059
297.61704
297.46575
297.60124
297.47404
297.56063
297.45372
297.30702
296.88436
297.40938
297.11575
297.533
297.36578
297.60459
297.45476
297.61924
297.4932
297.59901
297.49578
297.55447
297.46796
297.33145
296.94724
297.43349
297.1744
297.55576
297.42133
297.62339
297.50121
297.63343
297.53433
297.60888
297.52893
297.56149
297.4961
297.37516
297.02469
297.47082
297.24887
297.59188
297.48598
297.65299
297.56305
297.65707
297.58846
297.62763
297.57249
297.57699
297.53415
297.4204
297.13795
297.52032
297.3364
297.63825
297.56233
297.69366
297.63933
297.69246
297.64984
297.65953
297.62785
297.60759
297.58473
297.48006
297.2309
297.56931
297.42265
297.68275
297.63769
297.734
297.70467
297.72957
297.71223
297.69541
297.68652
297.64448
297.63788
297.54718
297.32934
297.61881
297.50593
297.7241
297.70618
297.77209
297.76647
297.76651
297.77179
297.73369
297.74465
297.68682
297.6962
297.61609
297.42656
297.67049
297.58447
297.76497
297.76697
297.80972
297.81946
297.80457
297.82237
297.775
297.79861
297.73405
297.75371
297.67634
297.51403
297.7187
297.65456
297.80197
297.81771
297.84241
297.86154
297.83765
297.86152
297.81131
297.84034
297.7758
297.8011
297.72752
297.59193
297.76219
297.71644
297.83491
297.85738
297.87041
297.89447
297.86591
297.89186
297.84274
297.87231
297.81224
297.83906
297.76989
297.65837
297.8013
297.77264
297.86598
297.89503
297.89763
297.92473
297.89403
297.92026
297.87411
297.90314
297.84793
297.87803
297.80431
297.7146
297.83498
297.82141
297.89288
297.92642
297.92077
297.94989
297.91788
297.94381
297.90067
297.92843
297.87797
297.90817
297.83145
297.76128
297.86245
297.8627
297.9153
297.95413
297.94038
297.97073
297.93815
297.96523
297.923
297.95138
297.90285
297.93384
297.8527
297.79871
297.88366
297.8941
297.93176
297.97443
297.95389
297.98809
297.95236
297.98088
297.93924
297.96799
297.92088
297.95322
297.86636
297.83143
297.89806
297.91292
297.9424
297.98638
297.96312
297.99824
297.96144
297.99147
297.9496
297.97967
297.93375
297.96596
297.87375
297.83839
297.90518
297.9205
297.948
297.99206
297.96866
298.00233
297.96743
297.99746
297.95584
297.98709
297.94048
297.97378
297.87563
297.83976
297.90752
297.9206
297.94995
297.99165
297.97093
298.00012
297.96974
297.99889
297.95944
297.98908
297.94553
297.97648
297.87925
297.83014
297.911
297.92526
297.95381
297.99293
297.97577
298.00035
297.97523
298.00076
297.96585
297.99346
297.95345
297.98157
297.87655
297.83698
297.91242
297.92842
297.95636
297.99121
297.97944
298.00104
297.97931
298.00204
297.97056
297.99707
297.95899
297.98601
297.87534
297.83949
297.91479
297.93232
297.96055
297.99187
297.98496
298.00553
297.98579
298.00516
297.97778
298.00033
297.96684
297.99075
297.87444
297.84211
297.91703
297.93918
297.96465
298.00092
297.99135
298.02078
297.9945
298.01882
297.98825
298.01049
297.97836
298.00033
297.89025
297.86215
297.92822
297.95856
297.97857
298.02642
298.00975
298.053
298.01678
298.05161
298.0132
298.04327
298.00497
298.03555
297.99084
297.95956
297.9766
297.99796
298.02432
298.0638
298.06105
298.09765
298.07435
298.11214
298.07544
298.11516
298.07066
298.11286
298.22224
298.16461
298.11233
298.0662
298.11668
298.07532
298.1376
298.10701
298.14598
298.12209
298.14506
298.12741
298.14055
298.12806
298.39544
298.32196
298.25647
298.17131
298.1856
298.10917
298.17195
298.0951
298.15893
298.08148
298.14926
298.07124
298.14398
298.0651
298.46903
298.41027
298.33485
298.2532
298.2187
298.13322
298.17678
298.0755
298.16002
298.03896
298.15045
298.01323
298.14881
298.0032
298.50814
298.47172
298.36838
298.30613
298.24418
298.16315
298.19623
298.09769
298.19707
298.07945
298.21179
298.07334
298.22342
298.07242
298.52848
298.50824
298.37648
298.33407
298.25974
298.19531
298.23354
298.14398
298.24288
298.13787
298.25349
298.14255
298.25744
298.14748
298.03695
297.86586
298.0388
297.88292
298.04147
297.90239
298.04435
297.92179
298.04894
297.94323
298.06705
297.97275
297.86294
297.68563
297.86195
297.69932
297.86451
297.7189
297.86684
297.73239
297.86443
297.74119
297.84729
297.74242
297.79992
297.66041
297.78357
297.66402
297.76306
297.65751
297.73899
297.63791
297.71312
297.61123
297.67697
297.58051
297.80133
297.67202
297.77114
297.66414
297.73004
297.64477
297.68247
297.6096
297.63647
297.56565
297.59827
297.51331
297.74299
297.59149
297.70224
297.57448
297.65031
297.54421
297.59367
297.49823
297.54395
297.44505
297.51048
297.38231
297.62522
297.4797
297.57572
297.45539
297.5167
297.41736
297.45726
297.3684
297.40969
297.31972
297.38554
297.27467
297.55126
297.43001
297.4962
297.40001
297.43316
297.35727
297.37336
297.30903
297.3303
297.26782
297.31211
297.2396
297.51839
297.4157
297.4599
297.38024
297.39642
297.3345
297.34316
297.28754
297.3099
297.25091
297.28546
297.22593
297.49867
297.41428
297.43783
297.37184
297.37472
297.32329
297.32862
297.27741
297.29991
297.24336
297.27058
297.22073
297.48925
297.4243
297.42681
297.37905
297.36276
297.32434
297.31795
297.27883
297.29038
297.24496
297.26842
297.22198
297.49541
297.44895
297.43349
297.39187
297.36415
297.33917
297.30763
297.29066
297.28654
297.25707
297.2846
297.23052
297.5091
297.47866
297.44751
297.42567
297.38137
297.37091
297.32652
297.32104
297.30739
297.28611
297.30949
297.25827
297.54004
297.52033
297.48027
297.47443
297.42008
297.41975
297.37308
297.37229
297.35085
297.3406
297.36612
297.32571
297.57995
297.57614
297.52526
297.53081
297.47217
297.48219
297.43441
297.44181
297.42219
297.41945
297.44725
297.41911
297.62936
297.64004
297.58255
297.59543
297.53959
297.5508
297.51274
297.51803
297.51076
297.50612
297.54288
297.5253
297.68499
297.70349
297.64634
297.66526
297.61269
297.6276
297.59459
297.60282
297.5991
297.59975
297.63366
297.63068
297.73389
297.75766
297.70208
297.72666
297.67581
297.69766
297.66426
297.68147
297.67331
297.68536
297.70916
297.71733
297.77653
297.80245
297.75043
297.77762
297.72993
297.75565
297.72295
297.74624
297.73445
297.75552
297.76975
297.78565
297.81708
297.84551
297.79488
297.82512
297.77773
297.80761
297.77262
297.80119
297.78413
297.81108
297.81719
297.84111
297.85127
297.88106
297.8319
297.86373
297.81703
297.84936
297.81286
297.84443
297.82375
297.85493
297.85454
297.88499
297.8791
297.91128
297.86178
297.89607
297.84859
297.88421
297.84514
297.88065
297.85563
297.89126
297.88464
297.92182
297.89961
297.93331
297.88456
297.91941
297.8736
297.91045
297.87168
297.90906
297.88236
297.92077
297.90982
297.95205
297.91698
297.94769
297.90487
297.93561
297.89601
297.92819
297.89406
297.928
297.90174
297.93999
297.9253
297.97143
297.92704
297.95661
297.91989
297.94628
297.91356
297.94046
297.91075
297.93986
297.914
297.95196
297.93468
297.9834
297.93199
297.96113
297.92663
297.95202
297.92277
297.94681
297.91962
297.9465
297.92135
297.95897
297.9397
297.98942
297.94016
297.96772
297.93367
297.95951
297.92989
297.95489
297.92695
297.95487
297.92903
297.96711
297.9465
297.99569
297.94605
297.97345
297.93872
297.96608
297.9347
297.96213
297.93196
297.96263
297.93462
297.9743
297.95116
298.0004
297.95414
297.9793
297.94613
297.97228
297.9413
297.96849
297.9386
297.96955
297.94116
297.97978
297.95715
298.00373
297.96583
297.98832
297.9569
297.98218
297.95117
297.97884
297.94851
297.98029
297.95221
297.98911
297.96672
298.01141
297.99349
298.02667
297.98472
298.0211
297.9783
298.01837
297.9763
298.02049
297.98117
298.02974
297.99569
298.05374
298.06209
298.10729
298.05512
298.10476
298.05033
298.10337
298.05124
298.10521
298.05893
298.11803
298.07724
298.14733
298.13513
298.12664
298.13198
298.12557
298.13039
298.12482
298.13249
298.12623
298.14039
298.13276
298.15694
298.15562
298.14124
298.06075
298.13999
298.05968
298.14129
298.06239
298.14407
298.06816
298.1459
298.0761
298.14468
298.08134
298.15308
298.00221
298.15496
298.00511
298.15827
298.01448
298.15944
298.02747
298.15372
298.04024
298.13834
298.04735
298.23025
298.07418
298.22811
298.07491
298.22274
298.07934
298.21309
298.08578
298.19904
298.09501
298.18532
298.11333
298.25598
298.1506
298.25066
298.1532
298.24178
298.15467
298.23044
298.1576
298.2204
298.16891
298.2266
298.20977
298.13439
298.04432
298.24955
298.16097
298.33158
298.24548
298.39399
298.3092
298.4467
298.36357
298.49433
298.41535
297.83389
297.75697
297.86204
297.78645
297.93409
297.84208
298.02453
297.91764
298.12553
298.00632
298.23182
298.10472
297.64568
297.58489
297.63944
297.59627
297.66908
297.62417
297.73059
297.67265
297.82742
297.7404
297.94921
297.8275
297.58328
297.51106
297.58565
297.52212
297.61045
297.54365
297.65654
297.5832
297.72293
297.63956
297.80627
297.71084
297.50652
297.38955
297.51127
297.41324
297.52599
297.44055
297.55905
297.47511
297.61561
297.52434
297.68622
297.59125
297.39301
297.29401
297.40022
297.30896
297.4159
297.33978
297.4561
297.38161
297.51622
297.4365
297.58011
297.5025
297.331
297.25955
297.34309
297.26918
297.36287
297.29344
297.40761
297.34578
297.47122
297.40596
297.53691
297.47307
297.31661
297.24607
297.3336
297.25896
297.35717
297.28904
297.40516
297.34602
297.47172
297.40915
297.54071
297.47968
297.31018
297.23756
297.33069
297.25414
297.36069
297.29248
297.41579
297.35359
297.48713
297.42196
297.55895
297.49551
297.30973
297.23613
297.33454
297.2595
297.37558
297.31117
297.44062
297.37585
297.51488
297.44804
297.5848
297.52178
297.31729
297.24851
297.35398
297.28862
297.41136
297.34934
297.48233
297.41763
297.55272
297.49007
297.61449
297.56203
297.34841
297.28954
297.39912
297.34643
297.46396
297.40893
297.53181
297.47823
297.59588
297.54947
297.64979
297.62023
297.41312
297.37011
297.46854
297.43233
297.53262
297.49561
297.59602
297.56277
297.65252
297.63029
297.6976
297.69555
297.49943
297.4727
297.55594
297.53652
297.61587
297.59741
297.67186
297.65986
297.71921
297.72142
297.75458
297.77947
297.59647
297.584
297.65088
297.64619
297.70407
297.70213
297.75075
297.75767
297.78783
297.81116
297.81329
297.85963
297.68545
297.68724
297.73568
297.74429
297.78164
297.79469
297.81982
297.84308
297.84832
297.88843
297.86602
297.92722
297.75863
297.7717
297.80487
297.82423
297.84487
297.87009
297.87623
297.91332
297.89788
297.95248
297.90937
297.98286
297.81626
297.83749
297.85853
297.88594
297.89371
297.92821
297.91996
297.96756
297.93677
298.00136
297.94414
298.02533
297.86112
297.8897
297.89961
297.93522
297.93127
297.97516
297.95412
298.01162
297.968
298.04188
297.97291
298.06252
297.89706
297.93141
297.9335
297.97572
297.96272
298.01405
297.98314
298.04812
297.99496
298.07577
297.99768
298.09365
297.92609
297.9672
297.96084
298.01092
297.98773
298.04758
298.00644
298.07908
298.01488
298.10362
298.0145
298.11827
297.95019
297.99707
297.98347
298.0399
298.00736
298.0745
298.02207
298.10291
298.02773
298.12377
298.02556
298.13453
297.96428
298.01664
297.9943
298.05672
298.01552
298.08879
298.02692
298.11343
298.03001
298.13001
298.02616
298.13638
297.971
298.0271
297.99801
298.06452
298.01628
298.09392
298.02429
298.11515
298.0252
298.1284
298.01993
298.13192
297.97347
298.03099
297.99749
298.06609
298.01242
298.09305
298.01815
298.11149
298.01737
298.12196
298.01118
298.12315
297.97574
298.03346
297.99695
298.06576
298.00881
298.08974
298.0125
298.10518
298.01011
298.11257
298.00333
298.11115
297.97666
298.03393
297.9951
298.06357
298.00448
298.08367
298.00629
298.09616
298.00257
298.10079
297.99559
298.09723
297.97919
298.03314
297.99524
298.05989
298.00209
298.07724
298.00198
298.08665
297.99713
298.08881
297.98985
298.08353
297.98644
298.03892
298.00098
298.06428
298.00565
298.08011
298.00406
298.08808
297.99837
298.08952
297.98996
298.08428
298.01765
298.08611
298.0342
298.11559
298.03924
298.13334
298.03794
298.14362
298.03254
298.14863
298.02414
298.14832
298.10867
298.18986
298.13523
298.22658
298.14856
298.24793
298.15558
298.26453
298.16015
298.27938
298.16497
298.29492
298.18532
298.18399
298.21276
298.20656
298.23571
298.23401
298.25852
298.26415
298.28392
298.3027
298.31414
298.35163
298.14699
298.08589
298.15952
298.09956
298.19556
298.14353
298.24313
298.20228
298.2999
298.27525
298.3639
298.36064
298.13297
298.06096
298.15656
298.09438
298.21689
298.16596
298.28601
298.24756
298.35762
298.33371
298.42629
298.41846
298.20467
298.16918
298.2725
298.25254
298.35224
298.33478
298.41613
298.40163
298.4676
298.45835
298.50834
298.50606
298.28857
298.31534
298.401
298.44086
298.47528
298.50203
298.51558
298.53451
298.54037
298.55644
298.55675
298.57277
298.53019
298.45627
298.55771
298.49248
298.57724
298.52164
298.59115
298.54388
298.60022
298.55867
298.60276
298.56442
298.60038
298.56706
298.31091
298.18578
298.37992
298.26626
298.43416
298.33839
298.47422
298.39489
298.50196
298.43071
298.51581
298.44161
298.51877
298.43305
298.04719
297.90894
298.1391
297.99696
298.2183
298.08359
298.27943
298.15684
298.32253
298.20784
298.35055
298.23077
298.36659
298.23133
297.87929
297.77447
297.95218
297.841
298.02032
297.90488
298.07695
297.961
298.1187
298.00204
298.1493
298.01645
298.1733
298.01559
297.74382
297.65003
297.79796
297.70634
297.84042
297.75342
297.87493
297.78988
297.90085
297.81372
297.92158
297.80901
297.93364
297.79799
297.62496
297.55681
297.66493
297.60765
297.69406
297.64777
297.71576
297.67252
297.73273
297.68534
297.74164
297.68112
297.73877
297.65476
297.58164
297.52891
297.61924
297.57964
297.64425
297.61934
297.66579
297.64563
297.68375
297.66023
297.68716
297.6573
297.67909
297.63036
297.58816
297.53782
297.62656
297.59069
297.65117
297.63223
297.67164
297.6601
297.68902
297.67809
297.69678
297.67891
297.68713
297.65611
297.60482
297.5549
297.63996
297.60892
297.66353
297.65064
297.68503
297.68086
297.70376
297.70161
297.71336
297.70652
297.70442
297.68755
297.62361
297.58069
297.65482
297.63496
297.6782
297.67634
297.69993
297.70783
297.719
297.7307
297.72993
297.73784
297.72469
297.72116
297.64662
297.62039
297.67574
297.67375
297.69839
297.7128
297.71919
297.74256
297.73804
297.76592
297.7503
297.77312
297.74789
297.75741
297.67945
297.67636
297.70586
297.72423
297.72558
297.75804
297.74484
297.78513
297.76333
297.80491
297.77599
297.81147
297.77445
297.79646
297.72307
297.74297
297.74507
297.78545
297.76069
297.81311
297.77751
297.83417
297.79473
297.85039
297.80689
297.85433
297.80541
297.83844
297.77343
297.81942
297.78942
297.8513
297.80122
297.87106
297.81556
297.88759
297.83127
297.89974
297.84266
297.89983
297.84094
297.88165
297.82574
297.88944
297.83615
297.91128
297.8445
297.92447
297.85639
297.93641
297.87017
297.94588
297.88029
297.94406
297.8787
297.92351
297.87335
297.94803
297.87924
297.96256
297.88465
297.97078
297.89431
297.97937
297.90629
297.98613
297.91519
297.9819
297.91325
297.96088
297.91258
297.99675
297.91488
298.00575
297.91795
298.0098
297.9258
298.01532
297.93614
298.01959
297.94386
298.0139
297.94159
297.99229
297.94468
298.03454
297.94442
298.03961
297.94551
298.04083
297.9513
298.04459
297.9596
298.04732
297.96599
298.04101
297.96481
298.01896
297.97175
298.06931
297.96935
298.07164
297.96876
298.07067
297.97276
298.07253
297.97978
298.07361
297.98576
298.06652
297.98427
298.04403
297.99471
298.09783
297.99097
298.09794
297.98905
298.09493
297.99123
298.0947
297.99632
298.0953
298.00213
298.08841
298.00054
298.06632
298.01018
298.1201
298.00528
298.11825
298.00235
298.11387
298.0035
298.11248
298.0078
298.11241
298.01285
298.10563
298.01171
298.08396
298.02019
298.13378
298.01394
298.12981
298.01004
298.12389
298.01006
298.12116
298.01294
298.12017
298.01686
298.11489
298.01648
298.09427
298.02047
298.13344
298.01289
298.12729
298.00794
298.12053
298.00679
298.11811
298.00861
298.1174
298.01258
298.11241
298.01214
298.09424
298.01376
298.12794
298.00552
298.12082
298.0006
298.11416
297.99971
298.11212
298.00211
298.11146
298.0067
298.10699
298.00908
298.08996
298.00502
298.11817
297.99727
298.11008
297.99319
298.10336
297.99281
298.10136
297.99557
298.10076
298.00033
298.09643
298.00353
298.08136
297.99752
298.10482
297.99039
298.09545
297.98679
298.08815
297.98644
298.08534
297.9892
298.08428
297.99433
298.08076
297.99735
298.07388
297.99004
298.08988
297.9835
298.0795
297.98035
298.07205
297.98025
298.07106
297.98323
298.0746
297.98843
298.07775
297.99029
298.07786
297.98431
298.07568
297.97798
298.06488
297.97503
298.05907
297.97507
298.06024
297.97826
298.06347
297.98397
298.0629
297.98245
298.05363
297.98364
298.07694
297.97646
298.06716
297.97304
298.0638
297.97301
298.06614
297.97742
298.07117
297.98865
298.07262
297.98589
298.06125
298.0184
298.14547
298.0118
298.14043
298.01078
298.1405
298.01524
298.14806
298.02617
298.15963
298.04354
298.16602
298.0455
298.15871
298.17095
298.30315
298.179
298.31315
298.1904
298.32749
298.2057
298.34838
298.225
298.37334
298.24586
298.39563
298.25404
298.39718
298.34167
298.39252
298.37151
298.43693
298.39699
298.47339
298.41976
298.50459
298.4421
298.53223
298.46246
298.5522
298.4719
298.55458
298.41374
298.42513
298.46126
298.48813
298.49138
298.53014
298.51297
298.55984
298.53091
298.57982
298.54349
298.59237
298.54479
298.59035
298.47174
298.47415
298.51117
298.52553
298.5331
298.55527
298.54912
298.57635
298.56147
298.59085
298.56807
298.5986
298.56379
298.59431
298.53171
298.53466
298.55006
298.5601
298.55962
298.57496
298.56792
298.58627
298.57378
298.59276
298.57458
298.5945
298.56585
298.5853
298.56568
298.58255
298.57027
298.58897
298.57338
298.59343
298.57714
298.59742
298.57883
298.59681
298.57532
298.59092
298.56377
298.5776
298.60411
298.57306
298.61348
298.59077
298.61641
298.60534
298.61415
298.61667
298.52061
298.42388
298.53384
298.44206
298.54457
298.47624
298.54812
298.50817
298.37425
298.22353
298.39902
298.25058
298.42247
298.30117
298.43343
298.34807
298.18664
298.01172
298.21926
298.0414
298.25539
298.09839
298.275
298.15026
297.94437
297.78795
297.97097
297.80205
298.00511
297.84415
298.0214
297.88168
297.73697
297.62944
297.7427
297.61669
297.7556
297.62346
297.75278
297.62223
297.67091
297.59815
297.66598
297.57182
297.66748
297.55662
297.66055
297.537
297.67822
297.62418
297.67046
297.59361
297.66797
297.56967
297.66052
297.54489
297.69655
297.65723
297.68723
297.62422
297.68169
297.59385
297.6731
297.56509
297.71815
297.69322
297.70741
297.65847
297.6987
297.62258
297.68886
297.58981
297.74277
297.7315
297.73072
297.69575
297.71874
297.65571
297.70751
297.61971
297.77053
297.77194
297.75735
297.73587
297.74239
297.69355
297.73029
297.65596
297.80202
297.81425
297.78785
297.77856
297.77017
297.73573
297.75731
297.69805
297.83712
297.85727
297.82243
297.82312
297.80277
297.7813
297.78898
297.74438
297.87381
297.8995
297.8585
297.86723
297.83644
297.82647
297.82023
297.78999
297.90716
297.93699
297.89161
297.90657
297.86844
297.86777
297.85224
297.83382
297.93433
297.96814
297.91797
297.93829
297.89393
297.90066
297.87711
297.86765
297.95678
297.9951
297.94012
297.9655
297.91528
297.92808
297.89723
297.89611
297.97601
298.02076
297.95898
297.99088
297.93292
297.95207
297.91293
297.91842
297.99304
298.04453
297.97569
298.0139
297.94706
297.97194
297.92299
297.93492
298.00514
298.06387
297.98791
298.03264
297.95723
297.98769
297.93029
297.94794
298.01141
298.07543
297.99403
298.04317
297.96156
297.99598
297.93146
297.95357
298.00896
298.07593
297.99068
298.0428
297.9576
297.99508
297.92502
297.95131
298.00406
298.07232
297.9842
298.03817
297.95098
297.99085
297.91683
297.94621
297.99506
298.07422
297.97591
298.03027
297.94272
297.98415
297.9071
297.93905
297.98613
298.05437
297.96684
298.02361
297.93367
297.97774
297.89714
297.93326
297.97615
298.04646
297.95617
298.01776
297.92361
297.97302
297.88673
297.92944
297.96728
298.04132
297.94681
298.01303
297.91357
297.96907
297.87495
297.92561
297.96914
298.04903
297.94532
298.01737
297.90761
297.97143
297.86558
297.92636
298.03082
298.1434
297.99922
298.1006
297.94869
298.04208
297.89345
297.98504
298.23658
298.37986
298.19077
298.33375
298.12319
298.26348
298.05056
298.19654
298.46226
298.54494
298.43044
298.52233
298.37774
298.48368
298.3189
298.45119
298.53717
298.58128
298.52394
298.57096
298.50043
298.56007
298.48088
298.56832
298.5564
298.58576
298.54986
298.58102
298.53681
298.5845
298.53583
298.61068
298.55955
298.57791
298.55698
298.57959
298.5496
298.59184
298.56002
298.6266
298.55835
298.57204
298.5576
298.57643
298.55306
298.59262
298.56872
298.63097
298.4775
298.53705
298.58418
298.59957
298.68482
298.69076
298.18418
298.35926
298.35561
298.45845
298.50143
298.56444
297.87143
298.15223
298.10053
298.28764
298.26088
298.38561
297.59467
297.94612
297.86877
298.11818
297.9929
298.16708
297.31179
297.67966
297.61296
297.89162
297.6659
297.86129
297.07961
297.4166
297.35052
297.61994
297.32374
297.53072
297.0115
297.32242
297.23952
297.49904
297.14185
297.35994
297.03176
297.32707
297.2451
297.49409
297.10462
297.32114
297.06725
297.34806
297.27094
297.50974
297.11309
297.32122
297.10915
297.37265
297.30035
297.52691
297.1284
297.32512
297.15912
297.40216
297.33694
297.5471
297.14763
297.32948
297.2189
297.43747
297.38166
297.57863
297.17286
297.33688
297.28903
297.48058
297.43329
297.61508
297.20488
297.3483
297.36956
297.53158
297.50161
297.64957
297.24581
297.36715
297.45764
297.58929
297.57699
297.69097
297.30309
297.40025
297.53867
297.64455
297.64614
297.73143
297.3596
297.42822
297.60566
297.6911
297.70206
297.76439
297.41989
297.46984
297.66162
297.73136
297.74484
297.79179
297.46845
297.50088
297.70535
297.76254
297.78195
297.82138
297.50964
297.53056
297.73945
297.78639
297.81879
297.85167
297.54459
297.55814
297.76554
297.80343
297.83977
297.86714
297.57264
297.57881
297.78272
297.81193
297.85725
297.87897
297.59254
297.59145
297.79184
297.81177
297.86651
297.88352
297.60918
297.60109
297.79216
297.80695
297.86837
297.88325
297.61651
297.59999
297.79194
297.79012
297.86702
297.88
297.61996
297.59599
297.79108
297.79598
297.86458
297.87363
297.62289
297.59052
297.79071
297.77808
297.8602
297.86856
297.62669
297.58527
297.78747
297.78239
297.85635
297.86086
297.63215
297.57976
297.782
297.76617
297.86882
297.85096
297.63983
297.57221
297.81208
297.78668
297.90644
297.85726
297.65694
297.56928
298.00409
297.883
298.03735
297.93937
297.74231
297.61318
298.27988
298.16798
298.30341
298.17343
298.03082
297.84028
298.45923
298.38282
298.50872
298.41024
298.39749
298.22073
298.55416
298.48491
298.62142
298.53601
298.62859
298.49371
298.61261
298.54548
298.68522
298.60751
298.73315
298.62844
298.63663
298.5696
298.70832
298.63485
298.76068
298.66853
298.73938
298.6841
298.63201
298.6026
298.58824
298.54377
298.74435
298.6783
298.62229
298.58038
298.54598
298.47006
298.44729
298.66136
298.61088
298.56316
298.52063
298.42131
298.46738
298.65539
298.59937
298.53665
298.46962
298.33023
298.18811
298.49098
298.54216
298.49741
298.42383
298.26703
298.21021
298.50244
298.53049
298.4614
298.3554
298.14691
298.03389
298.22378
298.35214
298.35913
298.28519
298.09265
298.04531
298.24752
298.34171
298.30416
298.18311
297.93011
297.9817
298.03012
298.08595
298.08777
298.02102
297.82777
297.98062
298.03378
298.06066
298.01731
297.90361
297.65828
297.95891
297.95222
297.92276
297.861
297.76713
297.575
297.95172
297.94501
297.90248
297.81691
297.69708
297.47209
297.96689
297.93509
297.87845
297.78932
297.67822
297.48624
297.96182
297.92386
297.85811
297.75826
297.63651
297.42057
297.97073
297.93923
297.88009
297.78704
297.67295
297.48389
297.96656
297.92805
297.85893
297.75561
297.63226
297.41914
297.97218
297.94204
297.88534
297.79429
297.68154
297.49764
297.9685
297.93188
297.86496
297.76255
297.639
297.42965
297.97393
297.94395
297.88951
297.80126
297.69143
297.51487
297.97023
297.93453
297.87061
297.77091
297.64885
297.44581
297.976
297.9464
297.89419
297.80917
297.70326
297.53552
297.97247
297.9373
297.87649
297.78031
297.66155
297.46681
297.97883
297.9496
297.89973
297.81847
297.7175
297.56081
297.97532
297.94051
297.88271
297.79078
297.67741
297.49405
297.98271
297.95396
297.90681
297.83009
297.73523
297.59249
297.97834
297.94461
297.89033
297.80398
297.69797
297.53118
297.98693
297.96009
297.91587
297.8458
297.75949
297.63381
297.98223
297.95085
297.90134
297.82264
297.72651
297.57879
297.9909
297.9669
297.92688
297.86465
297.78866
297.68122
297.9857
297.95746
297.91362
297.84455
297.76057
297.63359
297.99443
297.97356
297.9384
297.88435
297.81894
297.72841
297.98982
297.96461
297.92649
297.86695
297.79541
297.68873
297.9962
297.97788
297.95241
297.90288
297.84576
297.76921
297.99259
297.97074
297.93753
297.8864
297.82574
297.73648
297.99855
297.98337
297.96133
297.91906
297.86975
297.80503
297.99498
297.97635
297.94779
297.90406
297.85229
297.7774
297.99978
297.98748
297.96788
297.93373
297.8903
297.83527
297.99674
297.98114
297.95664
297.9189
297.87429
297.81124
298.00025
297.99004
297.97327
297.9471
297.90811
297.86031
297.99764
297.98576
297.9646
297.9319
297.89308
297.83967
297.99994
297.99205
297.97811
297.9544
297.9252
297.88058
297.998
297.98958
297.97112
297.94252
297.90793
297.86222
297.99934
297.99263
297.98068
297.95936
297.93496
297.89765
297.99783
297.99165
297.97578
297.95043
297.91915
297.87944
297.99836
297.99231
297.9814
297.96153
297.93722
297.90758
297.99734
297.99209
297.98069
297.95543
297.9259
297.89073
297.99677
297.9918
297.98065
297.96149
297.93705
297.91231
297.99629
297.99171
297.98205
297.95749
297.9293
297.89676
297.99496
297.99053
297.97914
297.96034
297.93597
297.91242
297.99459
297.99117
297.98212
297.95883
297.9313
297.89975
297.9929
297.98883
297.97687
297.95819
297.93339
297.91098
297.99174
297.98921
297.98093
297.95847
297.93158
297.90114
297.98714
297.98648
297.97524
297.95657
297.93137
297.90973
297.98941
297.98805
297.98037
297.95809
297.93112
297.90157
297.98801
297.9843
297.97177
297.9529
297.92728
297.90687
297.98497
297.98699
297.97885
297.95772
297.93041
297.90187
297.98122
297.98272
297.96992
297.95098
297.92456
297.90534
297.98045
297.98662
297.97853
297.95814
297.92928
297.90269
297.9788
297.98089
297.96743
297.94864
297.92517
297.91213
297.97869
297.98568
297.97681
297.95816
297.93391
297.91515
297.97412
297.98166
297.97249
297.96547
297.96909
297.99492
297.97767
297.98726
297.98251
297.97929
297.98908
298.01611
297.9764
297.99871
298.02492
298.06718
298.14714
298.23661
297.98061
298.0107
298.04224
298.10665
298.19474
298.27595
298.00017
298.08181
298.20145
298.32726
298.41604
298.46137
298.00619
298.10877
298.2431
298.38036
298.45873
298.48367
298.07265
298.31087
298.47747
298.54468
298.55093
298.55096
298.08331
298.34824
298.51292
298.56805
298.56419
298.55247
298.29704
298.62275
298.62109
298.60193
298.5907
298.59165
298.30668
298.64254
298.62845
298.60594
298.59244
298.58496
298.68416
298.63687
298.62563