/*--------------------------------*- C++ -*----------------------------------*\
| =========                 |                                                 |
| \\      /  F ield         | OpenFOAM: The Open Source CFD Toolbox           |
|  \\    /   O peration     | Version:  2206                                  |
|   \\  /    A nd           | Website:  www.openfoam.com                      |
|    \\/     M anipulation  |                                                 |
\*---------------------------------------------------------------------------*/
FoamFile
{
    version     2.0;
    format      ascii;
    arch        "LSB;label=32;scalar=64";
    class       volVectorField;
    location    "100";
    object      U;
}
// * * * * * * * * * * * * * * * * * * * * * * * * * * * * * * * * * * * * * //

dimensions      [0 1 -1 0 0 0 0];

internalField   nonuniform List<vector> 
50904
(
(-29.348671 0.39107041 0.010803271)
(-40.488903 0.84310162 0.14034894)
(-31.501935 4.2543271 0.27168847)
(-45.145873 6.5894307 0.46816742)
(-51.601723 0.78719676 0.30626258)
(-63.829059 1.8143862 0.57103512)
(-54.732973 6.0447707 0.33337616)
(-68.565472 8.9371631 0.7287464)
(-62.248759 0.63512909 0.50144527)
(-73.949397 1.7864775 0.98674954)
(-65.588266 5.8470798 0.72482159)
(-78.18106 8.7049524 1.3486853)
(-68.317769 0.29190455 0.76187874)
(-78.954974 1.3931741 1.4391445)
(-70.966486 5.3038378 1.0350791)
(-81.995226 8.0848989 1.8686772)
(-71.705957 -0.053066465 1.0306281)
(-81.149939 0.95619778 1.9311441)
(-73.165812 4.8724129 1.3964437)
(-83.063618 7.6011315 2.4717396)
(-72.69569 -0.36966545 1.3225658)
(-81.485595 0.52967946 2.4726338)
(-73.58551 4.5584547 1.7889341)
(-83.024179 7.1883358 3.133184)
(-72.641614 -0.71270977 1.663802)
(-81.140516 0.068453647 3.0914595)
(-73.544486 4.2355498 2.249889)
(-82.720921 6.7317099 3.8950748)
(-72.389954 -1.1003262 2.0740531)
(-80.611471 -0.45175295 3.7890422)
(-73.395491 3.8623531 2.7845132)
(-82.26132 6.1926682 4.7313465)
(-72.019551 -1.56736 2.5468934)
(-79.890236 -1.058533 4.5575687)
(-73.127386 3.4052966 3.4453148)
(-81.612285 5.5496934 5.6873451)
(-71.490001 -2.085338 3.0734635)
(-78.931934 -1.7106461 5.3603796)
(-72.686961 2.8814293 4.0888433)
(-80.714631 4.8226918 6.593924)
(-70.762978 -2.6299964 3.6376865)
(-77.703267 -2.3878822 6.1657186)
(-72.017316 2.3286516 4.8491178)
(-79.522857 4.0508811 7.5676575)
(-69.779727 -3.260922 4.1966226)
(-76.123321 -3.164786 6.912532)
(-71.07117 1.6586326 5.5428314)
(-77.975843 3.1468085 8.4117572)
(-68.489881 -3.9320313 4.7112605)
(-74.166123 -3.9377079 7.5423802)
(-69.768843 0.95055681 6.2131552)
(-76.025685 2.2478184 9.1529018)
(-66.857783 -4.550079 5.0745388)
(-71.816429 -4.6078341 7.9187402)
(-68.083977 0.28840962 6.6747997)
(-73.662945 1.4319719 9.5928133)
(-64.916457 -4.9993614 5.223616)
(-69.13265 -5.0913208 7.9849862)
(-66.027144 -0.24085629 6.9016205)
(-70.914204 0.77240085 9.6940801)
(-62.968632 -5.3609595 5.0416313)
(-66.531868 -5.4426032 7.622123)
(-63.93521 -0.63718412 6.734074)
(-68.194328 0.30672509 9.3264061)
(-61.262157 -5.4935116 4.6763973)
(-64.298684 -5.5590086 7.0246852)
(-62.093797 -0.80793789 6.3459648)
(-65.822397 0.1026196 8.6907391)
(-59.768303 -5.5648258 4.1257752)
(-62.384848 -5.59722 6.2137394)
(-60.498727 -0.86113232 5.7464767)
(-63.780399 0.056932447 7.8257081)
(-58.514787 -5.5085713 3.5505412)
(-60.775424 -5.5267413 5.3396373)
(-59.16283 -0.75796401 5.1045025)
(-62.074609 0.1972449 6.8795529)
(-57.48816 -5.3626762 2.9394828)
(-59.463318 -5.3699866 4.4110041)
(-58.043297 -0.57265822 4.3677429)
(-60.656564 0.4438508 5.8185718)
(-56.67569 -5.3038911 2.371884)
(-58.422692 -5.3114137 3.4943829)
(-57.167319 -0.4475062 3.603019)
(-59.524493 0.61059572 4.6984879)
(-56.091589 -5.3259295 1.7499815)
(-57.668682 -5.3439645 2.521748)
(-56.522569 -0.49050737 2.7641721)
(-58.665786 0.58125252 3.4853535)
(-55.76138 -5.5095644 1.2992664)
(-57.228086 -5.559267 1.7353984)
(-56.162562 -0.69993254 2.0556763)
(-58.160464 0.35000051 2.4195749)
(-55.611181 -5.7292681 0.95036051)
(-57.015383 -5.8275206 1.1365893)
(-56.005288 -0.95871809 1.5302909)
(-57.931312 0.043857862 1.5998829)
(-55.567909 -5.954722 0.73796563)
(-56.945325 -6.1041099 0.73358354)
(-55.962822 -1.2234698 1.1683875)
(-57.846113 -0.27644243 1.0160501)
(-55.587885 -6.1792039 0.57860489)
(-56.929474 -6.3678742 0.46781776)
(-55.983675 -1.4835512 0.90672866)
(-57.824598 -0.58972941 0.61411326)
(-55.647447 -6.3813453 0.46998318)
(-56.918102 -6.5969663 0.29751596)
(-56.049282 -1.7194508 0.72132749)
(-57.760039 -0.86453265 0.36815552)
(-55.723049 -6.5558856 0.38586263)
(-56.916858 -6.7901668 0.17923249)
(-56.123839 -1.9289899 0.57392699)
(-57.695623 -1.0942456 0.228595)
(-55.804516 -6.7109041 0.32953822)
(-56.927795 -6.956199 0.11394162)
(-56.194318 -2.1065454 0.46651517)
(-57.744907 -1.2809075 0.13703465)
(-55.86393 -6.8412227 0.28130748)
(-56.949653 -7.0918114 0.072938211)
(-56.254809 -2.2501617 0.38629656)
(-57.702208 -1.4223225 0.086738471)
(-55.40765 -7.0081617 0.24590042)
(-56.106484 -7.2665699 0.05579807)
(-55.738725 -2.3777583 0.31870582)
(-56.904678 -1.5266717 0.07272926)
(-52.762929 -7.3431712 0.18421655)
(-52.904999 -7.599306 0.021160891)
(-52.909509 -2.5125797 0.23166304)
(-53.815653 -1.5951105 0.0352323)
(-47.152911 -7.7090074 0.099652273)
(-47.243477 -7.886113 -0.013933826)
(-47.032368 -2.6103022 0.12926787)
(-48.179957 -1.5970803 0.005379404)
(-39.607306 -7.6715473 0.034373906)
(-39.938153 -7.7449488 -0.032643438)
(-39.357548 -2.5621723 0.052755277)
(-40.865505 -1.5227749 -0.010683872)
(-28.573299 -6.5938099 0.035230253)
(-29.058902 -6.6052555 0.0014726157)
(-28.389945 -2.1800239 0.037157683)
(-30.034303 -1.3321992 0.0090097776)
(-11.497775 -3.2052283 -0.1198828)
(-11.828699 -3.2471141 -0.11477133)
(-11.506538 -1.0714741 -0.086263394)
(-12.564131 -0.80264309 -0.080443929)
(-32.523162 8.351757 0.49966203)
(-46.517805 12.942437 0.94521375)
(-31.567118 10.659865 0.58964022)
(-43.054069 17.675076 1.1857453)
(-30.445848 10.847395 0.48756724)
(-38.487831 18.646562 1.1472885)
(-29.452915 10.773673 0.41362845)
(-35.949755 18.661021 1.0492326)
(-28.779173 10.653185 0.35834898)
(-34.3356 18.416271 0.96824437)
(-28.323299 10.55661 0.31873315)
(-33.213519 18.139821 0.91851164)
(-27.974552 10.48004 0.29395772)
(-32.299616 17.851859 0.88560095)
(-56.446928 10.588108 0.33851455)
(-69.343662 15.898064 0.93744495)
(-55.709036 12.970329 0.39974461)
(-65.436558 20.489582 0.99708853)
(-54.439328 13.173662 0.43227929)
(-61.295172 21.224818 1.0714068)
(-53.464276 13.107469 0.46675475)
(-58.787831 21.084017 1.1548688)
(-52.846887 12.953245 0.47914916)
(-57.190185 20.751384 1.1869908)
(-52.438406 12.796031 0.47523539)
(-56.135503 20.409658 1.1839788)
(-52.152991 12.640597 0.46479821)
(-55.332176 20.054777 1.1604949)
(-66.67536 10.244178 0.863841)
(-77.801019 15.423979 1.7624202)
(-64.618382 12.77604 0.97032646)
(-72.489883 20.084235 1.8994564)
(-62.590343 13.087755 0.98566798)
(-67.508498 20.918731 2.0187106)
(-61.211621 13.06044 1.0386927)
(-64.800491 20.853127 2.1542342)
(-60.387879 12.914199 1.0843996)
(-63.175203 20.539943 2.2316358)
(-59.984937 12.732106 1.114136)
(-62.235493 20.187986 2.2669368)
(-59.856865 12.530865 1.1309214)
(-61.505616 19.80975 2.2681483)
(-70.413557 9.8046033 1.1746462)
(-80.134989 14.910088 2.2239114)
(-66.768699 12.595267 1.2590608)
(-73.756006 19.833955 2.2659085)
(-64.40121 12.957748 1.2778109)
(-68.608317 20.765944 2.3662318)
(-62.92872 12.962107 1.3270004)
(-65.855714 20.794943 2.4756138)
(-62.141269 12.845039 1.3667127)
(-64.172016 20.561891 2.55384)
(-61.795165 12.689051 1.3903816)
(-63.110281 20.279754 2.6020107)
(-61.741862 12.509987 1.3998498)
(-62.467669 19.948923 2.6117052)
(-71.403364 9.5491654 1.5917533)
(-80.470577 14.596943 2.8623364)
(-67.116331 12.533147 1.7419316)
(-73.785687 19.732732 2.9785901)
(-64.67272 12.954171 1.8041431)
(-68.571201 20.804279 3.1911138)
(-63.170656 12.988022 1.8920873)
(-65.808726 20.912033 3.3826661)
(-62.413307 12.87922 1.9554129)
(-64.183563 20.708913 3.5128211)
(-62.12548 12.719764 1.9859439)
(-63.219508 20.431539 3.5710467)
(-62.148051 12.532623 1.988862)
(-62.716227 20.093913 3.5669246)
(-71.613649 9.3430645 2.0436041)
(-80.39553 14.266254 3.5634616)
(-67.309751 12.440515 2.2281979)
(-73.752709 19.515684 3.6360218)
(-64.856576 12.912274 2.2774818)
(-68.528339 20.718345 3.8495281)
(-63.367989 12.982633 2.3539074)
(-65.820841 20.957322 4.0535457)
(-62.655316 12.905196 2.4161935)
(-64.283387 20.859401 4.1898662)
(-62.429153 12.767309 2.4488862)
(-63.408582 20.649125 4.2598622)
(-62.520932 12.595168 2.4543926)
(-62.997842 20.356155 4.2699902)
(-71.685605 9.1056596 2.5973124)
(-80.217875 13.873399 4.3861611)
(-67.462224 12.342253 2.8769998)
(-73.632874 19.27447 4.5721266)
(-64.997598 12.877815 2.9674146)
(-68.350082 20.645042 4.874708)
(-63.510069 12.975076 3.0517921)
(-65.688721 21.004024 5.1126627)
(-62.824902 12.915057 3.1074017)
(-64.225116 20.976319 5.2416926)
(-62.641565 12.785679 3.1297991)
(-63.434536 20.802456 5.2961821)
(-62.782713 12.617971 3.1254745)
(-63.113289 20.532283 5.2910504)
(-71.673036 8.8121665 3.1877596)
(-79.904153 13.374788 5.257476)
(-67.556581 12.191021 3.5005865)
(-73.448463 18.935237 5.4790641)
(-65.087395 12.806587 3.5958663)
(-68.13154 20.514333 5.827258)
(-63.598685 12.947628 3.6783094)
(-65.531226 21.023427 6.054864)
(-62.936261 12.914102 3.7307763)
(-64.135278 21.082862 6.1711437)
(-62.787911 12.797627 3.7525898)
(-63.430161 20.954081 6.2220037)
(-62.968593 12.636174 3.7513731)
(-63.190875 20.71089 6.2218021)
(-71.541804 8.4464132 3.9817421)
(-79.423484 12.774768 6.3247985)
(-67.533027 11.988846 4.3673107)
(-73.148188 18.53682 6.6759312)
(-65.052912 12.69502 4.4721218)
(-67.804662 20.334555 7.0904625)
(-63.566206 12.880855 4.5434495)
(-65.299145 20.97434 7.2860919)
(-62.931127 12.872512 4.5817747)
(-63.924127 21.108967 7.3682553)
(-62.818142 12.766609 4.594603)
(-63.284986 21.016895 7.3973826)
(-63.040756 12.610234 4.591447)
(-63.128516 20.794817 7.3900242)
(-71.245093 7.990039 4.6822086)
(-78.718633 12.053684 7.2472803)
(-67.35967 11.699836 5.1024768)
(-72.696936 18.04274 7.6577599)
(-64.871137 12.524815 5.218948)
(-67.42692 20.078825 8.1191442)
(-63.400379 12.770106 5.2875468)
(-64.944365 20.85023 8.2877104)
(-62.799654 12.792856 5.3218975)
(-63.618771 21.058232 8.3498516)
(-62.725131 12.700177 5.338379)
(-63.021858 21.001321 8.376878)
(-62.983518 12.549799 5.3473395)
(-62.944255 20.797511 8.3858268)
(-70.691167 7.4656493 5.5590039)
(-77.712948 11.241687 8.2913709)
(-66.921111 11.317651 6.0063634)
(-71.974601 17.438067 8.7576157)
(-64.433414 12.256389 6.106464)
(-66.72616 19.680459 9.201956)
(-62.990901 12.553598 6.1563886)
(-64.346471 20.541288 9.320074)
(-62.434256 12.601284 6.182947)
(-63.062118 20.791443 9.358162)
(-62.405745 12.516418 6.2056911)
(-62.560189 20.749457 9.3881582)
(-62.702825 12.368384 6.232731)
(-62.545236 20.553882 9.4237039)
(-69.867529 6.8118614 6.3146217)
(-76.385745 10.281076 9.1292088)
(-66.227053 10.817506 6.7315224)
(-70.986595 16.683313 9.5446764)
(-63.759882 11.880823 6.7817981)
(-65.842476 19.124597 9.9061584)
(-62.368354 12.232978 6.8065338)
(-63.484741 20.072143 9.9722326)
(-61.863791 12.303793 6.8325305)
(-62.281877 20.351381 10.001582)
(-61.884295 12.228141 6.8759386)
(-61.907206 20.312704 10.05693)
(-62.217417 12.084672 6.9376199)
(-61.944454 20.122757 10.143652)
(-68.670897 6.0937521 7.0351335)
(-74.650666 9.274045 9.8419251)
(-65.175146 10.183366 7.3777718)
(-69.586774 15.736596 10.121042)
(-62.758479 11.32581 7.3565186)
(-64.638114 18.290683 10.349493)
(-61.439335 11.709715 7.3376057)
(-62.277459 19.271783 10.34921)
(-60.995762 11.79075 7.360707)
(-61.264484 19.550023 10.372301)
(-61.062545 11.718502 7.4294274)
(-60.953715 19.507445 10.464056)
(-61.420022 11.578204 7.5326607)
(-61.048523 19.318259 10.609362)
(-67.150263 5.345756 7.5349922)
(-72.56621 8.2612578 10.251429)
(-63.917289 9.4218678 7.7374995)
(-67.884731 14.605652 10.310596)
(-61.571264 10.612205 7.5907168)
(-63.177231 17.195886 10.340961)
(-60.313575 11.018297 7.5051597)
(-60.945519 18.178458 10.254445)
(-59.916937 11.106117 7.5207179)
(-60.027899 18.446488 10.277948)
(-60.009314 11.036139 7.6162815)
(-59.782354 18.398621 10.41517)
(-60.368168 10.898211 7.7638622)
(-59.912731 18.210568 10.625306)
(-65.269695 4.6225695 7.7518211)
(-70.119328 7.2782945 10.276985)
(-62.407669 8.5375145 7.811275)
(-65.884481 13.275939 10.10658)
(-60.167438 9.722158 7.567109)
(-61.467736 15.810401 9.9603635)
(-58.96833 10.124911 7.4282479)
(-59.385469 16.768501 9.8063906)
(-58.602429 10.210335 7.440202)
(-58.573276 17.022699 9.8367139)
(-58.698505 10.143179 7.5630444)
(-58.379381 16.973795 10.01888)
(-59.033195 10.01549 7.7533663)
(-58.522413 16.802629 10.29104)
(-63.287112 3.9943513 7.5479885)
(-67.606159 6.4577132 9.8541554)
(-60.788233 7.6879961 7.4853616)
(-63.776755 12.012917 9.5301726)
(-58.699432 8.8328869 7.1709416)
(-59.706489 14.414838 9.2542259)
(-57.570866 9.227113 6.9986843)
(-57.798561 15.32528 9.0600497)
(-57.227846 9.3138125 7.0068045)
(-57.084771 15.566289 9.0942069)
(-57.312021 9.2578881 7.1432232)
(-56.926402 15.52599 9.3013683)
(-57.606436 9.149688 7.3542002)
(-57.061315 15.381803 9.6049658)
(-61.505766 3.5833076 7.1165104)
(-65.341532 5.93003 9.164353)
(-59.305415 7.0117244 6.9729023)
(-61.83245 11.027472 8.7613923)
(-57.38678 8.0940857 6.6205045)
(-58.126413 13.25923 8.4072386)
(-56.342701 8.4745248 6.4308988)
(-56.407135 14.107291 8.1933036)
(-56.026593 8.5621383 6.436163)
(-55.78204 14.329825 8.2286551)
(-56.099512 8.5181013 6.577406)
(-55.651139 14.29876 8.4449171)
(-56.35647 8.4286478 6.7950972)
(-55.770763 14.181147 8.7576613)
(-59.94815 3.3307486 6.460808)
(-63.326753 5.6210574 8.2603677)
(-57.985382 6.5064229 6.2739729)
(-60.076619 10.297542 7.8421037)
(-56.237413 7.5251085 5.9130351)
(-56.739006 12.34717 7.4619468)
(-55.283707 7.8928982 5.7231321)
(-55.213986 13.130813 7.2493206)
(-54.996039 7.9841917 5.7263804)
(-54.669065 13.338031 7.2818966)
(-55.058174 7.9533617 5.8615372)
(-54.557355 13.318304 7.4889789)
(-55.280462 7.8804054 6.0691803)
(-54.658253 13.224214 7.7882088)
(-58.608222 3.1988598 5.6872014)
(-61.562255 5.4706395 7.2082304)
(-56.818058 6.0851489 5.4926433)
(-58.495169 9.7161296 6.8086576)
(-55.232921 7.0260372 5.1657353)
(-55.517411 11.575819 6.4529728)
(-54.367963 7.3777103 4.9908079)
(-54.183806 12.295925 6.2581747)
(-54.105152 7.4767879 4.9926328)
(-53.707917 12.498499 6.2879222)
(-54.154308 7.462058 5.1154019)
(-53.605033 12.497459 6.4751566)
(-54.344198 7.401105 5.3050012)
(-53.683094 12.42345 6.7469288)
(-57.484996 3.1574503 4.83429)
(-60.044982 5.4366534 6.068066)
(-55.822754 5.7804437 4.6278536)
(-57.123125 9.2957751 5.6876659)
(-54.393986 6.6433372 4.33545)
(-54.496763 10.969717 5.3701907)
(-53.619089 6.981557 4.1849088)
(-53.346603 11.632598 5.2036404)
(-53.381469 7.0868423 4.1839473)
(-52.933804 11.832709 5.2292924)
(-53.420855 7.0863724 4.284429)
(-52.837685 11.849902 5.3863803)
(-53.586499 7.0419017 4.4424607)
(-52.897132 11.800249 5.6155228)
(-56.607688 3.0730468 3.9454606)
(-58.822712 5.3518715 4.8623162)
(-55.057721 5.4589635 3.7667556)
(-56.041123 8.8721641 4.5397501)
(-53.757524 6.2602332 3.5197113)
(-53.713401 10.391193 4.2738364)
(-53.057426 6.5875775 3.3910527)
(-52.736686 11.003758 4.135469)
(-52.84238 6.6980588 3.3891384)
(-52.357321 11.202417 4.157392)
(-52.87623 6.7080289 3.4724769)
(-52.269005 11.234273 4.2868128)
(-53.024964 6.6753573 3.6054954)
(-52.317447 11.202731 4.4771854)
(-55.970203 2.9111636 3.0244005)
(-57.919827 5.1680225 3.603735)
(-54.527416 5.1336792 2.8591267)
(-55.277936 8.4364714 3.3295273)
(-53.333812 5.8917526 2.6584975)
(-53.184328 9.8396042 3.1225369)
(-52.691693 6.2107396 2.5589962)
(-52.32076 10.411898 3.0184826)
(-52.496381 6.3241487 2.556656)
(-52.003473 10.603705 3.0366675)
(-52.530377 6.3420699 2.6195535)
(-51.928828 10.644956 3.1356406)
(-52.669642 6.3222126 2.7204218)
(-51.976426 10.631483 3.2799911)
(-55.618474 2.6820315 2.2314641)
(-57.431026 4.8835694 2.4968018)
(-54.265576 4.8122246 2.0961436)
(-54.912849 7.985557 2.27025)
(-53.150217 5.5414142 1.9246282)
(-52.966247 9.3111567 2.0967529)
(-52.546457 5.8540224 1.8383471)
(-52.175356 9.8501341 2.0059194)
(-52.365862 5.9692499 1.8326504)
(-51.894426 10.034041 2.0135999)
(-52.396115 5.9918081 1.8803042)
(-51.838826 10.078393 2.087353)
(-52.520312 5.9792968 1.9589118)
(-51.891023 10.070455 2.198391)
(-55.472975 2.3864922 1.626708)
(-57.273011 4.5106401 1.6358801)
(-54.178395 4.4676188 1.510014)
(-54.844567 7.5183539 1.456919)
(-53.109427 5.1789278 1.3654617)
(-52.951856 8.8130982 1.3235563)
(-52.521876 5.4856123 1.2935008)
(-52.20889 9.3310484 1.2429271)
(-52.346825 5.5998548 1.2845046)
(-51.942017 9.5106473 1.2400006)
(-52.382145 5.6231867 1.3164017)
(-51.884908 9.556872 1.2907406)
(-52.500815 5.6135577 1.3717813)
(-51.944305 9.5514476 1.3715603)
(-55.436307 2.097042 1.208376)
(-57.272821 4.1510947 1.0153087)
(-54.170368 4.1680561 1.1081285)
(-54.92385 7.111776 0.87447774)
(-53.133579 4.8743833 0.97853595)
(-53.069407 8.3878619 0.77958298)
(-52.556244 5.1819155 0.9171644)
(-52.367371 8.8963672 0.70581574)
(-52.382973 5.2982425 0.90702558)
(-52.076206 9.0748769 0.69611392)
(-52.41026 5.3249646 0.92977426)
(-52.027678 9.1220313 0.7335186)
(-52.517589 5.3177799 0.9712422)
(-52.082652 9.1186678 0.79747125)
(-55.45629 1.8125352 0.89544371)
(-57.337224 3.7961909 0.55715026)
(-54.193198 3.8881767 0.80238248)
(-55.006013 6.7505931 0.45747386)
(-53.17044 4.5948615 0.68452442)
(-53.213475 8.0131044 0.40044754)
(-52.593968 4.90548 0.63302688)
(-52.537415 8.5121282 0.34058229)
(-52.418025 5.0247721 0.62232247)
(-52.233739 8.6909598 0.32962058)
(-52.436887 5.0545988 0.63695108)
(-52.158836 8.7419592 0.35829688)
(-52.531599 5.0503967 0.66561144)
(-52.209094 8.7409052 0.40894543)
(-55.511452 1.552442 0.67595754)
(-57.375565 3.4841694 0.27711877)
(-54.227685 3.6423124 0.59168545)
(-55.098174 6.444084 0.18991289)
(-53.204355 4.3545831 0.484986)
(-53.398466 7.6993544 0.16593092)
(-52.626443 4.6718281 0.44018106)
(-52.706881 8.1972124 0.1178759)
(-52.445575 4.795688 0.42813571)
(-52.386891 8.3802596 0.10629048)
(-52.456042 4.8289942 0.43609503)
(-52.276735 8.4363846 0.1245493)
(-52.541932 4.8278551 0.45503272)
(-52.319594 8.4381697 0.16007846)
(-55.567581 1.3202018 0.50501971)
(-57.414915 3.2160765 0.072263693)
(-54.249048 3.4292076 0.42177131)
(-55.191149 6.1866849 -0.0087935381)
(-53.215109 4.145787 0.3265757)
(-53.588583 7.4289473 -0.012924887)
(-52.635422 4.4656166 0.28315709)
(-52.869824 7.9223381 -0.042132466)
(-52.447772 4.5922853 0.26866889)
(-52.532664 8.1046497 -0.050411082)
(-52.45011 4.6283029 0.27087088)
(-52.395986 8.1640277 -0.04088343)
(-52.529058 4.6291551 0.28164428)
(-52.415407 8.1692273 -0.017918683)
(-55.623435 1.1247648 0.38092401)
(-57.458569 2.9935362 -0.016783395)
(-54.255082 3.2512098 0.3090703)
(-55.28923 5.9738724 -0.092806472)
(-53.207713 3.9704417 0.23274701)
(-53.761407 7.2071103 -0.087273551)
(-52.624705 4.2933401 0.18822277)
(-53.003223 7.7037483 -0.10826338)
(-52.424918 4.4265964 0.16803693)
(-52.631687 7.889005 -0.12039544)
(-52.415161 4.4691844 0.16413177)
(-52.492659 7.9529221 -0.12055015)
(-52.487135 4.4740404 0.16773804)
(-52.473869 7.9643096 -0.10973538)
(-55.664699 0.97031872 0.28194655)
(-57.493405 2.8229483 -0.089122396)
(-54.248704 3.1121791 0.21013544)
(-55.377577 5.7975265 -0.16476856)
(-53.188959 3.8247493 0.14760228)
(-53.894194 7.0101676 -0.15012776)
(-52.60021 4.1421487 0.096882794)
(-53.077024 7.5003034 -0.16685301)
(-52.384424 4.2787133 0.067250267)
(-52.680213 7.6822872 -0.18474701)
(-52.359804 4.3274418 0.056779079)
(-52.53427 7.7449615 -0.19214591)
(-52.422088 4.337009 0.054515502)
(-52.510599 7.7593211 -0.18940661)
(-55.395182 0.85750171 0.21265877)
(-57.243722 2.7063347 -0.10897709)
(-54.205613 3.0021013 0.15108552)
(-55.462763 5.6473329 -0.16783621)
(-53.159283 3.706868 0.1096897)
(-53.985597 6.8378717 -0.14471763)
(-52.560807 4.0180562 0.052864088)
(-53.119332 7.3196361 -0.15674691)
(-52.323636 4.1588755 0.0099676259)
(-52.702118 7.4968262 -0.18782711)
(-52.280259 4.2147601 -0.01136939)
(-52.537224 7.5605583 -0.21043452)
(-52.329458 4.2295424 -0.021156158)
(-52.500574 7.5773924 -0.2196345)
(-53.522663 0.83274021 0.13756009)
(-55.525026 2.703827 -0.10530711)
(-53.702947 2.9378618 0.092542609)
(-55.220377 5.5370456 -0.1703431)
(-52.966746 3.6102867 0.063243327)
(-53.931661 6.6773366 -0.14430588)
(-52.394989 3.9049292 -0.00073743)
(-53.070107 7.143024 -0.15772235)
(-52.143091 4.0408895 -0.057037717)
(-52.635807 7.3074942 -0.19876674)
(-52.071965 4.1000576 -0.085856704)
(-52.452692 7.3683434 -0.23557102)
(-52.084752 4.1220627 -0.09940832)
(-52.388701 7.3890203 -0.25498894)
(-48.564741 0.94335717 0.061167517)
(-51.445675 2.8523659 -0.085766612)
(-51.142263 2.9775722 0.047786944)
(-53.349991 5.5341915 -0.14044814)
(-51.653432 3.5516489 0.044959867)
(-52.840609 6.5647473 -0.10670281)
(-51.375197 3.8283877 -0.01266654)
(-52.320477 7.0086335 -0.12061342)
(-51.196648 3.9650746 -0.077830536)
(-52.021949 7.15708 -0.169664)
(-51.088601 4.0346212 -0.11413908)
(-51.842997 7.2164886 -0.21832398)
(-51.009628 4.0705943 -0.1294834)
(-51.723275 7.2460887 -0.24672884)
(-40.876923 1.1395525 0.0064365093)
(-44.477223 3.0195139 -0.074756089)
(-44.44527 3.1525131 -0.00260856)
(-47.75801 5.6630661 -0.11587969)
(-46.616366 3.5668162 -0.0047551439)
(-48.820083 6.5656783 -0.095364741)
(-46.950879 3.8064503 -0.053655104)
(-48.924158 6.9798843 -0.10951068)
(-46.859121 3.963056 -0.11665505)
(-48.886145 7.1220838 -0.15608299)
(-46.682918 4.0568383 -0.13646537)
(-48.751131 7.1822862 -0.20534293)
(-46.469589 4.1164852 -0.12172538)
(-48.531972 7.2260003 -0.22899202)
(-29.387775 1.2608323 0.0054029884)
(-33.199377 2.8488681 -0.02433998)
(-32.276069 3.206772 0.011319164)
(-36.083388 5.4949959 -0.03456909)
(-34.805791 3.5012971 0.0081879253)
(-37.73728 6.4268109 -0.027955304)
(-35.473744 3.6297629 -0.031732031)
(-38.2372 6.8495563 -0.041494428)
(-35.064261 3.7997108 -0.072487642)
(-38.166524 7.0470132 -0.075667583)
(-34.511424 3.9631198 -0.058507984)
(-37.952966 7.1493239 -0.097175064)
(-34.130704 4.0823638 -0.012738552)
(-37.701603 7.2196139 -0.093037585)
(-11.952775 0.79795794 -0.082368851)
(-14.628329 1.4682554 -0.096915179)
(-13.059881 2.0756197 -0.063969515)
(-15.932721 3.3483456 -0.099329706)
(-14.274675 2.3839295 -0.059139091)
(-16.618324 4.2987902 -0.079897728)
(-14.848498 2.3966119 -0.059005097)
(-16.904443 4.7058728 -0.064957061)
(-14.565221 2.3587383 -0.066503513)
(-16.664954 4.8767871 -0.058696641)
(-13.932848 2.4109649 -0.058031307)
(-16.275122 4.9756515 -0.052799196)
(-13.456995 2.5188697 -0.027570947)
(-15.963123 5.051846 -0.040178344)
(-27.640543 10.400792 0.27782642)
(-31.428702 17.542341 0.85910321)
(-27.34956 10.343397 0.27116185)
(-30.680374 17.258814 0.84361325)
(-27.016992 10.273852 0.28814397)
(-29.918637 16.985827 0.85490069)
(-26.65766 10.158142 0.32719096)
(-29.092957 16.593956 0.89323245)
(-26.231915 9.8815699 0.38192931)
(-28.042349 15.753136 0.95310528)
(-25.613236 9.1177081 0.4253567)
(-26.453168 13.469367 0.97063401)
(-51.891777 12.463084 0.44705106)
(-54.658656 19.662038 1.1235781)
(-51.673157 12.319322 0.43299066)
(-54.149959 19.313525 1.0896843)
(-51.439001 12.182064 0.43076279)
(-53.752492 18.990283 1.0699979)
(-51.179395 12.001947 0.4317572)
(-53.34872 18.557161 1.0538891)
(-50.845505 11.639817 0.42609491)
(-52.749414 17.679211 1.0253257)
(-50.30528 10.685107 0.43175811)
(-51.581459 15.31282 1.0168713)
(-59.830553 12.296657 1.1350872)
(-61.026175 19.379377 2.2417031)
(-59.863377 12.085318 1.1320712)
(-60.729446 18.963723 2.20482)
(-59.972642 11.866988 1.1198339)
(-60.670525 18.542011 2.1565913)
(-60.074537 11.627298 1.097143)
(-60.702866 18.025516 2.1035447)
(-60.056359 11.278562 1.0568939)
(-60.604216 17.166008 2.0334479)
(-59.721102 10.482795 1.0008841)
(-59.919469 15.07885 1.9450585)
(-61.863505 12.291455 1.3978113)
(-62.19863 19.54721 2.5860242)
(-62.081758 12.088451 1.3948779)
(-62.100237 19.164181 2.554895)
(-62.442583 11.862928 1.3890269)
(-62.215221 18.769766 2.5187964)
(-62.808433 11.603391 1.3839127)
(-62.416485 18.258819 2.4868168)
(-63.012194 11.234417 1.3784133)
(-62.482536 17.366877 2.4589547)
(-62.800564 10.469479 1.3612831)
(-62.028674 15.274693 2.4318502)
(-62.388398 12.302093 1.9677064)
(-62.579117 19.686599 3.5162611)
(-62.727231 12.082318 1.9384764)
(-62.574578 19.29421 3.4538788)
(-63.207353 11.840872 1.901107)
(-62.796666 18.887015 3.3709045)
(-63.676854 11.578716 1.8663993)
(-63.103765 18.382469 3.2810423)
(-63.960814 11.240572 1.8408425)
(-63.25859 17.548137 3.1907883)
(-63.764832 10.575215 1.8282127)
(-62.840311 15.602697 3.114965)
(-62.834156 12.375247 2.4349191)
(-62.931031 19.985614 4.2352604)
(-63.230572 12.161933 2.4069591)
(-62.984236 19.620361 4.1845108)
(-63.75272 11.925361 2.3701089)
(-63.273254 19.230962 4.1066749)
(-64.226943 11.671456 2.3388925)
(-63.60484 18.744393 4.0199278)
(-64.465491 11.347583 2.3240636)
(-63.721591 17.93418 3.9324017)
(-64.134796 10.729562 2.3284738)
(-63.186263 16.044488 3.8385164)
(-63.149857 12.401828 3.096277)
(-63.10652 20.184178 5.243495)
(-63.582413 12.192404 3.0590971)
(-63.219479 19.834173 5.1786713)
(-64.126745 11.961742 3.0134915)
(-63.557648 19.457598 5.0860789)
(-64.590395 11.722586 2.9769288)
(-63.89766 18.997703 4.9850626)
(-64.777925 11.42972 2.964201)
(-63.98252 18.246322 4.883461)
(-64.372113 10.875081 2.9836719)
(-63.365544 16.466435 4.7706347)
(-63.38085 12.422659 3.7278804)
(-63.234127 20.384612 6.1867337)
(-63.840115 12.214877 3.6966897)
(-63.399761 20.047682 6.1342728)
(-64.38759 11.989668 3.6589945)
(-63.764758 19.681936 6.0571721)
(-64.798804 11.766778 3.6336682)
(-64.093422 19.24313 5.9733641)
(-64.904359 11.498356 3.6351714)
(-64.139992 18.536693 5.8878887)
(-64.55005 10.983832 3.6751655)
(-63.487684 16.845843 5.778657)
(-63.492447 12.399631 4.5724267)
(-63.224375 20.486318 7.3618343)
(-63.972701 12.194342 4.5492792)
(-63.43947 20.15921 7.3227313)
(-64.518516 11.976372 4.5232054)
(-63.827143 19.80349 7.2687388)
(-64.867296 11.770997 4.5101402)
(-64.146169 19.387216 7.2110627)
(-64.944616 11.528095 4.5198189)
(-64.174509 18.732549 7.1450018)
(-64.622541 11.059237 4.5734634)
(-63.506638 17.154964 7.0337411)
(-63.466894 12.342479 5.3491164)
(-63.089602 20.501886 8.3915829)
(-63.962923 12.139427 5.3484521)
(-63.342241 20.1811 8.3911541)
(-64.512752 11.924356 5.3478334)
(-63.75122 19.830645 8.3874909)
(-64.855791 11.727196 5.3579109)
(-64.071686 19.429506 8.3814137)
(-64.927409 11.505334 5.3890663)
(-64.088429 18.818496 8.361505)
(-64.526784 11.093312 5.4838417)
(-63.385984 17.363471 8.2927138)
(-63.211199 12.162963 6.2629399)
(-62.732782 20.265326 9.4757284)
(-63.71753 11.961175 6.2909113)
(-63.015312 19.94814 9.5237094)
(-64.287714 11.741939 6.3209801)
(-63.447125 19.60048 9.5792597)
(-64.701629 11.538381 6.3582556)
(-63.784713 19.209168 9.6295163)
(-64.775099 11.333046 6.41792)
(-63.795496 18.638358 9.657798)
(-64.173808 11.00108 6.5531653)
(-63.047887 17.331641 9.6300413)
(-62.747796 11.882846 7.0143656)
(-62.174358 19.841162 10.265496)
(-63.254117 11.685347 7.0868628)
(-62.469381 19.532043 10.379507)
(-63.812807 11.471546 7.1675827)
(-62.907941 19.193843 10.510509)
(-64.211106 11.277821 7.2553603)
(-63.239685 18.822052 10.633021)
(-64.269891 11.095899 7.3665818)
(-63.240675 18.302592 10.731566)
(-63.636478 10.835216 7.5575476)
(-62.46734 17.152277 10.780567)
(-61.957999 11.381459 7.664284)
(-61.343085 19.041987 10.805389)
(-62.449688 11.191188 7.7880701)
(-61.613802 18.749504 10.986012)
(-62.978025 10.987878 7.9276989)
(-62.034698 18.431833 11.19131)
(-63.333128 10.811516 8.0722116)
(-62.33012 18.092073 11.38338)
(-63.340452 10.663715 8.2356295)
(-62.282595 17.640455 11.549077)
(-62.650296 10.491929 8.4726485)
(-61.449971 16.676362 11.669773)
(-60.887439 10.714081 7.9536634)
(-60.241778 17.947479 10.89967)
(-61.336341 10.538281 8.1316482)
(-60.511975 17.676157 11.147875)
(-61.795767 10.354845 8.3319879)
(-60.868135 17.391704 11.426329)
(-62.065506 10.205867 8.5335817)
(-61.092135 17.098753 11.685109)
(-61.987436 10.098803 8.7466318)
(-60.959916 16.727509 11.912838)
(-61.242286 10.010006 9.0193862)
(-60.04924 15.963652 12.097469)
(-59.499628 9.8513348 7.9962943)
(-58.84754 16.566164 10.636436)
(-59.883268 9.6968894 8.2195544)
(-59.123935 16.319031 10.942964)
(-60.250043 9.5435893 8.4665261)
(-59.44257 16.070462 11.280067)
(-60.422045 9.4307191 8.7052456)
(-59.588913 15.831547 11.587701)
(-60.262526 9.3685581 8.9414718)
(-59.361097 15.549502 11.854911)
(-59.499527 9.3525764 9.212459)
(-58.335407 14.988533 12.072968)
(-58.007798 9.0106567 7.6215179)
(-57.351091 15.182068 9.9834634)
(-58.32321 8.8810601 7.8641016)
(-57.58856 14.973178 10.315175)
(-58.604373 8.7594073 8.1291378)
(-57.843705 14.769193 10.673015)
(-58.698651 8.6790063 8.3795453)
(-57.923217 14.583561 10.993751)
(-58.490283 8.6515254 8.6184689)
(-57.637957 14.380807 11.269471)
(-57.751106 8.6822171 8.8736376)
(-56.58246 13.983471 11.495499)
(-56.701636 8.3123909 7.0708137)
(-56.016229 14.017184 9.1452532)
(-56.958522 8.2053218 7.3190648)
(-56.199595 13.846512 9.4823262)
(-57.170949 8.1105064 7.5879559)
(-56.378252 13.686826 9.8425201)
(-57.205993 8.0557968 7.8379049)
(-56.38451 13.549258 10.16221)
(-56.963619 8.054034 8.0701188)
(-56.057989 13.406932 10.435049)
(-56.251821 8.1174289 8.3048701)
(-55.079434 13.122884 10.65913)
(-55.577801 7.7847111 6.334248)
(-54.86277 13.091522 8.1611464)
(-55.78663 7.6977878 6.5719004)
(-54.99994 12.952775 8.4842371)
(-55.946912 7.6251986 6.8291591)
(-55.117982 12.828856 8.8298525)
(-55.942039 7.5907336 7.067046)
(-55.068192 12.728787 9.1369098)
(-55.684193 7.6090197 7.286114)
(-54.712187 12.632666 9.3999214)
(-55.00867 7.6980757 7.50263)
(-53.826768 12.431946 9.6183727)
(-54.604433 7.3235869 5.5529605)
(-53.853678 12.320573 7.0931537)
(-54.7829 7.2532462 5.7751204)
(-53.962703 12.208373 7.3935568)
(-54.915344 7.196568 6.0165467)
(-54.049553 12.111759 7.7174387)
(-54.897715 7.1761652 6.2402915)
(-53.98344 12.038398 8.0077211)