/*--------------------------------*- C++ -*----------------------------------*\
| =========                 |                                                 |
| \\      /  F ield         | OpenFOAM: The Open Source CFD Toolbox           |
|  \\    /   O peration     | Version:  2206                                  |
|   \\  /    A nd           | Website:  www.openfoam.com                      |
|    \\/     M anipulation  |                                                 |
\*---------------------------------------------------------------------------*/
FoamFile
{
    version     2.0;
    format      ascii;
    arch        "LSB;label=32;scalar=64";
    class       volScalarField;
    location    "300";
    object      epsilon;
}
// * * * * * * * * * * * * * * * * * * * * * * * * * * * * * * * * * * * * * //

dimensions      [0 2 -3 0 0 0 0];

internalField   nonuniform List<scalar> 
12940
(
31.2085
1.01577
0.217556
0.147412
0.134292
0.131014
0.129971
0.12951
119.606
6.80767
0.70136
0.226565
0.155963
0.139552
0.134661
0.13287
235.14
20.3548
2.29225
0.456603
0.208657
0.157114
0.1424
0.137307
368.326
44.629
6.27718
1.10007
0.338377
0.194272
0.156439
0.143944
501.845
80.518
13.8509
2.6408
0.654282
0.274602
0.183249
0.154993
607.908
124.899
25.5366
5.54982
1.3435
0.44558
0.235152
0.174417
658.139
170.484
40.7519
9.98298
2.59343
0.782032
0.333721
0.208896
642.553
209.309
57.9185
15.7797
4.48194
1.36501
0.511266
0.269063
576.751
236.567
75.425
22.6613
6.98263
2.24868
0.80676
0.370581
489.046
251.016
92.2886
30.4234
10.06
3.45403
1.25725
0.534193
403.066
253.334
107.928
39.0011
13.7383
4.99478
1.89234
0.784156
330.253
245.187
121.604
48.3769
18.1077
6.90915
2.73775
1.14592
272.317
229.167
132.203
58.3992
23.288
9.27537
3.82657
1.64539
226.703
208.436
138.546
68.6112
29.3649
12.2063
5.21178
2.31173
190.294
185.919
139.973
78.1977
36.3018
15.8251
6.97308
3.18361
160.712
163.697
136.683
86.1306
43.8481
20.2238
9.21287
4.31629
136.383
142.952
129.612
91.4828
51.4918
25.4038
12.0386
5.78543
116.326
124.249
120.035
93.7454
58.5164
31.2141
15.5308
7.68314
99.9737
107.869
109.207
92.9667
64.1803
37.3174
19.7011
10.1039
87.0559
94.03
98.2207
89.6808
67.9502
43.2301
24.453
13.1219
77.48
82.9853
88.0135
84.734
69.6752
48.4524
29.5757
16.7674
71.1476
74.9724
79.424
79.133
69.6319
52.6483
34.8022
21.0227
67.752
70.0242
73.1367
73.9424
68.4589
55.7903
39.9392
25.8707
66.7152
67.8045
69.4784
70.144
67.0405
58.1838
45.0005
31.4196
67.3308
67.6744
68.262
68.3524
66.3349
60.3734
50.1788
37.9737
68.9563
68.9297
68.9212
68.5863
67.0353
63.0099
55.659
45.6959
71.1061
70.9815
70.8021
70.3968
69.2503
66.5699
61.5731
54.1925
73.4492
73.4011
73.3472
73.1883
72.5959
71.052
67.9564
62.9711
75.7693
75.894
76.1376
76.4254
76.5253
76.0734
74.6127
71.7528
77.9272
78.2607
78.8719
79.6914
80.5422
81.1537
81.172
80.2368
79.8347
80.368
81.3397
82.6836
84.2622
85.8719
87.2385
88.0611
81.4383
82.1317
83.4032
85.1971
87.4144
89.9098
92.4786
94.8897
82.7108
83.5077
84.9867
87.1138
89.8331
93.0581
96.6514
100.458
83.646
84.4863
86.07
88.3937
91.4494
95.2118
99.6141
104.585
84.2559
85.0869
86.6798
89.0638
92.2783
96.3592
101.314
107.16
84.5691
85.3518
86.8762
89.198
92.3957
96.5598
101.771
108.134
84.6293
85.338
86.7356
88.892
91.9088
95.9146
101.052
107.5
84.4959
85.1122
86.3377
88.2419
90.9299
94.5438
99.264
105.318
84.2462
84.7533
85.7682
87.3472
89.5771
92.5863
96.5629
101.777
83.9794
84.3632
85.1378
86.3368
88.0091
90.2322
93.1566
97.1643
83.8352
84.1096
84.6709
85.5306
86.6889
88.1197
89.7211
91.1444
83.8344
84.0238
84.4217
85.0289
85.8247
86.7515
87.6812
88.3554
84.0156
84.1356
84.4027
84.8158
85.3507
85.9521
86.5193
86.8956
84.4253
84.4931
84.6636
84.9385
85.2985
85.7002
86.0715
86.3127
85.0962
85.1275
85.2315
85.4141
85.663
85.9468
86.2127
86.3894
86.048
86.0559
86.1176
86.2432
86.4271
86.6469
86.8612
87.0105
87.2901
87.2848
87.3228
87.418
87.5709
87.7657
87.9668
88.1154
88.824
88.8128
88.8405
88.9251
89.0736
89.277
89.5021
89.68
90.6456
90.6328
90.6579
90.7448
90.9101
91.1558
91.4551
91.7191
92.7481
92.734
92.7574
92.8499
93.0425
93.3615
93.8137
94.3144
95.4194
95.4
95.4127
95.4974
95.7034
96.0987
96.8053
98.1082
98.7908
98.7536
98.7274
98.7527
98.8748
99.144
99.6168
100.343
102.57
102.502
102.411
102.332
102.301
102.347
102.489
102.725
106.769
106.662
106.486
106.276
106.059
105.854
105.67
105.505
111.404
111.249
110.977
110.622
110.209
109.752
109.257
108.731
116.486
116.278
115.904
115.403
114.796
114.094
113.3
112.423
122.011
121.749
121.277
120.64
119.858
118.93
117.846
116.605
127.957
127.645
127.09
126.346
125.43
124.32
122.971
121.336
134.272
133.92
133.311
132.516
131.547
130.358
128.831
126.781
140.866
140.492
139.873
139.106
138.219
137.16
135.745
133.483
147.619
147.242
146.654
145.994
145.337
144.722
144.175
143.772
154.402
154.037
153.5
152.963
152.533
152.268
152.186
152.235
161.108
160.762
160.277
159.846
159.581
159.531
159.666
159.849
167.657
167.331
166.891
166.535
166.377
166.447
166.683
166.914
173.99
173.683
173.275
172.971
172.878
173.014
173.299
173.55
180.066
179.774
179.39
179.118
179.064
179.236
179.547
179.807
185.854
185.574
185.206
184.955
184.923
185.116
185.439
185.704
191.332
191.061
190.705
190.467
190.448
190.651
190.982
191.247
196.482
196.218
195.87
195.64
195.629
195.838
196.172
196.436
201.29
201.032
200.69
200.466
200.459
200.671
201.006
201.268
205.746
205.493
205.154
204.934
204.93
205.144
205.477
205.738
209.839
209.59
209.255
209.038
209.035
209.249
209.582
209.84
213.564
213.318
212.986
212.77
212.768
212.982
213.313
213.569
216.912
216.669
216.339
216.125
216.124
216.337
216.667
216.92
219.879
219.639
219.311
219.097
219.097
219.309
219.638
219.889
222.461
222.223
221.896
221.684
221.684
221.895
222.222
222.472
224.654
224.418
224.092
223.881
223.881
224.092
224.417
224.665
226.456
226.221
225.897
225.686
225.686
225.896
226.22
226.467
227.864
227.63
227.307
227.097
227.097
227.307
227.63
227.875
228.878
228.645
228.323
228.114
228.114
228.323
228.645
228.889
229.498
229.266
228.945
228.736
228.735
228.944
229.265
229.509
229.724
229.492
229.172
228.963
228.963
229.171
229.491
229.734
229.558
229.326
229.006
228.798
228.798
229.005
229.325
229.568
229.003
228.77
228.451
228.243
228.243
228.45
228.769
229.012
228.061
227.828
227.509
227.302
227.301
227.508
227.827
228.07
226.739
226.505
226.186
225.979
225.978
226.185
226.504
226.748
225.043
224.808
224.488
224.281
224.28
224.486
224.806
225.051
222.981
222.743
222.423
222.216
222.215
222.422
222.741
222.988
220.562
220.322
220.001
219.794
219.794
220
220.321
220.569
217.801
217.557
217.235
217.028
217.028
217.235
217.557
217.808
214.71
214.464
214.14
213.933
213.933
214.141
214.465
214.719
211.31
211.059
210.734
210.527
210.528
210.738
211.064
211.323
207.621
207.365
207.039
206.832
206.835
207.048
207.378
207.643
203.667
203.406
203.079
202.874
202.881
203.099
203.436
203.707
199.478
199.212
198.887
198.686
198.699
198.925
199.272
199.554
195.083
194.815
194.495
194.304
194.327
194.567
194.93
195.23
190.517
190.251
189.946
189.772
189.815
190.076
190.468
190.796
185.812
185.56
185.284
185.144
185.22
185.518
185.957
186.336
181.002
180.78
180.56
180.482
180.619
180.98
181.496
181.97
176.12
175.951
175.825
175.857
176.108
176.587
177.244
177.9
171.203
171.112
171.124
171.331
171.784
172.495
173.426
174.451
166.297
166.304
166.494
166.942
167.701
168.815
170.323
172.279
161.453
161.569
161.96
162.689
163.818
165.42
167.594
170.492
156.709
156.933
157.531
158.554
160.07
162.173
164.995
168.729
152.092
152.416
153.21
154.516
156.404
158.978
162.386
166.832
147.621
148.032
149.002
150.565
152.792
155.787
159.704
164.747
143.307
143.791
144.913
146.703
149.227
152.591
156.945
162.488
139.164
139.707
140.958
142.943
145.725
149.409
154.14
160.108
135.205
135.796
137.156
139.308
142.315
146.278
151.34
157.681
131.444
132.075
133.528
135.826
139.032
143.246
148.606
155.287
127.897
128.562
130.097
132.527
135.915
140.361
145.999
153.003
124.581
125.276
126.887
129.439
133
137.668
143.577
150.896
121.511
122.235
123.919
126.591
130.321
135.208
141.386
149.023
118.698
119.453
121.211
124.004
127.904
133.014
139.466
147.426
116.151
116.939
118.774
121.692
125.768
131.106
137.84
146.132
113.876
114.699
116.616
119.665
123.924
129.498
136.522
145.155
111.874
112.735
114.739
117.926
122.375
128.194
135.515
144.496
110.144
111.047
113.143
116.474
121.12
127.19
134.812
144.139
108.682
109.629
111.822
115.302
120.151
126.474
134.397
144.064
107.48
108.475
110.768
114.401
119.454
126.031
134.251
144.248
106.53
107.574
109.969
113.756
119.014
125.841
134.349
144.662
105.821
106.914
109.413
113.354
118.813
125.882
134.666
145.276
105.341
106.484
109.085
113.177
118.83
126.131
135.174
146.056
105.077
106.271
108.971
113.207
119.046
126.563
135.844
146.971
105.019
106.26
109.055
113.428
119.438
127.155
136.649
147.989
105.154
106.44
109.323
113.822
119.988
127.881
137.561
149.082
105.47
106.797
109.76
114.371
120.675
128.721
138.557
150.223
105.957
107.32
110.353
115.062
121.483
129.655
139.615
151.389
106.604
107.997
111.089
115.879
122.394
130.664
140.715
152.559
107.403
108.82
111.958
116.81
123.394
131.733
141.841
153.718
108.344
109.78
112.95
117.844
124.473
132.85
142.98
154.851
109.423
110.867
114.056
118.971
125.618
134.003
144.12
155.95
110.631
112.077
115.269
120.184
126.823
135.184
145.255
157.007
111.963
113.403
116.583
121.476
128.08
136.387
146.378
158.017
113.413
114.839
117.991
122.842
129.384
137.607
147.486
158.98
114.979
116.382
119.491
124.277
130.733
138.843
148.579
159.895
116.654
118.026
121.077
125.779
132.123
140.092
149.655
160.763
118.434
119.767
122.746
127.345
133.553
141.355
150.717
161.588
120.316
121.603
124.496
128.972
135.023
142.632
151.767
162.375
122.295
123.529
126.323
130.659
136.531
143.924
152.807
163.129
124.367
125.541
128.224
132.404
138.078
145.234
153.843
163.854
126.527
127.635
130.197
134.205
139.664
146.563
154.878
164.558
128.77
129.807
132.237
136.062
141.289
147.914
155.915
165.246
131.092
132.053
134.343
137.971
142.953
149.288
156.96
165.925
133.486
134.367
136.51
139.932
144.656
150.688
158.015
166.601
135.946
136.744
138.733
141.941
146.397
152.115
159.086
167.278
138.467
139.179
141.01
143.996
148.176
153.569
160.173
167.963
141.042
141.666
143.335
146.094
149.99
155.051
161.281
168.66
143.664
144.199
145.703
148.231
151.839
156.562
162.412
169.372
146.327
146.772
148.108
150.403
153.72
158.102
163.566
170.104
149.022
149.377
150.546
152.605
155.63
159.668
164.744
170.858
151.743
152.008
153.009
154.834
157.565
161.259
165.948
171.635
154.482
154.658
155.493
157.085
159.523
162.874
167.175
172.438
157.232
157.32
157.99
159.351
161.5
164.51
168.426
173.266
159.984
159.986
160.494
161.627
163.49
166.164
169.699
174.12
162.731
162.649
162.999
163.908
165.49
167.832
170.991
174.999
165.466
165.302
165.497
166.187
167.494
169.51
172.3
175.901
168.182
167.938
167.983
168.46
169.498
171.196
173.624
176.824
170.87
170.55
170.449
170.719
171.495
172.883
174.958
177.767
173.525
173.13
172.89
172.96
173.482
174.568
176.299
178.727
176.139
175.673
175.298
175.175
175.452
176.246
177.643
179.7
178.705
178.173
177.668
177.359
177.401
177.912
178.985
180.683
181.219
180.622
179.994
179.508
179.322
179.562
180.323
181.672
183.674
183.016
182.27
181.614
181.211
181.19
181.651
182.664
186.064
185.349
184.491
183.674
183.063
182.793
182.965
183.655
188.385
187.616
186.652
185.682
184.874
184.364
184.26
184.64
190.633
189.812
188.75
187.634
186.638
185.901
185.533
185.616
192.802
191.934
190.778
189.526
188.352
187.399
186.78
186.578
194.891
193.978
192.735
191.353
190.012
188.854
187.996
187.523
196.895
195.941
194.615
193.113
191.614
190.263
189.177
188.447
198.812
197.82
196.418
194.803
193.155
191.622
190.322
189.347
200.64
199.613
198.14
196.419
194.632
192.927
191.425
190.219
202.377
201.318
199.779
197.961
196.043
194.178
192.485
191.06
204.022
202.933
201.335
199.425
197.386
195.37
193.498
191.868
205.574
204.459
202.805
200.811
198.66
196.503
194.463
192.638
207.034
205.894
204.189
202.118
199.862
197.574
195.377
193.371
208.401
207.239
205.487
203.345
200.992
198.583
196.239
194.063
209.676
208.494
206.7
204.492
202.051
199.528
197.049
194.712
210.86
209.66
207.828
205.56
203.037
200.41
197.804
195.319
211.955
210.739
208.872
206.55
203.952
201.228
198.504
195.881
212.962
211.732
209.834
207.462
204.795
201.983
199.15
196.397
213.884
212.641
210.716
208.299
205.569
202.675
199.741
196.869
214.723
213.469
211.519
209.061
206.274
203.305
200.279
197.295
215.482
214.219
212.246
209.752
206.913
203.875
200.763
197.677
216.165
214.893
212.901
210.374
207.487
204.387
201.196
198.014
216.774
215.496
213.485
210.929
207.999
204.842
201.578
198.309
217.315
216.03
214.004
211.421
208.453
205.243
201.913
198.562
217.79
216.499
214.46
211.854
208.851
205.593
202.202
198.776
218.204
216.91
214.859
212.232
209.196
205.895
202.448
198.953
218.563
217.265
215.204
212.558
209.494
206.153
202.654
199.095
218.871
217.57
215.5
212.837
209.747
206.371
202.824
199.207
219.135
217.831
215.753
213.076
209.963
206.553
202.963
199.291
219.359
218.053
215.969
213.279
210.145
206.706
203.076
199.353
219.552
218.245
216.155
213.454
210.301
206.834
203.168
199.398
219.721
218.413
216.319
213.608
210.438
206.947
203.247
199.434
219.873
218.565
216.468
213.749
210.565
207.051
203.32
199.467
220.02
218.712
216.613
213.887
210.69
207.156
203.398
199.51
220.169
218.863
216.764
214.033
210.826
207.275
203.492
199.573
220.334
219.031
216.933
214.199
210.983
207.419
203.617
199.673
220.529
219.231
217.137
214.401
211.178
207.604
203.789
199.828
174.687
178.327
186.991
202.346
226.183
260.325
306.402
365.567
438.274
524.186
622.152
730.024
844.694
961.671
1074.1
174.4
179.785
190.152
206.779
231.04
264.312
307.83
362.501
428.75
506.435
594.834
692.406
797.327
907.298
1019.42
173.959
180.562
191.957
209.205
233.452
265.854
307.462
359.075
421.096
493.445
575.497
665.88
763.272
866.156
973.208
173.208
180.636
192.661
210.231
234.37
266.117
306.418
355.99
415.188
483.923
561.436
646.561
738.12
834.856
935.962
172.086
180.092
192.55
210.349
234.444
265.8
305.28
353.513
410.776
476.904
550.989
632.051
718.958
810.537
906.087
170.615
179.068
191.89
209.935
234.113
265.323
304.346
351.717
407.623
471.665
543.041
620.798
703.846
791.052
881.707
168.866
177.719
190.911
209.271
233.668
264.936
303.764
350.589
405.421
467.742
536.837
611.768
691.48
774.88
861.238
166.936
176.197
189.805
208.567
233.307
264.786
303.595
350.053
403.93
464.768
531.848
604.253
680.972
760.96
843.484
164.934
174.637
188.724
207.972
233.156
264.957
303.86
349.952
402.984
462.472
527.693
597.762
671.716
748.563
827.589
162.96
173.156
187.785
207.593
233.296
265.483
304.467
350.21
402.442
460.644
524.096
591.948
663.287
737.182
812.954
161.105
171.847
187.076
207.499
233.764
266.333
305.351
350.742
402.18
459.119
520.851
586.561
655.391
726.471
799.165
159.445
170.781
186.654
207.727
234.558
267.439
306.459
351.468
402.091
457.766
517.801
581.42
647.817
716.187
785.938
158.038
170.006
186.555
208.287
235.615
268.763
307.734
352.312
402.084
456.481
514.829
576.391
640.417
706.161
773.081
156.925
169.552
186.787
209.126
236.903
270.257
309.116
353.203
402.08
455.176
511.841
571.377
633.085
696.279
760.462
156.129
169.428
187.316
210.214
238.38
271.871
310.543
354.076
402.012
453.785
508.769
566.305
625.745
686.458
747.992
155.658
169.61
188.11
211.515
240
273.548
311.958
354.873
401.823
452.253
505.559
561.124
618.344
676.645
735.614
155.496
170.07
189.138
212.986
241.713
275.237
313.308
355.544
401.468
450.536
502.173
555.796
610.847
666.803
723.289
155.62
170.781
190.362
214.58
243.469
276.887
314.546
356.046
400.908
448.604
498.582
550.296
603.231
656.91
710.994
156.004
171.707
191.738
216.252
245.219
278.452
315.631
356.345
400.116
446.431
494.766
544.608
595.481
646.952
698.716
156.62
172.81
193.223
217.954
246.919
279.891
316.529
356.412
399.069
444.002
490.714
538.723
587.59
636.924
686.45
157.432
174.051
194.776
219.644
248.53
281.172
317.213
356.227
397.753
441.309
486.421
532.639
579.558
626.825
674.194
158.404
175.391
196.353
221.284
250.016
282.265
317.66
355.776
396.159
438.347
481.886
526.357
571.387
616.659
661.951
159.5
176.79
197.919
222.838
251.349
283.148
317.856
355.05
394.285
435.116
477.114
519.884
563.085
606.432
649.728
160.686
178.213
199.439
224.278
252.506
283.805
317.79
354.044
392.131
431.622
472.111
513.228
554.66
596.152
637.531
161.929
179.629
200.885
225.58
253.469
284.224
317.459
352.759
389.701
427.873
466.887
506.4
546.122
585.83
625.368
163.197
181.009
202.232
226.724
254.226
284.399
316.86
351.198
387.004
423.879
461.455
499.412
537.486
575.476
613.25
164.467
182.329
203.461
227.698
254.768
284.328
315.996
349.37
384.049
419.651
455.828
492.279
528.762
565.102
601.185
165.713
183.571
204.558
228.491
255.09
284.011
314.873
347.282
380.849
415.205
450.021
485.014
519.966
554.721
589.183
166.919
184.72
205.511
229.098
255.193
283.453
313.499
344.946
377.416
410.555
444.048
477.633
511.11
544.344
577.254
168.069
185.763
206.314
229.516
255.079
282.659
311.884
342.376
373.766
405.716
437.926
470.151
502.209
533.984
565.409
169.151
186.693
206.963
229.747
254.753
281.639
310.04
339.584
369.915
400.705
431.671
462.584
493.277
523.652
553.655
170.158
187.507
207.458
229.794
254.222
280.404
307.979
336.586
365.877
395.539
425.299
454.946
484.327
513.36
542.003
171.085
188.202
207.802
229.663
253.495
278.964
305.716
333.397
361.67
390.232
418.826
447.252
475.373
503.12
530.462
171.931
188.779
207.998
229.362
252.583
277.333
303.264
330.032
357.31
384.803
412.268
439.518
466.428
492.941
519.039
172.694
189.243
208.053
228.899
251.496
275.524
300.641
326.509
352.812
379.267
405.64
431.756
457.503
482.835
507.742
173.378
189.598
207.974
228.284
250.249
273.551
297.859
322.843
348.194
373.64
398.957
423.981
448.611
472.811
496.579
173.986
189.85
207.772
227.53
248.853
271.43
294.936
319.049
343.471
367.936
392.233
416.206
439.763
462.878
485.557
174.524
190.008
207.455
226.648
247.322
269.174
291.886
315.144
338.658
362.172
385.482
408.442
430.969
453.045
474.681
174.998
190.08
207.034
225.651
245.67
266.798
288.724
311.143
333.771
356.361
378.717
400.702
422.24
443.319
463.959
175.415
190.074
206.52
224.55
243.911
264.317
285.466
307.061
328.824
350.517
371.951
392.997
413.585
433.709
453.395
175.783
190.001
205.925
223.36
242.059
261.746
282.127
302.912
323.831
344.653
365.196
385.337
405.012
424.222
442.994
176.109
189.87
205.261
222.091
240.127
259.098
278.721
298.711
318.806
338.782
358.464
377.732
396.531
414.863
432.761
176.403
189.692
204.537
220.758
238.128
256.388
275.261
294.47
313.762
332.916
351.764
370.192
388.148
405.638
422.699
176.671
189.475
203.766
219.371
236.076
253.628
271.761
290.204
308.711
327.066
345.107
362.725
379.871
396.554
412.813
176.922
189.229
202.957
217.944
233.983
250.833
268.233
285.925
303.664
321.243
338.503
355.339
371.706
387.614
403.105
177.163
188.964
202.123
216.487
231.861
248.012
264.691
281.643
298.633
315.457
331.961
348.043
363.659
378.824
393.578
177.401
188.687
201.271
215.011
229.721
245.18
261.145
277.372
293.628
309.718
325.489
340.842
355.737
370.187
384.235
177.643
188.406
200.412
213.526
227.574
242.346
257.607
273.12
288.66
304.034
319.094
333.744
347.943
361.706
375.077
177.893
188.13
199.553
212.042
225.431
239.521
254.087
268.899
283.737
298.415
312.785
326.754
340.283
353.386
366.107
178.158
187.863
198.703
210.567
223.301
236.715
250.595
264.717
278.869
292.866
306.567
319.878
332.76
345.229
357.325
178.441
187.612
197.869
209.109
221.192
233.937
247.139
260.583
274.063
287.397
300.447
313.12
325.379
337.236
348.733
178.746
187.383
197.056
207.676
219.112
231.195
243.729
256.506
269.327
282.014
294.431
306.487
318.143
329.411
340.331
179.076
187.178
196.271
206.274
217.069
228.496
240.371
252.492
264.667
276.722
288.523
299.98
311.054
321.754
332.12
179.433
187.002
195.517
204.909
215.068
225.848
237.072
248.549
260.09
271.528
282.729
293.605
304.115
314.267
324.099
179.818
186.857
194.799
203.584
213.116
223.257
233.84
244.682
255.602
266.436
277.053
287.364
297.329
306.952
316.27
180.232
186.745
194.119
202.306
211.217
220.726
230.678
240.897
251.208
261.452
271.498
281.261
290.697
299.809
308.63
180.675
186.668
193.481
201.075
209.375
218.263
227.593
237.199
246.913
256.578
266.069
275.297
284.22
292.838
301.181
181.147
186.625
192.885
199.896
207.593
215.869
224.588
233.592
242.719
251.819
260.766
269.475
277.901
286.04
293.921
181.645
186.616
192.332
198.77
205.874
213.549
221.667
230.079
238.631
247.177
255.594
263.797
271.739
279.414
286.849
182.168
186.642
191.823
197.698
204.22
211.304
218.832
226.664
234.652
242.656
250.555
258.264
265.735
272.961
279.964
182.715
186.7
191.357
196.68
202.632
209.137
216.086
223.349
230.784
238.256
245.649
252.876
259.89
266.68
273.265
183.282
186.789
190.934
195.717
201.111
207.048
213.431
220.136
227.029
233.981
240.878
247.635
254.203
260.569
266.749
183.866
186.907
190.551
194.808
199.656
205.039
210.866
217.025
223.388
229.831
236.243
242.541
248.675
254.629
260.416
184.465
187.052
190.208
193.952
198.268
203.109
208.394
214.018
219.862
225.806
231.744
237.594
243.305
248.858
254.264
185.075
187.22
189.903
193.146
196.945
201.258
206.013
211.115
216.451
221.908
227.382
232.794
238.091
243.254
248.29
185.693
187.409
189.632
192.39
195.685
199.484
203.724
208.316
213.155
218.135
223.156
228.14
233.034
237.817
242.492
186.314
187.616
189.393
191.681
194.488
197.787
201.524
205.619
209.974
214.488
219.066
223.631
228.132
232.544
236.869
186.936
187.837
189.184
191.017
193.35
196.165
199.414
203.024
206.907
210.966
215.11
219.267
223.382
227.433
231.417
187.554
188.069
189
190.394
192.27
194.615
197.39
200.53
203.952
207.566
211.288
215.045
218.785
222.482
226.134
188.165
188.308
188.84
189.811
191.244
193.136
195.451
198.134
201.107
204.289
207.598
210.964
214.337
217.69
221.017
188.766
188.552
188.699
189.263
190.271
191.724
193.595
195.834
198.372
201.132
204.037
207.022
210.036
213.053
216.064
189.353
188.797
188.576
188.748
189.346
190.376
191.818
193.628
195.743
198.092
200.605
203.217
205.881
208.569
211.272
189.922
189.039
188.465
188.262
188.467
189.091
190.119
191.513
193.218
195.168
197.298
199.547
201.869
204.235
206.637
190.472
189.276
188.365
187.803
187.631
187.864
188.493
189.486
190.793
192.357
194.114
196.009
197.996
200.049
202.157
190.999
189.506
188.273
187.368
186.834
186.692
186.937
187.543
188.467
189.655
191.05
192.6
194.261
196.008
197.827
191.5
189.724
188.185
186.952
186.074
185.573
185.449
185.683
186.236
187.061
188.104
189.317
190.66
192.108
193.646
191.974
189.929
188.099
186.554
185.346
184.502
184.025
183.901
184.097
184.569
185.271
186.157
187.191
188.346
189.61
192.418
190.119
188.012
186.171
184.649
183.477
182.662
182.194
182.045
182.178
182.549
183.117
183.849
184.718
185.715
192.831
190.291
187.921
185.799
183.979
182.494
181.356
180.558
180.078
179.883
179.934
180.194
180.631
181.223
181.957
193.211
190.444
187.826
185.437
183.333
181.55
180.104
178.991
178.193
177.681
177.423
177.384
177.534
177.855
178.333
193.558
190.576
187.723
185.081
182.708
180.642
178.902
177.487
176.384
175.569
175.012
174.682
174.555
174.611
174.84
193.87
190.686
187.612
184.731
182.103
179.768
177.748
176.045
174.65
173.542
172.697
172.087
171.689
171.488
171.473
194.148
190.773
187.49
184.383
181.514
178.924
176.637
174.66
172.986
171.597
170.474
169.593
168.934
168.482
168.229
194.39
190.837
187.358
184.037
180.94
178.108
175.569
173.33
171.388
169.731
168.34
167.197
166.284
165.588
165.104
194.598
190.877
187.213
183.692
180.378
177.318
174.538
172.05
169.854
167.939
166.292
164.895
163.736
162.804
162.094
194.772
190.893
187.055
183.345
179.828
176.551
173.544
170.819
168.379
166.218
164.324
162.684
161.287
160.125
159.196
194.913
190.886
186.885
182.996
179.288
175.806
172.583
169.633
166.962
164.565
162.434
160.56
158.933
157.548
156.405
195.022
190.856
186.702
182.646
178.756
175.081
171.653
168.49
165.598
162.976
160.618
158.518
156.669
155.069
153.717
195.101
190.806
186.507
182.293
178.232
174.375
170.754
167.387
164.285
161.448
158.873
156.556
154.493
152.683
151.13
195.153
190.736
186.301
181.938
177.717
173.687
169.882
166.323
163.021
159.978
157.195
154.67
152.4
150.388
148.638
195.179
190.648
186.086
181.584
177.21
173.017
169.039
165.297
161.804
158.565
155.583
152.857
150.389
148.181
146.24
195.185
190.546
185.864
181.23
176.713
172.366
168.223
164.307
160.633
157.207
154.034
151.116
148.456
146.059
143.933
195.173
190.434
185.639
180.88
176.229
171.735
167.437
163.356
159.508
155.904
152.548
149.445
146.6
144.02
141.714
195.15
190.316
185.415
180.539
175.76
171.129
166.683
162.445
158.434
154.659
151.128
147.847
144.823
142.065
139.584
195.121
190.199
185.198
180.213
175.314
170.554
165.968
161.582
157.414
153.477
149.778
146.326
143.129
140.199
137.548
195.096
190.091
184.998
179.911
174.901
170.019
165.302
160.777
156.462
152.37
148.51
144.894
141.53
138.433
135.616
195.085
190.004
184.827
179.646
174.534
169.541
164.704
160.049
155.597
151.359
147.348
143.575
140.052
136.793
133.815
195.1
189.953
184.701
179.439
174.236
169.145
164.201
159.431
154.854
150.485
146.334
142.416
138.742
135.331
132.2
195.161
189.958
184.645
179.316
174.041
168.87
163.839
158.974
154.294
149.813
145.544
141.5
137.696
134.15
130.881
195.288
190.046
184.691
179.317
173.995
168.773
163.686
158.76
154.013
149.459
145.111
140.982
137.087
133.445
130.078
1187.5
1277.21
1372.92
1474.08
1576.24
1673.43
1759.16
1827.16
1872.11
1890.39
1880.54
1843.58
1782.99
1704.46
1615.34
1523.94
1438.64
1366.96
1314.93
1286.65
1284.28
1308.19
1357.26
1429.08
1520.22
1626.5
1743.23
1865.52
1988.59
2108.01
2219.83
2320.78
2408.29
2480.57
2536.6
2576.16
2599.75
2608.63
2604.67
2590.32
1124.83
1220.97
1320.59
1422.15
1521.65
1614.03
1693.92
1756.2
1796.65
1812.48
1802.82
1768.89
1714.06
1643.6
1564.23
1483.48
1408.89
1347.22
1303.9
1282.6
1285.27
1312.21
1362.32
1433.3
1521.88
1624.07
1735.41
1851.29
1967.2
2078.96
2182.89
2275.98
2355.87
2420.99
2470.52
2504.4
2523.32
2528.64
2522.39
2507.12
1075.5
1174.37
1274.86
1374.96
1470.92
1558.37
1632.78
1689.95
1726.52
1740.37
1731.08
1700.04
1650.5
1587.38
1516.83
1445.69
1380.75
1328.1
1292.58
1277.5
1284.59
1314.07
1364.85
1434.73
1520.59
1618.62
1724.6
1834.17
1943.09
2047.43
2143.78
2229.34
2301.99
2360.35
2403.8
2432.42
2447.04
2449.16
2440.87
2424.84
1035.77
1135.29
1234.81
1332.22
1424.04
1506.44
1575.6
1628.04
1661.09
1673.21
1664.32
1635.95
1591.25
1534.81
1472.28
1409.86
1353.66
1309.15
1280.66
1271.14
1282.1
1313.69
1364.84
1433.4
1516.42
1610.25
1710.92
1814.3
1916.4
2013.56
2102.61
2180.97
2246.75
2298.74
2336.49
2360.24
2370.93
2370.15
2360.09
2343.43
1003.14
1101.77
1199.07
1292.98
1380.29
1457.65
1521.81
1569.89
1599.77
1610.39
1601.95
1576.08
1535.84
1485.5
1430.27
1375.75
1327.46
1290.29
1268.1
1263.52
1277.85
1311.16
1362.37
1429.44
1509.5
1599.13
1694.54
1791.87
1887.35
1977.59
2059.64
2131.14
2190.41
2236.41
2268.85
2288.1
2295.2
2291.83
2280.22
2263.07
975.679
1072.3
1166.55
1256.45
1339.09
1411.51
1470.95
1515.02
1542.08
1551.42
1543.49
1519.99
1483.87
1439.12
1390.52
1343.17
1302.02
1271.44
1254.88
1254.66
1271.88
1306.54
1357.55
1422.94
1499.98
1585.41
1675.66
1767.07
1856.16
1939.74
2015.1
2080.09
2133.22
2173.61
2201.12
2216.23
2220.08
2214.4
2201.45
2183.93
951.925
1045.75
1136.41
1222.04
1299.98
1367.64
1422.66
1463.07
1487.62
1495.9
1488.54
1467.29
1434.99
1395.37
1352.81
1311.93
1277.21
1252.54
1240.99
1244.58
1264.25
1299.92
1350.49
1414.06
1488.02
1569.27
1654.45
1740.13
1823.05
1900.25
1969.24
2028.08
2075.42
2110.58
2133.52
2144.84
2145.75
2138.02
2123.92
2106.16
930.778
1021.3
1108.06
1189.29
1262.61
1325.74
1376.64
1413.74
1436.06
1443.47
1436.73
1417.63
1388.87
1353.96
1316.89
1281.88
1252.93
1233.54
1226.41
1233.31
1255.03
1291.39
1341.31
1402.93
1473.77
1550.89
1631.12
1711.26
1788.25
1859.36
1922.3
1975.32
2017.24
2047.53
2066.26
2074.12
2072.38
2062.84
2047.78
2029.88
911.449
998.35
1081.04
1157.89
1226.74
1285.57
1332.68
1366.76
1387.13
1393.83
1387.77
1370.71
1345.25
1314.64
1282.57
1252.85
1229.09
1214.39
1211.15
1220.91
1244.3
1281.06
1330.13
1389.7
1457.4
1530.46
1605.88
1680.66
1751.96
1817.27
1874.49
1922.03
1958.9
1984.67
1999.52
2004.24
2000.12
1989
1973.15
1955.19
893.381
976.485
1055.07
1127.61
1192.16
1246.97
1290.58
1321.94
1340.59
1346.75
1341.39
1326.28
1303.87
1277.21
1249.67
1224.72
1205.59
1195.05
1195.21
1207.41
1232.12
1269.05
1317.1
1374.54
1439.1
1508.16
1578.91
1648.54
1714.41
1774.21
1826.02
1868.43
1900.58
1922.17
1933.47
1935.33
1929.1
1916.62
1900.12
1882.2
876.189
955.425
1029.93
1098.29
1158.76
1209.8
1250.19
1279.1
1296.25
1301.99
1297.36
1284.09
1264.51
1241.46
1218.04
1197.37
1182.37
1175.5
1178.63
1192.87
1218.61
1255.46
1302.34
1357.59
1419.03
1484.18
1550.41
1615.09
1675.79
1730.37
1777.09
1814.69
1842.46
1860.19
1868.26
1867.55
1859.45
1845.78
1828.78
1810.97
859.611
934.978
1005.48
1069.81
1126.42
1173.96
1211.39
1238.09
1253.94
1259.38
1255.48
1243.94
1226.98
1207.23
1187.52
1170.7
1159.37
1155.74
1161.41
1177.36
1203.83
1240.4
1286.01
1339.01
1397.35
1458.7
1520.57
1580.53
1636.31
1685.95
1727.88
1761
1784.7
1798.89
1804.01
1801
1791.25
1776.59
1759.2
1741.56
843.469
915.019
981.632
1042.12
1095.08
1139.36
1174.09
1198.8
1213.5
1218.73
1215.57
1205.66
1191.12
1174.37
1158.01
1144.63
1136.56
1135.74
1143.6
1160.93
1187.9
1224.02
1268.23
1318.96
1374.25
1431.9
1489.58
1545.02
1596.13
1641.12
1678.58
1707.52
1727.46
1738.41
1740.86
1735.78
1724.59
1709.1
1691.44
1674.03
827.645
895.463
958.328
1015.15
1064.69
1105.94
1138.19
1161.11
1174.81
1179.9
1177.46
1169.09
1156.76
1142.74
1129.4
1119.09
1113.89
1115.53
1125.23
1143.67
1170.9
1206.41
1249.14
1297.59
1349.89
1403.95
1457.6
1508.75
1555.44
1596.06
1629.33
1654.39
1670.87
1678.85
1678.89
1671.98
1659.54
1643.37
1625.54
1608.41
812.06
876.258
935.526
988.873
1035.2
1073.64
1103.62
1124.93
1137.76
1142.76
1141.02
1134.07
1123.78
1112.23
1101.6
1094.02
1091.34
1095.1
1106.35
1125.63
1152.93
1187.7
1228.89
1275.06
1324.42