/*--------------------------------*- C++ -*----------------------------------*\
| =========                 |                                                 |
| \\      /  F ield         | OpenFOAM: The Open Source CFD Toolbox           |
|  \\    /   O peration     | Version:  2206                                  |
|   \\  /    A nd           | Website:  www.openfoam.com                      |
|    \\/     M anipulation  |                                                 |
\*---------------------------------------------------------------------------*/
FoamFile
{
    version     2.0;
    format      ascii;
    arch        "LSB;label=32;scalar=64";
    class       volScalarField;
    location    "300";
    object      k;
}
// * * * * * * * * * * * * * * * * * * * * * * * * * * * * * * * * * * * * * //

dimensions      [0 2 -2 0 0 0 0];

internalField   nonuniform List<scalar> 
12940
(
1.16199
0.424869
0.386757
0.385485
0.385
0.384685
0.384296
0.383869
2.7958
0.533849
0.400972
0.394235
0.392419
0.391616
0.390787
0.389912
4.86002
0.802245
0.428445
0.400964
0.398435
0.397912
0.397028
0.395857
7.37577
1.34452
0.503909
0.410667
0.402897
0.402748
0.402271
0.401157
10.2204
2.24366
0.681606
0.43651
0.407555
0.40593
0.405991
0.405297
13.0376
3.50505
1.01599
0.500938
0.417372
0.408197
0.408086
0.407959
15.2934
5.02523
1.53272
0.629365
0.441392
0.411707
0.40903
0.409174
16.5648
6.62652
2.21904
0.840393
0.491099
0.420272
0.409918
0.409335
16.8108
8.13558
3.04292
1.14354
0.578039
0.439259
0.41251
0.409101
16.3381
9.42698
3.97334
1.54487
0.713299
0.475404
0.419436
0.409389
15.5383
10.4212
4.97877
2.05176
0.908699
0.536871
0.434496
0.41156
14.6737
11.0804
6.01149
2.67064
1.17788
0.633616
0.462999
0.417748
13.8458
11.4143
6.99954
3.39834
1.53568
0.777763
0.512107
0.431275
13.0681
11.4734
7.86013
4.2115
1.99476
0.983524
0.591159
0.457053
12.3313
11.3257
8.52703
5.06142
2.55942
1.26604
0.711811
0.501969
11.6295
11.035
8.97103
5.88088
3.21814
1.63847
0.887694
0.57516
10.967
10.6544
9.20141
6.60235
3.93892
2.10716
1.13315
0.688043
10.3611
10.2316
9.25504
7.17854
4.67261
2.66606
1.46063
0.853838
9.84899
9.81998
9.18735
7.59587
5.36617
3.29385
1.87701
1.08636
9.49339
9.49102
9.07259
7.8794
5.9823
3.95823
2.3805
1.39818
9.38321
9.34299
9.01193
8.09595
6.51949
4.63034
2.96195
1.79923
9.61576
9.49311
9.1379
8.35925
7.02978
5.30907
3.61602
2.29957
10.2579
10.0413
9.59396
8.82639
7.63148
6.05142
4.36786
2.92379
11.3113
11.0224
10.4789
9.65767
8.49771
6.99474
5.31401
3.74888
12.7139
12.3913
11.7972
10.9387
9.78626
8.3255
6.64075
4.95636
14.3707
14.0529
13.4693
12.6372
11.5405
10.1612
8.53
6.79238
16.1833
15.9003
15.3792
14.6398
13.6714
12.454
10.9867
9.34206
18.0663
17.8376
17.4137
16.813
16.0277
15.0377
13.827
12.4168
19.9522
19.7873
19.4778
19.0382
18.4617
17.7294
16.8194
15.7248
21.7916
21.6915
21.4985
21.2222
20.8556
20.3816
19.7768
19.0223
23.5514
23.5102
23.4239
23.2975
23.1242
22.889
22.5697
22.1442
25.213
25.2197
25.2215
25.2207
25.2119
25.1832
25.1153
24.9878
26.7702
26.8108
26.8768
26.9705
27.0895
27.2264
27.3667
27.4948
28.2271
28.2868
28.3917
28.5459
28.7518
29.008
29.3064
29.6385
29.5955
29.6615
29.7819
29.964
30.2154
30.5415
30.9419
31.4174
30.8932
30.9559
31.0734
31.2556
31.5141
31.8604
32.3021
32.8499
32.1414
32.1948
32.2971
32.4587
32.6924
33.0127
33.4328
33.9713
33.3616
33.4031
33.4837
33.6119
33.7984
34.0552
34.3951
34.8362
34.5739
34.6025
34.6593
34.7498
34.8793
35.052
35.2698
35.5338
35.7955
35.8114
35.8456
35.9015
35.9795
36.0751
36.1723
36.2286
36.8923
36.8979
36.9155
36.9484
36.9971
37.058
37.1213
37.1684
37.8613
37.8594
37.865
37.8825
37.9132
37.9551
38.0014
38.0376
38.8566
38.8483
38.8441
38.8493
38.8665
38.8949
38.9293
38.9573
39.8842
39.8707
39.8581
39.853
39.859
39.8766
39.9016
39.9238
40.9496
40.9316
40.9116
40.897
40.8927
40.9003
40.9171
40.9347
42.0579
42.0358
42.0086
41.9845
41.9693
41.9664
41.9749
41.9883
43.2141
43.1881
43.1532
43.1184
43.0907
43.0753
43.0738
43.0822
44.4232
44.3929
44.3493
44.3017
44.2586
44.227
44.2118
44.213
45.6904
45.6551
45.6011
45.5379
45.475
45.4214
45.3857
45.3745
47.0213
46.9801
46.9133
46.8308
46.7425
46.6586
46.5908
46.5544
48.5962
48.5471
48.4633
48.3544
48.23
48.0993
47.9723
47.8622
50.4606
50.4007
50.2939
50.1492
49.9745
49.7751
49.5529
49.3019
52.4516
52.3796
52.2469
52.0621
51.8318
51.5594
51.2448
50.8836
54.5794
54.4939
54.3332
54.1059
53.8178
53.4721
53.0696
52.6105
56.8513
56.7513
56.5614
56.2905
55.9441
55.525
55.0349
54.4772
59.2712
59.1563
58.9374
58.6241
58.2209
57.729
57.1489
56.4844
61.8379
61.7088
61.4639
61.1135
60.66
60.0999
59.4275
58.6415
64.5423
64.402
64.1386
63.764
63.2769
62.6642
61.9042
60.9758
67.3647
67.2188
66.9506
66.5754
66.0889
65.4653
64.6513
63.5652
70.2716
70.1279
69.8734
69.5312
69.1021
68.558
67.8164
66.6606
73.2163
73.0824
72.8577
72.5797
72.2694
71.9394
71.6073
71.3332
76.1478
76.0274
75.8373
75.6257
75.4251
75.2586
75.1444
75.0931
79.022
78.9152
78.7559
78.5976
78.4751
78.4073
78.3952
78.4139
81.8053
81.7104
81.5748
81.454
81.3812
81.3684
81.4046
81.4498
84.4742
84.3887
84.27
84.1739
84.131
84.1486
84.2087
84.2653
87.0128
86.9344
86.8274
86.7469
86.7218
86.7561
86.8283
86.8903
89.4108
89.3377
89.2386
89.1679
89.1532
89.1967
89.2752
89.3395
91.6614
91.5922
91.4985
91.434
91.4253
91.4738
91.5554
91.6205
93.76
93.6937
93.6037
93.5432
93.5381
93.5892
93.6722
93.7372
95.7035
95.6395
95.5522
95.4942
95.4912
95.5437
95.627
95.6914
97.4897
97.4276
97.3422
97.286
97.2842
97.3372
97.4203
97.484
99.117
99.0565
98.9726
98.9176
98.9165
98.9696
99.0523
99.1151
100.584
100.525
100.442
100.388
100.388
100.441
100.523
100.585
101.891
101.833
101.751
101.698
101.697
101.75
101.831
101.892
103.036
102.978
102.898
102.845
102.844
102.897
102.978
103.038
104.018
103.962
103.882
103.83
103.829
103.881
103.962
104.021
104.839
104.783
104.704
104.652
104.651
104.703
104.783
104.842
105.496
105.441
105.362
105.311
105.311
105.362
105.441
105.499
105.991
105.936
105.858
105.807
105.807
105.858
105.936
105.994
106.323
106.268
106.19
106.139
106.139
106.19
106.268
106.326
106.491
106.437
106.36
106.309
106.309
106.359
106.437
106.494
106.497
106.443
106.366
106.315
106.315
106.365
106.442
106.499
106.339
106.285
106.208
106.158
106.158
106.208
106.285
106.342
106.019
105.965
105.888
105.838
105.838
105.888
105.964
106.021
105.536
105.482
105.406
105.355
105.355
105.405
105.481
105.538
104.891
104.837
104.76
104.71
104.71
104.76
104.836
104.893
104.084
104.03
103.954
103.904
103.903
103.953
104.029
104.085
103.117
103.062
102.986
102.935
102.935
102.984
103.06
103.117
101.989
101.934
101.857
101.807
101.806
101.855
101.931
101.988
100.703
100.647
100.57
100.519
100.518
100.566
100.642
100.699
99.2593
99.2022
99.1243
99.0729
99.0709
99.1186
99.1938
99.2516
97.6605
97.602
97.5229
97.4703
97.4672
97.5138
97.5883
97.6463
95.9089
95.8485
95.7677
95.7132
95.708
95.7528
95.8262
95.8842
94.0079
93.9451
93.8616
93.8039
93.7953
93.8369
93.9082
93.9658
91.9618
91.8958
91.8083
91.7454
91.7308
91.767
91.8343
91.8909
89.7768
89.7066
89.613
89.5416
89.5169
89.5431
89.6033
89.6573
87.4609
87.3855
87.2832
87.1983
87.1562
87.1645
87.2108
87.259
85.0261
84.9445
84.8303
84.725
84.6539
84.6291
84.6466
84.6806
82.4892
82.4016
82.2729
82.1389
82.0221
81.9368
81.8912
81.8839
79.8743
79.7824
79.6397
79.4719
79.2921
79.1059
78.9205
78.7687
77.2134
77.1218
76.9721
76.7778
76.5362
76.2224
75.7681
74.9936
74.5453
74.4611
74.3195
74.1275
73.8792
73.5548
73.1165
72.5098
71.9069
71.8367
71.7191
71.558
71.3512
71.0921
70.7729
70.3942
69.3263
69.2743
69.1913
69.0799
68.942
68.7809
68.605
68.4347
66.8221
66.7898
66.746
66.6926
66.6342
66.5798
66.5452
66.5569
64.4054
64.3922
64.3877
64.3934
64.4152
64.4648
64.561
64.7317
62.0824
62.0864
62.1189
62.1805
62.2782
62.4245
62.6392
62.9497
59.8564
59.8756
59.9413
60.0543
60.2215
60.4559
60.7773
61.212
57.7297
57.7619
57.8573
58.0164
58.2467
58.5612
58.9792
59.5261
55.704
55.7474
55.8691
56.07
56.3578
56.7456
57.2523
57.9022
53.7809
53.8342
53.9796
54.2188
54.5597
55.0156
55.605
56.3516
51.9625
52.0246
52.1919
52.4666
52.8575
53.3779
54.0461
54.885
50.2508
50.3215
50.5098
50.8186
51.2572
51.8395
52.5835
53.5118
48.6472
48.7264
48.9353
49.2776
49.7632
50.406
51.2242
52.2397
47.1526
47.2404
47.4701
47.8458
48.3781
49.0811
49.9726
51.0741
45.7676
45.8644
46.1153
46.5248
47.1039
47.8668
48.8313
50.0177
44.4922
44.5985
44.871
45.3149
45.9412
46.7642
47.801
49.0712
43.326
43.4421
43.7371
44.2158
44.8897
45.7726
46.8809
48.2328
42.2679
42.3944
42.7122
43.2263
43.9476
44.8899
46.0681
47.4993
41.3164
41.4535
41.7945
42.344
43.1125
44.1129
45.359
46.8661
40.4691
40.6172
40.9815
41.566
42.3808
43.4375
44.7489
46.3276
39.7234
39.8824
40.2698
40.8886
41.7482
42.8589
44.2318
45.8771
39.076
39.2459
39.6556
40.3076
41.2097
42.3714
43.8013
45.5074
38.5232
38.7036
39.1348
39.818
40.7602
41.9689
43.4507
45.2109
38.0609
38.2512
38.7025
39.4149
40.3938
41.6449
43.1727
44.9799
37.6848
37.8843
38.354
39.0928
40.1044
41.3927
42.9601
44.8069
37.3902
37.5979
38.0841
38.846
39.8859
41.2058
42.8061
44.6846
37.1724
37.3874
37.8876
38.669
39.7323
41.0779
42.7039
44.6062
37.0268
37.2476
37.7592
38.5562
39.6379
41.0027
42.6473
44.5655
36.9485
37.1738
37.694
38.5024
39.597
40.9748
42.6307
44.5568
36.9329
37.1612
37.687
38.5025
39.6045
40.9888
42.6489
44.5754
36.9757
37.2054
37.7337
38.5519
39.6559
41.0404
42.6975
44.6169
37.0727
37.3022
37.8298
38.6464
39.747
41.1252
42.7726
44.6777
37.22
37.4476
37.9716
38.7821
39.8739
41.2398
42.8709
44.7549
37.4139
37.6381
38.1552
38.9556
40.0333
41.3812
42.9896
44.8462
37.651
37.8702
38.3776
39.1636
40.2224
41.5466
43.1266
44.9495
37.9281
38.1407
38.6356
39.4035
40.4387
41.734
43.2798
45.0635
38.2423
38.4469
38.9267
39.6727
40.6799
41.9414
43.4479
45.1871
38.5906
38.786
39.2481
39.969
40.9442
42.1674
43.6298
45.3195
38.9706
39.1555
39.5977
40.2904
41.2298
42.4105
43.8245
45.4604
39.3796
39.553
39.9733
40.6349
41.5353
42.6698
44.0313
45.6093
39.8153
39.9762
40.3728
41.0009
41.8592
42.9442
44.2497
45.7662
40.2754
40.4229
40.7942
41.3867
42.2004
43.233
44.4793
45.9311
40.7575
40.8909
41.2357
41.7907
42.5576
43.5352
44.7198
46.104
41.2595
41.3783
41.6953
42.2115
42.9296
43.8502
44.9707
46.285
41.7792
41.8829
42.1714
42.6474
43.3154
44.1772
45.2317
46.4741
42.3144
42.4027
42.6621
43.0971
43.7137
44.5155
45.5025
46.6714
42.863
42.9358
43.1656
43.5589
44.1235
44.8643
45.7827
46.8769
43.4231
43.4801
43.6802
44.0315
44.5436
45.2227
46.0719
47.0905
43.9924
44.0338
44.2041
44.5134
44.9727
45.5899
46.3695
47.3121
44.569
44.5948
44.7355
45.0029
45.4096
45.965
46.6749
47.5413
45.1509
45.1614
45.2727
45.4986
45.8531
46.3471
46.9875
47.778
45.7361
45.7316
45.8141
45.999
46.3019
46.735
47.3066
48.0216
46.3229
46.3036
46.3578
46.5025
46.7546
47.1277
47.6314
48.2716
46.9093
46.8756
46.9023
47.0076
47.21
47.5242
47.961
48.5275
47.4936
47.446
47.4458
47.5129
47.6668
47.9233
48.2945
48.7887
48.074
48.0131
47.987
48.0168
48.1235
48.3239
48.6311
49.0543
48.6491
48.5752
48.5241
48.518
48.579
48.7248
48.9696
49.3237
49.2171
49.1309
49.0558
49.0151
49.0319
49.125
49.3092
49.5959
49.7767
49.6787
49.5806
49.5068
49.481
49.5231
49.6488
49.8701
50.3266
50.2173
50.0973
49.9917
49.9252
49.9182
49.9873
50.1454
50.8653
50.7455
50.6046
50.4687
50.3632
50.3091
50.3239
50.421
51.3919
51.262
51.1013
50.9366
50.7939
50.6948
50.6574
50.6958
51.9052
51.7659
51.5865
51.3945
51.2163
51.0743
50.987
50.9691
52.4042
52.2561
52.0591
51.8412
51.6295
51.4467
51.3117
51.2399
52.8882
52.7317
52.5182
52.276
52.0325
51.8109
51.6306
51.5074
53.3563
53.1921
52.9631
52.698
52.4246
52.1663
51.9429
51.7707
53.8079
53.6366
53.3931
53.1066
52.8049
52.512
52.2478
52.0291
54.2425
54.0645
53.8076
53.501
53.1729
52.8473
52.5447
52.2818
54.6597
54.4755
54.2061
53.8808
53.5279
53.1717
52.8327
52.5281
55.059
54.8692
54.5882
54.2455
53.8695
53.4846
53.1114
52.7674
55.4402
55.2452
54.9536
54.5948
54.1973
53.7855
53.3803
52.9991
55.8033
55.6035
55.302
54.9283
54.5108
54.074
53.6387
53.2228
56.148
55.9439
55.6334
55.246
54.8099
54.3498
53.8865
53.4378
56.4744
56.2664
55.9477
55.5476
55.0945
54.6127
54.1233
53.644
56.7827
56.5711
56.2449
55.8332
55.3643
54.8625
54.3487
53.8409
57.0729
56.8581
56.5251
56.1028
55.6194
55.099
54.5627
54.0282
57.3454
57.1277
56.7885
56.3566
55.8598
55.3224
54.7651
54.2059
57.6004
57.3801
57.0354
56.5947
56.0857
55.5325
54.9559
54.3736
57.8382
57.6157
57.266
56.8173
56.2972
55.7296
55.1351
54.5315
58.0594
57.8349
57.4807
57.0248
56.4946
55.9137
55.3028
54.6794
58.2645
58.0382
57.6799
57.2175
56.6781
56.0851
55.4591
54.8174
58.4538
58.226
57.8642
57.3959
56.8481
56.2441
55.6041
54.9456
58.6281
58.3989
58.034
57.5605
57.0051
56.391
55.7383
55.0642
58.7879
58.5575
58.1898
57.7116
57.1495
56.5262
55.8618
55.1734
58.9338
58.7025
58.3323
57.85
57.2817
56.6501
55.975
55.2735
59.0667
58.8345
58.4622
57.9762
57.4023
56.7632
56.0783
55.3647
59.1871
58.9542
58.58
58.0907
57.5119
56.866
56.1722
55.4475
59.2958
59.0624
58.6866
58.1944
57.6112
56.9591
56.2572
55.5223
59.3937
59.1598
58.7827
58.288
57.7008
57.0431
56.3339
55.5897
59.4816
59.2472
58.869
58.3721
57.7815
57.1188
56.4029
55.6501
59.5602
59.3256
58.9464
58.4477
57.854
57.1869
56.4649
55.7043
59.6306
59.3958
59.0159
58.5156
57.9192
57.2481
56.5207
55.753
59.6936
59.4587
59.0783
58.5767
57.9781
57.3034
56.5711
55.797
59.7503
59.5155
59.1347
58.6321
58.0315
57.3539
56.6172
55.8373
59.8018
59.567
59.1861
58.6828
58.0807
57.4004
56.66
55.875
59.8491
59.6146
59.2339
58.7301
58.1268
57.4444
56.7006
55.9112
59.8936
59.6595
59.2791
58.7753
58.1711
57.4869
56.7406
55.9475
59.9365
59.7031
59.3234
58.8197
58.2149
57.5295
56.7812
55.9854
59.9798
59.7475
59.3687
58.8651
58.26
57.5739
56.8243
56.0269
72.6425
70.8335
69.7312
69.6115
70.721
73.2726
77.4184
83.2095
90.5713
99.3076
109.125
119.651
130.462
141.069
150.852
70.9844
69.5496
68.8871
69.1758
70.5827
73.2528
77.2867
82.7144
89.4776
97.4318
106.363
115.99
126.027
136.174
146.116
69.3248
68.2299
67.9054
68.4859
70.1003
72.8608
76.8434
82.067
88.4793
95.9573
104.318
113.319
122.74
132.362
142.007
67.6804
66.8705
66.8126
67.6209
69.4054
72.2603
76.2466
81.3731
87.5856
94.7687
102.742
111.296
120.238
129.386
138.617
66.0488
65.4782
65.6427
66.647
68.5901
71.5543
75.5877
80.6877
86.7935
93.7877
101.487
109.708
118.274
127.022
135.847
64.4293
64.0667
64.4296
65.6166
67.7193
70.8092
74.9213
80.0406
86.0977
92.959
100.456
108.419
116.681
125.092
133.554
62.8269
62.6544
63.2045
64.5714
66.8394
70.0689
74.281
79.4479
85.4841
92.2488
99.5874
107.338
115.344
123.466
131.612
61.2521
61.2613
61.9954
63.5442
65.984
69.3629
73.6875
78.9159
84.941
91.6308
98.8357
106.402
114.185
122.053
129.918
59.7186
59.907
60.8262
62.5606
65.1775
68.7113
73.1541
78.44
84.4607
91.0855
98.1701
105.57
113.149
120.787
128.4
58.2409
58.6097
59.7166
61.6402
64.4365
68.1263
72.6803
78.0196
84.0353
90.5974
97.5675
104.81
112.198
119.621
127.002
56.8331
57.3849
58.6823
60.7967
63.772
67.611
72.2654
77.6513
83.6567
90.1538
97.0105
104.1
111.305
118.524
125.685
55.5076
56.245
57.7349
60.0393
63.1881
67.1631
71.9073
77.3297
83.3167
89.7436
96.4852
103.423
110.45
117.472
124.424
54.2746
55.1995
56.8816
59.3722
62.6818
66.7807
71.6017
77.0485
83.0073
89.3574
95.9805
102.766
109.617
116.447
123.198
53.142
54.2547
56.1262
58.7925
62.2507
66.4593
71.3427
76.8007
82.7206
88.9865
95.4871
102.12
108.797
115.438
121.993
52.1144
53.4132
55.4665
58.2972
61.8901
66.193
71.1233
76.5789
82.4492
88.6235
94.9974
101.477
107.979
114.436
120.798
51.1941
52.6737
54.8991
57.8814
61.5937
65.9743
70.9358
76.3756
82.1859
88.2616
94.5049
100.829
107.159
113.433
119.608
50.3801
52.0328
54.4191
57.5387
61.3537
65.7953
70.7726
76.1836
81.9243
87.8949
94.0042
100.172
106.331
112.425
118.416
49.6692
51.4857
54.0201
57.2612
61.162
65.6479
70.6262
75.9965
81.6586
87.5184
93.4908
99.5022
105.491
111.407
117.218
49.057
51.0263
53.6945
57.0407
61.0102
65.5242
70.4895
75.808
81.3837
87.1278
92.961
98.8157
104.636
110.378
116.012
48.5378
50.6473
53.4341
56.8685
60.8899
65.4167
70.3561
75.6128
81.0952
86.7194
92.4119
98.1103
103.764
109.334
114.796
48.1048
50.3408
53.2303
56.7362
60.7933
65.3185
70.2202
75.4063
80.7894
86.2906
91.8412
97.3841
102.874
108.276
113.568
47.7504
50.0983
53.0744
56.6356
60.7131
65.2235
70.0769
75.1846
80.4635
85.839
91.2473
96.6359
101.964
107.2
112.328
47.4665
49.9116
52.9584
56.559
60.6427
65.1261
69.9219
74.9446
80.115
85.363
90.629
95.8648
101.034
106.109
111.074
47.2452
49.7723
52.8743
56.4996
60.5762
65.022
69.7518
74.6837
79.7423
84.8614
89.9856
95.0705
100.083
105
109.809
47.0784
49.6727
52.8151
56.4513
60.5088
64.9071
69.5638
74.4
79.3442
84.3338
89.317
94.2529
99.112
103.874
108.53
46.9585
49.6057
52.7744
56.4086
60.4363
64.7785
69.3557
74.0923
78.92
83.7797
88.6231
93.4125
98.1213
102.733
107.239
46.8783
49.5646
52.7465
56.3671
60.3551
64.6337
69.126
73.7596
78.4694
83.1995
87.9044
92.5497
97.1115
101.576
105.937
46.8313
49.5436
52.7267
56.323
60.2626
64.4709
68.8738
73.4018
77.9926
82.5934
87.1616
91.6653
96.0833
100.404
104.623
46.8117
49.5379
52.7108
56.2732
60.1567
64.2889
68.5985
73.0187
77.49
81.9624
86.3956
90.7604
95.0379
99.2187
103.3
46.8142
49.543
52.6956
56.2155
60.036
64.0871
68.3
72.6107
76.9624
81.3071
85.6074
89.836
93.9763
98.0207
101.968
46.8346
49.5555
52.6786
56.1481
59.8994
63.865
67.9786
72.1786
76.4105
80.629
84.7983
88.8935
92.8997
96.8112
100.628
46.8691
49.5725
52.6576
56.0698
59.7466
63.6229
67.6348
71.7231
75.8357
79.9291
83.9697
87.9343
91.8096
95.5917
99.282
46.9147
49.5918
52.6312
55.9799
59.5774
63.3611
67.2694
71.2455
75.2392
79.2089
83.123
86.9596
90.7073
94.3633
97.9303
46.969
49.6118
52.5986
55.8781
59.3922
63.0803
66.8836
70.747
74.6224
78.47
82.2596
85.9712
89.5943
93.1275
96.5745
47.0301
49.6313
52.5593
55.7646
59.1914
62.7816
66.4784
70.229
73.9868
77.7139
81.3814
84.9705
88.472
91.8856
95.2159
47.0968
49.6496
52.5131
55.6397
58.9759
62.4661
66.0554
69.693
73.3342
76.9422
80.4897
83.959
87.342
90.6391
93.8558
47.1679
49.6664
52.4603
55.5042
58.7468
62.135
65.616
69.1407
72.6661
76.1567
79.5864
82.9385
86.2057
89.3894
92.4955
47.243
49.6816
52.4013
55.3588
58.5053
61.7898
65.1618
68.5738
71.9843
75.3591
78.673
81.9104
85.0646
88.1378
91.1363
47.3218
49.6955
52.3368
55.2047
58.2527
61.4321
64.6944
67.994
71.2905
74.551
77.7513
80.8764
83.9203
86.8857
89.7794
47.4043
49.7086
52.2677
55.0429
57.9904
61.0635
64.2157
67.4031
70.5866
73.7343
76.8229
79.838
82.7742
85.6345
88.4262
47.4906
49.7214
52.1949
54.8749
57.7199
60.6856
63.7273
66.8028
69.8742
72.9107
75.8895
78.7968
81.6278
84.3856
87.0778
47.581
49.7346
52.1195
54.7019
57.4428
60.3
63.2311
66.1949
69.1552
72.0817
74.9526
77.7544
80.4825
83.1403
85.7355
47.6759
49.749
52.0426
54.5253
57.1606
59.9086
62.7286
65.5813
68.4312
71.2492
74.0139
76.7121
79.3396
81.8999
84.4005
47.7758
49.7654
51.9654
54.3465
56.8749
59.513
62.2218
64.9636
67.7041
70.4148
73.0749
75.6716
78.2006
80.6655
83.0739
47.8811
49.7847
51.8888
54.1669
56.5873
59.1148
61.7123
64.3436
66.9754
69.5801
72.1372
74.6342
77.0668
79.4385
81.7568
47.9923
49.8076
51.8141
53.9877
56.2992
58.7156
61.2018
63.7229
66.2468
68.7467
71.2023
73.6013
75.9394
78.2199
80.4503
48.1097
49.8348
51.7423
53.8103
56.0121
58.317
60.6918
63.1032
65.52
67.916
70.2715
72.5742
74.8197
77.011
79.1555
48.2338
49.8672
51.6743
53.6358
55.7274
57.9206
60.1841
62.486
64.7964
67.0897
69.3463
71.5542
73.7088
75.8128
77.8732
48.3647
49.9052
51.6111
53.4654
55.4463
57.5276
59.6799
61.8728
64.0775
66.269
68.4281
70.5426
72.6079
74.6264
76.6045
48.5028
49.9494
51.5534
53.3001
55.1702
57.1396
59.1809
61.2652
63.3648
65.4554
67.518
69.5406
71.5181
73.4527
75.3503
48.648
50.0001
51.5019
53.1408
54.9
56.7577
58.6882
60.6644
62.6596
64.6501
66.6174
68.5493
70.4405
72.2926
74.1114
48.8005
50.0578
51.4571
52.9884
54.6369
56.383
58.2031
60.0717
61.9631
63.8544
65.7274
67.5698
69.376
71.1473
72.8887
48.96
50.1225
51.4196
52.8435
54.3816
56.0166
57.7268
59.4883
61.2766
63.0695
64.8492
66.6031
68.3257
70.0173
71.6829
49.1264
50.1943
51.3897
52.7067
54.135
55.6594
57.2604
58.9153
60.6012
62.2965
63.9837
65.6503
67.2903
68.9037
70.4947
49.2993
50.2732
51.3675
52.5784
53.8977
55.3123
56.8046
58.3538
59.9379
61.5364
63.1319
64.7122
66.2707
67.8071
69.3248
49.4784
50.3591
51.3533
52.4591
53.6703
54.976
56.3605
57.8045
59.2877
60.7901
62.2949
63.7897
65.2678
66.7282
68.1739
49.6632
50.4518
51.347
52.3488
53.4532
54.651
55.9286
57.2685
58.6514
60.0585
61.4734
62.8836
64.2823
65.6678
67.0426
49.8531
50.5508
51.3485
52.2479
53.2467
54.3379
55.5097
56.7463
58.0299
59.3425
60.6682
61.9947
63.3148
64.6264
65.9313
50.0475
50.6559
51.3576
52.1561
53.051
54.037
55.1042
56.2386
57.4238
58.6427
59.88
61.1236
62.366
63.6046
64.8407
50.2458
50.7664
51.3741
52.0735
52.8661
53.7485
54.7126
55.746
56.8337
57.9598
59.1095
60.271
61.4365
62.603
63.7711
50.4471
50.882
51.3975
51.9999
52.6922
53.4727
54.3351
55.2687
56.2601
57.2943
58.3573
59.4374
60.5268
61.622
62.7231
50.6507
51.0019
51.4275
51.9351
52.5291
53.2096
53.9719
54.8073
55.7034
56.6467
57.6237
58.6233
59.6373
60.662
61.6968
50.8559
51.1255
51.4635
51.8786
52.3765
52.9591
53.6233
54.3618
55.164
56.0174
56.9094
57.8291
58.7685
59.7234
60.6928
51.0618
51.2523
51.505
51.83
52.2344
52.7212
53.2891
53.9324
54.6421
55.4067
56.2146
57.0552
57.9207
58.8065
59.7112
51.2676
51.3814
51.5515
51.789
52.1022
52.4956
52.9693
53.5193
54.1378
54.8149
55.5396
56.302
57.0943
57.9117
58.7523
51.4726
51.5121
51.6023
51.755
51.9797
52.2821
52.6638
53.1223
53.6513
54.242
54.8846
55.5696
56.2894
57.039
57.8163
51.6759
51.6439
51.6568
51.7275
51.8663
52.0803
52.3723
52.7413
53.1824
53.6882
54.2497
54.8582
55.5062
56.1888
56.9033
51.8769
51.7759
51.7144
51.7059
51.7617
51.8898
52.0945
52.3761
52.7312
53.1535
53.6351
54.1679
54.7449
55.3611
56.0134
52.0747
51.9075
51.7744
51.6896
51.6652
51.7102
51.8302
52.0266
52.2975
52.6377
53.0406
53.4988
54.0056
54.556
55.1468
52.2688
52.038
51.8362
51.678
51.5763
51.541
51.5788
51.6923
51.8809
52.1409
52.4664
52.8509
53.2883
53.7735
54.3034
52.4583
52.1668
51.8991
51.6705
51.4944
51.3817
51.3399
51.373
51.4814
51.6626
51.9121
52.2241
52.5929
53.0137
53.4832
52.6428
52.2933
51.9626
51.6665
51.4191
51.2318
51.1131
51.0681
51.0984
51.2028
51.3777
51.6183
51.9193
52.2764
52.6862
52.8217
52.4169
52.026
51.6654
51.3496
51.0906
50.8978
50.7772
50.7317
50.7611
50.8629
51.0332
51.2675
51.5616
51.9121
52.9945
52.537
52.0889
51.6667
51.2853
50.9576
50.6934
50.4998
50.3807
50.3371
50.3674
50.4687
50.6372
50.869
51.161
53.1607
52.6533
52.1506
51.6697
51.2258
50.8322
50.4994
50.2355
50.0451
49.9303
49.8908
49.9245
50.0282
50.1986
50.4326
53.32
52.7652
52.2107
51.674
51.1704
50.7138
50.3153
49.9835
49.7242
49.5404
49.4328
49.4002
49.4402
49.55
49.7267
53.472
52.8723
52.2688
51.679
51.1186
50.6018
50.1403
49.7434
49.4175
49.1668
48.9929
48.8954
48.8728
48.9229
49.0431
53.6164
52.9743
52.3244
51.6842
51.0699
50.4958
49.974
49.5145
49.1246
48.8091
48.5706
48.4098
48.3258
48.3171
48.3814
53.7531
53.071
52.3771
51.6893
51.0237
50.395
49.8158
49.2963
48.8447
48.4666
48.1655
47.9429
47.7988
47.7321
47.7413
53.8819
53.1621
52.4267
51.6938
50.9797
50.2991
49.665
49.0882
48.5773
48.1388
47.7769
47.4941
47.2911
47.1676
47.1224
54.0026
53.2473
52.4729
51.6973
50.9372
50.2075
49.5212
48.8895
48.3218
47.8251
47.4044
47.063
46.8025
46.6232
46.5244
54.1152
53.3266
52.5154
51.6996
50.896
50.1196
49.3837
48.6998
48.0776
47.5248
47.0473
46.649
46.3324
46.0984
45.9468
54.2198
53.3999
52.554
51.7004
50.8558
50.0352
49.2521
48.5184
47.8441
47.2375
46.7051
46.2516
45.8802
45.5926
45.3892
54.3164
53.4671
52.5887
51.6994
50.816
49.9536
49.1259
48.3448
47.6207
46.9624
46.3771
45.8702
45.4455
45.1054
44.8511
54.4051
53.5283
52.6194
51.6965
50.7766
49.8747
49.0046
48.1784
47.4068
46.6991
46.0628
45.5041
45.0276
44.6363
44.3319
54.4861
53.5836
52.6459
51.6916
50.7373
49.7981
48.8879
48.0188
47.202
46.4468
45.7615
45.1528
44.6259
44.1847
43.8313
54.5597
53.6331
52.6685
51.6845
50.6978
49.7235
48.7753
47.8656
47.0056
46.2051
45.4727
44.8157
44.24
43.75
43.3486
54.6261
53.6769
52.6872
51.6753
50.6581
49.6506
48.6666
47.7184
46.8173
45.9734
45.1958
44.4923
43.8692
43.3317
42.8833
54.6857
53.7155
52.7021
51.6641
50.6182
49.5795
48.5615
47.5767
46.6365
45.7513
44.9303
44.1819
43.513
42.9293
42.435
54.739
53.749
52.7135
51.651
50.5781
49.5099
48.4599
47.4405
46.4631
45.5383
44.6758
43.8842
43.1709
42.5423
42.0031
54.7864
53.778
52.7217
51.6362
50.538
49.442
48.3617
47.3095
46.2967
45.3342
44.4319
43.5988
42.8428
42.1704
41.5874
54.8285
53.8029
52.7272
51.6201
50.4981
49.3759
48.2671
47.1838
46.1374
45.139
44.1987
43.3256
42.5282
41.8134
41.1875
54.8661
53.8245
52.7306
51.6033
50.4589
49.3122
48.1765
47.0637
45.9855
44.953
43.9762
43.0647
42.2273
41.4715
40.8038
54.8999
53.8433
52.7325
51.5864
50.4212
49.2515
48.0905
46.95
45.8418
44.7767
43.7651
42.8168
41.9407
41.145
40.4367
54.9308
53.8604
52.734
51.5704
50.3859
49.1949
48.0103
46.8439
45.7074
44.6116
43.5669
42.5833
41.67
40.8357
40.0878
54.96
53.877
52.7363
51.5568
50.3546
49.144
47.9377
46.7474
45.5846
44.46
43.3841
42.3669
41.4181
40.5466
39.7604
54.9887
53.8944
52.7409
51.5472
50.3293
49.1012
47.8754
46.6635
45.4768
44.3258
43.221
42.1725
41.1902
40.2834
39.4605
55.0186
53.9144
52.7501
51.5443
50.313
49.07
47.8275
46.5971
45.3896
44.2154
43.0849
42.0083
40.9956
40.0564
39.1995
55.0513
53.9393
52.7663
51.5511
50.3096
49.0552
47.8
46.5551
45.3313
44.1388
42.9876
41.888
40.85
39.8834
38.9974
55.0893
53.9718
52.793
51.572
50.3244
49.0636
47.8011
46.5481
45.3149
44.1114
42.9477
41.8337
40.7795
39.7949
38.8894
160.289
167.41
174.64
181.951
189.051
195.571
201.142
205.431
208.177
209.225
208.545
206.24
202.552
197.846
192.586
187.3
182.532
178.783
176.466
175.869
177.144
180.312
185.274
191.832
199.712
208.587
218.102
227.902
237.648
247.037
255.808
263.749
270.697
276.539
281.208
284.685
286.992
288.189
288.375
287.678
155.071
162.85
170.569
178.126
185.263
191.679
197.074
201.183
203.806
204.836
204.271
202.229
198.948
194.773
190.136
185.523
181.428
178.305
176.525
176.348
177.908
181.218
186.184
192.615
200.252
208.783
217.873
227.187
236.405
245.241
253.452
260.839
267.252
272.592
276.802
279.874
281.838
282.767
282.767
281.976
150.85
159.004
166.973
174.623
181.715
187.994
193.212
197.158
199.679
200.705
200.257
198.466
195.563
191.877
187.809
183.806
180.319
177.76
176.461
176.655
178.461
181.886
186.835
193.127
200.514
208.702
217.373
226.21
234.913
243.213
250.882
257.735
263.637
268.497
272.272
274.961
276.606
277.286
277.117
276.246
147.377
155.735
163.801
171.434
178.416
184.525
189.556
193.342
195.766
196.788
196.452
194.892
192.337
189.097
185.549
182.103
179.168
177.118
176.252
176.777
178.796
182.31
187.226
193.368
200.502
208.348
216.605
224.976
233.176
240.955
248.1
254.439
259.85
264.253
267.614
269.943
271.289
271.74
271.416
270.472
144.482
152.911
160.962
168.498
175.319
181.235
186.074
189.702
192.035
193.056
192.823
191.478
189.244
186.415
183.342
180.401
177.968
176.377
175.899
176.716
178.918
182.498
187.364
193.349
200.226
207.731
215.582
223.496
231.209
238.483
245.121
250.967
255.908
259.876
262.846
264.836
265.903
266.142
265.678
264.669
142.025
150.422
158.376
165.757
172.385
178.093
182.739
186.214
188.461
189.482
189.348
188.204
186.266
183.814
181.174
178.694
176.713
175.536
175.403
176.477
178.832
182.457
187.259
193.077
199.696
206.865
214.317
221.786
229.024
235.811
241.962
247.335
251.827
255.382
257.983
259.656
260.464
260.507
259.917
258.852
139.891
148.18
155.98
163.167
169.58
175.073
179.526
182.855
185.022
186.046
186.005
185.048
183.384
181.278
179.034
176.972
175.4
174.593
174.767
176.064
178.546
182.195
186.92
192.565
198.924
205.76
212.822
219.858
226.638
232.955
238.64
243.56
247.625
250.789
253.042
254.418
254.986
254.85
254.145
253.033
137.99
146.118
153.724
160.693
166.878
172.153
176.418
179.607
181.701
182.728
182.776
181.994
180.584
178.796
176.913
175.229
174.025
173.549
173.994
175.482
178.066
181.722
186.358
191.824
197.923
204.432
211.112
217.729
224.066
229.931
235.168
239.657
243.318
246.112
248.039
249.137
249.483
249.183
248.375
247.223
136.255
144.185
151.571
158.306
164.258
169.316
173.399
176.456
178.481
179.513
179.647
179.028
177.852
176.355
174.801
173.459
172.587
172.405
173.087
174.739
177.402
181.047
185.584
190.866
196.706
202.893
209.202
215.413
221.323
226.755
231.565
235.643
238.92
241.366
242.986
243.827
243.968
243.518
242.62
241.435
134.635
142.343
149.493
155.986
161.703
166.55
170.457
173.389
175.35
176.39
176.603
176.136
175.176
173.947
172.692
171.659
171.083
171.163
172.05
173.84
176.561
180.18
184.608
189.703
195.287
201.158
207.105
212.924
218.425
223.442
227.844
231.533
234.447
236.565
237.9
238.501
238.453
237.868
236.888
235.677
133.096
140.565
147.47
153.718
159.203
163.843
167.582
170.396
172.299
173.346
173.636
173.31
172.549
171.563
170.579
169.825
169.513
169.823
170.89
172.792
175.552
179.133
183.444
188.348
193.678
199.24
204.838
210.279
215.386
220.007
224.021
227.34
229.913
231.723
232.791
233.171
232.95
232.243
231.192
229.96
131.61
138.833
145.487
151.491
156.748
161.189
164.767
167.47
169.319
170.374
170.734
170.539
169.961
169.198
168.459
167.956
167.879
168.391
169.61
171.604
174.385
177.915
182.102
186.815
191.893
197.155
202.414
207.49
212.221
216.464
220.11
223.08
225.331
226.853
227.673
227.848
227.469
226.652
225.539
224.293
130.161
137.131
143.535
149.297
154.333
158.58
162.006
164.604
166.403
167.465
167.892
167.818
167.407
166.846
166.329
166.049
166.181
166.869
168.217
170.282
173.07
176.538
180.595
185.116
189.947
194.915
199.847
204.574
208.944
212.828
216.125
218.765
220.714
221.967
222.556
222.544
222.02
221.105
219.939
218.684
128.734
135.451
141.607
147.131
151.951
156.014
159.294
161.793
163.544
164.614
165.102
165.138
164.881
164.503
164.186
164.105
164.421
165.261
166.717
168.836
171.616
175.012
178.936
183.265
187.852
192.535
197.152
201.544
205.57
209.112
212.078
214.408
216.073
217.076
217.452
217.267
216.613
215.611
214.4
213.14
127.32
133.786
139.696
144.99
149.601
153.487
156.628
159.033
160.739
161.815
162.359
162.497
162.378
162.166
162.027
162.125
162.601
163.572
165.117