/*--------------------------------*- C++ -*----------------------------------*\
| =========                 |                                                 |
| \\      /  F ield         | OpenFOAM: The Open Source CFD Toolbox           |
|  \\    /   O peration     | Version:  2206                                  |
|   \\  /    A nd           | Website:  www.openfoam.com                      |
|    \\/     M anipulation  |                                                 |
\*---------------------------------------------------------------------------*/
FoamFile
{
    version     2.0;
    format      ascii;
    arch        "LSB;label=32;scalar=64";
    class       volScalarField;
    location    "300";
    object      nut;
}
// * * * * * * * * * * * * * * * * * * * * * * * * * * * * * * * * * * * * * //

dimensions      [0 2 -1 0 0 0 0];

internalField   nonuniform List<scalar> 
12940
(
0.0038938
0.015994
0.0618797
0.0907244
0.0993377
0.101656
0.102265
0.102401
0.00588169
0.00376773
0.0206315
0.0617389
0.0888631
0.0989073
0.102066
0.102979
0.00904048
0.0028457
0.00720728
0.0316894
0.0684738
0.0906984
0.0996266
0.102713
0.0132931
0.00364554
0.00364067
0.0137975
0.0431747
0.0751449
0.0930967
0.100618
0.0187331
0.00562682
0.00301878
0.00649373
0.0228481
0.0540059
0.0809531
0.0953841
0.025165
0.00885258
0.00363799
0.00406941
0.0116695
0.0336555
0.0637378
0.0858788
0.0319839
0.0133312
0.00518822
0.00357098
0.00676111
0.0195072
0.04512
0.0721322
0.0384331
0.018881
0.00765165
0.00402817
0.00484299
0.0116458
0.0295794
0.0560462
0.0440991
0.0251806
0.0110487
0.00519346
0.00430663
0.00772248
0.0189831
0.0406461
0.0491242
0.0318629
0.0153959
0.00706024
0.00455185
0.00588902
0.0125937
0.0282369
0.0539104
0.0385817
0.0206707
0.00971443
0.00540939
0.00519356
0.00897875
0.0194404
0.058678
0.0450667
0.0267459
0.0132689
0.00689576
0.00522962
0.00704706
0.0137062
0.0633583
0.0511671
0.0333534
0.0177979
0.00911402
0.00586957
0.00616813
0.0101738
0.0677966
0.0568402
0.0401335
0.0232659
0.0121954
0.00713229
0.00603484
0.00813277
0.071917
0.0620937
0.0467511
0.0294844
0.0162405
0.00911567
0.00653954
0.00712323
0.0757391
0.0669492
0.0529922
0.0361385
0.021257
0.011947
0.00769794
0.00689779
0.0793698
0.071468
0.0587901
0.0428844
0.027118
0.0157303
0.00959933
0.00736441
0.0830574
0.0758293
0.0642232
0.0494727
0.0335802
0.0204942
0.0123631
0.00853994
0.0873254
0.0804574
0.0695618
0.0558561
0.0403803
0.0261661
0.0160947
0.0105124
0.0931723
0.0862188
0.0754228
0.062306
0.0474011
0.032618
0.0208567
0.0134082
0.102272
0.0946701
0.0830479
0.0696178
0.0549024
0.0398248
0.026697
0.017376
0.116963
0.108183
0.0946201
0.079473
0.063873
0.0481831
0.0338142
0.0226385
0.139777
0.129592
0.113267
0.0948233
0.0765649
0.0590743
0.0429912
0.029739
0.1726
0.161264
0.14224
0.119673
0.0969414
0.0756805
0.0564769
0.0402573
0.216067
0.204199
0.183495
0.157551
0.129937
0.103328
0.0790963
0.0582217
0.26954
0.257851
0.236907
0.20956
0.178809
0.147476
0.117654
0.0908678
0.331489
0.32056
0.300652
0.274007
0.242912
0.209692
0.176437
0.14494
0.399939
0.390133
0.372083
0.347611
0.318473
0.286438
0.253202
0.220353
0.472859
0.464312
0.44846
0.426834
0.400848
0.371877
0.341231
0.310151
0.548441
0.541101
0.527397
0.508642
0.486031
0.46069
0.433657
0.405879
0.625291
0.618973
0.607097
0.590803
0.571142
0.549091
0.525515
0.501161
0.702526
0.696964
0.686436
0.671943
0.654443
0.634828
0.613872
0.592216
0.779803
0.774701
0.764972
0.751507
0.735202
0.716915
0.697397
0.677262
0.857292
0.852362
0.842892
0.829676
0.813563
0.795403
0.775972
0.755939
0.935605
0.930605
0.920934
0.907281
0.890432
0.871225
0.850483
0.828988
1.01568
1.01045
1.00027
0.985695
0.96739
0.946128
0.922743
0.898146
1.09863
1.09313
1.08236
1.0667
1.0466
1.02263
0.995507
0.966178
1.18549
1.17984
1.16871
1.15227
1.13065
1.10402
1.07261
1.03705
1.27699
1.27146
1.26054
1.24422
1.22231
1.19432
1.15941
1.11654
1.37318
1.36814
1.35829
1.3436
1.32381
1.29807
1.2641
1.21573
1.46113
1.4568
1.44853
1.43652
1.42107
1.4026
1.38228
1.36415
1.5389
1.53528
1.5285
1.51898
1.50734
1.49454
1.4823
1.47379
1.61738
1.61439
1.60893
1.60152
1.59289
1.58406
1.57646
1.57189
1.69579
1.69328
1.6888
1.68291
1.67631
1.66992
1.6648
1.662
1.7735
1.77129
1.7674
1.76237
1.75687
1.75172
1.74776
1.74568
1.85011
1.848
1.84428
1.83948
1.83424
1.82933
1.82556
1.82359
1.92543
1.92323
1.91929
1.91411
1.90832
1.90272
1.89824
1.89578
1.99955
1.99707
1.99253
1.98637
1.9792
1.97187
1.96556
1.96177
2.07274
2.06984
2.06437
2.05668
2.04727
2.03694
2.02709
2.02025
2.14549
2.14206
2.13544
2.12581
2.11342
2.09864
2.08246
2.06817
2.22746
2.22342
2.21545
2.20355
2.18751
2.16672
2.13956
2.10147
2.31969
2.31507
2.30588
2.29204
2.27328
2.24906
2.21844
2.18014
2.41402
2.40897
2.39892
2.38381
2.36349
2.33767
2.30604
2.2684
2.51104
2.5057
2.49506
2.47912
2.4578
2.43102
2.39874
2.3611
2.61109
2.60554
2.59448
2.57793
2.55584
2.52818
2.495
2.45651
2.7143
2.70862
2.69728
2.68026
2.65749
2.62886
2.59434
2.55414
2.82067
2.81496
2.80352
2.78628
2.763
2.73338
2.69712
2.6542
2.92999
2.92441
2.91321
2.89622
2.87298
2.84277
2.80465
2.75782
3.04174
3.03655
3.02612
3.01024
2.98825
2.95888
2.91996
2.86832
3.15497
3.15046
3.14147
3.12792
3.10927
3.08412
3.04922
2.9961
3.26826
3.26465
3.25761
3.24743
3.23427
3.21841
3.20086
3.18531
3.37991
3.37721
3.3721
3.36508
3.35669
3.3477
3.33934
3.33372
3.48837
3.48643
3.48286
3.47825
3.47316
3.46824
3.46425
3.46194
3.5924
3.59104
3.58858
3.5856
3.58258
3.57995
3.57807
3.57709
3.69118
3.69023
3.68852
3.68659
3.68481
3.68346
3.68264
3.68227
3.78422
3.78354
3.78232
3.78104
3.77999
3.77935
3.7791
3.77902
3.87124
3.87074
3.86983
3.86895
3.86833
3.86809
3.86814
3.8682
3.9521
3.95173
3.95102
3.95037
3.95001
3.94999
3.9502
3.95033
4.02675
4.02647
4.02589
4.02539
4.02518
4.02528
4.02557
4.02573
4.0952
4.09498
4.09448
4.09408
4.09395
4.09412
4.09445
4.09462
4.15747
4.15729
4.15685
4.15651
4.15643
4.15664
4.15698
4.15715
4.21359
4.21344
4.21304
4.21274
4.2127
4.21292
4.21326
4.21342
4.2636
4.26348
4.26311
4.26284
4.26281
4.26304
4.26337
4.26352
4.30754
4.30744
4.3071
4.30684
4.30683
4.30705
4.30737
4.30751
4.34544
4.34536
4.34503
4.3448
4.34479
4.34501
4.34532
4.34544
4.37733
4.37727
4.37696
4.37673
4.37673
4.37694
4.37724
4.37735
4.40324
4.40319
4.40289
4.40268
4.40267
4.40288
4.40317
4.40327
4.42318
4.42314
4.42286
4.42265
4.42265
4.42285
4.42313
4.42321
4.43716
4.43713
4.43686
4.43666
4.43666
4.43685
4.43712
4.4372
4.44518
4.44516
4.4449
4.44471
4.4447
4.44489
4.44515
4.44522
4.44724
4.44722
4.44698
4.44679
4.44679
4.44697
4.44722
4.44728
4.44331
4.44331
4.44307
4.44289
4.44288
4.44306
4.4433
4.44335
4.43338
4.43338
4.43315
4.43298
4.43297
4.43314
4.43337
4.43341
4.4174
4.41741
4.41719
4.41701
4.41701
4.41717
4.41739
4.41742
4.39532
4.39533
4.39512
4.39495
4.39494
4.3951
4.3953
4.39533
4.36708
4.36709
4.36688
4.36672
4.3667
4.36685
4.36704
4.36706
4.33259
4.3326
4.3324
4.33223
4.33221
4.33234
4.33251
4.33252
4.29174
4.29176
4.29156
4.29138
4.29135
4.29146
4.29161
4.29161
4.24444
4.24445
4.24424
4.24405
4.24399
4.24407
4.2442
4.24418
4.19052
4.19053
4.1903
4.19008
4.18998
4.19001
4.1901
4.19005
4.12983
4.12983
4.12956
4.12929
4.12912
4.12907
4.1291
4.12901
4.06219
4.06215
4.06182
4.06145
4.06115
4.06099
4.06091
4.06076
3.98739
3.9873
3.98685
3.9863
3.9858
3.98543
3.98517
3.98492
3.90525
3.90505
3.90438
3.90353
3.90268
3.90195
3.90141
3.901
3.8156
3.81521
3.81418
3.8128
3.81134
3.81001
3.80897
3.80826
3.71835
3.71765
3.716
3.71374
3.71123
3.70884
3.70691
3.70568
3.61358
3.61238
3.60972
3.60601
3.60172
3.59744
3.59387
3.59164
3.50166
3.49969
3.49548
3.48945
3.48216
3.47452
3.46777
3.46348
3.3834
3.38037
3.37393
3.36439
3.35228
3.33864
3.32545
3.31619
3.26022
3.25586
3.24655
3.23229
3.2131
3.18935
3.16265
3.13887
3.13413
3.12836
3.116
3.09655
3.06898
3.03132
2.9792
2.90147
3.00746
3.00053
2.98572
2.96235
2.92922
2.88439
2.82488
2.74665
2.8823
2.8746
2.85827
2.8327
2.79695
2.74978
2.68978
2.61585
2.76023
2.75215
2.73513
2.70874
2.67239
2.62543
2.56734
2.49807
2.64226
2.6341
2.617
2.59073
2.55498
2.50952
2.45431
2.38973
2.52895
2.52089
2.50413
2.47856
2.44411
2.4008
2.34892
2.28907
2.42053
2.41271
2.39652
2.37199
2.33921
2.29839
2.25002
2.19487
2.31705
2.30953
2.29406
2.27075
2.23981
2.20163
2.1568
2.10621
2.21844
2.21125
2.19656
2.17455
2.14554
2.11
2.06866
2.02245
2.12458
2.11774
2.10384
2.08316
2.05606
2.02313
1.98515
1.94311
2.03534
2.02883
2.01574
1.99636
1.97115
1.94075
1.90598
1.86791
1.95061
1.94443
1.93211
1.91401
1.89062
1.86266
1.83099
1.79668
1.87031
1.86446
1.85291
1.83604
1.81443
1.7888
1.76008
1.72937
1.79439
1.78885
1.77805
1.7624
1.7425
1.71914
1.69327
1.66598
1.72278
1.71756
1.7075
1.69304
1.67482
1.65366
1.63055
1.60657
1.65549
1.65058
1.64125
1.62796
1.61139
1.59239
1.57195
1.55116
1.5925
1.5879
1.57929
1.56717
1.55222
1.53533
1.5175
1.49983
1.53383
1.52953
1.52165
1.51067
1.49733
1.48252
1.46725
1.45261
1.47947
1.47548
1.46831
1.45848
1.44672
1.43396
1.42119
1.40949
1.42941
1.42573
1.41928
1.41058
1.40038
1.38962
1.37928
1.37041
1.38362
1.38024
1.37451
1.36692
1.35825
1.34943
1.34144
1.33526
1.34204
1.33897
1.33393
1.32743
1.32024
1.31328
1.30753
1.30389
1.30457
1.3018
1.29744
1.29199
1.28622
1.28105
1.27739
1.27611
1.27109
1.26862
1.26491
1.26046
1.25604
1.25253
1.25082
1.25169
1.24146
1.23926
1.23617
1.23266
1.2295
1.22753
1.22759
1.23041
1.21548
1.21355
1.21103
1.2084
1.20639
1.20582
1.20747
1.21201
1.19297
1.19127
1.18929
1.18746
1.18649
1.18716
1.19021
1.19625
1.1737
1.17223
1.17072
1.1696
1.16955
1.1713
1.17556
1.18288
1.15745
1.15618
1.15509
1.15459
1.15532
1.15801
1.16328
1.17166
1.14399
1.14289
1.14217
1.14219
1.14359
1.14704
1.15315
1.16238
1.13309
1.13214
1.13172
1.13218
1.13412
1.13818
1.14494
1.15483
1.12452
1.1237
1.12352
1.12433
1.1267
1.13123
1.13847
1.14883
1.11809
1.11736
1.11737
1.11845
1.12112
1.12599
1.13356
1.14421
1.11358
1.11293
1.11308
1.11433
1.11722
1.12229
1.13004
1.14083
1.11082
1.11021
1.11045
1.11182
1.11482
1.11997
1.12776
1.13855
1.10963
1.10905
1.10934
1.11075
1.11377
1.1189
1.12662
1.13726
1.10986
1.10929
1.10958
1.11097
1.11393
1.11895
1.12648
1.13686
1.11135
1.11078
1.11104
1.11236
1.11519
1.12
1.12725
1.13726
1.11399
1.11339
1.11359
1.1148
1.11743
1.12197
1.12884
1.1384
1.11765
1.11702
1.11712
1.11817
1.12056
1.12475
1.13118
1.14019
1.12223
1.12154
1.12153
1.12239
1.12448
1.12828
1.13419
1.14259
1.12761
1.12687
1.12673
1.12736
1.12912
1.13247
1.13782
1.14555
1.13372
1.13292
1.13262
1.133
1.13441
1.13727
1.14201
1.14901
1.14047
1.13959
1.13913
1.13924
1.14026
1.14261
1.14671
1.15294
1.14777
1.14682
1.14618
1.14601
1.14662
1.14844
1.15187
1.1573
1.15557
1.15454
1.15371
1.15324
1.15344
1.1547
1.15744
1.16205
1.16378
1.16267
1.16165
1.16088
1.16065
1.16135
1.16338
1.16716
1.17236
1.17116
1.16995
1.16887
1.16821
1.16834
1.16967
1.1726
1.18123
1.17994
1.17854
1.17715
1.17606
1.17562
1.17624
1.17833
1.19035
1.18897
1.18738
1.18568
1.18416
1.18316
1.18308
1.18433
1.19966
1.19819
1.19641
1.19441
1.19247
1.19092
1.19014
1.19056
1.20911
1.20756
1.20559
1.20329
1.20094
1.19884
1.19739
1.19699
1.21866
1.21703
1.21487
1.21229
1.20953
1.20691
1.2048
1.2036
1.22827
1.22656
1.22422
1.22135
1.2182
1.21507
1.21233
1.21035
1.2379
1.23611
1.23359
1.23045
1.22693
1.22331
1.21994
1.21722
1.2475
1.24564
1.24295
1.23955
1.23567
1.23158
1.22762
1.22418
1.25705
1.25511
1.25227
1.24862
1.24439
1.23985
1.23533
1.2312
1.26652
1.26451
1.26151
1.25763
1.25307
1.2481
1.24305
1.23826
1.27588
1.2738
1.27065
1.26654
1.26168
1.2563
1.25073
1.24532
1.28509
1.28295
1.27967
1.27534
1.27018
1.26443
1.25838
1.25237
1.29414
1.29194
1.28853
1.284
1.27857
1.27245
1.26595
1.25938
1.30301
1.30076
1.29722
1.29251
1.28681
1.28035
1.27342
1.26633
1.31168
1.30937
1.30572
1.30083
1.29489
1.28812
1.28079
1.27321
1.32013
1.31777
1.31401
1.30896
1.30279
1.29573
1.28802
1.27998
1.32835
1.32595
1.32209
1.31688
1.3105
1.30316
1.29511
1.28664
1.33633
1.33388
1.32993
1.32458
1.318
1.31041
1.30204
1.29317
1.34405
1.34157
1.33753
1.33205
1.32529
1.31747
1.3088
1.29956
1.35152
1.349
1.34488
1.33928
1.33236
1.32432
1.31537
1.30579
1.35872
1.35617
1.35198
1.34626
1.33919
1.33095
1.32176
1.31186
1.36566
1.36307
1.35882
1.353
1.34579
1.33737
1.32794
1.31776
1.37233
1.36971
1.36539
1.35948
1.35214
1.34356
1.33392
1.32347
1.37872
1.37608
1.37171
1.36571
1.35826
1.34952
1.33969
1.329
1.38485
1.38218
1.37776
1.37169
1.36413
1.35525
1.34525
1.33434
1.3907
1.38802
1.38355
1.37741
1.36976
1.36076
1.3506
1.33949
1.3963
1.39359
1.38909
1.38289
1.37515
1.36603
1.35573
1.34444
1.40163
1.39891
1.39437
1.38811
1.38029
1.37108
1.36065
1.3492
1.4067
1.40397
1.39939
1.39309
1.38521
1.37591
1.36536
1.35376
1.41153
1.40878
1.40418
1.39783
1.38989
1.38051
1.36986
1.35813
1.41611
1.41335
1.40873
1.40234
1.39435
1.3849
1.37416
1.36231
1.42046
1.41769
1.41304
1.40663
1.39858
1.38907
1.37825
1.3663
1.42458
1.42179
1.41713
1.41069
1.40261
1.39304
1.38215
1.37011
1.42847
1.42568
1.421
1.41454
1.40642
1.39681
1.38586
1.37373
1.43215
1.42936
1.42467
1.41818
1.41004
1.40039
1.38938
1.37718
1.43563
1.43283
1.42813
1.42162
1.41346
1.40378
1.39273
1.38047
1.43891
1.4361
1.43139
1.42488
1.41669
1.40698
1.3959
1.38358
1.44199
1.43919
1.43447
1.42795
1.41975
1.41002
1.3989
1.38654
1.4449
1.44209
1.43738
1.43084
1.42263
1.41289
1.40174
1.38935
1.44763
1.44482
1.44011
1.43357
1.42535
1.4156
1.40443
1.39201
1.4502
1.44739
1.44267
1.43614
1.42792
1.41815
1.40697
1.39453
1.4526
1.44979
1.44508
1.43855
1.43033
1.42056
1.40938
1.39691
1.45485
1.45204
1.44733
1.44081
1.43259
1.42283
1.41164
1.39917
1.45695
1.45415
1.44944
1.44292
1.43472
1.42496
1.41378
1.4013
1.4589
1.4561
1.4514
1.4449
1.43671
1.42696
1.41579
1.40332
1.4607
1.45791
1.45322
1.44673
1.43856
1.42883
1.41767
1.40522
1.46235
1.45957
1.4549
1.44843
1.44028
1.43057
1.41944
1.407
1.46385
1.46108
1.45643
1.44998
1.44185
1.43217
1.42107
1.40866
1.4652
1.46243
1.4578
1.45138
1.44328
1.43364
1.42256
1.41019
1.46638
1.46362
1.45901
1.45261
1.44455
1.43494
1.42391
1.41157
1.46738
1.46464
1.46005
1.45368
1.44565
1.43607
1.42507
1.41277
1.46821
1.46548
1.46091
1.45456
1.44655
1.437
1.42604
1.41377
2.71871
2.53223
2.34032
2.15531
1.99012
1.85614
1.76051
1.70459
1.68453
1.69325
1.72264
1.76497
1.81348
1.86243
1.90677
2.60029
2.42147
2.24605
2.08279
1.94068
1.82715
1.74639
1.69862
1.68061
1.68702
1.7117
1.74874
1.7928
1.83941
1.8849
2.48641
2.32041
2.16196
2.01777
1.89446
1.79716
1.72848
1.68809
1.67319
1.67942
1.70183
1.73562
1.77637
1.82042
1.86489
2.38013
2.22796
2.08529
1.95753
1.84981
1.76591
1.70753
1.67404
1.66289
1.6703
1.69213
1.72421
1.76277
1.80471
1.84764
2.28153
2.1426
2.01406
1.90048
1.80603
1.73364
1.68441
1.65749
1.65048
1.65998
1.68235
1.71383
1.75112
1.79154
1.83304
2.18973
2.06295
1.94698
1.84581
1.76296
1.70077
1.65991
1.63934
1.63669
1.64889
1.67249
1.70413
1.74086
1.7803
1.82068
2.10374
1.98798
1.88324
1.79314
1.72071
1.66783
1.63479
1.62035
1.62221
1.63741
1.66268
1.69496
1.73162
1.77054
1.81012
2.02271
1.91698
1.82244
1.7424
1.67955
1.63532
1.60967
1.60117
1.60758
1.62588
1.65304
1.68626
1.72318
1.76189
1.80097
1.94604
1.84953
1.7644
1.69371
1.6398
1.60371
1.58506
1.58237
1.59318
1.61457
1.64369
1.678
1.71538
1.7541
1.7929
1.87335
1.78543
1.70912
1.64724
1.60177
1.57338
1.56148
1.56431
1.57929
1.60365
1.63471
1.67017
1.7081
1.74697
1.78564
1.80441
1.72462
1.65669
1.6032
1.56576
1.54473
1.53923
1.54722
1.56612
1.59325
1.62617
1.66275
1.70127
1.74035
1.779
1.73914
1.66714
1.60724
1.56178
1.53201
1.51803
1.5185
1.53126
1.55376
1.58346
1.61808
1.65571
1.6948
1.73413
1.77281
1.67755
1.61305
1.56092
1.52317
1.5008
1.4934
1.49938
1.5165
1.54226
1.57428
1.61044
1.64903
1.68864
1.72821
1.76695
1.61967
1.56247
1.51785
1.48757
1.47218
1.47088
1.48191
1.50296
1.53164
1.56571
1.60324
1.64265
1.68272
1.72249
1.76129
1.56557
1.5155
1.47819
1.45504
1.44616
1.45046
1.46604
1.49061
1.52187
1.55772
1.59641
1.63653
1.67698
1.71692
1.75577
1.51535
1.47224
1.44198
1.42554
1.42266
1.43205
1.4517
1.47937
1.51287
1.55026
1.58993
1.63063
1.67137
1.71143
1.7503
1.46907
1.43274
1.40918
1.39898
1.4016
1.41555
1.4388
1.46917
1.50459
1.54326
1.58374
1.62488
1.66583
1.70596
1.74481
1.42677
1.39694
1.37967
1.37522
1.38281
1.40082
1.42722
1.4599
1.49693
1.53666
1.57777
1.61924
1.66032
1.70045
1.73926
1.38838
1.36472
1.3533
1.35411
1.36613
1.3877
1.41681
1.45145
1.48981
1.53039
1.57197
1.61366
1.65478
1.69486
1.73359
1.35381
1.33594
1.3299
1.33543
1.35138
1.37604
1.40745
1.44371
1.48315
1.52437
1.56628
1.60807
1.64917
1.68915
1.72777
1.3229
1.3104
1.30926
1.319
1.33837
1.36566
1.399
1.43658
1.47686
1.51854
1.56065
1.60246
1.64345
1.68328
1.72174
1.29548
1.2879
1.29115
1.30458
1.32691
1.35642
1.39133
1.42996
1.47086
1.51284
1.55503
1.59676
1.63759
1.67722
1.71549
1.27132
1.2682
1.27534
1.29198
1.31681
1.34816
1.38433
1.42375
1.46507
1.50722
1.54937
1.59094
1.63155
1.67094
1.70899
1.2502
1.25106
1.2616
1.28099
1.3079
1.34074
1.37789
1.41787
1.45945
1.50162
1.54364
1.58498
1.62531
1.66442
1.70221
1.23186
1.23624
1.24972
1.27142
1.30003
1.33403
1.3719
1.41225
1.45392
1.496
1.53779
1.57884
1.61884
1.65764
1.69514
1.21607
1.2235
1.23948
1.26309
1.29306
1.32793
1.36628
1.40681
1.44844
1.49032
1.53182
1.57251
1.61214
1.65057
1.68776
1.20257
1.21263
1.23069
1.25584
1.28685
1.32233
1.36096
1.40151
1.44297
1.48455
1.52568
1.56596
1.60518
1.64322
1.68007
1.19113
1.20341
1.22317
1.24952
1.28128
1.31715
1.35586
1.39628
1.43746
1.47867
1.51936
1.55919
1.59795
1.63558
1.67205
1.18153
1.19565
1.21677
1.24401
1.27627
1.3123
1.35094
1.3911
1.4319
1.47265
1.51285
1.55218
1.59046
1.62763
1.66371
1.17358
1.18918
1.21133
1.2392
1.27172
1.30774
1.34614
1.38593
1.42626
1.46649
1.50614
1.54492
1.58268
1.61938
1.65504
1.16708
1.18385
1.20675
1.23499
1.26756
1.30339
1.34143
1.38074
1.42052
1.46016
1.49922
1.53742
1.57464
1.61084
1.64605
1.16188
1.17953
1.20291
1.23129
1.26373
1.29923
1.33679
1.37551
1.41467
1.45366
1.49208
1.52967
1.56632
1.60199
1.63675
1.15784
1.17609
1.19972
1.22805
1.26019
1.29521
1.33217
1.37024
1.4087
1.447
1.48474
1.52169
1.55773
1.59286
1.62713
1.15481
1.17343
1.19711
1.2252
1.25689
1.29131
1.32758
1.3649
1.40261
1.44016
1.47719
1.51346
1.54888
1.58345
1.61722
1.1527
1.17148
1.195
1.22269
1.2538
1.2875
1.32299
1.3595
1.39639
1.43316
1.46944
1.50501
1.53978
1.57376
1.60701
1.15141
1.17015
1.19335
1.2205
1.25089
1.28379
1.3184
1.35403
1.39006
1.426
1.4615
1.49634
1.53045
1.56382
1.59653
1.15086
1.16938
1.19211
1.21858
1.24816
1.28014
1.31382
1.3485
1.38362
1.41869
1.45337
1.48746
1.52088
1.55363
1.58578
1.15097
1.16913
1.19125
1.21692
1.24558
1.27657
1.30923
1.34292
1.37707
1.41123
1.44507
1.47839
1.5111
1.54321
1.57479
1.15168
1.16934
1.19074
1.21551
1.24314
1.27307
1.30465
1.33728
1.37043
1.40365
1.43662
1.46914
1.50113
1.53258
1.56357
1.15295
1.16999
1.19055
1.21432
1.24086
1.26964
1.30008
1.33161
1.36371
1.39596
1.42803
1.45973
1.49097
1.52174
1.55213
1.15473
1.17104
1.19066
1.21335
1.23872
1.26629
1.29553
1.32591
1.35693
1.38817
1.41932
1.45017
1.48064
1.51073
1.54049
1.15699
1.17247
1.19107
1.2126
1.23672
1.26303
1.29102
1.3202
1.3501
1.3803
1.41049
1.44048
1.47017
1.49955
1.52868
1.15967
1.17426
1.19176
1.21206
1.23488
1.25986
1.28656
1.3145
1.34323
1.37236
1.40158
1.43068
1.45957
1.48823
1.5167
1.16277
1.17638
1.19272
1.21173
1.2332
1.2568
1.28216
1.30882
1.33635
1.36438
1.3926
1.42079
1.44886
1.47678
1.50459
1.16624
1.17881
1.19395
1.21162
1.23168
1.25386
1.27783
1.30317
1.32947
1.35637
1.38356
1.41083
1.43806
1.46523
1.49236
1.17007
1.18156
1.19543
1.21171
1.23032
1.25105
1.27359
1.29758
1.32262
1.34836
1.37449
1.40081
1.42719
1.45358
1.48002
1.17423
1.18459
1.19716
1.21203
1.22915
1.24838
1.26946
1.29206
1.31581
1.34036
1.36542
1.39076
1.41627
1.44187
1.4676
1.17868
1.18789
1.19914
1.21255
1.22816
1.24587
1.26546
1.28663
1.30905
1.33239
1.35635
1.3807
1.40531
1.43012
1.45512
1.18343
1.19145
1.20135
1.2133
1.22737
1.24352
1.26158
1.28131
1.30238
1.32447
1.3473
1.37065
1.39434
1.41833
1.44259
1.18842
1.19526
1.20379
1.21425
1.22676
1.24134
1.25786
1.27611
1.2958
1.31663
1.33831
1.36062
1.38339
1.40654
1.43004
1.19365
1.19929
1.20645
1.21542
1.22636
1.23935
1.2543
1.27105
1.28934
1.30887
1.32938
1.35063
1.37245
1.39475
1.41749
1.1991
1.20353
1.20933
1.2168
1.22616
1.23754
1.25092
1.26615
1.28301
1.30123
1.32054
1.34071
1.36157
1.383
1.40495
1.20472
1.20796
1.2124
1.21837
1.22617
1.23594
1.24772
1.26141
1.27683
1.29371
1.31181
1.33088
1.35075
1.37129
1.39245
1.21051
1.21257
1.21565
1.22015
1.22637
1.23454
1.24471
1.25686
1.27081
1.28634
1.3032
1.32115
1.34001
1.35965
1.37999
1.21644
1.21733
1.21908
1.22212
1.22678
1.23334
1.24191
1.2525
1.26497
1.27913
1.29473
1.31154
1.32938
1.3481
1.36761
1.22248
1.22222
1.22267
1.22427
1.22739
1.23235
1.23932
1.24834
1.25932
1.27209
1.28641
1.30207
1.31887
1.33665
1.35532
1.22861
1.22723
1.22641
1.22659
1.22819
1.23157
1.23695
1.2444
1.25388
1.26524
1.27827
1.29275
1.30849
1.32532
1.34312
1.2348
1.23234
1.23027
1.22906
1.22918
1.231
1.23479
1.24068
1.24865
1.2586
1.27032
1.28361
1.29827
1.31412
1.33105
1.24104
1.23752
1.23424
1.23169
1.23035
1.23063
1.23285
1.23718
1.24365
1.25217
1.26257
1.27465
1.28821
1.30308
1.31912
1.24729
1.24276
1.23831
1.23445
1.23168
1.23046
1.23113
1.23392
1.23888
1.24596
1.25503
1.26589
1.27834
1.29221
1.30734
1.25355
1.24803
1.24246
1.23733
1.23318
1.23048
1.22963
1.23088
1.23435
1.24
1.24772
1.25734
1.26867
1.28152
1.29573
1.25978
1.25332
1.24667
1.24032
1.23483
1.2307
1.22835
1.22809
1.23005
1.23427
1.24065
1.24902
1.25921
1.27102
1.2843
1.26597
1.25861
1.25092
1.2434
1.23661
1.23108
1.22727
1.22552
1.22601
1.2288
1.23382
1.24094
1.24997
1.26073
1.27306
1.2721
1.26388
1.2552
1.24656
1.23852
1.23164
1.22641
1.22319
1.22221
1.22358
1.22725
1.2331
1.24097
1.25067
1.26203
1.27815
1.26911
1.25949
1.24977
1.24054
1.23236
1.22573
1.22108
1.21867
1.21862
1.22093
1.22551
1.23221
1.24083
1.25122
1.2841
1.2743
1.26377
1.25304
1.24266
1.23322
1.22525
1.2192
1.21536
1.21392
1.21488
1.21819
1.2237
1.23124
1.24064
1.28995
1.27941
1.26804
1.25634
1.24486
1.23422
1.22495
1.21753
1.21231
1.20948
1.2091
1.21114
1.21546
1.2219
1.23029
1.29568
1.28445
1.27228
1.25965
1.24714
1.23534
1.22482
1.21608
1.20949
1.2053
1.20359
1.20435
1.20748
1.21283
1.2202
1.30128
1.2894
1.27647
1.26297
1.24947
1.23657
1.22485
1.21483
1.20691
1.20138
1.19835
1.19785
1.19979
1.20402
1.21037
1.30674
1.29424
1.2806
1.26629
1.25186
1.2379
1.22503
1.21377
1.20456
1.19771
1.19339
1.19163
1.19237
1.19548
1.2008
1.31204
1.29897
1.28467
1.26959
1.25427
1.23932
1.22535
1.2129
1.20244
1.1943
1.18869
1.18568
1.18523
1.18722
1.1915
1.31719
1.30359
1.28866
1.27285
1.25671
1.24082
1.22579
1.2122
1.20053
1.19114
1.18427
1.18002
1.17838
1.17925
1.18248
1.32218
1.30808
1.29257
1.27608
1.25916
1.24238
1.22635
1.21167
1.19882
1.18821
1.18011
1.17464
1.17181
1.17156
1.17374
1.32701
1.31243
1.29638
1.27926
1.26161
1.24399
1.22702
1.21129
1.19731
1.18552
1.17621
1.16953
1.16553
1.16416
1.16529
1.33166
1.31665
1.30009
1.28239
1.26405
1.24564
1.22778
1.21105
1.19599
1.18306
1.17256
1.1647
1.15954
1.15705
1.15712
1.33615
1.32073
1.3037
1.28545
1.26647
1.24733
1.22862
1.21094
1.19485
1.18081
1.16916
1.16014
1.15383
1.15023
1.14925
1.34046
1.32467
1.3072
1.28844
1.26887
1.24903
1.22953
1.21096
1.19388
1.17877
1.16601
1.15584
1.1484
1.1437
1.14166
1.3446
1.32846
1.31059
1.29136
1.27124
1.25075
1.2305
1.21108
1.19306
1.17692
1.16308
1.15181
1.14325
1.13745
1.13436
1.34857
1.33211
1.31386
1.2942
1.27356
1.25248
1.23153
1.21131
1.19238
1.17527
1.16038
1.14802
1.13837
1.13149
1.12736
1.35237
1.33561
1.31702
1.29695
1.27584
1.2542
1.2326
1.21162
1.19184
1.17379
1.15789
1.14448
1.13376
1.12581
1.12064
1.356
1.33897
1.32006
1.29962
1.27807
1.25591
1.2337
1.21201
1.19143
1.17248
1.15561
1.14118
1.1294
1.12041
1.1142
1.35947
1.34218
1.32298
1.3022
1.28025
1.25761
1.23483
1.21248
1.19113
1.17133
1.15353
1.1381
1.1253
1.11527
1.10804
1.36278
1.34526
1.32579
1.30469
1.28237
1.25928
1.23597
1.213
1.19094
1.17032
1.15163
1.13524
1.12144
1.1104
1.10216
1.36593
1.3482
1.32848
1.3071
1.28443
1.26093
1.23713
1.21358
1.19084
1.16945
1.1499
1.13259
1.11783
1.10578
1.09655
1.36893
1.35101
1.33106
1.30941
1.28643
1.26256
1.2383
1.21421
1.19083
1.16871
1.14835
1.13015
1.11443
1.10142
1.09121
1.37179
1.35368
1.33353
1.31164
1.28836
1.26414
1.23947
1.21487
1.1909
1.16809
1.14694
1.12789
1.11126
1.0973
1.08612
1.3745
1.35623
1.33589
1.31378
1.29024
1.2657
1.24064
1.21557
1.19104
1.16758
1.14569
1.12582
1.1083
1.09341
1.08129
1.37708
1.35866
1.33815
1.31583
1.29205
1.26722
1.2418
1.2163
1.19124
1.16717
1.14458
1.12391
1.10555
1.08976
1.07671
1.37953
1.36097
1.34031
1.3178
1.29381
1.26871
1.24296
1.21705
1.19151
1.16686
1.1436
1.12218
1.10299
1.08632
1.07236
1.38185
1.36318
1.34237
1.3197
1.2955
1.27016
1.24411
1.21783
1.19183
1.16664
1.14274
1.12061
1.10063
1.0831
1.06825
1.38406
1.36527
1.34434
1.32152
1.29715
1.27158
1.24526
1.21863
1.19221
1.16651
1.14202
1.1192
1.09845
1.0801
1.06438
1.38615
1.36727
1.34622
1.32328
1.29874
1.27298
1.24641
1.21947
1.19266
1.16647
1.14142
1.11795
1.09647
1.07732
1.06075
1.38813
1.36917
1.34803
1.32497
1.3003
1.27436
1.24756
1.22034
1.19317
1.16655
1.14096
1.11687
1.09469
1.07478
1.05738
1.39001
1.37098
1.34976
1.3266
1.30181
1.27573
1.24873
1.22126
1.19376
1.16674
1.14066
1.11598
1.09314
1.07248
1.05428
1.39178
1.37269
1.35141
1.32818
1.3033
1.27709
1.24993
1.22224
1.19446
1.16707
1.14053
1.11532
1.09185
1.07048
1.05151
1.39344
1.37432
1.35299
1.32971
1.30476
1.27846
1.25117
1.2233
1.19528
1.16757
1.14063
1.11493
1.09087
1.06884
1.04914
1.39498
1.37584
1.35448
1.33117
1.30619
1.27983
1.25246
1.22446
1.19625
1.16828
1.141
1.11487
1.09029
1.06766
1.04728
1.39638
1.37723
1.35587
1.33256
1.30757
1.2812
1.25378
1.22571
1.19738
1.16922
1.14169
1.11521
1.09021
1.06706
1.0461
1.39761
1.37847
1.35712
1.33383
1.30886
1.28251
1.25511
1.22702
1.19865
1.1704
1.14271
1.116
1.0907
1.06718
1.04577
1.39863
1.37949
1.35816
1.3349
1.30998
1.28368
1.25634
1.2283
1.19996
1.17171
1.14399
1.1172
1.09177
1.06806
1.04641
1.94724
1.97488
1.99933
2.02131
2.04069
2.05705
2.06987
2.07872
2.08341
2.0841
2.08141
2.07647
2.07094
2.06686
2.06646
2.07181
2.08434
2.10445
2.13138
2.16352
2.19907
2.23677
2.27619
2.31755
2.36126
2.40748
2.45589
2.50576
2.55602
2.60552
2.65308
2.69768
2.73842
2.77462
2.80573
2.83139
2.85134
2.86541
2.87347
2.87541
1.92405
1.95486
1.98279
2.00793
2.03004
2.0487
2.06351
2.0742
2.08073
2.08344
2.08306
2.08079
2.07824
2.07733
2.08004
2.08813
2.10269
2.12387
2.15086
2.18218
2.21634
2.25238
2.29006
2.32963
2.37145
2.41561
2.46177
2.50919
2.55685
2.60365
2.6485
2.69041
2.72857
2.76233
2.79122
2.8149
2.83315
2.84586
2.85291
2.85426
1.90425
1.93755
1.96822
1.99597
2.0204
2.04108
2.05771
2.07012
2.07844
2.08312
2.08498
2.08524
2.08546
2.0874
2.09284
2.10323
2.11939
2.1413
2.16811
2.19854
2.23134
2.26581
2.30183
2.33969
2.37969
2.42186
2.46584
2.51088
2.55602
2.6002
2.64241
2.68172
2.71739
2.74881
2.77556
2.79735
2.814
2.82542
2.83155
2.83237
1.8873
1.92269
1.95559
1.98546
2.01181
2.03423
2.05246
2.06646
2.07646
2.08301
2.08697
2.08958
2.09232
2.09681
2.1046
2.1169
2.1343
2.15664
2.18312
2.21259
2.24407
2.27704
2.31149
2.34771
2.38596
2.42619
2.46803
2.51075
2.55344
2.59508
2.63473
2.67153
2.70479
2.73396
2.75866
2.77864
2.79376
2.80396
2.80922
2.80954
1.87289
1.90999
1.94466
1.97623
2.00415
2.02802
2.04766
2.0631
2.07466
2.08295
2.08888
2.09365
2.09866
2.10539
2.11518
2.12904
2.14736
2.1699
2.19591
2.2244
2.2546
2.28615
2.3191
2.35375
2.39029
2.42864
2.4684
2.50887
2.54916
2.58834
2.62551
2.65989
2.69082
2.71782
2.74056
2.75881
2.77248
2.78154
2.78598
2.78582
1.86065
1.8991
1.93516
1.96807
1.99724
2.02233
2.04318
2.05991
2.07291
2.08281
2.09055
2.09729
2.10433
2.11301
2.12449
2.13959
2.15856
2.18111
2.20654
2.23405
2.26301
2.2932
2.32473
2.35786
2.39274
2.42926
2.467
2.50527
2.54325
2.58004
2.61482
2.64686
2.67555
2.70048
2.72133
2.73794
2.75023
2.7582
2.76187
2.76126
1.8502
1.8897
1.92682
1.96076
1.99093
2.01701
2.03891
2.05679
2.07109
2.08247
2.09186
2.10037
2.1092
2.11956
2.13245
2.14851
2.1679
2.1903
2.2151
2.24161
2.26938
2.29827
2.32844
2.3601
2.39338
2.42811
2.46389
2.50003
2.53576
2.57025
2.60272
2.6325
2.65905
2.68198
2.70104
2.71608
2.72707
2.73401
2.73695
2.73593
1.84116
1.88146
1.91938
1.9541
1.98505
2.01193
2.03472
2.05363
2.0691
2.08183
2.0927
2.10278
2.11318
2.12497
2.139
2.15579
2.1754
2.19753
2.22164
2.24717
2.27379
2.30144
2.33029
2.36054
2.39226
2.42526
2.45913
2.49321
2.52677
2.55904
2.58929
2.6169
2.64139
2.66241
2.67975
2.69331
2.70305
2.70903
2.71129
2.70989
1.83322
1.87413
1.91262
1.9479
1.97944
2.00698
2.03053
2.05032
2.06684
2.08077
2.09297
2.10444
2.11619
2.12917
2.14412
2.16141
2.1811
2.20286
2.22624
2.25081
2.27632
2.30279
2.33038
2.35926
2.38946
2.42078
2.45279
2.48488
2.51635
2.54647
2.57458
2.60011
2.62263
2.64183
2.65754
2.66968
2.67825
2.68331
2.68494
2.68319
1.8261
1.86745
1.90634
1.94202
1.97399
2.00205
2.02622
2.04679
2.06423
2.07922
2.09259
2.10526
2.11817
2.13213
2.14777
2.16541
2.18503
2.20635
2.22899
2.25261
2.27706
2.30239
2.32876
2.35632
2.38504
2.41473
2.44495
2.47511
2.50455
2.53261
2.55867
2.58221
2.60284
2.62031
2.63446
2.64526
2.65272
2.65693
2.65797
2.6559
1.81959
1.86124
1.90038
1.93631
1.96858
1.99703
2.02173
2.04295
2.0612
2.07712
2.0915
2.1052
2.11907
2.13382
2.14998
2.1678
2.18725
2.20808
2.22996
2.25267
2.2761
2.30034
2.32553
2.35179
2.37909
2.40719
2.43567
2.46397
2.49146
2.51754
2.54163
2.56326
2.5821
2.59791
2.61059
2.62011
2.62653
2.62994
2.63043
2.62808
1.81351
1.85534
1.89461
1.93067
1.96313
1.99186
2.01697
2.03875
2.05768
2.0744
2.08965
2.10422
2.11887
2.13423
2.15076
2.16864
2.18783
2.20811
2.22925
2.25106
2.27351
2.2967
2.32075
2.34576
2.37167
2.39823
2.42503
2.45153
2.47715
2.50132
2.52353
2.54334
2.56046
2.5747
2.58598
2.59431
2.59975
2.60241
2.60239
2.59978
1.80773
1.84963
1.88891
1.92499
1.95754
1.98647
2.01189
2.03412
2.05363
2.07102
2.087
2.10228
2.11756
2.13338
2.15013
2.16796
2.18682
2.20655
2.22694
2.24788
2.26939
2.29155
2.31451
2.33831
2.36286
2.38793
2.4131
2.43787
2.46169
2.48404
2.50444
2.52251
2.538
2.55075
2.56071
2.5679
2.57243
2.57439
2.5739
2.57107
1.80212
1.84399
1.88319
1.91921
1.95177
1.9808