/*--------------------------------*- C++ -*----------------------------------*\
| =========                 |                                                 |
| \\      /  F ield         | OpenFOAM: The Open Source CFD Toolbox           |
|  \\    /   O peration     | Version:  2206                                  |
|   \\  /    A nd           | Website:  www.openfoam.com                      |
|    \\/     M anipulation  |                                                 |
\*---------------------------------------------------------------------------*/
FoamFile
{
    version     2.0;
    format      ascii;
    arch        "LSB;label=32;scalar=64";
    class       volScalarField;
    location    "300";
    object      p;
}
// * * * * * * * * * * * * * * * * * * * * * * * * * * * * * * * * * * * * * //

dimensions      [0 2 -2 0 0 0 0];

internalField   nonuniform List<scalar> 
12940
(
766.446
754.702
755.094
753.94
752.586
751.264
749.959
748.675
762.132
756.284
756.284
754.351
752.735
751.31
749.957
748.656
760.401
756.839
756.579
754.45
752.788
751.285
749.885
748.57
759.771
757.112
756.305
754.235
752.653
751.13
749.709
748.4
758.779
756.86
755.66
753.757
752.297
750.826
749.43
748.149
756.997
755.791
754.566
752.963
751.686
750.354
749.051
747.83
754.588
754.015
753.102
751.901
750.866
749.737
748.588
747.467
752.05
752.005
751.554
750.758
749.977
749.066
748.093
747.096
749.933
750.291
750.244
749.76
749.188
748.462
747.643
746.768
748.53
749.15
749.351
749.059
748.622
748.024
747.316
746.536
747.823
748.558
748.879
748.695
748.327
747.801
747.157
746.438
747.631
748.362
748.736
748.628
748.291
747.796
747.181
746.494
747.768
748.43
748.828
748.789
748.474
747.991
747.383
746.708
748.107
748.684
749.085
749.113
748.831
748.357
747.747
747.073
748.576
749.076
749.467
749.552
749.322
748.866
748.255
747.58
749.134
749.576
749.946
750.077
749.912
749.492
748.889
748.217
749.753
750.154
750.505
750.671
750.576
750.212
749.633
748.972
750.403
750.783
751.127
751.321
751.296
751.006
750.47
749.835
751.053
751.436
751.791
752.02
752.063
751.859
751.389
750.796
751.663
752.078
752.472
752.754
752.871
752.762
752.377
751.845
752.185
752.664
753.13
753.497
753.708
753.705
753.426
752.974
752.571
753.143
753.714
754.204
754.546
754.674
754.523
754.173
752.783
753.467
754.161
754.805
755.322
755.625
755.641
755.422
752.8
753.601
754.417
755.221
755.941
756.469
756.708
756.662
752.62
753.533
754.452
755.388
756.3
757.072
757.583
757.761
752.258
753.273
754.271
755.29
756.332
757.309
758.089
758.508
751.742
752.846
753.907
754.96
756.051
757.133
758.096
758.716
751.116
752.296
753.406
754.467
755.543
756.624
757.628
758.343
750.44
751.679
752.83
753.884
754.915
755.926
756.861
757.548
749.793
751.069
752.247
753.285
754.259
755.177
755.993
756.566
749.266
750.551
751.738
752.75
753.661
754.485
755.174
755.582
748.955
750.214
751.381
752.354
753.202
753.939
754.508
754.713
748.944
750.132
751.244
752.162
752.948
753.615
754.081
754.046
749.29
750.354
751.37
752.217
752.947
753.572
753.968
753.671
749.991
750.877
751.755
752.522
753.216
753.842
754.227
753.691
750.968
751.628
752.338
753.029
753.721
754.417
754.89
754.228
752.034
752.447
752.98
753.614
754.353
755.205
755.916
755.412
752.899
753.088
753.463
754.067
754.897
755.979
757.106
757.267
753.217
753.251
753.508
754.085
754.989
756.276
757.889
759.252
752.705
752.685
752.867
753.373
754.215
755.465
757.176
759.439
751.437
751.433
751.53
751.82
752.257
752.776
753.129
752.6
749.961
750.019
750.098
750.267
750.475
750.621
750.442
749.688
748.218
748.35
748.44
748.546
748.635
748.634
748.388
747.849
746.291
746.492
746.605
746.677
746.699
746.631
746.391
745.949
744.242
744.501
744.64
744.694
744.676
744.574
744.361
744.005
742.119
742.425
742.584
742.62
742.563
742.429
742.236
741.945
739.969
740.311
740.476
740.478
740.36
740.163
739.949
739.667
737.85
738.211
738.362
738.299
738.075
737.744
737.402
736.984
735.844
736.196
736.3
736.132
735.732
735.117
734.289
733.157
734.045
734.346
734.37
734.068
733.427
732.32
730.275
726.69
732.338
732.525
732.463
732.115
731.479
730.499
728.85
725.423
730.901
730.916
730.77
730.487
730.084
729.572
728.828
727.482
729.633
729.433
729.17
728.937
728.742
728.603
728.466
728.123
728.217
727.796
727.405
727.21
727.189
727.344
727.617
727.824
726.327
725.708
725.203
725.048
725.196
725.62
726.248
726.928
723.64
722.864
722.281
722.196
722.537
723.256
724.272
725.504
719.814
718.947
718.344
718.378
718.963
720.041
721.549
723.551
714.49
713.622
713.079
713.283
714.161
715.669
717.818
720.966
707.315
706.569
706.166
706.568
707.744
709.735
712.773
717.791
698.055
697.568
697.379
697.948
699.355
701.832
705.912
712.992
686.68
686.5
686.369
686.602
687.159
687.97
688.653
687.595
673.936
674.084
674.079
674.121
674.144
673.919
672.862
670.706
660.428
660.84
660.993
661.021
660.912
660.526
659.574
658.173
646.471
647.045
647.316
647.373
647.24
646.858
646.084
644.955
632.208
632.858
633.2
633.296
633.192
632.865
632.241
631.315
617.677
618.343
618.716
618.844
618.776
618.509
617.995
617.211
602.878
603.525
603.902
604.047
604.008
603.788
603.349
602.66
587.808
588.417
588.78
588.93
588.91
588.724
588.337
587.716
572.466
573.03
573.37
573.516
573.507
573.345
572.998
572.434
556.863
557.379
557.692
557.829
557.825
557.682
557.368
556.856
541.015
541.481
541.764
541.891
541.89
541.762
541.479
541.015
524.939
525.357
525.611
525.725
525.725
525.611
525.358
524.942
508.66
509.029
509.254
509.354
509.355
509.254
509.03
508.662
492.198
492.519
492.715
492.803
492.803
492.716
492.521
492.2
475.579
475.852
476.019
476.094
476.094
476.02
475.853
475.579
458.824
459.05
459.189
459.25
459.251
459.189
459.051
458.824
441.957
442.137
442.246
442.295
442.296
442.247
442.137
441.957
425.002
425.135
425.216
425.252
425.252
425.216
425.135
425.002
407.981
408.067
408.12
408.143
408.143
408.12
408.067
407.981
390.918
390.957
390.981
390.992
390.992
390.981
390.957
390.918
373.835
373.828
373.823
373.821
373.821
373.823
373.828
373.835
356.756
356.702
356.669
356.654
356.654
356.669
356.702
356.756
339.704
339.603
339.541
339.513
339.513
339.541
339.603
339.704
322.703
322.554
322.463
322.422
322.422
322.463
322.554
322.703
305.776
305.579
305.458
305.404
305.404
305.458
305.578
305.776
288.947
288.701
288.551
288.483
288.483
288.55
288.7
288.946
272.24
271.944
271.764
271.683
271.683
271.763
271.943
272.238
255.679
255.333
255.122
255.027
255.027
255.121
255.332
255.677
239.29
238.892
238.649
238.541
238.541
238.649
238.891
239.288
223.097
222.646
222.371
222.249
222.25
222.373
222.648
223.098
207.125
206.619
206.312
206.177
206.18
206.321
206.63
207.135
191.396
190.836
190.497
190.351
190.359
190.519
190.867
191.43
175.931
175.317
174.95
174.797
174.814
175.001
175.393
176.023
160.744
160.083
159.695
159.542
159.576
159.797
160.248
160.959
145.844
145.151
144.758
144.615
144.675
144.943
145.476
146.296
131.232
130.542
130.169
130.049
130.139
130.467
131.116
132.098
116.917
116.286
115.972
115.882
115.993
116.374
117.182
118.391
102.941
102.455
102.247
102.178
102.259
102.64
103.636
105.151
89.4422
89.208
89.1525
89.0681
89.0141
89.2338
90.3444
92.6356
76.716
76.813
76.8962
76.6401
76.079
75.3173
74.8018
76.0457
65.3334
65.7674
65.9512
65.412
64.0852
61.8251
58.2435
51.6854
55.9916
56.7415
57.176
56.8075
55.6659
53.7393
50.7869
45.7136
48.7174
49.6746
50.3152
50.171
49.3212
47.8222
45.6071
42.0899
43.324
44.3867
45.1658
45.2309
44.6778
43.58
41.9534
39.5225
39.5101
40.5997
41.4485
41.673
41.3676
40.6027
39.4315
37.7897
36.9657
38.0293
38.8919
39.2189
39.0954
38.58
37.7437
36.6645
35.4189
36.4239
37.2604
37.6409
37.6389
37.2999
36.7016
36.0204
34.6476
35.5755
36.3595
36.7559
36.8272
36.607
36.175
35.7728
34.476
35.3169
36.0319
36.4172
36.5255
36.3812
36.062
35.8515
34.7664
35.5156
36.1522
36.5076
36.6266
36.5263
36.2812
36.1967
35.4104
36.0665
36.6199
36.9333
37.0445
36.9651
36.7647
36.7576
36.3224
36.8862
37.3545
37.6179
37.7083
37.6332
37.4568
37.4908
37.4348
37.9083
38.292
38.5009
38.5619
38.4794
38.3113
38.3604
38.6943
39.0806
39.3819
39.5342
39.5603
39.462
39.2912
39.3365
40.0583
40.3608
40.5826
40.6783
40.6663
40.5468
40.3656
40.3946
41.4926
41.7151
41.8611
41.9011
41.8497
41.7057
41.5091
41.5136
42.9701
43.1167
43.1909
43.177
43.0861
42.9158
42.7011
42.6764
44.4693
44.5441
44.5506
44.4853
44.3558
44.159
43.9247
43.8687
45.9729
45.98
45.9233
45.8095
45.6433
45.4204
45.1662
45.0781
47.4672
47.4108
47.2951
47.1362
46.9354
46.6878
46.4143
46.2946
48.941
48.8252
48.6551
48.4544
48.2217
47.951
47.6596
47.51
50.3849
50.2142
49.994
49.7552
49.4933
49.2019
48.8943
48.7166
51.7914
51.57
51.3043
51.031
50.7431
50.4334
50.1116
49.908
53.1539
52.8864
52.5795
52.2756
51.9649
51.6393
51.3052
51.0779
54.4667
54.1575
53.814
53.4832
53.1527
52.8137
52.4694
52.2208
55.7247
55.3785
55.0028
54.6487
54.3014
53.9512
53.5987
53.331
56.9232
56.5447
56.1411
55.7671
55.4058
55.0468
54.688
54.4034
58.058
57.6517
57.2242
56.8337
56.4612
56.0956
55.7322
55.4328
59.125
58.6953
58.248
57.8443
57.463
57.0928
56.7266
56.4142
60.1205
59.6718
59.2086
58.7946
58.4071
58.034
57.6664
57.3431
61.0413
60.5778
60.1023
59.6807
59.2892
58.915
58.5474
58.2149
61.8842
61.4098
60.9255
60.4991
60.1056
59.7317
59.3655
59.0256
62.6466
62.165
61.6751
61.2463
60.8527
60.4807
60.1169
59.7713
63.3261
62.8409
62.3483
61.9194
61.5274
61.1585
60.7984
60.4487
63.9208
63.4352
62.9428
62.5158
62.127
61.7623
61.4069
61.0547
64.4292
63.9461
63.4565
63.0332
62.6491
62.2898
61.9399
61.5869
64.8501
64.3722
63.8877
63.47
63.0918
62.7389
62.3955
62.043
65.183
64.7127
64.2354
63.8249
63.4538
63.1082
62.772
62.4215
65.4275
64.9671
64.499
64.0969
63.734
63.3965
63.0683
62.7212
65.5839
65.1354
64.678
64.2857
63.932
63.6033
63.2839
62.9413
65.6529
65.2178
64.7728
64.3914
64.0477
63.7284
63.4183
63.0815
65.6355
65.2154
64.784
64.4143
64.0814
63.7721
63.4719
63.142
65.5331
65.1291
64.7125
64.3554
64.0338
63.7351
63.4452
63.1232
65.3474
64.9606
64.5596
64.2159
63.9062
63.6184
63.3392
63.0259
65.0805
64.7117
64.3272
63.9972
63.6999
63.4233
63.1552
62.8514
64.7348
64.3845
64.017
63.7014
63.4166
63.1516
62.8947
62.6011
64.3127
63.9814
63.6314
63.3304
63.0585
62.8052
62.5597
62.2768
63.8172
63.5051
63.1728
62.8866
62.6277
62.3862
62.1523
61.8805
63.2511
62.9583
62.6439
62.3726
62.1268
61.8972
61.6748
61.4145
62.6175
62.3439
62.0475
61.7911
61.5584
61.3405
61.1297
60.8811
61.9196
61.665
61.3865
61.1449
60.9253
60.7191
60.5197
60.283
61.1606
60.9249
60.6639
60.4371
60.2303
60.0357
59.8476
59.6229
60.344
60.1266
59.883
59.6707
59.4765
59.2934
59.1163
58.9035
59.473
59.2734
59.0469
58.8487
58.667
58.495
58.3288
58.1279
58.5509
58.3686
58.1587
57.9744
57.8048
57.6437
57.4881
57.2989
57.5811
57.4155
57.2217
57.0508
56.893
56.7425
56.5972
56.4195
56.5668
56.4172
56.239
56.0812
55.9348
55.7946
55.6593
55.4928
55.5112
55.3769
55.2138
55.0685
54.9332
54.803
54.6772
54.5218
54.4176
54.2979
54.1491
54.0159
53.8913
53.7706
53.6542
53.5093
53.2889
53.1829
53.048
52.9264
52.812
52.7005
52.593
52.4585
52.128
52.0351
51.9133
51.8029
51.6982
51.5956
51.4966
51.372
50.9379
50.8573
50.748
50.6481
50.5528
50.4587
50.3678
50.2527
49.7212
49.6522
49.5547
49.4649
49.3785
49.2925
49.2093
49.1034
48.4806
48.4224
48.3362
48.2559
48.1779
48.0996
48.0239
47.9267
47.2185
47.1704
47.0947
47.0235
46.9536
46.8826
46.8139
46.725
45.9374
45.8986
45.8329
45.7702
45.7079
45.6439
45.5818
45.5009
44.6394
44.6093
44.553
44.4983
44.4432
44.3858
44.33
44.2566
43.3266
43.3046
43.257
43.2098
43.1616
43.1104
43.0606
42.9944
42.0011
41.9865
41.9471
41.907
41.8651
41.8199
41.7757
41.7163
40.6646
40.6569
40.6251
40.5916
40.5557
40.5161
40.4772
40.4242
39.319
39.3175
39.2928
39.2655
39.2353
39.2009
39.167
39.1201
37.9658
37.97
37.9518
37.9304
37.9054
37.876
37.8468
37.8056
36.6064
36.6158
36.6038
36.5877
36.5677
36.5429
36.5182
36.4823
35.2424
35.2565
35.25
35.2389
35.2235
35.2031
35.1825
35.1517
33.8748
33.8932
33.8919
33.8854
33.8743
33.8579
33.8413
33.8152
32.5049
32.5271
32.5305
32.5283
32.5212
32.5087
32.4957
32.474
31.1337
31.1593
31.167
31.1687
31.1653
31.1564
31.1468
31.1293
29.7621
29.7907
29.8024
29.8077
29.8077
29.8021
29.7957
29.7821
28.391
28.4223
28.4375
28.4461
28.4492
28.4467
28.4433
28.4334
27.0211
27.0547
27.0731
27.0846
27.0907
27.0911
27.0905
27.0839
25.653
25.6886
25.7099
25.7241
25.7328
25.7359
25.7378
25.7344
24.2874
24.3247
24.3485
24.3652
24.3763
24.3818
24.3861
24.3855
22.9246
22.9634
22.9894
23.0082
23.0215
23.0293
23.0358
23.0379
21.5652
21.6051
21.633
21.6538
21.669
21.6789
21.6874
21.6919
20.2094
20.2501
20.2798
20.3022
20.3192
20.331
20.3413
20.348
18.8575
18.8989
18.9299
18.9538
18.9724
18.9858
18.9978
19.0066
17.5097
17.5515
17.5837
17.6088
17.6288
17.6438
17.6572
17.6678
16.1662
16.2082
16.2413
16.2675
16.2886
16.3049
16.3197
16.3319
14.827
14.8691
14.9029
14.9299
14.952
14.9695
14.9855
14.999
13.4923
13.5343
13.5686
13.5962
13.6191
13.6376
13.6545
13.6693
12.1624
12.2041
12.2386
12.2666
12.2901
12.3093
12.327
12.3427
10.8372
10.8785
10.9132
10.9414
10.9652
10.9849
11.0029
11.0192
9.51695
9.55786
9.59255
9.62075
9.64452
9.66435
9.68245
9.69887
8.20205
8.24243
8.27694
8.30484
8.32831
8.3479
8.36566
8.38178
6.89295
6.93273
6.96685
6.9941
7.01679
7.03564
7.05255
7.06784
5.5905
5.62962
5.66303
5.68906
5.7103
5.72774
5.74314
5.757
4.29651
4.33474
4.36685
4.39076
4.4096
4.4247
4.43782
4.44958
3.01404
3.05023
3.07984
3.10005
3.11496
3.12644
3.13612
3.14446
1.74288
1.772
1.79401
1.8063
1.81404
1.8194
1.82348
1.82672
0.518055
0.531975
0.537681
0.539579
0.541184
0.543214
0.545814
0.551913
41.5553
35.3855
33.9374
31.6543
28.664
25.1204
20.9402
16.0938
10.6105
4.58116
-1.80158
-8.27635
-14.5464
-18.2753
-12.4031
41.8535
35.561
33.0123
30.4281
27.6521
24.6485
21.3084
17.5587
13.3546
8.6904
3.62454
-1.74503
-7.48341
-12.5792
-10.4424
39.3655
34.4023
32.1552
29.8588
27.4976
25.0266
22.3528
19.3967
16.0893
12.3824
8.27199
3.80653
-1.16639
-6.50052
-6.19443
37.2805
33.6435
31.8069
29.8684
27.9114
25.8826
23.6974
21.2801
18.562
15.4814
12.0144
8.18367
3.86552
-1.11212
-1.6315
35.8299
33.256
31.7839
30.2077
28.6236
26.9682
25.1684
23.1594
20.8796
18.271
15.3006
11.9753
8.19611
3.71723
2.79996
34.8771
33.1718
32.0377
30.7965
29.5331
28.1836
26.6892
24.9967
23.0532
20.814
18.2454
15.3419
12.0189
8.05045
7.02374
34.3638
33.3663
32.5295
31.574
30.5736
29.4691
28.215
26.7684
25.0913
23.144
20.9026
18.3527
15.4168
11.9182
10.9622
34.2375
33.8006
33.2105
32.4878
31.6972
30.7863
29.7208
28.4708
27.0062
25.2965
23.3237
21.0718
18.4655
15.3764
14.5755
34.4372
34.4296
34.0369
33.4991
32.873
32.1138
31.1978
30.1075
28.8147
27.3003
25.5507
23.5509
21.2272
18.4887
17.8626
34.9034
35.2133
34.9741
34.5796
34.0806
33.4403
32.647
31.6834
30.5321
29.1795
27.6164
25.8302
23.7496
21.3091
20.8456
35.5824
36.1175
35.9948
35.7089
35.3073
34.7639
34.0677
33.207
32.1723
30.9545
29.5478
27.9424
26.0708
23.8841
23.5527
36.4278
37.1134
37.0771
36.8728
36.5488
36.0818
35.4618
34.6854
33.7474
32.6422
31.3667
29.9142
28.2216
26.2511
26.016
37.4008
38.1793
38.2051
38.0636
37.8005
37.3909
36.8322
36.125
35.2672
34.2559
33.0906
31.7667
30.2273
28.4407
28.2659
38.4692
39.2974
39.3688
39.2755
39.0556
38.6905
38.1813
37.5309
36.7395
35.8065
34.733
33.5173
32.108
30.4781
30.3305
39.6076
40.455
40.5595
40.4991
40.3106
39.9802
39.5108
38.9067
38.17
37.3017
36.3047
35.1791
33.8801
32.3831
32.2343
40.7965
41.642
41.7674
41.7286
41.5629
41.2591
40.8212
40.2546
39.5624
38.7473
37.8133
36.7624
35.5564
34.172
33.9981
42.0204
42.8479
42.9842
42.9592
42.8095
42.5257
42.1123
41.5753
40.919
40.1469
39.2643
38.275
37.1467
35.8572
35.6394
43.2658
44.0634
44.2038
44.1866
44.0473
43.7777
43.3826
42.8685
42.2404
41.5027
40.6615
39.7222
38.6586
37.4488
37.1725
44.5212
45.2815
45.4208
45.4064
45.2727
45.0123
44.6302
44.1331
43.5264
42.8154
42.007
41.1079
40.0975
38.9543
38.6089
45.778
46.4962
46.6299
46.6143
46.4819
46.2263
45.8523
45.3668
44.7757
44.0848
43.3019
42.4343
41.4677
40.3794
39.9578
47.029
47.7016
47.8262
47.8055
47.6708
47.416
47.0458
46.5672
45.9864
45.31
44.5459
43.7029
42.7714
41.7285
41.2263
48.2675
48.8923
49.0044
48.9755
48.8349
48.5773
48.2071
47.7312
47.1563
46.4894
45.7387
44.9139
44.0105
43.0046
42.4197
49.4877
50.0629
50.1595
50.1194
49.97
49.7062
49.3324
48.8556
48.2827
47.621
46.8791
46.0674
45.1858
44.2098
43.5424
50.684
51.2079
51.2865
51.2325
51.0713
50.7984
50.4181
49.9372
49.3628
48.7026
47.9656
47.1626
46.2978
45.3456
44.5969
51.8508
52.3222
52.3802
52.3098
52.1344
51.8498
51.4602
50.9725
50.3937
49.7321
48.9966
48.1986
47.3463
46.4128
45.586
52.9828
53.4006
53.4358
53.3468
53.1549
52.8563
52.4552
51.9582
51.3728
50.7071
49.9704
49.1746
48.3309
47.4121
46.5105
54.0749
54.4379
54.4484
54.3388
54.1285
53.814
53.3994
52.8913
52.2972
51.6254
50.8854
50.0892
49.2514
48.3436
47.3719
55.1219
55.4295
55.4134
55.2816
55.0512
54.7192
54.2896
53.7688
53.1645
52.4851
51.7398
50.9415
50.107
49.2075
48.1704
56.1191
56.3705
56.3265
56.171
55.9193
55.5686
55.1226
54.588
53.9723
53.284
52.5324
51.7303
50.8973
50.0039
48.9067
57.0616
57.2567
57.1834
57.0035
56.7293
56.3589
55.8959
55.3466
54.7186
54.0206
53.2616
52.4548
51.6218
50.7326
49.5808
57.9451
58.0838
57.9808
57.7752
57.4781
57.0874
56.6068
56.0424
55.4017
54.6933
53.9265
53.1142
52.2802
51.3938
50.193
58.7655
58.8484
58.7148
58.4835
58.163
57.7518
57.2533
56.6735
56.0198
55.301
54.5259
53.7079
52.8719
51.9875
50.7431
59.5191
59.547
59.3828
59.1254
58.7816
58.3498
57.8335
57.2385
56.572
55.8425
55.0594
54.2353
53.397
52.5138
51.2316
60.2028
60.1767
59.9819
59.6988
59.3318
58.8799
58.3461
57.7361
57.057
56.3175
55.5261
54.6963
53.8554
52.973
51.6582
60.8135
60.735
60.5102
60.2015
59.8121
59.3405
58.7898
58.1654
57.4743
56.725
55.9261
55.0906
54.2471
53.3654
52.0235
61.3489
61.2199
60.9655
60.6324
60.2211
59.7308
59.1639
58.5258
57.8235
57.0649
56.259
55.4185
54.5726
53.6917
52.3274
61.8071
61.6297
61.347
60.9901
60.5581
60.0498
59.4679
58.8171
58.1041
57.3375
56.5251
55.6801
54.8322
53.9522
52.571
62.1866
61.9632
61.6532
61.2739
60.8221
60.2974
59.7014
59.0389
58.3168
57.5424
56.7247
55.876
55.0266
54.1481
52.7541
62.4865
62.2197
61.8838
61.4832
61.0134
60.473
59.8645
59.1918
58.4611
57.6807
56.8584
56.007
55.1566
54.2799
52.8777
62.7061
62.3986
62.0384
61.6181
61.1314
60.5775
59.9576
59.2758
58.5384
57.7525
56.927
56.0736
55.223
54.3488
52.9425
62.8453
62.5001
62.1172
61.6788
61.1772
60.6108
59.9813
59.2919
58.5486
57.7592
56.9312
56.077
55.2269
54.3558
52.9493
62.9044
62.5245
62.1208
61.6661
61.1508
60.5741
59.9362
59.2408
58.4934
57.7012
56.8722
56.0182
55.1695
54.3022
52.8991
62.8839
62.4724
62.0498
61.5805
61.0538
60.4679
59.8236
59.1236
58.3734
57.58
56.7512
55.8984
55.052
54.1892
52.793
62.7849
62.3448
61.9053
61.4234
60.8866
60.2938
59.6445
58.9417
58.19
57.3968
56.5693
55.7191
54.8757
54.0185
52.632
62.6086
62.1431
61.6887
61.1958
60.6513
60.0528
59.4005
58.6961
57.9448
57.153
56.3282
55.4815
54.6424
53.7912
52.4175
62.3567
61.8688
61.4014
60.8996
60.3487
59.7468
59.0927
58.3888
57.6389
56.8501
56.0292
55.1874
54.3533
53.5091
52.1509
62.031
61.5236
61.0453
60.5363
59.9812
59.3771
58.7233
58.0211
57.2745
56.4899
55.6742
54.8383
54.0103
53.1739
51.8334
61.6335
61.1097
60.6223
60.108
59.55
58.9459
58.2939
57.595
56.853
56.074
55.2648
54.4359
53.615
52.7872
51.4667
61.1666
60.629
60.1346
59.6166
59.0579
58.455
57.8063
57.1123
56.3763
55.6043
54.8028
53.9821
53.1691
52.3508
51.0522
60.6327
60.084
59.5843
59.0645
58.5063
57.9065
57.2627
56.5749
55.8464
55.0826
54.29
53.4786
52.6745
51.8664
50.5915
60.0344
59.4773
58.974
58.4538
57.898
57.3026
56.665
55.9849
55.2651
54.5109
53.7284
52.9272
52.133
51.3358
50.0862
59.3745
58.8113
58.3062
57.7872
57.235
56.6454
56.0154
55.3444
54.6347
53.8911
53.1198
52.33
51.5465
50.761
49.5381
58.6557
58.0888
57.5835
57.0671
56.5199
55.9375
55.3164
54.6557
53.9572
53.2254
52.4663
51.6888
50.9169
50.1437
48.9487
57.8811
57.3125
56.8085
56.2961
55.7552
55.1811
54.5702
53.9208
53.2346
52.5158
51.7699
51.0055
50.246
49.4859
48.3199
57.0535
56.4853
55.984
55.4767
54.9433
54.3787
53.779
53.1421
52.4692
51.7643
51.0325
50.2822
49.5358
48.7894
47.6532
56.176
55.61
55.1126
54.6117
54.0868
53.5327
52.9451
52.3217
51.6632
50.973
50.2562
49.5207
48.7883
48.0561
46.9505
55.2515
54.6895
54.1972
53.7036
53.1882
52.6456
52.071
51.4619
50.8185
50.1439
49.4429
48.7231
48.0052
47.2878
46.2135
54.2831
53.7265
53.2405
52.7552
52.2501
51.7197
51.159
50.5649
49.9374
49.2792
48.5947
47.8912
47.1885
46.4864
45.4438
53.2737
52.724
52.2453
51.7691
51.275
50.7575
50.2113
49.633
49.0221
48.3809
47.7135
47.0269
46.34
45.6537
44.6432
52.2262
51.6847
51.2142
50.7478
50.2655
49.7614
49.2303
48.6683
48.0745
47.451
46.8014
46.1322
45.4616
44.7915
43.8133
51.1435
50.6114
50.1498
49.6939
49.2238
48.7338
48.2182
47.673
47.0969
46.4915
45.8601
45.2089
44.5551
43.9016
42.9558
50.0283
49.5066
49.0547
48.6099
48.1526
47.677
47.1773
46.6493
46.0912
45.5044
44.8916
44.2588
43.6223
42.9856
42.0724
48.8834
48.3731
47.9315
47.4982
47.0541
46.5932
46.1098
45.5992
45.0595
44.4915
43.8978
43.2838
42.6648
42.0453
41.1647
47.7114
47.2132
46.7825
46.3612
45.9306
45.4847
45.0177
44.5248
44.0037
43.4549
42.8805
42.2855
41.6844
41.0824
40.2341
46.5147
46.0294
45.6102
45.2012
44.7842
44.3535
43.9031
43.428
42.9257
42.3962
41.8413
41.2656
40.6827
40.0984
39.2823
45.2958
44.8241
44.4167
44.0203
43.6173
43.2018
42.768
42.3108
41.8274
41.3173
40.7821
40.2258
39.6613
39.0948
38.3107
44.057
43.5993
43.2042
42.8207
42.4316
42.0315
41.6144
41.175
40.7104
40.2198
39.7044
39.1677
38.6218
38.0732
37.3208
42.8005
42.3573
41.9747
41.6042
41.2293
40.8445
40.444
40.0224
39.5766
39.1055
38.6098
38.0928
37.5656
37.0351
36.3139
41.5283
41.1
40.7302
40.3729
40.0121
39.6426
39.2586
38.8547
38.4276
37.9759
37.4999
37.0026
36.4941
35.9817
35.2914
40.2423
39.8292
39.4725
39.1284
38.7818
38.4275
38.0598
37.6735
37.2649
36.8324
36.3761
35.8985
35.4088
34.9146
34.2546
38.9444
38.5468
38.2032
37.8725
37.54
37.2008
36.8493
36.4803
36.0901
35.6767
35.2399
34.7818
34.3109
33.8348
33.2047
37.6363
37.2543
36.9241
36.6067
36.2883
35.964
35.6285
35.2766
34.9045
34.5099
34.0925
33.6538
33.2017
32.7436
32.1429
36.3195
35.9534
35.6366
35.3325
35.028
34.7185
34.3988
34.0637
33.7094
33.3334
32.9352
32.5158
32.0823
31.6423
31.0703
34.9956
34.6453
34.342
34.0513
33.7607
33.4657
33.1615
32.843
32.5062
32.1485
31.7691
31.3688
30.9539
30.5318
29.9881
33.6658
33.3315
33.0417
32.7643
32.4874
32.2068
31.9179
31.6156
31.2959
30.9563
30.5955
30.214
29.8175
29.4132
28.8971
32.3314
32.013
31.7367
31.4726
31.2093
30.9429
30.6689
30.3825
30.0797
29.7578
29.4153
29.0525
28.6741
28.2876
27.7984
30.9936
30.6911
30.4283
30.1773
29.9275
29.6751
29.4158
29.145
28.8587
28.5541
28.2295
27.885
27.5248
27.1557
26.6928
29.6533
29.3666
29.1173
28.8794
28.6429
28.4042
28.1593
27.9038
27.6336
27.346
27.0391
26.7126
26.3702
26.0185
25.5813
28.3115
28.0405
27.8047
27.5797
27.3563
27.1312
26.9004
26.6598
26.4054
26.1344
25.8448
25.5361
25.2113
24.8768
24.4646
26.9689
26.7136
26.4911
26.279
26.0686
25.8568
25.6399
25.4138
25.1748
24.9201
24.6474
24.3562
24.0487
23.7313
23.3435
25.6264
25.3866
25.1773
24.978
24.7803
24.5816
24.3783
24.1665
23.9426
23.7037
23.4477
23.1736
22.8833
22.5827
22.2186
24.2845
24.06
23.8639
23.6772
23.4922
23.3063
23.1163
22.9185
22.7093
22.486
22.2462
21.9889
21.7155
21.4316
21.0907
22.9438
22.7345
22.5514
22.3772
22.2046
22.0314
21.8544
21.6703
21.4756
21.2674
21.0436
20.8028
20.5461
20.2786
19.9602
21.6048
21.4105
21.2403
21.0784
20.9181
20.7573
20.5931
20.4224
20.2417
20.0484
19.8402
19.6157
19.3755
19.1243
18.8278
20.2679
20.0883
19.9309
19.7811
19.6329
19.4844
19.3328
19.1751
19.0082
18.8295
18.6366
18.4281
18.2041
17.9691
17.694
18.9333
18.7683
18.6234
18.4856
18.3494
18.2128
18.0735
17.9287
17.7753
17.6109
17.4331
17.2403
17.0324
16.8135
16.5592
17.6013
17.4506
17.3181
17.1922
17.0677
16.9429
16.8157
16.6834
16.5433
16.3928
16.2299
16.0527
15.8608
15.6578
15.4238
16.2722
16.1354
16.0152
15.9009
15.7879
15.6747
15.5594
15.4393
15.3122
15.1755
15.0273
14.8657
14.6897
14.5024
14.2883
14.946
14.8229
14.7147
14.6118
14.5101
14.4083
14.3045
14.1965
14.0819
13.9588
13.8252
13.6794
13.5193
13.3478
13.153
13.6229
13.5131
13.4166
13.3249
13.2342
13.1435
13.0511
12.9547
12.8523
12.7425
12.6239
12.4938
12.3503
12.1943
12.0182
12.3028
12.2059
12.1208
12.04
11.9602
11.8804
11.799
11.714
11.6237
11.5277
11.4235
11.3083
11.181
11.042
10.8841
10.9856
10.9012
10.8273
10.7571
10.6879
10.6188
10.5482
10.4744
10.3971
10.3147
10.224
10.1231
10.0112
9.88949
9.75051
9.67103
9.59889
9.53575
9.47597
9.41712
9.35841
9.29852
9.23602
9.17182
9.10207
9.02479
8.93837
8.8417
8.7362
8.61726
8.35923
8.29882
8.2461
8.19635
8.14754
8.09901
8.04957
7.999
7.94667
7.8894
7.8256
7.75373
7.67252
7.5831
7.4839
7.05008
7.00083
6.95811
6.918
6.87889
6.84024
6.80105
6.76215
6.72117
6.67623
6.6259
6.56868
6.50326
6.4304
6.3501
5.74351
5.70488
5.67168
5.64079
5.61101
5.58195
5.55283
5.52463
5.49479
5.46202
5.42507
5.38255
5.33319
5.27736
5.21577
4.43972
4.41107
4.38685
4.36471
4.34384
4.32397
4.30457
4.2864
4.26735
4.24647
4.22268
4.19481
4.16163
4.12318
4.0804
3.13637
3.11646
3.10047
3.08666
3.07449
3.06379
3.05416
3.04601
3.03786
3.02898
3.01853
3.00553
2.98891
2.96846
2.9451
1.82113
1.81148
1.80452
1.79943
1.79624
1.79487
1.79519
1.79737
1.80073
1.80488
1.8093
1.81327
1.81591
1.81687
1.81677
0.568997
0.587859
0.59858
0.601919
0.600342
0.595927
0.590572
0.586133
0.58408
0.585699
0.591867
0.602966
0.61886
0.639184
0.662166
-22.5955
-17.6646
-15.6355
-14.0652
-12.1289
-9.8088
-7.11381
-4.05993
-0.68808
2.946
6.7834
10.7627
14.8233
18.9024
22.9323
26.8407
30.551
33.9895
37.0924
39.8139
42.1307
44.0418
45.5634
46.7226
47.5514
48.0825
48.3458
48.3675
48.1716
47.7788
47.2082
46.4772
45.6014
44.594
43.4646
42.2196
40.8645
39.3838
37.6422
35.9546
-21.732
-17.9042
-17.7616
-17.5498
-16.6708
-15.2271
-13.2389
-10.7113
-7.67626
-4.18589
-0.306054
3.88632
8.30645
12.8628
17.4583
21.9926
26.3652
30.4819
34.2613
37.6419
40.5858
43.0783
45.124
46.7409
47.9546
48.7937
49.2867
49.4608
49.3417
48.9542
48.3221
47.4684
46.4152
45.1826
43.788
42.2457
40.5699
38.756
36.6978
34.8003
-16.949
-12.8344
-12.7483
-12.5513
-11.752
-10.4658
-8.70677
-6.47518
-3.79424
-0.703197
2.74709
6.49547
10.4718
14.5975
18.7858
22.9438
26.9754
30.7877
34.2981
37.4422
40.178
42.4859
44.3654
45.8301
46.9021
47.608
47.9759
48.0339
47.8096
47.33
46.6211
45.708
44.6141
43.3605
41.9654
40.4438
38.8105
37.0636
35.105
33.3069
-11.3494
-7.38109
-7.25742
-6.98771
-6.17317
-4.9271
-3.26647
-1.19676
1.25724
4.05836
7.16027
10.5083
14.0403
17.6868
21.3713
25.0121
28.5251
31.8296
34.8548
37.5461
39.8688
41.8074
43.3632
44.5492
45.3861
45.8983
46.1116
46.0521
45.7453
45.2158
44.4876
43.583
42.5232
41.3266
40.0092
38.5837
37.0629
35.4431
33.629
31.989
-6.06424
-2.46966
-2.37942
-2.11661
-1.3536
-0.198785
1.32813
3.21809
5.44587
7.97605
10.7655
13.7638
16.9141
20.1529
23.4113
26.6157
29.692
32.5697
35.1881
37.5012
39.4806
41.1143
42.4047
43.3642
44.0118
44.3698
44.4618
44.3117
43.9427
43.3774
42.6376
41.7437
40.7147
39.5672
38.3152
36.9699
35.5427
34.0285
32.3368
30.8351
-1.16515
2.07473
2.12958
2.36446
3.05922
4.11031
5.49564
7.20379
9.20961
11.4796
13.9735
16.6451
19.4422
22.3072
25.1777
27.9881
30.6727
33.1701
35.4281
37.4078
39.0856
40.4522
41.5104
42.272
42.7544
42.9778
42.964
42.7349
42.3119
41.716
40.967
40.0839
39.0839
37.9819
36.7906
35.5197
34.1792
32.7633
31.1865
29.8136
3.34925
6.30425
6.33371
6.53929
7.16747
8.11853
9.36864
10.9046
12.7014
14.7272
16.9444
19.3103
21.7772
24.2927
26.8009
29.2434
31.5627
33.706
35.6288
37.2988
38.6966
39.8154
40.6587
41.2376
41.568
41.6687
41.5594
41.2603
40.791
40.1709
39.4181
38.5499
37.5818
36.5273
35.3973
34.2007
32.9457
31.6258
30.1604
28.9099
7.48209
10.2107
10.2217
10.3996
10.9644
11.8199
12.9413
14.3144
15.9145
17.7114
19.6698
21.7504
23.9095
26.0999
28.2713
30.3726
32.3538
34.1697
35.7831
37.1674
38.3075
39.1986
39.8448
40.2569
40.4494
40.4396
40.2455
39.8856
39.3779
38.7399
37.9883
37.1386
36.2048
35.1988
34.1303
33.0065
31.8347
30.6074
29.2486
28.1138
11.2591
13.8004
13.7997
13.9533
14.4587
15.2234
16.2226
17.4413
18.8559
20.4376
22.1537
23.9678
25.8402
27.7285
29.5882
31.3744
33.0442
34.5595
35.8895
37.0128
37.9177
38.6014
39.0688
39.33
39.3986
39.2904
39.0218
38.6098
38.0706
37.4203
36.674
35.8455
34.9474
33.9901
32.9819
31.9289
30.8372
29.6985
28.4411
27.4145
14.7141
17.0925
17.0851
17.2182
17.6683
18.3472
19.2304
20.3032
21.5428
22.9222
24.4111
25.9762
27.5817
29.1897
30.7609
32.2567
33.6406
34.8806
35.9519
36.8373
37.5284
38.0241
38.3298
38.4552
38.4129
38.2175
37.8839
37.4276
36.8633
36.2056
35.4679
34.6628
33.8012
32.8924
31.9432
30.9586
29.9437
28.8893
27.7278
26.8026
17.8831
20.1093
20.099
20.2143
20.6124
21.2098
21.9831
22.9177
23.9921
25.1812
26.4571
27.7897
29.1468
30.4948
31.7998
33.0284
34.1501
35.1387
35.9741
36.6435
37.1408
37.4666
37.6266
37.6302
37.4893
37.217
36.8272
36.3337
35.75
35.089
34.363
33.5829
32.7584
31.8973
31.0055
30.0868
29.1451
28.1707
27.1
26.269
20.7977
22.8762
22.8639
22.9625
23.3107
23.8301
24.4984
25.3018
26.2201
27.23
28.3062
29.4216
30.5477
31.6551
32.7144
33.6978
34.5797
35.3391
35.9603
36.4338
36.756
36.9288
36.9581
36.853
36.6247
36.2853
35.8472
35.323
34.7248
34.0644
33.3524
32.5986
31.8113
30.9971
30.1607
29.3051
28.4331
27.5344
26.549
25.8058
23.4881
25.4168
25.4022
25.4836
25.7828
26.2266
26.7943
27.4726
28.2428
29.0838
29.9727
30.8854
31.7968
32.6816
33.5148
34.2732
34.9363
35.4872
35.9142
36.2108
36.3753
36.4107
36.3232
36.1217
35.8164
35.4186
34.9395
34.3904
33.7824
33.1256
32.4297
31.703
30.9527
30.1843
29.4013
28.6059
27.7999
26.9725
26.0674
25.4053
25.9789
27.755
27.7355
27.7977
28.0476
28.4174
28.8877
29.4463
30.076
30.7576
31.4707
32.1941
32.9061
33.5852
34.2106
34.7632
35.2267
35.5884
35.8398
35.9769
35.9998
35.9123
35.7209
35.434
35.0614
34.6132
34.0998
33.5311
32.9171
32.2668
31.5885
30.8895
30.1758
29.4517
28.72
27.9818
27.2381
26.4778
25.6477
25.061
28.2926
29.9113
29.8833
29.9235
30.1229
30.4193
30.7951
31.2387
31.7345
32.2654
32.8135
33.3603
33.8873
34.3765
34.811
35.1755
35.4576
35.6479
35.7408