/*--------------------------------*- C++ -*----------------------------------*\
| =========                 |                                                 |
| \\      /  F ield         | OpenFOAM: The Open Source CFD Toolbox           |
|  \\    /   O peration     | Version:  2206                                  |
|   \\  /    A nd           | Website:  www.openfoam.com                      |
|    \\/     M anipulation  |                                                 |
\*---------------------------------------------------------------------------*/
FoamFile
{
    version     2.0;
    format      ascii;
    arch        "LSB;label=32;scalar=64";
    class       surfaceScalarField;
    location    "300";
    object      phi;
}
// * * * * * * * * * * * * * * * * * * * * * * * * * * * * * * * * * * * * * //

dimensions      [0 3 -1 0 0 0 0];

oriented        oriented;

internalField   nonuniform List<scalar> 
25506
(
0.000200118
0.0372999
0.000443059
0.0372571
0.000742088
0.037201
0.000810883
0.0374312
0.000827775
0.0374831
0.000826738
0.0375011
0.000815558
0.0375112
0.0375163
0.000799305
0.00172707
0.0355729
0.00193605
0.0370481
0.00193217
0.0372049
0.00190177
0.0374616
0.00186526
0.0375196
0.00182376
0.0375426
0.00178047
0.0375545
0.0375587
0.00173801
0.00261198
0.0329609
0.00316239
0.0364977
0.00313445
0.0372329
0.00304061
0.0375555
0.00293984
0.0376204
0.00284325
0.0376392
0.00275643
0.0376413
0.037635
0.00268017
0.00351326
0.0294477
0.00433248
0.0356785
0.00431431
0.037251
0.00416996
0.0376999
0.00400656
0.0377838
0.00385475
0.037791
0.00372295
0.0377731
0.0377468
0.00361121
0.00416601
0.0252817
0.00538872
0.0344559
0.00545021
0.0371896
0.00526047
0.0378896
0.00503381
0.0380105
0.00483006
0.0379948
0.00465787
0.0379453
0.0378899
0.00451474
0.00440632
0.0208754
0.00612203
0.0327402
0.00640566
0.036906
0.0062394
0.0380559
0.00597863
0.0382713
0.0057381
0.0382353
0.00553768
0.0381458
0.0380541
0.00537352
0.00417884
0.0166966
0.00639361
0.0305254
0.00704487
0.0362547
0.00701874
0.0380821
0.00679105
0.038499
0.00654897
0.0384774
0.00634185
0.0383529
0.0382232
0.00617279
0.00358429
0.0131123
0.0062067
0.027903
0.00731777
0.0351437
0.00754967
0.0378502
0.00743872
0.03861
0.00724464
0.0386715
0.00705976
0.0385378
0.0383776
0.00690531
0.00283182
0.0102805
0.00568944
0.0250454
0.00727035
0.0335628
0.0078419
0.0372787
0.00792154
0.0385304
0.0078255
0.0387676
0.00769351
0.0386698
0.0384978
0.00757332
0.00211634
0.00816421
0.00500735
0.0221544
0.00699604
0.0315741
0.00794192
0.0363328
0.00826357
0.0382088
0.00830661
0.0387246
0.0082548
0.0387216
0.0385663
0.0081863
0.00154349
0.00662074
0.00429229
0.0194057
0.00658212
0.0292843
0.0078991
0.0350158
0.00849372
0.0376142
0.00870718
0.0385112
0.00875837
0.0386705
0.0385684
0.00875638
0.00113343
0.00548734
0.00362521
0.0169139
0.00608953
0.02682
0.00774699
0.0333584
0.00863192
0.0367293
0.00904132
0.0381018
0.00921599
0.0384958
0.0384903
0.00929409
0.000858502
0.00462886
0.00304649
0.0147259
0.00555896
0.0243076
0.00750378
0.0314136
0.00868579
0.0355473
0.00931424
0.0374734
0.0096332
0.0381769
0.0383177
0.00980574
0.000677462
0.00395142
0.00256803
0.0128354
0.00502144
0.0218542
0.0071809
0.0292542
0.00865406
0.0340742
0.00952254
0.0366049
0.0100086
0.0376909
0.0380339
0.0102925
0.000554561
0.00339688
0.00218272
0.0112073
0.00450214
0.0195348
0.00679088
0.0269655
0.00853194
0.0323331
0.00965652
0.0354804
0.0103342
0.0370132
0.0376182
0.0107499
0.000465272
0.00293164
0.0018732
0.00979939
0.00401826
0.0173898
0.00635034
0.0246334
0.00831631
0.0303672
0.00970311
0.0340936
0.0105969
0.0361195
0.0370466
0.0111685
0.000394351
0.00253731
0.00161872
0.00857505
0.00357627
0.0154323
0.00587804
0.0223317
0.00800923
0.0282361
0.00964918
0.0324537
0.0107795
0.0349892
0.0362925
0.0115337
0.000332147
0.00220519
0.00139905
0.00750818
0.00317181
0.0136595
0.00538978
0.0201138
0.00761874
0.0260072
0.00948484
0.0305877
0.0108634
0.0336106
0.0353292
0.0118268
0.000272486
0.00193272
0.00119637
0.00658434
0.00279221
0.0120638
0.00489335
0.0180127
0.00715617
0.0237444
0.00920567
0.0285383
0.0108309
0.0319854
0.0341337
0.0120264
0.000212826
0.0017199
0.000997863
0.00579934
0.0024211
0.0106406
0.00438648
0.0160474
0.00663099
0.0215
0.0088125
0.0263568
0.0106677
0.0301304
0.0326911
0.0121103
0.000155608
0.0015643
0.000800313
0.00515465
0.0020459
0.00939503
0.00385953
0.0142339
0.00604583
0.0193137
0.00830795
0.0240948
0.0103635
0.0280749
0.0309975
0.0120571
0.000107642
0.00145665
0.000614398
0.00464792
0.0016691
0.00834037
0.00330574
0.0125973
0.00539655
0.017223
0.00769126
0.0218002
0.00990987
0.0258564
0.029061
0.0118464
7.554e-05
0.0013811
0.000461225
0.00426223
0.00131788
0.00748374
0.00274117
0.011174
0.00468543
0.0152788
0.00695871
0.019527
0.00929598
0.0235192
0.0269006
0.0114565
6.08034e-05
0.00132028
0.00035919
0.00396383
0.00103729
0.00680566
0.00222264
0.00998872
0.00395381
0.0135477
0.00612576
0.0173551
0.00851476
0.0211302
0.0245518
0.0108635
6.01934e-05
0.00126008
0.000312752
0.00371126
0.000863136
0.00625528
0.00183132
0.00902054
0.00330543
0.0120736
0.0052761
0.0153844
0.00760424
0.0188021
0.0220945
0.0100616
6.90825e-05
0.00119099
0.000313002
0.00346733
0.000799361
0.00576893
0.00161801
0.00820188
0.00285937
0.0108322
0.0045711
0.0136727
0.00670999
0.0166632
0.01967
0.00913443
8.34016e-05
0.00110757
0.000344738
0.00320597
0.000821089
0.00529258
0.00157005
0.0074529
0.00265945
0.00974281
0.00414588
0.0121862
0.00604291
0.0147661
0.0174135
0.00829953
9.98076e-05
0.00100775
0.000392378
0.00291339
0.000892536
0.00479241
0.00163248
0.00671294
0.00265526
0.00872002
0.00400431
0.0108371
0.0057077
0.0130627
0.0153602
0.00776088
0.000115573
0.000892167
0.000442585
0.00258636
0.00098031
0.00425468
0.00174323
0.00595
0.0027557
0.00770753
0.00404571
0.00954708
0.0056366
0.0114718
0.0134615
0.00753534
0.000128335
0.000763818
0.000484544
0.00223014
0.00105748
0.00368173
0.00185019
0.00515727
0.00287483
0.00668289
0.00414779
0.0082741
0.00568402
0.00993557
0.0116566
0.00748887
0.000135973
0.000627832
0.0005094
0.0018567
0.00110311
0.00308801
0.00191379
0.00434658
0.00294676
0.00564991
0.00421142
0.00700943
0.00571634
0.00843064
0.00990944
0.00746354
0.000136586
0.000491235
0.000509903
0.00148337
0.001101
0.0024969
0.00190473
0.00354284
0.00292419
0.00463044
0.00416619
0.00576742
0.00563658
0.00696025
0.00821026
0.00733574
0.000128576
0.000362649
0.000480393
0.00113154
0.00103905
0.00193823
0.00180168
0.0027802
0.00277335
0.00365877
0.0039624
0.00457836
0.00537593
0.00554671
0.00657059
0.0070156
0.000110894
0.000251748
0.00041743
0.000824995
0.000909963
0.00144569
0.00159145
0.00209871
0.00247224
0.00277799
0.00356586
0.00348473
0.00488468
0.0042279
0.00502002
0.00643524
8.35478e-05
0.000168194
0.000321368
0.000587168
0.000714066
0.00105298
0.00127261
0.00154016
0.00201454
0.00203606
0.00296099
0.00253828
0.00413318
0.00305572
0.00360608
0.00554712
4.83836e-05
0.000119806
0.000198796
0.00043675
0.000463942
0.000787829
0.000862809
0.00114129
0.00141958
0.00147929
0.00216298
0.00179488
0.00312496
0.00209374
0.00239522
0.00433581
9.8845e-06
0.000109919
6.50279e-05
0.000381604
0.000189464
0.000663388
0.000407526
0.000923231
0.000746334
0.00114048
0.00123838
0.00130284
0.00192397
0.00140815
0.00146934
0.00284985
-2.46511e-05
0.000134569
-5.54757e-05
0.000412427
-6.07881e-05
0.000668699
-1.55047e-05
0.000877949
0.000104597
0.00102038
0.000328149
0.00107929
0.00069527
0.00104103
0.000900059
0.00126455
-4.65582e-05
0.000181127
-0.000134053
0.000499922
-0.000228482
0.000763129
-0.000307634
0.000957103
-0.000354108
0.00106686
-0.000349532
0.00107472
-0.000265592
0.000957096
0.000675726
-4.12641e-05
-5.01521e-05
0.00023128
-0.000151535
0.000601308
-0.000272516
0.00088411
-0.000392874
0.00107746
-0.0004982
0.00117219
-0.000575173
0.0011517
-0.000604272
0.000986196
0.000613618
-0.000542168
-2.902e-05
0.000260302
-8.95469e-05
0.000661836
-0.000160364
0.000954928
-0.000223893
0.00114099
-0.000263145
0.00121144
-0.000258629
0.00114718
-0.000183938
0.000911506
0.00042968
-1.97352e-05
0.000280038
-6.16413e-05
0.000703744
-0.000109222
0.00100251
-0.000147041
0.00117882
-0.000160348
0.00122475
-0.000135981
0.00112282
-6.96426e-05
0.000845168
0.000360037
-1.15925e-05
0.000291633
-3.67576e-05
0.000728911
-6.47193e-05
0.00103047
-8.4774e-05
0.00119887
-8.75834e-05
0.00122756
-6.77209e-05
0.00110296
-3.01298e-05
0.000807578
0.000329908
-5.22529e-06
0.00029686
-1.71162e-05
0.000740805
-3.03042e-05
0.00104366
-3.90941e-05
0.00120766
-3.89366e-05
0.0012274
-2.83184e-05
0.00109234
-1.15349e-05
0.000790796
0.000318374
-3.16591e-07
0.000297178
-1.88044e-06
0.000742371
-3.95756e-06
0.00104574
-5.24628e-06
0.00120896
-4.81951e-06
0.00122698
-2.81323e-06
0.00109034
-6.69915e-07
0.000788654
0.000317705
3.77507e-06
0.000293405
1.07693e-05
0.000735379
1.78174e-05
0.0010387
2.25676e-05
0.00120421
2.3034e-05
0.00122651
1.789e-05
0.00109548
8.11197e-06
0.000798435
0.000325818
7.5436e-06
0.000285864
2.22171e-05
0.000720708
3.76249e-05
0.00102329
4.85475e-05
0.00119329
5.04266e-05
0.00122464
4.00251e-05
0.00110589
1.8749e-05
0.000819713
0.000344568
1.09956e-05
0.00027487
3.23994e-05
0.000699306
5.54839e-05
0.00100021
7.3321e-05
0.00117545
7.94118e-05
0.00121855
6.75071e-05
0.00111779
3.51883e-05
0.000852034
0.000379757
1.34153e-05
0.000261456
3.9043e-05
0.000673681
6.72745e-05
0.000971982
9.13528e-05
0.00115138
0.000104787
0.00120512
9.91974e-05
0.00112339
6.28927e-05
0.000888341
0.000442651
1.32917e-05
0.000248166
3.74092e-05
0.000649565
6.35478e-05
0.000945845
8.69793e-05
0.00112795
0.000103966
0.00118813
0.00010924
0.00111811
9.20581e-05
0.000905527
0.00053471
1.05765e-05
0.000237592
2.51334e-05
0.000635011
3.46177e-05
0.000936363
3.40336e-05
0.00112854
1.70579e-05
0.00120511
-3.08633e-05
0.00116604
-0.000145993
0.00102066
0.000798023
-0.000409304
-3.95394e-06
0.000241548
-2.33078e-05
0.000654367
-6.18607e-05
0.000974919
-0.000122259
0.00118894
-0.000209822
0.00129268
-0.000336436
0.00129266
-0.000524375
0.0012086
0.00108178
-0.000808132
-2.11212e-05
0.000262672
-8.00075e-05
0.000713256
-0.000171947
0.00106686
-0.00029295
0.00130994
-0.000441149
0.00144088
-0.000617583
0.00146909
-0.000824793
0.00141581
0.00131539
-0.0010584
-3.78399e-05
0.000300514
-0.000134858
0.000810277
-0.000276368
0.00120837
-0.000449444
0.00148302
-0.000642779
0.00163422
-0.000846176
0.00167249
-0.00104883
0.00161847
0.00150186
-0.0012353
-5.28072e-05
0.000353324
-0.00018357
0.000941042
-0.00036772
0.00139253
-0.000583213
0.00169852
-0.00080957
0.00186058
-0.00102712
0.00189004
-0.00121635
0.0018077
0.00164318
-0.00135766
-6.55796e-05
0.000418905
-0.000224513
0.00109998
-0.000443441
0.00161146
-0.00069231
0.00194739
-0.000942651
0.00211092
-0.00116657
0.00211397
-0.00133692
0.00197806
0.00173581
-0.00142955
-7.55201e-05
0.000494428
-0.000255504
0.00127997
-0.000499777
0.00185573
-0.000772377
0.00221999
-0.00103855
0.00237709
-0.00126288
0.00233831
-0.00140939
0.00212457
0.00177198
-0.00144556
-8.10814e-05
0.000575511
-0.000271641
0.00147053
-0.000527848
0.00211194
-0.000810979
0.00250313
-0.00108259
0.0026487
-0.00130083
0.00255656
-0.00141857
0.00224231
0.00174034
-0.00138692
-7.96685e-05
0.000655183
-0.000264983
0.00165585
-0.00051286
0.00235982
-0.000785817
0.00277608
-0.00104563
0.00290852
-0.00124711
0.00275803
-0.00133095
0.00232615
0.00162293
-0.00121354
-6.87547e-05
0.000723939
-0.000227612
0.00181471
-0.000438804
0.00257102
-0.000669059
0.00300634
-0.000883987
0.00312345
-0.00104059
0.00291463
-0.0010713
0.00235686
0.00139789
-0.000846248
-4.69967e-05
0.000770939
-0.0001567
0.00192441
-0.000297587
0.00271191
-0.000436625
0.00314538
-0.000536298
0.00322313
-0.00054985
0.00292819
-0.00041031
0.00221732
0.000987577
-2.63072e-05
0.000797247
-8.93457e-05
0.00198745
-0.000167197
0.00278976
-0.000234127
0.00321232
-0.000262765
0.00325177
-0.000227797
0.00289323
-0.000119513
0.00210904
0.000868065
-1.23387e-05
0.000809589
-4.36023e-05
0.00201872
-8.15268e-05
0.00282769
-0.000110582
0.00324138
-0.000116204
0.0032574
-9.02419e-05
0.00286727
-4.04586e-05
0.00205926
0.000827608
-4.56654e-06
0.000814156
-1.77152e-05
0.00203187
-3.39128e-05
0.00284389
-4.53285e-05
0.00325279
-4.54192e-05
0.00325749
-3.24996e-05
0.00285435
-1.29368e-05
0.0020397
0.000814672
-9.90828e-07
0.00081515
-5.29411e-06
0.00203618
-1.10824e-05
0.00284968
-1.50161e-05
0.00325673
-1.44993e-05
0.00325698
-9.47855e-06
0.00284933
-3.16265e-06
0.00203339
0.00081151
3.01147e-07
0.000814849
-3.5026e-07
0.00203683
-1.7613e-06
0.0028511
-2.80974e-06
0.00325778
-2.61124e-06
0.00325678
-1.31945e-06
0.00284804
-1.43122e-07
0.00203221
0.000811367
5.67782e-07
0.000814284
1.07828e-06
0.00203632
1.19649e-06
0.00285098
1.12394e-06
0.00325786
1.07645e-06
0.00325683
9.73635e-07
0.00284815
5.47726e-07
0.00203264
0.000811916
4.69907e-07
0.000813814
1.13291e-06
0.00203566
1.60536e-06
0.00285051
1.7819e-06
0.00325768
1.65645e-06
0.00325696
1.21844e-06
0.00284859
5.31408e-07
0.00203333
0.000812447
3.03217e-07
0.000813514
8.0675e-07
0.00203516
1.22676e-06
0.00285009
1.41227e-06
0.0032575
1.302e-06
0.00325707
9.08621e-07
0.00284898
3.64695e-07
0.00203388
0.000812813
1.65025e-07
0.000813348
4.74209e-07
0.00203485
7.57884e-07
0.00284981
8.93332e-07
0.00325737
8.22873e-07
0.00325714
5.61502e-07
0.00284925
2.15803e-07
0.00203422
0.000813029
7.72344e-08
0.000813274
2.40991e-07
0.00203469
4.04201e-07
0.00284965
4.91468e-07
0.00325728
4.58414e-07
0.00325718
3.10526e-07
0.0028494
1.16973e-07
0.00203442
0.000813146
2.70032e-08
0.000813246
1.01277e-07
0.00203461
1.87502e-07
0.00284956
2.40403e-07
0.00325723
2.30866e-07
0.00325719
1.59125e-07
0.00284947
6.02184e-08
0.00203452
0.000813207
3.89985e-09
0.000813244
3.04282e-08
0.00203459
7.01242e-08
0.00284952
1.02693e-07
0.0032572
1.07221e-07
0.00325719
7.73752e-08
0.0028495
3.06028e-08
0.00203457
0.000813238
-6.75365e-09
0.000813251
-2.7701e-09
0.00203459
1.55511e-08
0.00284951
3.59807e-08
0.00325718
4.53651e-08
0.00325718
3.73552e-08
0.00284951
1.62891e-08
0.00203459
0.000813254
-8.49942e-09
0.000813261
-1.31358e-08
0.00203459
-7.02946e-09
0.0028495
7.1668e-09
0.00325717
1.86943e-08
0.00325717
1.89299e-08
0.00284951
9.62205e-09
0.0020346
0.000813264
-8.87296e-09
0.000813269
-1.57698e-08
0.0020346
-1.24317e-08
0.0028495
-2.53781e-09
0.00325716
7.2631e-09
0.00325716
1.10765e-08
0.00284951
6.46725e-09
0.0020346
0.000813271
-6.26733e-09
0.000813277
-1.24294e-08
0.00203461
-1.23062e-08
0.0028495
-4.72611e-09
0.00325715
4.01776e-09
0.00325715
7.26023e-09
0.0028495
4.63366e-09
0.00203461
0.000813275
-5.10823e-09
0.000813281
-9.79819e-09
0.00203461
-8.60913e-09
0.0028495
-3.58784e-09
0.00325714
2.06686e-09
0.00325714
5.1324e-09
0.0028495
3.23612e-09
0.00203461
0.000813279
-2.12559e-09
0.000813285
-4.89409e-09
0.00203461
-5.56678e-09
0.0028495
-2.22898e-09
0.00325714
1.86159e-09
0.00325714
3.01109e-09
0.0028495
1.81631e-09
0.00203461
0.00081328
-9.35892e-10
0.000813284
-2.00312e-09
0.00203462
-1.30222e-09
0.0028495
-3.96827e-10
0.00325714
4.17153e-10
0.00325714
1.02244e-09
0.0028495
3.43374e-10
0.00203461
0.000813281
2.08709e-09
0.000813284
2.96148e-09
0.00203461
1.7773e-09
0.0028495
9.13651e-10
0.00325714
2.16232e-11
0.00325714
-1.37367e-09
0.0028495
-1.26902e-09
0.00203461
0.000813279
3.4672e-09
0.000813279
6.14868e-09
0.00203461
6.26504e-09
0.0028495
2.77258e-09
0.00325714
-1.61156e-09
0.00325715
-3.65374e-09
0.0028495
-2.94031e-09
0.00203461
0.000813276
6.83784e-09
0.000813273
1.16768e-08
0.00203461
9.80099e-09
0.0028495
4.21427e-09
0.00325715
-2.1887e-09
0.00325715
-6.36957e-09
0.00284951
-4.76878e-09
0.00203461
0.000813271
8.62808e-09
0.000813262
1.53693e-08
0.0020346
1.44129e-08
0.0028495
5.65393e-09
0.00325716
-4.57574e-09
0.00325716
-9.3522e-09
0.00284951
-6.78534e-09
0.00203461
0.000813265
1.21909e-08
0.000813251
2.04487e-08
0.00203459
1.62527e-08
0.0028495
4.38373e-09
0.00325717
-8.01542e-09
0.00325717
-1.41182e-08
0.00284952
-9.41613e-09
0.0020346
0.000813255
1.32746e-08
0.000813236
2.0705e-08
0.00203458
1.40861e-08
0.00284951
-2.98532e-09
0.00325718
-1.87568e-08
0.00325719
-2.26808e-08
0.00284952
-1.34662e-08
0.00203459
0.000813241
1.3799e-08
0.000813223
1.52916e-08
0.00203458
-2.33684e-09
0.00284953
-2.65251e-08
0.00325721
-4.26055e-08
0.0032572
-4.08618e-08
0.00284952
-2.09305e-08
0.00203457
0.00081322
6.79859e-09
0.000813214
-9.29186e-09
0.00203459
-4.53184e-08
0.00284956
-8.22015e-08
0.00325724
-9.71339e-08
0.00325722
-7.82808e-08
0.0028495
-3.5513e-08
0.00203453
0.000813184
-1.0287e-08
0.000813225
-6.5143e-08
0.00203465
-1.41522e-07
0.00284964
-1.98465e-07
0.0032573
-2.04943e-07
0.00325722
-1.52598e-07
0.00284944
-6.40613e-08
0.00203444
0.00081312
-5.07059e-08
0.000813273
-1.79568e-07
0.00203478
-3.21421e-07
0.00284978
-4.10867e-07
0.00325739
-4.02244e-07
0.00325721
-2.8799e-07
0.00284933
-1.1712e-07
0.00203426
0.000813003
-1.22959e-07
0.000813397
-3.7225e-07
0.00203502
-6.15433e-07
0.00285002
-7.48733e-07
0.00325752
-7.14796e-07
0.00325718
-5.09608e-07
0.00284912
-2.07876e-07
0.00203396
0.000812794
-2.38249e-07
0.000813633
-6.45187e-07
0.00203543
-9.96312e-07
0.00285037
-1.17234e-06
0.0032577
-1.11489e-06
0.00325712
-8.10028e-07
0.00284882
-3.4266e-07
0.00203349
0.000812451
-3.74716e-07
0.000814008
-8.94606e-07
0.00203595
-1.26328e-06
0.00285074
-1.42116e-06
0.00325785
-1.36779e-06
0.00325707
-1.05805e-06
0.0028485
-4.89577e-07
0.00203292
0.000811962
-4.4101e-07
0.000814447
-7.64909e-07
0.00203627
-7.50305e-07
0.00285072
-6.54046e-07
0.00325775
-6.97164e-07
0.00325711
-7.57442e-07
0.00284856
-4.87638e-07
0.00203265
0.000811473
-1.58841e-07
0.000814606
6.85771e-07
0.00203543
2.21974e-06
0.00284919
3.27572e-06
0.0032567
2.97573e-06
0.00325741
1.52046e-06
0.00285002
1.95035e-07
0.00203398
0.000811668
1.09563e-06
0.000813507
5.4961e-06
0.00203102
1.12964e-05
0.00284339
1.51618e-05
0.00325283
1.45417e-05
0.00325802
9.44201e-06
0.00285512
3.1142e-06
0.0020403
0.000814781
4.52468e-06
0.000808983
1.7481e-05
0.00201807
3.33888e-05
0.00282748
4.45302e-05
0.00324169
4.44958e-05
0.00325806
3.17136e-05
0.00286789
1.25453e-05
0.00205947
0.000827325
1.19918e-05
0.000796988
4.25259e-05
0.00198753
7.96144e-05
0.00279039
0.000107973
0.00321333
0.00011331
0.00325272
8.77753e-05
0.00289343
3.92096e-05
0.00210803
0.000866533
2.55407e-05
0.000771447
8.7226e-05
0.00192584
0.000163629
0.00271398
0.000229243
0.00314771
0.000256999
0.00322496
0.000222261
0.00292816
0.00011626
0.00221402
0.000982793
4.59864e-05
0.000725457
0.000154334
0.00181749
0.000293943
0.00257437
0.000431435
0.00301021
0.000528871
0.00312752
0.000539822
0.0029172
0.000399992
0.00235385
0.00138278
6.8421e-05
0.000657034
0.000228276
0.00165764
0.000441644
0.002361
0.000673698
0.00277816
0.000887645
0.00291357
0.00103737
0.00276748
0.00105211
0.00233911
0.00163133
0.00080356
8.21159e-05
0.000574915
0.000275589
0.00146416
0.000536591
0.0021
0.000825872
0.00248888
0.00110305
0.00263639
0.00132084
0.00254968
0.00141807
0.00224188
0.00174312
0.00130628
8.75155e-05
0.000487397
0.000296332
0.00125534
0.000580583
0.00181574
0.000898958
0.0021705
0.00121045
0.0023249
0.00147109
0.00228904
0.00163196
0.00208101
0.00173357
0.0016415
8.66791e-05
0.000400713
0.000296737
0.00104528
0.000585877
0.0015266
0.000913741
0.00184263
0.00124156
0.00199707
0.00153085
0.00199974
0.00174383
0.00186803
0.00162994
0.00184745
8.21145e-05
0.000318595
0.000284353
0.000843034
0.000566258
0.00124469
0.000890487
0.0015184
0.00122194
0.00166562
0.00152761
0.00169407
0.00177761
0.00161801
0.00145917
0.00194838
7.57075e-05
0.000242883
0.000265028
0.000653708
0.000532285
0.000977426
0.000844097
0.00120658
0.00116939
0.00134032
0.0014798
0.00138365
0.00175066
0.00134715
0.00124674
0.00196308
6.86014e-05
0.000174278
0.000242444
0.00047986
0.000490678
0.000729186
0.000784036
0.000913221
0.00109526
0.00102908
0.0013997
0.00107921
0.00167606
0.00107078
0.00101509
0.0019077
6.13825e-05
0.00011289
0.000218626
0.00032261
0.000445291
0.000502515
0.000715933
0.000642571
0.00100668
0.000738328
0.00129579
0.000790091
0.00156426
0.000802308
0.000782803
0.00179654
5.43121e-05
5.85719e-05
0.000194587
0.000182328
0.000398218
0.000298876
0.000643129
0.000397655
0.000908334
0.000473116
0.00117445
0.000523974
0.0014241
0.000552646
0.000564492
0.00164241
4.74834e-05
1.10817e-05
0.000170805
5.89986e-05
0.000350612
0.000119062
0.000567713
0.000180547
0.000803579
0.000237246
0.00104075
0.000286793
0.00126319
0.00033021
0.00037115
0.00145652
4.0922e-05
-2.98472e-05
0.000147506
-4.75932e-05
0.000303147
-3.65859e-05
0.000491112
-7.42315e-06
0.000694955
3.33985e-05
0.000898874
8.28753e-05
0.00108796
0.000141123
0.000210687
0.00124842
3.46367e-05
-6.4491e-05
0.000124827
-0.000137791
0.000256286
-0.000168051
0.000414378
-0.00016552
0.000584469
-0.000136694
0.000752207
-8.48653e-05
0.000903748
-1.04199e-05
8.84993e-05
0.00102593
2.86273e-05
-9.31255e-05
0.000102865
-0.000212037
0.000210396
-0.000275587
0.000338386
-0.000293513
0.000473779
-0.000272089
0.000603545
-0.000214631
0.000714869
-0.000121747
8.05173e-06
0.000795315
2.28792e-05
-0.000116012
8.16542e-05
-0.00027082
0.000165703
-0.000359642
0.00026376
-0.000391574
0.000364167
-0.000372497
0.000455096
-0.00030556
0.000524737
-0.000191387
-2.86694e-05
0.000561452
1.73846e-05
-0.000133405
6.12198e-05
-0.000314663
0.000122363
-0.000420792
0.000190932
-0.000460147
0.00025653
-0.000438097
0.00030845
-0.000357481
0.000335863
-0.000218802
-2.0787e-05
0.000327981
1.21329e-05
-0.000145546
4.15678e-05
-0.000344107
8.04698e-05
-0.000459702
0.000120197
-0.000499878
0.000151506
-0.000469408
0.000164753
-0.000370729
0.000150079
-0.000204128
3.17032e-05
9.75844e-05
7.11118e-06
-0.000152666
2.26876e-05
-0.000359693
4.00682e-05
-0.00047709
5.174e-05
-0.000511555
4.95336e-05
-0.000467205
2.48227e-05
-0.000346019
-3.12719e-05
-0.000148035
0.0001281
-0.000127669
2.30474e-06
-0.00015498
4.5563e-06
-0.000361955
1.16542e-06
-0.000473707
-1.43338e-05
-0.000496061
-4.9089e-05
-0.000432453
-0.000110725
-0.000284386
-0.00020712
-5.16418e-05
0.000267128
-0.000346155
-2.30154e-06
-0.000152688
-1.28548e-05
-0.000351412
-3.62489e-05
-0.000450322
-7.79564e-05
-0.000454359
-0.000144134
-0.00036628
-0.000241409
-0.000187113
-0.000376645
8.35901e-05
0.00044712
-0.000556639
-6.71938e-06
-0.000145979
-2.95665e-05
-0.000328576
-7.21763e-05
-0.000407721
-0.000139061
-0.000387481
-0.000235407
-0.00026994
-0.000366852
-5.56722e-05
-0.0005392
0.000255935
0.00066609
-0.000758177
-1.09555e-05
-0.000135034
-4.55866e-05
-0.000293957
-0.000106604
-0.000346713
-0.00019758
-0.000296511
-0.000322737
-0.000144787
-0.000486712
0.000108298
-0.000694237
0.000463455
0.000921823
-0.000949975
-1.50118e-05
-0.000120033
-6.09099e-05
-0.00024807
-0.000139497
-0.000268135
-0.000253418
-0.000182598
-0.000405939
7.72743e-06
-0.000600651
0.000303005
-0.000841254
0.000704053
0.00121191
-0.00113135
-1.88861e-05
-0.000101158
-7.55198e-05
-0.000191448
-0.000170806
-0.000172859
-0.000306467
-4.69452e-05
-0.000484778
0.000186033
-0.000708314
0.000526535
-0.000979762
0.000975495
0.0015338
-0.00130166
-2.25705e-05
-7.85979e-05
-8.93809e-05
-0.00012465
-0.000200445
-6.18042e-05
-0.000356549
0.00010915
-0.000558977
0.000388454
-0.000809335
0.000776886
-0.00110929
0.00127544
0.00188486
-0.00146036
-2.60525e-05
-5.25561e-05
-0.000102444
-4.82698e-05
-0.0002283
6.40419e-05
-0.000403461
0.000284303
-0.000628269
0.000613255
-0.000903354
0.00105196
-0.0012294
0.00160148
0.00226238
-0.00160692
-2.93161e-05
-2.32503e-05
-0.000114649
3.70514e-05
-0.000254234
0.000203619
-0.000447005
0.000477065
-0.000692375
0.000858618
-0.000990023
0.00134961
-0.00133967
0.00195112
0.00266363
-0.00174093
-3.23418e-05
9.08171e-06
-0.000125923
0.000130622
-0.00027812
0.000355808
-0.00048699
0.000685927
-0.000751039
0.00112266
-0.00106903
0.00166759
-0.00143979
0.00232187
0.00308589
-0.00186206
-3.51103e-05
4.41828e-05
-0.000136206
0.000231708
-0.000299849
0.000519443
-0.000523246
0.000909317
-0.000804038
0.00140345
-0.00114012
0.00200367
-0.00152948
0.00271122
0.00352647
-0.00197006
-3.76061e-05
8.17808e-05
-0.000145452
0.000339545
-0.000319326
0.000693311
-0.000555632
0.00114562
-0.000851195
0.00169901
-0.00120311
0.00235557
-0.00160858
0.00311669
0.00398272
-0.00206484
-3.98179e-05
0.000121591
-0.000153619
0.000453338
-0.000336474
0.000876161
-0.000584042
0.00139318
-0.000892396
0.00200736
-0.00125789
0.00272107
-0.00167704
0.00353583
0.0044521
-0.00214642
-4.17358e-05
0.000163321
-0.000160678
0.000572273
-0.000351244
0.00106672
-0.000608417
0.00165035
-0.000927589
0.00232653
-0.00130445
0.00309792
-0.00173489
0.00396627
0.00493214
-0.00221493
-4.33545e-05
0.000206669
-0.000166614
0.000695526
-0.000363618
0.00126372
-0.000628748
0.00191548
-0.000956794
0.00265457
-0.00134286
0.00348399
-0.0017823
0.0044057
0.00542047
-0.00227063
-4.46726e-05
0.000251336
-0.000171428
0.000822275
-0.000373609
0.0014659
-0.000645077
0.00218694
-0.000980101
0.00298959
-0.00137329
0.00387717
-0.00181951
0.00485191
0.00591484
-0.00231389
-4.56939e-05
0.000297025
-0.000175138
0.000951713
-0.000381262
0.00167202
-0.000657494
0.00246317
-0.000997664
0.00332976
-0.00139596
0.00427546
-0.00184687
0.00530282
0.00641313
-0.00234516
-4.64254e-05
0.000343445
-0.000177774
0.00108306
-0.000386648
0.00188089
-0.000666129
0.00274265
-0.00100969
0.00367332
-0.00141119
0.00467695
-0.00186479
0.00575642
0.00691332
-0.00236499
-4.68784e-05
0.000390319
-0.000179379
0.00121555
-0.000389866
0.00209138
-0.000671153
0.00302393
-0.00101645
0.00401861
-0.00141934
0.00507984
-0.00187377
0.00621083
0.00741355
-0.00237399
-4.70666e-05
0.00043738
-0.000180009
0.00134849
-0.00039103
0.0023024
-0.000672765
0.00330566
-0.00101823
0.00436408
-0.00142083
0.00548244
-0.00187432
0.00666432
0.00791205
-0.00237283
-4.70072e-05
0.000484383
-0.000179724
0.0014812
-0.000390274
0.00251294
-0.000671189
0.00358657
-0.00101537
0.00470826
-0.0014161
0.00588317
-0.00186704
0.00711525
0.0084072
-0.00236219
-4.67182e-05
0.000531097
-0.000178594
0.00161307
-0.000387744
0.00272209
-0.000666668
0.00386549
-0.00100822
0.00504981
-0.00140564
0.00628058
-0.00185251
0.00756212
0.0088975
-0.00234282
-4.622e-05
0.000577312
-0.000176691
0.00174353
-0.000383591
0.00292899
-0.000659453
0.00414135
-0.000997153
0.00538751
-0.00138992
0.00667334
-0.00183136
0.00800355
0.00938156
-0.00231543
-4.55325e-05
0.00062284
-0.000174091
0.00187209
-0.000377972
0.00313287
-0.000649804
0.00441317
-0.000982533
0.00572023
-0.00136945
0.00706026
-0.00180421
0.0084383
0.00985814
-0.00228079
-4.46769e-05
0.000667511
-0.000170869
0.00199827
-0.000371045
0.00333304
-0.000637978
0.0046801
-0.000964738
0.00604699
-0.00134472
0.00744024
-0.00177166
0.00886523
0.0103261
-0.00223963
-4.36733e-05
0.000711179
-0.0001671
0.00212169
-0.000362965
0.0035289
-0.000624232
0.00494136
-0.000944137
0.00636689
-0.00131622
0.00781232
-0.00173434
0.00928334
0.0107844
-0.00219266
-4.25423e-05
0.000753715
-0.000162857
0.002242
-0.000353884
0.00371992
-0.000608814
0.00519629
-0.000921087
0.00667916
-0.00128442
0.00817564
-0.00169282
0.00969173
0.0112322
-0.0021406
-4.13026e-05
0.000795011
-0.00015821
0.0023589
-0.000343948
0.00390565
-0.000591966
0.0054443
-0.000895935
0.00698312
-0.00124978
0.00852948
-0.00164769
0.0100896
0.0116686
-0.00208413
-3.99732e-05
0.000834978
-0.000153227
0.00247214
-0.000333297
0.00408572
-0.000573916
0.00568491
-0.000869009
0.00727821
-0.00121273
0.0088732
-0.00159948
0.0104764
0.012093
-0.00202389
-3.85709e-05
0.000873542
-0.00014797
0.00258153
-0.000322062
0.0042598
-0.000554879
0.00591772
-0.000840621
0.00756394
-0.00117369
0.00920626
-0.0015487
0.0108514
0.0125048
-0.00196049
-3.71121e-05
0.000910648
-0.000142499
0.00268691
-0.000310364
0.00442766
-0.000535056
0.0061424
-0.000811062
0.00783994
-0.00113304
0.00952823
-0.00149585
0.0112142
0.0129035
-0.00189453
-3.56113e-05
0.000946253
-0.000136867
0.00278816
-0.000298317
0.0045891
-0.000514633
0.00635871
-0.0007806
0.0081059
-0.00109115
0.00983878
-0.00144138
0.0115644
0.0132886
-0.00182654
-3.40823e-05
0.000980329
-0.000131123
0.00288519
-0.000286024
0.004744
-0.000493783
0.00656646
-0.000749486
0.0083616
-0.00104834
0.0101376
-0.00138569
0.0119017
0.01366
-0.00175703
-3.25369e-05
0.00101286
-0.000125313
0.00297796
-0.00027358
0.00489226
-0.000472661
0.00676553
-0.000717947
0.00860688
-0.00100492
0.0104246
-0.00132919
0.012226
0.0140172
-0.00168646
-3.09865e-05
0.00104384
-0.000119477
0.00306644
-0.000261068
0.00503385
-0.000451407
0.00695587
-0.000686189
0.00884166
-0.000961176
0.0106996
-0.00127222
0.012537
0.0143603
-0.00161526
-2.94403e-05
0.00107328
-0.00011365
0.00315065
-0.000248564
0.00516876
-0.00043015
0.00713745
-0.000654398
0.0090659
-0.000917347
0.0109625
-0.0012151
0.0128348
0.014689
-0.00154384
-2.79073e-05
0.00110118
-0.000107864
0.0032306
-0.000236137
0.00529703
-0.000409001
0.00731031
-0.00062274
0.00927964
-0.000873662
0.0112134
-0.00115812
0.0131192
0.0150034
-0.00147253
-2.63943e-05
0.00112757
-0.000102147
0.00330635
-0.000223843
0.00541872
-0.000388059
0.00747452
-0.00059136
0.00948294
-0.000830322
0.0114524
-0.00110154
0.0133904
0.0153035
-0.00140165
-2.4908e-05
0.00115248
-9.65227e-05
0.00337796
-0.000211734
0.00553393
-0.00036741
0.00763019
-0.000560389
0.00967591
-0.000787502
0.0116795
-0.00104559
0.0136485
0.0155894
-0.0013315
-2.34535e-05
0.00117593
-9.10107e-05
0.00344551
-0.000199854
0.00564277
-0.000347129
0.00777746
-0.000529937
0.00985872
-0.000745357
0.0118949
-0.000990456
0.0138936
0.0158613
-0.00126231
-2.20354e-05
0.00119796
-8.56283e-05
0.0035091
-0.000188239
0.00574538
-0.000327278
0.0079165
-0.000500099
0.0100315
-0.000704018
0.0120988
-0.000936326
0.0141259
0.0161192
-0.0011943
-2.0657e-05
0.00121862
-8.03894e-05
0.00356883
-0.00017692
0.00584191
-0.000307912
0.00804748
-0.000470957
0.0101946
-0.0006636
0.0122915
-0.000883344
0.0143456
0.0163636
-0.00112767
-1.93216e-05
0.00123794
-7.53055e-05
0.00362481
-0.000165923
0.00593252
-0.000289073
0.00817063
-0.000442578
0.0103481
-0.000624196
0.0124731
-0.000831637
0.0145531
0.0165945
-0.00106258
-1.80311e-05
0.00125597
-7.03855e-05
0.00367716
-0.000155267
0.0060174
-0.000270799
0.00828616