/*--------------------------------*- C++ -*----------------------------------*\
| =========                 |                                                 |
| \\      /  F ield         | OpenFOAM: The Open Source CFD Toolbox           |
|  \\    /   O peration     | Version:  2206                                  |
|   \\  /    A nd           | Website:  www.openfoam.com                      |
|    \\/     M anipulation  |                                                 |
\*---------------------------------------------------------------------------*/
FoamFile
{
    version     2.0;
    format      ascii;
    arch        "LSB;label=32;scalar=64";
    class       volVectorField;
    location    "300";
    object      U;
}
// * * * * * * * * * * * * * * * * * * * * * * * * * * * * * * * * * * * * * //

dimensions      [0 1 -1 0 0 0 0];

internalField   nonuniform List<vector> 
12940
(
(9.92378 -1.17193 0)
(10.0209 0.480953 0)
(9.96793 0.101046 0)
(9.99358 0.14634 0)
(9.99763 0.15743 0)
(9.99936 0.158252 0)
(10.0006 0.156598 0)
(10.0013 0.154206 0)
(9.78255 -0.633532 0)
(9.91623 0.772235 0)
(9.91762 0.289489 0)
(9.98265 0.367303 0)
(9.99731 0.361585 0)
(10.0031 0.351994 0)
(10.0065 0.34328 0)
(10.0082 0.335784 0)
(9.2374 -0.235391 0)
(9.81973 0.922245 0)
(9.91831 0.504149 0)
(9.998 0.598391 0)
(10.0151 0.571151 0)
(10.0207 0.550679 0)
(10.0231 0.532957 0)
(10.0235 0.518613 0)
(8.38957 0.0969615 0)
(9.6532 1.03826 0)
(9.93379 0.745546 0)
(10.0311 0.826969 0)
(10.0504 0.777978 0)
(10.054 0.747535 0)
(10.0523 0.720936 0)
(10.0485 0.699422 0)
(7.3304 0.33995 0)
(9.38396 1.12633 0)
(9.93557 0.986246 0)
(10.0774 1.04365 0)
(10.1024 0.978036 0)
(10.1018 0.937137 0)
(10.0934 0.902184 0)
(10.0829 0.874514 0)
(6.14819 0.456747 0)
(8.98894 1.16487 0)
(9.89635 1.1818 0)
(10.1291 1.2303 0)
(10.1691 1.16149 0)
(10.1619 1.11317 0)
(10.144 1.07153 0)
(10.1247 1.03993 0)
(4.9683 0.443228 0)
(8.45821 1.13519 0)
(9.77849 1.29747 0)
(10.162 1.36832 0)
(10.2386 1.31553 0)
(10.2284 1.26865 0)
(10.1996 1.22477 0)
(10.1702 1.19238 0)
(3.91712 0.34418 0)
(7.80577 1.03645 0)
(9.54822 1.32424 0)
(10.1422 1.44924 0)
(10.2896 1.43233 0)
(10.2899 1.39873 0)
(10.2536 1.35969 0)
(10.2145 1.33053 0)
(3.06543 0.225791 0)
(7.06698 0.888843 0)
(9.18995 1.27808 0)
(10.0404 1.4776 0)
(10.299 1.5122 0)
(10.3323 1.5031 0)
(10.298 1.47655 0)
(10.2524 1.45511 0)
(2.41828 0.133358 0)
(6.29087 0.722775 0)
(8.71001 1.18574 0)
(9.8404 1.46513 0)
(10.2492 1.56085 0)
(10.3424 1.5852 0)
(10.3246 1.57763 0)
(10.2788 1.56824 0)
(1.94275 0.0773181 0)
(5.52944 0.56584 0)
(8.13198 1.07079 0)
(9.53816 1.42324 0)
(10.1291 1.58477 0)
(10.3105 1.64936 0)
(10.3264 1.66592 0)
(10.2893 1.67242 0)
(1.5952 0.0478589 0)
(4.8245 0.435392 0)
(7.48903 0.948799 0)
(9.13883 1.36 0)
(9.93283 1.58829 0)
(10.2293 1.6986 0)
(10.2979 1.74377 0)
(10.2802 1.76972 0)
(1.33598 0.0327219 0)
(4.19882 0.33699 0)
(6.81695 0.829311 0)
(8.65408 1.28094 0)
(9.65731 1.57324 0)
(10.0924 1.73389 0)
(10.2336 1.81215 0)
(10.2479 1.86124 0)
(1.13528 0.0243001 0)
(3.65654 0.267165 0)
(6.14831 0.71863 0)
(8.10115 1.19071 0)
(9.30232 1.54006 0)
(9.8941 1.75439 0)
(10.1279 1.87051 0)
(10.1884 1.94697 0)
(0.973545 0.0190237 0)
(3.19015 0.218352 0)
(5.508 0.620808 0)
(7.5019 1.09394 0)
(8.87146 1.48917 0)
(9.62917 1.7582 0)
(9.97437 1.91702 0)
(10.0966 2.02566 0)
(0.839095 0.0153462 0)
(2.78805 0.183021 0)
(4.9111 0.537257 0)
(6.88015 0.995173 0)
(8.37355 1.42195 0)
(9.29427 1.74321 0)
(9.7664 1.9489 0)
(9.96668 2.09499 0)
(0.725352 0.0125864 0)
(2.43922 0.155477 0)
(4.36397 0.466617 0)
(6.25795 0.898197 0)
(7.82272 1.34095 0)
(8.88946 1.70789 0)
(9.49765 1.96285 0)
(9.79173 2.15163 0)
(0.628921 0.0104603 0)
(2.13516 0.131847 0)
(3.86719 0.405514 0)
(5.65252 0.805129 0)
(7.23672 1.24942 0)
(8.41951 1.65195 0)
(9.1635 1.95572 0)
(9.56444 2.1916 0)
(0.548449 0.00891798 0)
(1.87048 0.109601 0)
(3.41874 0.349791 0)
(5.07519 0.715815 0)
(6.63386 1.15021 0)
(7.89409 1.57635 0)
(8.76234 1.92506 0)
(9.27791 2.21063 0)
(0.483788 0.0080913 0)
(1.64279 0.0874587 0)
(3.01651 0.295782 0)
(4.53231 0.628082 0)
(6.03005 1.04482 0)
(7.32641 1.4827 0)
(8.29667 1.86953 0)
(8.92682 2.20469 0)
(0.434881 0.00818705 0)
(1.45201 0.0657951 0)
(2.6602 0.241738 0)
(4.02768 0.539121 0)
(5.43736 0.932796 0)
(6.73087 1.37222 0)
(7.77302 1.78865 0)
(8.50853 2.17028 0)
(0.400386 0.00917637 0)
(1.29872 0.0467223 0)
(2.35243 0.189353 0)
(3.5658 0.448179 0)
(4.86503 0.812833 0)
(6.12077 1.24483 0)
(7.20087 1.68197 0)
(8.02383 2.10433 0)
(0.376884 0.0105556 0)
(1.18107 0.0328641 0)
(2.09726 0.143896 0)
(3.15499 0.359922 0)
(4.32324 0.686548 0)
(5.50843 1.10034 0)
(6.59105 1.54836 0)
(7.47674 2.00335 0)
(0.359644 0.0116299 0)
(1.09227 0.0254722 0)
(1.89462 0.111347 0)
(2.80592 0.285102 0)
(3.82804 0.564277 0)
(4.9094 0.944442 0)
(5.95613 1.38861 0)
(6.87368 1.86327 0)
(0.344241 0.0120281 0)
(1.02147 0.0239202 0)
(1.7348 0.094457 0)
(2.52149 0.234738 0)
(3.39851 0.465252 0)
(4.34929 0.796846 0)
(5.31742 1.21491 0)
(6.22572 1.68572 0)
(0.327468 0.0117849 0)
(0.957412 0.0265921 0)
(1.60074 0.0916686 0)
(2.28865 0.212409 0)
(3.04004 0.405356 0)
(3.85596 0.686468 0)
(4.71228 1.05872 0)
(5.56151 1.49508 0)
(0.307364 0.0111187 0)
(0.89135 0.0317497 0)
(1.47541 0.098803 0)
(2.08473 0.213157 0)
(2.73568 0.385439 0)
(3.43438 0.629382 0)
(4.17336 0.954142 0)
(4.92864 1.34082 0)
(0.282968 0.0102429 0)
(0.818022 0.0379082 0)
(1.34677 0.111153 0)
(1.88942 0.227976 0)
(2.45929 0.393958 0)
(3.063 0.618563 0)
(3.69913 0.910008 0)
(4.35544 1.25612 0)
(0.254122 0.0093036 0)
(0.735311 0.0438942 0)
(1.20871 0.124653 0)
(1.69028 0.248001 0)
(2.19063 0.415987 0)
(2.71556 0.634414 0)
(3.2656 0.908827 0)
(3.8339 1.23161 0)
(0.221336 0.00836877 0)
(0.643632 0.0487513 0)
(1.06003 0.136075 0)
(1.48262 0.266092 0)
(1.91955 0.438621 0)
(2.37551 0.656978 0)
(2.85162 0.924506 0)
(3.34408 1.23568 0)
(0.185713 0.00744484 0)
(0.545386 0.0516553 0)
(0.903208 0.142855 0)
(1.26758 0.276801 0)
(1.64429 0.452144 0)
(2.0369 0.670789 0)
(2.44679 0.934739 0)
(2.87212 1.23829 0)
(0.14889 0.00649776 0)
(0.444567 0.0518891 0)
(0.743475 0.142943 0)
(1.05035 0.276007 0)
(1.36874 0.449494 0)
(1.70116 0.664857 0)
(2.0492 0.923611 0)
(2.41252 1.21803 0)
(0.11298 0.00547261 0)
(0.346424 0.048864 0)
(0.588081 0.134771 0)
(0.83904 0.260671 0)
(1.10068 0.425591 0)
(1.3746 0.631396 0)
(1.66268 0.879911 0)
(1.96595 1.16006 0)
(0.080471 0.0043134 0)
(0.257114 0.0422075 0)
(0.445685 0.117402 0)
(0.643755 0.228961 0)
(0.850647 0.377233 0)
(1.06711 0.565208 0)
(1.2954 0.795756 0)
(1.53801 1.05363 0)
(0.0540272 0.00298994 0)
(0.183155 0.0319488 0)
(0.325582 0.0909469 0)
(0.475751 0.180888 0)
(0.631094 0.303867 0)
(0.791492 0.464412 0)
(0.959431 0.666995 0)
(1.13895 0.892028 0)
(0.0361136 0.00153433 0)
(0.130501 0.0188016 0)
(0.236441 0.0572161 0)
(0.346061 0.119427 0)
(0.455169 0.209226 0)
(0.562585 0.332571 0)
(0.67047 0.495659 0)
(0.78393 0.675402 0)
(0.028381 7.86238e-05 0)
(0.103111 0.00444692 0)
(0.184339 0.0203853 0)
(0.263226 0.051765 0)
(0.334428 0.10343 0)
(0.395394 0.181923 0)
(0.446859 0.294483 0)
(0.493542 0.416855 0)
(0.030875 -0.00113234 0)
(0.101138 -0.00841666 0)
(0.170153 -0.0128853 0)
(0.229926 -0.0102766 0)
(0.274786 0.00424763 0)
(0.300727 0.0363644 0)
(0.30581 0.092701 0)
(0.291798 0.152091 0)
(0.0413191 -0.00178043 0)
(0.119324 -0.0166278 0)
(0.186992 -0.0347799 0)
(0.23895 -0.0522921 0)
(0.270358 -0.0651358 0)
(0.276424 -0.0695966 0)
(0.252228 -0.0614518 0)
(0.193523 -0.053142 0)
(0.0553055 -0.00167791 0)
(0.147402 -0.0180995 0)
(0.220266 -0.0400079 0)
(0.272037 -0.0638568 0)
(0.299745 -0.0860535 0)
(0.299104 -0.103943 0)
(0.263509 -0.115516 0)
(0.181425 -0.12379 0)
(0.066027 -0.00087523 0)
(0.16953 -0.0138849 0)
(0.246714 -0.0311202 0)
(0.297653 -0.0489474 0)
(0.320043 -0.0628391 0)
(0.308833 -0.068102 0)
(0.253529 -0.0593455 0)
(0.12942 -0.0360097 0)
(0.0725549 -0.000274694 0)
(0.183215 -0.00952993 0)
(0.262408 -0.021454 0)
(0.310735 -0.0330355 0)
(0.325963 -0.0402517 0)
(0.303027 -0.0393119 0)
(0.233183 -0.0280841 0)
(0.103674 -0.00950292 0)
(0.0766378 0.000187634 0)
(0.191944 -0.00566649 0)
(0.272133 -0.0128377 0)
(0.317894 -0.0194497 0)
(0.327293 -0.0227768 0)
(0.296199 -0.0206723 0)
(0.218837 -0.0130824 0)
(0.0903171 -0.00357759 0)
(0.0787834 0.000508812 0)
(0.19667 -0.00261525 0)
(0.277334 -0.00603845 0)
(0.321417 -0.00909174 0)
(0.327371 -0.0103726 0)
(0.292107 -0.00892507 0)
(0.212047 -0.00517027 0)
(0.0855992 -0.00175459 0)
(0.0794562 0.000726261 0)
(0.198317 -0.000245515 0)
(0.279193 -0.000764837 0)
(0.322607 -0.00123435 0)
(0.327227 -0.001369 0)
(0.290522 -0.000983692 0)
(0.209812 -0.000358487 0)
(0.0842925 -0.000826198 0)
(0.0789615 0.000893553 0)
(0.197516 0.00172934 0)
(0.278453 0.00360874 0)
(0.322112 0.00524576 0)
(0.327147 0.00600699 0)
(0.291035 0.00547759 0)
(0.210908 0.00354183 0)
(0.0852837 -0.000112284 0)
(0.0774323 0.00105237 0)
(0.19458 0.0035299 0)
(0.275429 0.00755613 0)
(0.320063 0.0111777 0)
(0.326963 0.0130232 0)
(0.293257 0.0120754 0)
(0.215074 0.00803467 0)
(0.0887231 0.000804995 0)
(0.0749192 0.00121387 0)
(0.189676 0.00515075 0)
(0.270221 0.0110535 0)
(0.316266 0.0166004 0)
(0.326125 0.0199661 0)
(0.296625 0.0195714 0)
(0.222594 0.0143014 0)
(0.0959971 0.00257093 0)
(0.0715565 0.0013467 0)
(0.183156 0.00625019 0)
(0.263093 0.0133103 0)
(0.310491 0.0202656 0)
(0.323603 0.0253816 0)
(0.299454 0.0270156 0)
(0.23233 0.0227453 0)
(0.108409 0.00663738 0)
(0.067791 0.00137087 0)
(0.176027 0.00613411 0)
(0.255129 0.0126563 0)
(0.303214 0.0191445 0)
(0.318264 0.024562 0)
(0.297514 0.0282357 0)
(0.235558 0.0274412 0)
(0.117479 0.0110711 0)
(0.0641014 0.00119014 0)
(0.169577 0.00376873 0)
(0.248452 0.00635311 0)
(0.29763 0.00750352 0)
(0.315093 0.0062182 0)
(0.299755 0.00122329 0)
(0.252127 -0.0114208 0)
(0.178054 -0.0518669 0)
(0.0629178 0.000581584 0)
(0.16949 -0.00184666 0)
(0.251401 -0.00751759 0)
(0.304897 -0.0172567 0)
(0.328632 -0.0316669 0)
(0.323741 -0.0520356 0)
(0.294948 -0.0818367 0)
(0.253767 -0.134147 0)
(0.066224 -9.24779e-05 0)
(0.179873 -0.00850575 0)
(0.268892 -0.0236597 0)
(0.32954 -0.0451297 0)
(0.361144 -0.0720877 0)
(0.366001 -0.104278 0)
(0.349812 -0.142385 0)
(0.322549 -0.191923 0)
(0.0741691 -0.000711911 0)
(0.200894 -0.015004 0)
(0.300434 -0.0392161 0)
(0.369407 -0.0712981 0)
(0.407605 -0.108485 0)
(0.417725 -0.148533 0)
(0.405305 -0.189624 0)
(0.378544 -0.233112 0)
(0.0863847 -0.00123653 0)
(0.2316 -0.0208235 0)
(0.344352 -0.0529862 0)
(0.42183 -0.0940247 0)
(0.464233 -0.139225 0)
(0.474466 -0.18449 0)
(0.457963 -0.226111 0)
(0.422353 -0.262796 0)
(0.102328 -0.00166766 0)
(0.270627 -0.0257711 0)
(0.398644 -0.0645096 0)
(0.484338 -0.112756 0)
(0.52834 -0.1641 0)
(0.53378 -0.212842 0)
(0.506287 -0.253665 0)
(0.454 -0.282736 0)
(0.121362 -0.00199661 0)
(0.316361 -0.0295858 0)
(0.461115 -0.0731708 0)
(0.554584 -0.126618 0)
(0.597804 -0.182255 0)
(0.593991 -0.233077 0)
(0.548952 -0.272188 0)
(0.47188 -0.292372 0)
(0.14258 -0.00217052 0)
(0.366585 -0.0316692 0)
(0.528904 -0.0776001 0)
(0.629739 -0.133436 0)
(0.670355 -0.190906 0)
(0.653508 -0.242159 0)
(0.584458 -0.278724 0)
(0.473119 -0.28833 0)
(0.1645 -0.00207866 0)
(0.417868 -0.0310462 0)
(0.597651 -0.0755868 0)
(0.705504 -0.129525 0)
(0.742609 -0.184868 0)
(0.710366 -0.23373 0)
(0.611931 -0.266479 0)
(0.456217 -0.263767 0)
(0.184909 -0.0016255 0)
(0.465318 -0.0267648 0)
(0.661215 -0.0648991 0)
(0.775844 -0.110736 0)
(0.810394 -0.15721 0)
(0.764579 -0.197126 0)
(0.637457 -0.221066 0)
(0.430064 -0.209487 0)
(0.200613 -0.00060578 0)
(0.501783 -0.018436 0)
(0.709031 -0.0446502 0)
(0.825922 -0.0743385 0)
(0.852425 -0.100223 0)
(0.784038 -0.113804 0)
(0.607417 -0.104022 0)
(0.286621 -0.0634313 0)
(0.210117 0.00026542 0)
(0.524071 -0.0104642 0)
(0.736856 -0.0255238 0)
(0.851125 -0.0412758 0)
(0.866017 -0.0520894 0)
(0.776895 -0.0522833 0)
(0.574277 -0.0384911 0)
(0.243371 -0.0127409 0)
(0.214875 0.000766874 0)
(0.535662 -0.00502054 0)
(0.750841 -0.0125844 0)
(0.86206 -0.0200123 0)
(0.868488 -0.0240538 0)
(0.767059 -0.0220735 0)
(0.553118 -0.0141604 0)
(0.22321 -0.00384404 0)
(0.216828 0.000977787 0)
(0.54087 -0.0019469 0)
(0.757145 -0.00524718 0)
(0.866586 -0.00834831 0)
(0.86876 -0.00971121 0)
(0.76222 -0.00828828 0)
(0.545318 -0.00474799 0)
(0.218014 -0.0018417 0)
(0.217385 0.00100655 0)
(0.542765 -0.000497967 0)
(0.759561 -0.00169457 0)
(0.868219 -0.00278915 0)
(0.868587 -0.00319348 0)
(0.76016 -0.00251838 0)
(0.542591 -0.00126284 0)
(0.216523 -0.00114133 0)
(0.217384 0.000948506 0)
(0.543205 5.16218e-05 0)
(0.760268 -0.000247429 0)
(0.868707 -0.00051303 0)
(0.868485 -0.000607282 0)
(0.759515 -0.000382035 0)
(0.541909 -0.000117138 0)
(0.216293 -0.000893981 0)
(0.21723 0.000860716 0)
(0.543127 0.000186577 0)
(0.76033 0.000199877 0)
(0.868788 0.000225838 0)
(0.868479 0.000220992 0)
(0.759455 0.000252512 0)
(0.541941 0.000172541 0)
(0.216423 -0.000785912 0)
(0.21708 0.000769509 0)
(0.542936 0.000167103 0)
(0.760211 0.000248097 0)
(0.868751 0.000346571 0)
(0.868512 0.00036266 0)
(0.759568 0.000338296 0)
(0.542137 0.000185219 0)
(0.216591 -0.000715195 0)
(0.216976 0.000684876 0)
(0.542773 0.000111828 0)
(0.760082 0.000177387 0)
(0.868698 0.000271937 0)
(0.868549 0.000290409 0)
(0.759692 0.000265842 0)
(0.542314 0.000131646 0)
(0.216715 -0.000653025 0)
(0.216916 0.00060817 0)
(0.542667 6.27999e-05 0)
(0.759988 9.7233e-05 0)
(0.868655 0.000169658 0)
(0.868575 0.000186132 0)
(0.759781 0.000175995 0)
(0.542433 7.93618e-05 0)
(0.216792 -0.000592146 0)
(0.216887 0.000538678 0)
(0.542609 3.03809e-05 0)
(0.759932 3.9449e-05 0)
(0.868628 9.07987e-05 0)
(0.868589 0.000105046 0)
(0.759835 0.000108239 0)
(0.542503 4.33897e-05 0)
(0.216835 -0.000531616 0)
(0.216876 0.000474351 0)
(0.542581 1.16009e-05 0)
(0.759902 5.55778e-06 0)
(0.868611 4.18671e-05 0)
(0.868595 5.3954e-05 0)
(0.759863 6.53576e-05 0)
(0.54254 2.22746e-05 0)
(0.216858 -0.00047192 0)
(0.216873 0.000414152 0)
(0.54257 2.54188e-06 0)
(0.759888 -1.09453e-05 0)
(0.868601 1.52876e-05 0)
(0.868596 2.57132e-05 0)
(0.759876 4.07593e-05 0)
(0.542559 1.10736e-05 0)
(0.216869 -0.000413601 0)
(0.216875 0.000356641 0)
(0.542568 -1.55675e-06 0)
(0.759882 -1.71039e-05 0)
(0.868595 2.80884e-06 0)
(0.868594 1.1559e-05 0)
(0.759881 2.71121e-05 0)
(0.542567 5.60746e-06 0)
(0.216875 -0.00035688 0)
(0.216877 0.000301481 0)
(0.542569 -2.53655e-06 0)
(0.75988 -1.76527e-05 0)
(0.868591 -2.24782e-06 0)
(0.868592 5.16195e-06 0)
(0.759882 1.95015e-05 0)
(0.542571 3.05954e-06 0)
(0.216879 -0.00030177 0)
(0.21688 0.000247762 0)
(0.542571 -2.67736e-06 0)
(0.759879 -1.56921e-05 0)
(0.868589 -3.47262e-06 0)
(0.868589 2.46557e-06 0)
(0.759881 1.46821e-05 0)
(0.542573 1.89234e-06 0)
(0.216881 -0.00024809 0)
(0.216882 0.000195483 0)
(0.542574 -1.9529e-06 0)
(0.759879 -1.26012e-05 0)
(0.868587 -3.28833e-06 0)
(0.868587 1.44094e-06 0)
(0.759881 1.12069e-05 0)
(0.542574 1.25852e-06 0)
(0.216882 -0.000195622 0)
(0.216884 0.000143927 0)
(0.542575 -1.48421e-06 0)
(0.759879 -9.26534e-06 0)
(0.868585 -2.39125e-06 0)
(0.868586 9.48839e-07 0)
(0.75988 8.10281e-06 0)
(0.542575 8.25525e-07 0)
(0.216884 -0.000144075 0)
(0.216885 9.31909e-05 0)
(0.542576 -6.1105e-07 0)
(0.759879 -5.79715e-06 0)
(0.868584 -1.51905e-06 0)
(0.868584 6.55525e-07 0)
(0.75988 5.21549e-06 0)
(0.542576 4.0122e-07 0)
(0.216884 -9.31864e-05 0)
(0.216886 4.26059e-05 0)
(0.542577 -1.41348e-07 0)
(0.75988 -2.43322e-06 0)
(0.868584 -4.88366e-07 0)
(0.868584 3.1003e-07 0)
(0.759879 2.23946e-06 0)
(0.542576 -1.99694e-08 0)
(0.216885 -4.26526e-05 0)
(0.216886 -7.71321e-06 0)
(0.542577 7.25462e-07 0)
(0.759879 1.01819e-06 0)
(0.868584 3.82297e-07 0)
(0.868584 1.4002e-11 0)
(0.759879 -6.6843e-07 0)
(0.542576 -4.83738e-07 0)
(0.216884 7.79622e-06 0)
(0.216885 -5.84387e-05 0)
(0.542576 1.23652e-06 0)
(0.759879 4.44101e-06 0)
(0.868584 1.44056e-06 0)
(0.868584 -3.63254e-07 0)
(0.75988 -3.69972e-06 0)
(0.542576 -9.47876e-07 0)
(0.216884 5.84723e-05 0)
(0.216883 -0.000109475 0)
(0.542575 2.19599e-06 0)
(0.759879 8.03631e-06 0)
(0.868585 2.37668e-06 0)
(0.868585 -6.88203e-07 0)
(0.75988 -6.69927e-06 0)
(0.542575 -1.46092e-06 0)
(0.216883 0.000109663 0)
(0.216881 -0.000161526 0)
(0.542573 2.81099e-06 0)
(0.759879 1.15967e-05 0)
(0.868586 3.40793e-06 0)
(0.868587 -1.19595e-06 0)
(0.759881 -9.95779e-06 0)
(0.542574 -2.02516e-06 0)
(0.216881 0.000161709 0)
(0.216878 -0.000214548 0)
(0.542571 3.77197e-06 0)
(0.75988 1.50766e-05 0)
(0.868589 3.88034e-06 0)
(0.86859 -2.14546e-06 0)
(0.759882 -1.35843e-05 0)
(0.542573 -2.81473e-06 0)
(0.216879 0.000214937 0)
(0.216874 -0.000269333 0)
(0.542568 4.0208e-06 0)
(0.75988 1.77199e-05 0)
(0.868592 3.26059e-06 0)
(0.868593 -4.5227e-06 0)
(0.759883 -1.84548e-05 0)
(0.542571 -4.12366e-06 0)
(0.216875 0.000269725 0)
(0.21687 -0.000325979 0)
(0.542566 3.70192e-06 0)
(0.759882 1.83937e-05 0)
(0.868597 -5.6128e-07 0)
(0.868597 -1.00626e-05 0)
(0.759883 -2.58193e-05 0)
(0.542567 -6.71282e-06 0)
(0.216871 0.000326421 0)
(0.216866 -0.000385514 0)
(0.542566 7.48449e-07 0)
(0.759888 1.44331e-05 0)
(0.868604 -1.06086e-05 0)
(0.8686 -2.22715e-05 0)
(0.759881 -3.85387e-05 0)
(0.542559 -1.19422e-05 0)
(0.216863 0.000385386 0)
(0.216865 -0.000448409 0)
(0.542573 -6.31709e-06 0)
(0.759901 1.82651e-06 0)
(0.868615 -3.26277e-05 0)
(0.868603 -4.65656e-05 0)
(0.759872 -6.0866e-05 0)
(0.542542 -2.23051e-05 0)
(0.21685 0.000446867 0)
(0.216871 -0.000516258 0)
(0.542594 -2.1722e-05 0)
(0.759927 -2.54252e-05 0)
(0.868633 -7.3517e-05 0)
(0.868602 -9.03736e-05 0)
(0.75985 -9.91443e-05 0)
(0.542509 -4.14777e-05 0)
(0.216827 0.000511007 0)
(0.216892 -0.000590272 0)
(0.542641 -4.86858e-05 0)
(0.759976 -7.25486e-05 0)
(0.868661 -0.000139246 0)
(0.868596 -0.000159238 0)
(0.759808 -0.000158739 0)
(0.542448 -7.37355e-05 0)
(0.216785 0.000577774 0)
(0.216938 -0.000672721 0)
(0.542727 -8.95958e-05 0)
(0.760055 -0.000137051 0)
(0.868702 -0.000222149 0)
(0.868582 -0.000245199 0)
(0.759738 -0.000235917 0)
(0.542344 -0.000119926 0)
(0.216712 0.000647371 0)
(0.217021 -0.000764629 0)
(0.542859 -0.000134202 0)
(0.760162 -0.000187801 0)
(0.868752 -0.000272367 0)
(0.868563 -0.000294268 0)
(0.759643 -0.000291992 0)
(0.542193 -0.000165201 0)
(0.216596 0.000721621 0)
(0.217141 -0.000865258 0)
(0.543005 -0.000142763 0)
(0.760249 -0.000120476 0)
(0.868783 -0.00012953 0)
(0.868552 -0.000132223 0)
(0.75957 -0.000191989 0)
(0.542035 -0.000144786 0)
(0.216443 0.000808755 0)
(0.217258 -0.00096574 0)
(0.543029 -3.23032e-06 0)
(0.760149 0.000331133 0)
(0.868696 0.000609453 0)
(0.868585 0.000692592 0)
(0.759677 0.000437484 0)
(0.542049 0.000142862 0)
(0.216331 0.000938317 0)
(0.217222 -0.00104183 0)
(0.542542 0.000531018 0)
(0.759416 0.00174048 0)
(0.868212 0.00282521 0)
(0.868714 0.00320841 0)
(0.760362 0.00251136 0)
(0.542764 0.00125359 0)
(0.216568 0.00121146 0)
(0.21665 -0.00103953 0)
(0.540646 0.00192469 0)
(0.757023 0.00517462 0)
(0.866613 0.00820797 0)
(0.868914 0.00952141 0)
(0.762424 0.00809305 0)
(0.545464 0.0046212 0)
(0.218023 0.00193775 0)
(0.214743 -0.000866473 0)
(0.535549 0.00488732 0)
(0.750856 0.012288 0)
(0.862201 0.0195425 0)
(0.868681 0.0234652 0)
(0.767183 0.0214773 0)
(0.553075 0.0137458 0)
(0.223063 0.00395933 0)
(0.210136 -0.000412967 0)
(0.524248 0.0101853 0)
(0.737186 0.0249606 0)
(0.851521 0.0404153 0)
(0.866302 0.0509768 0)
(0.776804 0.0510459 0)
(0.573618 0.037488 0)
(0.242554 0.0127021 0)
(0.200903 0.000412167 0)
(0.502408 0.0180917 0)
(0.709833 0.0440596 0)
(0.826779 0.0734741 0)
(0.853099 0.0989671 0)
(0.78404 0.112 0)
(0.606139 0.101928 0)
(0.284625 0.0616657 0)
(0.185475 0.00141941 0)
(0.466244 0.0267214 0)
(0.662296 0.0652233 0)
(0.777224 0.111528 0)
(0.81223 0.158164 0)
(0.766678 0.197457 0)
(0.638715 0.219874 0)
(0.427059 0.201982 0)
(0.164891 0.00197579 0)
(0.417851 0.0321008 0)
(0.597123 0.0788181 0)
(0.705082 0.135784 0)
(0.743154 0.194597 0)
(0.712593 0.246999 0)
(0.615913 0.283009 0)
(0.460299 0.27923 0)
(0.141845 0.00222345 0)
(0.363183 0.0342975 0)
(0.523049 0.0849205 0)
(0.622566 0.147204 0)
(0.663276 0.212309 0)
(0.647721 0.271993 0)
(0.580538 0.317388 0)
(0.470803 0.332092 0)
(0.11832 0.00224434 0)
(0.3066 0.034081 0)
(0.445619 0.0852716 0)
(0.535349 0.148938 0)
(0.577048 0.216453 0)
(0.57353 0.28016 0)
(0.529756 0.33265 0)
(0.454009 0.363241 0)
(0.0956386 0.00214617 0)
(0.251178 0.0323919 0)
(0.368852 0.0819612 0)
(0.447686 0.144394 0)
(0.488381 0.211692 0)
(0.493343 0.277002 0)
(0.466868 0.334161 0)
(0.415571 0.376621 0)
(0.0745079 0.00200023 0)
(0.198721 0.0299517 0)
(0.295246 0.0766161 0)
(0.362386 0.136156 0)
(0.400205 0.201385 0)
(0.41041 0.266253 0)
(0.396301 0.325533 0)
(0.36282 0.375577 0)
(0.0552299 0.0018443 0)
(0.150171 0.0272059 0)
(0.226281 0.0702692 0)
(0.281346 0.125872 0)
(0.31484 0.18766 0)
(0.327733 0.250304 0)
(0.322347 0.309249 0)
(0.302228 0.362865 0)
(0.0378882 0.00169361 0)
(0.105967 0.0243888 0)
(0.162819 0.0634991 0)
(0.205894 0.114498 0)
(0.23418 0.171808 0)
(0.248007 0.230709 0)
(0.248877 0.287134 0)
(0.239261 0.340865 0)
(0.0224639 0.00155203 0)
(0.066274 0.0216087 0)
(0.105361 0.0566048 0)
(0.136973 0.102573 0)
(0.159746 0.154623 0)
(0.173513 0.208549 0)
(0.179143 0.260649 0)
(0.178331 0.311688 0)
(0.00889816 0.00141818 0)
(0.0311244 0.0189084 0)
(0.0541887 0.0497353 0)
(0.0752495 0.0904084 0)
(0.0927128 0.136631 0)
(0.10606 0.184635 0)
(0.115711 0.23101 0)
(0.12282 0.277194 0)
(-0.00288007 0.00128954 0)
(0.000478481 0.016302 0)
(0.00944207 0.0429674 0)
(0.0211666 0.0781968 0)
(0.033935 0.118208 0)
(0.0470053 0.159609 0)
(0.0604995 0.199237 0)
(0.0752093 0.238975 0)
(-0.0129438 0.00116427 0)
(-0.0257415 0.0137961 0)
(-0.0288398 0.0363496 0)
(-0.0250168 0.0660751 0)
(-0.01602 0.0996412 0)
(-0.00270946 0.133985 0)
(0.0148551 0.166169 0)
(0.0372327 0.198355 0)
(-0.0213672 0.00104058 0)
(-0.0476408 0.0113931 0)
(-0.0606858 0.0299178 0)
(-0.0631644 0.0541548 0)
(-0.0567922 0.0811673 0)
(-0.0424654 0.108188 0)
(-0.020332 0.132491 0)
(0.0100368 0.156402 0)
(-0.0282232 0.000916274 0)
(-0.0653486 0.00908982 0)
(-0.0862011 0.0236897 0)
(-0.0932872 0.0425096 0)
(-0.0882374 0.0629637 0)
(-0.0719247 0.0825533 0)
(-0.0445249 0.0987501 0)
(-0.00567776 0.113957 0)
(-0.0335802 0.000790424 0)
(-0.0790004 0.0068842 0)
(-0.105523 0.0176771 0)
(-0.115471 0.0311896 0)
(-0.11035 0.0451532 0)
(-0.0909664 0.0573161 0)
(-0.0574781 0.0653423 0)
(-0.00954981 0.0716512 0)
(-0.0375048 0.000662228 0)
(-0.0887391 0.00477318 0)
(-0.118821 0.0118855 0)
(-0.129866 0.0202274 0)
(-0.12323 0.0278215 0)
(-0.0996211 0.0326461 0)
(-0.0591504 0.0325538 0)
(-0.00147787 0.0299398 0)
(-0.0400604 0.000531124 0)
(-0.09471 0.00275257 0)
(-0.126281 0.00631479 0)
(-0.136666 0.00964128 0)
(-0.127055 0.0110246 0)
(-0.0980367 0.00866164 0)
(-0.0496559 0.00059216 0)
(0.0184437 -0.0108384 0)
(-0.0413064 0.000396801 0)
(-0.0970569 0.000817288 0)
(-0.1281 0.000960748 0)
(-0.136098 -0.000561715 0)
(-0.122058 -0.00520211 0)
(-0.0864461 -0.0145526 0)
(-0.0292372 -0.0303831 0)
(0.0499317 -0.0504092 0)
(-0.0412984 0.00025925 0)
(-0.0959209 -0.00103799 0)
(-0.124481 -0.00418275 0)
(-0.128407 -0.0103793 0)
(-0.108524 -0.0208335 0)
(-0.0651678 -0.0369301 0)
(0.00175119 -0.0602478 0)
(0.0925893 -0.0885627 0)
(-0.0400879 0.00011895 0)
(-0.0914388 -0.00281738 0)
(-0.115632 -0.0091199 0)
(-0.113861 -0.0198076 0)
(-0.0867698 -0.035847 0)
(-0.0345712 -0.0584176 0)
(0.0428837 -0.0889016 0)
(0.145925 -0.125139 0)
(-0.0377241 -2.30992e-05 0)
(-0.0837463 -0.00452312 0)
(-0.101765 -0.0138516 0)
(-0.0927421 -0.0288405 0)
(-0.0571453 -0.0502205 0)
(0.00493045 -0.0789687 0)
(0.0936652 -0.116257 0)
(0.209372 -0.160002 0)
(-0.0342548 -0.000165437 0)
(-0.07298 -0.00615564 0)
(-0.0830993 -0.0183756 0)
(-0.0653487 -0.0374674 0)
(-0.0200271 -0.063929 0)
(0.0528764 -0.0985305 0)
(0.153558 -0.142232 0)
(0.282312 -0.193034 0)
(-0.0297279 -0.000306364 0)
(-0.0592788 -0.0077139 0)
(-0.0598616 -0.0226861 0)
(-0.0319925 -0.0456732 0)
(0.0241925 -0.0769415 0)
(0.10877 -0.117044 0)
(0.221981 -0.166744 0)
(0.364081 -0.22412 0)
(-0.0241929 -0.000443851 0)
(-0.0427876 -0.0091946 0)
(-0.0322905 -0.0267726 0)
(0.00699451 -0.0534345 0)
(0.0750654 -0.0892095 0)
(0.172088 -0.134447 0)
(0.298323 -0.18971 0)
(0.453984 -0.253154 0)
(-0.0177016 -0.00057575 0)
(-0.0236596 -0.0105928 0)
(-0.000638677 -0.0306206 0)
(0.0512528 -0.0607193 0)
(0.132144 -0.100688 0)
(0.242285 -0.150677 0)
(0.381947 -0.211047 0)
(0.551307 -0.280039 0)
(-0.0103099 -0.000700019 0)
(-0.00205885 -0.0119021 0)
(0.034821 -0.034211 0)
(0.100403 -0.0674938 0)
(0.194952 -0.111329 0)
(0.31879 -0.165669 0)
(0.4722 -0.230681 0)
(0.655322 -0.304688 0)
(-0.00207841 -0.000814606 0)
(0.021837 -0.0131146 0)
(0.0737944 -0.0375241 0)
(0.154051 -0.0737266 0)
(0.262997 -0.121087 0)
(0.401019 -0.179368 0)
(0.568416 -0.248545 0)
(0.7653 -0.327032 0)
(0.0069267 -0.000917582 0)
(0.0478361 -0.0142226 0)
(0.115979 -0.0405436 0)
(0.211787 -0.0793902 0)
(0.335767 -0.129923 0)
(0.488374 -0.191723 0)
(0.669926 -0.264585 0)
(0.880519 -0.347017 0)
(0.0166346 -0.00100757 0)
(0.0757399 -0.0152209 0)
(0.161058 -0.0432558 0)
(0.273184 -0.0844604 0)
(0.41274 -0.137804 0)
(0.580251 -0.202697 0)
(0.776062 -0.278767 0)
(1.00027 -0.364615 0)
(0.0269711 -0.00108379 0)
(0.105339 -0.0161046 0)
(0.208699 -0.0456491 0)
(0.337804 -0.0889186 0)
(0.493389 -0.144707 0)
(0.676049 -0.212267 0)
(0.886165 -0.291073 0)
(1.12385 -0.379816 0)
(0.037859 -0.00114572 0)
(0.136419 -0.0168701 0)
(0.258567 -0.0477154 0)
(0.405207 -0.0927532 0)
(0.577184 -0.15062 0)
(0.77517 -0.220426 0)
(0.999594 -0.301503 0)
(1.25059 -0.392639 0)
(0.0492188 -0.00119323 0)
(0.168761 -0.0175154 0)
(0.310322 -0.049451 0)
(0.474951 -0.0959608 0)
(0.663603 -0.155542 0)
(0.87703 -0.22718 0)
(1.11572 -0.310079 0)
(1.37986 -0.403122 0)
(0.0609704 -0.00122651 0)
(0.202144 -0.0180402 0)
(0.363624 -0.0508568 0)
(0.546599 -0.098546 0)
(0.752131 -0.159487 0)
(0.981062 -0.232554 0)
(1.23395 -0.316843 0)
(1.51102 -0.411325 0)
(0.0730338 -0.0012461 0)
(0.236351 -0.0184461 0)
(0.418141 -0.0519381 0)
(0.619723 -0.100521 0)
(0.842271 -0.162476 0)
(1.08672 -0.236586 0)
(1.3537 -0.321851 0)
(1.64351 -0.417328 0)
(0.0853306 -0.00125271 0)
(0.271168 -0.018736 0)
(0.473546 -0.0527044 0)
(0.693911 -0.101906 0)
(0.933545 -0.164544 0)
(1.19347 -0.239327 0)
(1.47442 -0.325175 0)
(1.77677 -0.421227 0)
(0.0977847 -0.00124732 0)
(0.306391 -0.0189144 0)
(0.52953 -0.0531686 0)
(0.768768 -0.102726 0)
(1.0255 -0.165732 0)
(1.30084 -0.240838 0)
(1.59561 -0.3269 0)
(1.91028 -0.423132 0)
(0.110324 -0.00123095 0)
(0.341824 -0.0189872 0)
(0.585796 -0.0533467 0)
(0.843921 -0.103011 0)
(1.11769 -0.16609 0)
(1.40834 -0.241192 0)
(1.71677 -0.32712 0)
(2.04355 -0.423163 0)
(0.122879 -0.00120481 0)
(0.377283 -0.0189609 0)
(0.642066 -0.0532569 0)
(0.919018 -0.102798 0)
(1.20974 -0.165673 0)
(1.51555 -0.240464 0)
(1.83746 -0.325938 0)
(2.17614 -0.421447 0)
(0.135387 -0.00117006 0)
(0.412597 -0.018843 0)
(0.698082 -0.0529195 0)
(0.993733 -0.102122 0)
(1.30125 -0.164539 0)
(1.62206 -0.238738 0)
(1.95726 -0.32346 0)
(2.30762 -0.41812 0)
(0.147789 -0.00112797 0)
(0.447609 -0.0186415 0)
(0.753606 -0.0523557 0)
(1.06777 -0.101025 0)
(1.39189 -0.16275 0)
(1.7275 -0.236099 0)
(2.07578 -0.319798 0)
(2.43762 -0.413317 0)
(0.160032 -0.00107967 0)
(0.482175 -0.0183644 0)
(0.808422 -0.0515874 0)
(1.14085 -0.0995465 0)
(1.48135 -0.160369 0)
(1.83153 -0.232633 0)
(2.19268 -0.315063 0)
(2.56579 -0.407177 0)
(0.172068 -0.00102638 0)
(0.516166 -0.0180201 0)
(0.862337 -0.0506368 0)
(1.21274 -0.0977274 0)
(1.56934 -0.157457 0)
(1.93385 -0.228428 0)
(2.30765 -0.309367 0)
(2.6918 -0.399835 0)
(0.183855 -0.000969128 0)
(0.549471 -0.0176166 0)
(0.915178 -0.0495257 0)
(1.28321 -0.0956082 0)
(1.65562 -0.154078 0)
(2.03418 -0.223568 0)
(2.42038 -0.302817 0)
(2.81536 -0.391428 0)
(0.195356 -0.000908994 0)
(0.581988 -0.0171622 0)
(0.966794 -0.0482755 0)
(1.35208 -0.0932281 0)
(1.73995 -0.150292 0)
(2.13229 -0.218136 0)
(2.53063 -0.295522 0)
(2.93623 -0.382085 0)
(0.20654 -0.000846873 0)
(0.613633 -0.0166644 0)
(1.01705 -0.0469066 0)
(1.41917 -0.090625 0)
(1.82216 -0.146156 0)
(2.22795 -0.212213 0)
(2.63819 -0.287584 0)
(3.05417 -0.371933 0)
(0.21738 -0.000783671 0)
(0.644334 -0.0161305 0)
(1.06585 -0.0454387 0)
(1.48435 -0.0878351 0)
(1.90207 -0.141726 0)
(2.321 -0.205874 0)
(2.74285 -0.2791 0)
(3.16899 -0.361092 0)
(0.227856 -0.000720123 0)
(0.674031 -0.0155675 0)
(1.11309 -0.0438901 0)
(1.5475 -0.0848921 0)
(1.97954 -0.137055 0)
(2.41127 -0.199193 0)
(2.84445 -0.270164 0)
(3.28052 -0.349676 0)
(0.237949 -0.000656964 0)
(0.702676 -0.0149817 0)
(1.1587 -0.042278 0)
(1.60851 -0.0818279 0)
(2.05446 -0.13219 0)
(2.49863 -0.192236 0)
(2.94285 -0.260862 0)
(3.38861 -0.337794 0)
(0.247646 -0.000594756 0)
(0.730234 -0.014379 0)
(1.20262 -0.0406181 0)
(1.66733 -0.0786717 0)
(2.12674 -0.127178 0)
(2.58299 -0.185066 0)
(3.03794 -0.251275 0)
(3.49315 -0.325545 0)
(0.256939 -0.000534063 0)
(0.756677 -0.0137648 0)
(1.2448 -0.038925 0)
(1.72388 -0.0754503 0)
(2.19631 -0.12206 0)
(2.66426 -0.17774 0)
(3.12963 -0.241478 0)
(3.59403 -0.313023 0)
(0.265822 -0.00047528 0)
(0.781987 -0.013144 0)
(1.28523 -0.0372117 0)
(1.77813 -0.0721883 0)
(2.26311 -0.116873 0)
(2.74238 -0.170313 0)
(3.21786 -0.23154 0)
(3.69119 -0.300314 0)
(0.274291 -0.000418809 0)
(0.806156 -0.0125209 0)
(1.32388 -0.0354901 0)
(1.83006 -0.0689077 0)
(2.32713 -0.111653 0)
(2.81731 -0.162832 0)
(3.30257 -0.221524 0)
(3.78457 -0.287496 0)
(0.282348 -0.000364895 0)
(0.829181 -0.0118994 0)
(1.36074 -0.0337707 0)
(1.87964 -0.0656283 0)
(2.38833 -0.10643 0)
(2.88904 -0.155341 0)
(3.38375 -0.211488 0)
(3.87415 -0.274642 0)
(0.289993 -0.000313796 0)
(0.851067 -0.0112829 0)
(1.39583 -0.0320627 0)
(1.9269 -0.0623674 0)
(2.44673 -0.101231 0)
(2.95755 -0.147877 0)
(3.46137 -0.201481 0)
(3.9599 -0.261816 0)
(0.297232 -0.000265625 0)
(0.871825 -0.0106743 0)
(1.42916 -0.0303743 0)
(1.97184 -0.0591404 0)
(2.50232 -0.0960813 0)
(3.02286 -0.140477 0)
(3.53546 -0.191549 0)
(4.04183 -0.249075 0)
(0.304071 -0.000220518 0)
(0.891469 -0.0100762 0)
(1.46074 -0.0287124 0)
(2.01448 -0.0559607 0)
(2.55515 -0.0910015 0)
(3.085 -0.13317 0)
(3.60602 -0.181733 0)
(4.11996 -0.236471 0)
(0.310517 -0.000178482 0)
(0.91002 -0.00949065 0)