/*--------------------------------*- C++ -*----------------------------------*\
| =========                 |                                                 |
| \\      /  F ield         | OpenFOAM: The Open Source CFD Toolbox           |
|  \\    /   O peration     | Version:  2212                                  |
|   \\  /    A nd           | Website:  www.openfoam.com                      |
|    \\/     M anipulation  |                                                 |
\*---------------------------------------------------------------------------*/
FoamFile
{
    version     2.0;
    format      ascii;
    arch        "LSB;label=32;scalar=64";
    class       volScalarField;
    location    "0.02";
    object      alphat;
}
// * * * * * * * * * * * * * * * * * * * * * * * * * * * * * * * * * * * * * //

dimensions      [1 -1 -1 0 0 0 0];

internalField   nonuniform List<scalar> 
3072
(
0.000354736
0.000742184
0.000761365
0.000755959
0.000722296
0.000701657
0.000817665
0.00144886
0.00187959
0.00203595
0.00212155
0.00218236
0.00057433
0.00146566
0.00191621
0.00171728
0.00102703
0.00103998
0.00184992
0.00253879
0.0039101
0.00547344
0.00754383
0.00970608
0.000751048
0.00268383
0.00293515
0.0024005
0.00215043
0.00299387
0.00466144
0.00688918
0.00980854
0.0129756
0.0160111
0.0187927
0.000948895
0.00364135
0.00346555
0.00320221
0.00395078
0.00620581
0.00906656
0.012378
0.0159739
0.0195304
0.0227247
0.0255087
0.00109644
0.00469175
0.00500638
0.00516202
0.00707735
0.0100878
0.0134702
0.0171806
0.0209134
0.0244527
0.0276231
0.0303771
0.00122647
0.00595721
0.00696303
0.00775101
0.0102195
0.0135456
0.0171392
0.0208494
0.0245022
0.0279164
0.0309877
0.0336703
0.00131263
0.0067255
0.00849295
0.0102085
0.0130904
0.0165139
0.0200519
0.0236266
0.0270646
0.0302658
0.0331622
0.0357192
0.0014028
0.00784639
0.0102483
0.0127902
0.0160474
0.0194847
0.0228948
0.0262043
0.0293076
0.0321578
0.0347259
0.0369877
0.00151104
0.00889755
0.012727
0.0161921
0.0196428
0.0228557
0.0258166
0.0285524
0.0310623
0.0333497
0.0354384
0.0373091
0.00166565
0.0102373
0.0154592
0.0195185
0.0227574
0.025481
0.0277935
0.0298735
0.0317714
0.0335453
0.0352169
0.0367894
0.00189921
0.00999394
0.0171697
0.0213659
0.0242472
0.0265594
0.0285354
0.0303122
0.0318711
0.0333602
0.0347772
0.0361221
0.0034244
0.010227
0.0185471
0.0229343
0.0255259
0.0277188
0.0294624
0.0309621
0.0322872
0.0335095
0.0346616
0.0357554
0.0022155
0.00223249
0.00223412
0.0022323
0.00221017
0.00216912
0.00210458
0.00201178
0.00188389
0.00172033
0.00148754
0.000720751
0.0117098
0.0132609
0.0141977
0.014352
0.0139498
0.0130619
0.0116967
0.00987594
0.00761505
0.00463611
0.00220488
0.00122408
0.02102
0.0225379
0.0232534
0.0233306
0.0227514
0.021488
0.0195296
0.0168316
0.0133594
0.00910885
0.00405429
0.00160847
0.027772
0.0294103
0.0303582
0.0306748
0.0302916
0.0291353
0.0270929
0.024017
0.019719
0.0141011
0.00697706
0.00196538
0.0326486
0.0343847
0.0355509
0.0361214
0.0360334
0.0351977
0.0334502
0.0305068
0.0258533
0.0192214
0.0102533
0.00231622
0.035925
0.0377237
0.0390484
0.0398741
0.0401699
0.039841
0.0386556
0.0361855
0.0317817
0.0245735
0.0140664
0.00268176
0.0379019
0.0396876
0.0410695
0.0420617
0.0426805
0.0428699
0.0424131
0.0407914
0.0370526
0.0298089
0.0181087
0.00306301
0.0389259
0.0405372
0.0418402
0.0428899
0.0437259
0.0443489
0.0446217
0.0440467
0.0414394
0.0346493
0.0218413
0.00348947
0.0389517
0.0403719
0.0415889
0.0426517
0.0436154
0.0445359
0.0453986
0.0458665
0.0447446
0.0390997
0.0252542
0.00395582
0.0382208
0.0395171
0.0406731
0.041727
0.0427542
0.0438183
0.045019
0.0462782
0.0466853
0.043072
0.0291167
0.00445198
0.0373842
0.0385557
0.0396136
0.0406252
0.0415756
0.0425747
0.0438698
0.0454083
0.0468838
0.0456487
0.0335614
0.00499815
0.0367939
0.0377781
0.0387039
0.0396379
0.0405662
0.041416
0.0423522
0.0438816
0.0458933
0.0468456
0.038258
0.00562488
0.000342636
0.000721778
0.000743584
0.000739405
0.00071372
0.000681025
0.000726064
0.00111964
0.00169129
0.00190213
0.00198961
0.00205708
0.000553828
0.00140166
0.00189623
0.00183092
0.00118605
0.000911193
0.00169658
0.00212156
0.00321633
0.00457091
0.00644333
0.00839857
0.000719512
0.00252351
0.00301302
0.00253655
0.00222489
0.00242159
0.00376805
0.00557387
0.00814625
0.0111778
0.0140859
0.0167123
0.000905257
0.00354892
0.0034159
0.00303632
0.00329589
0.00484747
0.00751175
0.010506
0.013884
0.0173285
0.0204076
0.0230952
0.0010466
0.00441805
0.00450294
0.00443139
0.0057273
0.00855821
0.0117009
0.0151159
0.0186632
0.0220659
0.0251057
0.027756
0.00117059
0.00556224
0.00630806
0.00679731
0.00891295
0.011995
0.0153351
0.0187918
0.0221967
0.0254447
0.0283728
0.0309413
0.00126292
0.00639573
0.00794019
0.0093681
0.0120007
0.015185
0.0184538
0.0217372
0.0249344
0.0279141
0.0306118
0.0330051
0.00136026
0.0075773
0.00978576
0.0122582
0.0152607
0.0183945
0.0214694
0.0244502
0.0272709
0.0298579
0.0321974
0.034276
0.00147562
0.0087284
0.0124812
0.015758
0.0188982
0.0217685
0.0243854
0.0267977
0.0290107
0.0310345
0.0328951
0.0345799
0.00163372
0.0101464
0.0150961
0.0187559
0.0216968
0.0241017
0.0261347
0.0279561
0.0296156
0.0311686
0.0326611
0.0340796
0.00186042
0.00973752
0.0163685
0.0202535
0.0228733
0.024964
0.0267099
0.0282353
0.0296228
0.0309239
0.0321759
0.0334153
0.0033297
0.00969875
0.017447
0.0215491
0.0238305
0.0257588
0.0272939
0.0286136
0.0298047
0.0309131
0.0319722
0.0330093
0.00209299
0.00211498
0.00211847
0.0021187
0.00210568
0.00206905
0.002013
0.00192851
0.00181171
0.00165735
0.00143452
0.000692721
0.0103503
0.0119662
0.0129494
0.0131982
0.0128372
0.0120539
0.0108179
0.0091764
0.00709096
0.00434616
0.00209685
0.00118097
0.0189354
0.0205314
0.0213501
0.0214469
0.0209625
0.0198417
0.0180752
0.0156093
0.0124293
0.00850892
0.00381973
0.00155561
0.0253057
0.0269485
0.0279535
0.0283305
0.0280519
0.0270372
0.0251936
0.0223571
0.0184078
0.0132296
0.00657801
0.00190078
0.0299653
0.0316831
0.0328706
0.0334939
0.033495
0.0327873
0.0312202
0.028531
0.0241868
0.0180281
0.00965758
0.00224159
0.0331199
0.0348823
0.0362068
0.0370647
0.0374168
0.0371756
0.0361255
0.0338687
0.0298067
0.0230823
0.0132858
0.00259603
0.0350728
0.036793
0.0381535
0.0391575
0.0398136
0.0400687
0.0397175
0.0382684
0.0348259
0.0280772
0.0171475
0.00296616
0.0360889
0.0376304
0.038904
0.0399482
0.0408027
0.041469
0.0418175
0.0413729
0.0390141
0.0327273
0.0207859
0.00337868
0.036107
0.0374714
0.0386634
0.039714
0.0406797
0.041625
0.0425383
0.0430968
0.0421635
0.0369706
0.024069
0.00383556
0.035422
0.0366611
0.037779
0.0388164
0.0398289
0.0409153
0.0421538
0.0434732
0.0440605
0.040729
0.0278276
0.00432488
0.03461
0.0357474
0.0368111
0.0378191
0.0387646
0.0397551
0.0410676
0.0427425
0.0442709
0.0434533
0.0323034
0.00487281
0.034026
0.0350153
0.0359758
0.036965
0.0379323
0.0387853
0.0397502
0.0412474
0.0433376
0.0446214
0.0371723
0.0055234
0.000354708
0.000742138
0.000761314
0.000755909
0.000722255
0.000701605
0.000817494
0.00144847
0.00187943
0.00203585
0.00212146
0.00218228
0.000574289
0.00146546
0.00191616
0.00171716
0.00102716
0.00103995
0.00184965
0.00253833
0.00390937
0.00547234
0.00754262
0.00970473
0.000750999
0.00268342
0.00293537
0.002401
0.00215063
0.00299305
0.00466018
0.00688764
0.00980655
0.0129737
0.0160091
0.0187907
0.000948829
0.00364139
0.0034656
0.00320206
0.00394944
0.00620369
0.00906437
0.0123758
0.0159715
0.0195281
0.0227224
0.0255064
0.00109636
0.00469117
0.0050052
0.00516029
0.00707475
0.0100856
0.0134678
0.0171781
0.0209108
0.0244503
0.0276207
0.0303747
0.00122639
0.00595636
0.00696131
0.00774865
0.010217
0.0135432
0.0171367
0.0208468
0.0244997
0.0279139
0.0309852
0.0336678
0.00131256
0.00672465
0.00849124
0.0102062
0.013088
0.0165116
0.0200495
0.0236242
0.0270621
0.0302633
0.0331598
0.0357168
0.00140276
0.00784576
0.0102469
0.0127886
0.0160457
0.0194828
0.0228927
0.0262021
0.0293054
0.0321555
0.0347236
0.0369854
0.00151103
0.00889732
0.0127266
0.0161916
0.0196419
0.0228545
0.0258151
0.0285507
0.0310604
0.0333477
0.0354363
0.037307
0.00166568
0.0102379
0.0154598
0.0195186
0.0227571
0.0254803
0.0277924
0.0298722
0.0317699
0.0335437
0.0352151
0.0367876
0.00189926
0.00999473
0.0171702
0.0213662
0.0242471
0.0265592
0.0285349
0.0303114
0.0318701
0.0333589
0.0347758
0.0361206
0.00342439
0.0102273
0.0185474
0.0229346
0.025526
0.0277188
0.0294622
0.0309616
0.0322866
0.0335087
0.0346606
0.0357542
0.00221542
0.00223242
0.00223405
0.00223224
0.00221011
0.00216907
0.00210454
0.00201174
0.00188386
0.0017203
0.00148752
0.000720742
0.0117085
0.0132598
0.0141967
0.014351
0.013949
0.0130611
0.0116961
0.00987549
0.00761475
0.00463594
0.00220483
0.00122406
0.021018
0.0225361
0.0232519
0.0233291
0.02275
0.0214868
0.0195286
0.0168308
0.0133588
0.00910851
0.00405415
0.00160844
0.0277699
0.0294082
0.0303563
0.030673
0.03029
0.0291338
0.0270916
0.0240159
0.0197181
0.0141006
0.00697684
0.00196535
0.0326463
0.0343824
0.0355487
0.0361193
0.0360315
0.0351959
0.0334486
0.0305055
0.0258522
0.0192207
0.010253
0.00231618
0.0359225
0.0377213
0.0390461
0.0398718
0.0401678
0.0398389
0.0386538
0.0361839
0.0317804
0.0245725
0.0140659
0.00268172
0.0378995
0.0396852
0.0410671
0.0420594
0.0426783
0.0428677
0.0424111
0.0407896
0.0370511
0.0298078
0.0181082
0.00306296
0.0389235
0.0405349
0.0418379
0.0428876
0.0437236
0.0443466
0.0446195
0.0440447
0.0414377
0.0346481
0.0218407
0.00348942
0.0389495
0.0403697
0.0415867
0.0426495
0.0436132
0.0445336
0.0453963
0.0458643
0.0447427
0.0390983
0.0252535
0.00395576
0.0382189
0.0395151
0.0406711
0.0417249
0.0427521
0.0438161
0.0450168
0.046276
0.0466833
0.0430704
0.0291159
0.00445192
0.0373825
0.038554
0.0396119
0.0406234
0.0415736
0.0425726
0.0438677
0.0454062
0.0468816
0.045647
0.0335606
0.00499808
0.0367925
0.0377767
0.0387024
0.0396363
0.0405645
0.0414143
0.0423503
0.0438796
0.0458912
0.0468437
0.0382571
0.0056248
0.000342651
0.000721805
0.000743608
0.00073943
0.000713742
0.000681048
0.000726099
0.00111975
0.00169134
0.00190216
0.00198963
0.0020571
0.000553852
0.0014017
0.00189626
0.00183093
0.00118595
0.000911261
0.00169666
0.00212168
0.0032166
0.00457115
0.00644364
0.0083989
0.000719543
0.00252365
0.00301291
0.00253636
0.00222456
0.00242171
0.00376842
0.00557432
0.00814682
0.0111783
0.0140864
0.0167128
0.000905298
0.0035489
0.00341585
0.00303636
0.00329597
0.00484832
0.00751255
0.0105067
0.0138847
0.0173292
0.0204082
0.0230958
0.00104665
0.0044183
0.00450329
0.00443189
0.00572842
0.0085594
0.0117018
0.0151168
0.018664
0.0220667
0.0251064
0.0277567
0.00117064
0.00556268
0.00630872
0.00679827
0.00891412
0.011996
0.015336
0.0187926
0.0221975
0.0254454
0.0283734
0.0309419
0.00126294
0.00639611
0.00794094
0.00936915
0.0120017
0.0151859
0.0184546
0.0217379
0.024935
0.0279147
0.0306123
0.0330057
0.00136027
0.00757759
0.00978636
0.0122587
0.0152612
0.018395
0.0214699
0.0244507
0.0272714
0.0298583
0.0321978
0.0342765
0.00147561
0.00872838
0.0124812
0.0157579
0.0188982
0.0217686
0.0243856
0.0267979
0.0290109
0.0310347
0.0328954
0.0345802
0.00163369
0.0101459
0.0150955
0.0187555
0.0216965
0.0241015
0.0261347
0.0279561
0.0296157
0.0311687
0.0326612
0.0340798
0.00186037
0.00973694
0.016368
0.020253
0.0228729
0.0249636
0.0267096
0.0282351
0.0296226
0.0309238
0.0321758
0.0334153
0.00332967
0.00969842
0.0174465
0.0215486
0.02383
0.0257583
0.0272934
0.0286132
0.0298043
0.0309128
0.0319719
0.0330092
0.00209301
0.002115
0.00211848
0.00211871
0.00210569
0.00206906
0.00201301
0.00192852
0.00181171
0.00165736
0.00143453
0.000692725
0.0103506
0.0119664
0.0129496
0.0131983
0.0128373
0.012054
0.010818
0.00917646
0.00709101
0.00434618
0.00209686
0.00118098
0.0189359
0.0205318
0.0213504
0.0214471
0.0209627
0.0198419
0.0180753
0.0156094
0.0124294
0.00850897
0.00381975
0.00155562
0.0253062
0.026949
0.0279539
0.0283308
0.0280522
0.0270375
0.0251938
0.0223573
0.0184079
0.0132297
0.00657805
0.00190079
0.0299659
0.0316836
0.0328711
0.0334943
0.0334954
0.0327876
0.0312205
0.0285312
0.024187
0.0180282
0.00965763
0.0022416
0.0331205
0.0348828
0.0362073
0.0370651
0.0374172
0.037176
0.0361258
0.0338689
0.0298069
0.0230824
0.0132858
0.00259604
0.0350733
0.0367935
0.0381539
0.039158
0.039814
0.0400691
0.0397178
0.0382687
0.0348262
0.0280774
0.0171476
0.00296617
0.0360893
0.0376309
0.0389044
0.0399487
0.0408031
0.0414694
0.0418179
0.0413733
0.0390144
0.0327275
0.020786
0.0033787
0.0361074
0.0374718
0.0386638
0.0397144
0.0406801
0.0416254
0.0425387
0.0430972
0.0421638
0.0369709
0.0240691
0.00383558
0.0354223
0.0366613
0.0377792
0.0388167
0.0398292
0.0409156
0.0421542
0.0434735
0.0440609
0.0407293
0.0278277
0.0043249
0.0346101
0.0357475
0.0368112
0.0378192
0.0387647
0.0397554
0.041068
0.0427428
0.0442714
0.0434537
0.0323036
0.00487283
0.0340259
0.0350152
0.0359759
0.0369651
0.0379324
0.0387854
0.0397505
0.0412477
0.0433381
0.0446219
0.0371727
0.00552343
0.0210405
0.0219853
0.0238753
0.0258926
0.0278406
0.0295881
0.0309439
0.0321432
0.0332027
0.0341532
0.0350272
0.03584
0.0330102
0.030809
0.0303555
0.0307148
0.0315153
0.0321856
0.0328337
0.0336961
0.0344569
0.035082
0.0356272
0.0361165
0.0406339
0.038446
0.0369521
0.0360198
0.035643
0.0354985
0.0355049
0.0356089
0.0357166
0.0358225
0.035967
0.0361176
0.0432366
0.0417125
0.0402658
0.0390371
0.0380756
0.0373033
0.0367333
0.0363824
0.0360745
0.03579
0.0355605
0.0352969
0.0366022
0.0373263
0.0380143
0.0387014
0.0394348
0.0403619
0.0412561
0.0423134
0.0441172
0.0465613
0.047611
0.0222004
0.0365629
0.0369924
0.0374178
0.03787
0.0383708
0.0389698
0.0398543
0.0407202
0.0420793
0.0445297
0.0495275
0.0364665
0.0362279
0.0363556
0.0365204
0.0367814
0.0371504
0.0376435
0.038365
0.0393258
0.040534
0.0423496
0.0469739
0.0428415
0.035101
0.0350553
0.0351888
0.035603
0.036158
0.0368579
0.0377492
0.0388695
0.040161
0.0415226
0.0444939
0.0442585
0.019826
0.020436
0.0220294
0.0239289
0.0256036
0.0270382
0.0282641
0.0293826
0.0303994
0.0313268
0.0321995
0.0330413
0.0314646
0.028968
0.0281079
0.0281969
0.0285809
0.0291246
0.029783
0.0306411
0.0314127
0.0320885
0.0327318
0.0333353
0.0392104
0.0365628
0.034462
0.0332786
0.0325418
0.0323378
0.0323581
0.0325262
0.0327668
0.0329534
0.0332015
0.0334813
0.0420287
0.0398954
0.0380709
0.0365111
0.0352811
0.0344876
0.0339311
0.0335397
0.0333476
0.0331981
0.0330888
0.0330126
0.0338622
0.0346594
0.0354272
0.0361846
0.0369889
0.0379015
0.0386842
0.0398815
0.0418105
0.0445129
0.0468659
0.0227274
0.0339279
0.0344943
0.0350268
0.0355491
0.0360797
0.0368092
0.0375432
0.0383897
0.0399851
0.0426771
0.0485568
0.037353
0.0338303
0.0341217
0.0343577
0.0345926
0.0348765
0.0353667
0.036091
0.0368891
0.038408
0.0404009
0.0455324
0.043464
0.0329472
0.0328749
0.0328666
0.032952
0.0331957
0.0338368
0.0346464
0.0356365
0.0373264
0.0390335
0.0428769
0.0440461
0.0210401
0.021985
0.0238751
0.0258924
0.0278403
0.029588
0.0309437
0.0321429
0.0332022
0.0341525
0.0350264
0.0358391
0.0330097
0.0308083
0.0303548
0.0307141
0.0315147
0.0321852
0.0328332
0.0336955
0.0344563
0.0350813
0.0356264
0.0361157
0.0406329
0.0384448
0.0369508
0.0360186
0.0356418
0.0354976
0.0355041
0.0356081
0.0357158
0.0358217
0.0359662
0.0361168
0.0432349
0.0417105
0.040264
0.0390355
0.0380741
0.037302
0.0367321
0.0363813
0.0360735
0.035789
0.0355596
0.0352961
0.0366011
0.0373251
0.0380131
0.0387001
0.0394333
0.0403603
0.0412545
0.0423117
0.0441153
0.0465593
0.0476097
0.0222002
0.036562
0.0369914
0.0374167
0.0378689
0.0383696
0.0389685
0.0398529
0.0407188
0.0420776
0.0445278
0.0495257
0.0364658
0.036227
0.0363547
0.0365195
0.0367804
0.0371493
0.0376424
0.0383637
0.0393244
0.0405325
0.0423479
0.0469721
0.0428404
0.0351001
0.0350545
0.0351879
0.035602
0.0361569
0.0368567
0.0377479
0.0388681
0.0401596
0.0415211
0.0444923
0.0442573
0.0198259
0.0204359
0.0220292
0.0239285
0.0256032
0.0270377
0.0282636
0.0293822
0.030399
0.0313265
0.0321992
0.033041
0.0314642
0.0289677
0.0281076
0.0281966
0.0285806
0.0291242
0.0297827
0.0306408
0.0314123
0.0320882
0.0327315
0.0333351
0.0392095
0.0365622
0.0344615
0.0332782
0.0325415
0.0323376
0.0323578
0.032526
0.0327666
0.0329532
0.0332013
0.0334811
0.0420277
0.0398947
0.0380703
0.0365108
0.035281
0.0344875
0.033931
0.0335397
0.0333476
0.033198
0.0330888
0.0330125
0.033862
0.0346592
0.0354271
0.0361846
0.036989
0.0379017
0.0386844
0.0398818
0.0418111
0.0445136
0.0468666
0.0227276
0.0339277
0.0344941
0.0350267
0.0355491
0.0360798
0.0368095
0.0375434
0.0383902
0.0399858
0.0426779
0.0485578
0.0373539
0.0338301
0.0341216
0.0343577
0.0345928
0.0348768
0.0353672
0.0360917
0.0368899
0.038409
0.0404021
0.0455338
0.0434653
0.0329473
0.0328751
0.032867
0.0329526
0.0331965
0.0338379
0.0346476
0.035638
0.0373279
0.0390352
0.0428788
0.0440479
0.0415811
0.0402812
0.0389753
0.0378337
0.0368984
0.0361167
0.035484
0.0349832
0.0344872
0.033979
0.0335089
0.0331984
0.0394074
0.0382761
0.0370836
0.0359968
0.0350557
0.0342416
0.0335281
0.032867
0.0321523
0.0313357
0.0304511
0.0298131
0.0371124
0.0361381
0.035049
0.0340113
0.0330683
0.0322097
0.0314005
0.0305714
0.0295948
0.0283118
0.0265418
0.0246228
0.034882
0.0340491
0.0330626
0.0320715
0.0311264
0.0302219
0.0293161
0.0283181
0.0270437
0.0250991
0.0215749
0.0160151
0.0333845
0.0341149
0.0350242
0.0361077
0.037262
0.0383596
0.0394843
0.0405418
0.0415349
0.0424792
0.0429976
0.0424519
0.030376
0.0322999
0.0341563
0.0359096
0.0375349
0.038891
0.0400568
0.0409777
0.0416508
0.0419086
0.0418374
0.0409501
0.0252534
0.0295923
0.0328327
0.035245
0.0371593
0.0386536
0.0398042
0.0405911
0.0409291
0.0409059
0.0405502
0.0393119
0.0160654
0.0257461
0.0310578
0.0341714
0.0363108
0.0378707
0.0389934
0.0395957
0.0397713
0.0396416
0.0390428
0.0376446
0.0404263
0.038445
0.0367682
0.0353616
0.0342587
0.0334529
0.0327976
0.0322639
0.0318372
0.0314443
0.0311202
0.0309119
0.0389035
0.0369731
0.0352957
0.0338621
0.0326723
0.0316916
0.0308246
0.0300329
0.0292832
0.0285325
0.0278331
0.0273592
0.0373648
0.0354388
0.0336982
0.0321598
0.0308144
0.0296248
0.0285195
0.0274467
0.0263417
0.0251028
0.023665
0.0223794
0.0357795
0.0338581
0.0320528
0.0304032
0.0289047
0.0275245
0.0262014
0.0248627
0.0233841
0.0214873
0.0185185
0.0142551
0.0308576
0.0309146
0.0310662
0.0314155
0.0320622
0.0330905
0.0343752
0.035883
0.037732
0.0396659
0.0417246
0.0422644
0.0274286
0.0279563
0.0284655
0.0291255
0.0300882
0.031388
0.0329295
0.0346426
0.0364947
0.0382761
0.0396165
0.0399733
0.0225041
0.0244524
0.0257308
0.0268134
0.0280576
0.0295298
0.0311733
0.0329173
0.0346788
0.0362487
0.0372654
0.037552
0.0142638
0.0202458
0.0230155
0.0246792
0.0261767
0.0277427
0.0293904
0.0310766
0.0327158
0.0340856
0.0349467
0.0352138
0.0415788
0.040279
0.0389733
0.037832
0.0368969
0.0361153
0.0354828
0.0349821
0.0344861
0.033978
0.0335079
0.0331975
0.0394048
0.0382736
0.0370814
0.0359948
0.035054
0.03424
0.0335266
0.0328656
0.0321511
0.0313346
0.0304501
0.0298122
0.0371095
0.0361353
0.0350465
0.034009
0.0330663
0.0322078
0.0313988
0.0305698
0.0295933
0.0283106
0.0265408
0.024622
0.0348787
0.0340459
0.0330597
0.0320689
0.031124
0.0302197
0.0293141
0.0283162
0.027042
0.0250977
0.021574
0.0160146
0.0333836
0.0341139
0.035023
0.0361065
0.0372607
0.0383583
0.039483
0.0405406
0.0415336
0.042478
0.0429966
0.0424511
0.0303751
0.0322987
0.034155
0.0359083
0.0375335
0.0388897
0.0400556
0.0409766
0.0416498
0.0419078
0.0418367
0.0409497
0.0252527
0.0295911
0.0328313
0.0352436
0.0371579
0.0386523
0.039803
0.0405901
0.0409283
0.0409052
0.0405498
0.0393118
0.016065
0.0257449
0.0310564
0.0341699
0.0363094
0.0378695
0.0389923
0.0395948
0.0397707
0.0396412
0.0390426
0.0376448
0.0404258
0.0384448
0.0367682
0.0353617
0.0342589
0.0334531
0.0327978
0.0322642
0.0318374
0.0314445
0.0311203
0.0309122
0.0389034
0.0369733
0.035296
0.0338626
0.0326729
0.0316923
0.0308252
0.0300336
0.0292838
0.028533
0.0278336
0.0273597
0.037365
0.0354393
0.033699
0.0321608
0.0308156
0.029626
0.0285207
0.0274479
0.0263428
0.0251037
0.0236657
0.0223798
0.0357801
0.0338591
0.0320541
0.0304047
0.0289065
0.0275263
0.0262034
0.0248647
0.0233859
0.0214888
0.0185194
0.0142554
0.0308582
0.0309156
0.0310676
0.0314173
0.0320643
0.0330927
0.0343774
0.0358852
0.0377342
0.0396681
0.041727
0.042267
0.0274295
0.0279581
0.0284681
0.0291286
0.0300916
0.0313915
0.0329328
0.0346457
0.0364976
0.0382789
0.0396193
0.0399762
0.0225051
0.0244549
0.0257347
0.0268181
0.0280626
0.0295347
0.0311778
0.0329213
0.0346824
0.0362521
0.0372687
0.0375553
0.0142643
0.0202491
0.0230208
0.0246857
0.0261835
0.0277492
0.0293962
0.0310816
0.0327203
0.0340896
0.0349506
0.0352175
0.0327868
0.0320784
0.0311846
0.0302386
0.0292941
0.0283482
0.0273533
0.026199
0.0246437
0.0219757
0.015942
0.00350725
0.0308413
0.0302365
0.0294246
0.0285222
0.0275818
0.0266018
0.0255308
0.0242468
0.0224783
0.0195338
0.0137026
0.00243842
0.0290304
0.0285099
0.0277693
0.0269084
0.0259762
0.024971
0.0238404
0.0224605
0.0205692
0.0175848
0.0122755
0.00199311
0.0273208
0.0268689
0.0261905
0.0253698
0.0244505
0.0234303
0.0222578
0.0208159
0.0188717
0.0159662
0.0111871
0.00177089
0.0256603
0.0252661
0.0246435
0.0238634
0.0229637
0.0219407
0.0207457
0.0192728
0.0173255
0.0145502
0.010231
0.00160399
0.0239683
0.0236262
0.0230574
0.0223221
0.0214523
0.0204425
0.0192478
0.0177748
0.0158623
0.0132394
0.00931812
0.00145121
0.0221185
0.0218288
0.0213173
0.0206369
0.0198134
0.01884
0.0176752
0.016239
0.0144004
0.0119502
0.0083983
0.00129941
0.019911
0.0196793
0.0192356
0.0186282
0.0178772
0.0169742
0.0158818
0.014534
0.0128253
0.010593
0.00742934
0.00114033
0.0170319
0.0168671
0.0165091
0.0160033
0.0153636
0.0145805
0.0136221
0.0124392
0.0109505
0.00903437
0.00635086
0.000967954
0.0130045
0.0129128
0.0126641
0.0122998
0.0118254
0.0112309
0.0104924
0.00958371
0.00844124
0.00701835
0.00503177
0.000779878
0.00721463
0.00718453
0.00706477
0.00688668
0.00664327
0.00632347
0.00591684
0.00542119
0.00476553
0.00401063
0.00304109
0.000575131
0.000774443
0.000766894
0.000751257
0.000729756
0.000702121
0.000668933
0.000628219
0.000576008
0.000508269
0.000419773
0.000301249
0.000117123
0.00364797
0.0210464
0.0290473
0.0328137
0.0351311
0.0367199
0.0377764
0.0382691
0.0384007
0.038167
0.0373699
0.0359596
0.00287287
0.0189477
0.0272168
0.0312984
0.0337319
0.0353371
0.0363104
0.0367551
0.036848
0.0365267
0.0356412
0.0342663
0.00255358
0.0175243
0.0255179
0.0296957
0.0321838
0.0337802
0.0347017
0.0351179
0.0351651
0.0347795
0.0338802
0.0325687
0.00236897
0.0163391
0.0239003
0.0280344
0.0305236
0.0320929
0.032978
0.0333798
0.0333816
0.0329518
0.0320827
0.0308531
0.00222556
0.015231
0.0223072
0.0263088
0.0287543
0.030281
0.0311386
0.0315163
0.0314789
0.0310357
0.030217
0.0290771
0.00209531
0.0141157
0.0206769
0.02448
0.0268376
0.0283032
0.0291279
0.0294726
0.0294025
0.0289643
0.0282064
0.0271563
0.00196476
0.0129316
0.0189307
0.0224658
0.0246813
0.026059
0.0268291
0.0271325
0.0270346
0.0266091
0.0259075
0.024953
0.00182506
0.0115997
0.0169476
0.0201145
0.0221124
0.0233531
0.0240368
0.0242856
0.0241617
0.0237509
0.0230991
0.022257
0.00167218
0.0099894
0.0145056
0.0171525
0.0188213
0.0198519
0.0204049
0.0205821
0.0204373
0.020047
0.0194549
0.0187641
0.00148871
0.00789444
0.0112076
0.0131028
0.0142928
0.0150212
0.0153941
0.0154929
0.0153459
0.0150009
0.0145323
0.0140288
0.00124988
0.0047998
0.00637004
0.00726962
0.00784833
0.00820148
0.00836641
0.00841099
0.0083043
0.0081113
0.00784919
0.00756178
0.000284777
0.000523852
0.000669762
0.000759955
0.000821526
0.000863443
0.000888352
0.00089884
0.000895012
0.000882581
0.000863905
0.00084008
0.0341716
0.0322782
0.0304396
0.0287111
0.0270967
0.0255688
0.0240696
0.0225047
0.0206841
0.0180971
0.0129378
0.00292949
0.032566
0.0307327
0.0289057
0.027147
0.025468
0.0238459
0.0222235
0.0204924
0.0184345
0.015527
0.0103952
0.0017558
0.0309698
0.0292266
0.0274547
0.0257156
0.0240248
0.0223629
0.0206739
0.0188457
0.0166651
0.0136878
0.00895101
0.00128068
0.0293647
0.0277332
0.0260501
0.0243715
0.0227144
0.0210618
0.01936
0.0175014
0.0152968
0.0124022
0.00818471
0.00108548
0.0277007
0.0261936
0.0246203
0.0230314
0.0214432
0.0198402
0.0181724
0.0163413
0.0141869
0.011452
0.00773974
0.000989273
0.0258951
0.0245144
0.0230621
0.0215826
0.0200901
0.0185702
0.0169769
0.0152219
0.0131718
0.0106294
0.00733032
0.000917537
0.0238168
0.0225599
0.0212369
0.0198842
0.0185126
0.0171078
0.0156277
0.013994
0.012095
0.00976641
0.00685267
0.000867708
0.021266
0.0201377
0.01896
0.017759
0.0165398
0.015288
0.0139651
0.0125026
0.0108087
0.00872856
0.00623273
0.000811573
0.0179469
0.0169795
0.015983
0.0149758
0.0139559
0.0129083
0.0117989
0.0105698
0.00915353
0.00738385
0.00537729
0.000749214
0.0134137
0.0126928
0.0119388
0.0111915
0.0104372
0.00966138
0.00883581
0.00791634
0.00687148
0.00549835
0.00408642
0.000666671
0.0072341
0.00688716
0.00650931
0.00611569
0.00571596
0.0053028
0.00485616
0.0043479
0.00380463
0.0029881
0.00226086
0.000557822
0.000810939
0.00077786
0.000741216
0.000702834
0.00066266
0.00062045
0.000575494
0.000525387
0.000469841
0.000390886
0.000309894
0.000176663
0.00317589
0.0154336
0.0204409
0.0227521
0.0244725
0.0260789
0.0276791
0.0292698
0.0307768
0.0319934
0.0327647
0.0330322
0.00230805
0.0131047
0.0183658
0.021052
0.0229175
0.0245286
0.0260615
0.0275498
0.0289347
0.030033
0.0307446
0.0310184
0.00189278
0.0115614
0.0166824
0.0195231
0.0214623
0.0230553
0.0245203
0.0259166
0.0271992
0.0282056
0.0288734
0.0291538
0.0016433
0.0103815
0.0152415
0.0180986
0.0200489
0.0216072
0.0230119
0.0243359
0.025541
0.0264788
0.0271144
0.0274015
0.00145862
0.00937337
0.0139287
0.0167099
0.0186155
0.0201212
0.021473
0.0227462
0.0239012
0.0247931
0.0254083
0.0257048
0.00130583
0.00842904
0.0126621
0.0152931
0.0170969
0.0185228
0.0198203
0.0210596
0.0221906
0.0230582
0.023666
0.0239785
0.00116297
0.00751402
0.0113799
0.0137839
0.0154195
0.0167236
0.0179493
0.0191584
0.0202839
0.0211432
0.0217542
0.0220923
0.00101759
0.00660372
0.0100191
0.0121031
0.0134904
0.0146141
0.0157288
0.0168882
0.0180068
0.0188599
0.019473
0.0198449
0.000865022
0.00564405
0.00847789
0.0101246
0.0111763
0.0120508
0.012992
0.0140476
0.0151196
0.0159392
0.0165259
0.0169265
0.000705881
0.00450341
0.00653645
0.00759217
0.00822193
0.00877445
0.00944678
0.0102965
0.0112443
0.0119902
0.0124916
0.0128745
0.000538981
0.00278795
0.00373711
0.00414598
0.00438135
0.00461423
0.00496297
0.00548892
0.00607011
0.0065474
0.00688692
0.0071136
0.000115075
0.000273288
0.000369646
0.000430954
0.000479116
0.000527768
0.000582526
0.000639775
0.000688335
0.000725924
0.000753708
0.000770109
0.032783
0.0320747
0.0311812
0.0302356
0.0292912
0.0283455
0.0273508
0.0261967
0.0246416
0.0219742
0.0159412
0.00350714
0.0308369
0.0302322
0.0294207
0.0285186
0.0275784
0.0265986
0.0255278
0.024244
0.0224758
0.0195318
0.0137015
0.00243826
0.0290253
0.028505
0.0277648
0.0269042
0.0259722
0.0249671
0.0238367
0.022457
0.020566
0.0175821
0.0122739
0.00199289
0.027315
0.0268634
0.0261853
0.0253648
0.0244457
0.0234257
0.0222534
0.0208116
0.0188677
0.0159627
0.0111848
0.00177057
0.0256539
0.0252599
0.0246377
0.0238578
0.0229582
0.0219353
0.0207405
0.0192677
0.0173205
0.0145458
0.0102279
0.00160355
0.0239615
0.0236197
0.0230511
0.022316
0.0214462
0.0204365
0.0192417
0.0177688
0.0158565
0.0132339
0.00931414
0.00145062
0.0221117
0.0218222
0.0213109
0.0206306
0.0198071
0.0188337
0.0176688
0.0162325
0.0143938
0.0119439
0.00839349
0.00129864
0.0199046
0.0196732
0.0192296
0.0186223
0.0178712
0.0169681
0.0158756
0.0145276
0.0128186
0.0105863
0.00742387
0.00113937
0.0170267
0.016862
0.0165041
0.0159984
0.0153586
0.0145754
0.0136167
0.0124337
0.0109446
0.00902814
0.00634519
0.000966825
0.0130008
0.0129092
0.0126607
0.0122964
0.011822
0.0112273
0.0104887
0.00957986
0.00843716
0.00701388
0.0050269
0.000778703
0.00721274
0.0071827
0.00706302
0.00688497
0.00664154
0.00632169
0.00591499
0.00541927
0.00476352
0.0040085
0.00303839
0.000574168
0.000774191
0.000766649
0.000751012
0.000729506
0.000701861
0.000668658
0.000627923
0.000575679
0.000507888
0.000419323
0.000300737
0.000117001
0.00364787
0.0210454
0.0290459
0.0328123
0.0351297
0.0367187
0.0377754
0.0382684
0.0384002
0.0381668
0.03737
0.0359601
0.00287276
0.0189468
0.0272155
0.031297
0.0337306
0.0353359
0.0363095
0.0367545
0.0368476
0.0365267
0.0356416
0.0342671
0.00255346
0.0175235
0.0255166
0.0296944
0.0321826
0.0337792
0.0347009
0.0351174
0.0351649
0.0347797
0.0338808
0.0325698
0.00236885
0.0163383
0.0238992
0.0280332
0.0305225
0.032092
0.0329774
0.0333794
0.0333816
0.0329521
0.0320834
0.0308543
0.00222544
0.0152302
0.0223062
0.0263077
0.0287533
0.0302802
0.0311381
0.031516
0.031479
0.0310361
0.0302179
0.0290786
0.0020952
0.0141151
0.0206761
0.024479
0.0268367
0.0283025
0.0291275
0.0294724
0.0294027
0.0289648
0.0282074
0.0271579
0.00196466
0.0129311
0.01893
0.022465
0.0246805
0.0260584
0.0268288
0.0271324
0.0270349
0.0266097
0.0259085
0.0249546
0.00182497
0.0115993
0.0169469
0.0201138
0.0221118
0.0233526
0.0240365
0.0242855
0.0241619
0.0237515
0.0231
0.0222584
0.00167212
0.00998902
0.014505
0.0171519
0.0188207
0.0198514
0.0204046
0.0205821
0.0204375
0.0200474
0.0194556
0.0187652
0.00148868
0.00789409
0.0112071
0.0131023
0.0142923
0.0150208
0.0153938
0.0154928
0.015346
0.0150012
0.0145327
0.0140295
0.00124988
0.00479952
0.00636972
0.0072693
0.00784804
0.00820124
0.00836625
0.00841094
0.00830431
0.00811146
0.00784943
0.00756218
0.000284791
0.000523846
0.000669743
0.000759931
0.000821501
0.00086342
0.000888334
0.000898834
0.000895015
0.000882598
0.000863934
0.000840127
0.0341725
0.0322796
0.0304414
0.0287132
0.0270992
0.0255715
0.0240725
0.0225076
0.020687
0.0180995
0.0129393
0.00292966
0.0325673
0.0307345
0.028908
0.0271497
0.0254712
0.0238495
0.0222274
0.0204966
0.0184387
0.0155308
0.0103979
0.00175627
0.0309714
0.0292288
0.0274575
0.025719
0.0240288
0.0223676
0.0206791
0.0188512
0.0166708
0.0136934
0.00895546
0.00128152
0.0293666
0.0277357
0.0260533
0.0243755
0.0227192
0.0210674
0.0193663
0.0175084
0.0153042
0.0124096
0.008191
0.00108661
0.0277028
0.0261964
0.0246239
0.0230359
0.0214485
0.0198465
0.0181797
0.0163494
0.0141957
0.0114611
0.00774736
0.000990548
0.0258973
0.0245174
0.0230659
0.0215873
0.0200957
0.0185769
0.0169847
0.0152307
0.0131815
0.0106396
0.00733888
0.000918937
0.023819
0.0225628
0.0212406
0.0198888
0.0185181
0.0171143