/*--------------------------------*- C++ -*----------------------------------*\
| =========                 |                                                 |
| \\      /  F ield         | OpenFOAM: The Open Source CFD Toolbox           |
|  \\    /   O peration     | Version:  2212                                  |
|   \\  /    A nd           | Website:  www.openfoam.com                      |
|    \\/     M anipulation  |                                                 |
\*---------------------------------------------------------------------------*/
FoamFile
{
    version     2.0;
    format      ascii;
    arch        "LSB;label=32;scalar=64";
    class       volScalarField;
    location    "0.02";
    object      alphat;
}
// * * * * * * * * * * * * * * * * * * * * * * * * * * * * * * * * * * * * * //

dimensions      [1 -1 -1 0 0 0 0];

internalField   nonuniform List<scalar> 
3072
(
0.000310439
0.000666675
0.000709191
0.000706947
0.000691502
0.000662593
0.000645199
0.000716815
0.00120857
0.00161377
0.00174992
0.00181283
0.000497521
0.00140407
0.0019119
0.00214021
0.00180178
0.00111055
0.00101103
0.00168994
0.00203826
0.00328048
0.00446701
0.00621203
0.000631854
0.00228862
0.00306624
0.0031156
0.0026664
0.00244916
0.00241256
0.0034334
0.00527354
0.00776933
0.0103341
0.0128198
0.000789891
0.00353694
0.00379457
0.00326281
0.00306736
0.00308338
0.00408994
0.00674632
0.0095545
0.0126794
0.0156103
0.0182046
0.000922722
0.00413985
0.00421345
0.00379846
0.00368978
0.00453342
0.00700472
0.0103632
0.0135628
0.0167492
0.0196704
0.0222423
0.00104479
0.0046736
0.00482859
0.00451572
0.00491162
0.00708773
0.0103434
0.0135523
0.0167097
0.0197498
0.0225245
0.0250081
0.00115185
0.00534692
0.0058418
0.00592963
0.00729416
0.010158
0.0131404
0.0161367
0.0190356
0.0217624
0.0243523
0.0267062
0.00127706
0.00659256
0.00785568
0.00895102
0.0109969
0.0134712
0.0159952
0.0185247
0.021046
0.0234265
0.0256526
0.0277152
0.00142323
0.0086323
0.0113968
0.0136649
0.0156828
0.0175668
0.0194312
0.0212713
0.0231481
0.0249691
0.0267115
0.0283823
0.00162887
0.0105044
0.0146085
0.0174143
0.0194279
0.0209626
0.0223088
0.0235589
0.0247871
0.0260119
0.0272424
0.0285265
0.00184508
0.0099259
0.0158772
0.0192491
0.0214267
0.0227758
0.0239485
0.0248223
0.0256249
0.0264353
0.0272899
0.0282281
0.00308998
0.00939683
0.0167451
0.0206514
0.0224787
0.0241942
0.0251581
0.0258438
0.0264029
0.026947
0.0275365
0.0282212
0.001861
0.00188469
0.00189856
0.00190102
0.00190273
0.00187343
0.00183006
0.00175416
0.00164982
0.00151009
0.00130239
0.000621558
0.00793657
0.00949435
0.0105773
0.0110065
0.0107808
0.0101976
0.0092225
0.00788741
0.0061287
0.00375819
0.00184573
0.00107424
0.0149666
0.0165715
0.017551
0.017918
0.0176797
0.0168839
0.0154818
0.0134436
0.010738
0.00737146
0.00328024
0.00142602
0.0203911
0.0220834
0.0232451
0.0238467
0.02384
0.0231648
0.0217318
0.0194191
0.0160201
0.0115628
0.00578316
0.00174009
0.0244444
0.0262379
0.0275946
0.0284746
0.0288066
0.0284677
0.0272841
0.0250116
0.0212507
0.0158099
0.00851762
0.00205296
0.0271844
0.0290353
0.0305425
0.0316717
0.0323519
0.0324654
0.0318039
0.0299915
0.0264494
0.0204074
0.0118257
0.00237545
0.0288039
0.03064
0.0322204
0.0335231
0.0345113
0.0351157
0.0351183
0.0340561
0.0311333
0.0250953
0.0153418
0.00271462
0.0295998
0.0313031
0.0328658
0.0342697
0.0355136
0.0365929
0.0373476
0.0372865
0.0353108
0.029603
0.0188098
0.0030906
0.0299482
0.031363
0.032742
0.0341344
0.0355303
0.0369422
0.038326
0.0393163
0.0387034
0.0338735
0.0220027
0.00351006
0.0297884
0.0309509
0.0320952
0.0334378
0.034951
0.0365905
0.0383636
0.0401947
0.041022
0.0378601
0.0257483
0.00395794
0.0293378
0.0306108
0.0315946
0.0326896
0.0342447
0.0360454
0.0379485
0.04017
0.0420525
0.0411665
0.0302589
0.00445489
0.0291236
0.0305101
0.0316402
0.0325975
0.033951
0.0357267
0.037552
0.039694
0.0418946
0.0429719
0.0349667
0.00502821
0.000310452
0.000666703
0.000709224
0.00070698
0.000691536
0.000662624
0.000645231
0.000716857
0.00120864
0.00161382
0.00174995
0.00181286
0.000497542
0.00140413
0.00191201
0.00214033
0.00180186
0.00111061
0.00101107
0.00169002
0.00203837
0.00328059
0.00446722
0.00621225
0.00063188
0.00228875
0.0030664
0.00311576
0.00266655
0.00244928
0.00241261
0.00343353
0.00527379
0.00776965
0.0103345
0.0128202
0.000789918
0.00353711
0.00379475
0.00326296
0.00306756
0.0030835
0.00409007
0.00674661
0.00955491
0.0126798
0.0156108
0.0182051
0.00092275
0.00414005
0.00421366
0.00379863
0.00368997
0.00453354
0.00700491
0.0103636
0.0135633
0.0167497
0.0196709
0.0222428
0.00104482
0.00467377
0.0048288
0.00451588
0.00491175
0.00708772
0.0103436
0.0135527
0.0167102
0.0197503
0.022525
0.0250087
0.00115188
0.005347
0.00584184
0.00592954
0.00729395
0.010158
0.0131406
0.016137
0.019036
0.0217629
0.0243527
0.0267067
0.00127709
0.0065925
0.00785543
0.00895049
0.0109965
0.013471
0.0159952
0.0185248
0.0210462
0.0234268
0.0256529
0.0277155
0.00142326
0.0086323
0.0113966
0.0136647
0.0156827
0.0175667
0.0194312
0.0212714
0.0231483
0.0249693
0.0267118
0.0283826
0.00162892
0.0105047
0.0146088
0.0174147
0.0194282
0.0209628
0.0223091
0.0235591
0.0247874
0.0260122
0.0272428
0.0285268
0.00184513
0.00992628
0.0158777
0.0192498
0.0214274
0.0227765
0.0239491
0.0248228
0.0256254
0.0264358
0.0272904
0.0282286
0.00309003
0.00939722
0.0167458
0.0206522
0.0224796
0.0241951
0.025159
0.0258447
0.0264036
0.0269478
0.0275372
0.0282218
0.00186103
0.00188472
0.00189859
0.00190104
0.00190275
0.00187346
0.00183009
0.00175418
0.00164984
0.0015101
0.0013024
0.000621568
0.00793685
0.00949462
0.0105775
0.0110067
0.0107809
0.0101978
0.0092226
0.00788749
0.00612879
0.00375824
0.00184575
0.00107425
0.014967
0.0165719
0.0175514
0.0179183
0.0176799
0.0168841
0.015482
0.0134437
0.0107381
0.00737154
0.00328027
0.00142604
0.0203916
0.0220839
0.0232455
0.0238472
0.0238404
0.0231651
0.021732
0.0194193
0.0160202
0.0115628
0.00578322
0.0017401
0.024445
0.0262384
0.0275951
0.028475
0.028807
0.0284681
0.0272844
0.0250118
0.0212509
0.01581
0.0085177
0.00205297
0.0271849
0.0290358
0.030543
0.0316721
0.0323523
0.0324657
0.0318042
0.0299917
0.0264495
0.0204075
0.0118258
0.00237546
0.0288044
0.0306404
0.0322208
0.0335234
0.0345116
0.0351159
0.0351185
0.0340563
0.0311335
0.0250954
0.0153418
0.00271463
0.0296001
0.0313035
0.0328661
0.0342699
0.0355138
0.0365931
0.0373477
0.0372866
0.0353109
0.0296031
0.0188099
0.00309061
0.0299485
0.0313633
0.0327423
0.0341346
0.0355305
0.0369423
0.0383261
0.0393163
0.0387034
0.0338735
0.0220028
0.00351007
0.0297888
0.0309513
0.0320955
0.033438
0.0349512
0.0365906
0.0383636
0.0401946
0.0410219
0.03786
0.0257483
0.00395795
0.0293382
0.0306112
0.0315951
0.0326899
0.0342449
0.0360455
0.0379484
0.0401697
0.0420521
0.0411662
0.0302589
0.0044549
0.0291241
0.0305106
0.0316407
0.0325978
0.0339512
0.0357267
0.0375518
0.0396937
0.0418941
0.0429714
0.0349667
0.00502821
0.000310439
0.000666675
0.000709197
0.000706955
0.000691511
0.000662602
0.00064521
0.000716819
0.00120855
0.00161376
0.0017499
0.00181281
0.000497517
0.00140409
0.00191195
0.0021403
0.00180186
0.00111063
0.0010111
0.00168992
0.00203817
0.00328038
0.00446683
0.00621182
0.000631843
0.00228864
0.00306631
0.0031158
0.00266664
0.0024493
0.00241257
0.00343311
0.00527323
0.00776894
0.0103336
0.0128192
0.000789872
0.003537
0.0037947
0.00326291
0.0030675
0.0030833
0.00408944
0.00674573
0.00955384
0.0126787
0.0156096
0.0182038
0.000922702
0.00413989
0.00421347
0.00379842
0.00368977
0.00453302
0.00700372
0.0103623
0.013562
0.0167483
0.0196694
0.0222413
0.00104477
0.00467355
0.00482848
0.0045155
0.00491118
0.00708625
0.0103421
0.0135512
0.0167086
0.0197487
0.0225234
0.025007
0.00115184
0.00534667
0.0058413
0.00592868
0.00729248
0.0101565
0.0131391
0.0161354
0.0190344
0.0217612
0.024351
0.0267049
0.00127706
0.00659207
0.00785467
0.0089491
0.0109951
0.0134695
0.0159937
0.0185232
0.0210446
0.0234251
0.0256512
0.0277137
0.00142325
0.00863219
0.011396
0.013664
0.0156817
0.0175655
0.0194299
0.0212699
0.0231468
0.0249677
0.0267101
0.0283808
0.00162893
0.0105047
0.0146085
0.0174142
0.0194275
0.0209619
0.022308
0.0235579
0.0247861
0.0260107
0.0272411
0.028525
0.00184514
0.00992624
0.0158775
0.0192494
0.0214268
0.0227758
0.0239482
0.0248218
0.0256241
0.0264344
0.0272889
0.0282269
0.00309002
0.00939711
0.0167457
0.020652
0.0224792
0.0241946
0.0251583
0.0258438
0.0264026
0.0269465
0.0275357
0.0282202
0.00186098
0.00188467
0.00189854
0.00190099
0.00190271
0.00187341
0.00183004
0.00175414
0.00164981
0.00151008
0.00130238
0.000621557
0.00793629
0.00949401
0.0105769
0.0110061
0.0107803
0.0101972
0.00922213
0.00788712
0.00612852
0.0037581
0.0018457
0.00107423
0.014966
0.0165708
0.0175503
0.0179172
0.017679
0.0168832
0.0154812
0.0134431
0.0107376
0.00737123
0.00328015
0.00142601
0.0203902
0.0220825
0.0232441
0.0238458
0.023839
0.0231639
0.0217309
0.0194184
0.0160195
0.0115624
0.00578302
0.00174007
0.0244434
0.0262368
0.0275934
0.0284734
0.0288054
0.0284665
0.0272829
0.0250106
0.02125
0.0158093
0.00851739
0.00205293
0.0271832
0.029034
0.0305411
0.0316702
0.0323504
0.0324639
0.0318024
0.0299901
0.0264483
0.0204067
0.0118254
0.00237541
0.0288025
0.0306385
0.0322188
0.0335213
0.0345094
0.0351138
0.0351164
0.0340544
0.0311319
0.0250943
0.0153413
0.00271458
0.0295982
0.0313015
0.032864
0.0342677
0.0355115
0.0365908
0.0373454
0.0372845
0.035309
0.0296018
0.0188093
0.00309055
0.0299466
0.0313613
0.0327401
0.0341323
0.0355281
0.0369398
0.0383236
0.0393139
0.0387013
0.033872
0.0220021
0.00351
0.0297869
0.0309493
0.0320934
0.0334357
0.0349487
0.0365881
0.038361
0.040192
0.0410195
0.0378582
0.0257475
0.00395788
0.0293363
0.0306092
0.0315931
0.0326877
0.0342425
0.036043
0.0379458
0.0401671
0.0420497
0.0411643
0.0302581
0.00445482
0.0291223
0.0305087
0.0316389
0.0325959
0.0339488
0.0357244
0.0375494
0.0396912
0.0418915
0.0429692
0.0349656
0.00502812
0.000310454
0.000666703
0.00070921
0.000706961
0.000691515
0.000662602
0.000645209
0.000716845
0.00120864
0.00161378
0.0017499
0.00181281
0.000497546
0.00140407
0.00191183
0.00214007
0.00180165
0.00111049
0.00101101
0.00169002
0.00203844
0.00328056
0.00446724
0.00621217
0.000631891
0.00228863
0.00306613
0.00311532
0.00266612
0.00244904
0.00241248
0.00343371
0.00527394
0.00776971
0.0103345
0.01282
0.000789932
0.00353687
0.00379433
0.0032626
0.0030673
0.00308348
0.00409047
0.00674705
0.0095553
0.0126799
0.0156108
0.0182049
0.000922759
0.00413977
0.00421338
0.00379845
0.00368984
0.00453383
0.00700584
0.0103642
0.0135637
0.0167498
0.0196708
0.0222426
0.00104481
0.00467355
0.00482868
0.00451588
0.00491206
0.00708923
0.0103448
0.0135534
0.0167106
0.0197504
0.022525
0.0250084
0.00115186
0.00534692
0.005842
0.00593025
0.00729559
0.0101594
0.0131416
0.0161377
0.0190365
0.0217631
0.0243528
0.0267065
0.00127703
0.00659245
0.00785575
0.00895186
0.0109979
0.0134723
0.0159962
0.0185256
0.0210468
0.0234272
0.0256531
0.0277155
0.00142317
0.00863142
0.0113962
0.0136645
0.0156828
0.0175671
0.0194317
0.0212718
0.0231487
0.0249695
0.0267119
0.0283825
0.00162875
0.0105036
0.0146078
0.0174137
0.0194276
0.0209625
0.0223088
0.023559
0.0247873
0.026012
0.0272425
0.0285264
0.00184497
0.00992533
0.0158766
0.0192485
0.021426
0.0227752
0.023948
0.024822
0.0256246
0.0264351
0.0272898
0.0282278
0.00308992
0.00939656
0.0167446
0.0206507
0.022478
0.0241934
0.0251574
0.0258432
0.0264023
0.0269465
0.027536
0.0282207
0.00186097
0.00188467
0.00189853
0.00190099
0.0019027
0.0018734
0.00183003
0.00175413
0.00164979
0.00151006
0.00130236
0.000621542
0.00793672
0.0094944
0.0105772
0.0110064
0.0107806
0.0101974
0.0092223
0.00788722
0.00612855
0.0037581
0.00184568
0.00107422
0.0149667
0.0165715
0.0175509
0.0179177
0.0176794
0.0168835
0.0154815
0.0134432
0.0107377
0.00737126
0.00328015
0.001426
0.0203912
0.0220834
0.0232449
0.0238464
0.0238396
0.0231644
0.0217313
0.0194187
0.0160197
0.0115625
0.00578303
0.00174006
0.0244445
0.0262379
0.0275943
0.0284742
0.0288062
0.0284672
0.0272835
0.025011
0.0212502
0.0158095
0.00851742
0.00205292
0.0271845
0.0290352
0.0305422
0.0316713
0.0323514
0.0324647
0.0318032
0.0299907
0.0264487
0.0204069
0.0118255
0.00237541
0.028804
0.0306399
0.0322201
0.0335225
0.0345106
0.0351149
0.0351174
0.0340552
0.0311325
0.0250947
0.0153414
0.00271457
0.0295999
0.031303
0.0328654
0.0342691
0.0355128
0.036592
0.0373466
0.0372855
0.0353099
0.0296023
0.0188095
0.00309055
0.0299482
0.0313628
0.0327416
0.0341338
0.0355295
0.0369412
0.0383249
0.0393151
0.0387023
0.0338726
0.0220023
0.00351001
0.0297882
0.0309506
0.0320947
0.0334371
0.0349501
0.0365895
0.0383624
0.0401934
0.0410207
0.037859
0.0257477
0.00395788
0.0293374
0.0306103
0.0315941
0.0326889
0.0342438
0.0360443
0.0379472
0.0401686
0.042051
0.0411653
0.0302583
0.00445482
0.029123
0.0305094
0.0316394
0.0325966
0.03395
0.0357256
0.0375507
0.0396926
0.041893
0.0429704
0.034966
0.00502813
0.0186679
0.0192912
0.020901
0.0226118
0.0241328
0.0255
0.0263248
0.0269208
0.0273659
0.0277821
0.028227
0.0287608
0.0297777
0.0271147
0.0261823
0.026213
0.0266367
0.0270727
0.0275138
0.0280714
0.0285917
0.0289767
0.0293706
0.0298514
0.0372727
0.0343294
0.0321503
0.0308366
0.030166
0.0298377
0.0298501
0.029976
0.0301384
0.0303175
0.0308144
0.0314088
0.0395154
0.0374688
0.0356429
0.0340727
0.0330279
0.0323656
0.032043
0.0319145
0.0320842
0.0323367
0.0326967
0.0333119
0.0295969
0.0310105
0.0322151
0.0331611
0.034374
0.0359173
0.0374414
0.0392044
0.0413159
0.0439811
0.0448543
0.0208599
0.0308491
0.0321331
0.0332562
0.0343261
0.0354745
0.0365233
0.0376371
0.038922
0.0405281
0.0429733
0.0475551
0.0345973
0.0326221
0.033598
0.0346246
0.0354833
0.0363594
0.0371482
0.0379764
0.0389449
0.0399709
0.0416355
0.045607
0.0409658
0.0345664
0.0353823
0.0361485
0.0368584
0.0374008
0.0379976
0.0385827
0.0392515
0.039898
0.0407295
0.0427863
0.0417616
0.0186681
0.0192919
0.0209019
0.0226129
0.024134
0.0255012
0.026326
0.026922
0.027367
0.027783
0.0282279
0.0287616
0.0297784
0.0271161
0.0261838
0.0262145
0.0266382
0.0270742
0.0275152
0.0280728
0.028593
0.0289779
0.0293716
0.0298522
0.0372748
0.0343316
0.0321525
0.0308388
0.030168
0.0298395
0.0298516
0.0299775
0.0301397
0.0303185
0.0308153
0.0314094
0.0395177
0.0374715
0.0356461
0.0340754
0.03303
0.0323674
0.0320444
0.0319157
0.0320854
0.0323366
0.032697
0.0333121
0.0295975
0.0310109
0.0322156
0.0331615
0.0343741
0.0359172
0.0374411
0.039204
0.0413153
0.0439804
0.0448539
0.0208596
0.0308496
0.0321335
0.0332565
0.0343262
0.0354745
0.0365231
0.0376367
0.0389213
0.0405273
0.0429723
0.0475542
0.0345966
0.0326224
0.0335982
0.0346245
0.0354832
0.0363591
0.0371476
0.0379756
0.038944
0.0399698
0.0416343
0.0456058
0.0409646
0.0345661
0.0353819
0.0361481
0.0368578
0.0373999
0.0379966
0.0385816
0.0392503
0.0398966
0.040728
0.0427848
0.0417602
0.0186678
0.0192916
0.0209015
0.0226124
0.0241334
0.0255006
0.0263253
0.0269211
0.027366
0.0277819
0.0282265
0.0287601
0.0297777
0.0271155
0.0261831
0.0262138
0.0266374
0.0270735
0.0275144
0.0280717
0.0285918
0.0289766
0.0293703
0.0298507
0.0372737
0.0343306
0.0321515
0.0308377
0.030167
0.0298385
0.0298506
0.0299763
0.0301385
0.0303173
0.030814
0.031408
0.0395164
0.0374702
0.0356449
0.0340743
0.0330289
0.0323662
0.0320433
0.0319145
0.0320842
0.0323354
0.0326958
0.0333109
0.0295959
0.0310094
0.0322141
0.0331597
0.0343719
0.0359151
0.0374389
0.0392017
0.0413129
0.043978
0.0448524
0.0208592
0.0308481
0.032132
0.0332549
0.0343245
0.0354727
0.0365212
0.0376348
0.0389193
0.0405251
0.0429701
0.0475522
0.0345956
0.032621
0.0335967
0.034623
0.0354816
0.0363575
0.0371459
0.0379738
0.0389423
0.0399679
0.0416324
0.0456038
0.0409632
0.0345649
0.0353806
0.0361467
0.0368564
0.0373985
0.0379952
0.0385801
0.0392489
0.0398951
0.0407265
0.0427832
0.0417588
0.0186675
0.0192911
0.0209007
0.0226114
0.0241324
0.0254993
0.0263241
0.0269201
0.0273652
0.0277814
0.0282263
0.02876
0.029777
0.0271147
0.0261823
0.0262129
0.0266363
0.0270721
0.0275132
0.0280707
0.0285909
0.0289759
0.0293697
0.0298504
0.0372726
0.0343296
0.0321506
0.0308369
0.030166
0.0298375
0.0298495
0.0299754
0.0301376
0.0303165
0.0308133
0.0314077
0.0395153
0.0374692
0.035644
0.0340735
0.0330281
0.0323654
0.0320424
0.0319137
0.0320835
0.0323348
0.0326954
0.0333106
0.0295961
0.0310095
0.0322142
0.0331601
0.0343728
0.0359161
0.03744
0.039203
0.0413143
0.0439794
0.0448531
0.0208594
0.030848
0.032132
0.033255
0.0343249
0.0354732
0.036522
0.0376357
0.0389205
0.0405265
0.0429715
0.0475534
0.0345958
0.0326209
0.0335967
0.0346232
0.0354819
0.0363579
0.0371467
0.0379749
0.0389433
0.0399692
0.0416337
0.0456053
0.0409628
0.034565
0.0353809
0.0361471
0.0368569
0.0373992
0.037996
0.0385811
0.0392497
0.0398961
0.0407274
0.0427844
0.0417581
0.0367731
0.0354366
0.0343692
0.0335793
0.0331692
0.0329915
0.0329372
0.0330041
0.0333482
0.0338305
0.0346367
0.0358697
0.035077
0.0341886
0.0335216
0.0331112
0.0329124
0.0327028
0.0324237
0.0322692
0.0321584
0.0321612
0.0325569
0.0337196
0.0334678
0.0327487
0.0322689
0.0319051
0.0313796
0.0306885
0.0299481
0.0290635
0.0280164
0.0269349
0.0262083
0.0267731
0.0314094
0.0308488
0.0301574
0.029362
0.0282819
0.0270533
0.0255329
0.0236749
0.021516
0.0191847
0.0171214
0.0159598
0.0374741
0.0383777
0.0384054
0.0386371
0.0388003
0.0390597
0.0392621
0.0394863
0.0396666
0.0398647
0.0394123
0.0383783
0.0356598
0.0384638
0.0382611
0.0383147
0.0383851
0.0384628
0.0385033
0.0384753
0.0383057
0.0378581
0.0371572
0.0362505
0.0296811
0.0363822
0.0369301
0.0369621
0.0370419
0.0370745
0.0370556
0.0368048
0.0363854
0.0358702
0.0352455
0.0343539
0.0170767
0.0329841
0.0350731
0.0351175
0.0352225
0.0352129
0.0350131
0.0346387
0.0342314
0.0337752
0.0331421
0.0321979
0.0367763
0.0354388
0.0343714
0.0335809
0.0331704
0.0329925
0.032938
0.0330047
0.0333481
0.0338305
0.0346364
0.0358691
0.0350787
0.0341903
0.0335228
0.0331123
0.0329133
0.0327034
0.0324241
0.0322694
0.0321583
0.0321609
0.0325563
0.0337188
0.0334691
0.03275
0.03227
0.0319059
0.0313801
0.0306889
0.0299483
0.0290635
0.0280162
0.0269345
0.0262077
0.0267724
0.0314103
0.0308498
0.0301581
0.0293625
0.0282823
0.0270536
0.025533
0.0236748
0.0215158
0.0191843
0.017121
0.0159593
0.0374734
0.0383766
0.0384043
0.0386358
0.0387989
0.0390583
0.0392606
0.0394848
0.0396651
0.0398631
0.0394107
0.0383769
0.0356589
0.0384624
0.0382596
0.0383131
0.0383835
0.0384612
0.0385017
0.0384737
0.0383041
0.0378565
0.0371557
0.036249
0.02968
0.0363806
0.0369284
0.0369603
0.0370402
0.0370728
0.0370539
0.0368031
0.0363838
0.0358686
0.035244
0.0343525
0.0170761
0.0329825
0.0350713
0.0351157
0.0352207
0.0352112
0.0350115
0.0346371
0.0342298
0.0337737
0.0331407
0.0321965
0.0367749
0.0354375
0.0343701
0.0335797
0.0331692
0.0329913
0.0329368
0.0330035
0.033347
0.0338294
0.0346354
0.035868
0.0350774
0.0341889
0.0335216
0.0331111
0.0329122
0.0327023
0.032423
0.0322684
0.0321574
0.03216
0.0325555
0.033718
0.0334678
0.0327487
0.0322688
0.0319048
0.0313791
0.030688
0.0299475
0.0290628
0.0280155
0.0269339
0.0262072
0.0267719
0.0314091
0.0308486
0.0301571
0.0293617
0.0282815
0.0270528
0.0255323
0.0236743
0.0215153
0.0191839
0.0171207
0.0159591
0.0374723
0.0383754
0.038403
0.0386346
0.0387977
0.0390571
0.0392594
0.0394837
0.0396639
0.0398619
0.0394096
0.0383758
0.035658
0.0384614
0.0382586
0.0383121
0.0383825
0.0384602
0.0385007
0.0384727
0.0383031
0.0378556
0.0371548
0.0362483
0.0296794
0.0363798
0.0369276
0.0369595
0.0370394
0.037072
0.0370531
0.0368024
0.0363831
0.0358679
0.0352433
0.0343519
0.0170758
0.0329819
0.0350706
0.035115
0.03522
0.0352106
0.0350109
0.0346365
0.0342293
0.0337731
0.0331401
0.032196
0.036774
0.0354367
0.0343694
0.033579
0.0331686
0.0329907
0.0329363
0.033003
0.0333467
0.0338292
0.0346354
0.0358683
0.0350767
0.0341883
0.033521
0.0331105
0.0329116
0.0327018
0.0324226
0.032268
0.0321571
0.0321599
0.0325556
0.0337182
0.0334672
0.0327481
0.0322682
0.0319042
0.0313785
0.0306874
0.029947
0.0290624
0.0280153
0.0269338
0.0262073
0.026772
0.0314085
0.030848
0.0301565
0.0293611
0.0282809
0.0270522
0.0255318
0.0236739
0.0215151
0.0191839
0.0171208
0.0159593
0.0374726
0.038376
0.0384037
0.0386353
0.0387985
0.0390578
0.0392602
0.0394843
0.0396644
0.0398623
0.0394098
0.0383755
0.0356583
0.038462
0.0382593
0.0383128
0.0383833
0.0384609
0.0385014
0.0384733
0.0383035
0.0378558
0.0371548
0.0362477
0.0296799
0.0363804
0.0369283
0.0369603
0.0370401
0.0370727
0.0370538
0.0368029
0.0363835
0.0358683
0.0352436
0.0343523
0.0170762
0.0329825
0.0350713
0.0351158
0.0352208
0.0352113
0.0350115
0.034637
0.0342297
0.0337734
0.0331405
0.0321971
0.0288136
0.0279707
0.0268484
0.0255906
0.024009
0.0221305
0.0198251
0.0170762
0.0138888
0.0103913
0.006353
0.00325495
0.0253081
0.0241039
0.0226122
0.020888
0.0187926
0.0163332
0.0134224
0.0101029
0.00632802
0.00298279
0.00136486
0.00132522
0.0210181
0.0194371
0.0175424
0.0153432
0.0127382
0.00974834
0.00620432
0.00268534
0.00079588
0.000410829
0.000425063
0.000555889
0.0159982
0.0140202
0.0117031
0.00902925
0.00582568
0.00256888
0.000676183
0.000331182
0.000307992
0.000382979
0.000345861
0.000346478
0.0103286
0.00792736
0.00510143
0.00231234
0.000661087
0.000391726
0.000323273
0.000366967
0.000355863
0.000349401
0.000347818
0.000342067
0.00403482
0.00182759
0.000633364
0.000404365
0.000379267
0.000374206
0.000371394
0.000366346
0.000363505
0.000359229
0.00035697
0.000355136
0.000549171
0.000548101
0.000400254
0.000392558
0.000387896
0.000384317
0.000380948
0.000377377
0.000373829
0.00037071
0.000368178
0.000365804
0.000416834
0.00041132
0.000404051
0.000400898
0.00039719
0.00039413
0.000390586
0.000387611
0.000384169
0.000381568
0.000379288
0.000376873
0.000418882
0.000415061
0.000412178
0.000408781
0.00040583
0.000402656
0.000399757
0.000396842
0.000394168
0.000391731
0.000389771
0.000387091
0.000417374
0.000415245
0.000413057
0.000410891
0.000408669
0.000406452
0.000404164
0.000401844
0.000399439
0.000397008
0.000394543
0.000392158
0.000357032
0.000359271
0.000361052
0.000362393
0.000363925
0.000365452
0.000367272
0.000369287
0.000371643
0.000374162
0.000376818
0.000378974
0.000109981
0.000109321
0.000109447
0.000109017
0.000109105
0.000108853
0.000108937
0.000108892
0.00010899
0.000109104
0.000109327
0.000109597
0.00508129
0.0286731
0.0329777
0.0329046
0.0330099
0.0327897
0.0324633
0.0321511
0.0318234
0.0313503
0.0305909
0.0296505
0.00489784
0.0263849
0.030715
0.0303014
0.0302147
0.0299204
0.0296955
0.0294562
0.0290525
0.0283901
0.0274379
0.0263796
0.00477865
0.0241758
0.0277841
0.0272713
0.0270679
0.0269171
0.0267061
0.0262972
0.025679
0.024716
0.0235885
0.0223772
0.00464348
0.0216521
0.0243325
0.0240504
0.0239127
0.0236226
0.0232103
0.0225442
0.0215709
0.0204497
0.0191498
0.0176913
0.00446432
0.0189065
0.0208594
0.0206839
0.0203629
0.0198612
0.0191064
0.0181471
0.0170069
0.0156688
0.0141284
0.0123687
0.00420845
0.0160882
0.0174882
0.0169572
0.0163727
0.0155113
0.0145562
0.0133452
0.0120183
0.0104329
0.00859271
0.006445
0.00389173
0.0126907
0.0138565
0.0125796
0.0120283
0.0108347
0.0097189
0.00815855
0.00654063
0.00461921
0.00282749
0.00125762
0.00347162
0.00900316
0.00979158
0.00797538
0.00740441
0.00564595
0.00447005
0.00283246
0.00169816
0.000788991
0.000475597
0.000477937
0.00284807
0.00468554
0.0051124
0.00320491
0.00284402
0.00137141
0.00103635
0.000587232
0.000485233
0.000436233
0.000428918
0.00042508
0.0021417
0.00131107
0.00149776
0.00073227
0.00068094
0.000458861
0.00044619
0.000417831
0.000425142
0.000421737
0.00042173
0.000419559
0.00141238
0.000267591
0.0003536
0.000292093
0.000324445
0.000314914
0.000336418
0.000340336
0.000345193
0.000348283
0.00035201
0.000354383
0.000491451
0.000125878
0.000124876
0.000118038
0.000117833
0.000113843
0.000114396
0.000111724
0.000112192
0.000110513
0.000110824
0.000109779
0.028814
0.0279713
0.0268488
0.025591
0.0240092
0.0221307
0.0198251
0.0170761
0.0138886
0.010391
0.00635279
0.0032548
0.0253089
0.0241043
0.0226125
0.0208883
0.0187927
0.0163332
0.0134222
0.0101026
0.00632766
0.00298242
0.00136463
0.00132503
0.0210186
0.0194374
0.0175426
0.0153434
0.0127382
0.0097482
0.00620401
0.00268495
0.000795667
0.000410673
0.000424887
0.000555698
0.0159985
0.0140203
0.0117032
0.0090292
0.00582552
0.00256863
0.000676104
0.000331349
0.000307918
0.000382953
0.000345886
0.000346497
0.0103287
0.00792734
0.00510131
0.0023121
0.000661224
0.000391842
0.000323172
0.000366908
0.000355864
0.000349399
0.000347819
0.000342066
0.0040347
0.00182767
0.000633552
0.000404279
0.000379266
0.000374198
0.000371398
0.000366341
0.000363509
0.000359223
0.00035697
0.000355135
0.000549083
0.000547701
0.000400266
0.000392643
0.000387894
0.000384315
0.000380946
0.000377376
0.000373827
0.00037071
0.000368178
0.000365803
0.000416838
0.000411321
0.000404052
0.000400894
0.000397187
0.000394127
0.000390585
0.000387608
0.000384166
0.000381566
0.000379285
0.00037687
0.00041892
0.000415069
0.000412169
0.000408779
0.000405827
0.000402653
0.000399755
0.000396841
0.000394166
0.000391729
0.00038977
0.00038709
0.000417373
0.000415244
0.000413056
0.00041089
0.000408667
0.00040645
0.000404162
0.000401843
0.000399437
0.000397006
0.000394542
0.000392156
0.000357056
0.000359273
0.000361054
0.000362395
0.000363926
0.000365452
0.000367273
0.000369287
0.000371644
0.000374162
0.000376818
0.000378974
0.00010998
0.000109321
0.000109446
0.000109016
0.000109104
0.000108852
0.000108937
0.000108892
0.00010899
0.000109104
0.000109327
0.000109597
0.00508114
0.0286718
0.032976
0.0329027
0.0330082
0.0327881
0.0324618
0.0321495
0.0318219
0.0313488
0.0305896
0.0296493
0.00489769
0.0263835
0.0307133
0.0302996
0.0302131
0.0299188
0.029694
0.0294547
0.029051
0.0283889
0.0274368
0.0263786
0.0047785
0.0241746
0.0277826
0.0272696
0.0270663
0.0269155
0.0267047
0.0262958
0.0256778
0.024715
0.0235875
0.0223764
0.00464333
0.0216509
0.0243311
0.0240489
0.0239112
0.0236212
0.023209
0.0225431
0.02157
0.0204488
0.019149
0.0176906
0.00446418
0.0189053
0.0208579
0.0206825
0.0203615
0.01986
0.0191054
0.0181462
0.017006
0.015668
0.0141278
0.0123682
0.0042083
0.0160871
0.0174868
0.0169559
0.0163715
0.0155102
0.0145553
0.0133444
0.0120176
0.0104323
0.0085922
0.00644458
0.00389158
0.0126897
0.0138553
0.0125786
0.0120274
0.0108338
0.00971813
0.00815788
0.00654006
0.00461876
0.00282719
0.00125746
0.00347147
0.00900229
0.00979053
0.00797449
0.00740358
0.00564522
0.00446949
0.00283203
0.00169793
0.000788895
0.000475578
0.000477927
0.00284791
0.00468477
0.00511156
0.00320433
0.00284349
0.00137114
0.00103618
0.000587207
0.000485238
0.00043623
0.000428918
0.00042508
0.00214156
0.0013108
0.00149744
0.000732152
0.000680841
0.000458846
0.000446183
0.000417833
0.000425144
0.000421739
0.000421731
0.00041956
0.00141227
0.000267568
0.000353568
0.000292094
0.000324444
0.000314918
0.000336422
0.00034034
0.000345197
0.000348286
0.000352013
0.000354387
0.000491416
0.000125877
0.000124874
0.000118037
0.000117833
0.000113843
0.000114396
0.000111724
0.000112192
0.000110513
0.000110824
0.000109779
0.0288129
0.0279704
0.026848
0.0255902
0.0240086
0.0221301
0.0198246
0.0170757
0.0138883
0.0103909
0.00635272
0.00325478
0.025308
0.0241036
0.0226118
0.0208877
0.0187922
0.0163328
0.0134219
0.0101024
0.00632757
0.00298245
0.0013647
0.00132507
0.0210178
0.0194368
0.0175421
0.0153429
0.0127379
0.00974795
0.00620389
0.00268496
0.000795734
0.000410767
0.000424968
0.000555781
0.0159979
0.0140198
0.0117028
0.00902889
0.00582531
0.00256854
0.000676092
0.000331313
0.000307959
0.000382959
0.000345887
0.000346505
0.0103282
0.00792697
0.00510102
0.00231195
0.000661188
0.000391825
0.000323204
0.000366909
0.000355865
0.000349399
0.00034782
0.000342068
0.0040344
0.0018275
0.000633505
0.000404278
0.000379266
0.000374199
0.000371397
0.000366342
0.000363508
0.000359225
0.000356971
0.000355135
0.000549053
0.000547737
0.000400265
0.000392644
0.000387894
0.000384316
0.000380947
0.000377377
0.000373827
0.00037071
0.000368178
0.000365804
0.000416837
0.00041132
0.000404051
0.000400895
0.000397188
0.000394128
0.000390586
0.000387609
0.000384167
0.000381567
0.000379286
0.000376872
0.00041892
0.00041507
0.00041217
0.000408779
0.000405828
0.000402654
0.000399756
0.000396842
0.000394168
0.00039173
0.000389771
0.000387091
0.000417374
0.000415245
0.000413057
0.000410891
0.000408669
0.000406452
0.000404164
0.000401844
0.000399439
0.000397008
0.000394543
0.000392158
0.00035706
0.000359276
0.000361057
0.000362398
0.000363928
0.000365455
0.000367275
0.000369289
0.000371646
0.000374164
0.00037682
0.000378976
0.00010998
0.000109321
0.000109446
0.000109017
0.000109105
0.000108853
0.000108938
0.000108892
0.00010899
0.000109104
0.000109327
0.000109597
0.0050811
0.0286714
0.0329754
0.0329022
0.0330077
0.0327875
0.0324613
0.032149
0.0318214
0.0313483
0.0305891
0.0296488
0.00489767
0.0263832
0.0307129
0.0302992
0.0302126
0.0299184
0.0296935
0.0294542
0.0290506
0.0283885
0.0274364
0.0263782
0.00477849
0.0241743
0.0277823
0.0272693
0.0270659
0.0269152
0.0267043
0.0262955
0.0256775
0.0247146
0.0235871
0.022376
0.00464333
0.0216508
0.0243309
0.0240486
0.0239109
0.0236209
0.0232087
0.0225427
0.0215696
0.0204485
0.0191487
0.0176902
0.00446419
0.0189053
0.0208578
0.0206823
0.0203613
0.0198598
0.0191051
0.0181459
0.0170058
0.0156678
0.0141275
0.0123679
0.00420832
0.0160871
0.0174868
0.0169558
0.0163714
0.0155101
0.0145551
0.0133442
0.0120175
0.0104321
0.00859205
0.00644445
0.00389162
0.0126897
0.0138553
0.0125785
0.0120273
0.0108337
0.00971803
0.00815776
0.00653997
0.00461868
0.00282716
0.00125745
0.00347152
0.00900238
0.00979064
0.00797448
0.0074036
0.00564519
0.00446947
0.00283199
0.00169791
0.000788885
0.000475586
0.000477934
0.00284798
0.00468493
0.00511171
0.0032044
0.00284355
0.00137116
0.00103618
0.000587204
0.000485235
0.000436233
0.000428921
0.000425083
0.00214164
0.00131087
0.00149752
0.000732173
0.000680859
0.000458848
0.000446183
0.000417833
0.000425144
0.000421739
0.000421732
0.000419561
0.00141234
0.000267576
0.000353575
0.000292089
0.00032444
0.000314913
0.000336417
0.000340335
0.000345193
0.000348283
0.00035201
0.000354384
0.000491462
0.00012588
0.000124876
0.000118039
0.000117834
0.000113844
0.000114397
0.000111724
0.000112193
0.000110513
0.000110824
0.000109779
0.0288124
0.0279698
0.0268475
0.0255896
0.024008
0.0221296
0.0198242
0.0170754
0.0138881
0.0103909