/*--------------------------------*- C++ -*----------------------------------*\
| =========                 |                                                 |
| \\      /  F ield         | OpenFOAM: The Open Source CFD Toolbox           |
|  \\    /   O peration     | Version:  2212                                  |
|   \\  /    A nd           | Website:  www.openfoam.com                      |
|    \\/     M anipulation  |                                                 |
\*---------------------------------------------------------------------------*/
FoamFile
{
    version     2.0;
    format      ascii;
    arch        "LSB;label=32;scalar=64";
    class       volScalarField;
    location    "0.02";
    object      epsilon;
}
// * * * * * * * * * * * * * * * * * * * * * * * * * * * * * * * * * * * * * //

dimensions      [0 2 -3 0 0 0 0];

internalField   nonuniform List<scalar> 
3072
(
2890.87
2545.95
3057.78
3025.84
2829.59
2486.58
2297.26
3150.04
15156.6
35708.5
45408.2
50458
7601.92
6666.29
5288.24
4249.36
4877.95
7486.5
18758.8
24882.7
26431.7
33961
36360.5
37565.8
10415.5
7899.26
7643.83
8571.39
16019.6
21591.9
22058.1
23339
25822.9
28599.9
29565.4
30648.4
14056.7
10585.1
11785.3
13764.8
17873.1
19443.2
19747.1
21968.8
24450.2
25823.9
26558.6
27295
15957.1
12593.5
14318.6
14878
16613.9
17407.9
19632.2
22056.4
23781.4
24627.3
25087.9
25503.6
16900.4
13432.2
14399.6
14613.6
16138.7
17850.4
20320.1
22531.7
23616.2
23995.4
24173.7
24325.8
16893.8
12960.6
13914.5
14800.8
16980.2
19355.6
21787.4
23248.1
23850.8
23974.9
23882.8
23816.5
17480.1
12890.6
14285.5
16508.2
19758.6
22317.8
24056.3
24821.1
24878.2
24638.2
24343.1
24123.7
18662.6
13995.1
17560.1
22238.2
26538.4
28687.2
29245.2
28861.6
28013.4
27102.8
26325.4
25761
21914.8
18612.8
28640.2
36877.4
41739
42484.7
40795.2
38140.1
35425.5
33055.9
31170.1
29780.4
25464.8
34287.9
56048.6
67629.4
70000.4
67156.5
61045.1
54501.4
48548
43588.8
39685.1
36740.7
97421.4
98865.5
108961
110829
105927
95903.9
84698
73996.7
64568.7
56731.1
50489
45668.7
54565.3
56631.7
57853.6
58019.5
58108.2
55384.7
51575
45368.5
37729.6
28941.8
18592.6
22762.4
38582.2
39425.2
40199
40944.5
41817
43211.9
45785.1
49467.4
54405.4
60169
63264.3
75072.2
31479.3
32094.2
32616.6
33152.1
34161.8
36042.4
39311.1
44570.6
52746.9
64766.7
82280.6
117491
27845.2
28318.3
28800.8
29420.1
30475
32368.1
35695
41282.1
50508.8
65946.7
93309.2
148057
25799.9
26070.7
26397
26913.9
27877
29679.3
32929.8
38557.9
48173
65259.6
99541.7
173562
24450.8
24619.1
24902.7
25425.7
26415.8
28228.1
31422.1
36940.9
46630.8
64401.3
102972
196728
23818.1
23939.4
24235.3
24819.8
25884.5
27732.4
30895.8
36310.6
45798.9
63636.4
105032
219362
24037.7
24132.8
24443.9
25085.1
26215.3
28084.2
31171.9
36401.3
45721.2
63541.8
106137
246306
25463.4
25489.3
25808
26481.4
27658
29555
32564.3
37560.8
46563.8
64306.7
108105
278911
28909
28591.1
28797
29397.1
30517
32365
35234.5
39867.6
48372.3
65677.3
110150
313734
34760.5
33702.3
33576.2
34074
35040.5
36673.7
39235
43276.7
50869.6
67071
112561
355820
42345.8
40443.2
39831.7
40174.9
40973.3
42244
44169.5
47259.9
52998.3
67320
113459
412431
2891.25
2546.28
3058.24
3026.3
2830.03
2486.95
2297.65
3150.61
15159.6
35711.7
45411.1
50460.9
7602.93
6667.18
5289
4250.04
4878.74
7487.78
18761.2
24884.6
26434
33963.3
36362.5
37567.8
10416.9
7900.38
7645.05
8572.85
16022.1
21594.1
22059.7
23340.7
25824.8
28601.3
29566.9
30649.8
14058.2
10586.6
11787.2
13767
17875.3
19444.9
19748.4
21970.2
24451.6
25825.2
26559.8
27296.2
15958.6
12595
14320.7
14880.2
16615.7
17409.1
19633.4
22057.7
23782.6
24628.5
25089.1
25504.7
16901.9
13433.8
14401.4
14615.4
16140
17851.6
20321.3
22533
23617.5
23996.6
24174.9
24326.9
16895.1
12961.9
13916.1
14802.3
16981.4
19356.7
21788.6
23249.4
23852.1
23976.1
23884
23817.6
17481.4
12891.8
14286.9
16509.5
19759.9
22319.1
24057.5
24822.4
24879.5
24639.4
24344.3
24124.8
18664
13996.4
17561.8
22240
26540.3
28688.9
29246.7
28863
28014.6
27104
26326.5
25762
21916.9
18614.7
28643
36880.6
41742.2
42487.4
40797.3
38141.8
35426.9
33057.1
31171.1
29781.4
25467.3
34291.1
56053.3
67634.5
70005
67160.2
61047.9
54503.5
48549.6
43590.1
39686.2
36741.7
97426.9
98871
108967
110835
105932
95907.8
84701.1
73999.1
64570.5
56732.5
50490.1
45669.6
54568.2
56634.5
57856.4
58022.2
58110.9
55387
51577.2
45370.2
37730.9
28942.9
18593.4
22763.6
38584
39427
40200.6
40946.1
41818.6
43213.5
45786.7
49469
54407.1
60170.7
63266.3
75074.9
31480.6
32095.4
32617.8
33153.2
34162.7
36043.2
39311.9
44571.5
52747.9
64768
82282.5
117494
27846.3
28319.4
28801.7
29420.9
30475.7
32368.7
35695.5
41282.6
50509.4
65947.7
93310.8
148060
25800.9
26071.7
26397.9
26914.7
27877.6
29679.9
32930.2
38558.3
48173.4
65260.3
99542.9
173565
24451.8
24620.1
24903.6
25426.4
26416.5
28228.6
31422.5
36941.2
46631.2
64401.9
102973
196731
23819.2
23940.4
24236.1
24820.6
25885.1
27732.9
30896.3
36311
45799.2
63636.8
105033
219365
24038.7
24133.7
24444.8
25085.8
26215.9
28084.7
31172.3
36401.6
45721.5
63542.2
106138
246308
25464.3
25490.1
25808.8
26482.1
27658.6
29555.5
32564.7
37561.1
46564
64307
108105
278914
28909.9
28591.9
28797.6
29397.7
30517.5
32365.3
35234.7
39867.7
48372.4
65677.5
110151
313736
34761.3
33702.9
33576.7
34074.4
35040.8
36673.9
39235.1
43276.8
50869.6
67071.1
112562
355821
42346.5
40443.7
39832
40175.2
40973.5
42244.1
44169.5
47259.8
52998.1
67319.8
113459
412431
2890.88
2545.98
3057.89
3025.98
2829.73
2486.71
2297.39
3150.13
15156.1
35707.7
45407
50456.4
7601.82
6666.36
5288.37
4249.49
4878.02
7486.7
18759.5
24882.7
26431.1
33960.3
36359.7
37564.8
10415.1
7899.3
7643.87
8571.14
16019.5
21593.2
22059.2
23338.8
25822.4
28599.1
29564.5
30647.4
14055.8
10584.8
11785.3
13765.3
17874.4
19444.3
19747.3
21967.9
24449.5
25823
26557.5
27293.9
15956.1
12593
14319.1
14879.2
16614.6
17407.6
19631.3
22055.4
23780.4
24626.3
25086.9
25502.5
16899.6
13431.9
14399.8
14614
16138.3
17849.7
20319.1
22530.7
23615.3
23994.5
24172.7
24324.7
16893.2
12960.5
13914.5
14800.7
16979.5
19354.4
21786.3
23247.2
23849.9
23974
23881.9
23815.5
17480.1
12890.9
14285.5
16507.8
19758
22317.1
24055.5
24820.4
24877.4
24637.3
24342.3
24122.8
18663.4
13995.9
17560.9
22239
26539.2
28687.7
29245.2
28861.3
28012.8
27102.1
26324.6
25760.1
21917.5
18614.9
28643.4
36881.2
41742.8
42487.7
40797
38141
35425.7
33055.7
31169.6
29779.7
25467.9
34291.9
56055.3
67637.3
70008
67162.7
61049.6
54504.3
48549.7
43589.7
39685.3
36740.6
97425.6
98872.2
108970
110839
105937
95912
84704.4
74001.4
64571.9
56733.2
50490.1
45669.2
54563.5
56629.7
57851.6
58017.5
58106.3
55383
51573.6
45367.3
37728.5
28941.3
18592.4
22762.3
38581.1
39424.1
40197.9
40943.4
41815.9
43210.9
45784
49466.2
54404.1
60167.6
63263.1
75071.1
31478.1
32093
32615.3
33150.7
34160.3
36040.8
39309.4
44568.8
52744.9
64764.4
82278.2
117488
27844
28317
28799.3
29418.6
30473.4
32366.3
35693
41279.9
50506.4
65944
93305.8
148052
25798.7
26069.4
26395.6
26912.4
27875.3
29677.5
32927.7
38555.5
48170.3
65256.5
99537.5
173555
24449.7
24617.9
24901.4
25424.2
26414.2
28226.2
31420
36938.5
46628.1
64397.9
102967
196719
23817.1
23938.3
24234
24818.4
25882.9
27730.6
30893.8
36308.2
45796.1
63632.8
105027
219352
24036.7
24131.7
24442.7
25083.7
26213.7
28082.4
31169.8
36398.9
45718.4
63538.2
106132
246294
25462.4
25488.2
25806.8
26480.1
27656.5
29553.3
32562.3
37558.4
46561
64303.1
108099
278898
28908.2
28590.1
28795.8
29395.8
30515.5
32363.3
35232.5
39865.2
48369.5
65673.8
110145
313718
34760
33701.5
33575.1
34072.8
35039.1
36672
39233.1
43274.6
50867
67067.6
112556
355801
42345.8
40442.7
39830.7
40173.8
40972
42242.6
44167.9
47258
52996
67317
113454
412409
2891.29
2546.26
3058.03
3026.02
2829.76
2486.69
2297.43
3150.4
15159.7
35709.2
45407.1
50456.5
7603.07
6667.07
5288.78
4249.76
4878.58
7487.55
18759.9
24882.2
26432.3
33960.4
36359.2
37564.5
10417.3
7900.23
7644.9
8573.1
16022.4
21591.1
22056.2
23338.5
25822.8
28598.8
29564.4
30647.3
14058.9
10586.8
11787
13766.1
17872.5
19441.7
19746
21969
24449.8
25823.3
26557.8
27294.2
15959.1
12595.3
14319.5
14877.9
16613.4
17407.7
19632.4
22056.6
23781.2
24626.8
25087.4
25503
16901.7
13433.7
14400.4
14613.8
16138.9
17850.7
20320.5
22532
23616.1
23995.1
24173.3
24325.3
16894.3
12961.3
13915.2
14801.2
16980.7
19356.3
21787.8
23248.2
23850.6
23974.6
23882.5
23816.1
17479.2
12890.3
14285.7
16508.3
19758.6
22317.7
24056.1
24820.9
24877.9
24637.9
24342.8
24123.4
18660
13993.9
17559
22236.6
26536.7
28685.6
29243.9
28860.7
28012.7
27102.3
26325
25760.7
21909.9
18610.1
28636.9
36873.2
41734.4
42480.5
40792
38138
35424.1
33055
31169.5
29780
25460
34284.1
56043.5
67623.3
69994.2
67150.7
61040.5
54498
48545.7
43587.3
39684.1
36740.1
97416.3
98862.3
108958
110825
105922
95898.7
84693.5
73993.1
64565.9
56729.1
50487.6
45667.6
54563.2
56629.3
57851
58016.7
58105.4
55381.8
51572.4
45366
37727.6
28940.2
18591.5
22760.7
38580.7
39423.6
40197.2
40942.6
41815
43209.8
45782.7
49464.8
54402.5
60165.9
63260.8
75067.6
31478.1
32092.9
32615.2
33150.6
34160.1
36040.5
39309
44568.3
52744.1
64763.3
82276.3
117485
27844.3
28317.3
28799.6
29418.8
30473.6
32366.5
35693.1
41279.9
50506.1
65943.3
93304.5
148049
25799.2
26069.9
26396.1
26912.9
27875.8
29677.9
32928.2
38555.9
48170.5
65256.3
99536.7
173553
24450.2
24618.5
24902
25424.9
26414.8
28226.9
31420.7
36939.1
46628.5
64398.1
102967
196718
23817.7
23938.9
24234.7
24819.1
25883.7
27731.3
30894.5
36309
45796.7
63633.2
105027
219351
24037.4
24132.4
24443.5
25084.5
26214.6
28083.3
31170.7
36399.8
45719.2
63538.8
106132
246293
25463.1
25489
25807.7
26481
27657.4
29554.2
32563.2
37559.4
46561.8
64303.8
108100
278897
28908.8
28590.8
28796.6
29396.6
30516.4
32364.2
35233.4
39866.1
48370.3
65674.5
110145
313719
34760
33701.8
33575.7
34073.4
35039.7
36672.7
39233.8
43275.3
50867.7
67068.3
112556
355802
42344.9
40442.3
39830.7
40173.9
40972.1
42242.7
44168.1
47258.3
52996.3
67317.4
113454
412411
153832
144609
134584
125979
117104
107109
96573.1
85987.6
76008.7
67208.6
59848
53917.8
94595.1
96446.6
96771.9
96601.6
95557.6
93291.2
89543.2
83506.2
76540.3
69973.5
63907.9
58663.8
63716.5
65972.9
67698.5
69362
70891.5
72024.2
72023
70986.1
69216.8
66371.5
62731
59429.9
49978.3
51620.6
53058.9
54480.1
55963.8
57461.6
58693.9
59540
59673.2
59221.5
58338.6
57143.8
49812
47520.3
46628.7
46780.3
47276.9
47886.1
48696.8
50165.2
53419.5
61991.5
85883.6
170171
55096.1
53347.8
52507.8
52086.3
51523
50925.9
50464.3
50591.6
51592
54968.9
64452.1
88627.7
57359.4
56374.9
55177.1
53728.5
51905.4
50035.3
48345.8
47233.2
47086.6
48006.5
51657.8
59838.1
55965.4
54293.6
51833
49095.4
46378.5
44228.1
42727
41960.8
42016.9
42612.9
44511.3
47810.2
153837
144613
134588
125983
117108
107113
96576
85990
76010.6
67210
59849.2
53918.7
94596.8
96450.1
96775.8
96605.6
95561.5
93294.9
89546.4
83508.8
76542.5
69975.3
63909.3
58665
63718.3
65977.5
67702.8
69366.2
70895.6
72028
72026.6
70989.2
69219.6
66373.7
62732.7
59431.3
49981.4
51625.8
53063.5
54484.4
55967.7
57465.2
58697.2
59543.1
59675.6
59223.6
58340.4
57145.2
49812.7
47520.9
46629
46780.5
47277
47886.1
48696.6
50164.9
53419.1
61991
85883.2
170171
55096.9
53348.4
52508.2
52086.5
51523
50925.7
50464
50591.2
51591.4
54968.2
64451.1
88626.6
57360.5
56375.6
55177.4
53728.6
51905.2
50034.9
48345.1
47232.3
47085.5
48005.2
51656.3
59836.3
55966.2
54294
51832.9
49095
46377.8
44227
42725.7
41959.2
42015.2
42611.1
44509.2
47808
153838
144614
134589
125986
117112
107116
96579
85992.5
76012.5
67211.3
59849.8
53918.7
94595.9
96449
96775.1
96605.3
95561.8
93295.5
89547.5
83510.3
76543.6
69976
63909.6
58664.9
63716.5
65975.6
67700.9
69364.4
70893.9
72026.7
72025.6
70988.6
69219
66373.4
62732.3
59430.6
49979.1
51623.4
53061.1
54481.9
55965.3
57462.9
58695.2
59541.2
59674.1
59222.2
58339.1
57144.1
49812.3
47520.1
46628
46779.4
47275.9
47884.9
48695.4
50163.6
53417.5
61988.9
85879.9
170163
55096.5
53347.6
52507.3
52085.6
51522
50924.8
50462.9
50590
51590.2
54966.6
64448.9
88623
57359.7
56374.7
55176.6
53727.8
51904.4
50034
48344.1
47231.2
47084.3
48003.8
51654.5
59834.1
55965.3
54293.1
51832.1
49094.2
46376.9
44226
42724.6
41958
42014
42609.7
44507.7
47806.2
153831
144608
134583
125978
117102
107106
96569.7
85984.4
76005.9
67206.3
59846.2
53916.2
94592
96445.9
96771.5
96600.9
95556.2
93289.4
89540.7
83503.2
76537.5
69970.9
63905.5
58661.6
63714
65973.2
67698.5
69361.7
70890.7
72022.6
72021
70983.6
69214.1
66368.6
62728.2
59427.1
49977.2
51621.5
53059.1
54479.9
55963
57460.1
58691.9
59537.5
59670.2
59218.4
58335.5
57140.7
49810.5
47518.9
46627.2
46778.7
47275.3
47884.4
48695
50163.4
53417.6
61989.1
85880.3
170164
55093.9
53345.6
52505.6
52084.1
51520.8
50923.8
50462.4
50589.7
51590.1
54966.8
64449.5
88624.4
57356.6
56372.1
55174.4
53726
51903
50033.2
48343.7
47231.2
47084.6
48004.4
51655.4
59835.9
55962.3
54290.8
51830.4
49093.1
46376.4
44226.1
42725.1
41958.9
42015.1
42610.9
44508.9
47807.9
45913.7
47224.7
48509.9
49835.2
51000.2
51876.9
52474
52633.6
51976.3
50664.1
48785.1
46625.3
43578.8
44857
46070.8
47086.4
47759
48143.8
47940.3
46794.5
44817.9
42303.5
39618.1
37397.8
41647.6
42799
43656.3
44254.1
44615.8
44489.9
43541.1
41912.2
39812.8
37745.8
36090.3
35055.3
38897.3
39574.8
40100
40393.1
40363.4
39734
38669.7
37455.6
36517.6
36675.5
38586.1
41211.8
44683.9
41652.6
39403.4
38557
37982.8
38079.4
38541.3
39309.7
40353.4
41619.7
43353.1
44879.8
36018.5
33279.7
32674.6
33407.9
34266.6
35513.2
36782.8
38120.2
39447
40726.5
41984.6
42809.2
34305.7
29431.1
28924.7
30552.7
32072.2
33791.1
35383.7
36890.3
38199.3
39299.2
40188.1
40854.5
45343.6
27515.5
26257.2
28123.7
29851.5
31672.3
33302.8
34762.1
35937.3
36831.5
37553.9
38205.8
45918.2
47228.1
48512.9
49838
51002.5
51879
52475.9
52635.2
51977.2
50664.6
48785.2
46624.9
43581.4
44859.3
46072.8
47088
47760.3
48144.9
47940.9
46794.7
44817.4
42302.6
39616.7
37396
41649.1
42800.2
43657.4
44254.9
44616.3
44490
43540.6
41911.2
39811.3
37743.8
36087.9
35052.7
38898
39575.4
40100.5
40393.3
40363.1
39733.2
38668.4
37453.8
36515.3
36672.7
38582.8
41208.1
44683.1
41651.4
39402
38555.3
37981
38077.5
38539.3
39307.5
40351.2
41617.4
43350.6
44877.2
36016.6
33277.8
32672.6
33405.8
34264.5
35511
36780.6
38117.9
39444.6
40724
41982.1
42806.6
34303.2
29429
28922.7
30550.7
32070.1
33789
35381.5
36888.1
38197
39296.9
40185.8
40852.2
45339.5
27513.4
26255.3
28121.8
29849.6
31670.4
33300.8
34760.1
35935.4
36829.6
37552.1
38204.1
45915.6
47225.5
48510.4
49835.6
51000.3
51876.9
52474
52633.4
51975.8
50663.4
48784
46623.9
43579
44856.9
46070.5
47085.9
47758.4
48143
47939.3
46793.3
44816.2
42301.5
39615.7
37395.1
41646.9
42798.3
43655.6
44253.3
44614.8
44488.7
43539.5
41910.1
39810.3
37742.8
36087
35051.8
38896.4
39574
40099.2
40392.1
40362.2
39732.5
38667.7
37453.2
36514.8
36672.1
38582.2
41207.3
44682.1
41650.4
39401
38554.4
37980
38076.4
38538.2
39306.4
40349.9
41616
43349.1
44875.7
36015.6
33277
32671.8
33405
34263.6
35510.1
36779.6
38116.9
39443.5
40722.9
41980.8
42805.4
34302.3
29428.4
28922.1
30550
32069.4
33788.3
35380.8
36887.3
38196.2
39296
40184.8
40851.2
45338.6
27512.9
26254.8
28121.4
29849.1
31669.9
33300.4
34759.6
35934.8
36828.9
37551.4
38203.3
45914
47223.8
48508.6
49833.5
50997.9
51874.3
52471.2
52630.6
51973.1
50661.1
48782.3
46622.7
43577.6
44855.4
46068.8
47084
47756.4
48141
47937.4
46791.7
44815.1
42301
39615.9
37395.8
41645.8
42797.1
43654.2
44251.9
44613.4
44487.5
43538.7
41909.9
39810.7
37743.9
36088.6
35053.6
38895.6
39573.1
40098.3
40391.3
40361.6
39732.3
38668
37454.2
36516.3
36674.3
38584.9
41210.3
44681.6
41650.6
39401.6
38555.4
37981.3
38078
38539.8
39308.1
40351.6
41617.5
43350.4
44876.1
36016.8
33278.4
32673.4
33406.9
34265.6
35512.2
36781.7
38119
39445.6
40724.9
41982.9
42807.5
34304.3
29430.3
28924
30552.1
32071.6
33790.5
35383
36889.6
38198.5
39298.4
40187.4
40853.9
45341.7
27514.9
26256.7
28123.4
29851.2
31672
33302.5
34761.8
35937.2
36831.5
37554
38205.8
34489.5
34764.7
34810.3
34456.8
33636.7
32311.5
30619
28728.4
26808.5
24675.4
23138.4
24784.1
28529.3
28147
27317.3
25992
24031.4
21381.1
17953.8
13630.2
8526.28
4511.5
2426.65
1447.33
21211.2
20027.6
18275.6
15949.9
12925.2
9250.55
5126.87
1917.5
561.624
170.751
121.893
92.6181
13376.6
11543
9203.57
6445.61
3453.57
1177.56
235.03
32.309
29.918
16.9704
20.9124
20.2354
6225.43
4254.91
2249.86
768.812
143.858
22.1853
18.5967
16.3946
16.9142
17.1144
17.2327
17.3873
1305.61
446.82
93.4187
16.4766
17.6387
15.5975
15.9451
16.2478
16.4606
16.7916
17.0169
17.2281
61.0335
9.79644
15.8331
14.7302
15.0086
15.2995
15.5101
15.8028
16.0219
16.319
16.5291
16.74
14.426
13.8529
14.2005
14.4401
14.6481
14.9026
15.1178
15.3947
15.6198
15.9084
16.1183
16.3286
13.3898
13.6079
13.8011
14.0209
14.2363
14.4668
14.6959
14.9308
15.1652
15.3932
15.6057
15.8334
12.5613
12.725
12.894
13.0713
13.2531
13.4445
13.6424
13.8519
14.0694
14.2983
14.5377
14.7836
11.1516
11.2129
11.2889
11.3724
11.4552
11.5405
11.623
11.7057
11.7849
11.864
11.9413
12.0206
12.0252
11.8157
11.857
11.7227
11.7516
11.6745
11.7023
11.6915
11.7238
11.7626
11.8366
11.9262
93629.6
25732.2
23582.5
25432
27100.1
28798.2
30297
31517.2
32455.6
33154.5
33705.5
34132.2
73155.8
21575.7
20487.9
22316.2
23749.4
25143.2
26266.9
27160.3
27846.6
28329.2
28590.4
28660
59528.6
17835.6
17247.5
18758.7
19851.4
20785.4
21529
22134.8
22519.4
22646.1
22481.1
22000
48084.2
14272.9
13921.3
14918
15597.4
16171.9
16595.6
16820.3
16827.8
16455.7
15791
14772.4
37768.2
10858.1
10570.7
11105.9
11475
11685.2
11748.9
11555.1
11102.7
10330.2
9288.24
7913.11
28070.5
7701.17
7363.96
7615.87
7674.26
7536.1
7232.52
6695.61
5965.48
4978.54
3825.04
2519.46
19765
4883.34
4612.2
4558.83
4355.27
3935.81
3446.94
2762.47
2057.69
1273.88
650.955
205.449
12536
2539.12
2394.37
1997.85
1799.21
1289.16
961.637
502.38
271.714
64.1643
42.3934
10.4753
6210.5
828.431
836.764
444.45
408.687
134.621
111.879
19.882
23.1903
11.9786
13.3865
13.1036
2376.02
125.27
135.597
37.1689
40.3908
12.0953
14.6327
11.8535
12.1711
12.1414
12.2638
12.4089
614.764
17.5921
20.1836
11.4678
11.8525
11.1239
10.9796
10.969
10.9515
10.9945
11.0235
11.0915
1060.95
17.9324
17.5334
14.8186
14.7498
13.306
13.5057
12.5885
12.7495
12.1923
12.2968
11.9584
34489.9
34764.9
34810.3
34456.4
33635.9
32310.2
30617.4
28726.4
26806.1
24672.7
23135.4
24780.6
28528.6
28146.8
27317
25991.3
24030.5
21379.9
17952.4
13628.8
8525
4510.56
2425.97
1446.65
21210.5
20027.2
18275.2
15949.2
12924.5
9249.75
5126.16
1917.03
561.44
170.63
121.813
92.5167
13375.9
11542.6
9203.19
6445.17
3453.2
1177.33
234.981
32.2852
29.9257
16.9757
20.9146
20.2395
6224.91
4254.67
2249.66
768.671
143.878
22.1428
18.6151
16.3952
16.9142
17.1143
17.2327
17.3872
1305.32
446.858
93.3967
16.4143
17.6383
15.5982
15.9446
16.2477
16.4602
16.7916
17.0168
17.228
60.9765
9.80043
15.8331
14.7291
15.0086
15.2995
15.5101
15.8028
16.022
16.319
16.529
16.74
14.4248
13.8527
14.2003
14.4398
14.6478
14.9024
15.1175
15.3944
15.6195
15.908
16.1179
16.3282
13.3885
13.6074
13.8012
14.0207
14.2362
14.4667
14.6958
14.9306
15.1651
15.393
15.6055
15.8333
12.5612
12.7249
12.8939
13.0712
13.253
13.4444
13.6424
13.8519
14.0693
14.2983
14.5376
14.7835
11.1509
11.2129
11.2889
11.3724
11.4552
11.5405
11.623
11.7057
11.7849
11.864
11.9414
12.0207
12.0251
11.8156
11.8569
11.7226
11.7516
11.6745
11.7023
11.6915
11.7237
11.7626
11.8366
11.9261
93620.4
25730.1
23580.8
25430.3
27098.4
28796.6
30295.4
31515.6
32454.1
33153.1
33704.1
34130.9
73148.6
21573.9
20486.4
22314.8
23748
25141.8
26265.6
27159.1
27845.5
28328.2
28589.4
28659.1
59522.7
17834.2
17246.3
18757.6
19850.3
20784.4
21528
22133.8
22518.6
22645.3
22480.5
21999.5
48079.4
14271.7
13920.4
14917.1
15596.6
16171.1
16594.9
16819.6
16827.2
16455.2
15790.6
14772.1
37764.3
10857.2
10570
11105.2
11474.3
11684.6
11748.4
11554.6
11102.3
10329.9
9288.01
7912.93
28067.4
7700.5
7363.41
7615.31
7673.74
7535.64
7232.13
6695.28
5965.21
4978.33
3824.87
2519.34
19762.7
4882.84
4611.79
4558.42
4354.9
3935.49
3446.66
2762.25
2057.52
1273.76
650.888
205.421
12534.4
2538.78
2394.09
1997.57
1798.98
1288.98
961.502
502.295
271.673
64.1502
42.3908
10.4756
6209.45
828.263
836.604
444.349
408.599
134.586
111.857
19.8783
23.1877
11.9789
13.3866
13.1037
2375.55
125.233
135.558
37.1581
40.3807
12.0949
14.6318
11.8536
12.1711
12.1415
12.2639
12.409
614.634
17.5905
20.1809
11.4678
11.8523
11.1239
10.9796
10.9691
10.9515
10.9946
11.0236
11.0916
1060.73
17.9318
17.5326
14.8181
14.7494
13.3057
13.5054
12.5883
12.7493
12.1922
12.2967
11.9583
34488.8
34764
34809.5
34455.8
33635.5
32310
30617.2
28726.3
26806.1
24672.7
23135.1
24780.2
28528
28146.3
27316.6
25991.1
24030.4
21379.9
17952.4
13628.8
8525.03
4510.61
2426.07
1446.81
21210.2
20027
18275
15949.1
12924.5
9249.75
5126.18
1917.04
561.482
170.67
121.853
92.5622
13375.7
11542.5
9203.12
6445.13
3453.17
1177.32
234.976
32.2926
29.925
16.9758
20.9159
20.2406
6224.78
4254.57
2249.59
768.64
143.868
22.1455
18.6131
16.395
16.9143
17.1145
17.2328
17.3875
1305.24
446.823
93.3883
16.4138
17.6381
15.5982
15.9447
16.2478
16.4603
16.7916
17.0168
17.228
60.9735
9.79941
15.8329
14.729
15.0086
15.2995
15.5101
15.8028
16.0219
16.319
16.529
16.74
14.4248
13.8527
14.2004
14.4399
14.6479
14.9025
15.1176
15.3945
15.6196
15.9082
16.1181
16.3284
13.3885
13.6075
13.8012
14.0208
14.2363
14.4668
14.6959
14.9307
15.1651
15.3931
15.6056
15.8334
12.5613
12.725
12.894
13.0713
13.2531
13.4445
13.6425
13.852
14.0694
14.2984
14.5377
14.7837
11.151
11.213
11.289
11.3725
11.4553
11.5406
11.6231
11.7058
11.7851
11.8642
11.9415
12.0208
12.025
11.8156
11.8569
11.7227
11.7516
11.6745
11.7023
11.6916
11.7238
11.7627
11.8366
11.9262
93618.8
25729.8
23580.5
25430.1
27098.1
28796.3
30295.1
31515.3
32453.7
33152.7
33703.7
34130.5
73147.8
21573.8
20486.3
22314.7
23747.9
25141.7
26265.5
27158.9
27845.3
28328
28589.2
28658.9
59522.4
17834.2
17246.3
18757.6
19850.4
20784.4
21528
22133.8
22518.6
22645.3
22480.4
21999.5
48079.5
14271.8
13920.4
14917.1
15596.7
16171.1
16595
16819.7
16827.3
16455.3
15790.7
14772.2
37764.7
10857.3
10570.1
11105.4
11474.4
11684.7
11748.5
11554.7
11102.4
10330
9288.08
7912.99
28068
7700.66
7363.54
7615.45
7673.86
7535.75
7232.22
6695.36
5965.28
4978.38
3824.91
2519.37
19763.3
4883
4611.91
4558.54
4354.99
3935.56
3446.72
2762.29
2057.55
1273.78
650.9
205.426
12535
2538.91
2394.18
1997.65
1799.03
1289.01
961.525
502.304
271.679
64.1503
42.3931
10.4757
6209.95
828.329
836.661
444.378
408.622
134.593
111.861
19.879
23.1884
11.979
13.3867
13.1038
2375.86
125.25
135.574
37.1621
40.3842
12.0952
14.6321
11.8537
12.1712
12.1415
12.2639
12.409
614.73
17.5922
20.1829
11.468
11.8525
11.124
10.9797
10.9691
10.9515
10.9946
11.0236
11.0916
1061.06
17.933
17.5338
14.8188
14.75
13.3062
13.5059
12.5885
12.7496
12.1924
12.2969
11.9585
34488.3
34763.5
34809.1
34455.6
33635.5
32310.4
30618.1
28727.6
26807.8
24674.6
23137.4
24782.8
28527.8
28146.2
27316.6
25991.2
24030.7
21380.4
17953.2
13629.7
8525.92
4511.37
2426.69
1447.45
21210.2
20027
18275.2
15949.3
12924.8
9250.1
5126.55
1917.37
561.675
170.807
121.962
92.6891
13375.8
11542.6
9203.22
6445.25
3453.3
1177.42
235.032
32.3187
29.9327
16.982
20.9258
20.2516
6224.83
4254.62
2249.63
768.674
143.887
22.1456
18.6139
16.3949
16.9148
17.1149
17.2333
17.3879
1305.26
446.836
93.3918
16.4152
17.6389
15.5984
15.9449
16.248
16.4606
16.7918
17.017
17.2282
60.9765
9.79948
15.8333
14.7292
15.0088
15.2997
15.5103
15.803
16.0221
16.3192
16.5292
16.7402
14.4251
13.8529
14.2005
14.4401
14.648
14.9026
15.1178
15.3947
15.6197
15.9083
16.1182
16.3285
13.3886
13.6076
13.8014
14.0209
14.2364
14.4669
14.696
14.9308
15.1653
15.3933
15.6057
15.8335
12.5613
12.7251
12.8941
13.0714
13.2531
13.4446
13.6425
13.852
14.0694
14.2984
14.5377
14.7837
11.1509
11.2129
11.2889
11.3725
11.4552
11.5406
11.6231
11.7057
11.785
11.8641
11.9414
12.0207
12.0252
11.8157
11.8569
11.7227
11.7516
11.6745
11.7024
11.6916
11.7238
11.7627
11.8366
11.9262
93625.3
25731.7
23582.3
25431.8
27099.9
28798.1
30296.9
31517.2
32455.7
33154.8
33705.9
34133
73152.7
21575.3
20487.7
22316.1
23749.4
25143.1
26266.9
27160.3
27846.7
28329.4
28590.6
28660.2
59526.3
17835.3
17247.4
18758.7
19851.4
20785.4
21529
22134.8
22519.5
22646.1
22481.2
22000.2
48082.5
14272.6
13921.2
14917.9
15597.4
16171.8
16595.6
16820.3
16827.9
16455.7
15791
14772.4
37767
10857.9
10570.6
11105.8
11474.9
11685.1
11748.9
11555.1
11102.7
10330.3
9288.25
7913.09
28069.8
7701.07
7363.86
7615.78
7674.18
7536.04
7232.49
6695.61
5965.5
4978.56
3825.05
2519.48
19764.8
4883.31
4612.15
4558.79
4355.23
3935.79
3446.93
2762.46
2057.68
1273.86
650.957
205.48
12536.2
2539.16
2394.39
1997.88
1799.24
1289.19
961.654
502.373
271.699
64.164
42.4051
10.4797
6210.86
828.493
836.818
444.495
408.727
134.637
111.888
19.886
23.194
11.9833
13.391
13.1078
2376.31
125.294
135.62
37.1789
40.4002
12.0998
14.6377
11.8591
12.177
12.1478
12.2705
12.4159
614.857
17.5945
20.1871
11.4697
11.8549
11.127
10.9833
10.973
10.9559
10.9997
11.0286
11.0945
1061.31
17.9335
17.5344
14.8193
14.7504
13.3071
13.5071
12.591
12.7524
12.1968
12.301
11.9627
)
;

boundaryField
{
    rotor
    {
        type            epsilonWallFunction;
        blending        stepwise;
        value           nonuniform List<scalar> 
192
(
2890.87
2545.95
3057.78
3025.84
2829.59
2486.58
2297.26
3150.04
15156.6
35708.5
45408.2
50458
54565.3
56631.7
57853.6
58019.5
58108.2
55384.7
51575
45368.5
37729.6
28941.8
18592.6
22762.4
2891.25
2546.28
3058.24
3026.3
2830.03
2486.95
2297.65
3150.61
15159.6
35711.7
45411.1
50460.9
54568.2
56634.5
57856.4
58022.2
58110.9
55387
51577.2
45370.2
37730.9
28942.9
18593.4
22763.6
2890.88
2545.98
3057.89
3025.98
2829.73
2486.71
2297.39
3150.13
15156.1
35707.7
45407
50456.4
54563.5
56629.7
57851.6
58017.5
58106.3
55383
51573.6
45367.3
37728.5
28941.3
18592.4
22762.3
2891.29
2546.26
3058.03
3026.02
2829.76
2486.69
2297.43
3150.4
15159.7
35709.2
45407.1
50456.5
54563.2
56629.3
57851
58016.7
58105.4
55381.8
51572.4
45366
37727.6
28940.2
18591.5
22760.7
2890.87
7601.92
10415.5
14056.7
15957.1
16900.4
16893.8
17480.1
18662.6
21914.8
25464.8
97421.4
22760.7
75067.6
117485
148049
173553
196718
219351
246293
278897
313719
355802
412411
2891.25
7602.93
10416.9
14058.2
15958.6
16901.9
16895.1
17481.4
18664
21916.9
25467.3
97426.9
22762.4
75072.2
117491
148057
173562
196728
219362
246306
278911
313734
355820
412431
2890.88
7601.82
10415.1
14055.8
15956.1
16899.6
16893.2
17480.1
18663.4
21917.5
25467.9
97425.6
22763.6
75074.9
117494
148060
173565
196731
219365
246308
278914
313736
355821
412431
2891.29
7603.07
10417.3
14058.9
15959.1
16901.7
16894.3
17479.2
18660
21909.9
25460
97416.3
22762.3
75071.1
117488
148052
173555
196719
219352
246294
278898
313718
355801
412409
)
;
    }
    stator
    {
        type            epsilonWallFunction;
        blending        stepwise;
        value           nonuniform List<scalar> 
192
(
12.0252
11.8157
11.857
11.7227
11.7516
11.6745
11.7023
11.6915
11.7238
11.7626
11.8366
11.9262
1060.95
17.9324
17.5334
14.8186
14.7498
13.306
13.5057
12.5885
12.7495
12.1923
12.2968
11.9584
12.0251
11.8156
11.8569
11.7226
11.7516
11.6745
11.7023
11.6915
11.7237
11.7626
11.8366
11.9261
1060.73
17.9318
17.5326
14.8181
14.7494
13.3057
13.5054
12.5883
12.7493
12.1922
12.2967
11.9583
12.025
11.8156
11.8569
11.7227
11.7516
11.6745
11.7023
11.6916
11.7238
11.7627
11.8366
11.9262
1061.06
17.933
17.5338
14.8188
14.75
13.3062
13.5059
12.5885
12.7496
12.1924
12.2969
11.9585
12.0252
11.8157
11.8569
11.7227
11.7516
11.6745
11.7024
11.6916
11.7238
11.7627
11.8366
11.9262
1061.31
17.9335
17.5344
14.8193
14.7504
13.3071
13.5071
12.591
12.7524
12.1968
12.301
11.9627
93629.6
73155.8
59528.6
48084.2
37768.2
28070.5
19765
12536
6210.5
2376.02
614.764
1060.95
24784.1
1447.33
92.6181
20.2354
17.3873
17.2281
16.74
16.3286
15.8334
14.7836
12.0206
11.9262
93620.4
73148.6
59522.7
48079.4
37764.3
28067.4
19762.7
12534.4
6209.45
2375.55
614.634
1060.73
24780.6
1446.65
92.5167
20.2395
17.3872
17.228
16.74
16.3282
15.8333
14.7835
12.0207
11.9261
93618.8
73147.8
59522.4
48079.5
37764.7
28068
19763.3
12535
6209.95
2375.86
614.73
1061.06
24780.2
1446.81
92.5622
20.2406
17.3875
17.228
16.74
16.3284
15.8334
14.7837
12.0208
11.9262
93625.3
73152.7
59526.3
48082.5
37767
28069.8
19764.8
12536.2
6210.86
2376.31
614.857
1061.31
24782.8
1447.45
92.6891
20.2516
17.3879
17.2282
16.7402
16.3285
15.8335
14.7837
12.0207
11.9262
)
;
    }
    front
    {
        type            empty;
    }
    back
    {
        type            empty;
    }
}


// ************************************************************************* //
