/*--------------------------------*- C++ -*----------------------------------*\
| =========                 |                                                 |
| \\      /  F ield         | OpenFOAM: The Open Source CFD Toolbox           |
|  \\    /   O peration     | Version:  2212                                  |
|   \\  /    A nd           | Website:  www.openfoam.com                      |
|    \\/     M anipulation  |                                                 |
\*---------------------------------------------------------------------------*/
FoamFile
{
    version     2.0;
    format      ascii;
    arch        "LSB;label=32;scalar=64";
    class       volScalarField;
    location    "0.02";
    object      epsilon;
}
// * * * * * * * * * * * * * * * * * * * * * * * * * * * * * * * * * * * * * //

dimensions      [0 2 -3 0 0 0 0];

internalField   nonuniform List<scalar> 
3072
(
4234.34
3449.56
3726.33
3648.2
3181.02
2914.85
4624.22
25750.5
55827.2
70828.6
80137.1
87205.6
11476.3
9275.62
7257.2
7157.41
10455
24778.7
35278.3
40427.7
52320.3
56712.9
59325.6
61085.6
17148.1
13146.7
16334.8
21701.4
25845.4
29044.2
34580
39815.2
44988
47483.9
49771.8
51222.2
23931.4
19110.8
20733.4
21848.1
25277.1
29296
34648.2
38798.6
41757.7
43670
45378.9
46567.2
26341.7
21990.3
22634.2
22412.4
25847.7
30258.6
34924.1
38177.9
40305.8
41854.7
43198
44191.7
26980.2
21981.6
22843.7
23363.8
27008.8
31214.6
35136.2
37782.8
39469.7
40789
41969.3
42968.9
24728.9
20026.9
21837.5
23754.6
27918.7
32119.3
35672.3
38046.7
39646.6
40909.1
42050.7
43092.2
22985.7
17751.9
21078.9
24923
30038.4
34374.2
37691.2
39918.2
41467
42706.1
43844.2
44948.5
22236.9
17504.4
23157.5
29654.6
36311.8
41009.3
44139.9
46087.7
47344.1
48302.1
49157.8
50020.9
23403.2
21255.4
34338.5
45429.5
53689.3
58100.6
60144.9
60751.1
60642.2
60303.3
59978
59760.7
27659.7
40722.9
69280.4
85541
92348.5
92915.6
90370.7
86731.5
82955
79510.9
76578.5
74176.3
131649
133883
148588
151938
147239
137530
127273
117662
109138
101809
95653.7
90542.2
91194.5
93235.8
93354
92990.1
90110.1
85043.4
77552.8
67646.7
55506.7
42267.3
27341
35011.2
62228.2
62962.1
63109.1
62889.7
62877.3
63867.6
66580.8
71296.6
77644.6
85375.5
90389
109714
52063.6
52500.8
52561.5
52547
53106.1
54902.8
58648.5
65226
75930.3
92159.4
116164
166779
47324.5
47783.7
48074.7
48376.1
49170.4
51088.2
54959.2
61927.4
73869.4
94293.9
131922
211108
44935.8
45467.4
45869.4
46362
47339.3
49362
53259.5
60264.1
72566.3
94895.3
141034
246724
43817.3
44519.1
45138.7
45865
47018.3
49121.6
52997.4
59958.3
72385.8
95458.6
146951
280167
44056.9
44952.9
45828.9
46812.6
48153
50314.9
54087.8
60818.4
73046.9
96279.8
150547
311815
46040.5
47120.5
48208.2
49370.7
50813.5
52943.3
56504.9
62866.6
74728.4
97960.1
154050
350624
50922.2
51857
52830.2
53891.5
55199.8
57091.8
60239.9
66001.8
77219.5
100123
157808
394655
59728.7
59859.6
60153.7
60647.4
61421.4
62759
65213.1
70055.7
80197.9
102127
161077
441141
72278.9
70840.9
69812.8
69180.4
69085.7
69620.4
71029.1
74554.3
82952.5
103483
164182
496373
86334.9
82944.3
80257.8
78200.1
76746.5
76079.1
76471.8
78327.5
84293.8
102530
165172
570295
3819.99
3175.66
3471.24
3414.27
3069.66
2667.22
3234.55
11911.1
40731.3
57814.2
66101.4
73051.2
10305.5
8492.31
6469.53
6075.6
8157.42
19144.1
29581.9
31796.7
43027.8
48144.4
50454.2
52368.8
15110.9
11141.7
12766.8
17510.1
22919.7
24884.4
28809.2
33102.1
38383.2
40347.9
42488.2
44090.3
20835.1
16112.3
17497.7
18513.9
21674.6
24449.7
28923.6
32947.6
35902.6
37494.3
39073
40269.8
22966.9
18565.2
19132.1
18993.3
21884.1
25238.8
29659.6
32989.7
35075.4
36373.9
37545.3
38458
23505.1
18905.4
19524.4
19818.8
22943.8
26825.4
30606
33228.2
34838.4
35877.6
36796.2
37589.6
22043.8
17422.7
18755
20468.5
24299.1
28261.7
31652.1
33930.2
35312.3
36277.4
37120
37894.1
20975
15793.1
18570.5
22063.3
26944
31083.7
34215.7
36231.1
37468.5
38346.3
39111.1
39862
20715.6
15997.5
20937.3
27204.6
33664.1
38167.9
41036.5
42641.6
43496.9
44007.2
44414
44859.8
22084
19769.5
32012.7
42819.9
50919.5
55183.8
56882.4
57013.3
56420
55582.6
54756.8
54110.5
25997.6
38099.7
65368.9
81350.7
88050.1
88317.8
85421.7
81376.1
77216.3
73418.8
70163
67503
121062
126455
141265
144470
139611
129496
118944
109147
100547
93244.7
87174.6
82212.7
76901.6
79308.6
79629
79561.5
77980
73885.6
67931.5
59668.3
49430.3
37849.9
24555.9
31128.1
53573.9
54462.3
54896.9
55139.6
55543.1
56734.9
59438.6
63884.1
69903.5
77218.6
81641.5
98655.4
45066.8
45628.1
45922.5
46229.5
46972.7
48832.3
52474.6
58733.5
68749
83787.8
105319
151039
41072
41633
42040.2
42493.8
43389.6
45323.6
49097.7
55760.1
67021.8
86016.9
120474
191164
39120.6
39640.6
40071.5
40608.9
41608.6
43594.4
47353.8
54038.2
65691.3
86674.5
129425
223865
38262.8
38854.2
39410.2
40096.2
41212.4
43243.5
46963.3
53602.8
65388.6
87134.2
135148
254423
38620.8
39326.5
40053.1
40918
42152.3
44187
47761.4
54138.8
65708.6
87611
138549
283500
40628.6
41426
42281
43260.2
44545.3
46510.1
49848.8
55840.5
67019.4
88840.5
141468
318713
45365.7
45947
46635.1
47479.8
48614.4
50334.8
53266.1
58676
69227.1
90739.1
144844
360288
53686.7
53501.2
53567.5
53881.6
54533.4
55730.3
58018.3
62586.3
72160
92950.3
148074
405087
65402.9
63810.8
62680.4
61985.7
61873.5
62416.7
63812
67239
75396
94881.8
151818
460690
78199.6
74997.2
72490.7
70612.5
69349.6
68973.2
69632.4
71787.2
77808.2
95535
155116
540700
4233.32
3448.9
3725.52
3647.41
3180.41
2914.16
4621.36
25730.8
55813.3
70818.9
80126.4
87195.9
11473.6
9274.05
7255.02
7155.19
10452.2
24774.1
35276.7
40418.1
52313.4
56707.2
59319.9
61079.8
17144.4
13143.3
16329.4
21698.4
25846.4
29042.6
34576.3
39809.7
44983.9
47478.7
49766.5
51217
23926.3
19107.3
20731.1
21846.3
25275.8
29292.8
34643.9
38794
41753.5
43665.3
45374.1
46562.6
26336.4
21986.4
22631.5
22410.2
25844.9
30253.7
34919.5
38173.7
40301.9
41850.5
43193.8
44187.4
26974.9
21978.4
22840.9
23360.5
27004.6
31210.4
35132.2
37779.3
39466.2
40785.3
41965.4
42964.8
24725
20024.5
21834.9
23751.5
27915.2
32115.9
35669.1
38043.6
39643.4
40905.7
42047
43088.3
22983.9
17750.4
21077.2
24920.8
30036.2
34372
37688.9
39915.7
41464.2
42703
43840.8
44944.8
22236.6
17504.2
23157.1
29654.5
36311.8
41009
44139.1
46086.2
47342.1
48299.6
49154.9
50017.7
23404.4
21256.7
34340.8
45432.7
53692.4
58103.1
60146.3
60751.2
60641.5
60301.8
59975.9
59758.2
27662.2
40726.3
69285.6
85547.4
92354.6
92920.5
90374.1
86733.4
82955.8
79510.7
76577.5
74174.8
131648
133884
148592
151942
147244
137535
127277
117665
109140
101810
95653.7
90541.6
91184.9
93227.2
93345.5
92982.5
90103.4
85037.8
77547.9
67643
55503.7
42265.4
27340
35009.9
62222.3
62956.7
63104.1
62885.5
62873.3
63864.2
66577.5
71293.3
77641.2
85371.8
90385.3
109709
52058.6
52496.1
52557.2
52542.9
53102.5
54899.4
58645.2
65222.6
75926.7
92155.2
116158
166772
47319.9
47779.3
48070.6
48372.1
49166.7
51084.6
54955.6
61923.9
73865.6
94289.5
131916
211098
44931.5
45463.2
45865.3
46358
47335.5
49358.2
53255.8
60260.3
72562.2
94890.6
141027
246713
43813.1
44515
45134.6
45861
47014.4
49117.8
52993.6
59954.4
72381.6
95453.7
146944
280154
44052.9
44948.8
45824.7
46808.6
48149
50311
54083.8
60814.4
73042.5
96274.7
150540
311800
46036.6
47116.5
48204.1
49366.6
50809.5
52939.4
56501
62862.5
74724
97954.7
154042
350607
50918.6
51853.2
52826.4
53887.7
55196
57088
60236
65997.8
77215.1
100117
157801
394636
59725.8
59856.4
60150.3
60644
61417.9
62755.5
65209.6
70052
80193.8
102122
161070
441120
72276.9
70838.5
69810.2
69177.7
69082.9
69617.5
71026.1
74551.2
82949
103478
164175
496351
86333.9
82942.8
80256.1
78198.3
76744.5
76077
76469.7
78325.2
84291.1
102526
165166
570271
3820.51
3176.01
3471.56
3414.6
3069.94
2667.5
3235.05
11914.8
40735.3
57816.9
66103.7
73053.4
10306.9
8493.2
6470.19
6076.55
8158.57
19146.6
29583
31798.1
43029.7
48145.8
50455.6
52370.2
15112.9
11143
12769
17511.8
22919.4
24884.4
28810.4
33103.7
38384.7
40349.3
42489.6
44091.7
20837.9
16113.9
17498.6
18514
21674.7
24450.9
28925.2
32949.2
35904.1
37495.7
39074.4
40271.2
22969.8
18566.8
19133
18993.9
21884.9
25240.4
29661.5
32991.3
35076.8
36375.2
37546.6
38459.3
23507.8
18906.7
19525.6
19820.3
22945.6
26827.2
30607.6
33229.5
34839.6
35878.7
36797.3
37590.7
22045.3
17423.8
18756.2
20469.8
24300.5
28263
31653.3
33931.2
35313.2
36278.4
37120.9
37895
20975.7
15793.5
18571
22064
26944.6
31084.3
34216.2
36231.6
37469
38346.8
39111.7
39862.6
20715.2
15997.3
20937
27204
33663.3
38167
41035.8
42641.1
43496.6
44007.1
44414
44859.9
22082.8
19768.3
32010.6
42817.1
50916.5
55180.9
56879.8
57011.3
56418.4
55581.5
54756
54109.9
25995.5
38096.8
65364.5
81345.5
88044.8
88313.1
85417.7
81372.8
77213.7
73416.8
70161.4
67501.8
121058
126450
141260
144465
139605
129491
118939
109143
100544
93242.2
87172.5
82211
76903.6
79310.5
79630.7
79563.2
77981.2
73886.9
67932.5
59669.2
49431
37850.5
24556.3
31128.7
53575.3
54463.7
54898.2
55140.8
55544.1
56735.8
59439.5
63885
69904.5
77219.8
81642.7
98657
45068.1
45629.3
45923.6
46230.5
46973.5
48833.2
52475.5
58734.4
68750
83789.1
105320
151041
41073.2
41634.1
42041.2
42494.7
43390.5
45324.4
49098.5
55760.9
67022.9
86018.2
120476
191167
39121.8
39641.7
40072.5
40609.7
41609.3
43595.1
47354.5
54039
65692.2
86675.8
129427
223869
38263.8
38855.2
39411.1
40097
41213.2
43244.2
46964
53603.6
65389.5
87135.5
135150
254427
38621.7
39327.3
40053.8
40918.7
42153
44187.6
47762
54139.4
65709.5
87612.2
138551
283504
40629.2
41426.6
42281.6
43260.8
44545.8
46510.6
49849.3
55841
67020.1
88841.6
141470
318717
45365.9
45947.2
46635.4
47480.1
48614.7
50335.1
53266.4
58676.4
69227.7
90740.1
144846
360293
53686.3
53501
53567.4
53881.6
54533.5
55730.4
58018.5
62586.6
72160.5
92951.2
148076
405093
65402
63810.2
62680
61985.4
61873.3
62416.6
63812
67239.1
75396.3
94882.5
151819
460697
78198.3
74996.1
72489.9
70611.9
69349.1
68972.9
69632.1
71787.1
77808.3
95535.5
155118
540709
216612
208512
195260
182937
170839
158740
147194
136325
126345
117440
109677
102964
140293
145284
146957
146707
145057
142164
137982
131977
125168
118460
112058
105954
100046
104308
107761
110554
112668
113847
113607
112196
109944
106958
103150
98631.5
79049.7
82045.5
84576.4
86749.4
88601.6
90069.8
90793.1
90511.2
89506.6
87806.5
85553.4
82869
97211.6
92345.8
88273.7
84912.3
82164.7
80091.9
79052.8
79604.7
82579.6
93168.8
125548
244927
100296
95193.8
90669.2
86684.8
83168.1
80217
77868.4
76836.3
77381.4
81297.7
93916.3
128151
94173.2
89815
85599.4
81494.8
77583.3
74032.7
71024.9
68856.7
68132
68949.5
73584.1
85338.2
79693.7
76100.3
72223.9
68121.2
64328.4
61039.6
58512.2
56801.3
56393.8
56805.6
59492.4
64585.9
220204
204113
186613
171933
158590
145850
134097
123361
113812
105533
98482
92559.7
136252
136744
134875
132247
129079
125410
120896
115175
109263
103659
98511.7
93888.7
90503.3
92968.6
94244.7
95082.2
95676.7
95854.5
95496.9
94530.4
92970.3
91176.6
89064.9
86664.7
67696.5
69714.2
71162
72319
73361.2
74338.8
75141.8
75652.4
75578.8
75138.8
74321.6
73080.6
87604.3
83462.8
80011.4
77213.5
75041.6
73583.3
73346.4
74374.9
78025
89291.2
121900
234550
89662.5
85823.7
82367.2
79347.8
76797.1
74845.8
73740.2
73970.9
75707
81136.4
95757.6
131161
83878.4
81046.8
78206.8
75476.7
72960.2
70859
69313.7
68877.8
69763
72346.5
79717.1
93954.9
71347.3
69277.6
66910.8
64423.1
62042
60025.5
58668.5
58346.2
59699.5
61898.6
67154.9
74801.1
216610
208508
195258
182937
170841
158742
147197
136327
126347
117441
109678
102964
140291
145280
146955
146705
145056
142164
137982
131978
125169
118461
112059
105955
100045
104306
107759
110552
112667
113846
113607
112196
109944
106959
103150
98632.1
79049.2
82044.7
84575.2
86748
88600.2
90068.6
90792.3
90510.7
89506.4
87806.5
85553.5
82869.3
97211.4
92345.3
88273
84911.5
82163.7
80090.8
79051.5
79603.3
82578
93166.6
125544
244918
100296
95194
90669.3
86684.8
83167.9
80216.7
77868
76835.7
77380.7
81296.5
93914.4
128147
94173.8
89815.6
85600
81495.3
77583.7
74033
71025.1
68856.6
68131.8
68949
73583.1
85336.5
79694.3
76101
72224.6
68121.9
64328.9
61039.9
58512.3
56801.2
56393.5
56805.1
59491.6
64584.7
220197
204108
186609
171929
158586
145846
134094
123358
113809
105531
98479.9
92557.9
136248
136740
134872
132245
129076
125407
120893
115172
109260
103657
98509.8
93886.9
90501.1
92966.4
94242.6
95080.2
95674.8
95852.7
95495.1
94528.6
92968.5
91174.8
89063.1
86663
67695
69712.6
71160.5
72317.6
73359.9
74337.5
75140.6
75651
75577.5
75137.4
74320.1
73079
87602.7
83461.5
80010.3
77212.6
75040.9
73582.7
73346.1
74374.6
78025
89291.5
121901
234552
89660.8
85822.3
82365.9
79346.7
76796.2
74845.1
73739.7
73970.4
75706.7
81136.3
95757.8
131162
83876.7
81045.3
78205.4
75475.5
72959.2
70858.1
69313
68877.1
69762.5
72346.1
79717
93955.3
71345.8
69276.3
66909.6
64422
62041
60024.7
58667.8
58345.7
59699.1
61898.4
67154.8
74801.5
65234.3
66546.6
67659.8
68527.3
69144.6
69401.2
69077.3
68038.6
66406
64268.1
61772.5
58982.7
50039.7
50499.5
50808.5
50948.3
50897
50535.8
49742.8
48459.1
46753.2
44777.9
42776.4
40835.1
37380.2
37481.6
37410.9
37194.8
36814.7
36189.5
35244.5
33957.4
32406
30826.6
29699.2
29390
27719.9
27688.8
27459.9
27097
26590.8
25888.9
24945.8
23758.1
22411.5
21209.8
21076.3
24090.9
55911.1
52725.1
49831.5
47548.8
46010.4
45250.7
45267
45990.9
47511.7
49529
52546.2
54814.1
38576.7
36233.7
34789.4
34273.9
34466.5
35300.3
36642
38395.2
40517.8
42737.4
44588.8
45553.1
28203.5
25749.3
25141.3
25619.1
26731.6
28281.6
30132.5
32162.2
34171.6
35766.4
36800.1
36920.3
24354.3
19216.2
18754.1
19643.8
21092.3
22837.8
24737.5
26640.8
28204
29255.5
29710.9
29245.3
55842.1
56520.5
57056
57478.7
57858.3
58153
58237.6
57954.7
57226.3
56251.8
55076.4
53469.6
45282
44869.7
44452.9
43978.6
43467.4
42856.7
42041.2
40960.7
39653
38360.1
37255.5
36095.1
35896.7
34803.8
33726.5
32630.2
31520.8
30355
29066.7
27654.6
26210.6
24976.4
24329.3
24225.2
27897
26478
25077.3
23696.1
22340.8
20986.8
19595.5
18177.4
16813.4
15728.7
15619.5
17809.4
51092.6
48278.9
45817.7
43891.3
42687.2
42454.3
43429.7
45746.9
49545.5
53991.1
59549.2
63520.2
34039.1
31183.3
29102.4
27870
27534.6
28248.2
30145
33273.2
37523.3
42243.3
46614.7
49190.9
23036.5
19924.3
18246.7
17562.8
17722.1
18781
20819.2
23844.3
27674.1
31751.6
35009.6
36847
17990.6
12991.1
11557.5
11235.7
11612.2
12689.9
14523.3
17105.6
20257.5
23509.7
25949.1
27321
65233.6
66545.5
67658.5
68526
69143.4
69400.2
69076.6
68038.1
66405.7
64268.1
61772.5
58982.9
50038.6
50498
50807
50946.9
50895.7
50534.7
49742
48458.4
46752.6
44777.4
42775.9
40834.8
37378.7
37479.9
37409.3
37193.3
36813.4
36188.3
35243.5
33956.5
32405.2
30825.8
29698.3
29389.1
27718.2
27687.1
27458.2
27095.5
26589.5
25887.7
24944.7
23757.1
22410.5
21208.8
21075.1
24089.5
55911.3
52725.3
49831.5
47548.6
46010
45250.2
45266.4
45990.3
47511
49528.2
52545.3
54813
38576.4
36233.3
34788.8
34273.1
34465.7
35299.4
36641.1
38394.2
40516.9
42736.4
44587.8
45552.2
28202.6
25748.4
25140.3
25618.1
26730.5
28280.5
30131.4
32161.2
34170.6
35765.4
36799.2
36919.5
24352.9
19215.2
18753.1
19642.7
21091.2
22836.6
24736.4
26639.8
28203
29254.6
29710.1
29244.7
55841
56519.4
57055
57477.8
57857.5
58152.2
58236.8
57953.8
57225.3
56250.7
55075.4
53468.6
45281.2
44869
44452.4
43978.2
43467.1
42856.3
42040.9
40960.4
39652.6
38359.7
37255.2
36094.9
35896.1
34803.4
33726.3
32630.2
31520.8
30355.1
29066.9
27654.8
26210.8
24976.7
24329.7
24225.8
27896.6
26477.8
25077.4
23696.4
22341.2
20987.4
19596.1
18178.1
16814.1
15729.4
15620.4
17810.8
51091.8
48278.4
45817.4
43891.2
42687.3
42454.5
43429.9
45747.1
49545.7
53991.4
59549.7
63521
34039.1
31183.8
29103.2
27871.1
27535.8
28249.4
30146.1
33274.1
37524.1
42244.1
46615.7
49192.1
23037.4
19925.6
18248.4
17564.7
17724
18782.9
20820.8
23845.8
27675.4
31752.8
35011
36848.5
17992.5
12993.1
11559.7
11238.1
11614.6
12692.2
14525.3
17107.3
20259
23511.2
25950.7
27322.7
20578.1
20507.6
20234
19833
19305.8
18620.1
17747.7
16690.3
15512.8
14504
14953
30854.4
15348.4
15275.9
15009
14622.2
14124.4
13496.7
12721
11797.1
10758.8
9709.45
8888.64
9042.51
11520.9
11458
11218.1
10867.8
10420.4
9865.84
9192.02
8396.51
7489.21
6482.76
5350.06
4324.05
8711.44
8659.13
8451.11
8144.14
7752.92
7272.92
6696.47
6020.46
5245.1
4360.98
3341.02
2665.76
6641.59
6597.36
6419.56
6154.93
5817.9
5407.41
4918.98
4350.58
3701.47
2966.85
2157.04
1746.63
5113.31
5074.04
4922.12
4695.34
4406.88
4057.75
3645.82
3170.85
2634.56
2041.73
1424.43
1143.62
3987.06
3950.11
3819.04
3624.16
3377.04
3079.84
2732.02
2335
1893.46
1419.23
950.586
727.182
3166.97
3130.31
3014.96
2845.39
2631.62
2376.34
2079.99
1745.02
1378.23
995.359
633.557
435.765
2593.58
2555.42
2450.39
2298.77
2109.36
1885.15
1626.97
1337.61
1024.93
706.528
417.576
236.447
2252.73
2210.51
2108.64
1964.9
1787.63
1580.37
1343.81
1080.41
799.031
517.193
271.998
109.945
2266.41
2212.9
2097.75
1938.87
1746.44
1526.11
1277.63
1002.07
712.11
425.767
186.618
39.5277
4111.62
3990.03
3749.13
3434.78
3057.65
2642.5
2186.57
1682.05
1150.79
642.433
232.746
13.974
34705.5
14906.2
14258.1
15288.4
16772.1
18446.9
20180.3
21743.5
22872.8
23526.6
23575.3
22793.2
14782.5
10576.9
10878.3
11992.2
13378.7
14865.9
16332.4
17532.4
18329.3
18684.5
18467
17586.9
9092.78
7623.3
8354.09
9450.28
10683.7
11949.2
13126.3
14019.1
14564
14708.1
14354.2
13505.5
6384.96
5629.18
6459.78
7470.59
8534.57
9581.1
10499.7
11154
11510.6
11517.6
11122.5
10370.9
4674.44
4233.13
5024.67
5920.15
6820.6
7670.52
8378.52
8857.48
9078
9005.37
8627.65
7999.28
3456.97
3217.51
3926.11
4702.96
5458.17
6143.61
6690.57
7041.26
7168.19
7059.49
6731.17
6224.89
2534.62
2455.67
3079.14
3749.88
4384.52
4941.13
5368.83
5627.1
5695.25
5580.13
5310.08
4909.36
1812.3
1872.85
2427.24
3013.66
3555.34
4016.71
4359.59
4555.44
4589.68
4483.36
4267.08
3950.06
1247.11
1423.18
1938.4
2468.67
2947.45
3345.17
3632.72
3789.24
3805.46
3712.67
3537.71
3280.01
789.141
1086.09
1608.4
2123.72
2577.6
2946.21
3206.73
3341.28
3347.51
3265.22
3109.4
2887.81
419.355
890.095
1524.6
2118.88
2624.52
3025.41
3301.81
3429
3424.32
3323.37
3154.43
2929.18
201.943
1270.74
2657.21
3882.12
4904.5
5694.53
6202.14
6424.76
6343.06
6082.32
5704.16
5244.92
21381.5
19894
18432.1
17020.9
15669.3
14360.9
13071
11799.1
10582
9553.62
9471.49
18039.6
16263.2
14869.7
13509
12216.4
11001
9850.56
8744.07
7667.51
6615.63
5586.5
4563.84
3382.85
12345.9
11129.1
9947.98
8838.48
7808.87
6848.84
5939.19
5059.01
4185.51
3276.21
2247.01
1145.9
9400.54
8385.91
7405.1
6489.81
5647.02
4868.25
4136.82
3431.63
2729.35
1993.49
1214.88
611.088
7211.33
6389.48
5596.68
4858.34
4180.4
3556.48
2973.33
2413
1858.15
1285.07
736.759
406.726
5595.47
4940.82
4308.59
3718.43
3175.73
2676.33
2210.57
1764.45
1327.22
883.853
496.813
286.395
4410.61
3892.19
3388.77
2915.94
2479.01
2075.85
1700.01
1340.95
993.13
645.026
360.731
214.802
3553.66
3140.42
2734.95
2350.62
1993.03
1661.67
1352.64
1057.93
775.78
494.904
274.631
156.373
2959.66
2621.8
2285.44
1963.33
1661.48
1380.6
1118.54
868.951
632.746
397.282
216.447
109.877
2617.48
2324.79
2027.75
1740.65
1470.17
1217.91
982.672
758.916
549.37
339.719
178.072
69.3512
2657.18
2360.77
2055.59
1759.99
1481.52
1222.42
981.415
753.5
542.792
330.408
167.388
36.5299
4717.48
4163.1
3601.58
3070.28
2572.58
2110.58
1682.68
1278.17
911.695
521.166
256.897
47.7424
22994.2
8675.06
7438.33
7360.34
7800.86
8760.62
10284
12362.9
14846.5
17356
19202.2
20253
7699.08
5179.53
4837.82
4946.63
5383.23
6188.54
7406.5
9031.63
10945.3
12857.6
14262.8
15076.9
3719.99
3166.54
3215
3415.64
3815.3
4473.25
5430.07
6682.82
8141.5
9591.88
10663.1
11295.2
2140.57
2016.65
2192.19
2420.83
2773.27
3306.54
4054.68
5015.93
6123.29
7221.73
8037.8
8526.93
1320.43
1328.84
1530.81
1756.4
2063.13
2497.3
3084.95
3824.15
4665.3
5497.45
6117.9
6494.09
837.883
894.678
1089.05
1299.73
1567.28
1925.67
2393.02
2966.24
3608.22
4239.98
4710.92
4998.2
524.471
606.587
784.332
977.496
1213.59
1515.69
1894.91
2346.32
2841.2
3323.43
3681.3
3899.41
311.795
408.638
569.032
745.895
957.789
1219.27
1535.87
1900.51
2289.21
2661.58
2936.17
3101.71
170.276
271.137
416.25
579.745
773.894
1007.48
1282.56
1589.69
1906.06
2200.76
2417.94
2545.72
82.5947
178.293
313.245
469.682
654.402
873.809
1130.19
1410.65
1684.82
1926.9
2111.28
2217.37
33.1071
125.084
266.297
430.693
618.514
840.639
1107.72
1407.66
1693.37
1933.32
2122.23
2236.75
13.4428
176.216
441.821
705.715
974.814
1306.6
1758.47
2328.1
2896.54
3394.22
3795.56
4045.54
20576.4
20505.9
20232.4
19831.5
19304.4
18618.9
17746.6
16689.2
15511.8
14502.9
14951.6
30851.3
15346.7
15274.2
15007.4
14620.7
14123.1
13495.5
12719.8
11796.1
10757.8
9708.37
8887.45
9040.76
11519.2
11456.3
11216.5
10866.4
10419.1
9864.61
9190.87
8395.42
7488.15
6481.72
5348.98
4322.54
8709.71
8657.45
8449.54
8142.68
7751.57
7271.66
6695.29
6019.34
5244.03
4359.94
3339.99
2664.27
6639.86
6595.68
6417.97
6153.44
5816.5
5406.1
4917.74
4349.41
3700.36
2965.81
2156.03
1745.14
5111.56
5072.34
4920.51
4693.82
4405.44
4056.38
3644.51
3169.61
2633.4
2040.66
1423.43
1142.18
3985.29
3948.39
3817.39
3622.58
3375.53
3078.39
2730.64
2333.69
1892.24
1418.14
949.609
725.851
3165.17
3128.55
3013.26
2843.75
2630.04
2374.82
2078.53
1743.63
1376.95
994.24
632.624
434.63
2591.73
2553.61
2448.64
2297.08
2107.71
1883.56
1625.43
1336.15
1023.59
705.385
416.702
235.596
2250.78
2208.62
2106.8
1963.1
1785.88
1578.67
1342.17
1078.85
797.605
516.009
271.186
109.437
2264.16
2210.73
2095.64
1936.81
1744.44
1524.17
1275.76
1000.3
710.499
424.462
185.825
39.3281
4107.5
3986.08
3745.34
3431.13
3054.14
2639.12
2183.36
1679.05
1148.09
640.273
231.512
13.9324
34702.7
14905
14257.1
15287.3
16771
18445.8
20179.2
21742.5
22871.9
23525.7
23574.6
22792.7
14780.7
10575.9
10877.3
11991.2
13377.6
14864.8
16331.3
17531.5
18328.4
18683.7
18466.4
17586.6
9091.44
7622.4
8353.21
9449.37
10682.8
11948.2
13125.4
14018.3
14563.2
14707.5
14353.7
13505.4
6383.93
5628.44
6459.03
7469.79
8533.75
9580.27
10498.9
11153.3
11510
11517.2
11122.3
10370.9
4673.67
4232.53
5024.03
5919.48
6819.9
7669.81
8377.86
8856.9
9077.52
9005.04
8627.5
7999.34
3456.4
3217.04
3925.59
4702.4
5457.58
6143.03
6690.03
7040.81
7167.85
7059.28
6731.13
6225.05
2534.23
2455.32
3078.73
3749.43
4384.04
4940.66
5368.41
5626.76
5695.02
5580.03
5310.13
4909.6
1812.05
1872.6
2426.93
3013.31
3554.96
4016.34
4359.27
4555.21
4589.56
4483.36
4267.21
3950.36
1246.97
1423.01
1938.19
2468.4
2947.16
3344.89
3632.49
3789.09
3805.43
3712.75
3537.9
3280.37
789.097
1086
1608.25
2123.52
2577.37
2945.99
3206.56
3341.19
3347.54
3265.36
3109.67
2888.23
419.365
890.065
1524.49
2118.7
2624.3
3025.2
3301.64
3428.95
3424.4
3323.57
3154.77
2929.69
201.978
1270.72
2657.01
3881.76
4904.06
5694.1
6201.8
6424.67
6343.18
6082.71
5704.79
5245.86
21381.3
19894.1
18432.4
17021.4
15670
14361.7
13071.9
11800.1
10583
9554.66
9472.77
18042.8
16263.2
14869.9
13509.5
12217.1
11001.9
9851.59
8745.21
7668.7
6616.86
5587.75
4565.29
3385.64
12346
11129.4
9948.59
8839.3
7809.88
6850.01
5940.47
5060.37
4186.89
3277.6
2248.51
1148.19
9400.75
8386.37
7405.8
6490.73
5648.12
4869.5
4138.2
3433.08
2730.81
1994.94
1216.33
613.029
7211.64
6390.02
5597.44
4859.31
4181.55
3557.79
2974.76
2414.49
1859.66
1286.52
738.104
408.323
5595.86
4941.42
4309.4
3719.44
3176.92
2677.67
2212.03
1765.97
1328.73
885.281
498.04
287.726
4411.06
3892.85
3389.62
2916.97
2480.22
2077.21
1701.49
1342.48
994.638
646.414
361.851
215.872
3554.17
3141.12
2735.82
2351.68
1994.26
1663.05
1354.13
1059.48
777.288
496.259
275.662
157.206
2960.22
2622.53
2286.35
1964.41
1662.72
1381.99
1120.04
870.513
634.266
398.62
217.407
110.483
2618.08
2325.56
2028.7
1741.76
1471.45
1219.35
984.23
760.536
550.943
341.09
178.998
69.7444
2657.88
2361.65
2056.66
1761.23
1482.95
1224.02
983.145
755.29
544.512
331.895
168.346
36.7321
4718.76
4164.67
3603.48
3072.38
2575.01
2113.27
1685.57
1281.12
914.411
523.503
258.399
47.9546
22998.5
8677.44
7440.82
7362.98
7803.51
8763.1
10286.2
12364.9
14848.3
17357.7
19203.9
20254.7
7703.2
5182.08
4840.44
4949.39
5385.98
6191.13
7408.84
9033.71
10947.2
12859.4
14264.5
15078.7
3723.91
3169.09
3217.63
3418.41
3818.06
4475.88
5432.46
6684.96
8143.43
9593.69
10664.9
11297
2144.21
2019.1
2194.74
2423.54
2776
3309.15
4057.09
5018.11
6125.26
7223.57
8039.59
8528.69
1323.74
1331.14
1533.26
1759.02
2065.8
2499.87
3087.34
3826.34
4667.3
5499.31
6119.7
6495.86
840.778
896.802
1091.35
1302.25
1569.86
1928.18
2395.38
2968.42
3610.22
4241.86
4712.74
4999.98
526.929
608.504
786.496
979.908
1216.09
1518.14
1897.22
2348.48
2843.21
3325.32
3683.14
3901.21
313.736
410.324
571.053
748.213
960.225
1221.66
1538.14
1902.63
2291.21
2663.49
2938.02
3103.54
171.621
272.582
418.144
581.992
776.281
1009.83
1284.79
1591.8
1908.06
2202.68
2419.82
2547.58
83.3484
179.521
315.068
471.934
656.815
876.191
1132.47
1412.78
1686.86
1928.88
2113.23
2219.31
33.4
126.204
268.225
433.128
621.114
843.204
1110.2
1410
1695.62
1935.56
2124.45
2238.94
13.5066
178.016
445.142
709.732
978.974
1310.71
1762.57
2332.01
2900.38
3398.18
3799.56
4049.51
)
;

boundaryField
{
    rotor
    {
        type            epsilonWallFunction;
        blending        stepwise;
        value           nonuniform List<scalar> 
192
(
4234.34
3449.56
3726.33
3648.2
3181.02
2914.85
4624.22
25750.5
55827.2
70828.6
80137.1
87205.6
91194.5
93235.8
93354
92990.1
90110.1
85043.4
77552.8
67646.7
55506.7
42267.3
27341
35011.2
3819.99
3175.66
3471.24
3414.27
3069.66
2667.22
3234.55
11911.1
40731.3
57814.2
66101.4
73051.2
76901.6
79308.6
79629
79561.5
77980
73885.6
67931.5
59668.3
49430.3
37849.9
24555.9
31128.1
4233.32
3448.9
3725.52
3647.41
3180.41
2914.16
4621.36
25730.8
55813.3
70818.9
80126.4
87195.9
91184.9
93227.2
93345.5
92982.5
90103.4
85037.8
77547.9
67643
55503.7
42265.4
27340
35009.9
3820.51
3176.01
3471.56
3414.6
3069.94
2667.5
3235.05
11914.8
40735.3
57816.9
66103.7
73053.4
76903.6
79310.5
79630.7
79563.2
77981.2
73886.9
67932.5
59669.2
49431
37850.5
24556.3
31128.7
4234.34
11476.3
17148.1
23931.4
26341.7
26980.2
24728.9
22985.7
22236.9
23403.2
27659.7
131649
31128.7
98657
151041
191167
223869
254427
283504
318717
360293
405093
460697
540709
3819.99
10305.5
15110.9
20835.1
22966.9
23505.1
22043.8
20975
20715.6
22084
25997.6
121062
35011.2
109714
166779
211108
246724
280167
311815
350624
394655
441141
496373
570295
4233.32
11473.6
17144.4
23926.3
26336.4
26974.9
24725
22983.9
22236.6
23404.4
27662.2
131648
31128.1
98655.4
151039
191164
223865
254423
283500
318713
360288
405087
460690
540700
3820.51
10306.9
15112.9
20837.9
22969.8
23507.8
22045.3
20975.7
20715.2
22082.8
25995.5
121058
35009.9
109709
166772
211098
246713
280154
311800
350607
394636
441120
496351
570271
)
;
    }
    stator
    {
        type            epsilonWallFunction;
        blending        stepwise;
        value           nonuniform List<scalar> 
192
(
4111.62
3990.03
3749.13
3434.78
3057.65
2642.5
2186.57
1682.05
1150.79
642.433
232.746
13.974
201.943
1270.74
2657.21
3882.12
4904.5
5694.53
6202.14
6424.76
6343.06
6082.32
5704.16
5244.92
4717.48
4163.1
3601.58
3070.28
2572.58
2110.58
1682.68
1278.17
911.695
521.166
256.897
47.7424
13.4428
176.216
441.821
705.715
974.814
1306.6
1758.47
2328.1
2896.54
3394.22
3795.56
4045.54
4107.5
3986.08
3745.34
3431.13
3054.14
2639.12
2183.36
1679.05
1148.09
640.273
231.512
13.9324
201.978
1270.72
2657.01
3881.76
4904.06
5694.1
6201.8
6424.67
6343.18
6082.71
5704.79
5245.86
4718.76
4164.67
3603.48
3072.38
2575.01
2113.27
1685.57
1281.12
914.411
523.503
258.399
47.9546
13.5066
178.016
445.142
709.732
978.974
1310.71
1762.57
2332.01
2900.38
3398.18
3799.56
4049.51
34705.5
14782.5
9092.78
6384.96
4674.44
3456.97
2534.62
1812.3
1247.11
789.141
419.355
201.943
30854.4
9042.51
4324.05
2665.76
1746.63
1143.62
727.182
435.765
236.447
109.945
39.5277
13.974
22994.2
7699.08
3719.99
2140.57
1320.43
837.883
524.471
311.795
170.276
82.5947
33.1071
13.4428
18039.6
3382.85
1145.9
611.088
406.726
286.395
214.802
156.373
109.877
69.3512
36.5299
47.7424
34702.7
14780.7
9091.44
6383.93
4673.67
3456.4
2534.23
1812.05
1246.97
789.097
419.365
201.978
30851.3
9040.76
4322.54
2664.27
1745.14
1142.18
725.851
434.63
235.596
109.437
39.3281
13.9324
22998.5
7703.2
3723.91
2144.21
1323.74
840.778
526.929
313.736
171.621
83.3484
33.4
13.5066
18042.8
3385.64
1148.19
613.029
408.323
287.726
215.872
157.206
110.483
69.7444
36.7321
47.9546
)
;
    }
    front
    {
        type            empty;
    }
    back
    {
        type            empty;
    }
}


// ************************************************************************* //
