/*--------------------------------*- C++ -*----------------------------------*\
| =========                 |                                                 |
| \\      /  F ield         | OpenFOAM: The Open Source CFD Toolbox           |
|  \\    /   O peration     | Version:  2212                                  |
|   \\  /    A nd           | Website:  www.openfoam.com                      |
|    \\/     M anipulation  |                                                 |
\*---------------------------------------------------------------------------*/
FoamFile
{
    version     2.0;
    format      ascii;
    arch        "LSB;label=32;scalar=64";
    class       volScalarField;
    location    "0.02";
    object      k;
}
// * * * * * * * * * * * * * * * * * * * * * * * * * * * * * * * * * * * * * //

dimensions      [0 2 -2 0 0 0 0];

internalField   nonuniform List<scalar> 
3072
(
3.77758
4.93229
5.19239
5.1195
4.67273
4.408
5.99079
18.8161
31.5592
36.9963
40.1709
42.5022
7.90791
11.3593
11.4882
10.7994
10.0918
15.633
24.8715
31.1793
44.0002
54.1831
65.0476
74.8606
11.0486
18.2919
21.32
22.2203
22.9476
28.6955
39.0569
50.9329
64.5825
76.297
86.7559
95.3399
14.6595
25.6684
26.0785
25.7285
30.7307
41.452
54.4723
67.3336
79.3373
89.6978
98.6177
105.833
16.5207
31.2277
32.7214
33.0556
41.5548
53.6638
66.6039
78.6279
89.1197
98.1886
106.011
112.434
17.6699
35.1507
38.7346
41.3204
51.0008
63.1085
75.2998
86.1079
95.3958
103.504
110.608
116.655
17.4875
35.6192
41.7911
47.7761
58.6392
70.6305
82.0092
91.924
100.424
107.869
114.472
120.262
17.4166
36.1913
45.0657
54.7333
67.2952
79.3138
90.0189
99.1038
106.818
113.548
119.556
124.931
17.7648
38.2376
52.5984
67.1268
81.8051
93.7702
103.389
111.101
117.45
122.924
127.833
132.312
19.1194
45.1662
70.5453
91.1656
107.01
117.791
125.166
130.42
134.382
137.7
140.712
143.562
22.1815
61.7323
105.548
130.823
144.802
152.015
155.401
156.915
157.365
157.628
157.952
158.438
64.9834
113.185
160.585
180.564
187.525
188.868
187.326
184.653
181.616
178.712
176.188
174.107
43.7892
44.4418
44.4795
44.3649
43.4447
41.8013
39.3094
35.887
31.4536
26.2291
19.6183
15.4574
82.9848
88.8246
92.0105
92.3415
91.0211
88.7602
85.7528
81.5356
74.717
61.1356
43.3915
35.643
101.649
105.689
107.409
107.563
106.773
105.498
103.944
101.764
97.824
88.9981
66.6758
50.368
111.313
115.095
117.284
118.256
118.471
118.429
118.449
118.386
117.17
111.962
93.1729
62.6179
117.532
121.322
123.901
125.556
126.714
127.882
129.497
131.554
132.905
131.068
116.721
73.4429
121.676
125.675
128.746
131.139
133.266
135.654
138.791
142.833
147.087
148.541
139.457
84.1422
125.258
129.469
132.978
136.008
138.949
142.345
146.792
152.649
159.44
164.188
160.026
94.7704
129.709
133.908
137.602
140.984
144.411
148.445
153.817
161.183
170.437
178.422
177.617
107.135
136.406
140.139
143.562
146.834
150.268
154.414
160.126
168.447
179.925
191.477
193.126
120.857
146.291
148.914
151.446
154.019
156.886
160.531
165.844
174.245
187.202
202.841
209.324
135.375
159.111
159.971
160.969
162.266
164.031
166.615
170.806
177.996
190.721
210.103
226.73
151.976
172.47
171.299
170.555
170.37
170.735
171.746
174.097
179.31
190.171
211.802
242.728
172.665
3.5264
4.66706
4.95282
4.8983
4.56307
4.15456
4.72271
11.2486
25.5722
32.3105
35.3321
37.7682
7.35904
10.6295
10.7909
10.2747
9.58012
12.863
21.8144
25.2828
36.1966
45.6285
55.4465
64.4857
10.152
16.3297
19.0983
20.519
21.9829
23.8919
32.0571
41.7812
54.3741
65.2876
75.1956
83.4255
13.361
23.2698
23.7877
23.0657
25.9956
33.4745
45.3097
57.1751
68.5952
78.2999
86.7307
93.6578
15.0725
27.8463
28.5344
28.1984
34.402
45.15
57.2154
68.569
78.548
86.9637
94.233
100.272
16.1136
31.5024
34.088
35.6433
43.9049
55.0612
66.4857
76.6735
85.3146
92.6867
99.1126
104.606
16.1961
32.4008
37.4515
42.4885
52.386
63.5395
74.1166
83.2751
90.9798
97.5635
103.344
108.418
16.384
33.5486
41.3375
50.4202
62.1593
73.2895
83.0641
91.2105
97.9554
103.687
108.74
113.266
16.9451
36.2086
49.5324
63.432
77.2659
88.2933
96.8943
103.539
108.805
113.195
117.078
120.641
18.395
43.3686
67.3148
86.7688
101.763
111.653
118.043
122.23
125.153
127.44
129.487
131.489
21.2853
58.9442
100.111
124.22
137.334
143.693
146.18
146.701
146.379
145.842
145.436
145.38
61.4504
107.129
151.87
170.677
176.439
176.674
174.305
170.974
167.492
164.278
161.549
159.417
39.0855
39.8975
40.0059
39.9834
39.4533
38.0599
35.9876
33.0066
29.1145
24.3682
18.2624
14.2922
72.3994
78.4849
81.9671
82.9285
82.0792
80.3791
77.9353
74.413
68.4268
56.3078
40.2251
33.2059
89.772
94.0532
96.2129
96.7456
96.4047
95.624
94.6063
93.0118
89.8024
82.0344
61.6359
47.1472
99.0009
102.852
105.257
106.529
107.112
107.473
107.977
108.404
107.852
103.598
86.471
58.6096
105.074
108.754
111.369
113.168
114.552
116.008
117.984
120.491
122.33
121.332
108.536
68.8339
109.186
112.913
115.853
118.231
120.432
122.964
126.322
130.676
135.406
137.567
129.998
78.906
112.827
116.609
119.835
122.703
125.577
128.98
133.503
139.518
146.629
152.031
149.415
88.9432
117.335
120.983
124.275
127.379
130.628
134.557
139.879
147.248
156.637
165.164
166.079
100.532
123.97
127.097
130.064
133.005
136.205
140.186
145.77
153.975
165.399
177.283
180.669
113.736
133.531
135.612
137.748
140.032
142.695
146.194
151.387
159.647
172.536
188.211
196.249
127.896
145.641
146.204
147.043
148.21
149.908
152.462
156.659
164.023
176.714
196.319
213.948
144.603
157.86
156.829
156.288
156.354
156.956
158.266
160.964
166.45
177.575
199.57
231.91
166.64
3.77698
4.93167
5.19165
5.11877
4.67215
4.40732
5.98831
18.8064
31.554
36.9929
40.1673
42.4991
7.90671
11.3576
11.4863
10.7974
10.0911
15.6313
24.8692
31.1728
43.9932
54.175
65.0393
74.8519
11.047
18.2882
21.3173
22.2211
22.9491
28.6908
39.0495
50.9237
64.573
76.287
86.746
95.33
14.6575
25.6662
26.0773
25.7269
30.7247
41.4426
54.4623
67.3236
79.3274
89.6877
98.6076
105.823
16.5184
31.223
32.7155
33.0484
41.5449
53.6534
66.5935
78.618
89.11
98.1788
106.002
112.424
17.6676
35.1456
38.7275
41.3112
50.9906
63.0985
75.2901
86.0987
95.3866
103.494
110.598
116.645
17.4857
35.6148
41.7844
47.7675
58.6303
70.6218
82.0006
91.9155
100.415
107.86
114.463
120.253
17.4156
36.1884
45.0608
54.7275
67.2891
79.3074
90.0121
99.0966
106.81
113.54
119.547
124.922
17.7646
38.2369
52.5971
67.1256
81.8033
93.7673
103.385
111.096
117.444
122.917
127.826
132.304
19.12
45.1688
70.5491
91.1691
107.013
117.792
125.165
130.417
134.378
137.695
140.706
143.555
22.1827
61.7374
105.554
130.829
144.807
152.019
155.403
156.915
157.363
157.625
157.948
158.433
64.9831
113.187
160.588
180.568
187.528
188.871
187.328
184.654
181.616
178.711
176.185
174.103
43.7861
44.4391
44.4768
44.3625
43.4426
41.7995
39.3078
35.8857
31.4525
26.2284
19.6178
15.457
82.9762
88.8171
92.0036
92.3352
91.0156
88.7554
85.7484
81.5319
74.7139
61.1332
43.3901
35.642
101.639
105.681
107.401
107.555
106.766
105.492
103.939
101.759
97.8196
88.9944
66.6732
50.3666
111.304
115.086
117.275
118.248
118.464
118.422
118.443
118.38
117.165
111.958
93.1694
62.6159
117.522
121.312
123.892
125.547
126.706
127.874
129.489
131.547
132.899
131.062
116.717
73.4406
121.666
125.666
128.736
131.13
133.257
135.645
138.783
142.825
147.08
148.534
139.451
84.1395
125.249
129.459
132.968
135.999
138.94
142.335
146.783
152.64
159.432
164.18
160.02
94.7673
129.699
133.899
137.593
140.974
144.402
148.436
153.808
161.174
170.428
178.414
177.61
107.131
136.398
140.13
143.553
146.825
150.259
154.405
160.117
168.438
179.916
191.469
193.119
120.853
146.284
148.907
151.438
154.011
156.877
160.523
165.836
174.237
187.193
202.832
209.316
135.371
159.105
159.965
160.962
162.26
164.024
166.607
170.799
177.989
190.713
210.094
226.722
151.971
172.466
171.295
170.55
170.364
170.729
171.74
174.091
179.304
190.164
211.794
242.721
172.66
3.52672
4.6674
4.95312
4.89862
4.56336
4.15485
4.72319
11.2508
25.5739
32.3115
35.3329
37.769
7.35967
10.6302
10.7915
10.2756
9.58039
12.8643
21.8154
25.284
36.1989
45.6304
55.4486
64.4878
10.1529
16.3311
19.0996
20.5192
21.9812
23.8925
32.0594
41.7839
54.377
65.2903
75.1983
83.4281
13.3622
23.271
23.7881
23.0659
25.996
33.4783
45.3133
57.1786
68.5985
78.303
86.7337
93.6605
15.0738
27.8483
28.5362
28.2004
34.4061
45.1546
57.2194
68.5727
78.5513
86.9668
94.2359
100.275
16.1148
31.5047
34.0909
35.6472
43.9095
55.0655
66.4894
76.6768
85.3176
92.6896
99.1153
104.608
16.1969
32.4027
37.4545
42.4923
52.3898
63.5428
74.1195
83.2778
90.9822
97.5658
103.347
108.42
16.3844
33.5496
41.3393
50.4221
62.1611
73.2911
83.0656
91.2119
97.9569
103.689
108.742
113.268
16.9449
36.2082
49.5319
63.4311
77.2649
88.2925
96.8938
103.539
108.805
113.195
117.078
120.641
18.3943
43.3662
67.3113
86.7649
101.76
111.65
118.041
122.228
125.151
127.439
129.486
131.489
21.2841
58.9402
100.106
124.214
137.329
143.688
146.176
146.697
146.376
145.84
145.434
145.379
61.449
107.125
151.866
170.672
176.434
176.669
174.3
170.969
167.488
164.275
161.547
159.415
39.0862
39.8982
40.0064
39.984
39.4537
38.0603
35.988
33.0069
29.1147
24.3684
18.2626
14.2924
72.4014
78.4867
81.9687
82.9298
82.0804
80.3801
77.9361
74.4138
68.4276
56.3084
40.2256
33.2063
89.7743
94.0554
96.2148
96.7472
96.4061
95.6253
94.6074
93.0128
89.8033
82.0352
61.6366
47.1477
99.0035
102.854
105.259
106.531
107.114
107.474
107.978
108.405
107.854
103.599
86.4719
58.6101
105.076
108.756
111.371
113.17
114.554
116.01
117.985
120.493
122.331
121.334
108.537
68.8346
109.189
112.915
115.855
118.233
120.433
122.966
126.323
130.677
135.407
137.569
129.999
78.9068
112.829
116.611
119.837
122.705
125.578
128.981
133.504
139.519
146.63
152.032
149.417
88.9441
117.336
120.985
124.276
127.38
130.629
134.559
139.88
147.249
156.638
165.165
166.081
100.533
123.971
127.098
130.065
133.006
136.206
140.187
145.771
153.976
165.4
177.285
180.671
113.737
133.531
135.612
137.749
140.033
142.695
146.195
151.388
159.648
172.537
188.213
196.25
127.897
145.64
146.203
147.042
148.21
149.908
152.462
156.659
164.024
176.715
196.321
213.95
144.605
157.859
156.828
156.287
156.353
156.956
158.265
160.964
166.451
177.576
199.572
231.912
166.642
206.398
206.986
208.749
210.43
210.877
209.569
206.392
202.454
198.104
193.723
189.603
185.838
208.044
204.55
204.2
205.228
206.714
206.814
205.801
203.912
200.824
197.147
193.242
189.202
194.926
193.61
192.923
192.923
193.736
194.354
194.172
193.252
191.6
189.27
186.254
182.52
178.736
178.854
178.411
177.908
177.568
177.208
176.556
175.442
173.73
171.398
168.647
165.371
182.49
179.62
177.229
175.384
174.143
173.928
174.678
177.484
184.535
201.295
236.215
225.177
185.224
181.515
178.168
175.26
172.796
171.013
170.376
171.045
174.458
183.901
208.42
208.87
178.627
174.76
171.002
167.451
164.2
161.456
159.64
159.123
160.674
165.182
179.695
184.792
161.727
157.945
154.17
150.611
147.498
145.063
143.732
143.692
145.522
148.486
157.282
163.425
202.011
197.45
196.031
196.118
194.845
192.032
188.275
184.136
179.915
175.885
172.271
169.191
200.161
192.425
188.244
186.695
185.699
184.78
183.473
181.654
179.159
176.386
173.679
171.124
182.106
178.242
174.228
171.97
170.588
170.215
169.956
169.542
168.768
167.619
166.301
164.747
163.058
161.221
159.119
157.089
155.532
154.797
154.376
154.01
153.501
152.719
151.646
150.212
166.641
164.564
162.903
161.73
161.196
161.567
162.945
166.573
174.646
192.708
230.964
222.983
168.718
166.446
164.318
162.477
161.03
160.562
160.938
162.973
168.234
179.882
208.408
213.885
162.929
160.852
158.559
156.301
154.302
153.125
152.98
154.159
158.287
165.287
184.165
195.324
148.282
145.962
143.433
140.928
138.811
137.847
137.897
139.461
144.364
150.302
164.062
175.476
206.395
206.983
208.747
210.429
210.877
209.57
206.393
202.455
198.104
193.722
189.602
185.836
208.042
204.545
204.196
205.224
206.712
206.813
205.799
203.911
200.824
197.146
193.24
189.2
194.922
193.606
192.917
192.918
193.731
194.35
194.169
193.249
191.598
189.268
186.253
182.518
178.732
178.849
178.406
177.903
177.563
177.204
176.553
175.438
173.727
171.395
168.645
165.369
182.487
179.617
177.225
175.38
174.139
173.924
174.673
177.478
184.53
201.289
236.208
225.171
185.222
181.512
178.166
175.258
172.794
171.01
170.372
171.041
174.453
183.896
208.414
208.865
178.626
174.759
171
167.449
164.199
161.453
159.638
159.12
160.671
165.178
179.69
184.787
161.726
157.943
154.169
150.61
147.497
145.061
143.729
143.689
145.519
148.483
157.278
163.421
202.007
197.447
196.028
196.114
194.841
192.028
188.271
184.132
179.912
175.882
172.268
169.189
200.157
192.422
188.241
186.692
185.696
184.777
183.47
181.651
179.156
176.383
173.677
171.121
182.102
178.238
174.225
171.967
170.585
170.212
169.954
169.54
168.766
167.617
166.299
164.745
163.054
161.217
159.116
157.087
155.53
154.796
154.374
154.008
153.5
152.718
151.645
150.21
166.639
164.562
162.901
161.729
161.195
161.567
162.945
166.573
174.647
192.71
230.967
222.985
168.716
166.444
164.317
162.476
161.029
160.562
160.938
162.974
168.235
179.883
208.41
213.888
162.927
160.85
158.557
156.3
154.302
153.125
152.98
154.16
158.288
165.289
184.168
195.328
148.28
145.96
143.433
140.928
138.811
137.849
137.899
139.464
144.366
150.305
164.066
175.48
159.232
158.288
156.994
155.664
154.417
153.056
151.356
149.153
146.307
142.872
139.102
135.297
135.767
134.413
132.703
130.921
129.132
127.17
124.848
122.007
118.533
114.522
110.344
106.678
113.877
112.521
110.704
108.735
106.667
104.375
101.702
98.5029
94.6791
90.3213
85.8396
82.2475
95.0745
93.876
92.1199
90.1253
87.9534
85.5147
82.6762
79.3005
75.2693
70.5436
65.1986
60.056
132.1
129.683
127.748
126.707
126.619
127.407
129.283
132.043
135.836
140.245
145.324
147.471
104.663
104.601
105.402
107.271
109.979
113.294
117.143
121.28
125.603
129.392
132.05
132.046
81.5955
84.3997
87.8457
91.8766
96.3645
101.091
105.887
110.47
114.34
116.945
118.107
116.483
60.4765
68.0077
73.7913
79.2158
84.614
89.9158
94.957
99.3003
102.399
104.122
104.137
101.455
145.253
142.509
140.028
137.834
136.119
134.855
133.63
132.222
130.523
128.613
126.612
124.341
128.324
124.533
121.113
117.998
115.235
112.697
110.088
107.265
104.219
101.188
98.4953
96.125
111.981
107.389
103.09
99.0633
95.3107
91.7129
88.0599
84.2677
80.3738
76.5952
73.4024
71.2304
96.6084
91.562
86.7037
82.0889
77.7217
73.513
69.3099
65.0307
60.6581
56.2419
52.0327
48.7485
121.447
118.169
115.403
113.585
113.163
114.646
118.181
123.918
132.232
141.516
152.416
158.416
93.4707
90.3245
88.0514
87.1597
88.0514
91.0873
96.3729
103.842
113.174
122.964
131.401
135.579
69.6577
67.531
66.2944
66.3935
68.221
72.0444
77.9295
85.6928
94.7469
103.748
110.448
113.735
49.0125
49.623
49.9045
50.9511
53.3437
57.404
63.2028
70.5253
78.7381
86.5716
92.0851
94.8407
159.227
158.282
156.989
155.659
154.413
153.052
151.353
149.15
146.304
142.869
139.1
135.296
135.761
134.407
132.697
130.916
129.127
127.166
124.844
122.004
118.53
114.519
110.342
106.676
113.871
112.514
110.698
108.729
106.662
104.37
101.698
98.4991
94.6756
90.3181
85.8368
82.245
95.0671
93.8687
92.1131
90.1191
87.9478
85.5096
82.6716
79.2963
75.2654
70.5399
65.1955
60.0534
132.098
129.681
127.746
126.705
126.617
127.404
129.28
132.04
135.833
140.242
145.321
147.468
104.66
104.598
105.399
107.267
109.976
113.291
117.14
121.277
125.6
129.389
132.048
132.044
81.593
84.3967
87.8423
91.8729
96.3608
101.088
105.884
110.467
114.338
116.942
118.105
116.481
60.474
68.0043
73.7875
79.2119
84.6101
89.912
94.9535
99.2972
102.397
104.12
104.136
101.455
145.251
142.507
140.026
137.833
136.118
134.855
133.63
132.221
130.522
128.612
126.612
124.341
128.323
124.532
121.113
117.998
115.236
112.698
110.089
107.266
104.219
101.188
98.4956
96.1255
111.981
107.389
103.09
99.0647
95.3126
91.715
88.0621
84.2698
80.3758
76.597
73.404
71.232
96.6085
91.5631
86.7056
82.0914
77.7248
73.5164
69.3135
65.0344
60.6617
56.2451
52.0355
48.7509
121.447
118.171
115.405
113.588
113.166
114.65
118.185
123.922
132.236
141.52
152.421
158.422
93.4723
90.3281
88.0566
87.166
88.0583
91.0942
96.3794
103.848
113.18
122.97
131.407
135.586
69.6606
67.5368
66.3025
66.4028
68.2309
72.0539
77.9382
85.7006
94.754
103.755
110.455
113.742
49.016
49.6307
49.915
50.9632
53.3561
57.4158
63.2135
70.5347
78.7465
86.5794
92.0929
94.8487
79.4204
78.4197
76.7994
74.871
72.7058
70.2411
67.3629
63.9339
59.7817
54.5885
47.21
31.8087
66.5261
65.7118
64.2529
62.4383
60.3459
57.9329
55.1008
51.7124
47.5511
42.1121
33.7489
14.3606
55.9217
55.264
53.9658
52.286
50.3038
47.9911
45.2636
41.9917
37.9534
32.651
24.7844
8.9793
47.1757
46.6411
45.4907
43.951
42.0984
39.9154
37.3315
34.2328
30.4254
25.5196
18.6989
6.64631
39.9219
39.48
38.4605
37.0582
35.3438
33.3073
30.8914
28.0029
24.4914
20.0954
14.3694
5.12049
33.8556
33.4823
32.577
31.306
29.7326
27.8518
25.6182
22.9602
19.772
15.9029
11.1447
3.94136
28.7199
28.3974
27.5925
26.4467
25.015
23.2954
21.2525
18.8337
15.9719
12.5976
8.64374
2.97413
24.2864
24.0035
23.2895
22.2649
20.9766
19.424
17.5789
15.4039
12.8606
9.93343
6.63748
2.15687
20.3279
20.079
19.4519
18.5497
17.4106
16.035
14.3994
12.4774
10.2484
7.72926
4.98241
1.46383
16.5549
16.3404
15.8048
15.0356
14.0624
12.886
11.4858
9.84343
7.94512
5.82894
3.57945
0.895988
12.3685
12.1956
11.7745
11.1763
10.4184
9.50216
8.41056
7.13023
5.63595
3.99814
2.30504
0.461356
5.45835
5.35056
5.13331
4.84263
4.48184
4.06704
3.58546
3.01143
2.33997
1.58895
0.81022
0.123788
34.4018
54.1561
62.2245
68.4826
74.2172
79.5742
84.4174
88.1963
90.6149
91.6235
90.7593
87.5454
19.9264
43.2863
52.6124
59.2371
64.9535
70.078
74.458
77.617
79.4637
79.8824
78.4514
75.0721
14.7351
35.3435
44.6458
51.2235
56.6985
61.4312
65.2585
67.8458
69.2002
69.1624
67.4392
64.1402
11.8938
29.328
37.9965
44.2532
49.3541
53.6195
56.9004
59.0038
59.9431
59.5764
57.7712
54.7083
9.86469
24.5567
32.3769
38.1649
42.8255
46.6051
49.3939
51.0941
51.6971
51.1281
49.382
46.6463
8.23207
20.612
27.5558
32.8146
37.0136
40.3268
42.6926
44.0565
44.4001
43.734
42.1441
39.7682
6.82637
17.2368
23.3517
28.0721
31.8156
34.7044
36.7061
37.791
37.9515
37.2702
35.8758
33.8553
5.56385
14.258
19.6184
23.8143
27.1197
29.623
31.31
32.1712
32.21
31.5637
30.3683
28.6816
4.41838
11.5351
16.221
19.905
22.7826
24.9264
26.335
27.0131
26.9758
26.3897
25.3776
23.9985
3.31667
8.95892
12.989
16.1373
18.5674
20.3499
21.4924
22.009
21.925
21.4093
20.5635
19.4712
2.21561
6.32464
9.53471
12.0072
13.8845
15.2386
16.0786
16.429
16.3133
15.8833
15.2224
14.3979
0.733994
2.4969
4.0821
5.25543
6.14142
6.78416
7.18136
7.35207
7.28955
7.08838
6.79147
6.42194
82.6609
77.4976
72.4441
67.6138
63.0269
58.6154
54.2599
49.8514
45.2629
40.2305
33.8712
22.245
70.3818
65.3809
60.4404
55.7031
51.2019
46.885
42.6466
38.3505
33.789
28.4983
21.0777
7.45928
59.8039
55.1621
50.5501
46.1165
41.9004
37.861
33.9016
29.8752
25.5552
20.4922
13.725
3.70804
50.8168
46.6462
42.4849
38.472
34.6475
30.9793
27.3811
23.7126
19.7721
15.2165
9.65082
2.49299
43.2304
39.572
35.908
32.3599
28.9654
25.7001
22.491
19.2146
15.7118
11.7403
7.3086
1.94164
36.8197
33.6653
30.4937
27.406
24.4372
21.5696
18.7445
15.8585
12.7952
9.38063
5.84082
1.5691
31.3515
28.6649
25.952
23.2953
20.7262
18.2335
15.7716
13.2559
10.6064
7.68163
4.81219
1.32148
26.5927
24.3274
22.0296
19.7667
17.5662
15.4216
13.2991
11.1293
8.86189
6.36116
4.00441
1.09042
22.2951
20.4112
18.49
16.5895
14.7329
12.9168
11.1163
9.27421
7.36523
5.24204
3.30206
0.878219
18.1269
16.6183
15.0528
13.5036
11.9852
10.496
9.01675
7.50088
5.94622
4.18302
2.61096
0.65815
13.4129
12.336
11.1912
10.0377
8.90382
7.7905
6.68042
5.53914
4.39809
3.04119
1.88293
0.436931
5.98395
5.50558
4.99887
4.49451
3.995
3.50158
3.01133
2.50785
2.00307
1.38145
0.863614
0.2811
26.1482
35.4079
37.7329
39.5987
42.2774
46.2463
51.6158
58.1902
65.3817
72.0675
76.7042
79.0896
12.9004
25.2132
28.8467
31.2287
33.9885
37.6983
42.5065
48.2551
54.4347
60.101
64.039
66.1282
8.12139
18.5184
22.414
24.9915
27.6921
31.0752
35.305
40.2616
45.5199
50.3083
53.662
55.4924
5.74083
14.005
17.6922
20.2589
22.8203
25.8658
29.5562
33.802
38.2562
42.2969
45.1504
46.7454
4.24837
10.8033
14.1343
16.5819
18.9673
21.6932
24.9049
28.5354
32.3042
35.7111
38.1329
39.513
3.20233
8.40669
11.3674
13.6469
15.8438
18.278
21.0748
24.183
27.3753
30.2462
32.2957
33.4818
2.39116
6.53601
9.14593
11.2364
13.2409
15.409
17.8472
20.5151
23.2258
25.6432
27.3728
28.3876
1.7247
5.02942
7.30992
9.19797
11.0032
12.92
15.0417
17.3358
19.6437
21.6745
23.1297
23.9966
1.17517
3.78762
5.75139
7.41707
9.00283
10.6652
12.4929
14.4608
16.4254
18.1194
19.3368
20.0784
0.739383
2.74368
4.3811
5.78135
7.10098
8.4758
10.0006
11.6628
13.3179
14.7056
15.71
16.3433
0.409058
1.80823
3.0545
4.0913
5.03975
6.02888
7.17647
8.50661
9.81028
10.8854
11.6955
12.2018
0.120443
0.671986
1.23744
1.68856
2.09236
2.54215
3.09793
3.73507
4.32084
4.80279
5.17453
5.39951
79.4125
78.4119
76.7922
74.8644
72.6997
70.2356
67.3578
63.9291
59.7773
54.5845
47.2067
31.8066
66.5176
65.7035
64.2452
62.4312
60.3394
57.9268
55.0951
51.7071
47.5461
42.1076
33.7452
14.3588
55.9127
55.2552
53.9576
52.2783
50.2967
47.9844
45.2573
41.9857
37.9478
32.6459
24.7803
8.97722
47.1661
46.6318
45.4819
43.9428
42.0907
39.908
37.3245
34.2261
30.4191
25.5138
18.694
6.64385
39.9117
39.4702
38.4512
37.0494
35.3354
33.2992
30.8836
27.9954
24.4842
20.0888
14.3638
5.1176
33.8451
33.472
32.5672
31.2967
29.7236
27.843
25.6096
22.9518
19.764
15.8955
11.1384
3.93807
28.7091
28.3869
27.5824
26.4369
25.0054
23.2861
21.2433
18.8246
15.9631
12.5895
8.63683
2.97052
24.2756
23.993
23.2793
22.255
20.9668
19.4143
17.5692
15.3943
12.8513
9.92472
6.63015
2.15315
20.3175
20.0689
19.4421
18.54
17.401
16.0254
14.3898
12.4678
10.2389
7.72035
4.97497
1.46034
16.5454
16.3312
15.7957
15.0267
14.0534
12.877
11.4768
9.83435
7.93612
5.82041
3.57237
0.89324
12.3608
12.1881
11.7671
11.169
10.411
9.49477
8.40309
7.12267
5.62839
3.99095
2.29912
0.459804
5.45474
5.34705
5.12987
4.83923
4.47844
4.06361
3.58199
3.00788
2.33636
1.58542
0.807383
0.12354
34.4
54.1527
62.2207
68.4787
74.2133
79.5705
84.414
88.1935
90.6125
91.6215
90.7581
87.5451
19.9248
43.2831
52.6088
59.2332
64.9497
70.0744
74.4548
77.6144
79.4615
79.8808
78.4506
75.0723
14.7337
35.3405
44.6424
51.2199
56.6949
61.4278
65.2555
67.8433
69.1983
69.1611
67.4388
64.1408
11.8926
29.3253
37.9933
44.2499
49.3508
53.6165
56.8977
59.0016
59.9414
59.5755
57.7712
54.7093
9.8636
24.5544
32.3742
38.162
42.8225
46.6024
49.3915
51.0923
51.6958
51.1275
49.3823
46.6477
8.23117
20.6101
27.5534
32.812
37.0111
40.3244
42.6906
44.0549
44.3992
43.7338
42.1448
39.7699
6.82566
17.2352
23.3497
28.0699
31.8134
34.7024
36.7044
37.7898
37.9509
37.2703
35.8766
33.8572
5.56334
14.2567
19.6168
23.8125
27.1178
29.6213
31.3087
32.1704
32.2098
31.5641
30.3693
28.6836
4.41807
11.5342
16.2198
19.9036
22.7812
24.9251
26.3339
27.0126
26.9758
26.3903
25.3787
24.0006
3.31654
8.95837
12.9881
16.1362
18.5663
20.3489
21.4916
22.0087
21.9251
21.4099
20.5647
19.4731
2.21564
6.32435
9.53413
12.0064
13.8836
15.2379
16.0781
16.4288
16.3135
15.8839
15.2235
14.3996
0.734075
2.49686
4.08189
5.2551
6.14105
6.78381
7.18109
7.35199
7.28964
7.08868
6.79196
6.42269
82.6617
77.4994
72.4468
67.6174
63.0311
58.6202
54.265
49.8567
45.2681
40.2353
33.8754
22.2476
70.3831
65.3833
60.4438
55.7075
51.2071
46.891
42.6531
38.3573
33.796
28.5049
21.0838
7.46336
59.8056
55.165
50.5542
46.1217
41.9066
37.8682
33.9095
29.8836
25.5638
20.5007
13.733
3.71296
50.819
46.6496
42.4895
38.4779
34.6546
30.9874
27.3901
23.7223
19.7822
15.2266
9.66025
2.49825
43.233
39.5758
35.9131
32.3662
28.973
25.7089
22.5008
19.2253
15.723
11.7516
7.31886
1.9467
36.8225
33.6694
30.499
27.4127
24.4452
21.5789
18.7549
15.8699
12.8072
9.39271
5.85144
1.57395
31.3546
28.6692
25.9575
23.3021
20.7344
18.2429
15.7823
13.2676
10.6188
7.69401
4.82281
1.32585
26.5959
24.3316
22.0351
19.7734
17.5742
15.431
13.3097
11.141
8.87412
6.3734
4.01472
1.09428
22.2982
20.4153
18.4952
16.5959
14.7405
12.9257
11.1264
9.2853
7.37691
5.25368
3.31173
0.881432
18.1297
16.6221
15.0575
13.5093
11.992
10.5039
9.02583
7.51087
5.95674
4.19349
2.61958
0.66063
13.4152
12.339
11.1949
10.0423
8.90927
7.79687
6.68782
5.54717
4.4065
3.04953
1.88979
0.438541
5.98501
5.50694
5.0006
4.49654
3.99748
3.50452
3.01474
2.51166
2.007
1.38554
0.866954
0.281933
26.1515
35.4174
37.7457
39.6132
42.2921
46.2601
51.6281
58.201
65.3912
72.0763
76.7128
79.0981
12.905
25.2246
28.8615
31.2452
34.0051
37.7138
42.5203
48.2672
54.4452
60.1107
64.0482
66.1373
8.12705
18.5313
22.4304
25.0095
27.7102
31.092
35.3201
40.2747
45.5314
50.3188
53.6719
55.502
5.7473
14.0191
17.7098
20.2781
22.8394
25.8837
29.5721
33.816
38.2685
42.308
45.1609
46.7556
4.2554
10.8181
14.1527
16.6019
18.9872
21.7118
24.9215
28.55
32.3171
35.7228
38.1439
39.5236
3.20965
8.42195
11.3862
13.6673
15.8639
18.2967
21.0916
24.1978
27.3885
30.2582
32.307
33.4928
2.39858
6.55131
9.16484
11.2568
13.261
15.4276
17.8639
20.5299
23.2391
25.6553
27.3842
28.3987
1.7318
5.04432
7.32846
9.21788
11.0226
12.9379
15.0578
17.3501
19.6566
21.6864
23.141
24.0076
1.18132
3.80161
5.76903
7.43593
9.02111
10.6819
12.5079
14.4741
16.4375
18.1307
19.3475
20.0889
0.74386
2.75614
4.39708
5.79832
7.11725
8.49057
10.0137
11.6745
13.3287
14.7157
15.7197
16.3527
0.411469
1.81817
3.06749
4.10493
5.05263
6.04048
7.18687
8.51579
9.81868
10.8934
11.7033
12.2094
0.120828
0.676527
1.24358
1.69491
2.09827
2.54744
3.10271
3.73922
4.32463
4.8065
5.17813
5.40302
)
;

boundaryField
{
    rotor
    {
        type            kqRWallFunction;
        value           nonuniform List<scalar> 
192
(
3.77758
4.93229
5.19239
5.1195
4.67273
4.408
5.99079
18.8161
31.5592
36.9963
40.1709
42.5022
43.7892
44.4418
44.4795
44.3649
43.4447
41.8013
39.3094
35.887
31.4536
26.2291
19.6183
15.4574
3.5264
4.66706
4.95282
4.8983
4.56307
4.15456
4.72271
11.2486
25.5722
32.3105
35.3321
37.7682
39.0855
39.8975
40.0059
39.9834
39.4533
38.0599
35.9876
33.0066
29.1145
24.3682
18.2624
14.2922
3.77698
4.93167
5.19165
5.11877
4.67215
4.40732
5.98831
18.8064
31.554
36.9929
40.1673
42.4991
43.7861
44.4391
44.4768
44.3625
43.4426
41.7995
39.3078
35.8857
31.4525
26.2284
19.6178
15.457
3.52672
4.6674
4.95312
4.89862
4.56336
4.15485
4.72319
11.2508
25.5739
32.3115
35.3329
37.769
39.0862
39.8982
40.0064
39.984
39.4537
38.0603
35.988
33.0069
29.1147
24.3684
18.2626
14.2924
3.77758
7.90791
11.0486
14.6595
16.5207
17.6699
17.4875
17.4166
17.7648
19.1194
22.1815
64.9834
14.2924
33.2063
47.1477
58.6101
68.8346
78.9068
88.9441
100.533
113.737
127.897
144.605
166.642
3.5264
7.35904
10.152
13.361
15.0725
16.1136
16.1961
16.384
16.9451
18.395
21.2853
61.4504
15.4574
35.643
50.368
62.6179
73.4429
84.1422
94.7704
107.135
120.857
135.375
151.976
172.665
3.77698
7.90671
11.047
14.6575
16.5184
17.6676
17.4857
17.4156
17.7646
19.12
22.1827
64.9831
14.2922
33.2059
47.1472
58.6096
68.8339
78.906
88.9432
100.532
113.736
127.896
144.603
166.64
3.52672
7.35967
10.1529
13.3622
15.0738
16.1148
16.1969
16.3844
16.9449
18.3943
21.2841
61.449
15.457
35.642
50.3666
62.6159
73.4406
84.1395
94.7673
107.131
120.853
135.371
151.971
172.66
)
;
    }
    stator
    {
        type            kqRWallFunction;
        value           nonuniform List<scalar> 
192
(
5.45835
5.35056
5.13331
4.84263
4.48184
4.06704
3.58546
3.01143
2.33997
1.58895
0.81022
0.123788
0.733994
2.4969
4.0821
5.25543
6.14142
6.78416
7.18136
7.35207
7.28955
7.08838
6.79147
6.42194
5.98395
5.50558
4.99887
4.49451
3.995
3.50158
3.01133
2.50785
2.00307
1.38145
0.863614
0.2811
0.120443
0.671986
1.23744
1.68856
2.09236
2.54215
3.09793
3.73507
4.32084
4.80279
5.17453
5.39951
5.45474
5.34705
5.12987
4.83923
4.47844
4.06361
3.58199
3.00788
2.33636
1.58542
0.807383
0.12354
0.734075
2.49686
4.08189
5.2551
6.14105
6.78381
7.18109
7.35199
7.28964
7.08868
6.79196
6.42269
5.98501
5.50694
5.0006
4.49654
3.99748
3.50452
3.01474
2.51166
2.007
1.38554
0.866954
0.281933
0.120828
0.676527
1.24358
1.69491
2.09827
2.54744
3.10271
3.73922
4.32463
4.8065
5.17813
5.40302
34.4018
19.9264
14.7351
11.8938
9.86469
8.23207
6.82637
5.56385
4.41838
3.31667
2.21561
0.733994
31.8087
14.3606
8.9793
6.64631
5.12049
3.94136
2.97413
2.15687
1.46383
0.895988
0.461356
0.123788
26.1482
12.9004
8.12139
5.74083
4.24837
3.20233
2.39116
1.7247
1.17517
0.739383
0.409058
0.120443
22.245
7.45928
3.70804
2.49299
1.94164
1.5691
1.32148
1.09042
0.878219
0.65815
0.436931
0.2811
34.4
19.9248
14.7337
11.8926
9.8636
8.23117
6.82566
5.56334
4.41807
3.31654
2.21564
0.734075
31.8066
14.3588
8.97722
6.64385
5.1176
3.93807
2.97052
2.15315
1.46034
0.89324
0.459804
0.12354
26.1515
12.905
8.12705
5.7473
4.2554
3.20965
2.39858
1.7318
1.18132
0.74386
0.411469
0.120828
22.2476
7.46336
3.71296
2.49825
1.9467
1.57395
1.32585
1.09428
0.881432
0.66063
0.438541
0.281933
)
;
    }
    front
    {
        type            empty;
    }
    back
    {
        type            empty;
    }
}


// ************************************************************************* //
