/*--------------------------------*- C++ -*----------------------------------*\
| =========                 |                                                 |
| \\      /  F ield         | OpenFOAM: The Open Source CFD Toolbox           |
|  \\    /   O peration     | Version:  2212                                  |
|   \\  /    A nd           | Website:  www.openfoam.com                      |
|    \\/     M anipulation  |                                                 |
\*---------------------------------------------------------------------------*/
FoamFile
{
    version     2.0;
    format      ascii;
    arch        "LSB;label=32;scalar=64";
    class       volScalarField;
    location    "0.02";
    object      nut;
}
// * * * * * * * * * * * * * * * * * * * * * * * * * * * * * * * * * * * * * //

dimensions      [0 2 -1 0 0 0 0];

internalField   nonuniform List<scalar> 
3072
(
0.000266035
0.000571391
0.000607883
0.000606002
0.000592745
0.000567927
0.000552906
0.000613851
0.00103454
0.00138185
0.00149841
0.00155215
0.000425788
0.00120202
0.00163682
0.00183227
0.00154219
0.000950193
0.00086494
0.00144517
0.00174188
0.00280131
0.00381232
0.0052998
0.000540246
0.00195781
0.00262288
0.00266461
0.00227964
0.00209343
0.00206126
0.00293164
0.00450032
0.00662632
0.00881027
0.0109261
0.000674402
0.00302164
0.00324127
0.00278642
0.00261855
0.00263114
0.00348803
0.00575014
0.00813939
0.0107965
0.013288
0.0154923
0.000786754
0.00353139
0.00359346
0.00323866
0.0031446
0.00386182
0.00596356
0.00881812
0.0115353
0.0142401
0.0167194
0.018902
0.000889409
0.00397982
0.00411091
0.00384324
0.00417838
0.00602695
0.00879104
0.0115134
0.0141908
0.0167681
0.0191203
0.0212255
0.000979031
0.0045451
0.00496465
0.00503732
0.00619421
0.00862294
0.0111505
0.0136888
0.016144
0.0184532
0.0206464
0.02264
0.00108377
0.00559409
0.0066644
0.00759094
0.00932293
0.0114173
0.0135531
0.0156934
0.0178266
0.0198408
0.0217245
0.0234701
0.00120584
0.00731266
0.0096531
0.0115704
0.0132758
0.0148678
0.0164435
0.0179988
0.0195855
0.0211252
0.0225987
0.0240118
0.00137811
0.00888623
0.0123569
0.0147264
0.0164262
0.0177217
0.0188586
0.0199146
0.0209524
0.0219874
0.0230275
0.024113
0.00155917
0.00838657
0.0134157
0.0162613
0.0180984
0.0192366
0.0202267
0.0209646
0.0216426
0.0223272
0.0230493
0.0238422
0.00261098
0.00793281
0.0141359
0.0174302
0.0189705
0.0204176
0.0212312
0.0218104
0.0222827
0.0227423
0.0232403
0.0238189
0.00159343
0.00161346
0.00162506
0.00162668
0.00162754
0.00160194
0.00156425
0.00149896
0.00140962
0.00129038
0.00111318
0.000531519
0.0067698
0.00809772
0.00902072
0.00938619
0.00919279
0.00869488
0.00786293
0.00672459
0.00522563
0.00320509
0.00157487
0.000917676
0.0127533
0.014119
0.014952
0.0152629
0.0150581
0.0143791
0.0131845
0.0114492
0.00914641
0.00628012
0.00279595
0.00121756
0.0173499
0.0187872
0.0197734
0.0202837
0.0202771
0.0197028
0.0184849
0.0165199
0.0136317
0.00984189
0.00492478
0.00148457
0.0207706
0.0222924
0.0234436
0.0241905
0.0244725
0.0241855
0.0231817
0.0212539
0.0180625
0.0134425
0.00724507
0.00174933
0.0230703
0.0246395
0.0259175
0.0268755
0.0274532
0.0275506
0.0269913
0.0254561
0.022454
0.0173299
0.0100456
0.00202093
0.0244168
0.0259723
0.0273117
0.0284161
0.0292544
0.0297677
0.0297712
0.0288725
0.0263972
0.0212814
0.0130124
0.00230505
0.0250653
0.0265076
0.0278311
0.0290205
0.0300745
0.0309889
0.031628
0.0315757
0.0299016
0.0250679
0.0159266
0.00261853
0.0253366
0.026534
0.0277015
0.0288804
0.0300621
0.0312566
0.0324259
0.0332603
0.032736
0.028644
0.0185973
0.00296654
0.0251803
0.026164
0.0271326
0.0282689
0.029549
0.0309348
0.0324311
0.0339731
0.0346617
0.0319753
0.0217271
0.00333696
0.0247805
0.0258575
0.0266904
0.0276173
0.0289325
0.0304537
0.0320586
0.0339279
0.0355041
0.0347346
0.0254983
0.00374759
0.0245821
0.025755
0.0267117
0.0275228
0.0286679
0.0301679
0.0317069
0.0335085
0.0353525
0.036237
0.0294456
0.00422299
0.000266046
0.000571415
0.000607912
0.000606031
0.000592774
0.000567954
0.000552934
0.000613888
0.0010346
0.00138189
0.00149844
0.00155218
0.000425806
0.00120207
0.00163691
0.00183237
0.00154226
0.000950249
0.000864973
0.00144524
0.00174198
0.00280141
0.0038125
0.00529998
0.000540269
0.00195791
0.00262302
0.00266475
0.00227977
0.00209352
0.00206131
0.00293175
0.00450054
0.00662659
0.00881059
0.0109264
0.000674425
0.00302178
0.00324143
0.00278655
0.00261873
0.00263124
0.00348814
0.00575039
0.00813974
0.0107969
0.0132884
0.0154927
0.000786778
0.00353157
0.00359364
0.00323881
0.00314476
0.00386193
0.00596372
0.00881841
0.0115357
0.0142405
0.0167199
0.0189024
0.000889434
0.00397996
0.00411109
0.00384338
0.00417849
0.00602694
0.0087912
0.0115137
0.0141912
0.0167686
0.0191207
0.021226
0.000979055
0.00454517
0.00496469
0.00503725
0.00619403
0.00862292
0.0111506
0.013689
0.0161444
0.0184536
0.0206468
0.0226404
0.0010838
0.00559404
0.0066642
0.00759049
0.00932262
0.0114172
0.0135531
0.0156935
0.0178269
0.0198411
0.0217248
0.0234704
0.00120587
0.00731267
0.00965293
0.0115703
0.0132757
0.0148677
0.0164435
0.0179989
0.0195857
0.0211254
0.0225989
0.0240121
0.00137815
0.00888648
0.0123572
0.0147267
0.0164265
0.0177219
0.0188588
0.0199148
0.0209526
0.0219876
0.0230277
0.0241133
0.00155922
0.0083869
0.0134162
0.0162619
0.018099
0.0192372
0.0202272
0.0209651
0.021643
0.0223276
0.0230497
0.0238426
0.00261102
0.00793314
0.0141365
0.0174309
0.0189713
0.0204184
0.021232
0.0218111
0.0222834
0.022743
0.0232409
0.0238195
0.00159346
0.00161349
0.00162509
0.00162671
0.00162757
0.00160196
0.00156427
0.00149898
0.00140963
0.00129039
0.00111319
0.000531528
0.00677004
0.00809795
0.00902095
0.00938636
0.00919293
0.00869499
0.00786302
0.00672466
0.0052257
0.00320514
0.00157489
0.000917686
0.0127537
0.0141194
0.0149523
0.0152632
0.0150584
0.0143793
0.0131847
0.0114494
0.00914652
0.00628019
0.00279597
0.00121757
0.0173503
0.0187877
0.0197738
0.020284
0.0202774
0.0197031
0.0184851
0.0165201
0.0136318
0.00984197
0.00492483
0.00148458
0.020771
0.0222928
0.023444
0.0241908
0.0244729
0.0241858
0.023182
0.0212541
0.0180627
0.0134426
0.00724513
0.00174934
0.0230707
0.0246399
0.0259179
0.0268759
0.0274535
0.0275509
0.0269915
0.0254563
0.0224542
0.01733
0.0100457
0.00202094
0.0244172
0.0259727
0.027312
0.0284164
0.0292546
0.0297679
0.0297714
0.0288726
0.0263973
0.0212815
0.0130125
0.00230506
0.0250656
0.0265079
0.0278314
0.0290207
0.0300747
0.0309891
0.0316281
0.0315758
0.0299017
0.025068
0.0159267
0.00261854
0.0253369
0.0265343
0.0277017
0.0288806
0.0300623
0.0312567
0.032426
0.0332603
0.032736
0.028644
0.0185974
0.00296655
0.0251806
0.0261643
0.0271329
0.0282691
0.0295492
0.0309349
0.0324311
0.033973
0.0346616
0.0319753
0.0217271
0.00333696
0.0247808
0.0258578
0.0266908
0.0276176
0.0289327
0.0304537
0.0320585
0.0339277
0.0355038
0.0347343
0.0254984
0.00374759
0.0245825
0.0257553
0.0267122
0.0275232
0.0286681
0.0301679
0.0317068
0.0335083
0.0353521
0.0362366
0.0294456
0.00422299
0.000266034
0.000571392
0.000607889
0.000606009
0.000592753
0.000567935
0.000552916
0.000613855
0.00103453
0.00138184
0.0014984
0.00155214
0.000425785
0.00120204
0.00163686
0.00183234
0.00154226
0.000950262
0.000864993
0.00144516
0.0017418
0.00280123
0.00381217
0.00529962
0.000540237
0.00195782
0.00262295
0.00266478
0.00227985
0.00209354
0.00206127
0.00293139
0.00450006
0.00662599
0.00880986
0.0109256
0.000674386
0.00302169
0.00324138
0.00278651
0.00261867
0.00263108
0.0034876
0.00574964
0.00813883
0.010796
0.0132873
0.0154916
0.000786737
0.00353143
0.00359348
0.00323863
0.00314459
0.00386148
0.00596271
0.00881736
0.0115345
0.0142393
0.0167187
0.0189011
0.000889395
0.00397977
0.00411081
0.00384306
0.00417801
0.0060257
0.00878995
0.0115125
0.0141899
0.0167673
0.0191193
0.0212245
0.000979021
0.00454489
0.00496423
0.00503651
0.00619279
0.00862165
0.0111493
0.0136877
0.016143
0.0184521
0.0206454
0.0226389
0.00108377
0.00559368
0.00666355
0.00758931
0.00932139
0.0114159
0.0135518
0.0156921
0.0178255
0.0198397
0.0217233
0.0234688
0.00120585
0.00731258
0.00965242
0.0115697
0.0132749
0.0148667
0.0164423
0.0179977
0.0195844
0.021124
0.0225974
0.0240106
0.00137816
0.00888648
0.0123569
0.0147263
0.0164259
0.0177211
0.0188579
0.0199138
0.0209515
0.0219864
0.0230263
0.0241118
0.00155923
0.00838686
0.013416
0.0162616
0.0180986
0.0192367
0.0202264
0.0209642
0.021642
0.0223265
0.0230484
0.0238412
0.00261101
0.00793305
0.0141364
0.0174308
0.0189709
0.0204179
0.0212314
0.0218104
0.0222825
0.0227419
0.0232397
0.0238182
0.00159341
0.00161345
0.00162504
0.00162667
0.00162753
0.00160192
0.00156424
0.00149894
0.0014096
0.00129037
0.00111317
0.000531518
0.00676956
0.00809743
0.00902039
0.00938582
0.00919242
0.00869452
0.00786262
0.00672435
0.00522547
0.00320502
0.00157485
0.000917671
0.0127528
0.0141185
0.0149514
0.0152623
0.0150575
0.0143785
0.013184
0.0114488
0.00914609
0.00627993
0.00279587
0.00121755
0.0173492
0.0187865
0.0197726
0.0202828
0.0202763
0.019702
0.0184841
0.0165193
0.0136312
0.00984156
0.00492465
0.00148456
0.0207697
0.0222915
0.0234426
0.0241894
0.0244715
0.0241844
0.0231808
0.0212531
0.0180619
0.013442
0.00724488
0.00174931
0.0230692
0.0246383
0.0259163
0.0268743
0.0274518
0.0275493
0.0269901
0.025455
0.0224531
0.0173293
0.0100454
0.0020209
0.0244156
0.0259711
0.0273103
0.0284146
0.0292528
0.0297661
0.0297696
0.0288711
0.026396
0.0212806
0.013012
0.00230502
0.025064
0.0265062
0.0278296
0.0290188
0.0300727
0.0309871
0.0316262
0.031574
0.0299002
0.0250669
0.0159262
0.00261849
0.0253353
0.0265326
0.0276999
0.0288787
0.0300603
0.0312546
0.0324239
0.0332583
0.0327342
0.0286427
0.0185968
0.0029665
0.0251791
0.0261627
0.0271311
0.0282672
0.0295471
0.0309327
0.032429
0.0339709
0.0346596
0.0319738
0.0217265
0.0033369
0.0247793
0.0258562
0.0266891
0.0276158
0.0289307
0.0304516
0.0320564
0.0339255
0.0355018
0.0347327
0.0254976
0.00374753
0.024581
0.0257538
0.0267107
0.0275215
0.0286661
0.0301659
0.0317048
0.0335062
0.03535
0.0362348
0.0294447
0.00422291
0.000266048
0.000571416
0.0006079
0.000606014
0.000592756
0.000567935
0.000552916
0.000613877
0.00103461
0.00138186
0.0014984
0.00155214
0.00042581
0.00120202
0.00163676
0.00183214
0.00154208
0.000950141
0.000864919
0.00144524
0.00174204
0.00280139
0.00381252
0.00529992
0.000540278
0.00195781
0.00262279
0.00266437
0.00227941
0.00209332
0.0020612
0.0029319
0.00450067
0.00662664
0.0088106
0.0109263
0.000674437
0.00302158
0.00324107
0.00278624
0.0026185
0.00263123
0.00348848
0.00575077
0.00814007
0.010797
0.0132884
0.0154925
0.000786786
0.00353133
0.00359341
0.00323866
0.00314465
0.00386217
0.00596451
0.00881898
0.011536
0.0142406
0.0167199
0.0189022
0.00088943
0.00397977
0.00411099
0.00384338
0.00417875
0.00602823
0.00879222
0.0115143
0.0141916
0.0167687
0.0191207
0.0212257
0.000979037
0.0045451
0.00496482
0.00503785
0.00619542
0.00862413
0.0111515
0.0136897
0.0161448
0.0184538
0.0206469
0.0226403
0.00108375
0.005594
0.00666447
0.00759165
0.00932376
0.0114182
0.013554
0.0156942
0.0178274
0.0198414
0.0217249
0.0234703
0.00120578
0.00731192
0.00965258
0.0115702
0.0132758
0.0148681
0.0164439
0.0179993
0.019586
0.0211256
0.022599
0.024012
0.00137801
0.00888551
0.0123563
0.0147259
0.016426
0.0177216
0.0188586
0.0199147
0.0209525
0.0219875
0.0230275
0.024113
0.00155907
0.00838609
0.0134152
0.0162608
0.0180979
0.0192362
0.0202263
0.0209644
0.0216424
0.0223271
0.0230492
0.023842
0.00261093
0.00793258
0.0141355
0.0174296
0.0189699
0.0204169
0.0212306
0.0218099
0.0222822
0.0227419
0.0232399
0.0238185
0.00159341
0.00161344
0.00162504
0.00162666
0.00162752
0.00160191
0.00156423
0.00149893
0.00140959
0.00129035
0.00111316
0.000531506
0.00676993
0.00809776
0.00902071
0.00938608
0.00919264
0.00869471
0.00786276
0.00672443
0.0052255
0.00320502
0.00157483
0.000917657
0.0127534
0.0141191
0.0149519
0.0152627
0.0150579
0.0143788
0.0131842
0.0114489
0.00914618
0.00627995
0.00279588
0.00121754
0.01735
0.0187872
0.0197733
0.0202834
0.0202768
0.0197024
0.0184845
0.0165196
0.0136314
0.00984167
0.00492466
0.00148455
0.0207707
0.0222923
0.0234434
0.0241902
0.0244721
0.024185
0.0231813
0.0212534
0.0180621
0.0134422
0.0072449
0.0017493
0.0230704
0.0246394
0.0259173
0.0268751
0.0274527
0.02755
0.0269907
0.0254555
0.0224535
0.0173295
0.0100454
0.00202089
0.0244169
0.0259722
0.0273114
0.0284156
0.0292538
0.029767
0.0297705
0.0288717
0.0263965
0.0212809
0.0130121
0.00230501
0.0250654
0.0265075
0.0278308
0.02902
0.0300738
0.0309882
0.0316271
0.0315748
0.0299008
0.0250673
0.0159263
0.00261849
0.0253366
0.0265338
0.0277011
0.0288799
0.0300614
0.0312558
0.032425
0.0332593
0.0327351
0.0286432
0.0185969
0.0029665
0.0251802
0.0261638
0.0271322
0.0282683
0.0295483
0.0309339
0.0324301
0.033972
0.0346607
0.0319745
0.0217267
0.0033369
0.0247802
0.0258571
0.0266899
0.0276167
0.0289318
0.0304527
0.0320575
0.0339267
0.0355029
0.0347335
0.0254978
0.00374753
0.0245816
0.0257544
0.0267111
0.0275221
0.0286671
0.0301669
0.0317058
0.0335073
0.0353512
0.0362358
0.029445
0.00422292
0.0157458
0.0162693
0.0176265
0.0190686
0.020351
0.0215038
0.0221999
0.0227032
0.023079
0.0234304
0.0238061
0.0242574
0.0251127
0.0228695
0.0220792
0.0221012
0.0224553
0.0228207
0.0231913
0.0236604
0.0240983
0.0244226
0.0247547
0.025161
0.0314323
0.0289508
0.0271092
0.0259972
0.0254275
0.0251468
0.0251536
0.0252568
0.0253912
0.0255402
0.0259579
0.0264588
0.0333228
0.0315954
0.0300526
0.0287246
0.0278391
0.0272757
0.0269984
0.0268851
0.0270232
0.0272314
0.0275309
0.0280464
0.0249647
0.0261609
0.0271814
0.0279839
0.029011
0.0303154
0.0316012
0.0330842
0.0348561
0.0370857
0.0378032
0.0175645
0.0260047
0.0270929
0.0280454
0.0289538
0.0299278
0.0308165
0.0317579
0.0328397
0.0341887
0.0362376
0.0400915
0.0291563
0.0274844
0.0283146
0.0291867
0.0299185
0.0306646
0.0313364
0.0320397
0.0328577
0.0337208
0.0351158
0.0384582
0.0345364
0.0291063
0.0298053
0.0304589
0.0310676
0.0315346
0.0320478
0.0325498
0.0331195
0.0336668
0.034363
0.0360921
0.0352174
0.0157459
0.0162699
0.0176273
0.0190695
0.0203519
0.0215048
0.0222009
0.0227041
0.0230799
0.0234312
0.0238069
0.024258
0.0251133
0.0228707
0.0220804
0.0221025
0.0224566
0.0228219
0.0231925
0.0236615
0.0240994
0.0244235
0.0247556
0.0251617
0.031434
0.0289526
0.027111
0.025999
0.0254292
0.0251483
0.0251549
0.0252581
0.0253923
0.025541
0.0259586
0.0264593
0.0333248
0.0315977
0.0300553
0.0287269
0.0278409
0.0272771
0.0269996
0.0268862
0.0270242
0.0272313
0.0275312
0.0280466
0.0249652
0.0261613
0.0271818
0.0279842
0.0290111
0.0303154
0.031601
0.0330838
0.0348555
0.0370851
0.0378029
0.0175643
0.0260052
0.0270932
0.0280457
0.0289539
0.0299278
0.0308163
0.0317576
0.0328391
0.034188
0.0362368
0.0400908
0.0291557
0.0274847
0.0283148
0.0291866
0.0299184
0.0306643
0.0313359
0.032039
0.0328569
0.0337199
0.0351148
0.0384571
0.0345354
0.0291061
0.029805
0.0304586
0.0310671
0.0315339
0.032047
0.0325488
0.0331185
0.0336656
0.0343617
0.0360908
0.0352163
0.0157457
0.0162696
0.0176269
0.0190691
0.0203514
0.0215043
0.0222003
0.0227034
0.0230791
0.0234302
0.0238058
0.0242568
0.0251127
0.0228702
0.0220798
0.0221019
0.022456
0.0228213
0.0231918
0.0236606
0.0240985
0.0244225
0.0247545
0.0251605
0.0314331
0.0289518
0.0271102
0.0259982
0.0254283
0.0251474
0.025154
0.0252571
0.0253914
0.0255399
0.0259575
0.0264581
0.0333236
0.0315966
0.0300543
0.028726
0.0278399
0.0272762
0.0269986
0.0268851
0.0270232
0.0272303
0.0275302
0.0280456
0.0249639
0.02616
0.0271805
0.0279827
0.0290093
0.0303136
0.0315991
0.0330819
0.0348535
0.0370831
0.0378016
0.0175639
0.0260039
0.0270919
0.0280444
0.0289525
0.0299263
0.0308147
0.0317559
0.0328374
0.0341862
0.036235
0.0400891
0.0291549
0.0274834
0.0283136
0.0291854
0.0299171
0.030663
0.0313345
0.0320375
0.0328555
0.0337183
0.0351132
0.0384555
0.0345342
0.0291051
0.0298039
0.0304574
0.0310659
0.0315327
0.0320458
0.0325476
0.0331173
0.0336644
0.0343604
0.0360894
0.0352151
0.0157455
0.0162692
0.0176263
0.0190683
0.0203506
0.0215032
0.0221992
0.0227025
0.0230784
0.0234298
0.0238055
0.0242568
0.0251121
0.0228695
0.0220792
0.0221012
0.022455
0.0228202
0.0231908
0.0236598
0.0240977
0.0244219
0.024754
0.0251602
0.0314321
0.028951
0.0271094
0.0259974
0.0254275
0.0251466
0.0251531
0.0252563
0.0253906
0.0255393
0.025957
0.0264579
0.0333227
0.0315958
0.0300535
0.0287253
0.0278392
0.0272755
0.0269979
0.0268844
0.0270226
0.0272298
0.0275298
0.0280454
0.024964
0.0261601
0.0271806
0.0279831
0.0290101
0.0303144
0.0316001
0.033083
0.0348547
0.0370843
0.0378022
0.0175641
0.0260039
0.0270919
0.0280445
0.0289528
0.0299268
0.0308154
0.0317567
0.0328384
0.0341874
0.0362362
0.0400901
0.029155
0.0274833
0.0283136
0.0291856
0.0299174
0.0306634
0.0313351
0.0320384
0.0328563
0.0337194
0.0351143
0.0384568
0.0345339
0.0291052
0.0298042
0.0304577
0.0310663
0.0315333
0.0320465
0.0325484
0.033118
0.0336652
0.0343612
0.0360904
0.0352145
0.0310076
0.0298775
0.0289748
0.0283058
0.0279565
0.0278026
0.0277524
0.0278043
0.0280897
0.0284917
0.0291668
0.0302015
0.0295727
0.0288213
0.0282568
0.0279084
0.0277384
0.027559
0.0273214
0.0271891
0.0270941
0.0270949
0.0274271
0.0284041
0.0282138
0.0276059
0.0272
0.0268917
0.0264473
0.0258636
0.0252389
0.0244929
0.0236104
0.0226988
0.0220863
0.0225615
0.0264786
0.0260051
0.0254215
0.0247505
0.0238397
0.022804
0.0215227
0.019957
0.0181379
0.0161729
0.0144343
0.0134582
0.031551
0.0323233
0.0323544
0.0325605
0.0327077
0.0329365
0.0331159
0.0333116
0.0334667
0.0336314
0.0332467
0.0323661
0.0300297
0.0324025
0.0322357
0.0322888
0.0323545
0.0324267
0.0324662
0.0324466
0.0323052
0.0319265
0.0313339
0.0305649
0.0249934
0.0306532
0.0311156
0.0311487
0.0312201
0.0312524
0.03124
0.0310312
0.0306788
0.0302441
0.0297165
0.0289623
0.0143754
0.027794
0.0295522
0.0295945
0.0296858
0.0296813
0.0295154
0.0292019
0.0288598
0.0284753
0.0279413
0.027144
0.0310103
0.0298794
0.0289767
0.0283071
0.0279576
0.0278034
0.027753
0.0278047
0.0280896
0.0284917
0.0291666
0.030201
0.0295742
0.0288227
0.0282578
0.0279094
0.0277391
0.0275595
0.0273217
0.0271893
0.027094
0.0270946
0.0274267
0.0284035
0.0282149
0.027607
0.0272009
0.0268924
0.0264477
0.025864
0.025239
0.0244929
0.0236103
0.0226985
0.0220858
0.0225609
0.0264794
0.0260059
0.0254221
0.0247509
0.0238401
0.0228042
0.0215228
0.019957
0.0181377
0.0161726
0.0144339
0.0134578
0.0315504
0.0323224
0.0323535
0.0325594
0.0327065
0.0329353
0.0331147
0.0333104
0.0334655
0.0336301
0.0332455
0.0323649
0.0300289
0.0324013
0.0322344
0.0322875
0.0323531
0.0324253
0.0324649
0.0324452
0.0323038
0.0319251
0.0313326
0.0305636
0.0249925
0.0306519
0.0311141
0.0311472
0.0312187
0.0312509
0.0312386
0.0310298
0.0306775
0.0302427
0.0297152
0.0289611
0.0143749
0.0277927
0.0295507
0.0295929
0.0296843
0.0296798
0.029514
0.0292006
0.0288584
0.028474
0.0279401
0.0271429
0.0310091
0.0298783
0.0289756
0.0283061
0.0279566
0.0278024
0.0277521
0.0278038
0.0280887
0.0284907
0.0291657
0.0302001
0.0295731
0.0288216
0.0282568
0.0279083
0.0277381
0.0275586
0.0273209
0.0271885
0.0270932
0.0270939
0.027426
0.0284028
0.0282138
0.0276059
0.0271998
0.0268915
0.026447
0.0258632
0.0252383
0.0244923
0.0236097
0.022698
0.0220854
0.0225604
0.0264783
0.0260049
0.0254213
0.0247502
0.0238394
0.0228036
0.0215222
0.0199565
0.0181374
0.0161723
0.0144337
0.0134576
0.0315495
0.0323214
0.0323524
0.0325584
0.0327055
0.0329343
0.0331137
0.0333094
0.0334644
0.0336291
0.0332445
0.032364
0.0300282
0.0324005
0.0322336
0.0322867
0.0323523
0.0324245
0.032464
0.0324444
0.032303
0.0319244
0.0313318
0.030563
0.024992
0.0306512
0.0311134
0.0311465
0.031218
0.0312503
0.0312379
0.0310292
0.0306769
0.0302422
0.0297147
0.0289606
0.0143746
0.0277922
0.0295501
0.0295923
0.0296837
0.0296793
0.0295135
0.0292001
0.0288579
0.0284736
0.0279396
0.0271424
0.0310084
0.0298776
0.028975
0.0283055
0.027956
0.0278019
0.0277516
0.0278034
0.0280884
0.0284906
0.0291657
0.0302003
0.0295725
0.0288211
0.0282563
0.0279078
0.0277376
0.0275582
0.0273205
0.0271881
0.027093
0.0270938
0.0274261
0.028403
0.0282133
0.0276055
0.0271994
0.026891
0.0264465
0.0258628
0.0252379
0.0244919
0.0236095
0.0226979
0.0220854
0.0225606
0.0264779
0.0260045
0.0254208
0.0247497
0.0238388
0.0228031
0.0215218
0.0199562
0.0181372
0.0161723
0.0144338
0.0134578
0.0315497
0.0323219
0.0323529
0.032559
0.0327062
0.0329349
0.0331143
0.0333099
0.0334649
0.0336294
0.0332446
0.0323638
0.0300284
0.032401
0.0322341
0.0322873
0.0323529
0.0324251
0.0324646
0.0324449
0.0323033
0.0319245
0.0313318
0.0305625
0.0249924
0.0306517
0.031114
0.0311472
0.0312186
0.0312508
0.0312385
0.0310296
0.0306772
0.0302424
0.0297149
0.0289609
0.014375
0.0277927
0.0295507
0.029593
0.0296843
0.0296799
0.029514
0.0292005
0.0288583
0.0284738
0.02794
0.0271433
0.0242922
0.0235815
0.0226354
0.0215753
0.0202425
0.0186596
0.0167168
0.0144
0.0117134
0.00876486
0.00535953
0.0027475
0.0213402
0.0203253
0.0190683
0.0176154
0.0158494
0.0137765
0.0113228
0.00852389
0.00534013
0.00251761
0.00115217
0.00111902
0.0177267
0.0163943
0.0147974
0.0129436
0.0107473
0.00822592
0.00523635
0.00226676
0.000671899
0.000346858
0.000358897
0.000469448
0.0134964
0.0118288
0.00987501
0.00761978
0.00491704
0.00216849
0.000570839
0.000279596
0.000260027
0.000323351
0.000292024
0.000292582
0.0087158
0.00669027
0.00430587
0.00195193
0.000558079
0.000330697
0.000272915
0.000309811
0.000300445
0.000295002
0.000293678
0.000288846
0.0034056
0.0015427
0.000534657
0.000341353
0.000320172
0.000315905
0.000313537
0.000309283
0.000306893
0.000303294
0.000301398
0.000299869
0.000463563
0.00046267
0.000337875
0.000331383
0.000327454
0.000324438
0.000321602
0.000318594
0.000315608
0.000312986
0.000310857
0.000308867
0.000351852
0.000347206
0.000341076
0.000338421
0.000335297
0.00033272
0.000329735
0.000327231
0.000324335
0.000322148
0.000320233
0.000318206
0.000353577
0.000350359
0.000347933
0.000345072
0.000342588
0.000339914
0.000337475
0.000335022
0.000332774
0.000330726
0.00032908
0.000326827
0.0003523
0.000350511
0.000348672
0.00034685
0.000344981
0.000343116
0.000341192
0.000339242
0.00033722
0.000335177
0.000333105
0.000331099
0.000301364
0.000303261
0.000304772
0.000305909
0.000307209
0.000308503
0.000310047
0.000311755
0.000313753
0.000315887
0.000318138
0.000319964
9.2832e-05
9.22779e-05
9.23855e-05
9.20245e-05
9.21006e-05
9.18898e-05
9.19634e-05
9.19274e-05
9.20123e-05
9.2111e-05
9.23013e-05
9.25313e-05
0.00427411
0.0241654
0.0277887
0.0277307
0.0278215
0.0276388
0.0273657
0.0271044
0.0268293
0.0264309
0.0257909
0.0249978
0.00412131
0.0222406
0.0258848
0.025539
0.0254674
0.0252218
0.025034
0.0248338
0.0244946
0.0239371
0.023135
0.022243
0.00402207
0.020381
0.0234177
0.022988
0.0228177
0.0226925
0.0225162
0.022173
0.021653
0.0208422
0.0198924
0.0188719
0.00391
0.0182563
0.0205116
0.020276
0.0201608
0.0199178
0.0195717
0.0190115
0.0181921
0.0172478
0.0161526
0.0149234
0.00376074
0.0159438
0.0175867
0.0174406
0.0171707
0.0167491
0.0161139
0.0153063
0.0143458
0.0132183
0.0119199
0.0104363
0.00354663
0.013569
0.0147468
0.0143004
0.0138084
0.013083
0.0122786
0.0112582
0.0101399
0.0088032
0.00725122
0.00543937
0.003281
0.0107047
0.0116862
0.0106102
0.0101461
0.00914005
0.00819972
0.00688398
0.00551943
0.00389839
0.00238648
0.00106153
0.00292793
0.00759446
0.00825908
0.00672765
0.00624666
0.00476359
0.00377188
0.00239028
0.00143319
0.000665921
0.00040143
0.000403419
0.00240281
0.00395239
0.00431272
0.00270374
0.00239954
0.00115717
0.000874533
0.000495573
0.000409521
0.000368184
0.000362026
0.000358798
0.00180719
0.00110577
0.00126351
0.000617769
0.000574524
0.00038718
0.000376518
0.00035261
0.000358802
0.000355945
0.000355955
0.000354134
0.00119204
0.000225669
0.000298293
0.000246416
0.000273737
0.000265716
0.000283884
0.000287208
0.000291326
0.000293947
0.000297106
0.000299119
0.000414751
0.000106097
0.000105336
9.95768e-05
9.94151e-05
9.60578e-05
9.65316e-05
9.4283e-05
9.46839e-05
9.32714e-05
9.35377e-05
9.2659e-05
0.0242926
0.0235821
0.0226359
0.0215757
0.0202428
0.0186597
0.0167168
0.0143999
0.0117133
0.00876462
0.00535936
0.00274738
0.0213409
0.0203257
0.0190686
0.0176156
0.0158495
0.0137765
0.0113227
0.00852369
0.00533983
0.00251731
0.00115198
0.00111886
0.0177271
0.0163946
0.0147976
0.0129437
0.0107473
0.0082258
0.00523609
0.00226644
0.000671719
0.000346725
0.000358748
0.000469286
0.0134966
0.0118289
0.00987507
0.00761975
0.00491691
0.00216829
0.000570773
0.000279738
0.000259965
0.000323329
0.000292046
0.000292598
0.00871586
0.00669025
0.00430577
0.00195173
0.000558196
0.000330796
0.00027283
0.000309761
0.000300446
0.000295
0.000293678
0.000288846
0.00340551
0.00154277
0.000534816
0.000341281
0.000320172
0.000315899
0.000313541
0.000309278
0.000306896
0.00030329
0.000301398
0.000299868
0.000463489
0.000462333
0.000337885
0.000331455
0.000327452
0.000324437
0.0003216
0.000318594
0.000315607
0.000312986
0.000310858
0.000308867
0.000351856
0.000347207
0.000341077
0.000338418
0.000335295
0.000332718
0.000329734
0.000327229
0.000324333
0.000322147
0.000320231
0.000318203
0.000353609
0.000350367
0.000347926
0.00034507
0.000342586
0.000339912
0.000337474
0.000335021
0.000332773
0.000330725
0.000329079
0.000326826
0.0003523
0.00035051
0.000348671
0.000346849
0.00034498
0.000343115
0.000341191
0.000339242
0.00033722
0.000335177
0.000333104
0.000331098
0.000301385
0.000303263
0.000304773
0.000305911
0.00030721
0.000308504
0.000310048
0.000311756
0.000313754
0.000315887
0.000318138
0.000319965
9.28317e-05
9.22777e-05
9.23853e-05
9.20244e-05
9.21005e-05
9.18897e-05
9.19633e-05
9.19274e-05
9.20122e-05
9.2111e-05
9.23013e-05
9.25313e-05
0.00427397
0.0241643
0.0277873
0.0277292
0.0278201
0.0276374
0.0273644
0.027103
0.026828
0.0264297
0.0257898
0.0249968
0.00412118
0.0222395
0.0258834
0.0255376
0.0254661
0.0252204
0.0250326
0.0248325
0.0244934
0.023936
0.023134
0.0222422
0.00402194
0.02038
0.0234164
0.0229866
0.0228163
0.0226912
0.022515
0.0221718
0.021652
0.0208413
0.0198916
0.0188712
0.00390988
0.0182553
0.0205104
0.0202747
0.0201595
0.0199167
0.0195706
0.0190105
0.0181913
0.017247
0.0161519
0.0149229
0.00376061
0.0159428
0.0175854
0.0174394
0.0171696
0.016748
0.016113
0.0153054
0.0143451
0.0132176
0.0119194
0.0104358
0.0035465
0.0135681
0.0147456
0.0142993
0.0138074
0.0130821
0.0122778
0.0112576
0.0101393
0.00880268
0.00725079
0.00543901
0.00328088
0.0107038
0.0116852
0.0106093
0.0101453
0.00913932
0.00819906
0.00688341
0.00551895
0.00389801
0.00238623
0.0010614
0.0029278
0.00759372
0.00825819
0.00672689
0.00624596
0.00476296
0.00377141
0.00238992
0.00143298
0.000665839
0.000401413
0.00040341
0.00240268
0.00395174
0.00431202
0.00270324
0.0023991
0.00115695
0.000874388
0.000495551
0.000409525
0.000368181
0.000362026
0.000358798
0.00180707
0.00110554
0.00126323
0.000617669
0.00057444
0.000387167
0.000376511
0.000352611
0.000358802
0.000355946
0.000355955
0.000354135
0.00119195
0.000225649
0.000298265
0.000246416
0.000273736
0.00026572
0.000283887
0.000287211
0.000291329
0.00029395
0.000297109
0.000299121
0.000414721
0.000106096
0.000105334
9.95758e-05
9.94143e-05
9.6057e-05
9.6531e-05
9.42826e-05
9.46834e-05
9.32712e-05
9.35374e-05
9.26589e-05
0.0242917
0.0235812
0.0226352
0.021575
0.0202422
0.0186592
0.0167164
0.0143996
0.011713
0.00876446
0.00535929
0.00274736
0.0213401
0.0203251
0.019068
0.0176151
0.0158491
0.0137762
0.0113224
0.00852351
0.00533975
0.00251733
0.00115204
0.00111889
0.0177265
0.016394
0.0147971
0.0129433
0.010747
0.00822559
0.00523598
0.00226644
0.000671775
0.000346805
0.000358816
0.000469357
0.0134961
0.0118285
0.00987472
0.00761948
0.00491673
0.00216821
0.000570762
0.000279708
0.000259999
0.000323334
0.000292046
0.000292605
0.00871547
0.00668994
0.00430552
0.0019516
0.000558165
0.000330781
0.000272857
0.000309761
0.000300447
0.000295
0.000293679
0.000288847
0.00340525
0.00154263
0.000534776
0.00034128
0.000320171
0.000315899
0.00031354
0.000309279
0.000306896
0.000303291
0.000301399
0.000299868
0.000463464
0.000462363
0.000337884
0.000331456
0.000327452
0.000324438
0.000321601
0.000318594
0.000315607
0.000312986
0.000310858
0.000308867
0.000351855
0.000347206
0.000341077
0.000338418
0.000335295
0.000332718
0.000329735
0.00032723
0.000324333
0.000322147
0.000320231
0.000318204
0.000353609
0.000350367
0.000347927
0.000345071
0.000342587
0.000339913
0.000337475
0.000335022
0.000332774
0.000330725
0.00032908
0.000326826
0.0003523
0.000350511
0.000348672
0.00034685
0.000344981
0.000343116
0.000341192
0.000339242
0.00033722
0.000335177
0.000333105
0.000331099
0.000301388
0.000303265
0.000304775
0.000305913
0.000307211
0.000308506
0.00031005
0.000311757
0.000313755
0.000315889
0.000318139
0.000319966
9.28315e-05
9.22777e-05
9.23853e-05
9.20245e-05
9.21006e-05
9.18898e-05
9.19634e-05
9.19275e-05
9.20124e-05
9.21112e-05
9.23015e-05
9.25315e-05
0.00427395
0.0241639
0.0277868
0.0277287
0.0278196
0.0276369
0.027364
0.0271026
0.0268276
0.0264293
0.0257894
0.0249964
0.00412116
0.0222392
0.025883
0.0255372
0.0254657
0.0252201
0.0250323
0.0248322
0.0244931
0.0239357
0.0231337
0.0222418
0.00402194
0.0203798
0.0234161
0.0229863
0.022816
0.0226909
0.0225147
0.0221715
0.0216517
0.020841
0.0198913
0.0188708
0.00390988
0.0182552
0.0205102
0.0202745
0.0201593
0.0199164
0.0195704
0.0190103
0.018191
0.0172467
0.0161517
0.0149226
0.00376062
0.0159428
0.0175853
0.0174392
0.0171694
0.0167478
0.0161128
0.0153052
0.0143449
0.0132174
0.0119192
0.0104356
0.00354652
0.0135681
0.0147456
0.0142993
0.0138073
0.013082
0.0122777
0.0112574
0.0101392
0.00880254
0.00725066
0.00543891
0.00328091
0.0107039
0.0116852
0.0106093
0.0101452
0.00913923
0.00819898
0.00688332
0.00551887
0.00389794
0.0023862
0.00106139
0.00292784
0.0075938
0.00825829
0.00672689
0.00624597
0.00476294
0.00377139
0.00238989
0.00143297
0.000665831
0.000401421
0.000403416
0.00240273
0.00395187
0.00431214
0.0027033
0.00239915
0.00115696
0.000874393
0.000495549
0.000409523
0.000368184
0.000362028
0.0003588
0.00180714
0.0011056
0.0012633
0.000617688
0.000574455
0.000387169
0.000376512
0.000352611
0.000358803
0.000355947
0.000355956
0.000354136
0.00119201
0.000225656
0.000298271
0.000246413
0.000273732
0.000265716
0.000283883
0.000287207
0.000291326
0.000293947
0.000297106
0.000299119
0.00041476
0.000106098
0.000105336
9.95774e-05
9.94155e-05
9.60581e-05
9.65319e-05
9.42832e-05
9.46841e-05
9.32716e-05