/*--------------------------------*- C++ -*----------------------------------*\
| =========                 |                                                 |
| \\      /  F ield         | OpenFOAM: The Open Source CFD Toolbox           |
|  \\    /   O peration     | Version:  2212                                  |
|   \\  /    A nd           | Website:  www.openfoam.com                      |
|    \\/     M anipulation  |                                                 |
\*---------------------------------------------------------------------------*/
FoamFile
{
    version     2.0;
    format      ascii;
    arch        "LSB;label=32;scalar=64";
    class       volScalarField;
    location    "0.02";
    object      nut;
}
// * * * * * * * * * * * * * * * * * * * * * * * * * * * * * * * * * * * * * //

dimensions      [0 2 -1 0 0 0 0];

internalField   nonuniform List<scalar> 
3072
(
0.000303308
0.000634712
0.000651173
0.000646574
0.000617757
0.000599943
0.000698509
0.00123742
0.00160564
0.0017392
0.00181231
0.00186432
0.000490417
0.001252
0.00163674
0.00146653
0.00087671
0.000887661
0.00157812
0.00216419
0.00333028
0.00465896
0.00641894
0.00825678
0.00064068
0.00229059
0.00250439
0.00204764
0.00183372
0.0025516
0.00397019
0.00586395
0.00834404
0.0110334
0.01361
0.0159711
0.000808189
0.00310285
0.00295215
0.00272684
0.00336248
0.00527867
0.00770749
0.010517
0.0135663
0.0165815
0.0192885
0.0216473
0.000932508
0.00399109
0.00425736
0.00438778
0.0060126
0.00856557
0.0114318
0.0145742
0.0177346
0.020731
0.0234144
0.025745
0.00104151
0.00505884
0.00591118
0.00657701
0.00866745
0.0114831
0.0145236
0.0176618
0.0207509
0.0236381
0.026235
0.0285032
0.001113
0.00570159
0.00719792
0.00864801
0.0110847
0.0139785
0.0169682
0.0199886
0.0228934
0.0255984
0.0280459
0.0302066
0.00118771
0.0066406
0.00867135
0.010818
0.0135686
0.0164705
0.0193495
0.0221438
0.0247644
0.0271715
0.0293407
0.0312512
0.00127729
0.00751756
0.0107522
0.0136755
0.0165865
0.019297
0.0217953
0.0241042
0.026223
0.0281544
0.0299184
0.0314983
0.00140577
0.00863772
0.0130436
0.0164652
0.0191958
0.0214924
0.0234431
0.0251985
0.0268008
0.0282989
0.0297107
0.0310388
0.00160094
0.00842228
0.0144721
0.0180068
0.0204343
0.0223835
0.0240504
0.0255502
0.0268667
0.0281245
0.0293216
0.0304576
0.00288689
0.0086118
0.0156195
0.0193125
0.0214949
0.0233432
0.0248142
0.0260807
0.0272004
0.0282335
0.0292073
0.0301317
0.00189238
0.00190653
0.00190735
0.00190495
0.00188514
0.00184919
0.00179324
0.00171345
0.00160413
0.0014649
0.00126692
0.000614194
0.00995985
0.0112779
0.0120733
0.0122027
0.0118586
0.0111019
0.00994008
0.00839206
0.00647099
0.00394001
0.00187472
0.00104215
0.0178614
0.0191487
0.0197539
0.0198162
0.0193206
0.0182448
0.0165801
0.0142892
0.0113427
0.00773507
0.00344436
0.00136902
0.0235641
0.0249505
0.0257516
0.0260173
0.02569
0.0247079
0.0229756
0.0203686
0.0167268
0.0119648
0.00592251
0.00167161
0.0276669
0.0291353
0.030121
0.0306023
0.0305262
0.0298176
0.0283376
0.025846
0.0219074
0.0162926
0.00869401
0.00196757
0.0304094
0.0319298
0.0330491
0.0337462
0.0339951
0.0337157
0.0327125
0.0306231
0.0268991
0.0208027
0.011911
0.00227433
0.032051
0.0335596
0.0347267
0.035564
0.0360853
0.0362433
0.0358549
0.0344821
0.031321
0.0251993
0.0153092
0.00259233
0.0328883
0.0342491
0.0353488
0.0362337
0.0369372
0.0374596
0.0376849
0.0371931
0.0349851
0.0292476
0.018431
0.0029462
0.0328854
0.0340843
0.0351108
0.0360061
0.036816
0.0375873
0.0383072
0.0386911
0.037731
0.0329567
0.0212714
0.00333095
0.0322474
0.0333413
0.034316
0.035203
0.0360653
0.0369561
0.0379584
0.0390051
0.0393277
0.036259
0.0244819
0.00373888
0.0315232
0.0325118
0.0334034
0.0342544
0.0350515
0.0358866
0.036967
0.0382465
0.0394648
0.0383918
0.0281796
0.00418777
0.0310088
0.0318396
0.03262
0.0334057
0.0341844
0.0348938
0.0356719
0.0369436
0.0386132
0.0393779
0.0321031
0.00470491
0.000292983
0.000617297
0.000636008
0.000632463
0.000610474
0.000582417
0.0006206
0.000956063
0.00144494
0.00162516
0.0016997
0.00175739
0.000472949
0.00119741
0.00161988
0.00156385
0.00101259
0.000777843
0.00144778
0.0018093
0.00274049
0.00389197
0.00548394
0.00714655
0.000613838
0.00215402
0.00257128
0.00216405
0.0018976
0.0020645
0.00321041
0.00474622
0.00693242
0.00950786
0.0119773
0.0142068
0.000771121
0.00302463
0.00291048
0.00258628
0.00280602
0.00412474
0.00638811
0.0089296
0.0117951
0.0147163
0.0173265
0.0196043
0.000890252
0.00375904
0.00383017
0.00376782
0.00486723
0.00726926
0.00993352
0.0128268
0.015831
0.0187124
0.021286
0.0235295
0.000994184
0.00472436
0.00535634
0.00576927
0.00756144
0.0101716
0.0129985
0.0159231
0.0188032
0.0215504
0.0240269
0.0261991
0.00107097
0.00542299
0.00673077
0.00793781
0.0101644
0.0128567
0.0156196
0.0183945
0.0210963
0.0236146
0.0258946
0.0279174
0.00115181
0.00641391
0.00828145
0.01037
0.012906
0.0155522
0.0181486
0.0206657
0.023048
0.0252331
0.0272095
0.0289657
0.00124748
0.00737585
0.0105463
0.0133112
0.0159607
0.0183823
0.0205906
0.0226267
0.0244951
0.0262043
0.027776
0.0291992
0.001379
0.00856242
0.0127392
0.0158243
0.0183038
0.0203318
0.0220469
0.0235843
0.0249857
0.0262976
0.0275585
0.0287569
0.00156844
0.00820735
0.0137985
0.0170712
0.0192784
0.0210409
0.0225139
0.0238019
0.024974
0.0260736
0.0271318
0.0281791
0.00280727
0.00816803
0.0146944
0.0181475
0.0200684
0.0216937
0.0229891
0.024104
0.0251109
0.0260483
0.0269441
0.0278211
0.00178788
0.0018064
0.00180892
0.00180842
0.00179649
0.00176448
0.00171584
0.00164324
0.00154336
0.00141196
0.00122237
0.000590592
0.00880561
0.0101793
0.0110147
0.011225
0.0109164
0.0102489
0.00919691
0.00780095
0.00602833
0.00369537
0.00178372
0.00100589
0.0160941
0.0174484
0.018142
0.0182216
0.0178071
0.0168527
0.0153509
0.0132566
0.0105573
0.00722858
0.00324643
0.00132454
0.0214771
0.0228681
0.0237182
0.0240357
0.0237976
0.0229358
0.0213719
0.0189674
0.0156202
0.0112294
0.00558586
0.00161724
0.0253994
0.0268529
0.0278573
0.0283838
0.0283837
0.0277837
0.0264566
0.0241798
0.0205022
0.0152864
0.00819173
0.00190485
0.0280416
0.0295318
0.0306515
0.0313764
0.0316735
0.0314688
0.0305802
0.0286711
0.0252357
0.0195472
0.011254
0.00220245
0.029665
0.0311188
0.0322683
0.0331162
0.0336696
0.0338838
0.0335852
0.0323588
0.0294481
0.0237436
0.014502
0.0025114
0.0304973
0.0317995
0.0328748
0.0337559
0.0344756
0.0350356
0.0353259
0.0349454
0.032948
0.0276352
0.0175476
0.00285401
0.0304892
0.0316413
0.0326472
0.0335327
0.0343451
0.0351386
0.0359028
0.0363649
0.0355657
0.0311734
0.020282
0.00323136
0.0298908
0.0309369
0.0318797
0.0327535
0.0336044
0.0345151
0.0355511
0.0366509
0.0371281
0.034299
0.0234087
0.00363418
0.0291884
0.0301485
0.0310454
0.031894
0.0326878
0.0335169
0.0346138
0.0360106
0.0372767
0.0365583
0.0271355
0.00408499
0.0286803
0.0295157
0.0303258
0.0311585
0.0319708
0.032684
0.0334879
0.0347349
0.0364736
0.0375207
0.0312049
0.00462218
0.000303284
0.000634673
0.000651129
0.000646531
0.000617722
0.000599899
0.000698363
0.00123709
0.00160551
0.00173912
0.00181223
0.00186425
0.000490382
0.00125182
0.00163669
0.00146642
0.000876826
0.000887635
0.00157789
0.0021638
0.00332967
0.00465803
0.00641791
0.00825564
0.000640637
0.00229023
0.00250458
0.00204807
0.00183389
0.0025509
0.00396912
0.00586264
0.00834235
0.0110318
0.0136083
0.0159694
0.000808134
0.00310288
0.0029522
0.00272671
0.00336135
0.00527686
0.00770563
0.0105151
0.0135642
0.0165795
0.0192866
0.0216454
0.000932445
0.0039906
0.00425636
0.00438631
0.0060104
0.00856366
0.0114298
0.0145721
0.0177325
0.0207289
0.0234124
0.025743
0.00104144
0.00505813
0.00590972
0.00657501
0.00866532
0.0114811
0.0145215
0.0176596
0.0207487
0.023636
0.0262329
0.0285011
0.00111294
0.00570087
0.00719648
0.00864601
0.0110827
0.0139765
0.0169662
0.0199866
0.0228914
0.0255963
0.0280438
0.0302046
0.00118767
0.00664007
0.00867013
0.0108166
0.0135671
0.0164689
0.0193477
0.022142
0.0247625
0.0271696
0.0293387
0.0312493
0.00127728
0.00751736
0.0107518
0.013675
0.0165858
0.0192959
0.021794
0.0241027
0.0262214
0.0281527
0.0299166
0.0314965
0.0014058
0.00863821
0.0130441
0.0164653
0.0191956
0.0214918
0.0234422
0.0251974
0.0267996
0.0282975
0.0297092
0.0310372
0.00160099
0.00842295
0.0144726
0.018007
0.0204343
0.0223834
0.02405
0.0255495
0.0268658
0.0281235
0.0293204
0.0304563
0.00288688
0.00861207
0.0156198
0.0193128
0.021495
0.0233432
0.0248141
0.0260803
0.0271998
0.0282328
0.0292065
0.0301307
0.00189231
0.00190647
0.00190729
0.0019049
0.00188509
0.00184915
0.0017932
0.00171342
0.0016041
0.00146487
0.00126691
0.000614186
0.00995873
0.011277
0.0120724
0.0122019
0.0118579
0.0111013
0.00993957
0.00839168
0.00647073
0.00393987
0.00187467
0.00104213
0.0178597
0.0191472
0.0197526
0.0198149
0.0193195
0.0182438
0.0165793
0.0142886
0.0113423
0.00773479
0.00344425
0.001369
0.0235623
0.0249488
0.0257499
0.0260157
0.0256886
0.0247066
0.0229745
0.0203677
0.0167261
0.0119643
0.00592232
0.00167158
0.027665
0.0291334
0.0301191
0.0306005
0.0305246
0.029816
0.0283362
0.0258449
0.0219065
0.016292
0.00869373
0.00196754
0.0304073
0.0319278
0.0330472
0.0337443
0.0339933
0.033714
0.0327109
0.0306217
0.026898
0.0208019
0.0119106
0.00227429
0.032049
0.0335576
0.0347247
0.0355621
0.0360834
0.0362414
0.0358532
0.0344806
0.0313197
0.0251984
0.0153087
0.00259229
0.0328863
0.0342471
0.0353468
0.0362318
0.0369353
0.0374577
0.0376831
0.0371915
0.0349837
0.0292466
0.0184305
0.00294615
0.0328836
0.0340825
0.035109
0.0360042
0.0368141
0.0375853
0.0383053
0.0386893
0.0377295
0.0329555
0.0212708
0.00333089
0.0322458
0.0333396
0.0343142
0.0352012
0.0360635
0.0369542
0.0379565
0.0390033
0.0393261
0.0362576
0.0244813
0.00373882
0.0315218
0.0325103
0.033402
0.0342529
0.0350499
0.0358849
0.0369653
0.0382448
0.039463
0.0383904
0.028179
0.00418771
0.0310077
0.0318384
0.0326187
0.0334043
0.034183
0.0348924
0.0356703
0.0369419
0.0386115
0.0393763
0.0321024
0.00470484
0.000292997
0.00061732
0.000636028
0.000632484
0.000610493
0.000582437
0.00062063
0.000956154
0.00144499
0.00162518
0.00169972
0.00175741
0.000472969
0.00119745
0.00161991
0.00156387
0.0010125
0.000777902
0.00144786
0.00180939
0.00274072
0.00389217
0.00548421
0.00714683
0.000613865
0.00215414
0.00257118
0.00216388
0.00189732
0.00206461
0.00321073
0.00474661
0.0069329
0.00950833
0.0119778
0.0142073
0.000771156
0.00302461
0.00291044
0.00258632
0.00280608
0.00412547
0.00638879
0.00893026
0.0117958
0.0147169
0.0173271
0.0196048
0.000890289
0.00375925
0.00383047
0.00376825
0.00486819
0.00727026
0.00993428
0.0128276
0.0158317
0.018713
0.0212865
0.02353
0.000994221
0.00472473
0.0053569
0.00577008
0.00756243
0.0101724
0.0129993
0.0159238
0.0188039
0.021551
0.0240274
0.0261997
0.001071
0.00542331
0.00673141
0.0079387
0.0101653
0.0128575
0.0156203
0.0183951
0.0210969
0.0236151
0.025895
0.0279179
0.00115183
0.00641416
0.00828196
0.0103705
0.0129065
0.0155527
0.018149
0.0206661
0.0230483
0.0252335
0.0272099
0.0289661
0.00124748
0.00737584
0.0105463
0.0133111
0.0159607
0.0183824
0.0205907
0.0226268
0.0244953
0.0262045
0.0277763
0.0291995
0.00137898
0.00856201
0.0127387
0.0158239
0.0183036
0.0203316
0.0220469
0.0235843
0.0249858
0.0262977
0.0275587
0.0287571
0.0015684
0.00820686
0.0137981
0.0170708
0.0192781
0.0210406
0.0225137
0.0238017
0.0249739
0.0260735
0.0271317
0.0281792
0.00280724
0.00816775
0.0146941
0.0181471
0.020068
0.0216932
0.0229887
0.0241036
0.0251105
0.026048
0.0269439
0.027821
0.00178789
0.00180641
0.00180893
0.00180843
0.0017965
0.00176449
0.00171585
0.00164324
0.00154337
0.00141197
0.00122238
0.000590596
0.00880586
0.0101795
0.0110149
0.0112251
0.0109165
0.010249
0.00919698
0.007801
0.00602836
0.00369539
0.00178373
0.0010059
0.0160945
0.0174488
0.0181422
0.0182218
0.0178073
0.0168528
0.015351
0.0132567
0.0105573
0.00722863
0.00324645
0.00132455
0.0214775
0.0228685
0.0237185
0.024036
0.0237978
0.022936
0.0213721
0.0189675
0.0156203
0.0112295
0.00558589
0.00161725
0.0253999
0.0268533
0.0278576
0.0283842
0.028384
0.027784
0.0264568
0.02418
0.0205023
0.0152864
0.00819177
0.00190486
0.0280421
0.0295322
0.0306519
0.0313768
0.0316738
0.0314691
0.0305805
0.0286713
0.0252359
0.0195473
0.011254
0.00220246
0.0296655
0.0311192
0.0322687
0.0331165
0.03367
0.0338841
0.0335855
0.0323591
0.0294483
0.0237438
0.0145021
0.00251141
0.0304977
0.0317999
0.0328752
0.0337562
0.034476
0.0350359
0.0353262
0.0349457
0.0329482
0.0276353
0.0175477
0.00285402
0.0304895
0.0316417
0.0326475
0.033533
0.0343454
0.0351389
0.0359031
0.0363652
0.035566
0.0311736
0.0202821
0.00323138
0.0298911
0.0309371
0.03188
0.0327537
0.0336046
0.0345154
0.0355514
0.0366513
0.0371284
0.0342993
0.0234088
0.0036342
0.0291884
0.0301486
0.0310455
0.0318941
0.0326879
0.0335171
0.034614
0.036011
0.037277
0.0365586
0.0271357
0.00408501
0.0286803
0.0295156
0.0303258
0.0311585
0.0319709
0.0326841
0.0334881
0.0347351
0.036474
0.0375212
0.0312052
0.0046222
0.0176998
0.0184924
0.0200853
0.021785
0.0234269
0.0249008
0.0260458
0.0270596
0.0279557
0.02876
0.0294997
0.0301875
0.0277663
0.0259194
0.0255367
0.0258383
0.0265122
0.0270777
0.0276258
0.028355
0.0289991
0.0295291
0.0299917
0.0304071
0.0341809
0.0323431
0.0310847
0.0302993
0.0299821
0.0298613
0.0298682
0.0299579
0.0300513
0.0301434
0.0302682
0.0303981
0.036372
0.0350901
0.0338718
0.0328373
0.032028
0.0313784
0.0308998
0.0306059
0.0303484
0.030111
0.0299201
0.0297008
0.0308321
0.0314439
0.0320244
0.0326026
0.0332178
0.0339933
0.0347376
0.0356139
0.0371132
0.0391417
0.0399988
0.0186317
0.0307859
0.0311499
0.0315097
0.0318909
0.0323113
0.0328121
0.0335503
0.0342686
0.0353986
0.0374396
0.0416274
0.0306389
0.0304938
0.030604
0.030745
0.0309661
0.0312768
0.0316902
0.0322937
0.0330951
0.0341023
0.0356151
0.0394938
0.0360135
0.0295383
0.029503
0.0296183
0.0299693
0.0304379
0.0310271
0.0317761
0.0327151
0.0337964
0.0349318
0.0374231
0.037217
0.0166788
0.0171903
0.0185332
0.0201334
0.0215449
0.0227553
0.0237908
0.0247365
0.025597
0.0263822
0.0271213
0.0278339
0.0264643
0.0243701
0.0236458
0.0237203
0.024044
0.024503
0.0250598
0.0257856
0.0264391
0.0270123
0.0275582
0.0280704
0.0329781
0.0307558
0.0289883
0.0279928
0.0273737
0.0272034
0.0272225
0.0273668
0.0275727
0.0277336
0.0279466
0.0281861
0.0353475
0.0335554
0.0320213
0.0307102
0.0296765
0.0290104
0.0285442
0.0282173
0.0280585
0.027936
0.0278478
0.0277874
0.0285286
0.0292023
0.0298502
0.030488
0.0311635
0.0319278
0.0325794
0.0335756
0.0351826
0.0374311
0.0393848
0.0190788
0.0285729
0.0290525
0.0295026
0.0299428
0.0303886
0.0309999
0.0316123
0.0323157
0.0336462
0.0358923
0.0408223
0.0313905
0.0284834
0.0287315
0.028932
0.0291308
0.0293698
0.0297809
0.0303873
0.0310527
0.0323225
0.0339861
0.0382919
0.0365456
0.0277358
0.0276775
0.0276723
0.0277455
0.0279513
0.0284907
0.0291709
0.0300011
0.0314187
0.0328468
0.0360729
0.0370484
0.0176995
0.0184922
0.0200851
0.0217848
0.0234266
0.0249007
0.0260456
0.0270593
0.0279553
0.0287594
0.029499
0.0301867
0.0277659
0.0259188
0.0255361
0.0258377
0.0265117
0.0270774
0.0276254
0.0283545
0.0289986
0.0295285
0.0299911
0.0304064
0.03418
0.032342
0.0310835
0.0302983
0.0299811
0.0298605
0.0298675
0.0299572
0.0300506
0.0301428
0.0302675
0.0303974
0.0363706
0.0350884
0.0338703
0.032836
0.0320268
0.0313774
0.0308988
0.030605
0.0303476
0.0301102
0.0299193
0.0297001
0.0308312
0.0314429
0.0320233
0.0326015
0.0332166
0.033992
0.0347363
0.0356125
0.0371116
0.03914
0.0399977
0.0186315
0.0307851
0.0311491
0.0315088
0.03189
0.0323103
0.032811
0.0335492
0.0342674
0.0353972
0.0374381
0.0416259
0.0306383
0.0304931
0.0306033
0.0307442
0.0309653
0.0312759
0.0316892
0.0322926
0.0330939
0.034101
0.0356137
0.0394922
0.0360125
0.0295376
0.0295023
0.0296175
0.0299684
0.0304369
0.0310262
0.031775
0.032714
0.0337952
0.0349306
0.0374218
0.037216
0.0166787
0.0171903
0.018533
0.0201331
0.0215446
0.0227549
0.0237904
0.0247362
0.0255966
0.0263819
0.027121
0.0278337
0.026464
0.0243699
0.0236455
0.0237201
0.0240437
0.0245028
0.0250595
0.0257853
0.0264388
0.0270121
0.027558
0.0280702
0.0329774
0.0307553
0.0289879
0.0279925
0.0273734
0.0272032
0.0272223
0.0273666
0.0275725
0.0277335
0.0279464
0.0281859
0.0353467
0.0335548
0.0320209
0.0307099
0.0296765
0.0290104
0.0285442
0.0282173
0.0280585
0.027936
0.0278478
0.0277874
0.0285284
0.0292022
0.0298501
0.030488
0.0311636
0.0319279
0.0325796
0.0335758
0.035183
0.0374317
0.0393853
0.019079
0.0285727
0.0290523
0.0295025
0.0299428
0.0303887
0.0310001
0.0316126
0.0323161
0.0336467
0.035893
0.0408231
0.0313913
0.0284832
0.0287314
0.028932
0.0291309
0.02937
0.0297813
0.0303878
0.0310533
0.0323234
0.0339871
0.0382931
0.0365467
0.0277359
0.0276776
0.0276726
0.027746
0.027952
0.0284916
0.029172
0.0300023
0.03142
0.0328482
0.0360745
0.0370499
0.0349806
0.0338854
0.0327853
0.031824
0.0310367
0.0303791
0.0298475
0.0294272
0.0290112
0.0285851
0.0281911
0.0279316
0.0331526
0.0321988
0.0311939
0.0302784
0.0294862
0.0288013
0.0282016
0.0276464
0.0270463
0.0263606
0.0256175
0.0250818
0.031223
0.030401
0.0294831
0.0286089
0.0278151
0.0270928
0.0264127
0.0257162
0.0248958
0.0238175
0.0223292
0.0207151
0.029348
0.0286449
0.0278132
0.0269783
0.0261828
0.0254221
0.0246608
0.0238222
0.0227514
0.0211164
0.018152
0.0134742
0.0280899
0.0287071
0.0294744
0.0303881
0.0313608
0.032285
0.0332312
0.0341193
0.0349521
0.0357404
0.0361722
0.0357077
0.0255564
0.0271769
0.0287402
0.0302163
0.031584
0.0327249
0.033705
0.0344783
0.0350425
0.0352572
0.0351963
0.0344491
0.0212457
0.0248977
0.0276247
0.0296544
0.0312645
0.0325211
0.0334883
0.0341496
0.0344332
0.0344135
0.0341152
0.033075
0.0135157
0.0216616
0.026131
0.0287502
0.0305494
0.031861
0.032805
0.0333116
0.0334599
0.0333519
0.0328502
0.0316764
0.0340041
0.0323384
0.0309292
0.0297474
0.0288213
0.0281453
0.0275961
0.0271494
0.0267929
0.0264654
0.0261956
0.0260236
0.032729
0.0311069
0.0296977
0.0284936
0.0274947
0.0266718
0.0259445
0.0252808
0.0246523
0.0240226
0.023436
0.0230392
0.0314397
0.0298217
0.0283596
0.0270675
0.0259376
0.0249387
0.0240107
0.0231098
0.0221817
0.0211405
0.0199312
0.0188498
0.0301103
0.0284963
0.0269797
0.0255938
0.0243349
0.0231752
0.0220636
0.0209386
0.0196954
0.0180997
0.0156001
0.0120093
0.025981
0.0260313
0.0261602
0.0264549
0.0269992
0.0278638
0.0289435
0.0302098
0.031762
0.0333832
0.0351096
0.0355572
0.0231002
0.0235468
0.0239765
0.0245322
0.0253417
0.0264342
0.0277292
0.0291673
0.0307212
0.0322139
0.0333362
0.0336313
0.0189568
0.0206
0.0216776
0.0225891
0.0236355
0.0248727
0.0262532
0.027717
0.0291943
0.0305095
0.0313593
0.0315958
0.0120174
0.0170593
0.0193935
0.0207946
0.0220543
0.0233705
0.0247544
0.0261694
0.027544
0.028691
0.0294102
0.0296303
0.0349787
0.0338835
0.0327836
0.0318226
0.0310354
0.030378
0.0298464
0.0294262
0.0290103
0.0285842
0.0281903
0.0279308
0.0331505
0.0321967
0.031192
0.0302768
0.0294847
0.0288
0.0282003
0.0276452
0.0270453
0.0263596
0.0256167
0.0250811
0.0312206
0.0303987
0.029481
0.028607
0.0278133
0.0270912
0.0264112
0.0257148
0.0248945
0.0238165
0.0223284
0.0207145
0.0293452
0.0286422
0.0278108
0.0269761
0.0261808
0.0254202
0.024659
0.0238207
0.02275
0.0211153
0.0181513
0.0134738
0.0280891
0.0287062
0.0294735
0.0303871
0.0313597
0.0322839
0.0332301
0.0341183
0.034951
0.0357394
0.0361713
0.035707
0.0255556
0.027176
0.0287391
0.0302151
0.0315829
0.0327238
0.033704
0.0344774
0.0350416
0.0352565
0.0351957
0.0344487
0.0212451
0.0248967
0.0276235
0.0296531
0.0312634
0.03252
0.0334873
0.0341487
0.0344325
0.0344129
0.0341149
0.033075
0.0135154
0.0216607
0.0261298
0.0287489
0.0305482
0.03186
0.0328041
0.0333109
0.0334594
0.0333515
0.0328501
0.0316766
0.0340037
0.0323382
0.0309291
0.0297475
0.0288215
0.0281455
0.0275963
0.0271497
0.0267931
0.0264655
0.0261958
0.0260238
0.0327289
0.031107
0.029698
0.0284941
0.0274952
0.0266723
0.0259451
0.0252813
0.0246528
0.024023
0.0234363
0.0230396
0.0314399
0.0298222
0.0283603
0.0270683
0.0259385
0.0249397
0.0240117
0.0231108
0.0221826
0.0211413
0.0199317
0.0188502
0.0301108
0.0284971
0.0269807
0.0255951
0.0243363
0.0231768
0.0220652
0.0209402
0.0196969
0.0181009
0.0156009
0.0120095
0.0259814
0.0260321
0.0261614
0.0264564
0.0270009
0.0278657
0.0289454
0.0302116
0.0317639
0.0333851
0.0351117
0.0355594
0.0231009
0.0235483
0.0239787
0.0245348
0.0253446
0.0264372
0.0277319
0.0291699
0.0307236
0.0322163
0.0333386
0.0336337
0.0189576
0.0206021
0.0216809
0.022593
0.0236397
0.0248769
0.026257
0.0277204
0.0291974
0.0305123
0.0313621
0.0315985
0.0120178
0.0170621
0.019398
0.0208
0.02206
0.023376
0.0247592
0.0261737
0.0275478
0.0286944
0.0294134
0.0296334
0.0275869
0.0269884
0.0262347
0.025438
0.024643
0.0238476
0.0230114
0.0220415
0.0207343
0.0184908
0.0134147
0.00295132
0.0259516
0.0254403
0.0247557
0.0239956
0.0232043
0.0223802
0.0214802
0.0204012
0.0189147
0.0164385
0.0115325
0.00205257
0.0244295
0.0239893
0.0233647
0.0226397
0.0218553
0.0210102
0.02006
0.0189004
0.0173105
0.0148005
0.0103334
0.00167817
0.0229927
0.0226102
0.0220381
0.0213469
0.0205735
0.0197158
0.0187304
0.0175185
0.015884
0.0134402
0.00941878
0.00149136
0.0215969
0.0212631
0.020738
0.0200812
0.0193243
0.0184643
0.01746
0.0162219
0.0145846
0.0122501
0.00861514
0.00135103
0.0201745
0.0198847
0.0194049
0.0187859
0.0180542
0.0172053
0.0162011
0.014963
0.0133547
0.0111481
0.00784758
0.00122251
0.0186189
0.0183734
0.017942
0.0173691
0.0166766
0.0158583
0.0148792
0.0136718
0.0121255
0.0100639
0.00707383
0.00109476
0.016762
0.0165655
0.0161913
0.0156799
0.0150483
0.0142893
0.013371
0.0122378
0.0108005
0.00892198
0.00625839
0.000960812
0.0143393
0.0141992
0.0138973
0.0134716
0.0129336
0.0122754
0.0114697
0.0104751
0.00922274
0.00761007
0.0053504
0.000815619
0.0109493
0.0108711
0.0106614
0.0103548
0.00995594
0.00945621
0.00883541
0.00807134
0.00711017
0.00591247
0.00423945
0.00065716
0.00607488
0.00604903
0.00594801
0.00579816
0.00559354
0.00532477
0.00498297
0.00456618
0.00401449
0.00337898
0.00256239
0.000484632
0.000652157
0.00064575
0.000632566
0.000614476
0.000591246
0.000563358
0.000529138
0.000485231
0.000428222
0.000353698
0.000253843
9.86915e-05
0.00306908
0.0177081
0.0244401
0.0276084
0.0295572
0.0308933
0.0317819
0.0321969
0.0323089
0.0321142
0.0314461
0.0302624
0.00241742
0.0159435
0.0229013
0.0263347
0.0283814
0.0297314
0.0305504
0.0309254
0.0310052
0.0307372
0.0299949
0.0288409
0.00214908
0.0147475
0.0214736
0.0249883
0.0270809
0.0284238
0.0291994
0.0295507
0.0295923
0.0292702
0.0285161
0.0274152
0.00199402
0.0137519
0.0201146
0.0235927
0.0256866
0.0270068
0.027752
0.0280913
0.0280946
0.027735
0.0270061
0.0259736
0.00187361
0.012821
0.0187762
0.0221431
0.0242005
0.025485
0.0262073
0.0265262
0.0264963
0.0261252
0.0254382
0.0244809
0.00176427
0.011884
0.0174063
0.0206065
0.0225902
0.0238235
0.024518
0.0248091
0.0247515
0.0243842
0.023748
0.0228656
0.00165466
0.0108889
0.0159386
0.0189136
0.0207779
0.0219374
0.022586
0.0228421
0.0227608
0.0224038
0.0218144
0.0210122
0.00153732
0.00976912
0.0142711
0.0169365
0.0186179
0.0196621
0.0202378
0.0204478
0.0203443
0.0199993
0.0194514
0.0187433
0.00140886
0.00841445
0.0122167
0.0144446
0.0158491
0.0167165
0.0171821
0.0173317
0.0172102
0.016882
0.016384
0.0158029
0.00125456
0.00665104
0.00944059
0.0110359
0.0120373
0.0126504
0.0129643
0.0130476
0.0129241
0.0126338
0.0122394
0.0118157
0.00105353
0.00404462
0.00536664
0.00612376
0.00661076
0.00690795
0.00704676
0.00708429
0.00699445
0.00683196
0.00661131
0.00636936
0.000240103
0.000441557
0.000564396
0.000640309
0.000692126
0.000727405
0.000748367
0.000757189
0.000753956
0.000743477
0.000727743
0.000707678
0.028761
0.0271705
0.0256256
0.0241731
0.0228163
0.0215321
0.0202719
0.018956
0.0174245
0.015247
0.0109015
0.00246878
0.027413
0.0258727
0.0243373
0.0228591
0.0214477
0.0200839
0.0187196
0.0172635
0.0155318
0.013084
0.00876108
0.00148031
0.0260722
0.0246073
0.0231181
0.021656
0.0202344
0.0188369
0.0174163
0.0158781
0.0140428
0.0115358
0.00754506
0.0010799
0.0247232
0.023352
0.0219372
0.0205258
0.0191324
0.0177425
0.0163109
0.0147469
0.0128911
0.0104534
0.00689979
0.000915336
0.0233242
0.0220573
0.0207346
0.0193985
0.0180628
0.0167145
0.0153114
0.0137705
0.0119567
0.00965329
0.00652507
0.000834213
0.0218055
0.0206447
0.0194235
0.0181792
0.0169239
0.0156455
0.0143049
0.0128279
0.0111019
0.00896038
0.00618013
0.000773715
0.0200568
0.0189998
0.0178871
0.0167494
0.0155957
0.014414
0.0131686
0.0117937
0.0101947
0.00823327
0.00577756
0.000731685
0.0179098
0.0169607
0.0159701
0.0149598
0.0139343
0.0128812
0.0117681
0.0105372
0.00911081
0.00735857
0.00525498
0.000684337
0.0151154
0.0143014
0.0134631
0.0126158
0.0117578
0.0108765
0.00994295
0.00890844
0.00771589
0.00622507
0.00453379
0.000631742
0.0112981
0.0106914
0.0100569
0.00942819
0.00879356
0.00814086
0.00744618
0.00667226
0.00579241
0.00463557
0.00344545
0.000562131
0.00609351
0.00580148
0.00548349
0.0051523
0.004816
0.00446841
0.00409258
0.00366475
0.00320728
0.00251929
0.00190628
0.000470349
0.000683137
0.000655286
0.000624442
0.000592148
0.00055835
0.000522841
0.000485018
0.00044285
0.000396081
0.000329563
0.000261291
0.000148957
0.00267614
0.0130068
0.017227
0.0191737
0.0206213
0.0219716
0.0233155
0.0246503
0.0259137
0.0269321
0.027576
0.0277966
0.00194542
0.011046
0.0154805
0.0177436
0.0193136
0.020668
0.0219553
0.023204
0.0243649
0.0252839
0.0258778
0.0261039
0.00159574
0.00974685
0.0140637
0.0164572
0.0180895
0.0194288
0.0206591
0.0218306
0.0229055
0.0237475
0.0243048
0.0245366
0.00138568
0.0087535
0.0128508
0.0152584
0.0169002
0.0182105
0.0193902
0.020501
0.021511
0.0222956
0.022826
0.0230637
0.00123018
0.00790466
0.0117454
0.0140893
0.0156937
0.0169598
0.0180952
0.0191635
0.0201317
0.0208779
0.0213915
0.0216373
0.00110152
0.00710928
0.0106787
0.0128961
0.014415
0.0156141
0.016704
0.0177441
0.0186925
0.0194187
0.0199262
0.0201858
0.000981157
0.00633833
0.00959839
0.0116247
0.013002
0.0140988
0.0151285
0.0161436
0.0170877
0.0178074
0.018318
0.0185995
0.000858615
0.00557109
0.00845146
0.0102082
0.0113765
0.0123215
0.0132582
0.0142318
0.0151706
0.0158855
0.0163984
0.0167086
0.000729951
0.00476196
0.0071521
0.00854025
0.00942582
0.0101612
0.0109521
0.0118389
0.0127391
0.0134264
0.0139177
0.0142525
0.000595702
0.00379991
0.00551474
0.00640468
0.00693482
0.00739924
0.00796414
0.00867818
0.00947462
0.0101007
0.0105208
0.0108413
0.000454875
0.0023526
0.00315322
0.00349782
0.00369582
0.00389141
0.00418439
0.00462655
0.0051151
0.00551599
0.0058008
0.00599064
9.71214e-05
0.000230631
0.000311921
0.00036362
0.000404199
0.000445145
0.000491192
0.00053931
0.000580095
0.000611631
0.000634904
0.000648598
0.0275837
0.0269853
0.0262319
0.0254354
0.0246406
0.0238453
0.0230093
0.0220396
0.0207326
0.0184895
0.0134141
0.00295123
0.0259479
0.0254368
0.0247524
0.0239926
0.0232014
0.0223776
0.0214776
0.0203988
0.0189125
0.0164368
0.0115316
0.00205244
0.0244253
0.0239852
0.0233609
0.0226361
0.021852
0.0210069
0.0200569
0.0188974
0.0173078
0.0147983
0.010332
0.00167798
0.0229878
0.0226056
0.0220337
0.0213428
0.0205695
0.0197119
0.0187267
0.0175149
0.0158807
0.0134373
0.00941682
0.00149109
0.0215916
0.021258
0.0207331
0.0200765
0.0193197
0.0184597
0.0174555
0.0162176
0.0145804
0.0122464
0.00861251
0.00135066
0.0201688
0.0198792
0.0193996
0.0187807
0.0180491
0.0172003
0.0161961
0.0149579
0.0133498
0.0111435
0.00784423
0.00122201
0.0186132
0.0183678
0.0179366
0.0173638
0.0166713
0.015853
0.0148738
0.0136663
0.01212
0.0100586
0.00706978
0.00109411
0.0167566
0.0165603
0.0161862
0.0156749
0.0150433
0.0142841
0.0133657
0.0122324
0.0107949
0.00891637
0.00625379
0.000960002
0.0143349
0.014195
0.0138932
0.0134674
0.0129294
0.0122711
0.0114652
0.0104705
0.00921778
0.00760483
0.00534563
0.000814668
0.0109463
0.0108682
0.0106585
0.010352
0.00995305
0.00945325
0.00883233
0.00806811
0.00710674
0.0059087
0.00423534
0.000656169
0.00607329
0.0060475
0.00594655
0.00579672
0.00559209
0.00532328
0.00498142
0.00456456
0.0040128
0.00337719
0.00256012
0.000483821
0.000651946
0.000645544
0.00063236
0.000614267
0.000591028
0.000563127
0.00052889
0.000484954
0.000427902
0.000353319
0.000253412
9.85893e-05
0.003069
0.0177072
0.0244389
0.0276072
0.0295561
0.0308923
0.0317811
0.0321963
0.0323085
0.032114
0.0314462
0.0302629
0.00241732
0.0159427
0.0229002
0.0263336
0.0283803
0.0297304
0.0305496
0.0309249
0.0310049
0.0307371
0.0299952
0.0288416
0.00214897
0.0147468
0.0214726
0.0249872
0.0270799
0.0284229
0.0291988
0.0295503
0.0295921
0.0292703
0.0285166
0.0274161
0.00199391
0.0137512
0.0201136
0.0235917
0.0256857
0.0270061
0.0277515
0.028091
0.0280945
0.0277353
0.0270067
0.0259747
0.00187351
0.0128204
0.0187753
0.0221422
0.0241996
0.0254844
0.0262068
0.026526
0.0264964
0.0261256
0.025439
0.0244821
0.00176417
0.0118835
0.0174056
0.0206057
0.0225894
0.023823
0.0245177
0.024809
0.0247516
0.0243847
0.0237488
0.022867
0.00165457
0.0108885
0.015938
0.0189129
0.0207773
0.0219369
0.0225857
0.022842
0.022761
0.0224043
0.0218153
0.0210135
0.00153725
0.00976875
0.0142706
0.016936
0.0186173
0.0196617
0.0202376
0.0204478
0.0203445
0.0199998
0.0194522
0.0187445
0.0014088
0.00841413
0.0122162
0.0144441
0.0158486
0.0167161
0.0171819
0.0173316
0.0172103
0.0168824
0.0163846
0.0158038
0.00125453
0.00665074
0.00944018
0.0110354
0.0120369
0.0126501
0.0129641
0.0130475
0.0129241
0.012634
0.0122398
0.0118163
0.00105354
0.00404438
0.00536637
0.00612349
0.00661051
0.00690775
0.00704663
0.00708425
0.00699447
0.0068321
0.00661151
0.0063697
0.000240115
0.000441553
0.00056438
0.000640289
0.000692105
0.000727385
0.000748352
0.000757185
0.000753959
0.000743491
0.000727767
0.000707717
0.0287618
0.0271716
0.0256271
0.0241749
0.0228184
0.0215344
0.0202743
0.0189585
0.0174269
0.015249
0.0109027
0.00246892
0.0274141
0.0258742
0.0243392
0.0228614
0.0214504
0.020087
0.0187229
0.017267
0.0155353
0.0130872
0.00876335
0.00148071
0.0260735
0.0246092
0.0231204
0.0216589
0.0202378
0.0188408
0.0174206
0.0158828
0.0140476
0.0115405
0.00754881
0.00108061
0.0247248
0.0233542
0.0219399
0.0205292
0.0191364
0.0177471
0.0163162
0.0147528
0.0128973
0.0104597
0.00690509
0.000916289
0.023326
0.0220597
0.0207376
0.0194022
0.0180673
0.0167198
0.0153175
0.0137773
0.0119641
0.00966098
0.00653148
0.000835288
0.0218074
0.0206472
0.0194266
0.0181831
0.0169287
0.0156511
0.0143114
0.0128353
0.01111
0.00896899
0.00618734
0.000774895
0.0200586
0.0190023