/*--------------------------------*- C++ -*----------------------------------*\
| =========                 |                                                 |
| \\      /  F ield         | OpenFOAM: The Open Source CFD Toolbox           |
|  \\    /   O peration     | Version:  2212                                  |
|   \\  /    A nd           | Website:  www.openfoam.com                      |
|    \\/     M anipulation  |                                                 |
\*---------------------------------------------------------------------------*/
FoamFile
{
    version     2.0;
    format      ascii;
    arch        "LSB;label=32;scalar=64";
    class       volScalarField;
    location    "0.02";
    object      p;
}
// * * * * * * * * * * * * * * * * * * * * * * * * * * * * * * * * * * * * * //

dimensions      [1 -1 -2 0 0 0 0];

internalField   nonuniform List<scalar> 
3072
(
98328.6
98307.5
98296.2
98288.1
98285.3
98288.6
98287.3
98304.8
98336.7
98321.1
98267.6
98221.1
98409.9
98364.3
98354.8
98348.1
98355.1
98384.5
98419.3
98484.2
98575.6
98614.1
98631.1
98638.9
98473
98413.2
98409.3
98419.2
98448.3
98498.4
98557.5
98614.2
98669.6
98705.8
98733.4
98748.9
98598.8
98546.8
98552
98578.2
98631.4
98689.9
98746.5
98796.8
98838.8
98868.5
98893.1
98911.4
98727.1
98700.4
98717.5
98756.1
98812.1
98868.3
98920.2
98965.6
99001.6
99027.9
99048.3
99063.1
98860.8
98854.5
98880.8
98927.7
98983.7
99035.8
99082.3
99119.6
99149
99171.1
99187.8
99200
98982.9
99002.1
99035.1
99088.8
99144.2
99193.2
99233.1
99264
99287.3
99304.3
99316.7
99325.5
99109
99147.8
99186.5
99244.2
99296.2
99339.9
99373.2
99397.5
99414.7
99426.4
99434.4
99439.6
99236.8
99301.6
99339.5
99396.4
99441.6
99477.5
99502.9
99519.9
99530.7
99537.2
99540.7
99542.3
99366.9
99447.2
99488
99542.9
99579.8
99605.8
99622.1
99631.2
99635.5
99636.6
99635.7
99633.9
99511.3
99610.7
99640.5
99683
99708
99722.1
99728.4
99729.6
99727.5
99723.5
99718.7
99713.7
99616.6
99769
99784
99804.2
99814.7
99817.5
99815.4
99810.1
99803.3
99795.6
99787.9
99780.6
98191.9
98186.2
98203.3
98242.2
98299.5
98372.5
98456.2
98543.1
98621.6
98684
98724.7
98697.5
98638.7
98640.8
98646.6
98658.2
98676.2
98700.5
98729.6
98759.6
98785.1
98817.4
98836.9
98739.7
98757.4
98765.4
98775.6
98789.7
98806.7
98824.8
98842.1
98854.3
98857.4
98860.8
98851.7
98710.5
98926
98937.8
98947.8
98956.7
98964.2
98969.9
98972.5
98968.2
98952.3
98929.3
98901.3
98721.5
99074.4
99083
99089.5
99094.2
99096.9
99096.7
99092.5
99081.9
99060.1
99025.8
98985.7
98792.5
99209
99215.5
99219.9
99222.6
99223.4
99221.6
99215.9
99204.8
99184.1
99150.5
99108.4
98920
99331.8
99336.1
99339
99340.7
99341.4
99340.6
99337.6
99330.9
99317.4
99292.7
99263.6
99101.9
99443
99445.4
99447.1
99448.8
99450.7
99452.8
99454.9
99456.2
99455.3
99448.5
99446.1
99332.6
99543
99543.5
99544.3
99546.3
99549.9
99555.6
99563.9
99574.9
99589.1
99605.6
99640.7
99604.8
99631.9
99630.5
99630.4
99632.4
99637.6
99646.8
99661
99681.5
99710.3
99750.9
99834.2
99899.9
99709.2
99706
99704.8
99706.6
99712.6
99724.2
99742.7
99770.4
99810.2
99869.3
100002
100177
99774.3
99769.7
99767.4
99768.5
99774.2
99786.4
99806.7
99837.7
99881.3
99948.8
100099
100420
98322.5
98303.1
98291.4
98283.3
98281
98282.5
98284.3
98294.2
98320.8
98326.4
98289.3
98246
98404.9
98360.8
98349.1
98342.4
98346.7
98368.2
98402.6
98446.1
98542.5
98603.7
98620.6
98630.2
98465.6
98405.5
98397.7
98402.5
98429.2
98471.5
98530.6
98584.9
98641.3
98684.6
98712.8
98734
98586.1
98530.5
98530.1
98549
98597.7
98656.8
98715.4
98767.7
98813.1
98846.7
98872.6
98892.9
98711.8
98679.9
98690.9
98723.7
98777.7
98835.5
98890.1
98937.7
98976.5
99005.2
99026.9
99042.9
98846.6
98833.7
98855
98897.3
98952.6
99006
99054.2
99093.3
99124.4
99147.9
99165.5
99178.5
98969.7
98982.3
99010.9
99060.9
99115.6
99165.3
99206.4
99238.6
99263.1
99281
99294
99303.3
99096.9
99129.4
99164.1
99218.3
99269.4
99313.3
99347.4
99372.7
99390.7
99403.1
99411.5
99417
99224.4
99283.7
99318.3
99372.3
99416.5
99452.4
99478.3
99496
99507.3
99514.1
99517.9
99519.7
99354.1
99429.5
99467.7
99520.5
99556.7
99582.7
99599.2
99608.7
99613.1
99614.2
99613.3
99611.4
99497.7
99592.9
99621
99662.2
99687.1
99701.2
99707.5
99708.5
99706.2
99701.9
99696.7
99691.5
99603.3
99749.7
99764.8
99784.8
99795.6
99798.4
99795.9
99790.3
99782.9
99774.6
99766.2
99758.4
98212.3
98202.3
98212.9
98245.6
98295.7
98361.6
98438.1
98518.5
98591.2
98648.3
98685.8
98659.3
98632.5
98633.8
98637.7
98646.3
98660.6
98680.9
98705.9
98732.2
98754.4
98782.8
98801.1
98706.8
98744.2
98752.1
98760.8
98772.9
98787.8
98803.5
98818.4
98828.4
98829.6
98831.2
98822.5
98684.5
98907.7
98919.9
98929.5
98937.5
98943.8
98948.1
98949.1
98943.4
98926.4
98902.9
98875.8
98699.5
99054.4
99063.1
99069.3
99073.4
99075.3
99074.2
99069
99057.7
99035.1
99000.5
98961.6
98770.3
99187.7
99194.2
99198.5
99200.9
99201.1
99198.6
99192.1
99180.2
99158.7
99123.9
99082.7
98895
99309.7
99314.1
99316.9
99318.3
99318.6
99317.2
99313.4
99305.7
99291.2
99265
99235
99071.6
99420.5
99422.9
99424.6
99426.1
99427.6
99429
99430.1
99430.1
99427.7
99418.4
99413.1
99295.1
99520.4
99520.9
99521.7
99523.5
99526.6
99531.6
99538.8
99548.2
99560.4
99573.7
99603.5
99560
99609.4
99608
99607.8
99609.8
99614.5
99622.9
99635.9
99654.6
99681.2
99718.1
99793.9
99849.6
99686.9
99683.6
99682.4
99684.2
99689.9
99700.8
99718.3
99744.2
99781.7
99837.4
99962.5
100127
99751.8
99747.2
99745.1
99746.4
99752.1
99763.9
99783.3
99812.8
99854.8
99919.8
100064
100381
98328.6
98307.5
98296.2
98288.1
98285.3
98288.6
98287.3
98304.8
98336.7
98321.1
98267.7
98221.2
98409.9
98364.3
98354.8
98348.1
98355.1
98384.5
98419.2
98484.2
98575.6
98614.1
98631.1
98638.9
98473
98413.2
98409.3
98419.2
98448.2
98498.4
98557.5
98614.2
98669.6
98705.8
98733.4
98748.9
98598.8
98546.7
98551.9
98578.2
98631.3
98689.9
98746.5
98796.7
98838.7
98868.5
98893.1
98911.4
98727.1
98700.4
98717.4
98756
98812.1
98868.3
98920.1
98965.6
99001.6
99027.9
99048.3
99063
98860.8
98854.4
98880.7
98927.6
98983.7
99035.8
99082.3
99119.6
99149
99171.1
99187.8
99200
98982.9
99002.1
99035
99088.7
99144.2
99193.2
99233.1
99264
99287.3
99304.3
99316.7
99325.5
99109
99147.8
99186.5
99244.1
99296.2
99339.9
99373.2
99397.5
99414.7
99426.4
99434.4
99439.6
99236.8
99301.6
99339.4
99396.4
99441.6
99477.5
99502.8
99519.9
99530.7
99537.1
99540.7
99542.3
99366.9
99447.2
99487.9
99542.9
99579.7
99605.8
99622.1
99631.2
99635.5
99636.6
99635.7
99633.9
99511.3
99610.7
99640.5
99683
99708
99722.1
99728.4
99729.6
99727.5
99723.5
99718.7
99713.7
99616.6
99769
99784
99804.2
99814.7
99817.5
99815.4
99810.1
99803.3
99795.6
99787.9
99780.6
98192
98186.2
98203.3
98242.2
98299.5
98372.4
98456.2
98543
98621.6
98684
98724.7
98697.5
98638.7
98640.8
98646.5
98658.2
98676.2
98700.5
98729.6
98759.6
98785
98817.4
98836.9
98739.7
98757.4
98765.4
98775.6
98789.7
98806.7
98824.8
98842.1
98854.3
98857.3
98860.8
98851.7
98710.5
98926
98937.8
98947.8
98956.7
98964.2
98969.9
98972.5
98968.2
98952.3
98929.3
98901.3
98721.5
99074.4
99083
99089.5
99094.2
99096.9
99096.7
99092.5
99081.9
99060.1
99025.8
98985.7
98792.5
99209
99215.5
99219.9
99222.6
99223.4
99221.5
99215.9
99204.8
99184.1
99150.4
99108.4
98920
99331.7
99336.1
99339
99340.7
99341.4
99340.6
99337.6
99330.8
99317.4
99292.7
99263.6
99101.9
99443
99445.4
99447.1
99448.8
99450.7
99452.8
99454.9
99456.1
99455.3
99448.5
99446.1
99332.6
99543
99543.5
99544.3
99546.3
99549.8
99555.6
99563.9
99574.8
99589.1
99605.6
99640.7
99604.8
99631.9
99630.5
99630.4
99632.4
99637.6
99646.7
99661
99681.5
99710.3
99750.9
99834.2
99899.9
99709.2
99706
99704.8
99706.6
99712.6
99724.2
99742.7
99770.4
99810.2
99869.3
100002
100177
99774.3
99769.7
99767.4
99768.5
99774.2
99786.4
99806.7
99837.7
99881.2
99948.8
100099
100420
98322.5
98303.1
98291.4
98283.3
98281
98282.5
98284.3
98294.2
98320.8
98326.4
98289.2
98246
98404.9
98360.8
98349.1
98342.4
98346.7
98368.2
98402.6
98446.1
98542.5
98603.7
98620.6
98630.2
98465.6
98405.5
98397.7
98402.5
98429.2
98471.5
98530.6
98584.9
98641.3
98684.6
98712.8
98734
98586.1
98530.5
98530.1
98549
98597.7
98656.8
98715.4
98767.7
98813.1
98846.7
98872.6
98892.9
98711.8
98679.9
98690.9
98723.7
98777.7
98835.5
98890.1
98937.7
98976.5
99005.2
99026.9
99042.9
98846.6
98833.7
98855
98897.3
98952.6
99006
99054.2
99093.3
99124.4
99147.9
99165.5
99178.5
98969.7
98982.3
99010.9
99060.9
99115.6
99165.3
99206.4
99238.6
99263.1
99281
99294
99303.3
99096.9
99129.4
99164.1
99218.3
99269.4
99313.3
99347.4
99372.7
99390.7
99403.1
99411.5
99417
99224.4
99283.7
99318.3
99372.4
99416.5
99452.4
99478.3
99496
99507.3
99514.1
99517.9
99519.7
99354.1
99429.5
99467.7
99520.5
99556.7
99582.7
99599.2
99608.7
99613.1
99614.2
99613.3
99611.4
99497.7
99592.9
99621
99662.2
99687.1
99701.2
99707.5
99708.5
99706.2
99701.9
99696.7
99691.5
99603.3
99749.7
99764.8
99784.8
99795.6
99798.4
99795.9
99790.3
99782.9
99774.6
99766.2
99758.4
98212.3
98202.3
98212.9
98245.6
98295.7
98361.6
98438.1
98518.5
98591.2
98648.3
98685.8
98659.3
98632.5
98633.8
98637.7
98646.3
98660.6
98680.9
98705.9
98732.2
98754.4
98782.8
98801.1
98706.8
98744.2
98752.1
98760.8
98772.9
98787.8
98803.5
98818.4
98828.4
98829.7
98831.2
98822.5
98684.5
98907.7
98919.9
98929.5
98937.5
98943.8
98948.1
98949.1
98943.4
98926.4
98902.9
98875.8
98699.5
99054.4
99063.1
99069.3
99073.4
99075.3
99074.2
99069
99057.7
99035.1
99000.5
98961.6
98770.3
99187.7
99194.2
99198.5
99200.9
99201.1
99198.6
99192.1
99180.2
99158.7
99123.9
99082.7
98895
99309.7
99314.1
99316.9
99318.3
99318.6
99317.2
99313.4
99305.7
99291.2
99265
99235
99071.6
99420.5
99422.9
99424.6
99426.1
99427.6
99429
99430.1
99430.1
99427.7
99418.4
99413.1
99295.1
99520.4
99520.9
99521.7
99523.5
99526.6
99531.6
99538.8
99548.2
99560.4
99573.7
99603.5
99560
99609.4
99608
99607.8
99609.8
99614.5
99622.9
99635.9
99654.6
99681.2
99718.1
99794
99849.6
99686.9
99683.6
99682.4
99684.2
99689.9
99700.8
99718.3
99744.2
99781.7
99837.4
99962.5
100127
99751.8
99747.2
99745.1
99746.4
99752.1
99763.9
99783.3
99812.8
99854.8
99919.8
100064
100381
99911.9
99919.7
99905.5
99897.4
99891.8
99886
99878.5
99869.9
99860.8
99851.5
99842.6
99834.2
99946.1
99925.9
99927.1
99928.2
99927.3
99923.7
99917.6
99909.9
99901.4
99892.5
99883.9
99875.5
99952.8
99944.3
99947.4
99948.7
99948.3
99945.8
99941.5
99935.8
99929.2
99921.9
99914.6
99907
99955.8
99954.9
99957.5
99958.9
99959.1
99958.1
99955.7
99952.3
99948.1
99943.4
99938.3
99932.6
99827
99821.4
99818
99818.1
99822.7
99833.8
99852.7
99882.1
99920
99970.8
100022
100139
99868.2
99862.1
99857.7
99856.3
99859.1
99867.7
99882.9
99907.5
99938.4
99978.7
100003
100045
99900.2
99893.8
99888.1
99884.4
99884.3
99888.9
99898.7
99916.5
99939.3
99971.2
99988
100006
99927
99919.2
99911.2
99904.7
99900.3
99899.1
99901.7
99910.5
99923.4
99947.1
99961.5
99983
99900.1
99903.7
99889.5
99880.8
99874.7
99868.4
99860.4
99851.1
99841.2
99830.9
99820.8
99811.6
99942.2
99916.5
99915
99914.3
99912.2
99907.8
99900.9
99892.2
99882.3
99871.8
99861.4
99851.7
99956.6
99942.1
99941.7
99940.2
99937.6
99933.4
99927.5
99919.9
99910.9
99901.1
99891
99881.3
99968.7
99963.8
99962.7
99960.6
99957.7
99953.9
99948.8
99942.4
99934.7
99925.8
99916
99905.9
99803.8
99798.2
99795.5
99796.2
99801.2
99812.3
99830.8
99859.3
99896.7
99947
100000
100122
99843.4
99837.5
99834.2
99834.1
99837.9
99847
99862.6
99887.2
99918.5
99959.7
99988.2
100034
99872.9
99866.9
99863.3
99862.1
99864
99870
99880.9
99899.1
99922.7
99955.4
99975.4
99995.1
99897.1
99891.5
99887.8
99885.5
99884.7
99886.3
99890.3
99899.2
99911.7
99933.6
99948.5
99968.2
99911.9
99919.7
99905.5
99897.3
99891.8
99886
99878.5
99869.9
99860.8
99851.5
99842.6
99834.2
99946.1
99925.9
99927.1
99928.2
99927.3
99923.7
99917.6
99909.9
99901.4
99892.5
99883.9
99875.5
99952.8
99944.3
99947.3
99948.7
99948.3
99945.8
99941.5
99935.8
99929.1
99921.9
99914.6
99907
99955.8
99954.9
99957.5
99958.9
99959.1
99958
99955.7
99952.3
99948.1
99943.4
99938.3
99932.6
99827
99821.4
99818
99818.1
99822.7
99833.8
99852.7
99882.1
99920
99970.8
100022
100139
99868.2
99862.1
99857.7
99856.3
99859.1
99867.7
99882.9
99907.5
99938.4
99978.7
100003
100045
99900.2
99893.8
99888.1
99884.4
99884.3
99888.9
99898.7
99916.5
99939.3
99971.2
99988
100006
99927
99919.2
99911.2
99904.7
99900.3
99899.1
99901.7
99910.5
99923.4
99947.1
99961.5
99983
99900.1
99903.7
99889.5
99880.8
99874.7
99868.4
99860.4
99851.1
99841.2
99830.9
99820.8
99811.6
99942.2
99916.5
99915
99914.3
99912.2
99907.8
99900.9
99892.1
99882.3
99871.8
99861.4
99851.7
99956.6
99942.1
99941.7
99940.2
99937.6
99933.4
99927.5
99919.9
99910.9
99901.1
99891
99881.3
99968.7
99963.8
99962.7
99960.6
99957.7
99953.9
99948.8
99942.4
99934.7
99925.7
99916
99905.9
99803.8
99798.2
99795.5
99796.2
99801.2
99812.3
99830.8
99859.3
99896.7
99947
100000
100122
99843.4
99837.5
99834.2
99834.1
99837.9
99847
99862.6
99887.2
99918.5
99959.7
99988.2
100034
99872.9
99866.9
99863.3
99862.1
99864
99870
99880.9
99899.1
99922.7
99955.4
99975.4
99995.1
99897.1
99891.5
99887.8
99885.5
99884.7
99886.3
99890.3
99899.2
99911.7
99933.6
99948.5
99968.2
99956.6
99961
99964.9
99967.6
99969
99969.3
99968.4
99966.6
99964
99960.9
99957.4
99953.7
99958.9
99965
99970.3
99974.3
99977
99978.4
99978.4
99977.3
99975.4
99973.2
99970.7
99968.3
99960.3
99967.4
99973.4
99978.2
99981.6
99983.4
99983.9
99983.2
99981.6
99979.9
99978.3
99977.3
99960.9
99968.8
99975.4
99980.6
99984.2
99986.2
99986.8
99986.2
99984.7
99983.2
99982.1
99981.9
99950.2
99944.1
99938
99932.5
99927.9
99924.8
99923.9
99925.9
99930.2
99942.9
99951.3
99965.3
99967.6
99963.5
99960.2
99957.4
99955.1
99953.7
99953.3
99954.3
99956.8
99959.6
99960.2
99962
99979.9
99977.1
99975.5
99974.3
99973.4
99972.7
99971.9
99970.9
99969.8
99968
99963.9
99959.4
99989.7
99986.8
99985.7
99985.2
99984.6
99983.6
99981.9
99979.1
99975.1
99970.2
99963.3
99956
99965.8
99964.8
99962.4
99959
99954.9
99950.2
99944.9
99939.1
99932.5
99924
99915.1
99905.7
99958.2
99954.4
99949.8
99944.7
99939.4
99933.8
99927.9
99921.4
99914.6
99908.3
99901.5
99893.4
99952.2
99946.2
99940.3
99934.6
99928.9
99923.2
99917.7
99912
99906.2
99900.5
99895
99887.7
99947.8
99940.9
99934.5
99928.6
99923.1
99917.9
99912.7
99907.6
99902.6
99897.4
99892.8
99885.6
99897.1
99891.9
99889.2
99888
99888.1
99889.7
99893
99899.3
99908.3
99923.1
99935.9
99952.5
99885.3
99880.9
99879.4
99879.7
99881.6
99885.2
99890.8
99899.4
99910.8
99926.3
99939.4
99952.5
99878.9
99875.2
99874.5
99875.5
99878
99882.5
99889.1
99898.7
99911
99926
99939.9
99952.5
99876.2
99872.9
99872.5
99873.7
99876.4
99881
99888
99897.8
99910.2
99924.8
99939
99951.8
99956.6
99961
99964.9
99967.6
99969
99969.3
99968.4
99966.6
99964
99960.9
99957.4
99953.7
99958.9
99965
99970.3
99974.3
99977
99978.3
99978.4
99977.3
99975.4
99973.2
99970.7
99968.3
99960.3
99967.4
99973.4
99978.2
99981.6
99983.4
99983.9
99983.1
99981.6
99979.9
99978.3
99977.3
99960.9
99968.8
99975.4
99980.6
99984.2
99986.2
99986.8
99986.2
99984.7
99983.2
99982.1
99981.9
99950.2
99944.1
99938
99932.5
99927.9
99924.8
99923.9
99925.9
99930.2
99942.9
99951.3
99965.3
99967.6
99963.5
99960.2
99957.4
99955.1
99953.7
99953.3
99954.3
99956.8
99959.6
99960.2
99962
99979.9
99977.1
99975.5
99974.3
99973.4
99972.6
99971.9
99970.9
99969.8
99968
99963.9
99959.4
99989.6
99986.8
99985.7
99985.1
99984.6
99983.6
99981.9
99979.1
99975.1
99970.1
99963.3
99956
99965.8
99964.8
99962.4
99959
99954.9
99950.2
99944.9
99939.1
99932.5
99924
99915.1
99905.7
99958.2
99954.4
99949.8
99944.7
99939.4
99933.8
99927.9
99921.4
99914.6
99908.2
99901.5
99893.4
99952.2
99946.2
99940.3
99934.6
99928.9
99923.2
99917.7
99912
99906.2
99900.5
99895
99887.7
99947.8
99940.9
99934.5
99928.6
99923.1
99917.9
99912.7
99907.6
99902.6
99897.4
99892.8
99885.6
99897.1
99891.9
99889.2
99888
99888.1
99889.7
99893
99899.3
99908.3
99923.1
99935.9
99952.5
99885.3
99880.9
99879.4
99879.7
99881.6
99885.2
99890.8
99899.4
99910.8
99926.3
99939.4
99952.5
99878.9
99875.2
99874.5
99875.5
99878
99882.5
99889.1
99898.7
99911
99926
99939.9
99952.5
99876.2
99872.9
99872.5
99873.7
99876.4
99881
99888
99897.8
99910.2
99924.8
99939
99951.8
99961.3
99969.8
99976.8
99982.2
99985.8
99987.9
99988.4
99987.7
99986.2
99984.5
99982.1
99980.1
99961.6
99970.6
99977.9
99983.3
99987
99988.9
99989.3
99988.5
99986.9
99984.8
99982
99982.6
99961.8
99971.3
99978.7
99984.2
99987.8
99989.6
99989.9
99988.9
99987.1
99985
99982.6
99983.4
99962.1
99971.8
99979.5
99985
99988.5
99990.1
99990.1
99989
99987.1
99985.1
99983.2
99983.9
99962.3
99972.4
99980.1
99985.6
99989
99990.4
99990.3
99989
99987
99985.1
99983.6
99984.2
99962.6
99972.9
99980.7
99986.2
99989.5
99990.7
99990.3
99988.8
99986.8
99985
99983.8
99984.3
99962.8
99973.4
99981.3
99986.8
99989.9
99990.8
99990.2
99988.6
99986.6
99984.9
99984
99984.3
99963.1
99973.9
99982
99987.3
99990.2
99991
99990.2
99988.4
99986.4
99984.7
99984
99984.3
99963.5
99974.5
99982.6
99987.9
99990.6
99991.1
99990.1
99988.1
99986.1
99984.6
99984
99984.2
99964
99975.2
99983.4
99988.6
99991.1
99991.3
99990
99987.8
99985.7
99984.4
99984
99984.2
99964.6
99976
99984.2
99989.3
99991.6
99991.5
99989.9
99987.6
99985.4
99984.1
99983.8
99984.2
99965.4
99977.1
99985.4
99990.3
99992.1
99991.6
99989.5
99986.8
99984.7
99983.7
99983.9
99984.3
99999.5
99994.5
99992.4
99991.8
99991.1
99989.5
99986.7
99982.4
99976.6
99969.6
99961.3
99952.9
100001
99998.6
99996.4
99995.5
99994.3
99992
99988.2
99982.8
99975.9
99967.9
99959
99950.5
100002
100000
99998.3
99997.1
99995.3
99992.2
99987.5
99981.4
99973.9
99965.6
99957
99948.8
100002
100000
99998.7
99997.1
99994.7
99990.8
99985.6
99978.9
99971.4
99963.3
99955.2
99947.8
100002
99999.8
99998.3
99996.2
99993
99988.6
99982.8
99976
99968.6
99961
99953.7
99947.2
100002
99999
99997.4
99994.6
99990.8
99985.7
99979.6
99972.8
99965.8
99958.9
99952.6
99947.1
100001
99997.9
99996
99992.6
99988.2
99982.6
99976.3
99969.7
99963.2
99957.1
99951.8
99947.3
100000
99996.7
99994.4
99990.4
99985.4
99979.4
99973
99966.6
99960.7
99955.5
99951.1
99947.6
99999.1
99995.4
99992.7
99988
99982.5
99976.3
99969.9
99963.8
99958.4
99954
99950.5
99947.9
99998.1
99994.2
99991
99985.8
99979.9
99973.4
99967
99961.2
99956.4
99952.6
99950
99948.2
99997.3
99993.3
99989.6
99983.9
99977.6
99970.9
99964.5
99959
99954.7
99951.6
99949.5
99948.4
99996
99991
99986.7
99980.2
99973.3
99966.4
99960
99954.9
99951.2
99949.1
99948.3
99948.2
99944.5
99937.5
99931.2
99925.5
99920.2
99915.4
99910.7
99906.1
99901.6
99896.7
99892.4
99883.1
99942.4
99935.6
99929.7
99924.3
99919.5
99915
99910.8
99906.5
99902.4
99897.6
99894.1
99885.2
99941.4
99935.1
99929.6
99924.8
99920.4
99916.3
99912.3
99908.3
99904.4
99899.7
99897
99887.8
99941.2
99935.6
99930.7
99926.4
99922.4
99918.5
99914.7
99910.9
99907.2
99902.3
99900.2
99890.8
99941.6
99936.8
99932.6
99928.7
99925
99921.4
99917.7
99913.9
99910.2
99905.4
99903.5
99893.8
99942.4
99938.4
99934.8
99931.4
99928.1
99924.6
99921
99917.1
99913.4
99908.5
99906.6
99897
99943.5
99940.3
99937.3
99934.4
99931.3
99928
99924.4
99920.5
99916.7
99911.6
99909.5
99900.2
99944.7
99942.2
99939.8
99937.3
99934.6
99931.4
99927.9
99923.8
99919.9
99914.6
99912.3
99903.4
99945.9
99944.1
99942.3
99940.2
99937.7
99934.7
99931.3
99927.1
99923.1
99917.6
99915
99906.6
99946.9
99945.7
99944.5
99942.8
99940.7
99937.9
99934.5
99930.4
99926.2
99920.5
99917.6
99909.7
99947.7
99947.2
99946.4
99945.1
99943.2
99940.5
99937.1
99932.8
99928.5
99922.6
99919.1
99911.8
99948.5
99948.9
99949
99948.4
99947.2
99945.1
99942.1
99938
99933.7
99927.4
99923.6
99915.7
99876.9
99872.7
99871.7
99872.7
99875.3
99880
99887.1
99896.9
99909.3
99923.8
99938.1
99951.2
99874.4
99872.9
99871.4
99872.1
99874.6
99879.1
99886.2
99896.1
99908.5
99922.9
99937.4
99950.7
99873.7
99872.8
99871.3
99871.7
99873.9
99878.4
99885.4
99895.2
99907.7
99922.1
99936.8
99950.4
99873
99872.6
99871.2
99871.4
99873.4
99877.6
99884.5
99894.4
99906.9
99921.4
99936.3
99950.2
99872.5
99872.4
99871.1
99871.1
99872.8
99876.9
99883.6
99893.4
99906
99920.7
99935.8
99950.1
99872.2
99872.2
99871
99870.8
99872.3
99876.1
99882.7
99892.5
99905.1
99919.9
99935.3
99949.9
99872
99872
99870.9
99870.5
99871.7
99875.2
99881.7
99891.4
99904.2
99919.2
99934.9
99949.8
99872
99871.9
99870.8
99870.3
99871.1
99874.3
99880.6
99890.3
99903.1
99918.4
99934.5
99949.8
99872
99871.9
99870.8
99870
99870.5
99873.4
99879.4
99889
99902
99917.5
99934
99949.8
99872
99871.9
99870.9
99869.8
99869.9
99872.3
99878
99887.5
99900.7
99916.7
99933.7
99949.9
99872.1
99872
99870.9
99869.6
99869.2
99871.2
99876.7
99886.1
99899.5
99916
99933.4
99950.1
99872.1
99872.3
99871.4
99869.8
99868.8
99869.8
99874.4
99883.4
99897
99914.1
99932.7
99950.3
99961.3
99969.8
99976.8
99982.2
99985.8
99987.9
99988.4
99987.7
99986.2
99984.5
99982.1
99980.1
99961.6
99970.6
99977.9
99983.3
99987
99988.9
99989.3
99988.5
99986.9
99984.8
99982
99982.6
99961.8
99971.3
99978.7
99984.2
99987.8
99989.6
99989.9
99988.9
99987.1
99985
99982.6
99983.4
99962.1
99971.8
99979.5
99985
99988.5
99990.1
99990.1
99989
99987.1
99985.1
99983.2
99983.9
99962.3
99972.4
99980.1
99985.6
99989
99990.4
99990.3
99988.9
99987
99985.1
99983.6
99984.2
99962.6
99972.9
99980.7
99986.2
99989.4
99990.7
99990.3
99988.8
99986.8
99985
99983.8
99984.3
99962.8
99973.4
99981.3
99986.8
99989.9
99990.8
99990.2
99988.6
99986.6
99984.9
99984
99984.3
99963.1
99973.9
99982
99987.3
99990.2
99991
99990.2
99988.4
99986.4
99984.7
99984
99984.3
99963.5
99974.5
99982.6
99987.9
99990.6
99991.1
99990.1
99988.1
99986.1
99984.6
99984
99984.2
99964
99975.2
99983.4
99988.6
99991.1
99991.3
99990
99987.8
99985.7
99984.4
99984
99984.2
99964.6
99976
99984.2
99989.3
99991.6
99991.5
99989.9
99987.6
99985.4
99984.1
99983.8
99984.2
99965.4
99977.1
99985.4
99990.3
99992.1
99991.6
99989.5
99986.8
99984.7
99983.7
99983.9
99984.3
99999.5
99994.5
99992.4
99991.8
99991
99989.5
99986.7
99982.4
99976.6
99969.6
99961.3
99952.9
100001
99998.6
99996.4
99995.5
99994.3
99992
99988.2
99982.8
99975.9
99967.9
99959
99950.5
100002
100000
99998.2
99997.1
99995.3
99992.2
99987.5
99981.4
99973.9
99965.6
99957
99948.8
100002
100000
99998.7
99997.1
99994.7
99990.8
99985.5
99978.9
99971.3
99963.3
99955.2
99947.7
100002
99999.8
99998.3
99996.2
99993
99988.6
99982.8
99976
99968.6
99961
99953.7
99947.2
100002
99999
99997.3
99994.6
99990.8
99985.7
99979.6
99972.8
99965.8
99958.9
99952.6
99947.1
100001
99997.9
99996
99992.6
99988.2
99982.6
99976.3
99969.7
99963.1
99957.1
99951.8
99947.3
100000
99996.7
99994.4
99990.4
99985.3
99979.4
99973
99966.6
99960.7
99955.4
99951.1
99947.6
99999.1
99995.4
99992.7
99988
99982.5
99976.3
99969.9
99963.8
99958.4
99954
99950.5
99947.9
99998.1
99994.2
99991
99985.8
99979.9
99973.4
99967
99961.2
99956.4
99952.6
99950
99948.2
99997.3
99993.3
99989.6
99983.9
99977.6
99970.9
99964.5
99959
99954.7
99951.6
99949.5
99948.3
99996
99991
99986.7
99980.2
99973.3
99966.4
99960
99954.9
99951.2
99949.1
99948.3
99948.2
99944.5
99937.5
99931.1
99925.5
99920.2
99915.4
99910.7
99906.1
99901.6
99896.7
99892.4
99883
99942.4
99935.6
99929.7
99924.3
99919.5
99915
99910.8
99906.5
99902.4
99897.6
99894.1
99885.2
99941.4
99935.1
99929.6
99924.8
99920.4
99916.2
99912.3
99908.3
99904.4
99899.7
99897
99887.8
99941.2
99935.6
99930.7
99926.4
99922.4
99918.5
99914.7
99910.9
99907.2
99902.3
99900.2
99890.7
99941.6
99936.8
99932.5
99928.7
99925
99921.4
99917.7
99913.9
99910.2
99905.4
99903.5
99893.8
99942.4
99938.4
99934.8
99931.4
99928.1
99924.6
99921
99917.1
99913.4
99908.5
99906.6
99897
99943.5
99940.3
99937.3
99934.4
99931.3
99928
99924.4
99920.5
99916.7
99911.6
99909.5
99900.2
99944.7
99942.2
99939.8
99937.3
99934.6
99931.4
99927.9
99923.8
99919.9
99914.6
99912.3
99903.4
99945.9
99944.1
99942.2
99940.2
99937.7
99934.7
99931.3
99927.1
99923.1
99917.6
99915
99906.6
99946.9
99945.7
99944.5
99942.8
99940.7
99937.9
99934.5
99930.4
99926.2
99920.5
99917.6
99909.7
99947.7
99947.2
99946.4
99945.1
99943.2
99940.5
99937.1
99932.8
99928.4
99922.6
99919.1
99911.8
99948.5
99948.9
99949
99948.4
99947.2
99945.1
99942.1
99938
99933.7
99927.4
99923.6
99915.7
99876.9
99872.7
99871.7
99872.7
99875.3
99880
99887.1
99896.9
99909.3
99923.8
99938.1
99951.2
99874.4
99872.9
99871.4
99872.1
99874.6
99879.1
99886.2
99896.1
99908.5
99922.9
99937.4
99950.7
99873.7
99872.9
99871.3
99871.7
99873.9
99878.4
99885.4
99895.2
99907.7
99922.1
99936.8
99950.5
99873
99872.6
99871.2
99871.4
99873.4
99877.6
99884.5
99894.4
99906.9
99921.4
99936.3
99950.2
99872.5
99872.4
99871.1
99871.1
99872.8
99876.9
99883.6
99893.4
99906
99920.7
99935.8
99950.1
99872.2
99872.2
99871
99870.8
99872.3
99876.1
99882.7
99892.5
99905.2
99919.9
99935.3
99949.9
99872
99872
99870.9
99870.5
99871.7
99875.2
99881.7
99891.4
99904.2
99919.2
99934.9
99949.8
99872
99871.9
99870.8
99870.3
99871.1
99874.3
99880.6
99890.3
99903.1
99918.4
99934.5
99949.8
99872
99871.9
99870.8
99870
99870.5
99873.4
99879.4
99889
99902
99917.6
99934
99949.8
99872
99871.9
99870.9
99869.8
99869.9
99872.3
99878
99887.5
99900.7
99916.7
99933.7
99949.9
99872.1
99872
99870.9
99869.6
99869.2
99871.2
99876.7
99886.1
99899.5
99916
99933.4
99950.1
99872.1
99872.3
99871.4
99869.8
99868.8
99869.8
99874.4
99883.4
99897
99914.1
99932.7
99950.3
)
;

boundaryField
{
    rotor
    {
        type            zeroGradient;
    }
    stator
    {
        type            zeroGradient;
    }
    front
    {
        type            empty;
    }
    back
    {
        type            empty;
    }
}


// ************************************************************************* //
