/*--------------------------------*- C++ -*----------------------------------*\
| =========                 |                                                 |
| \\      /  F ield         | OpenFOAM: The Open Source CFD Toolbox           |
|  \\    /   O peration     | Version:  2212                                  |
|   \\  /    A nd           | Website:  www.openfoam.com                      |
|    \\/     M anipulation  |                                                 |
\*---------------------------------------------------------------------------*/
FoamFile
{
    version     2.0;
    format      ascii;
    arch        "LSB;label=32;scalar=64";
    class       surfaceScalarField;
    location    "0.02";
    object      phi;
}
// * * * * * * * * * * * * * * * * * * * * * * * * * * * * * * * * * * * * * //

dimensions      [1 0 -1 0 0 0 0];

oriented        oriented;

internalField   nonuniform List<scalar> 
5952
(
6.91905e-05
-6.91886e-05
0.000126994
-5.78016e-05
0.00015707
-3.00749e-05
0.000169788
-1.27157e-05
0.000162013
7.777e-06
0.000113846
4.81695e-05
2.89219e-05
8.49292e-05
-0.000135795
0.000164718
-0.000345016
0.000209223
-0.000502491
0.000157477
-0.000625762
0.000123272
9.08488e-05
-0.00071661
5.16764e-05
-0.000120863
7.58037e-05
-8.19272e-05
6.30909e-05
-1.73603e-05
1.13141e-05
3.90632e-05
-8.65287e-05
0.000105623
-0.000229598
0.000191243
-0.000389091
0.000244426
-0.000487921
0.000263551
-0.000524859
0.000246164
-0.000566702
0.000199323
-0.000604946
0.000161518
0.000121839
-0.000635933
1.46282e-05
-0.000135489
-6.51754e-07
-6.66452e-05
-5.39841e-05
3.59742e-05
-0.000152091
0.000137173
-0.000278043
0.000231578
-0.0003729
0.000286103
-0.000428646
0.000300174
-0.000455075
0.000289984
-0.000466327
0.000257419
-0.000480541
0.00021354
-0.000493696
0.000174675
0.000133921
-0.000505775
-4.69194e-05
-8.85664e-05
-0.00010245
-1.11115e-05
-0.000173666
0.000107193
-0.000251252
0.000214763
-0.000311781
0.000292111
-0.000345857
0.000320184
-0.000362532
0.000316852
-0.000368216
0.000295671
-0.000370141
0.000259347
-0.000373675
0.000217077
-0.00037572
0.000176723
0.00013584
-0.000377636
-6.86142e-05
-1.99489e-05
-0.000135246
5.55242e-05
-0.000194901
0.000166852
-0.00024106
0.000260926
-0.000265216
0.000316271
-0.000272302
0.000327273
-0.000270656
0.00031521
-0.000262847
0.000287866
-0.000255617
0.000252121
-0.00025117
0.000212634
-0.000247846
0.000173402
0.000133926
-0.000245929
-6.84011e-05
4.84555e-05
-0.000127266
0.000114393
-0.000169886
0.000209477
-0.000190569
0.000281614
-0.000191988
0.000317694
-0.00018313
0.00031842
-0.000168831
0.000300915
-0.000153901
0.000272939
-0.000141024
0.000239248
-0.000131215
0.000202828
-0.000123731
0.000165922
0.00012856
-0.000118361
-6.24587e-05
0.000110918
-0.000109713
0.000161652
-0.00013329
0.000233057
-0.000132451
0.000280779
-0.000115641
0.000300888
-9.27491e-05
0.000295532
-6.89148e-05
0.000277085
-4.70252e-05
0.000251053
-2.85236e-05
0.00022075
-1.37669e-05
0.000188076
-2.20754e-06
0.000154367
0.000119796
6.55979e-06
-6.09515e-05
0.000171873
-9.22414e-05
0.000192946
-9.55054e-05
0.000236326
-7.47611e-05
0.000260038
-4.15864e-05
0.000267717
-6.15841e-06
0.000260108
2.72041e-05
0.000243726
5.65248e-05
0.000221737
8.11756e-05
0.000196103
0.000101257
0.000167998
0.000117362
0.000138266
0.00010715
0.000130013
-4.80688e-05
0.000219945
-6.90006e-05
0.000213883
-5.22932e-05
0.000219623
-1.40401e-05
0.00022179
3.33642e-05
0.000220317
8.02379e-05
0.000213239
0.000122827
0.000201142
0.000159758
0.000184809
0.000190909
0.000164957
0.000216698
0.000142213
0.000237819
0.00011715
9.0098e-05
0.000254875
-5.3578e-05
0.000273528
-3.98911e-05
0.000200202
7.44407e-06
0.000172293
6.48523e-05
0.000164386
0.000124798
0.000160376
0.000180772
0.000157269
0.000230436
0.000151482
0.000273261
0.000141988
0.0003096
0.000128623
0.000340113
0.000111705
0.000365571
9.16966e-05
6.9071e-05
0.000386602
1.00209e-05
0.000263513
6.2115e-05
0.000148114
0.000132773
0.000101641
0.000201669
9.54953e-05
0.000265047
9.70028e-05
0.000321508
0.000100813
0.000370906
0.000102088
0.000413659
9.92396e-05
0.000450479
9.1807e-05
0.000482048
8.01403e-05
0.00050903
6.47195e-05
4.6192e-05
0.000531913
0.000218322
4.51972e-05
0.000315253
5.11887e-05
0.000384199
3.26998e-05
0.000438648
4.1051e-05
0.000483833
5.18225e-05
0.00052397
6.0679e-05
0.00056041
6.56527e-05
0.000593539
6.61153e-05
0.000623536
6.18137e-05
0.000650496
5.31853e-05
0.000674599
4.06206e-05
0.000695907
2.48878e-05
-0.000779255
6.26462e-05
-0.000816545
3.72921e-05
-0.000830143
1.35996e-05
-0.000821744
-8.39711e-06
-0.000792164
-2.95787e-05
-0.000740645
-5.15171e-05
-0.000665174
-7.54686e-05
-0.000564094
-0.000101078
-0.000435058
-0.000129033
-0.000278281
-0.000156775
-0.000112794
-0.000165485
-0.000112792
-0.000658101
8.4816e-05
-0.000671096
5.02898e-05
-0.000675109
1.76143e-05
-0.000669727
-1.37772e-05
-0.000653441
-4.5862e-05
-0.000624183
-8.07725e-05
-0.000580351
-0.000119299
-0.000519295
-0.000162132
-0.000438104
-0.000210223
-0.000333913
-0.000260964
-0.00019828
-0.000301116
-0.00031107
-0.000515043
9.40864e-05
-0.000520756
5.60057e-05
-0.000521863
1.87236e-05
-0.000516487
-1.91504e-05
-0.000503038
-5.93087e-05
-0.000480573
-0.000103235
-0.000447611
-0.000152258
-0.000402744
-0.000206996
-0.000344186
-0.000268779
-0.000266931
-0.000338216
-0.000160255
-0.00040779
-0.000471322
-0.000379468
9.59212e-05
-0.000380022
5.65628e-05
-0.000378023
1.67274e-05
-0.000372387
-2.47835e-05
-0.000362308
-6.93851e-05
-0.000347019
-0.000118521
-0.000325276
-0.000173998
-0.000296133
-0.000236136
-0.000257299
-0.00030761
-0.000204274
-0.000391238
-0.000125067
-0.000486995
-0.000596386
-0.000244677
9.46721e-05
-0.000243243
5.51327e-05
-0.000240915
1.44023e-05
-0.00023708
-2.86148e-05
-0.000231254
-7.52076e-05
-0.00022287
-0.000126902
-0.000211393
-0.000185472
-0.000195571
-0.000251955
-0.00017334
-0.000329838
-0.000141897
-0.000422678
-8.97795e-05
-0.000539109
-0.000686163
-0.000114512
9.08268e-05
-0.000111617
5.22407e-05
-0.000109241
1.20301e-05
-0.000107071
-3.0781e-05
-0.000104892
-7.73833e-05
-0.000102588
-0.000129201
-0.000100179
-0.000187878
-9.68557e-05
-0.000255274
-9.18635e-05
-0.000334827
-8.28053e-05
-0.000431733
-6.03942e-05
-0.000561517
-0.000746554
1.30343e-05
8.43562e-05
1.76094e-05
4.76695e-05
2.05075e-05
9.13597e-06
2.17744e-05
-3.2044e-05
2.12824e-05
-7.68875e-05
1.87479e-05
-0.000126663
1.38015e-05
-0.000182928
6.30018e-06
-0.000247769
-3.67242e-06
-0.000324851
-1.47851e-05
-0.000420617
-2.22349e-05
-0.000554064
-0.000768786
0.000139678
7.46949e-05
0.000146651
4.07002e-05
0.000150995
4.79674e-06
0.000152524
-3.35694e-05
0.000150793
-7.51514e-05
0.000145079
-0.000120946
0.000134382
-0.000172226
0.000117514
-0.000230898
9.31016e-05
-0.000300435
6.0472e-05
-0.000387984
2.23645e-05
-0.000515953
-0.000746418
0.000268341
6.12332e-05
0.000278464
3.0582e-05
0.000285202
-1.93695e-06
0.000288206
-3.65694e-05
0.000286767
-7.37079e-05
0.000279768
-0.000113943
0.000265537
-0.000157991
0.000241835
-0.000207192
0.000205464
-0.00026406
0.000152809
-0.000335325
8.15456e-05
-0.000444686
-0.000664869
0.000403686
4.41543e-05
0.000417044
1.72282e-05
0.000426575
-1.14632e-05
0.000431821
-4.18114e-05
0.000431888
-7.37707e-05
0.000425379
-0.000107428
0.000410052
-0.00014266
0.000382743
-0.000179878
0.000338276
-0.000219589
0.000269942
-0.000266986
0.000165128
-0.000339868
-0.000499737
0.000551081
2.49911e-05
0.000566675
1.63856e-06
0.000578513
-2.32961e-05
0.000586042
-4.93357e-05
0.000588235
-7.59593e-05
0.000583561
-0.00010275
0.000569499
-0.000128594
0.00054246
-0.000152836
0.000495658
-0.000172782
0.000420516
-0.00019184
0.000289102
-0.00020845
-0.000210631
0.000714547
6.35574e-06
0.000730457
-1.42672e-05
0.000743288
-3.61225e-05
0.000752362
-5.84053e-05
0.000756585
-8.01776e-05
0.000754401
-0.000100563
0.000743315
-0.000117504
0.000720102
-0.000129618
0.000678232
-0.000130908
0.000605447
-0.000119052
0.000453057
-5.60562e-05
0.00024243
6.65572e-05
-6.65552e-05
0.000125853
-5.92941e-05
0.000157224
-3.13693e-05
0.000169936
-1.27101e-05
0.00016866
1.27767e-06
0.000135717
3.29451e-05
6.48972e-05
7.08238e-05
-5.81373e-05
0.000123036
-0.000261923
0.000203788
-0.000437042
0.00017512
-0.000565174
0.000128134
9.87338e-05
-0.000663906
5.31191e-05
-0.000119672
8.12571e-05
-8.74307e-05
7.6353e-05
-2.64636e-05
3.73732e-05
2.62718e-05
-4.2971e-05
8.16241e-05
-0.000168735
0.000158711
-0.000325047
0.000227138
-0.00045373
0.000251722
-0.00050012
0.000250182
-0.000534939
0.000209942
-0.000572912
0.000166109
0.000130678
-0.000604855
2.05642e-05
-0.000140234
1.38721e-05
-8.07366e-05
-2.62855e-05
1.36961e-05
-0.000107721
0.00010771
-0.000227825
0.00020173
-0.000337507
0.000268396
-0.000402699
0.000292334
-0.000437933
0.000286959
-0.000449108
0.00026136
-0.000459036
0.000219873
-0.000472174
0.00017925
0.00014092
-0.000482413
-3.86656e-05
-0.000101566
-8.54947e-05
-3.39043e-05
-0.000149481
7.76857e-05
-0.000225772
0.000184005
-0.000292996
0.000268958
-0.000332541
0.000307945
-0.000351042
0.00031084
-0.000357353
0.000293274
-0.0003577
0.000261711
-0.000359037
0.000221214
-0.000360756
0.000180972
0.000141503
-0.000361335
-6.34102e-05
-3.81517e-05
-0.00012729
2.99795e-05
-0.000186592
0.000136992
-0.000235128
0.000232545
-0.000262525
0.00029636
-0.000269639
0.000315064
-0.000266709
0.000307915
-0.000257834
0.000284403
-0.000248034
0.000251915
-0.000241235
0.000214418
-0.000236547
0.000176288
0.000138197
-0.000233237
-6.74248e-05
2.92766e-05
-0.00012686
8.94194e-05
-0.000171627
0.000181764
-0.000194496
0.000255419
-0.000196188
0.000298057
-0.000185833
0.000304714
-0.00016949
0.000291576
-0.000152326
0.000267243
-0.000137018
0.000236612
-0.000125092
0.000202496
-0.000116142
0.000167343
0.000131723
-0.000109665
-6.48533e-05
9.41336e-05
-0.000114607
0.000139178
-0.000140827
0.000207989
-0.000141502
0.000256098
-0.000124103
0.000280662
-9.93633e-05
0.000279979
-7.33283e-05
0.000265546
-4.91315e-05
0.000243051
-2.83768e-05
0.000215862
-1.1705e-05
0.000185828
1.23962e-06
0.000154403
0.000122035
1.09323e-05
-6.49155e-05
0.000159053
-9.97343e-05
0.000174002
-0.000105982
0.000214242
-8.69685e-05
0.00023709
-5.35796e-05
0.000247278
-1.67049e-05
0.000243109
1.86457e-05
0.0002302
5.01212e-05
0.00021158
7.68478e-05
0.00018914
9.87032e-05
0.000163978
0.000116121
0.00013699
0.000108552
0.000129608
-5.25608e-05
0.000211618
-7.75917e-05
0.000199038
-6.43168e-05
0.000200972
-2.84678e-05
0.000201246
1.8366e-05
0.000200449
6.60431e-05
0.000195437
0.000110168
0.00018608
0.000148918
0.000172834
0.000181887
0.000156176
0.000209272
0.000136597
0.000231598
0.000114669
9.07458e-05
0.000249409
-5.7799e-05
0.000269423
-4.81188e-05
0.000189365
-5.01542e-06
0.000157875
4.93474e-05
0.000146888
0.000108056
0.000141746
0.000164106
0.000139391
0.000214593
0.000135598
0.000258616
0.000128815
0.000296274
0.000118523
0.000328023
0.000104853
0.000354443
8.8254e-05
6.91204e-05
0.000376073
6.52529e-06
0.000262904
5.30505e-05
0.000142847
0.000119872
9.10603e-05
0.000186018
8.07477e-05
0.000247921
7.98484e-05
0.000303668
8.36483e-05
0.000352936
8.63348e-05
0.000396026
8.57299e-05
0.000433461
8.10934e-05
0.000465746
7.25719e-05
0.000493342
6.06629e-05
4.58534e-05
0.000516614
0.000211521
5.13901e-05
0.000303981
5.0393e-05
0.000370995
2.40518e-05
0.000423636
2.81115e-05
0.000466821
3.66678e-05
0.000505263
4.52105e-05
0.000540566
5.10367e-05
0.000573158
5.31426e-05
0.000603105
5.115e-05
0.000630343
4.53387e-05
0.0006548
3.62109e-05
0.000676391
2.42667e-05
-0.000732711
6.88063e-05
-0.000774696
4.19872e-05
-0.000792829
1.81346e-05
-0.000788009
-4.81757e-06
-0.000762066
-2.59413e-05
-0.000714159
-4.79046e-05
-0.000642391
-7.17658e-05
-0.000545106
-9.7283e-05
-0.00041992
-0.000125184
-0.000267254
-0.000152664
-0.000106507
-0.000160745
-0.000106505
-0.000627525
9.14795e-05
-0.000641971
5.64348e-05
-0.000647084
2.32499e-05
-0.000643461
-8.43791e-06
-0.000629233
-4.01662e-05
-0.000602413
-7.47224e-05
-0.000561282
-0.000112894
-0.000503184
-0.000155379
-0.000425184
-0.000203181
-0.000324459
-0.000253387
-0.00019259
-0.000292611
-0.000299092
-0.000491749
0.000100819
-0.000497851
6.2539e-05
-0.000499836
2.52385e-05
-0.000495959
-1.23126e-05
-0.000484227
-5.18956e-05
-0.000463785
-9.51611e-05
-0.000433067
-0.00014361
-0.000390888
-0.000197555
-0.000335376
-0.00025869
-0.000261234
-0.000327526
-0.000157847
-0.000395996
-0.000456937
-0.000362234
0.000101721
-0.000362537
6.28454e-05
-0.000360964
2.36692e-05
-0.000356268
-1.70057e-05
-0.000347524
-6.06366e-05
-0.000333974
-0.000108708
-0.000314249
-0.000163331
-0.000287314
-0.000224488
-0.00025079
-0.00029521
-0.000199732
-0.000378582
-0.000122361
-0.000473364
-0.000579295
-0.000231352
9.98397e-05
-0.000229868
6.13646e-05
-0.000228005
2.18106e-05
-0.000225073
-1.99348e-05
-0.000220498
-6.52077e-05
-0.000213624
-0.000115578
-0.000203919
-0.000173033
-0.000189939
-0.000238465
-0.000169531
-0.000315615
-0.000140128
-0.000407982
-8.96814e-05
-0.000523807
-0.000668973
-0.000105336
9.55146e-05
-0.000102484
5.85162e-05
-0.000100606
1.99365e-05
-9.93102e-05
-2.12261e-05
-9.83011e-05
-6.62129e-05
-9.73521e-05
-0.000116523
-9.64567e-05
-0.000173924
-9.46071e-05
-0.000240311
-9.09503e-05
-0.000319268
-8.29772e-05
-0.000415952
-6.10072e-05
-0.000545774
-0.000729977
1.7777e-05
8.86742e-05
2.22359e-05
5.40617e-05
2.46011e-05
1.75755e-05
2.50004e-05
-2.16211e-05
2.33921e-05
-6.46003e-05
1.95897e-05
-0.000112717
1.3322e-05
-0.000167652
4.617e-06
-0.000231602
-6.26041e-06
-0.000308387
-1.77987e-05
-0.00040441
-2.49945e-05
-0.000538575
-0.000754968
0.000139587
7.86997e-05
0.000146402
4.72514e-05
0.000150191
1.37912e-05
0.000150866
-2.22917e-05
0.000148079
-6.18093e-05
0.00014122
-0.000105853
0.000129416
-0.000155844
0.000111668
-0.00021385
8.68662e-05
-0.000283581
5.46709e-05
-0.00037221
1.80603e-05
-0.00050196
-0.000736904
0.000263133
6.49808e-05
0.000273051
3.73378e-05
0.00027921
7.63754e-06
0.000281376
-2.44529e-05
0.000278956
-5.93854e-05
0.000270959
-9.78511e-05
0.000255856
-0.000140736
0.000231595
-0.000189585
0.000195268
-0.000247249
0.000143577
-0.000320516
7.49989e-05
-0.000433378
-0.000661901
0.000393309
4.77498e-05
0.000406391
2.42609e-05
0.000415306
-1.27269e-06
0.000419732
-2.88737e-05
0.000418907
-5.85554e-05
0.000411581
-9.05202e-05
0.000395685
-0.000124836
0.000368243
-0.000162138
0.000324346
-0.000203348
0.000257524
-0.000253689
0.000156453
-0.000332303
-0.000505444
0.000535795
2.85732e-05
0.000551017
9.04388e-06
0.000562188
-1.24385e-05
0.000568915
-3.55958e-05
0.000570324
-5.99595e-05
0.000565065
-8.52563e-05
0.000550844
-0.00011061
0.000524255
-0.000135545
0.000478735
-0.000157823
0.000405845
-0.000180795
0.000278885
-0.000205339
-0.000226555
0.000694973
9.99549e-06
0.000710432
-6.40994e-06
0.000722533
-2.45348e-05
0.000730825
-4.38839e-05
0.00073442
-6.355e-05
0.000732026
-8.28572e-05
0.00072148
-0.00010006
0.000699724
-0.000113785
0.00066038
-0.000118476
0.000590889
-0.0001113
0.000444147
-5.8593e-05
0.000217597
6.91848e-05
-6.91829e-05
0.000126992
-5.78052e-05
0.000157069
-3.00757e-05
0.000169791
-1.27198e-05
0.000162033
7.76007e-06
0.00011389
4.81452e-05
2.89857e-05
8.49097e-05
-0.000135686
0.000164672
-0.000344925
0.000209241
-0.00050243
0.000157507
-0.000625714
0.000123285
9.08612e-05
-0.000716573
5.16792e-05
-0.00012086
7.58132e-05
-8.19375e-05
6.31139e-05
-1.73746e-05
1.13547e-05
3.90416e-05
-8.64681e-05
0.000105586
-0.000229526
0.000191207
-0.000389032
0.00024442
-0.000487908
0.000263551
-0.000524849
0.000246185
-0.000566686
0.000199346
-0.000604929
0.000161531
0.000121856
-0.000635921
1.46462e-05
-0.000135504
-6.1638e-07
-6.66728e-05
-5.3926e-05
3.59373e-05
-0.000152014
0.000137133
-0.000277975
0.000231549
-0.000372866
0.000286102
-0.00042863
0.000300186
-0.000455074
0.000289999
-0.000466326
0.00025744
-0.000480536
0.000213559
-0.000493693
0.00017469
0.000133936
-0.000505771
-4.68937e-05
-8.86072e-05
-0.000102405
-1.11587e-05
-0.000173613
0.000107149
-0.00025121
0.000214734
-0.000311763
0.000292106
-0.000345853
0.000320196
-0.000362534
0.00031687
-0.000368221
0.00029569
-0.000370145
0.000259368
-0.000373678
0.000217095
-0.000375722
0.000176738
0.000135853
-0.000377637
-6.85988e-05
-2.00051e-05
-0.000135225
5.54714e-05
-0.000194885
0.000166813
-0.000241057
0.00026091
-0.000265223
0.000316277
-0.000272312
0.000327289
-0.000270668
0.000315229
-0.000262858
0.000287884
-0.000255624
0.000252138
-0.000251175
0.000212649
-0.00024785
0.000173416
0.000133937
-0.000245931
-6.83977e-05
4.83959e-05
-0.000127265
0.000114343
-0.000169893
0.000209445
-0.000190584
0.000281605
-0.000192005
0.000317702
-0.000183147
0.000318435
-0.000168845
0.000300931
-0.000153911
0.000272954
-0.000141032
0.000239262
-0.00013122
0.000202841
-0.000123734
0.000165934
0.00012857
-0.000118363
-6.24665e-05
0.000110866
-0.000109728
0.000161609
-0.000133311
0.000233032
-0.000132474
0.000280771
-0.000115661
0.000300894
-9.27658e-05
0.000295543
-6.89279e-05
0.000277097
-4.70351e-05
0.000251065
-2.85308e-05
0.000220762
-1.37719e-05
0.000188086
-2.21095e-06
0.000154377
0.000119805
6.5576e-06
-6.09647e-05
0.000171834
-9.22646e-05
0.000192913
-9.55331e-05
0.000236305
-7.47873e-05
0.00026003
-4.16079e-05
0.000267718
-6.17513e-06
0.000260115
2.71913e-05
0.000243734
5.65151e-05
0.000221746
8.11684e-05
0.000196112
0.000101252
0.000168007
0.000117358
0.000138275
0.000107158
0.00013001
-4.8086e-05
0.000219924
-6.90276e-05
0.00021386
-5.23223e-05
0.000219605
-1.40669e-05
0.000221779
3.33419e-05
0.000220314
8.02203e-05
0.00021324
0.000122813
0.000201146
0.000159748
0.000184815
0.0001909
0.000164964
0.000216692
0.00014222
0.000237814
0.000117157
9.01049e-05
0.000254871
-5.35933e-05
0.000273522
-3.99126e-05
0.000200185
7.41914e-06
0.000172278
6.48279e-05
0.000164375
0.000124776
0.00016037
0.000180754
0.000157268
0.000230421
0.000151483
0.000273249
0.000141992
0.00030959
0.000128628
0.000340105
0.00011171
0.000365564
9.17023e-05
6.90769e-05
0.000386596
1.0014e-05
0.000263514
6.2101e-05
0.000148104
0.000132755
0.00010163
0.00020165
9.5485e-05
0.000265028
9.69959e-05
0.000321491
0.000100809
0.000370891
0.000102088
0.000413646
9.92409e-05
0.000450468
9.18098e-05
0.000482038
8.01442e-05
0.000509021
6.47241e-05
4.61971e-05
0.000531906
0.00021832
4.51999e-05
0.000315247
5.11836e-05
0.000384189
3.2693e-05
0.000438634
4.10437e-05
0.000483818
5.18168e-05
0.000523956
6.06756e-05
0.000560396
6.56513e-05
0.000593526
6.61155e-05
0.000623524
6.18155e-05
0.000650485
5.31882e-05
0.000674589
4.06243e-05
0.000695898
2.4892e-05
-0.00077923
6.26577e-05
-0.000816526
3.72979e-05
-0.00083013
1.36056e-05
-0.000821734
-8.39431e-06
-0.000792156
-2.95758e-05
-0.000740639
-5.15155e-05
-0.00066517
-7.5467e-05
-0.000564091
-0.000101077
-0.000435056
-0.000129033
-0.000278279
-0.000156775
-0.000112793
-0.000165484
-0.000112791
-0.00065809
8.48281e-05
-0.000671088
5.02986e-05
-0.000675102
1.7621e-05
-0.000669721
-1.37726e-05
-0.000653437
-4.58583e-05
-0.00062418
-8.07698e-05
-0.000580348
-0.000119296
-0.000519293
-0.00016213
-0.000438102
-0.000210222
-0.000333912
-0.000260963
-0.000198279
-0.000301115
-0.000311068
-0.000515039
9.40985e-05
-0.000520752
5.60149e-05
-0.000521859
1.87305e-05
-0.000516484
-1.91451e-05
-0.000503035
-5.93046e-05
-0.000480571
-0.000103232
-0.000447609
-0.000152256
-0.000402742
-0.000206994
-0.000344185
-0.000268777
-0.00026693
-0.000338215
-0.000160254
-0.000407788
-0.00047132
-0.000379467
9.59319e-05
-0.000380021
5.65713e-05
-0.000378021
1.67341e-05
-0.000372385
-2.47782e-05
-0.000362306
-6.93809e-05
-0.000347017
-0.000118517
-0.000325275
-0.000173995
-0.000296133
-0.000236134
-0.000257298
-0.000307609
-0.000204274
-0.000391237
-0.000125066
-0.000486993
-0.000596383
-0.000244677
9.46817e-05
-0.000243243
5.51406e-05
-0.000240914
1.44087e-05
-0.00023708
-2.86096e-05
-0.000231254
-7.52034e-05
-0.00022287
-0.000126898
-0.000211393
-0.000185469
-0.000195571
-0.000251952
-0.00017334
-0.000329837
-0.000141897
-0.000422677
-8.97798e-05
-0.000539108
-0.000686161
-0.000114513
9.08354e-05
-0.000111617
5.2248e-05
-0.000109241
1.20363e-05
-0.000107071
-3.07757e-05
-0.000104892
-7.73789e-05
-0.000102589
-0.000129198
-0.00010018
-0.000187875
-9.68565e-05
-0.000255272
-9.18644e-05
-0.000334825
-8.2806e-05
-0.000431732
-6.03946e-05
-0.000561516
-0.000746552
1.30328e-05
8.43641e-05
1.76084e-05
4.76764e-05
2.05066e-05
9.14204e-06
2.17735e-05
-3.20387e-05
2.12813e-05
-7.68829e-05
1.87465e-05
-0.000126659
1.37999e-05
-0.000182924
6.29851e-06
-0.000247767
-3.67397e-06
-0.000324849
-1.47864e-05
-0.000420616
-2.22357e-05
-0.000554063
-0.000768785
0.000139676
7.47021e-05
0.000146649
4.07068e-05
0.000150993
4.80273e-06
0.000152523
-3.3564e-05
0.00015079
-7.51466e-05
0.000145077
-0.000120942
0.000134379
-0.000172223
0.000117512
-0.000230895
9.30993e-05
-0.000300433
6.04701e-05
-0.000387983
2.23634e-05
-0.000515953
-0.000746418
0.000268337
6.12398e-05
0.00027846
3.05883e-05
0.000285199
-1.93107e-06
0.000288203
-3.6564e-05
0.000286764
-7.3703e-05
0.000279764
-0.000113938
0.000265533
-0.000157987
0.000241831
-0.000207189
0.000205461
-0.000264059
0.000152806
-0.000335325
8.15441e-05
-0.000444687
-0.00066487
0.00040368
4.41603e-05
0.000417039
1.72341e-05
0.00042657
-1.14575e-05
0.000431817
-4.18061e-05
0.000431884
-7.37659e-05
0.000425374
-0.000107424
0.000410048
-0.000142657
0.000382739
-0.000179876
0.000338272
-0.000219588
0.000269939
-0.000266987
0.000165126
-0.00033987
-0.00049974
0.000551074
2.49964e-05
0.000566669
1.64392e-06
0.000578507
-2.32909e-05
0.000586036
-4.93307e-05
0.000588229
-7.59548e-05
0.000583555
-0.000102746
0.000569494
-0.000128591
0.000542456
-0.000152834
0.000495653
-0.000172782
0.000420512
-0.000191842
0.0002891
-0.000208453
-0.000210637
0.000714539
6.36032e-06
0.000730449
-1.42625e-05
0.000743281
-3.61178e-05
0.000752355
-5.84009e-05
0.000756578
-8.01736e-05
0.000754396
-0.000100559
0.00074331
-0.000117501
0.000720098
-0.000129617
0.000678228
-0.000130908
0.000605443
-0.000119053
0.000453054
-5.60604e-05
0.000242422
6.65622e-05
-6.65602e-05
0.000125861
-5.92965e-05
0.000157232
-3.13696e-05
0.000169945
-1.27116e-05
0.000168666
1.28063e-06
0.000135713
3.29548e-05
6.4888e-05
7.08295e-05
-5.816e-05
0.000123049
-0.000261949
0.000203791
-0.000437059
0.000175112
-0.000565188
0.00012813
9.87298e-05
-0.000663916
5.31203e-05
-0.000119679
8.12573e-05
-8.74321e-05
7.63498e-05
-2.64605e-05
3.73625e-05
2.62778e-05
-4.29908e-05
8.16362e-05
-0.000168762
0.000158728
-0.000325074
0.000227144
-0.000453744
0.000251722
-0.000500127
0.000250177
-0.000534947
0.000209935
-0.000572918
0.000166104
0.000130674
-0.00060486
2.05563e-05
-0.000140233
1.38557e-05
-8.07296e-05
-2.63112e-05
1.37087e-05
-0.000107757
0.000107726
-0.000227863
0.000201744
-0.00033753
0.000268398
-0.000402711
0.000292329
-0.000437938
0.000286953
-0.000449111
0.000261353
-0.000459038
0.000219866
-0.000472176
0.000179245
0.000140916
-0.000482415
-3.86796e-05
-0.00010155
-8.552e-05
-3.3886e-05
-0.000149512
7.77039e-05
-0.0002258
0.000184018
-0.000293012
0.00026896
-0.000332547
0.000307938
-0.000351045
0.00031083
-0.000357354
0.000293266
-0.0003577
0.000261703
-0.000359037
0.000221207
-0.000360756
0.000180967
0.000141498
-0.000361335
-6.34201e-05
-3.81261e-05
-0.000127304
3.00017e-05
-0.000186604
0.000137009
-0.000235134
0.000232552
-0.000262524
0.000296355
-0.000269636
0.000315055
-0.000266706
0.000307905
-0.000257831
0.000284395
-0.000248032
0.000251908
-0.000241233
0.000214412
-0.000236545
0.000176283
0.000138192
-0.000233236
-6.74266e-05
2.93041e-05
-0.000126861
8.9441e-05
-0.000171625
0.000181777
-0.000194489
0.000255422
-0.00019618
0.000298051
-0.000185826
0.000304705
-0.000169484
0.000291568
-0.000152321
0.000267236
-0.000137015
0.000236606
-0.00012509
0.00020249
-0.000116141
0.000167338
0.00013172
-0.000109664
-6.48491e-05
9.41569e-05
-0.000114599
0.000139196
-0.000140816
0.000207999
-0.00014149
0.0002561
-0.000124092
0.000280658
-9.93554e-05
0.000279973
-7.33223e-05
0.000265539
-4.91269e-05
0.000243045
-2.83735e-05
0.000215857
-1.17026e-05
0.000185824
1.24123e-06
0.000154399
0.000122032
1.09334e-05
-6.49085e-05
0.000159069
-9.9722e-05
0.000174014
-0.000105968
0.000214249
-8.69549e-05
0.000237092
-5.35686e-05
0.000247277
-1.66965e-05
0.000243105
1.8652e-05
0.000230196
5.01259e-05
0.000211575
7.68513e-05
0.000189136
9.87057e-05
0.000163974
0.000116122
0.000136987
0.00010855
0.000129609
-5.25515e-05
0.000211625
-7.75778e-05
0.000199046
-6.43021e-05
0.000200979
-2.84542e-05
0.00020125
1.83773e-05
0.00020045
6.60519e-05
0.000195435
0.000110174
0.000186078
0.000148923
0.000172831
0.00018189
0.000156173
0.000209275
0.000136594
0.0002316
0.000114667
9.07438e-05
0.00024941
-5.77913e-05
0.000269422
-4.81083e-05
0.00018937
-5.00344e-06
0.00015788
4.93592e-05
0.000146893
0.000108066
0.000141749
0.000164115
0.000139392
0.000214599
0.000135598
0.000258621
0.000128814
0.000296278
0.000118522
0.000328026
0.000104851
0.000354445
8.82525e-05
6.91189e-05
0.000376075
6.52846e-06
0.0002629
5.30568e-05
0.000142849
0.00011988
9.10635e-05
0.000186026
8.07515e-05
0.000247929
7.98513e-05
0.000303675
8.36502e-05
0.000352942
8.63357e-05
0.000396031
8.573e-05
0.000433465
8.1093e-05
0.000465749
7.25711e-05
0.000493345
6.0662e-05
4.58525e-05
0.000516616
0.000211521
5.1386e-05
0.000303983
5.03931e-05
0.000370999
2.40534e-05
0.000423641
2.81141e-05
0.000466827
3.66702e-05
0.000505269
4.52124e-05
0.000540571
5.1038e-05
0.000573162
5.31433e-05
0.000603109
5.11502e-05
0.000630346
4.53385e-05
0.000654803
3.62104e-05
0.000676394
2.42661e-05
-0.000732719
6.88043e-05
-0.000774702
4.19851e-05
-0.000792834
1.81336e-05
-0.000788013
-4.81855e-06
-0.00076207
-2.59417e-05
-0.000714162
-4.79052e-05
-0.000642394
-7.1766e-05
-0.000545109
-9.72834e-05
-0.000419923
-0.000125184
-0.000267256
-0.000152665
-0.000106508
-0.000160745
-0.000106506
-0.000627529
9.14764e-05
-0.000641974
5.64323e-05
-0.000647086
2.32483e-05
-0.000643463
-8.43905e-06
-0.000629236
-4.0167e-05
-0.000602415
-7.4723e-05
-0.000561284
-0.000112895
-0.000503186
-0.000155379
-0.000425185
-0.000203182
-0.00032446
-0.000253388
-0.00019259
-0.000292612
-0.000299094
-0.000491751
0.000100815
-0.000497852
6.25363e-05
-0.000499838
2.52367e-05
-0.00049596
-1.23139e-05
-0.000484228
-5.18965e-05
-0.000463786
-9.51617e-05
-0.000433068
-0.00014361
-0.000390889
-0.000197556
-0.000335377
-0.000258691
-0.000261235
-0.000327527
-0.000157847
-0.000395998
-0.000456939
-0.000362234
0.000101717
-0.000362537
6.28429e-05
-0.000360965
2.36675e-05
-0.000356269
-1.70068e-05
-0.000347524
-6.06373e-05
-0.000333975
-0.000108708
-0.00031425
-0.000163332
-0.000287314
-0.000224488
-0.000250791
-0.000295211
-0.000199733
-0.000378583
-0.000122361
-0.000473366
-0.000579297
-0.000231351
9.98366e-05
-0.000229867
6.13624e-05
-0.000228005
2.18091e-05
-0.000225073
-1.99358e-05
-0.000220498
-6.52083e-05
-0.000213624
-0.000115578
-0.00020392
-0.000173033
-0.00018994
-0.000238465
-0.000169532
-0.000315615
-0.000140128
-0.000407983
-8.96817e-05
-0.000523809
-0.000668976
-0.000105335
9.55119e-05
-0.000102483
5.85142e-05
-0.000100605
1.99352e-05
-9.931e-05
-2.1227e-05
-9.83011e-05
-6.62134e-05
-9.73522e-05
-0.000116523
-9.64569e-05
-0.000173924
-9.46074e-05
-0.000240311
-9.09507e-05
-0.000319269
-8.29777e-05
-0.000415953
-6.10077e-05
-0.000545776
-0.000729981
1.77778e-05
8.86718e-05
2.22364e-05
5.40599e-05
2.46015e-05
1.75743e-05
2.50006e-05
-2.16219e-05
2.33922e-05
-6.46007e-05
1.95897e-05
-0.000112717
1.33219e-05
-0.000167652
4.61684e-06
-0.000231602
-6.2607e-06
-0.000308387
-1.77991e-05
-0.00040441
-2.49948e-05
-0.000538577
-0.000754972
0.000139588
7.86977e-05
0.000146402
4.72499e-05
0.000150191
1.37902e-05
0.000150866
-2.22923e-05
0.000148079
-6.18096e-05
0.00014122
-0.000105853
0.000129416
-0.000155844
0.000111668
-0.00021385
8.68661e-05
-0.000283581
5.46706e-05
-0.000372211
1.806e-05
-0.000501962
-0.000736908
0.000263134
6.49791e-05
0.000273052
3.73366e-05
0.00027921
7.63665e-06
0.000281376
-2.44534e-05
0.000278957
-5.93856e-05
0.000270959
-9.78511e-05
0.000255857
-0.000140736
0.000231596
-0.000189585
0.000195268
-0.000247249
0.000143577
-0.000320516
7.49988e-05
-0.00043338
-0.000661906
0.00039331
4.77485e-05
0.000406392
2.42599e-05
0.000415307
-1.27341e-06
0.000419733
-2.88741e-05
0.000418907
-5.85556e-05
0.000411581
-9.05203e-05
0.000395685
-0.000124836
0.000368243
-0.000162138
0.000324347
-0.000203348
0.000257524
-0.00025369
0.000156453
-0.000332305
-0.000505448
0.000535797
2.85722e-05
0.000551019
9.0431e-06
0.000562189
-1.24391e-05
0.000568916
-3.55962e-05
0.000570325
-5.99596e-05
0.000565066
-8.52563e-05
0.000550845
-0.00011061
0.000524257
-0.000135545
0.000478736
-0.000157823
0.000405846
-0.000180795
0.000278886
-0.00020534
-0.000226558
0.000694976
9.99483e-06
0.000710434
-6.41054e-06
0.000722535
-2.45353e-05
0.000730827
-4.38841e-05
0.000734422
-6.35501e-05
0.000732028
-8.28572e-05
0.000721482
-0.00010006
0.000699726
-0.000113785
0.000660383
-0.000118476
0.000590892
-0.0001113
0.000444149
-5.85938e-05
0.000217595
0.000817681
9.56463e-05
-0.000868126
0.000799275
6.9599e-05
0.000776421
5.55584e-05
0.000767329
5.01471e-05
0.000769083
5.00722e-05
0.000778389
5.13766e-05
0.000792422
5.16239e-05
0.000809051
4.949e-05
0.000826791
4.40773e-05
0.000844672
3.5309e-05
0.000862189
2.31072e-05
8.24154e-06
0.00087884
0.00108762
9.22585e-05
-0.00108423
0.00107677
8.04556e-05
0.00106097
7.13586e-05
0.0010468
6.43241e-05
0.00103739
5.94868e-05
0.00103325
5.55179e-05
0.00103375
5.1124e-05
0.00103794
4.53027e-05
0.00104488
3.71449e-05
0.00105378
2.64166e-05
0.00106413
1.27587e-05
-2.83847e-06
0.00107521
0.0012847
8.47552e-05
-0.0012772
0.00128462
8.05465e-05
0.00128033
7.56497e-05
0.00127416
7.04952e-05
0.00126812
6.55287e-05
0.00126342
6.02181e-05
0.00126065
5.39018e-05
0.00126001
4.5945e-05
0.0012615
3.56569e-05
0.00126504
2.28789e-05
0.00127058
7.22449e-06
-9.84641e-06
0.00127759
0.00147357
-0.00146945
8.06328e-05
0.00147638
7.77408e-05
0.00147724
7.47945e-05
0.00147649
7.1251e-05
0.00147478
6.72354e-05
0.00147282
6.21866e-05
0.0014712
5.55201e-05
0.00147043
4.67181e-05
0.00147085
3.52395e-05
0.00147275
2.09824e-05
0.00147638
3.60265e-06
0.00148199