/*--------------------------------*- C++ -*----------------------------------*\
| =========                 |                                                 |
| \\      /  F ield         | OpenFOAM: The Open Source CFD Toolbox           |
|  \\    /   O peration     | Version:  2212                                  |
|   \\  /    A nd           | Website:  www.openfoam.com                      |
|    \\/     M anipulation  |                                                 |
\*---------------------------------------------------------------------------*/
FoamFile
{
    version     2.0;
    format      ascii;
    arch        "LSB;label=32;scalar=64";
    class       surfaceScalarField;
    location    "0.02";
    object      phi;
}
// * * * * * * * * * * * * * * * * * * * * * * * * * * * * * * * * * * * * * //

dimensions      [1 0 -1 0 0 0 0];

oriented        oriented;

internalField   nonuniform List<scalar> 
5952
(
5.75505e-05
-5.75465e-05
0.000112791
-5.52369e-05
0.000148447
-3.56529e-05
0.000161463
-1.30124e-05
0.000162951
-1.4848e-06
0.000155025
7.93018e-06
0.000118504
3.65251e-05
4.16305e-05
7.68798e-05
-0.000105284
0.000146918
-0.000304737
0.000199458
-0.000454539
0.000149808
0.000111917
-0.00056645
5.12347e-05
-0.000108777
8.62525e-05
-9.02511e-05
9.27492e-05
-4.21466e-05
7.59633e-05
3.77665e-06
3.10898e-05
4.33925e-05
-5.17061e-05
9.07311e-05
-0.000182212
0.000167036
-0.000337811
0.000232486
-0.000442504
0.000251619
-0.000479242
0.000236204
-0.000517518
0.000188092
0.000147739
-0.000553333
3.48712e-05
-0.000143643
4.97796e-05
-0.000105156
3.73257e-05
-2.96891e-05
-4.40626e-06
4.55131e-05
-8.85022e-05
0.000127494
-0.000212765
0.000215
-0.000327302
0.00028158
-0.00039306
0.000298252
-0.000423854
0.00028242
-0.000433711
0.000246069
-0.000444973
0.000199363
0.000158049
-0.000455274
-6.15226e-06
-0.000137485
-2.25017e-05
-8.88016e-05
-5.78634e-05
5.67781e-06
-0.000118838
0.000106494
-0.000202533
0.000211195
-0.000280115
0.00029259
-0.000324807
0.000326281
-0.000342734
0.000316187
-0.000348146
0.000287842
-0.000349645
0.000247578
-0.000352546
0.000202272
0.000159635
-0.000354123
-3.45197e-05
-0.000102958
-7.69803e-05
-4.6334e-05
-0.000127152
5.58566e-05
-0.000184206
0.000163556
-0.000236863
0.000263862
-0.000265676
0.000321413
-0.000270344
0.00033096
-0.000265429
0.000311283
-0.000256636
0.00027906
-0.000248794
0.000239746
-0.000243987
0.000197475
0.000155862
-0.000240204
-5.65545e-05
-4.63945e-05
-0.00010931
6.43015e-06
-0.000157729
0.000104285
-0.000193841
0.000199679
-0.000210446
0.000280477
-0.000205166
0.000316145
-0.000190117
0.000315922
-0.000173013
0.000294191
-0.000157417
0.000263475
-0.000144962
0.000227303
-0.000135953
0.000188476
0.000149102
-0.000129183
-6.79455e-05
2.15604e-05
-0.00012362
6.21145e-05
-0.000158792
0.000139466
-0.000168626
0.000209523
-0.000155199
0.000267061
-0.000129527
0.000290485
-0.000101975
0.000288382
-7.76679e-05
0.000269896
-5.74462e-05
0.000243265
-4.15996e-05
0.000211468
-2.97359e-05
0.000176624
0.000140204
-2.0826e-05
-7.50133e-05
9.6584e-05
-0.000122454
0.000109566
-0.000138576
0.0001556
-0.000124834
0.000195792
-9.10188e-05
0.000233257
-5.19196e-05
0.000251398
-1.54196e-05
0.000251894
1.51252e-05
0.000239363
3.96475e-05
0.000218755
5.87127e-05
0.000192415
7.32336e-05
0.000162115
0.000129126
8.43238e-05
-6.93113e-05
0.000165907
-0.000106117
0.000146385
-0.00010157
0.000151066
-7.08611e-05
0.000165095
-2.46348e-05
0.000187044
2.38267e-05
0.000202949
6.75734e-05
0.00020816
0.00010385
0.0002031
0.000132756
0.000189862
0.000155303
0.000169881
0.0001728
0.000144631
0.000115388
0.000186551
-7.11103e-05
0.000237032
-7.18603e-05
0.000147149
-4.09408e-05
0.00012016
3.89295e-06
0.000120276
5.70021e-05
0.000133948
0.000109544
0.00015042
0.000156376
0.000161342
0.000195452
0.000164037
0.000226954
0.000158374
0.000252005
0.000144845
0.00027203
0.000124619
9.89636e-05
0.000288469
-8.21454e-07
0.000237869
3.10525e-05
0.000115291
8.10954e-05
7.01328e-05
0.00013193
6.94563e-05
0.000181787
8.41059e-05
0.0002282
0.000104021
0.000269309
0.000120247
0.000304232
0.000129127
0.000333231
0.000129389
0.000357228
0.000120862
0.000377414
0.000104448
8.11665e-05
0.000395226
0.000195365
4.25199e-05
0.000268921
4.17508e-05
0.000314737
2.43323e-05
0.000346723
3.74856e-05
0.000372933
5.79106e-05
0.000397495
7.94721e-05
0.000420738
9.70188e-05
0.000442177
0.000107703
0.000461552
0.000110028
0.000479192
0.000103236
0.000495676
8.79793e-05
0.000512418
6.44401e-05
-0.000646742
8.03032e-05
-0.000696721
4.99712e-05
-0.000721911
2.52011e-05
-0.000722345
4.40132e-07
-0.000701405
-2.09337e-05
-0.000658218
-4.31815e-05
-0.000591432
-6.678e-05
-0.000499634
-9.17914e-05
-0.000381107
-0.000118521
-0.000236987
-0.000144113
-8.92069e-05
-0.000147773
-8.92004e-05
-0.000579225
0.000106203
-0.000596893
6.76444e-05
-0.000604271
3.25865e-05
-0.000602685
-1.13851e-06
-0.000590375
-3.3237e-05
-0.000565687
-6.78618e-05
-0.000527184
-0.000105276
-0.000472468
-0.0001465
-0.000398921
-0.000192061
-0.00030443
-0.000238597
-0.000179266
-0.00027293
-0.00026846
-0.000464919
0.000115856
-0.000472228
7.49613e-05
-0.00047511
3.54763e-05
-0.000472293
-3.94764e-06
-0.000461137
-4.43847e-05
-0.000441536
-8.74552e-05
-0.000412328
-0.000134476
-0.000372561
-0.000186259
-0.000320423
-0.000244191
-0.000250899
-0.000308113
-0.000153315
-0.000370505
-0.000421768
-0.000355057
0.000116799
-0.000354679
7.45917e-05
-0.000352118
3.29238e-05
-0.000346638
-9.41873e-06
-0.000337263
-5.37507e-05
-0.00032325
-0.00010146
-0.00030335
-0.000154367
-0.000276579
-0.00021302
-0.000241078
-0.000279685
-0.000191212
-0.000357971
-0.000116228
-0.000445481
-0.000537988
-0.000237386
0.000113991
-0.000234927
7.21424e-05
-0.000231976
2.99823e-05
-0.000227871
-1.35142e-05
-0.000222033
-5.95788e-05
-0.000213903
-0.000109581
-0.000202716
-0.000165544
-0.000187461
-0.000228267
-0.000166149
-0.000300988
-0.000136793
-0.000387317
-8.80199e-05
-0.000494246
-0.000625999
-0.000124237
0.000109056
-0.000120537
6.84525e-05
-0.000117466
2.69218e-05
-0.000114593
-1.63762e-05
-0.000111607
-6.25542e-05
-0.000108225
-0.000112953
-0.000104538
-0.00016922
-9.97623e-05
-0.000233033
-9.31348e-05
-0.000307605
-8.26169e-05
-0.000397825
-5.89253e-05
-0.000517928
-0.000684915
-1.42296e-05
0.000102471
-9.39855e-06
6.36329e-05
-5.9052e-06
2.34398e-05
-3.56811e-06
-1.8702e-05
-2.41093e-06
-6.37002e-05
-2.63211e-06
-0.000112721
-4.65098e-06
-0.000167191
-8.71284e-06
-0.00022896
-1.49048e-05
-0.000301403
-2.2236e-05
-0.000390484
-2.6128e-05
-0.000514026
-0.000711034
9.28287e-05
9.39787e-05
9.93093e-05
5.71646e-05
0.000104098
1.86636e-05
0.000107153
-2.17447e-05
0.000108109
-6.46445e-05
0.000106274
-0.000110874
0.000100548
-0.000161453
8.95752e-05
-0.000217976
7.17802e-05
-0.000283597
4.6362e-05
-0.000365055
1.58049e-05
-0.000483458
-0.000695218
0.000197657
8.28859e-05
0.000206731
4.81045e-05
0.000214107
1.13003e-05
0.000219556
-2.71809e-05
0.000222384
-6.74597e-05
0.000221382
-0.00010986
0.000214622
-0.000154681
0.000199522
-0.000202864
0.000172515
-0.000256578
0.000129774
-0.000322302
6.94975e-05
-0.00042317
-0.000625709
0.000302699
6.86695e-05
0.000315258
3.55591e-05
0.000326533
3.91212e-08
0.000336114
-3.67478e-05
0.000342979
-7.43113e-05
0.000345395
-0.000112263
0.000340601
-0.000149875
0.000324885
-0.000187135
0.000292606
-0.000224287
0.000236977
-0.000266661
0.000147122
-0.000333302
-0.000478574
0.00041233
5.15802e-05
0.000428783
1.912e-05
0.000444923
-1.60863e-05
0.000460051
-5.18611e-05
0.000472746
-8.69931e-05
0.000480719
-0.000120222
0.000480554
-0.000149697
0.000467851
-0.000174419
0.00043538
-0.000191803
0.000374582
-0.00020585
0.000260117
-0.000218825
-0.000218443
0.000531529
3.2484e-05
0.000551927
-1.26266e-06
0.000573566
-3.77101e-05
0.000595101
-7.33812e-05
0.00061458
-0.000106458
0.00062909
-0.000134718
0.000634971
-0.000155565
0.000628003
-0.000167438
0.000601276
-0.000165063
0.000543329
-0.00014789
0.00041218
-8.76621e-05
0.000193752
5.75522e-05
-5.75482e-05
0.000112794
-5.52384e-05
0.000148451
-3.56537e-05
0.000161467
-1.30124e-05
0.000162955
-1.48419e-06
0.000155026
7.93188e-06
0.000118502
3.65282e-05
4.16245e-05
7.68842e-05
-0.000105303
0.000146931
-0.000304759
0.000199462
-0.00045456
0.000149807
0.000111918
-0.000566472
5.12364e-05
-0.00010878
8.6255e-05
-9.02534e-05
9.2752e-05
-4.21477e-05
7.59652e-05
3.77763e-06
3.10887e-05
4.33962e-05
-5.17128e-05
9.07384e-05
-0.000182226
0.000167047
-0.00033783
0.000232495
-0.000442518
0.000251627
-0.000479256
0.000236207
-0.000517534
0.000188093
0.00014774
-0.000553349
3.4872e-05
-0.000143647
4.97802e-05
-0.000105158
3.73254e-05
-2.96893e-05
-4.40884e-06
4.55165e-05
-8.85091e-05
0.000127501
-0.000212777
0.000215012
-0.000327315
0.000281593
-0.000393073
0.00029826
-0.000423865
0.000282427
-0.000433723
0.000246073
-0.000444986
0.000199364
0.000158049
-0.000455287
-6.15128e-06
-0.00013749
-2.25005e-05
-8.88041e-05
-5.78634e-05
5.67883e-06
-0.000118841
0.0001065
-0.00020254
0.000211207
-0.000280124
0.000292604
-0.000324816
0.000326293
-0.000342743
0.000316197
-0.000348156
0.000287849
-0.000349656
0.000247582
-0.000352557
0.000202274
0.000159635
-0.000354134
-3.45181e-05
-0.000102964
-7.6978e-05
-4.63372e-05
-0.00012715
5.58586e-05
-0.000184207
0.000163565
-0.000236867
0.000263876
-0.000265681
0.000321429
-0.000270351
0.000330973
-0.000265437
0.000311294
-0.000256644
0.000279067
-0.000248803
0.000239751
-0.000243995
0.000197477
0.000155862
-0.000240212
-5.65532e-05
-4.64027e-05
-0.000109308
6.42627e-06
-0.000157728
0.000104287
-0.000193842
0.00019969
-0.000210449
0.000280493
-0.00020517
0.000316162
-0.000190122
0.000315936
-0.000173018
0.000294201
-0.000157422
0.000263482
-0.000144968
0.000227307
-0.000135958
0.000188478
0.000149103
-0.000129188
-6.7946e-05
2.15527e-05
-0.000123621
6.21113e-05
-0.000158794
0.00013947
-0.000168629
0.000209535
-0.000155202
0.000267078
-0.000129529
0.000290501
-0.000101976
0.000288395
-7.76697e-05
0.000269906
-5.74481e-05
0.000243273
-4.16017e-05
0.000211473
-2.97381e-05
0.000176626
0.000140204
-2.08282e-05
-7.50161e-05
9.65791e-05
-0.000122458
0.000109564
-0.000138581
0.000155604
-0.000124837
0.000195802
-9.1019e-05
0.000233272
-5.19181e-05
0.000251412
-1.54174e-05
0.000251907
1.51275e-05
0.000239374
3.96496e-05
0.000218763
5.87145e-05
0.00019242
7.32351e-05
0.000162118
0.000129127
8.43251e-05
-6.93154e-05
0.000165906
-0.000106122
0.000146384
-0.000101574
0.000151068
-7.08619e-05
0.000165102
-2.46323e-05
0.000187054
2.38315e-05
0.000202961
6.75793e-05
0.000208171
0.000103856
0.00020311
0.000132762
0.00018987
0.000155308
0.000169886
0.000172805
0.000144634
0.000115389
0.000186556
-7.1113e-05
0.000237034
-7.18631e-05
0.000147149
-4.09421e-05
0.000120161
3.8943e-06
0.00012028
5.70065e-05
0.000133956
0.000109551
0.00015043
0.000156384
0.000161352
0.000195461
0.000164046
0.000226963
0.000158381
0.000252013
0.00014485
0.000272039
0.000124623
9.8965e-05
0.000288477
-8.21437e-07
0.000237871
3.10533e-05
0.00011529
8.10973e-05
7.01327e-05
0.000131933
6.94589e-05
0.000181792
8.41116e-05
0.000228208
0.000104028
0.000269318
0.000120256
0.000304242
0.000129136
0.000333241
0.000129396
0.000357238
0.000120868
0.000377424
0.000104452
8.11683e-05
0.000395235
0.000195369
4.25178e-05
0.000268927
4.17482e-05
0.000314742
2.43323e-05
0.000346728
3.74882e-05
0.000372939
5.79157e-05
0.000397502
7.94788e-05
0.000420746
9.70264e-05
0.000442186
0.00010771
0.000461562
0.000110035
0.000479202
0.000103242
0.000495686
8.79833e-05
0.000512427
6.44423e-05
-0.000646762
8.0302e-05
-0.000696741
4.99707e-05
-0.000721929
2.51996e-05
-0.000722362
4.38835e-07
-0.000701421
-2.09354e-05
-0.000658232
-4.31831e-05
-0.000591444
-6.6782e-05
-0.000499644
-9.17933e-05
-0.000381114
-0.000118523
-0.000236993
-0.000144115
-8.92098e-05
-0.000147776
-8.92032e-05
-0.000579241
0.000106202
-0.000596908
6.76433e-05
-0.000604286
3.25846e-05
-0.000602699
-1.14073e-06
-0.000590388
-3.32396e-05
-0.000565699
-6.78648e-05
-0.000527195
-0.000105279
-0.000472477
-0.000146504
-0.000398928
-0.000192065
-0.000304435
-0.000238601
-0.000179269
-0.000272934
-0.000268465
-0.000464932
0.000115855
-0.000472241
7.49598e-05
-0.000475122
3.54738e-05
-0.000472304
-3.95082e-06
-0.000461147
-4.43885e-05
-0.000441545
-8.74596e-05
-0.000412335
-0.000134481
-0.000372567
-0.000186264
-0.000320427
-0.000244197
-0.000250902
-0.000308119
-0.000153316
-0.000370512
-0.000421775
-0.000355068
0.000116798
-0.000354689
7.45896e-05
-0.000352127
3.29207e-05
-0.000346646
-9.42263e-06
-0.000337271
-5.37553e-05
-0.000323257
-0.000101465
-0.000303356
-0.000154373
-0.000276584
-0.000213027
-0.000241081
-0.000279691
-0.000191214
-0.000357977
-0.000116229
-0.000445489
-0.000537996
-0.000237394
0.00011399
-0.000234935
7.21399e-05
-0.000231983
2.99787e-05
-0.000227877
-1.35188e-05
-0.000222039
-5.95842e-05
-0.000213907
-0.000109587
-0.00020272
-0.000165551
-0.000187464
-0.000228274
-0.000166151
-0.000300995
-0.000136794
-0.000387325
-8.80201e-05
-0.000494254
-0.000626008
-0.000124242
0.000109055
-0.000120542
6.84497e-05
-0.00011747
2.69178e-05
-0.000114597
-1.63813e-05
-0.000111611
-6.25602e-05
-0.000108228
-0.00011296
-0.00010454
-0.000169228
-9.9764e-05
-0.000233041
-9.3136e-05
-0.000307614
-8.26175e-05
-0.000397834
-5.89255e-05
-0.000517937
-0.000684924
-1.42317e-05
0.00010247
-9.40049e-06
6.36299e-05
-5.90687e-06
2.34355e-05
-3.56945e-06
-1.87074e-05
-2.41192e-06
-6.37066e-05
-2.63277e-06
-0.000112728
-4.65133e-06
-0.000167198
-8.7129e-06
-0.000228968
-1.49046e-05
-0.000301411
-2.22356e-05
-0.000390493
-2.61275e-05
-0.000514034
-0.000711042
9.283e-05
9.39773e-05
9.93106e-05
5.71617e-05
0.000104099
1.86593e-05
0.000107154
-2.17502e-05
0.00010811
-6.46509e-05
0.000106275
-0.000110881
0.000100549
-0.000161461
8.95766e-05
-0.000217984
7.17816e-05
-0.000283605
4.63632e-05
-0.000365063
1.58057e-05
-0.000483466
-0.000695225
0.000197662
8.28848e-05
0.000206735
4.81018e-05
0.000214111
1.12962e-05
0.00021956
-2.71862e-05
0.000222388
-6.74659e-05
0.000221385
-0.000109867
0.000214625
-0.000154688
0.000199525
-0.000202872
0.000172517
-0.000256586
0.000129776
-0.00032231
6.94989e-05
-0.000423177
-0.000625715
0.000302706
6.86689e-05
0.000315265
3.55568e-05
0.00032654
3.54796e-08
0.00033612
-3.67527e-05
0.000342984
-7.43171e-05
0.0003454
-0.000112269
0.000340606
-0.000149882
0.000324889
-0.000187143
0.00029261
-0.000224294
0.00023698
-0.000266668
0.000147124
-0.000333309
-0.000478578
0.000412339
5.15802e-05
0.000428792
1.91184e-05
0.000444931
-1.60893e-05
0.000460058
-5.18654e-05
0.000472753
-8.69984e-05
0.000480725
-0.000120228
0.00048056
-0.000149704
0.000467856
-0.000174426
0.000435385
-0.00019181
0.000374586
-0.000205857
0.00026012
-0.00021883
-0.000218444
0.000531538
3.24844e-05
0.000551936
-1.26379e-06
0.000573574
-3.77126e-05
0.000595108
-7.3385e-05
0.000614587
-0.000106463
0.000629097
-0.000134724
0.000634978
-0.000155571
0.00062801
-0.000167444
0.000601283
-0.000165069
0.000543335
-0.000147896
0.000412184
-8.76657e-05
0.000193755
5.75497e-05
-5.75457e-05
0.000112789
-5.52358e-05
0.000148445
-3.56527e-05
0.000161462
-1.30132e-05
0.00016295
-1.48483e-06
0.000155025
7.92865e-06
0.000118507
3.65222e-05
4.16338e-05
7.68796e-05
-0.000105283
0.00014692
-0.00030474
0.000199462
-0.000454545
0.000149812
0.000111919
-0.000566458
5.12345e-05
-0.000108776
8.62528e-05
-9.02506e-05
9.27505e-05
-4.21472e-05
7.59653e-05
3.77512e-06
3.10941e-05
4.33902e-05
-5.16991e-05
9.07269e-05
-0.000182205
0.000167034
-0.000337808
0.000232489
-0.000442506
0.000251625
-0.000479246
0.00023621
-0.000517524
0.000188097
0.000147743
-0.00055334
3.48737e-05
-0.000143644
4.97851e-05
-0.000105158
3.73347e-05
-2.96933e-05
-4.39308e-06
4.55075e-05
-8.84844e-05
0.000127487
-0.000212748
0.000214997
-0.000327294
0.000281586
-0.000393059
0.000298263
-0.000423857
0.00028243
-0.000433716
0.000246078
-0.000444979
0.000199369
0.000158053
-0.000455281
-6.14354e-06
-0.000137495
-2.24858e-05
-8.88113e-05
-5.78417e-05
5.66787e-06
-0.000118813
0.000106485
-0.00020251
0.000211191
-0.000280102
0.000292597
-0.000324803
0.000326296
-0.000342735
0.000316204
-0.000348151
0.000287855
-0.000349651
0.000247588
-0.000352553
0.000202279
0.000159639
-0.00035413
-3.45086e-05
-0.000102979
-7.69606e-05
-4.63523e-05
-0.000127128
5.58429e-05
-0.000184185
0.000163549
-0.00023685
0.000263866
-0.000265674
0.00032143
-0.000270347
0.000330981
-0.000265434
0.000311301
-0.000256642
0.000279073
-0.000248801
0.000239757
-0.000243993
0.000197482
0.000155866
-0.00024021
-5.65479e-05
-4.64224e-05
-0.000109299
6.40724e-06
-0.000157717
0.000104271
-0.000193835
0.000199676
-0.000210447
0.000280489
-0.000205172
0.000316166
-0.000190123
0.000315944
-0.000173019
0.000294208
-0.000157423
0.000263488
-0.000144968
0.000227313
-0.000135958
0.000188482
0.000149106
-0.000129187
-6.79461e-05
2.1533e-05
-0.000123623
6.20936e-05
-0.000158797
0.000139456
-0.000168635
0.000209524
-0.000155209
0.000267075
-0.000129536
0.000290505
-0.000101981
0.000288401
-7.76728e-05
0.000269912
-5.74501e-05
0.000243277
-4.16028e-05
0.000211477
-2.97386e-05
0.00017663
0.000140208
-2.08282e-05
-7.50206e-05
9.6564e-05
-0.000122467
0.000109551
-0.000138592
0.000155592
-0.000124849
0.000195792
-9.10299e-05
0.000233267
-5.19264e-05
0.000251413
-1.54231e-05
0.00025191
1.51237e-05
0.000239377
3.9647e-05
0.000218766
5.87128e-05
0.000192423
7.3234e-05
0.000162121
0.00012913
8.43244e-05
-6.93222e-05
0.000165898
-0.000106133
0.000146376
-0.000101588
0.000151059
-7.08761e-05
0.000165093
-2.46448e-05
0.000187049
2.38218e-05
0.000202959
6.75725e-05
0.000208172
0.000103851
0.000203111
0.000132758
0.000189872
0.000155306
0.000169889
0.000172804
0.000144636
0.000115392
0.000186555
-7.11197e-05
0.000237032
-7.1873e-05
0.000147143
-4.09544e-05
0.000120154
3.88103e-06
0.000120272
5.69941e-05
0.000133949
0.000109541
0.000150426
0.000156376
0.00016135
0.000195455
0.000164046
0.000226959
0.000158382
0.00025201
0.000144852
0.000272036
0.000124625
9.89672e-05
0.000288474
-8.2513e-07
0.000237873
3.10467e-05
0.000115287
8.10891e-05
7.01275e-05
0.000131924
6.94517e-05
0.000181783
8.41047e-05
0.000228199
0.000104023
0.000269311
0.000120253
0.000304237
0.000129134
0.000333237
0.000129396
0.000357234
0.000120868
0.00037742
0.000104454
8.11703e-05
0.000395232
0.00019537
4.25189e-05
0.000268927
4.17463e-05
0.000314742
2.4328e-05
0.000346726
3.74824e-05
0.000372935
5.79099e-05
0.000397499
7.94742e-05
0.000420742
9.70233e-05
0.000442182
0.000107709
0.000461558
0.000110035
0.000479199
0.000103243
0.000495682
8.79849e-05
0.000512423
6.44444e-05
-0.000646751
8.03045e-05
-0.00069673
4.99717e-05
-0.00072192
2.52012e-05
-0.000722354
4.39806e-07
-0.000701414
-2.09342e-05
-0.000658226
-4.31822e-05
-0.000591439
-6.6781e-05
-0.00049964
-9.17926e-05
-0.000381111
-0.000118523
-0.00023699
-0.000144115
-8.92078e-05
-0.000147775
-8.92013e-05
-0.000579233
0.000106205
-0.000596902
6.76454e-05
-0.00060428
3.25866e-05
-0.000602694
-1.13902e-06
-0.000590383
-3.3238e-05
-0.000565695
-6.78633e-05
-0.000527191
-0.000105278
-0.000472473
-0.000146502
-0.000398925
-0.000192063
-0.000304433
-0.0002386
-0.000179268
-0.000272933
-0.000268462
-0.000464926
0.000115858
-0.000472235
7.49625e-05
-0.000475117
3.54763e-05
-0.0004723
-3.94862e-06
-0.000461143
-4.43865e-05
-0.000441541
-8.74577e-05
-0.000412332
-0.000134479
-0.000372565
-0.000186262
-0.000320425
-0.000244195
-0.0002509
-0.000308117
-0.000153316
-0.000370509
-0.000421771
-0.000355065
0.000116802
-0.000354686
7.45925e-05
-0.000352124
3.29232e-05
-0.000346643
-9.42037e-06
-0.000337268
-5.37532e-05
-0.000323254
-0.000101463
-0.000303353
-0.000154371
-0.000276582
-0.000213025
-0.00024108
-0.000279689
-0.000191213
-0.000357975
-0.000116229
-0.000445486
-0.000537992
-0.000237392
0.000113993
-0.000234932
7.21427e-05
-0.00023198
2.99812e-05
-0.000227875
-1.35164e-05
-0.000222037
-5.95819e-05
-0.000213906
-0.000109585
-0.000202719
-0.000165548
-0.000187463
-0.000228271
-0.00016615
-0.000300993
-0.000136794
-0.000387322
-8.80202e-05
-0.000494251
-0.000626003
-0.000124241
0.000109058
-0.00012054
6.84523e-05
-0.000117469
2.69202e-05
-0.000114596
-1.63788e-05
-0.00011161
-6.25576e-05
-0.000108227
-0.000112957
-0.00010454
-0.000169225
-9.97637e-05
-0.000233038
-9.31358e-05
-0.000307611
-8.26175e-05
-0.000397831
-5.89256e-05
-0.000517933
-0.00068492
-1.42314e-05
0.000102473
-9.40013e-06
6.36325e-05
-5.90653e-06
2.3438e-05
-3.56925e-06
-1.87048e-05
-2.41195e-06
-6.37038e-05
-2.63309e-06
-0.000112725
-4.65191e-06
-0.000167195
-8.71365e-06
-0.000228965
-1.49054e-05
-0.000301409
-2.22363e-05
-0.00039049
-2.61281e-05
-0.000514031
-0.000711038
9.28294e-05
9.39799e-05
9.93101e-05
5.71642e-05
0.000104098
1.86619e-05
0.000107153
-2.17475e-05
0.000108109
-6.46478e-05
0.000106274
-0.000110878
0.000100548
-0.000161458
8.95749e-05
-0.000217981
7.178e-05
-0.000283603
4.63619e-05
-0.000365061
1.58049e-05
-0.000483463
-0.000695222
0.00019766
8.28873e-05
0.000206733
4.81044e-05
0.000214109
1.12989e-05
0.000219558
-2.71832e-05
0.000222386
-6.74626e-05
0.000221383
-0.000109863
0.000214622
-0.000154685
0.000199522
-0.000202869
0.000172515
-0.000256584
0.000129774
-0.000322308
6.94976e-05
-0.000423175
-0.000625713
0.000302704
6.86713e-05
0.000315263
3.55594e-05
0.000326537
3.83183e-08
0.000336117
-3.67495e-05
0.000342981
-7.43137e-05
0.000345397
-0.000112266
0.000340603
-0.000149878
0.000324886
-0.00018714
0.000292606
-0.000224292
0.000236978
-0.000266667
0.000147123
-0.000333308
-0.000478578
0.000412335
5.15825e-05
0.000428788
1.9121e-05
0.000444927
-1.60864e-05
0.000460054
-5.18621e-05
0.000472749
-8.69949e-05
0.000480721
-0.000120224
0.000480556
-0.0001497
0.000467853
-0.000174423
0.000435381
-0.000191808
0.000374583
-0.000205855
0.000260118
-0.00021883
-0.000218446
0.000531534
3.24868e-05
0.000551931
-1.26101e-06
0.000573569
-3.77095e-05
0.000595103
-7.33816e-05
0.000614583
-0.00010646
0.000629093
-0.000134721
0.000634974
-0.000155568
0.000628007
-0.000167442
0.00060128
-0.000165068
0.000543332
-0.000147894
0.000412182
-8.76663e-05
0.00019375
5.75546e-05
-5.75506e-05
0.000112799
-5.52409e-05
0.000148457
-3.56539e-05
0.00016147
-1.30102e-05
0.000162957
-1.4835e-06
0.000155025
7.9351e-06
0.000118496
3.65341e-05
4.16168e-05
7.68852e-05
-0.000105312
0.000146932
-0.000304759
0.000199452
-0.000454551
0.000149798
0.000111913
-0.000566457
5.12378e-05
-0.000108784
8.62561e-05
-9.02556e-05
9.27513e-05
-4.21461e-05
7.5962e-05
3.78225e-06
3.10802e-05
4.34021e-05
-5.1727e-05
9.07473e-05
-0.000182241
0.000167053
-0.000337838
0.000232489
-0.000442514
0.000251616
-0.000479248
0.000236194
-0.000517523
0.00018808
0.000147731
-0.000553335
3.48692e-05
-0.000143648
4.97737e-05
-0.000105156
3.73129e-05
-2.96818e-05
-4.42889e-06
4.55286e-05
-8.8538e-05
0.000127516
-0.000212805
0.00021502
-0.000327329
0.000281585
-0.000393075
0.000298242
-0.00042386
0.000282409
-0.000433713
0.000246056
-0.000444974
0.00019935
0.000158038
-0.000455273
-6.16344e-06
-0.000137479
-2.25232e-05
-8.8792e-05
-5.78957e-05
5.69594e-06
-0.000118881
0.000106519
-0.000202576
0.000211219
-0.000280145
0.000292597
-0.000324822
0.000326271
-0.000342741
0.000316171
-0.00034815
0.000287827
-0.000349647
0.000247562
-0.000352546
0.000202258
0.000159623
-0.000354121
-3.45341e-05
-0.000102937
-7.70068e-05
-4.63123e-05
-0.000127186
5.5882e-05
-0.00018424
0.000163582
-0.000236888
0.000263876
-0.000265687
0.000321407
-0.000270348
0.000330943
-0.000265431
0.000311264
-0.000256636
0.000279042
-0.000248794
0.00023973
-0.000243986
0.000197461
0.00015585
-0.000240203
-5.65624e-05
-4.63663e-05
-0.000109324
6.45805e-06
-0.000157745
0.000104312
-0.000193853
0.0001997
-0.000210449
0.000280483
-0.000205165
0.000316133
-0.000190114
0.000315904
-0.000173011
0.000294172
-0.000157416
0.000263458
-0.000144961
0.000227287
-0.000135952
0.000188462
0.000149091
-0.000129182
-6.79447e-05
2.15877e-05
-0.000123617
6.21407e-05
-0.000158787
0.000139491
-0.000168618
0.000209541
-0.000155189
0.000267065
-0.00012952
0.000290476
-0.00010197
0.000288366
-7.76654e-05
0.000269879
-5.74451e-05
0.000243249
-4.15994e-05
0.000211453
-2.97362e-05
0.00017661
0.000140193
-2.08266e-05
-7.50055e-05
9.66035e-05
-0.00012244
0.000109587
-0.00013856
0.000155622
-0.000124817
0.00019581
-9.10045e-05
0.000233264
-5.19099e-05
0.000251393
-1.54142e-05
0.000251883
1.51276e-05
0.00023935
3.9648e-05
0.000218741
5.8712e-05
0.000192401
7.32322e-05
0.000162103
0.000129115
8.43221e-05
-6.93002e-05
0.000165916
-0.000106101
0.000146401
-0.000101551
0.000151084
-7.08414e-05
0.000165113
-2.46179e-05
0.000187053
2.38386e-05
0.000202949
6.75804e-05
0.000208153
0.000103853
0.00020309
0.000132756
0.000189851
0.000155302
0.000169869
0.000172798
0.000144619
0.000115377
0.000186549
-7.11025e-05
0.000237032
-7.18481e-05
0.000147161
-4.09245e-05
0.000120175
3.91112e-06
0.000120291
5.7019e-05
0.000133959
0.000109557
0.000150424
0.000156384
0.00016134
0.000195457
0.000164031
0.000226957
0.000158365
0.000252005
0.000144834
0.000272029
0.000124609
9.89536e-05
0.000288467
-8.18413e-07
0.000237867
3.106e-05
0.000115298
8.11069e-05
7.01435e-05
0.000131944
6.94692e-05
0.000181801
8.41164e-05
0.000228213
0.000104026
0.000269319
0.000120248
0.00030424
0.000129124
0.000333236
0.000129383
0.000357231
0.000120854
0.000377415
0.000104439
8.11575e-05
0.000395226
0.000195365
4.25172e-05
0.000268925
4.17546e-05
0.000314744
2.43394e-05
0.000346734
3.7495e-05
0.000372945
5.79193e-05
0.000397508
7.94777e-05
0.000420749
9.70209e-05
0.000442186
0.000107701
0.00046156
0.000110024
0.000479198
0.00010323
0.00049568
8.7972e-05
0.00051242
6.44326e-05
-0.000646743
8.02974e-05
-0.000696719
4.99682e-05
-0.000721906
2.5198e-05
-0.000722339
4.38627e-07
-0.000701398
-2.0935e-05
-0.00065821
-4.31818e-05
-0.000591424
-6.67803e-05
-0.000499626
-9.1791e-05
-0.000381099
-0.00011852
-0.000236981
-0.000144112
-8.9203e-05
-0.000147771
-8.91964e-05
-0.000579225
0.000106195
-0.00059689
6.7639e-05
-0.000604267
3.25821e-05
-0.00060268
-1.14132e-06
-0.000590369
-3.32388e-05
-0.000565681
-6.78626e-05
-0.000527178
-0.000105276
-0.000472463
-0.000146499
-0.000398917
-0.000192059
-0.000304426
-0.000238595
-0.000179264
-0.000272927
-0.000268453
-0.000464917
0.000115847
-0.000472225
7.49547e-05
-0.000475106
3.54712e-05
-0.000472289
-3.9511e-06
-0.000461133
-4.43869e-05
-0.000441531
-8.74562e-05
-0.000412323
-0.000134476
-0.000372557
-0.000186257
-0.00032042
-0.000244189
-0.000250897
-0.000308109
-0.000153315
-0.000370501
-0.000421761
-0.000355055
0.00011679
-0.000354676
7.45845e-05
-0.000352114
3.29184e-05
-0.000346634
-9.42251e-06
-0.000337259
-5.3753e-05
-0.000323246
-0.000101461
-0.000303346
-0.000154367
-0.000276576
-0.000213019
-0.000241075
-0.000279682
-0.00019121
-0.000357967
-0.000116226
-0.000445476
-0.000537979
-0.000237384
0.000113981
-0.000234925
7.21349e-05
-0.000231974
2.99766e-05
-0.000227868
-1.35182e-05
-0.00022203
-5.95812e-05
-0.0002139
-0.000109582
-0.000202714
-0.000165543
-0.000187459
-0.000228265
-0.000166147
-0.000300985
-0.000136792
-0.000387313
-8.80195e-05
-0.00049424
-0.00062599
-0.000124236
0.000109047
-0.000120536
6.84448e-05
-0.000117465
2.6916e-05
-0.000114592
-1.63803e-05
-0.000111606
-6.25567e-05
-0.000108224
-0.000112954
-0.000104537
-0.00016922
-9.97612e-05
-0.000233031
-9.31338e-05
-0.000307602
-8.26161e-05
-0.000397821
-5.89247e-05
-0.000517921
-0.000684906
-1.42301e-05
0.000102462
-9.39903e-06
6.36252e-05
-5.90553e-06
2.34338e-05
-3.56827e-06
-1.87063e-05
-2.41095e-06
-6.37029e-05
-2.63205e-06
-0.000112722
-4.65089e-06
-0.00016719
-8.71278e-06
-0.000228958
-1.49048e-05
-0.0003014
-2.2236e-05
-0.000390479
-2.61281e-05
-0.000514019
-0.000711024
9.2827e-05
9.39691e-05
9.93077e-05
5.71568e-05
0.000104096
1.86575e-05
0.000107151
-2.17492e-05
0.000108108
-6.46472e-05
0.000106273
-0.000110875
0.000100547
-0.000161453
8.95743e-05
-0.000217974
7.17794e-05
-0.000283594
4.63614e-05
-0.00036505
1.58046e-05
-0.000483452
-0.000695209
0.000197655
8.28764e-05
0.000206728
4.80966e-05
0.000214105
1.1294e-05
0.000219554
-2.71855e-05
0.000222382
-6.74626e-05
0.00022138
-0.000109861
0.00021462
-0.000154681
0.00019952
-0.000202862
0.000172513
-0.000256575
0.000129773
-0.000322298
6.94965e-05
-0.000423164
-0.0006257
0.000302697
6.86604e-05
0.000315256
3.55513e-05
0.000326531
3.29214e-08
0.000336112
-3.67523e-05
0.000342977
-7.43141e-05
0.000345393
-0.000112264
0.000340599
-0.000149874
0.000324882
-0.000187133
0.000292603
-0.000224284
0.000236975
-0.000266657
0.000147121
-0.000333297
-0.000478567
0.000412329
5.15719e-05
0.000428782
1.91128e-05
0.000444922
-1.60921e-05
0.000460049
-5.18652e-05
0.000472744
-8.69955e-05
0.000480716
-0.000120222
0.000480551
-0.000149696
0.000467848
-0.000174417
0.000435376
-0.0001918
0.000374579
-0.000205846
0.000260115
-0.000218821
-0.000218438
0.000531531
3.24768e-05
0.000551928
-1.26892e-06
0.000573565
-3.7715e-05
0.000595099
-7.33845e-05
0.000614578
-0.00010646
0.000629088
-0.000134719
0.000634968
-0.000155563
0.000628
-0.000167435
0.000601273
-0.00016506
0.000543325
-0.000147886
0.000412177
-8.76589e-05
0.000193754
0.000732411
9.40555e-05
-0.000783933
0.000702616
7.15609e-05
0.000662887
6.40763e-05
0.00063428
6.61083e-05
0.000616559
7.56459e-05
0.000607839
8.82077e-05
0.000605625
9.92469e-05
0.000607679
0.000105664
0.000612552
0.00010517
0.000619852
9.59517e-05
0.000629553
7.82935e-05
5.05014e-05
0.000643508
0.000944058
9.82959e-05
-0.000948285
0.000922315
9.33183e-05
0.000893034
9.33718e-05
0.000862481
9.66771e-05
0.000834913
0.000103229
0.000812212
0.000110924
0.000794775
0.000116699
0.00078242
0.000118034
0.000774985
0.000112621
0.000772878
9.80746e-05
0.000776534
7.46537e-05
3.77558e-05
0.000789296
0.00107165
9.89649e-05
-0.00107231
0.00106214
0.000102843
0.00104675
0.000108781
0.00102714
0.000116298
0.0010055
0.000124882
0.000983932
0.000132512
0.000964094
0.000136554
0.000947516
0.000134629
0.000935798
0.000124355
0.000930867
0.000103023
0.000934739
7.07986e-05
1.98518e-05
0.00095266
0.00117635
-0.00117701
9.96312e-05
0.00117244
0.000106767
0.0011644
0.000116836
0.00115275
0.000127959
0.00113868
0.000138973
0.00112393
0.00014728
0.00111024
0.000150262
0.00109969
0.000145196
0.00109459
0.000129465