/*--------------------------------*- C++ -*----------------------------------*\
| =========                 |                                                 |
| \\      /  F ield         | OpenFOAM: The Open Source CFD Toolbox           |
|  \\    /   O peration     | Version:  2212                                  |
|   \\  /    A nd           | Website:  www.openfoam.com                      |
|    \\/     M anipulation  |                                                 |
\*---------------------------------------------------------------------------*/
FoamFile
{
    version     2.0;
    format      ascii;
    arch        "LSB;label=32;scalar=64";
    class       volScalarField;
    location    "0.02";
    object      rho;
}
// * * * * * * * * * * * * * * * * * * * * * * * * * * * * * * * * * * * * * //

dimensions      [1 -3 0 0 0 0 0];

internalField   nonuniform List<scalar> 
3072
(
1.16956
1.16932
1.16922
1.16918
1.16922
1.16954
1.17059
1.17087
1.17062
1.17062
1.17063
1.17059
1.17111
1.17066
1.17075
1.17099
1.17146
1.1716
1.17223
1.17309
1.1741
1.17482
1.17525
1.17553
1.17227
1.17168
1.172
1.17232
1.17272
1.17333
1.17411
1.17484
1.17552
1.17603
1.17642
1.17667
1.1741
1.17355
1.17391
1.17433
1.17496
1.17564
1.17633
1.17696
1.17747
1.17785
1.17815
1.17838
1.17579
1.17555
1.17594
1.17645
1.17709
1.17772
1.17831
1.17883
1.17924
1.17952
1.17975
1.17992
1.17759
1.17758
1.17794
1.1785
1.17906
1.17961
1.18009
1.18048
1.18078
1.18099
1.18116
1.18128
1.17936
1.17958
1.17992
1.18045
1.18094
1.18138
1.18173
1.182
1.1822
1.18233
1.18243
1.18249
1.1811
1.18158
1.18186
1.18231
1.18269
1.183
1.18322
1.18337
1.18346
1.18351
1.18354
1.18356
1.18301
1.18357
1.18367
1.18403
1.18426
1.18442
1.1845
1.18454
1.18454
1.18453
1.1845
1.18448
1.18486
1.18518
1.1852
1.18544
1.18554
1.18558
1.18557
1.18553
1.18546
1.18539
1.18533
1.18527
1.18631
1.18661
1.1864
1.18655
1.18659
1.18656
1.18648
1.18638
1.18627
1.18616
1.18606
1.18598
1.18619
1.18755
1.18743
1.18753
1.18753
1.18745
1.18732
1.18717
1.18701
1.18687
1.18674
1.18664
1.17075
1.17097
1.17133
1.17184
1.17242
1.17301
1.17362
1.17411
1.17441
1.17437
1.17414
1.17349
1.1757
1.17583
1.17596
1.17613
1.17634
1.17654
1.17672
1.17682
1.1768
1.17667
1.17611
1.17457
1.17684
1.17699
1.17716
1.17735
1.17757
1.17776
1.17789
1.17792
1.17779
1.1776
1.17708
1.1749
1.17857
1.17874
1.17889
1.17902
1.17912
1.17919
1.1792
1.17912
1.17889
1.17855
1.17806
1.17574
1.18006
1.18017
1.18027
1.18035
1.18041
1.18044
1.18042
1.18033
1.18012
1.17976
1.17935
1.1772
1.18138
1.18146
1.18153
1.18159
1.18164
1.18167
1.18168
1.18164
1.18152
1.18126
1.18096
1.17915
1.18255
1.1826
1.18265
1.1827
1.18277
1.18284
1.18291
1.18297
1.183
1.18293
1.18286
1.18157
1.18358
1.1836
1.18364
1.1837
1.18379
1.18391
1.18407
1.18427
1.18449
1.18469
1.18503
1.1844
1.18447
1.18447
1.1845
1.18457
1.18469
1.18487
1.18512
1.18545
1.18588
1.1864
1.18723
1.1876
1.18524
1.18523
1.18525
1.18533
1.18547
1.18569
1.18601
1.18646
1.18708
1.1879
1.18931
1.19073
1.18592
1.1859
1.18591
1.18598
1.18613
1.18637
1.18673
1.18725
1.18799
1.18902
1.19098
1.19351
1.18656
1.18651
1.18651
1.18656
1.18669
1.18692
1.18727
1.1878
1.18854
1.18964
1.19172
1.19553
1.16947
1.16926
1.16914
1.16909
1.16912
1.16931
1.16994
1.1711
1.17049
1.17043
1.17057
1.17053
1.17101
1.17057
1.1706
1.17077
1.17131
1.17144
1.17184
1.17259
1.17363
1.17445
1.17495
1.17519
1.17215
1.17154
1.1718
1.17213
1.17247
1.17296
1.1737
1.17438
1.17509
1.17564
1.17605
1.17636
1.17395
1.17334
1.17365
1.17401
1.17458
1.17522
1.1759
1.17653
1.17709
1.1775
1.17782
1.17807
1.17562
1.17531
1.17565
1.17611
1.17671
1.17732
1.17792
1.17846
1.1789
1.17921
1.17945
1.17963
1.17744
1.17735
1.17768
1.17819
1.17874
1.17927
1.17976
1.18016
1.18048
1.18071
1.18088
1.181
1.17922
1.17937
1.17968
1.18019
1.18066
1.18109
1.18145
1.18172
1.18193
1.18207
1.18217
1.18224
1.18097
1.18139
1.18165
1.18208
1.18245
1.18276
1.18298
1.18313
1.18323
1.18328
1.18331
1.18333
1.18288
1.18338
1.18347
1.18382
1.18405
1.18421
1.1843
1.18434
1.18434
1.18433
1.1843
1.18427
1.18471
1.18499
1.18502
1.18526
1.18537
1.18542
1.18541
1.18537
1.1853
1.18523
1.18515
1.18509
1.18616
1.18644
1.18625
1.18642
1.18647
1.18645
1.18637
1.18626
1.18614
1.18602
1.18591
1.18582
1.1861
1.1874
1.18732
1.18744
1.18746
1.18739
1.18725
1.18709
1.18692
1.18676
1.18661
1.18649
1.17065
1.17083
1.17112
1.17157
1.1721
1.17261
1.17318
1.1736
1.17387
1.17379
1.17355
1.17293
1.17542
1.17554
1.17565
1.17578
1.17596
1.17611
1.17625
1.17632
1.17627
1.17611
1.17555
1.17405
1.17654
1.17669
1.17683
1.177
1.1772
1.17736
1.17747
1.17747
1.17732
1.17712
1.17659
1.17446
1.17826
1.17843
1.17857
1.17868
1.17877
1.17882
1.17882
1.17871
1.17847
1.17812
1.17762
1.17532
1.17976
1.17988
1.17997
1.18003
1.18008
1.18009
1.18006
1.17995
1.17972
1.17936
1.17894
1.17678
1.1811
1.18118
1.18124
1.18129
1.18133
1.18135
1.18134
1.18128
1.18113
1.18085
1.18054
1.1787
1.18229
1.18234
1.18238
1.18243
1.18248
1.18253
1.18259
1.18263
1.18262
1.18251
1.18242
1.18108
1.18334
1.18336
1.1834
1.18345
1.18352
1.18363
1.18376
1.18393
1.18411
1.18426
1.18455
1.18384
1.18426
1.18425
1.18428
1.18434
1.18444
1.1846
1.18482
1.18512
1.18551
1.18597
1.18672
1.18698
1.18505
1.18503
1.18505
1.18511
1.18523
1.18543
1.18572
1.18614
1.18671
1.18747
1.18877
1.19006
1.18575
1.18571
1.18572
1.18578
1.1859
1.18612
1.18645
1.18694
1.18763
1.1886
1.19045
1.19286
1.18639
1.18633
1.18631
1.18636
1.18647
1.18668
1.187
1.18749
1.18819
1.18925
1.19123
1.19498
1.16956
1.16932
1.16922
1.16918
1.16922
1.16954
1.17059
1.17087
1.17062
1.17062
1.17064
1.17059
1.17111
1.17066
1.17075
1.17099
1.17146
1.1716
1.17223
1.17309
1.1741
1.17482
1.17525
1.17553
1.17227
1.17168
1.172
1.17232
1.17272
1.17333
1.17411
1.17484
1.17551
1.17603
1.17642
1.17667
1.1741
1.17355
1.17391
1.17433
1.17496
1.17564
1.17633
1.17696
1.17747
1.17785
1.17815
1.17838
1.17579
1.17555
1.17593
1.17645
1.17708
1.17772
1.17831
1.17883
1.17924
1.17952
1.17975
1.17992
1.17759
1.17758
1.17794
1.1785
1.17906
1.17961
1.18009
1.18048
1.18078
1.18099
1.18116
1.18128
1.17936
1.17958
1.17992
1.18045
1.18094
1.18138
1.18173
1.182
1.1822
1.18233
1.18243
1.18249
1.1811
1.18158
1.18186
1.18231
1.18269
1.183
1.18322
1.18337
1.18346
1.18351
1.18354
1.18356
1.18301
1.18357
1.18367
1.18403
1.18426
1.18442
1.1845
1.18454
1.18454
1.18453
1.1845
1.18448
1.18486
1.18518
1.1852
1.18544
1.18554
1.18558
1.18557
1.18553
1.18546
1.18539
1.18533
1.18527
1.18631
1.18661
1.1864
1.18655
1.18659
1.18656
1.18648
1.18638
1.18627
1.18616
1.18606
1.18598
1.18619
1.18755
1.18743
1.18753
1.18753
1.18745
1.18732
1.18717
1.18701
1.18687
1.18674
1.18664
1.17075
1.17097
1.17133
1.17184
1.17242
1.17301
1.17362
1.17411
1.17441
1.17437
1.17414
1.17349
1.1757
1.17583
1.17596
1.17613
1.17634
1.17654
1.17672
1.17682
1.1768
1.17667
1.17611
1.17457
1.17684
1.17699
1.17716
1.17735
1.17757
1.17776
1.17789
1.17792
1.17779
1.1776
1.17708
1.1749
1.17857
1.17874
1.17889
1.17902
1.17912
1.17919
1.1792
1.17912
1.17889
1.17855
1.17806
1.17574
1.18006
1.18017
1.18027
1.18035
1.18041
1.18044
1.18042
1.18033
1.18012
1.17976
1.17935
1.1772
1.18138
1.18146
1.18153
1.18159
1.18164
1.18167
1.18168
1.18164
1.18152
1.18126
1.18096
1.17915
1.18255
1.1826
1.18265
1.1827
1.18277
1.18284
1.18291
1.18297
1.183
1.18293
1.18286
1.18157
1.18358
1.1836
1.18364
1.1837
1.18379
1.18391
1.18407
1.18427
1.18449
1.18469
1.18503
1.1844
1.18447
1.18447
1.1845
1.18457
1.18469
1.18487
1.18512
1.18545
1.18588
1.1864
1.18723
1.1876
1.18524
1.18523
1.18525
1.18533
1.18547
1.18569
1.18601
1.18646
1.18708
1.1879
1.18931
1.19073
1.18592
1.1859
1.18591
1.18598
1.18613
1.18637
1.18673
1.18725
1.18799
1.18902
1.19098
1.19351
1.18656
1.18651
1.18651
1.18656
1.18669
1.18692
1.18727
1.1878
1.18854
1.18964
1.19172
1.19553
1.16947
1.16926
1.16914
1.16909
1.16912
1.16931
1.16994
1.1711
1.17049
1.17043
1.17057
1.17053
1.17101
1.17057
1.1706
1.17077
1.17131
1.17143
1.17184
1.17259
1.17363
1.17445
1.17495
1.17519
1.17215
1.17154
1.1718
1.17213
1.17247
1.17296
1.1737
1.17438
1.17509
1.17564
1.17605
1.17636
1.17395
1.17334
1.17365
1.17401
1.17458
1.17522
1.1759
1.17653
1.17709
1.1775
1.17782
1.17807
1.17562
1.17531
1.17565
1.17611
1.17671
1.17732
1.17792
1.17846
1.1789
1.17921
1.17945
1.17963
1.17744
1.17735
1.17768
1.17819
1.17874
1.17927
1.17976
1.18016
1.18048
1.18071
1.18088
1.181
1.17922
1.17937
1.17968
1.18019
1.18066
1.18109
1.18145
1.18172
1.18193
1.18207
1.18217
1.18224
1.18097
1.18139
1.18165
1.18208
1.18245
1.18276
1.18298
1.18313
1.18323
1.18328
1.18331
1.18333
1.18288
1.18338
1.18347
1.18382
1.18405
1.18421
1.1843
1.18434
1.18434
1.18433
1.1843
1.18427
1.18471
1.18499
1.18502
1.18526
1.18537
1.18542
1.18541
1.18537
1.1853
1.18523
1.18515
1.18509
1.18616
1.18644
1.18625
1.18642
1.18647
1.18645
1.18637
1.18626
1.18614
1.18602
1.18591
1.18582
1.1861
1.1874
1.18732
1.18744
1.18746
1.18739
1.18725
1.18709
1.18692
1.18676
1.18661
1.18649
1.17065
1.17083
1.17112
1.17157
1.1721
1.17261
1.17318
1.1736
1.17387
1.17379
1.17355
1.17293
1.17542
1.17554
1.17565
1.17578
1.17596
1.17611
1.17625
1.17632
1.17627
1.17611
1.17555
1.17405
1.17654
1.17669
1.17683
1.177
1.1772
1.17736
1.17747
1.17747
1.17732
1.17712
1.17659
1.17446
1.17826
1.17843
1.17857
1.17868
1.17877
1.17882
1.17882
1.17871
1.17847
1.17812
1.17762
1.17532
1.17976
1.17988
1.17997
1.18003
1.18008
1.18009
1.18006
1.17995
1.17972
1.17936
1.17894
1.17678
1.1811
1.18118
1.18124
1.18129
1.18133
1.18135
1.18134
1.18128
1.18113
1.18085
1.18054
1.1787
1.18229
1.18234
1.18238
1.18243
1.18248
1.18253
1.18259
1.18263
1.18262
1.18251
1.18242
1.18108
1.18334
1.18336
1.1834
1.18345
1.18352
1.18363
1.18376
1.18393
1.18411
1.18426
1.18455
1.18384
1.18426
1.18425
1.18428
1.18434
1.18444
1.1846
1.18482
1.18512
1.18551
1.18597
1.18672
1.18698
1.18505
1.18503
1.18505
1.18511
1.18523
1.18543
1.18572
1.18614
1.18671
1.18747
1.18877
1.19006
1.18575
1.18571
1.18572
1.18578
1.1859
1.18612
1.18645
1.18694
1.18763
1.1886
1.19045
1.19286
1.18639
1.18633
1.18631
1.18636
1.18647
1.18668
1.187
1.18749
1.18819
1.18925
1.19123
1.19498
1.18874
1.18888
1.18869
1.18855
1.18841
1.18824
1.18806
1.18787
1.18769
1.18752
1.18738
1.18725
1.18886
1.18865
1.1887
1.18873
1.18871
1.18864
1.18852
1.18837
1.18821
1.18805
1.1879
1.18776
1.18879
1.1887
1.18876
1.1888
1.18881
1.18878
1.18872
1.18863
1.18852
1.1884
1.18828
1.18815
1.18873
1.18873
1.18877
1.1888
1.18882
1.18882
1.18879
1.18874
1.18868
1.1886
1.18852
1.18842
1.18715
1.18708
1.18704
1.18707
1.18716
1.18735
1.18765
1.18812
1.18872
1.18956
1.19031
1.19154
1.18765
1.18756
1.1875
1.18748
1.18753
1.18767
1.18789
1.18827
1.18873
1.18937
1.18978
1.19021
1.18804
1.18794
1.18785
1.18779
1.18779
1.18786
1.188
1.18827
1.1886
1.18909
1.1894
1.1896
1.18832
1.1882
1.18808
1.18798
1.18793
1.18792
1.18797
1.18812
1.18832
1.18868
1.18894
1.1892
1.1887
1.18881
1.18865
1.18852
1.18838
1.18822
1.18803
1.18782
1.18762
1.18742
1.18724
1.18709
1.18894
1.18867
1.18871
1.18872
1.18869
1.18861
1.18848
1.1883
1.18812
1.18792
1.18773
1.18756
1.18898
1.18881
1.18882
1.18883
1.1888
1.18874
1.18865
1.18853
1.18838
1.18821
1.18803
1.18787
1.18901
1.18894
1.18892
1.18889
1.18886
1.1888
1.18872
1.18862
1.1885
1.18836
1.1882
1.18804
1.18696
1.18687
1.18683
1.18685
1.18693
1.1871
1.18738
1.18781
1.18839
1.1892
1.18995
1.19124
1.18742
1.18731
1.18725
1.18723
1.18728
1.1874
1.18761
1.18796
1.1884
1.18903
1.18947
1.18994
1.18772
1.18761
1.18753
1.18749
1.1875
1.18757
1.1877
1.18795
1.18827
1.18875
1.18909
1.18931
1.1879
1.18779
1.18771
1.18765
1.18763
1.18764
1.1877
1.18784
1.18803
1.18835
1.18862
1.18888
1.18874
1.18888
1.18869
1.18855
1.18841
1.18824
1.18806
1.18787
1.18769
1.18752
1.18737
1.18725
1.18886
1.18864
1.1887
1.18873
1.18871
1.18864
1.18852
1.18837
1.18821
1.18805
1.1879
1.18776
1.18879
1.18869
1.18876
1.1888
1.18881
1.18878
1.18872
1.18863
1.18852
1.1884
1.18828
1.18815
1.18873
1.18873
1.18877
1.1888
1.18882
1.18882
1.18879
1.18874
1.18868
1.1886
1.18852
1.18842
1.18714
1.18708
1.18704
1.18707
1.18716
1.18735
1.18765
1.18811
1.18872
1.18956
1.19031
1.19154
1.18765
1.18756
1.1875
1.18748
1.18753
1.18767
1.18789
1.18827
1.18873
1.18937
1.18978
1.19021
1.18804
1.18794
1.18785
1.18779
1.18779
1.18786
1.188
1.18827
1.1886
1.18909
1.1894
1.1896
1.18832
1.1882
1.18808
1.18798
1.18793
1.18792
1.18797
1.18812
1.18832
1.18868
1.18894
1.1892
1.1887
1.18881
1.18865
1.18852
1.18838
1.18822
1.18803
1.18782
1.18762
1.18742
1.18724
1.18708
1.18894
1.18867
1.18871
1.18872
1.18869
1.18861
1.18848
1.1883
1.18812
1.18792
1.18773
1.18756
1.18898
1.18881
1.18882
1.18883
1.1888
1.18874
1.18865
1.18853
1.18838
1.18821
1.18803
1.18787
1.18901
1.18894
1.18892
1.18889
1.18885
1.1888
1.18872
1.18862
1.1885
1.18836
1.1882
1.18804
1.18696
1.18687
1.18683
1.18685
1.18693
1.1871
1.18738
1.18781
1.18839
1.1892
1.18995
1.19124
1.18742
1.18731
1.18725
1.18723
1.18728
1.1874
1.18761
1.18796
1.1884
1.18903
1.18947
1.18994
1.18772
1.18761
1.18753
1.18749
1.1875
1.18757
1.1877
1.18795
1.18827
1.18875
1.18909
1.18931
1.1879
1.18779
1.18771
1.18765
1.18763
1.18764
1.1877
1.18784
1.18803
1.18835
1.18862
1.18888
1.18869
1.18875
1.1888
1.18884
1.18886
1.18887
1.18884
1.18881
1.18876
1.1887
1.18863
1.18856
1.18866
1.18874
1.18881
1.18886
1.18889
1.18889
1.18887
1.18884
1.18879
1.18873
1.18868
1.18863
1.18862
1.18871
1.18878
1.18884
1.18886
1.18886
1.18884
1.1888
1.18875
1.1887
1.18866
1.18864
1.18856
1.18866
1.18874
1.18879
1.18881
1.18881
1.18878
1.18872
1.18866
1.1886
1.18857
1.18858
1.18849
1.18838
1.18829
1.18822
1.18817
1.18815
1.18817
1.18824
1.18834
1.18855
1.18869
1.18887
1.18859
1.1885
1.18845
1.18842
1.18841
1.18842
1.18845
1.1885
1.18858
1.18866
1.18869
1.18872
1.18863
1.18856
1.18853
1.18853
1.18855
1.18857
1.1886
1.18863
1.18865
1.18866
1.18862
1.18857
1.18864
1.18856
1.18854
1.18856
1.18859
1.18862
1.18864
1.18864
1.18863
1.18859
1.18851
1.18841
1.18887
1.18883
1.18879
1.18873
1.18866
1.18858
1.18849
1.18838
1.18827
1.18813
1.18799
1.18784
1.18865
1.18858
1.1885
1.18841
1.18831
1.18821
1.18809
1.18797
1.18785
1.18773
1.18762
1.18751
1.18846
1.18835
1.18825
1.18814
1.18802
1.18791
1.18779
1.18766
1.18754
1.18743
1.18734
1.18725
1.18828
1.18816
1.18804
1.18791
1.18779
1.18767
1.18754
1.18741
1.18729
1.18717
1.18708
1.18701
1.1877
1.18759
1.18753
1.18751
1.18753
1.18758
1.18766
1.18779
1.18796
1.1882
1.18841
1.18863
1.18738
1.18727
1.18723
1.18724
1.1873
1.1874
1.18754
1.18772
1.18793
1.18818
1.18839
1.18857
1.18713
1.18701
1.18698
1.18701
1.1871
1.18723
1.18741
1.18762
1.18786
1.18811
1.18833
1.18851
1.18693
1.18679
1.18676
1.18681
1.18692
1.18708
1.18728
1.18751
1.18777
1.18802
1.18825
1.18844
1.18869
1.18875
1.1888
1.18884
1.18886
1.18887
1.18884
1.18881
1.18876
1.1887
1.18863
1.18856
1.18866
1.18874
1.18881
1.18886
1.18889
1.18889
1.18887
1.18884
1.18879
1.18873
1.18868
1.18863
1.18862
1.18871
1.18878
1.18884
1.18886
1.18886
1.18884
1.1888
1.18875
1.1887
1.18866
1.18864
1.18856
1.18866
1.18874
1.18879
1.18881
1.1888
1.18877
1.18872
1.18866
1.1886
1.18857
1.18858
1.18849
1.18838
1.18829
1.18822
1.18817
1.18815
1.18817
1.18824
1.18834
1.18855
1.18869
1.18887
1.18859
1.1885
1.18845
1.18842
1.18841
1.18842
1.18845
1.1885
1.18858
1.18866
1.18869
1.18872
1.18863
1.18855
1.18853
1.18853
1.18854
1.18857
1.1886
1.18863
1.18865
1.18866
1.18862
1.18857
1.18864
1.18856
1.18854
1.18856
1.18859
1.18862
1.18864
1.18864
1.18863
1.18859
1.18851
1.18841
1.18887
1.18883
1.18879
1.18873
1.18866
1.18858
1.18849
1.18838
1.18827
1.18813
1.18799
1.18784
1.18865
1.18858
1.1885
1.18841
1.18831
1.18821
1.18809
1.18797
1.18785
1.18774
1.18762
1.18751
1.18846
1.18835
1.18825
1.18814
1.18802
1.18791
1.18779
1.18766
1.18754
1.18743
1.18734
1.18725
1.18828
1.18816
1.18804
1.18791
1.18779
1.18767
1.18754
1.18741
1.18729
1.18717
1.18708
1.18701
1.1877
1.18759
1.18753
1.18751
1.18753
1.18758
1.18766
1.18779
1.18796
1.1882
1.18841
1.18863
1.18738
1.18727
1.18723
1.18724
1.1873
1.1874
1.18754
1.18772
1.18793
1.18818
1.18839
1.18858
1.18713
1.18701
1.18698
1.18701
1.1871
1.18723
1.18741
1.18762
1.18786
1.18811
1.18833
1.18851
1.18693
1.18679
1.18676
1.18681
1.18692
1.18708
1.18728
1.18751
1.18777
1.18802
1.18825
1.18844
1.18849
1.1886
1.18867
1.18872
1.18874
1.18872
1.18868
1.18862
1.18855
1.18847
1.18839
1.18837
1.18842
1.18852
1.1886
1.18864
1.18865
1.18863
1.18858
1.1885
1.18841
1.1883
1.18817
1.18798
1.18833
1.18844
1.18851
1.18855
1.18855
1.18852
1.18846
1.18837
1.18825
1.18812
1.18795
1.18767
1.18824
1.18835
1.18842
1.18845
1.18844
1.1884
1.18832
1.18822
1.18809
1.18794
1.18775
1.18743
1.18815
1.18826
1.18832
1.18835
1.18833
1.18828
1.18819
1.18807
1.18793
1.18776
1.18756
1.18724
1.18805
1.18816
1.18822
1.18824
1.18822
1.18815
1.18805
1.18792
1.18777
1.18759
1.18739
1.18707
1.18796
1.18807
1.18812
1.18813
1.1881
1.18802
1.18791
1.18778
1.18761
1.18743
1.18723
1.18694
1.18787
1.18797
1.18803
1.18803
1.18799
1.1879
1.18778
1.18763
1.18747
1.18729
1.1871
1.18684
1.18778
1.18788
1.18793
1.18793
1.18788
1.18778
1.18766
1.1875
1.18733
1.18716
1.18699
1.18677
1.1877
1.1878
1.18784
1.18783
1.18777
1.18767
1.18753
1.18738
1.18721
1.18704
1.18689
1.18674
1.18762
1.18772
1.18775
1.18774
1.18767
1.18756
1.18741
1.18725
1.18708
1.18693
1.18682
1.18674
1.18751
1.1876
1.18763
1.18761
1.18753
1.1874
1.18725
1.18708
1.18693
1.18681
1.18675
1.18676
1.18862
1.18852
1.18851
1.18854
1.18858
1.18861
1.18861
1.1886
1.18855
1.18848
1.18838
1.18826
1.1884
1.18843
1.18844
1.18848
1.18852
1.18854
1.18854
1.18851
1.18844
1.18836
1.18824
1.18811
1.18822
1.18829
1.18834
1.18839
1.18843
1.18845
1.18844
1.18839
1.18832
1.18823
1.18811
1.18798
1.18804
1.18814
1.18821
1.18827
1.18831
1.18833
1.18831
1.18826
1.18819
1.18809
1.18798
1.18786
1.18785
1.18797
1.18806
1.18813
1.18817
1.18819
1.18817
1.18812
1.18805
1.18796
1.18786
1.18775
1.18764
1.18779
1.1879
1.18797
1.18802
1.18804
1.18802
1.18798
1.18791
1.18783
1.18774
1.18765
1.18741
1.18759
1.18772
1.18781
1.18786
1.18788
1.18787
1.18783
1.18777
1.18771
1.18763
1.18755
1.18717
1.18739
1.18754
1.18764
1.1877
1.18772
1.18771
1.18769
1.18764
1.18759
1.18753
1.18746
1.18691
1.18717
1.18736
1.18747
1.18754
1.18756
1.18756
1.18755
1.18751
1.18748
1.18743
1.18738
1.18664
1.18695
1.18717
1.1873
1.18737
1.18741
1.18742
1.18741
1.18739
1.18737
1.18733
1.1873
1.18637
1.18671
1.18697
1.18712
1.18721
1.18725
1.18727
1.18727
1.18727
1.18726
1.18724
1.18721
1.18606
1.18637
1.18669
1.18686
1.18696
1.18702
1.18705
1.18707
1.18709
1.1871
1.1871
1.18709
1.18812
1.18799
1.18786
1.18773
1.1876
1.18747
1.18734
1.18721
1.18707
1.18693
1.18679
1.18661
1.18798
1.18784
1.18771
1.18758
1.18745
1.18731
1.18718
1.18703
1.18689
1.18672
1.18653
1.1861
1.18785
1.18772
1.18759
1.18746
1.18732
1.18719
1.18704
1.18689
1.18674
1.18655
1.18634
1.18592
1.18774
1.18761
1.18749
1.18736
1.18722
1.18708
1.18694
1.18678
1.18662
1.18642
1.18623
1.18588
1.18764
1.18752
1.1874
1.18728
1.18715
1.187
1.18685
1.18669
1.18652
1.18633
1.18616
1.18588
1.18755
1.18744
1.18733
1.18721
1.18708
1.18694
1.18679
1.18662
1.18645
1.18626
1.18611
1.18589
1.18747
1.18738
1.18727
1.18716
1.18703
1.18689
1.18674
1.18657
1.1864
1.18621
1.18608
1.1859
1.18739
1.18731
1.18722
1.18711
1.18699
1.18685
1.18669
1.18652
1.18636
1.18618
1.18606
1.18593
1.18732
1.18726
1.18717
1.18707
1.18695
1.18681
1.18666
1.18649
1.18632
1.18615
1.18605
1.18595
1.18726
1.1872
1.18713
1.18703
1.18691
1.18678
1.18662
1.18645
1.18629
1.18612
1.18604
1.18597
1.18718
1.18714
1.18707
1.18698
1.18687
1.18673
1.18658
1.18641
1.18625
1.18609
1.18601
1.18598
1.18708
1.18705
1.187
1.18692
1.18682
1.18669
1.18654
1.18638
1.18623
1.18607
1.18601
1.186
1.18674
1.18658
1.18657
1.18663
1.18676
1.18693
1.18715
1.1874
1.18766
1.18793
1.18816
1.18836
1.1864
1.18637
1.18638
1.18646
1.1866
1.18679
1.18703
1.18729
1.18756
1.18783
1.18807
1.18827
1.18615
1.18617
1.1862
1.1863
1.18645
1.18666
1.1869
1.18717
1.18745
1.18773
1.18797
1.18818
1.18591
1.18598
1.18604
1.18615
1.18631
1.18653
1.18678
1.18706
1.18735
1.18763
1.18788
1.18808
1.18569
1.1858
1.18588
1.186
1.18618
1.1864
1.18667
1.18695
1.18724
1.18753
1.18778
1.18798
1.18549
1.18564
1.18574
1.18587
1.18605
1.18628
1.18656
1.18685
1.18714
1.18743
1.18768
1.18789
1.18531
1.18549
1.18561
1.18574
1.18593
1.18617
1.18645
1.18675
1.18705
1.18733
1.18758
1.18779
1.18516
1.18535
1.18548
1.18563
1.18582
1.18607
1.18635
1.18665
1.18695
1.18724
1.18749
1.1877
1.18504
1.18524
1.18537
1.18552
1.18571
1.18596
1.18626
1.18657
1.18687
1.18715
1.1874
1.18762
1.18496
1.18514
1.18527
1.18541
1.1856
1.18586
1.18616
1.18648
1.18679
1.18707
1.18732
1.18754
1.1849
1.18505
1.18517
1.1853
1.18549
1.18575
1.18607
1.1864
1.1867
1.18699
1.18724
1.18745
1.18486
1.18496
1.18506
1.18518
1.18535
1.18561
1.18594
1.18628
1.18659
1.18687
1.18712
1.18734
1.18849
1.1886
1.18867
1.18872
1.18874
1.18872
1.18868
1.18862
1.18855
1.18847
1.18839
1.18837
1.18841
1.18852
1.1886
1.18864
1.18865
1.18863
1.18858
1.1885
1.18841
1.1883
1.18817
1.18798
1.18833
1.18844
1.18851
1.18855
1.18855
1.18852
1.18845
1.18836
1.18825
1.18812
1.18795
1.18767
1.18824
1.18835
1.18842
1.18845
1.18844
1.1884
1.18832
1.18822
1.18809
1.18794
1.18775
1.18743
1.18814
1.18826
1.18832
1.18835
1.18833
1.18828
1.18819
1.18807
1.18793
1.18776
1.18756
1.18724
1.18805
1.18816
1.18822
1.18824
1.18821
1.18815
1.18805
1.18792
1.18777
1.18759
1.18739
1.18707
1.18796
1.18807
1.18812
1.18813
1.1881
1.18802
1.18791
1.18778
1.18761
1.18743
1.18723
1.18694
1.18787
1.18797
1.18803
1.18803
1.18799
1.1879
1.18778
1.18763
1.18747
1.18729
1.1871
1.18684
1.18778
1.18788
1.18793
1.18793
1.18788
1.18778
1.18765
1.1875
1.18733
1.18716
1.18699
1.18677
1.1877
1.1878
1.18784
1.18783
1.18777
1.18767
1.18753
1.18737
1.18721
1.18704
1.18689
1.18674
1.18762
1.18771
1.18775
1.18773
1.18767
1.18756
1.18741
1.18725
1.18708
1.18693
1.18682
1.18674
1.18751
1.1876
1.18763
1.18761
1.18753
1.1874
1.18725
1.18708
1.18693
1.18681
1.18675
1.18676
1.18862
1.18852
1.18851
1.18854
1.18858
1.18861
1.18861
1.1886
1.18855
1.18848
1.18838
1.18826
1.1884
1.18843
1.18844
1.18848
1.18852
1.18854
1.18854
1.18851
1.18844
1.18836
1.18824
1.18811
1.18822
1.18829
1.18834
1.18839
1.18843
1.18845
1.18844
1.18839
1.18832
1.18823
1.18811
1.18798
1.18804
1.18814
1.18821
1.18827
1.18831
1.18833
1.18831
1.18826
1.18819
1.18809
1.18798
1.18786
1.18785
1.18797
1.18806
1.18813
1.18817
1.18819
1.18817
1.18812
1.18805
1.18796
1.18786
1.18775
1.18764
1.18779
1.1879
1.18797
1.18802
1.18804
1.18802
1.18798
1.18791
1.18783
1.18774
1.18765
1.18741
1.18759
1.18772
1.18781
1.18786
1.18788
1.18787
1.18783
1.18777
1.18771
1.18763
1.18755
1.18717
1.18739
1.18754
1.18764
1.1877
1.18772
1.18771
1.18769
1.18764
1.18759
1.18753
1.18746
1.18691
1.18717
1.18736
1.18747
1.18754
1.18756
1.18756
1.18755
1.18751
1.18748
1.18743
1.18738
1.18664
1.18695
1.18717
1.1873
1.18737
1.18741
1.18742
1.18741
1.18739
1.18737
1.18734
1.1873
1.18637
1.18671
1.18697
1.18712
1.18721
1.18725
1.18727
1.18727
1.18727
1.18726
1.18724
1.18721
1.18606
1.18637
1.18669
1.18686
1.18696
1.18702
1.18705
1.18707
1.18709
1.1871
1.1871
1.18709
1.18812
1.18799
1.18786
1.18773
1.1876
1.18747
1.18734
1.18721
1.18707
1.18693
1.1868
1.18661
1.18798
1.18784
1.18771
1.18758
1.18745
1.18731
1.18718
1.18703
1.18689
1.18672
1.18653
1.1861
1.18785
1.18772
1.18759
1.18746
1.18732
1.18719
1.18704
1.18689
1.18674
1.18655
1.18634
1.18592
1.18774
1.18761
1.18749
1.18736
1.18723
1.18709
1.18694
1.18678
1.18662
1.18642
1.18623
1.18588
1.18764
1.18752
1.1874
1.18728
1.18715
1.18701
1.18686
1.18669
1.18653
1.18633
1.18616
1.18588
1.18755
1.18744
1.18733
1.18721
1.18708
1.18694
1.18679
1.18663
1.18646
1.18626
1.18611
1.18589
1.18747
1.18738
1.18727
1.18716
1.18703
1.18689
1.18674
1.18657
1.1864
1.18621
1.18608
1.1859
1.18739
1.18731
1.18722
1.18711
1.18699
1.18685
1.18669
1.18653
1.18636
1.18618
1.18606
1.18593
1.18733
1.18726
1.18717
1.18707
1.18695
1.18681
1.18666
1.18649
1.18632
1.18615
1.18605
1.18595
1.18726
1.1872
1.18713
1.18703
1.18691
1.18678
1.18662
1.18646
1.18629
1.18612
1.18604
1.18597
1.18718
1.18714
1.18707
1.18698
1.18687
1.18673
1.18658
1.18641
1.18625
1.18609
1.18601
1.18598
1.18708
1.18706
1.18701
1.18693
1.18682
1.18669
1.18654
1.18638
1.18623
1.18607
1.18601
1.186
1.18674
1.18658
1.18657
1.18663
1.18676
1.18693
1.18715
1.1874
1.18766
1.18793
1.18816
1.18836
1.1864
1.18637
1.18638
1.18646
1.1866
1.18679
1.18703
1.18729
1.18756
1.18783
1.18807
1.18827
1.18615
1.18617
1.1862
1.1863
1.18645
1.18666
1.1869
1.18717
1.18745
1.18773
1.18797
1.18818
1.18591
1.18598
1.18604
1.18615
1.18631
1.18653
1.18678
1.18706
1.18735
1.18763
1.18788
1.18808
1.1857
1.1858
1.18588
1.18601
1.18618
1.1864
1.18667
1.18695
1.18724
1.18753
1.18778
1.18799
1.18549
1.18564
1.18574
1.18587
1.18605
1.18629
1.18656
1.18685
1.18714
1.18743
1.18768
1.18789
1.18531
1.18549
1.18561
1.18575
1.18593
1.18617
1.18645
1.18675
1.18705
1.18733
1.18758
1.18779
1.18516
1.18536
1.18548
1.18563
1.18582
1.18607
1.18635
1.18666
1.18696
1.18724
1.18749
1.1877
1.18504
1.18524
1.18537
1.18552
1.18571
1.18596
1.18626
1.18657
1.18687
1.18715
1.1874
1.18762
1.18496
1.18514
1.18527
1.18541
1.1856
1.18586
1.18617
1.18648
1.18679
1.18707
1.18732
1.18754
1.1849
1.18505
1.18517
1.1853
1.18549
1.18575
1.18607
1.1864
1.18671
1.18699
1.18724
1.18745
1.18486
1.18496
1.18506
1.18518
1.18535
1.18561
1.18595
1.18629
1.18659
1.18687
1.18712
1.18735
)
;

boundaryField
{
    rotor
    {
        type            calculated;
        value           nonuniform List<scalar> 
192
(
1.16956
1.16932
1.16922
1.16918
1.16922
1.16954
1.17059
1.17087
1.17062
1.17062
1.17063
1.17059
1.17075
1.17097
1.17133
1.17184
1.17242
1.17301
1.17362
1.17411
1.17441
1.17437
1.17414
1.17349
1.16947
1.16926
1.16914
1.16909
1.16912
1.16931
1.16994
1.1711
1.17049
1.17043
1.17057
1.17053
1.17065
1.17083
1.17112
1.17157
1.1721
1.17261
1.17318
1.1736
1.17387
1.17379
1.17355
1.17293
1.16956
1.16932
1.16922
1.16918
1.16922
1.16954
1.17059
1.17087
1.17062
1.17062
1.17064
1.17059
1.17075
1.17097
1.17133
1.17184
1.17242
1.17301
1.17362
1.17411
1.17441
1.17437
1.17414
1.17349
1.16947
1.16926
1.16914
1.16909
1.16912
1.16931
1.16994
1.1711
1.17049
1.17043
1.17057
1.17053
1.17065
1.17083
1.17112
1.17157
1.1721
1.17261
1.17318
1.1736
1.17387
1.17379
1.17355
1.17293
1.16956
1.17111
1.17227
1.1741
1.17579
1.17759
1.17936
1.1811
1.18301
1.18486
1.18631
1.18619
1.17293
1.17405
1.17446
1.17532
1.17678
1.1787
1.18108
1.18384
1.18698
1.19006
1.19286
1.19498
1.16947
1.17101
1.17215
1.17395
1.17562
1.17744
1.17922
1.18097
1.18288
1.18471
1.18616
1.1861
1.17349
1.17457
1.1749
1.17574
1.1772
1.17915
1.18157
1.1844
1.1876
1.19073
1.19351
1.19553
1.16956
1.17111
1.17227
1.1741
1.17579
1.17759
1.17936
1.1811
1.18301
1.18486
1.18631
1.18619
1.17293
1.17405
1.17446
1.17532
1.17678
1.1787
1.18108
1.18384
1.18698
1.19006
1.19286
1.19498
1.16947
1.17101
1.17215
1.17395
1.17562
1.17744
1.17922
1.18097
1.18288
1.18471
1.18616
1.1861
1.17349
1.17457
1.1749
1.17574
1.1772
1.17915
1.18157
1.1844
1.1876
1.19073
1.19351
1.19553
)
;
    }
    stator
    {
        type            calculated;
        value           nonuniform List<scalar> 
192
(
1.18751
1.1876
1.18763
1.18761
1.18753
1.1874
1.18725
1.18708
1.18693
1.18681
1.18675
1.18676
1.18606
1.18637
1.18669
1.18686
1.18696
1.18702
1.18705
1.18707
1.18709
1.1871
1.1871
1.18709
1.18708
1.18705
1.187
1.18692
1.18682
1.18669
1.18654
1.18638
1.18623
1.18607
1.18601
1.186
1.18486
1.18496
1.18506
1.18518
1.18535
1.18561
1.18594
1.18628
1.18659
1.18687
1.18712
1.18734
1.18751
1.1876
1.18763
1.18761
1.18753
1.1874
1.18725
1.18708
1.18693
1.18681
1.18675
1.18676
1.18606
1.18637
1.18669
1.18686
1.18696
1.18702
1.18705
1.18707
1.18709
1.1871
1.1871
1.18709
1.18708
1.18706
1.18701
1.18693
1.18682
1.18669
1.18654
1.18638
1.18623
1.18607
1.18601
1.186
1.18486
1.18496
1.18506
1.18518
1.18535
1.18561
1.18595
1.18629
1.18659
1.18687
1.18712
1.18735
1.18862
1.1884
1.18822
1.18804
1.18785
1.18764
1.18741
1.18717
1.18691
1.18664
1.18637
1.18606
1.18837
1.18798
1.18767
1.18743
1.18724
1.18707
1.18694
1.18684
1.18677
1.18674
1.18674
1.18676
1.18674
1.1864
1.18615
1.18591
1.18569
1.18549
1.18531
1.18516
1.18504
1.18496
1.1849
1.18486
1.18661
1.1861
1.18592
1.18588
1.18588
1.18589
1.1859
1.18593
1.18595
1.18597
1.18598
1.186
1.18862
1.1884
1.18822
1.18804
1.18785
1.18764
1.18741
1.18717
1.18691
1.18664
1.18637
1.18606
1.18837
1.18798
1.18767
1.18743
1.18724
1.18707
1.18694
1.18684
1.18677
1.18674
1.18674
1.18676
1.18674
1.1864
1.18615
1.18591
1.1857
1.18549
1.18531
1.18516
1.18504
1.18496
1.1849
1.18486
1.18661
1.1861
1.18592
1.18588
1.18588
1.18589
1.1859
1.18593
1.18595
1.18597
1.18598
1.186
)
;
    }
    front
    {
        type            empty;
    }
    back
    {
        type            empty;
    }
}


// ************************************************************************* //
