/*--------------------------------*- C++ -*----------------------------------*\
| =========                 |                                                 |
| \\      /  F ield         | OpenFOAM: The Open Source CFD Toolbox           |
|  \\    /   O peration     | Version:  2212                                  |
|   \\  /    A nd           | Website:  www.openfoam.com                      |
|    \\/     M anipulation  |                                                 |
\*---------------------------------------------------------------------------*/
FoamFile
{
    version     2.0;
    format      ascii;
    arch        "LSB;label=32;scalar=64";
    class       volScalarField;
    location    "0.02";
    object      T;
}
// * * * * * * * * * * * * * * * * * * * * * * * * * * * * * * * * * * * * * //

dimensions      [0 0 0 1 0 0 0];

internalField   nonuniform List<scalar> 
3072
(
292.228
292.223
292.216
292.203
292.183
292.114
291.848
291.829
291.988
291.94
291.778
291.65
292.083
292.059
292.009
291.929
291.832
291.885
291.83
291.809
291.827
291.764
291.708
291.661
291.98
291.95
291.858
291.807
291.795
291.791
291.773
291.76
291.755
291.735
291.719
291.702
291.897
291.879
291.807
291.779
291.78
291.784
291.78
291.773
291.769
291.765
291.763
291.76
291.856
291.836
291.792
291.778
291.787
291.795
291.803
291.806
291.812
291.819
291.824
291.825
291.806
291.788
291.777
291.777
291.803
291.821
291.84
291.853
291.866
291.878
291.887
291.892
291.728
291.729
291.743
291.77
291.811
291.847
291.877
291.902
291.922
291.939
291.952
291.961
291.669
291.665
291.709
291.768
291.826
291.878
291.922
291.957
291.985
292.007
292.023
292.033
291.574
291.626
291.712
291.791
291.867
291.933
291.986
292.027
292.058
292.081
292.097
292.108
291.499
291.656
291.772
291.873
291.957
292.023
292.073
292.111
292.139
292.159
292.173
292.181
291.567
291.784
291.923
292.011
292.074
292.123
292.16
292.189
292.21
292.225
292.235
292.24
291.904
292.016
292.089
292.123
292.154
292.184
292.209
292.231
292.248
292.261
292.27
292.275
291.525
291.452
291.415
291.402
291.429
291.498
291.594
291.73
291.889
292.082
292.26
292.341
291.617
291.592
291.577
291.569
291.569
291.592
291.634
291.697
291.778
291.904
292.101
292.197
291.686
291.672
291.661
291.654
291.651
291.657
291.675
291.704
291.746
291.802
291.905
292.028
291.754
291.747
291.74
291.735
291.731
291.731
291.735
291.744
291.754
291.769
291.809
291.852
291.824
291.821
291.816
291.81
291.804
291.797
291.789
291.78
291.768
291.754
291.737
291.701
291.894
291.893
291.889
291.882
291.872
291.858
291.84
291.817
291.787
291.75
291.702
291.595
291.966
291.966
291.962
291.954
291.94
291.921
291.894
291.858
291.813
291.758
291.688
291.532
292.039
292.04
292.036
292.026
292.009
291.985
291.952
291.907
291.851
291.781
291.69
291.513
292.113
292.113
292.108
292.097
292.079
292.052
292.014
291.964
291.899
291.821
291.718
291.524
292.184
292.182
292.176
292.163
292.144
292.117
292.079
292.027
291.959
291.877
291.774
291.619
292.241
292.238
292.231
292.219
292.201
292.176
292.141
292.093
292.028
291.948
291.855
291.747
292.276
292.273
292.268
292.258
292.244
292.223
292.195
292.156
292.102
292.028
291.956
291.96
292.231
292.227
292.221
292.21
292.195
292.153
292.001
291.742
291.973
292.004
291.859
291.74
292.092
292.07
292.028
291.965
291.843
291.877
291.878
291.821
291.847
291.826
291.752
291.719
291.987
291.962
291.873
291.805
291.799
291.803
291.796
291.786
291.776
291.769
291.751
291.737
291.897
291.883
291.805
291.773
291.775
291.791
291.796
291.793
291.788
291.786
291.783
291.781
291.853
291.836
291.784
291.767
291.779
291.799
291.809
291.816
291.822
291.829
291.835
291.838
291.8
291.784
291.766
291.763
291.792
291.818
291.839
291.855
291.868
291.88
291.89
291.897
291.723
291.722
291.729
291.752
291.797
291.836
291.869
291.896
291.917
291.935
291.949
291.958
291.665
291.658
291.695
291.749
291.808
291.86
291.906
291.943
291.972
291.995
292.012
292.024
291.57
291.621
291.699
291.772
291.845
291.91
291.964
292.006
292.039
292.063
292.081
292.092
291.498
291.651
291.757
291.851
291.93
291.995
292.045
292.084
292.113
292.135
292.15
292.16
291.564
291.774
291.902
291.983
292.042
292.089
292.126
292.156
292.178
292.196
292.208
292.216
291.887
291.996
292.061
292.089
292.115
292.142
292.168
292.191
292.211
292.227
292.239
292.247
291.609
291.536
291.493
291.479
291.495
291.564
291.649
291.783
291.932
292.121
292.29
292.368
291.669
291.644
291.628
291.62
291.619
291.64
291.68
291.741
291.817
291.943
292.136
292.23
291.721
291.708
291.697
291.691
291.688
291.693
291.71
291.739
291.78
291.834
291.939
292.062
291.777
291.771
291.765
291.761
291.758
291.758
291.762
291.771
291.782
291.798
291.842
291.891
291.838
291.836
291.832
291.827
291.822
291.816
291.809
291.801
291.792
291.779
291.768
291.739
291.9
291.9
291.897
291.892
291.883
291.871
291.854
291.833
291.807
291.774
291.73
291.631
291.964
291.965
291.963
291.956
291.944
291.927
291.902
291.87
291.829
291.778
291.714
291.564
292.03
292.033
292.03
292.022
292.007
291.986
291.955
291.914
291.862
291.798
291.712
291.541
292.099
292.101
292.097
292.088
292.072
292.048
292.014
291.967
291.907
291.833
291.736
291.544
292.165
292.165
292.161
292.151
292.134
292.11
292.076
292.028
291.965
291.887
291.789
291.637
292.219
292.219
292.214
292.205
292.19
292.168
292.137
292.094
292.033
291.958
291.87
291.761
292.252
292.253
292.25
292.244
292.233
292.217
292.193
292.158
292.109
292.041
291.975
291.981
292.228
292.223
292.216
292.203
292.183
292.114
291.848
291.829
291.988
291.94
291.778
291.65
292.083
292.059
292.009
291.929
291.833
291.885
291.83
291.809
291.827
291.764
291.708
291.661
291.98
291.95
291.858
291.807
291.795
291.791
291.773
291.76
291.755
291.735
291.719
291.702
291.897
291.879
291.806
291.779
291.78
291.784
291.78
291.773
291.769
291.765
291.763
291.76
291.856
291.836
291.792
291.778
291.787
291.795
291.803
291.806
291.812
291.819
291.824
291.825
291.806
291.788
291.777
291.777
291.803
291.821
291.84
291.853
291.866
291.878
291.887
291.892
291.728
291.729
291.743
291.77
291.811
291.847
291.877
291.902
291.922
291.939
291.952
291.961
291.669
291.665
291.709
291.768
291.826
291.878
291.922
291.957
291.985
292.007
292.023
292.033
291.574
291.626
291.712
291.791
291.867
291.933
291.986
292.027
292.058
292.081
292.098
292.108
291.499
291.656
291.772
291.873
291.957
292.023
292.073
292.111
292.139
292.159
292.173
292.181
291.567
291.784
291.923
292.011
292.074
292.123
292.16
292.189
292.21
292.225
292.235
292.24
291.904
292.016
292.089
292.123
292.154
292.184
292.209
292.231
292.249
292.261
292.27
292.275
291.525
291.452
291.415
291.402
291.429
291.498
291.594
291.73
291.889
292.082
292.26
292.341
291.617
291.592
291.577
291.569
291.569
291.592
291.634
291.698
291.778
291.904
292.101
292.197
291.686
291.672
291.661
291.654
291.651
291.657
291.675
291.704
291.746
291.802
291.905
292.028
291.754
291.747
291.74
291.735
291.731
291.731
291.735
291.744
291.754
291.769
291.809
291.853
291.824
291.821
291.816
291.81
291.804
291.797
291.789
291.78
291.768
291.754
291.737
291.701
291.894
291.893
291.889
291.882
291.872
291.858
291.84
291.817
291.787
291.75
291.702
291.595
291.966
291.966
291.962
291.954
291.94
291.921
291.894
291.858
291.813
291.758
291.688
291.532
292.039
292.04
292.036
292.026
292.009
291.985
291.952
291.907
291.851
291.782
291.69
291.513
292.113
292.113
292.108
292.097
292.079
292.052
292.014
291.964
291.899
291.821
291.718
291.524
292.184
292.182
292.176
292.163
292.144
292.117
292.079
292.027
291.959
291.877
291.774
291.619
292.241
292.238
292.231
292.219
292.201
292.176
292.141
292.094
292.028
291.948
291.855
291.747
292.276
292.273
292.268
292.258
292.244
292.223
292.195
292.156
292.102
292.028
291.956
291.96
292.231
292.227
292.221
292.21
292.195
292.153
292.001
291.742
291.973
292.004
291.859
291.74
292.092
292.07
292.028
291.965
291.843
291.877
291.878
291.821
291.847
291.826
291.752
291.719
291.987
291.962
291.873
291.805
291.799
291.803
291.796
291.786
291.776
291.769
291.751
291.737
291.897
291.883
291.805
291.773
291.775
291.791
291.796
291.793
291.788
291.786
291.783
291.781
291.853
291.836
291.785
291.767
291.779
291.799
291.809
291.816
291.822
291.829
291.835
291.838
291.8
291.784
291.766
291.763
291.792
291.818
291.839
291.855
291.868
291.88
291.89
291.897
291.723
291.722
291.729
291.753
291.797
291.836
291.869
291.896
291.917
291.935
291.949
291.958
291.665
291.658
291.695
291.749
291.808
291.86
291.906
291.943
291.972
291.995
292.012
292.024
291.57
291.621
291.699
291.772
291.845
291.91
291.964
292.006
292.039
292.063
292.081
292.092
291.498
291.651
291.757
291.851
291.93
291.995
292.045
292.084
292.113
292.135
292.15
292.16
291.564
291.774
291.902
291.983
292.042
292.089
292.126
292.156
292.178
292.196
292.208
292.216
291.888
291.996
292.061
292.089
292.115
292.142
292.168
292.191
292.211
292.227
292.239
292.247
291.609
291.536
291.493
291.479
291.495
291.564
291.649
291.783
291.932
292.121
292.29
292.368
291.669
291.644
291.628
291.62
291.619
291.64
291.68
291.741
291.817
291.943
292.136
292.23
291.721
291.708
291.697
291.691
291.688
291.693
291.71
291.739
291.78
291.834
291.939
292.062
291.777
291.771
291.765
291.761
291.758
291.758
291.762
291.771
291.782
291.798
291.842
291.891
291.838
291.836
291.832
291.827
291.822
291.816
291.809
291.801
291.792
291.779
291.768
291.739
291.9
291.9
291.897
291.892
291.883
291.871
291.854
291.833
291.807
291.774
291.73
291.631
291.964
291.965
291.963
291.956
291.944
291.927
291.902
291.87
291.829
291.778
291.714
291.564
292.03
292.033
292.03
292.022
292.007
291.986
291.955
291.914
291.862
291.798
291.712
291.541
292.099
292.101
292.097
292.088
292.072
292.048
292.014
291.967
291.907
291.833
291.736
291.544
292.165
292.165
292.161
292.151
292.134
292.11
292.076
292.028
291.965
291.887
291.789
291.637
292.219
292.219
292.214
292.205
292.19
292.168
292.137
292.094
292.033
291.958
291.87
291.761
292.252
292.253
292.25
292.244
292.233
292.217
292.193
292.158
292.109
292.041
291.975
291.981
292.141
292.131
292.135
292.145
292.165
292.189
292.212
292.233
292.25
292.264
292.275
292.282
292.213
292.206
292.196
292.191
292.195
292.201
292.213
292.228
292.242
292.255
292.266
292.275
292.249
292.247
292.241
292.235
292.231
292.231
292.233
292.238
292.245
292.254
292.263
292.272
292.272
292.271
292.267
292.264
292.26
292.257
292.258
292.26
292.263
292.268
292.274
292.281
292.286
292.286
292.284
292.279
292.27
292.256
292.237
292.208
292.171
292.113
292.078
292.116
292.282
292.286
292.288
292.288
292.284
292.276
292.265
292.246
292.222
292.181
292.153
292.169
292.279
292.286
292.291
292.294
292.294
292.291
292.284
292.271
292.256
292.229
292.202
292.206
292.289
292.297
292.303
292.307
292.307
292.305
292.3
292.29
292.278
292.26
292.238
292.236
292.118
292.101
292.098
292.105
292.121
292.143
292.167
292.19
292.211
292.229
292.244
292.255
292.18
292.173
292.159
292.153
292.155
292.162
292.174
292.191
292.209
292.226
292.242
292.256
292.213
292.213
292.208
292.204
292.202
292.205
292.209
292.217
292.227
292.241
292.254
292.267
292.24
292.244
292.245
292.246
292.247
292.25
292.254
292.26
292.267
292.276
292.286
292.296
292.264
292.269
292.27
292.269
292.263
292.253
292.239
292.216
292.184
292.132
292.103
292.141
292.267
292.276
292.281
292.285
292.285
292.282
292.275
292.262
292.244
292.21
292.186
292.203
292.278
292.288
292.297
292.303
292.307
292.308
292.306
292.298
292.288
292.267
292.242
292.245
292.306
292.316
292.325
292.332
292.336
292.337
292.334
292.326
292.316
292.301
292.279
292.272
292.141
292.131
292.135
292.145
292.165
292.189
292.212
292.233
292.25
292.264
292.275
292.282
292.213
292.206
292.196
292.191
292.195
292.201
292.214
292.228
292.242
292.255
292.266
292.275
292.249
292.247
292.241
292.235
292.231
292.231
292.233
292.238
292.246
292.254
292.263
292.272
292.272
292.271
292.268
292.264
292.26
292.257
292.258
292.26
292.263
292.268
292.274
292.281
292.286
292.286
292.285
292.279
292.27
292.256
292.237
292.208
292.171
292.113
292.078
292.116
292.282
292.286
292.288
292.288
292.284
292.276
292.265
292.246
292.222
292.181
292.153
292.17
292.28
292.286
292.291
292.294
292.294
292.291
292.284
292.271
292.256
292.229
292.202
292.206
292.289
292.297
292.303
292.307
292.307
292.305
292.3
292.29
292.278
292.26
292.238
292.236
292.118
292.101
292.098
292.106
292.121
292.143
292.167
292.19
292.211
292.229
292.244
292.255
292.18
292.173
292.159
292.153
292.155
292.162
292.174
292.191
292.209
292.226
292.242
292.256
292.213
292.213
292.208
292.204
292.202
292.205
292.21
292.217
292.227
292.241
292.254
292.267
292.24
292.244
292.245
292.246
292.247
292.25
292.254
292.26
292.267
292.276
292.286
292.296
292.264
292.269
292.27
292.269
292.263
292.253
292.239
292.216
292.184
292.132
292.103
292.141
292.267
292.276
292.281
292.285
292.285
292.282
292.275
292.261
292.244
292.21
292.186
292.203
292.278
292.288
292.297
292.303
292.307
292.308
292.306
292.298
292.288
292.267
292.242
292.245
292.306
292.316
292.325
292.332
292.336
292.337
292.334
292.326
292.316
292.301
292.279
292.272
292.285
292.283
292.281
292.279
292.278
292.279
292.281
292.285
292.29
292.295
292.301
292.308
292.298
292.296
292.295
292.295
292.296
292.299
292.304
292.31
292.316
292.322
292.328
292.333
292.312
292.311
292.311
292.312
292.315
292.32
292.327
292.335
292.344
292.351
292.356
292.358
292.329
292.327
292.328
292.331
292.336
292.343
292.352
292.363
292.374
292.384
292.389
292.386
292.316
292.324
292.329
292.33
292.328
292.323
292.316
292.306
292.294
292.279
292.268
292.266
292.342
292.351
292.355
292.353
292.349
292.342
292.334
292.324
292.312
292.302
292.296
292.294
292.367
292.378
292.38
292.376
292.369
292.361
292.352
292.342
292.333
292.326
292.322
292.323
292.393
292.405
292.406
292.4
292.391
292.381
292.371
292.362
292.354
292.35
292.349
292.352
292.268
292.273
292.278
292.282
292.287
292.293
292.301
292.309
292.318
292.327
292.336
292.344
292.298
292.305
292.312
292.319
292.327
292.337
292.347
292.358
292.369
292.378
292.386
292.391
292.329
292.337
292.346
292.357
292.368
292.38
292.393
292.407
292.42
292.431
292.438
292.438
292.359
292.369
292.381
292.394
292.408
292.423
292.439
292.455
292.472
292.487
292.495
292.491
292.354
292.365
292.372
292.374
292.371
292.362
292.351
292.337
292.323
292.308
292.293
292.287
292.399
292.413
292.419
292.418
292.408
292.393
292.375
292.356
292.337
292.321
292.308
292.301
292.442
292.46
292.466
292.461
292.447
292.426
292.402
292.378
292.356
292.337
292.323
292.316
292.483
292.508
292.513
292.505
292.486
292.46
292.431
292.402
292.376
292.356
292.341
292.333
292.285
292.283
292.281
292.279
292.278
292.279
292.281
292.285
292.29
292.295
292.301
292.308
292.298
292.296
292.295
292.295
292.296
292.299
292.304
292.31
292.316
292.323
292.328
292.333
292.312
292.311
292.311
292.312
292.315
292.32
292.327
292.335
292.344
292.351
292.356
292.358
292.329
292.327
292.328
292.331
292.336
292.343
292.352
292.363
292.374
292.384
292.389
292.386
292.316
292.324
292.329
292.33
292.328
292.324
292.316
292.306
292.294
292.279
292.268
292.266
292.342
292.351
292.355
292.353
292.349
292.342
292.334
292.324
292.312
292.302
292.296
292.294
292.367
292.378
292.38
292.376
292.37
292.361
292.352
292.342
292.333
292.326
292.322
292.323
292.393
292.406
292.406
292.4
292.391
292.381
292.371
292.362
292.354
292.35
292.349
292.352
292.268
292.273
292.278
292.282
292.287
292.293
292.301
292.309
292.318
292.327
292.336
292.344
292.298
292.305
292.312
292.319
292.327
292.337
292.347
292.358
292.369
292.378
292.385
292.391
292.329
292.337
292.346
292.357
292.368
292.38
292.393
292.407
292.42
292.431
292.438
292.438
292.359
292.369
292.381
292.394
292.408
292.423
292.439
292.455
292.472
292.486
292.495
292.491
292.354
292.365
292.372
292.374
292.37
292.362
292.351
292.337
292.323
292.308
292.293
292.287
292.399
292.413
292.419
292.417
292.408
292.393
292.375
292.356
292.337
292.321
292.308
292.301
292.442
292.46
292.466
292.461
292.447
292.426
292.402
292.378
292.356
292.337
292.323
292.316
292.483
292.507
292.513
292.504
292.485
292.46
292.431
292.402
292.376
292.356
292.341
292.332
292.347
292.346
292.348
292.352
292.359
292.368
292.379
292.393
292.407
292.421
292.433
292.433
292.367
292.366
292.369
292.375
292.383
292.395
292.409
292.425
292.443
292.463
292.487
292.536
292.389
292.389
292.393
292.4
292.41
292.423
292.44
292.459
292.481
292.508
292.543
292.615
292.412
292.412
292.418
292.426
292.438
292.454
292.473
292.495
292.521
292.552
292.594
292.675
292.435
292.437
292.443
292.454
292.468
292.485
292.506
292.531
292.561
292.596
292.642
292.724
292.459
292.462
292.47
292.482
292.498
292.517
292.54
292.568
292.6
292.638
292.685
292.764
292.483
292.487
292.496
292.51
292.527
292.549
292.574
292.603
292.637
292.676
292.723
292.797
292.507
292.512
292.522
292.537
292.556
292.579
292.606
292.637
292.672
292.712
292.756
292.822
292.529
292.535
292.547
292.563
292.584
292.609
292.637
292.669
292.705
292.744
292.784
292.838
292.55
292.558
292.571
292.589
292.611
292.637
292.667
292.7
292.735
292.772
292.807
292.846
292.572
292.581
292.596
292.615
292.638
292.666
292.697
292.73
292.765
292.798
292.826
292.847
292.601
292.613
292.629
292.65
292.675
292.704
292.736
292.769
292.801
292.827
292.842
292.842
292.428
292.437
292.433
292.424
292.413
292.402
292.391
292.383
292.378
292.375
292.375
292.38
292.485
292.473
292.462
292.45
292.437
292.424
292.413
292.406
292.401
292.4
292.402
292.409
292.533
292.509
292.494
292.478
292.462
292.448
292.437
292.43
292.426
292.426
292.429
292.436
292.579
292.548
292.527
292.507
292.49
292.474
292.463
292.455
292.452
292.451
292.455
292.463
292.626
292.588
292.562
292.539
292.519
292.502
292.49
292.482
292.477
292.477
292.481
292.489
292.676
292.631
292.599
292.572
292.549
292.531
292.517
292.508
292.504
292.503
292.507
292.514
292.729
292.675
292.638
292.606
292.581
292.56
292.545
292.535
292.529
292.528
292.531
292.538
292.787
292.723
292.678
292.642
292.613
292.59
292.573
292.561
292.555
292.553
292.555
292.56
292.848
292.772
292.719
292.677
292.645
292.619
292.601
292.587
292.579
292.576
292.577
292.582
292.912
292.824
292.76
292.713
292.677
292.649
292.628
292.613
292.603
292.599
292.599
292.603
292.976
292.879
292.805
292.752
292.712
292.681
292.657
292.64
292.629
292.623
292.622
292.625
293.048
292.956
292.866
292.805
292.76
292.725
292.698
292.678
292.663
292.654
292.651
292.653
292.389
292.401
292.415
292.43
292.446
292.464
292.482
292.502
292.523
292.543
292.563
292.581
292.419
292.432
292.447
292.464
292.482
292.502
292.523
292.546
292.57
292.598
292.635
292.714
292.447
292.461
292.477
292.495
292.515
292.537
292.56
292.586
292.613
292.645
292.689
292.765
292.474
292.488
292.505
292.524
292.545
292.568
292.593
292.621
292.651
292.685
292.727
292.785
292.5
292.514
292.531
292.551
292.572
292.597
292.623
292.651
292.682
292.716
292.754
292.795
292.524
292.538
292.555
292.575
292.597
292.622
292.649
292.678
292.709
292.742
292.774
292.801
292.547
292.561
292.577
292.597
292.619
292.644
292.672
292.701
292.732
292.763
292.789
292.806
292.569
292.581
292.597
292.617
292.639
292.665
292.693
292.722
292.752
292.781
292.803
292.81
292.589
292.601
292.616
292.636
292.658
292.684
292.712
292.741
292.77
292.797
292.814
292.814
292.609
292.62
292.634
292.653
292.676
292.702
292.729
292.758
292.787
292.812
292.825
292.818
292.63
292.639
292.653
292.672
292.694
292.72
292.748
292.777
292.804
292.827
292.835
292.822
292.657
292.665
292.677
292.696
292.718
292.744
292.772
292.8
292.825
292.844
292.848
292.828
292.531
292.558
292.559
292.547
292.523
292.493
292.46
292.427
292.399
292.376
292.36
292.351
292.607
292.611
292.604
292.587
292.56
292.525
292.489
292.453
292.422
292.398
292.381
292.371
292.668
292.66
292.647
292.626
292.594
292.557
292.517
292.479
292.446
292.42
292.403
292.393
292.724
292.707
292.688
292.662
292.627
292.586
292.544
292.504
292.47
292.443
292.426
292.416
292.777
292.75
292.726
292.696
292.658
292.615
292.57
292.528
292.493
292.466
292.449
292.439
292.826
292.789
292.761
292.728
292.688
292.641
292.594
292.551
292.515
292.488
292.471
292.463
292.871
292.826
292.794
292.759
292.716
292.667
292.617
292.572
292.536
292.51
292.494
292.486
292.908
292.859
292.824
292.787
292.742
292.69
292.638
292.592
292.555
292.53
292.515
292.508
292.936
292.888
292.852
292.814
292.767
292.713
292.658
292.61
292.573
292.549
292.535
292.529
292.957
292.913
292.877
292.839
292.792
292.736
292.677
292.627
292.59
292.567
292.555
292.549
292.972
292.934
292.901
292.865
292.819
292.76
292.697
292.643
292.607
292.585
292.575
292.57
292.982
292.957
292.929
292.897
292.852
292.79
292.721
292.663
292.628
292.609
292.601
292.598
292.347
292.346
292.348
292.352
292.359
292.368
292.379
292.393
292.407
292.421
292.433
292.433
292.367
292.366
292.369
292.375
292.384
292.395
292.409
292.425
292.443
292.463
292.487
292.536
292.389
292.389
292.393
292.4
292.41
292.424
292.44
292.459
292.481
292.508
292.543
292.615
292.412
292.413
292.418
292.426
292.438
292.454
292.473
292.495
292.521
292.552
292.594
292.675
292.436
292.437
292.444
292.454
292.468
292.485
292.506
292.531
292.561
292.596
292.642
292.724
292.46
292.462
292.47
292.482
292.498
292.517
292.541
292.568
292.6
292.638
292.685
292.764
292.484
292.487
292.497
292.51
292.527
292.549
292.574
292.604
292.637
292.677
292.723
292.797
292.507
292.512
292.522
292.537
292.556
292.579
292.607
292.638
292.673
292.712
292.757
292.822
292.529
292.535
292.547
292.564
292.584
292.609
292.637
292.67
292.705
292.744
292.784
292.838
292.55
292.558
292.571
292.589
292.611
292.637
292.667
292.7
292.735
292.772
292.807
292.846
292.572
292.582
292.596
292.615
292.639
292.666
292.697
292.731
292.765
292.798
292.826
292.846
292.601
292.613
292.629
292.65
292.675
292.704
292.736
292.77
292.801
292.827
292.842
292.842
292.428
292.437
292.433
292.424
292.413
292.402
292.391
292.383
292.378
292.375
292.375
292.38
292.485
292.473
292.463
292.45
292.437
292.424
292.414
292.406
292.401
292.4
292.402
292.409
292.533
292.51
292.494
292.478
292.462
292.448
292.437
292.43
292.426
292.426
292.429
292.436
292.579
292.548
292.527
292.507
292.49
292.474
292.463
292.455
292.452
292.451
292.455
292.463
292.626
292.588
292.562
292.539
292.519
292.502
292.49
292.482
292.477
292.477
292.481
292.489
292.676
292.631
292.599
292.572
292.549
292.531
292.517
292.508
292.503
292.503
292.507
292.514
292.729
292.676
292.638
292.607
292.581
292.56
292.545
292.535
292.529
292.528
292.531
292.537
292.787
292.723
292.678
292.642
292.613
292.59
292.573
292.561
292.555
292.553
292.555
292.56
292.848
292.772
292.719
292.677
292.645
292.619
292.601
292.587
292.579
292.576
292.577
292.582
292.912
292.824
292.76
292.713
292.677
292.649
292.628
292.613
292.603
292.599
292.599
292.603
292.976
292.879
292.805
292.752
292.712
292.681
292.657
292.64
292.629
292.623
292.622
292.624
293.048
292.956
292.866
292.805
292.76
292.725
292.698
292.678
292.663
292.654
292.651
292.653
292.389
292.401
292.415
292.43
292.446
292.464
292.482
292.502
292.523
292.543
292.563
292.58
292.419
292.432
292.447
292.464
292.482
292.502
292.523
292.546
292.57
292.598
292.635
292.714
292.447
292.461
292.477
292.495
292.515
292.537
292.56
292.585
292.613
292.645
292.689
292.765
292.474
292.488
292.505
292.524
292.545
292.568
292.593
292.62
292.65
292.684
292.727
292.785
292.5
292.514
292.531
292.55
292.572
292.596
292.623
292.651
292.682
292.716
292.753
292.794
292.524
292.538
292.555
292.575
292.597
292.622
292.649
292.678
292.709
292.742
292.773
292.801
292.547
292.56
292.577
292.597
292.619
292.644
292.672
292.701
292.732
292.763
292.789
292.806
292.569
292.581
292.597
292.617
292.639
292.665
292.692
292.722
292.752
292.781
292.802
292.81
292.589
292.601
292.616
292.635
292.658
292.683
292.711
292.74
292.77
292.797
292.814
292.814
292.609
292.619
292.634
292.653
292.676
292.701
292.729
292.758
292.786
292.811
292.824
292.818
292.63
292.639
292.653
292.671
292.694
292.72
292.748
292.776
292.803
292.826
292.835
292.822
292.657
292.665
292.677
292.695
292.718
292.744
292.771
292.799
292.825
292.844
292.848
292.828
292.531
292.558
292.559
292.546
292.523
292.493
292.46
292.427
292.399
292.376
292.36
292.351
292.607
292.61
292.604
292.587
292.559
292.525
292.488
292.453
292.422
292.398
292.381
292.371
292.668
292.66
292.647
292.625
292.594
292.556
292.516
292.479
292.446
292.42
292.403
292.393
292.724
292.706
292.688
292.662
292.627
292.586
292.544
292.504
292.47
292.443
292.425
292.416
292.776
292.749
292.726
292.696
292.658
292.614
292.569
292.528
292.493
292.466
292.448
292.439
292.826
292.789
292.761
292.728
292.687
292.641
292.594
292.55
292.515
292.488
292.471
292.462
292.87
292.826
292.794
292.758
292.715
292.666
292.616
292.572
292.536
292.51
292.493
292.485
292.907
292.859
292.824
292.786
292.742
292.69
292.638
292.591
292.555
292.53
292.515
292.508
292.936
292.887
292.851
292.813
292.767
292.713
292.657
292.609
292.573
292.549
292.535
292.529
292.957
292.912
292.876
292.838
292.792
292.735
292.677
292.626
292.59
292.567
292.554
292.549
292.972
292.934
292.901
292.864
292.818
292.759
292.696
292.643
292.606
292.585
292.574
292.57
292.982
292.957
292.929
292.896
292.851
292.789
292.72
292.663
292.627
292.609
292.6
292.597
)
;

boundaryField
{
    rotor
    {
        type            zeroGradient;
    }
    stator
    {
        type            zeroGradient;
    }
    front
    {
        type            empty;
    }
    back
    {
        type            empty;
    }
}


// ************************************************************************* //
