/*--------------------------------*- C++ -*----------------------------------*\
| =========                 |                                                 |
| \\      /  F ield         | OpenFOAM: The Open Source CFD Toolbox           |
|  \\    /   O peration     | Version:  2212                                  |
|   \\  /    A nd           | Website:  www.openfoam.com                      |
|    \\/     M anipulation  |                                                 |
\*---------------------------------------------------------------------------*/
FoamFile
{
    version     2.0;
    format      ascii;
    arch        "LSB;label=32;scalar=64";
    class       volScalarField;
    location    "0.02";
    object      tracer0;
}
// * * * * * * * * * * * * * * * * * * * * * * * * * * * * * * * * * * * * * //

dimensions      [0 0 0 0 0 0 0];

internalField   nonuniform List<scalar> 
3072
(
5.56004e-06
5.55411e-06
5.52924e-06
5.45939e-06
5.39599e-06
5.29296e-06
5.28266e-06
5.52116e-06
7.61103e-06
8.77012e-06
8.87554e-06
8.90363e-06
5.90588e-06
5.86924e-06
5.74068e-06
5.55303e-06
5.39756e-06
5.57315e-06
6.52952e-06
7.87524e-06
8.4609e-06
8.63572e-06
8.49939e-06
8.2336e-06
6.05697e-06
5.99178e-06
5.75002e-06
5.52846e-06
5.74048e-06
6.85019e-06
7.84667e-06
8.16507e-06
8.24485e-06
7.85438e-06
6.83423e-06
5.97794e-06
6.19015e-06
6.12083e-06
5.81611e-06
5.90681e-06
6.76112e-06
7.63021e-06
7.90242e-06
7.95332e-06
7.40932e-06
5.87639e-06
4.80349e-06
4.14726e-06
6.33e-06
6.45446e-06
6.37472e-06
6.70819e-06
7.41367e-06
7.69675e-06
7.75823e-06
7.30639e-06
5.82262e-06
4.45296e-06
3.74259e-06
3.20409e-06
6.41664e-06
6.73642e-06
6.82139e-06
7.2251e-06
7.53624e-06
7.6252e-06
7.43131e-06
6.321e-06
4.6652e-06
3.66084e-06
3.14948e-06
2.79728e-06
6.49118e-06
6.95469e-06
7.13254e-06
7.38924e-06
7.4933e-06
7.45197e-06
6.84002e-06
5.47682e-06
4.12712e-06
3.41481e-06
3.01742e-06
2.7413e-06
6.67482e-06
7.08559e-06
7.20084e-06
7.36571e-06
7.4016e-06
7.22419e-06
6.55335e-06
5.41408e-06
4.18189e-06
3.48621e-06
3.09171e-06
2.81638e-06
1.00206e-05
9.33431e-06
7.31374e-06
7.28191e-06
7.28828e-06
7.11979e-06
6.602e-06
5.6027e-06
4.47934e-06
3.76988e-06
3.35359e-06
3.06616e-06
1.38552e-05
1.18814e-05
9.4915e-06
7.40328e-06
7.27721e-06
7.14403e-06
6.80219e-06
6.11658e-06
5.24185e-06
4.51072e-06
4.01549e-06
3.68539e-06
1.59885e-05
1.76257e-05
1.66314e-05
1.06043e-05
8.57957e-06
7.84182e-06
7.44597e-06
6.98198e-06
6.3315e-06
5.66696e-06
5.13834e-06
4.74424e-06
2.03193e-05
2.11023e-05
2.32167e-05
2.19813e-05
1.91374e-05
1.63993e-05
1.40117e-05
1.19895e-05
1.03575e-05
9.06034e-06
7.97655e-06
7.29293e-06
8.93818e-06
8.9583e-06
8.99874e-06
9.02272e-06
9.06725e-06
9.12972e-06
9.20768e-06
9.30323e-06
9.39383e-06
9.46031e-06
9.48919e-06
9.4494e-06
7.94631e-06
7.68479e-06
7.5299e-06
7.51695e-06
7.62148e-06
7.84981e-06
8.16287e-06
8.58732e-06
9.05695e-06
9.44623e-06
9.6337e-06
9.70929e-06
5.26639e-06
4.86287e-06
4.64708e-06
4.61805e-06
4.70455e-06
5.00819e-06
5.52918e-06
6.36133e-06
7.49263e-06
8.80241e-06
9.54298e-06
9.80776e-06
3.62959e-06
3.42825e-06
3.29496e-06
3.28832e-06
3.39244e-06
3.59931e-06
3.96716e-06
4.58416e-06
5.61564e-06
7.38202e-06
9.21534e-06
9.8743e-06
2.93758e-06
2.81513e-06
2.77993e-06
2.79339e-06
2.90934e-06
3.07359e-06
3.36477e-06
3.86246e-06
4.74184e-06
6.3191e-06
8.78712e-06
9.94934e-06
2.6543e-06
2.60065e-06
2.59253e-06
2.6414e-06
2.74784e-06
2.89346e-06
3.13904e-06
3.56169e-06
4.33858e-06
5.8191e-06
8.41324e-06
1.0019e-05
2.62196e-06
2.57893e-06
2.58774e-06
2.64543e-06
2.72164e-06
2.85982e-06
3.08833e-06
3.47919e-06
4.20834e-06
5.62569e-06
8.23207e-06
1.0096e-05
2.68308e-06
2.64686e-06
2.6771e-06
2.76015e-06
2.8921e-06
3.05313e-06
3.27599e-06
3.63194e-06
4.28626e-06
5.63069e-06
8.18891e-06
1.0169e-05
2.90351e-06
2.87971e-06
2.92464e-06
3.00954e-06
3.1417e-06
3.33078e-06
3.60888e-06
4.06506e-06
4.87689e-06
6.37661e-06
8.69028e-06
1.02962e-05
3.48728e-06
3.42684e-06
3.47045e-06
3.56608e-06
3.7272e-06
3.98562e-06
4.38753e-06
5.01748e-06
6.04021e-06
7.50217e-06
9.33579e-06
1.05013e-05
4.51178e-06
4.41588e-06
4.49346e-06
4.68945e-06
5.00078e-06
5.46931e-06
6.13041e-06
7.1258e-06
8.3681e-06
9.63599e-06
1.05201e-05
1.07907e-05
6.84396e-06
6.78184e-06
7.08984e-06
7.54345e-06
8.16824e-06
8.92435e-06
9.86035e-06
1.05149e-05
1.08581e-05
1.1036e-05
1.10548e-05
1.0926e-05
7.26909e-06
7.26335e-06
7.23635e-06
7.1606e-06
7.0916e-06
6.97877e-06
6.96064e-06
7.22818e-06
9.63202e-06
1.09838e-05
1.11e-05
1.1146e-05
7.6288e-06
7.58805e-06
7.45109e-06
7.26311e-06
7.09394e-06
7.29189e-06
8.3826e-06
9.87808e-06
1.05241e-05
1.07128e-05
1.03757e-05
9.86619e-06
7.78087e-06
7.70761e-06
7.45645e-06
7.23238e-06
7.47395e-06
8.72088e-06
9.81165e-06
1.01513e-05
1.02367e-05
9.70991e-06
8.49813e-06
7.60614e-06
7.91036e-06
7.82967e-06
7.52732e-06
7.65099e-06
8.60745e-06
9.54343e-06
9.82597e-06
9.87789e-06
9.17373e-06
7.20416e-06
5.65967e-06
4.51668e-06
8.04518e-06
8.19278e-06
8.13091e-06
8.52545e-06
9.27088e-06
9.56495e-06
9.62846e-06
9.005e-06
7.01986e-06
5.0192e-06
3.68177e-06
2.52632e-06
8.11931e-06
8.47644e-06
8.59722e-06
9.0312e-06
9.36036e-06
9.45957e-06
9.16504e-06
7.69393e-06
5.39794e-06
3.65781e-06
2.47968e-06
1.51967e-06
8.16998e-06
8.65796e-06
8.86255e-06
9.16726e-06
9.29184e-06
9.2091e-06
8.402e-06
6.50931e-06
4.43564e-06
3.06733e-06
2.06122e-06
1.26925e-06
8.20775e-06
8.73971e-06
8.95907e-06
9.11613e-06
9.14878e-06
8.89552e-06
7.93482e-06
6.32647e-06
4.48955e-06
3.17564e-06
2.20141e-06
1.4269e-06
8.19521e-06
8.72443e-06
8.91594e-06
8.98845e-06
8.97896e-06
8.69353e-06
7.97533e-06
6.56453e-06
4.89521e-06
3.63559e-06
2.69884e-06
1.94026e-06
8.19172e-06
8.66302e-06
8.79455e-06
8.83857e-06
8.83849e-06
8.66897e-06
8.25735e-06
7.34891e-06
5.97659e-06
4.69633e-06
3.76563e-06
3.01812e-06
8.0537e-06
8.48445e-06
8.49492e-06
8.49469e-06
8.5497e-06
8.53228e-06
8.42647e-06
8.19331e-06
7.65382e-06
6.892e-06
6.13283e-06
5.40499e-06
8.03114e-06
8.12203e-06
8.14174e-06
8.14746e-06
8.15828e-06
8.17459e-06
8.19769e-06
8.17874e-06
8.04894e-06
7.75633e-06
7.48634e-06
7.12421e-06
1.11725e-05
1.12155e-05
1.12474e-05
1.13064e-05
1.1354e-05
1.14502e-05
1.15293e-05
1.1359e-05
1.13301e-05
1.13085e-05
1.15018e-05
1.18178e-05
9.35797e-06
8.98621e-06
8.76553e-06
8.72399e-06
8.82092e-06
9.01023e-06
9.18863e-06
9.17963e-06
9.24712e-06
9.33182e-06
9.42913e-06
9.53253e-06
6.80666e-06
6.29754e-06
5.98391e-06
5.96806e-06
6.13973e-06
6.75124e-06
7.4793e-06
7.89511e-06
8.23213e-06
8.5095e-06
8.65059e-06
8.71793e-06
3.458e-06
2.87304e-06
2.46e-06
2.38596e-06
2.48406e-06
2.91479e-06
3.70165e-06
5.36127e-06
6.53185e-06
7.54102e-06
8.07933e-06
8.30617e-06
1.77227e-06
1.37164e-06
1.183e-06
1.15316e-06
1.2646e-06
1.56528e-06
2.08982e-06
2.97552e-06
4.5298e-06
6.24184e-06
7.34752e-06
7.85715e-06
1.05348e-06
7.89118e-07
6.87839e-07
6.73612e-07
8.11417e-07
1.07821e-06
1.55389e-06
2.33779e-06
3.51677e-06
5.21676e-06
6.6835e-06
7.5284e-06
8.74961e-07
6.2793e-07
5.15805e-07
5.15656e-07
6.63056e-07
9.2264e-07
1.38202e-06
2.15119e-06
3.31526e-06
4.71971e-06
6.32489e-06
7.32964e-06
1.00613e-06
7.52388e-07
6.26875e-07
6.58661e-07
7.67673e-07
1.00628e-06
1.45844e-06
2.21772e-06
3.37325e-06
4.72802e-06
6.31748e-06
7.44125e-06
1.47009e-06
1.18639e-06
1.0785e-06
1.15537e-06
1.32932e-06
1.65557e-06
2.20898e-06
3.05572e-06
4.16293e-06
5.35479e-06
6.68019e-06
7.47676e-06
2.53617e-06
2.18985e-06
2.16134e-06
2.31501e-06
2.57453e-06
2.97665e-06
3.56412e-06
4.32538e-06
5.19395e-06
6.05986e-06
7.02315e-06
7.65275e-06
4.93838e-06
4.54596e-06
4.49295e-06
4.63605e-06
4.87038e-06
5.19447e-06
5.60265e-06
6.13687e-06
6.71951e-06
7.3066e-06
7.71312e-06
7.78798e-06
6.89559e-06
6.67e-06
6.64504e-06
6.73731e-06
6.90051e-06
7.11352e-06
7.37118e-06
7.66794e-06
7.88395e-06
7.98635e-06
8.01102e-06
7.92186e-06
3.15524e-05
3.15456e-05
3.19604e-05
3.28277e-05
3.35155e-05
3.44668e-05
3.38089e-05
3.06275e-05
1.26781e-05
4.37452e-06
3.94281e-06
3.94225e-06
2.81175e-05
2.93429e-05
3.13492e-05
3.30244e-05
3.4267e-05
3.21284e-05
2.28615e-05
1.09155e-05
5.49313e-06
3.86371e-06
3.6599e-06
3.53176e-06
2.65704e-05
2.9236e-05
3.21367e-05
3.37918e-05
3.14453e-05
2.17659e-05
9.63715e-06
5.30769e-06
3.68512e-06
3.10433e-06
2.76715e-06
2.1458e-06
2.49322e-05
2.93885e-05
3.1801e-05
3.05693e-05
2.31126e-05
1.05206e-05
5.43283e-06
3.51301e-06
2.71037e-06
2.19232e-06
1.59935e-06
1.16158e-06
2.29334e-05
2.58318e-05
2.70318e-05
2.30429e-05
1.22931e-05
6.13656e-06
3.66665e-06
2.62037e-06
2.08086e-06
1.48268e-06
9.75261e-07
7.06918e-07
1.99143e-05
2.18461e-05
2.07706e-05
1.39936e-05
7.33315e-06
4.22276e-06
2.8296e-06
2.17147e-06
1.62472e-06
1.0334e-06
6.67072e-07
4.80186e-07
1.42485e-05
1.52162e-05
1.43459e-05
8.97646e-06
5.10369e-06
3.34914e-06
2.41527e-06
1.87108e-06
1.36902e-06
8.84822e-07
6.03652e-07
4.42782e-07
1.24472e-05
1.21927e-05
1.04474e-05
6.19938e-06
4.11496e-06
2.92238e-06
2.24865e-06
1.83822e-06
1.38933e-06
9.33385e-07
6.53427e-07
4.88222e-07
1.18341e-05
1.02983e-05
7.60358e-06
4.79108e-06
3.58096e-06
2.81121e-06
2.27644e-06
1.8996e-06
1.5091e-06
1.09799e-06
8.11178e-07
6.3208e-07
1.04986e-05
7.80519e-06
5.95525e-06
4.30379e-06
3.57881e-06
2.90542e-06
2.41382e-06
2.07016e-06
1.7667e-06
1.45854e-06
1.17836e-06
9.81866e-07
1.02581e-05
7.73056e-06
6.2483e-06
4.84829e-06
4.06393e-06
3.41682e-06
2.8895e-06
2.4966e-06
2.19186e-06
1.90865e-06
1.65736e-06
1.44631e-06
9.88039e-06
9.14209e-06
8.44829e-06
7.73374e-06
6.98868e-06
6.09207e-06
5.20239e-06
4.29327e-06
3.55953e-06
3.05614e-06
2.69176e-06
2.44458e-06
3.96002e-06
3.98047e-06
3.99152e-06
4.0152e-06
4.0362e-06
4.07583e-06
4.12604e-06
4.18869e-06
4.25534e-06
4.30541e-06
4.32781e-06
4.31408e-06
3.32158e-06
3.15387e-06
3.04208e-06
3.02701e-06
3.07545e-06
3.20459e-06
3.39872e-06
3.64576e-06
3.95622e-06
4.25017e-06
4.40202e-06
4.46089e-06
1.79528e-06
1.53253e-06
1.42272e-06
1.37382e-06
1.4094e-06
1.54856e-06
1.79721e-06
2.24928e-06
2.86485e-06
3.69528e-06
4.29377e-06
4.51346e-06
9.35651e-07
7.52308e-07
6.90334e-07
6.69975e-07
6.93323e-07
8.00809e-07
9.78444e-07
1.2986e-06
1.82676e-06
2.72356e-06
4.00106e-06
4.55152e-06
5.28607e-07
4.25508e-07
3.87393e-07
3.80532e-07
4.09452e-07
4.90189e-07
6.33747e-07
8.94547e-07
1.35558e-06
2.16522e-06
3.59626e-06
4.59686e-06
3.50582e-07
2.92867e-07
2.70005e-07
2.66848e-07
2.99678e-07
3.66189e-07
4.8817e-07
7.1192e-07
1.12931e-06
1.8543e-06
3.289e-06
4.64189e-06
3.28295e-07
2.68251e-07
2.37188e-07
2.348e-07
2.68629e-07
3.30988e-07
4.44251e-07
6.52211e-07
1.05071e-06
1.73113e-06
3.13644e-06
4.69022e-06
3.72783e-07
3.09435e-07
2.75728e-07
2.8474e-07
3.12302e-07
3.71371e-07
4.81355e-07
6.74413e-07
1.05644e-06
1.72008e-06
3.09319e-06
4.73692e-06
5.09286e-07
4.41104e-07
4.0906e-07
4.28103e-07
4.69511e-07
5.49712e-07
6.90963e-07
9.31976e-07
1.38592e-06
2.0335e-06
3.32301e-06
4.82522e-06
8.35106e-07
7.5193e-07
7.16362e-07
7.44714e-07
8.05513e-07
9.17003e-07
1.10467e-06
1.40288e-06
1.91059e-06
2.56587e-06
3.77562e-06
5.00076e-06
1.32362e-06
1.21937e-06
1.22764e-06
1.30469e-06
1.43252e-06
1.64012e-06
1.95337e-06
2.39249e-06
3.02069e-06
3.73359e-06
4.696e-06
5.28246e-06
2.26696e-06
2.2371e-06
2.34527e-06
2.54408e-06
2.8373e-06
3.24494e-06
3.78165e-06
4.36965e-06
4.98413e-06
5.38525e-06
5.69097e-06
5.63614e-06
7.62625e-06
7.61954e-06
7.60196e-06
7.54803e-06
7.4919e-06
7.40236e-06
7.40727e-06
7.66293e-06
9.86607e-06
1.10852e-05
1.11881e-05
1.12189e-05
7.93793e-06
7.9225e-06
7.83831e-06
7.67858e-06
7.53158e-06
7.74375e-06
8.85208e-06
1.01092e-05
1.06574e-05
1.08252e-05
1.04873e-05
9.99778e-06
8.0752e-06
8.05465e-06
7.88061e-06
7.68423e-06
7.90815e-06
9.08477e-06
9.93351e-06
1.01804e-05
1.023e-05
9.37211e-06
7.5174e-06
6.1298e-06
8.19317e-06
8.21751e-06
7.96306e-06
8.07251e-06
8.95583e-06
9.67322e-06
9.86104e-06
9.76077e-06
8.65013e-06
5.95092e-06
4.31918e-06
3.15592e-06
8.29866e-06
8.5205e-06
8.50525e-06
8.87165e-06
9.4314e-06
9.61015e-06
9.52388e-06
8.48627e-06
5.9289e-06
3.72726e-06
2.6436e-06
1.66357e-06
8.35425e-06
8.75869e-06
8.90081e-06
9.24139e-06
9.39993e-06
9.41995e-06
8.78393e-06
6.85517e-06
4.19571e-06
2.57904e-06
1.73273e-06
1.01677e-06
8.38941e-06
8.87305e-06
9.06362e-06
9.23108e-06
9.2919e-06
9.02268e-06
7.82397e-06
5.54084e-06
3.30597e-06
2.1401e-06
1.44434e-06
8.61322e-07
8.40365e-06
8.8762e-06
9.06008e-06
9.14998e-06
9.08424e-06
8.58906e-06
7.27897e-06
5.37059e-06
3.38071e-06
2.23614e-06
1.54878e-06
9.79911e-07
8.39461e-06
8.84237e-06
8.96767e-06
8.97839e-06
8.84739e-06
8.37261e-06
7.3425e-06
5.65148e-06
3.8172e-06
2.63929e-06
1.927e-06
1.36232e-06
8.38325e-06
8.74272e-06
8.80426e-06
8.82006e-06
8.72109e-06
8.41882e-06
7.72292e-06
6.5036e-06
4.87619e-06
3.62067e-06
2.80884e-06
2.2068e-06
8.30475e-06
8.54032e-06
8.51638e-06
8.5257e-06
8.4956e-06
8.40116e-06
8.2003e-06
7.77253e-06
7.05343e-06
5.99331e-06
5.08371e-06
4.25763e-06
8.01713e-06
8.02695e-06
7.95219e-06
7.92498e-06
7.91384e-06
8.007e-06
7.98972e-06
7.89504e-06
7.75236e-06
7.45029e-06
7.12048e-06
6.72895e-06
1.12464e-05
1.12789e-05
1.13155e-05
1.13669e-05
1.14311e-05
1.15273e-05
1.16632e-05
1.18219e-05
1.19918e-05
1.21039e-05
1.21555e-05
1.21478e-05
9.42949e-06
8.9229e-06
8.61608e-06
8.55989e-06
8.69919e-06
9.07294e-06
9.62054e-06
1.03318e-05
1.11893e-05
1.19177e-05
1.22751e-05
1.24076e-05
4.84844e-06
4.23313e-06
3.787e-06
3.71275e-06
3.79941e-06
4.22723e-06
4.96453e-06
6.32525e-06
8.2142e-06
1.05954e-05
1.19971e-05
1.25008e-05
2.31254e-06
1.94049e-06
1.66664e-06
1.6263e-06
1.69308e-06
1.99981e-06
2.5079e-06
3.41133e-06
4.95846e-06
7.91328e-06
1.13236e-05
1.2574e-05
1.22606e-06
9.13687e-07
7.95788e-07
7.7532e-07
8.56384e-07
1.08969e-06
1.51048e-06
2.25214e-06
3.47803e-06
5.97289e-06
1.04273e-05
1.26606e-05
7.15401e-07
5.10212e-07
4.36662e-07
4.24805e-07
5.17726e-07
7.11231e-07
1.0756e-06
1.75332e-06
2.79309e-06
5.05863e-06
9.59586e-06
1.27498e-05
5.90629e-07
4.03585e-07
3.19289e-07
3.15255e-07
4.13151e-07
5.94574e-07
9.31912e-07
1.5911e-06
2.5451e-06
4.64339e-06
9.19417e-06
1.28478e-05
6.84966e-07
4.98075e-07
4.01756e-07
4.2238e-07
4.96592e-07
6.65241e-07
9.86942e-07
1.65902e-06
2.5469e-06
4.59937e-06
9.07126e-06
1.29407e-05
1.01986e-06
8.16972e-07
7.27658e-07
7.81089e-07
9.06582e-07
1.1537e-06
1.58007e-06
2.41047e-06
3.31554e-06
5.58337e-06
9.44304e-06
1.30354e-05
1.82517e-06
1.566e-06
1.52874e-06
1.65133e-06
1.86856e-06
2.22378e-06
2.74909e-06
3.68642e-06
4.41923e-06
6.66619e-06
8.44988e-06
1.18469e-05
3.80669e-06
3.40357e-06
3.42168e-06
3.6266e-06
3.93317e-06
4.34642e-06
4.89427e-06
5.39837e-06
5.56023e-06
6.70231e-06
8.07312e-06
1.1299e-05
6.40623e-06
6.17401e-06
6.05155e-06
6.04497e-06
6.05342e-06
6.069e-06
6.03507e-06
6.00852e-06
5.883e-06
6.61705e-06
7.63528e-06
1.0544e-05
1.06685e-05
1.16226e-05
1.4606e-05
1.49157e-05
1.58368e-05
1.58392e-05
1.56456e-05
1.53032e-05
1.47346e-05
1.40903e-05
1.34723e-05
1.29154e-05
8.52943e-06
9.14811e-06
1.09397e-05
1.12332e-05
1.14554e-05
1.19064e-05
1.25098e-05
1.30368e-05
1.34886e-05
1.35573e-05
1.34568e-05
1.33503e-05
6.88011e-06
8.35708e-06
8.55121e-06
8.70088e-06
8.94247e-06
9.13169e-06
9.45489e-06
9.72677e-06
1.01009e-05
1.0467e-05
1.08228e-05
1.09936e-05
6.70971e-06
6.78229e-06
6.91052e-06
7.01909e-06
7.20367e-06
7.37989e-06
7.64854e-06
7.90638e-06
8.23959e-06
8.45615e-06
8.67739e-06
8.58968e-06
1.24023e-05
1.21943e-05
1.21006e-05
1.20746e-05
1.20441e-05
1.19436e-05
1.18133e-05
1.16912e-05
1.15286e-05
1.13827e-05
1.12272e-05
1.11366e-05
1.32369e-05
1.30832e-05
1.28754e-05
1.2614e-05
1.2285e-05
1.19505e-05
1.15578e-05
1.11688e-05
1.07624e-05
1.04477e-05
1.0169e-05
1.02575e-05
1.08723e-05
1.06275e-05
1.03074e-05
9.91617e-06
9.46147e-06
8.97155e-06
8.43137e-06
7.9202e-06
7.47776e-06
7.18144e-06
7.01284e-06
7.18095e-06
8.18481e-06
7.72672e-06
7.22036e-06
6.75392e-06
6.28982e-06
5.95984e-06
5.70158e-06
5.56894e-06
5.50399e-06
5.48585e-06
5.47481e-06
5.4938e-06
1.0961e-05
1.06195e-05
1.04538e-05
1.02275e-05
9.99201e-06
9.65006e-06
9.35669e-06
9.00122e-06
8.77304e-06
8.56697e-06
8.34089e-06
8.17117e-06
1.03569e-05
1.03323e-05
1.02861e-05
1.02139e-05
1.01383e-05
1.00648e-05
9.97851e-06
9.84834e-06
9.70804e-06
9.56783e-06
9.43067e-06
9.30503e-06
7.443e-06
7.747e-06
7.99964e-06
8.28959e-06
8.54584e-06
8.82341e-06
9.05633e-06
9.19586e-06
9.28833e-06
9.28801e-06
9.25498e-06
9.19857e-06
5.61356e-06
5.67929e-06
5.84477e-06
5.94784e-06
6.18263e-06
6.35296e-06
6.67641e-06
6.97596e-06
7.37836e-06
7.64811e-06
7.81503e-06
7.72823e-06
8.00289e-06
7.95541e-06
8.01563e-06
8.12178e-06
8.23042e-06
8.3203e-06
8.36581e-06
8.35392e-06
8.30886e-06
8.22626e-06
8.17912e-06
8.05888e-06
9.20632e-06
9.13706e-06
9.04868e-06
8.96858e-06
8.85205e-06
8.7398e-06
8.58004e-06
8.43155e-06
8.2464e-06
8.10311e-06
7.96804e-06
7.91853e-06
9.10026e-06
8.9622e-06
8.77059e-06
8.53102e-06
8.22568e-06
7.92445e-06
7.52027e-06
7.15e-06
6.78771e-06
6.56233e-06
6.42089e-06
6.49515e-06
7.38023e-06
6.97298e-06
6.51208e-06
6.04867e-06
5.62103e-06
5.24066e-06
5.0074e-06
4.84098e-06
4.77823e-06
4.75202e-06
4.72384e-06
4.76486e-06
8.09646e-06
8.15496e-06
8.12604e-06
8.08512e-06
7.97006e-06
7.84565e-06
7.53344e-06
7.21356e-06
6.69567e-06
6.20025e-06
5.62517e-06
5.28808e-06
7.89422e-06
7.8787e-06
7.86181e-06
7.85115e-06
7.82636e-06
7.7901e-06
7.74411e-06
7.67389e-06
7.55988e-06
7.4195e-06
7.26053e-06
7.09505e-06
6.64793e-06
6.76971e-06
6.88303e-06
6.99545e-06
7.0951e-06
7.19495e-06
7.2693e-06
7.3378e-06
7.33924e-06
7.30769e-06
7.25809e-06
7.20538e-06
4.84549e-06
4.92738e-06
5.02535e-06
5.13166e-06
5.27636e-06
5.44735e-06
5.66212e-06
5.88318e-06
6.1275e-06
6.2908e-06
6.36305e-06
6.28576e-06
4.94425e-06
4.95014e-06
5.11611e-06
5.34418e-06
5.58931e-06
5.81539e-06
5.98991e-06
6.09973e-06
6.14333e-06
6.1217e-06
6.10477e-06
5.96271e-06
6.97971e-06
6.90999e-06
6.8493e-06
6.78539e-06
6.71308e-06
6.63746e-06
6.54521e-06
6.44465e-06
6.33501e-06
6.23245e-06
6.15498e-06
6.09249e-06
7.13315e-06
7.03428e-06
6.89849e-06
6.74392e-06
6.53273e-06
6.32716e-06
6.06336e-06
5.8058e-06
5.55084e-06
5.39931e-06
5.28765e-06
5.31147e-06
6.0441e-06
5.7617e-06
5.44464e-06
5.12792e-06
4.82497e-06
4.55251e-06
4.39406e-06
4.28198e-06
4.23013e-06
4.20498e-06
4.18165e-06
4.19423e-06
5.99658e-06
6.1038e-06
6.13414e-06
6.17301e-06
6.24194e-06
6.36027e-06
6.56297e-06
6.76819e-06
6.99665e-06
7.08266e-06
7.0341e-06
6.971e-06
6.03025e-06
5.99077e-06
5.96196e-06
5.94835e-06
5.94046e-06
5.93128e-06
5.95719e-06
5.97953e-06
6.04391e-06
6.09592e-06
6.17995e-06
6.21986e-06
5.39611e-06
5.44685e-06
5.48708e-06
5.50689e-06
5.53608e-06
5.55466e-06
5.58516e-06
5.60976e-06
5.64077e-06
5.67077e-06
5.68537e-06
5.65844e-06
4.23138e-06
4.26841e-06
4.31699e-06
4.37337e-06
4.43197e-06
4.50555e-06
4.57319e-06
4.65257e-06
4.71382e-06
4.77123e-06
4.79302e-06
4.76149e-06
6.87136e-06
6.796e-06
6.67438e-06
6.57302e-06
6.42937e-06
6.31829e-06
6.15521e-06
6.03142e-06
5.7869e-06
6.23362e-06
7.27415e-06
8.23108e-06
6.17977e-06
6.11125e-06
6.02298e-06
5.91128e-06
5.7758e-06
5.61007e-06
5.38979e-06
5.24783e-06
5.08074e-06
5.44882e-06
6.40694e-06
7.03868e-06
5.58549e-06
5.48613e-06
5.35425e-06
5.20523e-06
5.04181e-06
4.93561e-06
4.90016e-06
4.88122e-06
4.8732e-06
4.85909e-06
5.24934e-06
6.3106e-06
4.69826e-06
4.65644e-06
4.63804e-06
4.65504e-06
4.7016e-06
4.78296e-06
4.87242e-06
4.96325e-06
5.04334e-06
5.08573e-06
5.08762e-06
5.50703e-06
6.12742e-06
5.99656e-06
5.93083e-06
5.70389e-06
5.52238e-06
5.19239e-06
4.89918e-06
4.47069e-06
4.10605e-06
3.62888e-06
3.34778e-06
3.13691e-06
4.21895e-06
4.03154e-06
3.76336e-06
3.51628e-06
3.23816e-06
2.94343e-06
2.6726e-06
2.39793e-06
2.2127e-06
2.0508e-06
2.03615e-06
2.05303e-06
2.46188e-06
2.30375e-06
2.11414e-06
1.93773e-06
1.74014e-06
1.56609e-06
1.39678e-06
1.25714e-06
1.15064e-06
1.07405e-06
1.05884e-06
1.08435e-06
1.43134e-06
1.32627e-06
1.21182e-06
1.09655e-06
9.8253e-07
8.75117e-07
7.80689e-07
6.97227e-07
6.40076e-07
5.94762e-07
5.9245e-07
6.17527e-07
3.23455e-06
3.36112e-06
3.59294e-06
3.89742e-06
4.22771e-06
4.5475e-06
4.79466e-06
4.97286e-06
5.09528e-06
5.18143e-06
5.22601e-06
5.24855e-06
2.24663e-06
2.47342e-06
2.68075e-06
2.94399e-06
3.18748e-06
3.42497e-06
3.6401e-06
3.82219e-06
3.97199e-06
4.06557e-06
4.08968e-06
3.99463e-06
1.20789e-06
1.39683e-06
1.55772e-06
1.74101e-06
1.92508e-06
2.10355e-06
2.26532e-06
2.40857e-06
2.51951e-06
2.57512e-06
2.56453e-06
2.45631e-06
7.13746e-07
8.55675e-07
9.43882e-07
1.04596e-06
1.15116e-06
1.25554e-06
1.35346e-06
1.44442e-06
1.50775e-06
1.53644e-06
1.51784e-06
1.44975e-06
5.25318e-06
5.21978e-06
5.1719e-06
5.04493e-06
4.87703e-06
4.65264e-06
4.39385e-06
4.06697e-06
3.73812e-06
3.38557e-06
3.05179e-06
2.90582e-06
3.82565e-06
3.66297e-06
3.43451e-06
3.23388e-06
3.01164e-06
2.77965e-06
2.54876e-06
2.33908e-06
2.16981e-06
2.05951e-06
2.02684e-06
2.07549e-06
2.35071e-06
2.20958e-06
2.06879e-06
1.91306e-06
1.75912e-06
1.60349e-06
1.46405e-06
1.33985e-06
1.24583e-06
1.18284e-06
1.16803e-06
1.20767e-06
1.37753e-06
1.28168e-06
1.1874e-06
1.07861e-06
9.79339e-07
8.73992e-07
7.87305e-07
7.04247e-07
6.47893e-07
6.06896e-07
6.02814e-07
6.4239e-07
2.96955e-06
3.06561e-06
3.19953e-06
3.41902e-06
3.65908e-06
3.90349e-06
4.12041e-06
4.27774e-06
4.38642e-06
4.46114e-06
4.51178e-06
4.54386e-06
2.20838e-06
2.40761e-06
2.5758e-06
2.78971e-06
2.98185e-06
3.16761e-06
3.3359e-06
3.47971e-06
3.59688e-06
3.68144e-06
3.71551e-06
3.68175e-06
1.32876e-06
1.5185e-06
1.66643e-06
1.82807e-06
1.99035e-06
2.14587e-06
2.28538e-06
2.40753e-06
2.50396e-06
2.55513e-06
2.55636e-06
2.46968e-06
7.4139e-07
9.03745e-07
9.96662e-07
1.10134e-06
1.20628e-06
1.30869e-06
1.40434e-06
1.48827e-06
1.54396e-06
1.5654e-06
1.53366e-06
1.46409e-06
4.5582e-06
4.55844e-06
4.52137e-06
4.45265e-06
4.33645e-06
4.19396e-06
4.00386e-06
3.78235e-06
3.53997e-06
3.2855e-06
3.03519e-06
2.94609e-06
3.56292e-06
3.47226e-06
3.30497e-06
3.1752e-06
2.99158e-06
2.8242e-06
2.62416e-06
2.46031e-06
2.30293e-06
2.21296e-06
2.17727e-06
2.23547e-06
2.37898e-06
2.25782e-06
2.12163e-06
1.97628e-06
1.81117e-06
1.6558e-06
1.48923e-06
1.35589e-06
1.22759e-06
1.15695e-06
1.11901e-06
1.16992e-06
1.3762e-06
1.27305e-06
1.15846e-06
1.03735e-06
9.14298e-07
7.95921e-07
6.85701e-07
5.94066e-07
5.18698e-07
4.749e-07
4.56949e-07
4.92697e-07
2.9965e-06
3.08738e-06
3.21034e-06
3.3717e-06
3.53589e-06
3.69441e-06
3.83431e-06
3.94041e-06
4.01575e-06
4.0697e-06
4.10987e-06
4.14289e-06
2.37364e-06
2.58092e-06
2.75028e-06
2.95637e-06
3.13724e-06
3.30517e-06
3.45145e-06
3.57228e-06
3.66682e-06
3.74191e-06
3.78614e-06
3.80578e-06
1.29994e-06
1.54105e-06
1.71735e-06
1.90874e-06
2.09861e-06
2.27858e-06
2.43793e-06
2.57525e-06
2.6839e-06
2.74468e-06
2.75314e-06
2.66234e-06
5.80485e-07
7.28262e-07
8.2834e-07
9.45018e-07
1.06459e-06
1.18308e-06
1.29482e-06
1.3921e-06
1.45703e-06
1.48267e-06
1.44832e-06
1.3719e-06
4.17217e-06
4.20024e-06
4.22887e-06
4.25534e-06
4.27491e-06
4.28517e-06
4.27698e-06
4.23693e-06
4.18292e-06
4.12163e-06
4.08323e-06
4.11177e-06
3.79112e-06
3.75195e-06
3.68581e-06
3.57585e-06
3.40953e-06
3.17832e-06
2.93792e-06
2.65621e-06
2.42353e-06
2.22481e-06
2.1441e-06
2.17913e-06
2.5414e-06
2.38341e-06
2.198e-06
1.98987e-06
1.78985e-06
1.60287e-06
1.41375e-06
1.26181e-06
1.14771e-06
1.08231e-06
1.0827e-06
1.14676e-06
1.27035e-06
1.16354e-06
1.03868e-06
9.23277e-07
8.05959e-07
7.03363e-07
6.09525e-07
5.41763e-07
4.91291e-07
4.69468e-07
4.74658e-07
5.36563e-07
4.26721e-06
4.49555e-06
4.70469e-06
4.95419e-06
5.16905e-06
5.40797e-06
5.58523e-06
5.74778e-06
5.85725e-06
5.93317e-06
5.98722e-06
6.05112e-06
2.36747e-06
2.66391e-06
2.94637e-06
3.26696e-06
3.57765e-06
3.86942e-06
4.1254e-06
4.33684e-06
4.51125e-06
4.61069e-06
4.62762e-06
4.46542e-06
1.30106e-06
1.5319e-06
1.71121e-06
1.90796e-06
2.10607e-06
2.29843e-06
2.47352e-06
2.63156e-06
2.74304e-06
2.78971e-06
2.74065e-06
2.61478e-06
6.47588e-07
8.58032e-07
9.78092e-07
1.10703e-06
1.23197e-06
1.35125e-06
1.46048e-06
1.55853e-06
1.62214e-06
1.64464e-06
1.60308e-06
1.5268e-06
6.79566e-07
6.04721e-07
5.28434e-07
4.44748e-07
3.71416e-07
2.92133e-07
2.33559e-07
1.68941e-07
1.33533e-07
8.96208e-08
8.41313e-08
7.28078e-08
2.2975e-07
1.91009e-07
1.52731e-07
1.13561e-07
8.42105e-08
5.28169e-08
3.78118e-08
1.78555e-08
1.63887e-08
8.9755e-09
1.02403e-08
9.00025e-09
5.19847e-08
3.97188e-08
2.72789e-08
1.72519e-08
1.05944e-08
4.75829e-09
3.49162e-09
1.44065e-09
1.76449e-09
1.30891e-09
1.40307e-09
1.38761e-09
7.44581e-09
5.09322e-09
2.72165e-09
1.47152e-09
6.72447e-10
3.56256e-10
2.64959e-10
2.32586e-10
2.22524e-10
2.2045e-10
2.22456e-10
2.25861e-10
6.39699e-10
3.55678e-10
1.57765e-10
8.36075e-11
5.08345e-11
4.82017e-11
3.37518e-11
3.86433e-11
3.69422e-11
3.83755e-11
3.8976e-11
3.96258e-11
3.8278e-11
1.7474e-11
1.38631e-11
7.51432e-12
8.11596e-12
7.67715e-12
6.65354e-12
7.26405e-12
7.27218e-12
7.44449e-12
7.59096e-12
7.70005e-12
3.31857e-12
1.522e-12
1.88842e-12
1.40392e-12
1.57557e-12
1.52825e-12
1.48954e-12
1.53972e-12
1.55706e-12
1.58678e-12
1.61726e-12
1.63589e-12
4.2618e-13
3.01436e-13
3.51643e-13
3.24851e-13
3.40678e-13
3.38413e-13
3.39308e-13
3.43661e-13
3.48054e-13
3.53789e-13
3.59688e-13
3.62859e-13
7.71893e-14
7.09915e-14
7.50892e-14
7.4328e-14
7.54153e-14
7.55919e-14
7.60389e-14
7.67664e-14
7.76819e-14
7.87491e-14
7.98153e-14
8.03317e-14
1.59715e-14
1.59374e-14
1.61692e-14
1.62214e-14
1.63297e-14
1.64038e-14
1.65097e-14
1.66443e-14
1.68103e-14
1.69885e-14
1.71614e-14
1.72371e-14
3.32376e-15
3.3464e-15
3.37426e-15
3.38989e-15
3.40841e-15
3.42468e-15
3.44491e-15
3.46708e-15
3.4929e-15
3.51844e-15
3.54233e-15
3.55164e-15
7.87451e-16
7.91949e-16
7.96185e-16
7.99964e-16
8.03756e-16
8.0742e-16
8.11022e-16
8.14363e-16
8.17301e-16
8.19597e-16
8.21152e-16
8.2191e-16
3.37797e-07
4.05798e-07
4.4937e-07
5.05208e-07
5.64255e-07
6.25024e-07
6.83797e-07
7.32061e-07
7.63113e-07
7.72439e-07
7.44724e-07
7.02419e-07
1.7879e-07
1.66666e-07
1.80515e-07
2.0093e-07
2.24106e-07
2.49322e-07
2.7247e-07
2.90727e-07
3.00437e-07
2.97883e-07
2.75363e-07
2.51709e-07
8.5567e-08
5.64359e-08
6.08663e-08
6.60373e-08
7.20938e-08
7.86535e-08
8.41476e-08
8.76914e-08
8.82933e-08
8.25609e-08
7.44908e-08
6.27245e-08
3.77612e-08
1.51564e-08
1.62706e-08
1.69755e-08
1.78725e-08
1.87888e-08
1.93338e-08
1.93357e-08
1.80837e-08
1.64113e-08
1.36825e-08
1.0688e-08
1.60024e-08
3.14179e-09
3.407e-09
3.37665e-09
3.39612e-09
3.34984e-09
3.19451e-09
2.94219e-09
2.54228e-09
2.13356e-09
1.66147e-09
1.09579e-09
6.87149e-09
5.2741e-10
5.78228e-10
5.20384e-10
5.02305e-10
4.44271e-10
3.95728e-10
3.25081e-10
2.55427e-10
1.89706e-10
1.27791e-10
6.83309e-11
3.03851e-09
7.67449e-11
8.10332e-11
6.60783e-11
6.07668e-11
4.77732e-11
4.02311e-11
2.86636e-11
2.1729e-11
1.46669e-11
9.6094e-12
4.34697e-12
1.40204e-09
1.11834e-11
8.7924e-12
7.85853e-12
5.97021e-12
4.63841e-12
3.50343e-12
2.21624e-12
1.80947e-12
1.13894e-12
8.63137e-13
4.24664e-13
6.45556e-10
2.66096e-12
6.61661e-13
8.58242e-13
4.9653e-13
4.34596e-13
2.74268e-13
1.72539e-13
1.72738e-13
1.00296e-13
1.01561e-13
6.59423e-14
2.97152e-10
1.02897e-12
6.99735e-14
8.47638e-14
3.77169e-14
4.2012e-14
2.14406e-14
1.79926e-14
1.88225e-14
1.32373e-14
1.45671e-14
1.20361e-14
1.17906e-10
4.10205e-13
7.8333e-15
8.06768e-15
3.40434e-15
4.33463e-15
2.29505e-15
2.6076e-15
2.64291e-15
2.32833e-15
2.48618e-15
2.38008e-15
7.02906e-11
4.47452e-13
2.4208e-15
5.72034e-16
7.08789e-16
5.91126e-16
5.43992e-16
5.32948e-16
5.54726e-16
5.46038e-16
5.58549e-16
5.59095e-16
6.41184e-07
5.78834e-07
5.02813e-07
4.33139e-07
3.55982e-07
2.90576e-07
2.2452e-07
1.73389e-07
1.26911e-07
9.78386e-08
7.808e-08
8.11701e-08
2.14959e-07
1.82828e-07
1.43064e-07
1.1249e-07
7.81354e-08
5.63902e-08
3.35586e-08
2.41047e-08
1.12669e-08
1.25783e-08
9.35826e-09
1.01927e-08
5.0088e-08
3.80437e-08
2.62538e-08
1.77455e-08
1.071e-08
6.12143e-09
2.68006e-09
2.7482e-09
1.60158e-09
1.85608e-09
1.61618e-09
1.72143e-09
7.54595e-09
5.19697e-09
2.75006e-09
1.47309e-09
1.1495e-09
4.43071e-10
3.80343e-10
4.04473e-10
3.12801e-10
3.51573e-10
3.44179e-10
3.52498e-10
7.10134e-10
4.60216e-10
1.89775e-10
1.05024e-10
1.22088e-10
6.82635e-11
7.1236e-11
7.4447e-11
6.90106e-11
7.27371e-11
7.36629e-11
7.48033e-11
4.88822e-11
3.77283e-11
1.79472e-11
1.49377e-11
1.69236e-11
1.35461e-11
1.39193e-11
1.4366e-11
1.42937e-11
1.4627e-11
1.4918e-11
1.51307e-11
4.54197e-12
4.06252e-12
2.57362e-12
2.51041e-12
2.76325e-12
2.59524e-12
2.6213e-12
2.67498e-12
2.7027e-12
2.7554e-12
2.8122e-12
2.84676e-12
5.54509e-13
5.37676e-13
4.40693e-13
4.43238e-13
4.69255e-13
4.65962e-13
4.68568e-13
4.74786e-13
4.81356e-13
4.9005e-13
4.9911e-13
5.04019e-13
8.21089e-14
8.23214e-14
7.8079e-14
7.83205e-14
8.05358e-14
8.08977e-14
8.14956e-14
8.24072e-14
8.35233e-14
8.48152e-14
8.61008e-14
8.67385e-14
1.37491e-14
1.39093e-14
1.39093e-14
1.39662e-14
1.41337e-14
1.42244e-14
1.43356e-14
1.44731e-14
1.46377e-14
1.48123e-14
1.49799e-14
1.50565e-14
2.50608e-15
2.53491e-15
2.5549e-15
2.5687e-15
2.5876e-15
2.60294e-15
2.62078e-15
2.64009e-15
2.66207e-15
2.68361e-15
2.70354e-15
2.71185e-15
5.66209e-16
5.7037e-16
5.73785e-16
5.7676e-16
5.79824e-16
5.82723e-16
5.8555e-16
5.88185e-16
5.90518e-16
5.92367e-16
5.93648e-16
5.94317e-16
3.40826e-07
4.16271e-07
4.63405e-07
5.22511e-07
5.8386e-07
6.46585e-07
7.0466e-07
7.50022e-07
7.76096e-07
7.78787e-07
7.35661e-07
6.91524e-07
1.75691e-07
1.68743e-07
1.81877e-07
2.03855e-07
2.28219e-07
2.54063e-07
2.76988e-07
2.94036e-07
3.01549e-07
2.93048e-07
2.6851e-07
2.41151e-07
8.17687e-08
5.45553e-08
5.94161e-08
6.51843e-08
7.17223e-08
7.85817e-08
8.41238e-08
8.74223e-08
8.75017e-08
8.03773e-08
7.1852e-08
5.90963e-08
3.50803e-08
1.41466e-08
1.537e-08
1.62891e-08
1.73753e-08
1.84438e-08
1.90813e-08
1.91104e-08
1.76945e-08
1.59652e-08
1.30404e-08
9.99918e-09
1.4542e-08
2.84366e-09
3.12482e-09
3.17288e-09
3.24541e-09
3.27652e-09
3.15379e-09
2.88622e-09
2.52331e-09
2.08083e-09
1.60447e-09
1.04565e-09
6.14413e-09
4.65632e-10
5.17311e-10
4.90066e-10
4.87674e-10
4.38403e-10
3.96736e-10
3.23127e-10
2.64926e-10
1.87557e-10
1.40284e-10
7.62449e-11
2.68815e-09
6.75921e-11
7.2109e-11
6.31975e-11
6.13474e-11
4.84888e-11
4.31413e-11
3.03932e-11
2.60323e-11
1.51433e-11
1.51172e-11
7.25743e-12
1.23391e-09
9.95961e-12
7.98668e-12
7.79372e-12
6.57391e-12
5.21862e-12
4.30707e-12
2.95138e-12
2.87865e-12
1.6388e-12
1.94608e-12
1.34829e-12
5.68209e-10
2.42831e-12