/*--------------------------------*- C++ -*----------------------------------*\
| =========                 |                                                 |
| \\      /  F ield         | OpenFOAM: The Open Source CFD Toolbox           |
|  \\    /   O peration     | Version:  2212                                  |
|   \\  /    A nd           | Website:  www.openfoam.com                      |
|    \\/     M anipulation  |                                                 |
\*---------------------------------------------------------------------------*/
FoamFile
{
    version     2.0;
    format      ascii;
    arch        "LSB;label=32;scalar=64";
    class       volScalarField;
    location    "0.02";
    object      tracer0;
}
// * * * * * * * * * * * * * * * * * * * * * * * * * * * * * * * * * * * * * //

dimensions      [0 0 0 0 0 0 0];

internalField   nonuniform List<scalar> 
3072
(
6.56575e-06
6.53637e-06
6.44442e-06
6.30848e-06
6.14994e-06
6.05226e-06
6.31766e-06
8.81625e-06
9.73036e-06
9.79162e-06
9.81021e-06
9.82742e-06
7.06431e-06
6.96066e-06
6.68429e-06
6.33776e-06
6.57468e-06
7.70294e-06
8.93117e-06
9.43913e-06
9.55659e-06
9.33449e-06
9.03131e-06
8.65879e-06
7.26578e-06
7.09513e-06
6.7104e-06
6.95213e-06
8.20373e-06
8.87726e-06
9.10613e-06
9.15506e-06
8.59314e-06
7.39515e-06
6.48784e-06
5.59253e-06
7.46746e-06
7.50586e-06
7.47191e-06
8.22608e-06
8.71117e-06
8.84514e-06
8.82268e-06
8.05925e-06
6.34895e-06
5.26754e-06
4.4635e-06
3.86614e-06
7.58968e-06
8.002e-06
8.14951e-06
8.56435e-06
8.68151e-06
8.65482e-06
8.03797e-06
6.37573e-06
4.90661e-06
4.12418e-06
3.45018e-06
3.14558e-06
7.64809e-06
8.19342e-06
8.39197e-06
8.55812e-06
8.58568e-06
8.23453e-06
6.95016e-06
5.17362e-06
4.08124e-06
3.49568e-06
3.04544e-06
2.85097e-06
7.64086e-06
8.25911e-06
8.44566e-06
8.51365e-06
8.3771e-06
7.64953e-06
6.24023e-06
4.78154e-06
3.95648e-06
3.4588e-06
3.05145e-06
2.86114e-06
7.67629e-06
8.29074e-06
8.4263e-06
8.4561e-06
8.20765e-06
7.51603e-06
6.2745e-06
4.91016e-06
4.10017e-06
3.60405e-06
3.20488e-06
3.00089e-06
9.52798e-06
9.9861e-06
8.46469e-06
8.35984e-06
8.18119e-06
7.62103e-06
6.57566e-06
5.37292e-06
4.56072e-06
4.04779e-06
3.65319e-06
3.41661e-06
1.28515e-05
1.20937e-05
1.02717e-05
8.47162e-06
8.25274e-06
7.906e-06
7.25413e-06
6.4423e-06
5.68237e-06
5.12516e-06
4.70918e-06
4.4225e-06
1.47053e-05
1.64019e-05
1.56558e-05
1.11427e-05
9.50818e-06
8.88003e-06
8.41398e-06
7.88095e-06
7.31668e-06
6.82841e-06
6.43959e-06
6.16605e-06
1.86478e-05
1.9328e-05
2.10695e-05
2.00659e-05
1.79298e-05
1.61761e-05
1.47663e-05
1.36602e-05
1.26994e-05
1.19627e-05
1.13104e-05
1.09011e-05
9.84736e-06
9.86959e-06
9.89646e-06
9.9353e-06
9.98573e-06
1.00557e-05
1.0148e-05
1.025e-05
1.0363e-05
1.04305e-05
1.04633e-05
1.04593e-05
8.31208e-06
8.04231e-06
7.94273e-06
7.95567e-06
8.12329e-06
8.39754e-06
8.81266e-06
9.26851e-06
9.85496e-06
1.03181e-05
1.055e-05
1.06389e-05
5.13786e-06
4.79861e-06
4.68427e-06
4.67398e-06
4.83546e-06
5.15101e-06
5.7253e-06
6.67019e-06
7.92706e-06
9.4871e-06
1.03889e-05
1.07121e-05
3.60203e-06
3.38494e-06
3.33484e-06
3.35206e-06
3.4907e-06
3.71647e-06
4.12956e-06
4.80578e-06
5.92518e-06
7.82721e-06
1.00025e-05
1.07757e-05
2.94471e-06
2.86726e-06
2.85296e-06
2.88388e-06
3.00132e-06
3.18256e-06
3.50402e-06
4.05929e-06
5.02327e-06
6.72321e-06
9.4886e-06
1.08414e-05
2.73767e-06
2.70154e-06
2.69911e-06
2.75277e-06
2.8558e-06
3.00868e-06
3.27957e-06
3.76094e-06
4.62377e-06
6.22635e-06
9.10271e-06
1.09117e-05
2.74836e-06
2.71128e-06
2.72723e-06
2.77359e-06
2.84955e-06
2.98657e-06
3.24e-06
3.692e-06
4.5083e-06
6.05604e-06
8.92105e-06
1.09825e-05
2.88272e-06
2.85202e-06
2.887e-06
2.96048e-06
3.08216e-06
3.26352e-06
3.53847e-06
3.98004e-06
4.7268e-06
6.11772e-06
8.89983e-06
1.1057e-05
3.28328e-06
3.25546e-06
3.30485e-06
3.39026e-06
3.53049e-06
3.74539e-06
4.07458e-06
4.59855e-06
5.48091e-06
7.0028e-06
9.54453e-06
1.11996e-05
4.25916e-06
4.17421e-06
4.21432e-06
4.33728e-06
4.52252e-06
4.81128e-06
5.2542e-06
5.92363e-06
6.94755e-06
8.37028e-06
1.02697e-05
1.14088e-05
5.98417e-06
5.94769e-06
6.05574e-06
6.29763e-06
6.62517e-06
7.09743e-06
7.74878e-06
8.64986e-06
9.63267e-06
1.07798e-05
1.14909e-05
1.16907e-05
1.05446e-05
1.04459e-05
1.05557e-05
1.07956e-05
1.11023e-05
1.1404e-05
1.16727e-05
1.18715e-05
1.1987e-05
1.20002e-05
1.19762e-05
1.18163e-05
8.29278e-06
8.27331e-06
8.22592e-06
8.12062e-06
8.02005e-06
7.92709e-06
8.06428e-06
9.70539e-06
1.16257e-05
1.17859e-05
1.18164e-05
1.18396e-05
8.69189e-06
8.63722e-06
8.4361e-06
8.14716e-06
8.19488e-06
8.92036e-06
1.05061e-05
1.12019e-05
1.14617e-05
1.1278e-05
1.08202e-05
1.03171e-05
8.86231e-06
8.78316e-06
8.40754e-06
8.56402e-06
9.52214e-06
1.05653e-05
1.0932e-05
1.10293e-05
1.07351e-05
9.71558e-06
8.52383e-06
7.77869e-06
9.03579e-06
9.11743e-06
9.08734e-06
9.66433e-06
1.0401e-05
1.06676e-05
1.07258e-05
1.02153e-05
8.62676e-06
6.81014e-06
5.66151e-06
4.45277e-06
9.13368e-06
9.5615e-06
9.71604e-06
1.02321e-05
1.04607e-05
1.05211e-05
1.00874e-05
8.51995e-06
6.54086e-06
4.90962e-06
3.69599e-06
2.58215e-06
9.18133e-06
9.76559e-06
1.0013e-05
1.02943e-05
1.03775e-05
1.01588e-05
8.99891e-06
6.95677e-06
5.03307e-06
3.5828e-06
2.49787e-06
1.6924e-06
9.17411e-06
9.83898e-06
1.01065e-05
1.02365e-05
1.01837e-05
9.55908e-06
8.02723e-06
6.19681e-06
4.60672e-06
3.39857e-06
2.46074e-06
1.70815e-06
9.17988e-06
9.83866e-06
1.00652e-05
1.01165e-05
9.93426e-06
9.2128e-06
7.9679e-06
6.31039e-06
4.82075e-06
3.66813e-06
2.77417e-06
2.04359e-06
9.12639e-06
9.79305e-06
9.96667e-06
9.98197e-06
9.79342e-06
9.24736e-06
8.19659e-06
6.82351e-06
5.52002e-06
4.45978e-06
3.63842e-06
2.96577e-06
9.10683e-06
9.69987e-06
9.82935e-06
9.84165e-06
9.72655e-06
9.45501e-06
8.88692e-06
8.06685e-06
7.15612e-06
6.29496e-06
5.5512e-06
4.98503e-06
8.94722e-06
9.48239e-06
9.52158e-06
9.5132e-06
9.48248e-06
9.4043e-06
9.24062e-06
9.01191e-06
8.63037e-06
8.26742e-06
7.83717e-06
7.50052e-06
8.86106e-06
8.96882e-06
9.01048e-06
9.01369e-06
9.00682e-06
9.01147e-06
9.00462e-06
8.9784e-06
8.89331e-06
8.76642e-06
8.6305e-06
8.48409e-06
1.18657e-05
1.18941e-05
1.19253e-05
1.1979e-05
1.20262e-05
1.21201e-05
1.21967e-05
1.20413e-05
1.20177e-05
1.19768e-05
1.20882e-05
1.23315e-05
9.85202e-06
9.52564e-06
9.35175e-06
9.34223e-06
9.46297e-06
9.66448e-06
9.85257e-06
9.89314e-06
9.98254e-06
1.00995e-05
1.02003e-05
1.02944e-05
6.95808e-06
6.60631e-06
6.31271e-06
6.33272e-06
6.57679e-06
7.2044e-06
8.01556e-06
8.48957e-06
8.92445e-06
9.28354e-06
9.47523e-06
9.55922e-06
3.62867e-06
3.07494e-06
2.77348e-06
2.74651e-06
2.90471e-06
3.36148e-06
4.18057e-06
5.83038e-06
7.1084e-06
8.22367e-06
8.88711e-06
9.17826e-06
2.03178e-06
1.63755e-06
1.50806e-06
1.4999e-06
1.68499e-06
2.03378e-06
2.62139e-06
3.54924e-06
5.17783e-06
6.91558e-06
8.13506e-06
8.75197e-06
1.31718e-06
1.09251e-06
1.02813e-06
1.03729e-06
1.21928e-06
1.55641e-06
2.11679e-06
2.94366e-06
4.21e-06
5.96239e-06
7.46806e-06
8.4472e-06
1.32629e-06
1.08925e-06
9.34849e-07
9.43535e-07
1.09056e-06
1.42071e-06
1.97781e-06
2.78878e-06
4.03165e-06
5.49315e-06
7.11712e-06
8.25646e-06
1.62101e-06
1.37713e-06
1.24568e-06
1.30823e-06
1.46649e-06
1.77245e-06
2.32044e-06
3.08798e-06
4.2567e-06
5.58721e-06
7.11097e-06
8.35572e-06
2.5052e-06
2.2354e-06
2.15266e-06
2.26393e-06
2.46528e-06
2.80878e-06
3.35354e-06
4.10618e-06
5.16191e-06
6.26038e-06
7.4902e-06
8.39671e-06
4.53337e-06
4.24889e-06
4.14433e-06
4.23324e-06
4.43533e-06
4.72602e-06
5.12656e-06
5.66058e-06
6.36791e-06
7.01224e-06
7.84197e-06
8.56779e-06
7.17081e-06
6.97021e-06
6.79747e-06
6.78865e-06
6.87197e-06
7.03098e-06
7.22838e-06
7.47466e-06
7.77209e-06
8.15233e-06
8.58203e-06
8.72027e-06
8.37499e-06
8.27171e-06
8.23716e-06
8.27156e-06
8.35703e-06
8.4664e-06
8.58558e-06
8.70786e-06
8.82058e-06
8.89695e-06
8.92942e-06
8.84601e-06
3.08445e-05
3.10133e-05
3.16539e-05
3.22983e-05
3.32901e-05
3.34268e-05
3.02441e-05
1.15453e-05
5.62193e-06
5.35886e-06
5.38062e-06
5.39959e-06
2.8016e-05
2.88092e-05
3.06295e-05
3.22712e-05
3.00998e-05
2.17715e-05
1.07704e-05
6.32543e-06
5.1888e-06
5.01371e-06
4.81594e-06
4.54518e-06
2.67814e-05
2.81403e-05
3.01748e-05
2.78611e-05
1.86928e-05
9.88988e-06
6.1433e-06
4.8454e-06
4.34973e-06
3.73434e-06
2.98176e-06
2.46357e-06
2.53205e-05
2.49821e-05
2.47653e-05
1.83685e-05
1.03514e-05
6.06935e-06
4.46417e-06
3.75987e-06
2.993e-06
2.19362e-06
1.64981e-06
1.27553e-06
2.4268e-05
2.08439e-05
1.88782e-05
1.21162e-05
6.58252e-06
4.49261e-06
3.58714e-06
2.91368e-06
2.03088e-06
1.39684e-06
1.00035e-06
7.20817e-07
2.37485e-05
1.9231e-05
1.4936e-05
7.94824e-06
5.01188e-06
3.74153e-06
3.05391e-06
2.24932e-06
1.42768e-06
9.59962e-07
6.54554e-07
4.6397e-07
2.09445e-05
1.55807e-05
1.09807e-05
6.15808e-06
4.23894e-06
3.31189e-06
2.65398e-06
1.9364e-06
1.26659e-06
8.91832e-07
6.33017e-07
4.60255e-07
1.80353e-05
1.26857e-05
8.89943e-06
5.23869e-06
3.82418e-06
3.15127e-06
2.64058e-06
1.98312e-06
1.35134e-06
9.75107e-07
7.18002e-07
5.41317e-07
1.71285e-05
1.1452e-05
7.43704e-06
4.78568e-06
3.77374e-06
3.19016e-06
2.7339e-06
2.20369e-06
1.63088e-06
1.24322e-06
9.7867e-07
7.91176e-07
1.54895e-05
9.67263e-06
6.90582e-06
4.88556e-06
3.93061e-06
3.38002e-06
2.99639e-06
2.60389e-06
2.21443e-06
1.85541e-06
1.59401e-06
1.37858e-06
1.51769e-05
1.00924e-05
7.63944e-06
5.86516e-06
4.84539e-06
4.18717e-06
3.7448e-06
3.41486e-06
3.10272e-06
2.82017e-06
2.58198e-06
2.41749e-06
1.46322e-05
1.32224e-05
1.17568e-05
1.05499e-05
9.49671e-06
8.54887e-06
7.6395e-06
6.92328e-06
6.27781e-06
5.83e-06
5.41077e-06
5.19421e-06
5.42323e-06
5.44062e-06
5.47425e-06
5.49527e-06
5.53849e-06
5.59464e-06
5.66737e-06
5.75152e-06
5.84265e-06
5.90879e-06
5.93911e-06
5.93013e-06
4.29876e-06
4.11222e-06
4.04134e-06
4.05025e-06
4.16518e-06
4.35838e-06
4.65182e-06
4.99918e-06
5.42799e-06
5.82772e-06
6.0359e-06
6.11754e-06
2.0986e-06
1.90292e-06
1.78209e-06
1.79301e-06
1.87795e-06
2.09308e-06
2.45908e-06
3.07592e-06
3.93904e-06
5.06879e-06
5.88473e-06
6.18383e-06
1.03755e-06
9.05113e-07
8.47521e-07
8.53655e-07
9.35894e-07
1.09068e-06
1.37109e-06
1.82897e-06
2.5755e-06
3.80401e-06
5.51255e-06
6.23489e-06
5.72389e-07
4.86515e-07
4.61935e-07
4.68369e-07
5.43963e-07
6.71041e-07
9.0094e-07
1.28907e-06
1.95719e-06
3.07662e-06
4.99917e-06
6.29168e-06
3.66857e-07
3.21531e-07
3.09342e-07
3.21573e-07
3.86239e-07
5.01884e-07
7.03737e-07
1.04659e-06
1.66521e-06
2.7131e-06
4.66194e-06
6.34924e-06
3.6286e-07
3.0901e-07
2.72515e-07
2.87791e-07
3.44153e-07
4.55593e-07
6.48563e-07
9.72306e-07
1.56896e-06
2.5768e-06
4.4968e-06
6.40794e-06
4.37169e-07
3.7964e-07
3.63716e-07
3.89358e-07
4.49136e-07
5.61452e-07
7.62103e-07
1.07176e-06
1.6426e-06
2.58737e-06
4.46533e-06
6.46689e-06
6.80527e-07
6.09273e-07
6.1652e-07
6.62339e-07
7.46938e-07
8.91802e-07
1.12826e-06
1.49893e-06
2.15222e-06
3.13763e-06
4.86207e-06
6.58884e-06
1.26505e-06
1.18108e-06
1.19962e-06
1.27778e-06
1.40212e-06
1.59984e-06
1.89954e-06
2.34288e-06
3.05002e-06
3.99148e-06
5.43198e-06
6.79595e-06
2.29004e-06
2.27373e-06
2.35056e-06
2.51895e-06
2.74385e-06
3.05331e-06
3.46449e-06
4.02525e-06
4.82151e-06
5.69391e-06
6.63892e-06
7.13725e-06
4.9841e-06
5.00873e-06
5.16122e-06
5.41058e-06
5.70611e-06
6.05255e-06
6.43525e-06
6.82549e-06
7.14466e-06
7.32718e-06
7.46966e-06
7.37562e-06
8.62131e-06
8.5991e-06
8.56204e-06
8.47374e-06
8.37796e-06
8.30745e-06
8.44574e-06
1.00246e-05
1.1861e-05
1.20137e-05
1.20424e-05
1.20653e-05
8.99067e-06
8.9586e-06
8.78827e-06
8.52245e-06
8.58737e-06
9.36182e-06
1.08022e-05
1.14374e-05
1.16847e-05
1.14751e-05
1.09935e-05
1.04608e-05
9.15045e-06
9.12284e-06
8.79027e-06
8.95173e-06
9.91201e-06
1.07782e-05
1.10698e-05
1.11432e-05
1.05801e-05
9.02463e-06
7.29711e-06
6.03164e-06
9.29137e-06
9.47516e-06
9.46291e-06
1.00083e-05
1.0569e-05
1.07461e-05
1.07559e-05
9.91931e-06
7.58044e-06
5.49904e-06
4.21508e-06
3.14399e-06
9.36202e-06
9.83238e-06
1.00102e-05
1.03834e-05
1.05216e-05
1.04984e-05
9.74173e-06
7.50594e-06
5.22122e-06
3.6621e-06
2.61265e-06
1.80886e-06
9.39597e-06
9.96758e-06
1.02005e-05
1.03476e-05
1.03685e-05
9.90899e-06
8.30156e-06
5.75473e-06
3.82587e-06
2.5956e-06
1.74068e-06
1.17895e-06
9.37853e-06
9.9653e-06
1.01758e-05
1.02452e-05
1.00435e-05
9.12216e-06
7.11459e-06
4.91311e-06
3.43031e-06
2.43058e-06
1.69917e-06
1.19061e-06
9.37979e-06
9.92978e-06
1.0081e-05
1.00502e-05
9.69909e-06
8.64168e-06
6.9994e-06
5.02609e-06
3.61438e-06
2.64371e-06
1.92642e-06
1.42257e-06
9.3345e-06
9.83902e-06
9.9219e-06
9.8672e-06
9.48141e-06
8.68305e-06
7.27815e-06
5.56828e-06
4.24746e-06
3.30186e-06
2.5899e-06
2.07885e-06
9.29043e-06
9.6824e-06
9.7509e-06
9.69141e-06
9.45702e-06
8.97396e-06
8.12814e-06
6.96291e-06
5.79763e-06
4.84933e-06
4.08604e-06
3.51466e-06
9.18654e-06
9.46249e-06
9.45006e-06
9.40758e-06
9.33016e-06
9.16084e-06
8.91004e-06
8.48853e-06
7.99875e-06
7.43263e-06
6.94001e-06
6.47609e-06
8.88605e-06
8.9618e-06
8.90461e-06
8.8588e-06
8.83632e-06
8.80916e-06
8.74842e-06
8.66454e-06
8.54003e-06
8.38841e-06
8.20572e-06
8.0524e-06
1.20905e-05
1.21188e-05
1.21512e-05
1.21997e-05
1.22696e-05
1.2369e-05
1.25085e-05
1.2668e-05
1.28414e-05
1.29588e-05
1.3017e-05
1.30278e-05
9.85657e-06
9.39614e-06
9.16085e-06
9.14628e-06
9.33011e-06
9.73216e-06
1.03145e-05
1.10448e-05
1.19373e-05
1.27017e-05
1.308e-05
1.32182e-05
4.9558e-06
4.50274e-06
4.10946e-06
4.08745e-06
4.21794e-06
4.67806e-06
5.4516e-06
6.85809e-06
8.79394e-06
1.12821e-05
1.27573e-05
1.32889e-05
2.52321e-06
2.13771e-06
1.94351e-06
1.92808e-06
2.04862e-06
2.38403e-06
2.95079e-06
3.91136e-06
5.51069e-06
8.52746e-06
1.20701e-05
1.33557e-05
1.4111e-06
1.12893e-06
1.03266e-06
1.02397e-06
1.15388e-06
1.42648e-06
1.91021e-06
2.72765e-06
4.03115e-06
6.57535e-06
1.11474e-05
1.34307e-05
8.92991e-07
7.22588e-07
6.67155e-07
6.67043e-07
7.89236e-07
1.03079e-06
1.4607e-06
2.22045e-06
3.36355e-06
5.66869e-06
1.03517e-05
1.35143e-05
9.01234e-07
7.21974e-07
5.9973e-07
5.96478e-07
6.93256e-07
9.20834e-07
1.32497e-06
2.06513e-06
3.14352e-06
5.29281e-06
9.96318e-06
1.36013e-05
1.11144e-06
9.27354e-07
8.13903e-07
8.50253e-07
9.51423e-07
1.16316e-06
1.54382e-06
2.27506e-06
3.20751e-06
5.27695e-06
9.85591e-06
1.36884e-05
1.73316e-06
1.52817e-06
1.43911e-06
1.50894e-06
1.65456e-06
1.9243e-06
2.37704e-06
3.19069e-06
4.15104e-06
6.42599e-06
1.02737e-05
1.37808e-05
3.14297e-06
2.88608e-06
2.83805e-06
2.95296e-06
3.16877e-06
3.50647e-06
4.01491e-06
4.82153e-06
5.52476e-06
7.65405e-06
9.41431e-06
1.26653e-05
6.13427e-06
5.86282e-06
5.73934e-06
5.81114e-06
5.9857e-06
6.18834e-06
6.39866e-06
6.62878e-06
6.75996e-06
7.76988e-06
9.08148e-06
1.21495e-05
7.87975e-06
7.76946e-06
7.64374e-06
7.56548e-06
7.44515e-06
7.3861e-06
7.26956e-06
7.22936e-06
7.0997e-06
7.77693e-06
8.73774e-06
1.14695e-05
1.13917e-05
1.22069e-05
1.46804e-05
1.49756e-05
1.53774e-05
1.53766e-05
1.52411e-05
1.51018e-05
1.49166e-05
1.46735e-05
1.44534e-05
1.42315e-05
9.41347e-06
9.90522e-06
1.14698e-05
1.16299e-05
1.17501e-05
1.19161e-05
1.21072e-05
1.23024e-05
1.2418e-05
1.25223e-05
1.25156e-05
1.24525e-05
6.575e-06
7.97503e-06
8.12884e-06
8.29589e-06
8.4189e-06
8.56256e-06
8.66241e-06
8.78512e-06
8.85063e-06
8.92685e-06
8.92214e-06
8.87248e-06
4.79812e-06
4.9115e-06
5.01141e-06
5.12673e-06
5.22323e-06
5.33525e-06
5.42474e-06
5.5236e-06
5.58728e-06
5.64355e-06
5.62853e-06
5.55898e-06
1.40711e-05
1.39016e-05
1.37383e-05
1.35409e-05
1.33545e-05
1.31305e-05
1.29241e-05
1.26777e-05
1.24667e-05
1.22307e-05
1.20827e-05
1.19643e-05
1.23385e-05
1.21791e-05
1.19749e-05
1.17292e-05
1.14614e-05
1.1171e-05
1.08614e-05
1.05469e-05
1.02499e-05
1.00168e-05
9.85464e-06
1.02083e-05
8.77105e-06
8.61626e-06
8.41193e-06
8.1672e-06
7.89457e-06
7.60654e-06
7.30665e-06
7.03282e-06
6.82423e-06
6.72495e-06
6.62261e-06
6.83921e-06
5.42632e-06
5.24092e-06
5.02985e-06
4.81568e-06
4.6205e-06
4.46862e-06
4.36856e-06
4.30817e-06
4.27878e-06
4.27761e-06
4.25773e-06
4.3634e-06
1.17935e-05
1.14359e-05
1.12668e-05
1.1079e-05
1.09024e-05
1.06935e-05
1.0514e-05
1.03186e-05
1.01688e-05
1.0034e-05
9.92975e-06
9.82991e-06
1.04984e-05
1.05976e-05
1.06118e-05
1.05863e-05
1.05436e-05
1.04858e-05
1.04187e-05
1.03435e-05
1.02687e-05
1.01947e-05
1.01225e-05
1.00471e-05
7.1168e-06
7.37899e-06
7.60345e-06
7.7752e-06
7.92055e-06
8.02898e-06
8.12519e-06
8.18569e-06
8.23374e-06
8.22429e-06
8.18165e-06
8.10893e-06
4.49395e-06
4.63358e-06
4.75328e-06
4.8766e-06
4.96884e-06
5.06412e-06
5.12243e-06
5.18038e-06
5.18999e-06
5.15846e-06
5.07928e-06
4.95561e-06
9.74975e-06
9.68142e-06
9.628e-06
9.5701e-06
9.51982e-06
9.45081e-06
9.39906e-06
9.32065e-06
9.26209e-06
9.17202e-06
9.12004e-06
9.01218e-06
9.96378e-06
9.87258e-06
9.77004e-06
9.65409e-06
9.52345e-06
9.37738e-06
9.21539e-06
9.04236e-06
8.86791e-06
8.71448e-06
8.59774e-06
8.65256e-06
8.01071e-06
7.88439e-06
7.72712e-06
7.53819e-06
7.32133e-06
7.08537e-06
6.82264e-06
6.55231e-06
6.31613e-06
6.18062e-06
6.05006e-06
6.25116e-06
4.79459e-06
4.5956e-06
4.36238e-06
4.11308e-06
3.87524e-06
3.68326e-06
3.56238e-06
3.50295e-06
3.47919e-06
3.48252e-06
3.45603e-06
3.53667e-06
9.14331e-06
9.54496e-06
9.68042e-06
9.73179e-06
9.68123e-06
9.61378e-06
9.46945e-06
9.28904e-06
9.09344e-06
8.88998e-06
8.71436e-06
8.5474e-06
8.6481e-06
8.68545e-06
8.74469e-06
8.77357e-06
8.824e-06
8.86699e-06
8.88913e-06
8.87725e-06
8.84582e-06
8.79944e-06
8.74609e-06
8.68956e-06
6.47268e-06
6.61617e-06
6.73932e-06
6.84014e-06
6.93036e-06
7.01845e-06
7.09543e-06
7.16983e-06
7.22122e-06
7.25869e-06
7.24303e-06
7.1915e-06
3.63135e-06
3.73878e-06
3.83034e-06
3.93502e-06
4.02026e-06
4.12063e-06
4.19793e-06
4.2862e-06
4.3404e-06
4.39209e-06
4.38153e-06
4.32464e-06
8.43925e-06
8.34966e-06
8.28707e-06
8.21647e-06
8.17009e-06
8.09458e-06
8.04455e-06
7.96439e-06
7.91751e-06
7.8303e-06
7.79227e-06
7.66106e-06
8.62398e-06
8.54926e-06
8.46141e-06
8.35923e-06
8.2422e-06
8.11205e-06
7.96953e-06
7.821e-06
7.67532e-06
7.55257e-06
7.48012e-06
7.47782e-06
7.10697e-06
6.98777e-06
6.83528e-06
6.65455e-06
6.45326e-06
6.22895e-06
5.99841e-06
5.77697e-06
5.60773e-06
5.53002e-06
5.43032e-06
5.65036e-06
4.21485e-06
4.06041e-06
3.88145e-06
3.70028e-06
3.53451e-06
3.41464e-06
3.33881e-06
3.29534e-06
3.2735e-06
3.27933e-06
3.26153e-06
3.35776e-06
7.67563e-06
7.72894e-06
7.72345e-06
7.71635e-06
7.71031e-06
7.72238e-06
7.73714e-06
7.77136e-06
7.79327e-06
7.78365e-06
7.75493e-06
7.71423e-06
7.46196e-06
7.44795e-06
7.42912e-06
7.40691e-06
7.3831e-06
7.35977e-06
7.33695e-06
7.31476e-06
7.28979e-06
7.25919e-06
7.22133e-06
7.17504e-06
5.87322e-06
6.02897e-06
6.14651e-06
6.22939e-06
6.28708e-06
6.31918e-06
6.34167e-06
6.33798e-06
6.32163e-06
6.29207e-06
6.24772e-06
6.18709e-06
3.47626e-06
3.59732e-06
3.70063e-06
3.80046e-06
3.88061e-06
3.95915e-06
4.01156e-06
4.05853e-06
4.07063e-06
4.0496e-06
3.99761e-06
3.91997e-06
7.66899e-06
7.61653e-06
7.55775e-06
7.49174e-06
7.41694e-06
7.33739e-06
7.24625e-06
7.15688e-06
7.00943e-06
7.42253e-06
8.38941e-06
9.27387e-06
7.11953e-06
7.05351e-06
6.97648e-06
6.89123e-06
6.79493e-06
6.68614e-06
6.56581e-06
6.43696e-06
6.28206e-06
6.57644e-06
7.47732e-06
8.01653e-06
6.11037e-06
6.01647e-06
5.90456e-06
5.77524e-06
5.62492e-06
5.45269e-06
5.26717e-06
5.08216e-06
4.91891e-06
4.78806e-06
5.05513e-06
6.14328e-06
3.82545e-06
3.72174e-06
3.61421e-06
3.51078e-06
3.42321e-06
3.3714e-06
3.35339e-06
3.36104e-06
3.37451e-06
3.39506e-06
3.37557e-06
3.71488e-06
4.47311e-06
4.43909e-06
4.33313e-06
4.1773e-06
3.9353e-06
3.63121e-06
3.24532e-06
2.82916e-06
2.39554e-06
2.02772e-06
1.76231e-06
1.69375e-06
3.78484e-06
3.59258e-06
3.32914e-06
2.99195e-06
2.59141e-06
2.14996e-06
1.69557e-06
1.29378e-06
9.67574e-07
7.69745e-07
6.87958e-07
7.28723e-07
3.03979e-06
2.78665e-06
2.44068e-06
2.05026e-06
1.63631e-06
1.22609e-06
8.56183e-07
5.74472e-07
3.81743e-07
2.88386e-07
2.76599e-07
3.22241e-07
2.37501e-06
2.1085e-06
1.75147e-06
1.38328e-06
1.01771e-06
6.88751e-07
4.24118e-07
2.46686e-07
1.41895e-07
9.67347e-08
9.00643e-08
1.1381e-07
1.70292e-06
1.80308e-06
2.02691e-06
2.30894e-06
2.60274e-06
2.93359e-06
3.24734e-06
3.47129e-06
3.62037e-06
3.7168e-06
3.74325e-06
3.69459e-06
8.57839e-07
1.10349e-06
1.33593e-06
1.67738e-06
1.96384e-06
2.20673e-06
2.39272e-06
2.53164e-06
2.63435e-06
2.65275e-06
2.48814e-06
2.22088e-06
4.79871e-07
7.57194e-07
9.28005e-07
1.13892e-06
1.32977e-06
1.46687e-06
1.56659e-06
1.63413e-06
1.63786e-06
1.49364e-06
1.28949e-06
1.02359e-06
2.19986e-07
5.08243e-07
6.93058e-07
8.14289e-07
9.03575e-07
9.65738e-07
1.00361e-06
9.92269e-07
8.85111e-07
7.44119e-07
5.6629e-07
3.94344e-07
3.45141e-06
3.22102e-06
2.91968e-06
2.62407e-06
2.29678e-06
1.9781e-06
1.64726e-06
1.34419e-06
1.06617e-06
8.80121e-07
7.74378e-07
6.8267e-07
1.81237e-06
1.53633e-06
1.1805e-06
9.46778e-07
6.78305e-07
5.09123e-07
3.30684e-07
2.35104e-07
1.537e-07
1.35123e-07
9.9682e-08
9.31622e-08
7.37121e-07
5.57691e-07
3.52603e-07
2.61753e-07
1.38068e-07
1.02797e-07
4.62146e-08
3.84424e-08
2.01505e-08
1.95343e-08
1.22224e-08
1.2653e-08
2.45665e-07
1.63839e-07
8.05951e-08
5.87662e-08
2.30795e-08
1.67408e-08
6.97317e-09
5.92281e-09
2.75836e-09
2.63191e-09
1.50268e-09
1.68516e-09
6.22456e-07
5.88958e-07
6.05318e-07
7.4618e-07
1.03994e-06
1.56605e-06
2.23569e-06
2.71587e-06
3.00973e-06
3.18772e-06
3.28924e-06
3.34833e-06
8.24335e-08
8.36701e-08
1.07071e-07
1.78299e-07
3.51699e-07
7.43097e-07
1.46685e-06
2.11706e-06
2.5151e-06
2.75443e-06
2.87461e-06
2.92736e-06
1.15649e-08
1.27884e-08
2.03767e-08
4.4159e-08
1.12394e-07
2.95991e-07
7.21075e-07
1.44234e-06
1.92609e-06
2.20188e-06
2.33717e-06
2.38123e-06
1.79294e-09
2.08636e-09
4.20366e-09
1.16732e-08
3.69164e-08
1.17438e-07
3.44335e-07
8.53372e-07
1.39751e-06
1.68381e-06
1.82115e-06
1.85796e-06
3.37885e-06
3.36904e-06
3.27365e-06
3.1592e-06
2.95558e-06
2.71109e-06
2.39309e-06
2.05359e-06
1.69759e-06
1.3958e-06
1.17658e-06
1.11654e-06
2.83077e-06
2.66418e-06
2.45416e-06
2.18451e-06
1.85685e-06
1.50492e-06
1.14263e-06
8.23206e-07
5.67288e-07
4.08071e-07
3.39052e-07
3.60668e-07
2.20464e-06
1.99533e-06
1.73683e-06
1.43554e-06
1.11256e-06
7.98449e-07
5.2116e-07
3.13836e-07
1.79647e-07
1.12961e-07
9.99751e-08
1.14692e-07
1.65708e-06
1.45491e-06
1.19983e-06
9.29359e-07
6.61941e-07
4.23604e-07
2.38139e-07
1.18205e-07
5.52675e-08
3.05624e-08
2.60311e-08
3.17863e-08
1.12496e-06
1.20678e-06
1.3884e-06
1.6152e-06
1.87569e-06
2.18083e-06
2.45949e-06
2.65547e-06
2.78513e-06
2.86713e-06
2.90086e-06
2.89948e-06
4.41928e-07
6.40587e-07
8.65404e-07
1.09916e-06
1.3577e-06
1.59914e-06
1.7786e-06
1.91501e-06
2.01251e-06
2.05459e-06
1.98033e-06
1.7736e-06
1.78525e-07
3.56561e-07
5.64546e-07
7.38368e-07
9.04573e-07
1.03186e-06
1.1285e-06
1.19975e-06
1.22899e-06
1.1673e-06
1.01127e-06
8.23801e-07
6.4416e-08
1.84113e-07
3.65475e-07
5.02827e-07
5.9151e-07
6.5218e-07
6.94088e-07
7.07868e-07
6.63035e-07
5.66857e-07
4.39666e-07
3.16413e-07
2.74142e-06
2.58553e-06
2.37612e-06
2.1787e-06
1.94738e-06
1.73898e-06
1.50758e-06
1.31841e-06
1.137e-06
1.04951e-06
1.02414e-06
1.04777e-06
1.47204e-06
1.27285e-06
1.00997e-06
8.37287e-07
6.33985e-07
5.08278e-07
3.66304e-07
2.97143e-07
2.3219e-07
2.32538e-07
2.31832e-07
2.81676e-07
6.06356e-07
4.72772e-07
3.15172e-07
2.41263e-07
1.43216e-07
1.12171e-07
6.12349e-08
5.66236e-08
3.9556e-08
4.13476e-08
4.39562e-08
6.29879e-08
2.01665e-07
1.39582e-07
7.42885e-08
5.517e-08
2.44198e-08
1.92767e-08
9.86877e-09
9.44214e-09
5.89592e-09
6.25144e-09
6.87148e-09
1.15977e-08
1.1505e-06
1.3633e-06
1.65259e-06
2.03584e-06
2.4118e-06
2.78884e-06
3.15257e-06
3.45934e-06
3.66304e-06
3.83268e-06
3.99366e-06
4.2635e-06
3.67976e-07
5.25127e-07
8.47358e-07
1.36021e-06
1.86497e-06
2.24281e-06
2.5685e-06
3.02225e-06
3.44092e-06
3.6855e-06
3.83766e-06
3.92681e-06
9.96027e-08
1.63191e-07
3.14799e-07
6.52004e-07
1.32614e-06
1.92055e-06
2.22643e-06
2.47983e-06
2.88559e-06
3.16264e-06
3.30056e-06
3.30595e-06
2.55724e-08
4.84091e-08
1.1548e-07
3.00783e-07
7.60023e-07
1.56763e-06
2.01279e-06
2.21401e-06
2.37931e-06
2.58282e-06
2.69402e-06
2.67767e-06
1.833e-06
1.56806e-06
1.23669e-06
9.20645e-07
6.27394e-07
3.84761e-07
2.08951e-07
1.02958e-07
5.03006e-08
2.8409e-08
2.05804e-08
1.96804e-08
1.50074e-06
1.22834e-06
9.14629e-07
6.30038e-07
3.92114e-07
2.19204e-07
1.06829e-07
4.50466e-08
1.84408e-08
7.9461e-09
4.14148e-09
2.88721e-09
1.39187e-06
1.10431e-06
7.88962e-07
5.00343e-07
2.76698e-07
1.40483e-07
6.28706e-08
2.41918e-08
8.36277e-09
2.64437e-09
9.06076e-10
4.481e-10
1.39435e-06
1.09691e-06
7.74584e-07
4.70176e-07
2.37102e-07
1.09982e-07
4.59739e-08
1.64857e-08
4.93192e-09
1.20758e-09
2.76753e-10
8.59258e-11
1.39563e-06
1.09412e-06
7.69976e-07
4.56254e-07
2.16634e-07
9.33881e-08
3.61638e-08
1.18162e-08
3.04297e-09
6.39198e-10
1.12215e-10
2.26257e-11
1.32708e-06
1.02938e-06
7.16967e-07
4.07027e-07
1.77375e-07
7.17925e-08
2.56635e-08
7.47683e-09
1.70098e-09
3.13125e-10
4.70561e-11
7.38692e-12
1.07201e-06
7.99942e-07
5.42793e-07
2.85006e-07
1.19466e-07
4.61749e-08
1.52806e-08
3.96089e-09
8.07564e-10
1.32229e-10
1.79617e-11
2.48237e-12
6.79588e-07
4.83767e-07
3.24682e-07
1.59926e-07
6.6134e-08
2.45375e-08
7.52327e-09
1.76902e-09
3.2598e-10
4.86319e-11
6.08004e-12
7.73958e-13
3.5454e-07
2.40197e-07
1.61807e-07
7.39637e-08
3.03296e-08
1.08348e-08
3.08699e-09
6.72137e-10
1.14171e-10
1.5764e-11
1.82724e-12
2.15724e-13
1.52333e-07
9.78308e-08
6.71836e-08
2.8379e-08
1.15915e-08
4.00715e-09
1.07587e-09
2.20893e-10
3.53636e-11
4.57019e-12
4.90644e-13
5.31746e-14
5.42595e-08
3.28734e-08
2.3349e-08
9.15613e-09
3.74142e-09
1.26353e-09
3.26344e-10
6.4504e-11
9.95208e-12
1.21152e-12
1.19151e-13
1.18218e-14
1.8942e-08
1.08114e-08
7.98918e-09
2.98626e-09
1.21678e-09
4.08e-10
1.04748e-10
2.05674e-11
3.14034e-12
3.59035e-13
3.07815e-14
2.81066e-15
9.4764e-08
3.26417e-07
5.19259e-07
5.97681e-07
6.36349e-07
6.54202e-07
6.3534e-07
5.68097e-07
4.54836e-07
3.42457e-07
2.27974e-07
1.33425e-07
4.6014e-08
1.94647e-07
3.85742e-07
4.57648e-07
4.79481e-07
4.62987e-07
3.99261e-07
3.30371e-07
2.38924e-07
1.52206e-07
9.05057e-08
4.61021e-08
2.2124e-08
1.05912e-07
2.67089e-07
3.48416e-07
3.715e-07
3.51825e-07
2.7313e-07
2.01377e-07
1.38671e-07
7.75195e-08
3.92334e-08
1.88223e-08
1.01945e-08
5.37134e-08
1.61126e-07
2.47155e-07
2.76869e-07
2.73229e-07
2.13199e-07
1.41755e-07
9.11098e-08
5.05968e-08
2.41117e-08
1.09978e-08
4.34604e-09
2.44173e-08
8.27086e-08
1.54134e-07
1.86802e-07
1.9522e-07
1.66333e-07
1.12897e-07
6.92171e-08
3.87063e-08
1.91892e-08
8.81702e-09
1.67652e-09
9.68558e-09
3.58205e-08
8.04544e-08
1.08549e-07
1.20503e-07
1.1161e-07
8.27827e-08
5.23722e-08
2.96023e-08
1.50508e-08
6.99926e-09
5.75836e-10
3.29904e-09
1.31541e-08
3.42718e-08
5.26172e-08
6.21157e-08
6.03636e-08
4.88464e-08
3.33751e-08
1.92948e-08
9.94626e-09
4.63987e-09
1.74621e-10
9.59414e-10
4.03264e-09
1.19264e-08
2.08495e-08
2.62889e-08
2.63267e-08
2.21413e-08
1.65937e-08
1.00025e-08
5.23363e-09
2.44773e-09
4.72724e-11
2.35375e-10
1.02291e-09
3.34403e-09
6.67898e-09
9.04569e-09
9.29523e-09
7.95035e-09
6.18704e-09
4.12347e-09
2.17961e-09
1.03053e-09
1.11838e-11
4.80733e-11
2.12485e-10
7.45302e-10
1.70803e-09
2.50648e-09
2.65547e-09
2.31108e-09
1.80319e-09
1.28905e-09
7.48477e-10
3.61078e-10
2.23705e-12
8.06213e-12
3.55277e-11
1.29701e-10
3.4285e-10
5.52769e-10
6.13642e-10
5.4773e-10
4.32726e-10
3.1688e-10
2.10852e-10
1.08228e-10
3.96865e-13
1.17903e-12
5.06911e-12
1.84395e-11
5.78809e-11
1.06797e-10
1.30529e-10
1.22728e-10
1.01743e-10
7.84648e-11
5.67012e-11
3.3484e-11
7.04427e-08
4.18374e-08
1.69967e-08
1.11574e-08
3.9797e-09
2.88351e-09
1.12755e-09
9.04019e-10
3.81733e-10
3.412e-10
1.7649e-10
1.912e-10
1.97469e-08
1.05297e-08
3.91725e-09
2.35689e-09
8.47467e-10
5.5197e-10
2.07456e-10
1.45062e-10
5.59286e-11
4.38885e-11
2.04109e-11
1.89067e-11
7.65271e-09
3.48704e-09
1.38927e-09
7.27044e-10
2.71908e-10
1.42217e-10
5.22977e-11
2.79435e-11
9.71572e-12
5.93155e-12
2.47007e-12
1.78446e-12
4.67113e-09
2.00333e-09
7.93134e-10
3.53684e-10
1.35225e-10
5.74939e-11
2.05858e-11
8.02517e-12
2.42156e-12
9.66785e-13
3.36995e-13
1.68159e-13
3.75415e-09
1.53112e-09
5.84886e-10
2.24338e-10
8.29786e-11
3.06402e-11
1.05715e-11
3.45832e-12
9.30117e-13
2.38297e-13
5.96773e-14
1.68686e-14
2.96859e-09
1.16695e-09
4.26632e-10
1.49652e-10
5.12334e-11
1.74657e-11
5.78426e-12
1.76079e-12
4.50677e-13
9.25172e-14
1.65839e-14
2.17434e-15
1.96064e-09
7.57593e-10
2.69819e-10
9.03035e-11
2.91302e-11
9.32466e-12
2.96276e-12
8.88695e-13
2.28974e-13
4.4395e-14
6.87599e-15
5.33794e-16
1.03445e-09
3.98856e-10
1.41332e-10
4.66233e-11
1.46374e-11
4.51555e-12
1.39303e-12
4.15292e-13
1.09655e-13
2.19499e-14
3.36643e-15
2.35346e-16
4.4155e-10
1.72715e-10
6.19825e-11
2.05942e-11
6.45035e-12
1.96343e-12
5.96669e-13
1.78012e-13
4.85285e-14
1.01747e-14
1.66132e-15
1.34322e-16
1.58401e-10
6.34727e-11
2.32913e-11
7.87602e-12
2.49105e-12
7.58161e-13
2.29601e-13
6.90462e-14
1.95953e-14
4.37095e-15
7.66484e-16
6.9258e-17
4.91269e-11
2.02721e-11
7.63051e-12
2.63617e-12
8.47772e-13
2.60787e-13
7.97215e-14
2.44256e-14
7.2831e-15
1.7741e-15
3.4494e-16
3.95545e-17
1.59923e-11
6.82302e-12
2.62861e-12
9.25889e-13
3.03757e-13
9.56025e-14
3.00683e-14
9.65035e-15
3.08807e-15
8.79012e-16
2.02716e-16
3.25509e-17
3.46754e-10
3.78426e-10
9.81972e-10
3.4444e-09
1.30155e-08
4.75927e-08
1.57691e-07
4.42646e-07
9.36899e-07
1.22944e-06
1.36844e-06
1.40963e-06
8.86803e-11
8.04071e-11
2.65113e-10
1.14641e-09
5.00866e-09
2.03429e-08
7.32919e-08
2.2423e-07
5.42806e-07
8.33397e-07
9.73694e-07
1.02556e-06
2.72318e-11
2.00652e-11
8.09697e-11
4.18274e-10
2.06843e-09
9.18279e-09
3.52134e-08
1.1291e-07
2.90665e-07
5.15621e-07
6.39095e-07
6.94123e-07
9.56667e-12
5.63118e-12
2.65498e-11
1.59658e-10
8.84639e-10
4.28952e-09
1.75862e-08
5.85025e-08
1.53849e-07
2.97886e-07
3.86887e-07
4.32858e-07
3.54458e-12
1.68902e-12
8.85676e-12
6.10466e-11
3.77272e-10
2.00933e-09
8.9142e-09
3.12585e-08
8.40516e-08
1.68285e-07
2.23942e-07
2.55447e-07
1.2856e-12
5.25601e-13
2.88968e-12
2.26805e-11
1.55698e-10
9.0136e-10
4.30861e-09
1.62613e-08
4.61712e-08
9.5259e-08
1.28309e-07
1.47929e-07
4.33267e-13
1.62698e-13
8.97916e-13
8.04576e-12
6.15363e-11
3.87339e-10
1.97383e-09
7.95968e-09
2.41824e-08
5.25706e-08
7.21405e-08
8.39904e-08
1.3119e-13
4.82733e-14
2.60183e-13
2.68963e-12
2.3104e-11
1.58526e-10
8.59595e-10
3.63478e-09
1.16472e-08
2.68897e-08