/*--------------------------------*- C++ -*----------------------------------*\
| =========                 |                                                 |
| \\      /  F ield         | OpenFOAM: The Open Source CFD Toolbox           |
|  \\    /   O peration     | Version:  2212                                  |
|   \\  /    A nd           | Website:  www.openfoam.com                      |
|    \\/     M anipulation  |                                                 |
\*---------------------------------------------------------------------------*/
FoamFile
{
    version     2.0;
    format      ascii;
    arch        "LSB;label=32;scalar=64";
    class       volVectorField;
    location    "0.02";
    object      U;
}
// * * * * * * * * * * * * * * * * * * * * * * * * * * * * * * * * * * * * * //

dimensions      [0 1 -1 0 0 0 0];

internalField   nonuniform List<vector> 
3072
(
(0.0691811 21.6826 0)
(0.878244 18.5445 0)
(2.6372 17.0285 4.36356e-19)
(4.0346 16.0964 -7.46558e-15)
(5.50893 15.4098 1.193e-14)
(6.18957 15.7617 -5.59289e-15)
(8.6495 18.1776 -2.68387e-15)
(17.9727 16.0729 -1.38377e-14)
(29.2348 17.8403 2.22306e-14)
(32.3581 23.0637 -8.33698e-15)
(35.5637 24.9587 5.2219e-15)
(39.0173 25.9023 2.61569e-15)
(-5.91147 25.7317 -3.26265e-16)
(-3.17738 22.1675 -2.50322e-15)
(0.830698 22.6891 1.28264e-15)
(3.89784 22.8341 0)
(8.01545 24.7937 5.22464e-15)
(16.0647 25.5868 -7.65927e-15)
(24.5982 28.6886 0)
(29.9457 29.4026 0)
(31.9486 29.7483 0)
(32.4476 30.4658 7.89965e-18)
(33.3931 30.5105 -1.10065e-14)
(34.5512 30.8574 5.38337e-18)
(-5.58395 29.3638 3.01889e-16)
(-1.27107 26.4809 0)
(5.06755 28.0566 0)
(11.7745 28.4717 -6.82253e-15)
(19.9938 30.7119 4.56016e-15)
(26.3976 31.4867 -6.63614e-15)
(30.5329 31.8195 8.33503e-15)
(32.7145 30.8434 0)
(33.7308 29.8751 0)
(34.0044 29.2469 -2.9037e-15)
(34.6699 28.524 -2.7677e-15)
(35.3728 27.8728 8.18312e-15)
(-4.77779 32.8797 -1.10382e-15)
(1.23337 32.0194 -2.05835e-15)
(9.18279 34.0281 2.03129e-15)
(16.805 34.3263 -2.03631e-15)
(23.5242 34.7059 7.90863e-15)
(27.8039 33.7937 -7.42601e-15)
(30.341 32.7159 -3.29019e-15)
(31.9177 31.1817 -8.70906e-15)
(32.5905 29.9634 -1.96607e-18)
(32.9334 28.9665 5.09627e-15)
(33.3991 28.0076 4.83762e-15)
(33.8002 27.0994 -4.72817e-15)
(-0.678833 34.8985 0)
(4.69592 35.7587 9.26508e-16)
(12.2167 37.112 -1.81144e-15)
(19.1354 36.8642 3.57028e-15)
(24.4361 36.0289 3.87917e-18)
(27.4746 34.4541 3.0975e-15)
(29.4121 32.8192 2.8141e-15)
(30.3735 31.1326 2.69523e-15)
(30.9131 29.6472 -5.01251e-15)
(31.2992 28.3792 4.69234e-15)
(31.7314 27.2225 -6.65649e-15)
(32.1709 26.1553 8.48108e-15)
(1.59305 37.0095 -9.3267e-16)
(7.15189 38.2357 8.41267e-16)
(13.9248 38.9007 3.23532e-15)
(19.7918 38.1332 0)
(23.9832 36.601 -5.95525e-15)
(26.4219 34.6723 5.45678e-15)
(27.8773 32.7584 0)
(28.7486 30.8952 -4.81209e-15)
(29.3133 29.2453 4.51107e-15)
(29.7532 27.8021 0)
(30.1911 26.5034 2.35796e-18)
(30.6342 25.3239 3.90442e-15)
(4.39712 38.8202 0)
(9.12974 40.5697 -1.54973e-15)
(14.8711 40.3943 1.4736e-15)
(19.6222 39.2282 0)
(22.9386 37.1993 -2.66176e-15)
(24.9417 34.9755 4.02568e-18)
(26.2302 32.7997 4.67152e-15)
(27.0784 30.7706 4.39737e-15)
(27.6926 28.9533 -4.15986e-15)
(28.1956 27.3425 3.96439e-15)
(28.6677 25.8993 -3.79772e-15)
(29.1294 24.5981 -1.09916e-14)
(5.93475 41.1652 0)
(10.2539 42.9434 1.42832e-15)
(15.016 42.0054 -2.67951e-15)
(18.8158 40.4417 2.54696e-15)
(21.5206 37.9864 0)
(23.3052 35.4589 -4.51547e-15)
(24.5369 33.0243 4.27387e-15)
(25.4222 30.7853 8.47026e-19)
(26.1017 28.7743 -7.75455e-15)
(26.6637 26.9836 -3.72343e-15)
(27.1676 25.3837 -2.24434e-18)
(27.6399 23.949 6.97644e-15)
(7.96953 42.7125 0)
(11.072 45.2367 -1.3222e-15)
(14.6156 43.5022 -2.44139e-15)
(17.5563 41.6042 -2.29061e-15)
(19.8196 38.8145 4.33386e-15)
(21.5076 36.0027 0)
(22.7676 33.3119 0)
(23.7273 30.8457 0)
(24.4803 28.6282 0)
(25.0948 26.6503 3.53727e-15)
(25.6211 24.8868 -3.44266e-15)
(26.0909 23.3119 3.36018e-15)
(8.24045 45.9038 0)
(10.9282 47.5228 1.16891e-15)
(13.4029 44.7009 -3.32454e-18)
(15.7952 42.2305 2.0827e-15)
(17.7901 39.1351 1.99097e-15)
(19.448 36.0973 -3.81597e-15)
(20.7746 33.2274 0)
(21.8265 30.5998 -1.67326e-18)
(22.661 28.2326 -1.04644e-14)
(23.3299 26.1153 0)
(23.8791 24.2264 6.66684e-15)
(24.3449 22.5415 -3.26657e-15)
(10.9286 46.7496 0)
(10.0538 47.3264 1.07841e-15)
(11.2669 43.7532 4.02768e-15)
(13.2875 40.8462 -3.86614e-15)
(15.1761 37.7589 -5.58982e-15)
(16.8848 34.7923 9.01256e-15)
(18.3286 32.0131 -1.4957e-18)
(19.5056 29.4539 -3.43006e-15)
(20.4448 27.1251 3.35217e-15)
(21.1887 25.02 -6.58627e-15)
(21.7795 23.1263 -9.69914e-15)
(22.258 21.4263 9.54499e-15)
(4.72648 43.3009 -5.64358e-16)
(6.77188 42.0103 -4.08614e-15)
(7.92194 38.2949 9.41775e-16)
(9.92832 35.7889 0)
(11.9503 33.4637 0)
(13.8115 31.2013 2.80972e-18)
(15.4064 29.0044 1.00193e-14)
(16.7211 26.8946 6.5485e-15)
(17.7729 24.9023 0)
(18.6026 23.0466 6.34241e-15)
(19.2499 21.3363 0)
(19.7586 19.7708 3.73289e-18)
(41.6987 25.6992 -1.83639e-14)
(43.9272 24.9118 7.92385e-15)
(45.2956 23.5213 -8.00751e-15)
(46.0046 21.8927 -2.68286e-15)
(45.9066 19.999 -2.65391e-15)
(45.167 17.9621 0)
(43.5294 15.8798 0)
(41.1005 13.8097 5.26357e-15)
(37.7663 11.8592 -5.31193e-15)
(33.4466 9.7472 0)
(27.8331 6.40832 0)
(25.2992 -0.0787226 -3.64362e-16)
(35.7279 30.5351 6.80392e-15)
(37.0146 29.8874 0)
(38.2119 28.8126 -9.71506e-18)
(39.3117 27.3571 3.31199e-15)
(40.1182 25.6412 1.66458e-15)
(40.4453 23.8805 6.79273e-15)
(40.2073 22.18 -1.05186e-14)
(39.3768 20.6848 1.84252e-15)
(37.9878 19.5343 0)
(35.3044 18.6188 0)
(31.882 17.5063 0)
(31.8596 14.3215 -3.9636e-23)
(36.0795 27.1122 2.6538e-15)
(36.8408 26.2449 -7.77146e-15)
(37.5541 25.2699 2.56684e-15)
(38.1276 24.2421 5.14732e-15)
(38.4578 23.2221 -5.21228e-15)
(38.4856 22.2872 0)
(38.1708 21.5251 0)
(37.5107 21.033 -1.57159e-18)
(36.5419 20.9479 1.57799e-15)
(34.8676 21.1611 0)
(32.2768 21.228 0)
(33.5534 21.0864 0)
(34.286 26.2296 3.11146e-18)
(34.8335 25.3479 6.66882e-15)
(35.3653 24.4489 4.3748e-15)
(35.8187 23.5657 -4.35233e-15)
(36.1344 22.7599 0)
(36.275 22.1063 2.21677e-15)
(36.2153 21.6961 0)
(35.9569 21.5732 3.69344e-15)
(35.5697 21.8592 -1.30817e-15)
(34.7729 22.7003 0)
(32.7234 23.9582 -7.6415e-16)
(35.7218 25.8951 -1.01519e-15)
(32.6578 25.1589 -4.08477e-15)
(33.1622 24.211 0)
(33.6472 23.3195 0)
(34.0808 22.5129 0)
(34.4372 21.8374 0)
(34.7032 21.3603 -3.75976e-15)
(34.86 21.1679 -1.29507e-18)
(34.9493 21.2899 -2.12056e-15)
(34.9547 21.8859 0)
(34.8549 23.0685 -1.15979e-15)
(33.5194 24.9751 7.21022e-16)
(37.4988 28.0776 9.36541e-16)
(31.1022 24.2428 -2.18367e-18)
(31.5811 23.2487 -7.3602e-15)
(32.0537 22.3502 3.61294e-15)
(32.5065 21.5712 6.18729e-20)
(32.9316 20.9507 2.10593e-18)
(33.3327 20.5408 5.36663e-15)
(33.7286 20.4033 -1.352e-18)
(34.1417 20.6057 -5.66109e-15)
(34.5907 21.2673 -2.01974e-15)
(35.1276 22.566 1.13601e-15)
(34.6727 24.9465 -1.36152e-15)
(39.2568 29.1306 -4.34014e-16)
(29.5964 23.4203 1.0672e-14)
(30.0679 22.3571 3.47536e-15)
(30.5421 21.4139 0)
(31.0211 20.6089 0)
(31.5142 19.9725 1.99876e-18)
(32.0409 19.5466 -3.3404e-15)
(32.634 19.3823 5.04673e-15)
(33.3341 19.541 -1.16279e-18)
(34.1775 20.1314 1.81052e-15)
(35.2709 21.3468 0)
(35.6524 23.675 -2.07344e-18)
(40.5696 28.6111 4.0425e-16)
(28.0994 22.6605 -3.40164e-15)
(28.556 21.5081 -3.3309e-15)
(29.0208 20.4923 3.28041e-15)
(29.5092 19.6244 -3.23694e-15)
(30.0452 18.9251 -6.44702e-20)
(30.6639 18.4242 6.36616e-15)
(31.4153 18.1594 -3.17324e-15)
(32.365 18.1821 1.60258e-15)
(33.5762 18.583 0)
(35.2254 19.5666 9.08946e-16)
(36.4995 21.6931 5.49718e-16)
(41.5833 26.9358 -1.50986e-15)
(26.529 21.9051 3.29096e-15)
(26.9551 20.6525 -3.2333e-15)
(27.3908 19.5487 -3.18399e-15)
(27.8632 18.5963 -6.2918e-15)
(28.408 17.8051 6.21943e-15)
(29.074 17.1906 -6.15286e-15)
(29.9286 16.7723 0)
(31.063 16.582 -1.51865e-15)
(32.575 16.6775 0)
(34.7107 17.2395 0)
(36.8967 18.8637 0)
(42.0308 23.7125 1.40415e-15)
(24.758 21.0397 3.2092e-15)
(25.1462 19.7039 -6.32063e-15)
(25.5405 18.5226 6.234e-15)
(25.976 17.4895 6.1554e-15)
(26.4988 16.603 3.04113e-15)
(27.1668 15.8635 0)
(28.0621 15.2667 0)
(29.2965 14.8175 2.93115e-15)
(31.0078 14.5243 0)
(33.5291 14.5177 -7.69557e-16)
(36.4341 15.2552 4.57022e-16)
(41.7692 18.9269 -1.97372e-15)
(22.6593 19.9046 -6.2678e-15)
(23.0174 18.5445 6.17706e-15)
(23.3703 17.3314 -6.10034e-15)
(23.7591 16.2531 -1.50787e-14)
(24.2378 15.2981 -1.74217e-18)
(24.8685 14.4519 1.08348e-18)
(25.7439 13.6877 -2.90909e-15)
(26.9768 12.975 -2.8602e-15)
(28.7438 12.2497 0)
(31.4557 11.5849 2.17065e-15)
(34.6902 10.9766 4.20048e-16)
(40.3233 12.1105 -3.21073e-19)
(20.1654 18.3493 -3.60322e-18)
(20.5073 17.0612 0)
(20.8269 15.894 0)
(21.1698 14.8345 2.94956e-15)
(21.5937 13.867 8.7628e-15)
(22.1573 12.9653 -2.89119e-15)
(22.9631 12.0796 -1.57723e-18)
(24.0998 11.1507 -1.40733e-15)
(25.7706 10.0288 -1.38039e-15)
(28.2788 8.67594 -1.37972e-15)
(32.0238 6.38603 0)
(37.2694 -1.46635 5.42545e-16)
(21.7124 -0.296812 -3.74783e-16)
(18.6309 -0.883386 0)
(17.0558 -2.61419 -4.30178e-19)
(16.0539 -4.08077 0)
(15.3968 -5.46536 5.98806e-15)
(15.3132 -6.47664 -5.62731e-15)
(17.0717 -7.66866 0)
(17.2867 -13.5325 -1.09883e-14)
(15.2113 -26.1767 1.95992e-14)
(20.5726 -32.0974 -1.39758e-14)
(22.8984 -34.2585 -2.78646e-15)
(24.6921 -37.874 -2.6285e-15)
(25.6545 5.79811 -1.63118e-15)
(22.0862 3.31388 -1.25275e-15)
(22.4989 -0.706603 3.84615e-15)
(22.0891 -3.74148 0)
(23.9732 -7.02219 -5.21126e-15)
(24.7201 -13.2703 5.16881e-15)
(26.82 -22.2718 0)
(28.7216 -28.7713 4.45877e-15)
(28.5225 -31.6042 -1.27679e-14)
(29.3946 -32.478 7.97524e-15)
(29.5683 -32.8351 7.88622e-15)
(29.641 -34.261 -1.09125e-14)
(29.2133 5.58681 3.01622e-16)
(26.2209 1.75904 0)
(27.5336 -4.09391 -2.25712e-15)
(27.636 -10.1003 0)
(29.3919 -17.6791 0)
(30.6419 -24.9081 -4.51152e-15)
(30.9397 -29.618 1.72132e-14)
(30.4902 -32.2884 -1.0677e-14)
(29.2273 -33.6059 3.34656e-15)
(28.4861 -33.9755 0)
(27.7742 -34.4165 5.77459e-15)
(27.0547 -35.1157 -2.79609e-15)
(32.7926 5.2872 -1.10648e-15)
(31.6636 -0.241825 1.03327e-15)
(33.5352 -7.76649 2.03748e-15)
(33.7894 -15.2128 4.10281e-15)
(34.2471 -22.2255 -4.04234e-15)
(33.5481 -27.1134 -3.84812e-15)
(32.4229 -29.9521 0)
(30.9386 -31.6673 0)
(29.542 -32.516 2.83381e-15)
(28.4533 -32.8666 0)
(27.4715 -33.246 4.01464e-18)
(26.5199 -33.6698 2.43076e-15)
(34.8617 1.31614 1.51941e-15)
(35.5985 -3.651 -9.3343e-16)
(37.0427 -10.9492 -1.83649e-15)
(36.8893 -17.9137 0)
(36.1331 -23.6227 0)
(34.5655 -27.025 3.21938e-15)
(32.809 -29.1299 0)
(31.065 -30.2359 -5.59241e-15)
(29.4437 -30.8363 -2.61939e-15)
(28.0688 -31.2194 4.90467e-15)
(26.8495 -31.6146 -6.95667e-15)
(25.7245 -32.0385 4.4288e-15)
(37.1121 -0.800711 -6.10569e-19)
(38.258 -6.15341 -8.48696e-16)
(39.1199 -12.8383 1.64247e-15)
(38.4729 -18.8167 1.7319e-18)
(36.9632 -23.3215 3.06702e-15)
(34.965 -26.0137 -5.63171e-15)
(32.9406 -27.6154 5.34907e-15)
(30.9716 -28.5916 4.60636e-18)
(29.1947 -29.2165 0)
(27.6447 -29.6738 0)
(26.2693 -30.1066 8.46581e-15)
(25.0245 -30.5475 4.53857e-19)
(38.9757 -3.77192 -8.70141e-16)
(40.7448 -8.29739 -7.81534e-16)
(40.7718 -13.9854 0)
(39.7249 -18.814 -2.86913e-15)
(37.7023 -22.3498 2.72256e-15)
(35.4067 -24.5432 7.67036e-15)
(33.1264 -25.9675 4.81287e-15)
(30.9868 -26.915 6.39458e-18)
(29.0534 -27.5937 -8.61459e-15)
(27.3382 -28.1333 4.10723e-15)
(25.8093 -28.6259 3.94828e-15)
(24.4342 -29.1063 2.33309e-18)
(41.3336 -5.42333 -5.21796e-19)
(43.1875 -9.58188 1.43653e-15)
(42.4474 -14.2921 0)
(41.0139 -18.1295 -2.57595e-15)
(38.5894 -20.9879 -2.43286e-15)
(36.0164 -22.929 4.26272e-18)
(33.4958 -24.2877 -8.74781e-15)
(31.1539 -25.273 3.22531e-18)
(29.0332 -26.0277 -2.2323e-18)
(27.1378 -26.644 3.85065e-15)
(25.4443 -27.1897 -3.71871e-15)
(23.9254 -27.7005 1.99135e-18)
(42.8617 -7.65132 -3.80069e-16)
(45.5002 -10.5658 6.61546e-16)
(43.9571 -14.0451 -3.68183e-15)
(42.2098 -16.9992 2.311e-15)
(39.4864 -19.3615 0)
(36.6655 -21.172 0)
(33.9148 -22.5465 4.02637e-15)
(31.3619 -23.6074 7.76545e-15)
(29.044 -24.4462 -3.75867e-15)
(26.9631 -25.1315 -3.65087e-15)
(25.1004 -25.7191 -3.55874e-15)
(23.4316 -26.2463 0)
(46.0526 -8.06582 -7.08448e-16)
(47.7422 -10.5782 1.76014e-15)
(45.1344 -12.9738 4.41455e-15)
(42.832 -15.3562 0)
(39.8324 -17.4083 4.03977e-15)
(36.8188 -19.1548 0)
(33.9209 -20.5841 2.49276e-18)
(31.2323 -21.7401 -3.67319e-15)
(28.7825 -22.6713 3.59329e-15)
(26.5713 -23.4276 0)
(24.5836 -24.0574 0)
(22.7991 -24.5991 -6.76366e-15)
(46.7899 -10.8636 1.88176e-23)
(47.574 -9.83909 1.08908e-15)
(44.1777 -11.0077 3.03984e-18)
(41.4223 -12.9791 -3.92984e-15)
(38.4359 -14.866 -1.89873e-15)
(35.5216 -16.636 -1.8439e-15)
(32.751 -18.1739 -3.59939e-15)
(30.164 -19.458 -1.05701e-14)
(27.7781 -20.5046 -3.45336e-15)
(25.5957 -21.3502 -6.79705e-15)
(23.6097 -22.0387 6.68654e-15)
(21.8088 -22.6097 6.57718e-15)
(43.5058 -4.76138 -1.13295e-15)
(42.3195 -6.71809 -5.13655e-16)
(38.7559 -7.72693 2.5656e-18)
(36.3265 -9.66703 3.71476e-15)
(34.1064 -11.689 0)
(31.9237 -13.6142 -3.5108e-15)
(29.7692 -15.3052 3.43589e-15)
(27.6638 -16.7297 3.3724e-15)
(25.6405 -17.8954 -9.97685e-15)
(23.7235 -18.8351 6.55294e-15)
(21.9277 -19.5901 -6.46533e-15)
(20.261 -20.2013 0)
(24.3465 -40.4617 7.91281e-15)
(23.9881 -42.8953 -2.12689e-14)
(22.5665 -44.2217 5.35268e-15)
(21.1891 -45.111 1.3498e-14)
(19.3432 -44.9641 -1.33755e-14)
(17.4798 -44.3903 2.6556e-15)
(15.4628 -42.7592 -1.36676e-18)
(13.4996 -40.4898 -2.64419e-15)
(11.598 -37.2095 -5.33616e-15)
(9.54525 -33.0789 0)
(6.21237 -27.5282 0)
(-0.157894 -25.1365 -5.45573e-16)
(29.5471 -35.208 -1.26041e-19)
(29.0098 -36.4438 6.89094e-15)
(28.0383 -37.5661 -9.60227e-18)
(26.6991 -38.6438 0)
(25.0358 -39.4711 5.16759e-15)
(23.3303 -39.8467 0)
(21.6772 -39.6604 3.59914e-15)
(20.2276 -38.8955 5.6543e-15)
(19.1232 -37.578 -4.03365e-15)
(18.2369 -35.0175 0)
(17.0945 -31.6447 0)
(13.6313 -31.722 -4.47323e-20)
(26.3133 -35.7433 2.75724e-15)
(25.489 -36.4514 -2.69689e-15)
(24.5578 -37.1257 2.67041e-15)
(23.5748 -37.6935 0)
(22.5977 -38.0374 -2.70642e-15)
(21.703 -38.0909 5.55332e-15)
(20.9776 -37.8131 -7.23139e-15)
(20.5131 -37.1993 -7.65021e-15)
(20.4496 -36.3021 4.81536e-15)
(20.6599 -34.721 0)
(20.6977 -32.1694 8.86487e-16)
(20.507 -33.5372 1.115e-20)
(25.6237 -34.0632 2.38477e-15)
(24.7484 -34.5599 -4.64669e-15)
(23.8618 -35.0639 4.56367e-15)
(22.9919 -35.513 -4.53413e-15)
(22.1951 -35.8431 0)
(21.5465 -36.0114 2.28697e-15)
(21.1474 -35.988 2.36225e-15)
(21.0173 -35.7787 1.26644e-15)
(21.3008 -35.4349 -2.65416e-15)
(22.1531 -34.6901 0)
(23.3707 -32.6297 -7.83773e-16)
(25.1212 -35.7086 1.27486e-15)
(24.6911 -32.4856 4.26875e-15)
(23.7228 -32.9748 -2.07721e-15)
(22.8168 -33.4578 0)
(21.9985 -33.9027 0)
(21.3114 -34.281 2.01394e-15)
(20.8193 -34.578 -1.95358e-15)
(20.6181 -34.7646 -2.46558e-18)
(20.7279 -34.8896 0)
(21.3161 -34.9302 -1.17614e-15)
(22.5022 -34.8525 1.18492e-15)
(24.3792 -33.5317 -1.47206e-15)
(27.4009 -37.5716 0)
(23.8961 -31.0074 -7.8638e-15)
(22.8655 -31.4914 3.83141e-15)
(21.9354 -31.9786 7.52196e-15)
(21.1273 -32.4543 4.77935e-20)
(20.4781 -32.9083 -9.24671e-15)
(20.04 -33.3401 -3.71522e-15)
(19.8765 -33.7659 -2.32407e-18)
(20.0546 -34.2053 0)
(20.6981 -34.6703 0)
(21.9822 -35.2286 -1.16547e-15)
(24.3479 -34.7149 -6.92851e-16)
(28.4617 -39.3562 4.35804e-16)
(23.1957 -29.5905 3.69911e-15)
(22.0803 -30.0862 -7.22786e-15)
(21.0898 -30.5899 -3.54567e-15)
(20.2402 -31.1026 -1.87423e-18)
(19.5606 -31.6309 3.47025e-15)
(19.0935 -32.1911 3.46061e-15)
(18.8927 -32.8123 1.74203e-15)
(19.0215 -33.5319 1.77761e-15)
(19.5931 -34.379 -1.86822e-15)
(20.8038 -35.4691 0)
(23.1359 -35.7801 1.23931e-15)
(28.089 -40.7347 -8.12444e-16)
(22.5625 -28.1974 0)
(21.3429 -28.6946 3.45737e-15)
(20.2649 -29.2021 0)
(19.3381 -29.7337 -1.86414e-18)
(18.5825 -30.3104 -4.86486e-20)
(18.029 -30.9642 6.594e-15)
(17.7184 -31.7409 -1.64068e-15)
(17.7063 -32.702 -3.31058e-15)
(18.0899 -33.9025 -1.71122e-15)
(19.0767 -35.5246 9.33032e-16)
(21.2176 -36.7021 -1.68267e-15)
(26.5514 -41.7816 7.57481e-16)
(21.937 -26.7403 3.41145e-15)
(20.6028 -27.2228 -3.35213e-15)
(19.4228 -27.714 -3.30346e-15)
(18.3985 -28.2383 3.26055e-15)
(17.539 -28.8286 3.221e-15)
(16.8615 -29.5301 -9.55496e-15)
(16.3896 -30.406 0)
(16.1616 -31.5434 1.5683e-15)
(16.2442 -33.0307 1.59188e-15)
(16.8258 -35.1177 0)
(18.5038 -37.2035 1.53058e-15)
(23.5362 -42.2666 -3.53264e-16)
(21.1993 -25.086 0)
(19.7696 -25.5462 -6.5455e-15)
(18.4993 -26.008 -3.23009e-15)
(17.3825 -26.5036 -6.36982e-15)
(16.4172 -27.0757 3.14711e-15)
(15.606 -27.7785 3.1063e-15)
(14.9496 -28.689 0)
(14.4599 -29.9151 0)
(14.1586 -31.5848 0)
(14.1825 -34.0339 0)
(15.0217 -36.8383 -4.64786e-16)
(18.9865 -42.0273 -6.60171e-16)
(20.1815 -23.101 3.24107e-15)
(18.7174 -23.5452 3.19364e-15)
(17.4051 -23.9766 1.262e-14)
(16.2339 -24.4323 3.11881e-15)
(15.1918 -24.9624 1.23269e-14)
(14.2675 -25.6254 -3.04468e-15)
(13.4391 -26.5069 -3.00192e-15)
(12.6859 -27.7154 0)
(11.9576 -29.4179 -2.90865e-15)
(11.3359 -32.0334 -1.48261e-15)
(10.8726 -35.1457 -8.53397e-16)
(12.4368 -40.5933 0)
(18.7262 -20.7087 0)
(17.325 -21.1476 0)
(16.0506 -21.5554 -1.23168e-14)
(14.892 -21.9705 -9.13214e-15)
(13.8322 -22.4461 -3.00976e-15)
(12.8489 -23.0345 0)
(11.9007 -23.8286 2.94417e-15)
(10.934 -24.9123 0)
(9.81399 -26.4786 -1.63741e-18)
(8.51374 -28.8537 1.41163e-15)
(6.42154 -32.4524 3.81862e-16)
(-0.912443 -37.4029 -1.61332e-19)
(-0.0696524 -21.6827 -1.86924e-16)
(-0.878146 -18.5446 -2.92278e-15)
(-2.63713 -17.0285 2.98431e-15)
(-4.03436 -16.0965 -2.98717e-15)
(-5.50839 -15.4097 0)
(-6.18918 -15.7607 2.79782e-15)
(-8.64699 -18.1762 0)
(-17.9664 -16.074 2.76957e-15)
(-29.2325 -17.8357 -8.33011e-15)
(-32.359 -23.0613 8.34518e-15)
(-35.563 -24.9559 1.56462e-14)
(-39.0168 -25.9016 -5.20123e-15)
(5.91117 -25.7315 0)
(3.17757 -22.1674 -2.50324e-15)
(-0.830755 -22.6887 2.56439e-15)
(-3.89749 -22.8327 2.57228e-15)
(-8.01373 -24.7929 -5.22465e-15)
(-16.061 -25.5853 -9.47077e-19)
(-24.5964 -28.6866 -4.77015e-15)
(-29.9455 -29.4021 -1.10954e-14)
(-31.9493 -29.7469 1.30906e-14)
(-32.4485 -30.465 -4.00578e-15)
(-33.393 -30.5097 8.76246e-18)
(-34.5517 -30.8564 5.65258e-18)
(5.58396 -29.3634 0)
(1.27206 -26.4801 0)
(-5.06571 -28.0553 0)
(-11.7716 -28.4698 -2.27514e-15)
(-19.9906 -30.7098 0)
(-26.3965 -31.4856 -2.21632e-15)
(-30.5329 -31.8185 4.16597e-15)
(-32.715 -30.8431 6.91199e-15)
(-33.7317 -29.8745 -3.23542e-15)
(-34.0052 -29.2462 -5.80555e-15)
(-34.6704 -28.5234 -8.30769e-15)
(-35.3733 -27.8721 8.18329e-15)
(4.77941 -32.8796 0)
(-1.2313 -32.0182 -1.02968e-15)
(-9.18041 -34.0267 2.03303e-15)
(-16.803 -34.325 2.03192e-15)
(-23.5235 -34.705 0)
(-27.8043 -33.7933 -7.43332e-15)
(-30.3416 -32.7156 6.57285e-15)
(-31.9185 -31.1815 0)
(-32.5914 -29.963 5.41544e-15)
(-32.9342 -28.9661 -7.64298e-15)
(-33.3997 -28.0072 4.83396e-15)
(-33.8007 -27.099 4.01139e-18)
(0.680791 -34.8986 -6.02765e-23)
(-4.69373 -35.7581 1.85449e-15)
(-12.2149 -37.1116 3.01608e-18)
(-19.1345 -36.864 0)
(-24.4363 -36.029 -3.40192e-15)
(-27.4754 -34.4542 6.19717e-15)
(-29.4131 -32.8192 0)
(-30.3744 -31.1326 -2.69974e-15)
(-30.9139 -29.6471 -2.5088e-15)
(-31.2998 -28.379 4.69256e-15)
(-31.7319 -27.2222 0)
(-32.1713 -26.155 -4.23613e-15)
(-1.59061 -37.01 4.66038e-16)
(-7.14984 -38.2356 1.87797e-18)
(-13.9235 -38.9011 -1.61642e-15)
(-19.7915 -38.1336 -6.29964e-15)
(-23.9837 -36.6015 -1.62754e-18)
(-26.4228 -34.6726 5.45694e-15)
(-27.8781 -32.7586 0)
(-28.7494 -30.8953 7.21898e-15)
(-29.3139 -29.2452 -4.51245e-15)
(-29.7537 -27.8019 4.26251e-15)
(-30.1915 -26.5033 2.35807e-18)
(-30.6345 -25.3236 -4.16123e-19)
(-4.39516 -38.8209 -1.30242e-15)
(-9.12812 -40.5701 -7.73225e-16)
(-14.8703 -40.3952 0)
(-19.6222 -39.229 5.64134e-15)
(-22.9391 -37.1999 -7.98562e-15)
(-24.9424 -34.9759 -1.25626e-18)
(-26.2309 -32.7999 -9.34764e-15)
(-27.079 -30.7707 3.75402e-18)
(-27.6931 -28.9533 -4.16002e-15)
(-28.1961 -27.3425 -3.96453e-15)
(-28.6681 -25.8992 3.80318e-15)
(-29.1297 -24.598 -3.66463e-15)
(-5.93321 -41.1658 1.21494e-15)
(-10.2527 -42.944 -7.14563e-16)
(-15.0155 -42.0065 0)
(-18.8157 -40.4427 2.54704e-15)
(-21.521 -37.9871 2.39522e-15)
(-23.3057 -35.4594 2.25662e-15)
(-24.5374 -33.0246 -3.56783e-18)
(-25.4227 -30.7855 -8.47113e-19)
(-26.1021 -28.7743 -3.88026e-15)
(-26.6641 -26.9836 -4.73211e-18)
(-27.1679 -25.3836 2.00645e-18)
(-27.6402 -23.9489 0)
(-7.96859 -42.7132 3.79188e-16)
(-11.0712 -45.2375 0)
(-14.6152 -43.5033 0)
(-17.5562 -41.6052 -2.29064e-15)
(-19.8198 -38.8153 2.16387e-15)
(-21.5079 -36.0033 -4.11913e-15)
(-22.768 -33.3123 0)
(-23.7277 -30.846 3.78302e-15)
(-24.4807 -28.6283 -1.95223e-18)
(-25.0951 -26.6504 3.53736e-15)
(-25.6214 -24.8868 -3.44435e-15)
(-26.0912 -23.3119 6.72366e-15)
(-8.24014 -45.9044 -2.2358e-19)
(-10.9276 -47.5234 -5.84648e-16)
(-13.4025 -44.7018 -2.19885e-15)
(-15.7951 -42.2314 -4.16326e-15)
(-17.7902 -39.1359 0)
(-19.4482 -36.0979 3.81132e-15)
(-20.7749 -33.2279 -7.37555e-15)
(-21.8268 -30.6001 3.57764e-15)
(-22.6614 -28.2328 3.49044e-15)
(-23.3302 -26.1154 0)
(-23.8794 -24.2265 -3.33647e-15)
(-24.3452 -22.5415 -6.53032e-15)
(-10.9286 -46.7498 -6.31144e-16)
(-10.0534 -47.3268 5.38514e-16)
(-11.2667 -43.7538 2.01233e-15)
(-13.2874 -40.8469 1.93145e-15)
(-15.1761 -37.7596 -3.65675e-19)
(-16.885 -34.7928 -5.40983e-15)
(-18.3288 -32.0136 7.01361e-15)
(-19.5058 -29.4543 1.37035e-14)
(-20.4451 -27.1254 -1.0063e-14)
(-21.189 -25.0203 -6.58638e-15)
(-21.7798 -23.1265 6.46536e-15)
(-22.2583 -21.4264 0)
(-4.72659 -43.3011 1.12719e-15)
(-6.77171 -42.0104 5.12512e-16)
(-7.92176 -38.2952 9.39275e-16)
(-9.92818 -35.7893 3.64296e-15)
(-11.9503 -33.4642 0)
(-13.8116 -31.2018 3.41513e-15)
(-15.4066 -29.0049 -6.68125e-15)
(-16.7213 -26.895 -3.27305e-15)
(-17.7732 -24.9027 -3.22121e-15)
(-18.6029 -23.0469 6.34248e-15)
(-19.2502 -21.3365 3.12975e-15)
(-19.7589 -19.771 9.26276e-15)
(-41.6981 -25.6978 -2.6218e-15)
(-43.9269 -24.9114 2.65319e-15)
(-45.2952 -23.5205 -7.99784e-15)
(-46.0045 -21.8925 2.4047e-14)
(-45.9063 -19.9986 -1.05927e-14)
(-45.1669 -17.962 0)
(-43.5292 -15.8797 -5.24536e-15)
(-41.1005 -13.8097 3.9438e-15)
(-37.7662 -11.8592 0)
(-33.4466 -9.74718 9.00172e-19)
(-27.833 -6.40831 0)
(-25.2992 0.0787408 3.64362e-16)
(-35.7281 -30.5343 -1.362e-14)
(-37.0146 -29.8869 6.67507e-15)
(-38.2119 -28.8122 6.62871e-15)
(-39.3116 -27.3568 -3.31664e-15)
(-40.1181 -25.641 0)
(-40.4452 -23.8804 0)
(-40.2072 -22.1799 3.50698e-15)
(-39.3768 -20.6848 -3.6874e-15)
(-37.9877 -19.5342 0)
(-35.3043 -18.6188 1.01879e-15)
(-31.882 -17.5063 -2.449e-19)
(-31.8596 -14.3214 -1.33062e-15)
(-36.0798 -27.1117 2.6543e-15)
(-36.841 -26.2445 -5.18037e-15)
(-37.5542 -25.2696 0)
(-38.1277 -24.2418 -5.14743e-15)
(-38.4578 -23.2218 -5.21336e-15)
(-38.4855 -22.287 1.07109e-14)
(-38.1708 -21.5249 -8.39318e-15)
(-37.5106 -21.0329 0)
(-36.5418 -20.9478 0)
(-34.8676 -21.161 0)
(-32.2768 -21.228 -8.72567e-16)
(-33.5534 -21.0863 0)
(-34.2864 -26.2292 -2.28693e-15)
(-34.8338 -25.3475 -3.57582e-18)
(-35.3655 -24.4486 0)
(-35.8188 -23.5654 -3.35554e-18)
(-36.1344 -22.7597 0)
(-36.275 -22.1062 0)
(-36.2153 -21.6959 2.29689e-15)
(-35.9569 -21.5731 -2.4617e-15)
(-35.5697 -21.8592 2.61787e-15)
(-34.7729 -22.7003 0)
(-32.7233 -23.9582 -7.64158e-16)
(-35.7218 -25.895 1.01519e-15)
(-32.6581 -25.1586 8.17896e-15)
(-33.1624 -24.2107 -1.99112e-15)
(-33.6474 -23.3192 3.91055e-15)
(-34.0808 -22.5127 1.93786e-15)
(-34.4373 -21.8373 -5.80001e-15)
(-34.7033 -21.3602 0)
(-34.86 -21.1678 -1.94057e-15)
(-34.9493 -21.2898 0)
(-34.9548 -21.8858 0)
(-34.8549 -23.0684 1.1598e-15)
(-33.5194 -24.975 3.92179e-19)
(-37.4988 -28.0775 1.25728e-18)
(-31.1025 -24.2426 -3.77141e-15)
(-31.5813 -23.2485 -2.32944e-18)
(-32.0539 -22.35 0)
(-32.5066 -21.571 0)
(-32.9317 -20.9505 -5.34398e-15)
(-33.3327 -20.5407 3.57871e-15)
(-33.7287 -20.4032 3.64055e-15)
(-34.1418 -20.6057 1.88684e-15)
(-34.5907 -21.2673 -4.03843e-15)
(-35.1277 -22.5659 -1.13603e-15)
(-34.6727 -24.9464 0)
(-39.2569 -29.1306 4.34015e-16)
(-29.5966 -23.4202 -7.11848e-15)
(-30.0681 -22.3569 3.47153e-15)
(-30.5422 -21.4137 3.41438e-15)
(-31.0212 -20.6088 1.84398e-18)
(-31.5143 -19.9724 -3.83228e-18)
(-32.041 -19.5465 -3.34235e-15)
(-32.6341 -19.3822 -5.04588e-15)
(-33.3342 -19.541 -1.72087e-15)
(-34.1776 -20.1313 1.81055e-15)
(-35.271 -21.3468 0)
(-35.6525 -23.675 1.82994e-15)
(-40.5697 -28.6111 -1.21417e-15)
(-28.0996 -22.6604 6.80171e-15)
(-28.5562 -21.5079 -3.33629e-15)
(-29.021 -20.4922 -3.28051e-15)
(-29.5094 -19.6242 -6.47226e-15)
(-30.0453 -18.925 6.4079e-15)
(-30.664 -18.4241 -1.84829e-18)
(-31.4154 -18.1594 9.52545e-15)
(-32.3651 -18.182 1.60065e-15)
(-33.5763 -18.5829 1.65999e-15)
(-35.2255 -19.5666 0)
(-36.4996 -21.6931 -1.10113e-15)
(-41.5834 -26.9358 3.77615e-16)
(-26.5293 -21.905 0)
(-26.9553 -20.6524 3.23179e-15)
(-27.391 -19.5486 3.18407e-15)
(-27.8633 -18.5962 -3.14534e-15)
(-28.4082 -17.805 -1.41245e-18)
(-29.0742 -17.1905 -3.07875e-15)
(-29.9287 -16.7722 -3.04774e-15)
(-31.0631 -16.5819 0)
(-32.5751 -16.6775 -1.54467e-15)
(-34.7108 -17.2396 -8.31275e-16)
(-36.8968 -18.8638 2.50542e-15)
(-42.0309 -23.7125 -3.49635e-16)
(-24.7582 -21.0397 0)
(-25.1465 -19.7039 0)
(-25.5407 -18.5225 0)
(-25.9762 -17.4894 -9.23441e-15)
(-26.499 -16.6029 6.08212e-15)
(-27.167 -15.8635 6.00847e-15)
(-28.0623 -15.2667 0)
(-29.2966 -14.8175 -2.93122e-15)
(-31.008 -14.5243 0)
(-33.5292 -14.5178 -1.5394e-15)
(-36.4342 -15.2552 -4.56975e-16)
(-41.7693 -18.927 -6.55904e-16)
(-22.6595 -19.9046 0)
(-23.0177 -18.5445 0)
(-23.3705 -17.3314 6.10467e-15)
(-23.7594 -16.2531 9.04544e-15)
(-24.238 -15.2981 3.04776e-18)
(-24.8687 -14.4519 2.94927e-15)
(-25.7441 -13.6876 -1.45432e-15)
(-26.9769 -12.975 4.29085e-15)
(-28.744 -12.2497 2.82769e-15)
(-31.4558 -11.585 1.44556e-15)
(-34.6903 -10.9767 -8.40079e-16)
(-40.3234 -12.1107 -1.22687e-15)
(-20.1657 -18.3494 0)
(-20.5076 -17.0612 0)
(-20.8272 -15.894 -5.96316e-15)
(-21.17 -14.8346 2.95291e-15)
(-21.594 -13.867 -2.91989e-15)
(-22.1575 -12.9653 -2.89125e-15)
(-22.9633 -12.0796 2.85977e-15)
(-24.1 -11.1507 0)
(-25.7707 -10.0288 -2.76044e-15)
(-28.2789 -8.676 -1.38045e-15)
(-32.0239 -6.38614 1.13381e-15)
(-37.2694 1.46616 2.06829e-19)
(-21.7123 0.296495 -1.54079e-19)
(-18.6307 0.88319 0)
(-17.0555 2.61408 0)
(-16.0537 4.08061 -5.9745e-15)
(-15.3965 5.46532 8.98305e-15)
(-15.3132 6.47645 0)
(-17.0721 7.66889 0)
(-17.2862 13.5339 2.74879e-15)
(-15.2119 26.1779 2.80625e-15)
(-20.5735 32.0975 8.39343e-15)
(-22.8988 34.2588 1.38839e-14)
(-24.6925 37.8742 -2.6107e-15)
(-25.6546 -5.79846 -2.38016e-19)
(-22.0862 -3.31408 0)
(-22.4989 0.706525 0)
(-22.0893 3.74133 -2.57019e-15)
(-23.9737 7.02251 5.21323e-15)
(-24.7203 13.2718 -1.55093e-14)
(-26.8209 22.273 9.78781e-15)
(-28.7219 28.7717 2.23266e-15)
(-28.5229 31.6042 -4.24954e-15)
(-29.395 32.4777 7.32092e-18)
(-29.5687 32.835 0)
(-29.6414 34.2609 -7.26501e-15)
(-29.2135 -5.58711 3.01622e-16)
(-26.2212 -1.75896 0)
(-27.5342 4.09442 0)
(-27.6367 10.1014 -2.36969e-18)
(-29.393 17.6806 2.89771e-18)
(-30.6426 24.9089 -4.51714e-15)
(-30.9404 29.6182 0)
(-30.4905 32.2882 -1.06809e-14)
(-29.2276 33.6057 1.00456e-14)
(-28.4863 33.9753 -3.01608e-15)
(-27.7744 34.4163 -5.77423e-15)
(-27.0549 35.1156 8.37952e-15)
(-32.7928 -5.28665 1.10648e-15)
(-31.6643 0.242648 1.03327e-15)
(-33.5361 7.76757 0)
(-33.7902 15.2138 2.04935e-15)
(-34.2478 22.2261 -2.0199e-15)
(-33.5485 27.1133 3.84804e-15)
(-32.4232 29.9518 0)
(-30.9387 31.6671 -3.00923e-15)
(-29.5422 32.5157 -8.49282e-15)
(-28.4535 32.8663 5.32317e-15)
(-27.4717 33.2458 5.05114e-15)
(-26.52 33.6696 -9.73406e-15)
(-34.8617 -1.31529 -5.05859e-16)
(-35.599 3.6519 -9.33992e-16)
(-37.043 10.9499 1.83647e-15)
(-36.8896 17.9141 0)
(-36.1332 23.6226 -7.03188e-15)
(-34.5655 27.0245 6.43495e-15)
(-32.8091 29.1294 2.95856e-15)
(-31.0651 30.2355 2.79319e-15)
(-29.4438 30.836 0)
(-28.0689 31.2191 0)
(-26.8496 31.6144 0)
(-25.7246 32.0383 -6.39281e-18)
(-37.1119 0.801856 6.10554e-19)
(-38.2581 6.15431 0)
(-39.1198 12.8389 -1.64245e-15)
(-38.4727 18.8168 3.22293e-15)
(-36.963 23.3212 3.06672e-15)
(-34.9649 26.0132 -5.63151e-15)
(-32.9406 27.615 2.6749e-15)
(-30.9716 28.5912 -1.00028e-14)
(-29.1947 29.2162 -1.29235e-18)
(-27.6448 29.6736 -3.47065e-18)
(-26.2693 30.1064 2.43267e-18)
(-25.0245 30.5474 1.2191e-14)
(-38.9754 3.7728 4.35593e-16)
(-40.7446 8.29808 1.56181e-15)
(-40.7714 13.9857 -2.98048e-15)
(-39.7245 18.8139 -2.86907e-15)
(-37.702 22.3495 -5.43926e-15)
(-35.4065 24.5429 -2.56059e-15)
(-33.1263 25.9672 -4.8102e-15)
(-30.9868 26.9147 9.07559e-15)
(-29.0534 27.5935 0)
(-27.3382 28.1331 8.21484e-15)
(-25.8093 28.6257 -1.18294e-14)
(-24.4343 29.1062 3.81055e-15)
(-41.3333 5.42402 -8.10771e-16)
(-43.1872 9.58236 -2.15569e-15)
(-42.4469 14.2923 4.0558e-15)
(-41.0135 18.1295 0)
(-38.589 20.9877 -2.43652e-15)
(-36.0162 22.9288 4.60398e-15)
(-33.4956 24.2874 -2.29643e-18)
(-31.1538 25.2728 9.083e-19)
(-29.0331 26.0275 -3.99715e-15)
(-27.1378 26.6438 -7.69673e-15)
(-25.4443 27.1896 3.72055e-15)
(-23.9255 27.7004 -3.61763e-15)
(-42.8614 7.65168 -7.58697e-16)
(-45.4997 10.5661 0)
(-43.9565 14.0452 0)
(-42.2093 16.9992 0)
(-39.486 19.3614 2.19256e-15)
(-36.6652 21.1718 0)
(-33.9146 22.5463 -3.03152e-18)
(-31.3618 23.6072 7.76291e-15)
(-29.0439 24.446 2.19334e-18)
(-26.9631 25.1314 3.65086e-15)
(-25.1004 25.719 -3.56068e-15)
(-23.4316 26.2462 1.04452e-14)
(-46.0523 8.06586 -1.41714e-15)
(-47.7419 10.5784 2.93636e-15)
(-45.134 12.9739 -1.10343e-15)
(-42.8315 15.3562 0)
(-39.832 17.4082 0)
(-36.8185 19.1547 0)
(-33.9206 20.5839 0)
(-31.2321 21.74 3.67562e-15)
(-28.7824 22.6712 -1.43609e-14)
(-26.5713 23.4275 -7.03019e-15)
(-24.5836 24.0573 6.89083e-15)
(-22.7991 24.5991 3.38628e-15)
(-46.7898 10.8635 -6.3251e-16)
(-47.5739 9.83918 -1.63187e-15)
(-44.1774 11.0078 -1.02027e-15)
(-41.422 12.9792 0)
(-38.4356 14.866 0)
(-35.5214 16.6359 3.68986e-15)
(-32.7508 18.1738 -7.19725e-15)
(-30.1638 19.4579 1.40925e-14)
(-27.778 20.5045 1.03693e-14)
(-25.5956 21.3501 6.79159e-15)
(-23.6096 22.0386 -6.68141e-15)
(-21.8087 22.6097 4.85655e-18)
(-43.5057 4.76126 -1.13883e-18)
(-42.3195 6.71812 0)
(-38.7557 7.72698 1.90361e-15)
(-36.3263 9.66708 -5.5775e-15)
(-34.1062 11.689 5.40364e-15)
(-31.9235 13.6142 2.94558e-18)
(-29.769 15.3052 3.43592e-15)
(-27.6636 16.7296 -3.37472e-15)